1000 SPC/Fw water molecules t=   1.93000 step= 1930
 2931
    1SOL     OW    1   2.534   0.275   2.711  0.1227 -0.3523  0.2572
    1SOL    HW1    2   2.579   0.188   2.693  0.9060  0.5103  0.3121
    1SOL    HW2    3   2.562   0.326   2.798 -0.6565 -0.6855  1.4954
    2SOL     OW    4   2.790   2.794   1.276  0.2187 -0.5315 -0.6309
    2SOL    HW1    5   2.882   2.836   1.240  1.7069 -1.2073 -1.6506
    2SOL    HW2    6   2.777   2.815   1.379  0.8951 -1.7651  1.3531
    3SOL     OW    7   2.760   2.429   0.464  0.7495 -0.2702  0.1445
    3SOL    HW1    8   2.664   2.433   0.420 -0.1407 -4.7169 -2.2965
    3SOL    HW2    9   2.785   2.499   0.538 -0.9286  0.8010  0.5747
    4SOL     OW   10   1.199   1.545   2.430 -0.4847 -0.1206 -0.3424
    4SOL    HW1   11   1.156   1.595   2.352  0.5768 -1.1749  0.3779
    4SOL    HW2   12   1.171   1.445   2.446  0.3814  0.4808 -2.0211
    5SOL     OW   13   1.152   1.568   2.905  0.0378 -0.0364  0.1109
    5SOL    HW1   14   1.181   1.653   2.951 -2.5262 -2.0663 -1.0717
    5SOL    HW2   15   1.058   1.572   2.868  2.4717 -1.4525 -0.1077
    6SOL     OW   16   0.186   1.867   0.014  0.0495  0.4419 -0.1291
    6SOL    HW1   17   0.087   1.890   0.047 -1.8906 -1.5741  2.3462
    6SOL    HW2   18   0.222   1.776   0.062  1.3576 -1.1969  1.4403
    7SOL     OW   19   2.556   0.861   1.061  0.0257  0.2491  0.3219
    7SOL    HW1   20   2.467   0.834   1.104 -1.5867 -2.2397  1.4924
    7SOL    HW2   21   2.567   0.824   0.962  5.4386 -1.7189  0.1585
    8SOL     OW   22   0.471   0.729   1.479  0.3018 -0.1393 -0.7823
    8SOL    HW1   23   0.569   0.735   1.512  0.5182  1.1279  0.9271
    8SOL    HW2   24   0.459   0.738   1.377 -1.0665 -0.9823  0.4774
    9SOL     OW   25   1.132   0.851   2.317  0.0142 -0.8149 -0.6635
    9SOL    HW1   26   1.174   0.898   2.229 -0.9774  2.7758 -1.6318
    9SOL    HW2   27   1.084   0.759   2.317 -0.3917  2.3545  3.1679
   10SOL     OW   28   0.601   1.492   1.250  0.1602  0.6604 -0.0651
   10SOL    HW1   29   0.514   1.477   1.190 -2.1161 -0.5427  0.1398
   10SOL    HW2   30   0.619   1.587   1.283  0.9383  0.5139 -0.8871
   11SOL     OW   31   2.346   2.826   0.935 -0.4495 -0.1625 -0.2017
   11SOL    HW1   32   2.296   2.821   1.020  2.6163 -1.7463 -2.0536
   11SOL    HW2   33   2.448   2.846   0.955 -0.8404  0.8543  0.6283
   12SOL     OW   34   1.429   0.829   0.524 -0.1114 -0.2967  0.3672
   12SOL    HW1   35   1.326   0.818   0.516 -1.5990  2.0197  2.6898
   12SOL    HW2   36   1.466   0.819   0.425 -0.1156  1.1704  0.5278
   13SOL     OW   37   2.444   0.700   1.841  0.1499 -0.5366 -0.2058
   13SOL    HW1   38   2.376   0.657   1.908 -1.7750  0.3803 -0.9840
   13SOL    HW2   39   2.459   0.641   1.750  1.2995 -2.6963 -2.5686
   14SOL     OW   40   1.931   3.030   0.655  0.7269 -0.1259  0.5916
   14SOL    HW1   41   1.827   3.057   0.666 -2.6012  1.3707  2.0777
   14SOL    HW2   42   1.971   2.981   0.735  2.1146  0.1779  0.8539
   15SOL     OW   43   1.864   2.097   2.637 -0.4806 -0.2996  0.1241
   15SOL    HW1   44   1.776   2.105   2.698 -1.6824 -0.5104  1.7657
   15SOL    HW2   45   1.874   2.004   2.585 -2.2312 -2.7999 -3.2736
   16SOL     OW   46   1.545   1.742   2.993 -0.5228 -0.1680 -0.2955
   16SOL    HW1   47   1.542   1.669   3.067  0.4674 -1.7401 -0.5233
   16SOL    HW2   48   1.634   1.797   2.997 -0.8859 -3.1212  3.9043
   17SOL     OW   49   0.059   0.466   0.197 -0.2446  0.2194 -0.7106
   17SOL    HW1   50   0.153   0.481   0.152 -0.5991 -1.6424 -2.3605
   17SOL    HW2   51  -0.017   0.477   0.126  3.5103 -1.3334 -1.2952
   18SOL     OW   52   0.864   2.831   2.236  0.4205 -0.2032 -0.1606
   18SOL    HW1   53   0.812   2.761   2.290 -0.0113  2.2210  1.2394
   18SOL    HW2   54   0.881   2.802   2.140  0.4387 -0.5383 -0.8889
   19SOL     OW   55   0.513   0.926   1.922  0.9126  0.4310 -0.3294
   19SOL    HW1   56   0.557   0.865   1.994  1.1585  1.8926 -0.1664
   19SOL    HW2   57   0.578   1.005   1.887  1.0656  0.7064  0.7022
   20SOL     OW   58   0.218   2.774   0.766  0.3369 -0.7966  0.4283
   20SOL    HW1   59   0.122   2.791   0.752  0.9173 -2.5628  0.7483
   20SOL    HW2   60   0.252   2.700   0.697  0.1558 -0.0391 -0.0878
   21SOL     OW   61   2.830   0.291   1.973 -0.2790  0.1929 -0.2581
   21SOL    HW1   62   2.749   0.222   1.971  0.1159  0.7567  1.0434
   21SOL    HW2   63   2.911   0.251   2.027  0.2534  1.3885 -0.7894
   22SOL     OW   64   2.422   0.205   0.062 -0.2562  0.4482 -0.2213
   22SOL    HW1   65   2.429   0.109   0.018  0.5941  2.3513 -2.3912
   22SOL    HW2   66   2.351   0.262   0.018  2.9437 -4.0615  0.0885
   23SOL     OW   67   2.809   0.511   0.670 -0.1477  0.2067  0.1553
   23SOL    HW1   68   2.884   0.445   0.637 -0.1103  4.0701 -0.3818
   23SOL    HW2   69   2.816   0.605   0.624 -2.4735 -0.4394  3.8263
   24SOL     OW   70   0.273   1.903   0.434 -0.0581 -0.5145 -0.6860
   24SOL    HW1   71   0.280   2.000   0.392  0.2286 -0.0936  1.2851
   24SOL    HW2   72   0.358   1.848   0.421  0.3672  1.0836 -0.5687
   25SOL     OW   73   2.294   0.579   0.256 -0.0980 -0.2702  0.2638
   25SOL    HW1   74   2.299   0.579   0.152 -0.8385  3.4707 -0.0059
   25SOL    HW2   75   2.352   0.503   0.304  0.0597 -0.6685 -0.2751
   26SOL     OW   76   2.457   2.150   2.145 -0.8386  0.0464  0.2583
   26SOL    HW1   77   2.536   2.222   2.144  0.5011 -1.3292 -0.8487
   26SOL    HW2   78   2.460   2.093   2.056  0.7815 -0.3114 -0.0283
   27SOL     OW   79   0.640   3.023   0.174 -0.1102  0.9134 -0.1059
   27SOL    HW1   80   0.737   3.058   0.148 -0.0323  1.0479 -1.8530
   27SOL    HW2   81   0.563   3.029   0.106 -1.1789 -2.6005 -3.2320
   28SOL     OW   82   1.569   0.174   0.339  0.4155 -0.2165  0.2356
   28SOL    HW1   83   1.623   0.145   0.255 -0.0663  1.3328  1.1622
   28SOL    HW2   84   1.629   0.238   0.391  0.0170  1.2465  0.4079
   29SOL     OW   85   2.005   0.548   0.310 -0.1884 -0.2053  0.0291
   29SOL    HW1   86   1.978   0.626   0.373  2.6549 -0.0387 -0.5405
   29SOL    HW2   87   2.100   0.553   0.280 -2.9080  0.8573  0.8112
   30SOL     OW   88   0.186   2.103   0.895 -0.1048 -0.6868  0.2189
   30SOL    HW1   89   0.179   2.041   0.810  0.7412  0.2529 -0.2290
   30SOL    HW2   90   0.110   2.177   0.903 -2.0911 -1.6769  0.0672
   31SOL     OW   91   2.093   0.099   2.367 -0.0195 -0.1600 -0.0760
   31SOL    HW1   92   2.055   0.072   2.459 -0.8417 -0.4913  0.6350
   31SOL    HW2   93   2.022   0.101   2.291 -2.8692 -0.7199 -0.1909
   32SOL     OW   94   3.078   3.062   0.228  0.2144  0.6488  0.0964
   32SOL    HW1   95   3.067   2.959   0.259 -0.7929 -2.1453 -0.4102
   32SOL    HW2   96   3.180   3.084   0.198  0.0787  1.1693 -1.1574
   33SOL     OW   97   0.877   0.260   0.660  0.0836 -0.6160  0.2148
   33SOL    HW1   98   0.883   0.191   0.577  0.8864 -0.6889 -2.3222
   33SOL    HW2   99   0.967   0.312   0.673 -0.9202 -1.4350  1.0914
   34SOL     OW  100   0.348   2.655   0.996  0.3460  0.1218 -0.5119
   34SOL    HW1  101   0.308   2.674   0.902 -0.6012 -0.2974 -3.2035
   34SOL    HW2  102   0.403   2.733   1.035  0.7670 -0.2842  0.7480
   35SOL     OW  103   0.109   0.205   1.915  0.2755  0.1518  0.7662
   35SOL    HW1  104   0.126   0.101   1.924 -0.2017 -1.0699 -1.8547
   35SOL    HW2  105   0.039   0.217   1.842  0.0326 -2.2161  1.1895
   36SOL     OW  106   1.846   1.235   1.477 -0.8204  0.6193  0.5116
   36SOL    HW1  107   1.930   1.184   1.507 -0.9809 -1.8400 -0.7262
   36SOL    HW2  108   1.870   1.323   1.427  1.4455 -2.2472  0.8165
   37SOL     OW  109   1.165   0.247   0.991 -0.0637  0.1186 -0.2798
   37SOL    HW1  110   1.178   0.349   0.987 -1.1006 -0.8742  0.5820
   37SOL    HW2  111   1.237   0.188   0.938  0.1089 -1.9874 -1.6199
   38SOL     OW  112   1.121   2.808   2.466  0.5386 -0.2671  0.3843
   38SOL    HW1  113   1.030   2.774   2.508 -1.5824 -1.2287 -1.7165
   38SOL    HW2  114   1.120   2.909   2.440  2.9173 -0.2453  1.3091
   39SOL     OW  115   2.477   1.411   3.024  0.7001 -0.2168  0.8756
   39SOL    HW1  116   2.534   1.324   3.032  0.1968 -1.8886 -3.3697
   39SOL    HW2  117   2.390   1.409   3.087 -0.0443  0.2968  1.1212
   40SOL     OW  118   2.040   2.502   2.565  0.2174  0.2740  0.5864
   40SOL    HW1  119   1.980   2.584   2.574  0.2192 -1.8086  1.0319
   40SOL    HW2  120   1.984   2.426   2.517 -3.8087 -0.1982 -2.5025
   41SOL     OW  121   3.024   0.702   2.805  0.0031  0.0851  0.0906
   41SOL    HW1  122   3.011   0.791   2.859 -0.1619 -0.0247  0.4321
   41SOL    HW2  123   2.937   0.654   2.792  1.4703  0.9222  0.9674
   42SOL     OW  124   1.758   1.736   0.463  0.7751 -0.5331 -0.3981
   42SOL    HW1  125   1.716   1.640   0.475  0.7360 -1.8774 -0.6984
   42SOL    HW2  126   1.748   1.776   0.367  0.1851 -0.5258 -0.6348
   43SOL     OW  127   0.426   1.790   1.132 -0.3371  0.6379  0.3063
   43SOL    HW1  128   0.378   1.757   1.050  2.9727  3.4165 -1.9446
   43SOL    HW2  129   0.355   1.801   1.208 -0.7081  1.9489  0.5417
   44SOL     OW  130   1.710   2.384   2.965  0.1999  0.4073  0.4839
   44SOL    HW1  131   1.632   2.441   3.008 -0.1676  2.9273 -0.6419
   44SOL    HW2  132   1.734   2.411   2.868 -0.4613 -1.5508 -1.0021
   45SOL     OW  133   0.356   1.934   2.613  0.0846 -0.2646  0.3593
   45SOL    HW1  134   0.280   1.903   2.548 -2.5579  1.5600  1.5428
   45SOL    HW2  135   0.436   1.870   2.616  0.5536  3.8588 -1.5861
   46SOL     OW  136   1.302   0.732   0.231 -0.3709  0.5464 -0.6285
   46SOL    HW1  137   1.271   0.831   0.217  0.8806 -0.7871  0.5745
   46SOL    HW2  138   1.236   0.657   0.189 -0.2096  0.4568 -0.5160
   47SOL     OW  139   0.166   2.341   1.610  0.3435  0.2456  0.1044
   47SOL    HW1  140   0.086   2.300   1.661  0.1290 -2.2794 -0.4610
   47SOL    HW2  141   0.152   2.365   1.511  0.7344 -1.0258 -0.2830
   48SOL     OW  142   2.658   0.684   0.174  0.1899 -0.5584  1.1971
   48SOL    HW1  143   2.658   0.638   0.269  0.8021 -0.7754  2.0061
   48SOL    HW2  144   2.755   0.709   0.147  1.0737 -0.1292  2.0793
   49SOL     OW  145   0.334   0.849   1.727  0.2668 -0.1332 -0.2293
   49SOL    HW1  146   0.421   0.873   1.780 -0.3576 -1.9649 -1.2990
   49SOL    HW2  147   0.356   0.787   1.646 -3.1482  0.4781 -3.0549
   50SOL     OW  148   1.682   1.084   0.341  0.2914 -0.6391  0.3005
   50SOL    HW1  149   1.711   0.995   0.302 -1.2532  0.6351  3.7048
   50SOL    HW2  150   1.610   1.067   0.412 -0.1349  0.2976 -0.3672
   51SOL     OW  151   2.925   1.712   0.329 -0.2301 -0.0227  0.7797
   51SOL    HW1  152   2.924   1.681   0.229 -1.8906 -0.7983  0.9857
   51SOL    HW2  153   3.025   1.710   0.370  0.3648 -1.7575  0.9832
   52SOL     OW  154   0.802   2.180   0.556  0.0670 -0.0915 -0.2465
   52SOL    HW1  155   0.710   2.182   0.511  0.1728 -1.4553  1.1004
   52SOL    HW2  156   0.802   2.134   0.647  0.2564 -0.7225 -1.1418
   53SOL     OW  157   0.301   0.494   1.496  0.0079  0.7524  0.5394
   53SOL    HW1  158   0.377   0.566   1.501 -0.9135  0.8319  0.7976
   53SOL    HW2  159   0.234   0.521   1.422  2.7681  0.8655  0.0014
   54SOL     OW  160   1.789   0.439   3.094 -0.1117 -0.1197 -0.6157
   54SOL    HW1  161   1.864   0.389   3.147  0.2201 -0.6973 -1.7611
   54SOL    HW2  162   1.694   0.431   3.133  2.1376  0.9549  0.8293
   55SOL     OW  163   0.770   2.898   0.622 -1.1532 -0.4073 -0.4080
   55SOL    HW1  164   0.725   2.989   0.592 -0.2571  2.1902 -0.7708
   55SOL    HW2  165   0.874   2.897   0.617  0.7517  1.1919  1.0404
   56SOL     OW  166   0.514   1.612   3.063  0.0304  0.0711  0.2380
   56SOL    HW1  167   0.442   1.644   3.133 -0.1100  2.8186  0.6325
   56SOL    HW2  168   0.492   1.532   3.003 -0.4720  2.5991 -2.1879
   57SOL     OW  169   1.684   2.473   2.384  0.2734 -0.3462  0.1540
   57SOL    HW1  170   1.763   2.409   2.398  0.1659 -0.2756 -1.1245
   57SOL    HW2  171   1.610   2.457   2.457  0.6368  0.8880  1.2106
   58SOL     OW  172   0.655   0.167   1.075  0.4305 -0.6619 -0.0606
   58SOL    HW1  173   0.579   0.170   1.145 -0.3756  0.0249  0.8455
   58SOL    HW2  174   0.705   0.078   1.064  2.1226  2.6575 -0.8385
   59SOL     OW  175   0.455   2.372   2.577 -0.2294  0.7155 -0.4589
   59SOL    HW1  176   0.468   2.274   2.619 -0.7718 -0.9779  1.6226
   59SOL    HW2  177   0.541   2.429   2.592  0.2870 -1.7057 -1.2111
   60SOL     OW  178   2.329   2.060   2.369  0.1693  0.0679  0.0245
   60SOL    HW1  179   2.377   2.099   2.284  2.1153 -2.3245  2.6089
   60SOL    HW2  180   2.349   2.112   2.459  1.1551 -1.6946  0.4607
   61SOL     OW  181   1.196   0.640   0.492 -0.2374  0.1034  0.3767
   61SOL    HW1  182   1.097   0.673   0.477 -0.3936  1.1256  0.5875
   61SOL    HW2  183   1.258   0.656   0.414 -1.4158 -0.2993  1.1351
   62SOL     OW  184   2.770   1.711   2.686 -0.9293  0.2024 -0.0298
   62SOL    HW1  185   2.737   1.623   2.648  1.3483 -0.1306 -1.3197
   62SOL    HW2  186   2.868   1.706   2.731  0.3942  1.7657 -1.0913
   63SOL     OW  187   0.522   0.808   0.191 -0.4459 -0.5086 -0.9865
   63SOL    HW1  188   0.598   0.865   0.147 -1.1416 -0.9174 -2.5867
   63SOL    HW2  189   0.530   0.810   0.295  1.5373 -0.7214  2.1700
   64SOL     OW  190   3.067   0.567   2.381  0.4968  0.2754  0.1257
   64SOL    HW1  191   3.007   0.588   2.464  1.2887  0.0827 -1.8569
   64SOL    HW2  192   3.034   0.619   2.295 -0.8503 -0.6370  0.2090
   65SOL     OW  193   0.135   1.434   0.648 -0.3966 -0.6901  0.3924
   65SOL    HW1  194   0.110   1.506   0.719 -2.1904  1.9721  0.0366
   65SOL    HW2  195   0.146   1.472   0.555 -1.7526 -0.6208 -0.6425
   66SOL     OW  196   2.601   0.313   0.514 -0.4040 -0.0492 -0.5578
   66SOL    HW1  197   2.701   0.277   0.532  3.0325  0.3474  3.3993
   66SOL    HW2  198   2.532   0.265   0.585  0.0262  1.4221  2.9108
   67SOL     OW  199   0.572   2.489   1.534  0.1640 -0.1418  0.0089
   67SOL    HW1  200   0.669   2.443   1.549  1.7338 -0.3244 -0.7329
   67SOL    HW2  201   0.512   2.423   1.485  0.2663  0.4879  0.6541
   68SOL     OW  202   0.904   0.998   2.527  0.1908 -0.5813 -0.1268
   68SOL    HW1  203   0.934   0.903   2.502 -1.3560  0.6674  2.3407
   68SOL    HW2  204   0.913   1.062   2.444  0.3630 -0.2456 -0.0656
   69SOL     OW  205   0.697   2.599   2.301 -0.3899 -0.4684  0.1127
   69SOL    HW1  206   0.753   2.528   2.250 -2.1073  0.5164 -2.1603
   69SOL    HW2  207   0.598   2.580   2.289  1.9513  4.1649 -0.2359
   70SOL     OW  208   0.543   0.152   2.576 -0.1358 -0.3395  0.0501
   70SOL    HW1  209   0.450   0.117   2.607  0.4313 -0.3650  2.1522
   70SOL    HW2  210   0.614   0.085   2.606 -0.3206 -0.3433  1.9991
   71SOL     OW  211   1.084   1.798   0.325  0.4503  0.8715 -0.0867
   71SOL    HW1  212   1.000   1.803   0.388 -0.1338 -2.1660  0.8565
   71SOL    HW2  213   1.054   1.810   0.225  0.3898  0.9234 -1.6811
   72SOL     OW  214   1.832   0.210   2.137 -0.6080 -0.0800 -0.1206
   72SOL    HW1  215   1.884   0.291   2.106 -1.0495  1.1590  0.5728
   72SOL    HW2  216   1.857   0.119   2.093 -0.5683  0.0594 -2.1143
   73SOL     OW  217   2.782   2.196   2.436  0.4963 -0.4938 -0.0395
   73SOL    HW1  218   2.789   2.096   2.414  1.2856  0.4079 -1.6769
   73SOL    HW2  219   2.798   2.210   2.540  1.9431  0.9577 -0.5877
   74SOL     OW  220   2.692   3.004   2.120 -0.4208  0.1378 -0.7840
   74SOL    HW1  221   2.640   2.932   2.179  1.1488  1.0125  1.8602
   74SOL    HW2  222   2.784   3.036   2.167  1.5163  3.5944 -0.7669
   75SOL     OW  223   0.925   0.810   1.126 -0.4335  0.0008 -1.0639
   75SOL    HW1  224   0.826   0.835   1.122  0.2479 -1.8196  2.4632
   75SOL    HW2  225   0.979   0.848   1.209 -1.8904 -2.2205 -2.1801
   76SOL     OW  226   1.823   1.268   2.585 -0.6172  0.1489 -0.5198
   76SOL    HW1  227   1.732   1.227   2.601  0.1467 -2.2753  3.0200
   76SOL    HW2  228   1.822   1.363   2.618 -0.1260 -0.2424  1.6945
   77SOL     OW  229   2.926   0.916   1.023 -0.6781  0.1509 -0.0196
   77SOL    HW1  230   2.886   0.819   1.031 -1.0125  1.4113  1.4034
   77SOL    HW2  231   3.012   0.930   1.075 -1.5665  1.3001 -0.5740
   78SOL     OW  232   1.942   1.466   1.282  0.0372 -0.0461  0.1570
   78SOL    HW1  233   2.034   1.457   1.232  0.7271 -0.1864 -1.3257
   78SOL    HW2  234   1.860   1.492   1.224  1.6685  0.5355  1.6455
   79SOL     OW  235   0.640   1.505   0.834 -0.1432  0.1627 -0.3819
   79SOL    HW1  236   0.539   1.489   0.847 -1.4255  1.4762  2.6167
   79SOL    HW2  237   0.691   1.417   0.829 -1.4709  1.1828 -0.2136
   80SOL     OW  238   0.709   0.462   1.569  0.0801  0.1216  0.0884
   80SOL    HW1  239   0.705   0.503   1.472  2.5069 -0.1953 -2.8439
   80SOL    HW2  240   0.673   0.362   1.584  1.4942  0.0611 -0.3054
   81SOL     OW  241   1.057   1.297   2.438 -0.0023  0.2847 -0.5965
   81SOL    HW1  242   0.961   1.340   2.442 -2.9689 -1.1938 -0.8566
   81SOL    HW2  243   1.061   1.221   2.365  1.5877 -1.6747 -1.8759
   82SOL     OW  244   0.954   2.945   1.668  0.1554 -0.0251  0.6079
   82SOL    HW1  245   0.981   2.850   1.647 -0.7153  3.1643  1.6621
   82SOL    HW2  246   0.909   2.985   1.581 -0.5493 -0.2671 -0.2507
   83SOL     OW  247   2.632   2.361   0.919 -0.2913 -0.4836  0.9208
   83SOL    HW1  248   2.542   2.334   0.884  1.1929 -0.3581  0.4445
   83SOL    HW2  249   2.664   2.457   0.882 -2.0623  1.4823  1.9135
   84SOL     OW  250   0.787   3.090   2.335  0.4765  0.7119 -0.0048
   84SOL    HW1  251   0.772   3.062   2.433 -1.8136  1.1153 -3.8031
   84SOL    HW2  252   0.820   3.014   2.273  1.9577  1.3551  0.6313
   85SOL     OW  253   0.258   1.693   1.366 -0.0477 -0.1562  0.0910
   85SOL    HW1  254   0.231   1.771   1.432  1.7293  1.5851 -0.1838
   85SOL    HW2  255   0.307   1.617   1.422 -1.8028 -5.1132  1.7603
   86SOL     OW  256   0.479   1.066   1.399  0.2528 -0.0537 -0.3339
   86SOL    HW1  257   0.443   1.073   1.299  1.1122  0.6972 -0.7549
   86SOL    HW2  258   0.497   0.969   1.435  1.2896  0.2611  2.8868
   87SOL     OW  259   1.595   0.678   0.352 -0.8377  0.2827 -0.2940
   87SOL    HW1  260   1.685   0.730   0.364 -0.3448  1.8345  1.8558
   87SOL    HW2  261   1.579   0.632   0.258  1.1129 -0.7183 -0.8696
   88SOL     OW  262   1.532   1.352   0.293 -0.3582 -0.0792 -0.2195
   88SOL    HW1  263   1.584   1.255   0.273  0.9673 -2.5920  2.1930
   88SOL    HW2  264   1.432   1.339   0.316 -1.2154  1.1463  0.7765
   89SOL     OW  265   3.066   0.362   0.633  0.2237  0.2185 -0.4777
   89SOL    HW1  266   3.152   0.318   0.671  1.6876  2.2952 -1.1164
   89SOL    HW2  267   2.998   0.295   0.590 -2.6796 -0.6845 -0.5530
   90SOL     OW  268   0.753   1.579   0.152  0.0031  0.1766  0.8729
   90SOL    HW1  269   0.858   1.564   0.152 -0.5118 -1.5311 -1.9695
   90SOL    HW2  270   0.707   1.569   0.060 -1.8479  3.0565  1.1988
   91SOL     OW  271   1.273   1.524   1.674  0.4885 -0.3092  0.2444
   91SOL    HW1  272   1.255   1.575   1.760  0.9784  0.1562 -1.9404
   91SOL    HW2  273   1.367   1.485   1.669 -2.3559 -0.7735  3.4283
   92SOL     OW  274   0.081   0.962   1.146  0.0320 -0.4809  0.3128
   92SOL    HW1  275   0.118   1.051   1.117  1.2677 -1.4990  0.3500
   92SOL    HW2  276   0.083   0.951   1.245 -0.1928 -1.9263 -1.5099
   93SOL     OW  277   3.026   2.680   0.061  0.3114 -0.1048 -0.5280
   93SOL    HW1  278   3.010   2.678  -0.041 -1.5945  0.0818  2.4373
   93SOL    HW2  279   3.066   2.594   0.098 -2.4294  2.1604 -0.0099
   94SOL     OW  280   1.550   1.444   1.613 -0.0979  0.6868 -0.3579
   94SOL    HW1  281   1.586   1.369   1.671 -0.3587  2.0569 -1.5284
   94SOL    HW2  282   1.617   1.487   1.548 -2.4000 -0.2973  0.4129
   95SOL     OW  283   1.433   2.469   2.920  0.7680 -0.1909 -0.5299
   95SOL    HW1  284   1.340   2.503   2.957  0.6937  3.1290  2.5425
   95SOL    HW2  285   1.422   2.379   2.877 -1.5090  0.6612  1.2377
   96SOL     OW  286   0.594   2.140   1.271 -0.1576 -0.4165 -0.0525
   96SOL    HW1  287   0.561   2.112   1.177 -0.4627  0.0353 -0.5103
   96SOL    HW2  288   0.610   2.059   1.335  0.2717  0.2433 -0.7419
   97SOL     OW  289   0.293   1.614   2.414  0.3859  0.1235  0.5127
   97SOL    HW1  290   0.298   1.705   2.374  1.6436 -1.8218 -2.0307
   97SOL    HW2  291   0.262   1.619   2.512 -0.7989  1.6062 -2.3648
   98SOL     OW  292   2.274   1.685   1.199 -0.1667  0.2443 -0.4013
   98SOL    HW1  293   2.238   1.586   1.182  2.7697 -1.0059 -3.4265
   98SOL    HW2  294   2.364   1.708   1.152  1.9077  0.7874 -1.2237
   99SOL     OW  295   2.600   2.100   1.280 -0.5920  0.3954  0.2463
   99SOL    HW1  296   2.652   2.158   1.348  0.8168 -0.9932  0.6397
   99SOL    HW2  297   2.541   2.036   1.329  1.1544  4.1494 -1.7968
  100SOL     OW  298   2.330   0.386   2.124  0.0893  0.3457  0.3985
  100SOL    HW1  299   2.277   0.356   2.213 -2.5896 -0.2292  0.9774
  100SOL    HW2  300   2.431   0.409   2.141 -1.1997 -1.5377  1.7560
  101SOL     OW  301   0.355   1.479   0.431  0.5772 -0.7384  1.0209
  101SOL    HW1  302   0.336   1.569   0.483 -1.0449  3.1156 -0.1276
  101SOL    HW2  303   0.447   1.429   0.451  5.1636  1.4911  0.7476
  102SOL     OW  304   2.304   1.056   0.878  0.2477  0.1557 -0.6456
  102SOL    HW1  305   2.282   0.959   0.875  2.3151  2.1086 -0.5494
  102SOL    HW2  306   2.372   1.090   0.802  1.7318  0.5658 -2.7474
  103SOL     OW  307   2.252   0.058   0.333  0.3857  0.2235 -0.2264
  103SOL    HW1  308   2.298   0.144   0.351  0.4289 -1.5406 -0.4882
  103SOL    HW2  309   2.313  -0.023   0.359 -3.0798  2.2222  0.2169
  104SOL     OW  310   0.045   1.826   2.184  0.0727  0.3943  0.1384
  104SOL    HW1  311   0.091   1.804   2.091 -0.0259 -2.3879 -3.1248
  104SOL    HW2  312  -0.054   1.849   2.175  2.3105 -1.0072 -2.3309
  105SOL     OW  313   1.250   2.099   0.795 -0.9624  0.1937 -0.0579
  105SOL    HW1  314   1.162   2.107   0.844  2.9670  2.6397  1.4541
  105SOL    HW2  315   1.292   2.003   0.786 -2.7570 -0.2174  1.4938
  106SOL     OW  316   2.136   0.403   1.467  0.0774  0.2447  0.7244
  106SOL    HW1  317   2.049   0.348   1.453  0.9475 -0.9593 -1.1073
  106SOL    HW2  318   2.144   0.432   1.563 -1.9120 -0.4862  0.6011
  107SOL     OW  319   1.932   2.934   1.198  0.2116  0.5737  0.6391
  107SOL    HW1  320   1.863   3.004   1.241 -3.7174  0.2620 -0.0249
  107SOL    HW2  321   1.877   2.854   1.163 -1.5354 -0.0840 -1.0695
  108SOL     OW  322   0.902   2.783   1.082 -0.2877 -0.1329 -0.0638
  108SOL    HW1  323   0.909   2.696   1.026 -1.2236 -0.8676  1.1649
  108SOL    HW2  324   0.980   2.801   1.146  1.8580 -1.2000 -0.0209
  109SOL     OW  325   2.191   0.098   0.752 -0.3834 -0.5392  0.3447
  109SOL    HW1  326   2.106   0.063   0.701 -0.9455 -0.1649  0.6409
  109SOL    HW2  327   2.169   0.153   0.836  0.1549 -0.3455  0.6522
  110SOL     OW  328   0.499   2.819   2.811 -0.3527 -0.0350  0.6743
  110SOL    HW1  329   0.513   2.817   2.708 -0.9376 -1.2349 -0.2500
  110SOL    HW2  330   0.554   2.740   2.861  0.6312 -2.0504  0.2809
  111SOL     OW  331   1.325   0.619   2.362  0.7365 -0.4530 -0.3722
  111SOL    HW1  332   1.229   0.613   2.408 -1.5959 -2.0510 -1.0022
  111SOL    HW2  333   1.383   0.537   2.386 -1.6506 -1.7538 -0.8763
  112SOL     OW  334   1.751   0.549   1.510 -0.2000  0.7488 -0.2250
  112SOL    HW1  335   1.755   0.615   1.424  0.7477 -0.6764  0.1085
  112SOL    HW2  336   1.658   0.540   1.545  2.5285 -0.3969 -1.2805
  113SOL     OW  337   2.284   1.703   1.771  0.3740  0.4602  0.2918
  113SOL    HW1  338   2.319   1.608   1.736  1.3475 -1.6887 -1.5286
  113SOL    HW2  339   2.307   1.716   1.868  0.3884 -2.2920 -0.6674
  114SOL     OW  340   0.326   0.443   1.180  0.4479 -0.1848 -0.0362
  114SOL    HW1  341   0.247   0.512   1.187  4.1623  1.8990  1.5752
  114SOL    HW2  342   0.397   0.473   1.118 -1.3456  1.3669  0.3758
  115SOL     OW  343   2.719   1.584   1.263  0.7147 -0.0113 -0.5366
  115SOL    HW1  344   2.692   1.483   1.241 -1.4711 -0.1551 -1.1416
  115SOL    HW2  345   2.824   1.595   1.246 -1.0577 -1.2577 -1.5605
  116SOL     OW  346   1.878   0.932   0.673 -0.1631  0.0450  0.4920
  116SOL    HW1  347   1.784   0.882   0.689  0.1817 -0.4103  0.0788
  116SOL    HW2  348   1.877   1.035   0.657  2.7415 -1.8836 -2.7619
  117SOL     OW  349   1.108   0.384   0.544  0.3653  0.2076  0.3131
  117SOL    HW1  350   1.137   0.485   0.563  0.9951  2.0596  3.6818
  117SOL    HW2  351   1.083   0.353   0.446 -1.2026  0.2362 -0.4717
  118SOL     OW  352   1.131   1.228   1.128 -0.3245  0.3226  0.0394
  118SOL    HW1  353   1.108   1.160   1.206 -0.9599 -1.9853  0.9008
  118SOL    HW2  354   1.177   1.316   1.161 -1.3722 -1.8963  1.7221
  119SOL     OW  355   1.916   1.619   2.229  0.1108  0.4067 -0.5185
  119SOL    HW1  356   1.853   1.700   2.227 -0.7378  0.9140 -1.0705
  119SOL    HW2  357   1.967   1.603   2.137 -3.6926 -2.3328 -0.5497
  120SOL     OW  358   2.959   2.822   0.284 -0.5303  0.2327  0.1050
  120SOL    HW1  359   2.956   2.783   0.184  0.7637 -1.1151 -2.5138
  120SOL    HW2  360   2.871   2.805   0.346 -1.6418 -0.3728 -0.1291
  121SOL     OW  361   1.984   0.800   2.334 -0.4614  0.8923 -0.2884
  121SOL    HW1  362   2.045   0.874   2.303 -1.9317 -1.0620  4.0109
  121SOL    HW2  363   2.004   0.705   2.297 -0.1236  0.8672  0.1929
  122SOL     OW  364   2.570   2.470   1.400 -0.0848  0.0431 -0.0441
  122SOL    HW1  365   2.638   2.448   1.319  1.9889 -0.4037 -0.9006
  122SOL    HW2  366   2.588   2.419   1.487 -1.3604  1.1376  0.7441
  123SOL     OW  367   1.658   0.186   1.655 -0.1781 -0.3825  0.2539
  123SOL    HW1  368   1.669   0.098   1.601  0.8367  0.0956  0.1530
  123SOL    HW2  369   1.749   0.229   1.691  1.9843  1.9816 -0.5509
  124SOL     OW  370   3.019   0.426   1.165 -0.3285  0.2142 -0.1135
  124SOL    HW1  371   2.939   0.455   1.222  0.2675  4.7631  1.2112
  124SOL    HW2  372   3.033   0.476   1.073  0.7704  2.4910 -0.0944
  125SOL     OW  373   0.918   1.940   0.739 -0.3317  0.2368  0.2105
  125SOL    HW1  374   1.012   1.901   0.762 -1.5013  0.1643 -0.0599
  125SOL    HW2  375   0.864   1.970   0.818  2.4980  0.6829  1.0580
  126SOL     OW  376   1.902   2.284   2.447 -0.4198  0.7369  0.3668
  126SOL    HW1  377   1.967   2.231   2.381 -1.0943  0.8339 -0.1609
  126SOL    HW2  378   1.874   2.222   2.526  0.4593 -1.6091  1.8369
  127SOL     OW  379   0.974   0.957   0.185  0.4088  0.5521  0.0643
  127SOL    HW1  380   0.951   1.001   0.275  0.5606 -1.0169 -1.0278
  127SOL    HW2  381   0.967   0.852   0.191 -0.4571 -0.0870 -1.3154
  128SOL     OW  382   0.890   0.191   1.398 -0.3615  0.0558 -0.1098
  128SOL    HW1  383   0.865   0.257   1.323  1.5441 -1.0061  1.2586
  128SOL    HW2  384   0.834   0.104   1.382  2.2042  1.7681 -1.0486
  129SOL     OW  385   1.903   0.679   1.896  0.0962 -0.1050  0.7106
  129SOL    HW1  386   1.916   0.679   1.796 -0.3703  1.5399  0.6918
  129SOL    HW2  387   1.932   0.770   1.938 -1.8850 -2.0323  1.4729
  130SOL     OW  388   1.391   2.205   1.000 -0.0543  0.3778 -0.1204
  130SOL    HW1  389   1.347   2.167   0.911  1.3683 -0.0334 -1.2377
  130SOL    HW2  390   1.450   2.287   0.980 -0.3216  2.7832 -0.6116
  131SOL     OW  391   3.023   1.380   1.397 -0.6301 -0.4851 -0.1009
  131SOL    HW1  392   2.991   1.287   1.388  3.6198 -0.6085  1.3716
  131SOL    HW2  393   3.127   1.381   1.394 -3.0574 -0.6631 -1.4468
  132SOL     OW  394   2.031   2.431   0.548 -0.1822 -0.2057  0.4286
  132SOL    HW1  395   1.940   2.457   0.579  0.8798 -0.2053 -0.8274
  132SOL    HW2  396   2.063   2.350   0.607 -1.4828 -2.0016  4.6068
  133SOL     OW  397   1.743   2.461   2.708 -0.2974 -0.2729 -0.3347
  133SOL    HW1  398   1.656   2.468   2.659 -0.0681 -1.4917 -0.2336
  133SOL    HW2  399   1.783   2.551   2.739 -0.6684 -1.5918  1.0353
  134SOL     OW  400   2.588   2.418   1.672  0.3214  0.3179  0.3293
  134SOL    HW1  401   2.514   2.388   1.742 -0.8725 -3.1349  1.1580
  134SOL    HW2  402   2.636   2.505   1.705  1.6581  0.1696  2.6684
  135SOL     OW  403   0.783   1.337   2.673  0.3278  0.8417  0.3239
  135SOL    HW1  404   0.718   1.255   2.696 -2.5381  0.0954  0.0942
  135SOL    HW2  405   0.804   1.352   2.569  0.1935 -1.1957  2.1731
  136SOL     OW  406   1.206   2.023   0.411  0.0060  0.3411 -0.4387
  136SOL    HW1  407   1.136   2.092   0.440 -1.9722 -0.2128  0.7827
  136SOL    HW2  408   1.167   1.929   0.384 -0.6686 -1.4358  0.1587
  137SOL     OW  409   0.461   1.171   2.255  0.3735  0.0069  0.2042
  137SOL    HW1  410   0.358   1.159   2.268  0.8955  2.6666  0.7978
  137SOL    HW2  411   0.514   1.084   2.250 -3.6407  0.6364 -0.3665
  138SOL     OW  412   2.416   1.520   0.309 -0.5769  0.4403  0.1816
  138SOL    HW1  413   2.372   1.474   0.230  1.6947 -0.8230 -2.3405
  138SOL    HW2  414   2.507   1.465   0.331  2.9113 -0.8828  0.2333
  139SOL     OW  415   1.907   2.645   1.546 -0.4961  0.8743 -0.3795
  139SOL    HW1  416   1.812   2.675   1.524 -0.2777  2.1456 -1.4821
  139SOL    HW2  417   1.942   2.586   1.467 -2.2493 -1.1670  2.4268
  140SOL     OW  418   3.050   3.011   2.648  0.5973 -0.2884  0.3511
  140SOL    HW1  419   3.066   2.911   2.629  2.0561 -4.4981  0.0674
  140SOL    HW2  420   3.114   3.072   2.595  1.9585 -0.0772 -0.7255
  141SOL     OW  421   1.258   1.617   1.402 -0.5168 -0.3345 -0.3753
  141SOL    HW1  422   1.168   1.646   1.353 -2.8062  0.1346 -3.2051
  141SOL    HW2  423   1.243   1.570   1.492 -0.0375  0.3455 -0.6723
  142SOL     OW  424   1.593   0.658   2.244 -0.0694  0.1099  0.4132
  142SOL    HW1  425   1.604   0.621   2.148  0.2652 -2.0757  2.7092
  142SOL    HW2  426   1.497   0.648   2.284  0.9461  1.1355 -0.8616
  143SOL     OW  427   2.818   0.778   0.573 -0.0544 -0.3988  0.0895
  143SOL    HW1  428   2.861   0.809   0.484  0.7044 -0.6351  1.2945
  143SOL    HW2  429   2.840   0.846   0.653 -1.1458  0.8353  1.0595
  144SOL     OW  430   2.932   1.107   1.405 -0.4090  0.5025 -0.1598
  144SOL    HW1  431   2.863   1.109   1.483 -2.0666 -1.6267 -0.0167
  144SOL    HW2  432   3.013   1.044   1.418  0.2528  3.5935 -0.4000
  145SOL     OW  433   0.953   1.871   0.057 -0.2541  0.7910  0.4817
  145SOL    HW1  434   0.972   1.926  -0.026  1.7863  1.6242  0.2358
  145SOL    HW2  435   0.867   1.814   0.050  0.4702  0.8927 -2.3178
  146SOL     OW  436   2.447   0.630   1.536 -0.3238 -0.0803  0.0271
  146SOL    HW1  437   2.424   0.529   1.509 -2.4261  2.1253  2.0394
  146SOL    HW2  438   2.373   0.689   1.495 -3.0236 -0.7531 -0.5118
  147SOL     OW  439   1.048   2.501   0.512 -0.2248  0.2632 -0.5061
  147SOL    HW1  440   1.018   2.572   0.442 -1.1062  0.8466 -1.1189
  147SOL    HW2  441   1.148   2.471   0.500 -1.2096 -0.1486  0.3858
  148SOL     OW  442   1.555   1.384   0.006 -0.6989 -0.2056  0.1373
  148SOL    HW1  443   1.597   1.291  -0.003  1.3375  0.4288  1.4939
  148SOL    HW2  444   1.512   1.404   0.103 -0.7217  0.8311  0.6545
  149SOL     OW  445   0.722   1.482   1.972  0.7905  0.6346 -0.2997
  149SOL    HW1  446   0.642   1.441   2.027  0.6186  0.6314  1.4693
  149SOL    HW2  447   0.712   1.463   1.872  1.1266  1.8136  0.5156
  150SOL     OW  448   2.972   1.219   1.016  0.8960 -0.3386  0.0881
  150SOL    HW1  449   3.053   1.215   1.075  0.2326  1.6089 -1.6257
  150SOL    HW2  450   2.921   1.129   0.997 -0.4423 -3.0018  0.8331
  151SOL     OW  451   0.146   0.832   2.111  0.5142 -0.0240 -0.0742
  151SOL    HW1  452   0.153   0.935   2.092  0.2424  0.5351 -0.4706
  151SOL    HW2  453   0.214   0.769   2.061  0.8230 -0.2848  0.9148
  152SOL     OW  454   1.413   1.871   1.110 -0.2607 -0.3510 -0.3315
  152SOL    HW1  455   1.452   1.969   1.100  0.6817  0.5833  0.6426
  152SOL    HW2  456   1.307   1.873   1.103 -0.0241  2.9867  1.1753
  153SOL     OW  457   0.081   1.518   0.245  0.6023  0.1435 -0.1642
  153SOL    HW1  458  -0.006   1.462   0.253 -0.7847  0.6338 -3.9083
  153SOL    HW2  459   0.103   1.562   0.338  0.1928  3.1735  1.1309
  154SOL     OW  460   2.256   1.886   2.790  0.2267 -0.3667 -0.1290
  154SOL    HW1  461   2.257   1.789   2.812  1.6644  2.4304  0.0706
  154SOL    HW2  462   2.331   1.914   2.726 -0.3933 -0.3500 -0.1496
  155SOL     OW  463   2.624   1.337   0.362 -0.3051 -0.3411  0.1992
  155SOL    HW1  464   2.669   1.403   0.427 -1.5811 -0.7304  0.7139
  155SOL    HW2  465   2.679   1.248   0.355 -0.4736 -1.0500 -1.7686
  156SOL     OW  466   2.511   0.803   0.754 -0.5165 -0.2624  0.3241
  156SOL    HW1  467   2.411   0.801   0.791  0.6954 -0.4032 -0.0876
  156SOL    HW2  468   2.524   0.858   0.666  0.1916 -1.2369  2.7211
  157SOL     OW  469   1.214   0.015   3.026 -0.3174 -0.0605 -0.2671
  157SOL    HW1  470   1.282  -0.024   2.956  0.0045 -1.3572  0.3753
  157SOL    HW2  471   1.248   0.113   3.052  0.4087  1.4423  0.9701
  158SOL     OW  472   1.048   1.823   1.869 -0.2340  0.0251 -0.1248
  158SOL    HW1  473   1.078   1.919   1.851  1.8511 -1.1913  3.0434
  158SOL    HW2  474   0.956   1.818   1.917 -3.6695  1.5350  4.4023
  159SOL     OW  475   0.814   0.365   1.192  0.5379 -0.0031  0.1362
  159SOL    HW1  476   0.753   0.446   1.180 -1.0127 -2.8782 -0.7472
  159SOL    HW2  477   0.781   0.289   1.126 -1.3279  0.5054 -0.5633
  160SOL     OW  478   1.375   2.453   1.453  0.1298  0.0730  0.0859
  160SOL    HW1  479   1.321   2.393   1.521 -5.2217 -0.0245 -1.4733
  160SOL    HW2  480   1.474   2.420   1.439  0.2680 -1.7725  1.6722
  161SOL     OW  481   0.077   2.658   0.405  0.2719  0.0909  0.1295
  161SOL    HW1  482   0.049   2.558   0.408  3.2780  1.6207  0.1937
  161SOL    HW2  483  -0.000   2.722   0.381  0.8499 -2.4304  0.1941
  162SOL     OW  484   2.561   1.944   0.469 -0.2995  0.4400  0.1320
  162SOL    HW1  485   2.623   1.939   0.387  0.6879 -0.8918 -0.2702
  162SOL    HW2  486   2.540   1.847   0.496  0.1157 -1.9596  3.2382
  163SOL     OW  487   1.893   2.693   0.800 -0.1497 -0.0258 -0.2252
  163SOL    HW1  488   1.879   2.713   0.699  0.0365  1.0581 -0.8798
  163SOL    HW2  489   1.986   2.647   0.824  1.0099 -0.7599 -2.9383
  164SOL     OW  490   3.023   0.146   1.261 -0.4039  0.0893  0.4422
  164SOL    HW1  491   3.056   0.238   1.221  0.5511  2.4662  0.9756
  164SOL    HW2  492   3.103   0.114   1.318 -0.1882  0.4600  0.4317
  165SOL     OW  493   1.088   1.371   0.646 -0.2418 -0.8255  0.1861
  165SOL    HW1  494   1.062   1.428   0.727 -1.6625 -1.9492 -1.2398
  165SOL    HW2  495   1.042   1.411   0.560 -0.7521  3.0161  1.0664
  166SOL     OW  496   1.548   0.934   1.793 -0.2841  0.7583 -0.6671
  166SOL    HW1  497   1.454   0.977   1.808  0.4027 -0.7606 -0.3473
  166SOL    HW2  498   1.616   1.010   1.764  0.4517 -0.2452 -1.6576
  167SOL     OW  499   0.657   2.031   1.514 -0.5304  0.2894 -0.0129
  167SOL    HW1  500   0.659   2.121   1.569  1.2762 -0.2653  1.0742
  167SOL    HW2  501   0.604   1.953   1.558  0.6134 -1.7457  0.5712
  168SOL     OW  502   1.681   2.317   0.148 -0.3246  0.3043  0.5085
  168SOL    HW1  503   1.756   2.275   0.083  0.3551  0.1513 -1.2372
  168SOL    HW2  504   1.685   2.278   0.247 -0.4640 -0.9240 -0.8876
  169SOL     OW  505   3.052   2.603   2.166 -0.1503  0.7363  0.0018
  169SOL    HW1  506   3.053   2.554   2.073 -1.7932 -0.1944  0.4592
  169SOL    HW2  507   3.105   2.541   2.235  1.7061 -1.9687  0.3377
  170SOL     OW  508   1.160   0.143   2.120 -0.1575 -0.1842  0.2696
  170SOL    HW1  509   1.248   0.195   2.140  0.4222 -0.3826  1.5130
  170SOL    HW2  510   1.152   0.117   2.023  2.9264  1.0214 -0.1481
  171SOL     OW  511   0.163   0.889   2.446 -0.3069  0.1996  0.4453
  171SOL    HW1  512   0.077   0.890   2.500 -1.8247  0.5122 -1.8999
  171SOL    HW2  513   0.155   0.870   2.342  0.9316 -0.3147  0.6949
  172SOL     OW  514   1.009   1.008   2.810  0.6531  0.0917  0.9713
  172SOL    HW1  515   0.970   1.075   2.876  0.3360  0.4076 -0.9836
  172SOL    HW2  516   0.966   1.017   2.716  0.4125  2.1596  0.2322
  173SOL     OW  517   0.330   2.551   3.023 -0.2633 -0.2759  0.2703
  173SOL    HW1  518   0.316   2.511   2.929 -1.5993  1.3922  0.0130
  173SOL    HW2  519   0.343   2.493   3.106  0.0285  0.3624  0.9049
  174SOL     OW  520   1.471   2.885   0.979  0.4385  0.6622 -0.1431
  174SOL    HW1  521   1.555   2.914   0.928 -0.5023  1.7246  1.8284
  174SOL    HW2  522   1.449   2.781   0.978 -0.0554 -0.1151 -0.9779
  175SOL     OW  523   0.420   0.008   1.706 -0.5160  0.7736  0.4467
  175SOL    HW1  524   0.506  -0.001   1.769  0.8620  0.9995  0.3994
  175SOL    HW2  525   0.382   0.105   1.713 -0.8641  0.7123  1.1373
  176SOL     OW  526   2.530   0.469   0.041  0.2352 -0.1842 -0.3727
  176SOL    HW1  527   2.550   0.527   0.127 -1.5298 -2.8380  0.6443
  176SOL    HW2  528   2.548   0.367   0.060  0.2819  1.0455 -3.8350
  177SOL     OW  529   0.320   0.111   0.794 -0.1166 -0.2992 -0.4298
  177SOL    HW1  530   0.300   0.032   0.852  1.0267  2.8731  0.2493
  177SOL    HW2  531   0.420   0.125   0.785 -2.0828  1.5429  0.4892
  178SOL     OW  532   0.003   2.717   2.616  0.0361  0.1695 -0.2132
  178SOL    HW1  533  -0.017   2.614   2.608 -0.2501 -1.5414 -0.2808
  178SOL    HW2  534   0.091   2.741   2.664 -1.6165  1.2107  0.4988
  179SOL     OW  535   2.981   1.594   1.234  0.4746  0.5190 -0.2312
  179SOL    HW1  536   3.070   1.625   1.187 -0.3707  2.8900 -2.5350
  179SOL    HW2  537   2.996   1.515   1.305  0.6405 -0.5160 -2.9343
  180SOL     OW  538   0.257   1.359   1.729 -0.7671 -0.7054 -0.3895
  180SOL    HW1  539   0.329   1.334   1.802 -2.2526 -0.3400  0.2029
  180SOL    HW2  540   0.177   1.402   1.778 -1.0230  1.8212  3.1827
  181SOL     OW  541   3.030   1.741   2.453  0.7538 -0.4235 -0.5220
  181SOL    HW1  542   3.129   1.778   2.436  1.0738  2.5126  0.1843
  181SOL    HW2  543   2.964   1.821   2.435  2.5208 -0.6145  1.1209
  182SOL     OW  544   2.211   1.411   1.205  0.0251  0.3836 -0.1252
  182SOL    HW1  545   2.238   1.363   1.298  1.4212 -0.3764  2.7183
  182SOL    HW2  546   2.235   1.355   1.122 -1.3945 -1.6547  2.7426
  183SOL     OW  547   1.385   2.206   2.472  0.1636 -0.1637  0.6595
  183SOL    HW1  548   1.307   2.135   2.455 -3.4679 -0.1892 -0.1869
  183SOL    HW2  549   1.478   2.165   2.443 -0.0663 -2.3856  1.3085
  184SOL     OW  550   2.240   0.790   0.811  0.1881  0.3312 -0.5249
  184SOL    HW1  551   2.178   0.826   0.738  0.4511  0.1598 -0.6753
  184SOL    HW2  552   2.259   0.690   0.811 -2.5575 -0.0336  1.5363
  185SOL     OW  553   1.597   2.744   2.011  0.0233  0.4753 -0.2537
  185SOL    HW1  554   1.521   2.813   2.006  0.6288  0.4303 -0.9162
  185SOL    HW2  555   1.630   2.730   2.106  0.9687 -0.2123 -0.6542
  186SOL     OW  556  -0.003   2.135   1.802 -0.2460 -0.0623  0.0683
  186SOL    HW1  557   0.016   2.221   1.853  1.1826 -1.5480 -0.4630
  186SOL    HW2  558   0.073   2.069   1.784 -1.9475  0.9212 -1.6899
  187SOL     OW  559   1.309   0.645   1.678  0.2696 -0.7037  0.3414
  187SOL    HW1  560   1.414   0.655   1.660  1.7316 -0.9613  0.0403
  187SOL    HW2  561   1.292   0.590   1.763 -0.8129 -0.1624 -1.6529
  188SOL     OW  562   2.711   2.670   1.576 -0.2737  0.0652 -0.3904
  188SOL    HW1  563   2.696   2.774   1.599  0.6142  1.4734  0.9304
  188SOL    HW2  564   2.640   2.632   1.512 -1.1761  2.9374  1.6947
  189SOL     OW  565   0.862   1.138   1.429 -0.2889 -0.1300  0.3955
  189SOL    HW1  566   0.895   1.218   1.488 -0.0575 -0.1854  2.7599
  189SOL    HW2  567   0.821   1.164   1.337 -0.2443  0.2423 -0.2038
  190SOL     OW  568   1.401   1.855   1.519 -0.3114  0.5478 -0.6041
  190SOL    HW1  569   1.337   1.777   1.511  0.3293  2.1768  2.6251
  190SOL    HW2  570   1.419   1.886   1.621 -1.7241 -0.6443  2.0176
  191SOL     OW  571   0.894   0.749   1.506  0.7756 -0.5404  0.0437
  191SOL    HW1  572   0.952   0.666   1.524  1.5720  3.0670  0.1839
  191SOL    HW2  573   0.940   0.836   1.466 -0.1938  1.1731  3.1179
  192SOL     OW  574   1.840   2.421   1.132 -0.4347 -0.3470 -0.5058
  192SOL    HW1  575   1.743   2.407   1.100  0.2270  0.1278  3.4957
  192SOL    HW2  576   1.910   2.401   1.058  4.8675  1.6589  0.4883
  193SOL     OW  577   0.492   0.494   0.382 -0.1452  0.2621  0.2904
  193SOL    HW1  578   0.409   0.430   0.392  1.1673  0.4720  0.3170
  193SOL    HW2  579   0.547   0.487   0.289 -0.4498 -1.2086 -1.6881
  194SOL     OW  580   0.427   0.729   1.208  0.5256 -0.2297 -0.0164
  194SOL    HW1  581   0.329   0.704   1.221  1.9629 -1.4484 -1.1909
  194SOL    HW2  582   0.478   0.662   1.145  1.7385  1.6411  1.1996
  195SOL     OW  583   1.021   2.944   0.504 -0.3051  0.0562 -0.3380
  195SOL    HW1  584   1.024   2.840   0.493  1.1719  0.2331 -0.9698
  195SOL    HW2  585   1.114   2.988   0.477 -0.3945  0.0532  0.0733
  196SOL     OW  586   0.200   1.375   1.354 -0.4436 -0.2819 -0.1629
  196SOL    HW1  587   0.280   1.439   1.337 -0.8525  0.7667  0.7089
  196SOL    HW2  588   0.213   1.327   1.445 -0.5737  0.6585  1.7480
  197SOL     OW  589   0.792   1.973   0.252 -0.0208 -0.0778  0.5251
  197SOL    HW1  590   0.799   1.915   0.340 -2.1864 -1.8637 -2.3464
  197SOL    HW2  591   0.863   1.952   0.182 -1.2283 -0.6414  0.9556
  198SOL     OW  592   0.295   1.226   0.327 -0.0146  0.2916  0.5816
  198SOL    HW1  593   0.192   1.212   0.307  0.8458 -0.2406  0.9417
  198SOL    HW2  594   0.322   1.324   0.348 -1.0116  0.6134 -0.5604
  199SOL     OW  595   2.268   0.412   2.631  0.5709  0.0842 -0.4491
  199SOL    HW1  596   2.181   0.398   2.690 -1.5032 -0.0527  0.5999
  199SOL    HW2  597   2.352   0.365   2.676  2.1128  2.0307  0.7868
  200SOL     OW  598   3.082   2.896   0.756  0.1920  0.4097 -0.0173
  200SOL    HW1  599   3.096   2.998   0.779  0.3078  1.6233 -0.0296
  200SOL    HW2  600   3.025   2.885   0.671  1.7228  0.2145  1.3870
  201SOL     OW  601   0.912   0.670   0.488 -0.8938  0.4445 -0.2191
  201SOL    HW1  602   0.910   0.746   0.562 -0.8612 -1.7502 -1.7749
  201SOL    HW2  603   0.836   0.604   0.514 -1.8326 -0.1745 -1.7171
  202SOL     OW  604   0.453   1.276   1.904 -0.3225 -0.4740 -0.1732
  202SOL    HW1  605   0.528   1.221   1.855  1.2362  2.2162 -1.1848
  202SOL    HW2  606   0.483   1.317   1.996  0.6826 -1.7507  1.1050
  203SOL     OW  607   0.622   0.198   1.588 -0.2281  0.7270  0.3071
  203SOL    HW1  608   0.683   0.134   1.527  0.1276 -0.4371  0.4479
  203SOL    HW2  609   0.644   0.187   1.689 -0.3638 -0.0861  0.4075
  204SOL     OW  610   2.055   1.839   2.985 -0.8393 -0.4124  0.1374
  204SOL    HW1  611   2.018   1.744   2.985 -1.3679 -0.8025  1.2913
  204SOL    HW2  612   2.111   1.870   2.903 -0.3306  0.8852 -1.5589
  205SOL     OW  613   1.780   1.886   3.019  0.0852 -0.3119  0.4774
  205SOL    HW1  614   1.881   1.877   2.996 -1.8030 -0.1840  1.1534
  205SOL    HW2  615   1.738   1.972   2.975  0.4530 -0.0444 -0.3611
  206SOL     OW  616   2.391   2.731   0.311 -0.3200  0.5247  0.1299
  206SOL    HW1  617   2.345   2.668   0.384 -0.2639  0.8468  2.3158
  206SOL    HW2  618   2.479   2.691   0.265  1.3922  1.2998 -1.5740
  207SOL     OW  619   0.712   1.767   2.908 -0.4840  0.4310  0.0875
  207SOL    HW1  620   0.758   1.685   2.861 -0.3079 -0.0603 -0.2013
  207SOL    HW2  621   0.647   1.745   2.987  2.5278 -0.2521  0.0814
  208SOL     OW  622   1.020   1.592   1.217 -0.2552  0.1068  0.2776
  208SOL    HW1  623   0.942   1.598   1.146  2.0118 -0.8006 -1.0847
  208SOL    HW2  624   0.979   1.566   1.310 -1.9923 -0.2107  1.7620
  209SOL     OW  625   0.245   1.000   3.073  0.3659 -0.6856  0.4673
  209SOL    HW1  626   0.293   0.949   3.001 -1.6267 -1.3556 -0.9999
  209SOL    HW2  627   0.239   0.936   3.155  1.3313  2.1396  2.0010
  210SOL     OW  628   1.772   0.644   1.245  1.0231  0.2461 -0.1293
  210SOL    HW1  629   1.726   0.738   1.248 -0.4317  1.8793  2.6046
  210SOL    HW2  630   1.874   0.647   1.224  0.4846  1.5462  0.8296
  211SOL     OW  631   2.075   1.132   1.572 -1.2289  0.2981 -0.6170
  211SOL    HW1  632   2.115   1.090   1.659 -2.3030  2.7600 -0.2073
  211SOL    HW2  633   2.151   1.195   1.536  2.8315  0.3236 -2.5420
  212SOL     OW  634   0.075   0.959   1.420  0.2872 -0.4178 -0.2431
  212SOL    HW1  635   0.138   1.024   1.472  1.0148 -0.3892  0.1546
  212SOL    HW2  636   0.079   0.862   1.450 -0.7356  1.1093  0.9869
  213SOL     OW  637   2.854   0.060   0.324 -0.1186 -0.2278  0.2465
  213SOL    HW1  638   2.942   0.018   0.287  2.5143  1.7017  0.9357
  213SOL    HW2  639   2.767   0.017   0.282 -1.3676  3.1011 -0.3112
  214SOL     OW  640   2.219   0.351   2.377 -0.0825 -0.2910  0.2901
  214SOL    HW1  641   2.254   0.384   2.470 -0.0351  3.1091  2.4535
  214SOL    HW2  642   2.163   0.261   2.372  1.0708 -1.0126  0.3052
  215SOL     OW  643   1.696   2.292   2.070 -0.0427  0.4464  0.0864
  215SOL    HW1  644   1.787   2.339   2.086 -2.3628 -0.2517  0.1943
  215SOL    HW2  645   1.620   2.355   2.101  1.0832  1.7178 -3.6001
  216SOL     OW  646   2.302   0.528   0.784  0.4873 -0.0566  0.0967
  216SOL    HW1  647   2.249   0.468   0.717  0.0397 -0.1507 -3.2148
  216SOL    HW2  648   2.398   0.507   0.791 -2.0091  0.5596  0.7594
  217SOL     OW  649   0.883   2.688   2.553 -0.3024  0.0897 -0.4219
  217SOL    HW1  650   0.909   2.650   2.654  0.8138 -2.2855  1.6221
  217SOL    HW2  651   0.794   2.654   2.521  2.6081 -0.7940  0.1657
  218SOL     OW  652   1.848   1.397   0.011  0.2162  0.2958 -0.3782
  218SOL    HW1  653   1.741   1.385   0.016 -1.3963 -0.7389  2.1280
  218SOL    HW2  654   1.901   1.327   0.068  0.1389 -1.1389  1.3143
  219SOL     OW  655   2.416   1.247   2.533 -0.2030  0.4427  0.0648
  219SOL    HW1  656   2.486   1.206   2.466  1.5524  0.8359 -2.2640
  219SOL    HW2  657   2.434   1.201   2.626  1.2958  0.0730 -0.6824
  220SOL     OW  658   1.436   1.059   1.423  0.2982 -0.4560  0.2349
  220SOL    HW1  659   1.538   1.053   1.432  0.9366 -0.5904 -1.8764
  220SOL    HW2  660   1.411   1.062   1.325 -1.0177 -3.0773  1.3726
  221SOL     OW  661   1.256   0.989   2.123 -0.8568  0.2727 -0.2535
  221SOL    HW1  662   1.277   0.996   2.019 -1.4244 -0.3273  1.0948
  221SOL    HW2  663   1.338   1.017   2.181  1.2912  2.6086  1.0186
  222SOL     OW  664   1.153   0.050   1.201 -0.0816 -0.1551 -0.1312
  222SOL    HW1  665   1.159   0.083   1.301 -1.7448 -0.0114  0.6251
  222SOL    HW2  666   1.152   0.123   1.127  0.6399  1.6791 -0.3538
  223SOL     OW  667   2.709   0.951   2.149 -0.9009 -0.2443  0.0655
  223SOL    HW1  668   2.646   0.990   2.223 -0.7519 -2.3147  2.5011
  223SOL    HW2  669   2.810   0.955   2.174  0.9499 -0.1169 -0.6744
  224SOL     OW  670   1.523   0.973   2.818  0.7998 -0.1862 -0.6253
  224SOL    HW1  671   1.550   0.914   2.735 -1.1864  3.0571  0.7285
  224SOL    HW2  672   1.537   1.078   2.808  0.7170  2.0414  1.0556
  225SOL     OW  673   2.951   2.679   2.866 -0.2486 -0.2031  0.1963
  225SOL    HW1  674   2.858   2.677   2.818  1.1148  0.4697  0.4594
  225SOL    HW2  675   3.026   2.698   2.792  1.1625 -0.6115 -1.7106
  226SOL     OW  676   2.405   1.596   2.838 -0.2031 -0.5454  0.2652
  226SOL    HW1  677   2.468   1.578   2.752  0.3931 -2.4408 -2.0454
  226SOL    HW2  678   2.431   1.545   2.926  0.1251 -1.1669  0.7312
  227SOL     OW  679   0.905   0.283   3.002  0.0135  0.8206  0.8225
  227SOL    HW1  680   0.913   0.385   2.985  0.7506  2.7293  0.0046
  227SOL    HW2  681   0.857   0.240   2.921 -0.1918 -3.9438  2.0135
  228SOL     OW  682   2.386   0.679   2.915 -0.2624  0.1202  0.2770
  228SOL    HW1  683   2.401   0.712   2.817  1.4253  2.0818  1.3499
  228SOL    HW2  684   2.458   0.615   2.940 -2.2098 -0.1491 -0.7647
  229SOL     OW  685   0.749   0.681   1.771  0.3633 -0.1676 -1.0451
  229SOL    HW1  686   0.837   0.692   1.829  2.0069  1.3448  2.1432
  229SOL    HW2  687   0.750   0.611   1.697 -0.8502  1.0338 -2.3596
  230SOL     OW  688   1.917   1.210   1.936  0.3192 -0.1345  0.3385
  230SOL    HW1  689   2.002   1.261   1.904  0.9975  0.7630 -1.0386
  230SOL    HW2  690   1.851   1.263   2.001 -0.9449 -0.5584 -2.0169
  231SOL     OW  691   0.657   0.991   0.024  0.3572 -0.8695 -0.0100
  231SOL    HW1  692   0.743   1.050   0.008  0.2127 -0.4589  0.4032
  231SOL    HW2  693   0.576   1.043   0.052 -0.0855 -0.6495  2.9548
  232SOL     OW  694   2.401   2.953   2.788  0.1863  0.0218  0.3945
  232SOL    HW1  695   2.479   2.905   2.839 -1.4684  0.0621  1.7822
  232SOL    HW2  696   2.431   3.028   2.723 -1.8185 -0.9539 -0.4832
  233SOL     OW  697   1.813   1.111   1.176  0.3457  0.0227 -0.4700
  233SOL    HW1  698   1.857   1.182   1.115  0.3802 -0.3256  0.8185
  233SOL    HW2  699   1.886   1.047   1.212 -1.8055 -1.8559 -0.6553
  234SOL     OW  700   1.651   2.537   1.846 -0.0715  0.3721 -0.2474
  234SOL    HW1  701   1.626   2.614   1.906  1.4313  0.1296 -1.6923
  234SOL    HW2  702   1.599   2.448   1.857 -1.1161 -2.4584  1.4156
  235SOL     OW  703   0.108   3.026   2.887  0.2779 -0.1259 -0.2611
  235SOL    HW1  704   0.042   3.003   2.812 -2.3269  1.0035  1.0367
  235SOL    HW2  705   0.058   3.066   2.968 -0.0460 -0.8130 -0.1244
  236SOL     OW  706   2.888   0.772   0.041  0.3416 -0.2577  0.0694
  236SOL    HW1  707   2.960   0.790   0.114 -2.2940  2.5363  0.3332
  236SOL    HW2  708   2.904   0.683  -0.008 -0.0733  2.6144  1.4992
  237SOL     OW  709   1.512   1.684   0.901 -0.3538 -0.1459 -0.2095
  237SOL    HW1  710   1.600   1.634   0.914  1.9870 -1.1871 -1.0511
  237SOL    HW2  711   1.475   1.731   0.990 -1.1316  1.0829 -0.9563
  238SOL     OW  712   1.904   1.218   0.720 -0.2598  0.4699  0.2254
  238SOL    HW1  713   1.907   1.222   0.823 -0.4566  0.5867 -1.9066
  238SOL    HW2  714   1.819   1.258   0.682 -1.8121  0.8927 -0.3207
  239SOL     OW  715   2.086   0.347   2.820  0.6028 -0.0005 -0.2370
  239SOL    HW1  716   2.134   0.324   2.910 -1.2318  0.8275 -1.4106
  239SOL    HW2  717   1.992   0.396   2.829  0.5762  3.2166 -0.7225
  240SOL     OW  718   0.898   0.679   0.219 -0.0163 -0.3385  0.2563
  240SOL    HW1  719   0.983   0.630   0.187 -0.7383  2.5778 -1.2488
  240SOL    HW2  720   0.899   0.692   0.323 -1.1748  4.4231 -0.6405
  241SOL     OW  721   0.549   0.153   0.296  0.3538 -0.3175  0.3511
  241SOL    HW1  722   0.633   0.209   0.282 -1.5608 -1.4952  0.1080
  241SOL    HW2  723   0.566   0.055   0.265  0.6547 -1.5588 -1.8813
  242SOL     OW  724   0.614   2.621   1.285  0.0594  0.1068 -0.0687
  242SOL    HW1  725   0.593   2.595   1.384 -0.5551 -0.4662  3.3593
  242SOL    HW2  726   0.585   2.718   1.268  0.7632 -0.7579  1.5610
  243SOL     OW  727   1.034   0.593   2.401  0.2578  0.0630  0.2637
  243SOL    HW1  728   0.946   0.609   2.345 -0.6150  0.3812 -0.9743
  243SOL    HW2  729   1.017   0.532   2.488 -1.7805  1.0301 -0.5201
  244SOL     OW  730   2.804   1.893   2.367 -0.0694 -0.7139 -0.6400
  244SOL    HW1  731   2.813   1.886   2.262  2.6340  1.5716 -1.3382
  244SOL    HW2  732   2.719   1.843   2.404  1.6714 -0.1706 -2.3268
  245SOL     OW  733   2.119   1.034   2.206  0.3390  0.2141  0.0227
  245SOL    HW1  734   2.218   1.017   2.233 -1.7624 -0.1763  1.6725
  245SOL    HW2  735   2.076   1.119   2.243  0.4640  0.2551 -2.4782
  246SOL     OW  736   0.262   2.921   1.821 -0.0732 -0.2714 -0.2565
  246SOL    HW1  737   0.196   2.884   1.749  2.5291 -3.7697  1.1189
  246SOL    HW2  738   0.314   3.002   1.789 -1.8364  0.4941 -0.7451
  247SOL     OW  739   2.208   0.599   3.082  0.1042  0.1959  0.1583
  247SOL    HW1  740   2.286   0.624   3.019 -1.2515 -1.7986  1.5724
  247SOL    HW2  741   2.127   0.664   3.079 -0.5406  0.8719  1.1279
  248SOL     OW  742   2.163   1.891   1.623  0.0850  0.2135 -0.4806
  248SOL    HW1  743   2.212   1.816   1.674 -3.6343  2.9896 -0.8848
  248SOL    HW2  744   2.136   1.967   1.690 -0.1552  1.2523 -0.1116
  249SOL     OW  745   1.877   1.859   1.898 -0.1034 -0.4006  0.7468
  249SOL    HW1  746   1.873   1.803   1.810  0.0285  2.6443  1.4511
  249SOL    HW2  747   1.973   1.890   1.924 -0.1951  1.6413 -0.2048
  250SOL     OW  748   1.078   0.665   1.853  0.7060 -0.8572 -0.2560
  250SOL    HW1  749   1.132   0.649   1.939  0.9393 -0.2659  1.4559
  250SOL    HW2  750   1.077   0.594   1.782  0.1866  0.6847 -1.6373
  251SOL     OW  751   3.027   1.493   2.568 -0.0578  0.6929 -0.4618
  251SOL    HW1  752   3.023   1.582   2.509  1.6811 -0.0387 -1.2120
  251SOL    HW2  753   2.955   1.421   2.541 -0.9623  1.8035 -2.4247
  252SOL     OW  754   1.565   0.752   1.569 -0.0788 -0.3290 -0.2812
  252SOL    HW1  755   1.596   0.818   1.498  0.0752 -0.6967  0.3281
  252SOL    HW2  756   1.585   0.796   1.663 -1.5586 -0.4359  0.2098
  253SOL     OW  757   0.985   1.465   0.412  0.3916 -0.0779 -0.4318
  253SOL    HW1  758   1.024   1.469   0.317  1.8319 -0.4685 -1.4721
  253SOL    HW2  759   0.903   1.528   0.424 -0.8984  2.5494 -0.3104
  254SOL     OW  760   2.040   2.185   1.650  0.8400 -0.3796 -0.3223
  254SOL    HW1  761   1.972   2.110   1.622 -1.5240 -2.4122 -0.4204
  254SOL    HW2  762   1.995   2.268   1.695  1.1347  1.5814 -2.1461
  255SOL     OW  763   0.080   1.183   2.974  0.5909 -0.5761  0.2205
  255SOL    HW1  764   0.121   1.263   2.924  1.9194 -1.7625  1.7772
  255SOL    HW2  765   0.157   1.115   3.014  0.3362 -0.4332 -0.6891
  256SOL     OW  766   2.777   1.444   1.797  0.1943  0.1770 -0.1167
  256SOL    HW1  767   2.697   1.485   1.838  0.7529  1.1029 -3.9225
  256SOL    HW2  768   2.754   1.356   1.741 -1.3344 -3.8593 -1.1427
  257SOL     OW  769   0.808   0.187   1.869  0.0413  0.1111 -0.2204
  257SOL    HW1  770   0.863   0.201   1.784 -0.2913  0.4143 -0.0459
  257SOL    HW2  771   0.858   0.131   1.952  0.7689 -2.6769  3.3529
  258SOL     OW  772   2.979   1.172   0.531  0.3214 -0.2140  0.2018
  258SOL    HW1  773   2.880   1.180   0.556  0.0298  1.0739  1.7838
  258SOL    HW2  774   3.049   1.193   0.609  1.8882 -0.8821  2.1368
  259SOL     OW  775   0.448   2.965   3.027  0.0948  0.0184  0.2989
  259SOL    HW1  776   0.372   2.913   3.075  1.3464  0.8547 -1.4885
  259SOL    HW2  777   0.472   2.918   2.941  2.1378  0.1024 -1.5418
  260SOL     OW  778   2.692   0.678   2.793 -0.1553 -0.6880  0.3328
  260SOL    HW1  779   2.601   0.697   2.745  1.7811  0.5223 -0.8502
  260SOL    HW2  780   2.688   0.582   2.833  1.8733 -1.3755 -0.4803
  261SOL     OW  781   2.723   1.271   1.282  0.7709  0.1819  0.0978
  261SOL    HW1  782   2.646   1.226   1.224  0.8429  1.3532 -1.7187
  261SOL    HW2  783   2.815   1.217   1.282  0.9837  0.3856 -3.4118
  262SOL     OW  784   1.410   2.970   1.999 -0.4205  0.0632  0.0300
  262SOL    HW1  785   1.412   3.057   1.940 -1.3942  0.6374  1.1374
  262SOL    HW2  786   1.332   2.907   1.982 -1.3787 -0.9658 -1.9662
  263SOL     OW  787   0.830   0.679   2.258  1.0270  0.3275  0.1729
  263SOL    HW1  788   0.751   0.624   2.222 -0.0477 -0.1616  0.3279
  263SOL    HW2  789   0.879   0.731   2.176  3.2139  2.1875 -4.2998
  264SOL     OW  790   2.278   0.822   0.458  0.3046 -0.1852 -0.0897
  264SOL    HW1  791   2.297   0.739   0.400 -0.3766 -0.3568  2.3633
  264SOL    HW2  792   2.359   0.843   0.515 -2.4151 -0.3775  0.4325
  265SOL     OW  793   0.874   2.306   2.643  0.0998 -0.1421 -0.0550
  265SOL    HW1  794   0.876   2.268   2.743 -0.0128  0.5813  3.4438
  265SOL    HW2  795   0.823   2.248   2.573  0.0181  1.4364  2.2789
  266SOL     OW  796   1.283   1.822   3.040 -0.3267  0.1431 -0.9694
  266SOL    HW1  797   1.267   1.887   3.122 -1.0783  0.9897 -0.2356
  266SOL    HW2  798   1.384   1.789   3.024  3.3862 -2.7917  1.1890
  267SOL     OW  799   1.101   3.021   2.281  0.8129 -0.0063  0.1926
  267SOL    HW1  800   1.014   2.971   2.265 -0.4646 -0.5742  1.7851
  267SOL    HW2  801   1.139   3.097   2.219  0.5213  1.5481 -2.6472
  268SOL     OW  802   0.774   1.301   1.209 -0.7447 -0.0275  1.2585
  268SOL    HW1  803   0.706   1.378   1.211  1.1195  0.7277  0.7000
  268SOL    HW2  804   0.870   1.332   1.188  2.5107 -1.0232 -0.2441
  269SOL     OW  805   2.301   2.515   1.614 -0.8519  0.0129 -0.0104
  269SOL    HW1  806   2.398   2.479   1.643  2.0476 -1.5900 -0.9009
  269SOL    HW2  807   2.243   2.542   1.699 -0.9785  0.6701  0.3646
  270SOL     OW  808   0.105   3.065   2.007 -0.0765  0.0138  0.2839
  270SOL    HW1  809   0.159   3.002   1.937  1.3941 -1.5271  0.3924
  270SOL    HW2  810   0.085   3.010   2.090 -1.6314  2.1048 -0.3543
  271SOL     OW  811   0.372   1.422   1.118 -0.5809  0.3439 -0.0626
  271SOL    HW1  812   0.384   1.419   1.015  2.8531 -2.0244  1.9770
  271SOL    HW2  813   0.296   1.363   1.145 -1.7345  1.0299  0.7375
  272SOL     OW  814   1.869   0.016   1.897  0.0350 -0.2828  0.0665
  272SOL    HW1  815   1.814  -0.064   1.865  0.5877 -0.8476  2.1763
  272SOL    HW2  816   1.886   0.083   1.821  1.3638 -0.2584  0.1002
  273SOL     OW  817   1.446   1.456   2.858  0.4633 -0.3897  0.1357
  273SOL    HW1  818   1.356   1.504   2.863  1.9610 -0.2402  3.8162
  273SOL    HW2  819   1.475   1.419   2.952  0.9046  0.0469  1.2600
  274SOL     OW  820   1.175   0.550   2.099 -0.0001 -0.1593  0.3815
  274SOL    HW1  821   1.087   0.490   2.118  0.9616 -1.3194  0.2806
  274SOL    HW2  822   1.211   0.584   2.190  2.0108 -0.4537  0.1336
  275SOL     OW  823   0.644   2.144   1.968  0.3569  0.4945 -0.2537
  275SOL    HW1  824   0.565   2.077   1.957  0.8774  1.5989 -1.1970
  275SOL    HW2  825   0.621   2.244   1.952 -1.0160  1.8242 -0.4213
  276SOL     OW  826   2.246   0.926   2.862 -0.2211 -0.3852 -0.6155
  276SOL    HW1  827   2.146   0.947   2.847 -0.9311  0.1557 -0.0727
  276SOL    HW2  828   2.269   0.829   2.894 -0.3656  0.8367 -0.2319
  277SOL     OW  829   3.078   0.787   0.248  0.3061  0.1087 -0.6030
  277SOL    HW1  830   3.178   0.815   0.233  0.2665 -0.0892  1.0556
  277SOL    HW2  831   3.064   0.702   0.309 -1.1342  2.5371  3.6051
  278SOL     OW  832   0.337   0.235   0.017 -0.2344 -0.2948  0.3386
  278SOL    HW1  833   0.416   0.197  -0.040  0.8527  0.5782  0.0057
  278SOL    HW2  834   0.332   0.341   0.011 -1.6295 -0.6824  0.1660
  279SOL     OW  835   0.250   2.988   0.937  0.0578 -0.0939  0.8832
  279SOL    HW1  836   0.257   2.958   1.039 -2.5932  0.4946  0.5024
  279SOL    HW2  837   0.227   2.909   0.872  0.0536  1.1121 -2.1433
  280SOL     OW  838   1.595   2.892   2.449 -0.3483  0.0797 -0.4276
  280SOL    HW1  839   1.644   2.961   2.510 -1.2000  0.2839  0.7600
  280SOL    HW2  840   1.541   2.933   2.369  1.3083 -2.9964  0.6190
  281SOL     OW  841   0.611   0.939   2.338  0.1960 -0.2815 -0.5200
  281SOL    HW1  842   0.594   0.860   2.275  0.5166  3.1901 -1.7015
  281SOL    HW2  843   0.604   0.904   2.434  1.3547 -0.3560  0.5898
  282SOL     OW  844   1.744   2.466   0.541 -0.7645 -0.1017  0.3032
  282SOL    HW1  845   1.724   2.371   0.493 -1.1313 -0.7242 -2.2861
  282SOL    HW2  846   1.691   2.547   0.504 -2.8150 -1.2472  1.7704
  283SOL     OW  847   1.150   0.913   0.787 -0.4216 -0.2104  0.2412
  283SOL    HW1  848   1.167   0.866   0.878 -1.5304 -0.2087 -0.6488
  283SOL    HW2  849   1.124   1.014   0.803 -1.5094  0.8617 -0.6735
  284SOL     OW  850   2.229   2.842   2.466 -1.0570  0.3531  0.4329
  284SOL    HW1  851   2.331   2.863   2.456 -0.5850 -0.4199 -1.0614
  284SOL    HW2  852   2.207   2.802   2.558  1.1782  0.0537  0.5867
  285SOL     OW  853   1.337   3.065   2.549  0.1298  0.2417 -0.5451
  285SOL    HW1  854   1.333   3.020   2.455 -1.3143  0.0816  0.6917
  285SOL    HW2  855   1.252   3.129   2.568 -0.0218 -1.1058  0.2561
  286SOL     OW  856   0.234   0.324   0.662 -0.0812 -0.5403  0.5370
  286SOL    HW1  857   0.266   0.243   0.713 -3.7614  2.0693 -2.2309
  286SOL    HW2  858   0.259   0.311   0.558  0.8453  1.4762 -0.5847
  287SOL     OW  859   0.105   1.268   2.531 -0.1976  0.4709  0.7139
  287SOL    HW1  860   0.060   1.194   2.588  1.8957  0.8793 -0.2156
  287SOL    HW2  861   0.061   1.366   2.539  0.2490  1.4564 -0.4963
  288SOL     OW  862   1.515   2.705   1.651  0.3639  0.7063 -0.1950
  288SOL    HW1  863   1.558   2.650   1.727 -0.0385  0.5946  3.6277
  288SOL    HW2  864   1.548   2.676   1.557 -0.3420 -1.1707  2.3407
  289SOL     OW  865   0.592   2.739   0.794 -0.6510 -0.5479 -0.3417
  289SOL    HW1  866   0.654   2.779   0.717  0.2617  1.9588  1.4149
  289SOL    HW2  867   0.569   2.812   0.864  2.0012  0.7449  0.8019
  290SOL     OW  868   2.819   1.087   1.668 -0.2231 -0.3922 -0.6432
  290SOL    HW1  869   2.753   1.025   1.715 -1.4027  1.1150 -1.3653
  290SOL    HW2  870   2.918   1.087   1.711  0.6346 -0.1714  0.6924
  291SOL     OW  871   1.920   0.017   0.060 -0.1978 -0.1004 -0.7793
  291SOL    HW1  872   1.955   0.003   0.157  3.7406 -2.6778 -2.1405
  291SOL    HW2  873   2.004   0.017  -0.001 -2.3336 -0.1755 -2.6571
  292SOL     OW  874   2.952   1.270   0.028 -0.3684 -0.5762 -0.3478
  292SOL    HW1  875   2.890   1.330  -0.033 -0.5647  0.7508 -1.9748
  292SOL    HW2  876   3.033   1.245  -0.031 -2.7862 -3.0862 -2.5169
  293SOL     OW  877   0.532   2.050   0.231  0.7037 -0.3697 -0.6036
  293SOL    HW1  878   0.520   2.126   0.301 -3.5089 -0.6849  1.2925
  293SOL    HW2  879   0.632   2.024   0.230  3.6123  1.1622  1.6698
  294SOL     OW  880   1.887   2.382   1.819  0.2656  0.4752 -0.2239
  294SOL    HW1  881   1.922   2.399   1.915  2.1577 -0.4493 -0.8396
  294SOL    HW2  882   1.809   2.447   1.796  2.0491  1.1034  0.7131
  295SOL     OW  883   0.933   1.049   0.443 -0.1726  0.0884 -0.3312
  295SOL    HW1  884   1.029   1.077   0.463 -0.0666  0.0975  0.9154
  295SOL    HW2  885   0.907   0.971   0.505  0.1819 -1.5151  0.4815
  296SOL     OW  886   1.137   2.126   2.698 -0.7554  0.3321 -0.2846
  296SOL    HW1  887   1.088   2.216   2.684 -0.5861 -1.2442 -1.2301
  296SOL    HW2  888   1.162   2.086   2.603  0.5178 -1.1717  0.5159
  297SOL     OW  889   1.332   0.613   1.243 -0.0139  0.5552  0.4057
  297SOL    HW1  890   1.345   0.547   1.323  1.1245  0.7225 -0.9223
  297SOL    HW2  891   1.401   0.597   1.163 -0.4896 -1.2612 -1.7246
  298SOL     OW  892   0.491   1.332   2.961  0.8139 -0.0867  0.1530
  298SOL    HW1  893   0.472   1.275   3.049  0.2780 -3.9009  1.0532
  298SOL    HW2  894   0.526   1.276   2.882 -0.1562  1.6679  1.8126
  299SOL     OW  895   0.432   0.194   1.216  0.2137 -0.0167 -0.7064
  299SOL    HW1  896   0.391   0.287   1.187  0.3032 -0.7794 -2.3664
  299SOL    HW2  897   0.421   0.182   1.323 -0.9524  1.7190  2.6602
  300SOL     OW  898   1.246   1.758   2.604 -0.8188 -0.8194  0.3286
  300SOL    HW1  899   1.233   1.684   2.538  1.7827 -1.8945  2.1704
  300SOL    HW2  900   1.346   1.769   2.635 -0.4908  0.0165 -3.7444
  301SOL     OW  901   0.317   0.296   0.380  0.1669 -0.0435 -0.4305
  301SOL    HW1  902   0.226   0.245   0.368  0.3139  0.5580  3.0563
  301SOL    HW2  903   0.398   0.253   0.330 -1.0054  1.4988  0.3570
  302SOL     OW  904   1.267   2.401   2.309 -0.2990  0.0140  0.6184
  302SOL    HW1  905   1.163   2.383   2.314 -0.4635 -0.2871  0.2064
  302SOL    HW2  906   1.320   2.337   2.371 -0.1531  0.3424 -2.5194
  303SOL     OW  907   0.884   2.450   0.719  0.2585  0.3257 -0.0488
  303SOL    HW1  908   0.930   2.450   0.626 -1.4438 -3.0682 -2.6186
  303SOL    HW2  909   0.931   2.507   0.792 -1.0603  1.7430 -1.7907
  304SOL     OW  910   0.119   1.920   0.701 -0.5591 -0.0223 -0.1592
  304SOL    HW1  911   0.178   1.897   0.623  0.6603  0.1155  2.3800
  304SOL    HW2  912   0.021   1.934   0.666 -1.7729  0.2531 -1.1189
  305SOL     OW  913   1.655   0.772   0.693 -0.4073  0.4813  0.5690
  305SOL    HW1  914   1.583   0.784   0.617 -1.1790 -1.1497 -0.9029
  305SOL    HW2  915   1.704   0.680   0.686  1.3085  0.1034  0.0260
  306SOL     OW  916   0.433   1.937   1.983  0.3060  0.3729 -0.4981
  306SOL    HW1  917   0.462   1.856   1.922  0.2617 -0.8160 -1.6820
  306SOL    HW2  918   0.432   1.917   2.088  0.0964  0.4336 -2.1732
  307SOL     OW  919   3.028   0.905   2.590  0.3608 -0.2484 -0.2539
  307SOL    HW1  920   3.033   0.980   2.662 -2.2166 -0.4069 -1.2851
  307SOL    HW2  921   3.029   0.807   2.632  1.3744  0.5499 -1.6248
  308SOL     OW  922   1.496   2.746   2.813 -0.1296  0.3321  0.1648
  308SOL    HW1  923   1.433   2.722   2.735  1.9384 -0.2943  0.0761
  308SOL    HW2  924   1.515   2.668   2.874 -0.3999  0.5248 -0.2176
  309SOL     OW  925   1.158   0.202   1.823  0.6598 -0.0540  0.3053
  309SOL    HW1  926   1.242   0.173   1.769 -0.4067  1.6973  0.0843
  309SOL    HW2  927   1.077   0.218   1.757  0.5571 -1.9091 -0.0010
  310SOL     OW  928   1.408   2.584   0.656  0.1472  0.1813  0.0471
  310SOL    HW1  929   1.413   2.576   0.758  1.3213  0.7703  0.3038
  310SOL    HW2  930   1.495   2.633   0.617  1.2941 -0.6483 -0.5234
  311SOL     OW  931   1.110   0.927   1.704 -0.5214 -0.5315 -0.4764
  311SOL    HW1  932   1.094   0.850   1.776 -0.0613  0.1163  1.2480
  311SOL    HW2  933   1.176   0.896   1.628 -0.2360 -1.2748 -0.2685
  312SOL     OW  934   1.491   0.626   0.995 -0.0279 -0.2887 -0.1065
  312SOL    HW1  935   1.540   0.719   0.994 -2.0733  2.7110 -2.2524
  312SOL    HW2  936   1.462   0.601   0.896 -0.9638 -3.0234 -2.0100
  313SOL     OW  937   1.652   1.327   0.699 -0.2572  0.0240  0.0063
  313SOL    HW1  938   1.584   1.376   0.764  1.6187  1.7592 -2.1370
  313SOL    HW2  939   1.632   1.225   0.682  2.0319  0.2957  1.3391
  314SOL     OW  940   2.979   0.010   3.076 -0.1366 -0.1532 -0.1045
  314SOL    HW1  941   3.008   0.015   3.173 -2.1130 -0.4118  0.8875
  314SOL    HW2  942   2.921  -0.079   3.053 -1.4135  0.5491 -0.4856
  315SOL     OW  943   1.118   0.220   2.756 -0.6031 -0.1312 -0.3282
  315SOL    HW1  944   1.093   0.164   2.667 -1.3384  0.6648 -2.4268
  315SOL    HW2  945   1.056   0.190   2.833 -1.6117  0.8698 -0.5277
  316SOL     OW  946   1.773   2.075   0.864  0.3918  0.2689  0.3479
  316SOL    HW1  947   1.721   2.062   0.955  0.4820  0.3328 -0.1982
  316SOL    HW2  948   1.775   2.172   0.831 -1.1591  1.0322  2.6674
  317SOL     OW  949   1.171   0.687   2.735  0.2496 -0.4232  0.0448
  317SOL    HW1  950   1.120   0.717   2.823  2.0277  1.0241  0.5329
  317SOL    HW2  951   1.138   0.594   2.698  0.0051  1.6978 -0.4976
  318SOL     OW  952   1.429   3.030   2.263  0.7315 -0.1677 -0.2788
  318SOL    HW1  953   1.425   3.132   2.267 -1.6834 -0.8194 -0.9521
  318SOL    HW2  954   1.425   2.994   2.165  0.3527  1.0629 -3.4588
  319SOL     OW  955   0.646   2.364   3.059  0.4380 -0.7044  0.2327
  319SOL    HW1  956   0.579   2.286   3.084 -0.5264  0.7132  1.4659
  319SOL    HW2  957   0.716   2.334   2.991  0.5190  1.9289  1.2376
  320SOL     OW  958   1.709   2.219   0.392 -0.0437 -0.1633 -0.1111
  320SOL    HW1  959   1.767   2.137   0.359 -1.0256 -1.1283 -0.1026
  320SOL    HW2  960   1.620   2.191   0.436 -0.0054 -1.2797 -1.0683
  321SOL     OW  961   1.609   2.703   0.514  0.3663 -0.0311  0.1179
  321SOL    HW1  962   1.544   2.761   0.450 -1.6488  2.1410  2.0989
  321SOL    HW2  963   1.706   2.738   0.504  1.6797  1.3369 -1.6980
  322SOL     OW  964   2.550   1.042   2.360  0.2222 -0.7171  0.3015
  322SOL    HW1  965   2.619   0.993   2.427 -1.0340  0.6938  1.3865
  322SOL    HW2  966   2.461   0.993   2.365 -0.0516 -0.1647  0.1940
  323SOL     OW  967   1.177   2.713   0.799  0.0084  0.7433  0.5599
  323SOL    HW1  968   1.218   2.716   0.706  1.2571  0.4709  2.2431
  323SOL    HW2  969   1.144   2.801   0.842 -3.8823  1.8085  1.3349
  324SOL     OW  970   0.072   2.522   2.388  0.1557 -0.0480  0.2563
  324SOL    HW1  971   0.031   2.460   2.465  1.4197 -3.0046 -1.0224
  324SOL    HW2  972   0.053   2.621   2.396 -1.4313  0.6418  0.4756
  325SOL     OW  973   1.245   3.043   0.428 -0.0658  0.4294  0.3286
  325SOL    HW1  974   1.246   3.085   0.337 -0.9300  1.5348  1.7650
  325SOL    HW2  975   1.281   3.102   0.503 -1.4873 -0.2908 -1.0604
  326SOL     OW  976   2.490   0.842   0.027  0.4642 -1.2346 -0.1784
  326SOL    HW1  977   2.427   0.789  -0.038 -1.1679  2.4886  0.3271
  326SOL    HW2  978   2.547   0.780   0.084  1.2381 -1.0958 -2.3612
  327SOL     OW  979   2.858   0.186   0.573  0.3789 -0.0778  0.0479
  327SOL    HW1  980   2.860   0.122   0.491  0.3098  1.0192 -2.5722
  327SOL    HW2  981   2.887   0.142   0.662 -1.6991 -1.4673  1.8343
  328SOL     OW  982   2.662   0.587   0.419  0.0422 -0.0772  0.2637
  328SOL    HW1  983   2.711   0.653   0.481  1.6020 -1.6832  1.6564
  328SOL    HW2  984   2.634   0.505   0.475  0.0253  0.4363  0.0450
  329SOL     OW  985   2.935   3.065   2.212  0.7176 -0.1895 -0.5395
  329SOL    HW1  986   3.011   2.993   2.223 -0.2392  0.3044  0.8944
  329SOL    HW2  987   2.969   3.161   2.201  0.7510 -1.0570  0.0495
  330SOL     OW  988   0.618   0.321   2.001  0.7305 -0.4680 -0.5532
  330SOL    HW1  989   0.690   0.290   1.931  0.2879  0.4585 -4.0038
  330SOL    HW2  990   0.606   0.249   2.076 -0.9314  0.4990  0.7599
  331SOL     OW  991   3.104   1.933   1.117 -0.2789  0.0512 -0.2817
  331SOL    HW1  992   3.093   2.026   1.079  0.9672 -0.6540  1.3658
  331SOL    HW2  993   3.032   1.902   1.186 -1.8570  0.2858 -1.9975
  332SOL     OW  994   0.448   1.164   0.093 -0.4299  0.5232 -0.6079
  332SOL    HW1  995   0.367   1.126   0.046  0.5885  3.6109 -0.8860
  332SOL    HW2  996   0.420   1.197   0.191 -0.3076  0.5609  0.0382
  333SOL     OW  997   2.907   0.942   0.374 -0.4466 -0.1702 -0.3974
  333SOL    HW1  998   2.938   1.023   0.439  3.8891  3.2253  3.9094
  333SOL    HW2  999   2.987   0.913   0.311 -1.0136 -1.4131 -0.7362
  334SOL     OW 1000   1.697   1.182   1.715 -0.0099  0.1858 -0.1798
  334SOL    HW1 1001   1.739   1.186   1.622  1.1381 -2.2612 -1.2415
  334SOL    HW2 1002   1.774   1.177   1.781 -0.8794  0.3892  0.7454
  335SOL     OW 1003   1.944   2.759   2.604 -0.5726  0.0623 -0.0544
  335SOL    HW1 1004   1.851   2.749   2.649  1.4816  0.5097  0.9457
  335SOL    HW2 1005   2.014   2.814   2.658  1.4259  1.0662 -0.2830
  336SOL     OW 1006   0.275   0.089   2.770  0.1484 -0.3256  0.3056
  336SOL    HW1 1007   0.353   0.129   2.829  3.4548  1.5522 -0.6284
  336SOL    HW2 1008   0.219   0.022   2.820 -0.7319  0.4088  0.2085
  337SOL     OW 1009   0.781   2.791   3.042  0.2618  0.3045 -0.0943
  337SOL    HW1 1010   0.853   2.728   3.093  0.2536 -0.4643  0.0410
  337SOL    HW2 1011   0.723   2.829   3.120 -1.9345  0.9258  3.6775
  338SOL     OW 1012   0.071   0.941   0.720 -0.2199 -0.4724 -0.2144
  338SOL    HW1 1013  -0.027   0.911   0.735  0.1193  0.0610 -0.3110
  338SOL    HW2 1014   0.084   1.043   0.721  0.1617 -3.6026 -1.8491
  339SOL     OW 1015   1.757   1.365   2.142 -0.1039 -0.3504 -0.3295
  339SOL    HW1 1016   1.659   1.392   2.110 -0.1887  1.2796  1.2375
  339SOL    HW2 1017   1.811   1.449   2.179  0.2599 -1.2631  1.4989
  340SOL     OW 1018   2.315   0.790   1.176  0.2386  0.1282  1.1051
  340SOL    HW1 1019   2.236   0.838   1.132  2.3554 -1.3474  1.4734
  340SOL    HW2 1020   2.310   0.689   1.144 -0.3371 -1.4358 -1.1075
  341SOL     OW 1021   1.922   2.071   0.299  0.5882 -0.1192  0.2499
  341SOL    HW1 1022   1.963   2.154   0.248  0.2851 -0.9864  0.3742
  341SOL    HW2 1023   1.978   2.046   0.387 -1.0754  0.8779  1.8289
  342SOL     OW 1024   2.120   2.135   2.767 -0.6893  0.5646 -0.0437
  342SOL    HW1 1025   2.166   2.043   2.780  0.0835  1.9720 -0.1395
  342SOL    HW2 1026   2.026   2.125   2.729  0.0311 -1.8908  2.3776
  343SOL     OW 1027   0.362   0.836   2.887  0.4204  0.1118  0.1403
  343SOL    HW1 1028   0.342   0.895   2.803  1.3732 -0.6278  0.2970
  343SOL    HW2 1029   0.446   0.775   2.884 -1.9946  2.1835  1.9985
  344SOL     OW 1030   1.922   1.401   0.388 -0.3682 -0.0127  0.3409
  344SOL    HW1 1031   1.926   1.328   0.317  0.5533  1.3891  0.1100
  344SOL    HW2 1032   1.822   1.423   0.415 -0.4287 -0.6935  3.6233
  345SOL     OW 1033   1.374   2.193   2.822 -0.0403  0.3576 -0.4706
  345SOL    HW1 1034   1.271   2.169   2.807 -1.1997  0.7528 -2.0791
  345SOL    HW2 1035   1.441   2.149   2.756 -2.7851 -2.2137  1.0666
  346SOL     OW 1036   2.279   0.820   1.442 -0.3520 -0.0659  0.4500
  346SOL    HW1 1037   2.182   0.848   1.460  2.6570 -1.3108  3.4839
  346SOL    HW2 1038   2.303   0.811   1.340  0.2709  2.4390  1.8713
  347SOL     OW 1039   0.716   2.801   1.717  0.5540  0.0717  0.4369
  347SOL    HW1 1040   0.795   2.872   1.734 -1.5932 -1.3600  0.4767
  347SOL    HW2 1041   0.649   2.840   1.644 -2.4347 -0.2015  0.6547
  348SOL     OW 1042   0.183   0.623   2.848  0.0772 -0.3259  0.5548
  348SOL    HW1 1043   0.100   0.644   2.789  0.4072 -0.4268 -0.6215
  348SOL    HW2 1044   0.230   0.709   2.882 -2.5123 -0.5632  1.9929
  349SOL     OW 1045   1.812   0.435   2.818  0.5613  0.6820  0.0302
  349SOL    HW1 1046   1.788   0.524   2.775 -0.4508 -1.2793  0.2349
  349SOL    HW2 1047   1.803   0.441   2.920  0.2627 -0.8022 -0.6647
  350SOL     OW 1048   1.758   0.358   0.416 -0.0195 -0.6344  0.4561
  350SOL    HW1 1049   1.847   0.342   0.467  2.7155  2.0824  1.3598
  350SOL    HW2 1050   1.777   0.448   0.364  2.1389  4.2275  0.2993
  351SOL     OW 1051   0.921   0.809   2.044  0.0955 -0.3207  0.2246
  351SOL    HW1 1052   0.938   0.913   2.051  1.1796 -2.7912  2.0799
  351SOL    HW2 1053   0.976   0.761   1.976  0.5591  1.5935 -1.2551
  352SOL     OW 1054   2.084   1.473   0.597  0.0316 -0.0948  0.5698
  352SOL    HW1 1055   1.999   1.471   0.531 -0.5222 -0.2051  0.5194
  352SOL    HW2 1056   2.069   1.442   0.694 -2.6199  2.6258  0.2083
  353SOL     OW 1057   2.173   2.726   1.153 -0.0246  0.6019 -0.1038
  353SOL    HW1 1058   2.225   2.653   1.208 -0.4519 -1.7513 -0.9846
  353SOL    HW2 1059   2.076   2.748   1.176  0.0138  0.4929 -1.7079
  354SOL     OW 1060   0.235   1.407   2.882 -0.2307 -0.1727 -0.0813
  354SOL    HW1 1061   0.239   1.469   2.800  1.9565 -0.7277  0.7693
  354SOL    HW2 1062   0.330   1.376   2.910  2.1266  1.9848 -0.3691
  355SOL     OW 1063   0.741   1.579   0.539  0.2687  0.0293 -0.2532
  355SOL    HW1 1064   0.710   1.571   0.635  1.3180 -1.0537  1.3939
  355SOL    HW2 1065   0.687   1.519   0.470 -2.4309 -2.9041  2.1351
  356SOL     OW 1066   0.987   0.350   2.082 -0.6546 -0.3905 -0.0741
  356SOL    HW1 1067   1.047   0.264   2.088  1.1083 -1.1822  1.7360
  356SOL    HW2 1068   0.937   0.363   1.992 -1.9407 -0.1232 -0.5099
  357SOL     OW 1069   1.021   1.534   0.141 -0.3903  0.0474 -0.1674
  357SOL    HW1 1070   1.014   1.463   0.067  1.2669 -0.3001 -1.7237
  357SOL    HW2 1071   1.118   1.574   0.153  0.8386  1.8609 -3.7378
  358SOL     OW 1072   1.664   1.479   0.492 -0.1578  0.1655  0.5806
  358SOL    HW1 1073   1.660   1.428   0.582  1.0386 -2.0012 -1.3380
  358SOL    HW2 1074   1.598   1.440   0.421 -1.2401  0.3928  1.7095
  359SOL     OW 1075   1.641   2.599   0.190  0.7893  0.5445 -0.0814
  359SOL    HW1 1076   1.642   2.495   0.205 -0.0576  0.1672  1.4692
  359SOL    HW2 1077   1.549   2.631   0.153  0.4430  0.2211 -1.2463
  360SOL     OW 1078   0.701   0.506   0.566  0.4707 -0.5481  0.0332
  360SOL    HW1 1079   0.614   0.500   0.499 -2.3892  0.1531  1.0956
  360SOL    HW2 1080   0.747   0.412   0.592  1.1882 -4.6951  0.3468
  361SOL     OW 1081   1.347   1.324   0.566 -0.4094  0.4082 -0.1389
  361SOL    HW1 1082   1.397   1.381   0.633 -0.4220 -2.3348 -0.5710
  361SOL    HW2 1083   1.249   1.343   0.577 -0.0410  1.0938  2.2911
  362SOL     OW 1084   1.392   1.863   0.733 -0.0411 -0.0203 -0.0312
  362SOL    HW1 1085   1.446   1.801   0.800  0.3873 -0.0557  0.1650
  362SOL    HW2 1086   1.445   1.908   0.655  0.3099  0.9135 -0.1353
  363SOL     OW 1087   1.274   1.311   1.948  0.5622 -0.2750  0.7659
  363SOL    HW1 1088   1.334   1.370   2.010 -0.1222 -0.8900  0.7532
  363SOL    HW2 1089   1.199   1.365   1.899  1.1609  0.1889 -2.0017
  364SOL     OW 1090   0.544   2.396   2.018 -0.3773 -0.2705  0.3270
  364SOL    HW1 1091   0.444   2.417   2.007 -1.3722 -0.1602  0.0672
  364SOL    HW2 1092   0.598   2.487   2.017  1.2094  0.5915  2.7089
  365SOL     OW 1093   0.920   1.975   1.395 -0.1988  0.8737 -0.6593
  365SOL    HW1 1094   0.840   2.011   1.449  0.2242 -1.8578 -0.1008
  365SOL    HW2 1095   0.921   2.009   1.296  1.4835 -0.2959 -1.1082
  366SOL     OW 1096   2.695   1.846   0.244  0.5907  0.2045 -0.5383
  366SOL    HW1 1097   2.599   1.804   0.226 -0.1181 -1.8078 -0.8726
  366SOL    HW2 1098   2.763   1.781   0.288 -1.6526 -0.7469 -0.3960
  367SOL     OW 1099   0.951   1.115   3.060  0.2210  0.7794  0.4414
  367SOL    HW1 1100   0.947   1.055   3.148  0.8628 -1.0872  0.5171
  367SOL    HW2 1101   1.027   1.184   3.074  0.3201 -1.8156  0.9479
  368SOL     OW 1102   1.473   0.465   0.512  0.1460 -0.4036  0.4298
  368SOL    HW1 1103   1.422   0.414   0.446  0.3169 -0.0422  3.0099
  368SOL    HW2 1104   1.518   0.542   0.464  1.0267  1.7212  1.7389
  369SOL     OW 1105   0.304   1.633   0.134 -0.5529  0.3816  0.0518
  369SOL    HW1 1106   0.366   1.670   0.208  1.1936  2.3597  1.2788
  369SOL    HW2 1107   0.235   1.563   0.176  0.8423 -1.5890 -0.2489
  370SOL     OW 1108   0.473   2.120   1.014  0.4687 -0.2464 -0.1545
  370SOL    HW1 1109   0.491   2.221   1.041  2.6463  0.4091  1.8010
  370SOL    HW2 1110   0.374   2.097   1.002 -1.0703  0.0357  0.2857
  371SOL     OW 1111   2.935   2.176   2.679  0.4340 -0.1057  0.0946
  371SOL    HW1 1112   3.014   2.112   2.709 -0.9226  2.5698  0.1799
  371SOL    HW2 1113   2.905   2.246   2.752  0.1261  2.1519 -1.4489
  372SOL     OW 1114   0.971   2.140   1.121  0.1754 -0.0734 -0.0681
  372SOL    HW1 1115   0.925   2.188   1.036 -0.1096  1.5495 -0.4245
  372SOL    HW2 1116   1.035   2.202   1.170  1.3766 -2.1091  0.6398
  373SOL     OW 1117   1.925   1.864   0.975  0.0770 -0.0527 -0.7602
  373SOL    HW1 1118   2.005   1.913   1.031 -0.5198  1.0322  0.3692
  373SOL    HW2 1119   1.895   1.909   0.888  1.2979 -0.3447 -1.3140
  374SOL     OW 1120   1.963   0.274   0.567  0.0265 -0.0281 -0.3149
  374SOL    HW1 1121   1.924   0.279   0.663 -0.1098  0.8828 -2.2222
  374SOL    HW2 1122   2.062   0.306   0.570  2.3499 -0.1792 -1.5115
  375SOL     OW 1123   2.397   2.099   1.069 -0.4471 -0.6019  0.4106
  375SOL    HW1 1124   2.445   2.076   0.979 -2.1464 -1.4779 -0.6075
  375SOL    HW2 1125   2.456   2.091   1.150  1.1161 -1.6111 -0.2408
  376SOL     OW 1126   0.005   0.586   1.469  0.5923 -0.3714  0.1078
  376SOL    HW1 1127   0.043   0.626   1.561  0.6059 -2.6313  0.9375
  376SOL    HW2 1128  -0.059   0.504   1.474  1.8767 -0.0636 -0.1461
  377SOL     OW 1129   2.297   2.947   0.166  0.6427 -0.3110  0.1509
  377SOL    HW1 1130   2.250   3.024   0.221  2.1660  1.2605 -0.5430
  377SOL    HW2 1131   2.342   2.878   0.231  1.5398  1.5462  1.6516
  378SOL     OW 1132   1.908   1.885   2.473  0.1548 -0.4751 -0.2529
  378SOL    HW1 1133   2.001   1.846   2.447 -0.3366  0.5383 -2.9178
  378SOL    HW2 1134   1.834   1.809   2.486 -0.0774 -0.6070 -1.0721
  379SOL     OW 1135   0.798   0.160   2.784 -0.4854 -0.5174 -0.5665
  379SOL    HW1 1136   0.806   0.062   2.771 -1.6648  3.5930  0.3856
  379SOL    HW2 1137   0.784   0.216   2.703  1.4173 -2.0348 -0.3662
  380SOL     OW 1138   1.519   1.098   0.573 -0.7192 -0.1043  0.1173
  380SOL    HW1 1139   1.459   1.183   0.556  0.8176  1.8642 -2.3220
  380SOL    HW2 1140   1.465   1.012   0.569  1.3961  0.7206 -0.2352
  381SOL     OW 1141   1.272   1.292   1.429  0.0487  0.7033 -0.3246
  381SOL    HW1 1142   1.307   1.199   1.442 -4.0059 -0.5939 -0.0443
  381SOL    HW2 1143   1.347   1.364   1.418  1.5421  1.3643  2.1442
  382SOL     OW 1144   1.809   0.843   0.266  0.0233 -0.1109  0.1427
  382SOL    HW1 1145   1.795   0.797   0.176 -2.1703  3.7813 -0.1374
  382SOL    HW2 1146   1.904   0.836   0.304  1.8581  1.7213 -1.5751
  383SOL     OW 1147   2.526   0.967   1.483  0.3692 -0.2503  0.7973
  383SOL    HW1 1148   2.443   0.908   1.467  1.6824 -0.9775 -0.0022
  383SOL    HW2 1149   2.589   0.970   1.398  1.2940  0.1978 -2.4668
  384SOL     OW 1150   0.959   2.256   0.202 -0.3848 -0.2821 -0.5517
  384SOL    HW1 1151   0.882   2.324   0.209  0.9809 -0.1452 -0.8285
  384SOL    HW2 1152   0.982   2.214   0.298  3.4695 -2.4008 -0.9416
  385SOL     OW 1153   2.894   2.019   1.628 -0.5068 -0.1959 -0.2560
  385SOL    HW1 1154   2.985   2.032   1.679  1.0258  2.0385  0.9693
  385SOL    HW2 1155   2.840   1.942   1.668  0.3488 -0.6079 -0.5230
  386SOL     OW 1156   0.508   1.039   0.432  0.1847  0.2955 -0.7338
  386SOL    HW1 1157   0.492   0.943   0.462  1.4300 -1.0757 -2.5363
  386SOL    HW2 1158   0.431   1.107   0.463 -1.0733  3.1252  0.0912
  387SOL     OW 1159   0.943   0.278   1.662 -0.5992  0.1777  0.5407
  387SOL    HW1 1160   0.982   0.374   1.673  2.5853 -0.8527 -0.1874
  387SOL    HW2 1161   0.907   0.263   1.562 -0.0366  3.8801 -0.9489
  388SOL     OW 1162   1.261   2.729   1.811  0.5423 -0.0649  0.2047
  388SOL    HW1 1163   1.302   2.714   1.716  1.2060 -2.2004  0.9115
  388SOL    HW2 1164   1.273   2.645   1.872 -1.1646 -0.7737  0.2282
  389SOL     OW 1165   0.118   2.899   1.364 -0.1013 -0.8023  0.2674
  389SOL    HW1 1166   0.021   2.927   1.325 -1.2170  0.6432 -0.9126
  389SOL    HW2 1167   0.145   2.802   1.327  1.1486 -2.3700  1.0036
  390SOL     OW 1168   1.031   0.933   1.337  0.2001 -0.6644 -0.3469
  390SOL    HW1 1169   1.112   0.892   1.388 -2.9604 -3.1270  0.1940
  390SOL    HW2 1170   0.995   1.024   1.378 -1.8881 -1.8606 -1.0225
  391SOL     OW 1171   2.162   1.109   1.103  0.4199  0.1257 -0.5887
  391SOL    HW1 1172   2.110   1.032   1.154  1.6046 -1.2685  0.8961
  391SOL    HW2 1173   2.230   1.085   1.026  3.3140  3.1399  0.2480
  392SOL     OW 1174   0.935   2.573   0.030  0.1867 -0.3082 -0.2017
  392SOL    HW1 1175   1.035   2.556   0.012  2.3882  0.8187  0.1126
  392SOL    HW2 1176   0.898   2.519   0.111  2.1800 -0.6733 -0.5931
  393SOL     OW 1177   0.332   0.678   1.973 -0.4239  0.0338  1.1390
  393SOL    HW1 1178   0.336   0.575   1.986 -0.0076 -0.1624  0.9752
  393SOL    HW2 1179   0.336   0.706   1.871  0.0462 -0.5404 -1.6298
  394SOL     OW 1180   0.003   1.939   2.674  0.3738  0.0809 -0.8945
  394SOL    HW1 1181   0.069   1.915   2.755  1.1376  1.1197  0.1750
  394SOL    HW2 1182  -0.039   1.854   2.635 -4.5306  2.9810  0.4343
  395SOL     OW 1183   1.628   1.964   0.625 -0.3344  0.0369 -0.2460
  395SOL    HW1 1184   1.653   1.873   0.582  0.3690 -3.0057 -0.8236
  395SOL    HW2 1185   1.685   1.992   0.709 -0.1036  0.0223 -0.9125
  396SOL     OW 1186   2.913   1.919   1.342  0.1636  0.1968  0.7095
  396SOL    HW1 1187   2.875   1.824   1.349  0.6451 -1.0466  2.1735
  396SOL    HW2 1188   2.899   1.979   1.430  0.3624  2.0057  0.5577
  397SOL     OW 1189   1.059   2.230   0.491 -0.0008 -0.6522  0.1365
  397SOL    HW1 1190   0.957   2.205   0.510 -0.8162 -0.8614  1.1890
  397SOL    HW2 1191   1.077   2.322   0.531 -0.4853  0.4548 -2.0347
  398SOL     OW 1192   2.167   3.077   1.174 -0.2187  0.5586 -0.2298
  398SOL    HW1 1193   2.073   3.031   1.193 -3.4387  1.4941 -0.9557
  398SOL    HW2 1194   2.154   3.170   1.134 -2.0364  1.0426  1.3837
  399SOL     OW 1195   3.077   2.403   2.614  0.4873 -0.0149 -0.9330
  399SOL    HW1 1196   2.987   2.367   2.644  1.9291  1.6852  2.0362
  399SOL    HW2 1197   3.153   2.362   2.675  0.9910 -1.8046  0.0750
  400SOL     OW 1198   0.688   1.732   1.373  0.8621 -0.8125  0.3989
  400SOL    HW1 1199   0.634   1.773   1.454  0.3243 -0.4324  2.2933
  400SOL    HW2 1200   0.720   1.803   1.300 -0.1970 -0.9055 -3.6801
  401SOL     OW 1201   1.861   0.324   1.140 -0.0043  0.6560  0.2605
  401SOL    HW1 1202   1.896   0.322   1.236 -2.0519  0.1933  0.4652
  401SOL    HW2 1203   1.757   0.340   1.128  2.0526 -1.8813 -1.5674
  402SOL     OW 1204   1.339   0.255   3.072  0.3457  0.6303 -0.1661
  402SOL    HW1 1205   1.427   0.220   3.032  0.1557 -0.0188 -3.2979
  402SOL    HW2 1206   1.299   0.340   3.024 -0.0996  0.9545 -1.8078
  403SOL     OW 1207   2.203   1.890   0.830  0.1612  0.3380  0.4265
  403SOL    HW1 1208   2.289   1.939   0.806 -2.8943  0.9509  0.7392
  403SOL    HW2 1209   2.170   1.924   0.920  0.6911 -0.6067 -0.1031
  404SOL     OW 1210   0.307   2.517   2.771  0.2933  0.5121 -0.0746
  404SOL    HW1 1211   0.372   2.506   2.690 -0.0037  0.4176 -1.5333
  404SOL    HW2 1212   0.283   2.619   2.796 -1.8389  1.4787 -1.3482
  405SOL     OW 1213   0.149   2.411   0.662  0.4850 -0.2127 -0.4829
  405SOL    HW1 1214   0.140   2.329   0.607 -1.6487 -0.2992 -1.9077
  405SOL    HW2 1215   0.230   2.468   0.641 -1.0674 -0.2829  0.4821
  406SOL     OW 1216   0.066   1.555   3.046  0.4658  0.0513 -0.0864
  406SOL    HW1 1217   0.138   1.498   3.002  1.0447 -0.4701 -1.6545
  406SOL    HW2 1218   0.090   1.587   3.140 -2.2239 -0.9766  0.5453
  407SOL     OW 1219   1.612   0.860   0.953  0.1236  0.1211 -0.2922
  407SOL    HW1 1220   1.620   0.843   0.852  0.3127  0.8294  1.2659
  407SOL    HW2 1221   1.550   0.943   0.974  1.1912 -0.1194 -0.4665
  408SOL     OW 1222   1.598   2.422   0.981  0.6773  0.7791 -0.1573
  408SOL    HW1 1223   1.643   2.393   0.892  0.8903  1.2803 -2.0694
  408SOL    HW2 1224   1.537   2.510   0.966 -1.5332  0.4563  1.1482
  409SOL     OW 1225   0.601   0.810   0.678 -0.1344 -0.2649 -0.2098
  409SOL    HW1 1226   0.547   0.793   0.590  0.5154 -3.0501 -0.2932
  409SOL    HW2 1227   0.616   0.725   0.743 -0.7751 -0.2254  3.5230
  410SOL     OW 1228   1.189   2.045   1.426  0.4830  0.6742 -0.4063
  410SOL    HW1 1229   1.259   1.976   1.461 -1.1017  3.0637  1.4148
  410SOL    HW2 1230   1.093   2.003   1.406 -1.6824 -1.7551  1.4558
  411SOL     OW 1231   2.550   1.819   2.985  0.3982 -0.0074 -0.9517
  411SOL    HW1 1232   2.551   1.910   2.939 -0.5005 -1.8604  0.3726
  411SOL    HW2 1233   2.473   1.761   2.946  0.4965 -2.3585  0.3561
  412SOL     OW 1234   1.493   2.447   2.170  0.1446 -0.0854 -0.1725
  412SOL    HW1 1235   1.555   2.475   2.252  0.4796 -0.9451  2.7918
  412SOL    HW2 1236   1.394   2.428   2.197 -0.8085  0.9250 -2.3269
  413SOL     OW 1237   0.042   0.275   3.018 -0.0509  0.6301 -0.2010
  413SOL    HW1 1238  -0.011   0.206   3.078  0.5021  2.0490 -0.4509
  413SOL    HW2 1239   0.142   0.277   3.036 -2.1420 -1.2643 -1.5478
  414SOL     OW 1240   1.736   1.519   1.113  0.0703 -0.2898 -0.4278
  414SOL    HW1 1241   1.689   1.604   1.154  1.5006  1.5808 -0.8899
  414SOL    HW2 1242   1.754   1.532   1.006 -0.2011 -0.1482 -3.5447
  415SOL     OW 1243   0.378   2.180   0.653 -0.3101  0.2586 -0.1060
  415SOL    HW1 1244   0.364   2.203   0.752  1.1107  1.8996  2.0416
  415SOL    HW2 1245   0.290   2.176   0.609  1.0472 -0.0102 -0.8794
  416SOL     OW 1246   0.357   1.094   1.066  0.0238 -0.1043 -0.3617
  416SOL    HW1 1247   0.335   1.029   0.989  1.1634 -2.1572 -0.5975
  416SOL    HW2 1248   0.456   1.125   1.059  0.8322  0.5916  0.8378
  417SOL     OW 1249   2.333   2.435   2.128 -0.6428 -0.1819  0.6245
  417SOL    HW1 1250   2.342   2.335   2.116 -1.5397  2.9641  1.0104
  417SOL    HW2 1251   2.289   2.461   2.217 -0.4061  1.2825 -2.0883
  418SOL     OW 1252   1.040   0.525   1.334  0.1253 -0.2181  0.0510
  418SOL    HW1 1253   0.988   0.452   1.288 -0.3938  0.0335  3.7458
  418SOL    HW2 1254   1.111   0.574   1.278  1.7333 -0.5217  0.1933
  419SOL     OW 1255   0.889   0.569   2.963  0.0665 -0.1245  0.3486
  419SOL    HW1 1256   0.785   0.578   2.982 -1.4579 -1.6263 -1.4050
  419SOL    HW2 1257   0.940   0.655   2.992  1.8169  0.2702  0.5274
  420SOL     OW 1258   0.095   2.190   0.520 -0.2045 -0.2424 -0.4153
  420SOL    HW1 1259   0.103   2.187   0.419 -3.3806  2.9883  0.5108
  420SOL    HW2 1260   0.029   2.123   0.555 -1.1188  0.8925  0.3454
  421SOL     OW 1261   0.336   2.973   0.546  0.6238  0.0937  0.2022
  421SOL    HW1 1262   0.310   2.904   0.619  0.5187 -1.4391  1.1300
  421SOL    HW2 1263   0.419   3.028   0.569 -0.4787  0.1410  1.5927
  422SOL     OW 1264   1.014   2.565   0.947  0.0556 -0.3415  0.2296
  422SOL    HW1 1265   1.052   2.638   0.884 -1.4522 -0.3571  0.7584
  422SOL    HW2 1266   1.080   2.527   1.012 -0.2651  1.0615 -0.8143
  423SOL     OW 1267   0.145   0.678   1.250  0.0504 -0.5580 -0.1796
  423SOL    HW1 1268   0.062   0.643   1.304  1.3837 -3.6745 -0.9910
  423SOL    HW2 1269   0.124   0.748   1.182  0.9059 -0.2284  0.1813
  424SOL     OW 1270   1.132   2.189   2.046  0.1948 -0.6339  0.5124
  424SOL    HW1 1271   1.102   2.287   2.022  1.5018 -0.2118 -1.0444
  424SOL    HW2 1272   1.088   2.168   2.138 -1.7012  1.7978 -0.3066
  425SOL     OW 1273   1.949   1.264   1.004  0.7854 -0.4910  0.1318
  425SOL    HW1 1274   2.048   1.236   1.025  2.7886 -3.3829  0.4028
  425SOL    HW2 1275   1.935   1.366   1.008 -1.9878  0.1468 -1.3712
  426SOL     OW 1276   1.464   1.639   1.241  0.2181  0.3974 -0.0235
  426SOL    HW1 1277   1.454   1.738   1.211 -0.2905  3.4436  3.1856
  426SOL    HW2 1278   1.390   1.620   1.314  0.2194  0.4092  1.0805
  427SOL     OW 1279   1.944   2.428   2.087  0.4115  0.6529  0.1752
  427SOL    HW1 1280   2.012   2.367   2.142  1.6024 -0.8782  0.6243
  427SOL    HW2 1281   1.963   2.533   2.100 -3.2612 -0.7946 -0.8207
  428SOL     OW 1282   0.873   0.031   0.036 -0.0264 -0.8120 -0.5613
  428SOL    HW1 1283   0.892   0.105  -0.032 -2.1101 -1.0299  0.4018
  428SOL    HW2 1284   0.958  -0.026   0.049  3.3783  0.2984  1.4089
  429SOL     OW 1285   1.287   0.178   0.235  0.1111  0.2324  0.0576
  429SOL    HW1 1286   1.372   0.169   0.297  0.0467 -0.0403 -0.3665
  429SOL    HW2 1287   1.303   0.194   0.131  0.0079  2.3274 -3.3992
  430SOL     OW 1288   2.917   1.422   0.284  0.7469  1.0508  0.3265
  430SOL    HW1 1289   2.909   1.464   0.189  1.5563  0.1113  0.3457
  430SOL    HW2 1290   2.829   1.451   0.344 -0.0301 -1.8681  3.1437
  431SOL     OW 1291   2.071   1.554   0.899  0.2833 -0.2550  0.0078
  431SOL    HW1 1292   2.138   1.603   0.961  1.1000 -0.7710 -1.6680
  431SOL    HW2 1293   1.983   1.604   0.882  0.1092 -0.0868  1.1357
  432SOL     OW 1294   2.939   2.165   1.207  0.1379  0.5068 -0.5857
  432SOL    HW1 1295   2.892   2.076   1.229  0.7549 -1.8475  0.6926
  432SOL    HW2 1296   2.978   2.210   1.293  1.0298 -1.4129 -0.3334
  433SOL     OW 1297   1.865   0.253   0.819  0.1902 -0.3718  0.4023
  433SOL    HW1 1298   1.784   0.288   0.875 -1.8933  1.0811  0.2408
  433SOL    HW2 1299   1.956   0.225   0.871 -0.4026 -0.0962  0.8671
  434SOL     OW 1300   1.570   0.274   0.711  0.0259 -0.1351  0.4533
  434SOL    HW1 1301   1.568   0.345   0.638  1.5992  1.9255  0.3911
  434SOL    HW2 1302   1.586   0.302   0.811 -0.4362 -0.4498  0.7644
  435SOL     OW 1303   1.485   1.444   2.106  0.1473  0.6972 -0.3485
  435SOL    HW1 1304   1.471   1.481   2.205  0.9776  3.5559  2.6414
  435SOL    HW2 1305   1.476   1.518   2.036  0.8219  0.2319 -1.8170
  436SOL     OW 1306   1.716   2.722   2.262 -0.1223  0.1544  0.4235
  436SOL    HW1 1307   1.680   2.801   2.324  1.7534 -0.1329 -0.4496
  436SOL    HW2 1308   1.727   2.635   2.315  1.1464 -0.2237  1.7190
  437SOL     OW 1309   1.134   2.969   0.894  0.5556 -0.5100 -0.1209
  437SOL    HW1 1310   1.045   3.023   0.877  0.3390  2.8597  0.8112
  437SOL    HW2 1311   1.148   2.943   0.995 -0.5646  1.2945 -0.1767
  438SOL     OW 1312   1.009   2.691   1.523 -0.0867 -0.1276 -0.0704
  438SOL    HW1 1313   1.101   2.712   1.484 -1.0437  0.9938  1.0282
  438SOL    HW2 1314   0.970   2.610   1.480 -0.2356 -0.1599  2.9051
  439SOL     OW 1315   0.712   1.872   1.120 -0.0639  0.4301  0.0529
  439SOL    HW1 1316   0.733   1.910   1.024  2.3117 -1.0969 -1.5315
  439SOL    HW2 1317   0.622   1.821   1.127 -0.9116  0.9356 -0.2792
  440SOL     OW 1318   1.037   2.459   1.980 -0.4848 -0.0571 -0.1634
  440SOL    HW1 1319   0.990   2.481   1.892 -0.2352 -0.4635 -0.6920
  440SOL    HW2 1320   1.099   2.533   2.016 -0.3261 -3.1055  0.9795
  441SOL     OW 1321   0.394   2.712   1.524  0.5760 -0.0773  0.3846
  441SOL    HW1 1322   0.460   2.629   1.537 -0.6671 -0.5605 -1.5027
  441SOL    HW2 1323   0.361   2.728   1.425 -2.0240  2.1527  0.3324
  442SOL     OW 1324   2.256   0.682   2.523  0.2515  0.5587 -0.0385
  442SOL    HW1 1325   2.246   0.589   2.568 -2.6202 -0.2760 -0.4732
  442SOL    HW2 1326   2.176   0.737   2.552  0.8091 -1.0782  0.5921
  443SOL     OW 1327   1.210   2.668   2.212  0.0760  0.4087  0.1309
  443SOL    HW1 1328   1.208   2.717   2.302  0.3796 -1.8220 -0.7817
  443SOL    HW2 1329   1.242   2.568   2.226 -2.3518 -0.2885  0.7442
  444SOL     OW 1330   1.029   1.317   1.547 -0.2748 -0.1393  0.1265
  444SOL    HW1 1331   1.128   1.302   1.508 -0.7488  0.9595 -3.1140
  444SOL    HW2 1332   1.003   1.417   1.543  1.6918  0.5402 -0.9211
  445SOL     OW 1333   3.092   2.383   1.942 -0.1572 -0.0953 -0.6128
  445SOL    HW1 1334   3.083   2.470   1.882  1.1634 -2.5977 -2.1147
  445SOL    HW2 1335   2.998   2.347   1.973  0.3593 -1.5269 -1.3936
  446SOL     OW 1336   0.193   1.892   2.400 -0.4063  0.2758  0.2726
  446SOL    HW1 1337   0.161   1.981   2.450 -0.1884 -1.5106  1.5483
  446SOL    HW2 1338   0.152   1.879   2.302  0.0150  3.8690  1.6007
  447SOL     OW 1339   1.232   1.623   1.941 -0.4335 -0.7224  0.4619
  447SOL    HW1 1340   1.177   1.705   1.908  1.9165 -0.3525  0.0327
  447SOL    HW2 1341   1.336   1.641   1.945  0.7472  0.8318 -1.4189
  448SOL     OW 1342   0.122   1.562   1.919  0.4912 -0.0366 -0.1809
  448SOL    HW1 1343   0.145   1.658   1.889  0.6739  1.7086  0.7565
  448SOL    HW2 1344   0.136   1.544   2.025 -1.0527  2.2078  3.5298
  449SOL     OW 1345   2.017   2.932   0.908 -0.3003 -0.9134  0.3512
  449SOL    HW1 1346   2.061   2.959   0.993 -0.5670 -1.4416 -0.9165
  449SOL    HW2 1347   1.980   2.835   0.912 -0.7609 -1.2327 -0.1436
  450SOL     OW 1348   2.261   1.326   0.929  0.0689 -0.5238  0.2025
  450SOL    HW1 1349   2.272   1.226   0.909  0.5463  0.2442  2.7250
  450SOL    HW2 1350   2.234   1.388   0.853 -1.8053  3.6807  2.4216
  451SOL     OW 1351   1.434   0.021   1.443  0.0448 -0.5975 -0.0926
  451SOL    HW1 1352   1.341   0.067   1.446  1.1005  1.2425  2.2061
  451SOL    HW2 1353   1.449  -0.037   1.530  0.0184 -1.1715  0.2597
  452SOL     OW 1354   2.662   2.363   2.244  0.7939  0.4283 -0.0627
  452SOL    HW1 1355   2.608   2.439   2.277 -1.5337  2.5598 -0.0840
  452SOL    HW2 1356   2.695   2.298   2.321  0.0182  1.4667  0.5359
  453SOL     OW 1357   2.448   2.623   3.055  0.4962  0.2095  0.2667
  453SOL    HW1 1358   2.360   2.684   3.073 -0.4922 -0.5140 -0.7664
  453SOL    HW2 1359   2.430   2.541   2.995  1.3377  0.9846  1.2190
  454SOL     OW 1360   0.976   1.092   2.044  0.4199  1.1295  0.1221
  454SOL    HW1 1361   0.968   1.134   1.949 -1.6030 -0.5931  2.2147
  454SOL    HW2 1362   1.079   1.092   2.071  1.7935  2.5707  0.6661
  455SOL     OW 1363   0.635   2.612   2.904 -0.0714 -0.7014  0.1718
  455SOL    HW1 1364   0.715   2.663   2.950  1.5305 -0.4438  0.3554
  455SOL    HW2 1365   0.621   2.522   2.948 -0.2077 -1.5048 -0.6099
  456SOL     OW 1366   0.475   1.773   0.297 -0.6702 -0.4033 -0.7703
  456SOL    HW1 1367   0.564   1.731   0.271 -2.1519  3.0029 -0.5189
  456SOL    HW2 1368   0.457   1.870   0.253 -0.2592  1.7546 -1.0388
  457SOL     OW 1369   0.362   2.570   0.590  0.5369  0.8296 -0.3780
  457SOL    HW1 1370   0.377   2.621   0.500 -1.1169 -0.1809 -2.5430
  457SOL    HW2 1371   0.450   2.548   0.641  1.5138 -1.8549 -4.0905
  458SOL     OW 1372   2.993   2.971   1.205 -0.2002  0.1024 -0.4530
  458SOL    HW1 1373   2.986   3.077   1.201  0.6163  1.3474 -0.0093
  458SOL    HW2 1374   3.011   2.931   1.110 -2.8053 -2.8249 -1.1236
  459SOL     OW 1375   2.183   2.591   0.842  0.2502  0.3438  0.0051
  459SOL    HW1 1376   2.213   2.669   0.904 -0.4083  3.5411  0.6152
  459SOL    HW2 1377   2.260   2.552   0.778  0.3898 -0.4175 -0.6687
  460SOL     OW 1378   1.076   1.949   2.900  0.8011  0.3371  0.0374
  460SOL    HW1 1379   1.097   2.020   2.826  0.2102  1.5324  0.8188
  460SOL    HW2 1380   1.162   1.920   2.950 -1.7369  0.0835 -0.4437
  461SOL     OW 1381   0.554   2.144   2.674 -0.2316 -0.0035 -0.2851
  461SOL    HW1 1382   0.471   2.078   2.660 -1.0860  1.9021  1.4993
  461SOL    HW2 1383   0.620   2.106   2.743  2.6459 -2.3666 -2.4897
  462SOL     OW 1384   0.947   1.156   1.761 -0.1581 -0.1253  0.2292
  462SOL    HW1 1385   0.971   1.058   1.728 -3.6181  2.1492 -0.7263
  462SOL    HW2 1386   0.998   1.226   1.712 -3.7118 -1.6298 -1.2049
  463SOL     OW 1387   0.464   0.753   0.448  0.0273  0.0747  0.0555
  463SOL    HW1 1388   0.489   0.655   0.424  0.5944 -0.6811 -1.5640
  463SOL    HW2 1389   0.363   0.760   0.476  0.7927 -1.7132  1.0576
  464SOL     OW 1390   0.519   2.242   2.249  0.3732  0.1006  0.3147
  464SOL    HW1 1391   0.435   2.297   2.277  0.9899 -0.0962  3.2747
  464SOL    HW2 1392   0.558   2.279   2.162 -0.9777  0.3505 -0.3076
  465SOL     OW 1393   0.319   0.881   0.876  0.5928 -0.0412  0.2480
  465SOL    HW1 1394   0.225   0.890   0.830 -1.8519  1.1756 -0.5788
  465SOL    HW2 1395   0.329   0.792   0.926  2.2373  0.2314  0.8043
  466SOL     OW 1396   1.390   1.112   1.134  0.2568 -0.2143  0.1794
  466SOL    HW1 1397   1.469   1.182   1.138 -1.7918  0.8247  1.0512
  466SOL    HW2 1398   1.299   1.154   1.107  0.4351  1.2855  1.6365
  467SOL     OW 1399   0.475   0.386   2.418  0.4152 -0.8243  0.0816
  467SOL    HW1 1400   0.413   0.469   2.446 -0.5966  1.2890 -2.3466
  467SOL    HW2 1401   0.498   0.324   2.498  1.9077 -1.3301 -2.0886
  468SOL     OW 1402   0.492   2.261   1.735  0.0562  0.1554  0.5185
  468SOL    HW1 1403   0.513   2.353   1.777 -1.6467  0.9673  0.6603
  468SOL    HW2 1404   0.454   2.270   1.639 -2.0149 -0.0030 -0.6336
  469SOL     OW 1405   1.575   1.302   1.111  0.0616 -0.0764  0.3048
  469SOL    HW1 1406   1.651   1.236   1.120 -1.3276 -0.9906  0.0653
  469SOL    HW2 1407   1.605   1.402   1.119 -1.0491  1.6117 -1.8352
  470SOL     OW 1408   3.002   1.607   0.760 -0.0221  0.3872  0.2919
  470SOL    HW1 1409   3.091   1.628   0.818 -0.7832 -0.6214  2.2197
  470SOL    HW2 1410   2.926   1.676   0.778  0.6661  0.4314 -0.7453
  471SOL     OW 1411   2.589   1.303   2.193 -0.0274  0.4421  0.1786
  471SOL    HW1 1412   2.574   1.217   2.247 -1.7924 -3.4473 -0.8469
  471SOL    HW2 1413   2.644   1.368   2.248  0.3285 -1.7202  2.2259
  472SOL     OW 1414   1.170   2.462   3.065  0.6560 -0.3185 -0.1893
  472SOL    HW1 1415   1.194   2.452   3.165  2.7078  0.0768 -0.4762
  472SOL    HW2 1416   1.131   2.373   3.026  0.2390  1.8674 -1.9398
  473SOL     OW 1417   1.049   1.520   0.893  0.1794 -0.3498 -0.2361
  473SOL    HW1 1418   0.962   1.543   0.947  2.2588 -1.7245  0.4627
  473SOL    HW2 1419   1.135   1.509   0.955  2.1297 -1.2764 -0.2767
  474SOL     OW 1420   0.750   1.264   0.783 -0.3458 -0.0865 -0.1438
  474SOL    HW1 1421   0.722   1.260   0.683  0.0781 -0.5356  2.2034
  474SOL    HW2 1422   0.844   1.228   0.796 -2.1483  0.2922 -1.0378
  475SOL     OW 1423   2.872   0.028   0.831 -0.4457  0.0496  0.0349
  475SOL    HW1 1424   2.953   0.024   0.902  0.1100 -0.8087  1.4815
  475SOL    HW2 1425   2.780   0.056   0.876 -2.3924 -0.4361  3.6820
  476SOL     OW 1426   0.967   3.048   1.959  0.0340 -0.7202 -0.3179
  476SOL    HW1 1427   1.021   2.973   2.007  2.4131  0.1930 -0.9822
  476SOL    HW2 1428   0.996   3.057   1.862  2.0905  1.9903  1.5599
  477SOL     OW 1429   1.493   0.393   2.433 -0.1439 -0.5201 -0.3049
  477SOL    HW1 1430   1.441   0.365   2.519 -1.2793 -2.9886 -1.2268
  477SOL    HW2 1431   1.586   0.345   2.420  1.8512 -2.2625  1.7279
  478SOL     OW 1432   2.214   1.845   0.239  0.2725 -0.0084  0.2192
  478SOL    HW1 1433   2.153   1.764   0.230  3.8981  0.3618 -0.8069
  478SOL    HW2 1434   2.317   1.824   0.221  0.5000  1.6892 -2.2343
  479SOL     OW 1435   1.265   1.157   2.880  1.0674 -0.5669  0.9909
  479SOL    HW1 1436   1.350   1.171   2.825 -0.8385  1.5388  1.2665
  479SOL    HW2 1437   1.197   1.111   2.821  0.8226 -1.6893 -0.6295
  480SOL     OW 1438   2.497   2.344   0.419 -0.0976  0.5703  0.2813
  480SOL    HW1 1439   2.466   2.254   0.466  0.5068 -2.4812 -0.5199
  480SOL    HW2 1440   2.434   2.365   0.343 -0.4567  0.2108  3.1023
  481SOL     OW 1441   1.059   1.170   0.841  0.2742 -0.2730  0.1707
  481SOL    HW1 1442   1.075   1.247   0.768 -1.7491  0.8588  0.2956
  481SOL    HW2 1443   1.077   1.193   0.943 -1.8745 -1.9994  2.6003
  482SOL     OW 1444   1.595   0.291   2.015  0.2412  0.3487  0.0194
  482SOL    HW1 1445   1.600   0.395   2.015 -0.0573 -1.0400  1.8956
  482SOL    HW2 1446   1.673   0.252   2.063 -1.2626 -0.2999 -1.3017
  483SOL     OW 1447   0.125   2.362   1.335  0.9848 -0.1261  0.7878
  483SOL    HW1 1448   0.023   2.343   1.341  0.0822 -0.1043 -1.3010
  483SOL    HW2 1449   0.156   2.380   1.232 -0.1045  0.4072 -1.3580
  484SOL     OW 1450   1.699   0.959   1.381  0.1531  0.0736  0.1966
  484SOL    HW1 1451   1.779   0.945   1.444 -0.1042  1.1934 -0.9280
  484SOL    HW2 1452   1.733   1.014   1.302 -1.0859 -0.0078 -0.5693
  485SOL     OW 1453   0.670   1.132   1.807  0.0472 -0.7511 -0.0546
  485SOL    HW1 1454   0.683   1.069   1.726  0.1933 -3.1322  0.3960
  485SOL    HW2 1455   0.744   1.206   1.815 -1.9289  0.5123  0.2060
  486SOL     OW 1456   0.871   1.914   2.461 -0.1001  0.3943  0.5013
  486SOL    HW1 1457   0.909   1.867   2.545 -0.9338  0.3151 -2.1127
  486SOL    HW2 1458   0.803   1.987   2.479  1.0411 -3.2366 -1.2411
  487SOL     OW 1459   1.774   1.550   0.853 -0.0922  0.5620 -0.1719
  487SOL    HW1 1460   1.774   1.469   0.791 -0.0867  3.0984  0.6955
  487SOL    HW2 1461   1.813   1.633   0.803 -1.9591 -0.6897  1.9569
  488SOL     OW 1462   2.987   0.962   2.211  0.0096  0.2843 -0.2475
  488SOL    HW1 1463   3.020   0.868   2.172  1.5915 -0.4968  1.5263
  488SOL    HW2 1464   3.031   0.976   2.302  3.5574  1.1995  0.5424
  489SOL     OW 1465   2.761   0.213   1.372  0.1304  0.3392 -0.0024
  489SOL    HW1 1466   2.747   0.171   1.469  0.1966  0.9627  0.8443
  489SOL    HW2 1467   2.856   0.196   1.332  0.6986 -1.1387 -1.0851
  490SOL     OW 1468   1.390   2.991   2.804 -0.3733 -0.0578 -0.3371
  490SOL    HW1 1469   1.456   2.905   2.801  1.4841  1.1092 -2.1337
  490SOL    HW2 1470   1.380   3.027   2.703  0.1566 -1.8221 -0.7883
  491SOL     OW 1471   1.882   1.543   2.683 -0.3127 -0.1543 -0.3126
  491SOL    HW1 1472   1.851   1.604   2.765 -3.8723 -1.0111 -1.4883
  491SOL    HW2 1473   1.985   1.531   2.696 -0.0827 -0.7375  2.1871
  492SOL     OW 1474   0.497   1.935   0.714 -0.3080 -0.1693 -0.8263
  492SOL    HW1 1475   0.575   1.975   0.771  0.2744  1.1918 -0.6386
  492SOL    HW2 1476   0.456   2.004   0.656 -1.2657 -3.0672  1.4427
  493SOL     OW 1477   0.492   1.401   2.145  0.1087  0.3822 -0.2145
  493SOL    HW1 1478   0.401   1.449   2.141  0.3671 -0.0638 -0.7517
  493SOL    HW2 1479   0.491   1.315   2.206  0.0429  0.3639  0.7788
  494SOL     OW 1480   2.582   2.569   0.195  0.4408 -0.8264  0.4161
  494SOL    HW1 1481   2.623   2.479   0.209  1.7343  1.3578 -0.8650
  494SOL    HW2 1482   2.556   2.589   0.095 -0.1204 -0.7225 -1.8375
  495SOL     OW 1483   2.749   2.674   2.690 -0.0830  0.6916  0.3165
  495SOL    HW1 1484   2.741   2.577   2.643  1.9369  0.0394  1.6759
  495SOL    HW2 1485   2.745   2.749   2.622 -1.7798 -0.3890  0.5564
  496SOL     OW 1486   2.097   2.204   0.707  0.3353 -0.2914 -0.5251
  496SOL    HW1 1487   2.135   2.231   0.806  2.4446  2.0187  3.9527
  496SOL    HW2 1488   2.102   2.105   0.693  0.4496  1.5626 -0.0964
  497SOL     OW 1489   0.253   2.966   2.397 -0.2438 -0.3201  0.0868
  497SOL    HW1 1490   0.200   3.044   2.446 -0.4532  0.5299 -2.1577
  497SOL    HW2 1491   0.291   3.014   2.309  1.5651  0.3704 -0.0215
  498SOL     OW 1492   1.251   1.497   1.102  0.3139  0.0062  0.3867
  498SOL    HW1 1493   1.346   1.496   1.148  0.5211  0.7367 -1.1972
  498SOL    HW2 1494   1.187   1.562   1.154 -0.5089  3.0058  4.3039
  499SOL     OW 1495   0.848   1.805   0.482 -0.7365 -0.4001 -0.1049
  499SOL    HW1 1496   0.808   1.711   0.506 -0.2130  1.4491  1.9944
  499SOL    HW2 1497   0.873   1.859   0.573  0.9533  1.3325 -0.8179
  500SOL     OW 1498   1.441   2.964   1.648  0.0598 -0.1569 -0.0510
  500SOL    HW1 1499   1.375   2.977   1.723 -0.9531  0.5018 -0.2856
  500SOL    HW2 1500   1.464   2.860   1.640 -0.3138  0.2600  0.3922
  501SOL     OW 1501   0.809   1.116   2.273  1.0780  0.8382 -0.3677
  501SOL    HW1 1502   0.747   1.036   2.296  0.6037 -3.6520  0.3437
  501SOL    HW2 1503   0.854   1.107   2.177 -0.9974  1.9406 -0.5129
  502SOL     OW 1504   2.572   0.960   1.743 -0.0711 -0.1591 -0.3700
  502SOL    HW1 1505   2.570   0.969   1.636 -0.2344  2.4806  1.2434
  502SOL    HW2 1506   2.550   0.865   1.780 -2.1609  0.1846  1.2615
  503SOL     OW 1507   1.310   0.161   0.592 -0.0096  0.2452 -0.8658
  503SOL    HW1 1508   1.252   0.242   0.563 -0.0101  0.5876 -0.1934
  503SOL    HW2 1509   1.409   0.191   0.602 -0.6742 -0.1967  1.2824
  504SOL     OW 1510   2.964   2.314   1.435 -0.3819  0.4553  0.1566
  504SOL    HW1 1511   2.968   2.407   1.492  0.5808  1.2797 -1.6604
  504SOL    HW2 1512   2.879   2.260   1.454  0.6196 -1.4783 -0.4962
  505SOL     OW 1513   2.279   1.297   1.462  0.2402 -0.6648 -0.1389
  505SOL    HW1 1514   2.268   1.394   1.501  0.3488 -0.3659 -0.5473
  505SOL    HW2 1515   2.366   1.254   1.495 -1.0879  1.0546 -3.6294
  506SOL     OW 1516   1.875   0.319   1.742 -0.2307  0.5394  0.2447
  506SOL    HW1 1517   1.974   0.286   1.715  1.4060 -0.3983  0.2864
  506SOL    HW2 1518   1.879   0.405   1.799  1.6316  2.1153  0.4724
  507SOL     OW 1519   0.518   0.745   2.167  0.1236  0.0109 -0.2646
  507SOL    HW1 1520   0.440   0.739   2.098 -0.3133 -1.3480  1.1722
  507SOL    HW2 1521   0.552   0.648   2.184  0.6131 -1.1589  0.2816
  508SOL     OW 1522   0.169   1.607   0.865 -1.1424  0.6402 -0.3130
  508SOL    HW1 1523   0.252   1.655   0.828  1.7812 -0.1916  0.4138
  508SOL    HW2 1524   0.133   1.639   0.954  2.0306  0.5013 -0.0900
  509SOL     OW 1525   1.349   1.161   2.574  1.0685  0.0288 -0.1834
  509SOL    HW1 1526   1.263   1.217   2.585  0.9465 -3.9294 -0.0110
  509SOL    HW2 1527   1.336   1.059   2.552  2.0807 -4.1321  0.0402
  510SOL     OW 1528   1.348   2.017   2.047 -0.3506 -0.5142 -0.1179
  510SOL    HW1 1529   1.256   2.077   2.049 -3.7103  1.0201  2.4622
  510SOL    HW2 1530   1.342   1.941   2.119  2.9119 -0.5981 -1.0571
  511SOL     OW 1531   3.033   2.635   1.295  0.4307 -0.2601  0.2025
  511SOL    HW1 1532   2.993   2.612   1.199 -1.1022  1.1691 -1.5888
  511SOL    HW2 1533   2.959   2.677   1.358  1.2983  1.4677 -0.3962
  512SOL     OW 1534   2.413   0.360   1.455 -0.1641  0.2288  0.1945
  512SOL    HW1 1535   2.312   0.353   1.444  2.1800  1.8781  0.0593
  512SOL    HW2 1536   2.465   0.288   1.398  2.8189 -2.0787  1.9689
  513SOL     OW 1537   2.493   2.037   0.831 -0.2845  0.4380 -0.8749
  513SOL    HW1 1538   2.444   2.122   0.795  0.8450  0.1730 -2.4741
  513SOL    HW2 1539   2.587   2.025   0.790 -0.3292  0.7360  0.5373
  514SOL     OW 1540   0.701   2.816   0.341  0.3884 -0.3480 -0.2498
  514SOL    HW1 1541   0.647   2.887   0.282  1.6129 -0.6919 -1.6171
  514SOL    HW2 1542   0.736   2.860   0.429 -0.2985 -0.6065 -1.6533
  515SOL     OW 1543   1.944   1.239   2.335  0.3642  0.3086  0.2342
  515SOL    HW1 1544   1.861   1.264   2.280  3.1928  1.8841  1.0513
  515SOL    HW2 1545   1.914   1.260   2.436 -1.1339 -1.6227  0.3747
  516SOL     OW 1546   0.306   0.394   2.004  0.2626 -0.5111 -0.3937
  516SOL    HW1 1547   0.401   0.374   1.968  3.6924 -0.4227  0.9846
  516SOL    HW2 1548   0.234   0.333   1.968  0.6203 -0.7763  1.4793
  517SOL     OW 1549   0.348   2.970   1.191 -0.3912  0.1478 -0.4295
  517SOL    HW1 1550   0.399   3.058   1.210  0.2735  0.1247  0.2795
  517SOL    HW2 1551   0.275   2.959   1.263  1.4508  0.1976 -2.6965
  518SOL     OW 1552   2.107   0.171   1.705  0.3047 -0.4505  0.5583
  518SOL    HW1 1553   2.154   0.174   1.796 -1.0278  1.3109 -0.2972
  518SOL    HW2 1554   2.130   0.087   1.649  1.3777 -2.3237  0.8323
  519SOL     OW 1555   2.360   2.210   2.631  0.4314  0.8581  0.4063
  519SOL    HW1 1556   2.278   2.207   2.698 -2.1229 -2.2660  0.0242
  519SOL    HW2 1557   2.378   2.301   2.577  0.0437  0.2385  0.0396
  520SOL     OW 1558   1.740   2.879   1.820 -0.4001 -0.1152 -0.2825
  520SOL    HW1 1559   1.668   2.839   1.884 -1.1225  1.5478  1.0366
  520SOL    HW2 1560   1.815   2.810   1.799  1.2253  1.0208 -3.6441
  521SOL     OW 1561   0.606   0.094   2.145  0.1148 -0.8771  0.0234
  521SOL    HW1 1562   0.503   0.084   2.163 -1.6483  0.7428 -1.2582
  521SOL    HW2 1563   0.665   0.080   2.231  0.5653 -0.7744  1.8254
  522SOL     OW 1564   0.208   1.908   1.518 -0.5875  0.6068  0.1506
  522SOL    HW1 1565   0.260   1.941   1.602  1.5818 -0.3990  0.4437
  522SOL    HW2 1566   0.225   1.974   1.437 -0.3091 -0.0713 -1.0975
  523SOL     OW 1567   2.266   3.021   1.623  0.1551 -0.0762  0.5853
  523SOL    HW1 1568   2.265   2.929   1.578 -1.6805 -0.0475  2.3790
  523SOL    HW2 1569   2.221   3.016   1.718 -0.5131 -1.5948 -0.3482
  524SOL     OW 1570   0.222   2.773   2.802 -0.6292  0.1541 -0.0613
  524SOL    HW1 1571   0.170   2.840   2.862 -4.2462 -0.6355 -0.2178
  524SOL    HW2 1572   0.327   2.797   2.811  2.6783 -3.2169 -0.8050
  525SOL     OW 1573   2.079   1.925   0.477 -0.1031 -0.4502 -0.2625
  525SOL    HW1 1574   2.127   1.873   0.554  0.6598  3.5321 -0.6678
  525SOL    HW2 1575   2.114   1.900   0.379  0.7351 -2.7606 -2.6820
  526SOL     OW 1576   0.377   1.524   1.525  0.0639  0.2202 -0.4032
  526SOL    HW1 1577   0.323   1.483   1.605  1.5836  0.7830 -0.5276
  526SOL    HW2 1578   0.459   1.458   1.508  1.2857  1.9685  2.8461
  527SOL     OW 1579   1.142   2.891   1.169  0.4893  0.3978 -0.5313
  527SOL    HW1 1580   1.188   2.844   1.247  1.3064  1.1729  1.7088
  527SOL    HW2 1581   1.144   2.995   1.187 -1.6423 -0.5203 -0.7963
  528SOL     OW 1582   1.307   2.403   0.473 -0.2698 -0.0339  0.0140
  528SOL    HW1 1583   1.354   2.311   0.489 -0.8445  1.0781 -2.2555
  528SOL    HW2 1584   1.339   2.479   0.535 -1.9206  1.3273 -1.1668
  529SOL     OW 1585   1.900   1.746   0.703  0.3824  0.1436  0.0748
  529SOL    HW1 1586   1.841   1.752   0.618  0.6117  1.3619 -0.0216
  529SOL    HW2 1587   1.997   1.784   0.689  0.3780 -2.4749 -1.6432
  530SOL     OW 1588   0.346   2.484   0.220 -0.4178  0.7762  0.3852
  530SOL    HW1 1589   0.334   2.578   0.262  3.0696 -4.1830 -1.0133
  530SOL    HW2 1590   0.373   2.413   0.288  1.1765  2.4727  0.4373
  531SOL     OW 1591   1.896   0.806   0.939  0.3923 -0.4531  0.4177
  531SOL    HW1 1592   1.917   0.821   0.835  2.9575  2.0858 -1.7177
  531SOL    HW2 1593   1.809   0.844   0.972  0.2030 -0.4050  0.4218
  532SOL     OW 1594   0.456   1.107   0.734 -0.0633 -0.4418 -0.1024
  532SOL    HW1 1595   0.536   1.076   0.681  1.5522 -0.6754  0.9661
  532SOL    HW2 1596   0.409   1.040   0.798 -1.2317 -0.6327 -0.1652
  533SOL     OW 1597   1.711   0.016   2.573  0.7471  0.1754  0.0817
  533SOL    HW1 1598   1.802  -0.029   2.590 -0.0497  2.2318  1.0032
  533SOL    HW2 1599   1.689   0.094   2.634 -1.7464  0.2573  0.9303
  534SOL     OW 1600   0.365   0.228   1.493  0.4921  0.1993 -0.2110
  534SOL    HW1 1601   0.455   0.213   1.538  0.0276 -0.6174  1.4750
  534SOL    HW2 1602   0.332   0.325   1.477  0.7422 -0.1162 -0.7759
  535SOL     OW 1603   1.978   0.322   0.155  0.4677 -0.6186  0.1695
  535SOL    HW1 1604   1.982   0.406   0.222 -0.3841 -0.5800  4.0707
  535SOL    HW2 1605   1.959   0.238   0.211 -0.1618  0.8901  1.7740
  536SOL     OW 1606   1.377   2.602   0.967  0.5529  0.2053  0.4489
  536SOL    HW1 1607   1.325   2.551   1.050 -0.4896 -2.1091 -0.7850
  536SOL    HW2 1608   1.301   2.640   0.904  1.2914  0.2493  2.4345
  537SOL     OW 1609   0.889   0.235   2.339  0.0877 -0.4657 -0.0115
  537SOL    HW1 1610   0.914   0.269   2.246 -1.1179 -2.0716 -2.2365
  537SOL    HW2 1611   0.866   0.139   2.332  1.0377  0.2347  0.5239
  538SOL     OW 1612   1.631   2.369   1.406 -0.0810 -0.7921 -0.1168
  538SOL    HW1 1613   1.632   2.267   1.422  2.4345 -1.6434  1.5101
  538SOL    HW2 1614   1.713   2.416   1.444  0.8148  0.9607 -0.8381
  539SOL     OW 1615   0.195   1.586   2.672 -0.3264 -0.1325 -0.6431
  539SOL    HW1 1616   0.106   1.534   2.646 -2.2824 -2.1268  0.5472
  539SOL    HW2 1617   0.178   1.666   2.739  1.2330 -1.1107 -1.1689
  540SOL     OW 1618   2.664   1.753   1.953  0.6921  0.2734  0.1737
  540SOL    HW1 1619   2.622   1.661   1.973 -3.7842  0.3058 -1.8508
  540SOL    HW2 1620   2.603   1.831   1.951  0.9391  0.5480 -1.7118
  541SOL     OW 1621   0.477   2.140   3.063 -0.5354 -0.2164 -0.7624
  541SOL    HW1 1622   0.487   2.103   3.157  0.3089  0.0209 -2.4559
  541SOL    HW2 1623   0.382   2.133   3.024 -0.6312 -0.6744  0.3872
  542SOL     OW 1624   2.261   2.611   0.508 -0.0681 -0.3395 -0.8569
  542SOL    HW1 1625   2.228   2.683   0.573  0.0576 -0.6906 -1.4723
  542SOL    HW2 1626   2.184   2.543   0.498  0.6021 -0.5923 -0.2404
  543SOL     OW 1627   1.018   1.778   1.586 -0.8840  0.0499 -0.4715
  543SOL    HW1 1628   1.004   1.777   1.693 -1.4386 -0.0911  3.6702
  543SOL    HW2 1629   0.964   1.855   1.542 -1.8991  1.3794  0.1977
  544SOL     OW 1630   1.125   0.529   0.153  0.2566  0.0475  0.0148
  544SOL    HW1 1631   1.084   0.442   0.190 -1.4647  0.1895 -1.6679
  544SOL    HW2 1632   1.160   0.515   0.054  1.2349  2.9881 -2.7319
  545SOL     OW 1633   1.145   1.781   0.810  0.2564 -0.2870  0.0446
  545SOL    HW1 1634   1.243   1.792   0.769  1.4176  0.7987  0.4560
  545SOL    HW2 1635   1.114   1.685   0.825 -0.1535 -1.1253  2.1845
  546SOL     OW 1636   2.714   1.586   3.010  0.5906 -0.0961  0.5639
  546SOL    HW1 1637   2.690   1.681   2.976  0.2262 -0.3065 -3.0647
  546SOL    HW2 1638   2.628   1.532   3.025  3.0566  1.7001  1.0908
  547SOL     OW 1639   0.719   3.013   2.597  1.0539  0.4888  0.4760
  547SOL    HW1 1640   0.767   2.978   2.678 -0.3184  0.8790  1.3117
  547SOL    HW2 1641   0.659   2.937   2.544 -0.6945 -2.9944 -2.4435
  548SOL     OW 1642   2.034   0.805   3.065 -0.6311  0.3768  0.9406
  548SOL    HW1 1643   1.931   0.799   3.056  1.1806  1.5427 -2.0911
  548SOL    HW2 1644   2.070   0.894   3.098 -0.6499 -0.9135 -2.2112
  549SOL     OW 1645   0.661   0.519   0.184 -0.3290 -0.7930 -0.1094
  549SOL    HW1 1646   0.607   0.546   0.096 -0.7429 -0.7001 -0.4072
  549SOL    HW2 1647   0.734   0.591   0.210  1.2255  2.1302  0.6610
  550SOL     OW 1648   2.608   2.800   2.894  0.6259  0.4786 -0.1747
  550SOL    HW1 1649   2.540   2.729   2.937 -0.3633  0.6803  1.1037
  550SOL    HW2 1650   2.666   2.761   2.818 -1.4460 -0.2840 -0.4593
  551SOL     OW 1651   0.252   0.863   0.232 -0.7016 -0.0592  0.6576
  551SOL    HW1 1652   0.349   0.830   0.219 -1.5920 -1.9673  1.1941
  551SOL    HW2 1653   0.223   0.859   0.328  2.1807 -0.6286 -3.0115
  552SOL     OW 1654   0.618   3.036   1.916 -0.1177  0.6778 -0.0825
  552SOL    HW1 1655   0.628   3.107   1.988  0.9131 -1.0743  0.0249
  552SOL    HW2 1656   0.708   2.990   1.884 -1.5461 -0.8871 -0.8768
  553SOL     OW 1657   3.061   2.410   0.373  0.3955 -0.4781 -0.1599
  553SOL    HW1 1658   3.077   2.336   0.440 -0.3566 -0.2248  0.9426
  553SOL    HW2 1659   2.963   2.441   0.377  3.7163 -0.5566  1.1536
  554SOL     OW 1660   2.228   0.332   0.591  0.1634 -0.1838  0.3107
  554SOL    HW1 1661   2.278   0.362   0.507  0.1919 -2.3501  0.5817
  554SOL    HW2 1662   2.255   0.236   0.618 -0.3656 -0.3476  0.8414
  555SOL     OW 1663   0.468   2.815   2.489 -0.4391 -0.1107  0.7125
  555SOL    HW1 1664   0.382   2.858   2.453  1.5035 -0.1332  0.4124
  555SOL    HW2 1665   0.522   2.761   2.415  4.4982 -1.7166 -0.2718
  556SOL     OW 1666   0.846   2.361   1.594 -0.3163 -0.1808  0.1167
  556SOL    HW1 1667   0.872   2.405   1.681 -2.5102  0.5697 -1.3949
  556SOL    HW2 1668   0.908   2.395   1.514  0.2376 -1.4811 -0.2511
  557SOL     OW 1669   0.143   2.172   0.253 -1.0651  0.7540 -0.0004
  557SOL    HW1 1670   0.052   2.131   0.235 -0.1428  0.8689  1.7177
  557SOL    HW2 1671   0.173   2.224   0.174  0.1387 -1.5483  3.7126
  558SOL     OW 1672   2.830   2.187   0.397 -0.2878 -0.0939 -0.2677
  558SOL    HW1 1673   2.791   2.278   0.452 -0.5053  0.6655 -0.2757
  558SOL    HW2 1674   2.785   2.170   0.301 -2.5414 -2.3766  0.1066
  559SOL     OW 1675   0.439   2.271   1.445  0.0314  0.3222 -0.3652
  559SOL    HW1 1676   0.340   2.234   1.453  1.3134  1.1341 -2.4913
  559SOL    HW2 1677   0.494   2.220   1.374 -0.9032 -3.2960 -1.2555
  560SOL     OW 1678   2.174   1.048   0.025 -0.1131  0.3772  0.4049
  560SOL    HW1 1679   2.228   1.093   0.100  0.8338  3.2119 -0.4799
  560SOL    HW2 1680   2.226   0.995  -0.043 -1.7554 -0.9841  1.5545
  561SOL     OW 1681   3.032   1.992   0.146 -0.5216 -0.0321 -0.5723
  561SOL    HW1 1682   2.999   1.903   0.194 -0.8888 -0.8567  1.3027
  561SOL    HW2 1683   2.969   2.029   0.070  1.5195  0.9093 -1.9973
  562SOL     OW 1684   1.021   2.092   2.287  0.0433  0.2834  0.2076
  562SOL    HW1 1685   1.008   2.178   2.343  0.1778  3.2534 -2.1264
  562SOL    HW2 1686   0.959   2.010   2.318  2.4106 -0.2458  1.8887
  563SOL     OW 1687   0.666   2.514   2.643  0.0724 -1.0007 -0.2025
  563SOL    HW1 1688   0.745   2.443   2.625  3.1473 -0.3666 -1.4035
  563SOL    HW2 1689   0.667   2.559   2.737  0.6059  0.1331 -0.0558
  564SOL     OW 1690   2.874   1.412   2.885 -0.0869 -0.7574  0.5114
  564SOL    HW1 1691   2.799   1.476   2.928 -0.0531 -2.4172 -0.4664
  564SOL    HW2 1692   2.954   1.464   2.845  2.0828 -1.0675  1.0203
  565SOL     OW 1693   2.495   1.946   2.643  0.2901 -0.0869 -0.1755
  565SOL    HW1 1694   2.459   2.045   2.639  3.5662  3.2073  0.3372
  565SOL    HW2 1695   2.591   1.935   2.689  1.1376 -1.4196  1.3908
  566SOL     OW 1696   2.014   2.924   1.503  0.4084  0.0442  1.0075
  566SOL    HW1 1697   2.002   2.825   1.515  1.5594 -0.7757  1.0521
  566SOL    HW2 1698   2.066   2.943   1.418  1.6403  2.4231  0.6188
  567SOL     OW 1699   2.371   0.044   2.301  0.4478 -0.1106  0.1222
  567SOL    HW1 1700   2.277   0.063   2.338  0.4963  1.0355 -2.4060
  567SOL    HW2 1701   2.368   0.054   2.195 -1.0686 -0.1437 -1.0349
  568SOL     OW 1702   1.477   1.753   0.193 -0.1732 -0.3465 -0.1936
  568SOL    HW1 1703   1.415   1.839   0.184 -0.4051  0.4869 -1.8883
  568SOL    HW2 1704   1.575   1.782   0.227  1.3875 -0.5035 -3.3743
  569SOL     OW 1705   0.225   0.531   0.844 -1.2985 -0.2757 -0.5291
  569SOL    HW1 1706   0.228   0.463   0.766 -0.3950  0.5281  2.7143
  569SOL    HW2 1707   0.127   0.563   0.859 -0.8115  3.3728 -0.7528
  570SOL     OW 1708   0.656   0.830   2.915 -0.1493 -0.5548 -0.2176
  570SOL    HW1 1709   0.683   0.886   2.834  0.7310  0.0966  1.3334
  570SOL    HW2 1710   0.631   0.892   2.999 -1.6734 -0.4314  1.5662
  571SOL     OW 1711   0.813   3.031   1.087 -0.2150  0.0710  0.4063
  571SOL    HW1 1712   0.884   3.094   1.044 -1.8458  2.5729  0.9858
  571SOL    HW2 1713   0.837   2.931   1.063  1.1062 -0.6611  4.2859
  572SOL     OW 1714   1.666   2.737   1.411  0.1484 -0.5122 -0.5672
  572SOL    HW1 1715   1.647   2.684   1.325  0.7287  2.0769  0.9180
  572SOL    HW2 1716   1.673   2.840   1.399 -2.1304  1.4776  1.5694
  573SOL     OW 1717   3.039   0.473   1.952  0.4268 -0.1635 -0.3984
  573SOL    HW1 1718   2.961   0.402   1.956 -2.4134 -1.5158 -1.7553
  573SOL    HW2 1719   3.101   0.457   1.874  1.6055  0.1722 -0.1985
  574SOL     OW 1720   0.113   1.686   1.108 -0.0036 -0.0469 -0.0582
  574SOL    HW1 1721   0.156   1.672   1.203 -0.2127  1.0450  1.8689
  574SOL    HW2 1722   0.064   1.778   1.095 -3.5468 -3.3750 -0.4831
  575SOL     OW 1723   0.840   2.295   0.932  0.1331  0.6974 -0.6557
  575SOL    HW1 1724   0.821   2.351   1.021 -1.1188  3.6778 -0.2685
  575SOL    HW2 1725   0.829   2.357   0.849 -2.0619 -1.5811  0.8488
  576SOL     OW 1726   2.936   3.036   1.671  0.0368 -0.1679  0.2552
  576SOL    HW1 1727   2.831   3.046   1.648 -3.0698  2.7558 -0.3002
  576SOL    HW2 1728   2.986   3.125   1.665  0.4248 -1.5426  0.0098
  577SOL     OW 1729   2.651   1.197   3.061 -0.2722  0.2790 -0.0201
  577SOL    HW1 1730   2.669   1.118   3.001 -3.7537  1.5169 -1.4827
  577SOL    HW2 1731   2.679   1.186   3.159  0.3166  2.4286  0.4008
  578SOL     OW 1732   1.365   2.724   2.558 -0.1984  0.5608 -0.2594
  578SOL    HW1 1733   1.272   2.764   2.531  0.5416 -0.6260  1.7596
  578SOL    HW2 1734   1.442   2.778   2.515  0.5680  0.4034 -0.2014
  579SOL     OW 1735   0.075   2.459   0.129 -0.2720  0.3749  0.3484
  579SOL    HW1 1736   0.032   2.438   0.227 -1.5580 -0.4399  2.7178
  579SOL    HW2 1737   0.177   2.444   0.132  0.8690  0.3089 -1.5993
  580SOL     OW 1738   0.976   2.694   0.344  0.3239  0.2088 -0.0601
  580SOL    HW1 1739   1.057   2.700   0.281 -1.6440  0.3627 -0.5816
  580SOL    HW2 1740   0.890   2.740   0.307  0.3503  1.2319  2.2922
  581SOL     OW 1741   1.281   2.714   1.412  0.0544  0.2166 -0.7082
  581SOL    HW1 1742   1.331   2.621   1.438 -0.5851  0.4537  1.7938
  581SOL    HW2 1743   1.347   2.788   1.378 -0.8331 -0.2763 -2.1002
  582SOL     OW 1744   1.425   0.098   1.843 -0.6470  0.6086 -0.1559
  582SOL    HW1 1745   1.466   0.181   1.892 -0.6723 -2.2824  1.4562
  582SOL    HW2 1746   1.491   0.066   1.767 -0.6352  0.6340 -1.2364
  583SOL     OW 1747   2.490   2.987   0.489  0.2364  0.0126  0.4003
  583SOL    HW1 1748   2.554   2.938   0.427  1.5803 -1.1694  0.3979
  583SOL    HW2 1749   2.454   2.918   0.556  0.9847  2.1334  1.0869
  584SOL     OW 1750   1.484   1.041   2.273 -0.7619 -0.3866 -0.1782
  584SOL    HW1 1751   1.510   1.141   2.275 -1.4232 -0.4678  2.0362
  584SOL    HW2 1752   1.557   0.970   2.280  1.4016  0.6764 -1.2043
  585SOL     OW 1753   2.052   2.665   2.873  0.1973 -0.2802 -0.5095
  585SOL    HW1 1754   2.088   2.568   2.870  1.1249 -1.4183  0.3518
  585SOL    HW2 1755   1.948   2.656   2.871  0.4748  1.8329 -0.3776
  586SOL     OW 1756   2.876   0.390   1.599 -0.8952 -0.2371  0.5393
  586SOL    HW1 1757   2.859   0.483   1.652  0.1094  3.2095  2.9325
  586SOL    HW2 1758   2.805   0.317   1.612  2.4671  1.3034 -3.8109
  587SOL     OW 1759   2.155   1.475   2.752 -0.8563  0.0571 -0.7181
  587SOL    HW1 1760   2.140   1.414   2.666 -0.0555 -1.3198  0.2105
  587SOL    HW2 1761   2.260   1.490   2.769  2.2796  1.0022  0.0833
  588SOL     OW 1762   0.445   2.643   2.238 -0.6379  0.1495 -0.9820
  588SOL    HW1 1763   0.424   2.725   2.177 -0.6512  2.4904 -2.1416
  588SOL    HW2 1764   0.386   2.565   2.213  1.5147  3.2697  0.5213
  589SOL     OW 1765   2.162   1.377   2.485 -0.2540  0.2811 -0.3875
  589SOL    HW1 1766   2.104   1.325   2.419  1.3363 -2.3947  1.1251
  589SOL    HW2 1767   2.262   1.338   2.487  0.6182 -2.1726  0.1734
  590SOL     OW 1768   2.332   1.673   2.047 -0.3253  0.2244 -0.0454
  590SOL    HW1 1769   2.413   1.610   2.031 -0.8478 -1.7192 -3.6325
  590SOL    HW2 1770   2.324   1.706   2.143  0.8633  1.7103 -0.8597
  591SOL     OW 1771   1.282   2.409   0.210 -0.2164  0.5316  0.0550
  591SOL    HW1 1772   1.321   2.322   0.178  1.7317  1.9905  0.1488
  591SOL    HW2 1773   1.277   2.412   0.318 -2.4406  0.0625  0.0151
  592SOL     OW 1774   1.796   2.342   0.786 -0.4752 -0.1581 -0.1027
  592SOL    HW1 1775   1.778   2.381   0.692  1.0390  0.9427 -1.5223
  592SOL    HW2 1776   1.898   2.335   0.818  2.7986 -4.2465 -1.3904
  593SOL     OW 1777   0.779   0.272   0.206  0.9053 -0.9922  0.6477
  593SOL    HW1 1778   0.799   0.238   0.109  0.5267 -1.7564  1.5561
  593SOL    HW2 1779   0.736   0.368   0.207 -0.6578 -0.8986  0.1635
  594SOL     OW 1780   0.979   1.811   2.678 -1.1373 -0.4904  0.7498
  594SOL    HW1 1781   1.077   1.796   2.654 -0.9673  0.3934 -0.5227
  594SOL    HW2 1782   0.969   1.869   2.759 -0.3236  1.6853  1.0316
  595SOL     OW 1783   1.576   0.116   1.010 -0.1886 -0.4427  0.4245
  595SOL    HW1 1784   1.655   0.053   1.028  0.9585  1.8095 -0.8712
  595SOL    HW2 1785   1.498   0.081   0.951  0.3942 -2.4154 -0.0538
  596SOL     OW 1786   0.229   1.487   2.171  0.7289  0.5862  0.4518
  596SOL    HW1 1787   0.185   1.396   2.204 -4.2555  0.3056  1.1244
  596SOL    HW2 1788   0.244   1.554   2.252  2.1846 -2.5212 -0.5384
  597SOL     OW 1789   1.952   2.700   1.817  0.1218 -0.2241 -0.1617
  597SOL    HW1 1790   1.939   2.697   1.717  0.2314  2.4515  0.1188
  597SOL    HW2 1791   2.037   2.648   1.847 -0.3412 -0.2211  0.3328
  598SOL     OW 1792   2.530   2.773   1.237  0.1064 -0.2332  0.2749
  598SOL    HW1 1793   2.632   2.765   1.255  0.7396 -1.1218  0.6532
  598SOL    HW2 1794   2.480   2.684   1.236 -0.3604 -0.0316  1.1459
  599SOL     OW 1795   2.892   0.313   2.508 -0.0053 -0.0178 -0.0858
  599SOL    HW1 1796   2.980   0.302   2.457 -3.3671  0.5875  0.9848
  599SOL    HW2 1797   2.818   0.369   2.461  3.5965  0.3239 -1.4498
  600SOL     OW 1798   2.740   1.209   2.734 -0.3281 -0.0927  0.1503
  600SOL    HW1 1799   2.650   1.176   2.775  0.2382 -0.6280 -0.5881
  600SOL    HW2 1800   2.792   1.278   2.795  0.4674  2.3189 -1.2381
  601SOL     OW 1801   3.038   1.379   1.891 -0.1116  0.1182 -0.3232
  601SOL    HW1 1802   2.952   1.411   1.840  0.3508  2.2444  1.2470
  601SOL    HW2 1803   3.108   1.456   1.887 -0.1217  0.4507  1.1343
  602SOL     OW 1804   1.491   1.588   2.364 -0.2919  0.0215 -0.0069
  602SOL    HW1 1805   1.399   1.577   2.407  1.7999 -0.3792 -0.5879
  602SOL    HW2 1806   1.562   1.613   2.440 -0.2202 -5.1132  2.3483
  603SOL     OW 1807   0.575   1.163   2.752  0.0790 -0.1678  0.2405
  603SOL    HW1 1808   0.505   1.197   2.681  0.6373  0.1532  3.1128
  603SOL    HW2 1809   0.606   1.067   2.727  0.8661 -0.8679  0.8383
  604SOL     OW 1810   2.523   0.997   0.266  0.1880  0.0894 -0.3637
  604SOL    HW1 1811   2.615   1.041   0.235  0.2134  1.7171  1.0608
  604SOL    HW2 1812   2.471   0.942   0.191  1.2402  0.5013 -0.3984
  605SOL     OW 1813   2.571   1.180   1.914 -0.3389 -0.5990 -0.3407
  605SOL    HW1 1814   2.591   1.086   1.877 -2.3464 -1.7995  0.7090
  605SOL    HW2 1815   2.597   1.189   2.013 -2.2655  0.7370  0.8903
  606SOL     OW 1816   1.479   2.462   2.551 -0.6029  0.1416 -0.5066
  606SOL    HW1 1817   1.403   2.530   2.553 -2.7451 -2.8084  2.1754
  606SOL    HW2 1818   1.450   2.360   2.551  1.1598  1.1184  0.7446
  607SOL     OW 1819   1.271   1.577   0.260  0.1566  0.9869 -0.0847
  607SOL    HW1 1820   1.226   1.638   0.327 -1.3719  1.3168  0.0669
  607SOL    HW2 1821   1.358   1.622   0.234  1.3004 -1.0343 -1.5843
  608SOL     OW 1822   1.449   2.851   0.348  0.1858  0.2986  0.5399
  608SOL    HW1 1823   1.490   2.876   0.253 -0.7845 -0.4356 -0.6173
  608SOL    HW2 1824   1.389   2.925   0.387  0.7912  2.8984 -0.9475
  609SOL     OW 1825   1.260   1.307   0.192 -0.5772 -0.1663  0.2206
  609SOL    HW1 1826   1.270   1.398   0.237  2.0723  1.6204  1.2522
  609SOL    HW2 1827   1.247   1.315   0.089  0.9509 -2.9871 -0.3845
  610SOL     OW 1828   3.089   1.230   2.113 -0.7687 -0.6302 -0.6732
  610SOL    HW1 1829   3.035   1.144   2.128  2.2682  2.6615  3.1326
  610SOL    HW2 1830   3.068   1.289   2.029  2.0132 -1.2127 -0.5226
  611SOL     OW 1831   2.574   0.180   1.171  0.6474  0.2623  0.0217
  611SOL    HW1 1832   2.531   0.087   1.184 -0.4505 -0.1763  0.7026
  611SOL    HW2 1833   2.647   0.199   1.245  3.4467 -2.1002  0.7586
  612SOL     OW 1834   0.754   2.383   1.205 -0.0558  0.3778 -0.8006
  612SOL    HW1 1835   0.704   2.292   1.219  1.6802  0.9253 -3.0678
  612SOL    HW2 1836   0.683   2.459   1.201 -1.6641 -2.0371  1.7843
  613SOL     OW 1837   0.788   1.359   2.388  0.0862 -0.7384 -0.2204
  613SOL    HW1 1838   0.801   1.447   2.334  1.3878 -1.1109  0.8297
  613SOL    HW2 1839   0.767   1.275   2.330  1.4602  0.2955 -1.2810
  614SOL     OW 1840   1.507   1.678   1.960  0.0330  0.2384 -0.2771
  614SOL    HW1 1841   1.503   1.739   1.879  0.6061 -1.7501  2.8943
  614SOL    HW2 1842   1.581   1.715   2.030 -0.3610  1.7884  1.5821
  615SOL     OW 1843   0.715   1.440   1.692  0.3075  0.0319 -0.3668
  615SOL    HW1 1844   0.645   1.408   1.616  0.5471 -0.0537 -2.2256
  615SOL    HW2 1845   0.806   1.456   1.651 -0.2451 -2.7096  4.2100
  616SOL     OW 1846   1.094   1.638   2.186  0.1383  0.4648 -0.8929
  616SOL    HW1 1847   0.998   1.603   2.192 -0.3856  0.0053 -1.8929
  616SOL    HW2 1848   1.148   1.607   2.108 -1.4848  0.7018 -0.4248
  617SOL     OW 1849   2.909   1.565   1.587  0.3430  0.0700  0.4879
  617SOL    HW1 1850   2.874   1.520   1.676  1.4995  0.4338  0.8671
  617SOL    HW2 1851   2.941   1.499   1.513 -0.6790 -2.1681  0.7412
  618SOL     OW 1852   1.874   2.003   1.526 -0.0337  0.8414  0.5723
  618SOL    HW1 1853   1.947   2.011   1.449  2.8112 -0.8117 -0.0477
  618SOL    HW2 1854   1.866   1.910   1.564 -0.6937  2.4349 -0.6026
  619SOL     OW 1855   1.785   0.517   2.402  0.3191 -0.4492  0.1872
  619SOL    HW1 1856   1.698   0.563   2.361 -3.2684 -1.3664  1.3725
  619SOL    HW2 1857   1.768   0.411   2.415  1.4832 -1.9503  0.2083
  620SOL     OW 1858   2.233   2.835   0.669  0.1422  0.0529  1.0659
  620SOL    HW1 1859   2.135   2.846   0.706 -1.3065 -1.3194  0.4459
  620SOL    HW2 1860   2.302   2.831   0.748 -0.5744 -0.3328 -1.2554
  621SOL     OW 1861   2.125   1.929   1.348  0.0585  0.3265 -0.3488
  621SOL    HW1 1862   2.146   1.931   1.446 -0.0010 -0.6897 -2.2878
  621SOL    HW2 1863   2.130   1.836   1.314 -1.6900 -0.2655  1.6057
  622SOL     OW 1864   2.193   0.940   1.740 -0.2451 -0.4704 -0.1904
  622SOL    HW1 1865   2.285   0.892   1.745 -4.7005 -1.5831  1.8543
  622SOL    HW2 1866   2.130   0.912   1.814  0.1846 -1.0665 -1.0839
  623SOL     OW 1867   1.283   0.903   2.539  0.0062 -0.5883 -0.0635
  623SOL    HW1 1868   1.215   0.859   2.605 -1.6210 -0.0029  1.1104
  623SOL    HW2 1869   1.271   0.878   2.435  1.5379 -1.9135 -0.8826
  624SOL     OW 1870   0.554   0.635   3.078 -0.6780 -0.1642  0.4951
  624SOL    HW1 1871   0.609   0.696   3.003  1.3848  0.4159 -0.1413
  624SOL    HW2 1872   0.510   0.697   3.158 -0.5323  1.8716  2.5101
  625SOL     OW 1873   2.818   1.801   0.834  0.7476 -0.3712 -0.6451
  625SOL    HW1 1874   2.804   1.845   0.927 -1.4697 -0.1252  0.0120
  625SOL    HW2 1875   2.731   1.752   0.809  0.6870  0.1612  1.2675
  626SOL     OW 1876   0.462   2.838   2.025  0.0553 -0.2795 -0.3952
  626SOL    HW1 1877   0.516   2.920   1.993  0.0960 -2.0244 -1.7913
  626SOL    HW2 1878   0.389   2.819   1.956  1.8360  1.6901  0.0227
  627SOL     OW 1879   0.705   0.958   1.557  0.0555 -0.5129  0.5037
  627SOL    HW1 1880   0.760   0.871   1.553 -2.2549  2.6491  0.6964
  627SOL    HW2 1881   0.757   1.040   1.507  1.2933  1.6736  0.1641
  628SOL     OW 1882   2.446   0.122   0.663 -0.5775  0.0186 -0.3182
  628SOL    HW1 1883   2.470   0.043   0.596  2.5107 -1.3193 -1.3623
  628SOL    HW2 1884   2.359   0.111   0.720 -0.6380  0.0108 -0.6299
  629SOL     OW 1885   2.024   0.955   1.973  0.1787 -0.3825 -0.2976
  629SOL    HW1 1886   2.060   0.969   2.068  0.1984 -0.4565  0.9284
  629SOL    HW2 1887   1.965   1.039   1.943  1.6239  2.3544  0.2072
  630SOL     OW 1888   2.827   2.238   0.791  0.7653  0.4189  0.5064
  630SOL    HW1 1889   2.752   2.308   0.827 -3.6043  4.1845  0.3074
  630SOL    HW2 1890   2.788   2.166   0.725  0.8440  1.3969 -0.6179
  631SOL     OW 1891   3.044   0.204   2.136  0.2670  0.1554  0.3995
  631SOL    HW1 1892   3.092   0.257   2.210  1.0557 -1.4894  1.9751
  631SOL    HW2 1893   3.101   0.192   2.053 -0.0971  1.7819 -0.6414
  632SOL     OW 1894   2.414   2.526   0.732 -0.1227  0.3051 -0.1101
  632SOL    HW1 1895   2.488   2.579   0.774 -2.3204 -1.6440 -0.9682
  632SOL    HW2 1896   2.396   2.561   0.633  2.5842 -0.2729 -2.9155
  633SOL     OW 1897   1.550   1.233   2.728  0.2395 -0.0570 -0.4384
  633SOL    HW1 1898   1.530   1.315   2.786 -2.6533 -0.6697 -3.3384
  633SOL    HW2 1899   1.480   1.217   2.654  2.6330  0.0127 -0.2728
  634SOL     OW 1900   0.695   2.080   0.871  0.0240 -0.2370  0.1705
  634SOL    HW1 1901   0.610   2.077   0.924  3.3291 -1.3343  0.2318
  634SOL    HW2 1902   0.753   2.162   0.905  0.1793 -0.4044  0.3645
  635SOL     OW 1903   3.072   2.256   3.047 -0.4698 -0.1895  0.5329
  635SOL    HW1 1904   3.012   2.292   2.973 -1.2289 -1.6393 -1.7386
  635SOL    HW2 1905   3.105   2.333   3.108  0.1065  1.9232 -0.0992
  636SOL     OW 1906   2.330   2.815   1.961 -0.3870 -0.1741 -0.1072
  636SOL    HW1 1907   2.359   2.915   1.972  1.4757  0.8046 -0.6959
  636SOL    HW2 1908   2.272   2.784   2.040 -0.5161 -0.2001 -2.2735
  637SOL     OW 1909   2.557   0.737   2.082  0.1434 -0.0373 -0.1680
  637SOL    HW1 1910   2.521   0.720   1.983 -2.1415  0.2871  0.4509
  637SOL    HW2 1911   2.631   0.810   2.093  0.7213  0.1149  2.0085
  638SOL     OW 1912   2.422   1.925   1.353  0.0246 -0.6376 -0.0010
  638SOL    HW1 1913   2.325   1.940   1.325  0.5417  1.2766  0.2373
  638SOL    HW2 1914   2.452   1.820   1.360 -0.6995 -0.9586 -1.8000
  639SOL     OW 1915   1.280   2.256   1.624 -0.3607 -0.2260  0.6882
  639SOL    HW1 1916   1.258   2.198   1.542 -0.7088 -1.1959 -0.8782
  639SOL    HW2 1917   1.228   2.218   1.708 -0.4964 -1.8517  0.9278
  640SOL     OW 1918   0.253   1.155   1.544 -0.4338 -0.6892  0.2138
  640SOL    HW1 1919   0.277   1.216   1.624 -0.4957  2.2486 -0.2916
  640SOL    HW2 1920   0.336   1.116   1.495 -0.3346  2.1235 -0.4300
  641SOL     OW 1921   1.873   0.318   1.437 -0.0069 -0.0889 -0.2795
  641SOL    HW1 1922   1.814   0.394   1.466  0.9089 -1.8685  0.1820
  641SOL    HW2 1923   1.839   0.228   1.481 -1.1953  1.1483 -0.6204
  642SOL     OW 1924   1.982   0.091   0.322 -0.0285 -0.0193  0.2409
  642SOL    HW1 1925   2.085   0.070   0.324  0.9506 -0.5178  0.3184
  642SOL    HW2 1926   1.946   0.136   0.411  0.9132 -1.6670 -0.3640
  643SOL     OW 1927   2.857   1.884   2.110  0.3623 -0.1267 -0.1637
  643SOL    HW1 1928   2.808   1.825   2.038 -0.8780 -0.1619  0.3877
  643SOL    HW2 1929   2.856   1.982   2.076  0.8333  0.9981  2.2428
  644SOL     OW 1930   2.212   2.266   1.153 -0.2137 -0.4497  0.0303
  644SOL    HW1 1931   2.285   2.202   1.110  1.3458  0.6895 -4.6914
  644SOL    HW2 1932   2.198   2.251   1.256 -1.7452  0.2106  0.8959
  645SOL     OW 1933   0.660   0.881   1.123 -0.6150  0.2694  0.5985
  645SOL    HW1 1934   0.563   0.846   1.123 -1.6680 -0.8101 -3.0983
  645SOL    HW2 1935   0.655   0.984   1.094 -3.2207  3.2214  2.7306
  646SOL     OW 1936   1.459   1.929   1.776  0.0896  0.4284  0.4554
  646SOL    HW1 1937   1.543   1.990   1.768 -0.1552 -2.5020 -2.2174
  646SOL    HW2 1938   1.398   1.963   1.856 -3.1972 -2.3184  0.4666
  647SOL     OW 1939   0.864   0.861   0.676  0.0504 -0.2711  0.0341
  647SOL    HW1 1940   0.926   0.877   0.755  0.0244 -0.9757 -3.3088
  647SOL    HW2 1941   0.768   0.832   0.710 -0.6006 -1.4652 -0.6457
  648SOL     OW 1942   0.046   0.218   0.350  0.3949 -0.4856 -0.0626
  648SOL    HW1 1943   0.010   0.136   0.306  0.5603  1.1101  0.3754
  648SOL    HW2 1944   0.045   0.304   0.286  1.4953  0.8759  1.3090
  649SOL     OW 1945   0.035   0.052   0.995 -0.8370 -0.0348 -0.4508
  649SOL    HW1 1946   0.124   0.008   0.966  0.0520 -0.9222 -0.6941
  649SOL    HW2 1947   0.027   0.093   1.090 -1.8659  0.7098  1.8801
  650SOL     OW 1948   2.719   0.701   1.463 -0.4698 -0.1966  0.1068
  650SOL    HW1 1949   2.620   0.671   1.486 -3.8016  2.7488  1.6767
  650SOL    HW2 1950   2.720   0.796   1.419 -0.3904  0.7047 -1.3058
  651SOL     OW 1951   0.920   1.563   1.467  0.2037 -0.8817  0.0993
  651SOL    HW1 1952   0.969   1.628   1.535  1.7771 -4.5345 -1.4405
  651SOL    HW2 1953   0.820   1.588   1.446 -1.0640  1.8345 -2.0765
  652SOL     OW 1954   2.230   2.541   2.374 -0.6895  0.6500 -0.0327
  652SOL    HW1 1955   2.150   2.521   2.443 -5.3787  2.2298  2.9304
  652SOL    HW2 1956   2.212   2.621   2.313 -2.3862 -0.9141 -0.3167
  653SOL     OW 1957   2.764   1.124   0.204 -0.7663 -0.0157  0.0516
  653SOL    HW1 1958   2.827   1.199   0.165 -2.8394 -1.0880 -0.1541
  653SOL    HW2 1959   2.809   1.044   0.245  2.2223 -1.1231  1.0374
  654SOL     OW 1960   1.214   2.235   1.231  0.0992  0.0192  0.7016
  654SOL    HW1 1961   1.213   2.153   1.298  1.1949 -0.0059  1.1845
  654SOL    HW2 1962   1.277   2.208   1.152 -0.6484  2.0242 -0.5275
  655SOL     OW 1963   0.225   1.034   1.919 -0.3616 -0.1546  0.0677
  655SOL    HW1 1964   0.275   0.997   1.835  0.2517  0.1174 -1.0786
  655SOL    HW2 1965   0.283   1.104   1.964  1.9828  2.4774  0.4989
  656SOL     OW 1966   2.439   2.465   2.533  0.0378  0.7952 -0.0307
  656SOL    HW1 1967   2.513   2.535   2.543  3.0697 -2.5986  0.3234
  656SOL    HW2 1968   2.360   2.494   2.466 -1.2227 -1.5230 -0.7430
  657SOL     OW 1969   3.042   1.096   1.844 -0.2646 -0.1353 -0.4069
  657SOL    HW1 1970   3.020   1.194   1.863  0.5258 -1.0980 -2.1015
  657SOL    HW2 1971   3.141   1.075   1.864 -0.4046 -1.4067 -0.6535
  658SOL     OW 1972   1.735   0.255   2.400  0.0491  0.1588  0.0515
  658SOL    HW1 1973   1.735   0.165   2.458 -1.1794  2.7924 -1.6037
  658SOL    HW2 1974   1.755   0.228   2.302  0.6755  1.3082 -2.8636
  659SOL     OW 1975   1.440   0.611   2.804  0.1229  0.3399 -0.0083
  659SOL    HW1 1976   1.475   0.692   2.859  1.6205 -0.0192 -0.8460
  659SOL    HW2 1977   1.354   0.641   2.756  1.4014 -0.6754  1.1905
  660SOL     OW 1978   1.359   0.395   1.421 -0.0395 -0.0464 -0.3456
  660SOL    HW1 1979   1.394   0.430   1.509  1.0349  0.0322  0.2871
  660SOL    HW2 1980   1.429   0.331   1.370  2.4498 -1.6320 -1.1089
  661SOL     OW 1981   2.422   1.135   0.625 -0.2266 -0.2718 -0.0267
  661SOL    HW1 1982   2.474   1.067   0.566  0.3954 -0.7361  1.4914
  661SOL    HW2 1983   2.349   1.190   0.574  1.7298 -0.3613  0.2962
  662SOL     OW 1984   1.303   0.450   1.873  0.3442  0.4067  0.3338
  662SOL    HW1 1985   1.255   0.363   1.857 -0.2834  2.2181  1.4330
  662SOL    HW2 1986   1.288   0.468   1.971  2.9711  0.1060 -2.0862
  663SOL     OW 1987   0.833   1.561   2.225 -0.3504 -0.3049 -0.5949
  663SOL    HW1 1988   0.786   1.653   2.243 -0.7229  5.4531  0.5809
  663SOL    HW2 1989   0.802   1.509   2.139 -2.1933  0.0930 -1.2016
  664SOL     OW 1990   1.594   2.090   1.422 -0.1397  0.0698  0.0204
  664SOL    HW1 1991   1.523   2.031   1.463  0.4877  2.1609  0.2366
  664SOL    HW2 1992   1.689   2.072   1.465 -0.6354  1.3931  2.2854
  665SOL     OW 1993   2.201   0.615   1.989 -0.7310  0.5843  0.8117
  665SOL    HW1 1994   2.244   0.566   2.069 -1.9380 -0.1448 -0.3998
  665SOL    HW2 1995   2.150   0.698   2.017 -2.4849 -0.8765 -1.9809
  666SOL     OW 1996   0.567   2.237   0.445  0.6518  0.4076 -0.3978
  666SOL    HW1 1997   0.631   2.316   0.434  0.7565 -2.6402 -1.7767
  666SOL    HW2 1998   0.494   2.243   0.522 -0.8698  0.2112  0.1178
  667SOL     OW 1999   2.077   0.219   1.013  0.2422 -0.4569  0.5924
  667SOL    HW1 2000   2.129   0.309   1.034  2.9137  2.7428 -1.3923
  667SOL    HW2 2001   1.986   0.227   1.058  2.7208  0.5659  1.0658
  668SOL     OW 2002   2.035   0.589   1.256 -1.1573 -0.6487  0.1325
  668SOL    HW1 2003   2.072   0.576   1.156  1.5025  0.8985 -1.6000
  668SOL    HW2 2004   2.083   0.522   1.316  0.2337  0.4725 -0.5787
  669SOL     OW 2005   3.031   2.265   0.974  0.3612  0.8212 -0.3829
  669SOL    HW1 2006   2.953   2.235   0.909 -1.4406 -1.9744  2.3188
  669SOL    HW2 2007   3.012   2.230   1.074  0.1361 -0.9096  2.5616
  670SOL     OW 2008   2.810   2.381   2.024 -0.1633  0.1503 -0.1552
  670SOL    HW1 2009   2.754   2.381   2.115 -1.5935  1.6082  0.7880
  670SOL    HW2 2010   2.785   2.459   1.960  1.7287  0.1575  0.9869
  671SOL     OW 2011   1.666   1.762   1.460 -1.0820 -0.2752 -0.0250
  671SOL    HW1 2012   1.685   1.762   1.359  1.5865  1.2691 -2.1092
  671SOL    HW2 2013   1.568   1.775   1.474  0.9469 -2.2332 -0.2844
  672SOL     OW 2014   0.420   0.674   2.437  0.3204  0.7854  0.4813
  672SOL    HW1 2015   0.441   0.721   2.344  0.1865 -1.1570 -1.8085
  672SOL    HW2 2016   0.346   0.723   2.491 -2.9602  1.4322  1.9224
  673SOL     OW 2017   0.123   1.233   1.130  0.0624 -0.5180  0.4425
  673SOL    HW1 2018   0.135   1.290   1.221 -0.7623  2.6742 -1.1157
  673SOL    HW2 2019   0.212   1.189   1.096  0.3150  0.1651  1.6245
  674SOL     OW 2020   1.602   2.946   0.129  0.2649  0.1887 -0.4030
  674SOL    HW1 2021   1.615   3.046   0.115 -0.0856 -2.9685 -1.0081
  674SOL    HW2 2022   1.671   2.885   0.079  0.3437 -0.1035 -1.7227
  675SOL     OW 2023   1.719   0.868   2.343  0.7131 -0.3344 -0.7723
  675SOL    HW1 2024   1.820   0.855   2.337  0.6117  0.5211  1.5361
  675SOL    HW2 2025   1.673   0.781   2.307  1.8873  0.9948  0.1995
  676SOL     OW 2026   2.534   1.506   1.979 -0.0049  0.1581 -0.1866
  676SOL    HW1 2027   2.479   1.495   1.888 -2.1992  2.1094 -0.3037
  676SOL    HW2 2028   2.549   1.419   2.033 -1.0734 -0.0549 -0.3095
  677SOL     OW 2029   1.935   0.535   0.951 -0.3818  0.5116  0.1948
  677SOL    HW1 2030   1.913   0.633   0.952 -0.9637 -3.3619 -0.8790
  677SOL    HW2 2031   1.891   0.472   1.024  0.0921 -1.0750 -2.7184
  678SOL     OW 2032   0.077   0.712   1.702  0.4625  0.1557  0.1857
  678SOL    HW1 2033   0.166   0.768   1.717  0.8730  1.7180  2.3125
  678SOL    HW2 2034   0.001   0.743   1.770 -0.7935 -2.5198  3.7497
  679SOL     OW 2035   2.503   1.125   1.141  0.1980 -0.4338 -0.1021
  679SOL    HW1 2036   2.403   1.135   1.163  1.8152 -3.0853 -2.2410
  679SOL    HW2 2037   2.528   1.030   1.110  1.0691 -0.3855 -0.5217
  680SOL     OW 2038   2.847   0.643   1.699 -0.4273  0.4054  0.3515
  680SOL    HW1 2039   2.822   0.662   1.603  0.3936  0.1286  2.4390
  680SOL    HW2 2040   2.889   0.728   1.745 -0.1567  0.2764 -3.1309
  681SOL     OW 2041   3.076   0.193   1.658  0.7182 -0.0004  0.5765
  681SOL    HW1 2042   3.130   0.174   1.571 -0.9071 -1.6607  0.1463
  681SOL    HW2 2043   3.011   0.277   1.651 -1.2583  2.3247 -0.8483
  682SOL     OW 2044   0.734   3.068   1.371  0.1030 -0.2117  0.1600
  682SOL    HW1 2045   0.660   3.007   1.420  0.4591  0.5547  2.1589
  682SOL    HW2 2046   0.771   3.034   1.277  0.0733  3.1670  0.6449
  683SOL     OW 2047   1.409   0.234   2.200 -0.7355 -0.0442  0.0249
  683SOL    HW1 2048   1.436   0.283   2.289 -1.1035  3.0263 -1.6885
  683SOL    HW2 2049   1.468   0.257   2.119 -2.0214 -4.3632  1.3578
  684SOL     OW 2050   1.444   2.126   0.475  0.3093 -0.4488  0.1488
  684SOL    HW1 2051   1.508   2.069   0.536  1.1885  1.0065  1.5473
  684SOL    HW2 2052   1.348   2.088   0.460  0.3699 -0.3719 -1.3057
  685SOL     OW 2053   2.132   1.938   2.013 -0.1312  0.1720 -0.3072
  685SOL    HW1 2054   2.175   2.006   1.949  0.1558 -0.2596 -1.7096
  685SOL    HW2 2055   2.204   1.877   2.055  0.9637  0.6310 -1.2848
  686SOL     OW 2056   1.492   1.725   2.706  0.3766  0.9426 -0.4199
  686SOL    HW1 2057   1.483   1.627   2.677 -1.2309  0.4703  0.9444
  686SOL    HW2 2058   1.514   1.739   2.805  1.2025  1.3059  2.0532
  687SOL     OW 2059   1.344   2.494   1.935  0.5304 -0.0495  0.0980
  687SOL    HW1 2060   1.354   2.412   1.876  0.6428 -1.4936  4.0182
  687SOL    HW2 2061   1.413   2.509   2.014  2.2316  0.4912 -0.7250
  688SOL     OW 2062   2.066   1.496   1.548 -0.1652  0.1625 -0.5647
  688SOL    HW1 2063   2.148   1.557   1.526 -0.3365  2.8681  0.2711
  688SOL    HW2 2064   2.014   1.479   1.458  1.7968 -0.4101 -1.7441
  689SOL     OW 2065   2.448   1.089   2.757 -0.0273 -0.4737  0.9885
  689SOL    HW1 2066   2.349   1.077   2.778  0.5749  1.4532 -0.2659
  689SOL    HW2 2067   2.501   1.032   2.823  1.6800 -3.2794  1.3178
  690SOL     OW 2068   2.227   2.794   3.048 -0.2430  0.0270  0.3600
  690SOL    HW1 2069   2.142   2.775   2.987  2.3899 -0.8996 -0.8918
  690SOL    HW2 2070   2.220   2.846   3.134 -1.8225 -0.6658  0.0049
  691SOL     OW 2071   2.608   0.474   2.164  0.1973  0.4905  0.6944
  691SOL    HW1 2072   2.689   0.441   2.106  0.0202 -0.1129  0.9713
  691SOL    HW2 2073   2.590   0.577   2.147 -0.7312  0.0779 -1.4111
  692SOL     OW 2074   2.716   1.170   0.696 -0.3584 -0.7771  0.4623
  692SOL    HW1 2075   2.617   1.158   0.678  3.3881  0.0988 -4.1362
  692SOL    HW2 2076   2.739   1.260   0.745  0.5386  1.7998 -0.3033
  693SOL     OW 2077   2.834   2.923   0.629 -0.3155 -0.1312 -0.8128
  693SOL    HW1 2078   2.835   3.002   0.698 -0.1463 -0.2483  0.8409
  693SOL    HW2 2079   2.782   2.949   0.547 -0.8151  1.5237  2.4093
  694SOL     OW 2080   2.422   2.202   0.073  0.0163 -0.1220 -0.1789
  694SOL    HW1 2081   2.387   2.300   0.104 -2.7723 -0.1015  1.9122
  694SOL    HW2 2082   2.339   2.145   0.064  1.3163  1.6975  3.1167
  695SOL     OW 2083   0.536   2.935   1.525  0.1906  0.0561  0.3957
  695SOL    HW1 2084   0.481   2.844   1.525 -0.2843  1.0410 -1.8127
  695SOL    HW2 2085   0.494   3.004   1.588 -1.3606 -0.8878 -1.1647
  696SOL     OW 2086   2.715   2.026   0.689  0.0692 -0.4029  0.4371
  696SOL    HW1 2087   2.761   1.939   0.724  1.3195  1.4735  2.5535
  696SOL    HW2 2088   2.654   2.011   0.607 -0.6625  1.3198  2.2130
  697SOL     OW 2089   1.682   2.068   1.764  0.1072  0.4489  0.1926
  697SOL    HW1 2090   1.756   2.012   1.810  2.1604 -0.8455 -1.1510
  697SOL    HW2 2091   1.721   2.155   1.724  0.7817 -0.1157  2.1406
  698SOL     OW 2092   2.907   0.363   2.819 -0.4278  0.1290  0.2177
  698SOL    HW1 2093   2.915   0.366   2.718  0.8061  1.6800  1.1458
  698SOL    HW2 2094   2.983   0.318   2.878  0.7738 -1.0850  0.1837
  699SOL     OW 2095   1.542   0.120   2.940 -0.4993 -0.0940  0.3680
  699SOL    HW1 2096   1.508   0.033   2.900 -0.8220  1.1021 -1.2797
  699SOL    HW2 2097   1.567   0.186   2.862 -2.1130 -1.2296 -0.1218
  700SOL     OW 2098   0.979   2.466   1.375 -0.1319  0.1257  0.4938
  700SOL    HW1 2099   1.065   2.438   1.329 -1.7607  0.6449  0.1992
  700SOL    HW2 2100   0.897   2.439   1.316  0.5067  0.5138 -3.8957
  701SOL     OW 2101   1.834   2.854   3.076  0.0412  0.6774 -0.4535
  701SOL    HW1 2102   1.873   2.804   3.158 -0.7815  0.4631 -0.7600
  701SOL    HW2 2103   1.864   2.954   3.070 -1.2521  1.9799  1.9787
  702SOL     OW 2104   2.116   1.364   1.811  0.1988 -0.2753  0.3748
  702SOL    HW1 2105   2.208   1.324   1.810 -2.0433  2.5907  1.6476
  702SOL    HW2 2106   2.084   1.413   1.723  0.6812  2.5095 -0.2690
  703SOL     OW 2107   2.001   0.889   1.471  0.3052 -0.0805 -0.2360
  703SOL    HW1 2108   1.996   0.821   1.546  1.2237  1.2796 -2.0318
  703SOL    HW2 2109   2.033   0.984   1.502 -0.1677 -0.5326  1.8948
  704SOL     OW 2110   0.320   2.031   1.739  0.8002 -0.1893 -0.1584
  704SOL    HW1 2111   0.333   1.990   1.833 -1.0097 -0.7639  1.5717
  704SOL    HW2 2112   0.392   2.110   1.718  1.0745  0.8418 -1.7507
  705SOL     OW 2113   2.527   1.462   0.862 -0.3589  0.7319 -0.1873
  705SOL    HW1 2114   2.441   1.416   0.898  2.1916 -1.9959  0.2732
  705SOL    HW2 2115   2.614   1.409   0.891  0.3878  0.2035  2.1089
  706SOL     OW 2116   0.644   1.757   1.868  0.6077 -0.4584  0.2336
  706SOL    HW1 2117   0.680   1.661   1.897  0.5094 -1.2546  1.8885
  706SOL    HW2 2118   0.690   1.835   1.915 -0.9860  1.4999 -1.4525
  707SOL     OW 2119   2.359   1.199   1.743 -0.1941  0.1075 -0.2190
  707SOL    HW1 2120   2.454   1.180   1.783  1.2756  0.7773  1.1430
  707SOL    HW2 2121   2.304   1.113   1.728 -0.5194 -2.9527  2.0380
  708SOL     OW 2122   3.008   0.527   3.059  0.0035 -0.2710 -0.6374
  708SOL    HW1 2123   3.049   0.586   2.984 -0.0730  1.3617  1.1575
  708SOL    HW2 2124   3.038   0.428   3.052 -0.9843  3.7907  4.1283
  709SOL     OW 2125   1.749   1.858   0.205 -0.1445  0.6091 -0.6334
  709SOL    HW1 2126   1.834   1.898   0.249  1.2430 -2.0470  3.2567
  709SOL    HW2 2127   1.753   1.870   0.099  0.3471  3.0799  0.2040
  710SOL     OW 2128   1.743   1.664   2.466 -0.1524 -0.5720  0.6949
  710SOL    HW1 2129   1.774   1.626   2.378 -0.6368 -0.0729  3.0380
  710SOL    HW2 2130   1.779   1.598   2.535  1.4587  0.8986  1.1961
  711SOL     OW 2131   2.625   2.870   0.962  0.7210 -0.5496 -0.6639
  711SOL    HW1 2132   2.600   2.961   0.927  0.6289  0.3577  1.6752
  711SOL    HW2 2133   2.710   2.872   1.018  0.5162 -0.3379 -1.5915
  712SOL     OW 2134   1.493   2.284   1.785 -0.2684 -0.0937  1.0105
  712SOL    HW1 2135   1.539   2.197   1.818 -0.3332 -2.3045 -0.2068
  712SOL    HW2 2136   1.413   2.263   1.725  1.1097  0.3159 -0.8349
  713SOL     OW 2137   2.857   1.289   2.502  0.5783 -0.7253 -0.7142
  713SOL    HW1 2138   2.920   1.225   2.459 -0.5453 -2.1792  0.2775
  713SOL    HW2 2139   2.794   1.246   2.573  0.4494  1.2826  0.1148
  714SOL     OW 2140   2.647   0.434   2.434  0.1140  0.0888 -0.0741
  714SOL    HW1 2141   2.575   0.390   2.495  0.0249  0.4293 -1.5258
  714SOL    HW2 2142   2.615   0.453   2.336  1.0602 -0.1555 -0.0664
  715SOL     OW 2143   1.616   2.111   1.130 -0.3890  0.2132  0.4681
  715SOL    HW1 2144   1.564   2.184   1.077  0.4346  2.2396 -1.4656
  715SOL    HW2 2145   1.632   2.130   1.228  1.4481 -2.7271  0.8997
  716SOL     OW 2146   1.163   0.154   1.454 -0.2037 -0.1397 -0.1940
  716SOL    HW1 2147   1.064   0.125   1.450  2.1161  1.7462  1.8585
  716SOL    HW2 2148   1.174   0.258   1.461 -0.3290 -1.6410  0.5360
  717SOL     OW 2149   1.083   0.524   1.602  0.4249  0.3297 -0.2757
  717SOL    HW1 2150   1.174   0.577   1.618  0.9192  2.0746  2.0663
  717SOL    HW2 2151   1.065   0.506   1.502  1.2787 -1.5542 -1.5097
  718SOL     OW 2152   0.619   1.156   1.024 -0.7760  0.4793 -0.3522
  718SOL    HW1 2153   0.644   1.173   0.924  0.2696 -1.8364  0.0136
  718SOL    HW2 2154   0.672   1.217   1.092  0.5830  0.3488 -0.3355
  719SOL     OW 2155   0.695   1.834   2.247 -0.1390  0.0625 -0.8870
  719SOL    HW1 2156   0.750   1.828   2.332  0.8007 -0.5078  0.5301
  719SOL    HW2 2157   0.600   1.879   2.270 -0.3564 -1.5567 -1.3140
  720SOL     OW 2158   2.301   1.140   0.248  0.6194 -0.2877  0.7513
  720SOL    HW1 2159   2.403   1.110   0.262  1.5574  1.1543 -0.4504
  720SOL    HW2 2160   2.233   1.128   0.329 -0.7952  0.1177  0.0806
  721SOL     OW 2161   2.304   3.088   2.037  0.5284 -0.4945  0.7701
  721SOL    HW1 2162   2.297   3.177   1.986 -0.4940 -2.2325  1.2687
  721SOL    HW2 2163   2.221   3.076   2.099  0.1101  0.2359 -1.6229
  722SOL     OW 2164   2.439   1.701   0.499  0.4109  0.3286  0.3020
  722SOL    HW1 2165   2.438   1.641   0.417  1.3193  0.8201  0.1789
  722SOL    HW2 2166   2.342   1.721   0.535 -1.8821 -2.9394 -0.7707
  723SOL     OW 2167   2.606   2.872   1.891  0.0520 -0.4253 -0.0044
  723SOL    HW1 2168   2.648   2.921   1.972 -1.8674 -0.7161 -1.7705
  723SOL    HW2 2169   2.505   2.882   1.889 -0.1939  3.0920  0.3622
  724SOL     OW 2170   0.316   2.378   2.353  0.1028 -0.7337  0.7858
  724SOL    HW1 2171   0.239   2.451   2.355  1.9675  0.3047  0.1183
  724SOL    HW2 2172   0.374   2.388   2.435  1.1756 -1.6341 -2.6190
  725SOL     OW 2173   2.342   2.801   1.474  0.2375 -0.0727  0.1558
  725SOL    HW1 2174   2.392   2.791   1.387  4.3514 -0.3104 -0.2223
  725SOL    HW2 2175   2.347   2.717   1.525  0.4055 -1.5418  1.5075
  726SOL     OW 2176   2.374   2.247   0.740  0.0839  0.4939 -0.6057
  726SOL    HW1 2177   2.386   2.351   0.750  0.7240 -1.7787 -1.6084
  726SOL    HW2 2178   2.343   2.222   0.642 -0.6971  0.4349 -1.5258
  727SOL     OW 2179   0.232   0.009   0.122  0.6036 -0.0767 -0.5729
  727SOL    HW1 2180   0.302  -0.063   0.143  0.5428  0.7618  0.5730
  727SOL    HW2 2181   0.276   0.104   0.107 -2.6238  1.2990  1.1721
  728SOL     OW 2182   2.793   0.661   1.064  0.0601 -0.1155 -0.0525
  728SOL    HW1 2183   2.728   0.634   0.985  2.6080 -1.3652 -0.7401
  728SOL    HW2 2184   2.804   0.594   1.141  1.1985  0.2388 -0.1991
  729SOL     OW 2185   3.004   2.459   0.712 -0.4746 -0.2258  0.5140
  729SOL    HW1 2186   2.962   2.373   0.756 -0.9605 -2.2539  1.3691
  729SOL    HW2 2187   3.101   2.445   0.694 -1.3310 -1.0567 -0.6274
  730SOL     OW 2188   2.629   0.584   0.847  0.0412  0.3101 -0.4712
  730SOL    HW1 2189   2.588   0.666   0.800  1.1651 -1.0806 -0.5506
  730SOL    HW2 2190   2.705   0.548   0.791 -0.2669  1.8394 -1.9427
  731SOL     OW 2191   0.194   2.174   2.490  0.7344  0.6534 -0.2913
  731SOL    HW1 2192   0.175   2.201   2.591  0.9786 -1.8667 -1.9387
  731SOL    HW2 2193   0.230   2.245   2.430 -1.5670  1.3145 -0.0542
  732SOL     OW 2194   1.120   2.850   2.042 -0.5252  0.3542 -0.1690
  732SOL    HW1 2195   1.136   2.797   2.133 -2.5849  0.7800  0.5155
  732SOL    HW2 2196   1.144   2.796   1.956  2.4243  0.4698  0.6960
  733SOL     OW 2197   3.023   0.689   2.112  0.0559  0.8966  0.0811
  733SOL    HW1 2198   3.121   0.729   2.113 -0.4855  2.8650 -0.5413
  733SOL    HW2 2199   3.016   0.595   2.064 -1.3211 -0.9850  0.9753
  734SOL     OW 2200   1.384   0.364   2.691 -0.0330 -0.3745  0.1586
  734SOL    HW1 2201   1.414   0.452   2.741 -2.5424  2.8958  2.0912
  734SOL    HW2 2202   1.299   0.319   2.724  2.1230  0.2172 -1.0965
  735SOL     OW 2203   2.801   2.665   2.292  0.4041  0.3625  0.4862
  735SOL    HW1 2204   2.721   2.651   2.231 -0.5034  1.1934  1.6831
  735SOL    HW2 2205   2.887   2.629   2.244  1.2669  0.2771 -2.4026
  736SOL     OW 2206   0.803   0.359   2.556  0.2747 -0.5034  0.2338
  736SOL    HW1 2207   0.742   0.445   2.539 -1.0965  1.8488 -0.5858
  736SOL    HW2 2208   0.805   0.300   2.469 -0.7734  0.1020 -0.4849
  737SOL     OW 2209   2.661   0.411   2.911 -0.4328 -0.3808  0.1540
  737SOL    HW1 2210   2.644   0.431   3.014 -2.4384  0.7677  1.9016
  737SOL    HW2 2211   2.761   0.384   2.886  1.9959  0.0471 -0.5076
  738SOL     OW 2212   1.658   1.124   0.038  0.0527 -0.4971  0.4487
  738SOL    HW1 2213   1.749   1.131  -0.007  1.0635 -2.2611  1.1174
  738SOL    HW2 2214   1.609   1.039   0.021 -0.5601 -0.3541 -0.2097
  739SOL     OW 2215   1.821   0.555   0.698  0.3946 -0.1663  0.0299
  739SOL    HW1 2216   1.858   0.526   0.790 -1.4279 -0.7757  0.0705
  739SOL    HW2 2217   1.844   0.496   0.618 -0.9587  3.7792  0.3008
  740SOL     OW 2218   1.916   2.068   2.159  0.1430 -0.1799  0.0360
  740SOL    HW1 2219   1.963   2.007   2.088 -0.0892  1.3109  1.6644
  740SOL    HW2 2220   1.814   2.067   2.153  0.4593 -0.1671 -0.3250
  741SOL     OW 2221   2.556   0.020   2.575  0.2510  0.1706 -0.6525
  741SOL    HW1 2222   2.660   0.006   2.572  1.1318  0.6744 -0.3292
  741SOL    HW2 2223   2.527   0.104   2.528 -0.9959 -3.4184 -0.3067
  742SOL     OW 2224   2.263   1.413   0.083 -0.3753 -0.1404  0.2915
  742SOL    HW1 2225   2.178   1.474   0.108 -0.7862  1.3297  0.3859
  742SOL    HW2 2226   2.260   1.320   0.132  3.3210 -0.5938 -1.6904
  743SOL     OW 2227   1.745   0.651   2.663 -0.6442 -0.1125  0.0749
  743SOL    HW1 2228   1.775   0.607   2.574  2.9654 -1.6618 -1.6613
  743SOL    HW2 2229   1.663   0.710   2.647  0.6507  0.2927  0.5332
  744SOL     OW 2230   2.676   2.132   0.132  0.2938  0.6023  0.5337
  744SOL    HW1 2231   2.591   2.186   0.125 -0.8599  1.1055  2.8328
  744SOL    HW2 2232   2.665   2.032   0.154 -1.2801 -1.6732 -0.3687
  745SOL     OW 2233   2.201   2.759   2.193 -0.5116 -0.3538 -0.3231
  745SOL    HW1 2234   2.105   2.748   2.165  0.1153  1.8832  0.9918
  745SOL    HW2 2235   2.211   2.816   2.282  1.2374 -0.0467  3.8459
  746SOL     OW 2236   3.080   2.618   1.805  0.5047  0.2236  0.1008
  746SOL    HW1 2237   3.181   2.640   1.778  1.3902  1.0603 -0.4762
  746SOL    HW2 2238   3.021   2.707   1.828 -1.2611  2.1090 -1.4211
  747SOL     OW 2239   3.093   1.771   1.689 -0.4892 -0.1525 -0.3222
  747SOL    HW1 2240   3.032   1.696   1.652 -1.1822 -0.0451 -0.5757
  747SOL    HW2 2241   3.157   1.817   1.619 -0.1100 -0.3571  1.8828
  748SOL     OW 2242   1.762   2.731   2.839  0.4509  0.2404 -0.3403
  748SOL    HW1 2243   1.783   2.792   2.926  0.1140  2.8783 -0.2607
  748SOL    HW2 2244   1.665   2.741   2.804 -1.3140  2.6922 -0.6787
  749SOL     OW 2245   1.344   0.068   0.862  0.0970  0.0029 -0.7441
  749SOL    HW1 2246   1.297  -0.021   0.886 -1.3212 -2.2858 -3.1880
  749SOL    HW2 2247   1.344   0.084   0.762  0.6078  0.8061  0.4652
  750SOL     OW 2248   2.292   0.228   1.914  0.6214  0.2907  0.0131
  750SOL    HW1 2249   2.341   0.285   1.841 -2.7062  0.3904  1.0110
  750SOL    HW2 2250   2.279   0.287   1.998  2.6062  1.5383  1.2570
  751SOL     OW 2251   0.850   2.242   2.925 -0.4662 -0.6380  0.1454
  751SOL    HW1 2252   0.922   2.218   3.001  1.2669 -1.5114 -2.8121
  751SOL    HW2 2253   0.793   2.159   2.905  1.6798  0.1470 -2.3152
  752SOL     OW 2254   1.250   0.851   1.481  0.1103 -0.7146 -0.3660
  752SOL    HW1 2255   1.315   0.928   1.455 -0.6934  2.0818 -0.4154
  752SOL    HW2 2256   1.306   0.763   1.491  3.0473  0.4912  0.0308
  753SOL     OW 2257   0.905   2.580   1.747  0.0890 -0.3659  0.2832
  753SOL    HW1 2258   0.973   2.636   1.692  1.3534 -0.3935  0.9673
  753SOL    HW2 2259   0.811   2.626   1.752 -0.5279 -1.0571  0.2305
  754SOL     OW 2260   1.133   1.344   3.043 -0.1209  0.5049  0.1724
  754SOL    HW1 2261   1.201   1.281   3.001 -1.6239  0.0577  1.6088
  754SOL    HW2 2262   1.131   1.439   2.992  0.4492 -0.8742 -2.5547
  755SOL     OW 2263   2.038   0.542   2.293  0.0749  0.0648  0.8998
  755SOL    HW1 2264   2.116   0.486   2.332  1.3907  0.2207  1.5524
  755SOL    HW2 2265   1.948   0.527   2.341  0.7603  0.6866 -0.0494
  756SOL     OW 2266   2.636   0.960   2.927 -0.0873 -0.1499 -0.1378
  756SOL    HW1 2267   2.724   0.903   2.915  0.3032 -1.8951 -2.5968
  756SOL    HW2 2268   2.572   0.923   3.005 -1.0309 -0.7859 -0.1639
  757SOL     OW 2269   0.148   0.454   1.737 -0.4992  0.3172  0.8280
  757SOL    HW1 2270   0.115   0.548   1.738 -1.0325 -1.9742 -2.3036
  757SOL    HW2 2271   0.206   0.440   1.650  0.6717 -0.9498 -0.8948
  758SOL     OW 2272   2.470   0.063   1.502  0.3596 -0.5467  0.0859
  758SOL    HW1 2273   2.375   0.046   1.540 -1.3578  2.2510 -0.9578
  758SOL    HW2 2274   2.478   0.019   1.410 -0.2825  1.0961  1.0937
  759SOL     OW 2275   1.674   0.141   0.071  0.4781  0.2183  0.1970
  759SOL    HW1 2276   1.626   0.131  -0.021  1.0479  1.6678 -0.5533
  759SOL    HW2 2277   1.776   0.132   0.070 -0.3279  0.6538 -1.3200
  760SOL     OW 2278   2.743   1.968   2.763  0.0552  0.0576  0.2489
  760SOL    HW1 2279   2.756   1.862   2.751 -0.1921  1.3482 -0.6748
  760SOL    HW2 2280   2.806   2.030   2.707 -0.0520  0.8201 -0.4882
  761SOL     OW 2281   1.842   1.707   1.657 -0.4064 -0.5754  0.0548
  761SOL    HW1 2282   1.902   1.626   1.627 -0.9381 -1.7018 -0.9605
  761SOL    HW2 2283   1.771   1.729   1.584  2.1353 -1.8601  1.9524
  762SOL     OW 2284   0.504   2.394   1.013 -0.1150  0.1939  0.0657
  762SOL    HW1 2285   0.548   2.441   0.935 -1.1286  1.1316  3.1878
  762SOL    HW2 2286   0.457   2.460   1.082  0.2590  1.6075  1.8089
  763SOL     OW 2287   1.998   1.562   2.954 -0.2952 -0.7378  0.1489
  763SOL    HW1 2288   2.059   1.523   2.879  0.2834  0.1273  1.4176
  763SOL    HW2 2289   1.948   1.494   3.014  1.5004  2.2382  1.2019
  764SOL     OW 2290   0.703   0.597   0.815  0.0374  0.3749 -0.2230
  764SOL    HW1 2291   0.696   0.550   0.723 -4.2864 -1.3745 -0.6432
  764SOL    HW2 2292   0.799   0.593   0.856  0.1693 -2.5376  1.8385
  765SOL     OW 2293   0.617   0.211   0.782 -0.0489 -0.4790 -0.1292
  765SOL    HW1 2294   0.700   0.256   0.733  0.1303 -0.8956 -1.2384
  765SOL    HW2 2295   0.615   0.232   0.880 -1.4025 -1.6056 -1.6069
  766SOL     OW 2296   2.957   1.986   2.949 -1.4763  0.7952 -0.0019
  766SOL    HW1 2297   2.868   1.997   2.900 -0.4613  1.4109 -1.0789
  766SOL    HW2 2298   3.003   2.075   2.976 -0.4551 -1.9020  0.1226
  767SOL     OW 2299   2.728   1.554   0.497  0.5846 -0.0486  0.4539
  767SOL    HW1 2300   2.683   1.599   0.581  1.4320 -1.1905 -0.2194
  767SOL    HW2 2301   2.819   1.594   0.472 -0.9970  0.8162 -1.8263
  768SOL     OW 2302   1.052   0.308   0.280 -0.8505 -0.3377 -0.2217
  768SOL    HW1 2303   0.949   0.277   0.264 -2.0476 -1.4069  0.8481
  768SOL    HW2 2304   1.122   0.233   0.257  1.3388  0.1019 -0.7710
  769SOL     OW 2305   1.359   1.780   2.200 -0.4042  0.0971 -1.0530
  769SOL    HW1 2306   1.438   1.730   2.241  2.4591  0.8147 -2.1053
  769SOL    HW2 2307   1.267   1.727   2.209  0.9418 -1.0979  1.5613
  770SOL     OW 2308   0.183   1.165   2.270  0.0959  0.1671 -0.3176
  770SOL    HW1 2309   0.155   1.179   2.371 -1.0158  1.6679 -0.1792
  770SOL    HW2 2310   0.107   1.182   2.203 -1.2473  2.6395 -1.6937
  771SOL     OW 2311   2.962   2.856   1.875 -0.0305  0.7010 -0.1574
  771SOL    HW1 2312   2.958   2.908   1.784  1.6203  1.3539  0.2472
  771SOL    HW2 2313   3.002   2.908   1.949 -1.7517 -1.1938 -3.2360
  772SOL     OW 2314   2.162   0.052   3.022  0.0726 -0.4741  0.0999
  772SOL    HW1 2315   2.225   0.004   2.954  0.0514  0.4804  2.0054
  772SOL    HW2 2316   2.198   0.143   3.044 -2.0314 -4.5107 -0.3241
  773SOL     OW 2317   0.700   2.146   2.446 -0.9134  0.5854 -0.0615
  773SOL    HW1 2318   0.632   2.150   2.365 -1.1994  0.7872 -0.1615
  773SOL    HW2 2319   0.641   2.150   2.533  0.4356 -1.1384 -2.0476
  774SOL     OW 2320   1.987   0.011   2.657  0.4323 -0.0718 -0.3850
  774SOL    HW1 2321   1.966   0.087   2.721  0.3835  1.5109 -0.0820
  774SOL    HW2 2322   2.038  -0.068   2.711 -0.4877  0.3062  0.9519
  775SOL     OW 2323   2.483   2.889   2.324 -0.2010 -0.2323 -0.1316
  775SOL    HW1 2324   2.442   2.986   2.321 -1.9724  1.6195 -1.4964
  775SOL    HW2 2325   2.562   2.876   2.391  0.4259  1.1882  2.7181
  776SOL     OW 2326   0.031   1.195   0.265 -0.0454  0.6497  0.4121
  776SOL    HW1 2327  -0.020   1.241   0.186 -1.6818  1.9588  0.6697
  776SOL    HW2 2328  -0.023   1.192   0.355  0.9699  1.3616  0.5519
  777SOL     OW 2329   0.330   2.731   0.372  0.2535  0.1508 -0.3789
  777SOL    HW1 2330   0.225   2.711   0.377 -0.8383 -1.1889 -1.7788
  777SOL    HW2 2331   0.357   2.829   0.402  3.5836  2.9212 -0.1145
  778SOL     OW 2332   1.286   1.999   0.143 -0.3095  0.0886 -0.1240
  778SOL    HW1 2333   1.273   2.009   0.245  0.6483 -0.5429 -2.2319
  778SOL    HW2 2334   1.358   2.063   0.106  1.8542 -1.5458  0.4752
  779SOL     OW 2335   0.197   0.794   0.498  0.0304 -0.1777  0.2671
  779SOL    HW1 2336   0.136   0.713   0.507 -3.1373  2.7679  0.1617
  779SOL    HW2 2337   0.173   0.865   0.568 -0.6239  1.1331  0.3069
  780SOL     OW 2338   0.067   0.328   2.385 -0.8272  0.1314  0.6324
  780SOL    HW1 2339   0.047   0.433   2.393  2.9736 -0.8972  2.0758
  780SOL    HW2 2340   0.160   0.311   2.334 -0.1511  0.6778 -2.6475
  781SOL     OW 2341   0.532   1.791   1.600 -0.5460 -0.1489  0.8135
  781SOL    HW1 2342   0.572   1.777   1.696 -2.0189  0.7866 -0.3435
  781SOL    HW2 2343   0.456   1.720   1.575 -1.9015  0.2519 -2.2865
  782SOL     OW 2344   2.608   0.098   0.914  0.6264 -0.0505  0.5529
  782SOL    HW1 2345   2.561   0.142   0.839  0.7973 -3.4934  0.7111
  782SOL    HW2 2346   2.570   0.132   1.003 -0.5394  0.1553 -0.4941
  783SOL     OW 2347   2.842   0.627   2.560 -0.1455 -0.2739 -0.6393
  783SOL    HW1 2348   2.790   0.657   2.646 -1.7158  0.3706  0.8925
  783SOL    HW2 2349   2.781   0.576   2.494  0.0428 -0.0504  2.5201
  784SOL     OW 2350   1.424   2.223   0.064  0.3593 -0.2850  0.6373
  784SOL    HW1 2351   1.521   2.244   0.101 -0.6634 -0.4854 -1.1412
  784SOL    HW2 2352   1.421   2.236  -0.039 -0.5612  2.6506 -1.6824
  785SOL     OW 2353   2.183   0.331   3.079  0.0561  0.1296 -0.8408
  785SOL    HW1 2354   2.112   0.311   3.152  0.6182 -0.4281 -0.6000
  785SOL    HW2 2355   2.200   0.430   3.066 -0.9013 -0.4847  2.4395
  786SOL     OW 2356   2.116   2.226   2.242  0.3424  0.6290 -0.1805
  786SOL    HW1 2357   2.053   2.178   2.177  1.7937  1.8626  2.0172
  786SOL    HW2 2358   2.181   2.166   2.292  0.3216  3.3696  2.4041
  787SOL     OW 2359   1.351   0.598   0.752  0.0687 -0.9264  1.0601
  787SOL    HW1 2360   1.305   0.672   0.696 -1.8601  1.3440  1.0846
  787SOL    HW2 2361   1.374   0.521   0.678  0.2736 -3.0942 -1.6122
  788SOL     OW 2362   1.228   0.466   2.969 -0.5090 -0.4613 -0.0026
  788SOL    HW1 2363   1.127   0.459   2.934 -1.0054  0.0519  0.1029
  788SOL    HW2 2364   1.268   0.560   2.950  1.3923 -1.2504 -2.2205
  789SOL     OW 2365   2.620   0.111   1.930 -0.0352  0.6818  0.2886
  789SOL    HW1 2366   2.528   0.156   1.906  1.5765 -1.3455 -0.1687
  789SOL    HW2 2367   2.612   0.050   2.013  0.0773  2.6081  4.2480
  790SOL     OW 2368   2.648   2.615   0.838  0.3862  0.5926 -0.2851
  790SOL    HW1 2369   2.721   2.625   0.762 -0.8647  0.8833 -0.7224
  790SOL    HW2 2370   2.627   2.701   0.885 -3.4166  0.0030 -0.6086
  791SOL     OW 2371   1.921   1.192   0.214 -0.0709  0.1067 -0.4738
  791SOL    HW1 2372   1.832   1.161   0.260 -1.5381  0.8306  0.5532
  791SOL    HW2 2373   1.981   1.115   0.188 -1.5899  0.8822  1.9929
  792SOL     OW 2374   0.472   1.964   2.263 -0.0197 -0.3278  0.4372
  792SOL    HW1 2375   0.479   2.063   2.237  1.4908 -2.1680 -0.4562
  792SOL    HW2 2376   0.394   1.947   2.329 -0.8976  0.3306  2.0542
  793SOL     OW 2377   2.073   1.566   2.018 -0.5466  0.0861  0.3840
  793SOL    HW1 2378   2.163   1.622   2.021  1.5580  1.6471 -0.8624
  793SOL    HW2 2379   2.059   1.512   1.935  0.9820  2.2626 -2.9428
  794SOL     OW 2380   0.562   1.554   2.494 -0.5332 -0.0260 -0.2161
  794SOL    HW1 2381   0.629   1.478   2.473 -0.3232  0.0761  1.5327
  794SOL    HW2 2382   0.477   1.538   2.440  1.4806 -2.1818 -0.4754
  795SOL     OW 2383   2.377   2.342   1.857 -0.4550 -0.5290 -0.1428
  795SOL    HW1 2384   2.336   2.396   1.933 -0.9304 -0.4311  2.9188
  795SOL    HW2 2385   2.330   2.248   1.851  1.3141 -0.4324 -1.5073
  796SOL     OW 2386   3.028   1.148   2.719 -0.5766 -0.2889  0.0763
  796SOL    HW1 2387   2.923   1.152   2.722  0.0232  1.1187 -0.0468
  796SOL    HW2 2388   3.067   1.147   2.816 -0.7359  0.1080  1.2362
  797SOL     OW 2389   0.704   0.642   1.325 -0.1770 -0.2091 -0.8745
  797SOL    HW1 2390   0.766   0.681   1.403  1.6228  3.5748  1.5243
  797SOL    HW2 2391   0.693   0.704   1.243  0.8823  3.1631  1.1668
  798SOL     OW 2392   1.199   0.520   0.978 -0.2861 -0.8651 -0.2955
  798SOL    HW1 2393   1.205   0.602   1.044  1.5236  0.4649  1.6108
  798SOL    HW2 2394   1.247   0.531   0.887  1.8550 -0.8257 -0.0012
  799SOL     OW 2395   1.794   2.702   1.083  0.4727  0.1913  0.8655
  799SOL    HW1 2396   1.770   2.614   1.129 -0.8451 -2.2459  0.4129
  799SOL    HW2 2397   1.779   2.703   0.981 -0.7509 -1.9459 -1.3160
  800SOL     OW 2398   2.952   0.824   1.867 -0.4958 -0.2956  0.1565
  800SOL    HW1 2399   2.971   0.928   1.892  1.4205  0.3833  0.6525
  800SOL    HW2 2400   2.948   0.757   1.950  1.0530 -0.6033  0.4805
  801SOL     OW 2401   1.998   2.278   0.084 -0.3238  0.7017 -0.6852
  801SOL    HW1 2402   1.950   2.337   0.012  0.7032  1.7001  0.1669
  801SOL    HW2 2403   2.041   2.196   0.043  0.0455  0.2381 -0.3833
  802SOL     OW 2404   0.683   0.612   2.506 -0.3813  0.4467 -0.9059
  802SOL    HW1 2405   0.744   0.654   2.434  0.8590  1.8233  0.6573
  802SOL    HW2 2406   0.581   0.626   2.485 -0.1827 -1.4300  0.9972
  803SOL     OW 2407   0.949   0.092   0.917  0.0902  0.1697  0.0526
  803SOL    HW1 2408   1.024   0.151   0.955  1.3923 -0.2369  1.7343
  803SOL    HW2 2409   0.904   0.119   0.829 -1.7038  0.4454 -1.1651
  804SOL     OW 2410   0.342   0.027   2.180 -0.1544 -0.1051 -0.8035
  804SOL    HW1 2411   0.347   0.127   2.212  0.0806  1.5542  0.7143
  804SOL    HW2 2412   0.261   0.006   2.115 -0.9658 -0.5564 -1.6920
  805SOL     OW 2413   2.398   0.313   0.319  0.4342 -0.7466  0.3034
  805SOL    HW1 2414   2.489   0.314   0.375  0.8813  0.4409  1.6076
  805SOL    HW2 2415   2.412   0.264   0.224 -2.0202  1.6071 -0.3221
  806SOL     OW 2416   0.668   2.650   1.994  0.6788 -0.0024 -0.0262
  806SOL    HW1 2417   0.615   2.712   2.058  1.1930 -3.9015  0.6160
  806SOL    HW2 2418   0.657   2.682   1.895 -2.7065  1.8011 -1.2188
  807SOL     OW 2419   2.589   0.921   0.510  0.3595  0.4602 -0.0069
  807SOL    HW1 2420   2.680   0.874   0.510  1.3868 -1.6587 -1.9954
  807SOL    HW2 2421   2.553   0.945   0.413 -0.1743 -1.0542 -0.7853
  808SOL     OW 2422   0.680   2.033   2.898 -0.4470  0.6341  0.5438
  808SOL    HW1 2423   0.592   2.062   2.943 -1.1955  2.3968  0.1520
  808SOL    HW2 2424   0.704   1.932   2.903  0.4560  0.3234 -1.9578
  809SOL     OW 2425   2.566   2.035   1.923  0.1077 -0.2283  0.1502
  809SOL    HW1 2426   2.668   2.064   1.925  1.0783  1.4180 -0.0584
  809SOL    HW2 2427   2.524   2.045   1.825  2.8258  3.8172 -2.9228
  810SOL     OW 2428   2.193   1.234   0.503 -0.3171  0.8699  0.3524
  810SOL    HW1 2429   2.117   1.171   0.539  1.3587  2.9498  2.0469
  810SOL    HW2 2430   2.161   1.333   0.484 -2.0691 -0.4255  0.2937
  811SOL     OW 2431   1.233   2.493   1.178 -0.3265 -0.2537  0.6150
  811SOL    HW1 2432   1.246   2.390   1.208 -1.6842  2.4882  1.6127
  811SOL    HW2 2433   1.273   2.561   1.244  0.8719 -2.0386 -3.2964
  812SOL     OW 2434   1.443   0.755   1.995 -0.5243  0.1506 -0.1235
  812SOL    HW1 2435   1.407   0.768   2.090 -2.3649  1.7872 -3.1826
  812SOL    HW2 2436   1.481   0.846   1.951 -1.3236  1.7424  1.0860
  813SOL     OW 2437   1.629   2.072   2.416  0.4504  0.2155  0.3592
  813SOL    HW1 2438   1.731   2.078   2.419 -1.4060  1.7253  0.2441
  813SOL    HW2 2439   1.601   2.034   2.327  3.1681 -0.5152  0.7816
  814SOL     OW 2440   2.977   1.701   2.883  0.4905  0.2813 -0.7329
  814SOL    HW1 2441   3.055   1.651   2.933 -1.2483  1.1289  2.2478
  814SOL    HW2 2442   2.966   1.797   2.920 -0.8198  0.6272  1.2547
  815SOL     OW 2443   2.133   2.901   2.767 -0.4836  0.4694  0.6563
  815SOL    HW1 2444   2.112   2.804   2.806  0.3694 -2.3615  0.0933
  815SOL    HW2 2445   2.234   2.922   2.776  0.3127  0.9670 -1.7306
  816SOL     OW 2446   1.538   0.456   1.686  0.5388  0.3308 -0.1352
  816SOL    HW1 2447   1.553   0.350   1.697  0.4711 -0.9202  3.6201
  816SOL    HW2 2448   1.491   0.494   1.767  0.8450 -0.2177 -1.3820
  817SOL     OW 2449   0.402   1.231   2.559  0.3263 -0.6434 -0.5425
  817SOL    HW1 2450   0.308   1.270   2.576 -1.2572 -0.0790  0.0680
  817SOL    HW2 2451   0.420   1.242   2.460  1.5647  1.7281  0.4350
  818SOL     OW 2452   1.999   0.771   0.471  0.1290  0.3990  0.1119
  818SOL    HW1 2453   2.097   0.801   0.468  2.0642 -0.8696  2.8083
  818SOL    HW2 2454   1.943   0.814   0.545  0.2855 -2.1556  0.1658
  819SOL     OW 2455   2.841   2.891   3.028 -0.1947 -0.0260 -0.0448
  819SOL    HW1 2456   2.925   2.837   2.989 -1.8439  2.3377  1.2335
  819SOL    HW2 2457   2.759   2.868   2.973  1.8757 -0.0546  3.1880
  820SOL     OW 2458   1.217   1.037   0.535  0.0853 -0.4392 -0.0021
  820SOL    HW1 2459   1.245   1.130   0.554  3.3138 -1.9661  0.3565
  820SOL    HW2 2460   1.179   0.992   0.614 -0.9642 -1.0255 -0.6161
  821SOL     OW 2461   0.051   1.211   0.757  0.1482  0.5468  0.0670
  821SOL    HW1 2462   0.005   1.241   0.842  1.4303 -0.5503 -2.6899
  821SOL    HW2 2463   0.098   1.294   0.712  0.2328  0.7491 -0.4896
  822SOL     OW 2464   2.555   1.772   2.445 -0.1534 -0.1782  0.0334
  822SOL    HW1 2465   2.527   1.841   2.521 -1.9750  1.1232  0.2594
  822SOL    HW2 2466   2.480   1.751   2.379 -0.0132  1.3791 -3.0446
  823SOL     OW 2467   2.017   0.889   1.171  0.1627 -0.1853 -0.7632
  823SOL    HW1 2468   2.013   0.838   1.263  0.7317 -2.8310  1.6787
  823SOL    HW2 2469   1.965   0.848   1.095  0.5061  0.4516 -1.4104
  824SOL     OW 2470   0.198   1.801   2.841  0.0452  0.2447 -0.5562
  824SOL    HW1 2471   0.210   1.793   2.945 -1.6394 -0.2038 -0.4945
  824SOL    HW2 2472   0.270   1.861   2.795 -0.7812  0.8252 -0.9408
  825SOL     OW 2473   1.262   1.037   0.261  0.2248  0.2227 -1.0348
  825SOL    HW1 2474   1.254   1.138   0.230 -0.6325  0.5836 -0.3550
  825SOL    HW2 2475   1.260   1.021   0.362  2.6067 -0.0535 -1.7516
  826SOL     OW 2476   1.981   0.666   1.625 -0.6598 -0.4348  0.3334
  826SOL    HW1 2477   2.069   0.614   1.629 -0.9285  0.4421 -4.0526
  826SOL    HW2 2478   1.905   0.621   1.573  2.0609  1.0346 -1.6320
  827SOL     OW 2479   0.715   1.190   0.482 -0.6117  0.0019 -0.2079
  827SOL    HW1 2480   0.803   1.140   0.490 -1.2931  1.0726 -2.3000
  827SOL    HW2 2481   0.636   1.130   0.456 -0.1829 -1.0946 -1.5309
  828SOL     OW 2482   2.719   0.163   1.645 -0.9411 -0.1033  0.0622
  828SOL    HW1 2483   2.620   0.155   1.607 -3.1434  3.3475  0.9536
  828SOL    HW2 2484   2.727   0.124   1.744 -0.3016 -0.9574 -0.5802
  829SOL     OW 2485   2.882   2.378   2.877 -0.6074  0.0913 -0.3988
  829SOL    HW1 2486   2.811   2.326   2.935  0.0447  0.8889  1.1843
  829SOL    HW2 2487   2.886   2.476   2.908 -2.2329  1.2265  0.6644
  830SOL     OW 2488   3.001   0.937   2.956  0.3351  0.0425 -0.8024
  830SOL    HW1 2489   3.061   1.016   2.988 -2.0581  0.8879  3.3552
  830SOL    HW2 2490   2.962   0.882   3.038 -1.4596  0.9085  0.4722
  831SOL     OW 2491   3.078   0.557   0.455  0.0166 -0.0770  0.4862
  831SOL    HW1 2492   3.086   0.485   0.530 -1.5118  0.6274  1.7174
  831SOL    HW2 2493   3.106   0.514   0.363 -0.4691 -0.8603  0.8831
  832SOL     OW 2494   1.766   0.714   0.024 -0.3045  0.5313 -0.5091
  832SOL    HW1 2495   1.672   0.755   0.005 -0.7774 -0.3321 -0.4341
  832SOL    HW2 2496   1.778   0.613   0.003 -2.6573  4.2760  0.7527
  833SOL     OW 2497   2.344   2.110   0.491 -0.3588 -0.3178 -0.4796
  833SOL    HW1 2498   2.255   2.056   0.475 -0.1366 -2.0501  1.6369
  833SOL    HW2 2499   2.424   2.043   0.484 -2.1204 -1.6935  0.9386
  834SOL     OW 2500   0.037   0.061   0.568 -0.3931 -0.4737  0.0687
  834SOL    HW1 2501   0.138   0.025   0.572  1.5820  0.1790 -0.1422
  834SOL    HW2 2502   0.029   0.141   0.503 -2.0303 -0.4714  2.2228
  835SOL     OW 2503   2.544   1.731   1.104  0.1434  0.5023  0.2685
  835SOL    HW1 2504   2.603   1.669   1.163  0.7734  0.4664 -0.3682
  835SOL    HW2 2505   2.605   1.802   1.052  2.9258  0.7521  1.5949
  836SOL     OW 2506   1.548   0.857   2.582 -0.4629 -0.4798  0.2547
  836SOL    HW1 2507   1.444   0.855   2.579  1.3869 -0.2169 -0.4465
  836SOL    HW2 2508   1.587   0.871   2.488 -2.6128 -1.6809 -2.0818
  837SOL     OW 2509   1.662   0.011   0.650 -0.4831 -0.5944  0.5306
  837SOL    HW1 2510   1.635   0.110   0.658  0.1397 -1.7644  3.9764
  837SOL    HW2 2511   1.642  -0.035   0.559 -0.6921  0.6355  1.6042
  838SOL     OW 2512   1.182   1.400   2.678 -0.6724 -0.2685  0.3422
  838SOL    HW1 2513   1.149   1.429   2.772 -1.5777 -0.5914 -1.8290
  838SOL    HW2 2514   1.097   1.385   2.617 -0.7740 -0.0698 -1.2192
  839SOL     OW 2515   1.620   0.380   0.986 -0.1100 -0.8488 -0.0737
  839SOL    HW1 2516   1.557   0.464   0.996 -0.0980  1.9498  0.1456
  839SOL    HW2 2517   1.563   0.292   0.991  1.2600  1.1595  1.9351
  840SOL     OW 2518   2.657   2.936   1.627 -0.3163 -0.5265 -0.5372
  840SOL    HW1 2519   2.594   3.014   1.601  3.5963  1.3353  0.3238
  840SOL    HW2 2520   2.638   2.906   1.724 -0.9734 -0.0153 -2.0085
  841SOL     OW 2521   1.536   0.853   3.050  0.1607 -0.1196  0.3461
  841SOL    HW1 2522   1.448   0.850   3.106  0.1936  0.2632 -0.6607
  841SOL    HW2 2523   1.538   0.901   2.955 -2.9364 -0.6441 -1.9171
  842SOL     OW 2524   0.826   1.604   1.036  0.0937 -0.0699  0.0076
  842SOL    HW1 2525   0.831   1.708   1.046 -0.0026  1.8000 -0.2626
  842SOL    HW2 2526   0.743   1.575   0.976  0.9626  0.3231 -1.2205
  843SOL     OW 2527   0.135   0.083   1.432  0.2929  0.1922 -0.1501
  843SOL    HW1 2528   0.226   0.124   1.462 -0.1061  1.0820  0.8683
  843SOL    HW2 2529   0.138  -0.021   1.423 -0.5473  1.7700  2.0661
  844SOL     OW 2530   0.774   2.451   0.202  0.6755  0.0845  0.0089
  844SOL    HW1 2531   0.730   2.481   0.291  1.5390  0.1929  1.4752
  844SOL    HW2 2532   0.708   2.449   0.120  0.7175  1.1228 -1.5690
  845SOL     OW 2533   1.734   0.015   1.309  0.2824 -0.0182 -0.4093
  845SOL    HW1 2534   1.755  -0.009   1.411 -0.4223 -0.1343  0.0619
  845SOL    HW2 2535   1.666   0.088   1.299 -0.6435 -2.5900  0.5499
  846SOL     OW 2536   1.713   2.993   0.886  0.2109 -0.2187  0.2185
  846SOL    HW1 2537   1.695   3.026   0.792  1.0931 -3.0134 -1.5808
  846SOL    HW2 2538   1.814   2.998   0.909  3.2156 -1.5590 -0.3580
  847SOL     OW 2539   2.062   1.573   0.194 -0.4785  0.4197 -0.3018
  847SOL    HW1 2540   2.008   1.539   0.277 -1.2131  0.5437  1.6519
  847SOL    HW2 2541   2.006   1.579   0.111  1.6400 -1.9502  2.0879
  848SOL     OW 2542   2.459   0.790   2.675 -0.4597  0.0487  0.0525
  848SOL    HW1 2543   2.463   0.897   2.690 -1.1541  0.0979  1.5366
  848SOL    HW2 2544   2.380   0.755   2.608 -2.6528 -2.7775  1.6774
  849SOL     OW 2545   2.348   0.846   2.313  0.2810  0.5087  0.1309
  849SOL    HW1 2546   2.378   0.796   2.229 -0.0702 -0.6765  2.3091
  849SOL    HW2 2547   2.338   0.781   2.398 -0.7096 -0.8015  3.9108
  850SOL     OW 2548   1.531   0.213   1.269  0.3446 -0.5365  0.1748
  850SOL    HW1 2549   1.509   0.207   1.171  2.7772 -0.6006  1.5059
  850SOL    HW2 2550   1.479   0.140   1.325 -0.5617  1.2767  0.2746
  851SOL     OW 2551   0.416   1.681   0.654 -0.3283  0.3228 -0.0245
  851SOL    HW1 2552   0.444   1.774   0.701 -1.7371  1.0122  2.8540
  851SOL    HW2 2553   0.497   1.625   0.625  0.0105 -1.5636  1.9380
  852SOL     OW 2554   0.846   2.152   1.764 -0.0780 -0.8358 -0.1641
  852SOL    HW1 2555   0.824   2.229   1.690 -1.1273  3.1790 -3.7526
  852SOL    HW2 2556   0.781   2.151   1.842 -0.1497  0.0520 -1.0238
  853SOL     OW 2557   2.517   1.507   2.604 -0.3011  0.4324  0.2651
  853SOL    HW1 2558   2.477   1.415   2.568  0.0982 -1.2824 -0.1581
  853SOL    HW2 2559   2.504   1.586   2.533  0.5836  0.1992  0.6180
  854SOL     OW 2560   2.421   1.466   1.710  0.1299 -0.6695 -0.4253
  854SOL    HW1 2561   2.457   1.470   1.610  2.2058  1.0501  0.9381
  854SOL    HW2 2562   2.403   1.369   1.742 -0.6012 -0.1917  1.0982
  855SOL     OW 2563   2.056   2.384   0.948 -0.6438  0.1418 -0.3585
  855SOL    HW1 2564   2.108   2.466   0.910  0.9800  3.8437  1.3531
  855SOL    HW2 2565   2.117   2.330   1.015  1.6061  1.9305  0.5514
  856SOL     OW 2566   1.443   1.429   0.820  0.3422 -0.0935 -0.0179
  856SOL    HW1 2567   1.462   1.523   0.854 -2.4478  0.1403  1.8960
  856SOL    HW2 2568   1.380   1.372   0.880  2.0387 -1.6916  0.8387
  857SOL     OW 2569   2.924   2.532   1.051  0.1815 -0.2739 -0.2315
  857SOL    HW1 2570   2.833   2.497   1.090  2.0358 -1.6794 -0.4525
  857SOL    HW2 2571   2.985   2.453   1.033 -1.4239  0.3650 -1.9573
  858SOL     OW 2572   2.283   2.106   1.771 -0.7908 -0.3817 -0.2202
  858SOL    HW1 2573   2.203   2.149   1.720 -1.7109 -3.7269 -0.0556
  858SOL    HW2 2574   2.356   2.051   1.712  2.3049  1.7164  3.1029
  859SOL     OW 2575   2.486   0.453   1.032  0.1174 -0.0717  0.1275
  859SOL    HW1 2576   2.553   0.501   0.963  0.2359  2.8075 -0.6185
  859SOL    HW2 2577   2.525   0.378   1.090  0.2568  0.4640  2.8154
  860SOL     OW 2578   1.901   2.799   0.514  0.3951  0.0352 -0.4375
  860SOL    HW1 2579   1.976   2.755   0.459 -0.6309 -2.5457  1.0777
  860SOL    HW2 2580   1.909   2.903   0.523 -0.9507  1.3073  1.1770
  861SOL     OW 2581   0.974   2.612   2.854 -0.8377  0.4297  0.0192
  861SOL    HW1 2582   1.010   2.706   2.876  3.4050 -0.9837  1.9454
  861SOL    HW2 2583   0.978   2.545   2.934  1.1273  1.9314 -0.0374
  862SOL     OW 2584   2.933   2.518   1.587 -0.2265 -0.7965  0.3255
  862SOL    HW1 2585   2.989   2.576   1.656  2.3992  0.2685 -0.1779
  862SOL    HW2 2586   2.832   2.545   1.584  0.1054  2.0048  1.2421
  863SOL     OW 2587   1.910   2.693   0.180  0.0011 -0.1073  0.2249
  863SOL    HW1 2588   1.980   2.622   0.218 -0.6743 -3.7338 -1.5758
  863SOL    HW2 2589   1.818   2.648   0.178  2.6491 -1.5196  1.2963
  864SOL     OW 2590   1.932   1.089   2.994 -0.3148 -0.0272  0.5613
  864SOL    HW1 2591   1.940   1.083   2.891  1.0353 -1.2327  1.4259
  864SOL    HW2 2592   2.021   1.067   3.041  1.9910  0.5579 -1.5985
  865SOL     OW 2593   2.208   1.718   0.629  0.2368  0.7801  0.5616
  865SOL    HW1 2594   2.213   1.765   0.723  1.5355  0.6767 -0.9167
  865SOL    HW2 2595   2.154   1.625   0.612 -0.5303 -1.4867 -3.9489
  866SOL     OW 2596   2.968   2.802   0.980  0.7346  0.5849 -0.9730
  866SOL    HW1 2597   3.023   2.820   0.896 -0.7494 -0.0290 -1.4449
  866SOL    HW2 2598   2.934   2.706   0.979  0.1137 -0.2698 -0.1434
  867SOL     OW 2599   0.362   1.383   0.852  0.0415 -0.4341  0.0335
  867SOL    HW1 2600   0.371   1.289   0.815 -1.2679  3.3309  0.6278
  867SOL    HW2 2601   0.289   1.441   0.801  0.2868  1.2965  0.5724
  868SOL     OW 2602   0.817   1.910   2.021 -0.7094 -0.1749  0.0848
  868SOL    HW1 2603   0.763   1.868   2.099 -1.4611 -1.9376 -0.2609
  868SOL    HW2 2604   0.789   2.012   2.015 -0.9726  3.9862 -2.2550
  869SOL     OW 2605   2.504   1.971   1.643 -0.4779  0.3740  0.2955
  869SOL    HW1 2606   2.563   1.892   1.651 -2.9017  1.1500  2.6506
  869SOL    HW2 2607   2.471   1.976   1.548 -1.5446 -0.4659  0.0158
  870SOL     OW 2608   2.348   2.547   1.270 -0.7565  0.6468 -0.3412
  870SOL    HW1 2609   2.298   2.471   1.228  0.9207  0.4051  1.2854
  870SOL    HW2 2610   2.421   2.510   1.333  2.6647  0.8353  0.5536
  871SOL     OW 2611   3.006   1.982   0.532 -0.0638 -0.1345  0.0406
  871SOL    HW1 2612   2.944   2.062   0.521  1.3120 -0.5786 -0.7753
  871SOL    HW2 2613   2.977   1.893   0.488  2.1010 -2.5577  1.4228
  872SOL     OW 2614   2.195   0.535   1.713  0.5480 -0.3497 -0.3035
  872SOL    HW1 2615   2.192   0.570   1.815 -2.1000  0.3193  3.4461
  872SOL    HW2 2616   2.285   0.485   1.702 -0.5288 -1.6046  0.1226
  873SOL     OW 2617   1.710   2.117   2.893  0.4183  0.2701  0.1730
  873SOL    HW1 2618   1.701   2.222   2.922  1.7286  1.3817 -1.1471
  873SOL    HW2 2619   1.644   2.077   2.818  1.1660 -0.3538  0.4878
  874SOL     OW 2620   0.606   2.475   0.729  0.4824 -0.6956 -0.5888
  874SOL    HW1 2621   0.587   2.571   0.764  2.3526 -1.4361  0.3204
  874SOL    HW2 2622   0.707   2.448   0.739  2.4362  0.9572  1.2964
  875SOL     OW 2623   2.305   1.590   1.472 -0.9655  0.7833  0.5024
  875SOL    HW1 2624   2.376   1.652   1.509 -0.0164  0.2008  2.5570
  875SOL    HW2 2625   2.281   1.615   1.373 -1.2197  0.2423  1.0232
  876SOL     OW 2626   0.174   2.265   2.767  0.6378  0.0883  1.0260
  876SOL    HW1 2627   0.172   2.198   2.845 -1.1365  0.4141 -1.9682
  876SOL    HW2 2628   0.236   2.347   2.774 -3.6271  1.7668 -1.8497
  877SOL     OW 2629   2.816   2.649   0.647 -0.2373  0.1038  0.8650
  877SOL    HW1 2630   2.842   2.753   0.640  1.4419 -1.3910  1.0861
  877SOL    HW2 2631   2.895   2.589   0.677  0.0870  2.4537 -3.4343
  878SOL     OW 2632   2.699   1.486   2.372 -1.0689 -0.0889  0.5503
  878SOL    HW1 2633   2.729   1.585   2.366 -2.0943 -1.6595 -1.5490
  878SOL    HW2 2634   2.767   1.419   2.417  1.9595  3.5347 -1.7608
  879SOL     OW 2635   2.453   3.050   1.226 -0.2040 -0.4257 -0.6407
  879SOL    HW1 2636   2.485   2.950   1.222 -0.3920  0.6916  1.4267
  879SOL    HW2 2637   2.355   3.053   1.203 -1.3823  0.7805 -0.9675
  880SOL     OW 2638   0.620   0.501   2.217  0.2454 -0.3548 -0.0624
  880SOL    HW1 2639   0.564   0.454   2.291 -0.4991 -1.2417 -1.1999
  880SOL    HW2 2640   0.629   0.449   2.124  2.4679  0.2891  0.8568
  881SOL     OW 2641   0.907   0.074   0.453  0.6233  0.2680 -0.2373
  881SOL    HW1 2642   0.944  -0.023   0.471  0.8810 -1.6984  0.0518
  881SOL    HW2 2643   0.876   0.088   0.356 -1.1203 -0.1611  0.8295
  882SOL     OW 2644   2.760   1.783   1.680 -0.2749 -0.3005  0.1498
  882SOL    HW1 2645   2.808   1.704   1.636 -0.3639  1.3366  0.3968
  882SOL    HW2 2646   2.760   1.780   1.785  2.8008 -2.7781  1.1600
  883SOL     OW 2647   0.926   0.565   0.960 -0.2090  0.1380  0.2199
  883SOL    HW1 2648   0.908   0.635   1.034 -0.9444 -0.0598 -0.4555
  883SOL    HW2 2649   1.022   0.528   0.966 -0.7357  1.4839  0.8701
  884SOL     OW 2650   1.145   1.907   1.058 -0.7211 -0.3525 -0.1687
  884SOL    HW1 2651   1.149   1.872   0.961  1.5233  1.7600  0.8302
  884SOL    HW2 2652   1.066   1.975   1.078 -0.8396  1.0485  0.2997
  885SOL     OW 2653   2.322   1.800   2.297 -0.0363  0.3535 -0.2247
  885SOL    HW1 2654   2.242   1.750   2.339 -0.4520 -0.9805  1.9936
  885SOL    HW2 2655   2.318   1.902   2.303  0.0932  0.4420  1.7143
  886SOL     OW 2656   2.676   0.456   1.830  0.2819 -0.1301  0.6273
  886SOL    HW1 2657   2.732   0.391   1.884 -1.4737  2.6408 -1.5750
  886SOL    HW2 2658   2.724   0.548   1.804 -0.6764 -0.2596 -0.2509
  887SOL     OW 2659   0.209   2.043   1.276  0.5710 -0.0474 -0.2104
  887SOL    HW1 2660   0.124   2.015   1.219 -0.6458  0.8961  1.7441
  887SOL    HW2 2661   0.236   2.141   1.252 -1.4709  1.5068 -1.3263
  888SOL     OW 2662   0.571   1.342   1.472 -0.2047  0.0694 -0.4227
  888SOL    HW1 2663   0.600   1.412   1.397  0.0328  1.8854 -0.9323
  888SOL    HW2 2664   0.570   1.242   1.442 -2.5808  3.2560 -1.4707
  889SOL     OW 2665   0.839   2.408   2.163  0.2302  0.0088  0.3362
  889SOL    HW1 2666   0.766   2.342   2.120 -1.3794  0.2750  4.1778
  889SOL    HW2 2667   0.908   2.448   2.093 -0.2079 -0.4061 -0.1209
  890SOL     OW 2668   2.340   2.426   0.216  0.5261  0.2833  0.3717
  890SOL    HW1 2669   2.401   2.504   0.195 -0.6265 -0.7982 -0.2908
  890SOL    HW2 2670   2.242   2.454   0.239  0.5976  2.9552  3.2700
  891SOL     OW 2671   2.598   1.656   0.720  0.0789  0.1090 -0.1438
  891SOL    HW1 2672   2.569   1.580   0.785 -1.4865 -0.1871 -1.0682
  891SOL    HW2 2673   2.538   1.665   0.636 -0.5912  1.5427  1.1075
  892SOL     OW 2674   0.303   0.284   2.245  0.2881  0.2248 -0.1065
  892SOL    HW1 2675   0.290   0.328   2.154  0.7609 -2.0850  2.0207
  892SOL    HW2 2676   0.376   0.316   2.307  0.4581  0.1133 -2.5723
  893SOL     OW 2677   1.628   0.256   2.733  0.2232 -0.0518  0.8159
  893SOL    HW1 2678   1.708   0.328   2.752  1.8687  2.0635 -0.0057
  893SOL    HW2 2679   1.549   0.306   2.686  1.8661 -0.2644 -0.6998
  894SOL     OW 2680   2.172   2.033   0.043  0.3510 -0.0230 -0.2071
  894SOL    HW1 2681   2.124   1.973  -0.028  0.9171  0.5935 -3.3037
  894SOL    HW2 2682   2.197   1.983   0.132 -0.1513 -2.5418  0.5361
  895SOL     OW 2683   2.802   1.373   0.842 -0.7816 -0.1400  0.2344
  895SOL    HW1 2684   2.849   1.336   0.925 -0.2206  1.5422  1.2234
  895SOL    HW2 2685   2.852   1.458   0.802 -1.9132 -3.6082 -4.3057
  896SOL     OW 2686   1.714   1.809   1.171  0.6245  0.8501  0.0042
  896SOL    HW1 2687   1.788   1.802   1.098 -0.9105  2.2526 -0.9160
  896SOL    HW2 2688   1.663   1.900   1.171 -0.5766  0.3598  0.0711
  897SOL     OW 2689   0.313   0.502   3.060 -0.4743  0.5711  0.1325
  897SOL    HW1 2690   0.265   0.504   2.965 -1.3620  0.6179 -2.7828
  897SOL    HW2 2691   0.400   0.557   3.063  1.2347 -0.7578 -0.9455
  898SOL     OW 2692   0.551   2.923   0.991 -0.6076 -0.2189  0.0201
  898SOL    HW1 2693   0.465   2.957   1.035  0.9531  0.8797  2.1306
  898SOL    HW2 2694   0.633   2.975   1.026  1.2958  0.3884 -2.1202
  899SOL     OW 2695   2.696   0.937   1.273 -0.1601 -0.1089 -0.3995
  899SOL    HW1 2696   2.650   0.926   1.185  1.9462  0.1175  2.9381
  899SOL    HW2 2697   2.793   0.975   1.274 -0.6478 -2.6010  2.4728
  900SOL     OW 2698   0.992   2.370   2.387  0.1983  0.3858  0.0233
  900SOL    HW1 2699   0.909   2.371   2.321 -1.5834 -3.0543  0.3203
  900SOL    HW2 2700   0.982   2.415   2.480  1.2185  0.1433 -1.4169
  901SOL     OW 2701   1.987   2.492   1.343 -0.2679  0.0856 -0.4190
  901SOL    HW1 2702   1.941   2.468   1.252  1.1911 -0.7772  1.6054
  901SOL    HW2 2703   2.074   2.440   1.360  1.9274 -0.3698 -0.4464
  902SOL     OW 2704   2.578   1.665   1.480  0.5759  0.2242  0.3433
  902SOL    HW1 2705   2.625   1.674   1.568 -1.8539 -2.0151  2.9987
  902SOL    HW2 2706   2.629   1.620   1.405 -2.5527 -0.9019  0.5828
  903SOL     OW 2707   0.276   2.473   1.964  0.1429  0.6301 -0.7439
  903SOL    HW1 2708   0.180   2.428   1.976 -0.7744  0.0446 -1.1304
  903SOL    HW2 2709   0.291   2.507   1.871  2.7863 -3.2945  3.3125
  904SOL     OW 2710   1.985   0.796   2.603  0.0493  0.7818  0.4504
  904SOL    HW1 2711   1.898   0.769   2.654  1.5210  0.0863  1.8659
  904SOL    HW2 2712   1.970   0.814   2.500 -3.4774  0.7859 -4.6235
  905SOL     OW 2713   2.834   0.040   2.575  0.4161  0.0815  0.6411
  905SOL    HW1 2714   2.919  -0.014   2.607  1.1408  0.3439 -0.6773
  905SOL    HW2 2715   2.852   0.140   2.543  2.9245  2.4533 -0.5812
  906SOL     OW 2716   0.122   1.854   1.911 -0.0510  0.1209 -0.5040
  906SOL    HW1 2717   0.060   1.821   1.829 -1.7689 -2.6213  0.5704
  906SOL    HW2 2718   0.138   1.954   1.922  0.8028 -0.4352  1.5181
  907SOL     OW 2719   0.195   2.401   1.066 -0.1697  0.6092 -0.0167
  907SOL    HW1 2720   0.268   2.436   1.005 -0.9566 -1.0628  0.9134
  907SOL    HW2 2721   0.106   2.386   1.014 -1.0658 -3.4410 -0.0190
  908SOL     OW 2722   2.687   2.799   0.362 -0.0030 -0.6264 -0.1325
  908SOL    HW1 2723   2.659   2.865   0.289  2.4830  0.4097 -0.7016
  908SOL    HW2 2724   2.699   2.708   0.322 -0.9493  0.3142  1.8760
  909SOL     OW 2725   0.666   0.906   2.641 -0.3516 -0.1764  0.2328
  909SOL    HW1 2726   0.659   0.806   2.625 -0.4098 -1.9026 -0.7751
  909SOL    HW2 2727   0.754   0.945   2.599 -1.8599 -2.4068 -2.6045
  910SOL     OW 2728   1.720   1.776   2.111  0.1952 -0.7429  0.3123
  910SOL    HW1 2729   1.773   1.803   2.024 -0.0384 -2.2208  0.1123
  910SOL    HW2 2730   1.667   1.860   2.146 -0.6087  0.1242  0.3094
  911SOL     OW 2731   1.768   3.041   1.574  0.7276 -0.4247  0.3104
  911SOL    HW1 2732   1.868   3.013   1.539  1.5302 -1.2731 -0.1449
  911SOL    HW2 2733   1.734   2.977   1.651 -2.4629 -1.8439 -0.2319
  912SOL     OW 2734   2.881   0.964   0.760  0.4567 -0.2910 -0.4838
  912SOL    HW1 2735   2.892   0.953   0.864  0.1444  1.5356 -1.1001
  912SOL    HW2 2736   2.798   1.025   0.740  0.9377  1.1796 -0.2131
  913SOL     OW 2737   2.578   1.285   1.551  0.2216 -0.0118 -0.2133
  913SOL    HW1 2738   2.597   1.189   1.588 -0.5167  0.0176  0.8334
  913SOL    HW2 2739   2.616   1.286   1.457 -0.4291  0.3412  2.0370
  914SOL     OW 2740   2.773   0.495   1.274 -0.1227  0.0311 -0.6241
  914SOL    HW1 2741   2.763   0.413   1.339 -1.8320  3.2058 -0.8374
  914SOL    HW2 2742   2.769   0.580   1.331 -2.9185 -1.6116  1.6549
  915SOL     OW 2743   1.182   0.791   1.035  0.6110 -0.0756 -0.0296
  915SOL    HW1 2744   1.244   0.788   1.112 -0.7385 -1.2696 -1.2025
  915SOL    HW2 2745   1.084   0.817   1.061  1.5693 -0.3196  0.1413
  916SOL     OW 2746   0.605   0.024   0.584 -0.3362 -0.1861 -0.2498
  916SOL    HW1 2747   0.584   0.091   0.664 -1.1703 -1.3754  1.1271
  916SOL    HW2 2748   0.590   0.071   0.493  0.2038  0.0618 -0.4001
  917SOL     OW 2749   2.744   2.615   1.863  0.5197  0.1326 -0.0644
  917SOL    HW1 2750   2.666   2.684   1.884 -3.5834  0.5465 -0.2881
  917SOL    HW2 2751   2.825   2.648   1.816 -1.1705 -1.4273  2.1714
  918SOL     OW 2752   1.075   2.189   3.089 -0.1081  0.1835  0.0151
  918SOL    HW1 2753   1.025   2.205   3.183  2.1631 -2.1386  1.9265
  918SOL    HW2 2754   1.152   2.119   3.094  0.2883 -2.1859 -0.7392
  919SOL     OW 2755   0.911   1.576   2.773  0.0256 -0.3225  0.0863
  919SOL    HW1 2756   0.913   1.664   2.717 -0.0439  0.1541 -0.4807
  919SOL    HW2 2757   0.867   1.499   2.719 -0.5837 -0.0267 -0.7136
  920SOL     OW 2758   1.212   2.011   2.459 -0.2538  0.0791  0.1150
  920SOL    HW1 2759   1.144   2.019   2.382  1.4880 -1.1734 -0.4425
  920SOL    HW2 2760   1.221   1.915   2.491 -1.2334 -1.5134 -3.8923
  921SOL     OW 2761   1.054   0.106   2.524  0.3800  0.1160 -0.8469
  921SOL    HW1 2762   1.008   0.018   2.503 -0.3723 -1.3973  0.9956
  921SOL    HW2 2763   1.008   0.188   2.481  2.5309 -2.6258  0.8714
  922SOL     OW 2764   2.146   2.418   2.807  0.2787 -0.6720  0.3000
  922SOL    HW1 2765   2.107   2.321   2.805 -1.5557 -1.3962 -1.0755
  922SOL    HW2 2766   2.113   2.471   2.718  1.2991 -0.4350 -2.4514
  923SOL     OW 2767   1.226   2.711   0.206  0.4916 -0.6671 -0.1483
  923SOL    HW1 2768   1.307   2.748   0.260  0.7447 -0.6002 -2.1493
  923SOL    HW2 2769   1.248   2.627   0.151 -0.3664  2.7399 -0.3044
  924SOL     OW 2770   2.920   1.615   0.079  0.3138  0.2192 -0.1674
  924SOL    HW1 2771   2.836   1.635   0.020 -1.9617 -1.0419  0.6246
  924SOL    HW2 2772   3.000   1.578   0.023  0.6775  0.5028  0.5508
  925SOL     OW 2773   0.065   2.877   1.631 -0.1796 -0.2348  0.4505
  925SOL    HW1 2774  -0.019   2.941   1.648 -5.4599  0.2422 -2.1634
  925SOL    HW2 2775   0.094   2.868   1.534  2.3712 -0.3483  0.7760
  926SOL     OW 2776   1.411   2.899   1.251  0.1913 -0.5409  0.4013
  926SOL    HW1 2777   1.409   2.895   1.145 -1.0367  1.4583 -2.7188
  926SOL    HW2 2778   1.413   2.998   1.284 -0.9684 -0.8430  0.4502
  927SOL     OW 2779   0.252   2.599   1.720 -0.1275 -0.1304 -0.8347
  927SOL    HW1 2780   0.210   2.521   1.670  0.0920  0.7691  0.1797
  927SOL    HW2 2781   0.305   2.664   1.657  1.4983  1.2203  0.7886
  928SOL     OW 2782   1.611   2.039   2.126 -0.0030  0.0421 -0.0578
  928SOL    HW1 2783   1.645   2.133   2.083  1.8101  0.9367  0.1866
  928SOL    HW2 2784   1.513   2.026   2.093  1.3064 -1.4663  0.0277
  929SOL     OW 2785   2.427   2.404   2.866  0.9271 -0.1741  0.4061
  929SOL    HW1 2786   2.323   2.397   2.861  1.6629  0.0143  0.7399
  929SOL    HW2 2787   2.470   2.368   2.778 -1.5050 -0.8344 -0.7492
  930SOL     OW 2788   2.137   1.987   1.059 -1.0890  0.0885 -0.3597
  930SOL    HW1 2789   2.129   1.986   1.165  2.6035 -0.0055  0.6806
  930SOL    HW2 2790   2.230   2.028   1.032 -1.0997  0.1289  1.6611
  931SOL     OW 2791   0.540   1.754   2.657  0.2163 -0.1732  0.4675
  931SOL    HW1 2792   0.592   1.747   2.751 -0.2065  2.6293  1.1161
  931SOL    HW2 2793   0.537   1.666   2.600 -1.4899  0.5792 -2.1970
  932SOL     OW 2794   0.515   0.114   2.950  0.7113 -0.0280 -0.1688
  932SOL    HW1 2795   0.604   0.138   2.905 -0.9792  2.1804 -1.7823
  932SOL    HW2 2796   0.500   0.010   2.964  0.0877 -0.6702 -0.9121
  933SOL     OW 2797   1.057   0.780   2.993 -0.1650  0.8925 -0.0438
  933SOL    HW1 2798   1.134   0.801   3.057  1.7198 -1.2642 -1.0070
  933SOL    HW2 2799   1.023   0.862   2.942 -0.7549  2.0567 -0.4703
  934SOL     OW 2800   0.866   2.972   2.823 -0.1042 -0.1304  0.3109
  934SOL    HW1 2801   0.964   2.941   2.798  2.7585 -2.7522  1.7364
  934SOL    HW2 2802   0.822   2.925   2.898 -1.2249 -2.2026 -2.2947
  935SOL     OW 2803   3.039   0.534   0.862 -0.0140 -0.1500 -0.3604
  935SOL    HW1 2804   3.062   0.481   0.773  3.3561  0.9866 -4.0214
  935SOL    HW2 2805   2.952   0.584   0.844 -0.5807  1.5537 -0.0270
  936SOL     OW 2806   1.131   2.997   0.157 -0.1223 -0.4308 -0.1731
  936SOL    HW1 2807   1.161   3.035   0.061 -2.6377  0.2084 -0.9594
  936SOL    HW2 2808   1.153   2.899   0.165 -0.6748  0.2704  0.1515
  937SOL     OW 2809   1.950   2.709   2.102  0.6001 -0.1022  0.2216
  937SOL    HW1 2810   1.859   2.722   2.150  0.0603  0.0098 -1.2061
  937SOL    HW2 2811   1.936   2.711   1.996 -3.0525  0.5739  1.3069
  938SOL     OW 2812   2.720   2.206   1.499 -0.0598 -0.5925  0.1650
  938SOL    HW1 2813   2.648   2.253   1.556 -0.9256  0.0646  1.0309
  938SOL    HW2 2814   2.783   2.144   1.555 -0.7616 -1.1596 -2.3230
  939SOL     OW 2815   2.763   0.983   2.530 -0.2302  0.6274  0.3859
  939SOL    HW1 2816   2.828   0.903   2.552  2.3654 -1.1242  0.1074
  939SOL    HW2 2817   2.747   1.050   2.603  0.1082 -1.1764 -1.8517
  940SOL     OW 2818   1.047   0.458   2.657 -0.6206  0.1741 -0.5303
  940SOL    HW1 2819   1.102   0.380   2.692 -2.8222  0.8417 -1.0755
  940SOL    HW2 2820   0.954   0.424   2.643  1.7212  1.4419  2.9662
  941SOL     OW 2821   0.038   2.878   2.193 -0.7269  0.2336 -0.0284
  941SOL    HW1 2822   0.006   2.779   2.185  1.2480  1.8570 -3.0497
  941SOL    HW2 2823   0.126   2.897   2.244 -1.5000  0.4296  0.9682
  942SOL     OW 2824   0.140   0.083   2.521  0.4521 -0.1391  0.6902
  942SOL    HW1 2825   0.186   0.099   2.612  3.3693  3.1924  1.0011
  942SOL    HW2 2826   0.136   0.168   2.468  0.1126 -0.5115  0.8480
  943SOL     OW 2827   2.102   1.668   2.404  0.1206 -0.2431 -0.0155
  943SOL    HW1 2828   2.140   1.583   2.452  1.7106 -1.8995 -0.5801
  943SOL    HW2 2829   2.017   1.656   2.342 -1.2003  3.1142 -6.4446
  944SOL     OW 2830   2.190   2.293   1.418  0.1163  0.5104 -0.3389
  944SOL    HW1 2831   2.217   2.385   1.446 -1.2533 -0.8384 -2.4830
  944SOL    HW2 2832   2.147   2.237   1.498  0.0531 -0.4407 -1.0489
  945SOL     OW 2833   0.641   1.427   0.352 -0.7474 -0.6360 -0.3469
  945SOL    HW1 2834   0.673   1.473   0.265 -2.0542  0.6021 -0.2844
  945SOL    HW2 2835   0.703   1.347   0.372 -0.7836  0.0670 -2.1036
  946SOL     OW 2836   0.321   0.975   2.658 -0.3165 -0.0703 -0.7147
  946SOL    HW1 2837   0.257   0.934   2.589  0.3403 -1.8591  0.5000
  946SOL    HW2 2838   0.363   1.066   2.629 -1.6601 -1.2069  1.2081
  947SOL     OW 2839   1.522   0.438   0.156  0.0145  0.5202 -0.6142
  947SOL    HW1 2840   1.568   0.362   0.210 -1.9973  0.4570  0.5137
  947SOL    HW2 2841   1.442   0.409   0.103  1.3293  0.3094 -0.8524
  948SOL     OW 2842   2.018   3.061   2.127  0.4963 -0.5406  0.1474
  948SOL    HW1 2843   1.975   3.048   2.032  0.0217  0.3049  0.2981
  948SOL    HW2 2844   1.977   3.002   2.207  0.2861  0.4269  0.4551
  949SOL     OW 2845   0.677   2.545   0.442  0.4147 -0.3869 -0.4828
  949SOL    HW1 2846   0.661   2.644   0.412  1.9587  0.6184  0.4297
  949SOL    HW2 2847   0.702   2.533   0.541  1.6264  3.8025 -0.7543
  950SOL     OW 2848   0.205   2.109   3.011  0.1432  0.3316 -0.1560
  950SOL    HW1 2849   0.118   2.162   3.010  1.4019  0.6909 -2.8748
  950SOL    HW2 2850   0.205   2.016   3.060 -0.6756 -2.2621 -2.3207
  951SOL     OW 2851   1.139   2.840   2.806 -0.5681  0.6752 -0.1177
  951SOL    HW1 2852   1.137   2.754   2.756 -0.5993  3.0535  2.5158
  951SOL    HW2 2853   1.238   2.872   2.820 -1.0898  0.4660 -0.1818
  952SOL     OW 2854   0.063   1.688   0.478 -1.2057 -0.4973 -0.0984
  952SOL    HW1 2855   0.112   1.771   0.463 -1.6481 -1.5878  1.3032
  952SOL    HW2 2856   0.039   1.666   0.579  2.9694  1.8230  0.1574
  953SOL     OW 2857   2.455   1.764   0.158 -1.0144  0.6941  0.0144
  953SOL    HW1 2858   2.413   1.676   0.189  1.2538  1.2102  0.4185
  953SOL    HW2 2859   2.499   1.769   0.063 -1.5497 -2.5895 -2.2296
  954SOL     OW 2860   2.221   0.491   1.041  0.7603  0.0919 -0.3517
  954SOL    HW1 2861   2.196   0.520   0.943  2.0033 -1.9926  1.4605
  954SOL    HW2 2862   2.322   0.479   1.052  1.6504 -0.9034  2.9531
  955SOL     OW 2863   0.214   2.693   1.245  0.1004  0.1901 -0.4141
  955SOL    HW1 2864   0.142   2.636   1.295  1.3164  2.9267 -0.9222
  955SOL    HW2 2865   0.230   2.659   1.148 -2.1509 -0.6858 -1.7076
  956SOL     OW 2866   2.755   2.479   2.502  0.3449 -0.0095 -0.0926
  956SOL    HW1 2867   2.768   2.384   2.468  0.9641 -0.2702 -2.1082
  956SOL    HW2 2868   2.766   2.552   2.427  0.3250  1.6792 -0.2648
  957SOL     OW 2869   1.556   1.984   2.672 -0.3499 -0.0468  0.2604
  957SOL    HW1 2870   1.530   1.887   2.685  0.6286 -1.7351  2.6602
  957SOL    HW2 2871   1.571   2.018   2.576  0.8956 -0.4832  0.1136
  958SOL     OW 2872   2.657   2.283   2.979  0.1388 -0.1168 -0.3383
  958SOL    HW1 2873   2.569   2.333   2.964  1.1529 -0.7634 -0.4097
  958SOL    HW2 2874   2.656   2.201   3.042 -1.9054 -1.2792 -0.8044
  959SOL     OW 2875   0.262   2.790   0.035  0.0581  0.5080  0.3123
  959SOL    HW1 2876   0.160   2.794   0.021  1.4150  0.5828  0.2754
  959SOL    HW2 2877   0.301   2.707  -0.017 -2.5124  0.8284 -0.2855
  960SOL     OW 2878   1.933   0.448   2.047 -0.4457 -0.0619  0.3173
  960SOL    HW1 2879   1.906   0.525   1.980  0.2804  1.8928 -0.8009
  960SOL    HW2 2880   1.983   0.481   2.129  0.2081  0.2241  0.0845
  961SOL     OW 2881   2.733   1.970   1.025  0.8126  0.8563  0.2727
  961SOL    HW1 2882   2.754   2.057   0.975  2.8085  0.3595  2.1365
  961SOL    HW2 2883   2.687   1.978   1.116 -1.5208 -1.6662  0.3309
  962SOL     OW 2884   1.255   0.949   3.094 -0.4359 -0.2750 -0.4752
  962SOL    HW1 2885   1.251   1.015   3.013 -0.0962 -0.0618  2.7002
  962SOL    HW2 2886   1.243   0.992   3.188  0.8985  0.2562 -0.5157
  963SOL     OW 2887   2.187   2.581   1.926 -0.4876  0.2662  0.0832
  963SOL    HW1 2888   2.191   2.517   2.002 -2.3441 -0.7266 -2.8176
  963SOL    HW2 2889   2.252   2.660   1.933  0.2354 -0.4205  2.0581
  964SOL     OW 2890   2.428   0.372   1.723 -0.3052 -0.3663 -0.2283
  964SOL    HW1 2891   2.524   0.409   1.745 -0.1104 -1.3456 -1.3914
  964SOL    HW2 2892   2.425   0.331   1.626  2.8077 -0.1884 -1.1942
  965SOL     OW 2893   2.668   2.998   0.147 -0.3944  0.2102 -0.7035
  965SOL    HW1 2894   2.755   3.006   0.085  4.6312  2.9586 -1.0500
  965SOL    HW2 2895   2.579   3.007   0.095 -1.1924  1.1961 -0.1107
  966SOL     OW 2896   2.532   2.633   2.218 -0.4026 -0.4989  0.4787
  966SOL    HW1 2897   2.466   2.570   2.168 -0.9986 -0.1971  0.1634
  966SOL    HW2 2898   2.482   2.717   2.254 -0.1209  0.6731 -4.9212
  967SOL     OW 2899   2.713   2.856   2.473  0.2100  0.2412  0.0401
  967SOL    HW1 2900   2.755   2.779   2.416 -0.6829 -2.2488  0.6905
  967SOL    HW2 2901   2.784   2.931   2.488  0.1545 -1.6269  0.7239
  968SOL     OW 2902   1.969   1.044   2.719 -0.1937 -0.4108 -0.0339
  968SOL    HW1 2903   1.927   1.129   2.667 -0.3687  2.7708  0.1840
  968SOL    HW2 2904   1.993   0.970   2.648 -2.8222  0.0179 -3.7480
  969SOL     OW 2905   2.746   2.377   1.179 -0.0235  0.4624 -0.2355
  969SOL    HW1 2906   2.677   2.365   1.100 -1.4976  2.2866  1.9873
  969SOL    HW2 2907   2.805   2.290   1.188 -1.5162 -2.2922 -0.1570
  970SOL     OW 2908   1.123   2.111   1.783 -0.1652 -0.4302  0.0627
  970SOL    HW1 2909   1.017   2.111   1.766 -3.0061  0.2297 -1.8551
  970SOL    HW2 2910   1.141   2.121   1.890 -2.2862 -1.5413  1.5981
  971SOL     OW 2911   2.828   2.121   1.919  0.3807  0.7487 -0.1943
  971SOL    HW1 2912   2.803   2.219   1.944 -1.5503  2.6686 -1.6119
  971SOL    HW2 2913   2.925   2.126   1.879  1.0617 -2.2923 -2.1743
  972SOL     OW 2914   2.069   2.461   0.289 -0.3875  0.6217 -0.3226
  972SOL    HW1 2915   2.030   2.382   0.240  1.1078  0.9716 -0.0937
  972SOL    HW2 2916   2.062   2.452   0.394 -2.4112 -1.0888  1.4870
  973SOL     OW 2917   1.306   1.036   1.865  0.0660 -0.2365 -0.6525
  973SOL    HW1 2918   1.223   1.008   1.809  2.6484  0.9204  0.3887
  973SOL    HW2 2919   1.310   1.142   1.883  1.7514  1.8828  0.3493
  974SOL     OW 2920   1.639   0.552   1.993  0.1612 -0.2482  0.8002
  974SOL    HW1 2921   1.731   0.582   1.961  2.2351  0.5700  2.8759
  974SOL    HW2 2922   1.562   0.619   1.970 -4.6236 -0.3989 -0.1335
  975SOL     OW 2923   2.461   3.056   3.080  0.2261 -0.2326  0.3537
  975SOL    HW1 2924   2.383   3.013   3.136 -1.6928 -0.7439 -0.6783
  975SOL    HW2 2925   2.474   3.020   2.983  1.6331  0.5863  3.3144
  976SOL     OW 2926   1.963   2.915   2.356  0.0656  0.3040  0.2460
  976SOL    HW1 2927   1.904   2.877   2.424  4.5607  0.8943 -0.3593
  976SOL    HW2 2928   2.058   2.914   2.389  1.4348 -1.3552 -1.2031
  977SOL     OW 2929   0.490   0.571   0.992  0.1956 -0.7675 -0.1339
  977SOL    HW1 2930   0.411   0.543   0.929 -0.2002  0.0083 -3.8380
  977SOL    HW2 2931   0.570   0.591   0.934 -3.3243  0.9819  0.7015
   3.10000   3.10000   3.10000
