1000 SPC/Fw water molecules t=   1.55000 step= 1550
 2931
    1SOL     OW    1   2.453   0.363   2.647  0.2739  0.5049 -0.0520
    1SOL    HW1    2   2.440   0.267   2.606 -1.8880 -2.0179 -2.4224
    1SOL    HW2    3   2.517   0.351   2.733 -0.2531 -1.1517  0.5872
    2SOL     OW    4   2.716   2.990   1.393  0.4505 -0.2965 -0.3587
    2SOL    HW1    5   2.804   2.952   1.354 -1.6025  0.7300  1.2157
    2SOL    HW2    6   2.726   3.049   1.473 -0.3363  0.2231 -0.8706
    3SOL     OW    7   2.671   2.544   0.381  0.0249 -0.4017 -0.7435
    3SOL    HW1    8   2.609   2.461   0.400  0.8532  0.1200 -0.4749
    3SOL    HW2    9   2.693   2.599   0.468  2.1058 -0.5245  0.0562
    4SOL     OW   10   1.258   1.544   2.420  0.5945  0.4232  0.4698
    4SOL    HW1   11   1.202   1.514   2.338  0.0581 -0.5897  0.7812
    4SOL    HW2   12   1.256   1.471   2.492 -1.6892  1.8932 -0.8237
    5SOL     OW   13   1.180   1.522   2.977 -0.4786 -0.8044  1.1084
    5SOL    HW1   14   1.250   1.586   3.022 -0.7719  0.7666 -0.0253
    5SOL    HW2   15   1.088   1.564   2.951 -1.3789  0.5653  0.0406
    6SOL     OW   16   0.282   1.801   3.011 -0.2144  0.8132  0.0410
    6SOL    HW1   17   0.190   1.816   3.045 -2.0976 -0.7070 -1.0145
    6SOL    HW2   18   0.321   1.705   3.023  1.8836 -1.9558  1.6789
    7SOL     OW   19   2.466   0.903   1.000  0.2677  0.0254 -0.4237
    7SOL    HW1   20   2.387   0.865   1.055 -0.3893  3.4429 -0.3628
    7SOL    HW2   21   2.465   0.872   0.902  0.3139  2.3658  0.1311
    8SOL     OW   22   0.369   0.671   1.555  0.0465 -0.3996  0.6485
    8SOL    HW1   23   0.455   0.611   1.547 -1.8576 -2.7504 -3.4472
    8SOL    HW2   24   0.364   0.739   1.476  0.6692 -0.2566  0.2216
    9SOL     OW   25   1.165   0.865   2.324 -0.1803  0.1839 -0.2983
    9SOL    HW1   26   1.257   0.894   2.273  1.9622 -0.9824 -1.8261
    9SOL    HW2   27   1.139   0.765   2.310  0.0986 -2.7422  1.0159
   10SOL     OW   28   0.741   1.418   1.248 -0.1229  0.2796 -0.1811
   10SOL    HW1   29   0.648   1.449   1.206  1.0998  0.1305  0.4940
   10SOL    HW2   30   0.808   1.493   1.258  0.0863 -0.2647 -2.5769
   11SOL     OW   31   2.326   2.838   0.858  0.8243  0.4075  0.0760
   11SOL    HW1   32   2.280   2.807   0.941  1.1643  1.3488  1.0844
   11SOL    HW2   33   2.407   2.901   0.878  0.2461  0.4092 -0.0891
   12SOL     OW   34   1.520   0.906   0.385 -0.2700 -0.0607  0.4072
   12SOL    HW1   35   1.434   0.923   0.328 -1.6520  0.9358  0.3196
   12SOL    HW2   36   1.561   0.809   0.377  4.5514  0.8603 -0.8153
   13SOL     OW   37   2.447   0.740   1.792 -0.0681  0.0223 -0.2158
   13SOL    HW1   38   2.399   0.681   1.864  1.9089 -3.0763  1.4277
   13SOL    HW2   39   2.469   0.684   1.704  0.8663 -3.2824  0.3394
   14SOL     OW   40   1.963   3.083   0.598 -0.8210  0.4740 -0.2441
   14SOL    HW1   41   1.870   3.114   0.567  1.3142 -2.0852  0.3539
   14SOL    HW2   42   1.973   3.050   0.697  0.9519  0.2356  1.2860
   15SOL     OW   43   1.881   2.070   2.649 -0.0717  0.1780 -0.0614
   15SOL    HW1   44   1.814   2.057   2.725  0.8786 -1.0023 -1.6343
   15SOL    HW2   45   1.871   1.998   2.573 -0.3166  2.2384 -1.0487
   16SOL     OW   46   1.607   1.744   3.025  0.7451 -0.2393 -0.0714
   16SOL    HW1   47   1.614   1.653   3.070  0.4214  0.7347  0.6386
   16SOL    HW2   48   1.679   1.814   3.053 -0.4063 -2.2145  0.1692
   17SOL     OW   49   0.126   0.432   0.180  0.1925  0.1229 -0.6191
   17SOL    HW1   50   0.220   0.460   0.142  2.2205  2.2011  0.8573
   17SOL    HW2   51   0.059   0.419   0.105 -1.0539  0.3332  0.3131
   18SOL     OW   52   0.881   2.933   2.141 -0.2283  0.3058  0.2872
   18SOL    HW1   53   0.840   2.861   2.211  1.1744 -0.7119 -0.7081
   18SOL    HW2   54   0.960   2.899   2.085 -1.0128 -1.9848  1.0988
   19SOL     OW   55   0.596   0.854   1.917 -0.0916  0.2327 -0.0168
   19SOL    HW1   56   0.652   0.829   1.998 -0.6042  1.1856  0.1811
   19SOL    HW2   57   0.636   0.936   1.866 -0.2043 -0.3387  0.5404
   20SOL     OW   58   0.200   2.857   0.855  0.0767 -0.2789  0.0457
   20SOL    HW1   59   0.096   2.860   0.850 -2.8235 -2.7621  3.3374
   20SOL    HW2   60   0.232   2.762   0.825 -1.1067  0.9595  0.1142
   21SOL     OW   61   2.726   0.317   2.004 -0.5256  0.0340  0.4878
   21SOL    HW1   62   2.684   0.228   1.965 -0.8520  1.9825 -0.6591
   21SOL    HW2   63   2.826   0.308   2.026 -0.6218  1.2800  1.1407
   22SOL     OW   64   2.351   0.196   0.127 -0.3167  0.2350 -0.1241
   22SOL    HW1   65   2.366   0.107   0.064  1.0630 -1.6690 -1.0320
   22SOL    HW2   66   2.281   0.263   0.086  2.2204  0.0005  0.0731
   23SOL     OW   67   2.813   0.553   0.661 -0.5709  0.6865 -0.2403
   23SOL    HW1   68   2.842   0.464   0.611  1.1895 -1.0424 -0.0904
   23SOL    HW2   69   2.810   0.642   0.609  0.3137  1.6012  0.8454
   24SOL     OW   70   0.249   1.858   0.392  0.1385  0.0271  0.1131
   24SOL    HW1   71   0.216   1.945   0.340  0.5983 -0.0265  0.1802
   24SOL    HW2   72   0.349   1.850   0.383  0.1316 -0.8421 -2.3002
   25SOL     OW   73   2.286   0.597   0.197  0.7641  0.1016 -0.2813
   25SOL    HW1   74   2.285   0.581   0.095 -0.8547 -0.3144 -0.3185
   25SOL    HW2   75   2.346   0.528   0.249 -0.1772  1.2401  1.3275
   26SOL     OW   76   2.433   2.150   2.123  0.2896  0.0147 -0.2341
   26SOL    HW1   77   2.523   2.198   2.148  2.2006 -1.4100 -1.3103
   26SOL    HW2   78   2.443   2.095   2.035 -1.5966  0.1588 -0.6792
   27SOL     OW   79   0.588   2.931   0.171  1.2855  0.4634  0.1560
   27SOL    HW1   80   0.676   2.982   0.150 -1.6434  1.2037  0.3871
   27SOL    HW2   81   0.520   2.914   0.095 -2.2197 -1.6712  3.1270
   28SOL     OW   82   1.606   0.145   0.281 -0.0799  0.1949 -0.5576
   28SOL    HW1   83   1.652   0.110   0.198  0.2291 -0.5123  1.9510
   28SOL    HW2   84   1.648   0.239   0.311  0.8645  1.7420  1.3500
   29SOL     OW   85   2.018   0.616   0.287 -0.0662  0.0467 -0.0490
   29SOL    HW1   86   2.000   0.697   0.350 -1.4212 -0.6076  0.2535
   29SOL    HW2   87   2.115   0.603   0.264 -2.0417 -3.2606  1.1734
   30SOL     OW   88   0.169   2.085   0.924 -0.2018  0.3644  0.4251
   30SOL    HW1   89   0.219   2.036   0.850 -2.2389  0.9120 -0.4452
   30SOL    HW2   90   0.065   2.082   0.919  0.7091  0.8174  1.1103
   31SOL     OW   91   2.166   0.048   2.362 -0.1599  0.1553  0.0747
   31SOL    HW1   92   2.152  -0.015   2.442 -1.5091 -1.0735  0.9596
   31SOL    HW2   93   2.089   0.035   2.293 -1.9694  0.3246 -0.7002
   32SOL     OW   94   3.024   3.079   0.297  0.6840  0.2482  0.3867
   32SOL    HW1   95   2.996   2.979   0.305  0.1232 -2.5690  0.8811
   32SOL    HW2   96   3.109   3.107   0.347  1.2531 -2.2511 -0.3863
   33SOL     OW   97   0.897   0.183   0.607  0.1223  0.0693 -0.3799
   33SOL    HW1   98   0.891   0.131   0.513  0.3840 -1.3933 -0.9691
   33SOL    HW2   99   0.976   0.247   0.605  0.4358 -3.2885 -0.2774
   34SOL     OW  100   0.328   2.695   1.044  0.1341  0.2204 -0.8454
   34SOL    HW1  101   0.283   2.769   0.982 -0.9934  1.3707 -1.5105
   34SOL    HW2  102   0.422   2.725   1.086  0.8355 -1.4903  0.4294
   35SOL     OW  103   0.049   0.124   1.890 -0.1539 -0.2482  0.0308
   35SOL    HW1  104   0.091   0.026   1.888 -0.6210  0.2885 -1.0035
   35SOL    HW2  105   0.005   0.142   1.797 -0.8932 -1.1644  1.3003
   36SOL     OW  106   1.896   1.177   1.519  0.1063 -0.2852  0.0363
   36SOL    HW1  107   1.967   1.105   1.537  1.9347  1.8210 -2.3708
   36SOL    HW2  108   1.918   1.231   1.434 -0.8039 -1.6916  1.7751
   37SOL     OW  109   1.127   0.212   0.980  0.3519  0.3657  0.5422
   37SOL    HW1  110   1.144   0.309   0.953 -0.4977  1.6736  2.0975
   37SOL    HW2  111   1.190   0.140   0.938 -2.6934 -1.0975 -0.4440
   38SOL     OW  112   1.149   2.890   2.462  0.0524  0.2201 -0.5406
   38SOL    HW1  113   1.062   2.845   2.509 -3.3580 -0.0202  4.0670
   38SOL    HW2  114   1.137   2.980   2.416  2.7195  1.5406  1.7091
   39SOL     OW  115   2.447   1.400   3.060 -0.6555  0.0548 -0.4039
   39SOL    HW1  116   2.521   1.326   3.068  0.3198 -1.1374  0.2393
   39SOL    HW2  117   2.367   1.388   3.124  3.2834  1.4660  1.8827
   40SOL     OW  118   2.023   2.533   2.605 -0.3192  0.2014 -0.4666
   40SOL    HW1  119   2.002   2.630   2.599 -0.4191  0.4384  1.1140
   40SOL    HW2  120   1.949   2.473   2.564 -0.9789 -2.9080 -1.3041
   41SOL     OW  121   3.028   0.739   2.812  0.1849  0.7438 -0.0488
   41SOL    HW1  122   2.929   0.772   2.817  1.0468 -0.5277 -0.7502
   41SOL    HW2  123   3.041   0.662   2.749 -2.0059  1.9654  1.8299
   42SOL     OW  124   1.798   1.723   0.562  0.0362 -0.0365 -0.0450
   42SOL    HW1  125   1.751   1.630   0.545 -0.5041 -1.6707 -1.6242
   42SOL    HW2  126   1.847   1.753   0.476 -0.9243 -2.4015  0.0750
   43SOL     OW  127   0.456   1.679   1.183 -0.4453  0.2905 -0.5016
   43SOL    HW1  128   0.455   1.585   1.144  1.9796 -1.4131 -2.6984
   43SOL    HW2  129   0.404   1.697   1.272  2.4874 -0.3329  0.3547
   44SOL     OW  130   1.645   2.366   2.977  0.3644  0.1475 -0.1043
   44SOL    HW1  131   1.555   2.420   2.994 -1.0368 -1.9543 -0.2176
   44SOL    HW2  132   1.688   2.382   2.880  0.0574 -1.9220 -2.5746
   45SOL     OW  133   0.349   1.907   2.559  0.0455 -0.1900  0.1028
   45SOL    HW1  134   0.283   1.907   2.476 -1.3890  0.1488 -1.2791
   45SOL    HW2  135   0.429   1.833   2.557 -0.2218 -0.4169 -0.3267
   46SOL     OW  136   1.220   0.740   0.285 -0.5914  0.5481 -0.0311
   46SOL    HW1  137   1.256   0.796   0.209  1.2445 -0.2287 -0.2956
   46SOL    HW2  138   1.191   0.646   0.257 -1.0424  2.1436  0.2045
   47SOL     OW  139   0.162   2.438   1.542 -0.3105 -0.2649  0.2170
   47SOL    HW1  140   0.135   2.358   1.605  1.5382  0.5357  0.2004
   47SOL    HW2  141   0.190   2.405   1.443  0.0130 -0.3000 -0.8454
   48SOL     OW  142   2.663   0.647   0.140 -0.3809  0.7012  0.0762
   48SOL    HW1  143   2.632   0.659   0.241  0.5417  0.6780 -1.3950
   48SOL    HW2  144   2.768   0.676   0.130  1.7974 -0.7345  1.5707
   49SOL     OW  145   0.373   0.839   1.774  0.7215  0.1250  0.9128
   49SOL    HW1  146   0.460   0.835   1.830  1.3022 -1.1805  2.4906
   49SOL    HW2  147   0.376   0.764   1.702 -0.3804 -0.0021  0.7276
   50SOL     OW  148   1.745   1.145   0.298  0.2355 -0.0974 -0.2695
   50SOL    HW1  149   1.762   1.046   0.278  0.9934  0.7020 -0.1477
   50SOL    HW2  150   1.677   1.154   0.377  0.2729 -0.8992  0.6393
   51SOL     OW  151   3.017   1.768   0.274 -0.0192  0.4170  0.5988
   51SOL    HW1  152   2.955   1.711   0.215  2.5779  0.1909  0.5963
   51SOL    HW2  153   3.095   1.716   0.320  2.6059  2.6933  1.1431
   52SOL     OW  154   0.769   2.147   0.617 -0.4819  0.1247 -0.8548
   52SOL    HW1  155   0.676   2.130   0.581  0.7958  0.4893  0.4346
   52SOL    HW2  156   0.801   2.075   0.689  2.8715 -2.1217 -1.1566
   53SOL     OW  157   0.231   0.415   1.517  0.1016  0.0168  0.4525
   53SOL    HW1  158   0.293   0.495   1.542 -0.6042  2.7363  1.6656
   53SOL    HW2  159   0.186   0.421   1.424  0.2171 -0.2718  1.3990
   54SOL     OW  160   1.725   0.469  -0.005 -0.1657 -0.1989  0.1054
   54SOL    HW1  161   1.806   0.420   0.046  0.0628 -0.9097  2.7355
   54SOL    HW2  162   1.641   0.461   0.055  0.4188 -0.8508 -0.2123
   55SOL     OW  163   0.725   2.905   0.636 -0.1629 -0.8607 -0.8145
   55SOL    HW1  164   0.667   2.979   0.593 -1.1867 -1.9285 -1.1466
   55SOL    HW2  165   0.826   2.922   0.613  1.4573  0.6513  1.9301
   56SOL     OW  166   0.582   1.573   3.054  0.0100  0.1351 -0.3787
   56SOL    HW1  167   0.517   1.598   3.136 -0.7418 -3.1163  0.8161
   56SOL    HW2  168   0.546   1.486   3.003 -0.5952 -1.5669 -0.1478
   57SOL     OW  169   1.730   2.497   2.365 -0.1205 -0.5790 -0.5861
   57SOL    HW1  170   1.783   2.411   2.372  0.4701 -0.1347 -0.4622
   57SOL    HW2  171   1.672   2.504   2.451  3.1234  0.9731 -0.6615
   58SOL     OW  172   0.666   0.235   1.106  0.3413  0.2677  0.1677
   58SOL    HW1  173   0.576   0.244   1.157 -1.5189  2.9746 -0.1467
   58SOL    HW2  174   0.719   0.146   1.123  0.4156  0.2703  2.2443
   59SOL     OW  175   0.463   2.400   2.721  0.2008  0.2873 -0.2983
   59SOL    HW1  176   0.458   2.294   2.721  2.8538  1.5533  3.5666
   59SOL    HW2  177   0.555   2.434   2.702 -0.5261  1.0453  1.4044
   60SOL     OW  178   2.327   2.079   2.362 -0.1244 -0.6988  0.4577
   60SOL    HW1  179   2.376   2.114   2.274 -0.2621  0.2529  0.2798
   60SOL    HW2  180   2.351   2.133   2.451  0.2601 -0.9458 -0.1610
   61SOL     OW  181   1.198   0.631   0.534 -0.1456 -0.0650 -0.0085
   61SOL    HW1  182   1.102   0.653   0.579 -0.9469 -1.1680  0.1150
   61SOL    HW2  183   1.210   0.671   0.434  2.4037 -1.8045 -5.3260
   62SOL     OW  184   2.747   1.713   2.733  0.2453  0.0233 -0.3553
   62SOL    HW1  185   2.696   1.644   2.682  0.1549 -0.7939  1.8610
   62SOL    HW2  186   2.826   1.680   2.791 -1.5743  2.0829 -0.0034
   63SOL     OW  187   0.491   0.929   0.205 -0.0788  0.2028 -0.1150
   63SOL    HW1  188   0.531   0.956   0.114 -1.5867 -0.4961 -0.1659
   63SOL    HW2  189   0.528   0.981   0.287 -1.1469  2.1177 -0.3191
   64SOL     OW  190   3.012   0.584   2.295 -0.1945 -0.2751  0.1575
   64SOL    HW1  191   2.966   0.653   2.361 -0.6675 -0.0623  2.4911
   64SOL    HW2  192   3.038   0.628   2.201  0.6422 -0.1322 -2.8245
   65SOL     OW  193   0.242   1.442   0.728  0.3313 -0.1686  0.0239
   65SOL    HW1  194   0.224   1.517   0.802  0.6308  0.0868 -1.3649
   65SOL    HW2  195   0.314   1.466   0.660 -1.0894  0.9943 -0.2942
   66SOL     OW  196   2.572   0.334   0.541  0.6214 -0.4952  0.5333
   66SOL    HW1  197   2.677   0.334   0.547  3.8836 -1.3892  0.0652
   66SOL    HW2  198   2.527   0.290   0.620  1.9804  1.8661 -0.1822
   67SOL     OW  199   0.628   2.502   1.458  0.1604  0.6061 -0.4353
   67SOL    HW1  200   0.709   2.468   1.519 -1.9267  1.6679  1.7654
   67SOL    HW2  201   0.548   2.437   1.455 -0.1742 -0.1241  1.3785
   68SOL     OW  202   0.947   1.017   2.450 -0.9225 -0.1781  0.0193
   68SOL    HW1  203   1.017   0.974   2.391 -0.5476  3.9880  1.9806
   68SOL    HW2  204   0.881   1.082   2.400  0.4132 -2.0515 -2.5081
   69SOL     OW  205   0.805   2.747   2.310 -0.3039 -0.0934 -0.0532
   69SOL    HW1  206   0.841   2.663   2.255  2.2597 -1.8806  1.5264
   69SOL    HW2  207   0.701   2.740   2.327 -0.8381 -1.3212  4.1523
   70SOL     OW  208   0.431   0.137   2.495  0.1906 -0.0709  0.3076
   70SOL    HW1  209   0.370   0.119   2.575 -0.0283  3.3725  3.1001
   70SOL    HW2  210   0.508   0.071   2.497  2.2218  1.1549 -1.1510
   71SOL     OW  211   1.038   1.763   0.315 -0.2381  0.2860 -0.1156
   71SOL    HW1  212   1.019   1.700   0.395 -0.3604  1.8967  2.9994
   71SOL    HW2  213   0.965   1.770   0.242  2.4931 -1.0208  0.6826
   72SOL     OW  214   1.841   0.230   2.166  0.2447  0.3310 -0.2479
   72SOL    HW1  215   1.910   0.307   2.148  1.1726 -1.0505  0.7958
   72SOL    HW2  216   1.889   0.131   2.163  1.9961 -1.1155 -0.5283
   73SOL     OW  217   2.779   2.181   2.475  0.3424  0.1321  0.8699
   73SOL    HW1  218   2.762   2.085   2.434  0.8020  0.6817 -3.0273
   73SOL    HW2  219   2.813   2.180   2.574 -0.8378  0.6752  1.0689
   74SOL     OW  220   2.710   2.876   2.151 -0.1527  0.2210 -0.3170
   74SOL    HW1  221   2.667   2.856   2.238 -1.6504 -3.0814 -2.4510
   74SOL    HW2  222   2.781   2.952   2.159 -1.1670  0.7225  0.3107
   75SOL     OW  223   0.970   0.838   1.118 -0.1944 -0.4708  0.0626
   75SOL    HW1  224   0.871   0.874   1.110 -1.8025 -0.0857  1.7569
   75SOL    HW2  225   0.997   0.845   1.217 -2.2916 -1.2124  0.7981
   76SOL     OW  226   1.869   1.269   2.556  0.0772 -0.0573  0.5137
   76SOL    HW1  227   1.764   1.265   2.572 -3.2131 -0.9368 -0.4058
   76SOL    HW2  228   1.911   1.360   2.581  0.5767  1.8101  0.2052
   77SOL     OW  229   2.882   0.927   1.050  0.1484 -0.0462 -0.0586
   77SOL    HW1  230   2.858   0.825   1.045 -0.1643  2.9253  0.6205
   77SOL    HW2  231   2.978   0.939   1.089 -0.6749 -0.4546  2.0014
   78SOL     OW  232   2.001   1.340   1.310 -0.0974 -0.2416  0.8594
   78SOL    HW1  233   2.101   1.348   1.278  1.2010 -1.1460 -4.6183
   78SOL    HW2  234   1.946   1.424   1.288 -2.2297 -0.2713 -0.0519
   79SOL     OW  235   0.691   1.424   0.847  0.6941 -0.3472  0.3217
   79SOL    HW1  236   0.591   1.388   0.862 -4.6646 -0.1048 -2.9168
   79SOL    HW2  237   0.743   1.350   0.794 -0.3270 -0.5337 -2.6848
   80SOL     OW  238   0.558   0.483   1.540 -0.4063  0.3978 -0.0809
   80SOL    HW1  239   0.613   0.539   1.471  2.5827  0.6180 -2.2678
   80SOL    HW2  240   0.602   0.391   1.560  2.7322 -0.3711 -0.5191
   81SOL     OW  241   1.024   1.234   2.565  0.8645 -0.1730 -0.3361
   81SOL    HW1  242   1.002   1.133   2.539  1.2421 -2.4702  0.9392
   81SOL    HW2  243   0.963   1.306   2.516 -1.4693  0.7518  1.1448
   82SOL     OW  244   0.931   2.876   1.520 -0.3000  0.1395  0.1269
   82SOL    HW1  245   0.955   2.780   1.496  1.3643  0.6065 -2.2701
   82SOL    HW2  246   1.001   2.946   1.496 -0.2277  2.2029 -1.4925
   83SOL     OW  247   2.569   2.371   0.886  0.6686 -0.2485  0.1481
   83SOL    HW1  248   2.507   2.335   0.809 -1.9683 -3.0881 -0.6932
   83SOL    HW2  249   2.588   2.476   0.879 -1.2129 -1.0384 -0.5884
   84SOL     OW  250   0.745   0.016   2.294  0.6002 -0.2005 -0.5057
   84SOL    HW1  251   0.705  -0.024   2.380  1.9335  1.8948 -0.2844
   84SOL    HW2  252   0.790  -0.059   2.232  0.5568 -3.0458  0.0874
   85SOL     OW  253   0.289   1.693   1.402  0.0153  0.7488 -0.6502
   85SOL    HW1  254   0.235   1.773   1.447 -0.2846 -2.3016  0.4900
   85SOL    HW2  255   0.339   1.630   1.470  0.0065 -1.3785 -0.0675
   86SOL     OW  256   0.387   1.032   1.554  0.1417  0.1241 -1.1172
   86SOL    HW1  257   0.392   0.973   1.471  1.9781 -1.7293  0.3890
   86SOL    HW2  258   0.440   0.994   1.632  0.3015  0.4730  1.9227
   87SOL     OW  259   1.594   0.662   0.333 -0.2568 -0.0300 -0.3768
   87SOL    HW1  260   1.685   0.694   0.322 -1.9647  0.5926  0.0475
   87SOL    HW2  261   1.559   0.629   0.244  1.2415  0.3164  0.4254
   88SOL     OW  262   1.610   1.383   0.272  0.1545 -0.3862  0.1748
   88SOL    HW1  263   1.683   1.310   0.260 -1.5862  0.4650  1.6620
   88SOL    HW2  264   1.515   1.345   0.263  0.7134 -0.3393 -0.1820
   89SOL     OW  265   0.035   0.331   0.586  0.4353  0.2871  0.2262
   89SOL    HW1  266   0.099   0.248   0.595 -2.4627  0.3211 -1.0848
   89SOL    HW2  267  -0.059   0.308   0.565 -0.9527  2.2026  2.3752
   90SOL     OW  268   0.779   1.548   0.151 -0.0443 -0.9034 -0.0100
   90SOL    HW1  269   0.852   1.477   0.165 -0.2266  0.7575 -1.8505
   90SOL    HW2  270   0.717   1.531   0.068  0.2925 -1.6242 -1.4395
   91SOL     OW  271   1.205   1.504   1.779  0.3307 -0.2675 -0.1822
   91SOL    HW1  272   1.210   1.582   1.852  1.9549  0.6956 -1.9162
   91SOL    HW2  273   1.148   1.423   1.813 -1.6743 -0.9087 -2.6801
   92SOL     OW  274   0.014   0.994   1.211 -0.1406 -0.0755  0.0065
   92SOL    HW1  275   0.064   1.082   1.186 -0.6181 -0.5982  1.4536
   92SOL    HW2  276   0.004   0.982   1.313 -1.2305  2.0849 -0.1625
   93SOL     OW  277   3.077   2.661   0.073  0.6025 -0.0483  0.7489
   93SOL    HW1  278   3.060   2.669  -0.027 -2.6572 -3.3628 -0.3022
   93SOL    HW2  279   3.130   2.579   0.102  3.2676  1.3356  1.5893
   94SOL     OW  280   1.494   1.311   1.680  0.0100 -0.4864 -0.4110
   94SOL    HW1  281   1.587   1.267   1.692  0.6544 -0.8388 -0.1750
   94SOL    HW2  282   1.501   1.414   1.696 -0.5256 -1.1075  0.2339
   95SOL     OW  283   1.371   2.462   2.918 -0.5394  0.2638 -0.0171
   95SOL    HW1  284   1.268   2.465   2.949 -3.0417  2.6852 -3.5913
   95SOL    HW2  285   1.394   2.373   2.877  1.3049  2.2775  0.2019
   96SOL     OW  286   0.572   2.152   1.288 -0.0470  0.6742  0.3901
   96SOL    HW1  287   0.500   2.130   1.213 -0.2611 -0.6141 -0.3291
   96SOL    HW2  288   0.586   2.078   1.362  0.0232  0.7880  0.2348
   97SOL     OW  289   0.268   1.640   2.440 -0.1461 -0.5311  0.1034
   97SOL    HW1  290   0.239   1.722   2.386  2.2861  3.0421  1.2512
   97SOL    HW2  291   0.256   1.656   2.546  0.2273  1.4702  1.3637
   98SOL     OW  292   2.194   1.666   1.223 -0.6503  0.2543 -0.4349
   98SOL    HW1  293   2.119   1.670   1.157  1.7272 -2.5904 -0.3256
   98SOL    HW2  294   2.277   1.634   1.174 -0.1943  0.5372 -2.0395
   99SOL     OW  295   2.599   2.105   1.268  0.7156 -0.5000 -0.5054
   99SOL    HW1  296   2.703   2.111   1.293 -0.5025 -1.0952 -0.6740
   99SOL    HW2  297   2.561   2.017   1.306 -1.5332  0.7175  1.6474
  100SOL     OW  298   2.304   0.383   2.112  0.2839 -0.6366 -0.0384
  100SOL    HW1  299   2.254   0.363   2.202 -1.8362 -0.5700 -0.2558
  100SOL    HW2  300   2.393   0.432   2.130 -0.6334  1.1029 -0.9438
  101SOL     OW  301   0.388   1.525   0.532 -0.1123 -0.0907  0.0015
  101SOL    HW1  302   0.412   1.619   0.556 -1.5460 -0.7851 -2.5412
  101SOL    HW2  303   0.448   1.472   0.466  0.4973 -2.5397  0.3196
  102SOL     OW  304   2.267   1.078   0.824 -0.6296 -0.0390 -0.5057
  102SOL    HW1  305   2.223   0.994   0.785  0.7759 -1.3150  0.7188
  102SOL    HW2  306   2.359   1.107   0.776 -1.5859 -0.0544  0.5686
  103SOL     OW  307   2.263   0.040   0.349  0.1831 -0.3290 -0.3340
  103SOL    HW1  308   2.276   0.113   0.276 -2.4012  1.5413  1.2513
  103SOL    HW2  309   2.350   0.034   0.406 -0.5811 -1.7138 -1.5635
  104SOL     OW  310   0.006   1.778   2.167 -0.6700  0.1835  1.0879
  104SOL    HW1  311   0.061   1.782   2.076 -3.0765  0.3803  0.4394
  104SOL    HW2  312  -0.094   1.797   2.151 -0.5048  0.8697 -2.6430
  105SOL     OW  313   1.401   2.114   0.775 -0.0107  0.2432 -0.5611
  105SOL    HW1  314   1.384   2.142   0.677  2.5397 -0.0355  0.5417
  105SOL    HW2  315   1.368   2.015   0.786 -0.4083 -0.7310 -0.3219
  106SOL     OW  316   2.150   0.398   1.429 -0.4794 -0.0170 -0.4598
  106SOL    HW1  317   2.095   0.312   1.401 -0.8095  0.1817 -1.0133
  106SOL    HW2  318   2.143   0.436   1.526  0.7360  0.9047 -1.0435
  107SOL     OW  319   1.952   2.912   1.155 -0.1305 -0.3912  0.3527
  107SOL    HW1  320   1.883   2.954   1.218  0.3192 -0.1150 -0.6600
  107SOL    HW2  321   1.907   2.834   1.105  0.3244 -2.7244 -0.5282
  108SOL     OW  322   0.824   2.832   1.201 -0.1243 -0.3012  0.0424
  108SOL    HW1  323   0.842   2.729   1.197 -0.3789  0.2591 -1.1642
  108SOL    HW2  324   0.909   2.881   1.234 -0.1609 -0.8135 -1.1214
  109SOL     OW  325   2.135   0.214   0.707 -0.3159  0.3285  0.2277
  109SOL    HW1  326   2.077   0.145   0.654  0.7985  1.1903 -1.1025
  109SOL    HW2  327   2.091   0.237   0.797 -1.1532  1.4380 -1.3698
  110SOL     OW  328   0.483   2.757   2.773  0.2704 -0.2509  0.7678
  110SOL    HW1  329   0.461   2.799   2.679  0.6340  1.9641 -1.5810
  110SOL    HW2  330   0.573   2.711   2.786 -0.7422  2.1551  0.2138
  111SOL     OW  331   1.281   0.509   2.281  0.1098  0.8521 -0.2623
  111SOL    HW1  332   1.181   0.524   2.310  0.8330  0.3311  1.3339
  111SOL    HW2  333   1.323   0.433   2.335  0.7195 -1.7178  2.5531
  112SOL     OW  334   1.742   0.379   1.491 -1.0815  0.7986 -0.0410
  112SOL    HW1  335   1.720   0.415   1.393  0.1376  0.9999 -0.5006
  112SOL    HW2  336   1.664   0.387   1.554  0.0711  1.2052  2.6139
  113SOL     OW  337   2.377   1.732   1.799 -0.3544  0.6003  0.1067
  113SOL    HW1  338   2.392   1.633   1.764  1.1790 -1.1048  1.0533
  113SOL    HW2  339   2.384   1.743   1.903  1.1771  0.1202  1.0286
  114SOL     OW  340   0.336   0.455   1.174 -0.2612 -0.0912 -1.0798
  114SOL    HW1  341   0.392   0.541   1.156 -0.8806 -1.4214 -0.0830
  114SOL    HW2  342   0.251   0.455   1.124  2.5914 -0.6701 -0.6982
  115SOL     OW  343   2.676   1.557   1.212  0.1258  0.1706  0.5529
  115SOL    HW1  344   2.681   1.452   1.238 -1.1242 -2.2711  0.8340
  115SOL    HW2  345   2.765   1.583   1.167  1.1277  1.7677  1.6954
  116SOL     OW  346   1.914   0.923   0.760 -0.0357  0.3306  0.0769
  116SOL    HW1  347   1.825   0.890   0.726  2.8202  2.4599 -0.0443
  116SOL    HW2  348   1.910   1.020   0.784  1.0707 -2.6130  0.3089
  117SOL     OW  349   1.133   0.362   0.584 -0.1567  0.2986 -0.5769
  117SOL    HW1  350   1.143   0.470   0.572  1.3266  5.3505  0.3702
  117SOL    HW2  351   1.135   0.321   0.488 -2.4894 -1.4232 -1.0660
  118SOL     OW  352   1.133   1.224   1.053 -0.0112  0.0265 -0.2383
  118SOL    HW1  353   1.069   1.194   1.129  0.9856 -1.7485  1.4372
  118SOL    HW2  354   1.178   1.314   1.073 -2.3753 -0.7599 -2.9238
  119SOL     OW  355   1.848   1.575   2.181 -0.2163  0.4782 -0.1194
  119SOL    HW1  356   1.818   1.625   2.094 -1.7635  1.5136 -0.8691
  119SOL    HW2  357   1.944   1.594   2.216 -0.7479  1.4330 -3.4365
  120SOL     OW  358   2.902   2.797   0.252  0.3966  0.4054  0.4303
  120SOL    HW1  359   2.963   2.756   0.176  0.0470  0.1592 -2.9508
  120SOL    HW2  360   2.803   2.763   0.239  2.2878 -1.8714 -1.6048
  121SOL     OW  361   1.991   0.758   2.285  0.5166  0.7293  0.5104
  121SOL    HW1  362   2.069   0.820   2.267  0.9852 -1.2789  2.5863
  121SOL    HW2  363   2.004   0.655   2.267 -0.0585 -0.6253  0.5224
  122SOL     OW  364   2.626   2.480   1.320  0.4843  0.2097  0.0685
  122SOL    HW1  365   2.697   2.421   1.270 -1.4012 -3.2339 -0.8265
  122SOL    HW2  366   2.612   2.443   1.410  1.2537  0.6611 -1.1003
  123SOL     OW  367   1.692   0.136   1.777 -0.1176  0.2752  0.1250
  123SOL    HW1  368   1.704   0.067   1.700  0.1818 -3.6722 -0.1853
  123SOL    HW2  369   1.781   0.194   1.776  0.6709  0.1562  0.8108
  124SOL     OW  370   3.069   0.422   1.107  0.4501 -0.7462  0.2703
  124SOL    HW1  371   3.007   0.492   1.152 -2.8416 -1.2752 -0.1724
  124SOL    HW2  372   3.082   0.443   1.006 -1.1142  0.4637  0.8745
  125SOL     OW  373   0.859   1.944   0.800 -0.3653  0.4305 -0.8929
  125SOL    HW1  374   0.944   1.880   0.780 -2.9803 -0.0657 -2.2722
  125SOL    HW2  375   0.884   2.016   0.868  0.3690  0.7203  2.2347
  126SOL     OW  376   1.878   2.305   2.501  0.0287 -0.0215  0.0765
  126SOL    HW1  377   1.907   2.275   2.408 -0.1291  3.2280  1.5679
  126SOL    HW2  378   1.884   2.227   2.570 -0.2065  1.7743  1.9041
  127SOL     OW  379   0.881   0.988   0.210  0.4791  0.0007  0.0370
  127SOL    HW1  380   0.940   1.005   0.292 -0.6220 -1.7016 -0.7840
  127SOL    HW2  381   0.872   0.883   0.198 -0.8686 -1.7155 -0.5679
  128SOL     OW  382   0.964   0.230   1.450  0.4431 -0.0418  0.2417
  128SOL    HW1  383   0.951   0.293   1.367 -1.5626 -0.8850 -3.1567
  128SOL    HW2  384   0.898   0.151   1.447 -3.8333 -0.6535 -3.0855
  129SOL     OW  385   1.869   0.736   1.867  0.2921 -0.0006 -0.2917
  129SOL    HW1  386   1.861   0.732   1.767  0.6769  0.8271 -2.2282
  129SOL    HW2  387   1.902   0.824   1.912 -0.3668 -1.9022  0.0086
  130SOL     OW  388   1.327   2.294   0.964 -0.2709 -0.0938  0.0206
  130SOL    HW1  389   1.351   2.223   0.892 -0.4182  0.6817  0.3222
  130SOL    HW2  390   1.407   2.356   0.985  0.4091  1.8746  1.0102
  131SOL     OW  391   3.087   1.401   1.377 -0.5320 -0.4369  0.4704
  131SOL    HW1  392   3.009   1.342   1.410 -0.2179  0.5259 -0.1768
  131SOL    HW2  393   3.172   1.339   1.360  2.4773  0.4241  0.1609
  132SOL     OW  394   2.035   2.376   0.529 -0.0238  0.5884  0.2681
  132SOL    HW1  395   1.940   2.412   0.521 -0.8065 -1.4432 -1.9874
  132SOL    HW2  396   2.046   2.304   0.606 -1.1793  1.2542  0.7380
  133SOL     OW  397   1.714   2.471   2.728 -0.5324  0.1220 -0.2042
  133SOL    HW1  398   1.630   2.477   2.664 -2.3055  1.5328 -0.3843
  133SOL    HW2  399   1.793   2.539   2.704 -2.5806  2.7032  1.2261
  134SOL     OW  400   2.696   2.388   1.584 -0.1753 -0.2121  0.1397
  134SOL    HW1  401   2.655   2.342   1.667 -1.7023 -0.5092  1.0518
  134SOL    HW2  402   2.739   2.480   1.598  0.4143 -0.3775 -0.9882
  135SOL     OW  403   0.760   1.440   2.664  0.8445  0.8604  0.5243
  135SOL    HW1  404   0.735   1.349   2.709  0.3441 -0.4870  2.5248
  135SOL    HW2  405   0.758   1.423   2.565 -0.6494  0.2571  1.4840
  136SOL     OW  406   1.196   2.042   0.393 -0.1975 -0.1316  0.3963
  136SOL    HW1  407   1.125   2.109   0.436 -0.0608  1.1122 -0.0827
  136SOL    HW2  408   1.150   1.955   0.353  1.1443  0.7842 -0.2929
  137SOL     OW  409   0.402   1.210   2.268 -0.2329 -0.4397  0.6510
  137SOL    HW1  410   0.312   1.194   2.317  2.2930  0.4195  0.7879
  137SOL    HW2  411   0.460   1.128   2.265  1.5783  0.5915  2.6263
  138SOL     OW  412   2.413   1.535   0.268 -0.2940 -0.0976 -0.0002
  138SOL    HW1  413   2.368   1.517   0.180  1.2215  0.7162 -0.1182
  138SOL    HW2  414   2.432   1.442   0.313 -0.8609 -0.2553  0.4057
  139SOL     OW  415   1.851   2.672   1.575  0.9546 -0.7482 -0.4033
  139SOL    HW1  416   1.752   2.707   1.568  0.0009  2.4158 -0.0531
  139SOL    HW2  417   1.877   2.601   1.507  1.9274 -0.3983  1.2681
  140SOL     OW  418   2.989   2.961   2.588 -0.0955 -0.3859 -0.2094
  140SOL    HW1  419   3.055   2.883   2.570 -1.9291 -1.7573 -0.0757
  140SOL    HW2  420   3.023   3.050   2.544 -2.6890 -2.6790 -0.8579
  141SOL     OW  421   1.305   1.611   1.551  0.0300  0.1570  0.1862
  141SOL    HW1  422   1.238   1.690   1.538 -1.2106 -0.0808 -2.0142
  141SOL    HW2  423   1.276   1.544   1.626  0.4373  0.5759 -0.9206
  142SOL     OW  424   1.506   0.668   2.212  0.1782 -0.2540  0.3877
  142SOL    HW1  425   1.483   0.694   2.116 -1.3476  1.7407  0.0749
  142SOL    HW2  426   1.425   0.621   2.255 -0.5842 -0.1438  1.4908
  143SOL     OW  427   2.748   0.801   0.542 -0.4236 -0.3117  0.0494
  143SOL    HW1  428   2.791   0.845   0.465 -0.9580 -0.3968  0.0282
  143SOL    HW2  429   2.788   0.824   0.637 -0.6431  0.6479  1.2391
  144SOL     OW  430   2.919   1.207   1.472  0.1513  0.8970 -0.7870
  144SOL    HW1  431   2.856   1.195   1.556 -0.4191  0.0550 -0.7148
  144SOL    HW2  432   3.004   1.147   1.476 -2.4977  0.2259  1.9986
  145SOL     OW  433   0.863   1.840   0.119 -0.0275  0.0983  0.2440
  145SOL    HW1  434   0.918   1.877   0.042  0.2246  1.6953 -0.8201
  145SOL    HW2  435   0.829   1.741   0.108  2.9235 -1.4492 -0.1682
  146SOL     OW  436   2.469   0.660   1.519  0.2018 -0.6008  0.2519
  146SOL    HW1  437   2.437   0.577   1.466 -0.1785  0.9839 -1.0824
  146SOL    HW2  438   2.445   0.749   1.474  1.3050  1.2752  0.5609
  147SOL     OW  439   1.118   2.502   0.594  0.3522  0.1126 -0.0038
  147SOL    HW1  440   1.055   2.558   0.533  0.1746 -0.6035  0.7921
  147SOL    HW2  441   1.208   2.478   0.546 -2.3309  0.0656 -2.4392
  148SOL     OW  442   1.592   1.474   3.087 -0.6993 -0.1377  0.3841
  148SOL    HW1  443   1.617   1.378   3.053 -1.1729 -2.0696 -2.0114
  148SOL    HW2  444   1.571   1.465   3.188  2.9301  1.0617  2.3102
  149SOL     OW  445   0.667   1.491   1.973 -0.2456 -0.0220 -0.0069
  149SOL    HW1  446   0.574   1.452   2.006 -1.0489 -3.6140 -1.6116
  149SOL    HW2  447   0.689   1.456   1.877 -0.4805 -2.3382 -1.5039
  150SOL     OW  448   3.052   1.213   0.966  0.7652  0.7934 -0.2863
  150SOL    HW1  449   3.138   1.214   1.022  0.9189 -1.5089  0.7594
  150SOL    HW2  450   2.997   1.122   0.971 -2.1003 -2.1466  0.7160
  151SOL     OW  451   0.237   0.861   2.051 -1.3758  0.4149  0.1488
  151SOL    HW1  452   0.253   0.932   1.981 -1.2968 -0.3460 -1.8881
  151SOL    HW2  453   0.264   0.765   2.020 -0.6241  1.5822 -0.7200
  152SOL     OW  454   1.459   1.843   1.083  0.4421  0.0015 -0.1534
  152SOL    HW1  455   1.500   1.938   1.088  0.4506  1.6000 -0.5316
  152SOL    HW2  456   1.361   1.857   1.065  0.0592 -0.8989  0.8362
  153SOL     OW  457   0.139   1.531   0.229  0.1010 -0.4350  0.4580
  153SOL    HW1  458   0.146   1.428   0.222 -2.8108  1.0013  0.0688
  153SOL    HW2  459   0.116   1.565   0.328 -0.4283 -1.0737  0.8593
  154SOL     OW  460   2.303   1.768   2.749  0.5779  0.1408 -0.3781
  154SOL    HW1  461   2.335   1.676   2.777  0.7553 -1.8759 -1.5165
  154SOL    HW2  462   2.375   1.830   2.701  1.9778 -0.1202  0.3576
  155SOL     OW  463   2.406   1.281   0.398 -0.3332  0.0072  0.7960
  155SOL    HW1  464   2.494   1.254   0.355 -0.7306  0.7665 -0.2765
  155SOL    HW2  465   2.341   1.198   0.401 -0.5880  0.2006 -1.4186
  156SOL     OW  466   2.440   0.816   0.700  1.7178 -0.4991  0.4180
  156SOL    HW1  467   2.336   0.834   0.713  1.4580 -1.8846 -0.8657
  156SOL    HW2  468   2.474   0.878   0.626  1.5390 -2.1114 -3.1147
  157SOL     OW  469   1.225   3.022   3.050  0.7630  0.6067  0.5606
  157SOL    HW1  470   1.296   2.972   3.000 -3.0999 -1.8941  1.3602
  157SOL    HW2  471   1.252   3.116   3.084 -0.2360 -0.2109  0.7226
  158SOL     OW  472   1.068   1.902   1.843 -0.0295  1.0876 -0.2570
  158SOL    HW1  473   1.097   2.000   1.829  2.5997 -0.6035  0.6351
  158SOL    HW2  474   0.979   1.903   1.902 -1.3751  2.3020  0.2332
  159SOL     OW  475   0.825   0.428   1.261 -0.9464 -0.3441  0.4575
  159SOL    HW1  476   0.758   0.494   1.304 -1.8054 -0.5101  1.6906
  159SOL    HW2  477   0.782   0.383   1.172 -1.2776  2.3357 -2.4772
  160SOL     OW  478   1.413   2.442   1.450 -0.4339  0.0584  0.0302
  160SOL    HW1  479   1.361   2.363   1.490  1.7724 -0.5929 -0.9285
  160SOL    HW2  480   1.498   2.414   1.398 -0.4427 -2.2739  1.3043
  161SOL     OW  481   3.055   2.657   0.435  0.1939 -0.1322  0.2574
  161SOL    HW1  482   3.011   2.561   0.428  0.1349 -3.4702 -1.2156
  161SOL    HW2  483   3.010   2.723   0.375  0.0877  3.0416  0.4768
  162SOL     OW  484   2.539   1.880   0.442 -0.0047  0.1544 -0.3781
  162SOL    HW1  485   2.556   1.857   0.342  0.6537 -1.0134  2.8810
  162SOL    HW2  486   2.471   1.807   0.475 -0.8845  4.9278  2.7522
  163SOL     OW  487   1.951   2.706   0.764  0.3103  0.0482 -0.5886
  163SOL    HW1  488   1.962   2.721   0.663 -0.6367  1.4657 -0.4925
  163SOL    HW2  489   2.016   2.641   0.806  2.1938  2.9696  0.0615
  164SOL     OW  490  -0.002   0.155   1.214 -0.3158 -0.3599  0.0169
  164SOL    HW1  491   0.016   0.253   1.187  0.1099  1.0395 -1.9765
  164SOL    HW2  492   0.059   0.139   1.296  0.2668 -0.4750  0.1202
  165SOL     OW  493   1.113   1.438   0.662 -0.3786  0.6164 -0.2335
  165SOL    HW1  494   1.124   1.493   0.747 -2.0044  1.9304 -2.1397
  165SOL    HW2  495   1.035   1.473   0.603 -3.1006  0.0595  1.6784
  166SOL     OW  496   1.520   1.007   1.810 -0.2227 -0.2960 -0.0075
  166SOL    HW1  497   1.447   1.077   1.826  0.9224  2.1770 -0.7041
  166SOL    HW2  498   1.614   1.045   1.792  0.4375 -1.7391 -0.7279
  167SOL     OW  499   0.673   1.990   1.517 -0.4154  0.3068  0.1279
  167SOL    HW1  500   0.741   2.040   1.583  1.3820 -1.1038  2.8855
  167SOL    HW2  501   0.672   1.887   1.529  0.2831  0.3841  1.0402
  168SOL     OW  502   1.597   2.338   0.155  0.0170  0.1534 -0.0903
  168SOL    HW1  503   1.650   2.344   0.065  3.7717 -0.7562 -0.1066
  168SOL    HW2  504   1.662   2.330   0.235 -0.4068  1.0841  0.6752
  169SOL     OW  505   0.039   2.553   2.205 -0.6399  0.2253 -0.2444
  169SOL    HW1  506   0.043   2.495   2.122 -0.7081 -0.7583  3.5582
  169SOL    HW2  507   0.096   2.525   2.289 -1.6123  3.7276  2.6885
  170SOL     OW  508   1.173   0.153   2.039 -0.3139 -0.2569  0.3818
  170SOL    HW1  509   1.259   0.193   2.083 -1.3107  0.8520 -0.4206
  170SOL    HW2  510   1.180   0.151   1.936 -0.5902  1.8241 -1.7762
  171SOL     OW  511   0.195   0.843   2.403  0.2886 -0.4065  0.8296
  171SOL    HW1  512   0.096   0.849   2.424  2.0918  2.8360 -0.0600
  171SOL    HW2  513   0.213   0.851   2.298 -2.9364  0.8053 -1.6050
  172SOL     OW  514   0.978   1.040   2.874 -0.0299  0.0302  0.2282
  172SOL    HW1  515   0.936   1.065   2.963  1.2316 -1.9766 -0.7977
  172SOL    HW2  516   0.920   1.072   2.793  2.0536 -0.2850  0.3732
  173SOL     OW  517   0.453   2.545   0.074 -1.0248  0.6717 -0.3579
  173SOL    HW1  518   0.510   2.479   0.015  2.1830  2.8389 -4.0779
  173SOL    HW2  519   0.408   2.500   0.157 -3.2455  1.4040  2.2625
  174SOL     OW  520   1.507   2.886   1.065 -0.0026  0.4345 -0.2284
  174SOL    HW1  521   1.540   2.917   0.972 -2.4863 -1.1522  0.3524
  174SOL    HW2  522   1.448   2.800   1.063 -0.4574 -0.9532  2.1480
  175SOL     OW  523   0.406   3.063   1.719  0.2225 -0.2654 -0.0302
  175SOL    HW1  524   0.482   3.076   1.794  0.3013 -0.1338  1.4771
  175SOL    HW2  525   0.367   3.151   1.674  0.1924 -0.8693 -1.7407
  176SOL     OW  526   2.659   0.401   0.000  0.3615 -0.2942 -0.8172
  176SOL    HW1  527   2.659   0.493   0.050 -0.1807 -0.1457  0.0756
  176SOL    HW2  528   2.660   0.317   0.062 -1.9888 -0.9068  0.9260
  177SOL     OW  529   0.375   0.296   0.918 -0.5673 -0.4694 -0.2773
  177SOL    HW1  530   0.335   0.199   0.900 -0.6137 -0.1865 -2.1916
  177SOL    HW2  531   0.436   0.306   1.006  4.2446 -1.3391 -2.0538
  178SOL     OW  532   0.054   2.754   2.582 -0.1678  0.2246  0.0065
  178SOL    HW1  533  -0.014   2.675   2.574  0.4091 -0.3164  1.7784
  178SOL    HW2  534   0.126   2.744   2.657  0.0201 -0.6487  0.9978
  179SOL     OW  535   2.958   1.556   1.148 -0.3749  0.2525  0.5160
  179SOL    HW1  536   3.023   1.630   1.112  4.6986  1.3484 -0.9756
  179SOL    HW2  537   3.003   1.475   1.197 -2.6064 -1.1591  0.9267
  180SOL     OW  538   0.219   1.376   1.767  0.6743 -0.0966 -0.7850
  180SOL    HW1  539   0.292   1.322   1.809 -1.0407  0.2015 -1.7019
  180SOL    HW2  540   0.166   1.436   1.833  0.0920  1.3780  1.1886
  181SOL     OW  541   2.952   1.871   2.526  0.3992 -0.9688 -0.1127
  181SOL    HW1  542   2.972   1.961   2.473 -1.8781  1.9693 -1.3993
  181SOL    HW2  543   2.850   1.843   2.516  0.3393  1.0011 -0.8703
  182SOL     OW  544   2.267   1.363   1.225  0.0950  0.6524 -0.8984
  182SOL    HW1  545   2.262   1.277   1.166  0.7421 -0.7545 -1.1454
  182SOL    HW2  546   2.303   1.436   1.165 -2.2271  0.1093 -1.0851
  183SOL     OW  547   1.418   2.286   2.430  0.1974 -0.2601 -0.5882
  183SOL    HW1  548   1.357   2.208   2.464  1.8687 -1.0619 -0.7919
  183SOL    HW2  549   1.519   2.255   2.423  1.8011  2.0227  1.2031
  184SOL     OW  550   2.166   0.824   0.762 -0.0843  0.4121  0.2893
  184SOL    HW1  551   2.067   0.857   0.779  1.0053 -0.8959  1.1080
  184SOL    HW2  552   2.166   0.718   0.736 -0.9881  0.9251 -0.9861
  185SOL     OW  553   1.578   2.781   1.998 -0.2726  0.2345 -0.4190
  185SOL    HW1  554   1.504   2.855   2.001 -2.2968 -1.0627  1.0360
  185SOL    HW2  555   1.608   2.750   2.095  0.3455 -2.0329  0.1247
  186SOL     OW  556   0.109   2.193   1.718  0.1996  0.3631  0.4949
  186SOL    HW1  557   0.068   2.244   1.801  2.2215 -0.6175  1.3075
  186SOL    HW2  558   0.181   2.124   1.744 -2.4481  3.2808  1.4361
  187SOL     OW  559   1.376   0.657   1.652  0.1931  0.1317  0.3139
  187SOL    HW1  560   1.459   0.701   1.608  0.5299  0.9644 -0.3871
  187SOL    HW2  561   1.389   0.579   1.712 -3.0066  4.0305 -0.7626
  188SOL     OW  562   2.727   2.697   1.484 -0.4130 -0.2973  0.3158
  188SOL    HW1  563   2.709   2.797   1.508  0.0046  1.6481  1.7373
  188SOL    HW2  564   2.722   2.676   1.386 -0.0055 -0.3233  1.6302
  189SOL     OW  565   0.926   1.234   1.357  0.3644  0.0021 -0.7060
  189SOL    HW1  566   0.971   1.282   1.437 -0.9387 -0.5126  0.4285
  189SOL    HW2  567   0.875   1.296   1.294 -0.1862  2.0290  2.9398
  190SOL     OW  568   1.453   1.871   1.525  0.1399 -0.1437 -0.1277
  190SOL    HW1  569   1.460   1.769   1.516 -1.9563 -0.5393  1.3852
  190SOL    HW2  570   1.464   1.913   1.620 -2.9118  2.4277  0.1789
  191SOL     OW  571   0.872   0.763   1.515 -0.5904 -0.2824 -0.2376
  191SOL    HW1  572   0.918   0.709   1.589  2.9390  1.0661 -0.9041
  191SOL    HW2  573   0.937   0.820   1.456  2.0152  1.9661 -2.2632
  192SOL     OW  574   1.836   2.439   1.114  0.6476  0.2520  0.4803
  192SOL    HW1  575   1.738   2.433   1.073 -0.3613 -2.1484  2.0754
  192SOL    HW2  576   1.909   2.378   1.076  1.5898 -4.7556  2.0158
  193SOL     OW  577   0.571   0.579   0.473  0.3579  0.3344 -0.3571
  193SOL    HW1  578   0.515   0.488   0.488 -3.6181 -2.5789  0.9960
  193SOL    HW2  579   0.617   0.576   0.381  1.8258 -1.7425  1.3888
  194SOL     OW  580   0.362   0.874   1.316  0.4836  0.1153 -0.3107
  194SOL    HW1  581   0.298   0.836   1.244  1.0646 -1.6429 -2.7216
  194SOL    HW2  582   0.459   0.885   1.280 -2.0829  1.1264 -2.7249
  195SOL     OW  583   0.992   2.936   0.554  0.6810  0.1414 -0.1530
  195SOL    HW1  584   0.984   2.839   0.516 -0.5199 -0.7084  0.3807
  195SOL    HW2  585   1.083   2.979   0.529 -1.4088  2.2518 -1.3335
  196SOL     OW  586   0.284   1.389   1.317 -0.1221 -0.6713 -0.2843
  196SOL    HW1  587   0.260   1.478   1.366  1.8766  1.0277 -1.0896
  196SOL    HW2  588   0.294   1.304   1.379 -0.4355 -1.7380  1.5597
  197SOL     OW  589   0.839   2.017   0.317  0.4870 -0.6065  0.3349
  197SOL    HW1  590   0.841   1.965   0.408 -1.1424  0.8573 -0.0560
  197SOL    HW2  591   0.857   1.954   0.238  1.2922 -0.1330 -1.6703
  198SOL     OW  592   0.300   1.248   0.336 -0.4611 -0.2392  0.2731
  198SOL    HW1  593   0.201   1.231   0.335  0.1675  0.3640 -1.9021
  198SOL    HW2  594   0.319   1.323   0.400  2.2473 -0.1197 -1.6133
  199SOL     OW  595   2.169   0.484   2.583  0.2700 -0.0710  0.4183
  199SOL    HW1  596   2.079   0.449   2.616 -0.6456  1.2080 -0.5280
  199SOL    HW2  597   2.252   0.457   2.639 -1.7257  2.4539 -0.4292
  200SOL     OW  598   3.039   2.923   0.792 -0.2627 -0.0919 -0.8748
  200SOL    HW1  599   3.036   3.024   0.823 -0.4232 -1.2198 -0.8741
  200SOL    HW2  600   3.008   2.912   0.693 -0.9901  1.8166  0.9755
  201SOL     OW  601   0.927   0.675   0.505 -0.6455  0.1086  0.0257
  201SOL    HW1  602   0.897   0.759   0.557 -0.2225  0.9315 -1.1226
  201SOL    HW2  603   0.870   0.587   0.534 -1.3945 -3.8192  0.1266
  202SOL     OW  604   0.444   1.234   1.855  0.1046  0.0955  0.7412
  202SOL    HW1  605   0.527   1.177   1.825 -2.9313 -0.2247  1.3887
  202SOL    HW2  606   0.454   1.295   1.943  0.5541 -0.0717  0.6126
  203SOL     OW  607   0.679   0.234   1.594  1.0224 -1.1326  0.0249
  203SOL    HW1  608   0.713   0.164   1.518 -2.2285 -3.6490 -0.7834
  203SOL    HW2  609   0.734   0.222   1.683 -2.6663 -4.2255  1.2543
  204SOL     OW  610   2.082   1.798   2.939  0.2626  0.1325 -0.3214
  204SOL    HW1  611   2.067   1.695   2.967 -1.5579  2.3540  0.0900
  204SOL    HW2  612   2.163   1.813   2.874  1.4403  1.5621  0.8589
  205SOL     OW  613   1.834   1.909   3.085  0.3048  0.2604  0.1929
  205SOL    HW1  614   1.912   1.876   3.023 -0.2878 -3.3519  0.9427
  205SOL    HW2  615   1.776   1.980   3.031 -2.0611  1.8417 -0.5330
  206SOL     OW  616   2.391   2.730   0.262 -0.1655 -0.5210 -0.2658
  206SOL    HW1  617   2.358   2.683   0.350  0.5189  1.9870  2.2439
  206SOL    HW2  618   2.488   2.717   0.225 -1.6070 -1.1294 -0.6707
  207SOL     OW  619   0.701   1.759   2.875 -0.4651 -0.6194  0.9600
  207SOL    HW1  620   0.800   1.729   2.871 -1.5546 -0.0952 -0.6615
  207SOL    HW2  621   0.642   1.690   2.918  0.9496  0.0008  1.2972
  208SOL     OW  622   1.011   1.566   1.242  0.0047 -0.5188  0.3550
  208SOL    HW1  623   0.963   1.555   1.153 -1.8459  1.1906  1.3039
  208SOL    HW2  624   1.018   1.664   1.272  0.1681 -0.3410  2.3243
  209SOL     OW  625   0.270   0.958   3.086  0.1517 -0.1572 -0.2791
  209SOL    HW1  626   0.231   0.877   3.040  0.6555  1.8699 -2.7647
  209SOL    HW2  627   0.243   0.972   3.187  0.5645  1.5497  0.3823
  210SOL     OW  628   1.705   0.519   1.264  0.0888  0.2035  0.4036
  210SOL    HW1  629   1.630   0.576   1.223 -2.6711  1.2210  0.7261
  210SOL    HW2  630   1.802   0.535   1.227 -1.8015  1.5929  1.5643
  211SOL     OW  631   2.122   1.010   1.583  0.2209 -0.3335 -0.2979
  211SOL    HW1  632   2.155   0.963   1.667 -1.0589  3.9531  1.0533
  211SOL    HW2  633   2.199   1.068   1.543  5.0062  0.4400  1.2703
  212SOL     OW  634   0.037   0.988   1.496  0.4444  0.2310 -0.0765
  212SOL    HW1  635   0.112   1.056   1.519  0.5593 -1.2529 -1.3808
  212SOL    HW2  636   0.040   0.905   1.559  2.0316  2.0599 -0.5833
  213SOL     OW  637   2.832   0.156   0.313  0.1380 -0.6613  0.5448
  213SOL    HW1  638   2.918   0.103   0.314 -0.8404  2.7757  0.1252
  213SOL    HW2  639   2.748   0.104   0.281  2.9895 -4.7593  0.9910
  214SOL     OW  640   2.166   0.335   2.351 -0.4236 -0.6331 -0.0874
  214SOL    HW1  641   2.182   0.393   2.435  1.0800  1.0236  0.9630
  214SOL    HW2  642   2.158   0.236   2.364 -0.2793  2.0166  1.2977
  215SOL     OW  643   1.637   2.220   2.042 -0.1109 -0.4741 -0.3925
  215SOL    HW1  644   1.737   2.252   2.029  2.1336 -0.7007 -1.9788
  215SOL    HW2  645   1.564   2.290   2.013 -3.6292  0.0803 -0.0768
  216SOL     OW  646   2.186   0.548   0.714  0.9582 -0.5549  0.8232
  216SOL    HW1  647   2.132   0.538   0.619 -0.5122  1.6547 -0.5720
  216SOL    HW2  648   2.254   0.473   0.723 -4.9238  0.8751  1.7365
  217SOL     OW  649   0.926   2.793   2.575 -0.2101 -0.1609  0.8010
  217SOL    HW1  650   0.909   2.727   2.656 -0.0097 -1.0705  1.1804
  217SOL    HW2  651   0.880   2.775   2.487  1.6643  0.2512  2.9201
  218SOL     OW  652   1.888   1.464   0.044 -0.4565  0.1046  0.0667
  218SOL    HW1  653   1.785   1.478   0.030 -0.7840 -0.2182 -0.3309
  218SOL    HW2  654   1.916   1.382   0.099  1.3306  0.3653  0.0660
  219SOL     OW  655   2.451   1.262   2.544  0.0918  0.0454  0.3281
  219SOL    HW1  656   2.489   1.199   2.470 -0.6807 -0.4725 -2.6978
  219SOL    HW2  657   2.462   1.228   2.642  3.3117 -0.1201  0.1212
  220SOL     OW  658   1.415   1.024   1.372 -0.5673  0.6629 -0.0106
  220SOL    HW1  659   1.514   0.989   1.381 -0.5673  1.0354 -1.1241
  220SOL    HW2  660   1.392   1.045   1.271  1.0128 -1.0102 -0.7738
  221SOL     OW  661   1.385   0.958   2.188  0.3443  0.4221 -0.5921
  221SOL    HW1  662   1.340   1.006   2.112  1.2104 -1.4482  0.7422
  221SOL    HW2  663   1.440   1.024   2.251  1.2040  0.7887  0.1649
  222SOL     OW  664   1.140   0.092   1.230  0.4976  0.0406 -0.2622
  222SOL    HW1  665   1.194   0.157   1.289 -1.8137  1.2771 -0.2569
  222SOL    HW2  666   1.122   0.132   1.134 -0.9494  1.9813 -1.3342
  223SOL     OW  667   2.712   0.958   2.102  0.0564  0.0390 -0.0418
  223SOL    HW1  668   2.663   1.039   2.060 -0.9759  0.2704 -0.1376
  223SOL    HW2  669   2.782   0.987   2.177 -1.1440  0.8410  3.0597
  224SOL     OW  670   1.596   1.026   2.772 -0.4813 -0.3437  0.4492
  224SOL    HW1  671   1.596   0.966   2.689  1.5184  2.2921  0.4837
  224SOL    HW2  672   1.608   1.124   2.745  0.3537  2.5727 -0.4592
  225SOL     OW  673   2.952   2.698   2.888 -0.3970 -0.3985  0.4338
  225SOL    HW1  674   2.870   2.695   2.822  0.7648  1.3178 -1.4786
  225SOL    HW2  675   3.002   2.794   2.892  1.9110  2.1928  0.1639
  226SOL     OW  676   2.382   1.492   2.805  0.1401 -0.0870  0.3158
  226SOL    HW1  677   2.465   1.482   2.745  1.5783 -0.5479  2.2394
  226SOL    HW2  678   2.385   1.458   2.904  0.5942 -0.3578  0.6062
  227SOL     OW  679   0.844   0.237   3.100  0.0358 -0.3702  0.0408
  227SOL    HW1  680   0.886   0.327   3.074 -3.4762  0.0214  2.2639
  227SOL    HW2  681   0.804   0.189   3.017  1.4486  0.4499  1.5908
  228SOL     OW  682   2.423   0.659   2.862  0.3854  0.2061  0.3986
  228SOL    HW1  683   2.418   0.719   2.776 -2.1922 -0.1811  0.3000
  228SOL    HW2  684   2.487   0.581   2.853  1.0431 -0.8611 -0.4227
  229SOL     OW  685   0.444   0.498   1.822 -0.6159 -0.2510 -0.1406
  229SOL    HW1  686   0.522   0.450   1.872  2.1514  3.1255  1.6824
  229SOL    HW2  687   0.466   0.510   1.726  0.3040 -0.7901  2.7868
  230SOL     OW  688   1.894   1.198   1.978  0.4510  0.2366 -0.1979
  230SOL    HW1  689   1.960   1.274   1.949 -0.5936  1.9737 -1.5870
  230SOL    HW2  690   1.826   1.242   2.045  0.8883  0.3562  0.1899
  231SOL     OW  691   0.613   1.069   3.092  0.1396  0.1918  0.2341
  231SOL    HW1  692   0.717   1.091   3.090 -2.9593 -0.9270 -1.7994
  231SOL    HW2  693   0.560   1.144   3.135 -3.6456 -0.1437 -0.2353
  232SOL     OW  694   2.408   3.039   2.845  0.1481  0.4078 -0.2620
  232SOL    HW1  695   2.484   2.965   2.858 -0.3171  0.6830 -0.4823
  232SOL    HW2  696   2.416   3.098   2.758  0.1468  2.2870  0.4327
  233SOL     OW  697   1.728   1.186   1.120  0.0192 -0.2734 -0.7980
  233SOL    HW1  698   1.816   1.240   1.124  2.1639  0.5245 -1.3936
  233SOL    HW2  699   1.747   1.090   1.084 -0.8561 -2.9759  2.0858
  234SOL     OW  700   1.655   2.588   1.820  0.0461 -0.1899  0.0457
  234SOL    HW1  701   1.613   2.641   1.892  0.8931 -0.2057 -3.0540
  234SOL    HW2  702   1.620   2.490   1.819 -0.5003  0.8129  2.4247
  235SOL     OW  703   3.088   2.937   2.883  0.2465  0.8241 -0.7878
  235SOL    HW1  704   3.044   2.953   2.791 -1.2101  0.1964  2.9790
  235SOL    HW2  705   3.062   3.006   2.954 -1.6026 -2.4665  1.4267
  236SOL     OW  706   2.957   0.681   0.059  0.0936 -0.2982 -0.4894
  236SOL    HW1  707   3.010   0.727   0.143  0.5142 -0.2817  0.9479
  236SOL    HW2  708   3.020   0.615   0.006 -0.8378 -0.8746 -2.3011
  237SOL     OW  709   1.452   1.620   0.906  0.8320  0.1194  0.2077
  237SOL    HW1  710   1.547   1.572   0.910  2.5301  1.0023 -0.6429
  237SOL    HW2  711   1.449   1.704   0.966  0.8925 -1.9787 -0.6105
  238SOL     OW  712   1.904   1.212   0.788 -0.1616 -0.3431  0.1229
  238SOL    HW1  713   1.954   1.265   0.863 -0.5217  0.6209 -0.2069
  238SOL    HW2  714   1.795   1.238   0.793 -3.5032 -0.9550 -0.3415
  239SOL     OW  715   2.039   0.228   2.729 -0.3999 -0.1666  0.5445
  239SOL    HW1  716   2.076   0.193   2.817 -2.2020  2.2735 -0.6338
  239SOL    HW2  717   1.960   0.297   2.746 -3.5028  1.1377  2.2668
  240SOL     OW  718   0.908   0.711   0.245  0.5302  0.5213 -0.0697
  240SOL    HW1  719   0.975   0.648   0.189  0.6528 -0.3048 -0.4525
  240SOL    HW2  720   0.920   0.694   0.352 -0.2496 -0.6699  1.5729
  241SOL     OW  721   0.573   0.146   0.344 -0.1272  0.1328 -0.0949
  241SOL    HW1  722   0.642   0.221   0.334  0.5845 -0.7383 -2.9779
  241SOL    HW2  723   0.531   0.113   0.254 -2.7021 -3.3681 -1.5978
  242SOL     OW  724   0.638   2.560   1.190 -0.0559  0.6883  0.4226
  242SOL    HW1  725   0.646   2.524   1.290  1.2692 -3.1489  0.2560
  242SOL    HW2  726   0.602   2.657   1.180 -1.1319 -2.4938  0.0498
  243SOL     OW  727   1.045   0.588   2.374  0.7008 -0.2044 -0.2207
  243SOL    HW1  728   0.951   0.637   2.361 -0.8055 -0.1654  0.1622
  243SOL    HW2  729   1.053   0.557   2.473 -1.9665 -0.2916 -2.7462
  244SOL     OW  730   2.733   1.933   2.344 -0.9613  0.1839  0.0116
  244SOL    HW1  731   2.785   1.909   2.258 -1.2064 -0.7677  0.1023
  244SOL    HW2  732   2.665   1.861   2.374 -4.2677 -0.1718 -0.2633
  245SOL     OW  733   2.174   0.995   2.153  0.0898  0.3675  0.4367
  245SOL    HW1  734   2.262   0.953   2.190 -0.3377  0.7872  0.5492
  245SOL    HW2  735   2.146   1.085   2.198 -3.5187 -0.6386  0.1235
  246SOL     OW  736   0.267   2.837   1.817  0.4013  0.4458  0.0173
  246SOL    HW1  737   0.174   2.825   1.771 -0.1546  0.8159  2.5438
  246SOL    HW2  738   0.317   2.919   1.787  2.5676  1.3480  1.3619
  247SOL     OW  739   2.224   0.597   3.029 -0.1464 -0.2496 -0.2091
  247SOL    HW1  740   2.294   0.618   2.958  0.0569 -3.2167  2.5456
  247SOL    HW2  741   2.164   0.678   3.063 -1.0204 -1.2005  0.1564
  248SOL     OW  742   2.193   1.843   1.625  0.0520 -0.6846 -0.2346
  248SOL    HW1  743   2.271   1.811   1.684  2.3332  1.0404 -1.7485
  248SOL    HW2  744   2.102   1.786   1.627  0.4901 -0.2909 -2.2837
  249SOL     OW  745   1.906   1.898   1.808 -0.1217 -0.0302 -0.4902
  249SOL    HW1  746   1.914   1.828   1.730 -0.3281  0.7081 -0.9972
  249SOL    HW2  747   1.996   1.911   1.861 -0.5069 -0.4510  0.6794
  250SOL     OW  748   0.998   0.710   1.884 -0.6787  0.3121  0.1432
  250SOL    HW1  749   1.024   0.647   1.961 -0.9689 -3.9658 -0.2532
  250SOL    HW2  750   1.004   0.663   1.792 -3.8438  0.2364  2.2815
  251SOL     OW  751   3.068   1.579   2.512 -0.1415 -0.6961 -0.3618
  251SOL    HW1  752   3.068   1.678   2.476 -0.5859 -2.0398  0.0323
  251SOL    HW2  753   2.972   1.538   2.522 -1.6407  0.5142  1.2302
  252SOL     OW  754   1.539   0.843   1.550 -0.1524  0.4964  0.2271
  252SOL    HW1  755   1.622   0.871   1.494 -0.2118 -0.1928 -0.2445
  252SOL    HW2  756   1.515   0.904   1.631 -1.3747 -0.2668  1.2961
  253SOL     OW  757   0.933   1.514   0.476 -0.4448 -0.1580 -0.3988
  253SOL    HW1  758   0.934   1.458   0.392  1.4585  2.4211 -0.5321
  253SOL    HW2  759   0.842   1.520   0.526  4.0572 -1.0745  1.6034
  254SOL     OW  760   2.029   2.204   1.600 -0.0329  0.0224 -0.3380
  254SOL    HW1  761   1.995   2.120   1.540  2.1557 -1.8934 -1.0211
  254SOL    HW2  762   1.956   2.247   1.660 -0.6875 -0.5625  0.0023
  255SOL     OW  763   0.131   1.145   2.937  0.1124 -0.1277  0.0158
  255SOL    HW1  764   0.147   1.244   2.914  0.1951  2.8602 -0.3123
  255SOL    HW2  765   0.210   1.084   2.963 -3.1139 -0.8572 -0.5029
  256SOL     OW  766   2.827   1.396   1.809 -0.0779  0.7634 -0.5345
  256SOL    HW1  767   2.764   1.459   1.764  0.7754 -2.6582 -0.9305
  256SOL    HW2  768   2.826   1.296   1.774  0.0966 -1.4592  1.4724
  257SOL     OW  769   0.808   0.210   1.826 -0.1053  0.6391  0.7243
  257SOL    HW1  770   0.875   0.266   1.778  1.1450  2.6730  0.1224
  257SOL    HW2  771   0.844   0.116   1.856 -0.6575  0.8393 -0.7339
  258SOL     OW  772   2.958   1.144   0.535 -0.3310  0.2604  0.1648
  258SOL    HW1  773   2.881   1.180   0.588  0.8890 -2.8693  2.5308
  258SOL    HW2  774   3.046   1.160   0.585 -2.6283  1.0093  0.6358
  259SOL     OW  775   0.466   2.940   2.992  0.0042 -0.0438 -0.2568
  259SOL    HW1  776   0.390   2.886   3.038  1.5048  3.2461  0.3627
  259SOL    HW2  777   0.505   2.880   2.913 -0.3600 -1.6853 -0.3573
  260SOL     OW  778   2.717   0.756   2.726  0.1413  0.0342  0.6836
  260SOL    HW1  779   2.644   0.808   2.681  0.6376 -1.2477  1.2594
  260SOL    HW2  780   2.690   0.671   2.772 -1.5285 -0.6807 -3.8536
  261SOL     OW  781   2.709   1.315   1.312 -0.1489  0.3482 -0.3144
  261SOL    HW1  782   2.656   1.267   1.234 -1.4497 -3.8692 -1.2595
  261SOL    HW2  783   2.783   1.255   1.350  0.3020 -0.9826 -2.3065
  262SOL     OW  784   1.374   2.979   2.067  0.2940  0.0330  0.5843
  262SOL    HW1  785   1.409   3.061   2.015 -2.6825 -1.3262  0.7558
  262SOL    HW2  786   1.274   2.957   2.048 -2.0553  1.7175  0.2953
  263SOL     OW  787   0.807   0.659   2.258 -0.1065 -0.4385 -0.3488
  263SOL    HW1  788   0.753   0.587   2.211 -0.7605  0.1245  0.7904
  263SOL    HW2  789   0.809   0.749   2.199 -0.6226 -0.6818  0.8625
  264SOL     OW  790   2.272   0.810   0.371  0.1254 -0.4567 -0.5311
  264SOL    HW1  791   2.274   0.726   0.310 -0.8955  2.3695  0.6292
  264SOL    HW2  792   2.369   0.835   0.393 -1.4918 -1.6469  0.3308
  265SOL     OW  793   0.926   2.373   2.616 -0.1676  0.0300 -0.4991
  265SOL    HW1  794   1.008   2.421   2.666  2.3456  3.2562  2.4878
  265SOL    HW2  795   0.891   2.295   2.674  0.5455  2.6057 -0.7669
  266SOL     OW  796   1.319   1.761   3.059 -0.6985  0.2568  0.0568
  266SOL    HW1  797   1.278   1.805   3.146 -0.3608 -1.1064  1.2194
  266SOL    HW2  798   1.426   1.765   3.055  1.0884  1.9533 -3.4094
  267SOL     OW  799   1.061   0.046   2.283 -0.7023 -0.2442  0.3422
  267SOL    HW1  800   0.985  -0.016   2.261  1.9865  2.1673  2.9282
  267SOL    HW2  801   1.116   0.075   2.202  0.5643  2.1216  1.8716
  268SOL     OW  802   0.821   1.233   1.035 -0.1238  0.4653  0.0742
  268SOL    HW1  803   0.782   1.286   1.110  1.2313 -1.4702 -1.5706
  268SOL    HW2  804   0.908   1.270   0.992  0.6731 -0.3901 -2.4813
  269SOL     OW  805   2.372   2.490   1.631  0.0320  0.5374  0.0366
  269SOL    HW1  806   2.437   2.417   1.668  0.4981  0.6777  0.5327
  269SOL    HW2  807   2.367   2.558   1.711  0.3609 -0.1824  1.0193
  270SOL     OW  808   0.156   2.987   2.013  0.4268  0.2012 -0.0046
  270SOL    HW1  809   0.199   2.914   1.953  1.7158  1.4194  0.2155
  270SOL    HW2  810   0.110   2.946   2.094  0.2049  0.4827  0.0270
  271SOL     OW  811   0.479   1.376   1.139 -0.3002 -0.1089 -0.1827
  271SOL    HW1  812   0.460   1.322   1.053  0.2870 -3.6586  3.3389
  271SOL    HW2  813   0.397   1.384   1.204 -3.7491  1.5416  0.4791
  272SOL     OW  814   1.904   3.090   1.940  0.4902  0.3423 -0.0987
  272SOL    HW1  815   1.862   3.015   1.883 -0.1031  1.4186  0.7517
  272SOL    HW2  816   1.948   3.172   1.891 -2.6631  2.0416 -2.5587
  273SOL     OW  817   1.534   1.484   2.807 -0.2588  0.1710 -0.2372
  273SOL    HW1  818   1.447   1.427   2.795  0.3500 -0.5106 -1.4159
  273SOL    HW2  819   1.552   1.513   2.905 -0.2702 -0.0146  0.3645
  274SOL     OW  820   1.112   0.512   2.061 -0.5981 -0.2927 -0.2676
  274SOL    HW1  821   1.060   0.423   2.078 -1.9739  3.9710 -0.2742
  274SOL    HW2  822   1.193   0.535   2.119 -0.0528 -0.3772 -2.1560
  275SOL     OW  823   0.643   2.121   1.941 -0.0382  0.7865 -0.3119
  275SOL    HW1  824   0.645   2.211   1.992 -0.2491 -0.3099 -1.4601
  275SOL    HW2  825   0.559   2.103   1.886  0.6094 -0.2467 -1.7117
  276SOL     OW  826   2.228   0.971   2.801  0.3006 -0.3795  0.4900
  276SOL    HW1  827   2.150   1.025   2.760  0.8314 -2.9992  0.3303
  276SOL    HW2  828   2.186   0.882   2.835  0.3353  0.4544  2.7314
  277SOL     OW  829   3.083   0.787   0.266  0.4878  0.3004  0.2694
  277SOL    HW1  830   3.167   0.839   0.232  1.3488 -0.6547 -1.1128
  277SOL    HW2  831   3.107   0.726   0.345  1.2695  0.0361  0.4906
  278SOL     OW  832   0.276   0.270   3.048 -0.3492 -0.0892  0.7417
  278SOL    HW1  833   0.351   0.215   2.998  1.7303  1.4411 -2.3206
  278SOL    HW2  834   0.306   0.364   3.076 -0.0126 -1.7733  1.9529
  279SOL     OW  835   0.269   0.035   0.926 -0.1436  0.6972 -0.6693
  279SOL    HW1  836   0.306   0.008   1.022  0.3405  2.1769 -1.1420
  279SOL    HW2  837   0.301  -0.018   0.845 -2.0433 -0.6809 -3.4756
  280SOL     OW  838   1.648   2.926   2.429 -0.6539 -0.3387  0.0513
  280SOL    HW1  839   1.705   2.984   2.499 -1.1630  3.2079  1.1919
  280SOL    HW2  840   1.579   2.980   2.379  3.8638 -1.7166  1.4550
  281SOL     OW  841   0.523   0.964   2.257 -0.0479  0.3682  0.3573
  281SOL    HW1  842   0.500   0.886   2.189 -2.2803  1.6147 -1.9520
  281SOL    HW2  843   0.514   0.942   2.359  0.4115  0.1334  0.6940
  282SOL     OW  844   1.778   2.455   0.518 -0.1599  0.0867 -0.5859
  282SOL    HW1  845   1.710   2.394   0.473  1.2461  0.2534  0.8837
  282SOL    HW2  846   1.756   2.553   0.509 -0.4706  0.8385  0.2193
  283SOL     OW  847   1.133   0.878   0.731  0.4404 -0.1262 -0.4133
  283SOL    HW1  848   1.153   0.851   0.828  0.0164  1.2829 -1.2652
  283SOL    HW2  849   1.112   0.980   0.732 -2.6238 -2.3247 -1.3387
  284SOL     OW  850   2.232   2.823   2.465  0.1502 -0.1473  0.1859
  284SOL    HW1  851   2.309   2.789   2.408 -2.0789 -0.0697  1.3915
  284SOL    HW2  852   2.239   2.814   2.563 -1.6862 -1.9889  1.3261
  285SOL     OW  853   1.350   0.013   2.580 -0.6712 -0.3342  0.3229
  285SOL    HW1  854   1.401   0.008   2.489 -0.7285  0.4843  1.0485
  285SOL    HW2  855   1.293   0.097   2.600  0.1958  0.8969 -0.1791
  286SOL     OW  856   0.407   0.477   0.716 -0.6799 -0.5902 -0.1151
  286SOL    HW1  857   0.415   0.420   0.800 -0.7495  2.5481  0.3872
  286SOL    HW2  858   0.423   0.415   0.632 -1.3441  1.1999 -0.5814
  287SOL     OW  859   0.082   1.313   2.647  0.2931 -0.5594 -0.2973
  287SOL    HW1  860   0.027   1.230   2.652 -0.2819  0.8827 -2.2701
  287SOL    HW2  861   0.023   1.393   2.617 -2.5330 -0.7109 -2.7731
  288SOL     OW  862   1.511   2.746   1.650  0.1260  0.1043  0.3664
  288SOL    HW1  863   1.552   2.661   1.699  1.1675 -2.9028 -2.7658
  288SOL    HW2  864   1.549   2.746   1.556  0.0647  1.2839  0.1298
  289SOL     OW  865   0.624   2.758   0.855  0.0264  0.3541 -0.6131
  289SOL    HW1  866   0.658   2.813   0.768 -0.6607  3.3219 -0.8163
  289SOL    HW2  867   0.685   2.785   0.934  4.3157  0.5598  1.0438
  290SOL     OW  868   2.814   1.138   1.716 -0.2525 -0.1207  0.6944
  290SOL    HW1  869   2.747   1.060   1.726 -0.4772 -0.7778 -0.3015
  290SOL    HW2  870   2.914   1.126   1.755 -0.6836  2.3709 -1.1133
  291SOL     OW  871   1.950   3.072   0.052  0.0420  0.0611  0.1433
  291SOL    HW1  872   1.981   3.119   0.139  0.5666 -2.2789 -1.7933
  291SOL    HW2  873   1.998   3.119  -0.028 -2.3813 -1.4093 -0.5100
  292SOL     OW  874   2.995   1.146   3.048 -0.0273  0.0292 -0.0187
  292SOL    HW1  875   2.945   1.227   2.997 -2.3974  1.9854 -0.2482
  292SOL    HW2  876   3.086   1.122   3.005  2.0149  0.7820 -2.1634
  293SOL     OW  877   0.574   2.086   0.303 -0.2876 -0.1964  0.0146
  293SOL    HW1  878   0.540   2.154   0.370 -0.6432 -0.5392 -2.4467
  293SOL    HW2  879   0.675   2.055   0.315 -0.2933  0.3541 -1.4330
  294SOL     OW  880   1.871   2.365   1.772  0.0194 -0.6435 -0.0752
  294SOL    HW1  881   1.871   2.355   1.875  0.8770 -0.1138 -0.4359
  294SOL    HW2  882   1.844   2.458   1.745  1.7573 -2.5821  2.6741
  295SOL     OW  883   1.023   1.036   0.438  0.1676 -0.0113 -0.5781
  295SOL    HW1  884   1.107   1.078   0.480 -2.4427  0.6966 -1.7402
  295SOL    HW2  885   0.968   0.975   0.505 -2.0647 -3.7470 -2.2533
  296SOL     OW  886   1.122   2.150   2.745 -0.7040  0.3997 -0.4363
  296SOL    HW1  887   1.020   2.160   2.758  0.3979 -3.2008  1.0690
  296SOL    HW2  888   1.155   2.099   2.658  0.6032  0.0675 -1.4336
  297SOL     OW  889   1.307   0.541   1.189 -0.2772 -0.1969 -0.1164
  297SOL    HW1  890   1.351   0.485   1.259  0.9473  0.9927 -0.8940
  297SOL    HW2  891   1.379   0.606   1.156 -1.8211 -1.8932 -1.3979
  298SOL     OW  892   0.485   1.331   2.943  0.3600 -0.1217 -0.0701
  298SOL    HW1  893   0.460   1.279   3.030  0.2936 -0.6950 -2.2068
  298SOL    HW2  894   0.508   1.268   2.866  0.9594  1.9942  0.2512
  299SOL     OW  895   0.430   0.213   1.234  0.1627 -0.0902  0.2456
  299SOL    HW1  896   0.391   0.305   1.209  2.1498 -0.4110 -0.4880
  299SOL    HW2  897   0.439   0.192   1.337  0.7488 -3.3804 -0.0726
  300SOL     OW  898   1.307   1.789   2.557  0.9581  0.1825 -0.0701
  300SOL    HW1  899   1.296   1.698   2.506  1.4972  1.4578  0.8163
  300SOL    HW2  900   1.385   1.787   2.623 -3.8541 -0.8154  0.4437
  301SOL     OW  901   0.418   0.359   0.464 -0.3360  0.4333 -0.3717
  301SOL    HW1  902   0.329   0.358   0.407 -1.4424 -0.4041 -0.5498
  301SOL    HW2  903   0.479   0.281   0.431  2.5799  0.3474  0.5014
  302SOL     OW  904   1.277   2.447   2.272 -0.3031  0.0725  0.7281
  302SOL    HW1  905   1.179   2.456   2.302  0.3810 -0.8266  1.1300
  302SOL    HW2  906   1.316   2.355   2.301 -0.9109 -1.2638  0.0751
  303SOL     OW  907   0.992   2.410   0.815 -0.1680  0.2838  0.2269
  303SOL    HW1  908   1.053   2.434   0.729  0.5423 -1.0188 -3.4366
  303SOL    HW2  909   0.988   2.477   0.897  0.5102  3.3182 -0.2850
  304SOL     OW  910   0.142   1.907   0.673  0.3741 -0.0184 -0.2119
  304SOL    HW1  911   0.216   1.887   0.608  0.7801 -0.0690  2.1149
  304SOL    HW2  912   0.056   1.964   0.635 -1.6367  1.1498 -3.1273
  305SOL     OW  913   1.584   0.823   0.690  0.2815  0.4436 -0.1394
  305SOL    HW1  914   1.531   0.838   0.607  1.1434 -4.0304  1.7691
  305SOL    HW2  915   1.641   0.737   0.684 -1.6973 -1.2796 -4.1798
  306SOL     OW  916   0.396   1.866   1.961 -0.3692 -0.0784  0.3283
  306SOL    HW1  917   0.491   1.825   1.934  0.7658 -2.7695  0.2711
  306SOL    HW2  918   0.394   1.911   2.058 -1.3501 -1.2899  1.6355
  307SOL     OW  919   3.033   0.890   2.479 -0.9384  0.4068  0.5016
  307SOL    HW1  920   3.056   0.936   2.569 -1.1103 -0.1695  1.1755
  307SOL    HW2  921   2.957   0.818   2.485 -0.0625  0.2937 -3.0178
  308SOL     OW  922   1.489   2.698   2.814  0.1623 -0.4118 -0.0828
  308SOL    HW1  923   1.489   2.690   2.710  2.7323 -3.0573  0.6436
  308SOL    HW2  924   1.455   2.607   2.864 -2.7703 -1.6070  2.7869
  309SOL     OW  925   1.259   0.168   1.769  0.4832  0.3199  0.0594
  309SOL    HW1  926   1.343   0.116   1.800 -1.5455 -0.3649 -1.6663
  309SOL    HW2  927   1.233   0.141   1.672 -0.8376  0.6417  1.7751
  310SOL     OW  928   1.453   2.591   0.652  0.0747 -0.3017  0.4612
  310SOL    HW1  929   1.437   2.607   0.756 -0.2214  2.3700  4.2639
  310SOL    HW2  930   1.541   2.637   0.617 -2.2817 -0.9050  2.4102
  311SOL     OW  931   1.064   0.982   1.785 -0.2985  0.2460 -0.2795
  311SOL    HW1  932   1.038   0.885   1.815 -0.0446  0.7836  1.1519
  311SOL    HW2  933   1.142   0.990   1.713 -1.4104 -0.0119 -2.0243
  312SOL     OW  934   1.525   0.656   1.050  0.9505 -0.4537 -0.0981
  312SOL    HW1  935   1.601   0.725   1.040 -2.1626  2.0600  1.0684
  312SOL    HW2  936   1.475   0.636   0.958 -2.2862 -1.5859 -0.7272
  313SOL     OW  937   1.642   1.257   0.768  0.0946 -0.4008  0.4347
  313SOL    HW1  938   1.553   1.288   0.816  1.5962  0.9094  1.7403
  313SOL    HW2  939   1.636   1.175   0.708  1.1009 -0.4944 -1.0442
  314SOL     OW  940   2.960   3.076  -0.001  0.0028  0.3463 -0.2310
  314SOL    HW1  941   2.986   3.087   0.099 -1.5152  0.2862  0.1123
  314SOL    HW2  942   2.879   3.003  -0.013 -2.4908 -1.4215  0.7773
  315SOL     OW  943   1.182   0.200   2.803 -0.3050 -0.0678 -0.2967
  315SOL    HW1  944   1.146   0.162   2.711 -1.0292  1.3724 -1.1885
  315SOL    HW2  945   1.154   0.150   2.886  0.6467 -0.4995 -0.4373
  316SOL     OW  946   1.710   2.088   0.885  0.2261 -0.0400 -0.0348
  316SOL    HW1  947   1.655   2.108   0.976 -0.1537 -0.9354  0.0550
  316SOL    HW2  948   1.743   2.181   0.852  0.8128  1.5296  0.1863
  317SOL     OW  949   1.186   0.680   2.785 -0.0150 -0.0856  0.0932
  317SOL    HW1  950   1.119   0.738   2.843  1.2109 -0.5196  0.5284
  317SOL    HW2  951   1.141   0.613   2.715 -0.1789 -0.1400 -1.6633
  318SOL     OW  952   1.434   3.093   2.317  0.2531 -0.1212 -0.0625
  318SOL    HW1  953   1.459   3.190   2.281  0.9016 -0.0913  1.1018
  318SOL    HW2  954   1.373   3.042   2.245  2.1537 -3.0764 -1.3029
  319SOL     OW  955   0.675   2.393   2.994 -0.0203 -0.1484  0.5191
  319SOL    HW1  956   0.647   2.324   3.064  0.9939  0.5172  0.8133
  319SOL    HW2  957   0.729   2.349   2.920  0.7584 -1.6845  1.5222
  320SOL     OW  958   1.674   2.227   0.403  0.4068 -0.2462  0.4252
  320SOL    HW1  959   1.747   2.157   0.420  2.2315 -1.0002  1.5367
  320SOL    HW2  960   1.578   2.178   0.411 -4.1227  0.3798 -0.7228
  321SOL     OW  961   1.682   2.724   0.545  0.6744 -0.2933  0.5117
  321SOL    HW1  962   1.610   2.794   0.514  0.8562  0.7517 -1.6408
  321SOL    HW2  963   1.780   2.747   0.532  3.1507 -2.8110  0.6209
  322SOL     OW  964   2.595   1.123   2.325  0.3227  0.2219  0.0574
  322SOL    HW1  965   2.681   1.109   2.381 -0.3746  1.5379 -2.1458
  322SOL    HW2  966   2.552   1.038   2.296 -1.0913  0.0403 -1.7895
  323SOL     OW  967   1.161   2.678   0.803 -0.7495 -0.2236 -0.7017
  323SOL    HW1  968   1.141   2.635   0.710  0.6317 -3.1651  4.5923
  323SOL    HW2  969   1.135   2.776   0.821  0.2514  0.6184 -1.1229
  324SOL     OW  970   0.186   2.532   2.442 -0.1129  0.1038 -0.0112
  324SOL    HW1  971   0.103   2.506   2.500  0.4850 -0.2979  1.5195
  324SOL    HW2  972   0.227   2.623   2.465 -0.4092 -2.6724  0.4901
  325SOL     OW  973   1.256   3.079   0.471  0.2678  0.6093 -0.1751
  325SOL    HW1  974   1.248   3.099   0.370 -2.5299 -0.2064 -0.5880
  325SOL    HW2  975   1.303   3.167   0.512  2.7566 -0.7178 -1.9641
  326SOL     OW  976   2.502   0.798   3.073 -0.1980  0.7918 -0.1096
  326SOL    HW1  977   2.455   0.730   3.010  0.7547  1.1680 -0.1375
  326SOL    HW2  978   2.577   0.759   3.128 -1.0905  1.8892  1.0365
  327SOL     OW  979   2.848   0.269   0.550 -0.1396 -0.0486  0.2199
  327SOL    HW1  980   2.830   0.215   0.462  0.6430 -1.8985  0.8957
  327SOL    HW2  981   2.864   0.218   0.637 -2.0466 -1.0879  2.2344
  328SOL     OW  982   2.569   0.670   0.407  0.4644  0.1477  0.2469
  328SOL    HW1  983   2.636   0.706   0.478 -0.3827 -0.0387  2.1395
  328SOL    HW2  984   2.517   0.584   0.434  1.0969 -0.6039  0.1657
  329SOL     OW  985   2.932   3.049   2.157 -0.3716 -0.8184  0.5017
  329SOL    HW1  986   3.012   3.003   2.210  1.7817  1.6655  1.8898
  329SOL    HW2  987   2.954   3.147   2.135 -0.0426  0.6073  0.7876
  330SOL     OW  988   0.522   0.217   1.860 -0.3068 -0.4345  0.0990
  330SOL    HW1  989   0.615   0.206   1.818 -0.1431  1.0850 -0.3826
  330SOL    HW2  990   0.525   0.184   1.954  1.8493 -0.2992 -1.9917
  331SOL     OW  991   3.038   1.917   1.142  0.2586  0.2817  0.4841
  331SOL    HW1  992   3.025   1.955   1.046 -2.2341 -3.1646 -3.0097
  331SOL    HW2  993   2.953   1.864   1.176 -0.7063 -2.5736 -1.2268
  332SOL     OW  994   0.398   1.209   0.064  0.0214 -0.5590  0.0844
  332SOL    HW1  995   0.359   1.120   0.031 -0.7500  1.8436 -0.0855
  332SOL    HW2  996   0.372   1.232   0.164 -2.3891  2.9224 -2.0159
  333SOL     OW  997   2.878   0.961   0.364  0.4875 -0.0949 -0.2112
  333SOL    HW1  998   2.925   1.027   0.429 -0.6505  0.8023 -1.8507
  333SOL    HW2  999   2.937   0.938   0.290 -3.7083 -2.2281  2.9785
  334SOL     OW 1000   1.739   1.156   1.746  0.5548 -0.1285 -1.0431
  334SOL    HW1 1001   1.782   1.159   1.649 -0.7103 -0.3995 -2.4081
  334SOL    HW2 1002   1.809   1.156   1.827 -1.9949 -3.2720  1.2156
  335SOL     OW 1003   1.887   2.809   2.637 -0.5867 -0.2946 -0.1410
  335SOL    HW1 1004   1.812   2.776   2.702 -0.5243 -0.7884  0.1935
  335SOL    HW2 1005   1.928   2.899   2.665 -0.0280  1.0224  1.9662
  336SOL     OW 1006   0.258   0.008   2.698  0.4353  0.4643  0.1519
  336SOL    HW1 1007   0.312   0.018   2.789  0.7508 -1.5222 -0.9489
  336SOL    HW2 1008   0.184  -0.060   2.703  0.7273  1.3754  0.9311
  337SOL     OW 1009   0.920   2.877   2.962 -0.7825 -0.5901  0.2971
  337SOL    HW1 1010   0.924   2.809   3.038 -0.0325  0.3721 -2.5496
  337SOL    HW2 1011   1.011   2.913   2.944  1.5258  1.6600 -0.4778
  338SOL     OW 1012   3.093   0.911   0.684  0.0130  0.0100  0.4661
  338SOL    HW1 1013   2.988   0.898   0.686 -0.8723 -1.5013 -0.8944
  338SOL    HW2 1014   3.120   1.008   0.661 -2.8447  0.8661 -0.6661
  339SOL     OW 1015   1.725   1.317   2.159  0.5056 -0.8049  0.1680
  339SOL    HW1 1016   1.623   1.321   2.144 -1.8972  2.1561  0.0273
  339SOL    HW2 1017   1.778   1.404   2.163  0.9037  0.7631  4.0754
  340SOL     OW 1018   2.240   0.811   1.123 -0.2743  0.0031 -0.6537
  340SOL    HW1 1019   2.175   0.878   1.171  0.2591 -0.7045 -3.7276
  340SOL    HW2 1020   2.190   0.745   1.057 -0.4379  0.0675 -2.6204
  341SOL     OW 1021   1.922   2.079   0.393  0.1003  0.1614 -0.6909
  341SOL    HW1 1022   1.951   2.123   0.303  0.8488  0.8676  0.1450
  341SOL    HW2 1023   1.981   2.105   0.473 -0.3024  3.8113  1.2901
  342SOL     OW 1024   2.172   2.105   2.703  0.3834  0.0260  0.0793
  342SOL    HW1 1025   2.209   2.017   2.748  2.3771 -2.1672  1.1908
  342SOL    HW2 1026   2.074   2.096   2.675 -0.0943 -1.1448 -0.6347
  343SOL     OW 1027   0.363   0.824   2.754 -0.1117  0.6981  0.2751
  343SOL    HW1 1028   0.378   0.879   2.666 -0.0054  0.4493  0.1361
  343SOL    HW2 1029   0.443   0.829   2.823 -0.6595  0.6554 -1.0163
  344SOL     OW 1030   1.953   1.486   0.408  0.3517  0.1179 -0.5079
  344SOL    HW1 1031   1.981   1.413   0.337 -0.6785 -0.2527 -1.0725
  344SOL    HW2 1032   1.859   1.467   0.450  1.1428  0.6283 -0.1164
  345SOL     OW 1033   1.367   2.197   2.846 -0.0492 -0.3265 -0.1650
  345SOL    HW1 1034   1.287   2.189   2.783 -2.3513 -1.5276 -0.1622
  345SOL    HW2 1035   1.442   2.141   2.803 -2.6804  1.3381 -2.7525
  346SOL     OW 1036   2.320   0.880   1.392  0.0048  0.3782  0.2424
  346SOL    HW1 1037   2.259   0.959   1.411 -1.2405 -2.6498  1.0702
  346SOL    HW2 1038   2.299   0.824   1.307  1.4171 -0.7045  1.4221
  347SOL     OW 1039   0.694   2.779   1.657  0.0527 -0.0151 -0.1730
  347SOL    HW1 1040   0.751   2.806   1.576  0.3124 -1.5487  1.9847
  347SOL    HW2 1041   0.594   2.804   1.640 -1.3893  1.8274 -1.9933
  348SOL     OW 1042   0.190   0.718   2.928  0.0930 -0.7521  0.0879
  348SOL    HW1 1043   0.097   0.737   2.881  0.9778  2.9783 -0.1171
  348SOL    HW2 1044   0.263   0.752   2.865 -0.6109 -1.7930  0.5985
  349SOL     OW 1045   1.867   0.423   2.810 -0.0114 -0.3775 -0.0216
  349SOL    HW1 1046   1.827   0.505   2.759  0.0967  1.3272  2.3885
  349SOL    HW2 1047   1.850   0.427   2.914 -0.2464 -1.1184  0.7775
  350SOL     OW 1048   1.689   0.385   0.369  0.1533 -0.2472  0.4899
  350SOL    HW1 1049   1.760   0.392   0.448  1.2005  1.5945 -0.9363
  350SOL    HW2 1050   1.652   0.479   0.351  1.7955  1.9868  0.1192
  351SOL     OW 1051   0.862   0.859   2.070 -0.7304  0.0336  0.2791
  351SOL    HW1 1052   0.906   0.955   2.060 -0.5756 -2.4167 -2.1663
  351SOL    HW2 1053   0.907   0.795   2.006 -0.2047 -0.0355  1.0813
  352SOL     OW 1054   2.071   1.330   0.611  0.0595 -0.3296 -0.6314
  352SOL    HW1 1055   2.051   1.412   0.551  1.5155  3.3524  3.0194
  352SOL    HW2 1056   1.992   1.309   0.673 -0.3867  2.3113 -1.3169
  353SOL     OW 1057   2.189   2.760   1.095 -0.2472  0.2876  0.2159
  353SOL    HW1 1058   2.250   2.701   1.164  2.4599 -1.3884 -1.1691
  353SOL    HW2 1059   2.095   2.792   1.136  0.0108 -0.1531  2.6347
  354SOL     OW 1060   0.215   1.447   2.888 -0.9679  0.4377  0.2114
  354SOL    HW1 1061   0.197   1.496   2.797 -0.1290  2.2215  0.4688
  354SOL    HW2 1062   0.305   1.392   2.882 -1.1385  1.0226  0.6322
  355SOL     OW 1063   0.691   1.550   0.587 -0.2036 -0.3748 -0.6650
  355SOL    HW1 1064   0.689   1.508   0.681 -0.5909 -0.1566 -0.3491
  355SOL    HW2 1065   0.626   1.502   0.525 -0.1768 -0.2047  2.2285
  356SOL     OW 1066   0.928   0.300   2.092  0.2252 -0.0086  0.6970
  356SOL    HW1 1067   1.012   0.238   2.098  1.3450  0.9191  0.5366
  356SOL    HW2 1068   0.866   0.272   2.017  2.3060  0.6189  1.9589
  357SOL     OW 1069   1.030   1.362   0.245 -0.0094  0.3112 -0.6241
  357SOL    HW1 1070   1.077   1.393   0.157 -0.1197 -0.8250 -2.2062
  357SOL    HW2 1071   1.038   1.268   0.276 -0.1073  1.1322  0.1977
  358SOL     OW 1072   1.694   1.458   0.534 -0.0626 -0.1170 -0.3249
  358SOL    HW1 1073   1.655   1.410   0.611  2.4456 -2.2020 -1.7696
  358SOL    HW2 1074   1.631   1.451   0.454  0.3567  0.4676 -0.1989
  359SOL     OW 1075   1.610   2.584   0.267 -0.6535 -0.5431 -1.0151
  359SOL    HW1 1076   1.590   2.498   0.211  1.8993 -1.6376  0.2527
  359SOL    HW2 1077   1.528   2.617   0.321 -2.1817 -1.0134 -0.1084
  360SOL     OW 1078   0.808   0.446   0.586 -0.3861  0.2157 -0.0079
  360SOL    HW1 1079   0.717   0.484   0.604  0.9015 -2.4668 -0.1717
  360SOL    HW2 1080   0.819   0.347   0.608 -1.1741 -2.7067 -0.1449
  361SOL     OW 1081   1.370   1.326   0.614 -0.0697  0.0405  0.5813
  361SOL    HW1 1082   1.386   1.319   0.714 -0.3118  0.2695 -1.7877
  361SOL    HW2 1083   1.275   1.370   0.596 -2.2089  0.1313  0.0076
  362SOL     OW 1084   1.351   1.830   0.724 -0.0362  0.1003 -0.3594
  362SOL    HW1 1085   1.373   1.766   0.802  1.0669 -1.6955 -0.0463
  362SOL    HW2 1086   1.353   1.781   0.634 -0.5214 -0.0354 -0.6153
  363SOL     OW 1087   1.306   1.311   2.094  0.1257  0.2411 -0.5436
  363SOL    HW1 1088   1.379   1.383   2.064  0.6200  1.1164  1.9224
  363SOL    HW2 1089   1.223   1.355   2.140 -0.1106 -0.8412  0.9785
  364SOL     OW 1090   0.540   2.373   2.040  0.1149 -0.1870 -0.6329
  364SOL    HW1 1091   0.439   2.351   2.017 -0.6588  0.3152  0.8618
  364SOL    HW2 1092   0.569   2.455   1.980 -2.1982  0.1624 -1.5276
  365SOL     OW 1093   0.931   1.955   1.379 -0.3030 -0.0504  0.4906
  365SOL    HW1 1094   0.831   1.964   1.408 -0.2301  1.8718  5.8784
  365SOL    HW2 1095   0.953   1.967   1.275 -2.4779  0.9543 -2.0029
  366SOL     OW 1096   2.788   1.949   0.271 -0.6913 -0.1488 -0.4786
  366SOL    HW1 1097   2.715   1.875   0.264  0.4327 -2.2566 -2.6108
  366SOL    HW2 1098   2.880   1.912   0.281 -1.3330  0.5552 -2.8335
  367SOL     OW 1099   0.884   1.168   0.005  0.1078 -1.1414 -0.2331
  367SOL    HW1 1100   0.894   1.120   0.096 -0.6844  0.9079  0.1457
  367SOL    HW2 1101   0.964   1.223  -0.023 -2.6982 -0.3974 -1.9025
  368SOL     OW 1102   1.460   0.588   0.562  0.0109 -0.6588 -0.3059
  368SOL    HW1 1103   1.357   0.589   0.549  2.8446 -0.9304  2.2059
  368SOL    HW2 1104   1.503   0.610   0.472 -0.7929 -0.5592  0.8165
  369SOL     OW 1105   0.403   1.610   0.154  0.2701 -1.3521  0.0532
  369SOL    HW1 1106   0.436   1.695   0.201 -0.2091  0.9100 -0.5466
  369SOL    HW2 1107   0.301   1.591   0.166  1.2406  1.3985 -2.1297
  370SOL     OW 1108   0.385   2.190   1.084  0.3613 -0.1213 -0.0968
  370SOL    HW1 1109   0.410   2.287   1.048 -0.1564 -0.8048  0.8550
  370SOL    HW2 1110   0.295   2.150   1.048 -0.3300 -2.0398  0.7897
  371SOL     OW 1111   2.925   2.231   2.729  0.2262 -0.5805  0.4085
  371SOL    HW1 1112   2.974   2.142   2.754 -1.6125  0.2342  2.9257
  371SOL    HW2 1113   2.936   2.308   2.797 -1.8183  1.0190  0.7402
  372SOL     OW 1114   1.045   2.070   1.144  0.4290 -0.6778 -0.1382
  372SOL    HW1 1115   0.976   2.093   1.066 -1.3070 -1.0687  0.0770
  372SOL    HW2 1116   1.114   2.144   1.163  0.6914 -0.4315 -0.4731
  373SOL     OW 1117   1.899   1.940   1.000  0.2408 -0.2919  0.5922
  373SOL    HW1 1118   1.981   1.998   1.022 -0.8436 -0.6263  2.0904
  373SOL    HW2 1119   1.825   1.994   0.954  2.7237  4.7188 -2.0526
  374SOL     OW 1120   1.868   0.409   0.570 -0.1543 -0.4412 -0.2260
  374SOL    HW1 1121   1.879   0.380   0.668 -2.4953  2.5045 -2.3110
  374SOL    HW2 1122   1.957   0.402   0.515  0.5813 -0.0378 -3.5405
  375SOL     OW 1123   2.412   2.206   1.085  0.1214 -0.5064  0.4256
  375SOL    HW1 1124   2.441   2.276   1.009  0.7619  0.0319 -1.8329
  375SOL    HW2 1125   2.494   2.172   1.139  2.9134 -1.4696 -0.1188
  376SOL     OW 1126   0.009   0.650   1.400 -0.1069  0.0593 -0.1288
  376SOL    HW1 1127   0.076   0.680   1.472 -0.1807  0.1321  0.8649
  376SOL    HW2 1128  -0.082   0.637   1.435  0.0268 -1.9432  3.0809
  377SOL     OW 1129   2.174   2.893   0.236 -0.0431  1.1354 -0.2996
  377SOL    HW1 1130   2.218   2.977   0.278 -0.4440  1.2074  0.9216
  377SOL    HW2 1131   2.230   2.809   0.256 -1.7685  0.0276 -0.7367
  378SOL     OW 1132   1.809   1.898   2.443  1.0336  0.4024 -0.3167
  378SOL    HW1 1133   1.860   1.894   2.354 -1.3004 -1.6032  0.8507
  378SOL    HW2 1134   1.769   1.802   2.456  0.3424  0.3085  0.3074
  379SOL     OW 1135   0.733   0.131   2.830  0.5681 -0.6364 -0.0493
  379SOL    HW1 1136   0.762   0.048   2.778  0.9385  1.5436 -0.3963
  379SOL    HW2 1137   0.743   0.214   2.769  1.6197  0.3279 -4.9209
  380SOL     OW 1138   1.560   1.157   0.499 -0.2330 -0.2466 -0.2906
  380SOL    HW1 1139   1.480   1.227   0.525  1.5296  1.3184  2.0723
  380SOL    HW2 1140   1.524   1.065   0.468  0.1864  0.7049 -1.6313
  381SOL     OW 1141   1.288   1.214   1.545 -0.1715  0.1256 -0.7601
  381SOL    HW1 1142   1.316   1.132   1.495  0.2676 -1.3427  2.9703
  381SOL    HW2 1143   1.365   1.255   1.604  0.5060  0.1700 -0.5702
  382SOL     OW 1144   1.819   0.880   0.261  0.1619 -0.1553  0.0562
  382SOL    HW1 1145   1.828   0.827   0.173  2.2763 -2.0825  2.3545
  382SOL    HW2 1146   1.899   0.859   0.327 -1.1415 -0.5263  1.6391
  383SOL     OW 1147   2.539   1.007   1.470 -0.5623 -0.1851 -0.2944
  383SOL    HW1 1148   2.449   0.960   1.443 -1.0074 -1.0897 -2.0322
  383SOL    HW2 1149   2.614   0.989   1.391  2.4578  0.6570 -1.7909
  384SOL     OW 1150   0.875   2.290   0.192  0.1794  0.5555  0.2193
  384SOL    HW1 1151   0.815   2.370   0.202  0.9734 -0.0286  1.2173
  384SOL    HW2 1152   0.900   2.239   0.280  2.0677  0.1865  0.6474
  385SOL     OW 1153   2.965   2.068   1.689 -0.0583  0.3616 -0.3967
  385SOL    HW1 1154   3.052   2.128   1.664  0.0492  0.4452  1.7256
  385SOL    HW2 1155   2.975   1.966   1.676 -0.8005  1.4083 -0.7116
  386SOL     OW 1156   0.485   1.049   0.454 -0.3540 -0.7690 -0.4672
  386SOL    HW1 1157   0.469   0.950   0.469 -0.1968  2.1284  1.3062
  386SOL    HW2 1158   0.401   1.110   0.425 -1.0886  1.9449 -1.2020
  387SOL     OW 1159   0.987   0.368   1.694  0.9053  0.5823 -0.3563
  387SOL    HW1 1160   1.041   0.457   1.699  1.8934 -1.6089 -0.5235
  387SOL    HW2 1161   0.982   0.342   1.595  4.7203  0.9221 -1.1984
  388SOL     OW 1162   1.226   2.681   1.723  0.1932 -0.5086 -0.3897
  388SOL    HW1 1163   1.267   2.730   1.643 -0.3647  1.7064  0.0422
  388SOL    HW2 1164   1.287   2.624   1.778  0.1419  1.3491 -0.0501
  389SOL     OW 1165   0.141   2.961   1.369  0.4419 -0.4183 -0.2231
  389SOL    HW1 1166   0.047   2.943   1.326  0.7186 -1.2191  0.4734
  389SOL    HW2 1167   0.193   2.876   1.388 -0.1022 -1.3213  1.9838
  390SOL     OW 1168   1.045   0.940   1.384 -0.0779 -0.6026  0.5093
  390SOL    HW1 1169   1.102   0.929   1.469 -2.1297 -1.2523 -0.8374
  390SOL    HW2 1170   1.025   1.040   1.365  0.3951  1.1880  2.6567
  391SOL     OW 1171   2.169   1.144   1.083 -0.0833 -0.7361 -0.0363
  391SOL    HW1 1172   2.116   1.070   1.130  2.7877  0.6518 -0.3942
  391SOL    HW2 1173   2.221   1.115   1.002  1.0495  0.5585 -0.0438
  392SOL     OW 1174   0.901   2.643   0.021 -0.2305  0.2008  0.3099
  392SOL    HW1 1175   0.978   2.570   0.003  4.4950 -0.1469  0.0414
  392SOL    HW2 1176   0.829   2.602   0.081  0.9423  1.4540  0.6690
  393SOL     OW 1177   0.279   0.594   2.019 -1.2149  0.2097  0.1633
  393SOL    HW1 1178   0.195   0.548   2.058  2.5420  1.0078  1.4155
  393SOL    HW2 1179   0.312   0.549   1.932  0.3146 -0.7085  0.6328
  394SOL     OW 1180   3.039   1.993   2.765 -0.2884 -0.6228 -0.2323
  394SOL    HW1 1181   3.146   1.981   2.781 -1.0022 -0.5636  2.6879
  394SOL    HW2 1182   3.007   1.950   2.678  0.4895  1.0871 -2.6355
  395SOL     OW 1183   1.620   1.951   0.561 -0.0428 -0.0717 -0.5584
  395SOL    HW1 1184   1.691   1.875   0.557  1.3257  0.9397 -0.4884
  395SOL    HW2 1185   1.586   1.969   0.658 -0.2820 -1.0742 -1.1486
  396SOL     OW 1186   2.829   1.812   1.302  0.0370  0.2992 -0.2903
  396SOL    HW1 1187   2.776   1.725   1.318  0.6493  0.2722  0.1252
  396SOL    HW2 1188   2.870   1.859   1.387  1.7778  0.7625 -0.3267
  397SOL     OW 1189   1.039   2.229   0.508 -0.1117 -0.6109  0.0116
  397SOL    HW1 1190   0.948   2.210   0.556  1.3236 -0.1130 -0.3381
  397SOL    HW2 1191   1.075   2.320   0.534  1.6982 -1.4425 -1.6109
  398SOL     OW 1192   2.131   0.016   1.080 -0.3403  0.4067  0.3215
  398SOL    HW1 1193   2.053  -0.042   1.120 -0.3739 -0.5362 -1.4119
  398SOL    HW2 1194   2.104   0.115   1.068 -1.8276  0.5393 -0.4806
  399SOL     OW 1195   3.045   2.471   2.562 -0.4713  0.2919 -0.1586
  399SOL    HW1 1196   2.950   2.492   2.529  2.0433 -1.0933 -1.8675
  399SOL    HW2 1197   3.051   2.374   2.598 -0.2746 -1.8630  1.1079
  400SOL     OW 1198   0.762   1.688   1.375 -0.5932  0.2597 -0.1273
  400SOL    HW1 1199   0.677   1.674   1.434  1.3037 -0.9857 -1.3055
  400SOL    HW2 1200   0.748   1.748   1.289 -2.6817  1.3077 -0.9587
  401SOL     OW 1201   1.884   0.164   1.189  0.1917  0.9616 -0.6246
  401SOL    HW1 1202   1.927   0.186   1.286  0.0898 -1.0780  3.5933
  401SOL    HW2 1203   1.779   0.149   1.200 -0.4297  1.7519 -1.6094
  402SOL     OW 1204   1.347   0.180   3.056  0.1809  0.5898  0.7032
  402SOL    HW1 1205   1.432   0.149   3.003  0.8713  2.8937  1.4078
  402SOL    HW2 1206   1.294   0.264   3.026  0.7328 -0.4558  0.0685
  403SOL     OW 1207   2.278   1.762   0.911 -0.1027 -0.2189 -0.2188
  403SOL    HW1 1208   2.366   1.806   0.878 -0.9288  2.8709  0.4510
  403SOL    HW2 1209   2.221   1.830   0.972 -1.4381  1.9058  3.1627
  404SOL     OW 1210   0.202   2.446   2.793 -0.0846  0.1698 -0.3214
  404SOL    HW1 1211   0.307   2.431   2.779 -0.2916  2.7554  2.2539
  404SOL    HW2 1212   0.173   2.548   2.808  0.1884  1.4061 -3.8954
  405SOL     OW 1213   0.099   2.459   0.735 -0.0731  0.4648 -0.1835
  405SOL    HW1 1214   0.134   2.371   0.692 -1.5170  4.2348 -0.6555
  405SOL    HW2 1215   0.165   2.538   0.711 -0.1330 -2.2611  1.0672
  406SOL     OW 1216   0.056   1.571   3.072  0.1660 -0.1147  0.2441
  406SOL    HW1 1217   0.107   1.522   2.998 -0.6674  0.9481 -1.4977
  406SOL    HW2 1218   0.105   1.572   3.166  0.0377 -0.3063  0.8342
  407SOL     OW 1219   1.541   0.941   0.975 -0.1137 -0.1603  0.1288
  407SOL    HW1 1220   1.522   0.927   0.877  0.6902  0.5444 -0.5418
  407SOL    HW2 1221   1.498   1.023   1.022  3.7761 -0.2673 -0.2148
  408SOL     OW 1222   1.600   2.442   0.974 -0.3526 -0.0743  0.1450
  408SOL    HW1 1223   1.640   2.416   0.883  0.9738 -0.3529  0.0039
  408SOL    HW2 1224   1.537   2.524   0.974  0.9588 -0.5481  0.2079
  409SOL     OW 1225   0.675   0.754   0.767  0.1602  0.2231  0.0293
  409SOL    HW1 1226   0.582   0.780   0.737 -0.1188 -2.1297  0.2370
  409SOL    HW2 1227   0.683   0.668   0.824 -0.5374  0.3011 -0.9134
  410SOL     OW 1228   1.245   2.028   1.382 -0.1332 -0.1307  0.5744
  410SOL    HW1 1229   1.319   1.977   1.438 -2.1242 -1.1575 -1.1491
  410SOL    HW2 1230   1.153   2.000   1.408  1.6353 -2.0742  2.4672
  411SOL     OW 1231   2.609   1.844   2.987 -0.0639  0.4298 -0.5549
  411SOL    HW1 1232   2.630   1.943   3.012 -0.5554 -0.3123  0.0280
  411SOL    HW2 1233   2.543   1.835   2.907 -2.5494 -1.5808  1.3686
  412SOL     OW 1234   1.525   2.472   2.136  0.0928 -0.2697  0.0066
  412SOL    HW1 1235   1.605   2.505   2.190 -3.9802  2.3578  0.1402
  412SOL    HW2 1236   1.437   2.459   2.191  2.0269 -1.7903  0.3996
  413SOL     OW 1237   0.003   0.192   2.904  0.3496 -0.0709  0.2462
  413SOL    HW1 1238  -0.046   0.129   2.972 -2.8567 -0.8985 -1.2023
  413SOL    HW2 1239   0.081   0.246   2.946  1.0714  0.3771  1.4594
  414SOL     OW 1240   1.848   1.526   1.203 -0.5506 -0.5963 -0.0935
  414SOL    HW1 1241   1.815   1.622   1.202 -0.4258  0.1283 -0.3354
  414SOL    HW2 1242   1.834   1.484   1.107 -0.6811 -1.9240  1.9456
  415SOL     OW 1243   0.342   2.271   0.706 -0.8002 -0.4740 -0.0960
  415SOL    HW1 1244   0.349   2.348   0.777  0.4631  0.3894  1.7086
  415SOL    HW2 1245   0.259   2.211   0.697  2.4924 -3.2982 -1.1277
  416SOL     OW 1246   0.366   1.033   1.056 -0.1402  0.5025  0.6787
  416SOL    HW1 1247   0.315   0.986   0.980 -0.2264 -0.9229  0.0024
  416SOL    HW2 1248   0.469   1.038   1.037  0.6605  2.7048 -2.1488
  417SOL     OW 1249   2.293   2.382   2.041  0.1171  0.0030  0.0512
  417SOL    HW1 1250   2.363   2.308   2.062 -2.5639 -1.4067  0.6581
  417SOL    HW2 1251   2.191   2.352   2.048 -0.9864  0.2804  2.9878
  418SOL     OW 1252   1.049   0.565   1.332 -0.0299 -0.2946  0.1878
  418SOL    HW1 1253   0.960   0.516   1.298  0.5113 -1.4626  1.8478
  418SOL    HW2 1254   1.124   0.545   1.256  0.1663 -4.3760 -1.6879
  419SOL     OW 1255   0.942   0.511   2.959  0.0749  0.3238 -0.1324
  419SOL    HW1 1256   0.895   0.515   2.869 -1.7604  2.2792  0.0451
  419SOL    HW2 1257   0.975   0.602   2.980  1.8933 -1.0250  3.7232
  420SOL     OW 1258   0.094   2.237   0.568  0.0895 -0.8433  0.1368
  420SOL    HW1 1259   0.118   2.310   0.495  1.8322 -0.8139 -0.9659
  420SOL    HW2 1260   0.031   2.161   0.531  0.5766  0.8335 -2.6021
  421SOL     OW 1261   0.332   2.946   0.594 -0.0873  0.1109 -0.1157
  421SOL    HW1 1262   0.295   2.934   0.689  2.5869 -2.2125 -0.1667
  421SOL    HW2 1263   0.410   3.015   0.590  1.9029 -0.0575  0.7067
  422SOL     OW 1264   0.997   2.625   1.045  0.1315  0.5523 -0.0040
  422SOL    HW1 1265   1.085   2.643   0.989 -0.1055 -0.8111 -0.9268
  422SOL    HW2 1266   1.013   2.602   1.145 -1.0708 -1.9792  1.8917
  423SOL     OW 1267   0.151   0.736   1.168  0.1101  0.0324 -0.2452
  423SOL    HW1 1268   0.097   0.669   1.233 -1.7060  1.9411 -0.4679
  423SOL    HW2 1269   0.098   0.827   1.153  1.2037  1.4137 -1.4061
  424SOL     OW 1270   1.149   2.177   2.040  0.5230 -0.7037 -0.7290
  424SOL    HW1 1271   1.132   2.279   2.040 -0.9616  0.4170  2.0819
  424SOL    HW2 1272   1.115   2.137   2.132 -0.6301 -1.2678 -0.6817
  425SOL     OW 1273   1.959   1.352   1.003 -0.0076  0.3204 -0.4697
  425SOL    HW1 1274   1.999   1.302   1.084  2.9606  0.9691 -0.9714
  425SOL    HW2 1275   2.013   1.435   0.977  0.3050 -1.6689  0.2979
  426SOL     OW 1276   1.451   1.604   1.296 -0.7091  0.3172 -0.3355
  426SOL    HW1 1277   1.448   1.691   1.240  1.4949  3.2815 -3.8088
  426SOL    HW2 1278   1.399   1.617   1.385  2.3720  2.4741 -2.3460
  427SOL     OW 1279   1.904   2.331   2.056 -0.3934  0.0948 -0.9544
  427SOL    HW1 1280   1.955   2.269   2.129  3.7651 -2.0884  0.9508
  427SOL    HW2 1281   1.901   2.433   2.081 -1.1275 -1.3776 -0.8749
  428SOL     OW 1282   0.812   0.003   0.125 -0.0446 -0.0600 -0.1315
  428SOL    HW1 1283   0.822   0.099   0.089 -0.3607  0.5957 -2.5798
  428SOL    HW2 1284   0.894  -0.059   0.123  1.9134 -3.8442 -0.8157
  429SOL     OW 1285   1.342   0.126   0.225 -0.9120  0.1403  0.1102
  429SOL    HW1 1286   1.441   0.141   0.246 -1.2467  1.7773  0.0822
  429SOL    HW2 1287   1.336   0.128   0.121  0.0082  0.3052  0.4013
  430SOL     OW 1288   2.880   1.391   0.294  0.4746 -0.5133  0.4351
  430SOL    HW1 1289   2.896   1.458   0.219 -2.2039  2.7921 -2.3464
  430SOL    HW2 1290   2.881   1.436   0.390  1.5446  2.3532  0.1281
  431SOL     OW 1291   2.079   1.573   0.976 -0.2943  0.0857 -0.0631
  431SOL    HW1 1292   2.176   1.595   0.938  2.2334  2.1739  2.2193
  431SOL    HW2 1293   2.004   1.606   0.915  0.9243  1.8160  0.4193
  432SOL     OW 1294   2.946   2.169   1.183  0.0738 -0.9722  0.1974
  432SOL    HW1 1295   2.973   2.068   1.189  1.6364 -2.1733  0.7342
  432SOL    HW2 1296   3.000   2.228   1.251 -3.6497  2.7439  0.4464
  433SOL     OW 1297   1.850   0.283   0.821  0.3442 -0.1079  0.4604
  433SOL    HW1 1298   1.765   0.249   0.867 -4.2179 -1.4650  2.6490
  433SOL    HW2 1299   1.931   0.292   0.893  2.2490  2.1478  1.0592
  434SOL     OW 1300   1.559   0.349   0.687  0.2064 -0.3305 -0.3558
  434SOL    HW1 1301   1.523   0.434   0.640 -0.3071  2.8495  0.9600
  434SOL    HW2 1302   1.574   0.369   0.788  1.9952  3.4216 -2.0310
  435SOL     OW 1303   1.519   1.479   2.002  0.6624 -0.2186  0.1228
  435SOL    HW1 1304   1.543   1.528   2.095  2.7309 -0.6782  0.2563
  435SOL    HW2 1305   1.522   1.542   1.918  0.6266 -0.1170 -2.4060
  436SOL     OW 1306   1.712   2.745   2.243  0.3149  0.3149 -0.1284
  436SOL    HW1 1307   1.672   2.808   2.317 -1.7883 -0.3094 -3.5257
  436SOL    HW2 1308   1.722   2.642   2.279  1.0383 -1.7447  2.1352
  437SOL     OW 1309   1.117   2.944   0.919 -0.4152  0.1897  0.3145
  437SOL    HW1 1310   1.040   3.009   0.896  0.5477  0.9556  1.6253
  437SOL    HW2 1311   1.122   2.915   1.016  0.5452  0.4596 -0.7396
  438SOL     OW 1312   1.006   2.638   1.319 -0.4354 -0.2686  0.6012
  438SOL    HW1 1313   1.072   2.723   1.330 -2.1525 -0.5778  0.4806
  438SOL    HW2 1314   1.043   2.542   1.343  1.7155 -0.8197  0.3488
  439SOL     OW 1315   0.701   1.796   1.143  0.0675 -0.2182 -0.5071
  439SOL    HW1 1316   0.707   1.864   1.064 -1.6150  0.4751 -0.8061
  439SOL    HW2 1317   0.603   1.765   1.161  0.4173 -2.9131 -0.6205
  440SOL     OW 1318   1.065   2.444   1.943  0.1029 -0.0261  0.5960
  440SOL    HW1 1319   1.009   2.501   1.876 -0.6428  2.4782  0.2277
  440SOL    HW2 1320   1.168   2.465   1.928 -0.2267  2.5970 -0.4100
  441SOL     OW 1321   0.449   2.723   1.511 -0.8619 -0.0053  0.5810
  441SOL    HW1 1322   0.502   2.639   1.528 -0.1723  0.4763 -0.9577
  441SOL    HW2 1323   0.376   2.703   1.432 -0.7612 -1.8126 -0.3235
  442SOL     OW 1324   2.256   0.744   2.489 -0.8477  0.0097 -0.1999
  442SOL    HW1 1325   2.210   0.655   2.510  2.1219 -1.5953  0.3052
  442SOL    HW2 1326   2.188   0.820   2.490 -0.0210 -0.4203  0.0245
  443SOL     OW 1327   1.194   2.723   2.172  0.0467 -0.1225 -0.8620
  443SOL    HW1 1328   1.194   2.782   2.257 -3.0630 -1.7380  0.0172
  443SOL    HW2 1329   1.226   2.623   2.182  0.9063 -2.7098  0.5688
  444SOL     OW 1330   1.070   1.343   1.568 -0.0077  0.2327  0.3103
  444SOL    HW1 1331   1.169   1.301   1.565 -1.0701 -2.8727 -0.6828
  444SOL    HW2 1332   1.061   1.447   1.567 -0.2682  0.7454 -0.2787
  445SOL     OW 1333   3.084   2.345   1.937 -0.0051  0.7587  0.1662
  445SOL    HW1 1334   3.082   2.435   1.882 -0.6167  0.8049 -1.3732
  445SOL    HW2 1335   2.987   2.334   1.974  0.0216  0.5889 -0.6194
  446SOL     OW 1336   0.174   1.915   2.347  0.4008  0.1245 -0.6676
  446SOL    HW1 1337   0.098   1.973   2.401 -0.6100 -0.9690  1.8398
  446SOL    HW2 1338   0.135   1.859   2.267 -1.2622 -1.5688  1.2681
  447SOL     OW 1339   1.239   1.701   1.959 -0.0897  0.0312  0.2992
  447SOL    HW1 1340   1.171   1.759   1.905 -1.6701  0.1529  0.2322
  447SOL    HW2 1341   1.289   1.761   2.028 -3.0805  0.2576  0.9872
  448SOL     OW 1342   0.135   1.489   2.012 -0.5018 -0.9490 -0.0272
  448SOL    HW1 1343   0.130   1.587   1.973 -1.6605  1.2738  1.8678
  448SOL    HW2 1344   0.139   1.497   2.117 -0.1989 -0.2047 -3.4831
  449SOL     OW 1345   2.012   3.000   0.843 -0.4030  0.3776  0.6875
  449SOL    HW1 1346   2.080   3.045   0.909  1.1511  0.9673  0.1399
  449SOL    HW2 1347   2.008   2.892   0.843  0.8898 -2.4289 -1.7713
  450SOL     OW 1348   2.265   1.351   0.778 -0.3184 -0.2587  0.4009
  450SOL    HW1 1349   2.262   1.260   0.836 -0.7234  0.3328 -0.7118
  450SOL    HW2 1350   2.200   1.354   0.693 -1.9422 -0.2674  0.3582
  451SOL     OW 1351   1.443   0.027   1.488  0.0275 -0.0002  0.0829
  451SOL    HW1 1352   1.353   0.080   1.470 -1.6002  1.1900 -2.0609
  451SOL    HW2 1353   1.437  -0.027   1.577 -2.1598 -0.8945  0.3739
  452SOL     OW 1354   2.628   2.296   2.226  0.0034  0.1179  0.2831
  452SOL    HW1 1355   2.614   2.394   2.259  0.8227  2.7978  1.0503
  452SOL    HW2 1356   2.668   2.229   2.298  0.4064 -1.1471  0.6841
  453SOL     OW 1357   2.435   2.634   3.063 -0.2956 -0.6040 -0.1982
  453SOL    HW1 1358   2.352   2.697   3.080  0.6656 -1.6072 -3.6794
  453SOL    HW2 1359   2.431   2.574   2.976  1.3789  0.2706 -0.6194
  454SOL     OW 1360   0.969   1.113   2.128  0.3180 -0.0502  0.2432
  454SOL    HW1 1361   0.969   1.197   2.064 -0.9619  2.8952 -0.3948
  454SOL    HW2 1362   1.058   1.060   2.128  1.7131 -0.8449 -0.3372
  455SOL     OW 1363   0.732   2.663   2.861  0.4569  0.2037 -0.0942
  455SOL    HW1 1364   0.806   2.730   2.891 -2.5654  2.3884  0.1020
  455SOL    HW2 1365   0.705   2.601   2.937  0.1698 -2.1683  1.1650
  456SOL     OW 1366   0.526   1.801   0.329  0.3566 -0.6453 -0.1802
  456SOL    HW1 1367   0.614   1.762   0.301 -1.3791  1.8412 -2.4342
  456SOL    HW2 1368   0.520   1.905   0.333 -1.4296  1.3623 -0.2776
  457SOL     OW 1369   0.330   2.641   0.746 -0.2517 -0.1005  0.1014
  457SOL    HW1 1370   0.312   2.648   0.644  0.7180 -2.5013 -0.9674
  457SOL    HW2 1371   0.425   2.670   0.761 -2.4622 -1.8657  1.4805
  458SOL     OW 1372   2.988   2.971   1.252 -0.2565  0.3835  0.2883
  458SOL    HW1 1373   3.014   3.067   1.267  2.6141 -2.0711 -0.5499
  458SOL    HW2 1374   2.925   2.966   1.171 -2.4079  2.4235  1.5036
  459SOL     OW 1375   2.104   2.545   0.930 -0.9897 -0.3942  0.3059
  459SOL    HW1 1376   2.096   2.623   0.994 -0.8766 -2.1948  1.0598
  459SOL    HW2 1377   2.189   2.547   0.871 -4.0052  0.5545 -0.2785
  460SOL     OW 1378   1.124   1.932   2.936 -0.0833 -0.1232 -0.0730
  460SOL    HW1 1379   1.145   2.025   2.898 -0.4932 -1.6688 -1.0948
  460SOL    HW2 1380   1.207   1.871   2.938 -3.5062  0.9431 -0.7335
  461SOL     OW 1381   0.463   2.115   2.682 -0.1745 -0.4380  0.0224
  461SOL    HW1 1382   0.421   2.030   2.634  2.6305 -1.0113  1.2359
  461SOL    HW2 1383   0.534   2.092   2.753 -2.1588  0.5128 -1.3063
  462SOL     OW 1384   0.938   1.218   1.840  0.1847 -0.2204  0.0073
  462SOL    HW1 1385   0.971   1.127   1.800 -0.2715 -1.0828  1.3148
  462SOL    HW2 1386   0.926   1.289   1.771 -0.3751  2.0801 -2.7512
  463SOL     OW 1387   0.441   0.783   0.618 -0.2267 -0.3329 -0.4356
  463SOL    HW1 1388   0.496   0.699   0.596  1.8426 -1.2315  1.5603
  463SOL    HW2 1389   0.344   0.780   0.590  1.2501  1.4637  1.7454
  464SOL     OW 1390   0.579   2.233   2.264 -0.6292 -0.1193  0.2498
  464SOL    HW1 1391   0.529   2.303   2.325 -1.0804 -1.1685 -2.0182
  464SOL    HW2 1392   0.582   2.266   2.163  0.0222 -0.0655 -0.4833
  465SOL     OW 1393   0.242   0.929   0.847 -0.7640 -0.3135 -0.0885
  465SOL    HW1 1394   0.170   0.965   0.786  0.6325 -3.0860 -0.7334
  465SOL    HW2 1395   0.231   0.828   0.869  0.8567  1.0859 -1.5529
  466SOL     OW 1396   1.385   1.108   1.116  0.3640 -0.0638 -0.6066
  466SOL    HW1 1397   1.434   1.200   1.122  1.3696 -1.3931 -2.7255
  466SOL    HW2 1398   1.298   1.116   1.062 -1.1047  1.6421  0.0414
  467SOL     OW 1399   0.464   0.361   2.351 -0.1265 -0.2215  0.0067
  467SOL    HW1 1400   0.441   0.448   2.407 -0.5800  0.0843  0.8314
  467SOL    HW2 1401   0.447   0.271   2.401 -0.0583 -0.2712  0.8285
  468SOL     OW 1402   0.459   2.274   1.660  0.0892 -0.3019 -0.1380
  468SOL    HW1 1403   0.471   2.359   1.718  1.7757 -0.5138  0.7995
  468SOL    HW2 1404   0.424   2.296   1.566  1.4179 -1.0501 -0.9477
  469SOL     OW 1405   1.517   1.351   1.137  0.5286 -0.4347 -0.8288
  469SOL    HW1 1406   1.606   1.298   1.123  0.8815 -0.5188  1.6896
  469SOL    HW2 1407   1.518   1.429   1.211  1.8598 -0.9483 -0.9171
  470SOL     OW 1408   3.021   1.684   0.727 -0.1530 -0.3140 -0.1647
  470SOL    HW1 1409   3.091   1.759   0.720  1.3449 -1.8286  1.8207
  470SOL    HW2 1410   2.969   1.685   0.812  0.1062  2.7298 -0.8404
  471SOL     OW 1411   2.648   1.314   2.126  0.8040 -0.6456  0.0892
  471SOL    HW1 1412   2.630   1.250   2.208  1.0442  0.4164  0.5145
  471SOL    HW2 1413   2.725   1.379   2.145  0.4492 -0.6511 -2.4951
  472SOL     OW 1414   1.102   2.437   3.063  0.0895  0.1576  0.3130
  472SOL    HW1 1415   1.150   2.413   3.154  0.3315  3.0412  0.9502
  472SOL    HW2 1416   1.047   2.357   3.030  0.1210  0.3198  2.3307
  473SOL     OW 1417   1.110   1.554   0.911 -0.2752  0.0669 -0.2540
  473SOL    HW1 1418   1.017   1.549   0.950  0.5021 -1.1287  1.3831
  473SOL    HW2 1419   1.190   1.529   0.977  2.5527  1.4171 -0.1573
  474SOL     OW 1420   0.828   1.221   0.679  0.2932  0.1682  0.8864
  474SOL    HW1 1421   0.796   1.236   0.580 -2.0790 -0.8573  0.4185
  474SOL    HW2 1422   0.817   1.123   0.706 -2.8218 -0.6542  2.6328
  475SOL     OW 1423   2.872   0.111   0.757  0.1770 -0.1200  0.0615
  475SOL    HW1 1424   2.955   0.125   0.814  1.0479 -1.8883 -1.5845
  475SOL    HW2 1425   2.782   0.117   0.812 -0.6792 -0.7418  0.1912
  476SOL     OW 1426   0.907   3.041   1.803 -0.3991  0.3030  0.1103
  476SOL    HW1 1427   0.982   2.995   1.856  2.4525  1.5685  0.7742
  476SOL    HW2 1428   0.907   3.028   1.700  0.0954  0.0889 -2.1753
  477SOL     OW 1429   1.423   0.321   2.449 -0.0490 -0.2523 -0.2132
  477SOL    HW1 1430   1.419   0.346   2.550 -2.0524 -0.6218  0.0103
  477SOL    HW2 1431   1.514   0.278   2.420  1.9043  2.4542  0.1304
  478SOL     OW 1432   2.260   1.792   0.219 -0.1333  0.2211 -0.2414
  478SOL    HW1 1433   2.195   1.713   0.218  0.2214  0.7581  2.1544
  478SOL    HW2 1434   2.363   1.768   0.208  1.7388  0.1602  1.2743
  479SOL     OW 1435   1.314   1.032   2.877  0.4679  0.1880  0.0213
  479SOL    HW1 1436   1.379   1.054   2.798  1.7829  0.6830 -0.3920
  479SOL    HW2 1437   1.215   1.025   2.842 -2.3662  3.9579 -4.1049
  480SOL     OW 1438   2.487   2.326   0.388 -0.5303  0.2610  0.1286
  480SOL    HW1 1439   2.437   2.237   0.421 -2.0522  0.6550  0.0594
  480SOL    HW2 1440   2.449   2.359   0.297 -2.3484 -2.0175 -2.5648
  481SOL     OW 1441   1.109   1.149   0.800  0.4640  0.0775  0.0521
  481SOL    HW1 1442   1.037   1.202   0.748  0.0856  0.8009  1.2759
  481SOL    HW2 1443   1.136   1.182   0.895  2.3502  2.2513 -1.3333
  482SOL     OW 1444   1.607   0.341   2.053 -0.1570 -0.3973 -0.1075
  482SOL    HW1 1445   1.615   0.420   1.982 -0.7693 -0.4397  0.8333
  482SOL    HW2 1446   1.697   0.306   2.085  3.7892  0.8542  0.8483
  483SOL     OW 1447   0.160   2.331   1.262  0.0283 -0.5058  0.2111
  483SOL    HW1 1448   0.067   2.325   1.306 -0.9530 -0.5899  2.7652
  483SOL    HW2 1449   0.154   2.379   1.172 -0.1563 -1.6412  0.8565
  484SOL     OW 1450   1.720   0.976   1.407  0.3672  0.2097  0.0632
  484SOL    HW1 1451   1.798   0.910   1.379  2.0587  1.5119  0.9613
  484SOL    HW2 1452   1.760   1.072   1.431 -1.0034  2.6108 -2.1375
  485SOL     OW 1453   0.684   1.099   1.781 -0.2672  0.3506  0.4398
  485SOL    HW1 1454   0.688   1.087   1.678  2.5152 -0.9119 -2.1633
  485SOL    HW2 1455   0.773   1.141   1.820  0.9319 -1.8432 -0.4077
  486SOL     OW 1456   0.939   1.989   2.455  0.3188  0.1036 -0.8387
  486SOL    HW1 1457   0.976   1.940   2.540  0.6753  1.8083  2.0512
  486SOL    HW2 1458   0.837   2.006   2.450 -0.5488  0.7631  0.5258
  487SOL     OW 1459   1.691   1.516   0.925 -0.5866  0.1988  0.6926
  487SOL    HW1 1460   1.679   1.426   0.868  0.6679 -1.3168 -0.8364
  487SOL    HW2 1461   1.765   1.585   0.885  0.8220 -1.6654 -1.8480
  488SOL     OW 1462   2.954   0.972   2.217 -0.3599  0.0882  0.2048
  488SOL    HW1 1463   2.990   0.898   2.148  0.5351 -0.6372  0.7001
  488SOL    HW2 1464   2.981   0.943   2.310  0.8629 -0.4980 -0.0174
  489SOL     OW 1465   2.730   0.283   1.339  0.1850  0.0883  0.0849
  489SOL    HW1 1466   2.694   0.213   1.409 -0.0300 -0.6107  1.2778
  489SOL    HW2 1467   2.808   0.247   1.285  1.3873 -2.8159 -2.1699
  490SOL     OW 1468   1.430   2.975   2.821 -0.1439 -0.1845  0.1861
  490SOL    HW1 1469   1.459   2.875   2.806  2.0823  0.7400  2.5298
  490SOL    HW2 1470   1.415   3.029   2.728 -1.9536  2.1478  2.6135
  491SOL     OW 1471   1.855   1.554   2.714  0.1967  0.5110  0.1153
  491SOL    HW1 1472   1.801   1.575   2.799 -0.0302  0.8453  1.7576
  491SOL    HW2 1473   1.945   1.521   2.741 -0.0571 -1.9073 -0.1561
  492SOL     OW 1474   0.490   2.021   0.766 -0.3762 -0.1417  0.0953
  492SOL    HW1 1475   0.536   2.037   0.857 -1.1054 -0.7272  0.5943
  492SOL    HW2 1476   0.442   2.103   0.732  1.6333  0.2742  1.4388
  493SOL     OW 1477   0.416   1.388   2.066  0.0802 -0.8315  0.0155
  493SOL    HW1 1478   0.330   1.440   2.048  1.3770 -2.5097 -5.8632
  493SOL    HW2 1479   0.408   1.318   2.144 -0.9768 -1.0993  0.3984
  494SOL     OW 1480   2.653   2.684   0.156 -0.2323 -0.2598  0.0650
  494SOL    HW1 1481   2.671   2.616   0.232  1.2067 -1.6329 -0.5885
  494SOL    HW2 1482   2.590   2.643   0.083  1.7982 -2.3147 -1.2692
  495SOL     OW 1483   2.733   2.673   2.724 -0.1232 -0.2878 -0.5323
  495SOL    HW1 1484   2.745   2.571   2.701  0.5081 -0.0603  1.1800
  495SOL    HW2 1485   2.723   2.737   2.643  2.6133  0.8002 -2.1860
  496SOL     OW 1486   2.067   2.174   0.730  0.5466  0.0137  0.1857
  496SOL    HW1 1487   2.080   2.207   0.827 -0.4367 -0.9637  1.5143
  496SOL    HW2 1488   2.101   2.078   0.722  1.2049  4.6645  2.4187
  497SOL     OW 1489   0.212   2.968   2.393 -0.3486  0.2125  0.2164
  497SOL    HW1 1490   0.134   3.022   2.437 -1.0069  0.1436  0.5940
  497SOL    HW2 1491   0.267   3.033   2.334  1.8500  0.0399 -0.0460
  498SOL     OW 1492   1.242   1.455   1.138 -0.1471  0.1538 -0.3127
  498SOL    HW1 1493   1.332   1.459   1.183 -1.9672  1.5533 -1.8814
  498SOL    HW2 1494   1.162   1.476   1.199 -0.6127 -2.0673  4.0833
  499SOL     OW 1495   0.830   1.835   0.522  0.2946  0.3360  0.2765
  499SOL    HW1 1496   0.801   1.740   0.527  0.9857  1.9301  0.9619
  499SOL    HW2 1497   0.843   1.882   0.613  1.3475  0.7633  1.6413
  500SOL     OW 1498   1.392   2.978   1.697 -0.1843 -0.3668  0.5172
  500SOL    HW1 1499   1.401   3.009   1.793  1.5062  1.2691  0.0857
  500SOL    HW2 1500   1.456   2.898   1.677 -1.6312  0.5001 -0.4953
  501SOL     OW 1501   0.739   1.143   2.275 -0.6617  0.1435 -0.1924
  501SOL    HW1 1502   0.678   1.061   2.286 -0.4844  0.6649 -1.7300
  501SOL    HW2 1503   0.824   1.129   2.217 -2.0062  0.8677  2.0079
  502SOL     OW 1504   2.595   0.963   1.730  1.2272  0.4434 -0.0769
  502SOL    HW1 1505   2.572   0.974   1.632  0.6685 -0.5374  1.8739
  502SOL    HW2 1506   2.578   0.869   1.772  0.5532  0.3231 -0.1161
  503SOL     OW 1507   1.345   0.194   0.594  0.5053  0.3799  0.1321
  503SOL    HW1 1508   1.265   0.260   0.587  1.5496 -2.3802  1.1173
  503SOL    HW2 1509   1.433   0.240   0.624  0.8901 -1.9708 -2.3821
  504SOL     OW 1510   2.994   2.338   1.394  0.3772  0.5247 -0.1640
  504SOL    HW1 1511   2.993   2.435   1.439 -1.9810  0.7800 -1.6348
  504SOL    HW2 1512   2.920   2.272   1.418 -3.5031 -0.1608 -3.2079
  505SOL     OW 1513   2.279   1.192   1.458  0.2593  0.6897  0.0925
  505SOL    HW1 1514   2.259   1.249   1.372  1.3872  0.6506 -0.2737
  505SOL    HW2 1515   2.365   1.221   1.505 -2.6741 -2.3161 -2.5375
  506SOL     OW 1516   1.945   0.254   1.784 -1.2368 -0.0874  0.3979
  506SOL    HW1 1517   2.028   0.193   1.750 -0.4827 -3.6587 -2.1678
  506SOL    HW2 1518   1.963   0.343   1.830  0.3706  1.5656 -2.3829
  507SOL     OW 1519   0.498   0.639   2.174  0.1269  0.0081  0.3933
  507SOL    HW1 1520   0.414   0.630   2.111 -3.8960  2.4376  1.5581
  507SOL    HW2 1521   0.563   0.562   2.157 -0.1105  1.5044 -0.3331
  508SOL     OW 1522   0.274   1.667   0.888 -0.2371  0.6299 -0.0587
  508SOL    HW1 1523   0.312   1.742   0.825  1.1227 -0.1857 -2.3009
  508SOL    HW2 1524   0.234   1.699   0.976  0.8777 -1.0644  0.0643
  509SOL     OW 1525   1.325   1.191   2.490 -0.0600 -0.1014  0.2482
  509SOL    HW1 1526   1.231   1.146   2.503  2.6402  2.9689  2.2503
  509SOL    HW2 1527   1.373   1.143   2.408 -1.2541 -4.2934 -1.1979
  510SOL     OW 1528   1.329   1.974   2.042  0.6979  0.1879  0.6212
  510SOL    HW1 1529   1.281   2.064   1.998  0.7990 -1.0344 -2.7517
  510SOL    HW2 1530   1.283   1.940   2.128 -0.7150  0.5082  0.6007
  511SOL     OW 1531   3.097   2.648   1.312  0.3537 -0.0568  0.5770
  511SOL    HW1 1532   3.067   2.598   1.229 -0.0886 -2.1008 -0.0394
  511SOL    HW2 1533   3.069   2.601   1.403 -0.1909 -0.6662  0.4896
  512SOL     OW 1534   2.429   0.428   1.381  0.1244 -0.0884 -0.3724
  512SOL    HW1 1535   2.327   0.412   1.369  0.3842  2.0267  0.2920
  512SOL    HW2 1536   2.488   0.438   1.297  2.9907  2.8061 -0.6805
  513SOL     OW 1537   2.458   1.992   0.859  0.2621  0.2677  0.0130
  513SOL    HW1 1538   2.423   2.084   0.828 -0.1750  1.1469 -0.4920
  513SOL    HW2 1539   2.552   1.969   0.819 -1.0939  0.2008  0.2655
  514SOL     OW 1540   0.683   2.780   0.377  0.2076  0.1071 -0.2675
  514SOL    HW1 1541   0.633   2.823   0.298  0.2694  0.2666  0.4515
  514SOL    HW2 1542   0.684   2.828   0.466 -1.4902 -0.9589  0.6910
  515SOL     OW 1543   2.004   1.178   2.295 -0.1532  0.3228 -0.0634
  515SOL    HW1 1544   1.951   1.164   2.205 -1.6465 -0.4911 -0.4729
  515SOL    HW2 1545   1.928   1.202   2.369 -2.4843 -1.9244  0.8236
  516SOL     OW 1546   0.263   0.274   1.963  0.4372  0.7026 -0.2663
  516SOL    HW1 1547   0.348   0.304   1.906  2.2651  2.3237 -0.1134
  516SOL    HW2 1548   0.186   0.234   1.907  2.4216  0.1603 -1.0567
  517SOL     OW 1549   0.358   3.055   1.165 -0.3526 -0.0107  0.4993
  517SOL    HW1 1550   0.395   3.149   1.186 -0.9278  1.2259  3.9656
  517SOL    HW2 1551   0.282   3.024   1.225 -0.3746  1.9319 -1.3675
  518SOL     OW 1552   2.150   0.060   1.789 -0.2956  1.3046  0.2520
  518SOL    HW1 1553   2.234   0.103   1.837 -0.6554 -1.6958  0.4169
  518SOL    HW2 1554   2.168  -0.035   1.746 -1.2323 -0.3956 -1.9712
  519SOL     OW 1555   2.403   2.200   2.591  0.2907 -0.5218 -0.4068
  519SOL    HW1 1556   2.304   2.181   2.619 -0.8373  2.3836  2.1854
  519SOL    HW2 1557   2.443   2.290   2.627 -0.1828 -2.1007  2.8155
  520SOL     OW 1558   1.781   2.887   1.810  0.1757  0.3044 -0.1207
  520SOL    HW1 1559   1.705   2.867   1.874  2.1672  2.2335 -0.0771
  520SOL    HW2 1560   1.826   2.802   1.781 -3.1760 -0.9215 -0.4260
  521SOL     OW 1561   0.572   0.091   2.107 -0.0208  0.7040 -0.5418
  521SOL    HW1 1562   0.479   0.072   2.144 -1.3174  0.8156  1.0072
  521SOL    HW2 1563   0.647   0.077   2.178 -0.6263 -2.7037  0.1671
  522SOL     OW 1564   0.153   1.904   1.511  0.1538 -0.1383 -0.2035
  522SOL    HW1 1565   0.220   1.947   1.580 -0.4828  2.7670  2.5046
  522SOL    HW2 1566   0.132   1.974   1.435 -0.8131  1.5247  0.1604
  523SOL     OW 1567   2.201   2.919   1.612 -0.6663 -0.0442 -0.0412
  523SOL    HW1 1568   2.244   2.846   1.558 -0.6443  3.0924  0.0395
  523SOL    HW2 1569   2.102   2.929   1.581  0.9004  0.8616 -2.0467
  524SOL     OW 1570   0.208   2.750   2.815  0.8817 -0.5629  0.4481
  524SOL    HW1 1571   0.149   2.823   2.861  0.1194  2.4022  1.7987
  524SOL    HW2 1572   0.308   2.765   2.827  1.5916  0.3202  1.1639
  525SOL     OW 1573   2.188   1.906   0.482  0.0355  0.1164 -0.5344
  525SOL    HW1 1574   2.159   1.844   0.560  0.5126 -0.6447 -1.0850
  525SOL    HW2 1575   2.188   1.853   0.389 -0.9403 -2.6151 -3.0233
  526SOL     OW 1576   0.417   1.498   1.605 -0.7801 -0.0691 -0.1252
  526SOL    HW1 1577   0.337   1.457   1.659  1.0635  0.7133  3.2568
  526SOL    HW2 1578   0.479   1.423   1.566  0.8982 -2.8610  3.3021
  527SOL     OW 1579   1.131   2.912   1.236 -0.0225  0.1210 -0.6969
  527SOL    HW1 1580   1.220   2.872   1.271  1.5606 -0.5239  2.2956
  527SOL    HW2 1581   1.135   3.017   1.230 -0.1250 -0.0262  1.3460
  528SOL     OW 1582   1.339   2.407   0.486 -0.4778 -0.6879 -0.6740
  528SOL    HW1 1583   1.378   2.313   0.488 -2.4915 -0.7303  1.8543
  528SOL    HW2 1584   1.384   2.472   0.557  0.4679  0.9015 -1.1627
  529SOL     OW 1585   1.879   1.696   0.840 -0.4535  0.2227 -0.3470
  529SOL    HW1 1586   1.863   1.704   0.739 -0.2700 -0.6971  0.2132
  529SOL    HW2 1587   1.886   1.789   0.893  0.5412 -0.1893 -0.3611
  530SOL     OW 1588   0.284   2.423   0.333 -0.2964  0.2290 -0.1341
  530SOL    HW1 1589   0.313   2.504   0.393 -3.2827 -1.1580 -0.6059
  530SOL    HW2 1590   0.329   2.340   0.368  2.7207  0.0594 -1.2398
  531SOL     OW 1591   1.808   0.910   1.038 -0.0672 -0.9221  0.5164
  531SOL    HW1 1592   1.860   0.855   0.958 -1.0659 -1.3182 -0.9518
  531SOL    HW2 1593   1.711   0.941   1.015  1.2482  2.0592  3.0291
  532SOL     OW 1594   0.479   1.042   0.750  0.5255  0.5400 -0.2318
  532SOL    HW1 1595   0.503   1.036   0.650  1.4033  0.2829 -1.3700
  532SOL    HW2 1596   0.394   0.983   0.777  1.1445  0.6416  2.0685
  533SOL     OW 1597   1.768   0.033   2.569  0.3108  0.1840 -0.4212
  533SOL    HW1 1598   1.869   0.008   2.590  0.3516 -2.0669  2.9976
  533SOL    HW2 1599   1.719   0.093   2.644 -0.6489 -0.3970  2.4278
  534SOL     OW 1600   0.405   0.200   1.547  0.5376 -0.2928 -0.2411
  534SOL    HW1 1601   0.498   0.204   1.596 -1.7225 -0.2105 -0.3257
  534SOL    HW2 1602   0.359   0.292   1.535  3.0814 -0.5968 -0.8190
  535SOL     OW 1603   1.942   0.372   0.178 -0.3884  0.0021 -0.0158
  535SOL    HW1 1604   1.957   0.471   0.201  1.1984 -0.9099  0.4039
  535SOL    HW2 1605   1.938   0.325   0.267  0.2778  2.5165  0.4173
  536SOL     OW 1606   1.393   2.625   0.955  0.2178 -0.0507  0.1802
  536SOL    HW1 1607   1.340   2.604   1.048 -1.6876 -1.6387  0.1765
  536SOL    HW2 1608   1.328   2.645   0.873 -2.3828 -0.7872 -2.2786
  537SOL     OW 1609   0.839   0.275   2.410  0.2756 -0.0801 -0.1220
  537SOL    HW1 1610   0.900   0.311   2.331  3.0996  0.7782 -1.4850
  537SOL    HW2 1611   0.769   0.205   2.376 -0.1565 -3.7289 -1.4447
  538SOL     OW 1612   1.644   2.304   1.341 -0.6555  0.3107 -0.3368
  538SOL    HW1 1613   1.641   2.203   1.372  0.7746 -0.9226 -1.6689
  538SOL    HW2 1614   1.742   2.344   1.344  1.0085  0.0912  0.9745
  539SOL     OW 1615   0.152   1.639   2.698 -0.5978 -0.1721  0.1277
  539SOL    HW1 1616   0.066   1.615   2.639 -0.2439 -2.7029 -0.3921
  539SOL    HW2 1617   0.152   1.736   2.737 -1.5404 -0.7569 -0.8715
  540SOL     OW 1618   2.675   1.713   1.934  0.4074 -0.7261 -0.2189
  540SOL    HW1 1619   2.622   1.627   1.969 -0.5595 -1.3854  1.4450
  540SOL    HW2 1620   2.610   1.794   1.930  1.1227  0.2458  0.3046
  541SOL     OW 1621   0.574   2.162   0.039 -0.3849 -0.1267 -0.1856
  541SOL    HW1 1622   0.580   2.133   0.138 -0.1807  0.8246 -0.4550
  541SOL    HW2 1623   0.477   2.159   0.004  1.4304  0.5968  0.5294
  542SOL     OW 1624   2.231   2.605   0.472  0.2387  0.1343  0.5613
  542SOL    HW1 1625   2.157   2.676   0.451 -1.9860 -1.5473 -0.6243
  542SOL    HW2 1626   2.191   2.511   0.484  0.7127 -1.3958 -1.2804
  543SOL     OW 1627   1.060   1.811   1.568  0.0062  0.0447 -0.0576
  543SOL    HW1 1628   1.060   1.857   1.664  0.7205  0.0599 -2.0758
  543SOL    HW2 1629   1.000   1.861   1.502 -1.7307  0.6851 -0.9052
  544SOL     OW 1630   1.108   0.515   0.178  0.0516  0.1208  0.3060
  544SOL    HW1 1631   1.078   0.431   0.224  0.1826 -1.4636 -1.2876
  544SOL    HW2 1632   1.145   0.504   0.081  0.7206  0.0240 -0.7178
  545SOL     OW 1633   1.086   1.811   0.784 -0.1496  0.5695  0.2075
  545SOL    HW1 1634   1.178   1.838   0.744 -0.1344  0.0141 -0.6109
  545SOL    HW2 1635   1.092   1.718   0.832  3.7547 -0.5376 -1.0526
  546SOL     OW 1636   2.684   1.554   3.008  0.0901  0.1449 -0.3144
  546SOL    HW1 1637   2.663   1.657   2.983 -4.1137  1.4542 -3.9162
  546SOL    HW2 1638   2.597   1.494   3.025  1.7154  0.9115  0.2412
  547SOL     OW 1639   0.630   3.024   2.535  0.0804  0.7860 -0.6085
  547SOL    HW1 1640   0.706   3.008   2.602  1.3173  1.3290  1.0667
  547SOL    HW2 1641   0.562   2.943   2.516  0.4141  2.6864 -1.4275
  548SOL     OW 1642   2.047   0.804   3.061  0.2129 -0.3636  0.3487
  548SOL    HW1 1643   1.947   0.791   3.039  1.1384  1.0228  2.4744
  548SOL    HW2 1644   2.070   0.902   3.078 -1.5272 -1.4141  1.5297
  549SOL     OW 1645   0.674   0.580   0.203  0.2350 -0.0617 -0.1161
  549SOL    HW1 1646   0.607   0.603   0.125  1.1182 -1.3829  0.8090
  549SOL    HW2 1647   0.769   0.637   0.207  1.0169  4.9755  1.0804
  550SOL     OW 1648   2.567   2.820   2.885  0.2399  0.7620 -0.0319
  550SOL    HW1 1649   2.511   2.751   2.944 -1.2058 -3.2431 -1.7363
  550SOL    HW2 1650   2.622   2.771   2.811  0.0094  0.5690 -0.6370
  551SOL     OW 1651   0.224   0.900   0.258 -0.1373 -0.3954  0.1345
  551SOL    HW1 1652   0.325   0.876   0.242  1.0503  0.5084 -1.2200
  551SOL    HW2 1653   0.206   0.869   0.356  0.8991  0.3005 -1.0001
  552SOL     OW 1654   0.644   2.983   1.918 -0.9435  0.6383  1.0680
  552SOL    HW1 1655   0.643   3.058   1.989 -2.4377  0.8167  0.3854
  552SOL    HW2 1656   0.732   2.989   1.857  0.1816  0.3528  1.3183
  553SOL     OW 1657   2.925   2.409   0.325  0.4193 -0.0965 -0.0349
  553SOL    HW1 1658   2.894   2.323   0.369  1.6510 -1.5972  0.3414
  553SOL    HW2 1659   2.836   2.473   0.319  0.7536  0.4961  0.2754
  554SOL     OW 1660   2.112   0.351   0.471  0.4561  0.0652  0.2829
  554SOL    HW1 1661   2.173   0.368   0.391 -1.4260 -0.5299  0.6373
  554SOL    HW2 1662   2.150   0.283   0.545 -0.3829  0.1745  0.0994
  555SOL     OW 1663   0.433   2.851   2.503  0.3200 -0.1751 -0.5668
  555SOL    HW1 1664   0.343   2.891   2.492 -0.3322  0.6691  1.9038
  555SOL    HW2 1665   0.470   2.794   2.420  1.6624 -1.6466 -1.3348
  556SOL     OW 1666   0.854   2.419   1.594  0.0448  0.6067  0.2320
  556SOL    HW1 1667   0.880   2.491   1.660 -0.1113  3.9263  0.3843
  556SOL    HW2 1668   0.930   2.386   1.531 -0.5448 -1.4249  0.6516
  557SOL     OW 1669   0.171   2.042   0.237  0.6968  0.2134  0.5387
  557SOL    HW1 1670   0.110   1.984   0.169 -1.0211 -0.6232 -0.9282
  557SOL    HW2 1671   0.253   2.089   0.189 -0.0603  0.6183  0.4129
  558SOL     OW 1672   2.760   2.174   0.424  0.9037 -0.2839 -0.1149
  558SOL    HW1 1673   2.671   2.216   0.456 -0.8187  0.6848 -0.3650
  558SOL    HW2 1674   2.751   2.091   0.367 -4.0557 -0.1078 -1.3472
  559SOL     OW 1675   0.407   2.339   1.393 -0.9891  0.0490  0.4346
  559SOL    HW1 1676   0.318   2.330   1.341  0.3806  3.1103 -1.0094
  559SOL    HW2 1677   0.477   2.276   1.351  0.4916 -0.6448 -1.5684
  560SOL     OW 1678   2.135   1.080   3.076  0.0052 -0.5712 -0.1835
  560SOL    HW1 1679   2.181   1.105   3.169  2.8355  0.1304 -2.5182
  560SOL    HW2 1680   2.195   1.105   2.998  0.1812  0.5327  2.4232
  561SOL     OW 1681   0.026   1.873   0.061  0.0187 -0.2444  0.7862
  561SOL    HW1 1682   0.005   1.823   0.150  1.7086  3.2176  3.1454
  561SOL    HW2 1683  -0.044   1.944   0.029  1.6519  0.8271  2.4667
  562SOL     OW 1684   1.102   2.126   2.294  0.1898 -1.3358  0.4647
  562SOL    HW1 1685   1.068   2.228   2.291 -0.6647  1.0886 -1.6018
  562SOL    HW2 1686   1.038   2.060   2.347  1.8030 -0.7423 -3.0004
  563SOL     OW 1687   0.695   2.523   2.635 -0.3714 -0.1391  0.5137
  563SOL    HW1 1688   0.782   2.473   2.606  0.2396  2.7029 -1.1383
  563SOL    HW2 1689   0.709   2.578   2.721  2.1049 -0.9174  1.0189
  564SOL     OW 1690   2.917   1.389   2.889 -0.0962 -0.0435 -0.2166
  564SOL    HW1 1691   2.852   1.471   2.878  0.3217 -1.8300 -1.8589
  564SOL    HW2 1692   3.010   1.410   2.922  0.2541  0.1259  1.2329
  565SOL     OW 1693   2.504   1.941   2.653  0.3586  0.1115  0.1290
  565SOL    HW1 1694   2.456   2.028   2.627  0.6080 -2.1312 -1.9202
  565SOL    HW2 1695   2.598   1.964   2.694 -1.4755 -1.6064  1.7045
  566SOL     OW 1696   1.962   2.896   1.472 -0.3404  0.1148 -0.0402
  566SOL    HW1 1697   1.930   2.810   1.521  1.3979  0.2563 -0.6242
  566SOL    HW2 1698   2.026   2.879   1.392  2.3955 -2.7194  0.1182
  567SOL     OW 1699   2.442   0.007   2.332 -0.4767  0.3430 -0.4233
  567SOL    HW1 1700   2.341   0.020   2.317 -0.3134 -0.4746  1.1792
  567SOL    HW2 1701   2.500   0.060   2.266  0.9621  2.3358  0.5535
  568SOL     OW 1702   1.515   1.755   0.323 -0.4833 -0.2190  0.0684
  568SOL    HW1 1703   1.458   1.831   0.286  0.0301  0.0801  1.1350
  568SOL    HW2 1704   1.616   1.769   0.317 -1.3670 -0.6574 -2.1473
  569SOL     OW 1705   0.235   0.627   0.898  0.1848 -0.4847  0.2347
  569SOL    HW1 1706   0.300   0.578   0.837  1.6329  1.0623  0.5422
  569SOL    HW2 1707   0.135   0.599   0.879 -3.2730 -0.0371 -0.2144
  570SOL     OW 1708   0.601   0.849   2.919 -0.3635 -0.0748  0.5126
  570SOL    HW1 1709   0.690   0.834   2.870  1.0980 -1.3476 -0.3664
  570SOL    HW2 1710   0.597   0.941   2.972  2.2078 -1.1702  1.4956
  571SOL     OW 1711   0.807   3.094   1.116 -0.3739 -0.8074 -0.3603
  571SOL    HW1 1712   0.857   3.120   1.030 -0.2809 -2.9561  1.0158
  571SOL    HW2 1713   0.813   2.995   1.144  0.2309  2.7950  0.4100
  572SOL     OW 1714   1.634   2.702   1.410 -0.1038 -0.1985  0.0507
  572SOL    HW1 1715   1.593   2.620   1.358 -1.9354  0.7527  2.5957
  572SOL    HW2 1716   1.663   2.783   1.359 -0.7220 -0.4128  0.1392
  573SOL     OW 1717   0.025   0.474   2.004  0.9472  0.3822 -0.7636
  573SOL    HW1 1718  -0.021   0.381   2.037  2.6736 -0.7902 -0.1749
  573SOL    HW2 1719   0.057   0.470   1.905  1.8922 -1.7022 -2.4430
  574SOL     OW 1720   0.147   1.730   1.134 -0.3190 -0.8711  0.0968
  574SOL    HW1 1721   0.192   1.715   1.226  0.4065  1.2996 -1.0500
  574SOL    HW2 1722   0.092   1.817   1.132  2.8158 -0.7654 -1.7096
  575SOL     OW 1723   0.869   2.190   0.948  0.3840  0.3627  0.1917
  575SOL    HW1 1724   0.827   2.237   1.030 -0.0977  0.6670  1.0044
  575SOL    HW2 1725   0.933   2.253   0.892 -1.9350 -1.2701  1.0638
  576SOL     OW 1726   2.916   2.998   1.705 -0.1195 -0.1873  0.3402
  576SOL    HW1 1727   2.813   2.969   1.702  1.3443 -1.4330 -3.3003
  576SOL    HW2 1728   2.934   3.098   1.703  0.6450 -3.1471  0.2312
  577SOL     OW 1729   2.673   1.228   0.004 -0.0882 -0.6189 -0.4643
  577SOL    HW1 1730   2.672   1.146  -0.063 -2.0424  1.7164 -1.2892
  577SOL    HW2 1731   2.717   1.217   0.102  3.3082 -0.7298  0.1999
  578SOL     OW 1732   1.445   2.770   2.538  0.4421 -0.5472  0.5727
  578SOL    HW1 1733   1.363   2.825   2.510  1.4084 -0.5685 -0.7207
  578SOL    HW2 1734   1.537   2.808   2.497  1.3530 -1.3768  0.2879
  579SOL     OW 1735   0.063   2.447   0.185  0.0551 -0.4371  0.0609
  579SOL    HW1 1736  -0.023   2.456   0.244  1.0672 -0.6272 -0.1324
  579SOL    HW2 1737   0.152   2.453   0.239  0.8064  2.5962 -0.1588
  580SOL     OW 1738   0.953   2.645   0.405 -0.7877  0.3623  0.3798
  580SOL    HW1 1739   1.046   2.651   0.362  0.5702  2.3029 -0.1595
  580SOL    HW2 1740   0.881   2.640   0.326 -1.7062  1.7759 -1.7558
  581SOL     OW 1741   1.281   2.701   1.440 -0.3618  0.0329  0.1963
  581SOL    HW1 1742   1.326   2.620   1.483 -0.7919  2.0230  1.5183
  581SOL    HW2 1743   1.344   2.778   1.416  2.1149 -0.2308  0.3725
  582SOL     OW 1744   1.487   0.084   1.932  0.2063  0.1415  0.0295
  582SOL    HW1 1745   1.480   0.143   2.014  1.3554  0.4829 -3.8558
  582SOL    HW2 1746   1.572   0.104   1.872  0.9177 -0.2427 -0.2499
  583SOL     OW 1747   2.453   3.078   0.546  0.0569  0.0393  0.7603
  583SOL    HW1 1748   2.522   3.011   0.503 -0.2520 -1.0773 -1.6330
  583SOL    HW2 1749   2.365   3.028   0.577 -0.1755  0.7216  0.3425
  584SOL     OW 1750   1.589   1.133   2.326  0.6544 -0.1313 -0.1944
  584SOL    HW1 1751   1.654   1.202   2.285 -0.6466 -2.3221  2.3070
  584SOL    HW2 1752   1.648   1.057   2.355 -0.0914  2.8725 -1.1124
  585SOL     OW 1753   2.060   2.658   2.886  0.1944 -0.0149 -0.0936
  585SOL    HW1 1754   2.082   2.573   2.839  0.1725  1.6314  0.7924
  585SOL    HW2 1755   1.960   2.692   2.880  0.4364 -0.2021 -0.2466
  586SOL     OW 1756   2.908   0.399   1.534 -0.1382 -0.1812  0.3739
  586SOL    HW1 1757   2.888   0.484   1.591  1.1867  1.1078  2.3297
  586SOL    HW2 1758   2.841   0.383   1.464  2.8825 -0.4605 -0.2588
  587SOL     OW 1759   2.120   1.466   2.690  0.1879  0.5336 -0.0541
  587SOL    HW1 1760   2.152   1.380   2.642 -1.5900  0.6131 -1.2429
  587SOL    HW2 1761   2.197   1.530   2.717  0.7905  0.4829 -1.3647
  588SOL     OW 1762   0.537   2.700   2.303 -0.3298 -0.2895 -0.3194
  588SOL    HW1 1763   0.491   2.688   2.204 -1.5674 -1.3858 -1.0522
  588SOL    HW2 1764   0.530   2.617   2.362  0.0645  1.0655  0.2366
  589SOL     OW 1765   2.181   1.300   2.498 -0.1722 -0.2343 -0.5586
  589SOL    HW1 1766   2.142   1.253   2.419  1.2258  0.8019  1.4255
  589SOL    HW2 1767   2.286   1.291   2.504 -0.8198  0.6127 -0.8550
  590SOL     OW 1768   2.343   1.730   2.068 -0.4949 -0.3883  0.2340
  590SOL    HW1 1769   2.394   1.639   2.076 -2.2304 -1.2411 -1.6965
  590SOL    HW2 1770   2.326   1.759   2.165 -1.4169 -1.9007 -0.9082
  591SOL     OW 1771   1.226   2.375   0.217  0.1859  0.2162 -0.2348
  591SOL    HW1 1772   1.263   2.296   0.163  1.2073 -1.8043 -3.0633
  591SOL    HW2 1773   1.266   2.383   0.318 -0.5013 -0.9732 -0.3135
  592SOL     OW 1774   1.793   2.340   0.799  0.1997  0.0456 -0.0435
  592SOL    HW1 1775   1.792   2.361   0.694  1.2913  1.0579  0.0104
  592SOL    HW2 1776   1.889   2.331   0.834  1.2603 -0.2605  0.5759
  593SOL     OW 1777   0.733   0.328   0.249  0.5811  0.0669  0.2189
  593SOL    HW1 1778   0.765   0.296   0.154 -1.5448 -0.5748  1.2048
  593SOL    HW2 1779   0.706   0.429   0.241 -0.3960  0.1862  1.4929
  594SOL     OW 1780   1.062   1.849   2.687  0.2906 -0.8363 -0.4410
  594SOL    HW1 1781   1.147   1.810   2.641 -2.4526 -1.1232 -2.0946
  594SOL    HW2 1782   1.063   1.862   2.789 -2.2469  0.9686  0.5357
  595SOL     OW 1783   1.506   0.088   0.982  0.0972  0.6144 -0.2666
  595SOL    HW1 1784   1.573   0.010   0.965 -3.0481  0.8991 -1.1831
  595SOL    HW2 1785   1.418   0.073   0.925  1.1136 -1.4371 -1.6829
  596SOL     OW 1786   0.068   1.474   2.281  0.4619  0.3458 -0.5014
  596SOL    HW1 1787   0.049   1.375   2.281 -2.7507  0.5232 -0.4963
  596SOL    HW2 1788   0.129   1.505   2.358  0.6536 -0.6258 -3.0877
  597SOL     OW 1789   1.979   2.676   1.811  0.4837  0.0870 -0.1359
  597SOL    HW1 1790   1.944   2.647   1.714 -0.3665 -1.9346 -3.0732
  597SOL    HW2 1791   2.087   2.677   1.813  1.1891 -1.3341  0.8041
  598SOL     OW 1792   2.525   2.864   1.228  0.3113 -0.1674  0.1311
  598SOL    HW1 1793   2.582   2.899   1.307 -3.1439  3.5910 -0.5700
  598SOL    HW2 1794   2.563   2.889   1.136 -0.5498 -2.8224  1.7782
  599SOL     OW 1795   2.799   0.264   2.503  0.4239 -0.3531  0.3741
  599SOL    HW1 1796   2.874   0.268   2.431  1.3165 -1.8825 -1.2849
  599SOL    HW2 1797   2.749   0.357   2.500 -1.4760  0.9863  1.2547
  600SOL     OW 1798   2.808   1.181   2.742 -0.3204 -0.7305  0.0695
  600SOL    HW1 1799   2.716   1.149   2.774  1.1199 -0.3394 -0.8395
  600SOL    HW2 1800   2.845   1.270   2.790  0.6356  0.3340  2.2282
  601SOL     OW 1801   2.994   1.312   2.016 -1.0350  0.0577  0.0459
  601SOL    HW1 1802   2.920   1.361   1.954  0.6497 -0.3848 -1.1856
  601SOL    HW2 1803   3.068   1.381   2.037 -0.3163  0.7236 -0.6414
  602SOL     OW 1804   1.491   1.565   2.277  0.2206 -0.2455 -0.0694
  602SOL    HW1 1805   1.400   1.560   2.321  1.5815 -0.1650 -0.5890
  602SOL    HW2 1806   1.575   1.577   2.338  1.2383 -0.8145 -0.6446
  603SOL     OW 1807   0.660   1.183   2.705 -0.5629  0.3648  0.0566
  603SOL    HW1 1808   0.557   1.191   2.699  1.0408 -1.2388 -3.3637
  603SOL    HW2 1809   0.699   1.095   2.668  0.2467  2.0017 -1.0504
  604SOL     OW 1810   2.480   0.989   0.206  0.2860  0.2415  0.4705
  604SOL    HW1 1811   2.535   1.073   0.181  1.0303  1.6321  0.9860
  604SOL    HW2 1812   2.477   0.914   0.133  1.9198  0.6058  1.0237
  605SOL     OW 1813   2.528   1.118   1.979  0.7010 -0.0433  0.3474
  605SOL    HW1 1814   2.556   1.071   1.891 -2.4843  0.3266  0.6491
  605SOL    HW2 1815   2.574   1.211   2.003 -1.8049 -0.6311 -0.9434
  606SOL     OW 1816   1.509   2.506   2.562  0.2360 -0.5061  0.5780
  606SOL    HW1 1817   1.475   2.603   2.543  0.3351  0.7354  0.1327
  606SOL    HW2 1818   1.468   2.434   2.496 -1.0966  2.0305  0.9751
  607SOL     OW 1819   1.304   1.596   0.234 -0.4527 -0.4504 -0.6025
  607SOL    HW1 1820   1.225   1.653   0.275 -1.7581 -1.6444  0.5272
  607SOL    HW2 1821   1.396   1.627   0.266  0.8492 -0.9213  0.1969
  608SOL     OW 1822   1.422   2.864   0.389 -0.5811  0.0735 -0.0870
  608SOL    HW1 1823   1.448   2.879   0.291 -0.1364 -0.0856  1.4234
  608SOL    HW2 1824   1.348   2.933   0.419 -0.4725  0.7919 -0.2350
  609SOL     OW 1825   1.346   1.331   0.146 -0.2466 -0.2783  0.1214
  609SOL    HW1 1826   1.338   1.429   0.179  2.8727  3.9786  1.3131
  609SOL    HW2 1827   1.278   1.308   0.073  1.0255  3.6821  0.9459
  610SOL     OW 1828   3.030   1.227   2.266 -0.4639 -0.2409 -0.2407
  610SOL    HW1 1829   3.017   1.123   2.262  0.6250 -1.0775  0.1620
  610SOL    HW2 1830   3.010   1.265   2.169 -3.2353  0.5135 -2.1461
  611SOL     OW 1831   2.507   0.252   1.158  0.6219  0.0184 -0.5326
  611SOL    HW1 1832   2.449   0.172   1.180  0.7335  4.5674 -0.6085
  611SOL    HW2 1833   2.591   0.260   1.218 -1.9610 -1.1635 -0.6236
  612SOL     OW 1834   0.795   2.319   1.168  0.3534  0.1036  0.4940
  612SOL    HW1 1835   0.734   2.264   1.228 -0.4229  1.0609 -2.4870
  612SOL    HW2 1836   0.756   2.414   1.144  1.6804  3.0532  1.2345
  613SOL     OW 1837   0.812   1.391   2.378 -0.2135  0.0712 -0.9592
  613SOL    HW1 1838   0.816   1.470   2.313  0.3545  0.6268 -1.4049
  613SOL    HW2 1839   0.766   1.305   2.346 -2.1151  0.4979 -2.9800
  614SOL     OW 1840   1.568   1.683   1.824 -0.2325 -0.3423  0.3958
  614SOL    HW1 1841   1.509   1.743   1.770  0.0230  0.1757  2.0287
  614SOL    HW2 1842   1.611   1.725   1.907 -0.3977  0.3987  0.1827
  615SOL     OW 1843   0.740   1.402   1.726 -0.2801  0.1724  0.1640
  615SOL    HW1 1844   0.702   1.345   1.644 -3.4954 -0.7537 -1.6766
  615SOL    HW2 1845   0.799   1.477   1.693 -3.1597 -1.8098  0.3999
  616SOL     OW 1846   1.105   1.555   2.167  0.3906  0.2607  0.7376
  616SOL    HW1 1847   1.002   1.573   2.156  1.8769  2.4356  0.4032
  616SOL    HW2 1848   1.159   1.591   2.088  0.9071 -2.2880 -0.0782
  617SOL     OW 1849   3.027   1.551   1.652  0.3180 -0.2881 -0.4726
  617SOL    HW1 1850   2.979   1.466   1.686  0.2485 -0.0748  0.0755
  617SOL    HW2 1851   3.082   1.526   1.565  0.5044 -1.3311  1.1016
  618SOL     OW 1852   1.965   1.963   1.448  0.1605  0.3427  0.4937
  618SOL    HW1 1853   2.057   1.948   1.397 -0.4953 -0.4172  0.5641
  618SOL    HW2 1854   1.945   1.889   1.517 -0.0283  1.0556 -2.2249
  619SOL     OW 1855   1.717   0.512   2.342 -0.0965  0.4901  0.0704
  619SOL    HW1 1856   1.647   0.566   2.284 -1.3815  3.0459 -0.4360
  619SOL    HW2 1857   1.703   0.412   2.346  3.1106 -0.5485 -2.6987
  620SOL     OW 1858   2.256   2.936   0.629  0.5589 -0.3932  0.7014
  620SOL    HW1 1859   2.163   2.981   0.630  0.0824  1.1706  0.8795
  620SOL    HW2 1860   2.280   2.888   0.718  0.4679  2.6922 -0.6291
  621SOL     OW 1861   2.226   1.894   1.354 -0.8781  0.0451 -0.0388
  621SOL    HW1 1862   2.220   1.896   1.456  0.0912  0.7019 -2.6226
  621SOL    HW2 1863   2.216   1.795   1.318 -0.3287 -0.2264  1.5697
  622SOL     OW 1864   2.223   0.925   1.826 -0.2814  0.5488  0.1914
  622SOL    HW1 1865   2.309   0.865   1.824 -0.8596  0.4323  2.9697
  622SOL    HW2 1866   2.161   0.885   1.898 -1.3499  2.1011  3.2156
  623SOL     OW 1867   1.304   0.819   2.573 -0.4797  0.2631  0.1827
  623SOL    HW1 1868   1.260   0.772   2.657  1.2135  2.0658 -0.5732
  623SOL    HW2 1869   1.245   0.831   2.486 -0.0777 -0.3289  2.5602
  624SOL     OW 1870   0.525   0.695   0.027  0.0392  0.3804 -0.1362
  624SOL    HW1 1871   0.575   0.748  -0.056  1.0766  3.4240 -2.4088
  624SOL    HW2 1872   0.528   0.759   0.111  0.8269  0.4195  6.0789
  625SOL     OW 1873   2.728   1.692   0.879 -0.1667  0.1069 -0.3034
  625SOL    HW1 1874   2.673   1.736   0.958  2.3613 -0.6311  1.3760
  625SOL    HW2 1875   2.725   1.589   0.885  2.2025  0.9154 -0.9235
  626SOL     OW 1876   0.495   2.732   1.966 -0.1929 -0.2758  0.8594
  626SOL    HW1 1877   0.560   2.810   1.970  1.4514 -0.9497  0.6974
  626SOL    HW2 1878   0.407   2.762   1.920 -0.4588 -0.9421 -1.1123
  627SOL     OW 1879   0.747   1.080   1.507  0.1953 -0.2647  0.1570
  627SOL    HW1 1880   0.759   0.986   1.535 -1.5823  2.9719 -1.3447
  627SOL    HW2 1881   0.833   1.112   1.456 -0.2369  0.3224 -0.2340
  628SOL     OW 1882   2.424   0.178   0.721 -0.0536  0.0857  0.2502
  628SOL    HW1 1883   2.457   0.104   0.650  0.4836 -1.8429 -0.6119
  628SOL    HW2 1884   2.326   0.200   0.727  1.5995 -0.2392 -1.5357
  629SOL     OW 1885   1.968   0.946   1.980  0.6099  0.2225  0.4886
  629SOL    HW1 1886   2.040   0.951   2.054  0.4082 -1.0162 -0.5331
  629SOL    HW2 1887   1.926   1.044   1.970 -0.9649 -1.2105  0.0526
  630SOL     OW 1888   2.807   2.188   0.768  0.4852  0.2413 -0.2989
  630SOL    HW1 1889   2.745   2.257   0.818 -0.7316  0.0862  2.5967
  630SOL    HW2 1890   2.768   2.101   0.741  4.2324 -1.3971 -1.2996
  631SOL     OW 1891   3.026   0.229   2.118  0.3306  0.5475  0.3350
  631SOL    HW1 1892   3.076   0.279   2.197 -1.1457 -0.5307  1.5881
  631SOL    HW2 1893   3.090   0.171   2.057 -0.6368 -1.8848  0.2316
  632SOL     OW 1894   2.318   2.563   0.754  1.3146  0.6395  0.3181
  632SOL    HW1 1895   2.415   2.572   0.782 -0.1663 -1.4235 -0.3599
  632SOL    HW2 1896   2.312   2.599   0.656 -1.6018 -1.2496  0.2302
  633SOL     OW 1897   1.594   1.292   2.605 -0.0835  0.4116  1.0791
  633SOL    HW1 1898   1.564   1.363   2.675 -0.6709 -0.7257  0.4917
  633SOL    HW2 1899   1.518   1.275   2.534 -0.7651 -1.5756  2.9228
  634SOL     OW 1900   0.629   2.069   0.999 -0.3734  0.1541 -0.2791
  634SOL    HW1 1901   0.575   2.154   1.024 -2.5418  1.0584 -0.0718
  634SOL    HW2 1902   0.729   2.096   0.967 -0.3414  1.8983 -2.6654
  635SOL     OW 1903   0.057   2.250   3.090  0.0186 -0.7475 -0.2112
  635SOL    HW1 1904   0.040   2.330   3.025  0.2629  0.5228  0.1803
  635SOL    HW2 1905   0.088   2.291   3.183  0.7929 -0.2274 -1.8865
  636SOL     OW 1906   2.310   2.843   2.018  0.1367 -0.5056  0.1642
  636SOL    HW1 1907   2.284   2.947   2.016  0.1723  0.5028  1.6286
  636SOL    HW2 1908   2.279   2.792   2.103  4.4834 -2.0122 -4.2961
  637SOL     OW 1909   2.559   0.737   2.050  0.9198  0.1655  0.0603
  637SOL    HW1 1910   2.514   0.737   1.956  0.0198 -1.7382 -0.2644
  637SOL    HW2 1911   2.631   0.812   2.068  1.5429  1.5154 -0.8350
  638SOL     OW 1912   2.498   1.872   1.361  0.1630  0.2056  0.3580
  638SOL    HW1 1913   2.398   1.877   1.359  1.4030 -2.7742  1.0908
  638SOL    HW2 1914   2.523   1.776   1.396  0.0136  3.2722 -2.7058
  639SOL     OW 1915   1.294   2.245   1.602 -0.1082  0.2343 -0.5038
  639SOL    HW1 1916   1.310   2.160   1.543  1.6435 -1.8041 -2.0062
  639SOL    HW2 1917   1.212   2.239   1.666 -1.1055 -0.0950 -0.9238
  640SOL     OW 1918   0.210   1.231   1.530  0.0781  0.7322 -0.3146
  640SOL    HW1 1919   0.192   1.262   1.629  1.4432  0.4316 -0.2451
  640SOL    HW2 1920   0.274   1.147   1.533 -0.9379  4.1563 -1.2718
  641SOL     OW 1921   1.955   0.204   1.451  0.2960  0.2805 -0.1569
  641SOL    HW1 1922   1.877   0.268   1.455 -0.7052  0.3013  0.0662
  641SOL    HW2 1923   1.940   0.116   1.511 -0.3537 -1.8194  0.8657
  642SOL     OW 1924   1.993   0.094   0.318 -0.0997  0.0547 -0.3038
  642SOL    HW1 1925   2.090   0.060   0.323  1.8232 -1.2093  0.8234
  642SOL    HW2 1926   1.945   0.073   0.407 -0.3917 -0.6897 -0.7929
  643SOL     OW 1927   2.838   1.864   2.104  0.1461 -0.5822  0.3766
  643SOL    HW1 1928   2.775   1.786   2.077 -0.5701 -1.2481  1.3376
  643SOL    HW2 1929   2.837   1.949   2.045  1.1966 -1.3379  0.9101
  644SOL     OW 1930   2.184   2.288   1.232 -0.4602 -0.1842 -0.1355
  644SOL    HW1 1931   2.238   2.201   1.230 -0.2758 -0.8470  0.5729
  644SOL    HW2 1932   2.208   2.342   1.314 -2.2153  1.8585  0.1989
  645SOL     OW 1933   0.599   0.845   1.170 -0.0247  1.2101  0.3892
  645SOL    HW1 1934   0.555   0.763   1.125  4.9409  0.9188 -1.7550
  645SOL    HW2 1935   0.633   0.910   1.099  0.3898 -1.9668 -1.1737
  646SOL     OW 1936   1.484   1.967   1.787 -0.4735 -0.2157 -0.6703
  646SOL    HW1 1937   1.577   2.010   1.785  1.5235  1.8252  1.5750
  646SOL    HW2 1938   1.436   1.978   1.880 -3.4558 -0.0224 -1.7707
  647SOL     OW 1939   0.883   0.922   0.657 -0.0771 -0.3911  0.2245
  647SOL    HW1 1940   0.975   0.901   0.698  0.1383  1.2777 -0.6362
  647SOL    HW2 1941   0.801   0.881   0.707 -3.5857 -1.1099  0.5098
  648SOL     OW 1942   0.209   0.218   0.320  0.2010  0.0819  0.3637
  648SOL    HW1 1943   0.217   0.139   0.250 -0.4201  0.2660 -2.6364
  648SOL    HW2 1944   0.167   0.310   0.278 -0.1029  1.8708 -3.3196
  649SOL     OW 1945   3.090   0.095   0.934 -0.0663 -1.0425 -0.3701
  649SOL    HW1 1946   3.188   0.091   0.911  0.3386  1.1414  1.4121
  649SOL    HW2 1947   3.078   0.119   1.035  1.7230  2.2422  1.1484
  650SOL     OW 1948   2.727   0.718   1.435 -0.0263 -0.1295 -0.3253
  650SOL    HW1 1949   2.630   0.701   1.482 -0.3559  0.9145 -1.0449
  650SOL    HW2 1950   2.715   0.800   1.367 -0.7232  0.3459  1.1112
  651SOL     OW 1951   0.911   1.583   1.600  0.6899  0.0250 -0.1446
  651SOL    HW1 1952   0.976   1.658   1.625 -1.7054  0.5903 -0.1973
  651SOL    HW2 1953   0.858   1.603   1.516 -1.2973  3.4329 -0.7594
  652SOL     OW 1954   2.282   2.529   2.367  0.4597  0.4645 -0.0843
  652SOL    HW1 1955   2.203   2.509   2.433 -1.5650 -1.0141  1.5280
  652SOL    HW2 1956   2.256   2.594   2.295  1.7361 -1.2492  0.9736
  653SOL     OW 1957   2.701   1.183   0.279  0.2739 -0.0836 -0.1581
  653SOL    HW1 1958   2.764   1.270   0.286  0.9725 -1.0797  0.8216
  653SOL    HW2 1959   2.750   1.104   0.325 -2.0438 -1.4114  2.7812
  654SOL     OW 1960   1.225   2.279   1.219 -1.0798 -0.1215  0.1646
  654SOL    HW1 1961   1.235   2.199   1.285 -1.0016  0.3663  0.2611
  654SOL    HW2 1962   1.270   2.256   1.123 -0.4257 -1.4249 -1.9105
  655SOL     OW 1963   0.241   1.069   1.848  0.2812  0.1364 -0.2054
  655SOL    HW1 1964   0.268   0.977   1.800  0.3863  2.4475 -0.0711
  655SOL    HW2 1965   0.330   1.126   1.861  0.9416  2.5138 -1.6952
  656SOL     OW 1966   2.500   2.474   2.563 -0.4489 -0.4799  0.0901
  656SOL    HW1 1967   2.599   2.492   2.545  0.7031  1.4636  2.4271
  656SOL    HW2 1968   2.444   2.462   2.480  2.7656  1.7376  0.1228
  657SOL     OW 1969   3.052   1.107   1.849  0.1437 -0.0087 -0.2553
  657SOL    HW1 1970   3.035   1.150   1.940  0.1714 -0.7754 -0.4464
  657SOL    HW2 1971   3.154   1.094   1.834 -0.2998  1.3027 -0.2550
  658SOL     OW 1972   1.651   0.209   2.365  0.4263  0.2916  0.4904
  658SOL    HW1 1973   1.691   0.160   2.445 -1.8792  2.0246 -1.0842
  658SOL    HW2 1974   1.702   0.190   2.278 -0.3439  2.0149 -2.5009
  659SOL     OW 1975   1.402   0.567   2.870 -0.0584 -0.1322 -0.3148
  659SOL    HW1 1976   1.467   0.643   2.898 -1.7239 -0.0180  3.3778
  659SOL    HW2 1977   1.312   0.610   2.843  0.4190  0.5512 -2.8968
  660SOL     OW 1978   1.417   0.397   1.387 -0.1649  0.4504 -0.6754
  660SOL    HW1 1979   1.466   0.425   1.470  0.2777 -3.0144 -0.2409
  660SOL    HW2 1980   1.477   0.330   1.334  0.3147 -0.9826 -0.2993
  661SOL     OW 1981   2.475   1.157   0.667 -0.3524  0.1788  0.3156
  661SOL    HW1 1982   2.478   1.085   0.592 -0.8965  0.7654  1.2203
  661SOL    HW2 1983   2.466   1.252   0.631  0.8358  0.3143  1.2067
  662SOL     OW 1984   1.301   0.433   1.820 -0.6197 -0.0569 -0.0600
  662SOL    HW1 1985   1.277   0.332   1.799  2.2557  0.6392 -1.1771
  662SOL    HW2 1986   1.257   0.473   1.905  0.1324  0.3923 -0.8265
  663SOL     OW 1987   0.841   1.591   2.167 -0.1991  0.1204  0.4233
  663SOL    HW1 1988   0.799   1.675   2.213  0.5390 -2.1996  0.7541
  663SOL    HW2 1989   0.791   1.554   2.084 -0.1906  0.1315  1.2162
  664SOL     OW 1990   1.677   2.026   1.392 -0.0833  0.3061 -0.0303
  664SOL    HW1 1991   1.595   1.983   1.438  0.0109  1.7879  0.2089
  664SOL    HW2 1992   1.770   1.987   1.421 -0.2979 -1.3364  1.2417
  665SOL     OW 1993   2.268   0.629   1.984  0.7887  0.3376 -0.1113
  665SOL    HW1 1994   2.284   0.530   2.019  1.1231 -0.3317  2.0860
  665SOL    HW2 1995   2.197   0.686   2.033  0.1702  0.4825 -0.1644
  666SOL     OW 1996   0.495   2.299   0.448  0.4887 -0.1942  0.0763
  666SOL    HW1 1997   0.546   2.387   0.449 -0.0618  1.4848  1.5710
  666SOL    HW2 1998   0.441   2.282   0.535  0.9645  0.3438 -1.2451
  667SOL     OW 1999   2.084   0.282   0.993  0.2562 -0.1615 -0.4408
  667SOL    HW1 2000   2.133   0.372   1.009  1.2224  0.3710  0.9528
  667SOL    HW2 2001   2.008   0.261   1.062  1.3323 -1.0094 -2.7125
  668SOL     OW 2002   1.991   0.480   1.205 -0.1007 -0.5393  0.4541
  668SOL    HW1 2003   2.043   0.547   1.143  1.0934  0.9314 -1.9260
  668SOL    HW2 2004   2.034   0.477   1.299 -0.9078  3.1142 -0.9897
  669SOL     OW 2005   3.003   2.075   0.912  0.2724 -0.1176  0.3489
  669SOL    HW1 2006   2.961   2.117   0.831  1.8374 -0.3303 -1.9252
  669SOL    HW2 2007   2.968   2.120   0.994 -2.2554 -1.3605  2.1542
  670SOL     OW 2008   2.815   2.362   2.005 -0.3183  0.3859 -0.0497
  670SOL    HW1 2009   2.743   2.344   2.081 -1.1247 -2.4305 -1.5695
  670SOL    HW2 2010   2.804   2.452   1.959  0.2542  0.9727  0.3704
  671SOL     OW 2011   1.738   1.631   1.444 -0.5672 -0.1683  0.2232
  671SOL    HW1 2012   1.742   1.690   1.356  0.4694  4.5088 -0.4993
  671SOL    HW2 2013   1.689   1.539   1.434  0.7484  0.0041  0.7385
  672SOL     OW 2014   0.416   0.684   2.436 -0.2082  0.4648 -0.5081
  672SOL    HW1 2015   0.450   0.667   2.336  0.2888 -1.0305  0.8592
  672SOL    HW2 2016   0.322   0.728   2.441 -2.9308  0.7300  0.4505
  673SOL     OW 2017   0.180   1.203   1.129 -0.2114  0.1018 -0.0777
  673SOL    HW1 2018   0.213   1.296   1.156 -3.0868 -0.9183 -3.6873
  673SOL    HW2 2019   0.257   1.132   1.124 -0.9396  2.1106 -1.2613
  674SOL     OW 2020   1.527   2.844   0.137  0.2089 -0.0226 -0.3962
  674SOL    HW1 2021   1.560   2.938   0.115  0.3502 -2.7151  0.7952
  674SOL    HW2 2022   1.597   2.769   0.148  1.0522 -0.9911  1.4421
  675SOL     OW 2023   1.711   0.807   2.345  0.2631  0.2900 -0.0800
  675SOL    HW1 2024   1.802   0.797   2.291  2.4108 -1.4598 -1.4537
  675SOL    HW2 2025   1.629   0.749   2.306  0.3259 -2.2062  1.8484
  676SOL     OW 2026   2.489   1.505   1.995  0.2010  0.1304  0.7302
  676SOL    HW1 2027   2.447   1.479   1.903 -0.4246 -1.2978 -0.8286
  676SOL    HW2 2028   2.520   1.426   2.047  1.4581  0.4124 -1.4629
  677SOL     OW 2029   1.799   0.531   0.961  0.4757 -0.1686 -0.6431
  677SOL    HW1 2030   1.860   0.512   1.041 -0.5695 -2.9038  0.2887
  677SOL    HW2 2031   1.721   0.461   0.950 -1.9597 -0.9239 -2.3075
  678SOL     OW 2032   0.084   0.790   1.687  0.6532  0.3569  0.0220
  678SOL    HW1 2033   0.180   0.801   1.725 -0.0420  2.7381 -0.2267
  678SOL    HW2 2034   0.006   0.823   1.743 -0.6029 -0.6054 -0.2837
  679SOL     OW 2035   2.543   1.184   1.103  0.3906 -0.3593  0.9888
  679SOL    HW1 2036   2.462   1.196   1.164 -0.9447 -0.6565 -0.3377
  679SOL    HW2 2037   2.547   1.093   1.060  0.5092  0.1060 -0.9682
  680SOL     OW 2038   2.840   0.642   1.664  0.1207  0.1930  0.4352
  680SOL    HW1 2039   2.795   0.669   1.573 -1.2388  0.8988 -0.7914
  680SOL    HW2 2040   2.874   0.725   1.718  1.9926  0.5360  0.6156
  681SOL     OW 2041   3.020   0.172   1.643  0.4287 -0.1239  0.4896
  681SOL    HW1 2042   3.097   0.157   1.577  0.4140 -1.1046  0.0526
  681SOL    HW2 2043   2.967   0.260   1.617  1.9188  0.1307 -0.7362
  682SOL     OW 2044   0.742   0.067   1.379 -0.6175  0.6064  0.0978
  682SOL    HW1 2045   0.663   0.001   1.404 -3.4602 -1.9554 -1.4781
  682SOL    HW2 2046   0.780   0.052   1.281  1.0444 -1.2106  0.7883
  683SOL     OW 2047   1.389   0.228   2.184 -0.4913  0.1248  0.2736
  683SOL    HW1 2048   1.350   0.258   2.275 -1.7753 -0.7098 -2.4573
  683SOL    HW2 2049   1.451   0.302   2.149  1.0210 -1.1905 -1.1038
  684SOL     OW 2050   1.436   2.133   0.492 -0.4028 -0.4223  0.1402
  684SOL    HW1 2051   1.498   2.049   0.506 -0.2086 -1.3083 -1.9668
  684SOL    HW2 2052   1.341   2.104   0.457  0.0336 -0.7172 -1.0247
  685SOL     OW 2053   2.146   1.877   1.944 -0.4252  0.0898  0.6933
  685SOL    HW1 2054   2.202   1.950   1.891 -0.8171  0.7307 -1.3735
  685SOL    HW2 2055   2.215   1.806   1.981 -3.2303 -0.7269 -0.3346
  686SOL     OW 2056   1.573   1.768   2.755 -0.3604  0.6655  0.5541
  686SOL    HW1 2057   1.609   1.690   2.694  1.0782  2.9912 -0.8756
  686SOL    HW2 2058   1.587   1.751   2.861  1.6880  2.5305  3.5631
  687SOL     OW 2059   1.339   2.527   1.926 -0.2877 -0.0901 -0.0363
  687SOL    HW1 2060   1.377   2.443   1.876  0.0340  1.1640 -1.1604
  687SOL    HW2 2061   1.395   2.557   2.013 -1.2683 -0.5586 -1.0639
  688SOL     OW 2062   2.087   1.403   1.633 -0.0620  0.8108 -0.3592
  688SOL    HW1 2063   2.171   1.437   1.585  1.4494 -0.8971 -0.2304
  688SOL    HW2 2064   2.023   1.347   1.573  0.3801  1.6559  0.3441
  689SOL     OW 2065   2.457   1.110   2.762 -0.0678 -0.2187  0.0221
  689SOL    HW1 2066   2.359   1.076   2.775  1.2938 -0.0219 -0.4591
  689SOL    HW2 2067   2.528   1.075   2.836  0.5552 -1.8935  0.8919
  690SOL     OW 2068   2.207   2.796   3.091 -0.1926 -0.5929 -0.0640
  690SOL    HW1 2069   2.147   2.730   3.034 -4.3955 -1.6511  3.9284
  690SOL    HW2 2070   2.164   2.817   3.181 -0.3267 -1.5615  1.3862
  691SOL     OW 2071   2.553   0.490   2.178 -0.0819  0.2634  0.0434
  691SOL    HW1 2072   2.605   0.416   2.125 -0.3341 -1.6092 -1.1199
  691SOL    HW2 2073   2.537   0.576   2.121  1.7224  1.9893 -0.0861
  692SOL     OW 2074   2.739   1.212   0.690 -0.4024  0.1319 -0.6693
  692SOL    HW1 2075   2.640   1.205   0.713  0.1459  3.4918  0.2936
  692SOL    HW2 2076   2.792   1.294   0.733  0.3044  0.5090  0.1302
  693SOL     OW 2077   2.872   2.969   0.583 -0.0031 -0.5059 -0.4570
  693SOL    HW1 2078   2.862   3.052   0.643 -0.7703  1.2934  1.0890
  693SOL    HW2 2079   2.785   2.936   0.535 -4.2876  0.9530 -0.4384
  694SOL     OW 2080   2.377   2.166   0.063  0.3938 -0.8937  0.0065
  694SOL    HW1 2081   2.337   2.258   0.090 -0.1578 -0.8362  1.3376
  694SOL    HW2 2082   2.307   2.099   0.050 -2.1458  0.8325 -2.1519
  695SOL     OW 2083   0.535   2.989   1.483  0.3732 -0.5145  0.1376
  695SOL    HW1 2084   0.500   2.890   1.471 -1.3915  0.0761  2.7388
  695SOL    HW2 2085   0.488   3.041   1.560  0.0436  0.4938  0.3113
  696SOL     OW 2086   2.708   1.928   0.709  0.0957  0.6359 -0.4982
  696SOL    HW1 2087   2.737   1.852   0.773 -2.3074 -0.4324 -1.6997
  696SOL    HW2 2088   2.709   1.904   0.613  1.2668  2.3038  1.5652
  697SOL     OW 2089   1.722   2.122   1.757 -0.4617  0.7919  0.0746
  697SOL    HW1 2090   1.790   2.041   1.737 -0.0489 -2.7194  0.3858
  697SOL    HW2 2091   1.762   2.220   1.752  0.7537  0.2139  2.3137
  698SOL     OW 2092   2.935   0.359   2.740 -0.0569 -0.4603  0.3902
  698SOL    HW1 2093   2.901   0.323   2.649 -0.1459 -0.6179 -0.1971
  698SOL    HW2 2094   3.020   0.300   2.774  0.4074 -0.0804 -3.2424
  699SOL     OW 2095   1.570   0.076   2.921  0.2314  0.3978 -0.1152
  699SOL    HW1 2096   1.539  -0.018   2.885 -2.1087 -1.5215  0.7869
  699SOL    HW2 2097   1.603   0.146   2.850 -0.0339  3.8395  0.2545
  700SOL     OW 2098   1.038   2.373   1.374 -0.0027  0.2321 -0.1026
  700SOL    HW1 2099   1.125   2.336   1.330 -2.2519  0.7904  2.5295
  700SOL    HW2 2100   0.953   2.339   1.320 -2.7250 -0.5205  1.4122
  701SOL     OW 2101   1.847   2.819   0.025 -0.5562 -0.5845 -0.2457
  701SOL    HW1 2102   1.876   2.745   0.090  0.9686 -3.6820 -2.7235
  701SOL    HW2 2103   1.879   2.912   0.059 -1.2896 -1.7838 -0.2664
  702SOL     OW 2104   2.078   1.402   1.912 -0.1708  0.0162  0.5078
  702SOL    HW1 2105   2.147   1.328   1.927  0.3347  1.8934 -2.9926
  702SOL    HW2 2106   2.071   1.432   1.810 -1.8718 -0.6180 -1.9057
  703SOL     OW 2107   1.960   0.832   1.444  0.3630  0.3143  0.8223
  703SOL    HW1 2108   1.950   0.741   1.488  1.7068 -0.6723  1.3015
  703SOL    HW2 2109   2.024   0.890   1.501  0.0154 -0.4368  1.3644
  704SOL     OW 2110   0.324   2.029   1.717  0.5938  0.0604  0.7786
  704SOL    HW1 2111   0.362   1.973   1.790  1.9168 -1.6322 -0.2629
  704SOL    HW2 2112   0.374   2.116   1.690  1.4919 -1.3513  1.5770
  705SOL     OW 2113   2.540   1.407   0.870  0.5254  0.2059 -0.2351
  705SOL    HW1 2114   2.450   1.366   0.830 -1.6216 -0.1103  0.7749
  705SOL    HW2 2115   2.574   1.354   0.952  1.5531 -2.1611  0.9948
  706SOL     OW 2116   0.677   1.762   1.871 -0.4081 -0.2981  0.2857
  706SOL    HW1 2117   0.684   1.661   1.908  3.0559 -3.0305  0.4823
  706SOL    HW2 2118   0.762   1.815   1.884 -0.7700  3.9040  0.5312
  707SOL     OW 2119   2.272   1.214   1.880  0.1116  0.4192  1.1025
  707SOL    HW1 2120   2.362   1.186   1.923  1.0895 -1.6927  0.6232
  707SOL    HW2 2121   2.216   1.127   1.851 -0.0256  0.6577  0.3895
  708SOL     OW 2122   3.082   0.465   3.030 -0.0545 -0.0005 -0.0643
  708SOL    HW1 2123   3.091   0.532   2.954  1.6271  2.1232  1.0190
  708SOL    HW2 2124   3.040   0.375   2.996 -2.4197 -1.7116  2.8221
  709SOL     OW 2125   1.822   1.843   0.295 -0.2411  0.7170  0.0384
  709SOL    HW1 2126   1.843   1.927   0.348  1.2605  3.2532 -0.0966
  709SOL    HW2 2127   1.841   1.851   0.192 -0.8357 -1.0025  1.0018
  710SOL     OW 2128   1.738   1.644   2.464  0.1587 -0.1184 -0.2265
  710SOL    HW1 2129   1.791   1.600   2.385 -0.5290 -0.0491 -1.0321
  710SOL    HW2 2130   1.769   1.604   2.560  3.2491 -0.5633  2.5656
  711SOL     OW 2131   2.625   2.931   0.974 -0.3839 -0.2762  0.0556
  711SOL    HW1 2132   2.625   3.034   0.944 -3.4747  3.1715  1.5818
  711SOL    HW2 2133   2.722   2.887   0.953  1.7221  3.8152  0.4027
  712SOL     OW 2134   1.509   2.317   1.790 -0.4042 -0.8039  0.4670
  712SOL    HW1 2135   1.558   2.226   1.772  2.2876  1.7150 -0.2259
  712SOL    HW2 2136   1.437   2.336   1.721  1.4880  0.7099  0.3483
  713SOL     OW 2137   2.812   1.416   2.488  0.4506 -0.4661  0.2190
  713SOL    HW1 2138   2.861   1.332   2.464  2.2188 -0.7861  2.6251
  713SOL    HW2 2139   2.711   1.398   2.506 -0.9130  2.0016  0.5016
  714SOL     OW 2140   2.631   0.466   2.463  0.1700  0.2748  0.4594
  714SOL    HW1 2141   2.574   0.430   2.545  0.8523 -1.6937  1.0937
  714SOL    HW2 2142   2.579   0.466   2.371  1.2096  0.3691 -1.0714
  715SOL     OW 2143   1.571   2.094   1.134  0.2940 -0.2910  0.1098
  715SOL    HW1 2144   1.555   2.199   1.134  1.0327  0.7103  0.6115
  715SOL    HW2 2145   1.620   2.057   1.218 -2.3919  1.7532  2.8042
  716SOL     OW 2146   1.238   0.198   1.486 -0.0952 -0.3806 -0.3662
  716SOL    HW1 2147   1.135   0.214   1.494 -0.6685  1.4200 -2.6853
  716SOL    HW2 2148   1.293   0.287   1.472  1.1007 -1.9302  0.0321
  717SOL     OW 2149   1.085   0.614   1.613  0.2265  0.1745  0.0257
  717SOL    HW1 2150   1.183   0.638   1.622 -1.1768 -2.6858 -1.1728
  717SOL    HW2 2151   1.064   0.597   1.512 -1.2916  2.5863  0.6402
  718SOL     OW 2152   0.624   1.077   0.988 -0.1802  0.3401 -0.7316
  718SOL    HW1 2153   0.590   1.082   0.890  0.0223 -1.3752  2.3023
  718SOL    HW2 2154   0.704   1.143   1.004 -2.1229 -1.0868 -1.6294
  719SOL     OW 2155   0.801   1.875   2.231 -0.2103 -0.3117 -0.0161
  719SOL    HW1 2156   0.852   1.929   2.302  0.6672 -1.2090  0.8844
  719SOL    HW2 2157   0.701   1.893   2.251  4.1922 -2.0485  0.6607
  720SOL     OW 2158   2.217   1.093   0.234  0.0757  0.4802 -0.3165
  720SOL    HW1 2159   2.290   1.024   0.213  1.1903 -0.1213  1.9845
  720SOL    HW2 2160   2.162   1.065   0.316 -1.5156  1.7372  0.9577
  721SOL     OW 2161   2.257   0.024   2.055 -1.0586  0.9487  0.7659
  721SOL    HW1 2162   2.301   0.114   2.024  1.8985  0.9631  1.2328
  721SOL    HW2 2163   2.159   0.033   2.082  0.3745  2.7014  1.3080
  722SOL     OW 2164   2.376   1.655   0.508 -0.4338 -0.4651 -0.3343
  722SOL    HW1 2165   2.391   1.585   0.434 -1.0299  1.2488 -2.7114
  722SOL    HW2 2166   2.281   1.656   0.552  1.1668 -3.4887  2.0621
  723SOL     OW 2167   2.556   2.840   1.934  0.9558  0.0915 -0.2655
  723SOL    HW1 2168   2.621   2.869   2.008  0.0434  1.2478 -0.7861
  723SOL    HW2 2169   2.452   2.859   1.959 -2.6633  0.2143 -0.4960
  724SOL     OW 2170   0.444   2.431   2.433 -1.0284 -0.2167 -0.4769
  724SOL    HW1 2171   0.343   2.449   2.408 -0.5412 -1.4097 -3.1919
  724SOL    HW2 2172   0.465   2.432   2.533  1.7156  2.3835 -0.5906
  725SOL     OW 2173   2.356   2.763   1.428 -0.8507 -0.1027 -0.3119
  725SOL    HW1 2174   2.401   2.803   1.342 -1.7008 -2.0615  2.1878
  725SOL    HW2 2175   2.347   2.662   1.432 -1.3260  2.7451 -0.2861
  726SOL     OW 2176   2.391   2.267   0.711 -0.2210  0.3906  0.4093
  726SOL    HW1 2177   2.303   2.321   0.706 -0.1699 -2.8084  0.4467
  726SOL    HW2 2178   2.403   2.201   0.627  3.0422  0.2324 -1.9802
  727SOL     OW 2179   0.216   0.015   0.124 -0.0396  0.4337  0.2566
  727SOL    HW1 2180   0.268  -0.075   0.099 -0.1575 -0.2790 -2.1935
  727SOL    HW2 2181   0.237   0.096   0.063  1.8510  1.0311  0.2457
  728SOL     OW 2182   2.755   0.694   1.009 -0.0262  0.0043  0.9273
  728SOL    HW1 2183   2.675   0.658   0.945  1.7301  2.0769 -3.1556
  728SOL    HW2 2184   2.786   0.620   1.074  0.8481  0.9729 -0.9952
  729SOL     OW 2185   2.901   2.465   0.702  0.0580 -0.2635  0.4172
  729SOL    HW1 2186   2.861   2.368   0.692  3.0366  1.1923  0.2616
  729SOL    HW2 2187   3.004   2.458   0.698 -0.4053  1.2307 -0.8087
  730SOL     OW 2188   2.577   0.623   0.818 -0.2366  0.7387  0.3324
  730SOL    HW1 2189   2.515   0.685   0.755  1.0670  0.5061 -1.7762
  730SOL    HW2 2190   2.664   0.588   0.767  1.3842  1.1893 -2.4089
  731SOL     OW 2191   0.022   2.119   2.473  0.0931  0.2992 -0.2059
  731SOL    HW1 2192   0.042   2.121   2.583  0.8160 -2.4703  1.8837
  731SOL    HW2 2193   0.044   2.211   2.435  1.6730 -0.6439 -1.8424
  732SOL     OW 2194   1.120   2.887   1.960  0.3829 -0.6451  0.2593
  732SOL    HW1 2195   1.146   2.830   2.042 -0.6380  0.1690  0.0705
  732SOL    HW2 2196   1.137   2.831   1.874  1.1609 -3.6281  1.4082
  733SOL     OW 2197   3.066   0.757   2.043  0.3322 -0.0348  0.3292
  733SOL    HW1 2198   3.155   0.806   2.052 -0.0025  1.4689  2.8160
  733SOL    HW2 2199   3.085   0.655   2.022  0.1196  0.7487 -0.8584
  734SOL     OW 2200   1.403   0.345   2.719 -0.1625  0.4864 -0.0804
  734SOL    HW1 2201   1.402   0.443   2.760 -1.4448  1.1776 -3.1026
  734SOL    HW2 2202   1.318   0.290   2.736 -1.5961 -0.1920 -1.5073
  735SOL     OW 2203   2.864   2.600   2.270 -0.0208  0.1159  0.0421
  735SOL    HW1 2204   2.794   2.641   2.208  1.0279 -0.8540  0.9516
  735SOL    HW2 2205   2.957   2.578   2.222  0.1799 -0.5580 -0.3514
  736SOL     OW 2206   0.799   0.412   2.672  0.3470  0.0336 -0.1665
  736SOL    HW1 2207   0.729   0.490   2.660 -0.1336  1.5125  1.7965
  736SOL    HW2 2208   0.797   0.345   2.588  0.8639  2.0498  1.4448
  737SOL     OW 2209   2.673   0.484   2.850  0.2500 -0.5446 -0.4235
  737SOL    HW1 2210   2.652   0.454   2.945  2.1513  3.7808 -1.3778
  737SOL    HW2 2211   2.762   0.447   2.821 -0.3584  0.3358 -0.5761
  738SOL     OW 2212   1.636   1.219   3.002  0.4769 -0.0644  0.4009
  738SOL    HW1 2213   1.738   1.200   2.971  0.2904 -0.5176  1.8743
  738SOL    HW2 2214   1.578   1.142   2.965 -2.4054  2.1565  0.7024
  739SOL     OW 2215   1.801   0.652   0.694 -0.3953 -0.2873  0.2035
  739SOL    HW1 2216   1.804   0.624   0.797 -0.9710 -1.3002  0.7398
  739SOL    HW2 2217   1.816   0.568   0.635  0.8755  0.5917  0.2848
  740SOL     OW 2218   1.972   1.877   2.172  0.1657  0.6552 -0.2632
  740SOL    HW1 2219   2.035   1.889   2.088 -1.4945  0.9059 -0.4574
  740SOL    HW2 2220   1.890   1.819   2.148  0.0474  0.5705 -1.1167
  741SOL     OW 2221   2.477   0.085   2.588 -0.2117  0.9275 -0.2431
  741SOL    HW1 2222   2.575   0.048   2.613  0.8864  0.5369 -1.2089
  741SOL    HW2 2223   2.450   0.057   2.493 -0.5536  0.1520 -0.5450
  742SOL     OW 2224   2.240   1.378   0.112  0.3699 -0.1114 -0.0275
  742SOL    HW1 2225   2.179   1.465   0.117 -1.7202 -1.4433 -2.2073
  742SOL    HW2 2226   2.224   1.309   0.187 -0.6395  1.8029 -0.5666
  743SOL     OW 2227   1.743   0.585   2.629  0.0039 -0.0239 -0.1971
  743SOL    HW1 2228   1.751   0.557   2.530  0.5878 -0.6780 -0.3180
  743SOL    HW2 2229   1.666   0.653   2.653 -0.7565 -2.5035  1.4334
  744SOL     OW 2230   2.652   2.101   0.038 -0.3313  0.0659  0.0613
  744SOL    HW1 2231   2.550   2.097   0.054 -3.0807 -0.2029  2.5711
  744SOL    HW2 2232   2.708   2.087   0.123 -2.4027  0.1201 -1.1796
  745SOL     OW 2233   2.166   2.705   2.213  0.3554 -0.1654  0.1152
  745SOL    HW1 2234   2.078   2.677   2.164  0.0352  0.1614  0.8214
  745SOL    HW2 2235   2.138   2.770   2.294  0.4244  2.3244  0.4771
  746SOL     OW 2236   3.079   2.588   1.809 -0.1889 -0.1259  0.2211
  746SOL    HW1 2237   3.167   2.578   1.759  1.4568 -0.3893  2.2121
  746SOL    HW2 2238   3.070   2.686   1.841 -1.3135  1.7006 -1.8037
  747SOL     OW 2239   3.066   1.821   1.682 -0.3624  0.1496  0.4407
  747SOL    HW1 2240   3.059   1.717   1.679  0.2836  0.3599  0.6902
  747SOL    HW2 2241   3.135   1.856   1.609  0.3135  2.4019  1.2651
  748SOL     OW 2242   1.776   2.726   2.895 -0.0524  1.1126  0.5277
  748SOL    HW1 2243   1.792   2.785   2.979 -1.8715  2.1973 -3.9083
  748SOL    HW2 2244   1.679   2.707   2.874  0.9350  2.3804  0.4298
  749SOL     OW 2245   1.283   0.047   0.840 -0.2568  0.5558  0.2306
  749SOL    HW1 2246   1.218  -0.034   0.829 -2.2540 -1.6138  0.1000
  749SOL    HW2 2247   1.323   0.089   0.756  0.3642 -0.7925 -0.9942
  750SOL     OW 2248   2.350   0.223   1.868  0.5914 -0.5797 -0.0605
  750SOL    HW1 2249   2.381   0.273   1.779  3.7338  0.3588  3.9726
  750SOL    HW2 2250   2.307   0.293   1.937  0.2727  2.6438  2.0419
  751SOL     OW 2251   0.824   2.216   2.801 -0.2653  0.2405  0.0563
  751SOL    HW1 2252   0.884   2.202   2.885  0.3327  0.7450 -0.2719
  751SOL    HW2 2253   0.748   2.146   2.803 -1.5768 -0.3109  0.0089
  752SOL     OW 2254   1.243   0.900   1.583 -0.0200  0.3093  0.3007
  752SOL    HW1 2255   1.302   0.953   1.515 -1.0050 -0.5137 -0.1011
  752SOL    HW2 2256   1.287   0.808   1.612  0.3460 -0.1878 -1.6323
  753SOL     OW 2257   0.942   2.616   1.772  0.1645 -0.1171  0.2662
  753SOL    HW1 2258   1.040   2.651   1.746 -1.1282  2.0499 -1.0708
  753SOL    HW2 2259   0.866   2.688   1.779 -2.3088  0.0064 -1.2372
  754SOL     OW 2260   1.162   1.270   3.060 -0.5111  0.3454  0.1338
  754SOL    HW1 2261   1.194   1.190   3.003 -1.3528 -1.7527 -1.6099
  754SOL    HW2 2262   1.160   1.360   3.003 -0.8152 -1.9985 -0.9732
  755SOL     OW 2263   1.976   0.480   2.210  0.8818  0.3366  0.1752
  755SOL    HW1 2264   2.047   0.424   2.268  0.9927  0.4289 -0.0762
  755SOL    HW2 2265   1.887   0.506   2.255  0.8502 -0.7242  1.0139
  756SOL     OW 2266   2.631   1.014   2.943 -0.0963  0.2100 -0.1627
  756SOL    HW1 2267   2.710   0.948   2.935 -0.5003  1.2784 -1.5522
  756SOL    HW2 2268   2.548   0.972   2.996  1.3615  2.0838 -0.7530
  757SOL     OW 2269   0.134   0.518   1.745  0.5698  0.2986 -0.7528
  757SOL    HW1 2270   0.122   0.616   1.724  0.6445 -0.8873 -2.1314
  757SOL    HW2 2271   0.146   0.456   1.659  2.5526  0.2955 -1.6833
  758SOL     OW 2272   2.397   3.075   1.508  0.2167  0.1227  0.8577
  758SOL    HW1 2273   2.311   3.032   1.552 -1.9967 -0.5067  2.0339
  758SOL    HW2 2274   2.385   3.089   1.407  0.3787 -0.1199  0.0940
  759SOL     OW 2275   1.672   3.090   0.064 -0.1008  0.1707  0.0323
  759SOL    HW1 2276   1.637   3.127  -0.031  2.5015 -3.1891 -1.9952
  759SOL    HW2 2277   1.774   3.076   0.065 -3.3685 -0.4725  0.3068
  760SOL     OW 2278   2.732   2.020   2.790 -0.6476 -0.0596  0.2231
  760SOL    HW1 2279   2.776   1.926   2.812 -4.1475 -2.8504  1.6052
  760SOL    HW2 2280   2.791   2.098   2.820  0.9008  1.2398  2.6426
  761SOL     OW 2281   1.936   1.701   1.618 -0.5249 -0.0081 -0.0649
  761SOL    HW1 2282   1.973   1.613   1.660  1.3434  1.2215  0.3979
  761SOL    HW2 2283   1.879   1.679   1.535  3.1606 -0.2838  0.7700
  762SOL     OW 2284   0.518   2.400   0.952 -0.1302 -0.1290 -0.4618
  762SOL    HW1 2285   0.553   2.417   0.858 -0.4074 -2.1450  1.4100
  762SOL    HW2 2286   0.543   2.466   1.030  1.8601 -0.8779  1.2889
  763SOL     OW 2287   2.096   1.536   2.999  0.1052  0.6961 -0.0596
  763SOL    HW1 2288   2.140   1.493   2.913 -2.2738 -1.6910 -1.9908
  763SOL    HW2 2289   2.020   1.482   3.048 -0.7486 -1.6611  1.5196
  764SOL     OW 2290   0.680   0.503   0.898  0.0156 -0.0787 -0.4726
  764SOL    HW1 2291   0.666   0.416   0.850  0.3144 -0.7820  1.2859
  764SOL    HW2 2292   0.780   0.525   0.904 -1.0583  1.3794  3.2045
  765SOL     OW 2293   0.670   0.249   0.785  0.0497  0.4648 -0.7083
  765SOL    HW1 2294   0.751   0.214   0.732  1.3023 -0.8365  1.5662
  765SOL    HW2 2295   0.676   0.225   0.884 -0.6420  1.6600  1.4150
  766SOL     OW 2296   2.945   2.095   0.032  0.3082 -0.1071 -0.3884
  766SOL    HW1 2297   2.856   2.120  -0.006 -2.0257 -0.2323  1.4481
  766SOL    HW2 2298   3.022   2.158  -0.001 -1.2551  0.9088  0.1487
  767SOL     OW 2299   2.853   1.555   0.513  0.3986  0.2550 -0.2638
  767SOL    HW1 2300   2.768   1.527   0.569  0.5089 -0.6854 -0.3142
  767SOL    HW2 2301   2.920   1.607   0.570  1.4744  3.3109  0.7589
  768SOL     OW 2302   1.104   0.262   0.305  0.2716  0.0009  0.1942
  768SOL    HW1 2303   1.008   0.215   0.318 -0.6573 -1.1356 -2.5793
  768SOL    HW2 2304   1.176   0.202   0.262  0.7324  3.8255 -0.0831
  769SOL     OW 2305   1.192   1.817   2.272  0.1168  0.0658 -0.2704
  769SOL    HW1 2306   1.163   1.849   2.359  0.9409  2.6025  1.3051
  769SOL    HW2 2307   1.157   1.722   2.244 -0.5400 -0.1897 -1.4234
  770SOL     OW 2308   0.169   1.207   2.400  0.3422 -0.5017  0.2604
  770SOL    HW1 2309   0.150   1.252   2.495  1.8796 -1.0532 -0.9555
  770SOL    HW2 2310   0.082   1.182   2.343 -0.1167 -3.0892 -2.2041
  771SOL     OW 2311   2.941   2.835   1.932 -0.7863  0.0824  0.9229
  771SOL    HW1 2312   2.932   2.904   1.852 -0.1266  2.4398 -2.8673
  771SOL    HW2 2313   2.920   2.883   2.019 -0.5604 -0.2171 -1.1366
  772SOL     OW 2314   2.124   0.124   2.968  0.1573  0.3623 -0.5810
  772SOL    HW1 2315   2.203   0.061   2.990  1.8847  0.0420  3.5422
  772SOL    HW2 2316   2.131   0.210   3.018  0.0500 -2.5385 -0.2420
  773SOL     OW 2317   0.673   2.065   2.460 -0.2961  0.3049 -0.0858
  773SOL    HW1 2318   0.663   2.123   2.372 -0.0006  2.0554 -0.4090
  773SOL    HW2 2319   0.596   2.079   2.528 -2.1289 -1.3796 -0.4949
  774SOL     OW 2320   2.041   3.094   2.606  0.5443 -0.2587 -0.1199
  774SOL    HW1 2321   2.054   3.190   2.647 -2.0124  1.8051  0.5789
  774SOL    HW2 2322   2.100   3.023   2.656 -3.3873 -0.2876 -1.6019
  775SOL     OW 2323   2.494   2.841   2.332 -0.5839 -0.0559 -0.8042
  775SOL    HW1 2324   2.461   2.943   2.336  0.8770  1.5084 -0.4334
  775SOL    HW2 2325   2.562   2.827   2.409 -1.1406 -1.9823  0.6723
  776SOL     OW 2326   0.039   1.248   0.202  0.7252  0.0125  0.1056
  776SOL    HW1 2327   0.012   1.188   0.121 -1.3325  2.3659  0.4271
  776SOL    HW2 2328  -0.038   1.301   0.239 -0.0547 -0.9587 -0.2747
  777SOL     OW 2329   0.243   2.679   0.495  0.7208 -0.3083 -0.2891
  777SOL    HW1 2330   0.142   2.694   0.476 -0.3061  1.4837  2.9957
  777SOL    HW2 2331   0.298   2.769   0.494  0.5169  1.3656  0.9522
  778SOL     OW 2332   1.326   1.954   0.162  0.1108 -0.1872  0.1362
  778SOL    HW1 2333   1.290   1.996   0.249  3.1533  0.1092  2.0527
  778SOL    HW2 2334   1.359   2.028   0.099  0.5151  0.0702 -1.1173
  779SOL     OW 2335   0.184   0.815   0.517 -0.0223  0.0573  1.0235
  779SOL    HW1 2336   0.161   0.716   0.485  2.7247  2.1108  0.0854
  779SOL    HW2 2337   0.111   0.851   0.586 -2.6497 -1.4474  0.3865
  780SOL     OW 2338   0.040   0.317   2.403 -0.3969  0.3202  0.1963
  780SOL    HW1 2339   0.018   0.419   2.403  0.5413  1.1284 -1.0258
  780SOL    HW2 2340   0.122   0.302   2.336  0.0390  0.7456  0.8433
  781SOL     OW 2341   0.586   1.710   1.591  0.2141 -0.2396  0.0946
  781SOL    HW1 2342   0.622   1.756   1.676 -1.4414 -1.0436  1.1881
  781SOL    HW2 2343   0.522   1.629   1.620 -3.1790 -1.6022  3.2368
  782SOL     OW 2344   2.639   0.129   0.916  1.1192 -0.4733 -0.4950
  782SOL    HW1 2345   2.562   0.157   0.849 -0.5024 -3.0682 -2.5913
  782SOL    HW2 2346   2.640   0.183   1.003 -1.2154 -0.6735  1.1165
  783SOL     OW 2347   2.836   0.696   2.499 -0.1170 -0.1490 -0.5838
  783SOL    HW1 2348   2.794   0.742   2.588 -2.7205 -1.8907  0.8407
  783SOL    HW2 2349   2.774   0.617   2.471 -2.5750  0.4651  1.9024
  784SOL     OW 2350   1.368   2.185   0.014  0.6472 -0.4095  0.5053
  784SOL    HW1 2351   1.447   2.243   0.047 -0.0847 -0.1202  0.8334
  784SOL    HW2 2352   1.359   2.194  -0.092  1.5405  0.3692 -3.3418
  785SOL     OW 2353   2.160   0.358   0.007 -0.7240  0.7905 -0.0244
  785SOL    HW1 2354   2.067   0.359   0.056  2.8338  0.2518  1.4346
  785SOL    HW2 2355   2.184   0.448  -0.037 -0.5439 -2.4315  0.5811
  786SOL     OW 2356   2.024   2.169   2.276 -0.4671  0.1208  0.9529
  786SOL    HW1 2357   1.991   2.075   2.238 -0.0691 -3.2984  1.2916
  786SOL    HW2 2358   2.131   2.177   2.270  2.0971 -1.8114 -1.0539
  787SOL     OW 2359   1.379   0.626   0.820 -0.1176 -0.2364 -0.2469
  787SOL    HW1 2360   1.326   0.700   0.863  3.6112  0.3791  0.4518
  787SOL    HW2 2361   1.396   0.637   0.718  1.4157 -0.5021 -1.1147
  788SOL     OW 2362   1.205   0.443   3.024 -0.3003  0.4519 -0.2211
  788SOL    HW1 2363   1.116   0.439   2.966  0.2111  0.0421  1.1738
  788SOL    HW2 2364   1.289   0.475   2.974 -0.0493 -0.5296 -1.1841
  789SOL     OW 2365   2.624   0.103   1.830 -0.2935  0.3974  0.5431
  789SOL    HW1 2366   2.523   0.136   1.837 -0.4796 -2.9646  1.2377
  789SOL    HW2 2367   2.630   0.005   1.820  1.4192  1.7867  1.5329
  790SOL     OW 2368   2.577   2.629   0.794 -0.6876  0.2828 -0.1791
  790SOL    HW1 2369   2.652   2.632   0.718  0.3399  3.8230  2.2517
  790SOL    HW2 2370   2.574   2.717   0.842 -0.4008 -0.2660 -1.4764
  791SOL     OW 2371   1.979   1.273   0.223  0.3646 -1.0329  0.2609
  791SOL    HW1 2372   1.895   1.219   0.264  0.6011 -2.4498 -0.2549
  791SOL    HW2 2373   2.059   1.216   0.191 -1.7437  1.5890  2.0676
  792SOL     OW 2374   0.408   1.977   2.207  0.0778 -0.0463 -0.2652
  792SOL    HW1 2375   0.465   2.054   2.244  0.4131  1.4171 -1.9591
  792SOL    HW2 2376   0.336   1.951   2.277 -1.6443  2.3376  1.5944
  793SOL     OW 2377   2.147   1.540   2.139 -0.2480 -0.2774  0.0368
  793SOL    HW1 2378   2.229   1.602   2.137  1.6447 -1.9958 -3.6116
  793SOL    HW2 2379   2.123   1.509   2.051 -1.3226  1.2448  1.9765
  794SOL     OW 2380   0.483   1.467   2.474  0.3395  0.5002 -0.0298
  794SOL    HW1 2381   0.527   1.422   2.391 -0.4348  3.0950 -0.0204
  794SOL    HW2 2382   0.408   1.530   2.446  1.9145 -1.9750 -0.9645
  795SOL     OW 2383   2.542   2.318   1.806  0.0119 -0.3801 -0.2261
  795SOL    HW1 2384   2.556   2.374   1.891  1.0804  2.2842  0.9394
  795SOL    HW2 2385   2.460   2.252   1.811 -0.2490  1.3453 -0.7898
  796SOL     OW 2386   3.049   1.064   2.693 -0.2195 -0.1249 -0.0799
  796SOL    HW1 2387   2.948   1.092   2.698 -2.6966  0.7108 -1.9959
  796SOL    HW2 2388   3.086   1.034   2.786  3.3504  2.6678  3.7191
  797SOL     OW 2389   0.681   0.650   1.362  0.1267 -0.4955  0.0474
  797SOL    HW1 2390   0.753   0.691   1.427  1.1067 -1.6189  1.3478
  797SOL    HW2 2391   0.650   0.722   1.294 -3.2785 -0.1462  2.1536
  798SOL     OW 2392   1.193   0.465   0.947 -0.3850  0.3280 -1.0354
  798SOL    HW1 2393   1.245   0.460   1.039  0.6026  1.1641  1.0143
  798SOL    HW2 2394   1.229   0.536   0.885 -1.6876  0.0679 -1.5549
  799SOL     OW 2395   1.824   2.723   1.014 -0.4403 -0.3903  0.1846
  799SOL    HW1 2396   1.820   2.635   1.075 -1.1024 -0.7894  1.1655
  799SOL    HW2 2397   1.860   2.693   0.922  0.7332  1.3106  0.3182
  800SOL     OW 2398   2.950   0.850   1.814 -0.5473  0.3690 -0.1047
  800SOL    HW1 2399   2.983   0.945   1.836  0.5402  0.3728  1.2462
  800SOL    HW2 2400   2.969   0.786   1.893  1.2855  0.3683 -0.2334
  801SOL     OW 2401   1.965   2.146   0.130 -0.0174 -0.4609 -0.0280
  801SOL    HW1 2402   1.884   2.114   0.072 -2.2944  3.2895 -1.3279
  801SOL    HW2 2403   2.046   2.086   0.110 -2.7420 -1.4598 -0.8893
  802SOL     OW 2404   0.668   0.626   2.543 -0.2502 -0.9795  0.0691
  802SOL    HW1 2405   0.718   0.636   2.455  1.1013 -1.1041  0.8623
  802SOL    HW2 2406   0.572   0.661   2.528  0.2511  1.1707 -1.9354
  803SOL     OW 2407   0.912   0.083   0.872  0.0729 -0.3968  0.7200
  803SOL    HW1 2408   0.982   0.142   0.923  0.6285 -0.5957  1.0404
  803SOL    HW2 2409   0.910   0.099   0.768  1.1295  1.2288 -1.9231
  804SOL     OW 2410   0.297   0.022   2.191 -0.1970  0.2378 -0.3462
  804SOL    HW1 2411   0.269   0.120   2.204 -0.8048 -0.7610 -1.7373
  804SOL    HW2 2412   0.253  -0.014   2.104 -0.8715  1.9114 -0.2661
  805SOL     OW 2413   2.393   0.392   0.331  0.1806  0.4248 -0.1968
  805SOL    HW1 2414   2.459   0.380   0.410  0.6340  0.0437  4.6008
  805SOL    HW2 2415   2.391   0.309   0.271  1.3477  0.1866  0.0895
  806SOL     OW 2416   0.633   2.541   1.826 -0.3086  0.7477 -0.1182
  806SOL    HW1 2417   0.583   2.619   1.867  2.7929  0.9935  1.3348
  806SOL    HW2 2418   0.658   2.556   1.726 -0.0964  3.3663 -0.9349
  807SOL     OW 2419   2.514   0.973   0.480 -0.4452 -0.5680  0.0042
  807SOL    HW1 2420   2.602   0.929   0.518  2.2566 -4.9290  0.8868
  807SOL    HW2 2421   2.523   0.975   0.372  0.9833  0.0210 -0.6453
  808SOL     OW 2422   0.646   2.030   2.876  0.5805 -0.2596  0.0592
  808SOL    HW1 2423   0.653   2.071   2.975  0.9776  2.3135  0.6450
  808SOL    HW2 2424   0.648   1.925   2.868 -0.1475  0.0486  1.0001
  809SOL     OW 2425   2.562   1.982   1.897  0.2984 -0.0361 -0.0715
  809SOL    HW1 2426   2.659   2.010   1.889  0.5041  1.8709 -1.5079
  809SOL    HW2 2427   2.521   1.995   1.800 -3.2071  0.8705 -1.8254
  810SOL     OW 2428   2.190   1.104   0.540  0.8276  0.4202 -0.6463
  810SOL    HW1 2429   2.237   1.050   0.616  0.1441  1.2971  0.2046
  810SOL    HW2 2430   2.154   1.193   0.582 -1.6947  1.2112 -1.2348
  811SOL     OW 2431   1.277   2.592   1.195  0.2469 -0.3093 -0.6111
  811SOL    HW1 2432   1.247   2.490   1.192 -0.4062 -1.8635  0.8025
  811SOL    HW2 2433   1.278   2.642   1.288  2.4637  0.3578  0.4320
  812SOL     OW 2434   1.436   0.763   1.969  0.3166 -0.9233 -0.4032
  812SOL    HW1 2435   1.373   0.741   1.894 -0.2505  0.1878  1.4641
  812SOL    HW2 2436   1.468   0.860   1.952  4.1644  0.2496 -0.1287
  813SOL     OW 2437   1.611   2.069   2.408  0.3949  0.5007 -0.7747
  813SOL    HW1 2438   1.699   2.017   2.431 -0.7239 -0.6826  0.7154
  813SOL    HW2 2439   1.579   2.059   2.309 -0.5712 -1.0677 -2.0099
  814SOL     OW 2440   2.992   1.714   2.868  0.5229  0.4803 -0.4412
  814SOL    HW1 2441   3.043   1.660   2.940 -1.0606  0.9555 -3.6047
  814SOL    HW2 2442   3.021   1.811   2.870  1.7527  0.1760 -0.8359
  815SOL     OW 2443   2.171   2.897   2.758 -0.0891 -0.1868 -0.5876
  815SOL    HW1 2444   2.149   2.807   2.807 -0.2651 -0.7702  1.0882
  815SOL    HW2 2445   2.261   2.936   2.788  0.6830 -1.2576 -3.5809
  816SOL     OW 2446   1.528   0.363   1.652  0.1144 -0.3772  0.2836
  816SOL    HW1 2447   1.578   0.286   1.703  1.3947 -1.7735  1.5323
  816SOL    HW2 2448   1.457   0.404   1.716  0.7678  1.3581  0.5132
  817SOL     OW 2449   0.385   1.244   2.651  0.0601  0.5793 -0.1096
  817SOL    HW1 2450   0.284   1.263   2.674  1.9642  5.9315  0.1606
  817SOL    HW2 2451   0.426   1.316   2.588 -1.3968 -2.3245  1.4076
  818SOL     OW 2452   2.016   0.828   0.465 -0.2173  0.3037  0.1251
  818SOL    HW1 2453   2.114   0.863   0.442  0.8498  1.3621 -3.2610
  818SOL    HW2 2454   1.986   0.851   0.561  0.1562  1.2299 -0.3077
  819SOL     OW 2455   2.760   2.882   3.076  0.2571 -0.4606 -0.9976
  819SOL    HW1 2456   2.748   2.807   3.149  0.3436 -2.0536 -0.9596
  819SOL    HW2 2457   2.691   2.881   3.000 -1.9108  2.7836 -2.5445
  820SOL     OW 2458   1.281   1.052   0.554  0.0125 -0.3166 -0.2456
  820SOL    HW1 2459   1.330   1.108   0.627 -0.2136 -2.0013  1.2612
  820SOL    HW2 2460   1.242   0.964   0.595  3.1615  1.6048  0.6118
  821SOL     OW 2461   0.097   1.188   0.706  0.0681  0.1472 -0.0871
  821SOL    HW1 2462   0.037   1.209   0.783  0.5410  0.1650 -3.0880
  821SOL    HW2 2463   0.163   1.271   0.698  2.5485  1.2405 -1.9254
  822SOL     OW 2464   2.527   1.760   2.430  0.1203 -0.3260  0.3073
  822SOL    HW1 2465   2.528   1.813   2.520 -0.7648  3.2467  0.0727
  822SOL    HW2 2466   2.435   1.768   2.383 -1.3724 -0.9340 -0.4928
  823SOL     OW 2467   2.016   0.954   1.206 -0.0203  0.1559 -0.1306
  823SOL    HW1 2468   1.998   0.932   1.305 -1.6690  0.1323 -1.8285
  823SOL    HW2 2469   1.940   0.930   1.146  2.2122 -1.4407  1.6668
  824SOL     OW 2470   0.187   1.905   2.788 -0.2856 -0.0640  0.2237
  824SOL    HW1 2471   0.226   1.867   2.880  1.8549 -0.2409 -0.1161
  824SOL    HW2 2472   0.256   1.917   2.705  0.8775  0.3761 -0.3666
  825SOL     OW 2473   1.315   1.082   0.258 -0.2307  0.3513  0.1345
  825SOL    HW1 2474   1.326   1.177   0.223  0.3042 -3.0411 -2.2398
  825SOL    HW2 2475   1.310   1.071   0.363 -1.2899  0.5408  1.0152
  826SOL     OW 2476   1.928   0.595   1.577  0.0959 -0.2239 -0.0565
  826SOL    HW1 2477   2.016   0.570   1.627 -0.0270 -0.7904 -0.5696
  826SOL    HW2 2478   1.872   0.509   1.558 -1.9503  1.1991  3.2914
  827SOL     OW 2479   0.728   1.161   0.407 -0.0354  0.4033  0.1546
  827SOL    HW1 2480   0.794   1.090   0.369 -0.6764  0.8379  1.0614
  827SOL    HW2 2481   0.644   1.116   0.451  0.6230 -1.8728  1.2344
  828SOL     OW 2482   2.628   0.130   1.555 -0.2180  0.0569 -0.0103
  828SOL    HW1 2483   2.554   0.064   1.524 -1.1654 -0.5369 -0.2282
  828SOL    HW2 2484   2.632   0.139   1.658 -0.7958  0.9550 -3.3289
  829SOL     OW 2485   2.919   2.415   2.944  0.3854 -0.4951  0.5333
  829SOL    HW1 2486   2.818   2.395   2.962  1.3222 -0.3543 -1.7593
  829SOL    HW2 2487   2.930   2.521   2.937  2.0706  2.0237  0.4562
  830SOL     OW 2488   2.882   0.906   3.027 -0.2295 -0.2436 -0.6874
  830SOL    HW1 2489   2.927   0.994   3.062 -0.0548 -1.4680 -1.0733
  830SOL    HW2 2490   2.903   0.823   3.086 -1.2639  0.4628 -4.3353
  831SOL     OW 2491   0.106   0.579   0.402  0.5757  0.4035 -0.0109
  831SOL    HW1 2492   0.061   0.512   0.468  0.2175  1.2748  0.2539
  831SOL    HW2 2493   0.121   0.540   0.305  2.4660  0.3640 -1.1956
  832SOL     OW 2494   1.790   0.750   3.026  0.0972 -0.7737  0.2963
  832SOL    HW1 2495   1.725   0.797   2.961 -0.1430 -1.0374 -2.3568
  832SOL    HW2 2496   1.759   0.655   3.041 -0.5554 -0.4149 -0.2104
  833SOL     OW 2497   2.378   2.090   0.499 -0.2826  0.3765  0.2038
  833SOL    HW1 2498   2.294   2.028   0.487 -0.8519 -0.9321  0.9463
  833SOL    HW2 2499   2.462   2.036   0.487 -1.3684  1.9706  5.6776
  834SOL     OW 2500   0.170   0.115   0.586 -0.1252 -0.5752  0.0821
  834SOL    HW1 2501   0.157   0.013   0.606 -0.4879 -0.3466 -2.8799
  834SOL    HW2 2502   0.206   0.131   0.492 -1.9337  1.2365  1.1904
  835SOL     OW 2503   2.426   1.572   1.098  0.1775  0.5168  0.5250
  835SOL    HW1 2504   2.513   1.599   1.141  0.5825 -1.9858 -0.5124
  835SOL    HW2 2505   2.435   1.592   0.995 -2.5364  3.7645 -1.0055
  836SOL     OW 2506   1.578   0.813   2.575 -0.7076 -0.1288 -0.0594
  836SOL    HW1 2507   1.475   0.809   2.576 -0.1104  0.7037 -1.8562
  836SOL    HW2 2508   1.625   0.782   2.490  1.5642 -1.2820 -1.6357
  837SOL     OW 2509   1.721   0.107   0.569  0.4165 -0.1550 -0.3486
  837SOL    HW1 2510   1.696   0.188   0.622  1.4793  0.4507 -0.1712
  837SOL    HW2 2511   1.659   0.097   0.487 -0.2490  0.1741  1.6939
  838SOL     OW 2512   1.209   1.421   2.705  0.2150  0.3118 -0.2378
  838SOL    HW1 2513   1.172   1.464   2.790  0.7060  3.4219 -2.0101
  838SOL    HW2 2514   1.148   1.348   2.663 -1.1707  1.0722 -1.4744
  839SOL     OW 2515   1.583   0.342   0.968  0.2064 -0.4201  0.3393
  839SOL    HW1 2516   1.543   0.403   1.040  0.7732  2.4150 -0.8686
  839SOL    HW2 2517   1.537   0.253   0.965  1.4436  2.2590 -1.9702
  840SOL     OW 2518   2.607   2.950   1.680  0.5100  0.0622 -0.1920
  840SOL    HW1 2519   2.533   2.951   1.606  1.3645  2.1503 -0.1895
  840SOL    HW2 2520   2.579   2.883   1.754  2.1995 -1.8886 -0.6407
  841SOL     OW 2521   1.521   0.804   2.937 -0.4853  0.6172  0.2224
  841SOL    HW1 2522   1.479   0.828   3.027 -0.7820 -1.0631 -4.0889
  841SOL    HW2 2523   1.540   0.879   2.872  2.4497 -2.4712  0.6911
  842SOL     OW 2524   0.853   1.588   1.019  0.1588  0.6121 -0.0680
  842SOL    HW1 2525   0.808   1.662   1.080 -2.5369  0.6303  0.6116
  842SOL    HW2 2526   0.782   1.533   0.966  1.9428  4.6595 -1.9801
  843SOL     OW 2527   0.147   0.121   1.451 -0.0084 -0.9935  0.2730
  843SOL    HW1 2528   0.230   0.163   1.500  1.2142 -0.5358  1.5116
  843SOL    HW2 2529   0.158   0.016   1.454 -2.0311 -1.9923 -1.3954
  844SOL     OW 2530   0.713   2.539   0.205  0.0949 -0.1482  0.3514
  844SOL    HW1 2531   0.709   2.546   0.309 -1.1787 -0.5335  0.8112
  844SOL    HW2 2532   0.621   2.566   0.160 -1.6675 -1.7441  1.5838
  845SOL     OW 2533   1.725   2.980   1.292  0.3617  0.8528 -0.1367
  845SOL    HW1 2534   1.696   3.016   1.385  0.4001  1.5543  1.0095
  845SOL    HW2 2535   1.652   2.985   1.221  0.9494  2.4542  1.6252
  846SOL     OW 2536   1.693   2.999   0.895 -0.4930  0.4936  0.3840
  846SOL    HW1 2537   1.763   3.039   0.830  0.5424 -0.5960 -0.6839
  846SOL    HW2 2538   1.731   2.918   0.949  1.1991 -1.5951  1.3254
  847SOL     OW 2539   2.069   1.598   0.194  0.4976 -0.2886  0.0897
  847SOL    HW1 2540   2.015   1.589   0.287 -1.9000 -0.7196  3.5381
  847SOL    HW2 2541   2.017   1.560   0.113 -1.1391  4.5122  0.3413
  848SOL     OW 2542   2.466   0.862   2.631  0.2444  0.3915 -0.4728
  848SOL    HW1 2543   2.454   0.968   2.650 -1.9744  1.4861  0.4015
  848SOL    HW2 2544   2.403   0.816   2.565 -0.0766 -0.4425 -1.5335
  849SOL     OW 2545   2.393   0.838   2.252 -0.6519 -0.1396 -0.1777
  849SOL    HW1 2546   2.458   0.786   2.190 -3.5628 -0.9612  2.1298
  849SOL    HW2 2547   2.371   0.784   2.341 -1.3487  1.3683  3.0636
  850SOL     OW 2548   1.554   0.176   1.254  0.1521  0.8187  0.0551
  850SOL    HW1 2549   1.520   0.143   1.160 -0.2151  1.6223 -0.1000
  850SOL    HW2 2550   1.514   0.134   1.339 -0.4770  1.9683 -1.3567
  851SOL     OW 2551   0.501   1.761   0.674  0.2364 -0.8049 -0.4431
  851SOL    HW1 2552   0.506   1.855   0.718 -3.3911 -3.2335  0.0822
  851SOL    HW2 2553   0.591   1.710   0.683 -0.2778 -0.4902  0.2826
  852SOL     OW 2554   0.813   2.144   1.706  0.6720  0.5570  0.5775
  852SOL    HW1 2555   0.784   2.227   1.645 -1.0471 -0.5664 -2.4089
  852SOL    HW2 2556   0.754   2.134   1.785 -0.2597 -2.5101  1.0460
  853SOL     OW 2557   2.548   1.521   2.581  0.9496  0.3367 -0.3292
  853SOL    HW1 2558   2.506   1.436   2.544  0.1184 -1.8656 -1.0225
  853SOL    HW2 2559   2.560   1.590   2.508  2.6793 -0.0685  1.8918
  854SOL     OW 2560   2.397   1.441   1.757  0.4139 -0.2509 -0.0291
  854SOL    HW1 2561   2.419   1.437   1.658  0.1764  1.6459 -0.2540
  854SOL    HW2 2562   2.347   1.357   1.780  0.4544  0.5821 -2.3829
  855SOL     OW 2563   2.047   2.289   0.996 -0.2140 -0.5007  0.3992
  855SOL    HW1 2564   2.074   2.382   0.966  0.9314  0.0171  2.4543
  855SOL    HW2 2565   2.087   2.263   1.086 -0.9521  0.0578 -1.3375
  856SOL     OW 2566   1.414   1.328   0.885 -0.1769  0.1990  0.1798
  856SOL    HW1 2567   1.392   1.424   0.863 -0.2807 -1.7550 -2.4052
  856SOL    HW2 2568   1.429   1.321   0.987 -0.1451  1.2523 -3.3418
  857SOL     OW 2569   2.917   2.557   1.031 -0.3719 -0.6837 -0.1663
  857SOL    HW1 2570   2.844   2.519   1.093 -2.5717  1.9671  0.2712
  857SOL    HW2 2571   2.944   2.482   0.968 -2.4244 -0.3163  1.6706
  858SOL     OW 2572   2.264   2.113   1.759 -0.1115 -0.1520  0.7111
  858SOL    HW1 2573   2.171   2.126   1.717  0.3080 -1.6916 -3.0669
  858SOL    HW2 2574   2.329   2.083   1.687 -1.5677  0.0810  0.7513
  859SOL     OW 2575   2.406   0.472   0.994 -0.6511 -0.7248 -0.1800
  859SOL    HW1 2576   2.474   0.523   0.931 -2.9649 -1.1539  0.5341
  859SOL    HW2 2577   2.437   0.403   1.057 -0.9272  2.4189  1.1280
  860SOL     OW 2578   1.958   2.785   0.495 -0.4226  0.2937 -0.0620
  860SOL    HW1 2579   1.955   2.759   0.397  2.1137 -1.3041 -0.8528
  860SOL    HW2 2580   1.974   2.885   0.512 -1.0431  3.2328 -2.0573
  861SOL     OW 2581   1.063   2.577   2.772 -0.4684 -0.3097  0.3047
  861SOL    HW1 2582   1.122   2.660   2.768 -1.2477  0.6365 -0.6080
  861SOL    HW2 2583   1.025   2.570   2.868 -2.3204  0.3750 -0.6385
  862SOL     OW 2584   2.960   2.573   1.560  0.2519  0.3714 -0.1360
  862SOL    HW1 2585   2.991   2.566   1.663  3.7512 -1.8711  0.6018
  862SOL    HW2 2586   2.866   2.615   1.550 -1.8413  1.1175  1.3867
  863SOL     OW 2587   1.902   2.631   0.252  0.7803  0.7875  0.1721
  863SOL    HW1 2588   1.940   2.531   0.258  1.2393 -1.6506  2.4893
  863SOL    HW2 2589   1.803   2.629   0.274 -0.3965 -0.4650  0.4227
  864SOL     OW 2590   1.878   1.139   2.925  0.5849 -0.3711  0.2922
  864SOL    HW1 2591   1.908   1.128   2.831 -0.5327  0.8117  2.0756
  864SOL    HW2 2592   1.951   1.106   2.990 -0.7858  1.0026 -0.2212
  865SOL     OW 2593   2.144   1.727   0.678  0.1265 -0.5745  0.0140
  865SOL    HW1 2594   2.205   1.718   0.762 -0.2974 -1.2704 -3.8625
  865SOL    HW2 2595   2.049   1.699   0.694  2.5957 -0.5558  1.4767
  866SOL     OW 2596   2.893   2.846   1.013 -0.4125 -0.3046  0.0435
  866SOL    HW1 2597   2.938   2.856   0.921 -3.6376  0.9970  0.1626
  866SOL    HW2 2598   2.899   2.745   1.049 -1.9368 -2.4257 -0.4119
  867SOL     OW 2599   0.438   1.300   0.851  0.4689 -0.0291  0.2537
  867SOL    HW1 2600   0.441   1.206   0.812 -2.4724  1.0576  1.0180
  867SOL    HW2 2601   0.350   1.349   0.816 -2.7529 -0.4218  3.0517
  868SOL     OW 2602   0.852   1.950   1.977  0.4716  0.3560  0.0754
  868SOL    HW1 2603   0.842   1.918   2.072 -0.0342  1.9540 -0.9196
  868SOL    HW2 2604   0.778   2.021   1.957  0.5377 -3.6428  0.8192
  869SOL     OW 2605   2.523   2.033   1.609  0.3192  0.0288  0.4068
  869SOL    HW1 2606   2.574   2.114   1.571  0.0457  0.9867  0.2540
  869SOL    HW2 2607   2.512   1.959   1.534  2.6088 -0.5490 -3.1652
  870SOL     OW 2608   2.373   2.519   1.190  0.4431 -0.6185 -0.1021
  870SOL    HW1 2609   2.336   2.426   1.173 -1.0986  2.2183 -1.4519
  870SOL    HW2 2610   2.478   2.522   1.194  0.6983 -0.5644  0.1664
  871SOL     OW 2611   2.996   2.016   0.554  0.0580  0.0781  0.1676
  871SOL    HW1 2612   2.912   2.069   0.530  1.0421 -0.6190 -2.2323
  871SOL    HW2 2613   3.014   1.934   0.489  1.0484 -1.9623 -2.8126
  872SOL     OW 2614   2.179   0.510   1.700  0.3587  0.0980  0.1967
  872SOL    HW1 2615   2.155   0.497   1.799 -0.4981 -0.0925 -2.0772
  872SOL    HW2 2616   2.275   0.481   1.671 -0.8694  2.9222  1.1542
  873SOL     OW 2617   1.718   2.100   2.930 -0.2942 -0.4483 -0.8436
  873SOL    HW1 2618   1.714   2.204   2.942 -2.2792  2.0392  1.0973
  873SOL    HW2 2619   1.641   2.071   2.867 -2.6586 -0.1765 -2.9542
  874SOL     OW 2620   0.713   2.511   0.752  0.0666  0.2023 -0.4660
  874SOL    HW1 2621   0.703   2.601   0.800  0.8917 -0.1716 -0.4090
  874SOL    HW2 2622   0.793   2.450   0.790  1.7441  2.7933  2.1223
  875SOL     OW 2623   2.335   1.508   1.481 -0.4852  0.0651 -0.5666
  875SOL    HW1 2624   2.429   1.563   1.469  2.1768 -1.5018  0.0113
  875SOL    HW2 2625   2.278   1.485   1.399  0.1987 -0.2060  1.1210
  876SOL     OW 2626   0.137   2.191   2.701  0.2838 -0.0724  0.1244
  876SOL    HW1 2627   0.227   2.138   2.709  0.3646 -2.6224 -2.2594
  876SOL    HW2 2628   0.146   2.283   2.744  1.9725  0.9432  2.7082
  877SOL     OW 2629   2.768   2.684   0.598  0.3500  0.1725 -0.5352
  877SOL    HW1 2630   2.830   2.758   0.561  0.1338  0.6446  3.7319
  877SOL    HW2 2631   2.820   2.600   0.628  3.1814 -1.1607 -2.6807
  878SOL     OW 2632   2.803   1.554   2.216 -0.6235  0.1937  0.4157
  878SOL    HW1 2633   2.877   1.591   2.151 -3.5450  0.4482 -0.3037
  878SOL    HW2 2634   2.836   1.554   2.315 -0.7765  1.4639 -1.1079
  879SOL     OW 2635   2.379   3.104   1.212 -0.1207 -0.2876  0.0371
  879SOL    HW1 2636   2.417   3.009   1.212 -0.0261 -0.0379 -0.3122
  879SOL    HW2 2637   2.287   3.111   1.165  0.7189  3.2881 -1.7434
  880SOL     OW 2638   0.669   0.409   2.177  0.2153  0.0217  0.2135
  880SOL    HW1 2639   0.612   0.379   2.262  0.8543 -1.4565  1.9582
  880SOL    HW2 2640   0.757   0.353   2.147  2.6597 -2.0505  2.7517
  881SOL     OW 2641   0.906   0.053   0.379 -0.0814  0.6726 -0.1216
  881SOL    HW1 2642   0.931  -0.032   0.429  1.4520 -0.4293 -1.0625
  881SOL    HW2 2643   0.849   0.035   0.292 -0.4849 -1.6441  0.8889
  882SOL     OW 2644   2.758   1.637   1.678  0.2932  0.0610  0.3844
  882SOL    HW1 2645   2.856   1.642   1.686 -1.5269  0.1560  2.7044
  882SOL    HW2 2646   2.718   1.671   1.772 -0.8776 -0.6425  0.7068
  883SOL     OW 2647   0.946   0.605   0.937  0.2708  0.1989  0.0931
  883SOL    HW1 2648   0.936   0.665   1.021 -2.4548  2.3663  0.9171
  883SOL    HW2 2649   1.033   0.551   0.932 -2.8741 -1.2848 -1.3810
  884SOL     OW 2650   1.221   1.906   1.020  0.1873 -0.3391  0.4916
  884SOL    HW1 2651   1.171   1.872   0.934 -1.8280 -0.0465 -1.3436
  884SOL    HW2 2652   1.164   1.970   1.081 -0.6154  0.5952  0.0314
  885SOL     OW 2653   2.258   1.807   2.301  0.7189 -0.6735  0.0916
  885SOL    HW1 2654   2.190   1.753   2.364 -0.7926  1.8525 -1.1118
  885SOL    HW2 2655   2.255   1.910   2.321 -0.3049 -1.2621  2.4360
  886SOL     OW 2656   2.657   0.460   1.777  0.2060 -0.0884  0.1145
  886SOL    HW1 2657   2.681   0.429   1.871 -2.0703 -1.4060  0.1260
  886SOL    HW2 2658   2.728   0.535   1.745  0.7454  4.0918 -0.5915
  887SOL     OW 2659   0.127   2.059   1.301  0.5314 -0.3910  0.4266
  887SOL    HW1 2660   0.066   2.008   1.236  2.5927  1.6061 -0.3787
  887SOL    HW2 2661   0.156   2.152   1.264  0.5623  2.2637  2.1718
  888SOL     OW 2662   0.580   1.309   1.493  0.4480  0.0864 -0.2716
  888SOL    HW1 2663   0.600   1.342   1.397 -0.3025  4.3884 -1.4878
  888SOL    HW2 2664   0.608   1.209   1.500  0.7749  0.5741 -1.7381
  889SOL     OW 2665   0.859   2.536   2.141  0.5014 -0.0670 -0.2197
  889SOL    HW1 2666   0.775   2.516   2.082  2.7635 -2.8175 -0.6396
  889SOL    HW2 2667   0.944   2.507   2.093  0.0120 -2.7676 -1.7895
  890SOL     OW 2668   2.328   2.442   0.173  0.4623 -0.2986 -0.4373
  890SOL    HW1 2669   2.372   2.506   0.109  1.3663 -0.8525  2.3743
  890SOL    HW2 2670   2.225   2.454   0.180 -0.1477 -0.7811  0.7779
  891SOL     OW 2671   2.595   1.520   0.629 -1.1598  0.5262 -0.4560
  891SOL    HW1 2672   2.594   1.498   0.733  0.5311  0.4027 -0.8659
  891SOL    HW2 2673   2.505   1.569   0.598 -4.0681 -2.5885  3.6800
  892SOL     OW 2674   0.241   0.294   2.219 -0.0354 -0.4905 -0.5522
  892SOL    HW1 2675   0.243   0.281   2.114  0.3033 -0.5451  1.8522
  892SOL    HW2 2676   0.318   0.349   2.264  0.5025 -0.8059  0.8493
  893SOL     OW 2677   1.655   0.237   2.733  0.1929 -0.0387 -0.0170
  893SOL    HW1 2678   1.730   0.310   2.732 -0.4558 -0.0986 -0.7707
  893SOL    HW2 2679   1.562   0.286   2.738  1.0451 -0.0220 -2.4923
  894SOL     OW 2680   2.150   1.972   0.043 -0.1715 -0.7169  0.2653
  894SOL    HW1 2681   2.120   1.916  -0.040 -0.3843  1.4965  1.7704
  894SOL    HW2 2682   2.191   1.915   0.119 -1.4215 -0.5909  2.8268
  895SOL     OW 2683   2.919   1.405   0.822 -0.0807 -0.5975  0.1532
  895SOL    HW1 2684   2.963   1.348   0.900 -2.1597  0.2793  2.4134
  895SOL    HW2 2685   2.981   1.480   0.791  0.7344 -3.2400  0.6461
  896SOL     OW 2686   1.745   1.785   1.180 -0.4870  0.8185  0.0847
  896SOL    HW1 2687   1.819   1.840   1.133  1.1113 -1.6291  2.2975
  896SOL    HW2 2688   1.650   1.810   1.143  0.9298  1.9193 -1.2091
  897SOL     OW 2689   0.312   0.536   3.099  0.1112 -0.4301  0.1404
  897SOL    HW1 2690   0.241   0.611   3.070  0.7454 -0.0465 -1.9738
  897SOL    HW2 2691   0.408   0.583   3.100  2.1297 -1.2746  1.4534
  898SOL     OW 2692   0.547   2.835   1.139  0.0358 -0.6665 -0.0504
  898SOL    HW1 2693   0.488   2.919   1.153 -0.4870 -2.5578  1.0509
  898SOL    HW2 2694   0.646   2.847   1.170  0.2225 -2.1718 -1.3502
  899SOL     OW 2695   2.679   0.916   1.253  0.2542 -0.0707 -0.2854
  899SOL    HW1 2696   2.622   0.890   1.173  1.2273 -1.7259  1.9033
  899SOL    HW2 2697   2.774   0.936   1.214  0.6812 -1.5797  0.4669
  900SOL     OW 2698   0.990   2.408   2.347 -0.0709 -0.4753 -0.0198
  900SOL    HW1 2699   0.925   2.460   2.281 -2.4556  1.3661 -2.2175
  900SOL    HW2 2700   0.948   2.387   2.444 -0.3830 -1.6854  0.2908
  901SOL     OW 2701   1.908   2.448   1.382 -0.3258  0.8400  0.3312
  901SOL    HW1 2702   1.878   2.451   1.280  0.8985 -2.2631  0.5321
  901SOL    HW2 2703   2.013   2.432   1.398  2.1108  1.0149 -2.1245
  902SOL     OW 2704   2.590   1.636   1.456 -0.0585 -0.0485 -0.3926
  902SOL    HW1 2705   2.644   1.625   1.547  1.1212  1.1070  0.4044
  902SOL    HW2 2706   2.634   1.601   1.372 -0.9576  0.5010 -0.2097
  903SOL     OW 2707   0.256   2.340   1.979 -0.3480 -0.6153 -0.3588
  903SOL    HW1 2708   0.163   2.298   2.003 -0.9048 -2.9055  1.3854
  903SOL    HW2 2709   0.249   2.410   1.909  0.3200 -1.4595  0.6891
  904SOL     OW 2710   1.974   0.820   2.574 -0.1054 -0.7871  0.5465
  904SOL    HW1 2711   1.904   0.753   2.608 -0.0740  2.1690  0.0053
  904SOL    HW2 2712   1.953   0.838   2.473  1.3629 -3.1044 -1.7811
  905SOL     OW 2713   2.739   0.002   2.636  0.2482  0.1371  0.3252
  905SOL    HW1 2714   2.830  -0.042   2.633 -1.9411  0.5010  0.0841
  905SOL    HW2 2715   2.740   0.107   2.623  0.2678  0.3620  0.7885
  906SOL     OW 2716   0.143   1.764   1.930 -0.2681 -0.1861  0.9147
  906SOL    HW1 2717   0.083   1.798   1.850  0.7464 -0.9440 -1.1713
  906SOL    HW2 2718   0.237   1.808   1.935  0.8408  1.5571  0.1974
  907SOL     OW 2719   0.163   2.459   1.027  0.1053  0.0430  0.7807
  907SOL    HW1 2720   0.236   2.530   1.036  1.2793 -2.8895  0.0455
  907SOL    HW2 2721   0.130   2.456   0.930 -0.0857 -1.5363  1.5203
  908SOL     OW 2722   2.658   2.903   0.441  0.6838 -0.6390 -0.2935
  908SOL    HW1 2723   2.682   2.939   0.348 -0.3666 -1.9568  3.2915
  908SOL    HW2 2724   2.605   2.813   0.433  0.0938  1.6829 -2.4553
  909SOL     OW 2725   0.804   0.900   2.651 -0.7845  0.1152 -0.0648
  909SOL    HW1 2726   0.773   0.799   2.644 -0.8080 -2.5108 -0.7580
  909SOL    HW2 2727   0.863   0.923   2.563  0.7820  0.0820  0.0848
  910SOL     OW 2728   1.738   1.775   2.020  0.2401 -0.6216  0.0767
  910SOL    HW1 2729   1.801   1.829   1.955 -1.9794  0.9577 -1.9283
  910SOL    HW2 2730   1.674   1.841   2.070  0.2574 -0.9675 -0.0597
  911SOL     OW 2731   1.766   3.022   1.586 -0.2639  0.5029 -1.2417
  911SOL    HW1 2732   1.847   2.986   1.533  2.7689 -0.4023  1.3021
  911SOL    HW2 2733   1.762   2.981   1.678  0.1003 -0.3820 -1.4743
  912SOL     OW 2734   2.828   0.971   0.774  0.0861 -0.3894  0.1546
  912SOL    HW1 2735   2.836   0.955   0.876  2.7168  0.3948  0.2005
  912SOL    HW2 2736   2.789   1.065   0.747 -2.7579 -1.2852  1.5391
  913SOL     OW 2737   2.534   1.279   1.564 -0.0687 -0.3236  0.2161
  913SOL    HW1 2738   2.553   1.178   1.534  0.7909 -0.4377  0.6805
  913SOL    HW2 2739   2.544   1.343   1.490  1.0870 -0.3303  0.7818
  914SOL     OW 2740   2.824   0.544   1.229 -0.4515  0.7807 -0.0892
  914SOL    HW1 2741   2.803   0.453   1.276 -2.0304 -0.2111  2.1998
  914SOL    HW2 2742   2.803   0.630   1.281 -1.6201  1.8614  1.1877
  915SOL     OW 2743   1.247   0.790   1.009  0.0212  0.1511  0.1145
  915SOL    HW1 2744   1.321   0.829   1.066 -0.0288  2.1323 -1.1560
  915SOL    HW2 2745   1.153   0.802   1.054  0.5514 -0.5486  1.8142
  916SOL     OW 2746   0.538   0.063   0.621 -0.7506  0.1524 -0.6489
  916SOL    HW1 2747   0.548   0.129   0.698  1.5320  1.1327 -2.8207
  916SOL    HW2 2748   0.560   0.105   0.531  1.0715  0.1565 -0.2643
  917SOL     OW 2749   2.745   2.615   1.940  0.4465 -0.0176 -0.4865
  917SOL    HW1 2750   2.659   2.677   1.933 -2.7893  0.3593  1.6497
  917SOL    HW2 2751   2.830   2.671   1.922  0.2957 -2.5482  3.5067
  918SOL     OW 2752   0.970   2.189   3.029  0.2210  0.2020  0.7914
  918SOL    HW1 2753   0.940   2.208   3.128 -0.2721  2.1082  2.2497
  918SOL    HW2 2754   1.039   2.113   3.027  1.7965  0.5092  1.9978
  919SOL     OW 2755   0.942   1.613   2.821 -0.0439  0.1296 -0.0986
  919SOL    HW1 2756   0.987   1.674   2.747 -3.4142  0.5316  0.2543
  919SOL    HW2 2757   0.885   1.536   2.776 -0.5205 -0.1916  3.9329
  920SOL     OW 2758   1.247   2.054   2.525 -0.3917 -0.0808  0.2854
  920SOL    HW1 2759   1.204   2.064   2.433 -0.0112 -0.1185  0.5243
  920SOL    HW2 2760   1.255   1.953   2.535 -0.2912 -0.5053  1.9700
  921SOL     OW 2761   1.049   0.139   2.569 -0.4144  0.8127  0.2863
  921SOL    HW1 2762   1.061   0.127   2.471  1.0512 -0.5337  1.4736
  921SOL    HW2 2763   0.975   0.082   2.616  1.6109  0.9732 -1.8428
  922SOL     OW 2764   2.189   2.391   2.764 -0.5708  0.3753 -0.0265
  922SOL    HW1 2765   2.168   2.289   2.771  2.3605 -1.4075 -0.6248
  922SOL    HW2 2766   2.119   2.437   2.702 -0.4862  1.0295  0.0299
  923SOL     OW 2767   1.206   2.653   0.296 -0.2138  0.0111 -0.5930
  923SOL    HW1 2768   1.296   2.705   0.304 -0.4379  0.7512 -0.1053
  923SOL    HW2 2769   1.216   2.565   0.250 -0.6231 -0.4956  0.7353
  924SOL     OW 2770   2.902   1.583   0.080  0.3111 -0.1320 -0.2422
  924SOL    HW1 2771   2.814   1.558   0.026 -0.9238 -0.7432 -1.0194
  924SOL    HW2 2772   2.985   1.607   0.018  0.4587 -0.6198  0.2345
  925SOL     OW 2773   0.027   2.832   1.677  0.3829  0.2112  0.1053
  925SOL    HW1 2774  -0.055   2.893   1.694  0.6228 -0.2953  0.2873
  925SOL    HW2 2775   0.015   2.781   1.587 -2.0968  0.2903  1.3690
  926SOL     OW 2776   1.395   2.923   1.312  0.7482 -0.3368 -0.1445
  926SOL    HW1 2777   1.446   2.915   1.218  2.7057 -0.3141  0.1352
  926SOL    HW2 2778   1.434   3.005   1.362  1.5746 -0.4112 -1.3260
  927SOL     OW 2779   0.283   2.536   1.781  0.3796 -0.3185 -0.3573
  927SOL    HW1 2780   0.264   2.511   1.680  0.9501 -1.9553  1.3051
  927SOL    HW2 2781   0.329   2.627   1.796 -0.1176  2.0192 -3.4752
  928SOL     OW 2782   1.581   1.966   2.141  0.2019  0.0178 -0.0008
  928SOL    HW1 2783   1.629   2.052   2.103 -2.8909 -0.4796  0.1957
  928SOL    HW2 2784   1.485   1.958   2.097  0.2488  4.5457 -0.6970
  929SOL     OW 2785   2.453   2.461   2.836 -0.5149  0.1843 -0.5867
  929SOL    HW1 2786   2.349   2.459   2.825 -3.7284  1.6397  2.3938
  929SOL    HW2 2787   2.499   2.474   2.738  1.6198  0.5828 -1.8037
  930SOL     OW 2788   2.213   1.976   1.082  0.3831  0.1274  0.2865
  930SOL    HW1 2789   2.214   1.964   1.184  1.0222  0.7130 -2.9223
  930SOL    HW2 2790   2.273   2.056   1.056 -2.5297 -1.6108  0.8991
  931SOL     OW 2791   0.547   1.721   2.605  0.0595 -0.0348 -0.0721
  931SOL    HW1 2792   0.568   1.752   2.704  1.0951 -0.7848 -0.1823
  931SOL    HW2 2793   0.586   1.630   2.568  0.8583  1.3624 -2.6082
  932SOL     OW 2794   0.477   0.101   2.944 -0.5221 -0.4992  0.5809
  932SOL    HW1 2795   0.575   0.124   2.911  0.4596 -0.5917 -1.1187
  932SOL    HW2 2796   0.461   0.004   2.975 -2.5465  1.4233 -0.7417
  933SOL     OW 2797   1.038   0.808   2.985  0.1367 -0.5441 -0.0325
  933SOL    HW1 2798   1.101   0.839   3.062  0.7763  0.8332  2.4652
  933SOL    HW2 2799   0.987   0.886   2.939  1.4828  2.6422  0.0017
  934SOL     OW 2800   0.843   3.004   2.719 -0.2108 -0.9179  0.0518
  934SOL    HW1 2801   0.883   2.934   2.650  1.8792 -1.9780  1.4795
  934SOL    HW2 2802   0.850   2.964   2.813 -0.4319 -3.4157 -1.9621
  935SOL     OW 2803   3.086   0.499   0.815 -0.0069 -0.2526  0.4789
  935SOL    HW1 2804   3.120   0.428   0.748 -2.1424  3.0532  1.3179
  935SOL    HW2 2805   3.000   0.536   0.783  1.0646  0.2777  2.0572
  936SOL     OW 2806   1.076   2.929   0.175 -0.1449  0.5978 -0.0902
  936SOL    HW1 2807   1.132   2.966   0.096 -1.4698  1.5196 -0.2674
  936SOL    HW2 2808   1.092   2.827   0.198 -0.2681 -3.3792  0.1638
  937SOL     OW 2809   1.916   2.619   2.098 -0.1366  0.3386 -0.2122
  937SOL    HW1 2810   1.851   2.680   2.152 -0.5881  2.6045 -1.4655
  937SOL    HW2 2811   1.930   2.644   1.999  0.0847 -1.8984  1.2198
  938SOL     OW 2812   2.806   2.162   1.481 -0.1775 -0.0978  0.0097
  938SOL    HW1 2813   2.749   2.252   1.495  0.4692 -0.0120 -0.7083
  938SOL    HW2 2814   2.834   2.123   1.574 -0.2051  0.6934 -0.4754
  939SOL     OW 2815   2.785   1.091   2.487 -0.1809 -0.1737 -0.1815
  939SOL    HW1 2816   2.872   1.034   2.479 -0.1131 -4.8426  0.4245
  939SOL    HW2 2817   2.780   1.137   2.579 -2.3238 -1.3655  0.4506
  940SOL     OW 2818   1.058   0.490   2.646  0.3562  0.4285  0.1653
  940SOL    HW1 2819   1.094   0.397   2.632 -2.5497 -2.2071  0.9421
  940SOL    HW2 2820   0.961   0.495   2.653  0.7325  1.3146 -1.2582
  941SOL     OW 2821   0.063   2.835   2.214  0.2126  0.4015 -0.5016
  941SOL    HW1 2822   0.055   2.729   2.229 -0.0479 -4.0462  0.5013
  941SOL    HW2 2823   0.120   2.881   2.293 -0.0899  0.4136  0.0754
  942SOL     OW 2824   0.047   0.068   2.513  0.2231 -0.0239 -0.1534
  942SOL    HW1 2825   0.090   0.080   2.608  0.2478 -0.0732 -0.0943
  942SOL    HW2 2826   0.044   0.160   2.469  0.4783 -1.8168  0.8351
  943SOL     OW 2827   2.081   1.585   2.431 -0.1846 -0.5533  0.0470
  943SOL    HW1 2828   2.110   1.538   2.348  1.6019  2.1794  3.0341
  943SOL    HW2 2829   2.104   1.540   2.517  0.5396 -1.9335 -1.9424
  944SOL     OW 2830   2.162   2.410   1.473 -0.6037  0.0345 -0.0394
  944SOL    HW1 2831   2.233   2.450   1.531  2.3698  1.6519 -1.6949
  944SOL    HW2 2832   2.102   2.338   1.521  0.9310  1.4487  2.9870
  945SOL     OW 2833   0.576   1.424   0.368 -0.4776  0.5649  0.1980
  945SOL    HW1 2834   0.611   1.472   0.285  1.8749  0.8568  0.3694
  945SOL    HW2 2835   0.619   1.331   0.375 -1.0230  0.9825  2.9105
  946SOL     OW 2836   0.418   1.002   2.543 -0.1543  0.6871  0.2301
  946SOL    HW1 2837   0.339   0.972   2.483 -0.8057  0.7005  1.5428
  946SOL    HW2 2838   0.418   1.104   2.569 -0.9954 -1.2193 -3.6087
  947SOL     OW 2839   1.473   0.523   0.115  0.0288 -0.4189  0.4183
  947SOL    HW1 2840   1.452   0.520   0.011  0.4185  0.7214  0.0646
  947SOL    HW2 2841   1.417   0.460   0.167  1.2347 -0.0754 -0.6432
  948SOL     OW 2842   1.950   3.080   2.202 -0.5009 -0.4472 -0.4111
  948SOL    HW1 2843   1.921   3.078   2.101  0.8931  1.8866 -1.6479
  948SOL    HW2 2844   1.956   2.989   2.247 -1.0414  2.9986 -0.0933
  949SOL     OW 2845   0.622   2.540   0.493 -0.2334 -0.1671 -0.1238
  949SOL    HW1 2846   0.642   2.633   0.448  1.2698  1.0539 -0.8777
  949SOL    HW2 2847   0.688   2.524   0.573  1.8936  0.0991 -0.5884
  950SOL     OW 2848   0.306   2.124   3.084  0.1692 -0.3472 -0.5002
  950SOL    HW1 2849   0.215   2.174   3.069 -1.4418 -3.7623  2.3609
  950SOL    HW2 2850   0.304   2.029   3.046 -1.8715  0.1510  1.2636
  951SOL     OW 2851   1.188   2.804   2.751  0.0000 -0.6502  0.4312
  951SOL    HW1 2852   1.203   2.849   2.661  1.9893 -1.4578  2.3456
  951SOL    HW2 2853   1.245   2.843   2.824  2.0587 -1.7725 -0.0383
  952SOL     OW 2854   0.109   1.639   0.469  0.2060  0.2684 -0.7256
  952SOL    HW1 2855   0.181   1.714   0.454  1.6159  1.7535  1.8411
  952SOL    HW2 2856   0.112   1.601   0.570 -0.6011 -0.2063  3.9689
  953SOL     OW 2857   2.585   1.774   0.204  0.2286  0.2073  0.1539
  953SOL    HW1 2858   2.575   1.677   0.234  0.2626  1.3255 -1.6834
  953SOL    HW2 2859   2.619   1.790   0.108  1.4922  0.8989 -3.5686
  954SOL     OW 2860   2.160   0.573   0.986 -0.3812 -0.7573  0.1813
  954SOL    HW1 2861   2.136   0.565   0.886  1.8096 -1.7685  3.5474
  954SOL    HW2 2862   2.254   0.537   1.004  1.2762  2.0432 -0.6291
  955SOL     OW 2863   0.275   2.654   1.307  0.6057  0.3128 -0.1931
  955SOL    HW1 2864   0.174   2.641   1.313 -0.8438  3.4711 -1.6043
  955SOL    HW2 2865   0.300   2.662   1.204  0.4586  0.8525 -1.5096
  956SOL     OW 2866   2.779   2.450   2.484  0.1241 -0.1500  0.4948
  956SOL    HW1 2867   2.768   2.344   2.463 -0.8534 -1.1068  0.4739
  956SOL    HW2 2868   2.805   2.504   2.400 -3.1531 -3.3702  1.8323
  957SOL     OW 2869   1.541   2.040   2.703 -0.0992 -0.4173  0.4028
  957SOL    HW1 2870   1.572   1.943   2.728 -1.0867 -3.4586  0.4560
  957SOL    HW2 2871   1.541   2.061   2.598  1.3595 -4.3310 -0.5949
  958SOL     OW 2872   2.656   2.347   2.980 -0.6234 -0.3720  0.2885
  958SOL    HW1 2873   2.580   2.369   2.920  1.9110  1.5854  0.0209
  958SOL    HW2 2874   2.649   2.254   3.023 -0.0766  0.3666  2.6707
  959SOL     OW 2875   0.290   2.778   0.042  0.0913  0.4024 -0.7652
  959SOL    HW1 2876   0.191   2.759   0.066 -1.0786  1.5432 -1.1513
  959SOL    HW2 2877   0.351   2.690   0.031  1.9810 -0.8000 -4.5723
  960SOL     OW 2878   1.986   0.491   1.935 -0.1866  0.4722 -0.1507
  960SOL    HW1 2879   1.945   0.582   1.903  2.3685 -0.2330  2.0369
  960SOL    HW2 2880   1.964   0.480   2.034 -2.7211 -2.0478 -1.0088
  961SOL     OW 2881   2.579   1.825   1.059  0.0449 -0.4249  0.5587
  961SOL    HW1 2882   2.526   1.894   0.997 -1.1542 -0.4309 -1.0623
  961SOL    HW2 2883   2.580   1.841   1.161  1.0509 -0.5930  1.9508
  962SOL     OW 2884   1.287   0.902   0.049 -0.3941 -0.3742  0.4485
  962SOL    HW1 2885   1.302   0.951  -0.039 -2.6266  3.3126  1.9493
  962SOL    HW2 2886   1.287   0.966   0.133  0.9124  0.1109  0.4920
  963SOL     OW 2887   2.298   2.611   1.885  0.6019  0.8839 -0.3605
  963SOL    HW1 2888   2.291   2.540   1.962  1.3552  1.8758 -0.7232
  963SOL    HW2 2889   2.307   2.708   1.926  1.5343  0.5057  1.7655
  964SOL     OW 2890   2.420   0.360   1.659  0.2399  0.1769 -0.3617
  964SOL    HW1 2891   2.512   0.388   1.699 -1.8049  0.4255 -1.1831
  964SOL    HW2 2892   2.442   0.305   1.571 -0.1121 -0.4113  0.4729
  965SOL     OW 2893   2.612   3.005   0.171 -0.0718 -0.4067  0.2412
  965SOL    HW1 2894   2.668   2.971   0.090 -1.1581 -3.3562  1.3367
  965SOL    HW2 2895   2.513   3.022   0.162  6.8007 -0.6522  0.1052
  966SOL     OW 2896   2.535   2.563   2.237  0.7221  0.7509 -0.5872
  966SOL    HW1 2897   2.444   2.524   2.268  0.2568  0.1352 -2.2164
  966SOL    HW2 2898   2.528   2.663   2.203  0.5296  0.4550  2.9296
  967SOL     OW 2899   2.750   2.790   2.460  0.3064  0.1468 -0.5078
  967SOL    HW1 2900   2.781   2.713   2.397  1.0368 -0.1475 -0.5851
  967SOL    HW2 2901   2.822   2.850   2.493 -2.0255 -1.7907 -1.9371
  968SOL     OW 2902   2.001   1.060   2.701  0.5150  0.1939 -0.1052
  968SOL    HW1 2903   1.968   1.137   2.639  2.6702  2.8005 -1.5734
  968SOL    HW2 2904   1.976   0.976   2.656  2.5309  2.9912 -0.4732
  969SOL     OW 2905   2.754   2.340   1.120  0.3011 -0.0336  0.2037
  969SOL    HW1 2906   2.672   2.331   1.059  0.3058 -1.8075  0.6741
  969SOL    HW2 2907   2.805   2.251   1.135  1.7607  0.3906 -0.1090
  970SOL     OW 2908   1.106   2.167   1.773  0.3101  0.5436  0.0456
  970SOL    HW1 2909   1.011   2.154   1.739 -1.2629  0.2387  0.8467
  970SOL    HW2 2910   1.116   2.185   1.876  2.5306 -1.4683  1.3944
  971SOL     OW 2911   2.827   2.057   1.916  0.0113  0.1048  0.0445
  971SOL    HW1 2912   2.812   2.156   1.940 -0.1274 -1.4391  2.2213
  971SOL    HW2 2913   2.883   2.040   1.831  0.4108  3.2033 -0.1241
  972SOL     OW 2914   2.057   2.389   0.260 -1.0593 -0.3365  0.2968
  972SOL    HW1 2915   2.044   2.307   0.195 -1.7235 -0.0884  2.8935
  972SOL    HW2 2916   2.040   2.365   0.363  1.7415  1.5549  0.7054
  973SOL     OW 2917   1.236   1.072   1.969 -0.7325 -0.1070 -0.3277
  973SOL    HW1 2918   1.165   1.060   1.893 -0.3281 -1.8146 -2.0763
  973SOL    HW2 2919   1.253   1.178   1.979  2.2493  1.0919  0.4265
  974SOL     OW 2920   1.630   0.572   1.914  0.3196 -0.0694 -0.2877
  974SOL    HW1 2921   1.702   0.610   1.853 -1.7192 -0.4922 -0.5247
  974SOL    HW2 2922   1.556   0.642   1.940  0.8453 -2.9983 -0.9839
  975SOL     OW 2923   2.348   3.057   3.093 -0.2882  0.0911 -0.5106
  975SOL    HW1 2924   2.302   2.966   3.121 -0.2902 -4.3578 -0.5635
  975SOL    HW2 2925   2.380   3.052   2.990  2.1755  1.5814 -0.0589
  976SOL     OW 2926   1.943   2.854   2.356 -0.3692  0.4389 -0.0552
  976SOL    HW1 2927   1.852   2.827   2.324  0.7604  1.5521  1.4425
  976SOL    HW2 2928   1.966   2.818   2.451  0.7608 -1.7495  3.6925
  977SOL     OW 2929   0.483   0.630   1.044  0.3726  0.6015  0.0407
  977SOL    HW1 2930   0.387   0.648   0.997  0.8785 -3.0547  1.0063
  977SOL    HW2 2931   0.542   0.571   0.985 -1.6567  0.5683 -0.5891
   3.10000   3.10000   3.10000
