1000 SPC/Fw water molecules t=   1.46000 step= 1460
 2931
    1SOL     OW    1   2.437   0.337   2.654 -0.2407  0.6036  0.2336
    1SOL    HW1    2   2.449   0.234   2.646 -1.6848  0.5976 -0.7447
    1SOL    HW2    3   2.496   0.377   2.725 -2.8488 -0.7585 -3.4213
    2SOL     OW    4   2.736   2.984   1.391 -0.2648 -0.3680  0.0446
    2SOL    HW1    5   2.828   2.990   1.340 -1.1420  2.6440  1.2785
    2SOL    HW2    6   2.712   3.074   1.446 -1.6871  0.7574  2.9208
    3SOL     OW    7   2.646   2.560   0.387 -0.1487 -0.1061 -0.1009
    3SOL    HW1    8   2.587   2.476   0.385  1.8664 -2.0739 -0.4797
    3SOL    HW2    9   2.703   2.561   0.474  2.2558  0.1816 -1.1760
    4SOL     OW   10   1.219   1.512   2.412 -0.1837  0.0876  0.0229
    4SOL    HW1   11   1.171   1.485   2.320 -1.1913 -0.3487 -1.3272
    4SOL    HW2   12   1.233   1.428   2.471  1.0384  0.9668  0.4248
    5SOL     OW   13   1.192   1.560   2.911  0.2857  0.0957  0.5215
    5SOL    HW1   14   1.214   1.650   2.955 -2.5084 -1.2550 -0.2383
    5SOL    HW2   15   1.092   1.554   2.882 -0.5216  0.4188  2.3118
    6SOL     OW   16   0.281   1.791   3.014  0.1379 -0.1802 -0.0300
    6SOL    HW1   17   0.178   1.775   3.028  0.0768 -3.2850 -3.2699
    6SOL    HW2   18   0.336   1.737   3.092 -3.3615  0.4954  1.9004
    7SOL     OW   19   2.476   0.905   1.053  0.2273  0.1196 -0.0962
    7SOL    HW1   20   2.383   0.870   1.085 -2.0035 -1.0020 -1.6039
    7SOL    HW2   21   2.510   0.866   0.962  2.8887  1.5632 -0.0539
    8SOL     OW   22   0.328   0.680   1.521  0.1475 -0.3414  0.2583
    8SOL    HW1   23   0.418   0.633   1.506 -1.1124 -1.8809  0.6887
    8SOL    HW2   24   0.322   0.761   1.456  3.0180  1.2157  0.1013
    9SOL     OW   25   1.169   0.829   2.363  0.1768  0.3023 -0.7392
    9SOL    HW1   26   1.245   0.861   2.301 -2.1072 -0.6353  0.8882
    9SOL    HW2   27   1.135   0.733   2.343  0.9781 -1.0439 -1.2826
   10SOL     OW   28   0.715   1.389   1.301  0.3939  0.1871 -0.9204
   10SOL    HW1   29   0.661   1.375   1.215  2.3318  0.1901  0.1096
   10SOL    HW2   30   0.747   1.488   1.312  3.8852  3.5929 -0.9468
   11SOL     OW   31   2.300   2.826   0.845  0.0252  0.0150  0.1560
   11SOL    HW1   32   2.273   2.825   0.948 -0.0236  0.0608  3.6317
   11SOL    HW2   33   2.403   2.809   0.834 -1.9487  0.5526  0.7199
   12SOL     OW   34   1.516   0.913   0.403 -0.0427  0.9778 -0.3548
   12SOL    HW1   35   1.472   0.972   0.328 -0.5118  0.5409 -0.4923
   12SOL    HW2   36   1.561   0.824   0.372  0.3829  1.0920  1.6458
   13SOL     OW   37   2.424   0.690   1.788 -0.3243  0.2588  0.1183
   13SOL    HW1   38   2.333   0.655   1.815  0.5399 -2.2891 -1.3361
   13SOL    HW2   39   2.438   0.665   1.690 -0.2329 -0.5947  2.0581
   14SOL     OW   40   1.957   3.099   0.607  0.4608 -0.2727 -0.6313
   14SOL    HW1   41   1.869   3.153   0.598  1.6303  0.4266 -0.6745
   14SOL    HW2   42   1.970   3.045   0.699 -0.4675 -1.3345 -1.0026
   15SOL     OW   43   1.874   2.062   2.672  0.3348 -0.1517  0.2818
   15SOL    HW1   44   1.801   2.070   2.744 -0.8306 -2.1144 -0.2437
   15SOL    HW2   45   1.851   1.993   2.595 -1.4180  3.1434 -3.5147
   16SOL     OW   46   1.613   1.748   3.015 -0.0053  0.7379  0.1884
   16SOL    HW1   47   1.597   1.651   3.052 -0.1710 -1.1508  1.4014
   16SOL    HW2   48   1.691   1.797   3.061  1.6452 -3.7281  1.1041
   17SOL     OW   49   0.104   0.425   0.177  0.3389  0.2937 -0.2525
   17SOL    HW1   50   0.195   0.455   0.137  0.4919 -0.1707 -1.2086
   17SOL    HW2   51   0.021   0.429   0.117 -1.7511 -1.0008 -0.6141
   18SOL     OW   52   0.903   2.988   2.146 -0.0107 -0.1739 -0.1981
   18SOL    HW1   53   0.883   2.900   2.192  1.2442  1.3188 -1.9705
   18SOL    HW2   54   0.964   2.976   2.066  1.6237 -2.4726 -1.7010
   19SOL     OW   55   0.575   0.857   1.887  0.9681  0.3723  0.1425
   19SOL    HW1   56   0.624   0.823   1.971  1.8928  0.0660  1.2710
   19SOL    HW2   57   0.614   0.947   1.853 -0.4165  0.0686  0.8118
   20SOL     OW   58   0.245   2.840   0.844 -0.3842  0.3831 -0.2918
   20SOL    HW1   59   0.140   2.862   0.850 -3.6242 -1.9609 -0.4898
   20SOL    HW2   60   0.260   2.743   0.816  2.2748  2.6194 -0.6565
   21SOL     OW   61   2.764   0.278   1.972 -0.0341  0.2856  0.4084
   21SOL    HW1   62   2.714   0.203   1.918 -0.9173  0.3046  2.5005
   21SOL    HW2   63   2.856   0.249   2.011  3.1558  0.6924 -0.8554
   22SOL     OW   64   2.368   0.187   0.125  0.0627 -0.1594  0.4296
   22SOL    HW1   65   2.387   0.099   0.076  0.0191  0.3204  1.1272
   22SOL    HW2   66   2.308   0.256   0.081 -1.4891  0.7129 -2.0606
   23SOL     OW   67   2.834   0.539   0.687 -0.3169 -0.7002 -0.1748
   23SOL    HW1   68   2.846   0.447   0.640  2.0373  1.3515 -0.3965
   23SOL    HW2   69   2.825   0.624   0.626  1.9731 -1.8230 -0.0668
   24SOL     OW   70   0.237   1.850   0.442  0.4752 -0.1345 -0.4771
   24SOL    HW1   71   0.207   1.904   0.357 -2.6402 -1.9690  0.8577
   24SOL    HW2   72   0.344   1.854   0.446  3.5583  2.6266 -0.7838
   25SOL     OW   73   2.262   0.619   0.220  0.2351 -0.6484  0.0330
   25SOL    HW1   74   2.272   0.633   0.116  2.5068  2.2786 -0.5040
   25SOL    HW2   75   2.270   0.522   0.255  0.5295 -0.0623 -0.6212
   26SOL     OW   76   2.454   2.137   2.111 -0.3034 -0.0450 -0.8506
   26SOL    HW1   77   2.543   2.175   2.148 -1.4333  1.0903  1.2664
   26SOL    HW2   78   2.471   2.073   2.032  1.8297 -1.2106  0.7608
   27SOL     OW   79   0.581   2.938   0.172 -0.5808 -0.6363 -0.6890
   27SOL    HW1   80   0.675   2.981   0.155 -2.0953  1.6388 -0.4081
   27SOL    HW2   81   0.505   2.954   0.100 -3.7627  0.8867 -1.2155
   28SOL     OW   82   1.632   0.101   0.323  0.1006  0.5501 -0.0091
   28SOL    HW1   83   1.652   0.061   0.229  0.9232 -3.2999  0.8662
   28SOL    HW2   84   1.655   0.204   0.333 -1.0621 -1.1837 -1.7056
   29SOL     OW   85   1.975   0.594   0.278  0.7752  0.4188  0.3290
   29SOL    HW1   86   1.942   0.661   0.352 -0.5997 -0.1646  1.2387
   29SOL    HW2   87   2.068   0.614   0.234  0.8802  0.1783 -2.4974
   30SOL     OW   88   0.200   2.058   0.888  0.2576  0.2374  0.5103
   30SOL    HW1   89   0.196   1.978   0.823 -2.1266  0.6705  0.4830
   30SOL    HW2   90   0.109   2.069   0.937  0.5705 -2.0620 -0.2565
   31SOL     OW   91   2.182   0.080   2.395  0.5307 -0.3098 -0.6845
   31SOL    HW1   92   2.183   0.040   2.491  0.0582 -1.2030 -1.4742
   31SOL    HW2   93   2.098   0.044   2.340  1.3276  1.0708  0.7120
   32SOL     OW   94   2.974   3.052   0.265  0.5069  0.0840 -0.1207
   32SOL    HW1   95   2.939   2.950   0.268 -1.7906 -0.2313 -0.3638
   32SOL    HW2   96   3.060   3.057   0.319 -0.2112 -3.7484 -1.8652
   33SOL     OW   97   0.885   0.206   0.628  0.5845 -0.1697 -0.3414
   33SOL    HW1   98   0.884   0.135   0.551  0.3403  1.2230 -0.3987
   33SOL    HW2   99   0.963   0.269   0.614  0.2370  0.8567  0.5806
   34SOL     OW  100   0.334   2.723   1.088  0.1345 -0.2996 -0.0400
   34SOL    HW1  101   0.272   2.762   1.017 -0.1182 -2.1997 -0.7023
   34SOL    HW2  102   0.430   2.759   1.090 -0.4651 -0.4216 -2.2043
   35SOL     OW  103   3.103   0.104   1.862  0.1607  0.1550  0.0254
   35SOL    HW1  104   3.092   0.005   1.894  2.8267  0.9822  2.0152
   35SOL    HW2  105   3.060   0.114   1.769  1.3854  0.5789 -1.0878
   36SOL     OW  106   1.860   1.194   1.526  1.0949  0.3581 -0.5776
   36SOL    HW1  107   1.931   1.117   1.552  1.9850 -2.4106 -1.7694
   36SOL    HW2  108   1.904   1.258   1.456  4.1693 -1.1283 -0.7704
   37SOL     OW  109   1.139   0.183   0.974 -0.2451  0.3015 -0.2962
   37SOL    HW1  110   1.151   0.288   0.980 -1.6336  2.0937  0.2117
   37SOL    HW2  111   1.211   0.128   0.924 -0.3587  0.2381  3.0746
   38SOL     OW  112   1.167   2.916   2.415  0.5337 -0.0573  0.8790
   38SOL    HW1  113   1.071   2.882   2.453  1.5277  1.1780  0.8307
   38SOL    HW2  114   1.167   2.998   2.353  0.7481 -3.2398 -0.1535
   39SOL     OW  115   2.445   1.401   3.046  0.5766  0.4654 -0.1140
   39SOL    HW1  116   2.536   1.347   3.064  0.5928 -0.1044  1.1602
   39SOL    HW2  117   2.379   1.395   3.125  0.6172 -1.7239  1.3014
   40SOL     OW  118   2.031   2.510   2.609 -0.1051  0.2763  0.0086
   40SOL    HW1  119   1.998   2.607   2.620  2.6404  1.4339  1.7537
   40SOL    HW2  120   1.998   2.454   2.524  0.7925  0.0800  0.4651
   41SOL     OW  121   3.017   0.654   2.830  0.2097  0.5355 -0.0908
   41SOL    HW1  122   2.950   0.730   2.801  1.4031  4.4627  1.0183
   41SOL    HW2  123   3.008   0.576   2.765 -0.0968  0.8251 -3.9187
   42SOL     OW  124   1.778   1.745   0.575  0.7172 -0.3957  0.2032
   42SOL    HW1  125   1.715   1.657   0.578  1.4562 -1.2341 -0.2034
   42SOL    HW2  126   1.802   1.759   0.477  1.6453 -2.8737  1.0974
   43SOL     OW  127   0.505   1.658   1.239 -0.5208  0.5788 -0.6154
   43SOL    HW1  128   0.519   1.567   1.183 -0.6237 -0.9739 -0.8555
   43SOL    HW2  129   0.411   1.671   1.279  2.0850 -0.9096 -0.9700
   44SOL     OW  130   1.663   2.398   2.981 -0.3324 -0.6360 -0.3897
   44SOL    HW1  131   1.576   2.450   2.984  0.7878  0.3662 -0.0392
   44SOL    HW2  132   1.727   2.409   2.902  0.4620 -0.8321  0.4344
   45SOL     OW  133   0.368   1.911   2.551  0.3228  0.2282  0.5251
   45SOL    HW1  134   0.296   1.887   2.482 -1.2849 -1.3880 -0.5171
   45SOL    HW2  135   0.426   1.833   2.581  0.3820  0.4410 -2.1276
   46SOL     OW  136   1.292   0.692   0.264 -0.5630  0.5222  0.6707
   46SOL    HW1  137   1.313   0.749   0.177 -0.7778  0.0960 -1.7652
   46SOL    HW2  138   1.229   0.611   0.243  1.2039  0.8250  1.0380
   47SOL     OW  139   0.181   2.457   1.562 -0.0922  0.0045  0.2761
   47SOL    HW1  140   0.142   2.365   1.572  0.2415 -0.2275 -0.7849
   47SOL    HW2  141   0.186   2.489   1.465  0.4593 -1.0765  0.6400
   48SOL     OW  142   2.669   0.632   0.148  0.5642  0.2579  0.4247
   48SOL    HW1  143   2.651   0.648   0.245  0.7409  1.1611  0.8570
   48SOL    HW2  144   2.763   0.669   0.124  0.4245  0.9148 -1.6565
   49SOL     OW  145   0.335   0.794   1.762 -0.0557  0.3609 -0.6316
   49SOL    HW1  146   0.427   0.795   1.814 -1.3897  0.8108  2.3716
   49SOL    HW2  147   0.343   0.735   1.677 -0.5459  2.0802  0.7376
   50SOL     OW  148   1.735   1.137   0.313  0.3033  0.5388  0.0366
   50SOL    HW1  149   1.755   1.037   0.287  1.6097 -0.4918  0.5817
   50SOL    HW2  150   1.676   1.146   0.401 -0.2619 -0.0825  0.6542
   51SOL     OW  151   3.015   1.746   0.264 -0.5288  0.0026  0.2378
   51SOL    HW1  152   2.956   1.680   0.211 -1.0794 -0.6408 -0.0828
   51SOL    HW2  153   3.070   1.699   0.344  2.6072 -2.6702 -2.2577
   52SOL     OW  154   0.803   2.151   0.650 -0.0182  0.1738 -0.2705
   52SOL    HW1  155   0.707   2.141   0.677  1.0350  1.6596 -0.1928
   52SOL    HW2  156   0.859   2.062   0.656 -0.6822 -1.6889  1.5128
   53SOL     OW  157   0.217   0.440   1.518  0.5255  0.2703 -0.9249
   53SOL    HW1  158   0.285   0.522   1.509  0.7810  0.4183 -3.6187
   53SOL    HW2  159   0.137   0.453   1.456  1.3648  1.3519  1.1578
   54SOL     OW  160   1.782   0.500   3.082 -0.4659  0.2450  0.2704
   54SOL    HW1  161   1.845   0.445   3.145 -1.7913 -1.0074 -1.7087
   54SOL    HW2  162   1.698   0.517   3.135 -1.5251 -0.2903 -0.7692
   55SOL     OW  163   0.733   2.921   0.709 -0.2086  1.1065 -0.7652
   55SOL    HW1  164   0.675   3.004   0.696 -0.5959 -0.5086  0.1293
   55SOL    HW2  165   0.829   2.929   0.674 -0.6503 -0.9389 -0.2059
   56SOL     OW  166   0.585   1.595   3.069 -0.2403 -0.3102  0.0757
   56SOL    HW1  167   0.505   1.630   3.119 -0.5205 -1.7602 -2.5087
   56SOL    HW2  168   0.568   1.498   3.037  1.2371 -1.6445  2.4602
   57SOL     OW  169   1.753   2.502   2.406 -0.6844  0.2202 -0.3640
   57SOL    HW1  170   1.820   2.417   2.408  0.4632 -2.4977  0.4050
   57SOL    HW2  171   1.654   2.474   2.406 -0.8601  1.7837  0.8735
   58SOL     OW  172   0.669   0.249   1.095 -0.2739 -0.2749 -0.5845
   58SOL    HW1  173   0.579   0.247   1.148  0.2742 -0.1145  0.4120
   58SOL    HW2  174   0.722   0.160   1.084 -0.8010  1.4179 -2.2032
   59SOL     OW  175   0.451   2.413   2.728 -0.0841 -0.1719 -0.2900
   59SOL    HW1  176   0.460   2.314   2.690 -0.2531  0.2078  0.2481
   59SOL    HW2  177   0.545   2.460   2.731  5.1457 -1.6247  0.8549
   60SOL     OW  178   2.279   2.115   2.348 -0.2891 -0.2918 -0.0573
   60SOL    HW1  179   2.321   2.130   2.257  1.1843 -0.8351 -0.3211
   60SOL    HW2  180   2.333   2.153   2.425 -0.3886  0.0006 -0.2472
   61SOL     OW  181   1.210   0.646   0.528 -0.5921  0.0190  0.2484
   61SOL    HW1  182   1.134   0.698   0.565  1.8570 -2.5953  2.2952
   61SOL    HW2  183   1.261   0.670   0.440 -0.2952  1.3046 -0.5099
   62SOL     OW  184   2.717   1.706   2.758  0.4505  0.1210 -0.4625
   62SOL    HW1  185   2.646   1.630   2.769 -2.1172 -0.8171  1.9093
   62SOL    HW2  186   2.813   1.677   2.789 -0.5765 -1.3231  1.9169
   63SOL     OW  187   0.539   0.906   0.199 -0.5700 -0.1824 -0.0928
   63SOL    HW1  188   0.593   0.958   0.126  0.2356 -1.1548 -0.3816
   63SOL    HW2  189   0.561   0.931   0.298  0.1307  0.9198 -1.1787
   64SOL     OW  190   3.036   0.571   2.330 -0.1448 -0.0573 -0.5956
   64SOL    HW1  191   2.991   0.625   2.403 -0.5754 -2.0919 -0.9317
   64SOL    HW2  192   3.023   0.591   2.229  0.9380  0.3057  0.2385
   65SOL     OW  193   0.196   1.432   0.715  0.0094 -0.1686  0.4183
   65SOL    HW1  194   0.217   1.505   0.784 -0.6817 -1.1203 -2.8049
   65SOL    HW2  195   0.223   1.454   0.618  1.2072  1.9661  0.2606
   66SOL     OW  196   2.537   0.378   0.526  0.0233 -0.3733  0.1745
   66SOL    HW1  197   2.640   0.390   0.549  0.2011 -3.2588  0.7130
   66SOL    HW2  198   2.490   0.333   0.603  1.0501 -0.6600 -1.5332
   67SOL     OW  199   0.638   2.486   1.470 -0.2324  0.3136  0.3409
   67SOL    HW1  200   0.716   2.431   1.508 -2.7374  0.2743 -1.8213
   67SOL    HW2  201   0.557   2.424   1.448 -1.2705 -0.3117  1.2424
   68SOL     OW  202   0.973   1.014   2.474 -0.5104 -0.4980 -0.7431
   68SOL    HW1  203   1.057   0.960   2.456  1.0670 -1.1064 -3.2253
   68SOL    HW2  204   0.944   1.075   2.394  3.0673  1.4002 -2.5060
   69SOL     OW  205   0.796   2.743   2.277  0.1390 -0.3929  1.0600
   69SOL    HW1  206   0.816   2.667   2.207  1.9976  1.1881 -0.3404
   69SOL    HW2  207   0.695   2.757   2.299  0.1120  2.5143 -0.2682
   70SOL     OW  208   0.434   0.107   2.489 -0.2027 -0.0086  0.0016
   70SOL    HW1  209   0.342   0.065   2.511 -2.0836  0.3688 -1.4633
   70SOL    HW2  210   0.522   0.054   2.503  0.4181  2.6590  0.2032
   71SOL     OW  211   1.095   1.728   0.314 -0.0386  0.0725 -0.1858
   71SOL    HW1  212   1.067   1.649   0.380 -0.8134 -2.8615  1.0184
   71SOL    HW2  213   1.027   1.749   0.243  1.5278 -2.1289 -0.2167
   72SOL     OW  214   1.821   0.210   2.163 -0.0058  0.3338  0.0688
   72SOL    HW1  215   1.864   0.298   2.171 -1.0839 -0.1040  0.5221
   72SOL    HW2  216   1.892   0.136   2.162 -1.3155  2.1017 -1.1151
   73SOL     OW  217   2.782   2.188   2.433 -0.5133  0.2080 -0.1572
   73SOL    HW1  218   2.759   2.094   2.395  0.6287 -0.6781  0.0996
   73SOL    HW2  219   2.799   2.195   2.534 -1.6357  1.8820  0.2043
   74SOL     OW  220   2.721   2.875   2.159  0.4820  0.1797 -0.1533
   74SOL    HW1  221   2.725   2.877   2.262 -0.1367 -0.2112  2.9636
   74SOL    HW2  222   2.793   2.935   2.110 -1.4864 -0.3120 -1.0054
   75SOL     OW  223   0.983   0.878   1.109  0.6738 -0.5283  0.0830
   75SOL    HW1  224   0.879   0.886   1.093  0.7709  0.5118  0.0864
   75SOL    HW2  225   0.999   0.918   1.206  2.1997  0.6821  0.2096
   76SOL     OW  226   1.868   1.276   2.504  0.4729 -0.1033  0.4114
   76SOL    HW1  227   1.766   1.286   2.522  2.5076 -1.8772  1.8265
   76SOL    HW2  228   1.927   1.359   2.494 -0.7039 -1.0005  1.1979
   77SOL     OW  229   2.891   0.941   1.058 -0.2639  0.1782  0.1531
   77SOL    HW1  230   2.869   0.840   1.049 -4.2731  0.1489 -1.9648
   77SOL    HW2  231   2.981   0.952   1.115  0.1368 -0.0011  1.3511
   78SOL     OW  232   2.010   1.333   1.351 -0.2266 -0.2366 -0.6643
   78SOL    HW1  233   2.090   1.309   1.286 -2.2459 -0.4459 -1.3796
   78SOL    HW2  234   1.958   1.421   1.331 -0.6838 -1.7611 -0.3815
   79SOL     OW  235   0.684   1.398   0.802 -0.2843  0.4402  0.7779
   79SOL    HW1  236   0.585   1.366   0.825  1.3106  0.7620 -2.5754
   79SOL    HW2  237   0.733   1.319   0.760 -3.3665  1.8458  1.7791
   80SOL     OW  238   0.572   0.530   1.538 -0.5633  0.3936 -0.0602
   80SOL    HW1  239   0.638   0.581   1.477 -0.6490 -1.2335  1.5313
   80SOL    HW2  240   0.608   0.435   1.549  0.4331  2.0938 -1.3931
   81SOL     OW  241   0.986   1.283   2.610  0.0170 -0.1436 -0.3439
   81SOL    HW1  242   0.941   1.196   2.642  1.7500 -1.0675 -2.1041
   81SOL    HW2  243   0.949   1.320   2.524  0.4876 -0.3620  2.5713
   82SOL     OW  244   0.981   2.871   1.532 -0.8965  0.0165  0.4138
   82SOL    HW1  245   0.904   2.804   1.523  0.5771 -0.2840 -2.0054
   82SOL    HW2  246   1.016   2.894   1.435 -0.6309 -1.1118  0.4159
   83SOL     OW  247   2.551   2.359   0.877 -0.0290 -0.0165  0.3813
   83SOL    HW1  248   2.483   2.311   0.813 -0.5842 -1.6032 -0.5289
   83SOL    HW2  249   2.541   2.458   0.883  0.9536 -3.4803 -0.9645
   84SOL     OW  250   0.747   0.032   2.345 -0.3620 -0.1945  0.0144
   84SOL    HW1  251   0.709  -0.038   2.409  0.3967 -0.3349  1.7070
   84SOL    HW2  252   0.819  -0.010   2.282  0.9956  1.1227  1.9188
   85SOL     OW  253   0.261   1.652   1.427  0.0252  0.2130 -0.0151
   85SOL    HW1  254   0.216   1.735   1.457  2.2521 -0.8731  0.2119
   85SOL    HW2  255   0.345   1.627   1.483  1.5913  1.6782  1.2911
   86SOL     OW  256   0.407   1.025   1.566  0.1211 -0.2088  0.3559
   86SOL    HW1  257   0.400   0.977   1.472 -1.8322  0.5977  0.4084
   86SOL    HW2  258   0.434   0.954   1.642 -3.1043 -1.0708  0.6669
   87SOL     OW  259   1.626   0.667   0.292 -0.4742 -0.7900  0.2007
   87SOL    HW1  260   1.703   0.733   0.261  2.1345 -0.1279  3.8296
   87SOL    HW2  261   1.564   0.626   0.212 -0.9029 -0.6655  2.4085
   88SOL     OW  262   1.606   1.399   0.284 -0.0931  0.1572 -0.1345
   88SOL    HW1  263   1.636   1.301   0.287  1.4643  0.6192 -0.5014
   88SOL    HW2  264   1.505   1.408   0.259 -1.1436 -2.1192 -0.3712
   89SOL     OW  265   0.010   0.330   0.595  0.0048  0.9346 -0.4463
   89SOL    HW1  266   0.071   0.244   0.589 -0.7371  0.9417 -0.0223
   89SOL    HW2  267  -0.090   0.312   0.559 -2.3444 -1.9027 -1.7226
   90SOL     OW  268   0.776   1.589   0.165  0.1077  0.3764 -0.1200
   90SOL    HW1  269   0.855   1.534   0.136 -0.3272  1.2409  1.3365
   90SOL    HW2  270   0.701   1.590   0.092  0.3698 -2.7724 -2.2303
   91SOL     OW  271   1.183   1.471   1.776 -0.1853  0.4545  0.1833
   91SOL    HW1  272   1.222   1.545   1.832 -2.3561  1.0650 -0.6806
   91SOL    HW2  273   1.235   1.383   1.776  0.5427  0.0052  1.5953
   92SOL     OW  274   0.012   0.986   1.205  0.2338 -0.0889 -0.0776
   92SOL    HW1  275   0.078   1.062   1.174  0.6291  1.2513  1.2557
   92SOL    HW2  276   0.003   0.994   1.310 -0.5135  0.5079  0.8286
   93SOL     OW  277   3.043   2.711   0.036 -0.5709  0.0704 -0.2445
   93SOL    HW1  278   3.074   2.729  -0.064  1.3486  0.3543 -0.0846
   93SOL    HW2  279   3.048   2.607   0.060  1.1446  0.3078 -0.1772
   94SOL     OW  280   1.507   1.378   1.733  0.3756 -0.6953 -0.4580
   94SOL    HW1  281   1.587   1.312   1.743 -0.5260 -3.6898 -0.3932
   94SOL    HW2  282   1.537   1.476   1.737  0.6666 -2.9822  1.0725
   95SOL     OW  283   1.387   2.488   2.945  0.0355 -0.2325 -0.0935
   95SOL    HW1  284   1.293   2.509   2.983  0.7620 -0.5627 -1.1883
   95SOL    HW2  285   1.401   2.396   2.902  1.8773 -1.4048 -1.6449
   96SOL     OW  286   0.585   2.103   1.266  0.5242  0.1493  0.6745
   96SOL    HW1  287   0.501   2.073   1.214  2.2713 -0.1863 -1.5045
   96SOL    HW2  288   0.626   2.031   1.325 -1.1220  0.3733 -0.2546
   97SOL     OW  289   0.297   1.641   2.429 -0.1329 -0.2380 -0.0508
   97SOL    HW1  290   0.248   1.721   2.386 -0.8951  1.6067  0.5236
   97SOL    HW2  291   0.253   1.625   2.523  0.6013  0.0967 -1.3011
   98SOL     OW  292   2.217   1.642   1.249  0.5350  0.3186 -0.0511
   98SOL    HW1  293   2.144   1.645   1.176 -0.5658 -0.0453  0.4267
   98SOL    HW2  294   2.303   1.595   1.203 -0.2880 -1.7476 -2.2759
   99SOL     OW  295   2.566   2.146   1.308 -0.0711 -0.1882 -0.4537
   99SOL    HW1  296   2.638   2.167   1.377 -0.1708 -0.3759 -5.0606
   99SOL    HW2  297   2.537   2.045   1.316 -1.5028 -1.5820  0.9514
  100SOL     OW  298   2.312   0.408   2.107 -0.0600 -0.3499  0.3036
  100SOL    HW1  299   2.240   0.371   2.172  0.0887  1.7878 -0.3162
  100SOL    HW2  300   2.407   0.406   2.143 -0.3246  1.7054 -0.2512
  101SOL     OW  301   0.404   1.548   0.527  0.3111  0.0534 -0.0214
  101SOL    HW1  302   0.409   1.644   0.569  0.5466 -0.4015  1.6441
  101SOL    HW2  303   0.492   1.522   0.468 -0.5579  2.3030 -0.4141
  102SOL     OW  304   2.309   1.085   0.871 -0.3384  0.1256  0.0306
  102SOL    HW1  305   2.268   0.995   0.842 -0.5575 -3.4956 -0.0618
  102SOL    HW2  306   2.375   1.121   0.801 -2.0472  0.2415  0.7837
  103SOL     OW  307   2.245   0.066   0.346  0.1980 -0.0577  0.1360
  103SOL    HW1  308   2.302   0.095   0.266 -0.7558 -0.2015 -0.2034
  103SOL    HW2  309   2.305   0.051   0.429 -1.8732  0.0690  1.3322
  104SOL     OW  310   0.029   1.813   2.119  0.2738 -0.7556  0.6438
  104SOL    HW1  311   0.070   1.793   2.029 -2.3978 -0.3751 -0.5777
  104SOL    HW2  312  -0.072   1.841   2.104 -2.8714  0.4107  0.2141
  105SOL     OW  313   1.365   2.095   0.788  0.8569 -0.3074 -0.1820
  105SOL    HW1  314   1.398   2.112   0.694  1.1610 -0.6343  0.8662
  105SOL    HW2  315   1.339   1.997   0.808 -2.7488  0.7851  1.9098
  106SOL     OW  316   2.122   0.383   1.440  0.5547  0.0100  0.1901
  106SOL    HW1  317   2.062   0.297   1.451  2.8408  0.1335 -0.5210
  106SOL    HW2  318   2.138   0.440   1.527 -1.2937 -3.0288  3.3957
  107SOL     OW  319   1.960   2.948   1.187 -0.2512 -0.1629 -0.7008
  107SOL    HW1  320   1.924   3.044   1.199  1.9299 -0.9660  1.0782
  107SOL    HW2  321   1.885   2.875   1.177 -0.0049 -1.4756 -1.3926
  108SOL     OW  322   0.833   2.854   1.189 -0.0144  0.5991  0.5681
  108SOL    HW1  323   0.836   2.762   1.144 -0.4630  1.4001 -2.1678
  108SOL    HW2  324   0.926   2.880   1.229  1.1311 -0.2305  1.5947
  109SOL     OW  325   2.146   0.168   0.712  0.2596  0.0556 -0.0714
  109SOL    HW1  326   2.086   0.095   0.668  0.4167 -0.1292 -0.7914
  109SOL    HW2  327   2.109   0.205   0.802 -1.4272  2.7498 -0.1391
  110SOL     OW  328   0.464   2.781   2.791 -0.0578  0.2137  0.0418
  110SOL    HW1  329   0.445   2.769   2.687  0.3756 -0.2499  2.1823
  110SOL    HW2  330   0.543   2.731   2.826 -3.1543 -1.4092 -0.3901
  111SOL     OW  331   1.275   0.495   2.308 -0.2714  0.0222 -0.0901
  111SOL    HW1  332   1.187   0.536   2.340  2.6879 -1.5512  1.5920
  111SOL    HW2  333   1.320   0.444   2.389 -0.8087 -1.4322 -1.7491
  112SOL     OW  334   1.773   0.387   1.494 -0.0101 -0.1231 -0.7599
  112SOL    HW1  335   1.741   0.404   1.395  0.8087  1.8939  1.2925
  112SOL    HW2  336   1.698   0.381   1.565 -1.2227 -0.4642  2.0111
  113SOL     OW  337   2.380   1.696   1.733 -0.0197  0.3429  0.7181
  113SOL    HW1  338   2.364   1.599   1.707 -0.5229  2.9457  1.2428
  113SOL    HW2  339   2.436   1.706   1.818 -1.4489 -0.6907 -0.6198
  114SOL     OW  340   0.296   0.483   1.213  0.1392 -0.2345  0.7154
  114SOL    HW1  341   0.366   0.532   1.147  0.0735 -0.0024 -1.7904
  114SOL    HW2  342   0.216   0.546   1.234 -1.7220  1.9836  1.2917
  115SOL     OW  343   2.715   1.542   1.203 -0.4861  0.1330 -0.5523
  115SOL    HW1  344   2.714   1.445   1.239 -2.4932  3.5434 -0.1191
  115SOL    HW2  345   2.797   1.559   1.145 -1.1624 -0.6142 -1.3002
  116SOL     OW  346   1.875   0.928   0.735  0.1403 -0.4716  0.5114
  116SOL    HW1  347   1.788   0.868   0.731 -1.1133 -5.5747  0.4044
  116SOL    HW2  348   1.862   1.032   0.734 -0.0042  3.6475  1.9319
  117SOL     OW  349   1.109   0.353   0.565 -0.3444 -0.1436  0.2449
  117SOL    HW1  350   1.107   0.457   0.581 -0.6994 -2.8265  1.2459
  117SOL    HW2  351   1.117   0.320   0.471  1.7515 -1.3479  2.5760
  118SOL     OW  352   1.112   1.210   1.086  0.1884  0.1311 -0.1210
  118SOL    HW1  353   1.005   1.204   1.087 -0.7276 -0.1477 -0.1135
  118SOL    HW2  354   1.152   1.297   1.128  1.8340 -1.0452 -0.5818
  119SOL     OW  355   1.858   1.554   2.222  0.4000 -0.1702  0.0971
  119SOL    HW1  356   1.816   1.612   2.147  0.2961 -1.3801 -1.6068
  119SOL    HW2  357   1.941   1.503   2.192 -1.7212  1.0800  0.6038
  120SOL     OW  358   2.900   2.798   0.249  0.5454 -0.3565 -0.0859
  120SOL    HW1  359   2.955   2.776   0.163 -0.5365 -1.5595 -0.6370
  120SOL    HW2  360   2.808   2.761   0.230  1.1285  1.8611 -0.8445
  121SOL     OW  361   1.934   0.748   2.229  0.5600 -0.0161  0.7493
  121SOL    HW1  362   1.964   0.792   2.143  0.5724 -1.3936  0.6187
  121SOL    HW2  363   1.937   0.643   2.228  2.6612  0.9550 -0.1250
  122SOL     OW  364   2.573   2.503   1.335  0.6697 -0.5079 -0.3963
  122SOL    HW1  365   2.616   2.433   1.264  1.7325 -2.5614  0.8988
  122SOL    HW2  366   2.532   2.452   1.417 -1.6975  1.3322  1.0213
  123SOL     OW  367   1.702   0.166   1.736 -0.6746  0.1582  0.1168
  123SOL    HW1  368   1.701   0.072   1.690 -1.8565  1.8077  2.2819
  123SOL    HW2  369   1.795   0.208   1.736 -6.1764  1.3405 -2.0879
  124SOL     OW  370   3.071   0.446   1.074  0.1351 -0.5915  0.5010
  124SOL    HW1  371   3.009   0.509   1.128 -0.1922 -0.8047 -0.8998
  124SOL    HW2  372   3.086   0.487   0.980  0.4024 -0.7305  0.7576
  125SOL     OW  373   0.871   1.903   0.817 -0.1937 -0.0158  0.6845
  125SOL    HW1  374   0.944   1.836   0.812 -2.1384  2.5995  0.5403
  125SOL    HW2  375   0.898   1.993   0.868 -0.1436  4.4495 -0.6583
  126SOL     OW  376   1.926   2.298   2.441 -1.0046  0.3130  0.6261
  126SOL    HW1  377   1.969   2.266   2.353 -0.0681  1.5379 -0.7893
  126SOL    HW2  378   1.910   2.224   2.515  0.4739 -1.9628  2.1978
  127SOL     OW  379   0.882   0.990   0.224 -0.1059  0.3670  0.4306
  127SOL    HW1  380   0.935   1.015   0.311  0.1483  0.4919  1.3851
  127SOL    HW2  381   0.892   0.886   0.201 -1.0373  0.5096 -0.0541
  128SOL     OW  382   0.951   0.267   1.432  0.6730 -0.3691  0.7575
  128SOL    HW1  383   0.913   0.330   1.360  0.2408 -5.7666 -1.6839
  128SOL    HW2  384   0.896   0.183   1.416 -1.6033  0.5932  1.6345
  129SOL     OW  385   1.860   0.693   1.839 -0.1666  0.0731  0.9373
  129SOL    HW1  386   1.862   0.691   1.730  1.4412  0.3848 -1.2323
  129SOL    HW2  387   1.899   0.782   1.882 -2.7980  0.4834 -1.3154
  130SOL     OW  388   1.373   2.278   0.977 -0.0786  0.8739 -0.6781
  130SOL    HW1  389   1.375   2.206   0.904 -0.7513  0.0933  0.7846
  130SOL    HW2  390   1.451   2.350   0.966  1.7376 -0.0811 -0.2909
  131SOL     OW  391   3.077   1.434   1.361  0.6387 -0.6162 -0.0636
  131SOL    HW1  392   3.060   1.342   1.394  1.7939 -0.4939  0.4404
  131SOL    HW2  393   3.174   1.469   1.362 -1.3012  1.9754 -0.4366
  132SOL     OW  394   2.046   2.364   0.497  0.4918 -0.2358  0.2935
  132SOL    HW1  395   1.953   2.411   0.515 -1.0741 -0.0636  0.5915
  132SOL    HW2  396   2.060   2.285   0.563 -0.6687 -0.3771 -1.9845
  133SOL     OW  397   1.769   2.403   2.726 -0.5575  0.9508  0.3736
  133SOL    HW1  398   1.711   2.394   2.644 -0.5868  1.3399 -0.1225
  133SOL    HW2  399   1.850   2.457   2.700 -2.3556 -0.7206  2.0130
  134SOL     OW  400   2.704   2.392   1.590 -0.2350  0.1458 -0.4016
  134SOL    HW1  401   2.654   2.368   1.681  0.4925  0.8396 -0.4519
  134SOL    HW2  402   2.766   2.476   1.599  0.3044 -1.0379  1.6303
  135SOL     OW  403   0.725   1.430   2.690  0.1875 -0.3933 -0.6730
  135SOL    HW1  404   0.705   1.326   2.703 -0.4120  0.8079 -1.5310
  135SOL    HW2  405   0.766   1.444   2.595 -0.1824  2.3545  0.4552
  136SOL     OW  406   1.178   2.036   0.395  0.0978  0.0703 -0.4228
  136SOL    HW1  407   1.139   2.128   0.420 -2.2280 -0.4120  2.3422
  136SOL    HW2  408   1.107   1.967   0.374  2.0564  0.4267  0.6039
  137SOL     OW  409   0.405   1.224   2.243 -0.3000 -0.0482 -0.0288
  137SOL    HW1  410   0.324   1.238   2.309  0.5326 -0.5249  0.9745
  137SOL    HW2  411   0.444   1.124   2.245  3.5126 -2.3041  0.2096
  138SOL     OW  412   2.448   1.530   0.270  0.0657 -0.1430 -0.3866
  138SOL    HW1  413   2.360   1.529   0.218 -1.4390  2.2425  1.2145
  138SOL    HW2  414   2.480   1.435   0.296  0.4320  0.8267 -0.9211
  139SOL     OW  415   1.861   2.653   1.575 -0.4633  0.5234  0.6200
  139SOL    HW1  416   1.758   2.676   1.560 -1.3347  1.1465 -1.8721
  139SOL    HW2  417   1.891   2.566   1.526 -1.9524 -0.7826  1.0264
  140SOL     OW  418   2.987   2.956   2.621 -0.4635  0.4879 -0.4284
  140SOL    HW1  419   3.035   2.870   2.578 -1.4421 -3.5862  0.5325
  140SOL    HW2  420   3.040   3.044   2.598  1.7062  0.3518  1.0464
  141SOL     OW  421   1.293   1.626   1.543 -0.4218  0.0390 -0.1104
  141SOL    HW1  422   1.215   1.699   1.554 -2.0649 -0.1295  2.2297
  141SOL    HW2  423   1.284   1.544   1.605  2.0543 -1.0363  0.2134
  142SOL     OW  424   1.494   0.649   2.222  0.1057  0.1790 -0.6708
  142SOL    HW1  425   1.485   0.663   2.119 -2.6652  2.0909 -0.0020
  142SOL    HW2  426   1.406   0.617   2.266  3.0815  1.4628  1.4681
  143SOL     OW  427   2.769   0.795   0.548 -0.1284  0.7515  0.4699
  143SOL    HW1  428   2.816   0.829   0.459  1.5383 -1.1800 -1.2865
  143SOL    HW2  429   2.775   0.864   0.629  2.2685 -1.9615 -1.9241
  144SOL     OW  430   2.927   1.177   1.441  0.0531  0.2444 -0.0915
  144SOL    HW1  431   2.880   1.162   1.532 -0.4149 -1.5879  0.2130
  144SOL    HW2  432   3.009   1.116   1.433  0.8416 -0.8499  2.5858
  145SOL     OW  433   0.881   1.853   0.102 -0.5997 -0.4803  0.1599
  145SOL    HW1  434   0.846   1.911   0.022 -0.5589 -0.8042 -1.5969
  145SOL    HW2  435   0.835   1.760   0.111  0.4977  0.9798 -2.2495
  146SOL     OW  436   2.454   0.678   1.514 -0.0070  0.6572  0.2847
  146SOL    HW1  437   2.450   0.605   1.442 -0.9865  0.2735  1.6155
  146SOL    HW2  438   2.410   0.769   1.478 -0.7033  0.5036 -2.5068
  147SOL     OW  439   1.109   2.511   0.610 -0.4262 -0.2241  0.1969
  147SOL    HW1  440   1.066   2.568   0.536 -0.1968 -0.2456 -0.9423
  147SOL    HW2  441   1.192   2.459   0.575  1.1873  0.4149 -0.2329
  148SOL     OW  442   1.607   1.470   3.072  0.4207 -0.0527 -0.1436
  148SOL    HW1  443   1.569   1.383   3.031  2.2805  2.1196 -0.6267
  148SOL    HW2  444   1.585   1.483   3.171  2.9168  0.4468 -1.5538
  149SOL     OW  445   0.667   1.520   1.955 -0.3691 -0.0385  0.2840
  149SOL    HW1  446   0.572   1.490   1.978  1.4569 -2.1305 -1.3048
  149SOL    HW2  447   0.705   1.459   1.882  0.1859 -0.5752  1.0276
  150SOL     OW  448   3.029   1.167   0.976  0.1909  0.2657 -0.3229
  150SOL    HW1  449   3.109   1.170   1.040  0.5510 -3.1215 -2.8280
  150SOL    HW2  450   2.963   1.084   0.997  1.0681  1.7555 -1.5406
  151SOL     OW  451   0.268   0.812   2.088 -0.1406  0.6596  0.9901
  151SOL    HW1  452   0.307   0.904   2.057  0.5331  2.7443  2.2096
  151SOL    HW2  453   0.292   0.737   2.017  0.9040  2.4431  0.5609
  152SOL     OW  454   1.442   1.841   1.120  0.7756  0.0046 -0.4540
  152SOL    HW1  455   1.486   1.939   1.115 -1.6985 -1.1163  1.2990
  152SOL    HW2  456   1.340   1.847   1.094  0.8184 -2.5220 -0.6885
  153SOL     OW  457   0.144   1.516   0.213 -0.1735  0.6637 -0.1382
  153SOL    HW1  458   0.121   1.417   0.216  2.4046 -1.9592  1.7091
  153SOL    HW2  459   0.121   1.559   0.303  0.6654  0.5905  0.0896
  154SOL     OW  460   2.264   1.809   2.771 -0.1133 -0.7834 -0.0459
  154SOL    HW1  461   2.285   1.712   2.804  3.4124 -0.5166 -0.5464
  154SOL    HW2  462   2.345   1.854   2.723 -2.6764 -1.5011  1.1258
  155SOL     OW  463   2.458   1.260   0.346 -0.4820  0.3501  0.4407
  155SOL    HW1  464   2.560   1.238   0.355  1.6908  3.1328  0.3646
  155SOL    HW2  465   2.398   1.177   0.360  0.9636  0.9428 -1.1457
  156SOL     OW  466   2.426   0.834   0.699 -0.6333  0.1788 -0.2933
  156SOL    HW1  467   2.325   0.815   0.705  0.1564 -0.1943  2.2695
  156SOL    HW2  468   2.453   0.911   0.633  0.9826  0.7703 -1.2310
  157SOL     OW  469   1.205   2.980   3.003 -0.4840  0.1062 -0.0004
  157SOL    HW1  470   1.256   2.936   2.924  0.1995 -0.5694 -2.8084
  157SOL    HW2  471   1.245   3.076   3.033  2.2537 -0.0320 -1.7092
  158SOL     OW  472   1.070   1.858   1.839  0.0015  0.1557  0.1457
  158SOL    HW1  473   1.087   1.949   1.799 -0.8533 -0.8575 -0.8935
  158SOL    HW2  474   0.984   1.861   1.901 -0.6824 -2.1644 -0.8435
  159SOL     OW  475   0.855   0.426   1.229 -0.0009 -0.1104 -0.1317
  159SOL    HW1  476   0.809   0.505   1.274 -4.1966 -1.9853  1.1240
  159SOL    HW2  477   0.805   0.399   1.143  2.7896 -0.0657  1.3143
  160SOL     OW  478   1.452   2.451   1.466 -0.1506  0.5989 -0.6833
  160SOL    HW1  479   1.375   2.391   1.493  2.3136 -1.4148  1.9510
  160SOL    HW2  480   1.537   2.393   1.453 -0.1111 -1.5117 -1.6303
  161SOL     OW  481   3.037   2.644   0.441  0.0411  0.2484 -0.6418
  161SOL    HW1  482   2.995   2.549   0.452  3.8793  1.7016  0.3440
  161SOL    HW2  483   2.994   2.714   0.377 -0.9139  2.1311  2.0665
  162SOL     OW  484   2.585   1.863   0.467 -0.3488  0.0589 -0.1549
  162SOL    HW1  485   2.583   1.852   0.364 -3.0452  2.2056 -0.0452
  162SOL    HW2  486   2.556   1.773   0.509  0.2664  2.0918  4.0150
  163SOL     OW  487   1.957   2.706   0.752  0.1598  0.1704  0.3616
  163SOL    HW1  488   1.941   2.694   0.646 -2.2065  1.9523  1.3989
  163SOL    HW2  489   2.026   2.638   0.796  0.0305 -3.4706 -0.6338
  164SOL     OW  490   3.069   0.219   1.198  0.9671 -0.0659  0.1970
  164SOL    HW1  491   3.063   0.316   1.157 -1.6477 -2.9646 -0.8035
  164SOL    HW2  492   3.137   0.217   1.274 -1.6588 -0.3019 -2.7660
  165SOL     OW  493   1.116   1.403   0.674  0.3868 -0.3471  0.0540
  165SOL    HW1  494   1.110   1.454   0.764  1.2175  1.2620 -1.2459
  165SOL    HW2  495   1.045   1.450   0.609  0.2841  3.0141  1.2835
  166SOL     OW  496   1.503   1.003   1.792 -0.0171 -0.1874  0.2228
  166SOL    HW1  497   1.434   1.034   1.865  0.4902  0.4381 -1.1792
  166SOL    HW2  498   1.571   1.079   1.767 -1.8753  0.9245  2.1405
  167SOL     OW  499   0.713   1.963   1.462 -1.2415  0.2969  0.0068
  167SOL    HW1  500   0.721   2.045   1.525 -3.5383 -0.3760 -0.2678
  167SOL    HW2  501   0.661   1.891   1.511  0.3572  0.2848  1.2927
  168SOL     OW  502   1.547   2.333   0.149 -0.1675 -0.2666 -0.0674
  168SOL    HW1  503   1.617   2.347   0.071 -1.8925 -0.1895 -2.7183
  168SOL    HW2  504   1.597   2.317   0.237  1.4669  1.1483 -1.2182
  169SOL     OW  505   0.067   2.551   2.186 -0.5368 -0.0970  0.0005
  169SOL    HW1  506   0.109   2.516   2.101  1.3273 -1.8678  2.1870
  169SOL    HW2  507   0.125   2.531   2.274  0.9058  0.7008  0.1155
  170SOL     OW  508   1.165   0.186   2.045  0.5750 -0.4952 -0.0065
  170SOL    HW1  509   1.254   0.214   2.086 -2.2749 -4.0417  1.0032
  170SOL    HW2  510   1.181   0.141   1.949  1.7742 -0.2552 -0.5997
  171SOL     OW  511   0.236   0.863   2.342  0.8799  0.2033 -0.4627
  171SOL    HW1  512   0.140   0.862   2.375  0.1407 -0.2889 -0.9690
  171SOL    HW2  513   0.239   0.829   2.241 -2.0314 -1.6040  1.1988
  172SOL     OW  514   0.963   1.046   2.856 -0.0710  0.2827 -0.0509
  172SOL    HW1  515   0.928   1.116   2.922 -0.6038  1.4603  1.0952
  172SOL    HW2  516   0.895   1.010   2.787 -0.0009  0.0457 -0.7202
  173SOL     OW  517   0.486   2.471   0.089  0.0090  0.5363 -0.0833
  173SOL    HW1  518   0.484   2.445  -0.011 -0.2549  2.0361 -1.2401
  173SOL    HW2  519   0.419   2.437   0.160 -1.1976 -0.6942  0.5617
  174SOL     OW  520   1.531   2.860   1.090 -0.3828  0.1173  0.0123
  174SOL    HW1  521   1.596   2.916   1.035 -1.2456 -3.5610 -1.4636
  174SOL    HW2  522   1.486   2.783   1.033 -0.1381 -2.9535  0.4815
  175SOL     OW  523   0.400   3.061   1.731 -0.0570  0.0727  0.0041
  175SOL    HW1  524   0.494   3.043   1.767 -1.6580  2.3883 -0.9386
  175SOL    HW2  525   0.383   3.147   1.681 -0.6139 -0.5208  1.6734
  176SOL     OW  526   2.639   0.374   0.024  0.0139  0.2754  0.0349
  176SOL    HW1  527   2.647   0.462   0.077 -1.9826 -1.3414  0.9807
  176SOL    HW2  528   2.626   0.294   0.090  2.8044  0.4967  0.9884
  177SOL     OW  529   0.371   0.314   0.970  0.5437 -0.0173 -0.5335
  177SOL    HW1  530   0.342   0.223   0.936  2.5279  0.9379  0.3660
  177SOL    HW2  531   0.343   0.342   1.065 -0.0805 -2.4958 -0.6783
  178SOL     OW  532   0.020   2.727   2.552  0.2941 -0.2280  0.2084
  178SOL    HW1  533   0.002   2.626   2.560  2.6753  0.6975 -1.2997
  178SOL    HW2  534   0.092   2.758   2.619 -0.1332 -1.6693 -0.0093
  179SOL     OW  535   2.979   1.535   1.123 -0.2995  0.4139  0.4894
  179SOL    HW1  536   3.064   1.548   1.061  0.0817 -0.2827  0.9820
  179SOL    HW2  537   3.001   1.512   1.219 -0.7370 -2.0404 -3.7707
  180SOL     OW  538   0.196   1.371   1.794  0.2544  0.0871  0.1175
  180SOL    HW1  539   0.281   1.311   1.783  0.4731 -0.9255  1.3346
  180SOL    HW2  540   0.171   1.384   1.899 -0.4757 -0.2135  0.2463
  181SOL     OW  541   2.972   1.903   2.543 -0.4234 -0.4610  0.0003
  181SOL    HW1  542   3.020   1.990   2.507  1.3149  1.0465 -0.8882
  181SOL    HW2  543   2.891   1.893   2.483  0.5981  0.7162  0.6345
  182SOL     OW  544   2.305   1.316   1.251 -0.4469  0.9851 -0.4282
  182SOL    HW1  545   2.248   1.261   1.178 -0.8265  3.4341  1.6391
  182SOL    HW2  546   2.356   1.394   1.208 -0.2839  0.9435  1.7217
  183SOL     OW  547   1.400   2.308   2.467  0.0858 -0.5431  0.0709
  183SOL    HW1  548   1.327   2.246   2.500  1.6658 -2.2831 -1.5910
  183SOL    HW2  549   1.477   2.253   2.426  1.5918  0.7457  0.7138
  184SOL     OW  550   2.141   0.812   0.756 -0.3021 -0.4526 -0.1291
  184SOL    HW1  551   2.057   0.858   0.795 -2.1550  3.1505  0.1976
  184SOL    HW2  552   2.114   0.723   0.713 -0.6159 -1.1831 -0.4617
  185SOL     OW  553   1.551   2.766   2.040  0.7377  1.0841 -0.3966
  185SOL    HW1  554   1.482   2.844   2.051  0.9971  0.3173  1.3923
  185SOL    HW2  555   1.625   2.766   2.113  1.1263  1.0233 -2.7557
  186SOL     OW  556   0.066   2.214   1.664  0.2930 -0.0211  0.2584
  186SOL    HW1  557   0.057   2.272   1.751 -0.1410  3.2930  1.7075
  186SOL    HW2  558   0.158   2.173   1.656  2.1649 -0.7908  3.0699
  187SOL     OW  559   1.340   0.642   1.664 -0.2644  0.2191 -0.6057
  187SOL    HW1  560   1.441   0.678   1.639  1.7841  1.1022 -0.6370
  187SOL    HW2  561   1.338   0.566   1.734  0.0888 -0.1484  1.0940
  188SOL     OW  562   2.748   2.711   1.437 -0.3308  0.3843  0.3577
  188SOL    HW1  563   2.724   2.812   1.461 -0.5606  0.3951  2.6556
  188SOL    HW2  564   2.672   2.655   1.394  1.0254 -0.8721  0.7737
  189SOL     OW  565   0.910   1.202   1.368  0.1376 -0.0310 -0.1629
  189SOL    HW1  566   0.970   1.237   1.448  2.0956  0.5767 -1.9156
  189SOL    HW2  567   0.861   1.277   1.318 -0.0763  0.8597  2.0035
  190SOL     OW  568   1.456   1.899   1.526  0.0741  0.0720 -0.1292
  190SOL    HW1  569   1.406   1.809   1.502  1.0778 -0.4314  0.4849
  190SOL    HW2  570   1.502   1.900   1.621  1.0024 -1.8310 -0.8441
  191SOL     OW  571   0.883   0.817   1.511 -0.5566 -0.0647  0.2407
  191SOL    HW1  572   0.935   0.780   1.591 -0.9822  1.3233 -1.0294
  191SOL    HW2  573   0.955   0.846   1.439 -0.7422 -1.1036  1.5873
  192SOL     OW  574   1.837   2.475   1.100 -0.5299 -0.2224  0.0997
  192SOL    HW1  575   1.748   2.448   1.054  4.3694 -1.5559 -0.6969
  192SOL    HW2  576   1.917   2.417   1.066  0.1016  0.0159 -0.5071
  193SOL     OW  577   0.556   0.570   0.481  0.1737  0.2107 -0.1943
  193SOL    HW1  578   0.513   0.473   0.484  2.0216  1.7137  0.6600
  193SOL    HW2  579   0.568   0.597   0.387  1.1615 -1.2253  0.1766
  194SOL     OW  580   0.355   0.891   1.319  0.1619 -0.4361 -0.1305
  194SOL    HW1  581   0.294   0.832   1.255 -2.5486  1.6364 -2.7278
  194SOL    HW2  582   0.408   0.954   1.261 -0.9263 -2.9146  0.2422
  195SOL     OW  583   0.984   2.890   0.526  0.0541  0.1675  0.2519
  195SOL    HW1  584   0.967   2.797   0.480 -1.2707  0.3367  0.1036
  195SOL    HW2  585   1.081   2.922   0.531 -0.1044  1.1955  0.7778
  196SOL     OW  586   0.275   1.389   1.334  0.1942  0.6088  0.0793
  196SOL    HW1  587   0.291   1.483   1.375  0.0356 -2.1374  1.9605
  196SOL    HW2  588   0.259   1.314   1.405 -0.7243  1.0258 -1.4339
  197SOL     OW  589   0.851   2.015   0.311  0.1207  0.1017 -0.0137
  197SOL    HW1  590   0.844   1.969   0.402 -0.3962  4.4317 -0.0871
  197SOL    HW2  591   0.871   1.954   0.229 -1.6846 -0.9170 -0.3608
  198SOL     OW  592   0.300   1.255   0.345  0.1025  0.2564 -0.1105
  198SOL    HW1  593   0.200   1.232   0.340  0.7000 -3.2882 -0.4192
  198SOL    HW2  594   0.332   1.346   0.380  2.0884  0.1595 -1.2819
  199SOL     OW  595   2.226   0.466   2.583 -0.6085  0.3517  0.1427
  199SOL    HW1  596   2.150   0.406   2.627 -1.6235 -3.0103  0.4460
  199SOL    HW2  597   2.321   0.430   2.602 -1.6335  0.7520  1.5178
  200SOL     OW  598   3.078   2.982   0.822  0.0100 -0.6288  0.0137
  200SOL    HW1  599   3.089   3.080   0.851 -2.7039 -0.0832  0.1718
  200SOL    HW2  600   3.017   2.980   0.741 -1.5376 -0.6778  0.2129
  201SOL     OW  601   0.926   0.722   0.514  0.0919 -0.5121  0.4947
  201SOL    HW1  602   0.901   0.805   0.563  0.1246  0.2165 -0.1916
  201SOL    HW2  603   0.892   0.632   0.553  1.3758 -0.3154  0.5479
  202SOL     OW  604   0.437   1.251   1.823 -0.0283 -0.1404 -0.0557
  202SOL    HW1  605   0.511   1.214   1.764  0.3964  2.6466  1.1953
  202SOL    HW2  606   0.468   1.293   1.913  3.0806 -0.5929 -0.3785
  203SOL     OW  607   0.652   0.219   1.558  0.5809  0.4206  0.3980
  203SOL    HW1  608   0.704   0.156   1.496 -1.6615  1.2979 -1.7455
  203SOL    HW2  609   0.699   0.238   1.644  1.9005  0.1700 -0.8913
  204SOL     OW  610   2.066   1.795   2.970 -0.2620  0.2006 -0.0548
  204SOL    HW1  611   2.067   1.697   2.994 -2.5640  0.0041 -0.0833
  204SOL    HW2  612   2.103   1.817   2.875  1.9346 -1.0263 -3.5073
  205SOL     OW  613   1.845   1.873   3.088 -0.1504  0.1097 -0.4231
  205SOL    HW1  614   1.930   1.840   3.045 -1.7226 -1.8164 -0.0051
  205SOL    HW2  615   1.808   1.956   3.043 -1.8207 -1.8317 -0.4623
  206SOL     OW  616   2.417   2.762   0.315 -0.0442 -0.4284 -0.9152
  206SOL    HW1  617   2.407   2.696   0.397  3.0879 -1.2373 -0.9065
  206SOL    HW2  618   2.500   2.748   0.256 -1.1439  0.4381  2.4421
  207SOL     OW  619   0.722   1.765   2.846  0.1933  0.4571 -0.4067
  207SOL    HW1  620   0.814   1.731   2.805  1.5418 -0.4805 -1.3124
  207SOL    HW2  621   0.680   1.696   2.914 -2.4429 -2.7690 -0.9018
  208SOL     OW  622   1.030   1.624   1.233 -0.2185 -0.7390 -0.0692
  208SOL    HW1  623   1.027   1.703   1.165 -3.1499 -1.4686 -1.2403
  208SOL    HW2  624   0.975   1.645   1.320 -0.9046 -0.6010 -0.5953
  209SOL     OW  625   0.244   0.984   3.084  0.2123 -0.2982  0.2385
  209SOL    HW1  626   0.236   0.906   3.011  0.1853 -1.2460 -1.7525
  209SOL    HW2  627   0.222   0.955   3.183  2.6084  0.3576  0.1571
  210SOL     OW  628   1.719   0.483   1.245  0.0907  0.0360  0.3598
  210SOL    HW1  629   1.655   0.556   1.204 -1.1342  1.5830 -1.4755
  210SOL    HW2  630   1.816   0.484   1.216 -2.1964 -0.1765 -0.5369
  211SOL     OW  631   2.057   1.009   1.578  0.3569 -0.1923  0.5053
  211SOL    HW1  632   2.093   0.967   1.665  2.5470  1.2073 -1.9475
  211SOL    HW2  633   2.141   1.060   1.529  0.2254  2.2243  1.3438
  212SOL     OW  634   0.021   0.981   1.479 -0.2260  0.3440  0.0824
  212SOL    HW1  635   0.066   1.068   1.519  1.2272  1.6468  1.8226
  212SOL    HW2  636   0.023   0.904   1.548 -0.4068 -1.2041 -0.1551
  213SOL     OW  637   2.772   0.202   0.255  0.8063  0.3156  0.5403
  213SOL    HW1  638   2.845   0.146   0.215 -0.2847 -1.5703  0.8753
  213SOL    HW2  639   2.684   0.147   0.253  2.0247 -2.1969 -0.3125
  214SOL     OW  640   2.156   0.342   2.337  0.1460 -0.1094 -0.4632
  214SOL    HW1  641   2.166   0.405   2.425  1.5754 -0.4735  0.3042
  214SOL    HW2  642   2.168   0.241   2.358 -1.4302  1.0993  0.5525
  215SOL     OW  643   1.655   2.256   2.082  0.4650 -0.3617 -0.4089
  215SOL    HW1  644   1.757   2.264   2.087 -0.7581 -1.1202 -0.9813
  215SOL    HW2  645   1.601   2.344   2.105 -0.0194 -0.5156  0.1693
  216SOL     OW  646   2.145   0.574   0.636  0.2491 -0.2884  0.6463
  216SOL    HW1  647   2.095   0.486   0.607 -0.6993 -3.1700  2.7208
  216SOL    HW2  648   2.201   0.609   0.567  0.3213 -1.7936  0.7963
  217SOL     OW  649   0.930   2.815   2.557 -0.3089 -0.6892 -0.2819
  217SOL    HW1  650   0.891   2.760   2.637 -0.4752 -0.9970 -1.5242
  217SOL    HW2  651   0.900   2.780   2.466 -2.1928 -2.2726  0.8256
  218SOL     OW  652   1.887   1.468   0.012 -0.3229  0.1658 -0.3551
  218SOL    HW1  653   1.785   1.476  -0.006  0.0804 -0.9304  1.6462
  218SOL    HW2  654   1.915   1.377   0.057  1.0366 -1.0498  1.7688
  219SOL     OW  655   2.461   1.263   2.515  0.0206 -0.3712 -0.2003
  219SOL    HW1  656   2.480   1.207   2.427 -0.4928  1.0621  0.7557
  219SOL    HW2  657   2.470   1.209   2.601 -1.7474  0.2655 -2.8072
  220SOL     OW  658   1.429   1.004   1.394 -0.2784 -0.2391 -0.0529
  220SOL    HW1  659   1.532   0.993   1.403  0.6963  0.3368 -0.4635
  220SOL    HW2  660   1.408   1.020   1.293  0.1968  3.6536 -0.2103
  221SOL     OW  661   1.354   0.957   2.237  0.3537  0.6008  0.1568
  221SOL    HW1  662   1.336   0.960   2.137 -1.3789  0.1894 -2.7264
  221SOL    HW2  663   1.440   1.013   2.266  0.4882  0.2815  0.9202
  222SOL     OW  664   1.112   0.098   1.233  0.3724 -0.5302  0.2459
  222SOL    HW1  665   1.115   0.164   1.308  0.7570  0.6449 -1.8443
  222SOL    HW2  666   1.115   0.145   1.139 -1.3247 -1.7451  0.2205
  223SOL     OW  667   2.704   0.918   2.089 -0.1734  0.3148  0.1173
  223SOL    HW1  668   2.656   1.006   2.067  0.6071 -0.1686 -1.3950
  223SOL    HW2  669   2.806   0.928   2.105 -2.1364 -0.9521  1.4526
  224SOL     OW  670   1.571   1.064   2.746  0.9276 -0.6112  0.3342
  224SOL    HW1  671   1.600   0.981   2.693 -1.7492  1.8233  0.3147
  224SOL    HW2  672   1.573   1.150   2.677  0.8085  0.4448 -1.6314
  225SOL     OW  673   2.959   2.696   2.852 -0.0599 -0.3468  0.7943
  225SOL    HW1  674   2.872   2.673   2.812  2.1018  0.0852  0.3477
  225SOL    HW2  675   2.983   2.794   2.841 -0.3471 -1.9546 -0.0397
  226SOL     OW  676   2.351   1.532   2.822 -0.0405 -0.8104  0.0725
  226SOL    HW1  677   2.400   1.534   2.733 -0.8029 -1.7974  2.0730
  226SOL    HW2  678   2.378   1.455   2.886  2.5580  1.9358 -2.8236
  227SOL     OW  679   0.845   0.264   3.073 -0.1544 -0.1684 -0.2520
  227SOL    HW1  680   0.899   0.348   3.043 -0.4325  2.3896 -0.9513
  227SOL    HW2  681   0.798   0.219   2.992 -2.3687  0.3144 -0.5553
  228SOL     OW  682   2.409   0.616   2.832  0.4606  0.5856 -0.2884
  228SOL    HW1  683   2.403   0.696   2.767  1.1969 -0.5314  2.1136
  228SOL    HW2  684   2.506   0.570   2.849  0.8368 -0.7960  0.3016
  229SOL     OW  685   0.506   0.482   1.794 -0.2892  0.1730  0.0236
  229SOL    HW1  686   0.546   0.388   1.829  0.4325  0.9085  0.4343
  229SOL    HW2  687   0.549   0.519   1.710 -2.3711 -0.6274 -1.8502
  230SOL     OW  688   1.878   1.236   2.018  0.1115  0.1017 -0.4739
  230SOL    HW1  689   1.946   1.308   1.985  0.2849  1.1599 -1.1776
  230SOL    HW2  690   1.804   1.278   2.076  1.3477 -2.6668  0.9407
  231SOL     OW  691   0.650   1.069   3.088  0.0721 -0.0979 -0.3100
  231SOL    HW1  692   0.742   1.111   3.090 -2.0262 -3.4941  0.9173
  231SOL    HW2  693   0.571   1.128   3.126 -4.8270  1.5451  2.4975
  232SOL     OW  694   2.408   3.008   2.862  0.0572 -0.0513 -0.1088
  232SOL    HW1  695   2.489   2.944   2.872  0.0893 -1.0733 -2.6329
  232SOL    HW2  696   2.414   3.079   2.785  0.7747  1.6030 -1.2353
  233SOL     OW  697   1.737   1.227   1.175 -0.2855 -0.3584 -0.4909
  233SOL    HW1  698   1.828   1.251   1.128 -2.0675 -1.0848 -1.7123
  233SOL    HW2  699   1.725   1.126   1.189 -2.3662  1.7203 -1.0518
  234SOL     OW  700   1.656   2.573   1.824 -0.1160 -0.4114 -0.3341
  234SOL    HW1  701   1.625   2.612   1.916 -0.4630  3.0019  0.8888
  234SOL    HW2  702   1.592   2.493   1.789  1.7161 -1.7346  0.1491
  235SOL     OW  703   3.096   2.935   2.887 -0.3561 -0.1608  0.6213
  235SOL    HW1  704   3.050   2.966   2.801  0.3864 -0.0811  0.7908
  235SOL    HW2  705   3.067   2.989   2.973 -1.0997  3.6771  1.9797
  236SOL     OW  706   2.935   0.647   0.078 -0.3685  0.3829 -0.3892
  236SOL    HW1  707   2.998   0.685   0.148 -2.6880 -2.1797 -0.0914
  236SOL    HW2  708   2.975   0.568   0.026 -1.7052 -0.5574 -2.2667
  237SOL     OW  709   1.434   1.627   0.919 -0.8725 -0.1132 -0.3627
  237SOL    HW1  710   1.533   1.591   0.925 -0.5244 -0.4519  0.6765
  237SOL    HW2  711   1.414   1.696   0.990 -1.1304 -0.7215 -0.5427
  238SOL     OW  712   1.892   1.192   0.781 -0.2159  0.1390  0.5452
  238SOL    HW1  713   1.902   1.235   0.872 -0.7569  0.6573  0.9531
  238SOL    HW2  714   1.802   1.221   0.743  3.0212 -3.6629  0.8394
  239SOL     OW  715   2.060   0.263   2.740  0.0956 -0.1946 -0.4603
  239SOL    HW1  716   2.084   0.197   2.813 -0.4193  0.0805 -1.0654
  239SOL    HW2  717   1.996   0.337   2.782  2.6757 -0.2952  1.5379
  240SOL     OW  718   0.918   0.693   0.236 -0.2410 -0.1844 -0.3269
  240SOL    HW1  719   0.977   0.620   0.202  0.0563  1.9290  0.0779
  240SOL    HW2  720   0.932   0.703   0.335 -1.2094  0.6754 -0.9763
  241SOL     OW  721   0.578   0.109   0.390 -0.3430  0.4431  0.0324
  241SOL    HW1  722   0.670   0.148   0.364 -1.0966 -0.8725  0.6518
  241SOL    HW2  723   0.532   0.053   0.310  0.1757  1.0267  0.7900
  242SOL     OW  724   0.628   2.552   1.173  0.2374 -0.0354 -0.5531
  242SOL    HW1  725   0.649   2.527   1.272 -1.0125  0.7067  0.6567
  242SOL    HW2  726   0.602   2.648   1.157  0.2179 -0.3696  1.4744
  243SOL     OW  727   1.047   0.594   2.397  0.1272  0.4146  0.1052
  243SOL    HW1  728   0.956   0.618   2.348 -1.4503  0.6764 -2.1997
  243SOL    HW2  729   1.025   0.575   2.495  1.4216  1.5559 -0.2982
  244SOL     OW  730   2.763   1.904   2.357  0.2391  0.2127 -0.0254
  244SOL    HW1  731   2.812   1.869   2.273 -0.0116  3.2707  0.3571
  244SOL    HW2  732   2.670   1.855   2.374  0.0906 -0.9398 -2.3458
  245SOL     OW  733   2.179   0.929   2.150 -0.0709  0.2328 -0.4253
  245SOL    HW1  734   2.274   0.906   2.187  1.9572  0.1037 -1.8081
  245SOL    HW2  735   2.129   1.006   2.198  0.7654  1.7819  0.2775
  246SOL     OW  736   0.243   2.843   1.770 -0.0402 -0.6317  0.5648
  246SOL    HW1  737   0.166   2.830   1.699  1.9236 -2.7375  1.4482
  246SOL    HW2  738   0.312   2.923   1.752  0.8344  1.7359  1.4349
  247SOL     OW  739   2.236   0.623   3.034 -0.3513 -0.0582  0.0139
  247SOL    HW1  740   2.300   0.596   2.954  1.8854 -1.7256 -0.5242
  247SOL    HW2  741   2.165   0.702   3.015 -0.6210  0.2314  0.4965
  248SOL     OW  742   2.197   1.849   1.623 -0.3746 -0.1606  0.3723
  248SOL    HW1  743   2.284   1.800   1.661  3.1525 -1.5845  1.9519
  248SOL    HW2  744   2.108   1.793   1.624  0.6422  1.6273 -0.6651
  249SOL     OW  745   1.932   1.883   1.828 -0.5044  0.2015  0.2109
  249SOL    HW1  746   1.938   1.808   1.757 -0.4696 -1.3828  1.3587
  249SOL    HW2  747   2.023   1.909   1.867 -1.3842  2.8636 -0.7752
  250SOL     OW  748   1.089   0.706   1.856 -0.9724 -0.2889 -0.1051
  250SOL    HW1  749   1.115   0.645   1.941  0.3675 -2.0085  0.3013
  250SOL    HW2  750   1.099   0.652   1.769  0.0840 -0.7277  2.4517
  251SOL     OW  751   3.020   1.645   2.558  0.2164 -0.0063 -0.1735
  251SOL    HW1  752   3.008   1.745   2.565  0.4662 -0.6092 -4.7388
  251SOL    HW2  753   2.934   1.598   2.524  0.0956  0.8848 -3.4061
  252SOL     OW  754   1.587   0.788   1.644 -0.4008  0.3997 -1.4442
  252SOL    HW1  755   1.636   0.804   1.556 -1.5849  1.4152 -0.9918
  252SOL    HW2  756   1.581   0.867   1.713 -0.6885 -0.4128 -0.8716
  253SOL     OW  757   0.978   1.543   0.493 -0.6428 -0.7090 -0.1668
  253SOL    HW1  758   0.980   1.452   0.438  0.7072 -2.7603 -2.4816
  253SOL    HW2  759   0.886   1.579   0.518  0.4704  1.5301 -0.4273
  254SOL     OW  760   2.022   2.208   1.644 -0.0032 -0.1086 -0.6710
  254SOL    HW1  761   1.958   2.139   1.604  1.5574  1.3103  0.0022
  254SOL    HW2  762   1.978   2.279   1.703  0.9050  0.2116  0.2589
  255SOL     OW  763   0.142   1.170   2.911  0.1199 -0.8123  0.6951
  255SOL    HW1  764   0.178   1.269   2.938  0.7275  1.7145  1.4303
  255SOL    HW2  765   0.186   1.089   2.961  2.6774  2.0288 -2.8041
  256SOL     OW  766   2.832   1.374   1.854  0.0593  0.4088 -0.1547
  256SOL    HW1  767   2.769   1.451   1.828 -1.7969 -1.0933 -2.6864
  256SOL    HW2  768   2.800   1.280   1.811  0.2528 -0.2821 -0.1242
  257SOL     OW  769   0.796   0.145   1.804  0.0402 -0.2568  0.8498
  257SOL    HW1  770   0.854   0.234   1.778 -1.2184  2.1775  0.4021
  257SOL    HW2  771   0.849   0.059   1.785 -2.3820  4.4092 -0.9862
  258SOL     OW  772   2.978   1.187   0.514  0.4530 -0.7190  0.2130
  258SOL    HW1  773   2.897   1.232   0.568 -0.9844  0.5771  2.9639
  258SOL    HW2  774   3.060   1.186   0.579  0.7026  1.5720  0.3925
  259SOL     OW  775   0.409   2.909   3.018  0.9524 -0.4074 -0.7025
  259SOL    HW1  776   0.382   2.844   3.091  0.8238 -1.2922 -0.2487
  259SOL    HW2  777   0.426   2.855   2.928  0.2269  1.6464 -1.6118
  260SOL     OW  778   2.741   0.752   2.741 -0.3096  0.4533 -0.3228
  260SOL    HW1  779   2.664   0.822   2.727 -3.0143 -2.2837  0.1425
  260SOL    HW2  780   2.707   0.672   2.801 -3.0449 -0.2690 -2.2080
  261SOL     OW  781   2.719   1.302   1.321  0.2478  0.0316  0.6821
  261SOL    HW1  782   2.675   1.215   1.277  0.5458 -0.9900  0.2527
  261SOL    HW2  783   2.798   1.263   1.377 -0.4233 -2.1343  0.0031
  262SOL     OW  784   1.376   2.966   2.025 -0.0293 -0.4442  0.9850
  262SOL    HW1  785   1.422   3.045   1.979 -0.7041  1.0623  1.2287
  262SOL    HW2  786   1.280   2.945   1.982  0.3852 -0.4800 -2.5732
  263SOL     OW  787   0.797   0.692   2.286 -0.1170 -0.3965 -0.1280
  263SOL    HW1  788   0.744   0.622   2.234 -3.9244  0.8784 -0.3637
  263SOL    HW2  789   0.845   0.755   2.219  1.2130 -0.3946  2.8723
  264SOL     OW  790   2.290   0.801   0.414  0.2674  0.3309 -0.5526
  264SOL    HW1  791   2.304   0.738   0.333 -1.9350 -0.8880 -1.6850
  264SOL    HW2  792   2.375   0.854   0.439  0.7063  2.2501  0.5883
  265SOL     OW  793   0.957   2.395   2.610 -0.1444 -0.4803  0.1389
  265SOL    HW1  794   1.014   2.470   2.665 -0.0020  0.5901 -0.8372
  265SOL    HW2  795   0.946   2.312   2.663  0.5067  1.4849 -0.0236
  266SOL     OW  796   1.318   1.767   3.060  0.0066 -0.2486 -0.0772
  266SOL    HW1  797   1.320   1.818   3.149 -2.5507  0.6640 -1.7187
  266SOL    HW2  798   1.409   1.749   3.013  1.5509 -0.8962  3.2505
  267SOL     OW  799   1.100   0.014   2.269 -0.3883  0.1851 -0.1909
  267SOL    HW1  800   1.014  -0.028   2.229 -0.7432 -4.1151 -0.3647
  267SOL    HW2  801   1.141   0.091   2.205  0.6765  2.1892 -1.2825
  268SOL     OW  802   0.837   1.241   1.060  0.4965  0.0611  0.3600
  268SOL    HW1  803   0.790   1.317   1.108 -0.3369  1.9486  0.0091
  268SOL    HW2  804   0.854   1.256   0.953  3.3397 -0.3238 -0.5723
  269SOL     OW  805   2.370   2.492   1.654  0.3562 -0.6593  0.5547
  269SOL    HW1  806   2.435   2.430   1.707 -0.0785  1.7677 -1.2243
  269SOL    HW2  807   2.311   2.543   1.725 -0.9960 -1.3634 -2.4634
  270SOL     OW  808   0.123   2.976   2.009 -0.0971  0.1209  0.0046
  270SOL    HW1  809   0.157   2.924   1.923 -0.4828  0.3223  0.4556
  270SOL    HW2  810   0.105   2.917   2.094 -0.1082  0.6039  1.8445
  271SOL     OW  811   0.504   1.409   1.114  0.2205 -0.6372 -0.1613
  271SOL    HW1  812   0.464   1.383   1.022  2.1839  2.1141  0.6298
  271SOL    HW2  813   0.432   1.389   1.189 -2.2530 -0.2854 -2.1826
  272SOL     OW  814   1.935   3.048   1.946 -1.1154  0.6859  0.5132
  272SOL    HW1  815   1.864   2.979   1.921  3.8199 -0.0208 -3.4813
  272SOL    HW2  816   2.002   3.059   1.868 -1.1016  0.7797  1.7562
  273SOL     OW  817   1.520   1.457   2.760  0.7060  0.1516  0.9969
  273SOL    HW1  818   1.442   1.392   2.747  1.9509  0.4483 -0.0529
  273SOL    HW2  819   1.537   1.480   2.858  0.3909 -2.5883  2.1462
  274SOL     OW  820   1.162   0.518   2.039 -0.5092  0.3130 -0.2622
  274SOL    HW1  821   1.092   0.442   2.029 -0.0102  0.2240  1.7908
  274SOL    HW2  822   1.229   0.509   2.122  0.7118 -0.0643  1.6663
  275SOL     OW  823   0.620   2.119   1.928  0.4252 -0.2284  0.6844
  275SOL    HW1  824   0.598   2.196   1.997 -4.4196  1.8053 -2.7513
  275SOL    HW2  825   0.546   2.044   1.918 -0.4107 -1.7520  1.5481
  276SOL     OW  826   2.193   1.015   2.789  0.5574 -0.6985 -0.3772
  276SOL    HW1  827   2.122   1.078   2.749  1.0231  1.1253  0.3824
  276SOL    HW2  828   2.149   0.942   2.851  2.2822 -3.1833 -0.6909
  277SOL     OW  829   3.067   0.798   0.289  0.2871 -0.0848  0.1516
  277SOL    HW1  830   3.157   0.842   0.258  0.4952 -0.3580 -0.0923
  277SOL    HW2  831   3.080   0.702   0.334  0.1328  0.6796  1.3210
  278SOL     OW  832   0.237   0.246   2.983  0.7886  0.3061  0.6952
  278SOL    HW1  833   0.330   0.200   2.959  0.2068  0.5530  0.5604
  278SOL    HW2  834   0.246   0.346   2.978  2.2698 -0.5710 -1.4613
  279SOL     OW  835   0.268   0.061   0.921  0.0457 -0.2071  0.0633
  279SOL    HW1  836   0.324   0.033   1.004 -2.1439 -1.4586 -1.6965
  279SOL    HW2  837   0.220  -0.018   0.871 -3.1857 -1.1743  0.0963
  280SOL     OW  838   1.618   2.951   2.412  0.2729 -0.0177 -0.0419
  280SOL    HW1  839   1.684   3.012   2.472  1.0350  3.0086 -0.3640
  280SOL    HW2  840   1.573   3.003   2.339 -0.2849  2.9062 -0.8083
  281SOL     OW  841   0.541   0.944   2.262 -0.5107 -0.3473 -0.3391
  281SOL    HW1  842   0.565   0.845   2.239 -1.9886  0.6257  0.0682
  281SOL    HW2  843   0.489   0.955   2.351  1.7121  0.4198  0.3831
  282SOL     OW  844   1.779   2.462   0.546 -0.3385 -0.6596  0.2413
  282SOL    HW1  845   1.753   2.400   0.467  0.4920  1.1788 -0.4562
  282SOL    HW2  846   1.740   2.561   0.537 -1.1441  1.4914  3.0722
  283SOL     OW  847   1.131   0.913   0.767  0.3039 -0.8638  0.2415
  283SOL    HW1  848   1.158   0.846   0.844  0.1904 -1.9966  0.4490
  283SOL    HW2  849   1.119   1.011   0.805 -1.9664  0.8617 -0.9228
  284SOL     OW  850   2.249   2.833   2.471 -0.0607 -0.1021 -0.8267
  284SOL    HW1  851   2.347   2.822   2.436 -1.6173  0.7603  1.7658
  284SOL    HW2  852   2.247   2.827   2.578  1.9706  0.4714  2.9787
  285SOL     OW  853   1.383   0.025   2.586  0.1650 -0.3196  0.3997
  285SOL    HW1  854   1.444   0.010   2.506 -2.9928  0.9718 -0.1145
  285SOL    HW2  855   1.290   0.062   2.558  1.0180  2.1305 -0.6387
  286SOL     OW  856   0.438   0.465   0.745 -0.6986  1.0833 -0.2345
  286SOL    HW1  857   0.430   0.403   0.826  0.4732  2.3987  3.0942
  286SOL    HW2  858   0.442   0.412   0.656 -0.5719  3.2914 -0.5121
  287SOL     OW  859   0.086   1.320   2.663 -0.0736  0.2412 -0.5412
  287SOL    HW1  860  -0.001   1.263   2.663 -0.5850 -1.3830  2.2886
  287SOL    HW2  861   0.120   1.323   2.766  1.7627 -0.1356  1.7712
  288SOL     OW  862   1.526   2.736   1.631 -0.5861 -0.0356  0.2023
  288SOL    HW1  863   1.583   2.682   1.704 -3.1154 -0.0203 -0.9121
  288SOL    HW2  864   1.535   2.686   1.539 -0.5242 -0.6187 -0.3568
  289SOL     OW  865   0.614   2.737   0.866  0.0432  0.0757  0.2179
  289SOL    HW1  866   0.657   2.803   0.799 -3.4600 -3.4677  0.9116
  289SOL    HW2  867   0.614   2.788   0.959  1.3424  1.1128 -0.0117
  290SOL     OW  868   2.801   1.119   1.737  0.3303 -0.0921 -0.2774
  290SOL    HW1  869   2.717   1.058   1.753 -2.6096 -0.4723  0.8491
  290SOL    HW2  870   2.889   1.102   1.791 -0.1613 -3.3937 -1.4460
  291SOL     OW  871   1.945   0.006   0.064  0.4496  0.2805  0.2899
  291SOL    HW1  872   1.977   0.008   0.160 -2.5746 -2.1701  1.7404
  291SOL    HW2  873   1.999   0.067  -0.001 -0.7467  0.0406 -0.5177
  292SOL     OW  874   3.011   1.191   3.077 -0.4216 -0.3703 -0.1827
  292SOL    HW1  875   2.972   1.274   3.028  3.4152 -3.0106 -0.3572
  292SOL    HW2  876   3.103   1.164   3.040 -1.7932 -1.6586  2.1800
  293SOL     OW  877   0.564   2.107   0.293 -0.1434 -0.2167  0.4121
  293SOL    HW1  878   0.538   2.180   0.362 -2.8136 -1.5672  2.6898
  293SOL    HW2  879   0.663   2.072   0.305 -0.8640 -1.4087  0.9907
  294SOL     OW  880   1.850   2.374   1.785  0.2813  0.5552 -0.7132
  294SOL    HW1  881   1.868   2.368   1.890  0.6879  0.0358  1.4232
  294SOL    HW2  882   1.790   2.457   1.766 -2.6194  1.7025 -0.8236
  295SOL     OW  883   1.006   1.066   0.449  0.1342 -0.4189 -0.1809
  295SOL    HW1  884   1.102   1.083   0.481  2.8603 -0.8322 -3.1450
  295SOL    HW2  885   0.947   1.000   0.507  0.0769 -0.7492 -0.9114
  296SOL     OW  886   1.156   2.136   2.733 -0.2016  0.0974  0.0938
  296SOL    HW1  887   1.057   2.116   2.735  2.3599  0.5401 -0.5125
  296SOL    HW2  888   1.206   2.109   2.645 -2.2807  2.0737  0.7101
  297SOL     OW  889   1.330   0.562   1.258 -0.4549 -0.0299 -0.8166
  297SOL    HW1  890   1.371   0.492   1.330 -1.1140  0.0430  0.1063
  297SOL    HW2  891   1.404   0.587   1.188 -2.4406 -0.8195 -2.0083
  298SOL     OW  892   0.513   1.343   2.963 -0.4680 -0.0607 -0.4526
  298SOL    HW1  893   0.462   1.296   3.041 -0.2106  0.7550  2.5057
  298SOL    HW2  894   0.570   1.276   2.907 -1.6400 -0.8974 -3.7518
  299SOL     OW  895   0.411   0.215   1.288  0.1372 -1.0496 -0.9510
  299SOL    HW1  896   0.375   0.311   1.262 -0.3422 -0.3548 -3.5196
  299SOL    HW2  897   0.406   0.190   1.391 -0.7287  1.9165 -1.0920
  300SOL     OW  898   1.272   1.748   2.570  0.2154  0.4667 -0.4092
  300SOL    HW1  899   1.250   1.656   2.524  1.4259 -1.5776 -1.7140
  300SOL    HW2  900   1.367   1.752   2.608 -0.3432  0.4670  4.6275
  301SOL     OW  901   0.421   0.336   0.508  0.1816  0.0311 -0.5369
  301SOL    HW1  902   0.330   0.303   0.539  1.6472  1.2504 -3.9273
  301SOL    HW2  903   0.474   0.264   0.463  0.3054  4.1764 -2.3811
  302SOL     OW  904   1.269   2.469   2.244  0.1455 -0.0266 -0.3875
  302SOL    HW1  905   1.176   2.488   2.284 -0.1119 -2.2316 -0.2546
  302SOL    HW2  906   1.313   2.385   2.291 -0.1200 -0.2470 -0.1162
  303SOL     OW  907   0.959   2.401   0.812  0.7818  0.4590  0.7145
  303SOL    HW1  908   1.007   2.436   0.725 -1.3152 -0.8736  0.7423
  303SOL    HW2  909   0.967   2.454   0.900  2.9976  1.8705 -1.1637
  304SOL     OW  910   0.104   1.887   0.675  0.3876  0.3227  0.0004
  304SOL    HW1  911   0.165   1.884   0.595  0.8680  0.3453  0.4677
  304SOL    HW2  912   0.046   1.974   0.678  0.4026 -3.6275 -2.8437
  305SOL     OW  913   1.576   0.867   0.704 -0.0875  0.0231  0.5175
  305SOL    HW1  914   1.554   0.864   0.607 -0.8477 -4.4234  0.8334
  305SOL    HW2  915   1.632   0.781   0.725  2.9025 -1.5307 -2.6171
  306SOL     OW  916   0.442   1.919   1.904 -0.2204 -0.7468  0.3867
  306SOL    HW1  917   0.516   1.850   1.884 -0.4772  1.6446  0.4407
  306SOL    HW2  918   0.409   1.923   1.999 -0.3708 -1.8019 -2.1790
  307SOL     OW  919   3.065   0.887   2.463 -0.5168 -0.1443 -0.1087
  307SOL    HW1  920   3.072   0.958   2.541  1.4757  1.1049 -0.5642
  307SOL    HW2  921   2.999   0.808   2.480 -1.1056  0.5710 -0.3703
  308SOL     OW  922   1.500   2.694   2.786 -0.5941  0.3062  0.1680
  308SOL    HW1  923   1.521   2.650   2.698 -1.3666  3.4424  0.7042
  308SOL    HW2  924   1.418   2.650   2.834  0.2865 -0.4426 -1.1464
  309SOL     OW  925   1.236   0.143   1.781  0.0623 -0.2561  0.0111
  309SOL    HW1  926   1.332   0.105   1.790  1.1396  0.1680  0.1650
  309SOL    HW2  927   1.213   0.161   1.679  1.1918  2.3526 -1.6637
  310SOL     OW  928   1.473   2.609   0.667 -0.0706  0.1800 -0.6074
  310SOL    HW1  929   1.433   2.613   0.765 -0.8542  1.3746  0.9162
  310SOL    HW2  930   1.546   2.670   0.653 -1.0866 -1.1945  0.2714
  311SOL     OW  931   1.112   0.973   1.778 -0.7940 -0.1364  0.1993
  311SOL    HW1  932   1.096   0.878   1.811 -1.8290 -0.8206 -2.0361
  311SOL    HW2  933   1.173   0.981   1.695 -1.2110 -0.1381 -0.7731
  312SOL     OW  934   1.526   0.669   1.078 -0.0840 -0.1807 -0.5093
  312SOL    HW1  935   1.584   0.751   1.077 -4.1462  0.2693  0.9612
  312SOL    HW2  936   1.492   0.632   0.987  1.8890 -2.2122  1.1726
  313SOL     OW  937   1.650   1.299   0.733  0.2924 -0.5319  0.2571
  313SOL    HW1  938   1.594   1.308   0.821  0.3462 -0.4986  0.1645
  313SOL    HW2  939   1.614   1.231   0.661 -0.4692 -1.3241 -3.2240
  314SOL     OW  940   2.987   3.087   3.093  0.1412 -0.4816  0.4004
  314SOL    HW1  941   3.009   3.080   3.190 -2.3539 -0.2815  0.3817
  314SOL    HW2  942   2.894   3.045   3.079  2.8934 -1.5353  0.2049
  315SOL     OW  943   1.171   0.203   2.773  0.1589 -0.1764  0.4950
  315SOL    HW1  944   1.143   0.133   2.698  1.5075  0.3728  1.9220
  315SOL    HW2  945   1.164   0.163   2.867  3.4896 -2.9436  0.7087
  316SOL     OW  946   1.684   2.087   0.868 -0.5173  0.1303 -0.2751
  316SOL    HW1  947   1.610   2.097   0.939  2.6904 -0.4146 -2.7411
  316SOL    HW2  948   1.711   2.181   0.834  0.8473 -0.2446 -2.3943
  317SOL     OW  949   1.168   0.682   2.762 -0.2635  0.3418  0.3369
  317SOL    HW1  950   1.116   0.729   2.833  0.1907  0.3963 -0.6572
  317SOL    HW2  951   1.112   0.613   2.706  0.0216  1.2997 -0.4526
  318SOL     OW  952   1.414   3.068   2.264  0.6197 -0.2653  0.8659
  318SOL    HW1  953   1.418   3.166   2.236 -0.2228  0.5998  1.6639
  318SOL    HW2  954   1.360   3.005   2.201 -0.4949 -1.2835  1.9223
  319SOL     OW  955   0.661   2.385   2.953 -0.1707  0.6325  0.6050
  319SOL    HW1  956   0.649   2.314   3.030  0.6805  0.2778  0.7297
  319SOL    HW2  957   0.728   2.345   2.882  0.1703 -0.0832  1.3762
  320SOL     OW  958   1.706   2.244   0.377 -0.2917 -0.1195  0.4223
  320SOL    HW1  959   1.780   2.194   0.420 -1.0077 -0.2062 -2.6691
  320SOL    HW2  960   1.612   2.232   0.416  2.1060  0.1100 -3.9431
  321SOL     OW  961   1.677   2.777   0.527 -0.2891 -0.3830 -0.2477
  321SOL    HW1  962   1.596   2.839   0.499  0.6204 -3.0764  0.9310
  321SOL    HW2  963   1.771   2.822   0.540 -0.4123  3.1049  0.4312
  322SOL     OW  964   2.569   1.104   2.314 -0.5431 -0.3341  0.2913
  322SOL    HW1  965   2.664   1.077   2.344 -1.6194  0.8738  0.4898
  322SOL    HW2  966   2.496   1.024   2.302 -2.8043 -1.2363 -0.5818
  323SOL     OW  967   1.183   2.692   0.814  0.0785 -0.2445  0.3954
  323SOL    HW1  968   1.159   2.623   0.742 -0.9437  1.5119 -0.3767
  323SOL    HW2  969   1.126   2.784   0.817 -1.5283  4.0460 -2.0299
  324SOL     OW  970   0.227   2.527   2.428  0.1213  0.0074  0.1768
  324SOL    HW1  971   0.148   2.471   2.470 -0.5956 -0.0950  0.8951
  324SOL    HW2  972   0.217   2.625   2.448 -2.9149 -1.5240 -0.3836
  325SOL     OW  973   1.231   3.014   0.455  0.7917  0.9105 -0.0510
  325SOL    HW1  974   1.198   3.040   0.361 -2.9334 -1.8930  1.0268
  325SOL    HW2  975   1.264   3.096   0.507  0.8553 -1.5879  0.0563
  326SOL     OW  976   2.505   0.764   3.090  0.3047  0.5458  0.0093
  326SOL    HW1  977   2.420   0.727   3.042  0.7787  0.1909  0.8964
  326SOL    HW2  978   2.563   0.690   3.138  1.3479 -3.2655  1.0231
  327SOL     OW  979   2.821   0.293   0.514  0.5325  0.4507  0.3426
  327SOL    HW1  980   2.794   0.273   0.417  1.5687 -0.4828  5.2217
  327SOL    HW2  981   2.802   0.214   0.579  1.6414  0.5373 -1.9831
  328SOL     OW  982   2.563   0.661   0.398 -0.3852  0.1772 -0.7185
  328SOL    HW1  983   2.598   0.675   0.496 -0.2820 -2.8658  0.1321
  328SOL    HW2  984   2.494   0.584   0.393  1.9752 -1.3253 -1.7600
  329SOL     OW  985   2.942   3.025   2.126  0.1725  0.4653  0.3156
  329SOL    HW1  986   3.001   2.975   2.195 -0.9085  3.0086  0.7758
  329SOL    HW2  987   2.961   3.126   2.132  0.5034  2.0874 -1.5697
  330SOL     OW  988   0.557   0.232   1.909 -0.5771 -0.2018 -0.2776
  330SOL    HW1  989   0.633   0.188   1.850 -1.3669  0.4204  0.8881
  330SOL    HW2  990   0.547   0.176   1.997 -1.9369 -0.0023  0.4157
  331SOL     OW  991   3.002   1.887   1.121 -0.1568  0.2469  0.4502
  331SOL    HW1  992   2.974   1.896   1.021 -0.7524 -2.0518  0.2458
  331SOL    HW2  993   2.920   1.857   1.174  0.3660  2.3452 -1.6165
  332SOL     OW  994   0.398   1.187   0.070 -0.6153  0.7274  0.2450
  332SOL    HW1  995   0.349   1.101   0.032  1.5876 -0.5091 -1.2038
  332SOL    HW2  996   0.380   1.210   0.172 -0.3827 -2.5866  2.0964
  333SOL     OW  997   2.875   0.984   0.345 -0.3375 -0.0046 -0.2418
  333SOL    HW1  998   2.919   1.079   0.380 -1.8016  0.6465  1.9872
  333SOL    HW2  999   2.947   0.913   0.321 -2.3710 -2.6039 -1.6540
  334SOL     OW 1000   1.724   1.209   1.764 -0.0890 -0.3194  0.3172
  334SOL    HW1 1001   1.768   1.212   1.670 -0.7053 -1.6889 -1.3104
  334SOL    HW2 1002   1.780   1.203   1.849  0.7076  1.4708 -0.1185
  335SOL     OW 1003   1.936   2.794   2.619 -0.3133  0.5824  0.4813
  335SOL    HW1 1004   1.859   2.775   2.684  1.8633  1.7122 -0.6823
  335SOL    HW2 1005   1.976   2.889   2.630 -1.1224  0.0626 -0.8007
  336SOL     OW 1006   0.251   3.093   2.710 -0.3104  0.0278 -0.3913
  336SOL    HW1 1007   0.285   3.121   2.802 -1.3178  0.7332 -1.4679
  336SOL    HW2 1008   0.227   2.995   2.706  1.2225 -1.4724  0.1122
  337SOL     OW 1009   0.951   2.904   2.955  0.6578 -0.1766 -0.0406
  337SOL    HW1 1010   0.906   2.820   2.994  1.5028  2.7797 -0.8340
  337SOL    HW2 1011   1.056   2.915   2.991  3.3055  2.5077  1.0784
  338SOL     OW 1012   0.021   0.937   0.661 -0.3113 -0.5760  0.2390
  338SOL    HW1 1013  -0.071   0.906   0.700 -1.3364  0.2162 -2.9494
  338SOL    HW2 1014   0.036   1.039   0.676 -0.8513 -0.8504  2.2704
  339SOL     OW 1015   1.651   1.348   2.152  0.7806 -0.0527 -0.1233
  339SOL    HW1 1016   1.575   1.392   2.094  0.4211 -1.2620  2.7716
  339SOL    HW2 1017   1.705   1.431   2.184 -1.8466  1.5135 -7.0157
  340SOL     OW 1018   2.230   0.798   1.150 -0.0843 -0.1112 -0.1252
  340SOL    HW1 1019   2.148   0.852   1.124  0.9758 -0.5617  2.1727
  340SOL    HW2 1020   2.225   0.695   1.125 -1.8745 -0.9172 -1.0118
  341SOL     OW 1021   1.907   2.046   0.404  0.6658  0.0990  0.6976
  341SOL    HW1 1022   1.911   2.074   0.304  2.4765  0.0694  2.9497
  341SOL    HW2 1023   2.004   2.019   0.438  0.2264 -1.4788  0.1477
  342SOL     OW 1024   2.142   2.112   2.716 -0.0792  0.3023 -0.2848
  342SOL    HW1 1025   2.184   2.015   2.718 -1.6815  1.3810 -2.0994
  342SOL    HW2 1026   2.038   2.111   2.713  0.5598  0.9503  0.5134
  343SOL     OW 1027   0.402   0.782   2.747 -0.2695  0.3311  0.2363
  343SOL    HW1 1028   0.394   0.829   2.654  1.6671 -0.7262 -2.3317
  343SOL    HW2 1029   0.491   0.804   2.796  0.1933 -1.5353 -1.5182
  344SOL     OW 1030   1.925   1.483   0.410  0.0592 -0.2772  0.2342
  344SOL    HW1 1031   1.938   1.400   0.349  0.0344 -1.1274  0.1843
  344SOL    HW2 1032   1.829   1.490   0.447  0.6617  1.2794 -0.3426
  345SOL     OW 1033   1.405   2.218   2.858 -0.2358 -0.6390 -0.3495
  345SOL    HW1 1034   1.301   2.197   2.841 -1.7429  0.1989 -0.0541
  345SOL    HW2 1035   1.460   2.163   2.789 -1.1655  0.3522 -0.4762
  346SOL     OW 1036   2.335   0.903   1.407 -0.1539 -0.3823 -0.0281
  346SOL    HW1 1037   2.313   1.004   1.430 -0.6533  1.4784  0.3430
  346SOL    HW2 1038   2.290   0.869   1.317 -1.6315 -1.1209 -0.7210
  347SOL     OW 1039   0.724   2.753   1.658  0.1187  0.6704  0.1868
  347SOL    HW1 1040   0.667   2.746   1.742  2.4297  0.5096 -0.3492
  347SOL    HW2 1041   0.661   2.755   1.573 -0.5402 -3.0072 -0.6717
  348SOL     OW 1042   0.168   0.787   2.909 -0.0871 -0.4608  0.7086
  348SOL    HW1 1043   0.078   0.748   2.865 -0.5370  0.4972  0.2699
  348SOL    HW2 1044   0.251   0.765   2.846  1.2382  0.2922 -1.2996
  349SOL     OW 1045   1.854   0.441   2.808  0.1717 -0.3927  0.0050
  349SOL    HW1 1046   1.837   0.505   2.730 -1.0825  0.3721 -0.0849
  349SOL    HW2 1047   1.830   0.487   2.897 -1.3517 -0.7045 -2.1793
  350SOL     OW 1048   1.694   0.375   0.363 -0.1686  0.4372  0.0191
  350SOL    HW1 1049   1.761   0.406   0.433 -1.7445 -1.3243 -1.6313
  350SOL    HW2 1050   1.683   0.446   0.289 -0.0500  1.6224  0.2019
  351SOL     OW 1051   0.895   0.822   2.066 -0.5042  0.5092  0.3945
  351SOL    HW1 1052   0.915   0.915   2.106 -1.3421  0.1900 -2.0066
  351SOL    HW2 1053   0.940   0.817   1.973  1.5127 -1.1875 -3.3716
  352SOL     OW 1054   2.067   1.346   0.616  0.5866  0.1205  0.1157
  352SOL    HW1 1055   2.033   1.411   0.541 -3.6069  0.1181  0.4237
  352SOL    HW2 1056   1.987   1.305   0.666 -0.0811  0.2651  0.9494
  353SOL     OW 1057   2.198   2.774   1.117  0.2834 -0.9902  0.3739
  353SOL    HW1 1058   2.247   2.712   1.179 -0.6643  0.3003 -1.9954
  353SOL    HW2 1059   2.111   2.808   1.154  2.5246 -2.8582 -0.3751
  354SOL     OW 1060   0.233   1.436   2.869  0.0453  0.1474  0.2681
  354SOL    HW1 1061   0.206   1.485   2.779 -1.4351 -1.0060  0.7977
  354SOL    HW2 1062   0.335   1.426   2.875 -1.3784  0.4463  0.7933
  355SOL     OW 1063   0.713   1.580   0.590 -0.2807  0.3601  0.7577
  355SOL    HW1 1064   0.719   1.535   0.687 -0.3851 -1.6500  0.4172
  355SOL    HW2 1065   0.686   1.505   0.521  1.1180 -0.4085 -1.6405
  356SOL     OW 1066   0.900   0.282   2.033  0.0823  0.2062  0.2433
  356SOL    HW1 1067   0.991   0.230   2.045  2.2796  1.6891 -0.1975
  356SOL    HW2 1068   0.831   0.228   1.982  0.1862 -1.5792 -0.0132
  357SOL     OW 1069   1.012   1.337   0.312 -0.0357  0.6682 -0.9363
  357SOL    HW1 1070   1.101   1.313   0.261  1.0046 -1.0428  3.1050
  357SOL    HW2 1071   0.965   1.249   0.343  3.0485 -0.4764 -1.3817
  358SOL     OW 1072   1.665   1.500   0.537  0.5079 -0.7718  0.0015
  358SOL    HW1 1073   1.644   1.427   0.610  3.5247 -0.9131  2.0975
  358SOL    HW2 1074   1.622   1.482   0.440 -0.0475  2.7434 -0.4847
  359SOL     OW 1075   1.612   2.591   0.308 -0.1318  0.2512 -0.0405
  359SOL    HW1 1076   1.519   2.553   0.290  1.8527  1.0582 -0.4709
  359SOL    HW2 1077   1.614   2.666   0.380  0.8954 -0.8012 -0.6414
  360SOL     OW 1078   0.794   0.485   0.581  0.3980 -0.1851 -0.1318
  360SOL    HW1 1079   0.703   0.528   0.561 -0.4326 -2.7433  2.2698
  360SOL    HW2 1080   0.782   0.380   0.602 -0.2944 -2.2322  1.2710
  361SOL     OW 1081   1.376   1.304   0.614  0.1073  0.5086 -0.5178
  361SOL    HW1 1082   1.386   1.340   0.710 -0.2578 -2.4093  1.7106
  361SOL    HW2 1083   1.283   1.336   0.572 -0.7144 -0.1081  1.0151
  362SOL     OW 1084   1.390   1.814   0.715 -0.0581  0.6333  0.2753
  362SOL    HW1 1085   1.432   1.736   0.770 -1.0056  1.2181  1.0371
  362SOL    HW2 1086   1.461   1.862   0.656 -0.5428 -1.0733 -0.7051
  363SOL     OW 1087   1.264   1.314   2.094  0.1213  0.4984  0.5643
  363SOL    HW1 1088   1.357   1.345   2.068  0.1109  0.4068  0.6157
  363SOL    HW2 1089   1.212   1.390   2.140 -0.5562  2.0248 -1.2229
  364SOL     OW 1090   0.548   2.358   2.065 -0.2151  0.3613 -0.2383
  364SOL    HW1 1091   0.454   2.386   2.098  0.7798  0.6304  0.4527
  364SOL    HW2 1092   0.564   2.406   1.975 -0.3297  1.5052 -0.1742
  365SOL     OW 1093   0.990   1.945   1.362 -0.6658 -0.1534 -0.3587
  365SOL    HW1 1094   0.891   1.938   1.394  0.4162  1.6918 -0.4004
  365SOL    HW2 1095   1.010   2.012   1.284  0.8895 -0.5923  2.2200
  366SOL     OW 1096   2.832   1.965   0.313 -0.3591 -0.5282 -0.0620
  366SOL    HW1 1097   2.802   1.875   0.361 -0.7785 -1.2991 -2.5950
  366SOL    HW2 1098   2.896   1.941   0.235  1.8206  0.1504 -0.5826
  367SOL     OW 1099   0.894   1.210   0.040 -0.1380  0.1943 -0.1782
  367SOL    HW1 1100   0.904   1.145   0.125  0.9966 -1.9846  0.3945
  367SOL    HW2 1101   0.970   1.279   0.023  1.7198  1.3615 -1.7788
  368SOL     OW 1102   1.483   0.579   0.576 -0.3740  0.2318 -0.1676
  368SOL    HW1 1103   1.385   0.601   0.553 -0.3023 -0.1100  2.1696
  368SOL    HW2 1104   1.547   0.610   0.497  2.7549  0.7423  1.5428
  369SOL     OW 1105   0.394   1.703   0.144  0.0300 -0.6507 -0.0857
  369SOL    HW1 1106   0.425   1.768   0.221 -1.0791 -1.7990  2.3953
  369SOL    HW2 1107   0.339   1.627   0.180  2.2797  0.1589 -0.2513
  370SOL     OW 1108   0.379   2.183   1.070 -0.1049  0.7124  0.0562
  370SOL    HW1 1109   0.433   2.258   1.029 -0.7712  0.9776  1.9532
  370SOL    HW2 1110   0.312   2.133   1.006 -1.6802  0.4081 -0.9892
  371SOL     OW 1111   2.898   2.257   2.673  0.4237  0.2301  0.7366
  371SOL    HW1 1112   2.890   2.155   2.683  2.6176  0.3145 -1.0737
  371SOL    HW2 1113   2.928   2.309   2.762 -3.2452 -0.0555  3.8164
  372SOL     OW 1114   1.062   2.145   1.140 -0.8912 -0.2495 -0.0679
  372SOL    HW1 1115   0.995   2.168   1.064 -0.7275 -1.5911  0.0675
  372SOL    HW2 1116   1.132   2.216   1.164 -1.6917  0.7631 -1.6048
  373SOL     OW 1117   1.904   1.932   0.985 -0.0209 -0.5739  0.0362
  373SOL    HW1 1118   1.992   1.980   1.012 -1.4200  3.2547 -1.5301
  373SOL    HW2 1119   1.836   2.009   0.960 -0.2255  1.9236 -1.0749
  374SOL     OW 1120   1.877   0.434   0.565  0.1797 -0.1918  0.3498
  374SOL    HW1 1121   1.854   0.379   0.643 -0.5025  2.4108  0.0749
  374SOL    HW2 1122   1.954   0.393   0.503 -0.0224 -0.2399 -4.3111
  375SOL     OW 1123   2.416   2.214   1.093  0.2337  0.3575 -0.5841
  375SOL    HW1 1124   2.470   2.223   1.006 -0.7637 -1.2655  1.8061
  375SOL    HW2 1125   2.476   2.174   1.167  0.6164  2.0289 -0.5808
  376SOL     OW 1126   0.014   0.631   1.422  0.6864  1.2920 -0.0186
  376SOL    HW1 1127   0.052   0.682   1.509 -1.1652 -0.4767 -0.0454
  376SOL    HW2 1128  -0.063   0.567   1.455  1.5979 -3.7020  2.7008
  377SOL     OW 1129   2.159   2.861   0.289  0.0668 -0.1494 -0.3757
  377SOL    HW1 1130   2.168   2.963   0.305 -0.2218 -0.9005 -2.1953
  377SOL    HW2 1131   2.248   2.811   0.311 -0.4554 -0.9731 -0.8387
  378SOL     OW 1132   1.805   1.892   2.463  0.0289 -0.1267 -0.0654
  378SOL    HW1 1133   1.873   1.897   2.382  0.2026  1.7773 -0.3477
  378SOL    HW2 1134   1.777   1.790   2.477 -0.3816 -1.0025  1.1265
  379SOL     OW 1135   0.744   0.205   2.831 -0.0102  0.0689  0.5469
  379SOL    HW1 1136   0.793   0.134   2.776 -1.4202  2.9535 -2.7383
  379SOL    HW2 1137   0.756   0.298   2.777  2.2823  1.9889  0.2098
  380SOL     OW 1138   1.578   1.147   0.524 -0.1849 -0.0755 -0.5311
  380SOL    HW1 1139   1.489   1.198   0.526  2.3901  1.2878  0.0792
  380SOL    HW2 1140   1.566   1.049   0.501  0.6042 -1.4495 -2.2647
  381SOL     OW 1141   1.325   1.214   1.581 -0.2860 -0.4098 -0.3471
  381SOL    HW1 1142   1.373   1.144   1.522  0.8119 -1.8804 -0.5450
  381SOL    HW2 1143   1.390   1.269   1.645 -0.1678 -1.8014 -1.6493
  382SOL     OW 1144   1.811   0.871   0.238 -0.0702  0.3512  0.1567
  382SOL    HW1 1145   1.837   0.830   0.146 -0.4264 -1.0143  0.7913
  382SOL    HW2 1146   1.891   0.866   0.305 -0.3939  3.8353 -0.2478
  383SOL     OW 1147   2.573   1.019   1.486 -0.3178  0.4092 -0.5801
  383SOL    HW1 1148   2.484   0.973   1.471  0.2588 -0.0195  0.5492
  383SOL    HW2 1149   2.641   0.989   1.413 -1.2850 -1.3602  4.5932
  384SOL     OW 1150   0.852   2.252   0.144  0.4570  0.0107 -0.1846
  384SOL    HW1 1151   0.811   2.343   0.169  0.5517  0.2144 -0.7515
  384SOL    HW2 1152   0.860   2.184   0.225  0.3491  1.8704  0.3435
  385SOL     OW 1153   2.955   2.035   1.673 -0.1041  0.3391  0.0976
  385SOL    HW1 1154   3.034   2.105   1.688  1.3711 -0.6521 -2.5149
  385SOL    HW2 1155   2.981   1.935   1.675  1.4150 -1.4512  0.0397
  386SOL     OW 1156   0.487   1.048   0.477 -0.0352  0.2353  0.1008
  386SOL    HW1 1157   0.488   0.952   0.511 -0.5380  0.3743 -0.4397
  386SOL    HW2 1158   0.392   1.082   0.439 -1.1562 -1.1589  1.7411
  387SOL     OW 1159   0.933   0.363   1.701  0.8680  0.5329  0.0256
  387SOL    HW1 1160   1.023   0.415   1.704  0.5575 -2.1525 -1.4628
  387SOL    HW2 1161   0.926   0.321   1.604 -1.4456  0.6244 -1.1212
  388SOL     OW 1162   1.185   2.730   1.769 -0.2672 -0.0053  0.2329
  388SOL    HW1 1163   1.217   2.753   1.668  1.6116 -0.3814 -0.1984
  388SOL    HW2 1164   1.243   2.651   1.810 -0.2872 -1.6002  0.4242
  389SOL     OW 1165   0.140   2.958   1.367 -0.3220  0.7871  0.1385
  389SOL    HW1 1166   0.048   2.954   1.318  0.1440 -1.4539  2.0358
  389SOL    HW2 1167   0.187   2.864   1.358  0.9603 -0.4933 -0.5511
  390SOL     OW 1168   1.045   0.975   1.354 -0.0643 -0.0685  0.2433
  390SOL    HW1 1169   1.122   0.971   1.421 -0.4415  2.8722 -0.8487
  390SOL    HW2 1170   0.984   1.061   1.372 -1.4969  1.9557 -1.8669
  391SOL     OW 1171   2.174   1.151   1.099 -0.1483  0.6061  0.1481
  391SOL    HW1 1172   2.116   1.073   1.137  2.2501  1.0871 -0.5580
  391SOL    HW2 1173   2.213   1.129   1.000  2.1795 -0.5224 -0.7905
  392SOL     OW 1174   0.912   2.640   3.071 -0.1763 -0.4118  0.8179
  392SOL    HW1 1175   0.992   2.571   3.067 -0.1716  0.5849 -1.0776
  392SOL    HW2 1176   0.859   2.634   3.155  0.4949  1.9442  0.0487
  393SOL     OW 1177   0.319   0.569   1.985 -0.5527 -0.1410  0.4554
  393SOL    HW1 1178   0.265   0.486   1.997 -0.5436  1.8529  0.3268
  393SOL    HW2 1179   0.391   0.566   1.906  2.0754 -0.2886 -0.1909
  394SOL     OW 1180   3.026   1.958   2.812  0.5437  0.9404 -0.4275
  394SOL    HW1 1181   3.120   1.968   2.849 -1.7262  1.5948 -2.0559
  394SOL    HW2 1182   3.021   1.925   2.714 -0.4688  0.4179 -2.8354
  395SOL     OW 1183   1.608   1.960   0.660  0.2362  0.2468 -0.3318
  395SOL    HW1 1184   1.677   1.891   0.625 -0.3146 -0.9652 -0.2020
  395SOL    HW2 1185   1.645   2.021   0.735  0.2629 -1.0498  0.8142
  396SOL     OW 1186   2.824   1.798   1.300  0.5952  0.1974  0.1699
  396SOL    HW1 1187   2.771   1.713   1.285 -1.4897  2.2429 -2.4917
  396SOL    HW2 1188   2.794   1.860   1.377 -0.8469 -0.9441 -0.1630
  397SOL     OW 1189   1.015   2.236   0.515 -0.0931  0.1861  0.2680
  397SOL    HW1 1190   0.920   2.212   0.550 -0.3460  1.1230 -1.3635
  397SOL    HW2 1191   1.051   2.325   0.558  1.7929  2.9094 -0.3760
  398SOL     OW 1192   2.155   3.093   1.042  0.0983 -0.0907  0.7193
  398SOL    HW1 1193   2.087   3.019   1.065  0.1083  1.7171  0.9821
  398SOL    HW2 1194   2.107   3.182   1.017  1.2271  0.6425 -1.1172
  399SOL     OW 1195   3.070   2.465   2.571 -0.3592  0.4723 -0.2003
  399SOL    HW1 1196   2.967   2.465   2.572  0.9928 -1.2934 -1.0123
  399SOL    HW2 1197   3.108   2.422   2.660  0.4195 -0.1827  2.4422
  400SOL     OW 1198   0.765   1.641   1.365 -0.0253  0.1599  0.5217
  400SOL    HW1 1199   0.681   1.659   1.419  0.7283 -0.3322 -3.4949
  400SOL    HW2 1200   0.781   1.715   1.292  1.1438  1.1738  2.0477
  401SOL     OW 1201   1.861   0.111   1.206 -0.1763  0.2587 -0.3530
  401SOL    HW1 1202   1.913   0.144   1.287  2.1876 -2.2473 -2.1780
  401SOL    HW2 1203   1.765   0.133   1.220  2.3502  1.6019  0.5052
  402SOL     OW 1204   1.300   0.125   3.046  0.2987  0.6123 -0.1006
  402SOL    HW1 1205   1.397   0.129   3.012 -1.1443  3.3978  0.4357
  402SOL    HW2 1206   1.261   0.219   3.063  3.2448 -0.1081  2.4477
  403SOL     OW 1207   2.285   1.778   0.918  0.0211 -0.0075 -0.3644
  403SOL    HW1 1208   2.385   1.792   0.916 -2.2266 -1.5808  0.5254
  403SOL    HW2 1209   2.243   1.851   0.982  1.6567 -1.3093  0.5781
  404SOL     OW 1210   0.210   2.471   2.834  0.0127 -0.8090 -0.0801
  404SOL    HW1 1211   0.302   2.438   2.813  0.3265  0.9871  0.0240
  404SOL    HW2 1212   0.205   2.572   2.831  0.2926 -2.2308 -2.4819
  405SOL     OW 1213   0.087   2.470   0.721 -0.0343 -0.3679  0.4845
  405SOL    HW1 1214   0.117   2.388   0.664  1.4676 -3.8600  1.4018
  405SOL    HW2 1215   0.125   2.557   0.678 -1.3985  2.1975  1.7418
  406SOL     OW 1216   0.057   1.541   3.048 -0.2598  0.2050 -0.2199
  406SOL    HW1 1217   0.132   1.512   2.980  1.9905 -1.3930 -1.3985
  406SOL    HW2 1218   0.081   1.519   3.149 -1.7354  2.5959 -0.2085
  407SOL     OW 1219   1.545   0.952   0.961  0.2373 -0.0096 -0.2474
  407SOL    HW1 1220   1.534   0.929   0.855 -1.3926 -3.7971 -3.2274
  407SOL    HW2 1221   1.467   1.009   1.003  0.8961  0.1260 -2.9068
  408SOL     OW 1222   1.596   2.440   0.945 -1.0367 -0.1195  0.3224
  408SOL    HW1 1223   1.670   2.413   0.873  0.0264  0.0513 -0.8855
  408SOL    HW2 1224   1.553   2.532   0.933 -1.0245 -0.2330 -0.4569
  409SOL     OW 1225   0.667   0.773   0.760  0.9869 -0.0696 -0.1147
  409SOL    HW1 1226   0.572   0.781   0.721  0.7898 -0.9076  2.1631
  409SOL    HW2 1227   0.681   0.687   0.815 -2.0299  1.8744 -1.2160
  410SOL     OW 1228   1.287   2.053   1.380 -0.3760  0.0597 -0.6354
  410SOL    HW1 1229   1.357   1.985   1.418 -2.6228 -1.0783 -0.5383
  410SOL    HW2 1230   1.193   2.011   1.384 -4.8366 -0.5526 -0.8513
  411SOL     OW 1231   2.646   1.820   3.020 -0.6012 -0.1484  0.1245
  411SOL    HW1 1232   2.553   1.856   3.038  0.6820 -0.2113  0.0507
  411SOL    HW2 1233   2.695   1.867   2.942  0.1869  0.2488  1.2532
  412SOL     OW 1234   1.532   2.488   2.156  0.2823 -0.4077 -0.0871
  412SOL    HW1 1235   1.518   2.556   2.082 -0.9061 -0.1510  0.5285
  412SOL    HW2 1236   1.460   2.494   2.230 -2.4350  1.2302 -0.3687
  413SOL     OW 1237   3.078   0.208   2.934  0.3390 -0.2820 -0.4869
  413SOL    HW1 1238   3.048   0.114   2.964 -0.2200 -0.2444 -2.2360
  413SOL    HW2 1239   3.181   0.228   2.931  1.0559  1.0572 -0.0282
  414SOL     OW 1240   1.897   1.541   1.172 -0.0626 -0.4162 -0.4430
  414SOL    HW1 1241   1.864   1.641   1.163 -0.5907  1.5295  2.3434
  414SOL    HW2 1242   1.845   1.478   1.111  1.7140  0.2337  2.2633
  415SOL     OW 1243   0.384   2.296   0.746  0.1695 -0.1034 -1.0811
  415SOL    HW1 1244   0.429   2.367   0.817 -1.2806 -1.1587  2.1080
  415SOL    HW2 1245   0.285   2.267   0.763  0.6241  0.0765 -2.0822
  416SOL     OW 1246   0.359   1.021   1.089  0.1690 -0.5327  0.4668
  416SOL    HW1 1247   0.302   0.981   1.007  0.1795  3.6666 -0.7528
  416SOL    HW2 1248   0.463   1.017   1.072 -1.4451 -1.3698 -0.2608
  417SOL     OW 1249   2.269   2.339   2.011  0.5139  0.7166  0.9585
  417SOL    HW1 1250   2.317   2.279   2.074 -1.8175  0.5884  0.9971
  417SOL    HW2 1251   2.199   2.286   1.957  2.1479  0.3960 -0.1411
  418SOL     OW 1252   1.080   0.601   1.350  0.2459 -0.3178 -0.0048
  418SOL    HW1 1253   1.017   0.595   1.273 -0.7659  0.3913  2.7728
  418SOL    HW2 1254   1.177   0.609   1.305 -0.0607  1.2072  0.3697
  419SOL     OW 1255   0.951   0.482   2.946 -0.5407  0.0732  0.1762
  419SOL    HW1 1256   0.875   0.485   2.875  1.6546 -2.7561 -1.1974
  419SOL    HW2 1257   0.972   0.568   3.000  3.6471 -1.8017  1.2904
  420SOL     OW 1258   0.078   2.257   0.542 -0.3925  0.1917  0.3190
  420SOL    HW1 1259   0.142   2.276   0.463  1.3475 -0.4812  1.6631
  420SOL    HW2 1260   0.015   2.180   0.518  1.7743 -1.1389  0.8382
  421SOL     OW 1261   0.333   2.966   0.616 -0.1223 -0.5355 -0.2139
  421SOL    HW1 1262   0.314   2.915   0.703 -0.8882  0.7195 -0.2417
  421SOL    HW2 1263   0.413   3.036   0.630 -0.2585 -0.2207 -1.0401
  422SOL     OW 1264   1.004   2.580   1.010 -0.2519 -0.0998 -0.7183
  422SOL    HW1 1265   1.091   2.618   0.972 -1.0036 -1.6477  0.8705
  422SOL    HW2 1266   0.985   2.604   1.108  0.2189 -1.9900  1.3662
  423SOL     OW 1267   0.159   0.742   1.218  0.0471  0.1441 -0.5309
  423SOL    HW1 1268   0.094   0.698   1.282  2.5014 -2.0180 -3.0098
  423SOL    HW2 1269   0.113   0.824   1.180 -0.7424  0.9600  0.1210
  424SOL     OW 1270   1.118   2.207   2.041  0.6635  0.0960 -0.1057
  424SOL    HW1 1271   1.142   2.306   2.026 -0.0757  1.6045  0.4287
  424SOL    HW2 1272   1.096   2.194   2.141 -0.3899  1.0119  0.1208
  425SOL     OW 1273   1.965   1.299   1.011 -0.5178  0.1617  0.4968
  425SOL    HW1 1274   2.049   1.242   1.043  1.2025  2.6807 -0.6455
  425SOL    HW2 1275   1.992   1.398   1.000  1.2113 -0.7764  0.7654
  426SOL     OW 1276   1.489   1.586   1.363 -0.6095 -0.3613 -0.3449
  426SOL    HW1 1277   1.474   1.673   1.299  0.5491  1.8179 -2.7313
  426SOL    HW2 1278   1.428   1.590   1.443 -1.1382 -0.1906 -3.1764
  427SOL     OW 1279   1.912   2.331   2.087 -0.6218  0.2784  0.5063
  427SOL    HW1 1280   1.977   2.264   2.131 -0.5863  1.5863 -0.5633
  427SOL    HW2 1281   1.912   2.421   2.128  0.5845 -0.1849 -1.1546
  428SOL     OW 1282   0.822   3.069   0.145 -0.3767  0.5547 -0.3233
  428SOL    HW1 1283   0.816   3.158   0.088  1.6911  0.2242  2.2567
  428SOL    HW2 1284   0.911   3.011   0.130 -0.3601  1.1513  1.3465
  429SOL     OW 1285   1.328   0.108   0.244  0.7188  0.1571 -0.4738
  429SOL    HW1 1286   1.422   0.116   0.293  1.3835 -1.4733 -0.0358
  429SOL    HW2 1287   1.341   0.108   0.140 -1.3047 -1.4121 -0.2288
  430SOL     OW 1288   2.849   1.392   0.292 -0.0187 -0.0580  0.0561
  430SOL    HW1 1289   2.828   1.439   0.200  0.9322  1.0398 -1.3704
  430SOL    HW2 1290   2.879   1.459   0.363 -2.2931 -1.7011 -3.5376
  431SOL     OW 1291   2.099   1.551   0.955  0.1540  0.7104  0.4176
  431SOL    HW1 1292   2.193   1.565   0.909 -0.8529  0.8244  1.5259
  431SOL    HW2 1293   2.025   1.612   0.917 -1.8494 -1.2248  0.8827
  432SOL     OW 1294   2.945   2.229   1.157  0.3297 -0.7655  0.1848
  432SOL    HW1 1295   2.961   2.128   1.151 -0.0689 -0.1196  1.9345
  432SOL    HW2 1296   2.976   2.276   1.241  0.3348  1.8083 -3.1036
  433SOL     OW 1297   1.839   0.262   0.805  0.3942 -0.2817  0.3552
  433SOL    HW1 1298   1.742   0.264   0.844 -1.8046  0.7236  0.7687
  433SOL    HW2 1299   1.917   0.281   0.868 -2.7680  1.8600 -5.6430
  434SOL     OW 1300   1.540   0.339   0.690 -0.0592  0.2462 -0.0453
  434SOL    HW1 1301   1.516   0.434   0.646 -1.8802  1.8442  1.4890
  434SOL    HW2 1302   1.536   0.353   0.793 -0.0338  1.3461 -0.7265
  435SOL     OW 1303   1.470   1.506   2.033  0.3688 -0.1791  0.0584
  435SOL    HW1 1304   1.457   1.551   2.122  1.5215 -1.4640 -1.5784
  435SOL    HW2 1305   1.507   1.562   1.955  0.1133 -0.0302 -0.7736
  436SOL     OW 1306   1.713   2.728   2.267  0.1300 -0.0613 -0.2758
  436SOL    HW1 1307   1.665   2.787   2.332 -1.8692 -1.1648 -0.6091
  436SOL    HW2 1308   1.727   2.631   2.305  0.3882  0.6253 -1.1164
  437SOL     OW 1309   1.093   2.951   0.909 -0.0233  0.2052 -0.3280
  437SOL    HW1 1310   1.007   3.002   0.877 -0.1892  0.1002  2.2510
  437SOL    HW2 1311   1.102   2.952   1.011  1.0415  1.4656  0.2221
  438SOL     OW 1312   0.996   2.639   1.323  0.5154  0.5731 -0.0606
  438SOL    HW1 1313   1.073   2.688   1.365 -1.8625  0.1417 -4.0860
  438SOL    HW2 1314   0.992   2.538   1.340  1.8876  0.0676  4.3331
  439SOL     OW 1315   0.720   1.808   1.148 -0.4257  0.5530  0.2207
  439SOL    HW1 1316   0.683   1.894   1.103 -1.4589 -1.3909 -1.1579
  439SOL    HW2 1317   0.642   1.749   1.186  0.7640  0.3030 -1.0692
  440SOL     OW 1318   1.063   2.489   1.940  0.4663 -1.2251  0.0123
  440SOL    HW1 1319   1.019   2.530   1.854  0.2221 -0.5892 -1.4732
  440SOL    HW2 1320   1.164   2.496   1.924 -0.3438  0.7382  0.9913
  441SOL     OW 1321   0.519   2.736   1.451 -0.7876 -0.2048  0.7306
  441SOL    HW1 1322   0.568   2.645   1.457  1.2664 -2.7405  1.6208
  441SOL    HW2 1323   0.418   2.720   1.447  2.2819 -1.2227 -2.4671
  442SOL     OW 1324   2.266   0.734   2.490  0.1611  0.1377  0.1358
  442SOL    HW1 1325   2.262   0.632   2.517  0.4757 -1.1149  0.1837
  442SOL    HW2 1326   2.180   0.786   2.511  1.8682  1.7214 -0.5378
  443SOL     OW 1327   1.181   2.754   2.206  0.2559 -0.2130  0.2513
  443SOL    HW1 1328   1.176   2.807   2.291  0.2732 -4.2010 -1.4029
  443SOL    HW2 1329   1.265   2.692   2.204  0.6948  1.6989  1.7027
  444SOL     OW 1330   1.067   1.323   1.569 -0.5254  0.6408  0.2048
  444SOL    HW1 1331   1.153   1.262   1.566  0.1475  1.6688 -1.2794
  444SOL    HW2 1332   1.074   1.417   1.610  0.2184  1.9867 -2.0877
  445SOL     OW 1333   3.104   2.308   1.922 -0.3265  0.3817  0.1014
  445SOL    HW1 1334   3.078   2.406   1.891  0.6016 -0.7785  0.5693
  445SOL    HW2 1335   3.030   2.273   1.983  0.5968 -0.3429 -0.2620
  446SOL     OW 1336   0.158   1.889   2.347 -0.3355  0.3233  0.1975
  446SOL    HW1 1337   0.106   1.971   2.379 -0.1848 -1.1937  0.3754
  446SOL    HW2 1338   0.124   1.846   2.259 -4.4797  0.4864  0.8803
  447SOL     OW 1339   1.262   1.684   1.950 -0.1203  0.1399  0.5912
  447SOL    HW1 1340   1.205   1.756   1.898  0.4829  1.8171  1.0798
  447SOL    HW2 1341   1.332   1.729   2.010  2.0781 -0.2969 -3.7429
  448SOL     OW 1342   0.170   1.546   2.036 -0.6650 -0.7068  0.1311
  448SOL    HW1 1343   0.183   1.632   1.974  3.2875  1.2876 -1.1579
  448SOL    HW2 1344   0.115   1.576   2.117 -1.3531 -0.5753 -0.7805
  449SOL     OW 1345   2.031   2.951   0.828  0.3364  0.1430  0.4209
  449SOL    HW1 1346   2.120   2.965   0.875 -1.7057  0.1252 -0.1576
  449SOL    HW2 1347   2.007   2.856   0.792  0.2885  1.5085  4.8971
  450SOL     OW 1348   2.283   1.362   0.763 -0.2510  0.1564  0.1738
  450SOL    HW1 1349   2.264   1.299   0.837  1.9001  0.1944 -1.5292
  450SOL    HW2 1350   2.206   1.366   0.693 -1.0985 -4.0036 -1.6285
  451SOL     OW 1351   1.439   0.041   1.476  0.4764 -0.2333  0.1273
  451SOL    HW1 1352   1.352   0.098   1.487  2.6177 -0.3964  0.2115
  451SOL    HW2 1353   1.458  -0.016   1.562  1.8086  1.6430  0.1034
  452SOL     OW 1354   2.655   2.287   2.213  0.1228  0.3285  0.0991
  452SOL    HW1 1355   2.585   2.362   2.231  0.8274  0.1962 -0.5392
  452SOL    HW2 1356   2.696   2.245   2.298  1.1289  1.9885 -1.4731
  453SOL     OW 1357   2.439   2.633   3.089  0.3842  0.5663  0.2160
  453SOL    HW1 1358   2.356   2.684   3.119 -2.2598 -1.7754  1.9355
  453SOL    HW2 1359   2.420   2.569   3.010 -0.8173 -0.0094 -0.4081
  454SOL     OW 1360   0.976   1.116   2.097 -0.2252  0.2504 -0.5366
  454SOL    HW1 1361   0.956   1.166   2.008  0.7339 -0.4018  1.9953
  454SOL    HW2 1362   1.073   1.130   2.128 -1.7529  0.6990  0.8061
  455SOL     OW 1363   0.694   2.640   2.867  0.7046  0.3013 -0.0465
  455SOL    HW1 1364   0.769   2.684   2.923 -1.6986  0.4612 -1.6992
  455SOL    HW2 1365   0.677   2.537   2.896  2.2852 -0.7487 -0.9753
  456SOL     OW 1366   0.504   1.844   0.368  0.2503 -0.5289 -0.6066
  456SOL    HW1 1367   0.595   1.803   0.389 -1.4712  1.7908 -0.1365
  456SOL    HW2 1368   0.514   1.946   0.334  1.5291 -1.7617  0.4575
  457SOL     OW 1369   0.367   2.617   0.725 -0.1680  0.6137  0.1713
  457SOL    HW1 1370   0.334   2.634   0.626 -2.3386 -0.2710 -0.1483
  457SOL    HW2 1371   0.460   2.651   0.747 -0.2700 -1.6028  1.8190
  458SOL     OW 1372   2.977   3.008   1.259  0.3830 -0.7346 -0.1880
  458SOL    HW1 1373   3.007   3.107   1.262  1.8731 -1.3702  1.3749
  458SOL    HW2 1374   2.997   2.955   1.167 -2.3053 -4.4501 -1.2634
  459SOL     OW 1375   2.137   2.560   0.903 -0.3661 -0.0958  0.3300
  459SOL    HW1 1376   2.157   2.626   0.981 -1.4802  2.0313  1.3923
  459SOL    HW2 1377   2.201   2.571   0.818  2.2608 -0.6279  1.1341
  460SOL     OW 1378   1.138   1.955   2.981 -0.1228 -0.1570  0.2392
  460SOL    HW1 1379   1.193   2.015   2.915 -0.2080  2.3237 -2.4610
  460SOL    HW2 1380   1.197   1.880   3.022  0.8784 -1.6678 -0.6774
  461SOL     OW 1381   0.496   2.130   2.657 -0.1729 -0.0510 -0.2382
  461SOL    HW1 1382   0.446   2.054   2.603  1.7645 -3.6047 -0.2336
  461SOL    HW2 1383   0.528   2.096   2.750  0.0751 -1.8020  2.2486
  462SOL     OW 1384   0.928   1.207   1.843  0.1807  0.0901  0.4045
  462SOL    HW1 1385   1.005   1.166   1.788 -2.4662  1.1909  2.9421
  462SOL    HW2 1386   0.869   1.284   1.797 -0.8158  2.8964 -0.0828
  463SOL     OW 1387   0.450   0.800   0.570 -0.1958 -0.2843  0.7481
  463SOL    HW1 1388   0.487   0.700   0.545  2.3646 -1.2275  2.2779
  463SOL    HW2 1389   0.345   0.811   0.573 -1.9624  0.2231 -0.3603
  464SOL     OW 1390   0.596   2.254   2.309 -0.0010  0.2383 -0.2905
  464SOL    HW1 1391   0.556   2.330   2.364 -0.0033 -1.1364  0.9927
  464SOL    HW2 1392   0.580   2.271   2.208 -3.2288  0.9413 -0.9673
  465SOL     OW 1393   0.239   0.907   0.826 -0.1872 -0.5113 -0.1000
  465SOL    HW1 1394   0.154   0.930   0.771 -1.5192 -2.1672 -2.6157
  465SOL    HW2 1395   0.249   0.802   0.832 -1.6564 -1.2797  2.7756
  466SOL     OW 1396   1.362   1.122   1.140 -0.1185  0.1188 -0.0299
  466SOL    HW1 1397   1.402   1.211   1.177 -1.3222 -0.9091 -0.4265
  466SOL    HW2 1398   1.255   1.124   1.148 -2.9257  0.3972 -2.3965
  467SOL     OW 1399   0.494   0.367   2.379 -0.5300  0.8796 -0.0493
  467SOL    HW1 1400   0.493   0.466   2.409 -0.9499 -1.1020  1.3631
  467SOL    HW2 1401   0.493   0.300   2.456 -1.0494  1.7912  0.1046
  468SOL     OW 1402   0.417   2.284   1.670  0.2939 -0.4935  0.1003
  468SOL    HW1 1403   0.480   2.347   1.723 -0.1104 -0.6160 -0.3371
  468SOL    HW2 1404   0.375   2.324   1.585 -1.0329 -2.4920 -0.0232
  469SOL     OW 1405   1.489   1.338   1.226  0.2561  0.4477 -1.0859
  469SOL    HW1 1406   1.581   1.292   1.228  0.3754 -1.0232  1.0389
  469SOL    HW2 1407   1.485   1.429   1.274  3.1664 -1.8902 -1.0515
  470SOL     OW 1408   3.015   1.688   0.739 -0.0869 -0.4081  0.0571
  470SOL    HW1 1409   3.073   1.771   0.707  1.2904  0.5034  3.8883
  470SOL    HW2 1410   2.929   1.720   0.788 -2.3673  3.2479 -2.0853
  471SOL     OW 1411   2.614   1.339   2.160  0.0717 -0.2490 -0.2695
  471SOL    HW1 1412   2.602   1.260   2.228 -3.0192  0.5905 -0.9489
  471SOL    HW2 1413   2.690   1.405   2.185  0.4337  1.4355 -0.0662
  472SOL     OW 1414   1.107   2.426   3.045 -0.1832 -0.1747  0.1045
  472SOL    HW1 1415   1.140   2.415   3.141 -1.1260  1.1153 -0.1597
  472SOL    HW2 1416   1.081   2.336   3.004 -0.7330 -0.3952 -0.5576
  473SOL     OW 1417   1.086   1.518   0.912  0.6967  0.6514 -0.0832
  473SOL    HW1 1418   1.004   1.561   0.957 -0.1011  2.2972 -0.0368
  473SOL    HW2 1419   1.150   1.469   0.981 -2.5474  0.1993 -1.0332
  474SOL     OW 1420   0.801   1.239   0.640  0.4759 -0.4405  0.2032
  474SOL    HW1 1421   0.763   1.240   0.544  1.3545 -0.6902  1.6015
  474SOL    HW2 1422   0.861   1.155   0.652  0.5147 -0.6857 -0.6426
  475SOL     OW 1423   2.838   0.122   0.787  0.7647 -0.5761  0.0443
  475SOL    HW1 1424   2.931   0.146   0.825  1.0139  0.9868 -2.0245
  475SOL    HW2 1425   2.757   0.155   0.842  0.7565  0.3139 -2.7998
  476SOL     OW 1426   0.929   2.990   1.752  0.1795  0.3497  0.3218
  476SOL    HW1 1427   0.984   2.959   1.833  0.1570 -2.1395 -1.8892
  476SOL    HW2 1428   0.962   2.948   1.660 -2.2743  0.3679  1.5306
  477SOL     OW 1429   1.429   0.326   2.473  0.2348  0.0079 -0.4536
  477SOL    HW1 1430   1.411   0.337   2.575  1.2353 -1.0563 -0.4508
  477SOL    HW2 1431   1.500   0.255   2.446 -2.4171 -0.2472 -1.5493
  478SOL     OW 1432   2.255   1.822   0.247  0.0792 -0.6951 -0.2671
  478SOL    HW1 1433   2.183   1.751   0.240  1.1568 -0.9576  0.0229
  478SOL    HW2 1434   2.353   1.792   0.224 -2.0749  0.5780 -1.1080
  479SOL     OW 1435   1.251   1.029   2.875  0.7317 -0.4569  0.1168
  479SOL    HW1 1436   1.314   1.038   2.794  0.8867 -0.5679  3.6697
  479SOL    HW2 1437   1.156   1.062   2.840  2.1262  2.2274 -1.3088
  480SOL     OW 1438   2.508   2.320   0.359  0.2352 -0.0234  0.5692
  480SOL    HW1 1439   2.467   2.230   0.382  0.5305  2.0623  0.3591
  480SOL    HW2 1440   2.453   2.367   0.284 -1.4618 -2.4861 -0.6861
  481SOL     OW 1441   1.072   1.173   0.815  0.1822 -0.0076 -0.6732
  481SOL    HW1 1442   1.109   1.238   0.741  3.0956 -1.5557  1.7623
  481SOL    HW2 1443   1.108   1.189   0.912  1.6493 -2.5616 -2.1312
  482SOL     OW 1444   1.612   0.356   2.045  0.1467  0.4680 -0.0040
  482SOL    HW1 1445   1.606   0.453   2.010  0.3784 -3.4481  0.8552
  482SOL    HW2 1446   1.711   0.322   2.046  2.6893  1.2111  0.1900
  483SOL     OW 1447   0.162   2.385   1.274 -0.6638 -0.1382 -0.3254
  483SOL    HW1 1448   0.068   2.403   1.319  0.1242  1.1801 -1.4446
  483SOL    HW2 1449   0.164   2.396   1.171  2.3237 -2.0546  0.4263
  484SOL     OW 1450   1.701   0.971   1.394  0.0863 -0.0815 -0.0863
  484SOL    HW1 1451   1.775   0.910   1.361 -0.8843 -0.5445  2.9944
  484SOL    HW2 1452   1.740   1.055   1.437 -1.5856  0.0200 -1.4097
  485SOL     OW 1453   0.685   1.078   1.788  0.0033 -0.0009  0.3102
  485SOL    HW1 1454   0.701   1.054   1.686  3.5707  1.7344 -1.3336
  485SOL    HW2 1455   0.750   1.151   1.813 -1.6133 -2.9124 -0.5135
  486SOL     OW 1456   0.934   1.965   2.476  0.0803  0.1514  0.0665
  486SOL    HW1 1457   0.972   1.925   2.567 -1.7357 -2.6849 -1.7782
  486SOL    HW2 1458   0.832   1.990   2.474  2.6693 -0.5151 -0.3072
  487SOL     OW 1459   1.702   1.515   0.891  0.3122 -0.5791  0.0953
  487SOL    HW1 1460   1.693   1.453   0.809  0.8805 -0.0685 -1.6972
  487SOL    HW2 1461   1.780   1.573   0.876 -1.6082 -0.0252  0.3988
  488SOL     OW 1462   2.987   0.934   2.196  0.6355  0.2310 -0.0707
  488SOL    HW1 1463   3.038   0.862   2.137  0.5558  0.9209  1.7394
  488SOL    HW2 1464   2.984   0.896   2.292  0.2347 -1.4020  1.1769
  489SOL     OW 1465   2.749   0.264   1.313 -0.9686  0.1244  0.5884
  489SOL    HW1 1466   2.709   0.217   1.396  0.9743  1.8436 -2.6845
  489SOL    HW2 1467   2.808   0.202   1.252  0.4681 -0.1319  0.8852
  490SOL     OW 1468   1.418   2.973   2.808 -0.2126  0.2401 -0.1897
  490SOL    HW1 1469   1.445   2.875   2.805  2.2336 -1.1771  0.4330
  490SOL    HW2 1470   1.421   3.020   2.717 -0.6228  2.3705  0.0706
  491SOL     OW 1471   1.823   1.508   2.682  0.7141  0.3472  0.6148
  491SOL    HW1 1472   1.769   1.449   2.750  0.3434  1.5674 -0.9518
  491SOL    HW2 1473   1.926   1.506   2.693 -0.0850  0.4853 -2.3700
  492SOL     OW 1474   0.526   2.054   0.747 -0.4363 -0.0142  0.3989
  492SOL    HW1 1475   0.572   2.034   0.841 -1.9077  2.4764  2.8295
  492SOL    HW2 1476   0.470   2.144   0.752 -1.2296 -0.2517 -0.1028
  493SOL     OW 1477   0.426   1.463   2.057 -0.0061  0.1121  0.1104
  493SOL    HW1 1478   0.334   1.510   2.050 -0.9991  0.1647  0.0841
  493SOL    HW2 1479   0.425   1.377   2.119  2.2156 -1.7021 -0.8596
  494SOL     OW 1480   2.655   2.694   0.161 -0.4305 -0.0718 -0.0432
  494SOL    HW1 1481   2.650   2.630   0.247  0.8160 -1.9362  0.4241
  494SOL    HW2 1482   2.584   2.672   0.088  0.7456 -0.2406  0.1747
  495SOL     OW 1483   2.724   2.648   2.722  0.0815  0.5011  0.3079
  495SOL    HW1 1484   2.711   2.548   2.702  1.0711  1.9880  0.0347
  495SOL    HW2 1485   2.737   2.708   2.635  0.1226  1.1338 -1.2937
  496SOL     OW 1486   2.023   2.169   0.727  0.5009 -0.2646 -0.4746
  496SOL    HW1 1487   2.048   2.207   0.825 -0.5084  2.1911  2.9595
  496SOL    HW2 1488   2.056   2.076   0.714 -2.2508  0.0898  0.9493
  497SOL     OW 1489   0.199   2.990   2.404  0.0139  0.0526  0.0905
  497SOL    HW1 1490   0.130   3.048   2.455  2.6716 -1.9059  0.7100
  497SOL    HW2 1491   0.245   3.040   2.323 -0.5409 -0.8252 -0.1928
  498SOL     OW 1492   1.235   1.449   1.142  0.4451  0.0800 -0.0808
  498SOL    HW1 1493   1.330   1.455   1.179 -2.4710  0.4073  1.0541
  498SOL    HW2 1494   1.165   1.494   1.210  1.1225  3.1719  0.8562
  499SOL     OW 1495   0.779   1.834   0.535  0.3730 -0.5642 -0.6791
  499SOL    HW1 1496   0.759   1.733   0.551 -0.5940  0.0775  1.0352
  499SOL    HW2 1497   0.826   1.875   0.623  1.4715 -2.9457  1.0321
  500SOL     OW 1498   1.425   2.983   1.703 -0.5979  0.4127 -0.0802
  500SOL    HW1 1499   1.367   2.982   1.789 -1.1436  0.4998  0.9673
  500SOL    HW2 1500   1.474   2.892   1.684 -0.0234  1.7986 -1.9735
  501SOL     OW 1501   0.781   1.126   2.299  0.1775  0.3717  0.1475
  501SOL    HW1 1502   0.711   1.053   2.318 -0.8099 -0.8881  1.4642
  501SOL    HW2 1503   0.811   1.131   2.200 -3.3236 -0.8308 -1.3297
  502SOL     OW 1504   2.569   0.972   1.759 -0.0387  0.4310  0.2105
  502SOL    HW1 1505   2.562   0.984   1.655 -1.3579 -0.2095 -0.5689
  502SOL    HW2 1506   2.535   0.877   1.793  0.4371  0.5080 -2.2935
  503SOL     OW 1507   1.332   0.161   0.612  0.2555  0.4852  0.3332
  503SOL    HW1 1508   1.268   0.237   0.632 -1.4699  1.0076 -0.1990
  503SOL    HW2 1509   1.427   0.196   0.590  3.5162  0.7281 -0.8835
  504SOL     OW 1510   3.030   2.328   1.400 -0.2573  0.5466  0.4393
  504SOL    HW1 1511   2.997   2.406   1.458  1.2717 -5.1220  0.0278
  504SOL    HW2 1512   3.023   2.231   1.442 -2.6741 -1.6887  0.3230
  505SOL     OW 1513   2.286   1.152   1.476 -0.1378 -0.4054 -0.1901
  505SOL    HW1 1514   2.280   1.223   1.396  0.5108  1.0798 -1.4737
  505SOL    HW2 1515   2.338   1.189   1.551  1.9113 -1.3325 -0.8609
  506SOL     OW 1516   1.996   0.230   1.753  0.3400  0.5191  0.4676
  506SOL    HW1 1517   2.052   0.140   1.766 -1.1565  1.3685  2.6143
  506SOL    HW2 1518   2.019   0.314   1.806 -1.6480  0.2676  0.5820
  507SOL     OW 1519   0.515   0.663   2.177 -0.2451 -0.2960  0.1179
  507SOL    HW1 1520   0.438   0.669   2.105 -1.0547  1.7414 -0.5384
  507SOL    HW2 1521   0.574   0.584   2.169 -0.4760 -0.3393  3.8238
  508SOL     OW 1522   0.272   1.624   0.916  0.0528  0.4436 -0.1938
  508SOL    HW1 1523   0.319   1.686   0.846  3.0492 -1.0498  0.0729
  508SOL    HW2 1524   0.223   1.673   0.995 -0.4810  2.1837  0.8292
  509SOL     OW 1525   1.337   1.216   2.456 -0.3001 -0.9079  0.0260
  509SOL    HW1 1526   1.268   1.147   2.466  1.6388  4.2279  1.8099
  509SOL    HW2 1527   1.412   1.184   2.388  2.5480 -0.3885  0.6823
  510SOL     OW 1528   1.298   1.994   2.054  0.0286 -0.3865 -0.5193
  510SOL    HW1 1529   1.253   2.056   1.986  1.0123 -2.1590  2.1227
  510SOL    HW2 1530   1.236   1.946   2.121 -1.9255  0.1722  0.8891
  511SOL     OW 1531   3.058   2.647   1.302  0.1712 -0.3267 -0.5816
  511SOL    HW1 1532   3.030   2.620   1.204 -2.6465  0.4932 -1.2191
  511SOL    HW2 1533   2.987   2.610   1.366  2.0049  1.3691 -2.6183
  512SOL     OW 1534   2.405   0.426   1.390  0.2315 -0.3581 -0.0376
  512SOL    HW1 1535   2.310   0.456   1.419  1.3186 -0.3302 -0.2855
  512SOL    HW2 1536   2.411   0.368   1.301  0.6098 -1.4215 -1.3629
  513SOL     OW 1537   2.467   2.017   0.828  0.2156 -0.8070 -0.0340
  513SOL    HW1 1538   2.434   2.103   0.776  0.7297  1.7919  0.2451
  513SOL    HW2 1539   2.546   1.969   0.783 -1.6156 -2.9256  0.6770
  514SOL     OW 1540   0.644   2.799   0.416  0.6277 -0.3489 -0.5898
  514SOL    HW1 1541   0.608   2.849   0.332  0.7176  1.2538  1.9147
  514SOL    HW2 1542   0.648   2.863   0.497 -0.5005  0.3297 -1.4093
  515SOL     OW 1543   2.028   1.165   2.302 -0.4200  0.6121  0.7453
  515SOL    HW1 1544   1.994   1.201   2.211  0.1164  1.8605  0.8041
  515SOL    HW2 1545   1.944   1.179   2.361 -0.8583 -2.8045 -0.0173
  516SOL     OW 1546   0.278   0.253   1.959 -0.1485 -0.1138  0.2137
  516SOL    HW1 1547   0.376   0.247   1.917 -1.4010  0.7092 -0.8612
  516SOL    HW2 1548   0.210   0.192   1.915  0.3187 -1.5589  0.6337
  517SOL     OW 1549   0.362   3.039   1.218  0.5616  0.1560 -0.1441
  517SOL    HW1 1550   0.396   3.133   1.250 -1.8868  1.3626  0.6404
  517SOL    HW2 1551   0.279   3.019   1.271  1.2032  5.0388 -0.1318
  518SOL     OW 1552   2.134   3.085   1.766  0.3888  0.3957 -0.1423
  518SOL    HW1 1553   2.208   3.139   1.800 -2.0179  0.0428 -2.0274
  518SOL    HW2 1554   2.166   3.011   1.699  2.1103  0.6544 -0.6059
  519SOL     OW 1555   2.403   2.221   2.584 -0.0807 -0.1126  0.1594
  519SOL    HW1 1556   2.340   2.233   2.664  1.4023 -0.4377  1.5428
  519SOL    HW2 1557   2.473   2.295   2.591 -0.9381  0.8148  0.6321
  520SOL     OW 1558   1.754   2.864   1.859 -0.1927 -0.3626  0.1455
  520SOL    HW1 1559   1.667   2.841   1.912 -0.0596 -2.4814  0.4805
  520SOL    HW2 1560   1.818   2.781   1.846  1.9218 -1.4847 -1.9990
  521SOL     OW 1561   0.568   0.036   2.091 -0.3827  1.1371 -0.3672
  521SOL    HW1 1562   0.468   0.017   2.125  1.1742 -0.8155  0.5708
  521SOL    HW2 1563   0.634   0.021   2.171 -2.2068  3.2135 -0.5554
  522SOL     OW 1564   0.183   1.903   1.478 -0.2050 -0.0454  0.2665
  522SOL    HW1 1565   0.245   1.957   1.542 -3.0608  0.6982 -0.1422
  522SOL    HW2 1566   0.151   1.966   1.403 -1.2167  0.6845  2.0606
  523SOL     OW 1567   2.245   2.898   1.582 -0.2872 -0.2190  0.5754
  523SOL    HW1 1568   2.319   2.826   1.561  1.2113 -2.1632 -1.3052
  523SOL    HW2 1569   2.153   2.875   1.534 -1.1776  1.7152  2.1203
  524SOL     OW 1570   0.184   2.761   2.788  0.4220  0.0689  0.2899
  524SOL    HW1 1571   0.135   2.810   2.870 -0.0679  0.2792 -0.2676
  524SOL    HW2 1572   0.285   2.767   2.806 -2.1981  1.9467  2.4351
  525SOL     OW 1573   2.145   1.948   0.464 -0.3161 -0.0727  0.1751
  525SOL    HW1 1574   2.128   1.872   0.529  2.6326 -0.2297  0.0517
  525SOL    HW2 1575   2.199   1.906   0.386 -2.6632  1.6175  0.8818
  526SOL     OW 1576   0.437   1.524   1.604 -0.2120  0.0042 -0.1405
  526SOL    HW1 1577   0.376   1.493   1.681  3.7084 -1.8005 -0.5112
  526SOL    HW2 1578   0.488   1.443   1.562 -2.9596  0.2786 -3.1751
  527SOL     OW 1579   1.082   2.922   1.277 -0.0198 -0.0752 -0.6838
  527SOL    HW1 1580   1.185   2.898   1.267  0.6827  0.1205 -2.7911
  527SOL    HW2 1581   1.070   3.024   1.278  0.4231 -2.5126 -2.3608
  528SOL     OW 1582   1.352   2.409   0.487  0.1579 -0.0043 -0.2130
  528SOL    HW1 1583   1.393   2.314   0.499  1.9282 -0.8995 -0.4738
  528SOL    HW2 1584   1.393   2.483   0.551 -1.8890 -0.4423  1.8875
  529SOL     OW 1585   1.889   1.700   0.810 -0.2061  0.3191  0.2889
  529SOL    HW1 1586   1.856   1.717   0.711 -2.0119  0.8955 -2.4081
  529SOL    HW2 1587   1.897   1.786   0.869  2.3348 -0.5425  0.1036
  530SOL     OW 1588   0.280   2.469   0.345 -0.0408 -0.3734 -0.0564
  530SOL    HW1 1589   0.278   2.561   0.391  0.9154 -1.6390 -3.7428
  530SOL    HW2 1590   0.353   2.405   0.387  1.0559 -2.7661  0.1135
  531SOL     OW 1591   1.819   1.006   0.997  0.1616 -1.0648  0.0133
  531SOL    HW1 1592   1.858   0.974   0.906 -1.3588  0.2910  0.9690
  531SOL    HW2 1593   1.718   1.004   1.002 -0.0478  1.9212  0.9897
  532SOL     OW 1594   0.496   1.061   0.788 -0.2484 -0.0497 -0.4015
  532SOL    HW1 1595   0.517   1.091   0.690 -1.1235 -1.1446 -2.6813
  532SOL    HW2 1596   0.434   0.978   0.798  0.1948  1.2388  1.6658
  533SOL     OW 1597   1.766   0.029   2.574 -0.2527  0.4388  0.1681
  533SOL    HW1 1598   1.868   0.018   2.570 -0.8121  3.7198 -0.2614
  533SOL    HW2 1599   1.736   0.111   2.629  0.2280 -2.4359  1.0329
  534SOL     OW 1600   0.370   0.226   1.573 -0.0795 -0.3018 -0.0498
  534SOL    HW1 1601   0.471   0.242   1.563  1.6867 -1.7860 -1.2179
  534SOL    HW2 1602   0.313   0.314   1.564  1.4446  3.2508 -1.0986
  535SOL     OW 1603   1.953   0.358   0.157  0.1607  0.4281  0.1189
  535SOL    HW1 1604   1.961   0.439   0.230 -0.1812  1.7642 -0.3507
  535SOL    HW2 1605   1.963   0.264   0.205  0.6354 -0.3983  0.9492
  536SOL     OW 1606   1.412   2.658   0.964  0.4863 -0.1032  0.2181
  536SOL    HW1 1607   1.392   2.601   1.042  1.3644  3.2819 -2.5884
  536SOL    HW2 1608   1.327   2.679   0.906  0.3687 -2.8388  0.7297
  537SOL     OW 1609   0.803   0.277   2.417  0.2715 -0.0227 -0.0179
  537SOL    HW1 1610   0.824   0.329   2.331 -0.2510 -0.3767  2.2914
  537SOL    HW2 1611   0.767   0.180   2.402 -0.6985  1.4087  1.5106
  538SOL     OW 1612   1.662   2.298   1.401  0.0569 -0.1338 -0.9065
  538SOL    HW1 1613   1.658   2.196   1.407 -0.4283  0.6619  2.6060
  538SOL    HW2 1614   1.759   2.331   1.403  0.4976 -1.0979 -1.9010
  539SOL     OW 1615   0.187   1.637   2.688  0.6003 -0.0564  0.3881
  539SOL    HW1 1616   0.094   1.614   2.649 -0.7259 -0.1669  0.6560
  539SOL    HW2 1617   0.191   1.725   2.737 -1.2377  0.5531  0.8061
  540SOL     OW 1618   2.661   1.747   1.924 -0.7857 -0.3952  0.3351
  540SOL    HW1 1619   2.604   1.670   1.959  1.4180 -0.3363 -1.3817
  540SOL    HW2 1620   2.609   1.832   1.916  1.7830 -1.5033  0.1193
  541SOL     OW 1621   0.569   2.175   0.016  0.4613 -0.0982  0.0706
  541SOL    HW1 1622   0.613   2.157   0.110  0.8263 -0.6695  2.1477
  541SOL    HW2 1623   0.464   2.180   0.022 -0.1263 -2.5685 -2.0504
  542SOL     OW 1624   2.196   2.594   0.432  0.5315  0.3692  0.8448
  542SOL    HW1 1625   2.105   2.643   0.428  2.4427  0.8969  1.9635
  542SOL    HW2 1626   2.178   2.493   0.449 -0.9938  0.1900 -0.6774
  543SOL     OW 1627   1.105   1.793   1.562 -0.2500 -0.3470  0.5916
  543SOL    HW1 1628   1.092   1.833   1.655  1.2463  0.1163 -2.1216
  543SOL    HW2 1629   1.044   1.838   1.489 -3.4029 -0.6248 -0.8993
  544SOL     OW 1630   1.099   0.489   0.166  0.0154  0.4327 -0.2899
  544SOL    HW1 1631   1.094   0.404   0.227  2.9363 -0.4803 -0.9086
  544SOL    HW2 1632   1.135   0.464   0.070 -2.9305 -2.0395  1.3177
  545SOL     OW 1633   1.104   1.765   0.776 -0.4664  0.1317 -0.0134
  545SOL    HW1 1634   1.190   1.785   0.724  1.1300 -1.7075  0.7371
  545SOL    HW2 1635   1.121   1.685   0.838  0.3489  1.2193  2.1492
  546SOL     OW 1636   2.676   1.559   3.012  0.3726 -0.2231  0.4159
  546SOL    HW1 1637   2.677   1.663   3.003  1.2903  1.1254  2.4332
  546SOL    HW2 1638   2.585   1.521   3.003  1.7626  3.4019 -3.0944
  547SOL     OW 1639   0.620   3.011   2.572  0.1450 -0.0877 -0.7362
  547SOL    HW1 1640   0.690   3.022   2.651  0.3852  0.8775  3.0141
  547SOL    HW2 1641   0.539   2.949   2.585  3.5970 -0.4294 -1.4331
  548SOL     OW 1642   2.064   0.842   3.006 -0.4179 -0.1315  0.6344
  548SOL    HW1 1643   1.962   0.816   3.016 -0.7404  0.9678  2.1707
  548SOL    HW2 1644   2.080   0.936   3.054  0.2147  1.6264  1.0077
  549SOL     OW 1645   0.649   0.598   0.217 -0.2387 -0.2065  0.6598
  549SOL    HW1 1646   0.588   0.629   0.147  1.6688 -0.5669 -0.7528
  549SOL    HW2 1647   0.747   0.631   0.213  0.6556 -0.1068 -0.6246
  550SOL     OW 1648   2.584   2.807   2.897 -0.7327  0.2490 -0.2652
  550SOL    HW1 1649   2.529   2.746   2.960  0.2086 -1.0600 -0.8173
  550SOL    HW2 1650   2.645   2.749   2.840 -2.2717 -0.6197  0.6823
  551SOL     OW 1651   0.253   0.927   0.265 -0.5224  0.2714 -0.1574
  551SOL    HW1 1652   0.353   0.950   0.236 -1.3355 -1.2233 -2.0632
  551SOL    HW2 1653   0.252   0.909   0.366 -0.6520  0.1122 -1.1867
  552SOL     OW 1654   0.663   2.994   1.864  0.3979 -0.8296  0.1562
  552SOL    HW1 1655   0.652   3.062   1.938 -2.2559 -1.3881  0.1238
  552SOL    HW2 1656   0.757   2.990   1.826 -1.4246  0.1385  1.1554
  553SOL     OW 1657   2.893   2.422   0.355 -0.3693 -0.3881 -0.4058
  553SOL    HW1 1658   2.853   2.336   0.394  1.7854 -2.6025 -1.5503
  553SOL    HW2 1659   2.823   2.486   0.325  3.7749 -1.0955  2.7609
  554SOL     OW 1660   2.127   0.344   0.480  0.0935  0.6465 -0.6418
  554SOL    HW1 1661   2.195   0.349   0.404  0.6076  0.2659 -1.6579
  554SOL    HW2 1662   2.146   0.274   0.555  1.0271  0.7074 -1.6743
  555SOL     OW 1663   0.393   2.804   2.519  0.5296  0.3080 -0.3663
  555SOL    HW1 1664   0.313   2.862   2.483 -1.8554  1.3224  0.0863
  555SOL    HW2 1665   0.455   2.756   2.449 -0.7318  0.9936  2.1616
  556SOL     OW 1666   0.876   2.375   1.585 -0.1074 -0.0788 -0.0478
  556SOL    HW1 1667   0.906   2.465   1.636 -0.7700  0.2804  4.0151
  556SOL    HW2 1668   0.938   2.342   1.508  0.7176  1.4516  1.2480
  557SOL     OW 1669   0.136   2.038   0.209 -0.0786  0.5702 -0.3844
  557SOL    HW1 1670   0.085   1.985   0.139  2.7491  0.2924 -0.6221
  557SOL    HW2 1671   0.192   2.109   0.169  0.4597 -2.2380  0.3662
  558SOL     OW 1672   2.768   2.202   0.440 -0.4515  0.3021 -0.0097
  558SOL    HW1 1673   2.667   2.219   0.419  1.2294 -2.9018  1.6105
  558SOL    HW2 1674   2.797   2.113   0.395 -3.0169  1.3617 -1.8470
  559SOL     OW 1675   0.432   2.315   1.369  0.1926  0.0681 -0.0800
  559SOL    HW1 1676   0.346   2.339   1.315  1.3390 -0.9112  2.1723
  559SOL    HW2 1677   0.481   2.229   1.331  0.9433  0.5210 -0.3012
  560SOL     OW 1678   2.103   1.109   3.076 -0.2267 -0.3741  0.0637
  560SOL    HW1 1679   2.162   1.139   3.157 -0.0700  1.5433  0.4356
  560SOL    HW2 1680   2.161   1.111   2.991  1.0632 -2.4237 -2.5638
  561SOL     OW 1681   0.019   1.873   3.087  0.2101  0.6671  0.1129
  561SOL    HW1 1682  -0.005   1.802   3.160 -1.2412  1.3703 -0.7376
  561SOL    HW2 1683  -0.050   1.951   3.075 -0.9340 -2.3478  1.3448
  562SOL     OW 1684   1.054   2.172   2.345  0.6463 -0.2537  0.1852
  562SOL    HW1 1685   1.033   2.271   2.366  0.6631  2.7057 -1.0519
  562SOL    HW2 1686   1.006   2.100   2.393 -0.6003  2.2441  1.3168
  563SOL     OW 1687   0.700   2.523   2.620 -0.1092 -0.0782 -0.0265
  563SOL    HW1 1688   0.790   2.473   2.611 -0.0389  1.3092  2.2102
  563SOL    HW2 1689   0.703   2.585   2.703  0.5812 -0.1931 -0.8932
  564SOL     OW 1690   2.893   1.426   2.934  0.5347  0.0800 -0.0461
  564SOL    HW1 1691   2.802   1.471   2.955  2.0910 -0.1822 -0.7976
  564SOL    HW2 1692   2.967   1.491   2.902  1.4581  2.1960 -3.1740
  565SOL     OW 1693   2.489   1.953   2.652  0.2779 -0.3550 -0.2023
  565SOL    HW1 1694   2.469   2.048   2.619 -3.5848  1.4056  1.6676
  565SOL    HW2 1695   2.581   1.944   2.695  0.3441 -1.4063 -1.0783
  566SOL     OW 1696   1.999   2.884   1.468 -0.1413  0.2893  0.0178
  566SOL    HW1 1697   1.947   2.803   1.496 -0.0104  1.1684 -1.0684
  566SOL    HW2 1698   2.000   2.892   1.365 -0.5181 -1.0914  0.6378
  567SOL     OW 1699   2.446   0.001   2.321 -0.2930  0.2713  0.0891
  567SOL    HW1 1700   2.347   0.027   2.341  0.3280 -0.4337 -0.4867
  567SOL    HW2 1701   2.474   0.010   2.220  2.5117  0.2029 -0.9120
  568SOL     OW 1702   1.540   1.796   0.290  0.3593 -0.3867  0.5443
  568SOL    HW1 1703   1.486   1.873   0.244  0.9338  0.4153  0.4203
  568SOL    HW2 1704   1.643   1.808   0.281 -0.2044  1.3237  2.2633
  569SOL     OW 1705   0.237   0.629   0.812  0.4577  0.2166  0.8239
  569SOL    HW1 1706   0.310   0.560   0.785  1.5144  1.5290 -0.1927
  569SOL    HW2 1707   0.138   0.589   0.824  0.6032  3.2940 -1.4091
  570SOL     OW 1708   0.639   0.872   2.864 -0.6781 -0.1066  0.1918
  570SOL    HW1 1709   0.729   0.878   2.814  1.3818 -0.9200 -0.6688
  570SOL    HW2 1710   0.639   0.922   2.953 -0.0337 -1.6244 -0.9702
  571SOL     OW 1711   0.831   0.014   1.123  0.3296 -0.2773 -0.0426
  571SOL    HW1 1712   0.870   0.031   1.027  1.0062 -2.4267 -2.7908
  571SOL    HW2 1713   0.811  -0.086   1.146 -1.6646 -2.8663 -0.6199
  572SOL     OW 1714   1.604   2.671   1.377  0.1541  0.4574 -0.0796
  572SOL    HW1 1715   1.573   2.606   1.301  3.1442  2.0458  1.1135
  572SOL    HW2 1716   1.639   2.766   1.346 -1.9138  2.1431 -1.8893
  573SOL     OW 1717   3.031   0.484   2.033  0.8064 -0.1635  0.0410
  573SOL    HW1 1718   2.979   0.404   2.060  2.8738  1.9864 -0.6872
  573SOL    HW2 1719   3.077   0.472   1.941  1.7183 -0.5966 -1.2812
  574SOL     OW 1720   0.173   1.761   1.134  0.0111 -0.1177  0.0141
  574SOL    HW1 1721   0.226   1.807   1.210 -0.0515 -0.3285  2.0764
  574SOL    HW2 1722   0.072   1.783   1.137 -0.9140  0.0956 -1.8307
  575SOL     OW 1723   0.859   2.186   0.952  0.6943  0.0024 -0.2788
  575SOL    HW1 1724   0.817   2.231   1.040 -0.3595  2.2199  1.5619
  575SOL    HW2 1725   0.890   2.251   0.882  0.7479 -0.3632  2.1088
  576SOL     OW 1726   2.898   3.014   1.690  0.0885  0.4525  0.3976
  576SOL    HW1 1727   2.795   3.007   1.702 -0.7840  0.8366 -3.2852
  576SOL    HW2 1728   2.935   3.101   1.647  1.1873  3.0187 -1.2250
  577SOL     OW 1729   2.665   1.231   0.019  0.2355  0.4372  0.2605
  577SOL    HW1 1730   2.710   1.162  -0.041  0.1236 -0.2576  1.4522
  577SOL    HW2 1731   2.689   1.236   0.120  1.2889 -1.2023  0.1355
  578SOL     OW 1732   1.410   2.796   2.505 -0.0178 -0.2685  0.4990
  578SOL    HW1 1733   1.328   2.847   2.471  0.2268  0.3294 -0.9563
  578SOL    HW2 1734   1.496   2.852   2.499 -1.2894 -0.6195  2.0784
  579SOL     OW 1735   0.015   2.459   0.198  0.6131 -0.4587  0.3861
  579SOL    HW1 1736  -0.068   2.440   0.256  0.6888  2.3199  0.8389
  579SOL    HW2 1737   0.093   2.500   0.254  1.5384  0.7900  0.1329
  580SOL     OW 1738   0.979   2.660   0.395 -0.5050 -0.7771  0.0665
  580SOL    HW1 1739   1.071   2.666   0.346 -0.4174  2.2852  1.7791
  580SOL    HW2 1740   0.903   2.655   0.324  2.4705  2.0729  2.0213
  581SOL     OW 1741   1.284   2.674   1.455  0.4789  0.4851  0.3201
  581SOL    HW1 1742   1.358   2.605   1.477  0.3416  1.0057 -0.7411
  581SOL    HW2 1743   1.327   2.750   1.394  4.2753 -0.2868 -0.6744
  582SOL     OW 1744   1.487   0.102   1.913 -0.4657 -0.2762  0.2011
  582SOL    HW1 1745   1.499   0.166   1.990 -0.1597 -0.3991  0.3225
  582SOL    HW2 1746   1.564   0.125   1.843  2.5432  2.0216  1.9217
  583SOL     OW 1747   2.427   3.085   0.530  0.2356  0.6106 -0.0165
  583SOL    HW1 1748   2.523   3.044   0.517  1.1216  0.3950  0.2510
  583SOL    HW2 1749   2.361   3.011   0.557  1.2137  1.4614  0.9265
  584SOL     OW 1750   1.565   1.127   2.295 -0.6440 -0.3343  0.5518
  584SOL    HW1 1751   1.597   1.213   2.239 -6.7721  0.9987 -0.3218
  584SOL    HW2 1752   1.646   1.074   2.329 -0.5156  0.6605  4.1808
  585SOL     OW 1753   2.078   2.681   2.897 -0.5377  0.2665  0.2116
  585SOL    HW1 1754   2.099   2.584   2.873 -1.1421 -0.6889 -0.9750
  585SOL    HW2 1755   1.973   2.699   2.902 -0.4807 -1.8790 -0.0600
  586SOL     OW 1756   2.895   0.396   1.528 -0.2918  0.1234 -0.2786
  586SOL    HW1 1757   2.864   0.482   1.584  3.1797  0.0422  1.2158
  586SOL    HW2 1758   2.833   0.355   1.459 -1.4216  0.4415 -1.4852
  587SOL     OW 1759   2.086   1.457   2.673  0.4418  0.0207  0.8721
  587SOL    HW1 1760   2.138   1.399   2.601 -1.1889 -0.5182  0.0269
  587SOL    HW2 1761   2.136   1.470   2.764  0.5440 -1.5939 -0.4685
  588SOL     OW 1762   0.534   2.687   2.316  0.0754 -0.1039  0.4885
  588SOL    HW1 1763   0.492   2.698   2.223  1.0207 -2.3988  3.3083
  588SOL    HW2 1764   0.523   2.593   2.355  2.0055 -1.9162  0.1945
  589SOL     OW 1765   2.190   1.288   2.495 -0.1627  0.0663  0.1360
  589SOL    HW1 1766   2.151   1.216   2.433 -1.7139 -0.9403 -2.0929
  589SOL    HW2 1767   2.297   1.288   2.497  0.5019  0.6570  0.0113
  590SOL     OW 1768   2.367   1.773   2.068  0.4593 -0.6343  0.0869
  590SOL    HW1 1769   2.417   1.680   2.064  0.8611  1.8264 -2.1920
  590SOL    HW2 1770   2.333   1.794   2.167 -0.6079  1.7994 -0.8663
  591SOL     OW 1771   1.226   2.400   0.225 -0.3228 -0.6709  0.4129
  591SOL    HW1 1772   1.250   2.312   0.174  3.5700 -1.3755 -0.1136
  591SOL    HW2 1773   1.233   2.393   0.326  2.3099  0.9973 -4.6434
  592SOL     OW 1774   1.780   2.330   0.790 -0.2495  0.3575 -0.3671
  592SOL    HW1 1775   1.783   2.381   0.701  0.9986 -0.4373  3.3810
  592SOL    HW2 1776   1.873   2.302   0.823  0.1011 -2.3677  1.2259
  593SOL     OW 1777   0.731   0.281   0.217  0.2325  0.8016 -0.2123
  593SOL    HW1 1778   0.786   0.280   0.128  0.9661 -1.2606  0.6205
  593SOL    HW2 1779   0.685   0.372   0.230 -0.1277  0.8654  2.4831
  594SOL     OW 1780   1.051   1.836   2.707 -0.2977  0.3171 -0.2760
  594SOL    HW1 1781   1.144   1.819   2.657  0.8338 -1.0971 -1.7359
  594SOL    HW2 1782   1.051   1.871   2.809 -1.0096  2.2796  2.8720
  595SOL     OW 1783   1.546   0.053   0.994 -0.6228 -0.2145  0.4524
  595SOL    HW1 1784   1.608  -0.014   0.950 -0.3991  1.6876 -1.7925
  595SOL    HW2 1785   1.455   0.053   0.945 -1.4615 -1.0959 -0.6247
  596SOL     OW 1786   0.058   1.509   2.288  0.0511 -0.7779 -0.0880
  596SOL    HW1 1787   0.123   1.432   2.319  3.3065 -3.4667  0.1066
  596SOL    HW2 1788   0.033   1.577   2.363  0.6990  1.3788 -1.5943
  597SOL     OW 1789   1.982   2.667   1.831  0.9009 -0.3818  0.8361
  597SOL    HW1 1790   1.944   2.659   1.736  1.2538 -0.0873  2.4833
  597SOL    HW2 1791   2.078   2.634   1.835 -0.7187  5.5321  0.7466
  598SOL     OW 1792   2.537   2.887   1.221 -0.6070 -0.1983 -0.0812
  598SOL    HW1 1793   2.626   2.918   1.274  1.4228 -0.2698  1.9478
  598SOL    HW2 1794   2.544   2.889   1.118  2.0287  1.2339 -1.2239
  599SOL     OW 1795   2.825   0.264   2.498 -0.5842 -0.1546  0.0108
  599SOL    HW1 1796   2.915   0.283   2.452 -1.3678 -4.6087  1.2460
  599SOL    HW2 1797   2.746   0.316   2.461  1.5301 -1.4918  1.7674
  600SOL     OW 1798   2.818   1.205   2.765 -0.1818  0.2503  0.0415
  600SOL    HW1 1799   2.721   1.179   2.773  0.8210  0.8469  1.1591
  600SOL    HW2 1800   2.839   1.307   2.780 -1.9547  0.0909 -1.2439
  601SOL     OW 1801   3.070   1.353   2.007 -0.6064 -0.0664  0.1065
  601SOL    HW1 1802   2.976   1.385   1.980  2.9337 -0.6839 -2.4433
  601SOL    HW2 1803   3.136   1.433   2.004  1.7777  1.1670  0.0916
  602SOL     OW 1804   1.480   1.592   2.287  0.2080 -0.1675 -0.8911
  602SOL    HW1 1805   1.392   1.561   2.337  0.1534 -1.4111  1.4417
  602SOL    HW2 1806   1.563   1.603   2.352 -0.1298 -3.0913 -0.3514
  603SOL     OW 1807   0.674   1.128   2.722  0.2872  0.1928 -0.0796
  603SOL    HW1 1808   0.572   1.134   2.717 -0.1184 -3.6094  0.7239
  603SOL    HW2 1809   0.708   1.042   2.676 -0.4893  0.7531 -3.0993
  604SOL     OW 1810   2.463   0.976   0.159  0.1856 -0.4859  0.4374
  604SOL    HW1 1811   2.491   1.065   0.112  0.8584  0.6923  0.3360
  604SOL    HW2 1812   2.479   0.891   0.102 -1.3630  0.7668 -0.2396
  605SOL     OW 1813   2.508   1.161   1.963 -0.1034 -0.5149 -0.2711
  605SOL    HW1 1814   2.549   1.107   1.883  0.4449 -2.5842 -1.3132
  605SOL    HW2 1815   2.565   1.237   2.006  2.0689 -0.9547 -2.5449
  606SOL     OW 1816   1.487   2.552   2.547  0.3524 -0.4171 -0.4699
  606SOL    HW1 1817   1.442   2.648   2.534 -0.9099  1.0929  0.9144
  606SOL    HW2 1818   1.425   2.473   2.536 -0.7208  1.3639  0.8378
  607SOL     OW 1819   1.326   1.605   0.280 -1.2269  0.0353 -0.4160
  607SOL    HW1 1820   1.237   1.657   0.284  2.4346 -1.7943 -2.4355
  607SOL    HW2 1821   1.409   1.663   0.301 -0.9848 -0.4296 -1.6279
  608SOL     OW 1822   1.432   2.854   0.395 -0.1210 -0.1326  0.3651
  608SOL    HW1 1823   1.457   2.881   0.298  0.7062 -1.1957 -0.7769
  608SOL    HW2 1824   1.346   2.905   0.425 -0.1030 -1.5291  0.2952
  609SOL     OW 1825   1.344   1.360   0.179  0.3713  0.2283 -0.5476
  609SOL    HW1 1826   1.328   1.456   0.230  2.2974 -0.4148 -0.2269
  609SOL    HW2 1827   1.284   1.350   0.098  1.2076  2.4481  1.9584
  610SOL     OW 1828   3.005   1.192   2.276  0.1518  0.1811 -0.3127
  610SOL    HW1 1829   2.997   1.097   2.237  0.4159  1.2989  0.6720
  610SOL    HW2 1830   3.032   1.260   2.202  1.0483 -0.8220  1.4514
  611SOL     OW 1831   2.499   0.263   1.184  0.1808 -0.0624  0.1753
  611SOL    HW1 1832   2.439   0.175   1.191 -2.5506 -0.5853  2.3043
  611SOL    HW2 1833   2.585   0.257   1.246 -1.4164 -1.7220  2.8362
  612SOL     OW 1834   0.755   2.292   1.169  0.4639  0.2089 -0.2598
  612SOL    HW1 1835   0.698   2.220   1.214  0.9096  0.1610  0.5673
  612SOL    HW2 1836   0.702   2.385   1.159 -2.4157 -1.0425 -0.1755
  613SOL     OW 1837   0.849   1.389   2.381 -0.2353 -0.2338  0.5356
  613SOL    HW1 1838   0.841   1.459   2.305 -0.1802 -3.4658  0.5178
  613SOL    HW2 1839   0.797   1.301   2.358 -1.3867  3.0486 -0.7252
  614SOL     OW 1840   1.556   1.675   1.814  0.1238  0.4868 -0.3465
  614SOL    HW1 1841   1.518   1.771   1.800  3.6742  2.2988  0.1147
  614SOL    HW2 1842   1.650   1.686   1.858  1.0655  1.9708 -1.1733
  615SOL     OW 1843   0.756   1.386   1.731 -0.1461 -0.1070  0.0242
  615SOL    HW1 1844   0.731   1.323   1.647  2.2397 -0.9049 -0.4772
  615SOL    HW2 1845   0.818   1.461   1.703 -0.2256  0.1881  1.7992
  616SOL     OW 1846   1.118   1.537   2.143  0.5931 -0.4216 -0.3469
  616SOL    HW1 1847   1.019   1.568   2.154  1.1509 -0.8169  2.2341
  616SOL    HW2 1848   1.167   1.587   2.063  0.0962  0.0129 -1.9194
  617SOL     OW 1849   3.003   1.515   1.638  0.1734  0.4742  0.5013
  617SOL    HW1 1850   2.985   1.429   1.694  1.8627  0.3191  2.8726
  617SOL    HW2 1851   2.994   1.501   1.536 -0.7856  2.2101  2.2304
  618SOL     OW 1852   1.932   1.940   1.432  0.0316  0.1938 -0.0089
  618SOL    HW1 1853   2.031   1.939   1.406  0.6325  1.1429  0.6586
  618SOL    HW2 1854   1.915   1.879   1.510  0.4024 -2.7180 -1.4342
  619SOL     OW 1855   1.691   0.450   2.362  0.2359  0.4509 -0.3193
  619SOL    HW1 1856   1.628   0.517   2.307  0.8550 -0.8940  1.2054
  619SOL    HW2 1857   1.649   0.360   2.394  1.8049 -1.2847 -1.3390
  620SOL     OW 1858   2.207   2.941   0.573  0.4515  0.0061  0.1321
  620SOL    HW1 1859   2.126   3.009   0.566 -2.2119 -0.2500  0.9959
  620SOL    HW2 1860   2.227   2.911   0.668 -0.6388  0.1686 -0.1801
  621SOL     OW 1861   2.228   1.892   1.355 -0.0033  0.0665  0.5873
  621SOL    HW1 1862   2.227   1.907   1.459 -0.5230  0.3728  1.4747
  621SOL    HW2 1863   2.231   1.786   1.333 -0.3613  0.5798  1.1834
  622SOL     OW 1864   2.203   0.897   1.771  0.7154  0.5593  0.4339
  622SOL    HW1 1865   2.285   0.836   1.753 -0.0074  3.3155 -1.3543
  622SOL    HW2 1866   2.161   0.867   1.863  0.8040  2.2746  2.2763
  623SOL     OW 1867   1.339   0.785   2.578  0.1062  0.3785 -0.7142
  623SOL    HW1 1868   1.279   0.742   2.650 -2.9804 -0.2682  0.5469
  623SOL    HW2 1869   1.287   0.825   2.500 -1.6024  3.4075  1.1406
  624SOL     OW 1870   0.511   0.724   3.092  0.5393  0.1923  0.4461
  624SOL    HW1 1871   0.580   0.760   3.028 -4.2104 -2.9874  3.1028
  624SOL    HW2 1872   0.488   0.790   3.167 -1.1396 -0.9180 -1.3601
  625SOL     OW 1873   2.765   1.699   0.890 -0.5494 -0.5879  0.0715
  625SOL    HW1 1874   2.694   1.744   0.949  0.6860 -0.3390  0.0389
  625SOL    HW2 1875   2.773   1.599   0.908 -0.0148 -1.2123 -0.6531
  626SOL     OW 1876   0.510   2.753   1.896 -0.2908  0.4280  0.8951
  626SOL    HW1 1877   0.575   2.829   1.927  0.5042 -0.4897  0.9754
  626SOL    HW2 1878   0.410   2.783   1.886  0.6236  0.5274 -1.7811
  627SOL     OW 1879   0.734   1.029   1.521  0.5027  0.1434 -0.4081
  627SOL    HW1 1880   0.786   0.942   1.504 -1.5840 -2.4216  4.0200
  627SOL    HW2 1881   0.754   1.102   1.448  3.3374  0.4923 -0.6387
  628SOL     OW 1882   2.431   0.197   0.708  0.3756 -0.6288  0.0298
  628SOL    HW1 1883   2.462   0.111   0.654 -2.3870  0.4030  1.3220
  628SOL    HW2 1884   2.329   0.211   0.708 -0.0159 -2.3917  1.1436
  629SOL     OW 1885   1.972   0.932   1.976  0.0686  0.6354  0.1423
  629SOL    HW1 1886   2.050   0.945   2.043  1.3545 -0.5586  1.6210
  629SOL    HW2 1887   1.939   1.021   1.937 -0.8408 -2.8413 -1.1206
  630SOL     OW 1888   2.729   2.178   0.770 -0.0750  0.4253 -0.0036
  630SOL    HW1 1889   2.663   2.239   0.828  3.1700 -0.2957 -0.0747
  630SOL    HW2 1890   2.711   2.073   0.764 -0.4932 -1.4679  0.0593
  631SOL     OW 1891   3.002   0.221   2.099 -0.0818  0.3202 -0.0631
  631SOL    HW1 1892   3.057   0.255   2.178 -0.7815 -2.1992 -0.1980
  631SOL    HW2 1893   3.056   0.186   2.019  2.1803 -2.9587  0.8886
  632SOL     OW 1894   2.329   2.498   0.664 -1.1067  0.6412  0.0124
  632SOL    HW1 1895   2.414   2.542   0.699 -0.3824 -1.1194  4.2316
  632SOL    HW2 1896   2.293   2.540   0.576 -0.6065 -1.2708  0.7196
  633SOL     OW 1897   1.600   1.273   2.582  0.0673  0.4105  0.0908
  633SOL    HW1 1898   1.569   1.345   2.648 -1.4014 -0.7716 -0.1587
  633SOL    HW2 1899   1.529   1.252   2.511  1.7606 -2.5964 -0.7098
  634SOL     OW 1900   0.630   2.026   0.996  0.2833  0.3407  0.2063
  634SOL    HW1 1901   0.592   2.102   1.052  0.2664 -0.5785  2.1946
  634SOL    HW2 1902   0.723   2.051   0.960 -2.1948 -0.8488  2.3782
  635SOL     OW 1903   0.052   2.306   3.052 -0.1781 -0.2233  0.1347
  635SOL    HW1 1904   0.013   2.356   2.970  0.8607  3.2255 -0.3396
  635SOL    HW2 1905   0.040   2.365   3.136  2.2133 -2.8170  2.3136
  636SOL     OW 1906   2.287   2.802   1.995 -0.2539  0.1031  0.0905
  636SOL    HW1 1907   2.310   2.905   1.988  0.8596  2.8770  0.5206
  636SOL    HW2 1908   2.249   2.769   2.082 -2.3020  0.1586  1.4491
  637SOL     OW 1909   2.541   0.703   2.044  0.1932  0.2944  0.3458
  637SOL    HW1 1910   2.520   0.682   1.944 -0.7677  0.6555  1.0021
  637SOL    HW2 1911   2.599   0.789   2.064  0.3254  0.5196 -0.7426
  638SOL     OW 1912   2.514   1.869   1.322  0.5813 -0.2998  0.0947
  638SOL    HW1 1913   2.405   1.876   1.323 -2.7656  2.0178  0.7130
  638SOL    HW2 1914   2.544   1.778   1.366  0.6207  1.5716  0.3445
  639SOL     OW 1915   1.311   2.224   1.614  0.0898  0.4177  0.2860
  639SOL    HW1 1916   1.322   2.158   1.531 -0.1550  0.6351  1.7104
  639SOL    HW2 1917   1.228   2.202   1.671  2.7725 -0.0342 -0.7327
  640SOL     OW 1918   0.169   1.201   1.567 -0.0969 -0.2512 -0.3613
  640SOL    HW1 1919   0.156   1.277   1.639  0.3797  3.2486 -0.7805
  640SOL    HW2 1920   0.250   1.144   1.594  1.5511  0.8637 -2.4500
  641SOL     OW 1921   1.987   0.152   1.480 -0.0157  0.5015 -0.1191
  641SOL    HW1 1922   1.898   0.191   1.510  0.4873  0.7868 -0.9982
  641SOL    HW2 1923   2.031   0.097   1.558 -0.9994  3.8603 -0.6704
  642SOL     OW 1924   1.976   0.111   0.311  0.7272 -0.6810 -0.1175
  642SOL    HW1 1925   2.083   0.106   0.317  0.8410 -1.0880  2.0605
  642SOL    HW2 1926   1.936   0.078   0.402 -0.7697 -0.9253 -3.5587
  643SOL     OW 1927   2.870   1.866   2.081 -0.2032 -0.1610  0.4167
  643SOL    HW1 1928   2.810   1.791   2.035  0.8608  0.4430 -2.4410
  643SOL    HW2 1929   2.867   1.959   2.032 -1.1285  0.7048  1.1270
  644SOL     OW 1930   2.186   2.302   1.201  0.4828 -0.6343  0.5202
  644SOL    HW1 1931   2.274   2.265   1.158 -1.7825  2.8741 -0.8387
  644SOL    HW2 1932   2.182   2.292   1.306 -0.2169  0.9886 -0.3341
  645SOL     OW 1933   0.590   0.794   1.162  0.2968  0.4209  0.2387
  645SOL    HW1 1934   0.519   0.731   1.117  0.7456  2.8109 -2.9038
  645SOL    HW2 1935   0.617   0.875   1.098 -2.8441  1.9690 -1.4698
  646SOL     OW 1936   1.515   1.946   1.815 -0.1233  0.3791  0.1200
  646SOL    HW1 1937   1.599   2.009   1.800 -0.2955  0.3655  1.1628
  646SOL    HW2 1938   1.451   1.977   1.889  0.9132 -1.1991 -2.1769
  647SOL     OW 1939   0.868   0.939   0.667 -0.4735 -0.7968 -0.1625
  647SOL    HW1 1940   0.958   0.932   0.716 -1.4308 -0.4833 -0.0063
  647SOL    HW2 1941   0.782   0.891   0.711 -2.1023  2.5253 -0.7967
  648SOL     OW 1942   0.188   0.173   0.314  0.4648  0.2215  0.5203
  648SOL    HW1 1943   0.184   0.099   0.247 -0.5246  0.3827  0.0187
  648SOL    HW2 1944   0.155   0.257   0.269  1.8498 -2.7803  0.3467
  649SOL     OW 1945  -0.004   0.125   0.930  0.0015 -0.4880 -0.0811
  649SOL    HW1 1946   0.098   0.103   0.924  0.9393  1.2033  3.2442
  649SOL    HW2 1947  -0.018   0.176   1.021  0.4081  0.0076 -1.3370
  650SOL     OW 1948   2.716   0.717   1.400  0.0581  0.0641  0.6247
  650SOL    HW1 1949   2.626   0.698   1.445  2.0393 -2.5339  0.3601
  650SOL    HW2 1950   2.699   0.786   1.326 -0.3238  2.6543  0.0477
  651SOL     OW 1951   0.906   1.600   1.622  0.3806  0.0828 -0.1480
  651SOL    HW1 1952   1.002   1.634   1.602 -2.1009 -0.1322 -3.0474
  651SOL    HW2 1953   0.851   1.606   1.532  1.5188  1.5468 -1.5746
  652SOL     OW 1954   2.233   2.501   2.394  0.6440  0.2718 -0.5381
  652SOL    HW1 1955   2.159   2.497   2.473  1.0061  1.2264  0.6070
  652SOL    HW2 1956   2.210   2.569   2.321  0.5250 -2.1196 -1.9698
  653SOL     OW 1957   2.699   1.187   0.291 -0.0992  0.3192  0.2455
  653SOL    HW1 1958   2.759   1.266   0.309 -0.9087 -2.0717 -0.8201
  653SOL    HW2 1959   2.750   1.097   0.307 -0.9181 -2.5301 -1.8588
  654SOL     OW 1960   1.284   2.289   1.231 -0.0135 -0.6316  0.0264
  654SOL    HW1 1961   1.306   2.213   1.295  3.2747  0.3761  1.0991
  654SOL    HW2 1962   1.332   2.270   1.140 -0.4658  0.5244  0.6589
  655SOL     OW 1963   0.209   1.023   1.849  0.0583  0.2209  0.0947
  655SOL    HW1 1964   0.259   0.940   1.820 -2.6561  0.3608 -1.4543
  655SOL    HW2 1965   0.272   1.104   1.841  0.8623  1.8666  1.5235
  656SOL     OW 1966   2.519   2.493   2.586 -0.1000  0.1444 -0.4390
  656SOL    HW1 1967   2.609   2.503   2.526  1.6642  0.7676 -2.0853
  656SOL    HW2 1968   2.435   2.484   2.527  1.7074 -1.4609 -1.9331
  657SOL     OW 1969   3.036   1.091   1.870  0.0490 -0.0368 -0.6741
  657SOL    HW1 1970   3.023   1.188   1.910  0.9454  1.5818  2.2865
  657SOL    HW2 1971   3.139   1.070   1.872  0.4656 -0.6961  0.6266
  658SOL     OW 1972   1.636   0.176   2.382  0.0464  0.2180  0.1301
  658SOL    HW1 1973   1.683   0.116   2.452 -2.4211 -0.8509  2.1033
  658SOL    HW2 1974   1.695   0.199   2.295  1.2319 -1.9836 -5.1552
  659SOL     OW 1975   1.396   0.580   2.896  0.4989 -0.6143  0.1130
  659SOL    HW1 1976   1.483   0.637   2.916  2.0273 -0.5935 -2.4414
  659SOL    HW2 1977   1.334   0.641   2.836  0.0661  0.1512  0.0447
  660SOL     OW 1978   1.447   0.364   1.406 -0.5620  0.3594 -0.3134
  660SOL    HW1 1979   1.466   0.376   1.508 -1.6128  1.3486  0.4933
  660SOL    HW2 1980   1.511   0.286   1.369 -1.0493 -0.6314  1.2839
  661SOL     OW 1981   2.488   1.178   0.673 -0.1242 -0.3266  0.0506
  661SOL    HW1 1982   2.528   1.157   0.581  0.0080 -0.3996 -0.1605
  661SOL    HW2 1983   2.437   1.271   0.679 -1.8899  2.0418 -0.9879
  662SOL     OW 1984   1.318   0.422   1.841  0.3315  0.0193 -0.1437
  662SOL    HW1 1985   1.291   0.323   1.823 -0.1831 -1.4771 -0.6411
  662SOL    HW2 1986   1.270   0.470   1.922 -2.9715  1.3146  0.5563
  663SOL     OW 1987   0.844   1.600   2.185 -0.1689 -0.0589 -0.3469
  663SOL    HW1 1988   0.836   1.695   2.220 -1.2631 -0.8184 -0.1475
  663SOL    HW2 1989   0.789   1.578   2.098 -1.1515  1.0660 -3.3803
  664SOL     OW 1990   1.671   2.025   1.372  0.1044 -0.0050  0.1855
  664SOL    HW1 1991   1.605   1.964   1.423  2.9587 -2.9993 -1.2075
  664SOL    HW2 1992   1.772   2.007   1.397  1.1680  1.4210  0.7857
  665SOL     OW 1993   2.215   0.655   1.956  0.4708 -0.6086 -0.0711
  665SOL    HW1 1994   2.175   0.567   1.990  1.9335  0.7679  0.4559
  665SOL    HW2 1995   2.263   0.705   2.030 -1.0253 -2.3967 -0.5192
  666SOL     OW 1996   0.507   2.296   0.476  0.0226 -0.2945 -0.0012
  666SOL    HW1 1997   0.560   2.389   0.481  1.2499  0.9079  1.4540
  666SOL    HW2 1998   0.463   2.280   0.567  1.7175  2.6076 -2.6538
  667SOL     OW 1999   2.014   0.246   1.015  0.9590  0.7548 -0.3765
  667SOL    HW1 2000   2.049   0.330   1.067  0.4728  2.9763  1.4724
  667SOL    HW2 2001   1.946   0.192   1.068  1.2663  2.9398  0.1379
  668SOL     OW 2002   1.995   0.538   1.180  0.0017 -0.7951  0.4625
  668SOL    HW1 2003   2.078   0.564   1.116  0.1291  0.9167 -0.9711
  668SOL    HW2 2004   2.031   0.512   1.271  0.7392  0.9079 -1.0842
  669SOL     OW 2005   2.999   2.109   0.907 -0.3792 -0.4572  0.3160
  669SOL    HW1 2006   2.921   2.116   0.834  3.2188 -2.0637 -2.1101
  669SOL    HW2 2007   2.998   2.178   0.988 -0.1164 -0.9895  0.5817
  670SOL     OW 2008   2.827   2.353   2.019 -0.5222 -1.1011  0.2174
  670SOL    HW1 2009   2.770   2.305   2.091  2.6840 -0.9718 -0.3027
  670SOL    HW2 2010   2.810   2.456   2.012 -2.8985  1.2930  0.1762
  671SOL     OW 2011   1.744   1.677   1.455 -0.1044 -0.9636  0.1586
  671SOL    HW1 2012   1.753   1.701   1.352  1.3987 -1.2386 -1.8273
  671SOL    HW2 2013   1.668   1.614   1.484 -0.0370  0.2090 -1.3977
  672SOL     OW 2014   0.437   0.624   2.439  0.0298  0.1450 -0.5031
  672SOL    HW1 2015   0.471   0.654   2.350 -0.1021 -1.2722  0.5870
  672SOL    HW2 2016   0.350   0.669   2.472 -2.4912  0.4357 -0.3269
  673SOL     OW 2017   0.166   1.207   1.164  0.2781  0.0265 -0.1712
  673SOL    HW1 2018   0.197   1.290   1.220  1.8262  2.7453 -0.0171
  673SOL    HW2 2019   0.247   1.141   1.141  1.7948 -0.1295 -2.3978
  674SOL     OW 2020   1.529   2.887   0.149 -0.3521 -0.1951 -0.1642
  674SOL    HW1 2021   1.576   2.975   0.120  0.1463 -2.2043 -1.1949
  674SOL    HW2 2022   1.585   2.801   0.120  2.7879  0.3486 -1.1680
  675SOL     OW 2023   1.685   0.835   2.335  0.3529 -0.5142 -0.1766
  675SOL    HW1 2024   1.781   0.814   2.311 -0.9107  1.7615  1.1664
  675SOL    HW2 2025   1.615   0.766   2.313  4.6080 -0.0417  1.8264
  676SOL     OW 2026   2.504   1.536   1.990  0.0022 -0.0000 -0.0256
  676SOL    HW1 2027   2.437   1.495   1.916  0.8315  0.4941  1.6029
  676SOL    HW2 2028   2.538   1.458   2.050 -0.9392 -1.3023 -1.3574
  677SOL     OW 2029   1.799   0.594   0.964 -0.4579 -0.4567  0.1971
  677SOL    HW1 2030   1.873   0.588   1.035 -1.7342 -0.6595 -1.2608
  677SOL    HW2 2031   1.710   0.552   0.999 -0.1638 -0.0035 -0.4601
  678SOL     OW 2032   0.063   0.738   1.655  0.3738  0.0682 -0.1151
  678SOL    HW1 2033   0.157   0.753   1.695 -1.9000  0.1709 -0.8522
  678SOL    HW2 2034  -0.014   0.755   1.726  1.2963  1.0230  1.0754
  679SOL     OW 2035   2.509   1.184   1.060  0.3036  0.4338 -0.2560
  679SOL    HW1 2036   2.430   1.227   1.113  0.7717 -0.2628 -1.0281
  679SOL    HW2 2037   2.483   1.092   1.013  0.0433  0.3936 -1.6622
  680SOL     OW 2038   2.839   0.639   1.664  0.1900 -0.2877  0.4464
  680SOL    HW1 2039   2.799   0.685   1.582  1.7211 -0.4485 -0.0882
  680SOL    HW2 2040   2.879   0.703   1.735  0.5831 -0.7370 -1.6462
  681SOL     OW 2041   3.011   0.160   1.604  0.2850  0.3001  0.0134
  681SOL    HW1 2042   3.102   0.144   1.552  1.5470 -0.1315 -0.5570
  681SOL    HW2 2043   2.975   0.258   1.589  1.2450 -0.6278  0.7997
  682SOL     OW 2044   0.781   0.039   1.404 -0.0251  0.1044 -0.1646
  682SOL    HW1 2045   0.696  -0.013   1.438 -1.5347  3.6024  1.1512
  682SOL    HW2 2046   0.786   0.031   1.303 -2.1516 -0.4020  1.8821
  683SOL     OW 2047   1.388   0.249   2.175  0.1817 -0.0986 -0.0080
  683SOL    HW1 2048   1.351   0.296   2.258 -1.8811 -1.8001 -0.5351
  683SOL    HW2 2049   1.480   0.296   2.147  1.7901 -1.5956 -0.4349
  684SOL     OW 2050   1.441   2.128   0.495 -0.1882  0.5136 -0.1964
  684SOL    HW1 2051   1.497   2.054   0.541  0.7237 -0.0590  0.0704
  684SOL    HW2 2052   1.356   2.087   0.451 -1.0738 -0.0965  1.6959
  685SOL     OW 2053   2.188   1.933   1.918 -0.3039 -0.9706  0.1451
  685SOL    HW1 2054   2.234   2.016   1.877  0.6180 -2.8425 -3.3210
  685SOL    HW2 2055   2.247   1.887   1.984 -1.9992 -2.9777 -1.3646
  686SOL     OW 2056   1.555   1.745   2.695  0.5692  0.0137  0.2941
  686SOL    HW1 2057   1.513   1.654   2.693  0.4273  1.6281  1.3301
  686SOL    HW2 2058   1.652   1.751   2.734  0.3273 -0.3972  1.8787
  687SOL     OW 2059   1.341   2.528   1.896  0.2850 -0.0488  0.1718
  687SOL    HW1 2060   1.397   2.455   1.847  1.4769 -2.2967  1.4519
  687SOL    HW2 2061   1.320   2.509   1.994  4.0429  0.0106 -1.2512
  688SOL     OW 2062   2.078   1.414   1.622  0.0188 -1.1551  0.2444
  688SOL    HW1 2063   2.172   1.435   1.579  0.2988 -1.7720 -1.9872
  688SOL    HW2 2064   2.022   1.356   1.558  0.6192  0.9360  0.2177
  689SOL     OW 2065   2.472   1.109   2.762 -0.3418  0.1108 -0.0590
  689SOL    HW1 2066   2.375   1.085   2.774  0.1533 -0.2691  4.2870
  689SOL    HW2 2067   2.536   1.077   2.838 -0.0231  0.8547 -0.7132
  690SOL     OW 2068   2.214   2.816   3.092  0.7532  0.4895 -0.9720
  690SOL    HW1 2069   2.172   2.761   3.012  0.0180 -1.1621  0.2508
  690SOL    HW2 2070   2.130   2.844   3.147 -2.9124 -0.9687 -1.7411
  691SOL     OW 2071   2.588   0.456   2.133 -0.6344  0.7640  0.5148
  691SOL    HW1 2072   2.682   0.424   2.104 -1.0025  0.9164  2.3413
  691SOL    HW2 2073   2.562   0.547   2.091  0.4367  0.3934  2.1467
  692SOL     OW 2074   2.789   1.224   0.717 -0.4260  0.3947  0.0458
  692SOL    HW1 2075   2.688   1.232   0.706 -1.0893  2.7114  1.3179
  692SOL    HW2 2076   2.827   1.316   0.748 -1.8951 -1.6371  0.9953
  693SOL     OW 2077   2.877   2.999   0.615  0.2447  0.1455 -0.1580
  693SOL    HW1 2078   2.875   3.090   0.663 -1.9217 -1.0218 -4.9185
  693SOL    HW2 2079   2.814   3.004   0.532  1.1509 -0.3670  0.5598
  694SOL     OW 2080   2.412   2.214   0.062 -0.5109  0.0390  0.2376
  694SOL    HW1 2081   2.382   2.308   0.102 -1.4747 -2.9526 -2.1972
  694SOL    HW2 2082   2.326   2.154   0.042 -2.0750 -0.6567  1.5749
  695SOL     OW 2083   0.537   3.013   1.462 -0.2305 -0.0045 -0.3830
  695SOL    HW1 2084   0.535   2.917   1.428 -1.9781  0.2939  0.8404
  695SOL    HW2 2085   0.471   3.023   1.539 -1.3938  0.1753  0.2917
  696SOL     OW 2086   2.685   1.899   0.719 -0.0983  0.2348  0.3845
  696SOL    HW1 2087   2.711   1.806   0.766  1.5033 -0.4155  0.6262
  696SOL    HW2 2088   2.660   1.889   0.617  0.2247 -2.4845 -1.9140
  697SOL     OW 2089   1.752   2.093   1.753 -0.0044  0.0110 -0.4720
  697SOL    HW1 2090   1.813   2.014   1.785 -1.6700  0.2171  2.2217
  697SOL    HW2 2091   1.774   2.186   1.786 -3.9949 -1.8811 -0.0302
  698SOL     OW 2092   2.899   0.404   2.738  0.9122 -0.4478 -0.1636
  698SOL    HW1 2093   2.847   0.382   2.653 -1.1063 -4.1966 -0.7034
  698SOL    HW2 2094   2.935   0.318   2.778  1.8098  3.2416  0.4715
  699SOL     OW 2095   1.563   0.074   2.939  0.1475 -0.4555 -0.3882
  699SOL    HW1 2096   1.501   0.007   2.887 -3.1635 -0.5779  1.9630
  699SOL    HW2 2097   1.628   0.138   2.886  1.2427  0.3590 -0.4818
  700SOL     OW 2098   1.007   2.355   1.334  0.2987  0.3964  0.5275
  700SOL    HW1 2099   1.101   2.343   1.303  0.9908  2.2053  1.5477
  700SOL    HW2 2100   0.933   2.321   1.267 -0.8370 -2.0037  0.3742
  701SOL     OW 2101   1.887   2.811   0.043 -0.0910  0.6059  0.5146
  701SOL    HW1 2102   1.892   2.764   0.137 -0.8748 -2.2852  0.8960
  701SOL    HW2 2103   1.911   2.910   0.039 -2.5154 -0.5216 -0.0638
  702SOL     OW 2104   2.103   1.357   1.930 -0.3029  0.4750 -0.1606
  702SOL    HW1 2105   2.158   1.273   1.918 -2.6334  0.5326 -1.3073
  702SOL    HW2 2106   2.084   1.397   1.833  1.9164 -0.5664 -0.0577
  703SOL     OW 2107   1.944   0.825   1.424  0.3591 -0.0709  0.1389
  703SOL    HW1 2108   1.935   0.740   1.489 -0.8948 -0.5646  1.3917
  703SOL    HW2 2109   1.991   0.904   1.475  0.8574 -1.9178 -1.5830
  704SOL     OW 2110   0.330   2.039   1.690 -0.0358  0.1163 -0.1414
  704SOL    HW1 2111   0.349   1.990   1.782  3.4914  0.4277  1.8509
  704SOL    HW2 2112   0.379   2.134   1.685 -1.1659 -1.7615  1.9648
  705SOL     OW 2113   2.550   1.409   0.895 -0.4082  0.1242 -0.1721
  705SOL    HW1 2114   2.462   1.401   0.848  2.9958 -0.3608 -0.9639
  705SOL    HW2 2115   2.582   1.315   0.926 -0.5392 -1.5285 -1.4935
  706SOL     OW 2116   0.648   1.762   1.857  0.0709 -0.4481 -0.1464
  706SOL    HW1 2117   0.649   1.665   1.894 -2.4292  3.4998 -2.2953
  706SOL    HW2 2118   0.737   1.812   1.878  1.4707 -0.1192 -2.5975
  707SOL     OW 2119   2.259   1.156   1.825  0.0797  0.2779 -0.1617
  707SOL    HW1 2120   2.348   1.139   1.879  1.2919 -0.7056  1.3173
  707SOL    HW2 2121   2.231   1.067   1.784  1.2070  2.9084  1.8732
  708SOL     OW 2122   3.055   0.474   3.010  0.4490 -0.2678  0.0069
  708SOL    HW1 2123   3.051   0.559   2.950  2.1298  3.0733  0.9127
  708SOL    HW2 2124   3.035   0.380   2.969 -0.8514 -0.2811  1.3474
  709SOL     OW 2125   1.825   1.802   0.299 -0.2614 -0.4498 -0.2815
  709SOL    HW1 2126   1.823   1.900   0.338  0.0038  1.1014  0.0245
  709SOL    HW2 2127   1.843   1.799   0.198  2.1822  2.1443  3.8890
  710SOL     OW 2128   1.712   1.583   2.439  0.4907  0.6200  0.5995
  710SOL    HW1 2129   1.768   1.558   2.360 -2.3793  0.0622  0.9116
  710SOL    HW2 2130   1.756   1.557   2.528  0.5743  2.0962 -2.9086
  711SOL     OW 2131   2.642   2.921   0.953  0.1327  0.3158  0.3229
  711SOL    HW1 2132   2.668   3.016   0.923 -0.7174  0.3221  2.3738
  711SOL    HW2 2133   2.707   2.888   1.023 -0.6275 -1.8656 -4.8788
  712SOL     OW 2134   1.499   2.340   1.759  0.4005  0.8582  0.3064
  712SOL    HW1 2135   1.569   2.265   1.780 -0.5320  0.0997 -1.0792
  712SOL    HW2 2136   1.421   2.308   1.697 -0.1422  0.4701 -1.0432
  713SOL     OW 2137   2.804   1.463   2.461  0.1086 -0.7343 -0.3165
  713SOL    HW1 2138   2.815   1.365   2.491  0.2778 -1.5014  2.3053
  713SOL    HW2 2139   2.708   1.506   2.466  0.9135  0.9720 -1.2294
  714SOL     OW 2140   2.607   0.478   2.425 -0.3240 -0.0048  0.0959
  714SOL    HW1 2141   2.525   0.491   2.484  0.0322 -0.8916  0.2008
  714SOL    HW2 2142   2.592   0.467   2.325 -0.0470  1.5636 -0.0572
  715SOL     OW 2143   1.566   2.085   1.130  0.0083  0.1478  0.0583
  715SOL    HW1 2144   1.526   2.175   1.154  1.8449 -0.6258  0.2261
  715SOL    HW2 2145   1.615   2.051   1.212 -1.5955  1.5290  1.0169
  716SOL     OW 2146   1.209   0.228   1.513  0.0509 -0.1881 -0.4554
  716SOL    HW1 2147   1.113   0.266   1.505  0.2738  3.5087  1.8032
  716SOL    HW2 2148   1.275   0.278   1.453  0.0394  0.1960  1.2623
  717SOL     OW 2149   1.084   0.578   1.622  0.2217  0.1651 -0.3202
  717SOL    HW1 2150   1.190   0.579   1.624  1.9225 -0.0078  0.1390
  717SOL    HW2 2151   1.051   0.590   1.522 -3.0458  0.7305 -0.5614
  718SOL     OW 2152   0.672   1.013   1.008 -0.8813  0.0445 -0.0521
  718SOL    HW1 2153   0.626   1.039   0.919 -2.7432  1.3893  0.2687
  718SOL    HW2 2154   0.747   1.082   1.035  1.8446 -0.1951  2.9350
  719SOL     OW 2155   0.786   1.864   2.268 -0.1119  0.5315  0.0828
  719SOL    HW1 2156   0.868   1.894   2.328  3.2100  2.3078 -3.2618
  719SOL    HW2 2157   0.699   1.875   2.321  1.9450  1.7280 -3.4761
  720SOL     OW 2158   2.205   1.090   0.262 -0.0207 -0.6034 -0.2925
  720SOL    HW1 2159   2.273   1.012   0.240  0.8432  0.7599 -0.7730
  720SOL    HW2 2160   2.156   1.073   0.356  0.7601 -0.3880  0.4438
  721SOL     OW 2161   2.326   0.015   2.055 -0.3573 -0.0037 -0.3538
  721SOL    HW1 2162   2.322   0.092   1.984  1.7791  1.1469  0.8229
  721SOL    HW2 2163   2.235  -0.015   2.088 -1.8407  1.1323 -3.6942
  722SOL     OW 2164   2.392   1.641   0.580 -0.0124  0.5342 -0.4593
  722SOL    HW1 2165   2.392   1.587   0.492  0.5198  1.7637 -3.1055
  722SOL    HW2 2166   2.299   1.685   0.601  0.1034 -0.1456 -2.3705
  723SOL     OW 2167   2.554   2.806   1.960 -0.4329  0.5670 -0.3904
  723SOL    HW1 2168   2.604   2.843   2.041 -0.0024  0.4922 -2.2787
  723SOL    HW2 2169   2.448   2.802   1.968  1.5399 -0.1491  0.4949
  724SOL     OW 2170   0.489   2.463   2.427 -0.4473 -0.1444 -0.4609
  724SOL    HW1 2171   0.384   2.479   2.440 -1.4298  1.3363  0.5600
  724SOL    HW2 2172   0.550   2.459   2.515  1.5856  0.2757  1.6312
  725SOL     OW 2173   2.436   2.747   1.468 -0.9510  0.7215 -0.4105
  725SOL    HW1 2174   2.433   2.761   1.364 -2.9976 -1.5792 -1.5875
  725SOL    HW2 2175   2.414   2.651   1.498 -2.1634 -1.5105 -2.3438
  726SOL     OW 2176   2.388   2.237   0.703  0.0415  0.3930  0.3306
  726SOL    HW1 2177   2.358   2.331   0.683  3.3463  0.5738  2.4042
  726SOL    HW2 2178   2.392   2.179   0.614  3.2385  3.2397  0.2895
  727SOL     OW 2179   0.231   3.095   0.112 -0.3131  0.3165  0.3247
  727SOL    HW1 2180   0.245   2.994   0.098 -1.1023  1.8102 -0.0560
  727SOL    HW2 2181   0.272   3.147   0.036  0.9136  0.3449  0.8215
  728SOL     OW 2182   2.798   0.683   1.003 -0.7709 -0.1002 -0.2452
  728SOL    HW1 2183   2.744   0.654   0.922  0.0242  1.6936 -0.9239
  728SOL    HW2 2184   2.803   0.616   1.079  2.0499 -1.1076  1.6242
  729SOL     OW 2185   2.914   2.449   0.683  0.2808 -0.2575  0.0136
  729SOL    HW1 2186   2.872   2.362   0.719 -1.8329  3.1706  1.4277
  729SOL    HW2 2187   3.012   2.460   0.718  1.9608  3.4799  0.5470
  730SOL     OW 2188   2.579   0.572   0.773  0.1106  0.1507 -0.0505
  730SOL    HW1 2189   2.545   0.644   0.715  1.4804 -2.2175 -0.4312
  730SOL    HW2 2190   2.676   0.551   0.750  1.3847  1.3836  0.2618
  731SOL     OW 2191   0.007   2.125   2.453  0.1777 -0.4649  0.3151
  731SOL    HW1 2192   0.082   2.151   2.515 -1.1783 -0.9993 -1.4728
  731SOL    HW2 2193  -0.062   2.192   2.435 -2.9041 -0.9280  2.1023
  732SOL     OW 2194   1.106   2.868   1.974  0.2005  0.6145 -1.1475
  732SOL    HW1 2195   1.111   2.811   2.059 -1.6570  1.8546 -0.6385
  732SOL    HW2 2196   1.138   2.805   1.892  0.4888 -1.9662  0.7585
  733SOL     OW 2197   0.015   0.747   2.073 -1.2293  0.0302 -0.1416
  733SOL    HW1 2198   0.117   0.771   2.089  0.6608  4.7666 -0.3191
  733SOL    HW2 2199  -0.000   0.648   2.062 -0.2702  1.9313  1.6383
  734SOL     OW 2200   1.426   0.339   2.749 -0.4819 -0.0407 -0.1914
  734SOL    HW1 2201   1.418   0.420   2.811 -0.1542 -3.2812 -0.5546
  734SOL    HW2 2202   1.345   0.271   2.749 -1.3399 -0.7189 -1.6185
  735SOL     OW 2203   2.877   2.622   2.247  0.0536 -0.3121  0.0676
  735SOL    HW1 2204   2.805   2.666   2.190 -1.1696 -0.2823  0.7541
  735SOL    HW2 2205   2.954   2.578   2.190 -0.5759  1.2430 -2.7615
  736SOL     OW 2206   0.761   0.406   2.654  0.3114 -0.7597  0.4164
  736SOL    HW1 2207   0.677   0.465   2.650 -2.0836 -1.6111 -1.6652
  736SOL    HW2 2208   0.776   0.357   2.569  1.3042 -2.4105  4.5193
  737SOL     OW 2209   2.651   0.493   2.867 -0.6170  0.5762 -0.1893
  737SOL    HW1 2210   2.659   0.457   2.966 -0.7876  2.4250  1.7317
  737SOL    HW2 2211   2.729   0.456   2.804  1.2796  0.8639 -1.8674
  738SOL     OW 2212   1.595   1.223   2.959  0.1464 -0.0655  0.3148
  738SOL    HW1 2213   1.695   1.218   2.973 -1.5038  3.1918  1.6452
  738SOL    HW2 2214   1.563   1.157   2.892  0.1189 -0.6384  1.8609
  739SOL     OW 2215   1.795   0.669   0.723  0.8566  0.2207  0.4069
  739SOL    HW1 2216   1.793   0.631   0.820 -0.2882  0.4067 -1.1931
  739SOL    HW2 2217   1.831   0.598   0.658  0.2700  0.0467 -0.6732
  740SOL     OW 2218   1.947   1.891   2.226  0.2463 -0.6000 -0.9234
  740SOL    HW1 2219   2.037   1.840   2.224  0.1111  1.5984 -1.5363
  740SOL    HW2 2220   1.877   1.849   2.160 -0.6167 -0.7996 -3.2399
  741SOL     OW 2221   2.488   0.036   2.621 -0.1425 -0.1405  0.4780
  741SOL    HW1 2222   2.590   0.031   2.625 -2.5254  0.7876 -0.5976
  741SOL    HW2 2223   2.459   0.006   2.526  0.9026  0.5412 -0.9239
  742SOL     OW 2224   2.250   1.367   0.131 -0.1647  0.1146 -0.2104
  742SOL    HW1 2225   2.170   1.413   0.174  0.2634  0.5447 -0.1430
  742SOL    HW2 2226   2.299   1.307   0.197 -2.2886 -1.0946  1.0037
  743SOL     OW 2227   1.765   0.593   2.593 -0.4828  0.3411  0.6763
  743SOL    HW1 2228   1.748   0.528   2.514 -0.8823  0.6751 -1.0818
  743SOL    HW2 2229   1.690   0.661   2.614  0.7473 -0.5799  0.0392
  744SOL     OW 2230   2.652   2.114   0.039  0.3526 -0.5327 -0.5351
  744SOL    HW1 2231   2.553   2.151   0.060  0.9975 -1.6951  0.3256
  744SOL    HW2 2232   2.671   2.034   0.095 -1.9869  3.3861  0.0902
  745SOL     OW 2233   2.139   2.682   2.225 -0.1673  0.7514 -0.2662
  745SOL    HW1 2234   2.055   2.653   2.171  1.4640 -1.4268 -1.2708
  745SOL    HW2 2235   2.115   2.767   2.285  1.3420  1.2239 -2.2923
  746SOL     OW 2236   3.072   2.555   1.825 -0.1984  0.3821 -0.0861
  746SOL    HW1 2237   3.174   2.546   1.805  0.1717 -2.1245  1.4777
  746SOL    HW2 2238   3.042   2.656   1.830  0.5303 -0.6347 -0.9859
  747SOL     OW 2239   0.003   1.789   1.660 -0.1938  0.3345  0.5964
  747SOL    HW1 2240  -0.021   1.691   1.678 -0.1729 -0.6057  1.6377
  747SOL    HW2 2241   0.054   1.804   1.571  0.3583  2.0269  2.3255
  748SOL     OW 2242   1.803   2.715   2.885 -0.1337 -0.8244 -0.4776
  748SOL    HW1 2243   1.813   2.731   2.987 -1.6957 -1.0388  0.1849
  748SOL    HW2 2244   1.705   2.695   2.856 -3.0089 -2.0096  2.3582
  749SOL     OW 2245   1.323   0.010   0.852 -0.2107  0.5755 -0.5700
  749SOL    HW1 2246   1.276  -0.084   0.871  0.7093  0.7167 -2.2585
  749SOL    HW2 2247   1.332   0.033   0.749 -0.0953 -1.1206  1.3657
  750SOL     OW 2248   2.306   0.246   1.883 -0.0385 -0.1782  0.3193
  750SOL    HW1 2249   2.310   0.295   1.798  0.2803 -2.1600  1.2203
  750SOL    HW2 2250   2.312   0.307   1.970  0.6028  1.7550 -0.3833
  751SOL     OW 2251   0.820   2.201   2.791 -0.4201 -0.2335  0.1333
  751SOL    HW1 2252   0.867   2.180   2.881  0.0322 -1.1283 -1.9900
  751SOL    HW2 2253   0.743   2.133   2.769  0.1284 -0.8546 -3.0267
  752SOL     OW 2254   1.234   0.887   1.536  0.2112  0.1885  0.5486
  752SOL    HW1 2255   1.309   0.941   1.493  0.7523  0.0368 -0.8785
  752SOL    HW2 2256   1.266   0.803   1.588  2.8730  1.0129  0.3152
  753SOL     OW 2257   0.928   2.598   1.716  0.3310  0.7585  0.6536
  753SOL    HW1 2258   1.011   2.655   1.712 -2.0130 -2.6222 -0.6859
  753SOL    HW2 2259   0.843   2.655   1.698  0.8589  1.2054  0.2322
  754SOL     OW 2260   1.199   1.274   3.032 -0.4621 -0.2269  0.3216
  754SOL    HW1 2261   1.252   1.201   2.977 -0.8367 -3.3280 -0.9979
  754SOL    HW2 2262   1.201   1.360   2.979  0.1803 -2.4731 -0.0951
  755SOL     OW 2263   1.942   0.458   2.224  0.4298  0.0670 -0.1023
  755SOL    HW1 2264   2.020   0.406   2.270 -3.6272 -1.1971 -0.3323
  755SOL    HW2 2265   1.855   0.458   2.278  0.6438  1.0675  0.7493
  756SOL     OW 2266   2.617   0.993   2.968  0.1645 -0.0784  0.0397
  756SOL    HW1 2267   2.715   0.962   2.994  5.3681 -1.6216 -0.5303
  756SOL    HW2 2268   2.546   0.922   2.991  1.8713 -0.9839 -1.9269
  757SOL     OW 2269   0.060   0.479   1.790  0.4930  0.5011  0.1442
  757SOL    HW1 2270   0.015   0.544   1.724  1.7443  0.5864 -1.7769
  757SOL    HW2 2271   0.146   0.440   1.747 -0.1170  2.0717  1.0343
  758SOL     OW 2272   2.410   0.008   1.475  0.6897 -0.1905 -0.1369
  758SOL    HW1 2273   2.365  -0.071   1.529  0.8764  1.5916  0.1141
  758SOL    HW2 2274   2.370   0.013   1.382  1.1261 -0.0867  2.7828
  759SOL     OW 2275   1.683   0.000   0.082 -0.2140 -0.4066  0.1453
  759SOL    HW1 2276   1.638   0.043  -0.004  0.4821  1.0211 -0.0832
  759SOL    HW2 2277   1.787   0.002   0.076  2.5847 -1.6279 -2.5505
  760SOL     OW 2278   2.738   2.035   2.751  0.8323 -0.2525  0.1140
  760SOL    HW1 2279   2.827   1.990   2.774 -2.0552 -0.5391  1.3943
  760SOL    HW2 2280   2.703   2.115   2.808 -0.9072  1.0323 -1.4192
  761SOL     OW 2281   1.973   1.691   1.623 -0.0420  0.7284  0.1115
  761SOL    HW1 2282   2.013   1.596   1.646  0.3134 -1.7492 -0.7430
  761SOL    HW2 2283   1.887   1.681   1.566 -0.8444  0.7918 -2.3485
  762SOL     OW 2284   0.503   2.409   0.957  0.2555 -0.1566  0.0151
  762SOL    HW1 2285   0.587   2.426   0.896  0.3611  1.7614  0.2162
  762SOL    HW2 2286   0.506   2.453   1.056  2.3459 -0.4311  1.1304
  763SOL     OW 2287   2.108   1.515   2.987 -0.1883 -0.1446  0.0607
  763SOL    HW1 2288   2.186   1.468   3.030 -2.3464  1.6937 -0.2781
  763SOL    HW2 2289   2.019   1.491   3.034  2.7596 -2.1150 -0.4891
  764SOL     OW 2290   0.704   0.534   0.904  0.2177 -0.6328  0.1106
  764SOL    HW1 2291   0.666   0.454   0.849 -2.9575 -0.0498  1.1008
  764SOL    HW2 2292   0.809   0.543   0.910 -0.7141  1.2594  0.4286
  765SOL     OW 2293   0.652   0.237   0.823  0.3037 -0.2491  0.3129
  765SOL    HW1 2294   0.740   0.208   0.774 -0.2706 -1.2705  1.2790
  765SOL    HW2 2295   0.664   0.236   0.930  0.0652  2.2483 -0.2586
  766SOL     OW 2296   2.957   2.094   0.028  0.2541 -0.1234  0.4958
  766SOL    HW1 2297   2.855   2.116   0.047 -2.5389 -1.1697 -1.7160
  766SOL    HW2 2298   3.008   2.170  -0.022 -0.3482 -2.5647 -0.4221
  767SOL     OW 2299   2.889   1.544   0.513 -0.2522 -0.0776 -0.1409
  767SOL    HW1 2300   2.820   1.520   0.584  0.1375 -0.0173 -2.9713
  767SOL    HW2 2301   2.968   1.605   0.551  2.5691 -1.7300  1.9275
  768SOL     OW 2302   1.103   0.248   0.319 -0.2712  0.2856 -0.0299
  768SOL    HW1 2303   1.015   0.192   0.336 -0.3452  0.6233  0.1800
  768SOL    HW2 2304   1.180   0.196   0.277 -1.2962  0.0922 -3.1310
  769SOL     OW 2305   1.180   1.815   2.249  0.3243 -0.5657  0.3846
  769SOL    HW1 2306   1.101   1.851   2.311 -2.0712  1.7336  2.5420
  769SOL    HW2 2307   1.210   1.711   2.255  0.1069  1.3490 -0.3220
  770SOL     OW 2308   0.180   1.247   2.403  0.1325 -0.5529  0.9133
  770SOL    HW1 2309   0.177   1.287   2.495  0.5641  2.4380 -1.5604
  770SOL    HW2 2310   0.089   1.218   2.365 -1.4959  1.8950 -0.2411
  771SOL     OW 2311   2.968   2.806   1.896  0.1154  0.0306  0.5711
  771SOL    HW1 2312   2.926   2.884   1.835  0.2399 -0.8022 -0.3205
  771SOL    HW2 2313   2.982   2.834   1.990  1.4969 -0.9109 -2.0775
  772SOL     OW 2314   2.132   0.101   2.956 -0.6004 -0.0402  0.2664
  772SOL    HW1 2315   2.199   0.021   2.986  0.4141 -0.8483  1.5113
  772SOL    HW2 2316   2.173   0.189   2.997  1.1454 -1.0246  2.2535
  773SOL     OW 2317   0.680   2.063   2.481 -0.3769 -0.0013 -0.1099
  773SOL    HW1 2318   0.651   2.126   2.403 -0.6612 -0.5198  1.6268
  773SOL    HW2 2319   0.636   2.092   2.571 -0.9248 -0.7715  0.9020
  774SOL     OW 2320   2.031   3.091   2.631  0.2607 -0.9600 -0.0112
  774SOL    HW1 2321   2.036   3.194   2.656 -1.9825  1.3500 -1.5309
  774SOL    HW2 2322   2.097   3.037   2.683  0.9393 -1.6471 -2.0218
  775SOL     OW 2323   2.515   2.840   2.415  0.1248  0.0584 -0.6405
  775SOL    HW1 2324   2.500   2.940   2.395 -2.2695 -3.3603 -1.4380
  775SOL    HW2 2325   2.612   2.822   2.445 -0.1134  1.4465  0.7653
  776SOL     OW 2326   3.104   1.275   0.227  0.2462 -0.7031 -0.8040
  776SOL    HW1 2327   3.071   1.250   0.134 -1.0947 -0.5372  1.3132
  776SOL    HW2 2328   3.020   1.310   0.279 -3.7662 -0.3180 -0.9871
  777SOL     OW 2329   0.210   2.700   0.481 -0.2443 -0.1349  0.1277
  777SOL    HW1 2330   0.112   2.673   0.491  0.9729 -0.6724  1.1588
  777SOL    HW2 2331   0.224   2.803   0.481 -2.3486 -1.1418 -0.7428
  778SOL     OW 2332   1.328   1.960   0.165 -0.2119 -0.1308 -0.3932
  778SOL    HW1 2333   1.266   1.969   0.250 -1.5496  0.9786 -1.6349
  778SOL    HW2 2334   1.330   2.049   0.109  3.0078 -0.8210 -0.8525
  779SOL     OW 2335   0.180   0.778   0.509 -0.0125  0.2366 -0.4898
  779SOL    HW1 2336   0.146   0.692   0.469 -0.4944  0.6632  0.2745
  779SOL    HW2 2337   0.111   0.822   0.575 -1.3911  2.0913 -0.0171
  780SOL     OW 2338   3.096   0.329   2.364  0.4755  0.5901  0.6031
  780SOL    HW1 2339   3.073   0.432   2.352 -1.3754  1.7618  0.6844
  780SOL    HW2 2340   3.193   0.317   2.329  1.0124  2.2604  1.6185
  781SOL     OW 2341   0.591   1.746   1.575  0.3441  0.2066  0.5304
  781SOL    HW1 2342   0.637   1.739   1.664 -1.0309 -2.0819 -0.0192
  781SOL    HW2 2343   0.516   1.671   1.581 -0.8286  0.8969  1.1645
  782SOL     OW 2344   2.580   0.152   0.929 -0.2017  0.0871 -0.3822
  782SOL    HW1 2345   2.510   0.151   0.852  0.7944 -0.7148  1.6066
  782SOL    HW2 2346   2.558   0.209   1.012  1.3492  1.2790 -0.3787
  783SOL     OW 2347   2.854   0.675   2.510  0.6263  0.1247 -0.2716
  783SOL    HW1 2348   2.822   0.707   2.604 -0.1810  1.3340 -0.1546
  783SOL    HW2 2349   2.771   0.632   2.469 -1.7677  0.9708 -0.2662
  784SOL     OW 2350   1.331   2.220   0.047  0.6549  0.0513 -0.1652
  784SOL    HW1 2351   1.399   2.277   0.095 -0.3466 -1.4450 -1.1851
  784SOL    HW2 2352   1.322   2.254  -0.051  0.1049  0.1731  2.4149
  785SOL     OW 2353   2.184   0.350   0.000 -0.3033 -0.2940  0.2828
  785SOL    HW1 2354   2.089   0.341   0.052 -1.2002 -2.8411  1.7372
  785SOL    HW2 2355   2.200   0.446  -0.041  0.0515  3.7729  1.2125
  786SOL     OW 2356   2.043   2.141   2.231  0.6511  0.2071  0.2946
  786SOL    HW1 2357   2.012   2.045   2.213  1.2632  0.1220  1.5950
  786SOL    HW2 2358   2.123   2.129   2.293 -0.3224  0.8099 -1.2981
  787SOL     OW 2359   1.385   0.620   0.836 -0.2517  0.5293 -0.1793
  787SOL    HW1 2360   1.331   0.708   0.839 -1.1572  0.3370 -0.2470
  787SOL    HW2 2361   1.416   0.588   0.738  0.1762 -0.7536  0.3500
  788SOL     OW 2362   1.223   0.404   3.034 -0.4118  0.5208 -0.0824
  788SOL    HW1 2363   1.149   0.371   2.973  2.6754  0.2242  1.6565
  788SOL    HW2 2364   1.290   0.467   2.984  1.1005  1.7105 -0.4288
  789SOL     OW 2365   2.620   0.100   1.827  0.3866 -0.0357 -0.0364
  789SOL    HW1 2366   2.529   0.145   1.858  0.6238 -1.6437  0.7687
  789SOL    HW2 2367   2.602   0.007   1.778 -0.8146 -4.1502 -2.6715
  790SOL     OW 2368   2.590   2.642   0.856  0.0026 -0.4835 -0.4988
  790SOL    HW1 2369   2.656   2.648   0.774 -0.1520 -0.9911 -3.1807
  790SOL    HW2 2370   2.602   2.729   0.909  2.7936  3.2906  0.6182
  791SOL     OW 2371   1.953   1.274   0.234 -0.4682  0.3894  0.1227
  791SOL    HW1 2372   1.876   1.215   0.273  1.0120 -1.0994  2.8773
  791SOL    HW2 2373   2.044   1.235   0.239 -1.5121  0.2597 -1.5695
  792SOL     OW 2374   0.417   1.978   2.198 -0.1410 -0.0137  0.6245
  792SOL    HW1 2375   0.468   2.039   2.265  1.6947  0.0186 -1.5816
  792SOL    HW2 2376   0.324   1.949   2.235  0.2299  0.2342  1.4599
  793SOL     OW 2377   2.131   1.547   2.134  0.0613  0.0710  0.4385
  793SOL    HW1 2378   2.215   1.615   2.122  0.1715 -0.6640 -0.2907
  793SOL    HW2 2379   2.135   1.466   2.064 -0.7923 -1.4087 -3.2938
  794SOL     OW 2380   0.422   1.405   2.470  0.3895  0.3780  0.6734
  794SOL    HW1 2381   0.442   1.356   2.378  1.5459  1.3157 -1.7906
  794SOL    HW2 2382   0.388   1.504   2.453 -0.6488  3.9042  0.6937
  795SOL     OW 2383   2.530   2.318   1.801  0.0288 -0.0501 -0.0629
  795SOL    HW1 2384   2.544   2.362   1.894 -1.2248  1.4365  0.3088
  795SOL    HW2 2385   2.469   2.236   1.802  2.4973  2.3321  1.1659
  796SOL     OW 2386   3.068   1.051   2.695 -0.3949 -0.0691 -0.1726
  796SOL    HW1 2387   2.967   1.036   2.719  0.7015  0.2200 -4.1324
  796SOL    HW2 2388   3.140   1.081   2.767 -1.6828  1.1040  0.8661
  797SOL     OW 2389   0.729   0.665   1.355 -1.1835  0.0066  0.4201
  797SOL    HW1 2390   0.791   0.723   1.413 -1.5673 -2.5204  0.0145
  797SOL    HW2 2391   0.658   0.725   1.307 -3.0713 -1.1348  2.0459
  798SOL     OW 2392   1.205   0.447   1.002 -0.1038  0.0934 -0.5905
  798SOL    HW1 2393   1.206   0.486   1.103  0.6668 -3.7945 -0.0552
  798SOL    HW2 2394   1.276   0.488   0.937 -1.7025  2.9384 -0.1504
  799SOL     OW 2395   1.830   2.737   1.022 -0.1747 -0.6224 -0.2565
  799SOL    HW1 2396   1.810   2.647   1.065  1.8952  3.8646  0.1218
  799SOL    HW2 2397   1.867   2.726   0.929 -2.2593  1.2460  0.0441
  800SOL     OW 2398   2.959   0.823   1.828 -0.5384  0.3272 -0.6634
  800SOL    HW1 2399   2.982   0.926   1.836  2.5362 -0.4140  1.2321
  800SOL    HW2 2400   2.969   0.780   1.922 -0.6031  0.0171 -2.2996
  801SOL     OW 2401   1.965   2.155   0.143  0.1298  0.6722  0.2728
  801SOL    HW1 2402   1.913   2.209   0.068 -0.2560  0.8292 -0.2453
  801SOL    HW2 2403   2.054   2.116   0.109 -0.3853 -2.9160  1.0196
  802SOL     OW 2404   0.720   0.709   2.537 -0.0795 -0.6606 -0.1731
  802SOL    HW1 2405   0.752   0.698   2.436 -0.9671  2.7052 -0.8399
  802SOL    HW2 2406   0.617   0.688   2.546 -0.1464  0.3597  2.1792
  803SOL     OW 2407   0.929   0.035   0.862 -0.0278  0.1779  0.1832
  803SOL    HW1 2408   1.002   0.101   0.891 -3.2994  0.7792 -0.6134
  803SOL    HW2 2409   0.878   0.067   0.777 -0.8631 -0.2949  2.0278
  804SOL     OW 2410   0.288   0.028   2.186  0.8113  0.2765  0.3477
  804SOL    HW1 2411   0.277   0.131   2.203  1.2964  0.4925  0.5719
  804SOL    HW2 2412   0.221   0.000   2.108  1.5462 -0.0204 -0.7426
  805SOL     OW 2413   2.341   0.385   0.328  0.0592 -0.4039  0.0827
  805SOL    HW1 2414   2.429   0.403   0.389 -1.5552 -0.0457  0.1888
  805SOL    HW2 2415   2.359   0.308   0.263  0.2829  0.3846  1.2048
  806SOL     OW 2416   0.635   2.489   1.835  0.1087 -0.0556  0.2491
  806SOL    HW1 2417   0.593   2.581   1.863  0.0102  1.0126 -1.3755
  806SOL    HW2 2418   0.736   2.497   1.807  0.0147 -0.4586 -1.2211
  807SOL     OW 2419   2.542   0.965   0.433  0.2150  0.8681 -0.3812
  807SOL    HW1 2420   2.620   0.896   0.443  0.6003  0.7493  0.9439
  807SOL    HW2 2421   2.538   0.993   0.336 -0.8528 -1.7306  4.1293
  808SOL     OW 2422   0.599   2.024   2.892  0.0854  0.4035 -0.0685
  808SOL    HW1 2423   0.579   2.084   2.978  1.1585 -0.7824  0.3807
  808SOL    HW2 2424   0.641   1.930   2.906  3.1337  1.9178 -1.7575
  809SOL     OW 2425   2.542   2.006   1.884  0.0338 -0.0886  0.4493
  809SOL    HW1 2426   2.641   2.033   1.898 -1.4648 -0.2661  2.0837
  809SOL    HW2 2427   2.508   2.025   1.786 -0.5427 -2.6687  3.8222
  810SOL     OW 2428   2.151   1.082   0.531  0.0768 -0.1685  0.6518
  810SOL    HW1 2429   2.141   0.996   0.586  1.4115  1.2377 -2.2159
  810SOL    HW2 2430   2.151   1.168   0.587  3.9060  0.2436 -1.4942
  811SOL     OW 2431   1.298   2.546   1.183 -0.6145  0.8043 -0.2320
  811SOL    HW1 2432   1.303   2.444   1.192 -0.6591  3.4020  0.2133
  811SOL    HW2 2433   1.277   2.594   1.270  0.6882 -1.9858 -0.5127
  812SOL     OW 2434   1.398   0.783   1.934  0.3496  0.4636  0.4042
  812SOL    HW1 2435   1.298   0.772   1.948  2.0979 -2.0347 -0.2022
  812SOL    HW2 2436   1.433   0.856   1.865  3.9461 -0.8950  0.6740
  813SOL     OW 2437   1.570   2.054   2.418 -0.2479  0.1929  0.1370
  813SOL    HW1 2438   1.661   2.009   2.435  0.3730  2.0270 -1.5086
  813SOL    HW2 2439   1.535   2.039   2.320 -2.0688  1.1539 -0.1574
  814SOL     OW 2440   2.963   1.694   2.903  0.1987 -0.5081  0.2154
  814SOL    HW1 2441   3.038   1.656   2.964  0.6240 -0.8630 -0.5429
  814SOL    HW2 2442   2.986   1.794   2.872 -1.5204  3.2448  0.4879
  815SOL     OW 2443   2.173   2.908   2.773 -0.4558  0.1186  0.0373
  815SOL    HW1 2444   2.120   2.820   2.806 -0.9163 -0.5977 -1.9250
  815SOL    HW2 2445   2.258   2.928   2.831 -1.3945  0.7555  1.4686
  816SOL     OW 2446   1.533   0.356   1.670 -0.0180 -0.5833  0.6969
  816SOL    HW1 2447   1.590   0.273   1.695  2.8303  2.4329 -0.9057
  816SOL    HW2 2448   1.516   0.413   1.753  0.0183 -0.3542 -2.5037
  817SOL     OW 2449   0.396   1.204   2.650 -0.3576  0.6765 -0.3189
  817SOL    HW1 2450   0.356   1.225   2.741 -1.4489  3.3949  0.4920
  817SOL    HW2 2451   0.406   1.287   2.590  0.2244  3.4424  0.2697
  818SOL     OW 2452   1.989   0.821   0.458  0.4580  0.0480  0.3129
  818SOL    HW1 2453   2.092   0.836   0.471 -0.3707  0.4211 -0.1779
  818SOL    HW2 2454   1.933   0.816   0.543  0.9736 -2.6429 -0.6786
  819SOL     OW 2455   2.749   2.930   3.089  0.3609 -0.9600  0.4784
  819SOL    HW1 2456   2.787   2.877   3.170 -0.9343 -0.7928 -1.7595
  819SOL    HW2 2457   2.690   2.877   3.020  0.1527  0.5211  0.3160
  820SOL     OW 2458   1.266   1.057   0.533  0.2230  0.2603  0.3619
  820SOL    HW1 2459   1.307   1.116   0.610  3.2840  0.2117  2.8414
  820SOL    HW2 2460   1.231   0.971   0.575  0.2091 -1.3621 -1.3967
  821SOL     OW 2461   0.061   1.198   0.737  0.3547 -0.1506  0.3085
  821SOL    HW1 2462   0.013   1.188   0.826 -0.9711 -1.6393 -1.4486
  821SOL    HW2 2463   0.124   1.285   0.740 -0.6511 -1.3048 -0.8476
  822SOL     OW 2464   2.502   1.793   2.431  0.2960 -0.1719  0.0050
  822SOL    HW1 2465   2.507   1.846   2.522  0.5266  0.2178 -1.5136
  822SOL    HW2 2466   2.424   1.828   2.371  0.5628 -1.6147  1.1807
  823SOL     OW 2467   2.014   0.956   1.174  0.2778  0.5101  0.1699
  823SOL    HW1 2468   1.982   0.893   1.254  1.1158 -1.5950 -2.0647
  823SOL    HW2 2469   1.945   0.961   1.094 -4.0723 -2.2302 -0.4905
  824SOL     OW 2470   0.216   1.930   2.793 -0.3595 -0.7277  0.0380
  824SOL    HW1 2471   0.259   1.890   2.876  3.4117  1.2656 -1.3428
  824SOL    HW2 2472   0.271   1.936   2.709 -0.5777 -1.1533  1.0139
  825SOL     OW 2473   1.326   1.078   0.256  0.1204 -0.5301  0.2156
  825SOL    HW1 2474   1.348   1.175   0.232 -0.1046  1.3427  0.3290
  825SOL    HW2 2475   1.296   1.059   0.357 -2.7484 -0.4003 -0.4613
  826SOL     OW 2476   1.927   0.594   1.590 -0.0924 -0.1943 -0.2509
  826SOL    HW1 2477   2.012   0.562   1.644  0.1800  2.2356  0.6913
  826SOL    HW2 2478   1.866   0.515   1.560  1.5322  0.8758 -0.8164
  827SOL     OW 2479   0.717   1.161   0.370  0.8114  0.2138  0.0389
  827SOL    HW1 2480   0.762   1.091   0.312 -0.5986 -1.2583  1.3261
  827SOL    HW2 2481   0.630   1.123   0.412 -0.9420  2.0601 -0.5080
  828SOL     OW 2482   2.638   0.122   1.526 -0.5161 -0.1180  0.0311
  828SOL    HW1 2483   2.550   0.063   1.512 -1.6981  0.1015  0.3298
  828SOL    HW2 2484   2.653   0.146   1.624 -2.0362  0.7689 -0.8557
  829SOL     OW 2485   2.950   2.407   2.891 -0.1339  0.4622  0.5877
  829SOL    HW1 2486   2.865   2.387   2.943 -1.9450  1.5571 -2.6738
  829SOL    HW2 2487   2.973   2.506   2.901 -1.3578 -0.6097 -0.0738
  830SOL     OW 2488   2.887   0.912   3.051 -0.5348 -0.2942  0.1908
  830SOL    HW1 2489   2.954   0.985   3.084  0.3300  3.0458 -1.6853
  830SOL    HW2 2490   2.922   0.817   3.060  0.4511 -1.3535 -0.0693
  831SOL     OW 2491   0.037   0.562   0.411  0.5440 -0.2466  0.5526
  831SOL    HW1 2492   0.012   0.510   0.497  0.3696 -1.0700 -0.5371
  831SOL    HW2 2493   0.069   0.505   0.329  0.3863  0.7153 -0.1990
  832SOL     OW 2494   1.812   0.762   3.056 -0.2840 -0.3131 -0.9457
  832SOL    HW1 2495   1.712   0.795   3.028 -1.1350  1.3487  2.5254
  832SOL    HW2 2496   1.815   0.657   3.055 -2.3889  0.1256 -2.7380
  833SOL     OW 2497   2.404   2.096   0.474 -0.2197  0.4990  0.0970
  833SOL    HW1 2498   2.307   2.054   0.464 -0.3019 -0.6245 -0.2110
  833SOL    HW2 2499   2.479   2.026   0.466  1.2217 -1.6484  0.2372
  834SOL     OW 2500   0.212   0.112   0.570  0.0002 -0.3007  0.1681
  834SOL    HW1 2501   0.228   0.010   0.589 -2.2000 -0.2556  1.3923
  834SOL    HW2 2502   0.210   0.133   0.467  0.5934 -0.1911 -2.9761
  835SOL     OW 2503   2.435   1.515   1.125 -0.8741 -0.3699 -0.7867
  835SOL    HW1 2504   2.525   1.539   1.166 -2.9318  1.1485  0.4803
  835SOL    HW2 2505   2.456   1.480   1.026 -1.9916  2.4494  0.4957
  836SOL     OW 2506   1.603   0.819   2.587 -0.1837 -0.2068  0.2795
  836SOL    HW1 2507   1.498   0.814   2.601  0.1869 -1.1043  0.1308
  836SOL    HW2 2508   1.632   0.831   2.484 -0.5985 -0.3795 -0.0152
  837SOL     OW 2509   1.710   0.101   0.592 -0.1960  0.2892 -0.6824
  837SOL    HW1 2510   1.650   0.177   0.636 -1.8160  2.5437 -0.5612
  837SOL    HW2 2511   1.693   0.094   0.488  1.1674 -1.3014 -0.0299
  838SOL     OW 2512   1.232   1.385   2.700 -0.7425  0.3094 -0.0540
  838SOL    HW1 2513   1.225   1.456   2.775 -3.1989 -0.9516  1.9860
  838SOL    HW2 2514   1.139   1.363   2.656  0.5038 -2.7682 -0.0977
  839SOL     OW 2515   1.571   0.356   0.973 -0.1144 -0.0267  0.0130
  839SOL    HW1 2516   1.515   0.410   1.045 -1.0381  2.7922 -0.2047
  839SOL    HW2 2517   1.582   0.255   0.993  2.5486 -0.8615 -0.4187
  840SOL     OW 2518   2.580   2.955   1.711 -0.0711 -0.0577 -0.3149
  840SOL    HW1 2519   2.553   2.887   1.639 -0.7043  1.1947  0.0920
  840SOL    HW2 2520   2.591   2.914   1.807 -1.4878  3.0001  0.8568
  841SOL     OW 2521   1.531   0.838   2.939 -0.1977 -0.7455  0.3944
  841SOL    HW1 2522   1.467   0.904   2.987 -0.5382  2.7882 -3.5432
  841SOL    HW2 2523   1.585   0.881   2.859  2.5928 -0.3447 -2.2933
  842SOL     OW 2524   0.818   1.559   1.000  0.6345 -0.2027  0.2028
  842SOL    HW1 2525   0.775   1.644   1.044 -1.4203  0.1493  0.6455
  842SOL    HW2 2526   0.761   1.517   0.930  1.7030  1.0159 -0.1435
  843SOL     OW 2527   0.121   0.123   1.442  0.0168  0.3801  0.4908
  843SOL    HW1 2528   0.214   0.165   1.458 -1.0623  2.3871 -1.4314
  843SOL    HW2 2529   0.124   0.025   1.419 -1.4611  4.2550 -0.8671
  844SOL     OW 2530   0.761   2.531   0.220 -0.6402  0.4570 -0.5034
  844SOL    HW1 2531   0.748   2.491   0.313  1.0573  1.6705 -0.0643
  844SOL    HW2 2532   0.676   2.514   0.164 -1.1312 -2.2429  1.5598
  845SOL     OW 2533   1.676   2.943   1.287  0.0764 -0.6088 -0.1833
  845SOL    HW1 2534   1.652   3.038   1.326  0.9073 -0.1597  0.2967
  845SOL    HW2 2535   1.608   2.914   1.214 -0.1809  2.3595 -0.4292
  846SOL     OW 2536   1.711   2.968   0.900 -0.1381  0.2703 -0.3022
  846SOL    HW1 2537   1.728   2.984   0.798  0.6780 -0.0022  0.7462
  846SOL    HW2 2538   1.792   2.913   0.942  1.0730  1.4249  0.2172
  847SOL     OW 2539   2.055   1.610   0.206 -0.1033  0.0193 -0.2547
  847SOL    HW1 2540   1.999   1.613   0.297 -1.6943  1.0169 -1.1861
  847SOL    HW2 2541   2.003   1.567   0.130  2.0755 -0.5468  2.0453
  848SOL     OW 2542   2.461   0.858   2.658  0.0792  0.0251  0.2090
  848SOL    HW1 2543   2.458   0.960   2.675 -0.2638 -3.6341 -2.7587
  848SOL    HW2 2544   2.399   0.825   2.584  0.2630 -0.1770 -0.0519
  849SOL     OW 2545   2.421   0.892   2.284  0.2651  0.1045 -0.4480
  849SOL    HW1 2546   2.491   0.848   2.228 -2.5074  1.7406 -2.5743
  849SOL    HW2 2547   2.380   0.825   2.356  0.1058 -0.3299 -0.2472
  850SOL     OW 2548   1.587   0.157   1.252 -0.8541 -0.1023 -0.2816
  850SOL    HW1 2549   1.585   0.119   1.154 -1.4825 -2.6844  0.2629
  850SOL    HW2 2550   1.535   0.105   1.324  0.5464 -2.2693 -0.8127
  851SOL     OW 2551   0.481   1.777   0.682  0.2493  0.1406 -0.0955
  851SOL    HW1 2552   0.506   1.877   0.682 -0.5742  0.8531  0.3186
  851SOL    HW2 2553   0.556   1.713   0.717 -0.8633 -2.0223 -0.0437
  852SOL     OW 2554   0.771   2.130   1.687  0.4197  0.6167 -0.2181
  852SOL    HW1 2555   0.781   2.217   1.632  1.3922 -3.8367  1.0015
  852SOL    HW2 2556   0.718   2.136   1.776 -0.4614 -0.3416  1.2448
  853SOL     OW 2557   2.521   1.534   2.577 -0.1633 -0.3301 -0.2007
  853SOL    HW1 2558   2.489   1.438   2.543  0.6151 -0.2569  1.8804
  853SOL    HW2 2559   2.484   1.612   2.523  1.6273 -1.5423  1.2186
  854SOL     OW 2560   2.368   1.404   1.770 -0.0452  0.3138 -0.1668
  854SOL    HW1 2561   2.375   1.410   1.664 -1.1960  2.5190 -1.2742
  854SOL    HW2 2562   2.326   1.311   1.797 -1.9704  1.4349  0.5511
  855SOL     OW 2563   2.047   2.299   0.962  0.1592  0.1193  0.2402
  855SOL    HW1 2564   2.103   2.390   0.947  2.1407 -1.7935  0.8987
  855SOL    HW2 2565   2.089   2.248   1.040  0.1168  3.4719 -0.8136
  856SOL     OW 2566   1.418   1.351   0.882  0.1030 -0.1833  0.3045
  856SOL    HW1 2567   1.379   1.450   0.888 -5.1664  3.4359 -2.2359
  856SOL    HW2 2568   1.413   1.302   0.973 -0.9463 -0.2876  0.3436
  857SOL     OW 2569   2.976   2.563   1.060 -0.2569  0.5077 -0.0782
  857SOL    HW1 2570   2.885   2.507   1.053 -3.2899  3.2185 -0.4476
  857SOL    HW2 2571   3.060   2.514   1.028 -0.8371  0.7813  2.1982
  858SOL     OW 2572   2.284   2.152   1.751  0.3812 -0.5980 -0.2714
  858SOL    HW1 2573   2.188   2.163   1.705 -2.5750  0.0465  0.1853
  858SOL    HW2 2574   2.326   2.065   1.712 -2.6380 -2.4766 -2.5116
  859SOL     OW 2575   2.438   0.502   1.026 -0.3786  0.3793 -0.4332
  859SOL    HW1 2576   2.488   0.517   0.933 -1.2285 -3.3052  0.7128
  859SOL    HW2 2577   2.444   0.405   1.066 -0.7514 -3.4163  0.3455
  860SOL     OW 2578   1.956   2.748   0.479 -0.1032  0.1839  0.6557
  860SOL    HW1 2579   1.908   2.718   0.391  0.0719  1.7857  1.7751
  860SOL    HW2 2580   2.034   2.818   0.454 -0.7494 -0.0378  0.8891
  861SOL     OW 2581   1.092   2.575   2.767 -0.3688 -0.1984  0.0604
  861SOL    HW1 2582   1.142   2.664   2.749 -1.3359 -0.5033 -1.3219
  861SOL    HW2 2583   1.071   2.559   2.867  0.5414 -2.7925 -2.6461
  862SOL     OW 2584   2.943   2.548   1.545  0.6018  0.0389  0.0026
  862SOL    HW1 2585   3.026   2.587   1.587 -2.6559 -1.0741 -0.3225
  862SOL    HW2 2586   2.874   2.615   1.511 -0.8814 -2.0492  0.7682
  863SOL     OW 2587   1.908   2.627   0.247 -0.1197 -0.0305 -0.3108
  863SOL    HW1 2588   1.998   2.579   0.217 -2.5687 -0.0404  0.6887
  863SOL    HW2 2589   1.830   2.565   0.221 -0.1148  1.1471  0.6915
  864SOL     OW 2590   1.872   1.180   2.950  0.5291 -0.5865 -0.1117
  864SOL    HW1 2591   1.889   1.145   2.851  1.5534  0.8624 -4.0121
  864SOL    HW2 2592   1.947   1.154   3.019 -1.2252 -1.5577  1.6561
  865SOL     OW 2593   2.138   1.741   0.689 -0.4107 -0.3239  0.1552
  865SOL    HW1 2594   2.185   1.768   0.779  1.5976 -1.2127  2.8169
  865SOL    HW2 2595   2.037   1.715   0.704 -4.5108  1.4347 -0.3336
  866SOL     OW 2596   2.910   2.852   1.021 -0.2746 -0.5953  0.2619
  866SOL    HW1 2597   2.968   2.894   0.949 -0.4887  2.0104 -1.0069
  866SOL    HW2 2598   2.908   2.746   1.018  0.9380  0.1182 -0.9063
  867SOL     OW 2599   0.432   1.320   0.871  0.2705 -0.6066 -0.1177
  867SOL    HW1 2600   0.446   1.219   0.860  0.8519 -0.9866 -2.3934
  867SOL    HW2 2601   0.355   1.352   0.805  0.1722  0.3676  0.4215
  868SOL     OW 2602   0.838   1.912   1.977  0.4020  0.4462 -0.5474
  868SOL    HW1 2603   0.850   1.907   2.083  0.7228 -0.2755  3.9521
  868SOL    HW2 2604   0.771   1.988   1.952  1.4413  0.6416  0.5156
  869SOL     OW 2605   2.495   2.020   1.615 -0.1325  0.4091 -0.2193
  869SOL    HW1 2606   2.564   2.080   1.570  0.6376 -0.9802  2.1891
  869SOL    HW2 2607   2.461   1.947   1.549 -0.2259  1.2866  0.5779
  870SOL     OW 2608   2.331   2.563   1.215  0.0530  0.3075 -0.8040
  870SOL    HW1 2609   2.306   2.466   1.202 -0.1190 -0.6340  0.8188
  870SOL    HW2 2610   2.435   2.578   1.216  0.0719  0.8849 -0.4498
  871SOL     OW 2611   2.987   2.054   0.561  0.4671 -0.5314  0.1259
  871SOL    HW1 2612   2.902   2.053   0.613  1.2846  0.3437 -1.0271
  871SOL    HW2 2613   2.982   1.979   0.486 -1.9336  0.7615 -0.7898
  872SOL     OW 2614   2.161   0.510   1.704  0.0884 -0.2661 -0.2821
  872SOL    HW1 2615   2.107   0.491   1.791  2.0348 -0.5373  2.8928
  872SOL    HW2 2616   2.256   0.466   1.701  3.3495  3.1453  1.1859
  873SOL     OW 2617   1.729   2.122   2.945 -0.0109  0.2537  0.2728
  873SOL    HW1 2618   1.704   2.214   2.984  0.3003 -1.4282 -0.5474
  873SOL    HW2 2619   1.653   2.090   2.880  3.0744  1.6415 -1.4783
  874SOL     OW 2620   0.696   2.481   0.778  0.0694 -0.0807  0.0079
  874SOL    HW1 2621   0.709   2.577   0.810  2.1470  1.6607 -1.5182
  874SOL    HW2 2622   0.788   2.437   0.756 -0.9682 -0.1179  1.0822
  875SOL     OW 2623   2.296   1.528   1.487  0.9321 -0.6558 -0.1303
  875SOL    HW1 2624   2.392   1.566   1.506 -1.7668  1.2979 -2.4957
  875SOL    HW2 2625   2.255   1.545   1.395  1.9044  0.2832  0.7712
  876SOL     OW 2626   0.136   2.203   2.679  0.1366 -0.0883  0.2446
  876SOL    HW1 2627   0.188   2.118   2.709 -1.6523  1.6034  0.7654
  876SOL    HW2 2628   0.166   2.292   2.724 -1.7617  2.3478  0.0243
  877SOL     OW 2629   2.783   2.689   0.626 -0.3883  0.2455 -0.6649
  877SOL    HW1 2630   2.832   2.774   0.599 -0.0445 -1.8791  3.8081
  877SOL    HW2 2631   2.852   2.614   0.658  1.5815 -1.0048 -0.3144
  878SOL     OW 2632   2.869   1.494   2.191 -0.5120  0.9414  0.2515
  878SOL    HW1 2633   2.966   1.492   2.161 -1.1049  2.1395 -1.2471
  878SOL    HW2 2634   2.857   1.515   2.290 -1.8440 -0.4131  1.8339
  879SOL     OW 2635   2.373   0.013   1.191 -0.2091 -0.3359  0.1269
  879SOL    HW1 2636   2.420  -0.077   1.221  1.7285  0.7276  2.0217
  879SOL    HW2 2637   2.295   0.004   1.121 -0.1803  0.5903  0.6104
  880SOL     OW 2638   0.695   0.443   2.149 -0.4127 -0.3557 -0.1260
  880SOL    HW1 2639   0.631   0.376   2.183  2.4160  0.8380 -0.8190
  880SOL    HW2 2640   0.763   0.405   2.085 -3.5414 -0.3745  1.9287
  881SOL     OW 2641   0.913   0.043   0.411 -0.2214  0.1965 -0.3293
  881SOL    HW1 2642   0.950  -0.047   0.447 -0.3550 -2.5672 -0.1456
  881SOL    HW2 2643   0.857   0.022   0.329  2.4237 -0.0283  1.5245
  882SOL     OW 2644   2.739   1.639   1.689  0.1423  0.2676 -0.0632
  882SOL    HW1 2645   2.839   1.611   1.685  2.1748 -2.2012 -2.0861
  882SOL    HW2 2646   2.720   1.707   1.768  1.2262 -0.6903 -1.9950
  883SOL     OW 2647   0.967   0.574   0.951 -0.4480  0.1436 -0.4020
  883SOL    HW1 2648   0.955   0.671   0.994 -0.1431  2.7142  0.1366
  883SOL    HW2 2649   1.056   0.525   0.962 -1.6642 -2.0777 -0.1920
  884SOL     OW 2650   1.184   1.919   1.012 -0.0829  0.3613 -0.3936
  884SOL    HW1 2651   1.155   1.879   0.920  1.3299  0.4805  1.2524
  884SOL    HW2 2652   1.132   2.004   1.032 -1.0407 -2.4216 -1.8338
  885SOL     OW 2653   2.261   1.837   2.313 -0.4891 -0.3523 -0.0950
  885SOL    HW1 2654   2.204   1.777   2.375  1.5420 -1.2077  0.6111
  885SOL    HW2 2655   2.254   1.933   2.347 -2.6587  2.1962  0.7597
  886SOL     OW 2656   2.664   0.460   1.788 -0.1489  0.2182 -0.5492
  886SOL    HW1 2657   2.717   0.392   1.841 -2.3258 -0.4156  0.7938
  886SOL    HW2 2658   2.721   0.539   1.751 -2.7383 -0.5811  1.2600
  887SOL     OW 2659   0.093   2.065   1.277  0.0604 -0.2336  0.1464
  887SOL    HW1 2660   0.034   2.010   1.215  2.9076 -1.7586  0.3553
  887SOL    HW2 2661   0.156   2.135   1.228  0.1396  2.7496  0.3130
  888SOL     OW 2662   0.561   1.287   1.504  0.0836 -0.1589 -0.0909
  888SOL    HW1 2663   0.612   1.311   1.417 -0.6478  2.1593 -0.4765
  888SOL    HW2 2664   0.557   1.190   1.533  0.5377  3.1107 -0.1493
  889SOL     OW 2665   0.837   2.518   2.122 -0.3494  0.7481  0.4572
  889SOL    HW1 2666   0.772   2.440   2.103  0.2131  0.4983  1.4279
  889SOL    HW2 2667   0.918   2.506   2.057  1.3058  0.0096 -2.7434
  890SOL     OW 2668   2.367   2.462   0.185 -0.8474 -0.1464 -0.3282
  890SOL    HW1 2669   2.379   2.531   0.109  0.6819  1.9840  0.4484
  890SOL    HW2 2670   2.289   2.484   0.254 -0.8916 -0.5335  2.0044
  891SOL     OW 2671   2.617   1.497   0.657 -0.2297 -0.3462  0.4522
  891SOL    HW1 2672   2.636   1.480   0.755 -2.6329 -0.1412  2.5639
  891SOL    HW2 2673   2.552   1.576   0.651  1.4758  1.3438 -1.4046
  892SOL     OW 2674   0.262   0.298   2.229 -0.3701  0.2291 -0.0894
  892SOL    HW1 2675   0.272   0.300   2.125 -0.4496 -0.4046  0.2506
  892SOL    HW2 2676   0.349   0.319   2.287  2.0058  1.1723 -0.6854
  893SOL     OW 2677   1.681   0.238   2.741  0.0826  0.2293 -0.5766
  893SOL    HW1 2678   1.742   0.306   2.791  0.4757  1.2450 -0.4243
  893SOL    HW2 2679   1.589   0.283   2.723 -1.5909 -0.9041  0.3021
  894SOL     OW 2680   2.214   2.002   0.032 -0.7218 -0.1023 -0.4865
  894SOL    HW1 2681   2.181   1.964  -0.057 -0.6029 -0.1584  1.4825
  894SOL    HW2 2682   2.227   1.931   0.112  2.9316 -1.1351  1.4604
  895SOL     OW 2683   2.915   1.452   0.811  0.0003 -0.3137 -0.6217
  895SOL    HW1 2684   2.960   1.407   0.893 -1.0897  1.5357 -0.0072
  895SOL    HW2 2685   2.975   1.526   0.771  1.0116  0.3277 -2.7750
  896SOL     OW 2686   1.725   1.784   1.159  0.1944  0.1277  0.2016
  896SOL    HW1 2687   1.785   1.852   1.110  1.6462 -1.1677 -1.6258
  896SOL    HW2 2688   1.625   1.799   1.142  1.5251 -0.6303  1.3289
  897SOL     OW 2689   0.270   0.541   3.084  0.3157  0.1735  0.4303
  897SOL    HW1 2690   0.185   0.578   3.047  0.0188 -2.2314  2.8746
  897SOL    HW2 2691   0.344   0.608   3.087 -0.6464 -2.2321 -1.4229
  898SOL     OW 2692   0.572   2.843   1.123 -0.1627  0.1992  0.1005
  898SOL    HW1 2693   0.511   2.924   1.152 -1.9300  1.1485 -0.0991
  898SOL    HW2 2694   0.672   2.853   1.154 -0.3363  1.1399  2.2642
  899SOL     OW 2695   2.676   0.940   1.221 -0.6974 -0.2223 -0.5062
  899SOL    HW1 2696   2.590   0.934   1.164 -1.0815 -0.8390 -1.2927
  899SOL    HW2 2697   2.761   0.959   1.161  3.6147 -1.4302  3.2058
  900SOL     OW 2698   1.014   2.480   2.354 -0.1344 -1.2830  0.3676
  900SOL    HW1 2699   0.942   2.496   2.281  0.4141 -0.1395  0.8665
  900SOL    HW2 2700   0.983   2.441   2.439  2.4407 -2.6935 -3.5870
  901SOL     OW 2701   1.898   2.435   1.371 -0.2515 -0.2484 -0.1476
  901SOL    HW1 2702   1.880   2.451   1.275  1.5304 -0.7426  1.1643
  901SOL    HW2 2703   1.996   2.424   1.391 -0.2306  0.5639 -1.6222
  902SOL     OW 2704   2.581   1.627   1.449 -0.1856  0.1457  0.5678
  902SOL    HW1 2705   2.618   1.622   1.549 -0.5734 -1.2794 -0.7754
  902SOL    HW2 2706   2.632   1.570   1.382  1.1958  1.0409 -0.2558
  903SOL     OW 2707   0.265   2.405   2.017  0.1797 -0.8300 -0.4535
  903SOL    HW1 2708   0.189   2.333   1.999  2.2655 -1.9287  0.1595
  903SOL    HW2 2709   0.283   2.474   1.940  2.4313  1.1892 -0.6745
  904SOL     OW 2710   1.974   0.805   2.500 -0.2990  0.2545  1.0283
  904SOL    HW1 2711   1.885   0.770   2.536  0.3012  3.8778  2.1839
  904SOL    HW2 2712   1.979   0.790   2.394 -0.1165  1.2943  0.4594
  905SOL     OW 2713   2.763   0.024   2.596 -0.4133 -0.2709  0.2827
  905SOL    HW1 2714   2.842  -0.038   2.622  3.1164 -0.9820  0.1072
  905SOL    HW2 2715   2.788   0.118   2.557 -0.4006 -0.3964  0.5508
  906SOL     OW 2716   0.180   1.777   1.871 -0.8788 -0.1104 -0.2932
  906SOL    HW1 2717   0.116   1.795   1.792  0.5488 -0.4874 -0.2133
  906SOL    HW2 2718   0.272   1.820   1.854 -0.3164 -0.9532 -0.8848
  907SOL     OW 2719   0.156   2.488   1.017  0.3082 -0.1479 -0.5661
  907SOL    HW1 2720   0.205   2.573   1.052  0.3036  0.0687  0.1717
  907SOL    HW2 2721   0.164   2.468   0.913 -1.6300 -3.9865 -0.8354
  908SOL     OW 2722   2.661   2.943   0.423 -0.6751 -0.5169 -0.0495
  908SOL    HW1 2723   2.644   3.000   0.339 -0.8529  4.2629  0.0227
  908SOL    HW2 2724   2.651   2.842   0.401 -1.2544 -1.7856 -1.5874
  909SOL     OW 2725   0.829   0.911   2.664 -0.3890 -0.3958 -0.3081
  909SOL    HW1 2726   0.775   0.836   2.617  1.2552  0.9652 -1.5977
  909SOL    HW2 2727   0.897   0.942   2.594  0.2307  0.1668  3.7530
  910SOL     OW 2728   1.762   1.799   2.048 -0.1645  0.0336 -0.9628
  910SOL    HW1 2729   1.812   1.849   1.970 -0.4656 -0.1461 -1.2414
  910SOL    HW2 2730   1.682   1.854   2.085  0.3776  0.9395  0.7297
  911SOL     OW 2731   1.762   3.019   1.624 -0.2164  0.4276 -0.3108
  911SOL    HW1 2732   1.826   2.973   1.557 -0.8984 -0.2594  1.3002
  911SOL    HW2 2733   1.738   2.949   1.697  2.8263 -0.4619 -1.4667
  912SOL     OW 2734   2.843   0.946   0.778 -0.4604  0.0277 -0.3180
  912SOL    HW1 2735   2.849   0.938   0.882  2.1368 -0.7147  0.8868
  912SOL    HW2 2736   2.857   1.044   0.748  0.6036 -0.5757  1.4836
  913SOL     OW 2737   2.532   1.286   1.549 -0.0710 -0.3785 -0.2391
  913SOL    HW1 2738   2.565   1.190   1.526  1.3417  1.6945  2.7199
  913SOL    HW2 2739   2.558   1.356   1.476  1.1644  2.0747 -2.3769
  914SOL     OW 2740   2.821   0.524   1.227  0.3673 -0.3653  0.1062
  914SOL    HW1 2741   2.783   0.431   1.250 -0.6253  4.0237  3.2298
  914SOL    HW2 2742   2.800   0.586   1.308  1.1166  0.0177 -0.6771
  915SOL     OW 2743   1.225   0.789   1.006 -0.3324  0.1537 -0.1850
  915SOL    HW1 2744   1.308   0.799   1.069  0.5912 -0.7314  0.8459
  915SOL    HW2 2745   1.139   0.836   1.048  0.4368  0.6963 -2.3089
  916SOL     OW 2746   0.548   0.037   0.653  0.1282 -0.1653 -0.2612
  916SOL    HW1 2747   0.549   0.134   0.688  3.4776  0.1421 -1.3555
  916SOL    HW2 2748   0.559   0.042   0.548 -0.7288  1.3701 -1.0831
  917SOL     OW 2749   2.762   2.620   1.957 -0.3359  0.5415 -0.1915
  917SOL    HW1 2750   2.674   2.680   1.952 -2.8325 -0.6638  0.2589
  917SOL    HW2 2751   2.846   2.658   1.920 -1.4723 -0.6857 -2.4909
  918SOL     OW 2752   0.984   2.164   3.023 -0.2355  0.0595  0.7463
  918SOL    HW1 2753   0.927   2.184   3.109  0.6417  1.1983 -1.5217
  918SOL    HW2 2754   1.036   2.074   3.030  0.0772  1.1144  1.6375
  919SOL     OW 2755   0.941   1.601   2.780  0.5066  0.6797  0.3615
  919SOL    HW1 2756   0.985   1.669   2.718  2.2399 -0.7740 -0.3766
  919SOL    HW2 2757   0.872   1.539   2.739  0.2201 -0.0244  1.1803
  920SOL     OW 2758   1.241   2.048   2.497 -0.1488  0.4488 -0.2995
  920SOL    HW1 2759   1.179   2.089   2.424  1.5848  1.4974  3.2244
  920SOL    HW2 2760   1.273   1.951   2.476  0.4566  1.2135  2.3752
  921SOL     OW 2761   1.093   0.045   2.567 -0.3139  0.6756  0.0440
  921SOL    HW1 2762   1.064   0.058   2.468 -5.1516  0.6738 -1.2782
  921SOL    HW2 2763   1.018   0.000   2.622  0.1025  3.8613 -1.6914
  922SOL     OW 2764   2.201   2.368   2.784  0.1530 -0.3256 -0.4925
  922SOL    HW1 2765   2.181   2.268   2.773  0.6220  0.3650  2.6932
  922SOL    HW2 2766   2.138   2.429   2.731  1.5524 -0.1521  0.2927
  923SOL     OW 2767   1.252   2.673   0.292  0.4834 -0.2361  0.5452
  923SOL    HW1 2768   1.335   2.728   0.328 -0.2545  0.4933 -2.6433
  923SOL    HW2 2769   1.270   2.578   0.255 -1.7661 -1.6065  0.2192
  924SOL     OW 2770   2.910   1.570   0.080 -0.6076  0.2218 -0.0844
  924SOL    HW1 2771   2.820   1.569   0.031 -0.2308 -0.3356 -1.0989
  924SOL    HW2 2772   2.988   1.545   0.020 -0.2508  2.8019  2.5671
  925SOL     OW 2773   0.029   2.854   1.594  0.1476 -0.8202  0.8947
  925SOL    HW1 2774  -0.059   2.898   1.631 -0.8739  0.9323  3.1234
  925SOL    HW2 2775   0.062   2.901   1.507 -0.6938 -0.6536  1.1354
  926SOL     OW 2776   1.360   2.909   1.310  0.3518  0.4616  0.1393
  926SOL    HW1 2777   1.434   2.899   1.238  0.0245  0.1179  1.2083
  926SOL    HW2 2778   1.392   2.974   1.381 -1.0105 -0.5195  1.0276
  927SOL     OW 2779   0.277   2.565   1.785  0.1711 -0.7834 -0.6743
  927SOL    HW1 2780   0.260   2.513   1.698 -3.5981  0.6194 -0.1683
  927SOL    HW2 2781   0.249   2.666   1.772 -1.3482  0.1682 -0.7454
  928SOL     OW 2782   1.548   2.011   2.136  0.5726 -0.7828  0.4861
  928SOL    HW1 2783   1.594   2.092   2.095  0.5091  1.5976  0.9853
  928SOL    HW2 2784   1.448   2.008   2.106 -2.0208  0.8230 -2.6159
  929SOL     OW 2785   2.441   2.480   2.862  0.6095 -0.5935 -0.4993
  929SOL    HW1 2786   2.355   2.427   2.853 -1.5547  0.6578  0.0178
  929SOL    HW2 2787   2.487   2.516   2.777 -0.3166  0.1224  3.7363
  930SOL     OW 2788   2.196   1.996   1.074  0.1994 -0.1751 -0.0012
  930SOL    HW1 2789   2.178   1.982   1.174  1.3333 -4.8719  1.8436
  930SOL    HW2 2790   2.267   2.069   1.058  0.2514  1.2388 -3.2522
  931SOL     OW 2791   0.535   1.707   2.625 -0.2466  0.4583 -0.2457
  931SOL    HW1 2792   0.599   1.763   2.684 -0.1002 -2.5119  0.0925
  931SOL    HW2 2793   0.560   1.607   2.616  2.1131  2.2405 -0.6662
  932SOL     OW 2794   0.469   0.086   2.921  0.1504  0.5251  0.3837
  932SOL    HW1 2795   0.552   0.145   2.887 -0.6177  1.9584 -0.0449
  932SOL    HW2 2796   0.485  -0.009   2.953  2.5834 -0.1383 -0.4287
  933SOL     OW 2797   1.040   0.803   2.991 -0.1857  0.0818 -0.0173
  933SOL    HW1 2798   1.106   0.824   3.069 -0.8199  0.6404 -0.3531
  933SOL    HW2 2799   0.996   0.891   2.959  1.3870 -0.1694  0.6436
  934SOL     OW 2800   0.886   3.041   2.730 -0.5802  0.2741 -0.1461
  934SOL    HW1 2801   0.921   2.967   2.664  0.0211 -0.6348  0.5658
  934SOL    HW2 2802   0.914   3.005   2.825 -0.7937 -1.1406  1.5416
  935SOL     OW 2803   3.089   0.519   0.815  0.0103 -0.4294 -0.4185
  935SOL    HW1 2804   3.114   0.455   0.735  2.8235  0.5833  0.4276
  935SOL    HW2 2805   2.994   0.562   0.800 -4.4441 -0.7485  0.8527
  936SOL     OW 2806   1.091   2.904   0.159 -0.2813  0.0940  0.3052
  936SOL    HW1 2807   1.144   2.939   0.080 -1.7654  0.3419  1.9450
  936SOL    HW2 2808   1.133   2.820   0.207 -0.0269 -0.1608 -2.0645
  937SOL     OW 2809   1.906   2.613   2.090  0.8028 -0.3256 -0.3924
  937SOL    HW1 2810   1.831   2.660   2.149 -1.4094 -0.1062  0.5099
  937SOL    HW2 2811   1.914   2.648   1.993 -2.5409  2.0403 -1.2769
  938SOL     OW 2812   2.767   2.150   1.504  0.9916  0.4862  0.0088
  938SOL    HW1 2813   2.756   2.246   1.537  1.1841 -0.3205 -1.1584
  938SOL    HW2 2814   2.827   2.093   1.565 -0.9068 -2.8073  2.0000
  939SOL     OW 2815   2.817   1.142   2.471  0.2560 -0.9260  0.6143
  939SOL    HW1 2816   2.883   1.164   2.391  0.3306 -0.4071  1.6185
  939SOL    HW2 2817   2.850   1.166   2.565 -1.8939 -1.8930  0.5739
  940SOL     OW 2818   1.043   0.451   2.642  0.7344  0.7709 -0.4439
  940SOL    HW1 2819   1.068   0.362   2.695 -4.0387 -1.1929 -0.8183
  940SOL    HW2 2820   0.942   0.437   2.619 -0.3946 -2.6031  1.8778
  941SOL     OW 2821   0.016   2.832   2.219  0.2693 -0.1445  0.4799
  941SOL    HW1 2822   0.010   2.728   2.208 -0.0033  0.6388 -1.3590
  941SOL    HW2 2823   0.031   2.855   2.313  0.8614 -2.8133 -4.5948
  942SOL     OW 2824   0.050   0.073   2.525  0.2767 -0.0416 -0.3450
  942SOL    HW1 2825   0.114   0.076   2.610  1.3459 -2.0249 -0.3023
  942SOL    HW2 2826   0.018   0.167   2.495 -1.6249  1.6211  0.2493
  943SOL     OW 2827   2.101   1.658   2.433 -0.6126 -0.1411 -0.2972
  943SOL    HW1 2828   2.131   1.601   2.350  2.8506 -0.0576 -0.0215
  943SOL    HW2 2829   2.108   1.596   2.518  2.2210 -6.1506 -0.1760
  944SOL     OW 2830   2.179   2.364   1.473 -0.1239  0.4962  0.2872
  944SOL    HW1 2831   2.245   2.437   1.513 -1.2022  2.2480  2.3455
  944SOL    HW2 2832   2.137   2.306   1.548  2.1069  1.8391 -1.4140
  945SOL     OW 2833   0.622   1.428   0.371 -0.4106 -1.5490 -0.4771
  945SOL    HW1 2834   0.674   1.496   0.309 -0.8086 -0.1190  0.1083
  945SOL    HW2 2835   0.638   1.327   0.347 -1.3707 -1.2368  1.6624
  946SOL     OW 2836   0.413   0.942   2.510 -0.2623 -0.2165 -0.4454
  946SOL    HW1 2837   0.335   0.929   2.441 -2.8546  3.0657 -1.7706
  946SOL    HW2 2838   0.416   1.035   2.550 -2.4783 -0.5431 -1.7576
  947SOL     OW 2839   1.486   0.561   0.086 -0.4645 -0.4498  0.4518
  947SOL    HW1 2840   1.466   0.598  -0.011 -0.7387 -0.0976  1.6040
  947SOL    HW2 2841   1.404   0.522   0.132 -1.1039 -0.6007  2.1679
  948SOL     OW 2842   1.996   3.082   2.210 -0.6127  0.0008 -0.0396
  948SOL    HW1 2843   1.969   3.080   2.107 -0.8543  2.5274 -1.2129
  948SOL    HW2 2844   1.972   2.996   2.262 -0.9796 -0.8312  0.7717
  949SOL     OW 2845   0.640   2.527   0.497 -0.6872 -0.1531 -0.0773
  949SOL    HW1 2846   0.658   2.622   0.456 -1.5626 -1.1992  0.9914
  949SOL    HW2 2847   0.641   2.536   0.599  0.6206 -2.0924 -1.6229
  950SOL     OW 2848   0.297   2.162   3.088  0.6057 -0.2938  0.3095
  950SOL    HW1 2849   0.205   2.211   3.088 -1.7737 -2.0556  1.3649
  950SOL    HW2 2850   0.286   2.063   3.062 -0.4003 -1.6702 -0.0125
  951SOL     OW 2851   1.171   2.877   2.723  0.1288 -0.3052 -0.0571
  951SOL    HW1 2852   1.147   2.894   2.623  0.3237 -1.1664  0.5947
  951SOL    HW2 2853   1.262   2.925   2.748  2.1865  2.2576  0.9107
  952SOL     OW 2854   0.067   1.616   0.460  0.1302  0.1287  0.4616
  952SOL    HW1 2855   0.128   1.696   0.457 -2.2407 -2.5705  0.8792
  952SOL    HW2 2856   0.068   1.580   0.558 -0.8147  1.5630 -0.1426
  953SOL     OW 2857   2.559   1.761   0.185  0.4209 -0.6203 -0.2849
  953SOL    HW1 2858   2.554   1.664   0.218 -1.4956  1.4067 -3.8408
  953SOL    HW2 2859   2.613   1.773   0.091  1.6866 -0.5347 -0.6510
  954SOL     OW 2860   2.183   0.572   0.989 -0.2308  0.6561 -0.0317
  954SOL    HW1 2861   2.164   0.572   0.889  2.2857 -0.0672  1.3158
  954SOL    HW2 2862   2.288   0.550   1.007  1.5058 -0.4054  1.4102
  955SOL     OW 2863   0.214   2.677   1.372  0.7837 -0.9958 -0.5428
  955SOL    HW1 2864   0.110   2.661   1.368 -0.9342 -0.0363 -0.1175
  955SOL    HW2 2865   0.255   2.657   1.280 -0.0257 -2.0062  1.4949
  956SOL     OW 2866   2.767   2.467   2.467 -0.3199 -0.3768  0.5689
  956SOL    HW1 2867   2.780   2.363   2.451  0.7931  0.1789 -1.5097
  956SOL    HW2 2868   2.792   2.520   2.385  0.5540  2.2158 -1.1897
  957SOL     OW 2869   1.583   2.038   2.719 -0.6455  0.8203 -0.6427
  957SOL    HW1 2870   1.576   1.936   2.716  0.4267  0.6954 -0.1902
  957SOL    HW2 2871   1.590   2.070   2.624  2.2474 -2.8107  1.3629
  958SOL     OW 2872   2.685   2.333   2.978 -0.7667 -0.0524  0.2090
  958SOL    HW1 2873   2.601   2.391   2.970  0.0482  2.9432 -0.5921
  958SOL    HW2 2874   2.677   2.250   3.043  3.2956  0.4079  0.6001
  959SOL     OW 2875   0.284   2.755   0.094  0.2999  0.3756 -0.3579
  959SOL    HW1 2876   0.182   2.745   0.096  0.3985  0.1144 -1.9018
  959SOL    HW2 2877   0.342   2.688   0.148 -0.2602 -0.2546 -2.0032
  960SOL     OW 2878   1.981   0.462   1.938  0.0465  0.6434 -0.5615
  960SOL    HW1 2879   1.919   0.540   1.908  1.0986 -1.2218 -2.0682
  960SOL    HW2 2880   1.990   0.460   2.044  1.1146  1.1050  2.4386
  961SOL     OW 2881   2.570   1.849   1.051 -0.0552  0.2086 -0.0671
  961SOL    HW1 2882   2.541   1.939   1.006 -0.3776  0.0904  2.7356
  961SOL    HW2 2883   2.558   1.840   1.154  1.6090 -0.3450  0.1409
  962SOL     OW 2884   1.310   0.902   0.037  0.2405  0.1735 -0.2308
  962SOL    HW1 2885   1.274   0.965  -0.037 -1.3801 -0.0190  0.4761
  962SOL    HW2 2886   1.316   0.953   0.127 -0.0300  1.9825 -2.8009
  963SOL     OW 2887   2.222   2.588   1.855  0.1838  0.4402  0.2455
  963SOL    HW1 2888   2.224   2.502   1.911 -2.1425 -0.3362 -0.7590
  963SOL    HW2 2889   2.256   2.671   1.914  0.0438  1.8499  2.7620
  964SOL     OW 2890   2.413   0.387   1.674  0.0412 -0.4112 -0.8165
  964SOL    HW1 2891   2.512   0.403   1.699  0.8515  0.1693  4.8316
  964SOL    HW2 2892   2.406   0.372   1.570  1.0422  0.1022 -1.6818
  965SOL     OW 2893   2.588   3.077   0.207 -0.5900 -0.7470 -0.0510
  965SOL    HW1 2894   2.654   3.067   0.123 -2.4125 -2.6890 -4.5877
  965SOL    HW2 2895   2.500   3.034   0.188  1.7866 -1.0844 -2.6303
  966SOL     OW 2896   2.485   2.500   2.271  0.7097  0.3856 -0.3172
  966SOL    HW1 2897   2.383   2.493   2.272 -0.1732 -0.8336 -1.7900
  966SOL    HW2 2898   2.518   2.594   2.273 -2.6059 -0.7088 -0.5611
  967SOL     OW 2899   2.796   2.802   2.495 -1.3730 -0.3394 -0.1368
  967SOL    HW1 2900   2.863   2.746   2.433  1.5491  0.2954  0.9428
  967SOL    HW2 2901   2.849   2.866   2.554 -1.4106 -1.4603  2.3871
  968SOL     OW 2902   1.932   1.064   2.677  0.1981  0.0025  0.0022
  968SOL    HW1 2903   1.904   1.154   2.620  1.0395 -0.2051  2.9907
  968SOL    HW2 2904   1.969   0.988   2.616  1.6622  0.5338  0.9114
  969SOL     OW 2905   2.732   2.413   1.082 -0.4510 -1.0910  0.1342
  969SOL    HW1 2906   2.674   2.401   0.996 -0.6619 -0.3819 -0.5665
  969SOL    HW2 2907   2.816   2.352   1.080 -0.2003 -0.0442  0.0613
  970SOL     OW 2908   1.056   2.116   1.765  0.2907  0.3258  0.0323
  970SOL    HW1 2909   0.963   2.119   1.716  0.5789 -0.7244  0.5159
  970SOL    HW2 2910   1.052   2.161   1.861 -0.4820 -0.5058 -1.0396
  971SOL     OW 2911   2.792   2.104   1.895  0.3112  0.0290  0.4659
  971SOL    HW1 2912   2.821   2.196   1.935  0.3591 -0.6488  0.9408
  971SOL    HW2 2913   2.847   2.079   1.808  2.3031  3.5374  0.5126
  972SOL     OW 2914   2.056   2.395   0.236  0.2415 -0.1684 -0.0578
  972SOL    HW1 2915   2.014   2.316   0.188  2.0638 -1.6311 -0.7462
  972SOL    HW2 2916   2.069   2.377   0.337  1.5253 -1.5393  0.3550
  973SOL     OW 2917   1.311   1.077   1.973 -0.5317 -0.0216  0.4279
  973SOL    HW1 2918   1.234   1.048   1.913 -1.1871 -1.2525  4.3497
  973SOL    HW2 2919   1.296   1.170   2.008  2.3365 -3.7032  1.6037
  974SOL     OW 2920   1.604   0.603   1.936  0.0428 -0.2331  0.1664
  974SOL    HW1 2921   1.688   0.657   1.901  1.9335  1.2292 -1.2980
  974SOL    HW2 2922   1.514   0.642   1.904  0.0144 -0.6980 -1.5625
  975SOL     OW 2923   2.374   3.031   0.012 -0.1035  0.2614  0.0560
  975SOL    HW1 2924   2.299   2.961   0.037 -0.7226 -0.3786  0.8377
  975SOL    HW2 2925   2.396   3.028  -0.087 -0.6724  1.4112  2.1694
  976SOL     OW 2926   1.936   2.848   2.354  0.1741 -0.6581 -0.1937
  976SOL    HW1 2927   1.848   2.812   2.316  1.3911 -0.9070 -0.9617
  976SOL    HW2 2928   1.943   2.830   2.463 -2.0186  1.2662  0.3965
  977SOL     OW 2929   0.442   0.608   1.022 -0.0655  0.0825 -0.0777
  977SOL    HW1 2930   0.375   0.598   0.946  4.0757  0.3357  0.3067
  977SOL    HW2 2931   0.536   0.567   1.002  3.0072 -2.0089  0.7222
   3.10000   3.10000   3.10000
