1000 SPC/Fw water molecules t=   1.88000 step= 1880
 2931
    1SOL     OW    1   2.516   0.307   2.688  0.8042 -0.9256  0.6116
    1SOL    HW1    2   2.508   0.203   2.664 -2.0997 -1.6769  2.4645
    1SOL    HW2    3   2.587   0.332   2.757 -1.2939  0.3907 -0.5512
    2SOL     OW    4   2.771   2.832   1.315  0.7590 -0.7645 -0.9900
    2SOL    HW1    5   2.868   2.830   1.287  1.1019  0.6316  0.1873
    2SOL    HW2    6   2.760   2.883   1.400  0.1685 -1.1900 -1.5976
    3SOL     OW    7   2.740   2.452   0.457  0.4202  0.4644  0.6742
    3SOL    HW1    8   2.641   2.436   0.429  1.4906 -4.8692  1.5349
    3SOL    HW2    9   2.750   2.549   0.497 -0.5253  1.4180 -0.9543
    4SOL     OW   10   1.236   1.570   2.446 -0.9209 -0.2206 -0.6032
    4SOL    HW1   11   1.183   1.591   2.358  1.8041  0.1629 -2.0606
    4SOL    HW2   12   1.199   1.494   2.505  0.7801  0.0228  0.3675
    5SOL     OW   13   1.155   1.586   2.911  0.1030 -0.3688 -0.3254
    5SOL    HW1   14   1.190   1.666   2.974  0.4266  1.7352 -0.0048
    5SOL    HW2   15   1.048   1.593   2.889 -0.6131 -0.3001 -1.1557
    6SOL     OW   16   0.179   1.847   0.028  0.1757  0.3593 -0.5275
    6SOL    HW1   17   0.101   1.857   0.092  0.1963 -1.8794  0.4524
    6SOL    HW2   18   0.244   1.774   0.049  1.1485  2.4444  1.0002
    7SOL     OW   19   2.538   0.866   1.031  0.1814 -0.6168  0.5331
    7SOL    HW1   20   2.441   0.833   1.051  1.1899 -0.5494 -1.1672
    7SOL    HW2   21   2.554   0.846   0.933  0.3365  3.0210  1.0964
    8SOL     OW   22   0.449   0.734   1.509  0.7019 -0.0333 -0.1962
    8SOL    HW1   23   0.546   0.712   1.539  0.3005  1.1802  0.1595
    8SOL    HW2   24   0.450   0.763   1.408 -0.0515 -0.3320 -1.2594
    9SOL     OW   25   1.106   0.885   2.341  1.0336 -0.8850 -0.6072
    9SOL    HW1   26   1.176   0.899   2.262  0.7257  3.2946  1.5628
    9SOL    HW2   27   1.065   0.789   2.331 -1.4958 -3.0386  1.2578
   10SOL     OW   28   0.603   1.478   1.262 -0.4764  0.1314 -0.5438
   10SOL    HW1   29   0.523   1.469   1.200  0.9871 -0.6811  1.8360
   10SOL    HW2   30   0.627   1.580   1.278  0.0835  1.1572 -0.1857
   11SOL     OW   31   2.340   2.827   0.940  0.7130  0.2019 -0.2946
   11SOL    HW1   32   2.309   2.790   1.038  0.1313 -0.6864  3.4550
   11SOL    HW2   33   2.435   2.869   0.939 -0.3965 -0.4717  1.3288
   12SOL     OW   34   1.451   0.833   0.498 -0.6417  0.0880  0.6751
   12SOL    HW1   35   1.356   0.797   0.489  0.5893 -0.5701 -2.4658
   12SOL    HW2   36   1.515   0.776   0.444 -3.0185 -1.5256 -0.0348
   13SOL     OW   37   2.438   0.734   1.826  0.1858 -0.8443  0.4437
   13SOL    HW1   38   2.367   0.687   1.886 -1.1853 -0.5445  1.4167
   13SOL    HW2   39   2.486   0.672   1.764 -1.5306  1.1699  1.4376
   14SOL     OW   40   1.928   3.037   0.636 -0.4891 -0.1114  0.3430
   14SOL    HW1   41   1.839   3.080   0.621  1.7638 -2.3683 -0.1681
   14SOL    HW2   42   1.963   3.052   0.734  0.3951  1.0248  0.0160
   15SOL     OW   43   1.898   2.114   2.655 -0.7708 -0.2489 -0.7283
   15SOL    HW1   44   1.830   2.120   2.726  2.8550 -1.7151  0.6040
   15SOL    HW2   45   1.902   2.025   2.607 -0.7257  1.6036 -1.3086
   16SOL     OW   46   1.556   1.758   2.997  0.1475 -0.4447 -0.4511
   16SOL    HW1   47   1.529   1.723   3.092 -1.3482  1.2897  0.2509
   16SOL    HW2   48   1.650   1.802   2.987  1.8126  2.2347  0.3181
   17SOL     OW   49   0.067   0.460   0.201 -0.4086 -0.0526  0.9923
   17SOL    HW1   50   0.169   0.443   0.190  0.5744  1.0843  0.2430
   17SOL    HW2   51   0.019   0.515   0.125 -1.3824  0.8435 -2.9517
   18SOL     OW   52   0.846   2.830   2.223 -0.4192 -0.0044  0.7600
   18SOL    HW1   53   0.815   2.749   2.282 -0.5014  0.4857  0.2499
   18SOL    HW2   54   0.910   2.794   2.148 -0.3355  0.2329  2.0957
   19SOL     OW   55   0.501   0.926   1.929 -0.5621 -0.5050 -0.1161
   19SOL    HW1   56   0.525   0.856   2.000  0.3643 -2.3381  0.1919
   19SOL    HW2   57   0.554   1.013   1.933  0.5350 -0.4030 -0.9555
   20SOL     OW   58   0.225   2.783   0.736 -0.3995  0.1907  0.7031
   20SOL    HW1   59   0.117   2.794   0.728 -0.5204  0.1382  0.0144
   20SOL    HW2   60   0.263   2.703   0.690 -2.7794  1.8789  0.9450
   21SOL     OW   61   2.816   0.273   1.988  0.7521  0.0884 -0.0997
   21SOL    HW1   62   2.739   0.208   1.968  1.1197 -2.4058  0.4438
   21SOL    HW2   63   2.891   0.229   2.046  3.3548 -0.2108 -1.4060
   22SOL     OW   64   2.422   0.203   0.094  0.4154  0.2692 -0.5442
   22SOL    HW1   65   2.463   0.122   0.037  1.8163  0.2088 -1.4668
   22SOL    HW2   66   2.332   0.249   0.056 -4.4141  0.7146 -1.5929
   23SOL     OW   67   2.819   0.496   0.662 -0.1984  0.2363  0.0030
   23SOL    HW1   68   2.885   0.416   0.652 -0.7882 -2.8435  0.9623
   23SOL    HW2   69   2.853   0.582   0.615  4.5745  1.0268 -2.3001
   24SOL     OW   70   0.272   1.922   0.461 -0.3129 -0.2114 -0.0275
   24SOL    HW1   71   0.236   1.989   0.393 -0.4436 -1.6768  0.2226
   24SOL    HW2   72   0.372   1.890   0.442  0.1883 -1.3883 -0.9315
   25SOL     OW   73   2.285   0.593   0.250  0.3912 -0.4875  0.0740
   25SOL    HW1   74   2.282   0.607   0.146  0.4140  2.7363 -0.0042
   25SOL    HW2   75   2.315   0.498   0.275  0.8130 -1.4430 -1.9648
   26SOL     OW   76   2.477   2.166   2.145  0.5840  0.3177  0.4441
   26SOL    HW1   77   2.557   2.225   2.170  0.5886  1.7248 -0.5109
   26SOL    HW2   78   2.483   2.112   2.055  0.5985  0.5891 -1.3728
   27SOL     OW   79   0.644   3.008   0.160  0.0133  0.1802  0.3666
   27SOL    HW1   80   0.700   3.075   0.113 -1.0852  0.4923  3.4502
   27SOL    HW2   81   0.576   2.957   0.102  0.7935 -0.1488  3.1403
   28SOL     OW   82   1.552   0.186   0.318 -0.0939 -0.0150  0.0392
   28SOL    HW1   83   1.600   0.146   0.236  1.2509 -1.0131  1.7074
   28SOL    HW2   84   1.620   0.221   0.392  0.3683 -0.5364 -1.3380
   29SOL     OW   85   2.026   0.551   0.306 -0.4781 -0.0506 -0.0741
   29SOL    HW1   86   1.991   0.631   0.363 -1.6649 -1.4254  0.9737
   29SOL    HW2   87   2.131   0.555   0.281  2.3573 -1.6320 -1.1079
   30SOL     OW   88   0.207   2.136   0.888 -0.3747 -0.3883  0.0733
   30SOL    HW1   89   0.192   2.066   0.814 -1.1548 -2.2752  0.5391
   30SOL    HW2   90   0.124   2.163   0.939  0.8458  1.7512  0.5564
   31SOL     OW   91   2.101   0.107   2.374 -0.0614 -0.0441 -0.2399
   31SOL    HW1   92   2.046   0.104   2.463 -0.3774 -0.0763 -0.9750
   31SOL    HW2   93   2.067   0.048   2.298  1.2417  1.2273  1.1600
   32SOL     OW   94   3.077   3.054   0.231  0.1222 -0.3722 -0.3219
   32SOL    HW1   95   3.061   2.961   0.269  1.4576 -0.1632 -0.1833
   32SOL    HW2   96   3.175   3.064   0.203  1.5471  2.4543  1.1226
   33SOL     OW   97   0.861   0.288   0.644  0.3432 -0.5897  0.5460
   33SOL    HW1   98   0.852   0.203   0.587 -0.2230  0.9150 -0.8596
   33SOL    HW2   99   0.957   0.323   0.645  2.5216  1.3553 -0.8119
   34SOL     OW  100   0.337   2.655   1.023  0.0994  0.0709 -0.4484
   34SOL    HW1  101   0.271   2.676   0.946  1.7098 -1.0030  0.8784
   34SOL    HW2  102   0.429   2.692   0.998  0.1416 -1.9375 -0.2941
   35SOL     OW  103   0.103   0.214   1.883  0.0982 -0.2998  0.4799
   35SOL    HW1  104   0.109   0.111   1.898 -0.2235  1.0743 -1.9639
   35SOL    HW2  105   0.051   0.248   1.798  1.4236  0.2382 -1.0707
   36SOL     OW  106   1.873   1.221   1.467 -0.4964  0.4649 -0.2088
   36SOL    HW1  107   1.967   1.204   1.512 -0.6422  0.8577  0.1143
   36SOL    HW2  108   1.877   1.269   1.378 -0.0044 -1.1506 -2.1845
   37SOL     OW  109   1.165   0.250   1.010  0.2018 -0.4736 -0.5133
   37SOL    HW1  110   1.185   0.350   0.989  0.0099  1.9085  0.6745
   37SOL    HW2  111   1.234   0.190   0.963 -0.3623  0.5664  1.3882
   38SOL     OW  112   1.109   2.804   2.447 -0.1540  0.5286  0.2158
   38SOL    HW1  113   1.025   2.781   2.503 -0.2922  1.6113  0.5120
   38SOL    HW2  114   1.114   2.905   2.429 -0.1737  1.1477  0.9890
   39SOL     OW  115   2.470   1.413   2.995  0.0660  0.2638  0.2737
   39SOL    HW1  116   2.513   1.318   2.995 -0.8704 -0.2010 -0.3498
   39SOL    HW2  117   2.392   1.414   3.062  1.0779  0.8535  2.6244
   40SOL     OW  118   2.044   2.493   2.537 -0.1128 -0.1904  0.3233
   40SOL    HW1  119   1.993   2.573   2.578 -0.2130  0.6592  3.2360
   40SOL    HW2  120   1.987   2.419   2.490 -2.2637  2.7277  3.8510
   41SOL     OW  121   3.017   0.706   2.811  0.1484  0.1603 -0.0215
   41SOL    HW1  122   2.984   0.790   2.866 -2.2957 -1.9468  0.3134
   41SOL    HW2  123   2.944   0.671   2.742 -1.0134 -0.8357 -1.4350
   42SOL     OW  124   1.721   1.768   0.484  0.6326 -0.5699 -0.4181
   42SOL    HW1  125   1.690   1.669   0.484 -1.0181  1.0263  0.3968
   42SOL    HW2  126   1.732   1.803   0.389  0.8773  0.1459  0.0945
   43SOL     OW  127   0.445   1.747   1.127 -0.4821  1.1098  0.1404
   43SOL    HW1  128   0.420   1.667   1.065 -3.6744 -0.0543  0.0947
   43SOL    HW2  129   0.379   1.741   1.204  1.0049 -0.1242  0.2552
   44SOL     OW  130   1.702   2.358   2.948  0.1073  0.3593  0.3300
   44SOL    HW1  131   1.623   2.416   2.976  0.9712 -0.2682  0.7961
   44SOL    HW2  132   1.758   2.400   2.870  0.7728  0.2187  1.0638
   45SOL     OW  133   0.363   1.947   2.619 -0.0570  0.0541 -0.5393
   45SOL    HW1  134   0.293   1.905   2.553 -0.7363 -0.8599  0.2123
   45SOL    HW2  135   0.437   1.870   2.638  1.0192 -2.7931 -0.4795
   46SOL     OW  136   1.316   0.712   0.252 -0.7148 -0.1270  0.4283
   46SOL    HW1  137   1.312   0.816   0.242  1.9238  3.2342 -0.1172
   46SOL    HW2  138   1.253   0.665   0.188 -0.8159 -0.0059 -1.5982
   47SOL     OW  139   0.149   2.346   1.597  0.0526 -0.2203  0.4885
   47SOL    HW1  140   0.062   2.302   1.630  1.4995  0.3600 -0.0389
   47SOL    HW2  141   0.142   2.400   1.508  3.3693 -1.2841  0.0553
   48SOL     OW  142   2.642   0.709   0.132  0.4572 -0.2361  0.2085
   48SOL    HW1  143   2.635   0.674   0.229  0.0476 -1.5743 -1.7469
   48SOL    HW2  144   2.741   0.718   0.097 -0.4778 -1.2134  1.1352
   49SOL     OW  145   0.332   0.841   1.729  0.3869  0.0643  0.3884
   49SOL    HW1  146   0.415   0.878   1.782  3.7834 -0.9701 -0.0688
   49SOL    HW2  147   0.363   0.806   1.635 -1.6788  4.0426 -1.1343
   50SOL     OW  148   1.683   1.105   0.320 -0.3327  0.1228 -0.1331
   50SOL    HW1  149   1.723   1.006   0.307  0.5926 -2.0587  3.1694
   50SOL    HW2  150   1.635   1.113   0.414  2.2291  1.3220  0.5209
   51SOL     OW  151   2.955   1.738   0.308 -0.7770 -0.7062  0.5300
   51SOL    HW1  152   2.946   1.686   0.217 -1.4075  1.0731 -1.8887
   51SOL    HW2  153   3.043   1.718   0.354 -1.0750 -2.6651 -1.0986
   52SOL     OW  154   0.800   2.175   0.569  0.3199  0.2406 -0.1894
   52SOL    HW1  155   0.712   2.215   0.527  0.1415  0.5710 -1.8787
   52SOL    HW2  156   0.785   2.103   0.644 -0.1973  0.9235  0.2704
   53SOL     OW  157   0.289   0.471   1.475  0.2866  0.1021  0.4286
   53SOL    HW1  158   0.347   0.555   1.495  0.5717  1.6104 -1.3752
   53SOL    HW2  159   0.219   0.485   1.400 -2.1745  1.3031  1.0304
   54SOL     OW  160   1.759   0.434   0.002  1.1604  0.4375 -0.0137
   54SOL    HW1  161   1.845   0.391   0.045  1.7361  1.1160 -0.8559
   54SOL    HW2  162   1.676   0.434   0.065 -0.4588  0.0410 -0.2833
   55SOL     OW  163   0.784   2.906   0.641  0.4087 -0.2905 -0.2682
   55SOL    HW1  164   0.748   2.998   0.613 -1.5135 -1.7255  1.2022
   55SOL    HW2  165   0.884   2.886   0.623  0.2340  1.5864 -0.6502
   56SOL     OW  166   0.525   1.587   3.030 -0.5992  0.4999  1.0378
   56SOL    HW1  167   0.458   1.629   3.096  1.6772  2.0394 -1.8253
   56SOL    HW2  168   0.487   1.493   2.996 -0.0777  0.9175 -2.1137
   57SOL     OW  169   1.694   2.478   2.364 -0.3329  0.4965  0.4947
   57SOL    HW1  170   1.760   2.398   2.357 -1.7792 -0.9066  0.0611
   57SOL    HW2  171   1.639   2.474   2.452 -1.6006 -2.4870 -0.9472
   58SOL     OW  172   0.638   0.187   1.063  0.3245 -0.3117 -0.0802
   58SOL    HW1  173   0.560   0.167   1.133  0.5254  0.6204 -1.1275
   58SOL    HW2  174   0.710   0.112   1.071  1.6271  0.1965  2.3962
   59SOL     OW  175   0.459   2.373   2.578 -0.1238 -0.4941  0.2118
   59SOL    HW1  176   0.470   2.277   2.609 -1.9782  2.8126  3.4644
   59SOL    HW2  177   0.542   2.435   2.599  1.8392 -0.0066 -0.3629
   60SOL     OW  178   2.317   2.072   2.349  0.1116 -0.0368  0.9313
   60SOL    HW1  179   2.384   2.109   2.275  1.7459 -0.1808 -1.7850
   60SOL    HW2  180   2.342   2.105   2.445 -1.9165  1.6130  1.3854
   61SOL     OW  181   1.203   0.643   0.480 -0.0148  0.1338 -0.4772
   61SOL    HW1  182   1.100   0.645   0.470  0.7935 -0.1472  1.1386
   61SOL    HW2  183   1.254   0.650   0.385 -0.6417  0.5273 -2.5289
   62SOL     OW  184   2.802   1.687   2.692 -0.2129  0.4548 -0.1108
   62SOL    HW1  185   2.710   1.652   2.730 -2.5817  0.7999 -0.6297
   62SOL    HW2  186   2.878   1.679   2.759 -1.5607  1.7314  0.5764
   63SOL     OW  187   0.545   0.831   0.198 -0.4446 -0.2927  0.6408
   63SOL    HW1  188   0.603   0.910   0.173 -0.4156  0.1783  2.2026
   63SOL    HW2  189   0.563   0.800   0.294 -0.2629 -0.9020 -1.9896
   64SOL     OW  190   3.030   0.567   2.379  0.7797 -0.1476 -0.2245
   64SOL    HW1  191   2.972   0.617   2.451  0.2861  3.3472  1.5546
   64SOL    HW2  192   3.010   0.595   2.280 -0.1987 -0.6181 -0.8680
   65SOL     OW  193   0.163   1.447   0.637 -0.4058  0.4809  0.3208
   65SOL    HW1  194   0.174   1.525   0.701  0.1043 -2.2950 -1.2747
   65SOL    HW2  195   0.205   1.454   0.543 -2.3492  1.0314 -0.2890
   66SOL     OW  196   2.600   0.310   0.518  0.4028 -0.1767  0.1766
   66SOL    HW1  197   2.695   0.278   0.538 -0.6850  0.5809  1.2526
   66SOL    HW2  198   2.531   0.265   0.570 -0.3398  0.4749  1.2126
   67SOL     OW  199   0.570   2.504   1.529 -0.0203 -0.1815  0.5274
   67SOL    HW1  200   0.661   2.482   1.563 -2.2281 -0.4605 -0.4904
   67SOL    HW2  201   0.519   2.416   1.496  0.9796 -1.4673 -2.6623
   68SOL     OW  202   0.906   1.017   2.520 -0.4436 -0.5162  0.6083
   68SOL    HW1  203   0.997   0.977   2.484  2.1261  0.7705 -1.8079
   68SOL    HW2  204   0.856   1.058   2.438 -1.6136  0.9472  2.3020
   69SOL     OW  205   0.743   2.612   2.320 -0.3662 -0.1332 -0.6561
   69SOL    HW1  206   0.759   2.542   2.241 -4.9486  0.1187 -1.4945
   69SOL    HW2  207   0.638   2.630   2.331 -2.5129  4.0104 -1.7791
   70SOL     OW  208   0.538   0.167   2.567  0.2943 -0.0153 -0.0199
   70SOL    HW1  209   0.457   0.162   2.630  1.4489 -2.2616 -0.1312
   70SOL    HW2  210   0.598   0.082   2.568 -0.2305 -0.0926  0.4784
   71SOL     OW  211   1.071   1.760   0.317 -0.0662  0.6113  0.3154
   71SOL    HW1  212   0.999   1.792   0.384 -0.2199  0.1253  0.8758
   71SOL    HW2  213   1.043   1.784   0.222 -0.5104  1.9907  1.8384
   72SOL     OW  214   1.852   0.217   2.149 -0.0206 -0.6344 -0.4072
   72SOL    HW1  215   1.891   0.300   2.097 -2.4379 -0.1691  1.8131
   72SOL    HW2  216   1.920   0.143   2.162 -2.1552  1.7048  0.5292
   73SOL     OW  217   2.760   2.201   2.453  0.4026  0.2478 -0.6326
   73SOL    HW1  218   2.733   2.104   2.422 -0.1828 -1.1959 -1.4885
   73SOL    HW2  219   2.797   2.191   2.548 -1.0395 -1.2587  0.5891
   74SOL     OW  220   2.674   2.978   2.136  0.3904  0.3306 -0.5105
   74SOL    HW1  221   2.610   2.954   2.211  0.9082  1.5857  1.9879
   74SOL    HW2  222   2.768   2.998   2.168 -0.7745  2.8378 -0.4236
   75SOL     OW  223   0.935   0.803   1.163 -0.1524  0.4524 -0.3730
   75SOL    HW1  224   0.834   0.832   1.138 -1.1375 -1.1543 -0.6127
   75SOL    HW2  225   0.976   0.853   1.246  4.5009 -0.4689 -1.0327
   76SOL     OW  226   1.841   1.265   2.603 -0.3333  0.1677 -0.7277
   76SOL    HW1  227   1.743   1.264   2.643  2.2260  1.3844  0.7138
   76SOL    HW2  228   1.889   1.351   2.643  0.5925 -2.7987  2.8691
   77SOL     OW  229   2.947   0.901   1.029  0.0851  0.1946 -0.0919
   77SOL    HW1  230   2.906   0.807   1.051 -0.0774  0.0362  1.2469
   77SOL    HW2  231   3.033   0.924   1.088  1.2263  0.5688 -1.2008
   78SOL     OW  232   1.948   1.458   1.307 -0.2103  0.3542 -0.8312
   78SOL    HW1  233   2.031   1.466   1.245 -0.6652 -2.3190  0.1322
   78SOL    HW2  234   1.858   1.486   1.262 -2.2164  1.7526 -1.6491
   79SOL     OW  235   0.647   1.489   0.844 -0.3505  0.2501  0.1097
   79SOL    HW1  236   0.543   1.490   0.856  1.9793  2.3655  0.2007
   79SOL    HW2  237   0.682   1.392   0.819 -2.1577 -0.0098 -1.1757
   80SOL     OW  238   0.697   0.471   1.573  0.1607 -0.3508 -0.5560
   80SOL    HW1  239   0.718   0.518   1.483  1.3335  1.2209  2.1720
   80SOL    HW2  240   0.685   0.372   1.563  0.5421 -1.1112  1.9543
   81SOL     OW  241   1.055   1.296   2.469  0.0107 -0.1122 -0.6904
   81SOL    HW1  242   0.956   1.284   2.461  1.6644  2.1734 -0.7035
   81SOL    HW2  243   1.107   1.238   2.405 -1.7662 -0.0688  0.5122
   82SOL     OW  244   0.943   2.936   1.640  0.1884  0.1881  0.8095
   82SOL    HW1  245   0.966   2.846   1.586  1.1440 -0.8387 -3.4107
   82SOL    HW2  246   0.993   3.016   1.598 -2.2791 -0.7069 -0.3727
   83SOL     OW  247   2.624   2.351   0.908  0.5442  0.4844 -0.2120
   83SOL    HW1  248   2.541   2.308   0.857 -2.5721 -0.7260  0.1553
   83SOL    HW2  249   2.642   2.446   0.879 -0.5554 -0.1437  0.2761
   84SOL     OW  250   0.760   3.069   2.332  0.5436 -0.3062  0.1033
   84SOL    HW1  251   0.718   3.027   2.418 -0.2660 -0.8696  2.5847
   84SOL    HW2  252   0.810   2.995   2.271  3.9633  0.2769  1.9028
   85SOL     OW  253   0.269   1.692   1.342 -0.6736  0.0629  0.0405
   85SOL    HW1  254   0.261   1.778   1.396  2.1825  0.3351 -0.6374
   85SOL    HW2  255   0.320   1.621   1.395 -4.3787  1.2860  0.3474
   86SOL     OW  256   0.469   1.064   1.400 -0.3700  0.0115 -0.0690
   86SOL    HW1  257   0.452   1.009   1.317 -1.2143  1.5543 -1.1306
   86SOL    HW2  258   0.550   1.021   1.453  1.9619  1.1642 -0.1150
   87SOL     OW  259   1.618   0.661   0.359  0.0371  0.3195 -0.0539
   87SOL    HW1  260   1.696   0.716   0.323 -1.2517 -0.1744 -1.7826
   87SOL    HW2  261   1.557   0.627   0.286 -3.4788 -0.4967  3.7189
   88SOL     OW  262   1.546   1.337   0.276  0.2111  0.3998  0.7574
   88SOL    HW1  263   1.589   1.251   0.289 -1.8931  1.8406  2.5569
   88SOL    HW2  264   1.449   1.323   0.238 -1.8484  0.6128  0.6287
   89SOL     OW  265   3.063   0.351   0.662 -0.5489 -0.2103 -0.5158
   89SOL    HW1  266   3.165   0.346   0.677 -0.0746  0.2424 -1.2733
   89SOL    HW2  267   3.024   0.256   0.677  0.5995  0.8773 -1.8706
   90SOL     OW  268   0.761   1.566   0.122  0.0821  0.2811  0.2973
   90SOL    HW1  269   0.849   1.526   0.088  0.9246  0.5726  1.0846
   90SOL    HW2  270   0.696   1.601   0.049  0.0697  0.2779  0.0905
   91SOL     OW  271   1.277   1.531   1.670 -0.3203  0.5639 -0.7963
   91SOL    HW1  272   1.229   1.559   1.761 -2.0281 -1.5754 -0.2167
   91SOL    HW2  273   1.354   1.457   1.681 -0.0564 -1.5339 -1.5346
   92SOL     OW  274   0.069   0.970   1.151  0.0531 -0.0292 -0.5937
   92SOL    HW1  275   0.098   1.067   1.120  0.8917 -1.6531  0.2999
   92SOL    HW2  276   0.076   0.964   1.259  0.9404 -1.2818 -2.0045
   93SOL     OW  277   3.034   2.664   0.057 -0.2571  0.5624  0.0037
   93SOL    HW1  278   2.963   2.669  -0.020 -2.0761  1.3583 -0.5632
   93SOL    HW2  279   3.074   2.564   0.070 -0.2282 -2.4401  2.1418
   94SOL     OW  280   1.547   1.410   1.636  0.2853  0.8661 -0.5661
   94SOL    HW1  281   1.569   1.306   1.651 -1.1546 -0.7114  0.9543
   94SOL    HW2  282   1.628   1.466   1.604  1.4976  1.1076 -0.6521
   95SOL     OW  283   1.395   2.475   2.935  0.8329 -0.0014  0.0218
   95SOL    HW1  284   1.320   2.487   3.004  1.2950 -2.0519 -3.0247
   95SOL    HW2  285   1.389   2.378   2.896 -0.6474 -0.5425 -2.2523
   96SOL     OW  286   0.597   2.165   1.266  0.1467 -0.2047  0.1384
   96SOL    HW1  287   0.528   2.124   1.198  0.0339 -0.2263  0.1782
   96SOL    HW2  288   0.624   2.099   1.339  1.7702 -0.7668  0.0197
   97SOL     OW  289   0.276   1.610   2.406  0.4460  0.2271 -0.0546
   97SOL    HW1  290   0.256   1.714   2.380 -2.9564  1.3738  3.9118
   97SOL    HW2  291   0.260   1.600   2.510  0.3872 -1.8427  0.9507
   98SOL     OW  292   2.266   1.677   1.217  0.4706 -0.2202  0.1832
   98SOL    HW1  293   2.245   1.578   1.209  0.2948 -0.6191 -0.5812
   98SOL    HW2  294   2.353   1.712   1.170  0.5260  0.8291  2.1680
   99SOL     OW  295   2.631   2.081   1.254 -0.4224  0.3571 -0.2550
   99SOL    HW1  296   2.693   2.131   1.323 -1.3800 -2.5550 -0.3093
   99SOL    HW2  297   2.553   2.025   1.305 -2.2086 -0.3003  2.0385
  100SOL     OW  298   2.338   0.386   2.113 -0.1799  0.1004  0.3087
  100SOL    HW1  299   2.278   0.371   2.194 -0.4225  1.0858 -0.7297
  100SOL    HW2  300   2.435   0.414   2.141  1.9553  2.3850  0.6280
  101SOL     OW  301   0.328   1.506   0.401  0.4193 -0.3737  0.1818
  101SOL    HW1  302   0.346   1.568   0.477 -2.1183 -2.0753 -0.6915
  101SOL    HW2  303   0.402   1.511   0.334 -1.6391 -1.4640  1.1823
  102SOL     OW  304   2.292   1.044   0.891  0.1022  0.0247 -0.2016
  102SOL    HW1  305   2.267   0.939   0.891  0.7303 -2.2034  1.6474
  102SOL    HW2  306   2.343   1.075   0.810 -1.6267 -0.3284  2.7319
  103SOL     OW  307   2.255   0.053   0.363 -0.3718 -0.2785 -0.6262
  103SOL    HW1  308   2.278   0.147   0.311 -0.7046  2.3759 -1.5279
  103SOL    HW2  309   2.335   0.018   0.419  1.3670  2.2353  0.7676
  104SOL     OW  310   0.021   1.815   2.184  1.1529  0.1743 -0.0854
  104SOL    HW1  311   0.090   1.819   2.107 -0.0585  0.1690  1.9423
  104SOL    HW2  312  -0.075   1.849   2.161 -2.2903 -0.1072 -0.5066
  105SOL     OW  313   1.275   2.090   0.791 -0.4028 -0.0216  0.2865
  105SOL    HW1  314   1.205   2.124   0.721 -3.1123 -0.8258 -0.8887
  105SOL    HW2  315   1.309   1.991   0.777  4.2622  0.5623  1.2408
  106SOL     OW  316   2.135   0.406   1.444 -0.1250 -0.2739  0.1009
  106SOL    HW1  317   2.053   0.356   1.403  2.2392 -2.0288  2.1318
  106SOL    HW2  318   2.128   0.406   1.551 -1.2284  1.8971  0.3098
  107SOL     OW  319   1.923   2.913   1.175  0.2498  0.2613  0.4389
  107SOL    HW1  320   1.867   2.978   1.227  0.7628 -1.7716 -0.0693
  107SOL    HW2  321   1.873   2.834   1.127 -0.4189  0.7122  1.6957
  108SOL     OW  322   0.903   2.775   1.076  0.8384 -0.0618  0.1492
  108SOL    HW1  323   0.888   2.690   1.022 -1.2186  1.9048 -0.6759
  108SOL    HW2  324   0.981   2.773   1.145 -0.4716 -0.0024 -0.4885
  109SOL     OW  325   2.196   0.120   0.747 -0.0008 -0.3341  0.1496
  109SOL    HW1  326   2.139   0.055   0.693  1.6495 -0.5711 -0.2130
  109SOL    HW2  327   2.150   0.153   0.835 -0.1214 -1.2910  0.7097
  110SOL     OW  328   0.505   2.834   2.758 -0.0355 -0.2791  0.9945
  110SOL    HW1  329   0.489   2.820   2.657 -0.2397  0.5622  0.7853
  110SOL    HW2  330   0.563   2.764   2.801 -1.7473 -0.3451  1.6288
  111SOL     OW  331   1.319   0.626   2.364 -0.2421  0.1846  0.4211
  111SOL    HW1  332   1.219   0.605   2.379  0.5865  2.3560 -1.0355
  111SOL    HW2  333   1.388   0.556   2.400 -0.9891 -2.2956  0.7751
  112SOL     OW  334   1.754   0.533   1.523  0.2409 -0.2184 -0.5529
  112SOL    HW1  335   1.711   0.562   1.435 -1.8812 -1.8026  0.5806
  112SOL    HW2  336   1.685   0.549   1.605 -1.1592  3.6344  3.0464
  113SOL     OW  337   2.270   1.687   1.780  0.5365 -0.0737 -0.6144
  113SOL    HW1  338   2.314   1.600   1.751 -0.6931  2.5190 -0.1435
  113SOL    HW2  339   2.274   1.704   1.884 -1.3753  0.0547  0.8453
  114SOL     OW  340   0.302   0.431   1.172  0.3687  0.4303  0.4572
  114SOL    HW1  341   0.203   0.447   1.152  0.6497 -0.0812  0.7995
  114SOL    HW2  342   0.373   0.496   1.123  1.0085  1.8293 -0.1068
  115SOL     OW  343   2.697   1.558   1.268  0.2427  1.1052  0.1740
  115SOL    HW1  344   2.669   1.459   1.258  0.2363  1.2699  1.1230
  115SOL    HW2  345   2.801   1.569   1.262  3.2492 -0.9890  0.8345
  116SOL     OW  346   1.889   0.927   0.656 -0.4511 -0.0908  0.0479
  116SOL    HW1  347   1.789   0.904   0.668 -1.7327 -0.8331 -0.3837
  116SOL    HW2  348   1.899   1.030   0.635  2.6343  2.2363 -0.4144
  117SOL     OW  349   1.109   0.371   0.549 -0.4177  0.4142 -0.9536
  117SOL    HW1  350   1.160   0.460   0.553  0.6139 -3.2934  1.5477
  117SOL    HW2  351   1.089   0.351   0.449 -1.3270 -1.5399 -0.3506
  118SOL     OW  352   1.145   1.233   1.110 -0.4188 -0.5382  0.5358
  118SOL    HW1  353   1.112   1.228   1.207  3.7841  0.6762  0.5016
  118SOL    HW2  354   1.183   1.327   1.087  2.8180  0.9242 -1.2570
  119SOL     OW  355   1.894   1.602   2.219  0.3107  0.1419  0.7371
  119SOL    HW1  356   1.832   1.686   2.202  0.9436  0.1915  0.9212
  119SOL    HW2  357   1.957   1.582   2.140  1.2896 -2.3589  1.4665
  120SOL     OW  358   2.977   2.812   0.296  0.2990  0.0147 -0.0670
  120SOL    HW1  359   2.984   2.769   0.203  1.6560 -0.7466  0.8781
  120SOL    HW2  360   2.887   2.801   0.336  0.4225  1.2714  0.4559
  121SOL     OW  361   2.006   0.797   2.325 -0.1149 -0.5404  0.2038
  121SOL    HW1  362   2.057   0.882   2.286  0.8656  2.1819 -0.0276
  121SOL    HW2  363   2.021   0.711   2.267 -0.1893 -0.3409  1.2926
  122SOL     OW  364   2.593   2.473   1.393 -0.2031 -0.3412 -0.1019
  122SOL    HW1  365   2.660   2.427   1.332 -1.0894 -1.9873  3.7658
  122SOL    HW2  366   2.589   2.432   1.488 -3.0241  2.1681  2.5001
  123SOL     OW  367   1.645   0.199   1.641  0.3224 -0.1408  0.1857
  123SOL    HW1  368   1.654   0.101   1.609  1.2779 -1.1992  0.7997
  123SOL    HW2  369   1.726   0.233   1.695 -1.2190  1.1565 -0.1348
  124SOL     OW  370   3.031   0.397   1.155 -0.6104  0.3505  0.2675
  124SOL    HW1  371   2.971   0.456   1.218  1.1217  1.0575  0.7863
  124SOL    HW2  372   3.042   0.429   1.061  4.4238 -0.8242  2.5481
  125SOL     OW  373   0.916   1.936   0.725  0.4112 -0.5153 -0.2582
  125SOL    HW1  374   1.004   1.890   0.755  0.4991 -1.3508 -0.5814
  125SOL    HW2  375   0.843   1.954   0.803 -0.9565 -0.1935  0.1747
  126SOL     OW  376   1.915   2.284   2.417  0.1187 -0.4472  0.5514
  126SOL    HW1  377   1.984   2.245   2.354  0.2636  0.5327  0.4558
  126SOL    HW2  378   1.907   2.234   2.507  1.7703 -1.8418 -0.7080
  127SOL     OW  379   0.944   0.942   0.180  0.6474 -0.1342  0.0737
  127SOL    HW1  380   0.967   0.974   0.277  1.4873 -0.7072  1.8867
  127SOL    HW2  381   0.915   0.841   0.179 -1.1898  0.8894  0.8073
  128SOL     OW  382   0.895   0.183   1.393  0.1239  0.0591  0.6895
  128SOL    HW1  383   0.865   0.249   1.313 -2.3931  0.4245 -0.1484
  128SOL    HW2  384   0.840   0.091   1.387 -2.2217 -0.1883 -1.6444
  129SOL     OW  385   1.897   0.690   1.872  0.3658 -0.4311 -0.1310
  129SOL    HW1  386   1.939   0.691   1.773  0.4789  2.4041  0.0048
  129SOL    HW2  387   1.918   0.776   1.924 -1.9879 -0.1876  1.0874
  130SOL     OW  388   1.396   2.187   1.020  0.1432  0.3311 -0.1847
  130SOL    HW1  389   1.343   2.153   0.939  0.8014  1.2134 -0.7298
  130SOL    HW2  390   1.460   2.266   0.999 -0.7826  0.3139 -0.0980
  131SOL     OW  391   3.050   1.388   1.419 -0.3127  0.2842 -0.7767
  131SOL    HW1  392   2.992   1.299   1.453 -0.4642 -2.2885 -0.1465
  131SOL    HW2  393   3.151   1.371   1.397  0.8064  1.8545  2.0940
  132SOL     OW  394   2.047   2.437   0.554 -0.4270 -0.2778 -0.3130
  132SOL    HW1  395   1.945   2.467   0.550 -1.5346  0.6509 -0.3666
  132SOL    HW2  396   2.062   2.347   0.603 -3.1473  4.6375  1.5948
  133SOL     OW  397   1.749   2.486   2.710 -0.0563 -0.1687  0.2084
  133SOL    HW1  398   1.656   2.475   2.656  0.9398 -2.0336 -1.3976
  133SOL    HW2  399   1.744   2.568   2.773 -1.9296 -1.1895 -0.0278
  134SOL     OW  400   2.581   2.403   1.660 -0.3774 -0.0493  0.5250
  134SOL    HW1  401   2.507   2.391   1.731 -1.8455  2.1786 -2.4739
  134SOL    HW2  402   2.639   2.481   1.687 -1.9052  0.5428  0.2709
  135SOL     OW  403   0.792   1.322   2.667 -0.4601 -0.2928 -0.3681
  135SOL    HW1  404   0.717   1.255   2.688 -1.8223  1.8219  0.3497
  135SOL    HW2  405   0.805   1.340   2.568 -0.2179  1.6509 -3.1985
  136SOL     OW  406   1.205   2.008   0.421 -0.1765  0.2825 -0.1503
  136SOL    HW1  407   1.134   2.083   0.438  1.5057 -0.8792 -0.3268
  136SOL    HW2  408   1.168   1.913   0.416  1.6378  1.7820  1.5735
  137SOL     OW  409   0.456   1.149   2.268 -0.1522 -0.0526 -0.4640
  137SOL    HW1  410   0.351   1.149   2.277 -0.2579  1.6120  1.0992
  137SOL    HW2  411   0.501   1.056   2.295  0.1140 -2.8924 -0.8624
  138SOL     OW  412   2.426   1.490   0.287  0.0737  0.2319  0.8435
  138SOL    HW1  413   2.377   1.456   0.201 -0.4412  1.6512  0.8014
  138SOL    HW2  414   2.487   1.425   0.333 -0.9075  1.1890 -4.0783
  139SOL     OW  415   1.914   2.633   1.568  0.0323 -0.3181 -0.1575
  139SOL    HW1  416   1.828   2.681   1.529  1.6079 -1.5076 -1.9167
  139SOL    HW2  417   1.966   2.580   1.494  1.1859  1.0045 -0.4167
  140SOL     OW  418   3.044   3.012   2.640  0.1807  0.3682 -0.1007
  140SOL    HW1  419   3.075   2.915   2.630 -2.4698  3.8633  1.0247
  140SOL    HW2  420   3.112   3.082   2.611  0.2929 -2.6889  1.8204
  141SOL     OW  421   1.271   1.634   1.431 -0.3544 -0.4333  0.3513
  141SOL    HW1  422   1.175   1.659   1.406  2.9594 -0.3416 -0.9436
  141SOL    HW2  423   1.271   1.596   1.529 -1.5496 -1.4148  0.1477
  142SOL     OW  424   1.589   0.644   2.239  0.1386  0.3320 -0.3409
  142SOL    HW1  425   1.599   0.620   2.137  1.0370 -1.7188 -1.4607
  142SOL    HW2  426   1.491   0.662   2.268 -1.0368 -0.6882  1.0713
  143SOL     OW  427   2.814   0.789   0.562  0.3909 -0.2154  0.1773
  143SOL    HW1  428   2.862   0.843   0.485 -1.2995  3.9537 -0.4872
  143SOL    HW2  429   2.829   0.838   0.651 -1.5260 -1.9902 -0.3336
  144SOL     OW  430   2.931   1.103   1.414  0.3570 -0.2532 -0.1236
  144SOL    HW1  431   2.876   1.096   1.503  0.6899 -1.6839 -2.0476
  144SOL    HW2  432   3.020   1.049   1.420  1.5616 -0.3417 -2.7845
  145SOL     OW  433   0.960   1.828   0.045  0.0644  0.6939 -0.0942
  145SOL    HW1  434   0.986   1.873  -0.049 -0.0977  1.0381  1.1719
  145SOL    HW2  435   0.869   1.782   0.045 -0.0566  2.6614  0.4689
  146SOL     OW  436   2.479   0.628   1.536 -0.4112 -0.0750  0.1742
  146SOL    HW1  437   2.459   0.530   1.516 -2.9698 -0.2061 -1.7061
  146SOL    HW2  438   2.422   0.697   1.479 -0.6623 -1.1198  0.1386
  147SOL     OW  439   1.077   2.513   0.536 -0.7143 -0.3873 -0.4903
  147SOL    HW1  440   1.054   2.595   0.474 -1.5249 -0.0014  1.4396
  147SOL    HW2  441   1.177   2.489   0.530  0.0261  1.4678  0.7988
  148SOL     OW  442   1.574   1.399   0.001 -0.2627 -0.5935  0.1702
  148SOL    HW1  443   1.607   1.301  -0.021  1.7634 -0.3839 -0.0290
  148SOL    HW2  444   1.559   1.410   0.100  0.4841  2.3143 -0.5523
  149SOL     OW  445   0.697   1.467   1.990 -0.1547 -0.2508 -0.2909
  149SOL    HW1  446   0.614   1.430   2.037  1.1140 -1.1849 -0.6921
  149SOL    HW2  447   0.691   1.454   1.884 -0.8361 -1.2117 -2.1483
  150SOL     OW  448   2.948   1.218   1.012 -0.2524 -0.0686 -0.1285
  150SOL    HW1  449   3.024   1.278   1.055 -0.8785  3.7523 -1.7839
  150SOL    HW2  450   2.934   1.129   1.063  0.9645  3.7746 -1.2209
  151SOL     OW  451   0.147   0.830   2.110 -0.3994  0.0683  0.0146
  151SOL    HW1  452   0.156   0.926   2.072 -1.7796  0.6729  1.8616
  151SOL    HW2  453   0.218   0.766   2.074 -0.1958 -1.1380  3.2617
  152SOL     OW  454   1.431   1.879   1.110 -0.5054 -0.2785  0.1330
  152SOL    HW1  455   1.473   1.972   1.113 -0.3534 -0.8674  0.1965
  152SOL    HW2  456   1.326   1.879   1.106 -2.5874  1.7485 -0.1108
  153SOL     OW  457   0.064   1.508   0.259  0.4878  0.2101 -0.2024
  153SOL    HW1  458  -0.026   1.458   0.270 -0.8640 -0.1669 -0.7206
  153SOL    HW2  459   0.080   1.560   0.345 -2.2518 -0.2820 -1.3094
  154SOL     OW  460   2.259   1.875   2.788 -0.0976  0.4256  0.2800
  154SOL    HW1  461   2.256   1.770   2.773 -2.2529 -1.5530 -1.1902
  154SOL    HW2  462   2.339   1.922   2.736 -1.1474  1.4162  1.5303
  155SOL     OW  463   2.627   1.339   0.356 -0.0813  0.5711  0.0004
  155SOL    HW1  464   2.658   1.407   0.431  0.2963  1.3127 -0.2635
  155SOL    HW2  465   2.711   1.299   0.314  0.4717  1.6397  1.6718
  156SOL     OW  466   2.514   0.816   0.767  0.3408 -0.0357 -0.7114
  156SOL    HW1  467   2.414   0.799   0.787 -0.7897 -1.6342 -1.0044
  156SOL    HW2  468   2.528   0.863   0.672  2.3630  2.0538 -3.4043
  157SOL     OW  469   1.222  -0.002   3.020 -0.1897  0.6342  0.2172
  157SOL    HW1  470   1.294  -0.046   2.961  1.2370  0.3506 -0.1554
  157SOL    HW2  471   1.256   0.083   3.061  2.8855 -1.4459 -0.5142
  158SOL     OW  472   1.068   1.850   1.861 -0.7851 -1.0043  0.0903
  158SOL    HW1  473   1.123   1.936   1.851  1.3287 -1.5854  0.9959
  158SOL    HW2  474   0.979   1.862   1.912  3.2653 -1.6252 -1.5312
  159SOL     OW  475   0.805   0.373   1.208  0.3355 -0.4227 -0.7893
  159SOL    HW1  476   0.760   0.460   1.248 -0.4432  1.7441 -1.9526
  159SOL    HW2  477   0.755   0.326   1.129 -2.1305 -0.5052  2.1460
  160SOL     OW  478   1.374   2.470   1.439  0.0792 -0.2898  0.2448
  160SOL    HW1  479   1.314   2.399   1.484 -0.1258  0.6770  1.1141
  160SOL    HW2  480   1.472   2.450   1.463  0.0998  0.0761  0.8372
  161SOL     OW  481   0.057   2.661   0.403  0.0728  0.1391 -0.3168
  161SOL    HW1  482   0.016   2.564   0.390 -0.7695 -1.4727  0.6020
  161SOL    HW2  483  -0.017   2.735   0.380 -2.0915  2.5069  1.7815
  162SOL     OW  484   2.550   1.935   0.463  0.9719  0.1679  0.1868
  162SOL    HW1  485   2.607   1.931   0.377 -0.6346 -3.3336  1.3929
  162SOL    HW2  486   2.497   1.848   0.481  3.0779  4.0257  0.5444
  163SOL     OW  487   1.917   2.696   0.814 -0.6465 -0.3688  0.2815
  163SOL    HW1  488   1.859   2.705   0.729 -1.5554  1.3227  0.2196
  163SOL    HW2  489   2.006   2.648   0.805 -0.4599 -0.0128 -1.7231
  164SOL     OW  490   3.041   0.152   1.246 -0.4795  0.0025  0.0227
  164SOL    HW1  491   3.028   0.246   1.207  3.1835 -1.4669  2.3416
  164SOL    HW2  492   3.117   0.144   1.317  0.2152  0.5500 -1.5525
  165SOL     OW  493   1.107   1.399   0.654 -0.3739 -0.5780 -0.5307
  165SOL    HW1  494   1.069   1.456   0.735 -1.4030 -0.0717  0.7814
  165SOL    HW2  495   1.062   1.411   0.559  1.6954  1.1772  0.1049
  166SOL     OW  496   1.555   0.929   1.819  0.0188 -0.7284 -0.3400
  166SOL    HW1  497   1.472   0.990   1.842 -1.2484  1.1898  1.1799
  166SOL    HW2  498   1.632   0.989   1.791 -0.3285  0.6584  0.7381
  167SOL     OW  499   0.677   2.023   1.514 -0.1221  0.0685  0.2094
  167SOL    HW1  500   0.659   2.095   1.583 -1.9102  0.3128 -1.3986
  167SOL    HW2  501   0.636   1.931   1.543  0.5149 -0.4771 -2.0169
  168SOL     OW  502   1.671   2.304   0.134  0.5571  0.2731  0.0085
  168SOL    HW1  503   1.742   2.308   0.063  0.1854 -0.9483  1.2030
  168SOL    HW2  504   1.705   2.288   0.231  0.5333 -0.6242  3.0588
  169SOL     OW  505   3.047   2.593   2.154 -0.1274 -0.0466  0.3259
  169SOL    HW1  506   3.064   2.516   2.089  2.4064  0.1010 -0.1295
  169SOL    HW2  507   3.069   2.571   2.252  0.4018 -1.3961 -2.0818
  170SOL     OW  508   1.170   0.142   2.105 -0.2514 -0.0090  0.3022
  170SOL    HW1  509   1.252   0.171   2.161 -1.1466 -0.1043 -1.5088
  170SOL    HW2  510   1.167   0.179   2.004 -2.0503  0.0004 -0.2500
  171SOL     OW  511   0.181   0.871   2.439 -0.5603  0.6004 -0.2097
  171SOL    HW1  512   0.084   0.870   2.478 -0.9778 -1.0250  1.1768
  171SOL    HW2  513   0.197   0.927   2.356  0.7882 -2.6325 -0.3857
  172SOL     OW  514   0.993   0.995   2.781  0.0915  0.3546  0.0327
  172SOL    HW1  515   0.938   1.052   2.850 -0.7844 -1.1065  0.7247
  172SOL    HW2  516   0.961   0.993   2.681  0.0922  0.8582  2.1306
  173SOL     OW  517   0.357   2.552   3.045 -0.4868 -0.1089 -0.1974
  173SOL    HW1  518   0.336   2.515   2.950 -1.7074  2.1716 -0.2212
  173SOL    HW2  519   0.409   2.483   3.106 -0.8083  1.3733  0.5829
  174SOL     OW  520   1.459   2.853   0.985  0.0343  0.2117 -0.1589
  174SOL    HW1  521   1.553   2.881   0.950  1.6169  0.7800 -1.2537
  174SOL    HW2  522   1.435   2.755   0.965 -1.2389  0.7715 -0.6713
  175SOL     OW  523   0.452   3.080   1.707 -0.5053  0.3229 -0.3382
  175SOL    HW1  524   0.523   3.088   1.779 -1.2702  2.6850 -1.7170
  175SOL    HW2  525   0.438   3.168   1.658 -0.1186  0.2935  0.0876
  176SOL     OW  526   2.528   0.485   0.052  0.1594 -0.5054  0.1868
  176SOL    HW1  527   2.575   0.573   0.085  0.1384  0.9818  1.8045
  176SOL    HW2  528   2.472   0.444   0.127 -2.2121  1.6101  2.0486
  177SOL     OW  529   0.346   0.126   0.804 -0.7578 -0.5343 -0.0544
  177SOL    HW1  530   0.332   0.041   0.871 -0.3910 -0.8469  0.6173
  177SOL    HW2  531   0.441   0.169   0.818 -0.4867 -2.6088 -0.4095
  178SOL     OW  532   0.018   2.712   2.635 -0.6673 -0.3167 -0.5416
  178SOL    HW1  533  -0.001   2.612   2.643 -1.2560  1.6059 -1.0830
  178SOL    HW2  534   0.097   2.741   2.696 -0.9457  1.2267  0.9283
  179SOL     OW  535   2.967   1.596   1.239 -0.0026 -0.3760  0.1587
  179SOL    HW1  536   3.054   1.617   1.187 -0.4182 -0.0103 -1.4845
  179SOL    HW2  537   2.991   1.529   1.314  2.3024 -1.8016  0.6161
  180SOL     OW  538   0.280   1.387   1.744  0.1988 -0.4527 -0.5045
  180SOL    HW1  539   0.348   1.333   1.803 -0.3430 -0.9940  0.2412
  180SOL    HW2  540   0.234   1.470   1.792  0.4381 -2.8853  0.7055
  181SOL     OW  541   3.002   1.753   2.480  0.5253 -0.2204 -0.5549
  181SOL    HW1  542   3.001   1.748   2.377 -2.1059  0.7300  0.0518
  181SOL    HW2  543   2.925   1.810   2.522 -1.0530  2.9340 -1.2836
  182SOL     OW  544   2.201   1.406   1.184  0.4156 -0.0033  1.0589
  182SOL    HW1  545   2.201   1.330   1.251  0.0826  1.4351 -1.1606
  182SOL    HW2  546   2.235   1.379   1.088 -1.8155 -0.1129 -2.1915
  183SOL     OW  547   1.402   2.224   2.447 -0.7726 -0.0267  0.2437
  183SOL    HW1  548   1.321   2.164   2.457  1.5630 -0.0739 -1.5383
  183SOL    HW2  549   1.484   2.166   2.424  0.2507  0.0121  2.4374
  184SOL     OW  550   2.231   0.785   0.822  0.1402  0.1023 -0.1387
  184SOL    HW1  551   2.139   0.819   0.792  1.3668 -0.2124  0.3419
  184SOL    HW2  552   2.247   0.681   0.803  2.7964  2.4808  1.4165
  185SOL     OW  553   1.581   2.736   2.019  0.3101  0.1657  0.3334
  185SOL    HW1  554   1.510   2.813   2.014 -0.4421 -1.1786  0.8940
  185SOL    HW2  555   1.606   2.717   2.119 -0.0452  1.3134 -0.1410
  186SOL     OW  556   0.016   2.148   1.803 -0.2200 -0.4737  0.3849
  186SOL    HW1  557   0.012   2.180   1.903 -2.7206  1.4775 -0.0386
  186SOL    HW2  558   0.106   2.105   1.774 -0.0357  2.2416 -3.7274
  187SOL     OW  559   1.316   0.672   1.658 -0.5216 -0.0705  0.3603
  187SOL    HW1  560   1.410   0.685   1.622 -2.1380 -1.1206 -1.2715
  187SOL    HW2  561   1.318   0.597   1.732  2.1723 -2.8419  1.2394
  188SOL     OW  562   2.698   2.668   1.569  0.3901  0.0144  0.0888
  188SOL    HW1  563   2.673   2.758   1.610 -0.5331 -2.4404  1.4205
  188SOL    HW2  564   2.645   2.640   1.484 -2.0181 -0.8623 -1.7538
  189SOL     OW  565   0.866   1.165   1.402  0.1647 -0.9493  0.3062
  189SOL    HW1  566   0.903   1.241   1.462  1.3011 -3.0201  1.5215
  189SOL    HW2  567   0.835   1.202   1.310  0.0873 -0.2499  1.1114
  190SOL     OW  568   1.423   1.837   1.517 -0.5280  0.2004  0.3956
  190SOL    HW1  569   1.357   1.761   1.480 -0.2812 -3.4375 -1.0051
  190SOL    HW2  570   1.428   1.854   1.619  0.0618  1.0910 -0.3989
  191SOL     OW  571   0.877   0.761   1.499  0.1851 -0.0427 -0.2754
  191SOL    HW1  572   0.902   0.689   1.571 -2.7040 -2.7994  2.3318
  191SOL    HW2  573   0.955   0.803   1.447 -0.9274  0.0419 -1.5084
  192SOL     OW  574   1.839   2.435   1.128  0.1063 -0.0742  0.2894
  192SOL    HW1  575   1.746   2.394   1.106 -2.3931 -2.9492 -0.7440
  192SOL    HW2  576   1.900   2.398   1.050  0.6195 -1.3559  0.7265
  193SOL     OW  577   0.494   0.498   0.388  0.0374 -0.1030 -0.1200
  193SOL    HW1  578   0.424   0.419   0.390 -0.5541 -3.3800  1.3867
  193SOL    HW2  579   0.560   0.496   0.310  1.9673  0.3630  1.0912
  194SOL     OW  580   0.406   0.756   1.218 -0.1556 -0.7597 -0.2479
  194SOL    HW1  581   0.300   0.744   1.237 -0.4263 -2.0201 -0.8828
  194SOL    HW2  582   0.435   0.698   1.137  2.5169  0.6578 -0.5795
  195SOL     OW  583   1.031   2.915   0.515 -0.3565  0.6986  0.0912
  195SOL    HW1  584   1.006   2.839   0.451 -1.0243  1.0648 -1.0806
  195SOL    HW2  585   1.132   2.939   0.517  0.8133 -1.6710  1.0134
  196SOL     OW  586   0.212   1.361   1.352  0.0129  0.1720  0.1970
  196SOL    HW1  587   0.240   1.439   1.413 -2.9861  0.6559 -0.0402
  196SOL    HW2  588   0.212   1.270   1.405  0.5190  1.9775  1.0482
  197SOL     OW  589   0.782   1.978   0.238  0.2675 -0.2057  0.1773
  197SOL    HW1  590   0.806   1.936   0.328  2.2208  2.1871  1.2864
  197SOL    HW2  591   0.843   1.941   0.159  2.0314  0.8090 -1.0170
  198SOL     OW  592   0.295   1.219   0.308  0.3750  0.1450 -0.0333
  198SOL    HW1  593   0.202   1.172   0.301  0.9834 -3.8516 -0.5256
  198SOL    HW2  594   0.294   1.309   0.360 -2.7209  1.4116  0.3510
  199SOL     OW  595   2.265   0.406   2.646 -0.1190  0.0483 -0.1018
  199SOL    HW1  596   2.193   0.363   2.703  0.9923  0.8805  0.5082
  199SOL    HW2  597   2.357   0.372   2.671 -0.4068  0.5808  0.6044
  200SOL     OW  598   3.071   2.889   0.761 -0.0738  0.1812 -0.4592
  200SOL    HW1  599   3.101   2.982   0.791 -0.5900 -1.1564 -0.8955
  200SOL    HW2  600   3.012   2.893   0.677 -1.1011  0.0225 -0.9663
  201SOL     OW  601   0.946   0.662   0.511  0.1609 -0.2284 -0.5213
  201SOL    HW1  602   0.931   0.740   0.577 -2.5311  0.4953  1.5505
  201SOL    HW2  603   0.863   0.594   0.515 -1.8181  0.8257 -1.0832
  202SOL     OW  604   0.457   1.282   1.906 -0.0509  0.4649  0.1171
  202SOL    HW1  605   0.540   1.237   1.864  0.1178  1.6788 -0.5023
  202SOL    HW2  606   0.466   1.315   2.004 -0.9536 -0.5754 -0.1394
  203SOL     OW  607   0.635   0.173   1.572 -0.4240  0.3067  0.3724
  203SOL    HW1  608   0.660   0.114   1.494  1.2280  1.3320  0.8136
  203SOL    HW2  609   0.694   0.158   1.655  0.8412  0.3502  0.8936
  204SOL     OW  610   2.073   1.848   2.984  0.3378 -0.3363 -0.0862
  204SOL    HW1  611   2.034   1.750   2.985 -1.4402  1.6975 -0.9710
  204SOL    HW2  612   2.143   1.853   2.908 -3.1720  1.4912  1.0007
  205SOL     OW  613   1.798   1.889   3.007 -0.7738  0.1676  0.0416
  205SOL    HW1  614   1.900   1.896   2.984  1.1300 -0.8563 -0.4840
  205SOL    HW2  615   1.741   1.973   2.975 -0.3315  0.3797 -2.2827
  206SOL     OW  616   2.375   2.727   0.305  0.6614 -0.3067  0.0528
  206SOL    HW1  617   2.341   2.658   0.373  1.4634 -0.1094  0.7990
  206SOL    HW2  618   2.450   2.684   0.252  0.7765  1.5215 -0.6865
  207SOL     OW  619   0.720   1.730   2.907  0.0018  0.4668 -0.0163
  207SOL    HW1  620   0.777   1.663   2.850  2.8564  2.0193  0.3384
  207SOL    HW2  621   0.647   1.682   2.964  0.0979  0.4770  3.2397
  208SOL     OW  622   1.030   1.580   1.217  0.2163  0.0991 -0.2427
  208SOL    HW1  623   0.968   1.620   1.149 -0.4189  0.2660 -0.9420
  208SOL    HW2  624   0.980   1.559   1.305 -0.7410  3.0853 -1.5010
  209SOL     OW  625   0.236   1.017   3.064  0.1878 -0.0358  0.0954
  209SOL    HW1  626   0.251   0.936   2.995  0.7979 -1.6723  2.8697
  209SOL    HW2  627   0.250   0.978   3.157  0.4297 -1.2276 -1.8001
  210SOL     OW  628   1.734   0.630   1.254  0.2600  0.3933 -0.3145
  210SOL    HW1  629   1.696   0.705   1.193  3.3281  0.7470 -0.2753
  210SOL    HW2  630   1.835   0.618   1.250  1.1227 -0.2604  1.7889
  211SOL     OW  631   2.114   1.128   1.582 -0.2456 -0.1777  0.2861
  211SOL    HW1  632   2.161   1.082   1.660  0.4871  1.9841  0.9655
  211SOL    HW2  633   2.169   1.204   1.536 -0.5018 -3.3619  3.9260
  212SOL     OW  634   0.081   0.974   1.431 -0.6659 -0.2900  0.1288
  212SOL    HW1  635   0.139   1.040   1.487 -1.4377 -0.0477 -2.4461
  212SOL    HW2  636   0.098   0.874   1.451  2.0214 -0.9027 -2.5418
  213SOL     OW  637   2.836   0.057   0.322  0.4426  0.1781 -0.1880
  213SOL    HW1  638   2.927   0.006   0.315  1.6714 -1.5714 -0.5307
  213SOL    HW2  639   2.769   0.001   0.270 -0.2504  0.6148 -1.0033
  214SOL     OW  640   2.214   0.356   2.361  0.2233 -0.1603  0.1484
  214SOL    HW1  641   2.241   0.381   2.458 -2.6585  2.2405 -1.5900
  214SOL    HW2  642   2.168   0.266   2.361  1.7431 -0.3844 -1.7663
  215SOL     OW  643   1.692   2.276   2.073 -0.0511 -0.3267 -0.0914
  215SOL    HW1  644   1.790   2.309   2.095  1.8172  0.9414  0.9170
  215SOL    HW2  645   1.622   2.356   2.070  0.2821  1.8735 -0.0071
  216SOL     OW  646   2.297   0.526   0.769 -0.3859 -0.2539 -0.0284
  216SOL    HW1  647   2.273   0.492   0.673  1.0567  2.8753  2.7503
  216SOL    HW2  648   2.393   0.498   0.802  1.8982  2.2449  0.8789
  217SOL     OW  649   0.901   2.693   2.576 -0.3701 -0.2094 -0.2173
  217SOL    HW1  650   0.928   2.645   2.658 -0.2703  0.4570 -2.7452
  217SOL    HW2  651   0.827   2.647   2.517 -4.6219 -1.7897 -1.9821
  218SOL     OW  652   1.850   1.404   0.021 -0.3534 -0.6542 -0.1799
  218SOL    HW1  653   1.754   1.412  -0.010  0.6644 -0.2973 -0.3088
  218SOL    HW2  654   1.872   1.323   0.080 -1.6914 -0.0503  0.4003
  219SOL     OW  655   2.419   1.246   2.516  0.1488 -0.1743  0.2843
  219SOL    HW1  656   2.464   1.206   2.432 -2.1852 -1.2909  1.0766
  219SOL    HW2  657   2.434   1.186   2.599  2.3179 -1.2434 -0.4143
  220SOL     OW  658   1.445   1.065   1.394 -0.4963  0.5549  0.8933
  220SOL    HW1  659   1.545   1.034   1.407 -1.9381  0.9280 -0.8319
  220SOL    HW2  660   1.415   1.061   1.292 -1.2444 -0.5767  1.6310
  221SOL     OW  661   1.290   0.970   2.147 -0.5686  0.4504 -0.3541
  221SOL    HW1  662   1.301   1.003   2.051 -0.2370  0.1026 -3.1065
  221SOL    HW2  663   1.368   1.001   2.208 -1.1933 -0.2149 -2.1022
  222SOL     OW  664   1.162   0.056   1.198 -0.0582  0.3469  0.0660
  222SOL    HW1  665   1.158   0.076   1.298  0.1786 -1.5073 -0.2712
  222SOL    HW2  666   1.178   0.142   1.140  0.0588 -1.0775 -0.4479
  223SOL     OW  667   2.728   0.968   2.132  0.3140 -0.4006  0.6987
  223SOL    HW1  668   2.684   1.029   2.202  0.9585  0.5751 -0.5758
  223SOL    HW2  669   2.828   0.952   2.152 -0.6872  1.1386 -0.7201
  224SOL     OW  670   1.498   0.985   2.823  0.4159  0.1510 -0.1536
  224SOL    HW1  671   1.532   0.949   2.734 -2.2494 -2.0841 -3.9392
  224SOL    HW2  672   1.520   1.086   2.836  0.6827 -1.8467  2.1474
  225SOL     OW  673   2.959   2.682   2.872  0.4559 -0.2389 -0.2401
  225SOL    HW1  674   2.885   2.685   2.798 -2.1185  2.4983 -1.2470
  225SOL    HW2  675   3.043   2.733   2.846 -2.4955  0.7190 -0.4221
  226SOL     OW  676   2.410   1.634   2.820 -0.0214 -0.6554  0.7554
  226SOL    HW1  677   2.457   1.600   2.739 -2.9760  0.4955 -0.1813
  226SOL    HW2  678   2.431   1.575   2.902  1.8376  0.2198  1.6111
  227SOL     OW  679   0.923   0.278   3.000 -0.3931 -0.1772 -0.2168
  227SOL    HW1  680   0.922   0.380   2.990 -1.5209 -2.0579 -3.5227
  227SOL    HW2  681   0.883   0.244   2.912 -0.0437 -0.8587  1.0923
  228SOL     OW  682   2.419   0.668   2.905 -0.7510  0.4613  0.0645
  228SOL    HW1  683   2.467   0.728   2.832  0.0917 -2.1849 -0.3124
  228SOL    HW2  684   2.476   0.581   2.932 -0.6836 -1.0627 -0.7527
  229SOL     OW  685   0.722   0.675   1.810  0.9255  0.3515 -0.4313
  229SOL    HW1  686   0.811   0.679   1.855 -1.9248  1.6545 -2.5092
  229SOL    HW2  687   0.719   0.592   1.747 -1.0045 -1.5995 -0.0915
  230SOL     OW  688   1.888   1.220   1.919  0.6172 -0.2809  0.4474
  230SOL    HW1  689   1.969   1.275   1.878 -0.4489 -0.4333 -2.6431
  230SOL    HW2  690   1.840   1.274   1.990  0.1539 -0.6623  1.5825
  231SOL     OW  691   0.677   1.036   0.016 -0.6978 -0.2555  0.2861
  231SOL    HW1  692   0.764   1.085   0.020 -1.4293 -2.9563  2.7901
  231SOL    HW2  693   0.593   1.089   0.057 -0.1252 -2.4897  0.0723
  232SOL     OW  694   2.412   2.965   2.772 -0.2918  0.0027 -0.3020
  232SOL    HW1  695   2.481   2.900   2.817 -0.5884  1.0840  3.9835
  232SOL    HW2  696   2.467   3.035   2.712  1.8821  0.5177 -0.5298
  233SOL     OW  697   1.799   1.119   1.185  0.3802 -0.2486  0.1858
  233SOL    HW1  698   1.823   1.182   1.105  0.4281 -1.3454 -1.1843
  233SOL    HW2  699   1.875   1.051   1.200  0.2654  0.2607  2.0667
  234SOL     OW  700   1.647   2.521   1.836 -0.2057 -0.2188  0.2650
  234SOL    HW1  701   1.602   2.579   1.911  1.3621  1.9457 -0.8073
  234SOL    HW2  702   1.598   2.432   1.818  3.2942  2.8224  1.8214
  235SOL     OW  703   0.077   3.016   2.890  0.6309  0.5667  0.3863
  235SOL    HW1  704   0.019   3.034   2.805  1.3372 -1.3297  0.4251
  235SOL    HW2  705   0.028   3.034   2.981 -1.1829 -2.8166 -0.0641
  236SOL     OW  706   2.894   0.757   0.057 -0.7784  0.5665 -0.3947
  236SOL    HW1  707   2.955   0.789   0.138  0.5222  1.7692 -0.1632
  236SOL    HW2  708   2.933   0.663   0.025  1.2706 -1.4969 -1.6575
  237SOL     OW  709   1.529   1.692   0.916 -0.2527 -0.2031 -0.0847
  237SOL    HW1  710   1.635   1.681   0.916 -0.6809  2.0504 -2.2833
  237SOL    HW2  711   1.502   1.737   1.001  0.7694  0.7783 -1.2797
  238SOL     OW  712   1.923   1.198   0.728 -0.3501  0.2825 -0.3101
  238SOL    HW1  713   1.954   1.207   0.826  0.3287  1.0209  0.0568
  238SOL    HW2  714   1.820   1.224   0.717  0.8638 -1.6966  0.3616
  239SOL     OW  715   2.054   0.335   2.834  0.4307  0.2025 -0.1064
  239SOL    HW1  716   2.089   0.361   2.925  0.7554  1.7880  1.5086
  239SOL    HW2  717   1.959   0.372   2.815  1.7805  0.2969 -3.0245
  240SOL     OW  718   0.911   0.680   0.224 -0.8765 -0.1619 -0.5266
  240SOL    HW1  719   0.996   0.629   0.188  1.1764  0.0973 -0.8721
  240SOL    HW2  720   0.924   0.688   0.329  1.7236  1.3243  0.2254
  241SOL     OW  721   0.540   0.161   0.301 -0.0947  0.0401 -0.1949
  241SOL    HW1  722   0.626   0.219   0.282  0.7478  1.0141 -1.9791
  241SOL    HW2  723   0.545   0.067   0.256 -0.3228  1.9644  0.6598
  242SOL     OW  724   0.610   2.610   1.268  0.0705  0.3310  0.3756
  242SOL    HW1  725   0.580   2.584   1.363  1.2940  1.2529 -2.7179
  242SOL    HW2  726   0.631   2.708   1.260 -2.3142  1.1629  3.1778
  243SOL     OW  727   1.047   0.593   2.395 -0.2184 -0.1283  0.2298
  243SOL    HW1  728   0.957   0.607   2.344 -0.4148  0.7586 -0.9497
  243SOL    HW2  729   1.041   0.531   2.474 -1.9949 -1.1968  0.4643
  244SOL     OW  730   2.789   1.928   2.403  0.5894 -0.6410 -0.2727
  244SOL    HW1  731   2.823   1.923   2.304  0.8771  0.8536 -0.9090
  244SOL    HW2  732   2.705   1.868   2.415 -1.7522 -2.5425 -1.5313
  245SOL     OW  733   2.105   1.023   2.225  0.4974  0.2754 -0.4820
  245SOL    HW1  734   2.191   1.009   2.281  0.1346 -0.5756 -0.2743
  245SOL    HW2  735   2.059   1.119   2.239 -1.7587 -0.1412  0.8080
  246SOL     OW  736   0.257   2.920   1.822 -0.0586  0.3421  0.2454
  246SOL    HW1  737   0.178   2.902   1.756 -2.7136  0.5654  2.6536
  246SOL    HW2  738   0.315   3.006   1.789 -0.4541  1.6299 -1.9387
  247SOL     OW  739   2.213   0.585   3.079 -0.6410  0.3030  0.1242
  247SOL    HW1  740   2.289   0.612   3.011  0.4394 -2.0172 -0.4934
  247SOL    HW2  741   2.129   0.648   3.064  0.6893 -1.5515  0.0598
  248SOL     OW  742   2.157   1.886   1.626 -0.0622  0.0272 -0.0026
  248SOL    HW1  743   2.213   1.816   1.685  2.6065 -1.1851  2.3347
  248SOL    HW2  744   2.088   1.939   1.682  3.1280  0.6690  0.8592
  249SOL     OW  745   1.881   1.877   1.873 -0.0877 -0.6504 -0.0344
  249SOL    HW1  746   1.880   1.799   1.801 -1.1624 -1.3620 -2.2891
  249SOL    HW2  747   1.976   1.894   1.914 -0.4395 -0.9075  0.1425
  250SOL     OW  748   1.042   0.696   1.857  0.5038 -0.3820  0.4642
  250SOL    HW1  749   1.079   0.654   1.946 -2.0004  1.5808 -0.7428
  250SOL    HW2  750   1.051   0.628   1.778  0.6005  1.6518  0.3251
  251SOL     OW  751   3.048   1.484   2.599 -0.4346 -0.5681 -0.5404
  251SOL    HW1  752   3.031   1.583   2.574  0.8364  1.4732  1.8289
  251SOL    HW2  753   2.973   1.419   2.568 -0.3256 -0.4469 -3.4606
  252SOL     OW  754   1.554   0.783   1.581  0.2555 -0.7248 -0.1056
  252SOL    HW1  755   1.625   0.822   1.515  1.5735 -1.2196  0.3155
  252SOL    HW2  756   1.558   0.832   1.671  2.1298  1.3139 -1.9122
  253SOL     OW  757   0.956   1.468   0.435  0.6852 -0.2154 -0.4963
  253SOL    HW1  758   0.973   1.484   0.334 -2.4129  1.7400  0.6172
  253SOL    HW2  759   0.874   1.516   0.468  3.5658 -3.0332  0.5126
  254SOL     OW  760   2.014   2.202   1.663 -0.0449  0.0968  0.1975
  254SOL    HW1  761   1.957   2.133   1.614  1.8159  1.0049  2.2732
  254SOL    HW2  762   1.955   2.275   1.709  0.7200  1.4448 -1.1085
  255SOL     OW  763   0.064   1.214   2.955 -0.4823 -0.3097  0.2435
  255SOL    HW1  764   0.110   1.307   2.925  1.7232  2.0198 -0.3688
  255SOL    HW2  765   0.132   1.147   2.990  0.5700 -1.6664 -1.7047
  256SOL     OW  766   2.765   1.431   1.800  0.1410  0.0325  0.0034
  256SOL    HW1  767   2.735   1.460   1.897  1.4374 -0.3539  2.7953
  256SOL    HW2  768   2.701   1.363   1.757  1.4116  4.9857  1.3100
  257SOL     OW  769   0.811   0.193   1.865 -0.1046 -0.6907  0.5418
  257SOL    HW1  770   0.862   0.212   1.775  0.8433  2.0176 -1.5119
  257SOL    HW2  771   0.856   0.121   1.913 -2.3703  1.9414 -1.8843
  258SOL     OW  772   2.960   1.179   0.517  0.0352 -0.3363  0.0679
  258SOL    HW1  773   2.860   1.193   0.544 -0.0416 -0.0900  0.0347
  258SOL    HW2  774   3.026   1.183   0.591  0.5296 -1.3193 -3.9531
  259SOL     OW  775   0.442   2.954   3.030 -0.0925  0.4922 -0.0779
  259SOL    HW1  776   0.367   2.898   3.074  0.1447 -1.9880 -1.1401
  259SOL    HW2  777   0.472   2.908   2.939 -0.7896  1.6452  1.8082
  260SOL     OW  778   2.706   0.697   2.784 -0.1440 -0.3554  0.1458
  260SOL    HW1  779   2.623   0.712   2.724 -1.3378 -0.2569 -0.8184
  260SOL    HW2  780   2.706   0.600   2.823 -3.1458 -1.7453 -2.4463
  261SOL     OW  781   2.679   1.268   1.298  0.6737 -0.3033 -0.5050
  261SOL    HW1  782   2.600   1.232   1.239  0.5992  1.2778 -2.5916
  261SOL    HW2  783   2.756   1.203   1.312  0.4234 -1.6185  2.7325
  262SOL     OW  784   1.420   2.950   2.007  0.1194  0.4160 -0.5190
  262SOL    HW1  785   1.447   3.017   1.935  1.4585  0.0749  0.3343
  262SOL    HW2  786   1.320   2.919   2.002  0.9435  1.8112  0.6389
  263SOL     OW  787   0.795   0.669   2.275  0.0132  0.0373 -0.8360
  263SOL    HW1  788   0.722   0.598   2.254 -0.5764  0.2714 -1.1718
  263SOL    HW2  789   0.832   0.711   2.193 -0.8931 -2.2914  3.8789
  264SOL     OW  790   2.272   0.817   0.444 -0.0894  0.4218  0.5352
  264SOL    HW1  791   2.299   0.729   0.394  1.4887  1.1504 -1.3787
  264SOL    HW2  792   2.356   0.866   0.483  2.5142 -0.0817 -1.2867
  265SOL     OW  793   0.860   2.310   2.633  0.1641 -0.1900  0.2589
  265SOL    HW1  794   0.851   2.338   2.732 -0.6641  1.0638 -2.0139
  265SOL    HW2  795   0.793   2.237   2.605  0.1389 -4.1235 -0.6978
  266SOL     OW  796   1.276   1.811   3.049  0.6974  0.1706  0.4761
  266SOL    HW1  797   1.279   1.874   3.128 -1.1200  0.8749 -1.0968
  266SOL    HW2  798   1.367   1.790   3.011 -2.3610 -0.3336  1.3100
  267SOL     OW  799   1.062   3.033   2.290  0.6558 -0.6270 -0.7855
  267SOL    HW1  800   1.010   2.954   2.250  1.0985  0.6288  0.8285
  267SOL    HW2  801   1.087   3.109   2.228 -0.9351 -0.7661  7.0066
  268SOL     OW  802   0.816   1.304   1.165 -0.8959 -0.1097  0.4977
  268SOL    HW1  803   0.751   1.383   1.182 -1.5054 -0.9101 -0.5755
  268SOL    HW2  804   0.887   1.322   1.091 -1.9430 -0.6368  3.1544
  269SOL     OW  805   2.328   2.522   1.605 -0.1699 -0.1755  0.4058
  269SOL    HW1  806   2.423   2.507   1.631 -1.5370 -1.3615  0.6151
  269SOL    HW2  807   2.270   2.518   1.687 -1.2802 -2.0836 -0.4466
  270SOL     OW  808   0.120   3.046   2.008 -0.2481  0.3122 -0.6651
  270SOL    HW1  809   0.150   2.989   1.930 -0.6701  0.1274  1.7242
  270SOL    HW2  810   0.084   2.990   2.091  0.8368 -2.3885  0.4857
  271SOL     OW  811   0.391   1.421   1.109 -0.4034 -0.0054  0.3540
  271SOL    HW1  812   0.389   1.378   1.014  1.9365 -1.1467  0.6319
  271SOL    HW2  813   0.339   1.359   1.180  0.0852 -1.7764 -0.9662
  272SOL     OW  814   1.868   0.028   1.895  0.0699 -0.0900  0.0293
  272SOL    HW1  815   1.815  -0.060   1.869  0.1962 -0.0274 -0.6866
  272SOL    HW2  816   1.843   0.100   1.824 -0.5667 -1.4221 -0.2647
  273SOL     OW  817   1.435   1.458   2.851  0.0643  0.8939 -0.2408
  273SOL    HW1  818   1.334   1.435   2.835 -0.3711 -1.8590  0.0822
  273SOL    HW2  819   1.471   1.454   2.949 -1.1920  2.5763 -0.8201
  274SOL     OW  820   1.180   0.573   2.084 -0.3259 -0.7140  0.1776
  274SOL    HW1  821   1.101   0.519   2.112 -0.7641  0.1249  1.4917
  274SOL    HW2  822   1.236   0.605   2.165  0.0448 -2.2207  1.5050
  275SOL     OW  823   0.635   2.114   1.978 -0.0393  0.7621  0.0826
  275SOL    HW1  824   0.555   2.050   1.974  1.4620 -2.5309 -0.1517
  275SOL    HW2  825   0.614   2.214   1.962 -0.0324 -0.4272  1.3559
  276SOL     OW  826   2.260   0.944   2.873 -0.3444 -0.0805  0.2241
  276SOL    HW1  827   2.169   0.961   2.824 -1.7598 -0.7906  2.3260
  276SOL    HW2  828   2.291   0.847   2.870  0.6032 -0.3345  2.6321
  277SOL     OW  829   3.085   0.770   0.250 -0.1208 -0.0462 -0.0010
  277SOL    HW1  830   3.180   0.782   0.212 -0.1743  1.9426 -0.4922
  277SOL    HW2  831   3.078   0.697   0.322 -0.4440 -0.0420  0.0838
  278SOL     OW  832   0.324   0.234   0.013  0.8627  0.1854 -0.2434
  278SOL    HW1  833   0.395   0.180  -0.043  2.0624  0.5804  0.3627
  278SOL    HW2  834   0.333   0.335  -0.002 -0.0134  1.3296 -0.5003
  279SOL     OW  835   0.258   2.987   0.927 -0.2934  0.0490 -0.2714
  279SOL    HW1  836   0.288   2.935   1.008 -3.1890 -0.5820  0.9592
  279SOL    HW2  837   0.256   2.923   0.843  1.7146 -0.5198  0.2117
  280SOL     OW  838   1.590   2.891   2.444  0.3915  0.1132  0.7021
  280SOL    HW1  839   1.647   2.957   2.504  1.6043  0.8433 -1.3852
  280SOL    HW2  840   1.527   2.950   2.385 -0.4476 -1.3958 -4.7115
  281SOL     OW  841   0.581   0.938   2.364  0.9906  0.7216 -0.3169
  281SOL    HW1  842   0.545   0.869   2.299  0.1659 -0.4324  0.3463
  281SOL    HW2  843   0.585   0.894   2.458 -0.5137 -2.5029 -3.5316
  282SOL     OW  844   1.784   2.461   0.534 -0.3309 -0.2737 -0.1861
  282SOL    HW1  845   1.753   2.376   0.488 -0.4669  1.0621 -0.6447
  282SOL    HW2  846   1.721   2.543   0.526 -1.3840  1.5885  2.3062
  283SOL     OW  847   1.175   0.929   0.783 -0.1847 -0.4554 -0.3351
  283SOL    HW1  848   1.182   0.891   0.879 -2.7687  0.9312  0.5710
  283SOL    HW2  849   1.143   1.027   0.786 -0.5583 -1.6148 -1.0258
  284SOL     OW  850   2.256   2.832   2.455 -0.4108  0.1243 -0.0023
  284SOL    HW1  851   2.342   2.836   2.400 -0.2894  1.1570  0.9473
  284SOL    HW2  852   2.266   2.870   2.551  0.2722 -0.6126  0.7563
  285SOL     OW  853   1.327   3.065   2.565  0.2358 -0.1440 -0.2874
  285SOL    HW1  854   1.349   3.046   2.464  1.1925 -0.0544 -3.0276
  285SOL    HW2  855   1.244   3.118   2.580 -0.5932  0.1059 -0.7771
  286SOL     OW  856   0.251   0.343   0.647 -0.3042 -0.0335 -0.2302
  286SOL    HW1  857   0.264   0.252   0.704 -1.0435 -4.7821 -0.1817
  286SOL    HW2  858   0.282   0.326   0.550  1.5304 -2.2550  2.8607
  287SOL     OW  859   0.104   1.249   2.520  0.1179  0.2227 -0.3700
  287SOL    HW1  860   0.047   1.196   2.592  0.3438 -2.9112  1.8295
  287SOL    HW2  861   0.068   1.344   2.512  0.5231 -0.3547 -2.5621
  288SOL     OW  862   1.510   2.676   1.646  0.1381  0.3363 -0.1147
  288SOL    HW1  863   1.561   2.617   1.716 -3.0942  1.1924 -0.9450
  288SOL    HW2  864   1.561   2.682   1.557  0.9221 -2.0814 -1.4844
  289SOL     OW  865   0.630   2.767   0.791 -0.6670 -0.4382  0.1158
  289SOL    HW1  866   0.693   2.807   0.721 -0.6380 -1.8531 -1.3217
  289SOL    HW2  867   0.578   2.834   0.853 -1.4168 -0.6893  0.6280
  290SOL     OW  868   2.835   1.103   1.687  0.1664 -0.1343 -0.0049
  290SOL    HW1  869   2.749   1.047   1.711 -2.3696 -0.6363 -2.1144
  290SOL    HW2  870   2.893   1.114   1.768 -3.0289  0.5597 -0.1479
  291SOL     OW  871   1.926   0.014   0.078 -0.0344  0.3599  0.3497
  291SOL    HW1  872   1.965   0.032   0.173  2.5877 -0.3647 -2.4417
  291SOL    HW2  873   1.998   0.019   0.001  0.8069 -0.2247  1.2374
  292SOL     OW  874   2.980   1.288   0.033 -0.4630 -0.0568  0.4371
  292SOL    HW1  875   2.886   1.295  -0.007  2.8210 -1.0008 -0.8911
  292SOL    HW2  876   3.056   1.273  -0.039 -1.1396 -0.0852 -0.7370
  293SOL     OW  877   0.519   2.063   0.253 -0.2027  0.0263 -0.5321
  293SOL    HW1  878   0.485   2.124   0.328  0.4239 -2.3907 -0.9593
  293SOL    HW2  879   0.622   2.052   0.260 -2.9389  1.9091 -1.0111
  294SOL     OW  880   1.872   2.354   1.819  0.2782  0.2440  0.0060
  294SOL    HW1  881   1.925   2.354   1.909  3.3649 -0.1113 -1.0804
  294SOL    HW2  882   1.794   2.423   1.822 -0.0034  1.1708  1.3445
  295SOL     OW  883   0.959   1.023   0.461 -0.2544  0.4267  0.0609
  295SOL    HW1  884   1.050   1.063   0.491 -2.1340 -0.8109 -0.2487
  295SOL    HW2  885   0.918   0.962   0.536 -0.4013  4.8764 -0.0119
  296SOL     OW  886   1.153   2.126   2.721  0.0907 -0.1612 -0.4475
  296SOL    HW1  887   1.092   2.192   2.671 -0.7856  0.9696 -1.8695
  296SOL    HW2  888   1.188   2.056   2.654 -1.4630  0.9255 -2.0667
  297SOL     OW  889   1.316   0.594   1.236  0.6092  0.4218 -0.1558
  297SOL    HW1  890   1.348   0.548   1.322  0.4920 -2.1607  0.6087
  297SOL    HW2  891   1.381   0.591   1.157 -0.4128  0.6549 -0.1651
  298SOL     OW  892   0.471   1.327   2.959  0.2206  0.4734  0.1939
  298SOL    HW1  893   0.471   1.272   3.047 -2.5286  0.0903 -2.7075
  298SOL    HW2  894   0.522   1.282   2.881 -0.8351 -0.9487 -2.6953
  299SOL     OW  895   0.412   0.185   1.247  0.4808  0.2139  0.0046
  299SOL    HW1  896   0.377   0.265   1.192  0.5143  0.9852 -1.6852
  299SOL    HW2  897   0.391   0.196   1.343 -0.2639  1.5337 -2.7271
  300SOL     OW  898   1.278   1.781   2.577 -1.4589  0.1141  0.5604
  300SOL    HW1  899   1.247   1.693   2.521 -1.5457 -0.4573 -0.5696
  300SOL    HW2  900   1.361   1.773   2.637 -0.2331  2.1903 -0.9172
  301SOL     OW  901   0.306   0.278   0.389  0.1549  0.4768 -0.0318
  301SOL    HW1  902   0.215   0.224   0.388 -2.4388  0.9292 -0.4996
  301SOL    HW2  903   0.382   0.225   0.340  1.6708 -2.0863 -0.5874
  302SOL     OW  904   1.254   2.395   2.299  0.4317  0.0405  0.0455
  302SOL    HW1  905   1.159   2.377   2.340  0.8190  1.6910  2.1965
  302SOL    HW2  906   1.331   2.346   2.353  2.8569 -2.4367 -0.8224
  303SOL     OW  907   0.871   2.458   0.742  0.7696 -0.1833 -0.4393
  303SOL    HW1  908   0.943   2.430   0.671 -0.0315 -0.2803  0.2269
  303SOL    HW2  909   0.920   2.517   0.813 -0.4654  4.3573 -2.6793
  304SOL     OW  910   0.141   1.918   0.702 -0.3884 -0.1887 -0.2240
  304SOL    HW1  911   0.224   1.921   0.635  1.7704  4.1666 -0.5506
  304SOL    HW2  912   0.058   1.942   0.648  2.8792 -0.9185 -0.8278
  305SOL     OW  913   1.657   0.776   0.682  0.1224 -0.3609 -0.2250
  305SOL    HW1  914   1.562   0.763   0.646  1.0330 -2.0332  0.4490
  305SOL    HW2  915   1.716   0.690   0.685  0.7665  1.2300 -0.9183
  306SOL     OW  916   0.427   1.920   1.989  0.1912  0.2755  0.3355
  306SOL    HW1  917   0.489   1.845   1.952  0.0732 -0.4762  1.5769
  306SOL    HW2  918   0.430   1.926   2.092 -2.6265  1.8841  2.7298
  307SOL     OW  919   3.029   0.900   2.598 -0.3447 -0.1157  0.0179
  307SOL    HW1  920   3.042   0.991   2.650  0.2678  2.0575  0.6798
  307SOL    HW2  921   3.062   0.823   2.655  0.6658 -0.1326  1.3249
  308SOL     OW  922   1.480   2.709   2.806  0.2917  0.8347 -0.1455
  308SOL    HW1  923   1.443   2.711   2.708  2.3842 -0.1402 -1.5185
  308SOL    HW2  924   1.454   2.620   2.861 -1.5836  1.3692  0.6943
  309SOL     OW  925   1.147   0.200   1.821  0.0435  0.4928 -0.2440
  309SOL    HW1  926   1.212   0.131   1.781 -1.9532 -2.3173 -0.6448
  309SOL    HW2  927   1.067   0.221   1.757 -0.0385 -0.7082 -0.8977
  310SOL     OW  928   1.411   2.575   0.656 -0.6067  0.0624 -0.0156
  310SOL    HW1  929   1.407   2.594   0.760  1.0554  1.6701  0.5537
  310SOL    HW2  930   1.490   2.620   0.609 -1.6546 -0.0739 -0.4828
  311SOL     OW  931   1.120   0.938   1.727 -0.1135  0.1092 -0.4005
  311SOL    HW1  932   1.100   0.860   1.792  1.1937 -0.1482 -0.7424
  311SOL    HW2  933   1.172   0.905   1.643  0.2734  0.9475 -1.5868
  312SOL     OW  934   1.481   0.627   1.014  0.1341 -0.1443 -0.3224
  312SOL    HW1  935   1.536   0.712   0.997  1.8191 -2.0513 -0.8609
  312SOL    HW2  936   1.418   0.607   0.938  0.4554  2.6489  1.4218
  313SOL     OW  937   1.655   1.302   0.708 -0.1167  0.5761 -0.3666
  313SOL    HW1  938   1.594   1.338   0.784 -0.0018  0.9086  1.8657
  313SOL    HW2  939   1.615   1.209   0.677  2.0314 -1.8877 -0.0991
  314SOL     OW  940   3.012   0.024   3.073 -0.4537  0.0894 -0.0071
  314SOL    HW1  941   3.041   0.006   3.175 -0.5029 -0.7707  1.5369
  314SOL    HW2  942   2.936  -0.037   3.044  0.2746  0.5705 -1.6321
  315SOL     OW  943   1.165   0.219   2.789 -0.7301  0.0326 -0.6050
  315SOL    HW1  944   1.124   0.154   2.724 -2.0446  2.0039  0.4977
  315SOL    HW2  945   1.147   0.189   2.886 -3.7586 -0.6352 -0.5811
  316SOL     OW  946   1.753   2.062   0.853  0.0837  0.0644 -0.0635
  316SOL    HW1  947   1.683   2.069   0.927  0.5968  2.7421  0.0191
  316SOL    HW2  948   1.785   2.153   0.807  1.9968  0.1594 -1.7840
  317SOL     OW  949   1.173   0.704   2.730 -0.3658 -0.4315  0.1511
  317SOL    HW1  950   1.127   0.736   2.817  1.0439  1.4580  0.6544
  317SOL    HW2  951   1.124   0.619   2.692 -2.2207 -1.6016  0.6017
  318SOL     OW  952   1.414   3.048   2.298 -0.0079 -0.4780 -0.8476
  318SOL    HW1  953   1.415   3.151   2.281  0.6409 -0.3788 -1.3369
  318SOL    HW2  954   1.397   2.986   2.216  1.4172 -0.9910  2.1772
  319SOL     OW  955   0.621   2.390   3.040  0.2890 -0.0916  0.3637
  319SOL    HW1  956   0.567   2.304   3.062  0.4099 -0.5201 -0.8860
  319SOL    HW2  957   0.719   2.359   3.010  2.6289 -0.5164  0.9030
  320SOL     OW  958   1.703   2.242   0.411  0.2391 -0.3277 -0.0546
  320SOL    HW1  959   1.766   2.167   0.375  1.4616 -0.2006 -0.6183
  320SOL    HW2  960   1.605   2.210   0.436 -1.1032 -1.1096 -1.6732
  321SOL     OW  961   1.607   2.704   0.512 -0.0041 -0.0714 -0.0832
  321SOL    HW1  962   1.542   2.753   0.455  0.8927 -0.6802  0.7491
  321SOL    HW2  963   1.705   2.739   0.500 -1.2699  3.1737  0.3115
  322SOL     OW  964   2.542   1.074   2.346  0.1282 -0.1191  0.3716
  322SOL    HW1  965   2.613   1.035   2.406 -0.8481  0.1365  1.0628
  322SOL    HW2  966   2.479   0.999   2.305  1.2840 -3.4509  1.8725
  323SOL     OW  967   1.181   2.702   0.766  0.3352  0.0188  0.4453
  323SOL    HW1  968   1.192   2.638   0.684  0.9017 -1.7481  2.4177
  323SOL    HW2  969   1.122   2.789   0.748  3.3696 -0.9426  1.7758
  324SOL     OW  970   0.070   2.522   2.404 -0.0701 -0.1764 -0.5155
  324SOL    HW1  971   0.002   2.482   2.469  0.3764  0.0689 -1.0038
  324SOL    HW2  972   0.110   2.608   2.449  2.4475 -0.9579 -0.5087
  325SOL     OW  973   1.280   3.031   0.414 -0.7668  0.3151  0.1379
  325SOL    HW1  974   1.228   3.043   0.319 -0.4998 -1.4212 -0.3920
  325SOL    HW2  975   1.298   3.120   0.466  1.1110  0.9320 -0.8817
  326SOL     OW  976   2.462   0.880   0.026  0.7492 -0.4573  0.5923
  326SOL    HW1  977   2.364   0.854   0.013  1.0834 -0.9024 -3.5487
  326SOL    HW2  978   2.517   0.793   0.058 -0.5214 -2.8367  0.2523
  327SOL     OW  979   2.844   0.187   0.564  0.3631  0.0489  0.3462
  327SOL    HW1  980   2.836   0.141   0.471 -0.8733  1.6157  0.7520
  327SOL    HW2  981   2.859   0.117   0.639  0.7599  0.0139 -1.5484
  328SOL     OW  982   2.655   0.594   0.403  0.1545 -0.1148  0.4373
  328SOL    HW1  983   2.725   0.637   0.469 -1.8203 -0.4192  2.1079
  328SOL    HW2  984   2.626   0.499   0.431  1.2766 -0.7683  0.6935
  329SOL     OW  985   2.926   3.065   2.242 -0.0297  0.0693 -0.4678
  329SOL    HW1  986   2.993   2.994   2.273  0.4583 -0.3506 -0.0479
  329SOL    HW2  987   2.972   3.152   2.201 -0.6057  1.8128 -0.0340
  330SOL     OW  988   0.575   0.341   2.011  0.8653  0.1710  0.6180
  330SOL    HW1  989   0.631   0.336   1.924  2.7845  0.6356  1.4635
  330SOL    HW2  990   0.599   0.256   2.065  0.8205 -0.6054  2.0488
  331SOL     OW  991   0.009   1.937   1.128  0.1274  0.1946  0.1432
  331SOL    HW1  992  -0.016   1.952   1.027 -1.1517 -1.1111 -1.6284
  331SOL    HW2  993  -0.068   1.952   1.197  1.6783 -0.0014  2.4021
  332SOL     OW  994   0.442   1.148   0.107  0.4976 -0.0352  0.5402
  332SOL    HW1  995   0.372   1.108   0.039  0.4226  0.4639 -2.1089
  332SOL    HW2  996   0.394   1.175   0.194 -1.8837  1.2188 -2.5778
  333SOL     OW  997   2.909   0.959   0.376 -0.1319  0.3582  0.4689
  333SOL    HW1  998   2.929   1.043   0.427  2.8533 -4.5786 -2.6778
  333SOL    HW2  999   2.981   0.931   0.315 -1.4570 -2.1775 -0.3983
  334SOL     OW 1000   1.707   1.172   1.722 -0.3040  0.3514 -0.0732
  334SOL    HW1 1001   1.767   1.169   1.635  0.8146 -0.8556  3.5493
  334SOL    HW2 1002   1.768   1.195   1.803 -0.5365  0.6291 -1.9982
  335SOL     OW 1003   1.945   2.755   2.605  0.1522  0.2628  0.1050
  335SOL    HW1 1004   1.865   2.766   2.665 -1.4058  0.3912 -0.5520
  335SOL    HW2 1005   2.033   2.799   2.641 -0.4566 -1.6579 -0.6614
  336SOL     OW 1006   0.277   0.104   2.745 -0.1783 -0.2742  0.5473
  336SOL    HW1 1007   0.348   0.130   2.812 -0.9893 -0.4637 -3.0624
  336SOL    HW2 1008   0.205   0.050   2.799  1.2649 -0.0237  2.7612
  337SOL     OW 1009   0.783   2.806   3.048 -0.0720 -0.9304 -0.2128
  337SOL    HW1 1010   0.850   2.738   3.072 -0.2665  1.4991  1.8122
  337SOL    HW2 1011   0.744   2.861   3.126  1.1483 -5.5886 -0.3019
  338SOL     OW 1012   0.081   0.943   0.719  0.1002  0.1362  0.4168
  338SOL    HW1 1013  -0.010   0.905   0.751  0.6627 -0.6642 -0.4287
  338SOL    HW2 1014   0.085   1.050   0.725  2.7620  1.6624  0.8073
  339SOL     OW 1015   1.768   1.371   2.146 -0.0864 -0.0057 -0.0793
  339SOL    HW1 1016   1.667   1.372   2.127 -1.5740 -0.0731  1.4419
  339SOL    HW2 1017   1.801   1.457   2.194 -0.0947  1.1463  0.5929
  340SOL     OW 1018   2.285   0.778   1.122  1.2794  0.1762  1.0311
  340SOL    HW1 1019   2.189   0.814   1.133 -0.4437  0.5451 -0.2384
  340SOL    HW2 1020   2.286   0.685   1.079 -2.5398  3.1687  1.0790
  341SOL     OW 1021   1.891   2.071   0.293  0.6146  0.3897 -0.1771
  341SOL    HW1 1022   1.925   2.136   0.220  3.3796 -1.1757 -2.8789
  341SOL    HW2 1023   1.969   2.038   0.353  1.1882 -2.1841 -0.3443
  342SOL     OW 1024   2.140   2.132   2.766 -0.3225 -0.2706  0.0204
  342SOL    HW1 1025   2.182   2.037   2.782  0.0871  0.3351 -0.5347
  342SOL    HW2 1026   2.043   2.129   2.720 -2.2821 -1.1400  0.9503
  343SOL     OW 1027   0.356   0.833   2.877  0.0484 -0.0669 -0.2010
  343SOL    HW1 1028   0.354   0.885   2.783 -1.5250 -1.8525 -1.6603
  343SOL    HW2 1029   0.436   0.860   2.933 -0.1013 -0.6041  2.4080
  344SOL     OW 1030   1.935   1.416   0.363 -0.1375 -0.3484  0.6168
  344SOL    HW1 1031   1.933   1.331   0.300 -2.3400 -1.2854 -0.1343
  344SOL    HW2 1032   1.839   1.438   0.391  0.7197 -1.5474  1.6797
  345SOL     OW 1033   1.402   2.186   2.848 -0.5964 -0.1025 -0.4777
  345SOL    HW1 1034   1.304   2.178   2.819 -0.8959  0.6354  0.9947
  345SOL    HW2 1035   1.471   2.133   2.795  1.9717  1.8926 -1.5311
  346SOL     OW 1036   2.284   0.823   1.408 -0.0382 -0.1414  0.6920
  346SOL    HW1 1037   2.187   0.859   1.429 -1.8864  0.9449  2.2043
  346SOL    HW2 1038   2.291   0.803   1.304  1.0617  3.2836 -1.4382
  347SOL     OW 1039   0.715   2.796   1.702 -0.2572  0.0017  0.1316
  347SOL    HW1 1040   0.776   2.866   1.659  1.5982  2.3097 -1.9637
  347SOL    HW2 1041   0.615   2.818   1.686  0.2270  2.4110 -0.1468
  348SOL     OW 1042   0.185   0.624   2.831 -0.0982  0.2242  0.0043
  348SOL    HW1 1043   0.095   0.654   2.790  0.5573  0.3984 -0.1088
  348SOL    HW2 1044   0.248   0.703   2.860  0.7218  1.1979  0.4318
  349SOL     OW 1045   1.794   0.421   2.826  0.4401 -0.1538 -0.0716
  349SOL    HW1 1046   1.763   0.514   2.785 -0.0152  1.0395  0.4456
  349SOL    HW2 1047   1.772   0.416   2.928  0.3206  1.8454 -0.3138
  350SOL     OW 1048   1.750   0.367   0.393  0.1372  0.0006  0.3220
  350SOL    HW1 1049   1.827   0.318   0.437 -1.8629  1.4948 -1.0764
  350SOL    HW2 1050   1.760   0.464   0.362  2.1638 -4.8029  0.9803
  351SOL     OW 1051   0.892   0.805   2.053  1.2401  0.6876 -0.9758
  351SOL    HW1 1052   0.904   0.906   2.063  1.8039  2.0628  0.5910
  351SOL    HW2 1053   0.933   0.768   1.962  2.2427 -0.1323  0.3962
  352SOL     OW 1054   2.081   1.446   0.584  0.1906  0.9940 -0.1364
  352SOL    HW1 1055   2.051   1.445   0.487  1.7051  3.6307 -0.6145
  352SOL    HW2 1056   2.005   1.434   0.652 -0.6827  0.5766  1.9930
  353SOL     OW 1057   2.178   2.707   1.153 -0.2513  0.3260  0.5408
  353SOL    HW1 1058   2.238   2.629   1.184  0.4948  1.3929 -4.7080
  353SOL    HW2 1059   2.085   2.709   1.196 -0.2728  0.8505 -0.2834
  354SOL     OW 1060   0.217   1.411   2.886  0.5695 -0.1800  0.0213
  354SOL    HW1 1061   0.212   1.457   2.792 -0.5183 -0.7695 -1.0653
  354SOL    HW2 1062   0.310   1.377   2.919 -0.4941  1.3899  0.1943
  355SOL     OW 1063   0.734   1.594   0.580  0.0248 -0.5559 -1.2132
  355SOL    HW1 1064   0.729   1.560   0.679  1.5704  0.4995 -1.8041
  355SOL    HW2 1065   0.691   1.537   0.507  1.4268  0.0587 -0.2767
  356SOL     OW 1066   1.000   0.360   2.091  0.2231  0.1244 -0.2546
  356SOL    HW1 1067   1.056   0.277   2.115 -0.8002  0.9142  0.0988
  356SOL    HW2 1068   0.926   0.331   2.027  0.5385  0.5184 -1.1196
  357SOL     OW 1069   1.030   1.516   0.145  0.0846  0.8302  0.3639
  357SOL    HW1 1070   1.055   1.437   0.083 -1.3527  1.4345  0.0883
  357SOL    HW2 1071   1.102   1.558   0.202 -0.9188 -0.3059  0.3549
  358SOL     OW 1072   1.687   1.496   0.462 -0.4993 -0.3498  0.0437
  358SOL    HW1 1073   1.677   1.440   0.551  0.7939 -0.2973  1.9604
  358SOL    HW2 1074   1.625   1.460   0.385 -3.4728  0.6475  1.5371
  359SOL     OW 1075   1.622   2.577   0.189  0.1596  0.4344 -0.0105
  359SOL    HW1 1076   1.641   2.476   0.178 -1.4204  0.2057 -1.0914
  359SOL    HW2 1077   1.539   2.596   0.246 -0.6496 -0.8851 -1.9963
  360SOL     OW 1078   0.707   0.515   0.556 -0.4849 -0.0287 -0.0163
  360SOL    HW1 1079   0.633   0.515   0.491 -1.9048  2.3062  0.7637
  360SOL    HW2 1080   0.752   0.425   0.563 -2.0402  1.2928  0.6447
  361SOL     OW 1081   1.359   1.304   0.580  0.0085  0.5327 -0.7132
  361SOL    HW1 1082   1.402   1.339   0.669 -1.0334 -1.5732  0.4523
  361SOL    HW2 1083   1.265   1.353   0.562  0.5814 -0.0308  1.6804
  362SOL     OW 1084   1.406   1.850   0.729 -0.1428  0.5234  0.0864
  362SOL    HW1 1085   1.438   1.772   0.789 -5.3260 -1.4579  1.0823
  362SOL    HW2 1086   1.482   1.890   0.672  0.8217 -0.9453 -0.0805
  363SOL     OW 1087   1.254   1.319   1.919 -0.0726 -0.2956  0.2624
  363SOL    HW1 1088   1.339   1.312   1.975  2.0696 -0.6960 -0.6173
  363SOL    HW2 1089   1.205   1.408   1.936  0.6095 -0.0066  0.9898
  364SOL     OW 1090   0.554   2.402   1.991  0.1150  0.3892  0.4930
  364SOL    HW1 1091   0.452   2.417   2.008  1.0697  1.7085 -1.9042
  364SOL    HW2 1092   0.598   2.492   1.971 -0.2804 -1.0462  1.2081
  365SOL     OW 1093   0.917   1.951   1.419  0.1444  0.0726 -0.2354
  365SOL    HW1 1094   0.833   2.002   1.459 -2.0012  0.2027  0.1030
  365SOL    HW2 1095   0.943   1.996   1.330 -0.5020  0.5717 -0.3083
  366SOL     OW 1096   2.714   1.868   0.257 -0.9213 -0.5555  0.2632
  366SOL    HW1 1097   2.635   1.823   0.210 -1.1864  1.3946 -0.1567
  366SOL    HW2 1098   2.792   1.808   0.290  0.9781 -2.0767 -0.5446
  367SOL     OW 1099   0.934   1.090   3.042  0.2065  0.2066  0.1317
  367SOL    HW1 1100   0.931   1.035   3.130  2.3816  1.9415  0.1668
  367SOL    HW2 1101   0.982   1.180   3.051 -0.6758  2.3019  1.1398
  368SOL     OW 1102   1.470   0.472   0.496 -0.0171  0.2976  0.1334
  368SOL    HW1 1103   1.403   0.448   0.421  1.9753 -1.9271 -2.8408
  368SOL    HW2 1104   1.553   0.508   0.444 -1.6633 -2.5284 -0.3414
  369SOL     OW 1105   0.310   1.622   0.145 -0.4132 -0.2166 -0.2937
  369SOL    HW1 1106   0.375   1.684   0.199  0.2980 -1.0112 -1.3209
  369SOL    HW2 1107   0.259   1.562   0.206  1.7173 -0.8491  0.3287
  370SOL     OW 1108   0.441   2.125   1.021  0.4727 -0.0322 -0.3666
  370SOL    HW1 1109   0.480   2.220   1.018 -2.0527 -1.4074  2.8995
  370SOL    HW2 1110   0.348   2.124   0.972  1.4621  0.2656  0.2698
  371SOL     OW 1111   2.910   2.154   2.677  0.0799  0.3830 -0.0917
  371SOL    HW1 1112   2.982   2.084   2.704  1.8890 -2.1052  0.4985
  371SOL    HW2 1113   2.906   2.236   2.743  1.5114  1.7266 -0.1214
  372SOL     OW 1114   0.974   2.107   1.139 -0.4712  1.0862 -0.8446
  372SOL    HW1 1115   0.923   2.171   1.079  0.5043  2.6472  1.2713
  372SOL    HW2 1116   1.061   2.155   1.178  2.1146 -0.0530 -0.9572
  373SOL     OW 1117   1.905   1.859   1.016  0.5462 -0.0642 -0.6186
  373SOL    HW1 1118   1.997   1.884   1.047  0.2610 -0.2666 -1.2198
  373SOL    HW2 1119   1.854   1.937   0.967 -3.5378 -1.3372 -0.6532
  374SOL     OW 1120   1.946   0.274   0.561  0.4396 -0.0147  0.3494
  374SOL    HW1 1121   1.929   0.264   0.663  2.4809  0.8490  1.8146
  374SOL    HW2 1122   2.040   0.318   0.544 -0.5109 -2.5353  2.1041
  375SOL     OW 1123   2.422   2.130   1.092 -0.2146 -0.7307 -0.6177
  375SOL    HW1 1124   2.444   2.086   1.001 -2.9572 -1.3205  1.1899
  375SOL    HW2 1125   2.507   2.133   1.157  0.1905  1.3018 -2.4775
  376SOL     OW 1126   3.075   0.601   1.457  0.3141 -0.1361  0.7042
  376SOL    HW1 1127   3.096   0.657   1.539  2.0470  0.5129  1.1984
  376SOL    HW2 1128   2.998   0.531   1.468 -0.9591 -2.1904 -2.4959
  377SOL     OW 1129   2.269   2.939   0.161  0.0093  0.0728 -0.3022
  377SOL    HW1 1130   2.276   3.026   0.215  2.3949 -0.4618 -1.1839
  377SOL    HW2 1131   2.311   2.857   0.210  3.1294  1.4215 -0.8070
  378SOL     OW 1132   1.904   1.899   2.493 -0.0007 -0.3419 -0.2252
  378SOL    HW1 1133   2.001   1.865   2.487  1.2495 -0.0410 -1.1046
  378SOL    HW2 1134   1.834   1.828   2.468 -0.4164  0.1632 -1.9516
  379SOL     OW 1135   0.792   0.161   2.771  0.4692  0.3106  0.4202
  379SOL    HW1 1136   0.817   0.059   2.754  0.1341 -1.8951  1.3218
  379SOL    HW2 1137   0.790   0.229   2.685 -1.1553  1.2351  0.6446
  380SOL     OW 1138   1.545   1.097   0.566 -0.5398  0.4297  0.3944
  380SOL    HW1 1139   1.471   1.167   0.552 -0.6846 -2.3239  0.3603
  380SOL    HW2 1140   1.501   1.000   0.563 -1.1436 -2.0247 -0.7254
  381SOL     OW 1141   1.267   1.279   1.436  0.2861 -0.2199  0.1047
  381SOL    HW1 1142   1.320   1.187   1.448  1.4717  0.1780 -0.9947
  381SOL    HW2 1143   1.337   1.353   1.443 -1.5357 -1.0184 -3.1480
  382SOL     OW 1144   1.806   0.847   0.272  0.3264 -0.5193 -0.2284
  382SOL    HW1 1145   1.806   0.795   0.178 -0.4215  0.6011 -1.0971
  382SOL    HW2 1146   1.900   0.840   0.317 -1.5702 -0.5431 -1.4560
  383SOL     OW 1147   2.500   0.985   1.470  0.4241 -0.4849 -0.2689
  383SOL    HW1 1148   2.422   0.915   1.467 -0.9207 -0.4904 -2.5122
  383SOL    HW2 1149   2.576   0.968   1.403 -1.8937  1.6284  2.1290
  384SOL     OW 1150   0.962   2.278   0.238 -0.1176 -0.4590 -0.2799
  384SOL    HW1 1151   0.870   2.323   0.259 -1.8822  0.4153  2.4032
  384SOL    HW2 1152   1.001   2.244   0.325  0.9682  1.7970 -0.3855
  385SOL     OW 1153   2.903   2.033   1.621  0.0175 -0.2859  0.0594
  385SOL    HW1 1154   2.997   2.064   1.647 -3.4568 -0.9937  1.3966
  385SOL    HW2 1155   2.884   1.936   1.656 -0.0752 -0.5433  0.7700
  386SOL     OW 1156   0.489   1.036   0.474  0.1768 -0.2571 -0.8296
  386SOL    HW1 1157   0.475   0.933   0.470  1.8241 -1.3374 -1.9239
  386SOL    HW2 1158   0.445   1.076   0.395  1.8387 -2.5554  1.7597
  387SOL     OW 1159   0.953   0.267   1.637  0.1873 -0.0424 -0.0317
  387SOL    HW1 1160   1.004   0.359   1.641  0.0617  1.3523  0.5851
  387SOL    HW2 1161   0.905   0.248   1.548 -1.1269 -0.5023  1.3662
  388SOL     OW 1162   1.234   2.739   1.800  0.2357  0.0458  0.3935
  388SOL    HW1 1163   1.289   2.734   1.714  1.3815  0.6535  0.9708
  388SOL    HW2 1164   1.236   2.652   1.857  0.5054 -0.1270  1.1365
  389SOL     OW 1165   0.128   2.927   1.345 -0.5027  0.2499  0.2963
  389SOL    HW1 1166   0.038   2.946   1.300  0.4110  1.2181 -1.3631
  389SOL    HW2 1167   0.145   2.826   1.340 -2.2976 -0.3041  0.5163
  390SOL     OW 1168   1.035   0.963   1.353 -0.1317 -0.2215 -0.0198
  390SOL    HW1 1169   1.114   0.936   1.420  1.4240 -0.2383  2.1259
  390SOL    HW2 1170   0.998   1.058   1.377 -1.7770  0.5416 -0.4312
  391SOL     OW 1171   2.145   1.121   1.125 -0.0222 -0.7710 -0.2983
  391SOL    HW1 1172   2.084   1.044   1.156  2.1110 -1.2004  0.8557
  391SOL    HW2 1173   2.195   1.087   1.042  3.0769 -0.4142  1.3759
  392SOL     OW 1174   0.912   2.595   0.046  0.3125 -0.0896 -0.3815
  392SOL    HW1 1175   1.013   2.569   0.035 -0.9738  0.8747 -0.1216
  392SOL    HW2 1176   0.857   2.531   0.107  0.4583 -1.8101 -0.6498
  393SOL     OW 1177   0.333   0.674   1.951  0.2538  0.3395 -0.5113
  393SOL    HW1 1178   0.319   0.573   1.962  1.1534  0.3596  0.4550
  393SOL    HW2 1179   0.331   0.708   1.854  0.9322 -2.0999  0.6122
  394SOL     OW 1180   3.085   1.930   2.697  0.4769  0.2053  0.4621
  394SOL    HW1 1181   3.139   1.870   2.759 -1.2962 -1.5902 -0.3041
  394SOL    HW2 1182   3.060   1.873   2.612 -0.2273 -0.5820 -2.8478
  395SOL     OW 1183   1.630   1.973   0.629  0.5025 -0.4577 -0.0040
  395SOL    HW1 1184   1.658   1.891   0.571 -0.3592  1.0320  1.4451
  395SOL    HW2 1185   1.695   1.994   0.704 -0.4756  1.5130  0.5955
  396SOL     OW 1186   2.907   1.900   1.313  0.0422  0.7662  0.5569
  396SOL    HW1 1187   2.882   1.806   1.275 -0.4447  0.4762 -0.5285
  396SOL    HW2 1188   2.921   1.899   1.411  0.0494 -0.1692 -0.9980
  397SOL     OW 1189   1.049   2.223   0.486  0.1923  0.1284 -0.0500
  397SOL    HW1 1190   0.955   2.193   0.512  0.9869  1.4070 -0.5285
  397SOL    HW2 1191   1.069   2.323   0.511 -2.1193  1.7907 -1.0025
  398SOL     OW 1192   2.189   3.051   1.173 -0.1400  0.3120  0.2189
  398SOL    HW1 1193   2.114   2.984   1.182  0.9062  2.5765  1.5673
  398SOL    HW2 1194   2.166   3.150   1.154 -0.9231  0.4281 -1.1912
  399SOL     OW 1195   3.061   2.431   2.640  0.5043 -0.6353 -0.1723
  399SOL    HW1 1196   2.979   2.378   2.600  0.1958 -3.8372 -0.3451
  399SOL    HW2 1197   3.132   2.375   2.689 -1.3396  1.4731  0.9012
  400SOL     OW 1198   0.657   1.737   1.352  0.1454  0.8028  0.1492
  400SOL    HW1 1199   0.619   1.769   1.442 -0.6575 -1.6170  0.8532
  400SOL    HW2 1200   0.702   1.813   1.304  3.1441 -0.8730  4.5388
  401SOL     OW 1201   1.848   0.306   1.147  0.1901  0.1732 -0.1145
  401SOL    HW1 1202   1.840   0.325   1.253  0.5140 -1.8853  1.4483
  401SOL    HW2 1203   1.765   0.331   1.091  0.6178  0.4281 -3.0858
  402SOL     OW 1204   1.342   0.244   3.086 -0.3382 -0.1427 -0.2493
  402SOL    HW1 1205   1.430   0.226   3.033 -1.1905 -1.5532  1.0114
  402SOL    HW2 1206   1.292   0.331   3.064  0.4340 -0.3451  2.0096
  403SOL     OW 1207   2.216   1.886   0.812 -0.6227 -0.1909 -0.1407
  403SOL    HW1 1208   2.316   1.873   0.781  0.9265 -0.5614  2.6035
  403SOL    HW2 1209   2.213   1.931   0.908  1.6577  0.2331 -1.3639
  404SOL     OW 1210   0.288   2.483   2.757  0.4621  0.3991  0.2682
  404SOL    HW1 1211   0.362   2.436   2.699  0.1527 -1.1617  0.0338
  404SOL    HW2 1212   0.294   2.583   2.750 -1.0072 -0.3182 -1.9436
  405SOL     OW 1213   0.150   2.400   0.698  0.3609  0.6345 -1.2853
  405SOL    HW1 1214   0.159   2.313   0.638  1.6578  3.6577  1.0488
  405SOL    HW2 1215   0.228   2.463   0.673 -0.0131 -1.4145  0.7786
  406SOL     OW 1216   0.051   1.553   3.051  0.1989  0.2072 -0.3743
  406SOL    HW1 1217   0.121   1.510   2.983 -1.3126  0.1850 -0.1155
  406SOL    HW2 1218   0.077   1.518   3.145  0.7507  0.4212 -0.9737
  407SOL     OW 1219   1.617   0.871   0.958  0.2221 -0.4441  0.1985
  407SOL    HW1 1220   1.617   0.872   0.852  0.2650  0.7944 -1.7518
  407SOL    HW2 1221   1.567   0.950   0.999 -1.2314 -0.4940 -1.2127
  408SOL     OW 1222   1.571   2.378   0.980  0.2947  0.6285  0.2217
  408SOL    HW1 1223   1.643   2.383   0.905  0.7512  1.7068  0.6477
  408SOL    HW2 1224   1.518   2.463   0.988  0.0447  0.4361 -0.0539
  409SOL     OW 1225   0.607   0.831   0.692 -0.5334 -0.4286 -0.4123
  409SOL    HW1 1226   0.550   0.787   0.618 -0.1704 -1.4514 -1.8537
  409SOL    HW2 1227   0.609   0.781   0.778  2.5858  1.9390 -1.1981
  410SOL     OW 1228   1.197   2.028   1.431 -0.6955 -0.0084  0.1468
  410SOL    HW1 1229   1.247   1.950   1.471  0.7941 -1.9717  0.1395
  410SOL    HW2 1230   1.096   2.010   1.420  0.4317  2.0123  0.1049
  411SOL     OW 1231   2.529   1.826   3.013  0.1257 -0.2340  0.3348
  411SOL    HW1 1232   2.590   1.909   3.001  2.0242  0.0775 -2.7492
  411SOL    HW2 1233   2.469   1.815   2.929  3.2282 -1.3659 -1.2676
  412SOL     OW 1234   1.498   2.451   2.163 -0.0791 -0.1806  0.5123
  412SOL    HW1 1235   1.564   2.452   2.242  0.0240  1.3037 -1.8198
  412SOL    HW2 1236   1.400   2.434   2.194 -0.1221  0.8857  0.7204
  413SOL     OW 1237   0.033   0.253   3.033  0.1279  0.1077 -0.2332
  413SOL    HW1 1238  -0.035   0.177   3.057 -1.1389 -0.9320 -1.3229
  413SOL    HW2 1239   0.135   0.224   3.045  3.0800 -0.7887  1.1317
  414SOL     OW 1240   1.733   1.524   1.134 -0.1408  0.2936 -0.0311
  414SOL    HW1 1241   1.691   1.613   1.167 -0.4277  1.2415 -0.4733
  414SOL    HW2 1242   1.758   1.522   1.037 -2.0381  1.1958  1.1067
  415SOL     OW 1243   0.368   2.163   0.657  0.7043  0.4174 -0.1064
  415SOL    HW1 1244   0.331   2.203   0.746  0.9529 -0.8731 -3.0803
  415SOL    HW2 1245   0.284   2.165   0.592 -0.1389  2.2925  1.1119
  416SOL     OW 1246   0.359   1.101   1.079 -0.1252  0.0588 -0.2795
  416SOL    HW1 1247   0.328   1.016   1.027  0.4199  0.0091  2.3688
  416SOL    HW2 1248   0.452   1.134   1.049 -1.9050 -1.0063 -1.2064
  417SOL     OW 1249   2.356   2.438   2.119 -0.3249  0.0748  0.0576
  417SOL    HW1 1250   2.401   2.340   2.120  1.0022 -1.8039 -0.4044
  417SOL    HW2 1251   2.315   2.459   2.217 -2.3590 -0.5807 -0.1138
  418SOL     OW 1252   1.036   0.529   1.325 -0.1247 -0.0345 -0.0445
  418SOL    HW1 1253   0.964   0.496   1.255 -1.1215  0.2753 -0.5149
  418SOL    HW2 1254   1.131   0.545   1.282 -0.9744  0.1395  2.5817
  419SOL     OW 1255   0.879   0.551   2.963  0.0017  0.5721 -0.2387
  419SOL    HW1 1256   0.803   0.607   2.934  0.9407  1.5869  2.5759
  419SOL    HW2 1257   0.957   0.617   2.985  1.4878 -0.3409  0.5650
  420SOL     OW 1258   0.123   2.188   0.517 -0.7308 -0.0803  0.5234
  420SOL    HW1 1259   0.133   2.163   0.414 -0.2891  3.0298  1.7433
  420SOL    HW2 1260   0.040   2.138   0.561  1.7560 -0.1955 -1.7516
  421SOL     OW 1261   0.315   2.969   0.535  0.2404  0.0197  0.2433
  421SOL    HW1 1262   0.292   2.901   0.609  0.3837  1.5515 -0.5673
  421SOL    HW2 1263   0.396   3.029   0.556  1.6293 -0.3384 -1.6991
  422SOL     OW 1264   1.015   2.563   0.946 -0.2104  0.1020 -0.3382
  422SOL    HW1 1265   1.064   2.630   0.883 -2.0583 -0.5582 -0.8343
  422SOL    HW2 1266   1.070   2.536   1.034 -0.5596 -0.2090  1.7034
  423SOL     OW 1267   0.139   0.716   1.256  0.4330 -0.6082 -0.2900
  423SOL    HW1 1268   0.069   0.678   1.322  1.6734 -3.2202 -1.2308
  423SOL    HW2 1269   0.094   0.795   1.197 -2.1486 -0.5352  1.3564
  424SOL     OW 1270   1.131   2.215   2.046  0.1152 -0.2805 -0.4069
  424SOL    HW1 1271   1.093   2.307   2.018 -1.4990 -1.3291 -0.1397
  424SOL    HW2 1272   1.072   2.163   2.114 -2.5301  1.8026 -0.3289
  425SOL     OW 1273   1.928   1.296   0.989 -0.0346 -0.4601  0.3714
  425SOL    HW1 1274   2.008   1.271   1.048 -2.3306 -0.9001  0.0699
  425SOL    HW2 1275   1.950   1.390   0.952  0.8235 -1.0051 -0.6383
  426SOL     OW 1276   1.461   1.607   1.221  0.3554  0.5983  0.5254
  426SOL    HW1 1277   1.454   1.711   1.207  0.3481 -0.7933  1.0088
  426SOL    HW2 1278   1.402   1.568   1.294  0.4475  1.5037 -0.0801
  427SOL     OW 1279   1.939   2.403   2.089 -0.3251  0.2789 -0.2711
  427SOL    HW1 1280   2.012   2.353   2.144  0.0069  0.5223 -0.6421
  427SOL    HW2 1281   1.949   2.503   2.102  0.6716  3.5981  0.2944
  428SOL     OW 1282   0.873   0.058   0.066 -0.1207 -0.4534 -0.6326
  428SOL    HW1 1283   0.900   0.130  -0.004 -0.6892  1.1358 -0.2105
  428SOL    HW2 1284   0.959   0.023   0.114 -0.1906  1.8111 -2.6072
  429SOL     OW 1285   1.296   0.164   0.248  0.0462  0.0947 -0.3571
  429SOL    HW1 1286   1.382   0.149   0.298 -0.9655 -2.3940  1.2499
  429SOL    HW2 1287   1.317   0.186   0.151 -1.3992 -0.8960  1.8965
  430SOL     OW 1288   2.884   1.386   0.279  0.2924  0.2807  0.0997
  430SOL    HW1 1289   2.907   1.409   0.180  1.0573  1.3473 -3.4356
  430SOL    HW2 1290   2.829   1.459   0.315 -1.9888 -1.0087 -0.3579
  431SOL     OW 1291   2.060   1.568   0.904  0.1291 -0.1921 -0.0830
  431SOL    HW1 1292   2.094   1.633   0.975  0.3811 -0.0620  0.0459
  431SOL    HW2 1293   2.009   1.617   0.827 -1.7134 -0.6062 -0.0375
  432SOL     OW 1294   2.922   2.154   1.220  0.4862  0.0431  0.0250
  432SOL    HW1 1295   2.885   2.062   1.252 -0.0630  1.2764 -0.1984
  432SOL    HW2 1296   2.954   2.218   1.294  1.3967  1.5116 -0.9011
  433SOL     OW 1297   1.855   0.263   0.823  0.2656 -0.2206 -0.1359
  433SOL    HW1 1298   1.776   0.310   0.872  0.2257  0.3334 -2.2035
  433SOL    HW2 1299   1.920   0.224   0.888  3.6979  2.0586 -2.1406
  434SOL     OW 1300   1.556   0.289   0.670  0.4520 -0.1598  0.8397
  434SOL    HW1 1301   1.528   0.358   0.596  1.0080 -4.1276  0.5449
  434SOL    HW2 1302   1.581   0.327   0.759  1.6752 -3.0561 -0.3255
  435SOL     OW 1303   1.479   1.413   2.117 -0.0201  0.4925 -0.0490
  435SOL    HW1 1304   1.455   1.471   2.197  0.1350 -2.7852 -2.0109
  435SOL    HW2 1305   1.469   1.468   2.029 -1.6643  1.7314  0.5174
  436SOL     OW 1306   1.716   2.724   2.262 -0.1620 -0.4121 -0.5997
  436SOL    HW1 1307   1.671   2.792   2.324  0.2200  0.3808 -0.2380
  436SOL    HW2 1308   1.708   2.623   2.299 -0.0892  0.7118 -0.1751
  437SOL     OW 1309   1.124   2.969   0.908 -0.0806  0.1164 -0.4118
  437SOL    HW1 1310   1.069   3.055   0.901  1.8607  0.1367  0.8763
  437SOL    HW2 1311   1.115   2.913   0.993  0.8673 -0.0710  1.1356
  438SOL     OW 1312   1.033   2.704   1.514  0.0317 -0.3057  0.2192
  438SOL    HW1 1313   1.131   2.711   1.471 -0.4099 -0.1122  0.2556
  438SOL    HW2 1314   0.979   2.630   1.456 -0.2105  0.8358 -1.6167
  439SOL     OW 1315   0.706   1.855   1.099  0.1796  0.1393  0.6285
  439SOL    HW1 1316   0.738   1.951   1.095 -0.8684 -1.4137  2.1262
  439SOL    HW2 1317   0.604   1.844   1.078 -0.0042 -0.3013  1.0227
  440SOL     OW 1318   1.057   2.481   1.984 -0.3326 -0.4046  0.4131
  440SOL    HW1 1319   0.998   2.547   1.924 -0.4010 -0.9484 -0.4177
  440SOL    HW2 1320   1.157   2.485   1.952  0.2978 -3.1527 -1.5349
  441SOL     OW 1321   0.373   2.695   1.496  0.5444  0.4376  0.5882
  441SOL    HW1 1322   0.452   2.630   1.493  2.8151  0.4683 -1.0534
  441SOL    HW2 1323   0.311   2.686   1.412 -2.1551 -0.6547  2.6549
  442SOL     OW 1324   2.248   0.660   2.531  0.1281  0.2557 -0.4953
  442SOL    HW1 1325   2.246   0.562   2.569 -0.1430  1.8626 -0.7970
  442SOL    HW2 1326   2.164   0.717   2.561 -0.4622 -1.0055  2.9349
  443SOL     OW 1327   1.211   2.653   2.231  0.2538 -0.0142 -0.7682
  443SOL    HW1 1328   1.168   2.699   2.316 -3.4379 -1.0427  1.2639
  443SOL    HW2 1329   1.225   2.550   2.241  3.8528  0.0655  0.1087
  444SOL     OW 1330   1.028   1.332   1.546  0.5527 -0.3335 -0.0724
  444SOL    HW1 1331   1.123   1.307   1.515  0.3032 -0.0705  1.0103
  444SOL    HW2 1332   0.995   1.429   1.528 -0.0899  0.5612  1.3904
  445SOL     OW 1333   3.085   2.390   1.972  0.2112 -0.1223 -0.6477
  445SOL    HW1 1334   3.085   2.476   1.912  0.5527  2.8918 -1.1128
  445SOL    HW2 1335   2.987   2.362   1.996 -0.7138  1.1825  1.6030
  446SOL     OW 1336   0.212   1.896   2.374 -0.1922 -0.3184  0.6205
  446SOL    HW1 1337   0.168   1.973   2.429 -1.3160 -0.2191  1.8848
  446SOL    HW2 1338   0.148   1.853   2.304  0.9144 -1.7799 -3.5685
  447SOL     OW 1339   1.230   1.638   1.931  0.3949  0.3293  0.0129
  447SOL    HW1 1340   1.176   1.726   1.911 -0.2599  0.3667 -3.1382
  447SOL    HW2 1341   1.334   1.645   1.936  0.1915 -1.3633 -0.5823
  448SOL     OW 1342   0.120   1.564   1.921 -0.0118  0.0627  0.2178
  448SOL    HW1 1343   0.105   1.666   1.912 -2.5220 -0.1583 -0.5515
  448SOL    HW2 1344   0.138   1.528   2.011 -0.1891  0.5756 -2.0085
  449SOL     OW 1345   2.018   2.977   0.880  0.0056 -0.6563  0.5563
  449SOL    HW1 1346   2.074   2.970   0.970  1.6278 -2.0506  1.2359
  449SOL    HW2 1347   2.001   2.883   0.841  1.1981  0.3511  1.1210
  450SOL     OW 1348   2.274   1.338   0.925 -0.0625  0.0030 -0.3990
  450SOL    HW1 1349   2.265   1.253   0.863  1.6171 -2.8433  1.6920
  450SOL    HW2 1350   2.213   1.416   0.881 -0.7794 -0.9226 -0.9202
  451SOL     OW 1351   1.414   0.048   1.436  0.5058  0.0119 -0.1211
  451SOL    HW1 1352   1.311   0.074   1.436 -0.3779 -0.5352 -0.0973
  451SOL    HW2 1353   1.440  -0.023   1.507  0.3000  0.2609 -0.6288
  452SOL     OW 1354   2.633   2.331   2.247 -0.2428 -0.4026 -0.0214
  452SOL    HW1 1355   2.594   2.433   2.245 -0.4274 -1.7939 -0.4661
  452SOL    HW2 1356   2.667   2.301   2.338  0.5674  1.4800 -0.8059
  453SOL     OW 1357   2.435   2.605   3.041  0.0573  0.7447 -0.1044
  453SOL    HW1 1358   2.364   2.679   3.037 -1.7237 -0.6896 -0.0260
  453SOL    HW2 1359   2.418   2.527   2.969 -0.1852 -3.8955  0.7686
  454SOL     OW 1360   0.968   1.064   2.033 -0.2876 -0.4686  0.2720
  454SOL    HW1 1361   0.960   1.115   1.942  2.3524  3.0340 -1.4225
  454SOL    HW2 1362   1.066   1.066   2.063  0.0967 -1.8955 -2.0551
  455SOL     OW 1363   0.635   2.624   2.903  0.0608 -0.1347 -0.1659
  455SOL    HW1 1364   0.692   2.684   2.962  0.8616 -2.1794 -1.2408
  455SOL    HW2 1365   0.612   2.532   2.952  1.7902 -0.7185 -0.1382
  456SOL     OW 1366   0.511   1.774   0.330 -0.7624  0.2470 -0.5973
  456SOL    HW1 1367   0.595   1.713   0.329  2.0025 -2.1925 -1.1119
  456SOL    HW2 1368   0.523   1.872   0.306 -0.2401 -1.1142  2.9329
  457SOL     OW 1369   0.361   2.555   0.617 -0.3198 -0.2267 -0.3892
  457SOL    HW1 1370   0.362   2.607   0.526 -1.3244  1.4371  1.5457
  457SOL    HW2 1371   0.455   2.534   0.654 -0.2690 -1.5889  0.1067
  458SOL     OW 1372   2.995   2.974   1.225  0.2313 -0.2567  0.2494
  458SOL    HW1 1373   2.995   3.071   1.195  3.3360 -0.8835 -0.6306
  458SOL    HW2 1374   2.968   2.913   1.145 -2.1170  1.1959 -0.7256
  459SOL     OW 1375   2.161   2.586   0.859  0.6616  0.0865 -0.6242
  459SOL    HW1 1376   2.178   2.660   0.929 -1.9673 -0.7028 -0.6458
  459SOL    HW2 1377   2.245   2.563   0.811 -0.8477 -0.0740 -0.3942
  460SOL     OW 1378   1.057   1.923   2.910 -0.3774  0.3825 -0.4087
  460SOL    HW1 1379   1.074   2.004   2.845  1.0684  0.5002  0.8850
  460SOL    HW2 1380   1.145   1.873   2.931  1.7020  0.3928 -0.1090
  461SOL     OW 1381   0.553   2.117   2.679  0.0469  0.5281 -0.0919
  461SOL    HW1 1382   0.460   2.073   2.673 -0.7742  1.4710  2.6986
  461SOL    HW2 1383   0.613   2.069   2.752 -0.0808  1.1467 -0.0748
  462SOL     OW 1384   0.972   1.157   1.772 -0.2029 -0.4005 -0.3933
  462SOL    HW1 1385   1.033   1.073   1.755  3.3802  0.2549  0.4667
  462SOL    HW2 1386   0.996   1.241   1.703 -3.3113  2.5217 -3.6477
  463SOL     OW 1387   0.454   0.752   0.471  0.1022  0.2648 -0.6646
  463SOL    HW1 1388   0.454   0.657   0.426 -0.9856  1.4803 -0.6079
  463SOL    HW2 1389   0.358   0.784   0.490  0.2806 -0.0086  0.8234
  464SOL     OW 1390   0.507   2.246   2.236  0.2915 -0.7054  0.1169
  464SOL    HW1 1391   0.421   2.291   2.274  0.5976 -1.3311  0.3709
  464SOL    HW2 1392   0.527   2.286   2.141 -0.9818  0.5810  0.7850
  465SOL     OW 1393   0.292   0.893   0.871  0.0080 -0.3117 -0.1341
  465SOL    HW1 1394   0.200   0.920   0.834  2.0827  0.1955  0.7446
  465SOL    HW2 1395   0.315   0.805   0.827 -1.1602 -0.2454 -0.0470
  466SOL     OW 1396   1.387   1.099   1.129  0.0008  0.5589 -0.0085
  466SOL    HW1 1397   1.465   1.167   1.124 -0.3097  2.3796  0.6286
  466SOL    HW2 1398   1.292   1.138   1.105 -1.9555 -0.8448  1.8201
  467SOL     OW 1399   0.463   0.395   2.433  0.0157  0.4490 -0.3048
  467SOL    HW1 1400   0.437   0.484   2.475 -0.1984  0.5291 -1.4592
  467SOL    HW2 1401   0.496   0.332   2.509  0.5121 -0.0571  2.4205
  468SOL     OW 1402   0.493   2.241   1.721 -0.0559  0.6218 -0.3991
  468SOL    HW1 1403   0.509   2.335   1.759 -0.2902  0.0804  0.2551
  468SOL    HW2 1404   0.466   2.241   1.620  0.2709  1.8707  0.3028
  469SOL     OW 1405   1.590   1.289   1.103 -0.4272  0.5469  0.0462
  469SOL    HW1 1406   1.650   1.223   1.162 -0.6624 -0.8443  0.6852
  469SOL    HW2 1407   1.621   1.385   1.124  1.1921 -0.9998 -1.5415
  470SOL     OW 1408   2.998   1.611   0.750 -0.0368 -0.2865  0.1923
  470SOL    HW1 1409   3.085   1.597   0.798  0.4581 -2.9964 -0.3631
  470SOL    HW2 1410   2.943   1.694   0.783  0.5895  3.3599  0.1685
  471SOL     OW 1411   2.600   1.293   2.185 -0.3655  0.1425  0.1327
  471SOL    HW1 1412   2.554   1.218   2.240  1.4164  3.2413 -1.6677
  471SOL    HW2 1413   2.660   1.352   2.246 -1.2919 -2.1616  0.8212
  472SOL     OW 1414   1.151   2.449   3.079  0.2843  0.0181 -0.3290
  472SOL    HW1 1415   1.192   2.451   3.176 -0.2954  2.1328  0.4763
  472SOL    HW2 1416   1.107   2.355   3.068 -2.5676 -0.2230  0.9061
  473SOL     OW 1417   1.046   1.538   0.884 -0.0423 -0.3601  0.3989
  473SOL    HW1 1418   0.961   1.576   0.929 -1.0572  1.9102  1.2234
  473SOL    HW2 1419   1.119   1.513   0.951  0.9339  1.0934 -1.4630
  474SOL     OW 1420   0.784   1.255   0.778 -0.8468  0.5022  0.1545
  474SOL    HW1 1421   0.753   1.245   0.678  0.1877 -2.2333 -1.0229
  474SOL    HW2 1422   0.884   1.220   0.796  0.7413 -0.1573  1.8653
  475SOL     OW 1423   2.891   0.036   0.815 -0.1858 -0.4295  0.4727
  475SOL    HW1 1424   2.977   0.057   0.858 -1.4985  1.7345 -0.0342
  475SOL    HW2 1425   2.806   0.064   0.865  0.3658 -0.5325 -0.7749
  476SOL     OW 1426   0.950   3.070   1.942  0.4664  0.0303  0.8891
  476SOL    HW1 1427   1.027   3.052   2.010  0.7238 -1.3333  0.3410
  476SOL    HW2 1428   0.950   3.007   1.857 -1.6911  0.1204 -0.1733
  477SOL     OW 1429   1.489   0.417   2.442  0.2465 -0.3219 -0.0743
  477SOL    HW1 1430   1.438   0.394   2.528 -0.5962  0.6608 -0.5983
  477SOL    HW2 1431   1.568   0.356   2.418 -0.1507  1.2244  1.0113
  478SOL     OW 1432   2.194   1.833   0.249  0.2008  0.6479 -0.0400
  478SOL    HW1 1433   2.141   1.741   0.239 -2.4496 -1.1460 -0.4507
  478SOL    HW2 1434   2.295   1.823   0.233 -0.1578  0.6473 -0.0444
  479SOL     OW 1435   1.209   1.152   2.849  1.0431  0.8007  0.3476
  479SOL    HW1 1436   1.275   1.173   2.773  2.2582 -0.8975  1.4962
  479SOL    HW2 1437   1.137   1.079   2.819  2.2981  3.9690 -1.6060
  480SOL     OW 1438   2.493   2.331   0.399 -0.0108 -0.2444  0.6497
  480SOL    HW1 1439   2.452   2.244   0.436  0.2408  1.2379 -1.6646
  480SOL    HW2 1440   2.433   2.380   0.326 -0.5604  0.9955 -0.5901
  481SOL     OW 1441   1.047   1.186   0.833  0.3685 -0.1204  0.0783
  481SOL    HW1 1442   1.081   1.265   0.776 -1.8754  0.3360 -1.2052
  481SOL    HW2 1443   1.082   1.195   0.930 -0.4973 -1.3036  0.0469
  482SOL     OW 1444   1.603   0.282   1.999 -0.4453  0.3014  0.2345
  482SOL    HW1 1445   1.613   0.380   1.962 -0.0358  0.9866  3.4104
  482SOL    HW2 1446   1.697   0.242   2.035 -0.0928  0.0235  0.7297
  483SOL     OW 1447   0.111   2.364   1.318 -0.4099  0.1593  0.0899
  483SOL    HW1 1448   0.010   2.346   1.341 -1.8951  0.2278 -1.6048
  483SOL    HW2 1449   0.138   2.399   1.227 -1.0779 -0.1008  0.5086
  484SOL     OW 1450   1.697   0.944   1.392 -0.1865  0.3558 -0.2872
  484SOL    HW1 1451   1.794   0.922   1.423  0.1941  1.4108 -3.2779
  484SOL    HW2 1452   1.703   1.002   1.305  0.1955  0.1310  1.0408
  485SOL     OW 1453   0.672   1.147   1.796 -0.1098  0.2427  0.3053
  485SOL    HW1 1454   0.650   1.086   1.712 -1.8847  0.8537  0.5306
  485SOL    HW2 1455   0.775   1.150   1.808 -0.5609 -1.5179  1.7269
  486SOL     OW 1456   0.874   1.909   2.446 -0.7463 -0.0146 -0.2254
  486SOL    HW1 1457   0.923   1.878   2.535 -0.1049 -0.6013 -0.1272
  486SOL    HW2 1458   0.815   1.999   2.463 -1.9913  2.3050  0.6057
  487SOL     OW 1459   1.766   1.531   0.849  0.5849  0.3912  0.3857
  487SOL    HW1 1460   1.735   1.449   0.788 -1.6552 -0.7954 -1.0583
  487SOL    HW2 1461   1.826   1.600   0.793  0.7406  0.5998 -3.5460
  488SOL     OW 1462   2.980   0.946   2.225 -0.1807  0.3587 -0.5905
  488SOL    HW1 1463   3.020   0.859   2.195 -1.2894  1.9007  0.4857
  488SOL    HW2 1464   2.968   0.960   2.330 -0.5279 -1.8782 -0.2865
  489SOL     OW 1465   2.763   0.205   1.354  0.0069  0.1302  0.7278
  489SOL    HW1 1466   2.761   0.207   1.455 -0.5190  2.2587  0.5888
  489SOL    HW2 1467   2.843   0.150   1.316 -1.3345 -1.7019  0.4615
  490SOL     OW 1468   1.400   3.005   2.835 -0.2928 -0.0324 -0.0720
  490SOL    HW1 1469   1.454   2.916   2.845  2.4074  0.4071 -1.3535
  490SOL    HW2 1470   1.388   3.043   2.738  0.9368 -1.4084 -3.7711
  491SOL     OW 1471   1.897   1.552   2.684 -0.5722 -0.1408  0.1240
  491SOL    HW1 1472   1.895   1.578   2.780  2.4824 -0.6940  0.5192
  491SOL    HW2 1473   1.995   1.551   2.655  0.2138 -2.3452 -0.0377
  492SOL     OW 1474   0.506   1.930   0.735  0.4125  0.4541  0.0018
  492SOL    HW1 1475   0.590   1.980   0.770 -1.4733 -1.2215  0.0432
  492SOL    HW2 1476   0.440   1.997   0.685 -0.5197  3.0222  0.0208
  493SOL     OW 1477   0.493   1.408   2.146 -0.1135 -0.0777 -0.5623
  493SOL    HW1 1478   0.419   1.476   2.171  1.6275  1.5387  1.8816
  493SOL    HW2 1479   0.491   1.320   2.202  2.0008  0.8284  0.1269
  494SOL     OW 1480   2.582   2.595   0.175 -0.1460 -0.2179  0.3151
  494SOL    HW1 1481   2.648   2.519   0.207 -1.8985 -3.9768  0.3917
  494SOL    HW2 1482   2.556   2.586   0.075 -2.1586 -0.5663  3.5939
  495SOL     OW 1483   2.743   2.668   2.687  0.3018 -0.3872 -0.1558
  495SOL    HW1 1484   2.740   2.584   2.631 -0.4396 -0.4412  0.2522
  495SOL    HW2 1485   2.710   2.752   2.626 -2.0112  0.9726 -1.0402
  496SOL     OW 1486   2.059   2.210   0.705  0.8819  0.1267  0.1391
  496SOL    HW1 1487   2.068   2.241   0.798 -0.7150 -2.2481 -4.3124
  496SOL    HW2 1488   2.105   2.119   0.695  0.7984 -3.0295  1.6415
  497SOL     OW 1489   0.255   2.968   2.395  0.4032 -0.0154 -0.1036
  497SOL    HW1 1490   0.203   3.034   2.455 -1.2546  2.0172 -4.3101
  497SOL    HW2 1491   0.299   3.013   2.311 -1.5420  1.1882  0.3500
  498SOL     OW 1492   1.241   1.482   1.076 -0.2543  0.2705  0.8618
  498SOL    HW1 1493   1.333   1.516   1.089 -0.2853  1.5446 -2.4176
  498SOL    HW2 1494   1.168   1.520   1.141  2.9509  0.1958  0.6976
  499SOL     OW 1495   0.880   1.840   0.492 -0.0427 -0.4613 -0.0921
  499SOL    HW1 1496   0.818   1.761   0.521 -2.6526 -1.0394  4.0317
  499SOL    HW2 1497   0.904   1.898   0.573  1.4028 -0.1275 -0.8558
  500SOL     OW 1498   1.444   2.959   1.661 -0.1247  0.1017 -0.1776
  500SOL    HW1 1499   1.431   2.999   1.758 -3.6228 -0.4975  0.6161
  500SOL    HW2 1500   1.444   2.857   1.661  0.8949  0.6794  1.6553
  501SOL     OW 1501   0.793   1.109   2.285 -0.2074 -0.5108 -0.1334
  501SOL    HW1 1502   0.710   1.048   2.301  2.1536  0.2990 -0.9441
  501SOL    HW2 1503   0.822   1.117   2.191  0.3506 -0.3966 -0.1949
  502SOL     OW 1504   2.589   0.955   1.750 -0.3543 -0.0761  0.1657
  502SOL    HW1 1505   2.559   0.961   1.651 -0.5192  0.9416 -1.6850
  502SOL    HW2 1506   2.530   0.879   1.795 -0.1443 -0.1105  1.9219
  503SOL     OW 1507   1.312   0.153   0.628 -0.0196 -0.1750 -0.6804
  503SOL    HW1 1508   1.233   0.211   0.593  0.4175  1.7404  1.4468
  503SOL    HW2 1509   1.400   0.207   0.629 -0.8877  1.0726  0.2530
  504SOL     OW 1510   2.971   2.310   1.439  0.1970 -0.5235 -0.4089
  504SOL    HW1 1511   2.970   2.403   1.482 -0.7788  1.0023 -1.8488
  504SOL    HW2 1512   2.884   2.258   1.477 -1.3574 -1.3582 -0.7552
  505SOL     OW 1513   2.287   1.303   1.476 -0.7324  0.3667 -0.1160
  505SOL    HW1 1514   2.297   1.407   1.465 -1.1860  0.0915 -2.1615
  505SOL    HW2 1515   2.379   1.266   1.510  2.6228  1.6430  2.2507
  506SOL     OW 1516   1.875   0.292   1.753  0.1224  0.4568 -0.8780
  506SOL    HW1 1517   1.960   0.266   1.707 -0.6163 -0.8034  0.5069
  506SOL    HW2 1518   1.890   0.340   1.844  1.5495  0.1393 -0.2914
  507SOL     OW 1519   0.491   0.752   2.172  0.8502 -0.0640  0.3418
  507SOL    HW1 1520   0.435   0.739   2.085  0.6789 -1.3635  0.2071
  507SOL    HW2 1521   0.567   0.680   2.181 -0.0360  0.0204 -0.4255
  508SOL     OW 1522   0.191   1.598   0.857  0.1100 -0.2659  0.1668
  508SOL    HW1 1523   0.259   1.662   0.813 -2.1800 -2.2789 -0.9711
  508SOL    HW2 1524   0.172   1.613   0.959 -0.4381 -1.1955  0.7469
  509SOL     OW 1525   1.321   1.192   2.583 -0.5636 -0.4907 -0.0220
  509SOL    HW1 1526   1.260   1.266   2.618 -1.0831  0.7608  0.2482
  509SOL    HW2 1527   1.282   1.098   2.566  2.0870  2.2717 -0.5668
  510SOL     OW 1528   1.356   2.026   2.041  0.0856  0.3636  0.0265
  510SOL    HW1 1529   1.283   2.093   2.059  3.1871 -1.1060  1.1790
  510SOL    HW2 1530   1.359   1.954   2.115  1.6763 -0.5806  2.4096
  511SOL     OW 1531   3.032   2.638   1.291 -0.3473 -0.0838 -0.1039
  511SOL    HW1 1532   2.997   2.584   1.209 -1.5767  1.4593 -0.7219
  511SOL    HW2 1533   2.993   2.611   1.380 -3.3830  1.1008 -0.5774
  512SOL     OW 1534   2.404   0.369   1.435  0.0472 -0.5448  0.2526
  512SOL    HW1 1535   2.302   0.376   1.405 -2.3137 -2.6702 -0.4069
  512SOL    HW2 1536   2.440   0.275   1.411  0.6047  2.0753 -1.3530
  513SOL     OW 1537   2.503   2.003   0.841  0.0489  0.5553  0.1547
  513SOL    HW1 1538   2.463   2.094   0.805  0.5177  2.0560  3.3727
  513SOL    HW2 1539   2.601   1.987   0.805 -0.2597  0.0150 -0.7870
  514SOL     OW 1540   0.691   2.810   0.384  0.1895  0.2399 -1.0500
  514SOL    HW1 1541   0.655   2.878   0.316  0.1555  1.1044 -2.1322
  514SOL    HW2 1542   0.702   2.852   0.479 -1.1077  2.1926  0.9078
  515SOL     OW 1543   1.936   1.224   2.328  0.0275 -0.0824 -0.0335
  515SOL    HW1 1544   1.897   1.293   2.258 -1.1913  4.4310  2.4553
  515SOL    HW2 1545   1.886   1.226   2.417 -0.0692  2.4363 -2.7020
  516SOL     OW 1546   0.292   0.414   1.998  0.1389 -0.0495  0.2757
  516SOL    HW1 1547   0.395   0.396   1.994 -3.3753  0.1181  0.4504
  516SOL    HW2 1548   0.242   0.353   1.927 -0.1973 -0.3397  0.2826
  517SOL     OW 1549   0.364   2.985   1.200 -0.2441 -0.6055 -0.0068
  517SOL    HW1 1550   0.368   3.085   1.233 -2.8221 -1.0107  1.8028
  517SOL    HW2 1551   0.289   2.934   1.251 -1.5513 -1.7769  1.7033
  518SOL     OW 1552   2.105   0.181   1.673 -0.3852  0.0904  0.8306
  518SOL    HW1 1553   2.138   0.197   1.771  1.7107 -0.6582  1.4747
  518SOL    HW2 1554   2.164   0.109   1.626 -0.8420  1.4970  0.5655
  519SOL     OW 1555   2.351   2.176   2.588  0.2981  0.3224  1.0959
  519SOL    HW1 1556   2.266   2.170   2.650 -0.1474 -3.1726 -0.6867
  519SOL    HW2 1557   2.376   2.274   2.573  0.7456  1.1077  0.2864
  520SOL     OW 1558   1.758   2.887   1.825 -0.1708 -0.0213  0.0022
  520SOL    HW1 1559   1.697   2.839   1.893  0.1284 -1.5283 -1.0743
  520SOL    HW2 1560   1.834   2.819   1.806 -0.4880  0.8968 -1.7349
  521SOL     OW 1561   0.602   0.102   2.159 -0.1929  0.1627 -0.4122
  521SOL    HW1 1562   0.503   0.099   2.181  1.5505  2.0847  1.9451
  521SOL    HW2 1563   0.654   0.040   2.225 -0.2182  0.3330 -1.5235
  522SOL     OW 1564   0.212   1.903   1.525 -0.0836 -0.2773 -0.3907
  522SOL    HW1 1565   0.240   1.948   1.616  1.4481 -1.3744 -0.1611
  522SOL    HW2 1566   0.210   1.973   1.449  0.8204  1.2693  1.6044
  523SOL     OW 1567   2.265   3.032   1.606  0.2304 -0.0048  0.2051
  523SOL    HW1 1568   2.295   2.945   1.553  0.3503 -0.3183 -1.4276
  523SOL    HW2 1569   2.188   3.022   1.671  1.0327 -3.0089  0.6868
  524SOL     OW 1570   0.241   2.784   2.798  0.1354 -0.4250  0.2152
  524SOL    HW1 1571   0.199   2.867   2.844  0.7065  1.7517  0.5776
  524SOL    HW2 1572   0.339   2.808   2.795  1.0721  0.9720  2.9569
  525SOL     OW 1573   2.101   1.941   0.478 -0.5017 -0.6706  0.1135
  525SOL    HW1 1574   2.119   1.888   0.564 -0.7778 -0.4662  2.7801
  525SOL    HW2 1575   2.125   1.888   0.393  0.9079  1.9963  1.2608
  526SOL     OW 1576   0.391   1.526   1.545 -0.5458 -0.5552 -0.2239
  526SOL    HW1 1577   0.347   1.462   1.615  0.1689 -2.0007  1.8632
  526SOL    HW2 1578   0.488   1.499   1.521  1.2962 -1.3346  1.9594
  527SOL     OW 1579   1.123   2.876   1.190 -0.3615 -0.1774 -0.4739
  527SOL    HW1 1580   1.228   2.860   1.193 -1.3399 -0.2347 -0.6373
  527SOL    HW2 1581   1.102   2.975   1.206  2.0688  0.1784  0.8662
  528SOL     OW 1582   1.332   2.390   0.482 -0.4876  0.5123  0.0013
  528SOL    HW1 1583   1.391   2.303   0.483  1.5716 -0.5545  1.8417
  528SOL    HW2 1584   1.369   2.458   0.556 -2.1564  1.8637  1.6428
  529SOL     OW 1585   1.884   1.734   0.703  0.3546  0.4133 -0.2701
  529SOL    HW1 1586   1.827   1.744   0.614 -0.9564 -1.6261 -1.1404
  529SOL    HW2 1587   1.858   1.793   0.781  1.6686  0.7810 -0.3462
  530SOL     OW 1588   0.351   2.459   0.210 -0.4427  0.5030 -0.0816
  530SOL    HW1 1589   0.380   2.557   0.233  3.9800  4.1848 -0.5892
  530SOL    HW2 1590   0.404   2.382   0.262 -0.4021 -1.4423  0.1890
  531SOL     OW 1591   1.873   0.816   0.935 -0.0453  0.1286 -0.4679
  531SOL    HW1 1592   1.902   0.871   0.854  0.1695 -2.7259  3.2273
  531SOL    HW2 1593   1.770   0.832   0.954  1.1760  0.3937  0.7138
  532SOL     OW 1594   0.453   1.128   0.748  0.2208 -0.5894 -0.2166
  532SOL    HW1 1595   0.441   1.117   0.644  0.6883  3.7128  0.6691
  532SOL    HW2 1596   0.417   1.051   0.805 -0.1054  2.0909 -0.5764
  533SOL     OW 1597   1.701   0.013   2.576 -0.0647  0.1668  0.0144
  533SOL    HW1 1598   1.797   0.002   2.615  0.3041  1.6154  1.3548
  533SOL    HW2 1599   1.648   0.094   2.624 -3.1996 -2.1186 -0.7203
  534SOL     OW 1600   0.363   0.204   1.514 -0.3567  0.6924 -0.7483
  534SOL    HW1 1601   0.465   0.208   1.539 -1.8622 -1.7920  1.1923
  534SOL    HW2 1602   0.325   0.300   1.498 -0.4641 -0.7643 -2.1563
  535SOL     OW 1603   1.967   0.335   0.163  0.2203  0.2107 -0.3071
  535SOL    HW1 1604   1.993   0.421   0.217 -2.5442 -0.4467 -1.5419
  535SOL    HW2 1605   1.930   0.251   0.213 -0.5073 -1.0507  0.0992
  536SOL     OW 1606   1.365   2.599   0.930  0.2155 -0.0001  0.6293
  536SOL    HW1 1607   1.321   2.569   1.018 -2.6238  0.7477  1.3154
  536SOL    HW2 1608   1.297   2.644   0.862 -2.9546  1.8647  0.0119
  537SOL     OW 1609   0.892   0.260   2.329  0.1853 -0.0949  0.0244
  537SOL    HW1 1610   0.899   0.312   2.239 -0.8385 -4.0209  1.9220
  537SOL    HW2 1611   0.849   0.161   2.317  0.2950  0.1647 -0.0518
  538SOL     OW 1612   1.638   2.396   1.409 -0.3284 -0.1919 -0.1289
  538SOL    HW1 1613   1.623   2.295   1.394 -2.0498  1.4450 -0.2805
  538SOL    HW2 1614   1.735   2.422   1.438 -1.3123 -3.1524  0.5181
  539SOL     OW 1615   0.197   1.587   2.688 -0.0528 -0.1277  0.0362
  539SOL    HW1 1616   0.100   1.557   2.670  0.3624  3.9800  0.1588
  539SOL    HW2 1617   0.204   1.674   2.745  2.2633  0.6744  1.8835
  540SOL     OW 1618   2.649   1.746   1.943 -0.0850 -0.2141  0.4300
  540SOL    HW1 1619   2.593   1.661   1.963  1.5197  0.4450 -2.5549
  540SOL    HW2 1620   2.599   1.839   1.926  2.5147  1.4462  1.6270
  541SOL     OW 1621   0.494   2.147  -0.002 -0.2514 -0.1769 -0.4186
  541SOL    HW1 1622   0.506   2.104   0.094  1.6754  0.2512 -0.4732
  541SOL    HW2 1623   0.402   2.125  -0.048  0.2676  0.3219  0.1856
  542SOL     OW 1624   2.262   2.610   0.541  0.0598  0.2648 -0.1495
  542SOL    HW1 1625   2.235   2.704   0.579 -2.2179 -1.0462  0.7201
  542SOL    HW2 1626   2.180   2.548   0.527 -0.2620  1.9736  0.9844
  543SOL     OW 1627   1.066   1.784   1.592 -0.8167 -0.1638  0.0542
  543SOL    HW1 1628   1.055   1.785   1.691 -0.1000 -1.3702 -3.8981
  543SOL    HW2 1629   0.998   1.842   1.539 -0.1329  3.4839  2.7981
  544SOL     OW 1630   1.130   0.540   0.135 -0.0790 -0.4180  0.5963
  544SOL    HW1 1631   1.092   0.449   0.172 -2.4745 -0.2992  1.8020
  544SOL    HW2 1632   1.151   0.530   0.035 -3.1455 -1.0520  2.6090
  545SOL     OW 1633   1.123   1.794   0.812  0.0012 -0.3701 -0.2390
  545SOL    HW1 1634   1.210   1.814   0.764 -0.5988  3.0582  2.1680
  545SOL    HW2 1635   1.116   1.690   0.835  2.4741 -0.7265  0.3217
  546SOL     OW 1636   2.664   1.590   2.995  0.6168  0.1283  0.1181
  546SOL    HW1 1637   2.621   1.686   3.012 -0.2628 -1.5133  0.2967
  546SOL    HW2 1638   2.593   1.513   3.011 -1.3896 -1.6290 -0.9941
  547SOL     OW 1639   0.667   3.003   2.578  0.7093 -0.2421  0.1575
  547SOL    HW1 1640   0.727   2.973   2.658  1.9507  0.3966  1.1050
  547SOL    HW2 1641   0.626   2.925   2.532  5.2759  3.7970  0.9336
  548SOL     OW 1642   2.040   0.786   3.038  0.2094  0.3364  0.4788
  548SOL    HW1 1643   1.939   0.762   3.059 -0.5868 -0.0525  0.7541
  548SOL    HW2 1644   2.067   0.884   3.068  2.3573  1.3330 -1.6563
  549SOL     OW 1645   0.685   0.560   0.181  0.0481 -0.6349  0.2335
  549SOL    HW1 1646   0.648   0.593   0.092 -0.6343 -1.3685 -1.4176
  549SOL    HW2 1647   0.775   0.606   0.204 -1.3862 -2.2200  0.1532
  550SOL     OW 1648   2.587   2.775   2.893  0.3086  0.2432  0.1023
  550SOL    HW1 1649   2.521   2.717   2.948  1.5417  2.9213  2.5412
  550SOL    HW2 1650   2.640   2.720   2.821 -0.2102 -1.3008 -0.8953
  551SOL     OW 1651   0.258   0.870   0.204  0.3327  0.0090  0.2641
  551SOL    HW1 1652   0.351   0.828   0.177 -1.4959 -0.9076 -1.6641
  551SOL    HW2 1653   0.235   0.862   0.309 -0.6851 -2.0818  3.4130
  552SOL     OW 1654   0.620   3.036   1.929  0.1281 -0.4293 -0.4895
  552SOL    HW1 1655   0.636   3.099   2.013 -0.5487  2.2314 -0.1312
  552SOL    HW2 1656   0.704   2.988   1.898 -0.7631  0.4877 -0.8284
  553SOL     OW 1657   3.023   2.421   0.373  0.7025  0.0561 -0.0892
  553SOL    HW1 1658   3.071   2.353   0.440  2.8074  0.1947 -0.8627
  553SOL    HW2 1659   2.929   2.451   0.406 -0.7290 -1.9793  2.4893
  554SOL     OW 1660   2.227   0.355   0.565 -0.0305 -0.3292  0.8703
  554SOL    HW1 1661   2.278   0.324   0.480  0.8692  0.6527 -0.2414
  554SOL    HW2 1662   2.218   0.282   0.638  1.2045 -1.3732 -1.5550
  555SOL     OW 1663   0.487   2.829   2.472 -0.2910 -0.4709  0.0601
  555SOL    HW1 1664   0.405   2.887   2.446 -0.7768  2.4111 -2.6239
  555SOL    HW2 1665   0.483   2.747   2.411 -1.1554  1.6188  2.1141
  556SOL     OW 1666   0.849   2.375   1.591  0.2300 -0.6840 -0.1865
  556SOL    HW1 1667   0.870   2.455   1.660 -1.0008  3.6570  0.2806
  556SOL    HW2 1668   0.901   2.388   1.505  0.0988 -0.8273 -0.1910
  557SOL     OW 1669   0.186   2.130   0.247 -0.7712  0.7616  0.0373
  557SOL    HW1 1670   0.097   2.082   0.207  0.3985  0.4407 -3.7033
  557SOL    HW2 1671   0.215   2.200   0.175 -1.4252  2.9699 -1.5848
  558SOL     OW 1672   2.850   2.182   0.405 -0.2681  0.2508  0.0352
  558SOL    HW1 1673   2.796   2.258   0.432 -1.1102 -0.0014  1.4119
  558SOL    HW2 1674   2.823   2.142   0.316  2.1095 -1.8699 -1.6504
  559SOL     OW 1675   0.426   2.267   1.466  0.4551 -0.0961  0.2338
  559SOL    HW1 1676   0.328   2.277   1.445 -0.2564 -1.9129  0.5168
  559SOL    HW2 1677   0.486   2.216   1.395 -0.1596 -0.1714  0.1305
  560SOL     OW 1678   2.161   1.028   0.012  1.0239  0.2122  0.1081
  560SOL    HW1 1679   2.206   1.081   0.092 -1.6153 -1.5543 -1.2241
  560SOL    HW2 1680   2.229   0.997  -0.062 -0.3176 -0.3844  0.1571
  561SOL     OW 1681   3.062   1.982   0.178 -0.8071  0.3874 -0.6856
  561SOL    HW1 1682   2.998   1.917   0.222  1.7313 -0.6598  0.0581
  561SOL    HW2 1683   3.020   2.017   0.092 -1.0876  2.8796  0.1884
  562SOL     OW 1684   1.014   2.088   2.265  0.1062 -0.2988  0.4775
  562SOL    HW1 1685   1.007   2.186   2.304 -0.3081  0.7754 -0.0122
  562SOL    HW2 1686   0.979   2.023   2.334 -2.0168  0.3296  0.0571
  563SOL     OW 1687   0.663   2.542   2.653  0.2579 -0.0213  0.2500
  563SOL    HW1 1688   0.754   2.512   2.626 -1.5963  0.1321 -0.0801
  563SOL    HW2 1689   0.657   2.567   2.754 -1.4647 -0.1671  0.4341
  564SOL     OW 1690   2.865   1.429   2.850  0.3910  0.0598  0.6703
  564SOL    HW1 1691   2.803   1.502   2.883  0.0526  1.0212  2.8430
  564SOL    HW2 1692   2.946   1.470   2.797  0.9109  0.0885  0.6506
  565SOL     OW 1693   2.477   1.956   2.660 -0.0922  0.1591 -0.5900
  565SOL    HW1 1694   2.446   2.053   2.640 -0.6804 -0.4382 -1.1634
  565SOL    HW2 1695   2.570   1.943   2.695 -1.7608  0.0892  1.4600
  566SOL     OW 1696   1.966   2.910   1.464  1.1589  0.4288  0.2256
  566SOL    HW1 1697   1.986   2.820   1.514  0.5939  1.7780  0.4838
  566SOL    HW2 1698   2.036   2.921   1.388  1.3968 -1.6960  2.2782
  567SOL     OW 1699   2.359   0.037   2.306  0.1050  0.3545 -0.0780
  567SOL    HW1 1700   2.285   0.081   2.366 -1.3504  2.2413 -0.9459
  567SOL    HW2 1701   2.335   0.023   2.207 -0.0643  1.2071  1.0662
  568SOL     OW 1702   1.476   1.767   0.210  0.0347 -0.2710 -0.2378
  568SOL    HW1 1703   1.418   1.851   0.207  0.1997  0.3816 -0.3310
  568SOL    HW2 1704   1.573   1.790   0.225  0.8988  0.0517  1.9769
  569SOL     OW 1705   0.277   0.536   0.859 -0.0993  0.3917  0.4128
  569SOL    HW1 1706   0.276   0.455   0.793 -0.2649 -1.7744 -1.1874
  569SOL    HW2 1707   0.180   0.571   0.868 -0.2582 -2.5667 -0.1089
  570SOL     OW 1708   0.662   0.846   2.897 -0.1171 -0.5962  0.5661
  570SOL    HW1 1709   0.693   0.888   2.805  0.4594  0.9847 -0.7783
  570SOL    HW2 1710   0.663   0.916   2.972 -2.8201 -1.4453 -0.9071
  571SOL     OW 1711   0.794   3.036   1.078  0.1334 -0.1970  0.1260
  571SOL    HW1 1712   0.852   3.086   1.008 -1.3260 -1.0919 -1.9530
  571SOL    HW2 1713   0.824   2.937   1.077  2.0772  0.1039 -0.2467
  572SOL     OW 1714   1.666   2.745   1.432 -0.3967  0.3464 -0.2643
  572SOL    HW1 1715   1.620   2.674   1.374  0.0417 -2.4258 -0.5849
  572SOL    HW2 1716   1.681   2.837   1.383  2.5560 -1.1827 -0.0740
  573SOL     OW 1717   3.027   0.461   1.942  0.0360  0.4062  0.5358
  573SOL    HW1 1718   2.946   0.403   1.930  2.3699  2.7399  1.2369
  573SOL    HW2 1719   3.112   0.417   1.901 -0.7834 -0.2473 -0.6755
  574SOL     OW 1720   0.123   1.680   1.123  0.2178  0.2848  0.1099
  574SOL    HW1 1721   0.190   1.681   1.202 -0.4593  3.0305 -0.4335
  574SOL    HW2 1722   0.093   1.775   1.095 -4.0475 -0.4171 -1.6562
  575SOL     OW 1723   0.837   2.278   0.966  0.2826 -0.2757 -0.2655
  575SOL    HW1 1724   0.775   2.334   1.029 -1.5835  0.1259 -2.9540
  575SOL    HW2 1725   0.864   2.326   0.878 -0.0765  0.6412 -3.2624
  576SOL     OW 1726   2.942   3.029   1.666 -0.3793  0.3789 -0.1947
  576SOL    HW1 1727   2.842   3.036   1.666  2.9172  0.2833 -2.0915
  576SOL    HW2 1728   2.992   3.119   1.681  0.3882  2.7238  1.3346
  577SOL     OW 1729   2.663   1.207   3.070 -0.1189 -0.3896 -0.0351
  577SOL    HW1 1730   2.647   1.124   3.004 -3.0264 -1.0917 -0.7201
  577SOL    HW2 1731   2.698   1.165   3.161  1.0293 -0.3700 -2.2882
  578SOL     OW 1732   1.376   2.715   2.559  0.0485 -0.2095  0.3858
  578SOL    HW1 1733   1.283   2.723   2.515 -1.9675  0.3836  0.8829
  578SOL    HW2 1734   1.447   2.766   2.501 -2.2551  1.1618 -0.4034
  579SOL     OW 1735   0.084   2.432   0.124 -0.1690  0.5883 -0.0753
  579SOL    HW1 1736   0.033   2.433   0.210  2.3179 -0.7508 -2.0163
  579SOL    HW2 1737   0.186   2.438   0.145  0.0511 -0.5362 -0.3080
  580SOL     OW 1738   0.970   2.695   0.348  0.1056 -0.1608 -0.3603
  580SOL    HW1 1739   1.042   2.725   0.276  0.7983  0.4066 -1.3500
  580SOL    HW2 1740   0.872   2.693   0.313  0.3216 -1.6807 -0.5799
  581SOL     OW 1741   1.277   2.713   1.440 -0.4467 -0.6117 -0.0971
  581SOL    HW1 1742   1.326   2.623   1.441  0.5835 -1.2365  2.2445
  581SOL    HW2 1743   1.325   2.784   1.379  0.1011 -0.5110 -3.3093
  582SOL     OW 1744   1.465   0.086   1.851 -0.9781 -0.1386 -0.3099
  582SOL    HW1 1745   1.517   0.145   1.917 -0.2478  1.0628  1.0066
  582SOL    HW2 1746   1.479   0.121   1.755  0.4066 -0.1103 -0.0402
  583SOL     OW 1747   2.459   2.992   0.478  0.8395 -0.0903  0.1113
  583SOL    HW1 1748   2.546   2.934   0.467 -1.5750 -0.6808 -0.5811
  583SOL    HW2 1749   2.381   2.927   0.495  1.2699 -0.9961 -1.0809
  584SOL     OW 1750   1.517   1.058   2.268 -0.2812 -0.4013  0.4506
  584SOL    HW1 1751   1.541   1.152   2.241 -2.3456 -1.4466 -1.4409
  584SOL    HW2 1752   1.593   0.995   2.301 -2.2590 -1.8199 -0.1095
  585SOL     OW 1753   2.025   2.676   2.903  0.4373  0.1153 -0.4212
  585SOL    HW1 1754   2.050   2.581   2.870 -1.3487  0.6228 -1.8040
  585SOL    HW2 1755   1.928   2.692   2.881  0.4290 -2.1668 -2.4786
  586SOL     OW 1756   2.913   0.393   1.571 -0.3623  0.0885  0.4892
  586SOL    HW1 1757   2.892   0.478   1.625  1.3503 -1.9098 -0.5854
  586SOL    HW2 1758   2.849   0.317   1.608 -3.4954 -3.4403  2.2130
  587SOL     OW 1759   2.188   1.474   2.769 -0.5207 -0.2301 -0.2457
  587SOL    HW1 1760   2.193   1.432   2.677  1.7911 -0.7804 -0.7442
  587SOL    HW2 1761   2.269   1.531   2.791 -2.9453  0.9723 -0.8515
  588SOL     OW 1762   0.443   2.636   2.277  0.1629  0.0399 -0.7998
  588SOL    HW1 1763   0.414   2.687   2.191  0.5349 -2.9436  0.8212
  588SOL    HW2 1764   0.390   2.545   2.285 -3.2661 -1.5978 -0.5625
  589SOL     OW 1765   2.169   1.380   2.500  0.1553 -0.0204 -0.3136
  589SOL    HW1 1766   2.089   1.320   2.467 -2.5982  0.3299 -1.3513
  589SOL    HW2 1767   2.262   1.338   2.495 -2.1276 -2.4067  2.2142
  590SOL     OW 1768   2.339   1.675   2.054 -0.0528 -0.0306 -0.0448
  590SOL    HW1 1769   2.408   1.597   2.056 -1.2251  0.3845 -0.5976
  590SOL    HW2 1770   2.331   1.714   2.152  1.7628 -0.4465  0.3615
  591SOL     OW 1771   1.290   2.410   0.204 -0.4042 -0.4528 -0.0158
  591SOL    HW1 1772   1.340   2.330   0.151  1.7198 -1.5916 -0.0773
  591SOL    HW2 1773   1.288   2.395   0.303 -0.9567  0.0037 -0.9464
  592SOL     OW 1774   1.801   2.361   0.806  0.3417 -0.4688 -0.5447
  592SOL    HW1 1775   1.803   2.378   0.705 -2.3388 -0.6128  0.0273
  592SOL    HW2 1776   1.888   2.342   0.852 -2.9725  1.8928 -0.5266
  593SOL     OW 1777   0.762   0.298   0.174  0.0356  0.0378  0.3977
  593SOL    HW1 1778   0.765   0.267   0.077 -0.2667 -1.4502  0.5991
  593SOL    HW2 1779   0.757   0.403   0.182  0.0765  0.3401 -0.1524
  594SOL     OW 1780   1.024   1.827   2.650 -0.1397 -0.2629  0.4425
  594SOL    HW1 1781   1.119   1.795   2.624 -2.3750  2.3188 -0.2506
  594SOL    HW2 1782   1.013   1.850   2.754  2.0465  1.4731 -2.1710
  595SOL     OW 1783   1.567   0.132   1.002  0.1042 -0.5176 -0.4095
  595SOL    HW1 1784   1.643   0.072   0.964  0.7781 -1.0540  2.1828
  595SOL    HW2 1785   1.470   0.098   0.981  0.0690  3.9400 -0.0663
  596SOL     OW 1786   0.206   1.460   2.157  0.2895  0.4587 -0.2684
  596SOL    HW1 1787   0.153   1.371   2.171  3.9194 -1.1495  0.9580
  596SOL    HW2 1788   0.228   1.511   2.243  0.6072  1.8414  2.0879
  597SOL     OW 1789   1.967   2.694   1.826 -0.6618  0.2036 -0.0737
  597SOL    HW1 1790   1.957   2.672   1.720  1.0305  1.8135 -0.7869
  597SOL    HW2 1791   2.050   2.646   1.864 -1.8850  1.0680  0.0575
  598SOL     OW 1792   2.501   2.781   1.234  0.6617  0.1256 -0.5683
  598SOL    HW1 1793   2.603   2.770   1.252 -0.3129  0.4709  1.4244
  598SOL    HW2 1794   2.452   2.690   1.216  0.9515 -0.2290  1.3596
  599SOL     OW 1795   2.889   0.300   2.523  0.1021  0.0317 -0.4000
  599SOL    HW1 1796   2.978   0.345   2.489  3.8638  2.7539  0.9020
  599SOL    HW2 1797   2.798   0.340   2.486 -2.3331  1.2244  0.6037
  600SOL     OW 1798   2.752   1.204   2.749 -0.0920  0.0599 -0.2965
  600SOL    HW1 1799   2.663   1.236   2.711  0.0650 -0.9449 -2.5003
  600SOL    HW2 1800   2.779   1.269   2.827 -1.1149  0.0552 -0.4483
  601SOL     OW 1801   3.015   1.368   1.891  0.4581 -0.1032  0.2571
  601SOL    HW1 1802   2.929   1.377   1.835  1.8852  0.6999 -0.2320
  601SOL    HW2 1803   3.090   1.439   1.868  0.2926  0.0395 -0.7859
  602SOL     OW 1804   1.492   1.584   2.357 -0.3507  0.4570  0.1628
  602SOL    HW1 1805   1.405   1.568   2.414 -0.0910 -1.2356  4.7476
  602SOL    HW2 1806   1.581   1.571   2.407 -0.5615  2.3946 -1.1131
  603SOL     OW 1807   0.570   1.167   2.741  0.2644 -0.2209  0.3696
  603SOL    HW1 1808   0.503   1.192   2.666  0.0630  1.3546 -1.7745
  603SOL    HW2 1809   0.624   1.081   2.713 -0.8099 -0.3886 -1.4347
  604SOL     OW 1810   2.521   1.004   0.259  0.0618 -0.5390  0.1810
  604SOL    HW1 1811   2.601   1.066   0.275 -0.0684  0.8019  0.9173
  604SOL    HW2 1812   2.526   0.958   0.166 -1.2982 -2.6059 -1.2318
  605SOL     OW 1813   2.595   1.207   1.920 -0.2648 -0.3537  0.1435
  605SOL    HW1 1814   2.606   1.106   1.903  0.7308  0.3614  0.2372
  605SOL    HW2 1815   2.606   1.227   2.021  0.1162 -1.7115 -0.8979
  606SOL     OW 1816   1.505   2.460   2.585 -0.5764  0.0514 -0.6561
  606SOL    HW1 1817   1.425   2.530   2.582 -0.7413  2.0361  2.4949
  606SOL    HW2 1818   1.490   2.373   2.537 -0.5907  0.4603 -1.2485
  607SOL     OW 1819   1.272   1.566   0.280 -0.4361 -0.5056 -0.6259
  607SOL    HW1 1820   1.207   1.629   0.328  3.5361 -0.0309  0.3094
  607SOL    HW2 1821   1.354   1.627   0.263 -1.1682 -0.1283  0.3984
  608SOL     OW 1822   1.431   2.831   0.321  0.0954  0.5601  0.4889
  608SOL    HW1 1823   1.499   2.864   0.250 -1.2712 -2.2804 -1.4516
  608SOL    HW2 1824   1.372   2.907   0.365  0.9193  0.8525 -0.3010
  609SOL     OW 1825   1.284   1.297   0.182 -0.5413  0.5336  0.1636
  609SOL    HW1 1826   1.252   1.382   0.235  1.3109  1.0365 -3.4908
  609SOL    HW2 1827   1.233   1.291   0.094 -1.0911 -1.4351  1.5534
  610SOL     OW 1828   3.092   1.244   2.139  0.1057  0.0405 -0.5046
  610SOL    HW1 1829   3.049   1.147   2.137  0.6497 -3.6383 -0.8545
  610SOL    HW2 1830   3.064   1.296   2.049  2.1612  3.1979 -0.7176
  611SOL     OW 1831   2.549   0.200   1.163  0.3352 -0.4712  0.3501
  611SOL    HW1 1832   2.500   0.111   1.183  0.7256  0.1719 -2.1649
  611SOL    HW2 1833   2.633   0.213   1.218 -0.3325 -2.6059 -2.0520
  612SOL     OW 1834   0.761   2.376   1.236  0.4970  0.1084 -0.1357
  612SOL    HW1 1835   0.719   2.281   1.245 -1.4424 -0.8730 -1.8435
  612SOL    HW2 1836   0.692   2.454   1.252 -2.5698 -2.0731  1.7725
  613SOL     OW 1837   0.772   1.371   2.398  0.1621  0.1090  0.4639
  613SOL    HW1 1838   0.803   1.453   2.338  0.3079  1.8954  1.7818
  613SOL    HW2 1839   0.741   1.288   2.342  0.2863 -0.6754  0.4373
  614SOL     OW 1840   1.511   1.675   1.954 -0.0261 -0.2633  0.4871
  614SOL    HW1 1841   1.513   1.726   1.862 -0.3489  2.8783 -2.7658
  614SOL    HW2 1842   1.569   1.720   2.026 -0.9891  2.2531 -1.2916
  615SOL     OW 1843   0.708   1.452   1.710 -0.0709 -0.5206 -0.2062
  615SOL    HW1 1844   0.680   1.378   1.645  0.4133 -0.2441  0.8048
  615SOL    HW2 1845   0.790   1.505   1.673  2.3745  1.4115 -3.4847
  616SOL     OW 1846   1.110   1.621   2.210 -0.5833  0.1844  0.0589
  616SOL    HW1 1847   1.010   1.593   2.218  1.6719  1.3907  4.0082
  616SOL    HW2 1848   1.150   1.624   2.112 -1.3971 -0.8587 -1.1624
  617SOL     OW 1849   2.900   1.574   1.579  0.1684 -0.3987 -0.2644
  617SOL    HW1 1850   2.864   1.524   1.661 -1.3614  0.8821 -0.7403
  617SOL    HW2 1851   2.939   1.513   1.504  0.7076  0.9819  0.4702
  618SOL     OW 1852   1.877   1.978   1.501 -0.0057  0.0267 -0.0342
  618SOL    HW1 1853   1.956   1.958   1.438 -2.8906 -1.2353  0.9679
  618SOL    HW2 1854   1.841   1.896   1.555 -0.9241 -0.0033  3.9434
  619SOL     OW 1855   1.784   0.541   2.397 -0.0123 -0.0420 -0.2019
  619SOL    HW1 1856   1.699   0.576   2.351 -0.8401 -0.6120  2.8955
  619SOL    HW2 1857   1.782   0.443   2.415 -1.3978  0.1969  0.5905
  620SOL     OW 1858   2.237   2.864   0.652 -0.0641 -1.1210 -0.1007
  620SOL    HW1 1859   2.155   2.921   0.624  0.8380 -0.1205 -0.5091
  620SOL    HW2 1860   2.247   2.858   0.754 -1.4760 -3.3154  2.3192
  621SOL     OW 1861   2.129   1.901   1.360 -0.0863  0.7550 -0.0433
  621SOL    HW1 1862   2.139   1.898   1.467  1.1350  1.0190 -1.3523
  621SOL    HW2 1863   2.153   1.808   1.310 -0.5204  2.1847  0.1054
  622SOL     OW 1864   2.235   0.955   1.770 -0.7947  0.2413 -1.3376
  622SOL    HW1 1865   2.263   0.857   1.754 -1.2961 -3.0094  0.3280
  622SOL    HW2 1866   2.143   0.971   1.825 -1.9754  2.5417 -0.5328
  623SOL     OW 1867   1.273   0.912   2.557 -0.1443  0.0669 -0.7789
  623SOL    HW1 1868   1.241   0.833   2.617  6.1105 -1.0813  0.3133
  623SOL    HW2 1869   1.229   0.901   2.467  1.4821 -1.2987 -0.4739
  624SOL     OW 1870   0.568   0.656   3.060 -0.0525 -0.5172 -0.0420
  624SOL    HW1 1871   0.602   0.711   2.984  0.1532 -0.2371 -2.7140
  624SOL    HW2 1872   0.534   0.713   3.134  0.4170 -0.0748  1.5983
  625SOL     OW 1873   2.801   1.790   0.828 -0.3190  0.2783  0.2216
  625SOL    HW1 1874   2.780   1.852   0.910 -0.8494 -1.6435 -0.6061
  625SOL    HW2 1875   2.721   1.732   0.787 -0.0950 -0.0822  0.3748
  626SOL     OW 1876   0.441   2.839   2.044  0.6406 -0.0314 -0.1013
  626SOL    HW1 1877   0.518   2.911   2.030  1.0174  0.1941 -2.3159
  626SOL    HW2 1878   0.346   2.870   2.013 -0.1817  1.6252 -0.0240
  627SOL     OW 1879   0.699   0.980   1.544  0.2010 -0.5081  0.4148
  627SOL    HW1 1880   0.744   0.885   1.541  1.7216 -5.6054 -0.0913
  627SOL    HW2 1881   0.760   1.050   1.502  0.3599 -2.9734 -0.3005
  628SOL     OW 1882   2.464   0.120   0.662 -0.1734  0.0669  0.1575
  628SOL    HW1 1883   2.493   0.044   0.597  3.2343  1.7844  2.9212
  628SOL    HW2 1884   2.363   0.114   0.682 -1.0111  0.9944 -1.4851
  629SOL     OW 1885   2.008   0.953   1.961  0.3318 -0.0266  0.5218
  629SOL    HW1 1886   2.056   0.946   2.054 -0.8289  0.5361  0.3888
  629SOL    HW2 1887   1.964   1.042   1.944  1.5237 -1.6484 -0.4568
  630SOL     OW 1888   2.844   2.230   0.772 -0.6593  0.0482  0.7676
  630SOL    HW1 1889   2.776   2.279   0.824  2.2497  0.7304 -3.8724
  630SOL    HW2 1890   2.808   2.144   0.730 -2.2905 -0.4043 -0.8889
  631SOL     OW 1891   3.036   0.204   2.136 -0.1118 -0.0267 -0.3328
  631SOL    HW1 1892   3.078   0.235   2.226 -0.4707 -1.3682 -1.9419
  631SOL    HW2 1893   3.095   0.233   2.052 -1.0142  0.7843  0.4480
  632SOL     OW 1894   2.416   2.503   0.732 -0.3412  0.1276 -0.2977
  632SOL    HW1 1895   2.480   2.579   0.771  1.3374  1.5268 -0.2113
  632SOL    HW2 1896   2.372   2.533   0.643  4.0800  1.9124  1.5414
  633SOL     OW 1897   1.543   1.240   2.741 -0.0631 -0.3640  0.0808
  633SOL    HW1 1898   1.514   1.327   2.795 -1.4523 -0.7710  1.8514
  633SOL    HW2 1899   1.482   1.217   2.657  0.0746 -1.9682 -0.7934
  634SOL     OW 1900   0.687   2.070   0.871  0.1102  0.4527 -0.4777
  634SOL    HW1 1901   0.588   2.069   0.916 -1.0514 -0.2098  2.6089
  634SOL    HW2 1902   0.746   2.147   0.906 -0.7403 -1.7039  1.1280
  635SOL     OW 1903   3.095   2.257   3.038 -0.6112  0.3023 -0.2102
  635SOL    HW1 1904   3.020   2.299   2.979 -0.7899 -1.4149  3.2472
  635SOL    HW2 1905   3.136   2.329   3.098 -0.4763  0.3743 -3.7976
  636SOL     OW 1906   2.351   2.832   1.971 -0.2168 -0.2282 -0.1317
  636SOL    HW1 1907   2.352   2.937   1.975  0.1565 -2.4106 -2.3406
  636SOL    HW2 1908   2.285   2.802   2.046  0.0315 -0.0370  0.8272
  637SOL     OW 1909   2.558   0.739   2.106 -0.0969  0.1121 -0.5574
  637SOL    HW1 1910   2.504   0.751   2.019 -0.5658 -1.6048 -1.5925
  637SOL    HW2 1911   2.637   0.808   2.102  1.6916 -1.1980 -0.3048
  638SOL     OW 1912   2.418   1.931   1.377 -0.0607 -0.0074 -0.7988
  638SOL    HW1 1913   2.319   1.965   1.385 -1.2653 -0.2240  0.3598
  638SOL    HW2 1914   2.423   1.834   1.361  1.9982  0.7766  2.4913
  639SOL     OW 1915   1.286   2.246   1.586 -0.0411  0.7349  0.6252
  639SOL    HW1 1916   1.260   2.179   1.510  1.9657  1.7632  0.5617
  639SOL    HW2 1917   1.236   2.222   1.672  1.1359 -1.7619 -0.1579
  640SOL     OW 1918   0.254   1.178   1.531  0.4025 -0.3187  0.0709
  640SOL    HW1 1919   0.291   1.235   1.612 -1.0276  0.8728 -1.7865
  640SOL    HW2 1920   0.325   1.120   1.485  1.1818  0.6247 -0.1184
  641SOL     OW 1921   1.878   0.304   1.429  0.1054  0.5626  0.3601
  641SOL    HW1 1922   1.824   0.391   1.469  0.0316  2.2201  1.6990
  641SOL    HW2 1923   1.889   0.229   1.497 -1.3696  2.1896  0.1621
  642SOL     OW 1924   1.980   0.116   0.336 -0.0396 -0.5202 -0.7286
  642SOL    HW1 1925   2.077   0.080   0.357 -0.6382 -1.6646 -1.8654
  642SOL    HW2 1926   1.937   0.159   0.416 -1.5794 -1.0997 -0.1370
  643SOL     OW 1927   2.844   1.887   2.107  0.2174  0.1448 -0.1698
  643SOL    HW1 1928   2.778   1.829   2.056 -0.1739  1.1015  0.0127
  643SOL    HW2 1929   2.847   1.979   2.058 -0.4503 -0.6827 -3.0960
  644SOL     OW 1930   2.223   2.308   1.173 -0.4801 -0.7378 -1.0577
  644SOL    HW1 1931   2.293   2.243   1.135 -1.7074 -0.6210 -1.7360
  644SOL    HW2 1932   2.195   2.268   1.265  1.3234 -0.9138  1.4307
  645SOL     OW 1933   0.678   0.863   1.098  0.2155  0.3765  0.1747
  645SOL    HW1 1934   0.587   0.833   1.135  2.6808  1.8615  2.7681
  645SOL    HW2 1935   0.686   0.962   1.073 -3.2654 -2.5837 -0.6478
  646SOL     OW 1936   1.446   1.908   1.789  0.1157  0.1386 -0.8137
  646SOL    HW1 1937   1.531   1.969   1.784  2.4326  3.4289 -0.1258
  646SOL    HW2 1938   1.392   1.948   1.865  1.5080  2.4165 -0.1409
  647SOL     OW 1939   0.877   0.890   0.668 -0.0245 -0.2806 -0.1031
  647SOL    HW1 1940   0.929   0.871   0.755 -0.5856 -1.4348  3.6332
  647SOL    HW2 1941   0.779   0.859   0.677  0.7483 -2.2251  0.6220
  648SOL     OW 1942   0.029   0.230   0.331  0.1371  0.3638  0.5525
  648SOL    HW1 1943   0.009   0.150   0.262  0.7986 -1.9963 -2.0693
  648SOL    HW2 1944   0.025   0.321   0.282 -0.5128 -0.7196  0.4732
  649SOL     OW 1945   0.044   0.052   0.996  0.4905  0.1653  0.6505
  649SOL    HW1 1946   0.133   0.006   0.973 -0.9563 -1.0698 -1.4950
  649SOL    HW2 1947   0.045   0.105   1.083 -0.2774 -1.2711 -1.5430
  650SOL     OW 1948   2.738   0.714   1.454 -0.3168 -0.4749 -0.0648
  650SOL    HW1 1949   2.640   0.713   1.485  2.3626  1.4373  0.7157
  650SOL    HW2 1950   2.762   0.781   1.380  0.1616  0.0212  2.8147
  651SOL     OW 1951   0.894   1.588   1.468  0.4791 -0.4138 -0.2817
  651SOL    HW1 1952   0.964   1.638   1.524  0.9209 -1.3343  5.2735
  651SOL    HW2 1953   0.827   1.658   1.426  1.4956  0.3828  0.3426
  652SOL     OW 1954   2.264   2.514   2.356 -0.3190  0.3171  0.5375
  652SOL    HW1 1955   2.190   2.502   2.425  2.0519 -0.2296 -3.2310
  652SOL    HW2 1956   2.262   2.599   2.297 -0.0027  1.9239 -0.0320
  653SOL     OW 1957   2.799   1.126   0.202 -0.2866 -0.3541  0.2386
  653SOL    HW1 1958   2.863   1.203   0.211 -1.7717  1.2727 -3.9426
  653SOL    HW2 1959   2.818   1.045   0.269 -0.7041  1.8449  0.5530
  654SOL     OW 1960   1.211   2.222   1.203 -0.0181  0.4785  0.1784
  654SOL    HW1 1961   1.222   2.142   1.267  0.6762 -0.5442 -1.5572
  654SOL    HW2 1962   1.284   2.214   1.129  0.6690 -2.2829  1.0297
  655SOL     OW 1963   0.212   1.046   1.916  0.2827 -0.0652  0.0141
  655SOL    HW1 1964   0.230   0.968   1.856 -1.2294  1.9051  2.0159
  655SOL    HW2 1965   0.295   1.111   1.922 -0.1710 -3.4166 -1.3879
  656SOL     OW 1966   2.444   2.428   2.554 -0.5925  0.7692 -0.6516
  656SOL    HW1 1967   2.540   2.455   2.522  1.7208  4.5526  1.1710
  656SOL    HW2 1968   2.379   2.466   2.483 -0.6247 -0.8731 -3.9982
  657SOL     OW 1969   3.062   1.100   1.869 -0.2392 -0.0142 -0.4890
  657SOL    HW1 1970   3.031   1.201   1.868  0.4242  1.2550 -2.0707
  657SOL    HW2 1971   3.165   1.093   1.896 -0.8324  0.7154 -0.0072
  658SOL     OW 1972   1.726   0.243   2.396  0.2921  0.1186  0.2585
  658SOL    HW1 1973   1.707   0.159   2.445 -1.2583 -2.6033 -0.6178
  658SOL    HW2 1974   1.758   0.222   2.297  1.5443 -2.2248  1.8797
  659SOL     OW 1975   1.420   0.616   2.807  0.4111 -0.5233 -0.5072
  659SOL    HW1 1976   1.505   0.666   2.837 -0.6678 -0.1818  2.2708
  659SOL    HW2 1977   1.348   0.686   2.776  0.8699  3.0910  0.8140
  660SOL     OW 1978   1.361   0.394   1.442 -0.1056 -0.0793 -0.4930
  660SOL    HW1 1979   1.415   0.434   1.523 -1.0680  2.8941 -0.7392
  660SOL    HW2 1980   1.418   0.350   1.372 -1.4310  2.6570  1.1063
  661SOL     OW 1981   2.433   1.139   0.640 -0.1466  0.3286 -0.5304
  661SOL    HW1 1982   2.480   1.047   0.625  2.2923  0.8978  0.0170
  661SOL    HW2 1983   2.358   1.156   0.567 -3.3294 -1.2281 -0.7965
  662SOL     OW 1984   1.286   0.430   1.860  0.1667  0.0143  0.2554
  662SOL    HW1 1985   1.221   0.345   1.862 -0.3512  2.7668  4.7652
  662SOL    HW2 1986   1.279   0.477   1.955 -0.3063 -1.9393  1.0364
  663SOL     OW 1987   0.831   1.583   2.217  0.1967 -0.1270  0.3560
  663SOL    HW1 1988   0.800   1.679   2.231  3.1019 -4.5884  1.6651
  663SOL    HW2 1989   0.783   1.540   2.140  1.2648  0.6958  1.3963
  664SOL     OW 1990   1.609   2.079   1.413 -0.1861  0.2142  0.2711
  664SOL    HW1 1991   1.525   2.027   1.447 -2.8326  0.0272  0.8329
  664SOL    HW2 1992   1.697   2.035   1.440 -2.0173  0.4170  3.1563
  665SOL     OW 1993   2.246   0.598   1.972 -0.8385  0.2486 -0.4499
  665SOL    HW1 1994   2.304   0.519   2.010 -1.3815 -2.1864 -0.2521
  665SOL    HW2 1995   2.199   0.642   2.055 -0.2229  0.7039  2.6214
  666SOL     OW 1996   0.530   2.246   0.459  0.6850 -0.7346 -0.1348
  666SOL    HW1 1997   0.557   2.347   0.465 -1.2619  2.4011 -1.7159
  666SOL    HW2 1998   0.488   2.216   0.548  1.1767 -2.0134 -2.4846
  667SOL     OW 1999   2.075   0.228   0.986 -0.1895 -0.0615  0.2285
  667SOL    HW1 2000   2.152   0.296   0.992 -2.8240 -2.3048 -0.1851
  667SOL    HW2 2001   2.008   0.244   1.065  0.1915  2.3369  2.1222
  668SOL     OW 2002   2.076   0.612   1.260 -0.2186 -0.5081 -0.8696
  668SOL    HW1 2003   2.099   0.564   1.173  1.7594 -1.5662  2.5549
  668SOL    HW2 2004   2.112   0.562   1.343 -0.4501  0.0210  0.8462
  669SOL     OW 2005   3.026   2.241   0.974 -0.0997  0.5215  0.2351
  669SOL    HW1 2006   2.954   2.222   0.903 -2.2345 -0.2035 -0.1954
  669SOL    HW2 2007   3.002   2.235   1.072  0.0395  0.2710 -1.0600
  670SOL     OW 2008   2.817   2.374   2.017 -0.0854  0.0210  0.3120
  670SOL    HW1 2009   2.754   2.354   2.095  0.1683  1.8533 -0.9537
  670SOL    HW2 2010   2.797   2.464   1.967  2.2913  1.3645 -1.4637
  671SOL     OW 2011   1.685   1.771   1.452  0.3187  0.2528  0.1706
  671SOL    HW1 2012   1.704   1.773   1.348 -3.3158 -2.4867  2.9471
  671SOL    HW2 2013   1.581   1.769   1.464 -0.3966  0.1093 -0.2527
  672SOL     OW 2014   0.409   0.662   2.430  0.4821 -0.0976 -0.2734
  672SOL    HW1 2015   0.438   0.673   2.335 -2.0811 -3.0281 -0.3800
  672SOL    HW2 2016   0.322   0.718   2.439  0.2987 -3.1542  0.1603
  673SOL     OW 2017   0.125   1.249   1.107 -0.0885 -0.2192  0.5923
  673SOL    HW1 2018   0.143   1.329   1.165  0.8042 -1.0558  0.8216
  673SOL    HW2 2019   0.215   1.201   1.081  0.3353 -2.0021  0.1955
  674SOL     OW 2020   1.598   2.953   0.148  0.0064 -0.2052 -0.0866
  674SOL    HW1 2021   1.605   3.055   0.126 -1.7339  2.3567 -0.8868
  674SOL    HW2 2022   1.655   2.892   0.085 -0.7264 -0.3041  0.2520
  675SOL     OW 2023   1.701   0.880   2.362 -0.5767  0.3006  0.4624
  675SOL    HW1 2024   1.807   0.873   2.352 -0.7244 -1.8337 -0.6290
  675SOL    HW2 2025   1.656   0.817   2.293  0.3073 -0.0858 -0.3700
  676SOL     OW 2026   2.545   1.485   1.985  0.1419 -0.0032 -0.1372
  676SOL    HW1 2027   2.502   1.451   1.898  0.4208  3.6459 -0.6483
  676SOL    HW2 2028   2.574   1.409   2.049 -1.7237 -1.0850  0.5556
  677SOL     OW 2029   1.945   0.535   0.943 -0.0947 -0.3643  0.3485
  677SOL    HW1 2030   1.909   0.637   0.957 -0.2227  3.6730  0.8406
  677SOL    HW2 2031   1.925   0.472   1.022  1.1931 -2.7037 -1.6181
  678SOL     OW 2032   0.067   0.732   1.692 -0.0478 -0.3944  0.1514
  678SOL    HW1 2033   0.161   0.766   1.713 -1.0940 -0.3426  0.5015
  678SOL    HW2 2034  -0.002   0.752   1.766  0.9631 -1.7018 -0.0455
  679SOL     OW 2035   2.486   1.158   1.152  0.5906 -0.4938  0.0874
  679SOL    HW1 2036   2.384   1.167   1.165 -1.0897  0.0270  0.3049
  679SOL    HW2 2037   2.516   1.067   1.108 -0.3087 -0.8816 -1.4082
  680SOL     OW 2038   2.856   0.629   1.692 -0.1702 -0.1518  0.0601
  680SOL    HW1 2039   2.833   0.650   1.588  0.2030  1.8083 -2.8197
  680SOL    HW2 2040   2.884   0.712   1.750  1.9678  0.0569  1.8635
  681SOL     OW 2041   3.058   0.177   1.630 -0.1849  0.9227  0.4699
  681SOL    HW1 2042   3.101   0.133   1.547 -0.9143 -1.7219  0.7958
  681SOL    HW2 2043   3.018   0.270   1.613  0.6593 -1.5411  0.0685
  682SOL     OW 2044   0.730   3.069   1.360  0.0667 -0.0944  0.2214
  682SOL    HW1 2045   0.661   3.008   1.414  0.7894 -0.3085  3.3125
  682SOL    HW2 2046   0.722   3.043   1.260  0.9662 -0.8574 -2.1909
  683SOL     OW 2047   1.424   0.221   2.220  0.0421  0.5212 -0.1798
  683SOL    HW1 2048   1.422   0.315   2.262 -1.0176  1.3358 -2.1716
  683SOL    HW2 2049   1.488   0.218   2.135  0.7232 -0.5165 -3.0801
  684SOL     OW 2050   1.453   2.143   0.479 -0.4913 -0.1750 -0.1964
  684SOL    HW1 2051   1.502   2.102   0.562 -0.5040  0.7447 -0.2016
  684SOL    HW2 2052   1.359   2.100   0.468  0.5830 -1.3773 -2.0074
  685SOL     OW 2053   2.133   1.927   2.019  0.1366  0.1740 -0.0747
  685SOL    HW1 2054   2.200   2.003   1.995 -0.1318 -0.0870  1.0374
  685SOL    HW2 2055   2.175   1.849   2.072  0.1817  1.5781  0.9756
  686SOL     OW 2056   1.496   1.695   2.729 -0.6653 -0.3897 -0.0391
  686SOL    HW1 2057   1.475   1.595   2.720  4.5214  0.0344 -2.5314
  686SOL    HW2 2058   1.495   1.725   2.830 -1.1357 -2.8423 -2.5475
  687SOL     OW 2059   1.323   2.494   1.924  0.4457  0.2251  0.3665
  687SOL    HW1 2060   1.369   2.431   1.855 -0.5863  0.4825 -3.3136
  687SOL    HW2 2061   1.380   2.531   1.999 -2.6596 -2.5426  2.2370
  688SOL     OW 2062   2.051   1.504   1.573  0.3722 -0.5840 -0.2558
  688SOL    HW1 2063   2.151   1.520   1.559 -0.5321 -0.4073 -0.2791
  688SOL    HW2 2064   2.005   1.452   1.498  3.4830 -0.4950 -2.0212
  689SOL     OW 2065   2.453   1.083   2.747 -0.3799  0.5191 -0.2278
  689SOL    HW1 2066   2.364   1.064   2.798  0.1353 -2.4513  0.3766
  689SOL    HW2 2067   2.530   1.047   2.810 -2.6245  2.6617 -0.0263
  690SOL     OW 2068   2.246   2.795   3.035 -0.4307  0.2622  0.5512
  690SOL    HW1 2069   2.158   2.760   2.994  2.1248 -3.8423  0.8949
  690SOL    HW2 2070   2.234   2.843   3.132  2.6751  1.2830  1.1085
  691SOL     OW 2071   2.593   0.455   2.133  0.1172  0.2355  0.4802
  691SOL    HW1 2072   2.672   0.408   2.086  0.4499  0.6000 -0.4547
  691SOL    HW2 2073   2.592   0.558   2.116 -0.6827  1.0790 -1.2996
  692SOL     OW 2074   2.719   1.201   0.674 -0.1579 -0.6551  0.7151
  692SOL    HW1 2075   2.625   1.219   0.631 -2.2390 -1.7140 -0.7254
  692SOL    HW2 2076   2.739   1.271   0.749 -0.1088 -0.7928 -2.9655
  693SOL     OW 2077   2.832   2.922   0.644  0.4711 -0.3570  0.3235
  693SOL    HW1 2078   2.845   2.995   0.718  1.2540  0.6420 -2.1436
  693SOL    HW2 2079   2.799   2.961   0.551 -0.0354  0.5228 -1.4335
  694SOL     OW 2080   2.412   2.191   0.063  0.3989  0.5202  0.5645
  694SOL    HW1 2081   2.393   2.285   0.098 -0.2653 -1.3874 -0.3406
  694SOL    HW2 2082   2.329   2.132   0.030 -2.6055  1.0266 -4.7996
  695SOL     OW 2083   0.545   2.927   1.499 -0.2421  0.4372  0.6573
  695SOL    HW1 2084   0.486   2.846   1.477 -0.0260  0.3871 -0.4540
  695SOL    HW2 2085   0.501   2.983   1.581 -0.4048 -0.2164  3.1313
  696SOL     OW 2086   2.716   2.001   0.657 -0.3922  0.6095  0.1267
  696SOL    HW1 2087   2.786   1.927   0.678  0.1874  0.6788  0.2809
  696SOL    HW2 2088   2.659   1.969   0.573 -0.5606 -1.4960 -1.0656
  697SOL     OW 2089   1.692   2.059   1.760 -0.2578  0.2781  0.2996
  697SOL    HW1 2090   1.751   2.013   1.834 -0.7234 -0.3324 -1.4968
  697SOL    HW2 2091   1.737   2.057   1.668  0.0229  0.6460  0.2149
  698SOL     OW 2092   2.935   0.347   2.799 -0.2092  0.1306  0.4499
  698SOL    HW1 2093   2.921   0.327   2.696 -3.0684  2.8075 -0.7425
  698SOL    HW2 2094   3.023   0.325   2.839 -2.9173  2.3735  0.5564
  699SOL     OW 2095   1.547   0.110   2.925  0.1578  0.0552  0.2862
  699SOL    HW1 2096   1.492   0.024   2.893  0.2167 -0.2075 -0.2508
  699SOL    HW2 2097   1.584   0.171   2.849  2.0620 -0.2390  0.4002
  700SOL     OW 2098   0.981   2.449   1.349 -0.6362  0.3329  0.1880
  700SOL    HW1 2099   1.069   2.394   1.334  1.4541  0.5560  1.4628
  700SOL    HW2 2100   0.892   2.417   1.301  2.1110 -0.7088  0.0283
  701SOL     OW 2101   1.827   2.845   3.081  0.2954 -0.3727 -0.1685
  701SOL    HW1 2102   1.866   2.772   3.147 -0.2306 -1.4804  0.2062
  701SOL    HW2 2103   1.849   2.940   3.112 -0.2936 -1.1741  0.5447
  702SOL     OW 2104   2.109   1.362   1.799  0.1447  0.1638 -0.1568
  702SOL    HW1 2105   2.189   1.294   1.784  1.7050 -1.8645  0.6762
  702SOL    HW2 2106   2.069   1.400   1.712  1.6610  2.6563  3.3080
  703SOL     OW 2107   1.979   0.896   1.466  0.7564 -0.2537  0.0230
  703SOL    HW1 2108   1.982   0.813   1.535 -0.1760 -1.4524  1.0635
  703SOL    HW2 2109   2.026   0.984   1.498 -2.8683  0.5522  1.1501
  704SOL     OW 2110   0.287   2.049   1.762  0.4776 -0.2465 -0.5864
  704SOL    HW1 2111   0.336   1.993   1.836 -0.1900 -3.8152 -1.8923
  704SOL    HW2 2112   0.350   2.122   1.737 -1.0401  0.0053  0.3444
  705SOL     OW 2113   2.535   1.423   0.876 -0.5030  0.5066 -0.0234
  705SOL    HW1 2114   2.451   1.367   0.898  0.2795 -1.1076  2.3856
  705SOL    HW2 2115   2.626   1.396   0.918 -0.6247 -0.8401 -2.1752
  706SOL     OW 2116   0.622   1.774   1.859  0.3138 -0.1828  0.1189
  706SOL    HW1 2117   0.614   1.674   1.875 -1.8062  1.1659 -2.2664
  706SOL    HW2 2118   0.716   1.807   1.893  0.9503  0.4752 -0.1764
  707SOL     OW 2119   2.349   1.206   1.762  0.2190 -0.3330 -0.8955
  707SOL    HW1 2120   2.443   1.224   1.797 -3.1241  0.0520  1.4358
  707SOL    HW2 2121   2.328   1.104   1.761  0.8690  2.3814 -0.5306
  708SOL     OW 2122   3.024   0.522   3.068 -0.6075  0.4200  0.1401
  708SOL    HW1 2123   3.037   0.564   2.969  0.1332  1.8649 -0.8446
  708SOL    HW2 2124   3.046   0.417   3.062  0.5709 -3.9403  0.9125
  709SOL     OW 2125   1.757   1.834   0.221 -0.1972  0.1177 -0.0351
  709SOL    HW1 2126   1.812   1.911   0.268 -0.6812  2.6726 -2.3424
  709SOL    HW2 2127   1.802   1.809   0.136 -0.0367  0.3362  0.0592
  710SOL     OW 2128   1.747   1.681   2.442 -0.4512 -0.1215  0.0284
  710SOL    HW1 2129   1.813   1.640   2.373  2.9940  0.8832  2.8986
  710SOL    HW2 2130   1.783   1.658   2.538  3.4660  1.2862 -2.4695
  711SOL     OW 2131   2.614   2.903   0.976 -0.2189 -0.9053  0.1410
  711SOL    HW1 2132   2.609   3.008   0.955 -0.7476 -1.8333 -1.3353
  711SOL    HW2 2133   2.678   2.878   1.054  0.2933  0.6965 -0.4257
  712SOL     OW 2134   1.513   2.312   1.761 -0.0938 -0.4388  0.3614
  712SOL    HW1 2135   1.579   2.233   1.764 -3.1514 -0.0434 -0.6513
  712SOL    HW2 2136   1.426   2.291   1.707 -0.1494 -0.6949  0.8812
  713SOL     OW 2137   2.835   1.313   2.516 -0.1323 -0.0188  0.2052
  713SOL    HW1 2138   2.847   1.226   2.453  2.3974  0.1248 -1.1900
  713SOL    HW2 2139   2.810   1.288   2.614 -0.4245 -0.4505 -1.3683
  714SOL     OW 2140   2.656   0.431   2.448 -0.4291 -0.0107 -0.3541
  714SOL    HW1 2141   2.578   0.390   2.503 -1.5842  0.9493  0.7371
  714SOL    HW2 2142   2.634   0.446   2.347 -0.4666 -0.7427 -1.0390
  715SOL     OW 2143   1.633   2.085   1.112 -0.6019  0.8384  0.1078
  715SOL    HW1 2144   1.591   2.178   1.096  0.2949 -0.9119 -1.7387
  715SOL    HW2 2145   1.662   2.085   1.214 -0.5287  2.9230  0.9664
  716SOL     OW 2146   1.182   0.174   1.454 -0.4192 -0.8988  0.1030
  716SOL    HW1 2147   1.077   0.188   1.439 -3.2917  1.5204 -2.1625
  716SOL    HW2 2148   1.234   0.262   1.471  2.0312 -1.1172  1.9041
  717SOL     OW 2149   1.053   0.523   1.606  0.5243 -0.2827 -0.0412
  717SOL    HW1 2150   1.152   0.536   1.619 -1.5818 -1.2640  2.2218
  717SOL    HW2 2151   1.033   0.544   1.505  2.5837 -0.9675  0.8565
  718SOL     OW 2152   0.646   1.127   1.023 -0.2427  0.7409  0.4301
  718SOL    HW1 2153   0.649   1.146   0.922 -0.9164  1.9915 -0.5767
  718SOL    HW2 2154   0.697   1.198   1.077  1.8598 -1.4660  1.1364
  719SOL     OW 2155   0.705   1.806   2.268  0.3775  0.7077  0.3558
  719SOL    HW1 2156   0.784   1.835   2.332 -2.6413  0.2918  1.6432
  719SOL    HW2 2157   0.621   1.850   2.292  1.4997  0.9375  1.2082
  720SOL     OW 2158   2.272   1.163   0.222  0.3382 -0.4340  0.6767
  720SOL    HW1 2159   2.348   1.094   0.235  0.0913 -2.2692 -1.7038
  720SOL    HW2 2160   2.220   1.170   0.311 -1.3376  1.9109 -0.1843
  721SOL     OW 2161   2.267   3.091   2.016  1.0611  0.0240  0.2380
  721SOL    HW1 2162   2.272   3.178   1.954  2.0280  1.0391  0.0259
  721SOL    HW2 2163   2.176   3.078   2.066 -1.3680 -0.1127 -2.0000
  722SOL     OW 2164   2.431   1.702   0.495 -0.1277 -0.1865  0.2105
  722SOL    HW1 2165   2.442   1.642   0.409  2.5521  2.5168 -1.1989
  722SOL    HW2 2166   2.336   1.701   0.536  0.0935 -0.6503 -2.8508
  723SOL     OW 2167   2.611   2.875   1.905 -0.2492  0.1308 -0.3324
  723SOL    HW1 2168   2.643   2.896   2.003  0.6688  0.5924  1.8141
  723SOL    HW2 2169   2.506   2.880   1.889  0.4535  0.9048 -0.9747
  724SOL     OW 2170   0.306   2.409   2.333 -0.1399 -0.2598 -0.2650
  724SOL    HW1 2171   0.209   2.446   2.338  1.3628  0.3464  0.8838
  724SOL    HW2 2172   0.349   2.411   2.432 -0.2815  2.9315  2.0145
  725SOL     OW 2173   2.322   2.798   1.465  0.4040  0.0655  0.0897
  725SOL    HW1 2174   2.394   2.793   1.392 -2.2497  0.3773  3.8894
  725SOL    HW2 2175   2.305   2.704   1.509  1.1416  2.1896 -1.8582
  726SOL     OW 2176   2.382   2.243   0.775 -0.3478 -0.0170 -0.7495
  726SOL    HW1 2177   2.389   2.346   0.781  0.6851  2.0481 -1.9560
  726SOL    HW2 2178   2.355   2.214   0.677 -3.2900  0.9720 -0.2921
  727SOL     OW 2179   0.225   0.004   0.146 -0.5021  0.0457 -0.0698
  727SOL    HW1 2180   0.265  -0.053   0.069 -0.0255 -1.1091 -0.5506
  727SOL    HW2 2181   0.276   0.095   0.148  0.4611  0.9056 -1.1476
  728SOL     OW 2182   2.803   0.673   1.069 -0.6338 -0.1841 -0.3258
  728SOL    HW1 2183   2.737   0.650   0.995  0.1119  2.7887 -1.1481
  728SOL    HW2 2184   2.803   0.603   1.148  0.4722 -1.0600 -0.4731
  729SOL     OW 2185   2.990   2.473   0.707  0.3593  0.0374 -0.1975
  729SOL    HW1 2186   2.940   2.386   0.710  1.7088  3.5343 -2.5330
  729SOL    HW2 2187   3.095   2.460   0.720 -1.4794 -1.1423  0.4596
  730SOL     OW 2188   2.622   0.580   0.848  0.0875 -0.1577  0.2993
  730SOL    HW1 2189   2.581   0.669   0.807 -0.7027 -0.1123  1.3831
  730SOL    HW2 2190   2.700   0.531   0.789  0.9685  1.2445  0.8305
  731SOL     OW 2191   0.160   2.136   2.489  0.5733  0.8923  0.3910
  731SOL    HW1 2192   0.136   2.156   2.587  1.0151 -1.2933  1.0893
  731SOL    HW2 2193   0.220   2.214   2.444  3.4324  1.2113  0.1974
  732SOL     OW 2194   1.138   2.838   2.022 -0.2602 -0.0574  0.2580
  732SOL    HW1 2195   1.159   2.783   2.107 -2.7706 -0.5277  1.2320
  732SOL    HW2 2196   1.176   2.796   1.934  1.6873 -0.7572  0.2891
  733SOL     OW 2197   3.022   0.680   2.132 -0.0446 -0.2534 -0.3762
  733SOL    HW1 2198   3.120   0.714   2.124  1.2418 -0.5660 -1.0757
  733SOL    HW2 2199   3.010   0.604   2.062  0.0003 -0.9312  0.5572
  734SOL     OW 2200   1.378   0.371   2.686  0.3386  0.3217  0.3466
  734SOL    HW1 2201   1.398   0.460   2.738 -0.9528 -1.5807 -1.2422
  734SOL    HW2 2202   1.302   0.309   2.722 -2.3072 -1.9497 -3.0645
  735SOL     OW 2203   2.799   2.643   2.281  0.1171  0.3991 -0.1425
  735SOL    HW1 2204   2.702   2.657   2.241 -0.3619  0.6712  1.4113
  735SOL    HW2 2205   2.871   2.636   2.209 -4.2726  0.7617 -0.5633
  736SOL     OW 2206   0.804   0.376   2.576 -0.0452 -0.1267 -0.6073
  736SOL    HW1 2207   0.759   0.469   2.569  0.4600 -1.6093 -1.4141
  736SOL    HW2 2208   0.823   0.331   2.488 -1.5795  0.3140 -0.0789
  737SOL     OW 2209   2.669   0.445   2.887  0.0927 -0.6891  0.5747
  737SOL    HW1 2210   2.643   0.438   2.986 -1.6477 -3.5564 -1.0264
  737SOL    HW2 2211   2.764   0.414   2.874 -0.0816  2.0334  1.5699
  738SOL     OW 2212   1.667   1.135   3.090 -0.2589 -0.0593  1.2553
  738SOL    HW1 2213   1.757   1.112   3.041 -2.6423  0.4484  0.6039
  738SOL    HW2 2214   1.622   1.060   3.149 -0.8661  0.3975  0.2751
  739SOL     OW 2215   1.812   0.538   0.695  0.2307  0.4789  0.0757
  739SOL    HW1 2216   1.874   0.539   0.782 -0.8029  1.7003  0.5598
  739SOL    HW2 2217   1.830   0.454   0.637 -0.6260 -1.6382 -0.5295
  740SOL     OW 2218   1.897   2.054   2.143  0.2392  0.8126  0.6390
  740SOL    HW1 2219   1.957   2.006   2.074  1.5431  0.5478  0.1340
  740SOL    HW2 2220   1.794   2.057   2.114 -0.6464 -0.9468 -0.7242
  741SOL     OW 2221   2.529   0.023   2.610  0.7658 -0.4664 -0.0642
  741SOL    HW1 2222   2.631   0.030   2.584 -0.3280  3.1399 -0.4880
  741SOL    HW2 2223   2.474  -0.009   2.527  0.6715  0.6294 -3.6967
  742SOL     OW 2224   2.264   1.405   0.089  0.0316  0.5234 -0.0924
  742SOL    HW1 2225   2.185   1.458   0.127 -0.3522  0.2913  1.0639
  742SOL    HW2 2226   2.260   1.308   0.131 -1.4669 -3.5542 -1.7328
  743SOL     OW 2227   1.758   0.651   2.649  0.1380  0.1708  0.1359
  743SOL    HW1 2228   1.763   0.616   2.552 -2.2296  1.2138  1.8913
  743SOL    HW2 2229   1.685   0.724   2.648 -0.3120  0.2609  0.6283
  744SOL     OW 2230   2.680   2.095   0.109 -0.4175  0.5595  0.5002
  744SOL    HW1 2231   2.593   2.151   0.090  1.6936  0.4074 -0.3027
  744SOL    HW2 2232   2.672   2.004   0.155  1.4362  2.9650 -1.3286
  745SOL     OW 2233   2.208   2.756   2.201  0.1510  0.5297  0.0292
  745SOL    HW1 2234   2.114   2.749   2.153 -0.1676  0.0738  0.1424
  745SOL    HW2 2235   2.200   2.791   2.296  1.2314 -3.3329 -3.4182
  746SOL     OW 2236   3.074   2.604   1.804 -0.1719  0.3334 -0.1150
  746SOL    HW1 2237   3.175   2.613   1.805  0.2505  0.5468 -1.2673
  746SOL    HW2 2238   3.024   2.682   1.847 -1.5162 -0.7459 -0.1483
  747SOL     OW 2239   0.019   1.782   1.683 -0.5322 -0.1163  0.2068
  747SOL    HW1 2240  -0.019   1.693   1.641 -0.6853 -1.8354  1.7297
  747SOL    HW2 2241   0.096   1.820   1.624  2.0858 -0.7813  1.1562
  748SOL     OW 2242   1.761   2.716   2.852  0.2098 -0.1132 -0.1932
  748SOL    HW1 2243   1.784   2.774   2.931  1.2190  0.9724 -2.0354
  748SOL    HW2 2244   1.659   2.702   2.835  1.1548 -1.4462 -0.4012
  749SOL     OW 2245   1.331   0.072   0.889  0.4821  0.0423 -0.0712
  749SOL    HW1 2246   1.300  -0.023   0.917  1.6574  1.6575 -1.3355
  749SOL    HW2 2247   1.331   0.088   0.785  1.4866 -0.3652 -0.5537
  750SOL     OW 2248   2.277   0.236   1.879 -0.1435 -0.4245  0.5212
  750SOL    HW1 2249   2.339   0.292   1.814  1.2074 -0.3800  0.5262
  750SOL    HW2 2250   2.274   0.278   1.978  2.7456 -2.2943  0.3490
  751SOL     OW 2251   0.860   2.258   2.916 -0.0376  0.0320  0.4052
  751SOL    HW1 2252   0.944   2.239   2.971  2.4503 -1.7350 -2.7581
  751SOL    HW2 2253   0.799   2.172   2.909 -0.3719 -2.6565  0.0969
  752SOL     OW 2254   1.249   0.885   1.498 -0.2491 -0.7266 -0.7479
  752SOL    HW1 2255   1.316   0.949   1.452  0.5680 -2.8618  0.7491
  752SOL    HW2 2256   1.299   0.807   1.542 -0.3908  1.2428  1.3815
  753SOL     OW 2257   0.901   2.602   1.748  0.0678 -0.5491 -0.2308
  753SOL    HW1 2258   0.987   2.649   1.715 -0.4852 -1.3096 -0.2864
  753SOL    HW2 2259   0.821   2.667   1.731  0.0222  0.6685  2.6039
  754SOL     OW 2260   1.137   1.325   3.043 -0.0146  0.1159 -0.0651
  754SOL    HW1 2261   1.163   1.250   2.969  2.8140 -1.2754  0.3258
  754SOL    HW2 2262   1.130   1.418   3.001  1.8389 -0.8155 -0.9109
  755SOL     OW 2263   2.029   0.521   2.262  0.2840  0.1785  0.2578
  755SOL    HW1 2264   2.098   0.458   2.307 -0.7255  1.5844 -1.3804
  755SOL    HW2 2265   1.943   0.532   2.320 -0.0975  0.0983  1.2287
  756SOL     OW 2266   2.640   0.966   2.927  0.1458 -0.0768  0.1569
  756SOL    HW1 2267   2.709   0.903   2.886  1.1366  0.9852  1.5016
  756SOL    HW2 2268   2.589   0.920   3.001 -0.6846 -0.2035 -1.0008
  757SOL     OW 2269   0.166   0.454   1.715  0.0714 -0.2787  0.0242
  757SOL    HW1 2270   0.102   0.538   1.703 -1.2115  0.5290 -1.1576
  757SOL    HW2 2271   0.237   0.448   1.642 -2.0208  0.6002  2.4924
  758SOL     OW 2272   2.479   0.067   1.498 -0.6315  0.0550  0.1293
  758SOL    HW1 2273   2.393   0.041   1.552 -0.1579  0.7105 -1.4815
  758SOL    HW2 2274   2.483   0.014   1.407 -2.1371 -0.2250 -1.0928
  759SOL     OW 2275   1.658   0.111   0.085  0.1770  0.8422 -0.6110
  759SOL    HW1 2276   1.631   0.112  -0.017 -1.9881  3.7557  1.5453
  759SOL    HW2 2277   1.760   0.098   0.105 -0.5657  0.3527  1.3103
  760SOL     OW 2278   2.742   1.959   2.757  0.3223  0.2514 -0.1998
  760SOL    HW1 2279   2.784   1.888   2.697  0.8085 -0.8553 -0.5895
  760SOL    HW2 2280   2.764   2.057   2.731 -0.8701  1.2056  2.4696
  761SOL     OW 2281   1.874   1.737   1.650 -0.7313 -0.0949  0.7483
  761SOL    HW1 2282   1.933   1.649   1.647 -0.4282  0.7553  0.1944
  761SOL    HW2 2283   1.795   1.737   1.579 -1.8141 -1.9986 -1.9997
  762SOL     OW 2284   0.510   2.395   0.989 -0.1850 -0.1304  0.6936
  762SOL    HW1 2285   0.513   2.425   0.888  0.5765 -2.2658 -2.9771
  762SOL    HW2 2286   0.540   2.463   1.058 -1.6376  0.6997 -2.2713
  763SOL     OW 2287   2.002   1.588   2.958  0.0827 -0.1008 -0.3210
  763SOL    HW1 2288   2.071   1.539   2.893  0.2393 -0.4486 -1.5196
  763SOL    HW2 2289   1.959   1.517   3.025 -0.2558  1.1232  3.4306
  764SOL     OW 2290   0.694   0.589   0.831  0.3335  0.1540 -0.2605
  764SOL    HW1 2291   0.697   0.562   0.731  0.1940  0.2105 -0.0154
  764SOL    HW2 2292   0.792   0.589   0.867 -0.0001 -3.0530 -1.7340
  765SOL     OW 2293   0.632   0.230   0.802 -0.1870 -0.1367 -0.5538
  765SOL    HW1 2294   0.709   0.284   0.759 -0.6327  1.0982  1.7729
  765SOL    HW2 2295   0.644   0.227   0.909 -0.5772 -0.8548  1.1563
  766SOL     OW 2296   3.009   1.962   2.970 -0.5174  0.0771 -0.9217
  766SOL    HW1 2297   2.932   1.981   2.899 -2.4796 -1.0284 -0.8276
  766SOL    HW2 2298   3.068   2.044   2.987 -1.5752  1.9560  0.0264
  767SOL     OW 2299   2.729   1.561   0.483 -0.3873 -0.4142  0.0506
  767SOL    HW1 2300   2.669   1.588   0.562 -2.0938  0.3279  0.2309
  767SOL    HW2 2301   2.825   1.603   0.493  0.6688  1.1365  0.7960
  768SOL     OW 2302   1.065   0.303   0.288  0.0662  0.4554  0.4330
  768SOL    HW1 2303   0.982   0.269   0.245  1.3498  1.1735 -0.6348
  768SOL    HW2 2304   1.142   0.234   0.288  0.9538 -0.6761  0.4103
  769SOL     OW 2305   1.344   1.790   2.242  0.6945 -0.6183 -0.4717
  769SOL    HW1 2306   1.432   1.742   2.278 -0.2218 -2.4856 -0.1717
  769SOL    HW2 2307   1.260   1.737   2.258  0.6627  1.0965 -0.6650
  770SOL     OW 2308   0.195   1.145   2.295 -0.2206  0.8049 -0.3719
  770SOL    HW1 2309   0.158   1.175   2.384  1.2453 -2.3252  0.4845
  770SOL    HW2 2310   0.124   1.157   2.218  0.4681 -2.6195  1.4246
  771SOL     OW 2311   2.961   2.839   1.892  0.0860  0.0142 -0.5861
  771SOL    HW1 2312   2.979   2.918   1.824 -0.5411 -0.2845 -1.3696
  771SOL    HW2 2313   2.976   2.860   1.995  1.1619  0.3977  3.6707
  772SOL     OW 2314   2.151   0.071   3.016  0.4065 -0.3441  0.3212
  772SOL    HW1 2315   2.219   0.038   2.946  0.4348  1.4888 -1.2429
  772SOL    HW2 2316   2.168   0.174   3.043  2.2705  3.1621 -0.9230
  773SOL     OW 2317   0.738   2.133   2.468  0.1314 -0.3043 -0.8003
  773SOL    HW1 2318   0.713   2.198   2.390 -2.9332  1.2195  1.7945
  773SOL    HW2 2319   0.653   2.104   2.522 -2.2705  0.2498  0.4853
  774SOL     OW 2320   1.969   0.011   2.666  0.2094 -0.2036 -0.2856
  774SOL    HW1 2321   2.007   0.086   2.732 -0.2109 -0.6046  1.1919
  774SOL    HW2 2322   1.996  -0.080   2.693  1.2909  1.1525  1.0491
  775SOL     OW 2323   2.496   2.906   2.335  0.1170 -0.3747 -0.0889
  775SOL    HW1 2324   2.449   2.997   2.340 -1.2173 -3.4611 -1.2839
  775SOL    HW2 2325   2.578   2.892   2.396 -2.6439 -0.8047  0.9680
  776SOL     OW 2326   0.018   1.159   0.253  0.3962  0.7109  0.0321
  776SOL    HW1 2327  -0.019   1.211   0.172 -0.6814 -0.4401  0.2236
  776SOL    HW2 2328  -0.011   1.196   0.344  1.9191  0.6459  1.4969
  777SOL     OW 2329   0.320   2.720   0.397 -0.0180  0.3852 -0.5549
  777SOL    HW1 2330   0.219   2.707   0.383 -0.2312  0.7585 -1.4611
  777SOL    HW2 2331   0.330   2.818   0.425  0.5413 -1.8421 -0.4726
  778SOL     OW 2332   1.307   1.999   0.167 -0.6143  0.2603 -0.5067
  778SOL    HW1 2333   1.264   2.014   0.262 -1.6539 -1.1178  0.9091
  778SOL    HW2 2334   1.344   2.086   0.120  2.4911  0.2684  0.9309
  779SOL     OW 2335   0.188   0.796   0.493  0.6717 -0.0173  0.0888
  779SOL    HW1 2336   0.111   0.725   0.483  2.0284 -0.9713 -0.7736
  779SOL    HW2 2337   0.174   0.866   0.571 -0.8111 -0.8740 -1.7433
  780SOL     OW 2338   0.063   0.313   2.364  0.6472  0.3495  0.1101
  780SOL    HW1 2339   0.044   0.410   2.393  3.8906  2.9626  3.6907
  780SOL    HW2 2340   0.158   0.296   2.325 -0.8404 -1.7000  0.3428
  781SOL     OW 2341   0.557   1.788   1.599 -0.1677  0.0511 -0.6367
  781SOL    HW1 2342   0.572   1.779   1.702 -0.1530  1.8687  2.4272
  781SOL    HW2 2343   0.474   1.734   1.571 -0.0867  0.3712 -0.5512
  782SOL     OW 2344   2.607   0.090   0.895 -0.2923  0.5928  0.1960
  782SOL    HW1 2345   2.555   0.094   0.801 -3.4190  0.3440  1.3855
  782SOL    HW2 2346   2.559   0.152   0.964 -1.3270 -1.5328 -1.3735
  783SOL     OW 2347   2.842   0.635   2.566  0.1587  0.0433  0.4400
  783SOL    HW1 2348   2.796   0.685   2.645 -0.1451  0.0411 -1.0635
  783SOL    HW2 2349   2.783   0.566   2.515 -1.0287 -0.7969 -1.9835
  784SOL     OW 2350   1.425   2.223   0.033 -0.3879  0.2208  0.5924
  784SOL    HW1 2351   1.524   2.234   0.043  0.6039 -0.3941 -0.0970
  784SOL    HW2 2352   1.393   2.213  -0.067  1.3787 -2.0433  1.7393
  785SOL     OW 2353   2.187   0.322   0.005 -0.1854  0.2768 -0.4525
  785SOL    HW1 2354   2.108   0.303   0.073  1.5851 -1.8054 -1.9051
  785SOL    HW2 2355   2.202   0.427  -0.020  1.1762 -0.2821  0.0323
  786SOL     OW 2356   2.104   2.201   2.249  0.1957  0.1744 -0.0197
  786SOL    HW1 2357   2.022   2.141   2.215 -0.3008 -1.6948 -1.5754
  786SOL    HW2 2358   2.179   2.138   2.294  1.4756  0.0122 -1.1815
  787SOL     OW 2359   1.353   0.632   0.718  0.1353 -0.2403  0.1628
  787SOL    HW1 2360   1.261   0.666   0.689  0.3707 -2.8040 -0.8837
  787SOL    HW2 2361   1.398   0.590   0.644 -3.5439  0.4800  3.1687
  788SOL     OW 2362   1.225   0.490   2.984 -0.0492 -0.1677 -0.2987
  788SOL    HW1 2363   1.167   0.456   2.911  1.9182  0.0964 -0.8188
  788SOL    HW2 2364   1.317   0.521   2.947  1.0520  1.4143 -0.0636
  789SOL     OW 2365   2.627   0.094   1.907 -0.2925  0.4975  0.3257
  789SOL    HW1 2366   2.530   0.093   1.931 -0.8053 -0.8471  1.5720
  789SOL    HW2 2367   2.673  -0.001   1.922 -0.5896  0.1048  1.0824
  790SOL     OW 2368   2.649   2.638   0.846  0.0097 -0.8695 -0.0765
  790SOL    HW1 2369   2.730   2.651   0.783 -0.1145 -1.8194  0.9000
  790SOL    HW2 2370   2.615   2.736   0.880  0.9780 -0.8239  1.2951
  791SOL     OW 2371   1.928   1.176   0.221 -0.2501  0.2572  0.2542
  791SOL    HW1 2372   1.835   1.143   0.258  2.9055 -0.7785  0.3655
  791SOL    HW2 2373   1.970   1.111   0.154  0.8296  1.0038 -2.3541
  792SOL     OW 2374   0.451   1.976   2.252  0.4960  0.2472 -0.0330
  792SOL    HW1 2375   0.481   2.076   2.232 -0.3778  1.8745 -0.6886
  792SOL    HW2 2376   0.363   1.973   2.311  0.5034 -0.8920 -1.2463
  793SOL     OW 2377   2.094   1.551   2.014  0.0486  0.4207 -0.1911
  793SOL    HW1 2378   2.173   1.597   2.053 -4.2194  1.2933 -0.1129
  793SOL    HW2 2379   2.102   1.501   1.921 -1.3450  0.8728 -0.9917
  794SOL     OW 2380   0.578   1.541   2.480  0.1068  0.1343  0.4247
  794SOL    HW1 2381   0.649   1.469   2.456 -2.2648  0.4805 -2.8205
  794SOL    HW2 2382   0.507   1.553   2.405 -0.4521  0.1472  0.5639
  795SOL     OW 2383   2.417   2.366   1.852 -0.5265  0.3658  0.1657
  795SOL    HW1 2384   2.354   2.419   1.918 -2.6929 -2.9243 -1.8025
  795SOL    HW2 2385   2.379   2.274   1.832  1.3122 -0.9961  1.1780
  796SOL     OW 2386   3.053   1.154   2.722 -0.1500  0.1289 -0.0188
  796SOL    HW1 2387   2.951   1.159   2.737 -0.1621  0.0554  1.9240
  796SOL    HW2 2388   3.107   1.167   2.812  0.1334 -0.4078 -0.7248
  797SOL     OW 2389   0.700   0.623   1.346  0.4497  0.8206  0.0995
  797SOL    HW1 2390   0.769   0.679   1.395 -2.5785  0.2349  0.9970
  797SOL    HW2 2391   0.648   0.661   1.268 -0.2146  0.6797 -1.0294
  798SOL     OW 2392   1.211   0.528   0.957 -0.2971  0.5780  0.9807
  798SOL    HW1 2393   1.195   0.615   1.007 -0.9371 -2.8420  0.7210
  798SOL    HW2 2394   1.257   0.539   0.866  0.9358 -2.3640  2.2129
  799SOL     OW 2395   1.788   2.709   1.054 -0.0225 -0.2864  0.2307
  799SOL    HW1 2396   1.767   2.624   1.107  2.5728  1.5008 -0.4997
  799SOL    HW2 2397   1.810   2.704   0.954 -3.4597  2.5677  1.5245
  800SOL     OW 2398   2.976   0.836   1.856 -0.6279  0.0413  0.1675
  800SOL    HW1 2399   2.988   0.936   1.857 -0.5073  0.3853 -0.8606
  800SOL    HW2 2400   2.963   0.796   1.948  0.9452 -1.4177  0.8022
  801SOL     OW 2401   2.003   2.239   0.109  0.2392  0.4328 -0.1388
  801SOL    HW1 2402   1.992   2.295   0.025  0.6139 -1.7903 -0.8566
  801SOL    HW2 2403   2.072   2.159   0.089  0.0136  0.1682 -0.3074
  802SOL     OW 2404   0.687   0.623   2.530  0.2988 -1.0208 -0.2926
  802SOL    HW1 2405   0.731   0.663   2.444 -0.2682  0.9135 -0.1676
  802SOL    HW2 2406   0.585   0.635   2.523 -0.7126  1.2183  0.6145
  803SOL     OW 2407   0.951   0.099   0.897 -0.0116 -0.1259  0.3701
  803SOL    HW1 2408   1.020   0.155   0.953 -1.1661 -3.2704 -0.0153
  803SOL    HW2 2409   0.910   0.158   0.822 -0.2977 -2.1009  2.6902
  804SOL     OW 2410   0.341   0.022   2.198  0.1338  0.1018  0.2552
  804SOL    HW1 2411   0.328   0.121   2.221  0.4035 -1.2251 -0.2384
  804SOL    HW2 2412   0.283  -0.004   2.120  1.3234 -1.6613  0.7815
  805SOL     OW 2413   2.391   0.338   0.319 -0.2350 -0.2255 -0.3748
  805SOL    HW1 2414   2.470   0.331   0.386  0.8880 -1.8441  0.8516
  805SOL    HW2 2415   2.415   0.281   0.235  0.1021 -3.5948 -1.4625
  806SOL     OW 2416   0.642   2.658   1.981  0.4970 -0.2406  0.5595
  806SOL    HW1 2417   0.555   2.715   1.991 -2.0195  0.6764 -2.5561
  806SOL    HW2 2418   0.716   2.709   1.931 -0.1190 -1.9693  0.3432
  807SOL     OW 2419   2.563   0.912   0.514  0.5674 -0.0885  0.2134
  807SOL    HW1 2420   2.657   0.860   0.511  0.7188  2.1619  0.7610
  807SOL    HW2 2421   2.528   0.945   0.424 -1.6792 -1.9060  1.4847
  808SOL     OW 2422   0.694   2.020   2.896 -0.4624  0.0147 -0.2556
  808SOL    HW1 2423   0.632   2.059   2.972  2.7084 -0.4474  0.4433
  808SOL    HW2 2424   0.708   1.918   2.910 -0.3355  0.9482 -3.2854
  809SOL     OW 2425   2.552   2.018   1.912 -0.0821  0.5189  0.2348
  809SOL    HW1 2426   2.646   2.042   1.946  1.7538  0.4795 -2.1988
  809SOL    HW2 2427   2.531   2.029   1.813 -0.8626  0.0099  1.7994
  810SOL     OW 2428   2.198   1.194   0.485  0.1220  0.5403  0.1164
  810SOL    HW1 2429   2.110   1.144   0.474 -1.8984 -0.1035 -0.2167
  810SOL    HW2 2430   2.192   1.285   0.537  1.9816  1.7998  1.9018
  811SOL     OW 2431   1.242   2.513   1.164 -0.1641 -0.2139 -0.0623
  811SOL    HW1 2432   1.232   2.412   1.190  0.8056 -4.2909  0.0811
  811SOL    HW2 2433   1.299   2.568   1.233  0.8733  2.1986  4.3895
  812SOL     OW 2434   1.462   0.750   1.998  0.2242 -0.4943 -0.0650
  812SOL    HW1 2435   1.401   0.808   2.059  1.7265  3.4004  3.2001
  812SOL    HW2 2436   1.510   0.800   1.921  1.0283 -1.5087 -0.8510
  813SOL     OW 2437   1.617   2.059   2.395 -0.2391  0.2826  0.1905
  813SOL    HW1 2438   1.718   2.053   2.423  0.6101 -1.8148  0.0395
  813SOL    HW2 2439   1.604   2.048   2.287  0.8246  1.9815 -0.6863
  814SOL     OW 2440   2.977   1.700   2.900 -0.2777 -0.3276 -0.2034
  814SOL    HW1 2441   3.027   1.625   2.950 -2.0198 -0.0206  2.6989
  814SOL    HW2 2442   2.996   1.797   2.936  0.3973  0.0739 -1.9826
  815SOL     OW 2443   2.154   2.880   2.731 -0.5235  0.1989  0.7356
  815SOL    HW1 2444   2.125   2.823   2.809  0.3296  1.9814 -0.8388
  815SOL    HW2 2445   2.248   2.925   2.749 -1.0829  0.7123  0.4138
  816SOL     OW 2446   1.507   0.428   1.678  1.1007  0.6526  0.2269
  816SOL    HW1 2447   1.560   0.341   1.669  0.9818  2.6149  0.7323
  816SOL    HW2 2448   1.433   0.434   1.754 -1.4039 -1.6482  0.7166
  817SOL     OW 2449   0.376   1.253   2.559  0.5436 -0.2422  0.3254
  817SOL    HW1 2450   0.275   1.265   2.534  3.0875 -0.3599  0.5434
  817SOL    HW2 2451   0.434   1.257   2.473 -2.3090 -1.8829 -0.9083
  818SOL     OW 2452   1.990   0.776   0.465 -0.0865 -0.0082  0.2539
  818SOL    HW1 2453   2.093   0.796   0.475 -2.0462 -2.7729  1.1275
  818SOL    HW2 2454   1.932   0.826   0.538 -0.6054  0.6667 -1.0014
  819SOL     OW 2455   2.823   2.889   3.016  1.0483 -0.0958  0.7111
  819SOL    HW1 2456   2.893   2.832   2.970 -0.0354 -2.7494 -3.8140
  819SOL    HW2 2457   2.729   2.882   2.964 -3.0073  1.5359 -2.8092
  820SOL     OW 2458   1.199   1.071   0.555  0.0888 -0.8348 -0.4677
  820SOL    HW1 2459   1.253   1.159   0.581 -2.6762 -1.9695 -0.3856
  820SOL    HW2 2460   1.181   1.011   0.642 -0.9792  2.1506 -1.9372
  821SOL     OW 2461   0.034   1.218   0.761  0.5265 -0.6840 -0.0267
  821SOL    HW1 2462  -0.027   1.228   0.846 -0.3003  1.8353  2.5350
  821SOL    HW2 2463   0.081   1.307   0.734 -0.9153 -1.0993  1.0238
  822SOL     OW 2464   2.567   1.772   2.451 -0.3341  0.0726 -0.0057
  822SOL    HW1 2465   2.524   1.820   2.530  0.1467 -2.0788 -0.1129
  822SOL    HW2 2466   2.498   1.741   2.378  1.6554  0.5132 -0.8487
  823SOL     OW 2467   2.008   0.899   1.201  0.2119 -0.2976  0.0109
  823SOL    HW1 2468   2.005   0.874   1.301 -0.9045  1.0115 -4.0416
  823SOL    HW2 2469   1.946   0.840   1.143  0.3898  1.7307 -1.5759
  824SOL     OW 2470   0.207   1.806   2.853 -0.2817 -0.2978  0.0041
  824SOL    HW1 2471   0.200   1.794   2.957  0.0146 -0.6944  1.5332
  824SOL    HW2 2472   0.277   1.879   2.829  1.0081 -1.0766 -1.4987
  825SOL     OW 2473   1.261   1.031   0.283 -0.3167  0.1576  0.1634
  825SOL    HW1 2474   1.241   1.121   0.243  1.2424 -0.9976 -0.4499
  825SOL    HW2 2475   1.226   1.022   0.382  0.3511 -1.0349  0.3639
  826SOL     OW 2476   1.979   0.674   1.612  0.2477 -0.1641  0.6012
  826SOL    HW1 2477   2.064   0.623   1.649  0.8426  2.9102  0.4939
  826SOL    HW2 2478   1.898   0.617   1.578 -0.3102  1.4258 -0.3263
  827SOL     OW 2479   0.729   1.209   0.505 -0.2850 -0.3142 -0.5182
  827SOL    HW1 2480   0.821   1.161   0.490  0.3796  2.1021 -0.7469
  827SOL    HW2 2481   0.648   1.142   0.513  1.6226 -0.1034  0.5394
  828SOL     OW 2482   2.735   0.160   1.645  0.1714 -0.1483  0.0832
  828SOL    HW1 2483   2.670   0.103   1.588  0.8549 -1.2787  1.0310
  828SOL    HW2 2484   2.705   0.164   1.742  0.2466  0.3744  0.7636
  829SOL     OW 2485   2.911   2.371   2.888  0.1980  0.1265  0.3644
  829SOL    HW1 2486   2.830   2.354   2.947 -0.8445  1.0955 -1.7972
  829SOL    HW2 2487   2.910   2.460   2.832 -0.9046 -1.8142 -1.4403
  830SOL     OW 2488   2.991   0.937   2.960  0.4330 -0.1452  0.0137
  830SOL    HW1 2489   3.012   1.034   2.989  2.7118  0.0465  0.2234
  830SOL    HW2 2490   2.956   0.872   3.032 -0.4326  1.5007  0.5909
  831SOL     OW 2491   3.091   0.575   0.444 -0.1526 -0.5117 -0.3694
  831SOL    HW1 2492   3.069   0.490   0.500 -2.1928 -0.2263 -0.8106
  831SOL    HW2 2493   3.105   0.545   0.345 -1.8208 -2.4487 -0.5172
  832SOL     OW 2494   1.793   0.709   0.042 -0.4248 -0.4906 -0.1218
  832SOL    HW1 2495   1.695   0.748   0.020 -0.0199  1.4353  0.3744
  832SOL    HW2 2496   1.806   0.606   0.026  0.0533 -3.9588  2.5881
  833SOL     OW 2497   2.364   2.127   0.521 -0.0944  0.1785 -0.6478
  833SOL    HW1 2498   2.268   2.090   0.519 -0.0009 -0.2819 -1.7303
  833SOL    HW2 2499   2.440   2.059   0.496 -0.4493 -2.5733 -0.7473
  834SOL     OW 2500   0.061   0.074   0.573 -0.4333 -0.1348 -0.0174
  834SOL    HW1 2501   0.130   0.005   0.548 -2.1336 -0.5005  1.6524
  834SOL    HW2 2502   0.036   0.137   0.495  2.5349  1.5123 -3.1944
  835SOL     OW 2503   2.513   1.708   1.099  0.6523  0.5003 -0.2770
  835SOL    HW1 2504   2.565   1.636   1.156  4.3926  0.1052  0.1246
  835SOL    HW2 2505   2.570   1.769   1.043 -0.8776 -0.2540  0.3836
  836SOL     OW 2506   1.562   0.866   2.589  0.3591  0.1561 -0.5424
  836SOL    HW1 2507   1.457   0.877   2.581 -0.9389  0.0756 -2.8295
  836SOL    HW2 2508   1.616   0.872   2.495  1.6658 -4.9024  0.6763
  837SOL     OW 2509   1.673   0.050   0.605  0.0848 -0.8078  0.8797
  837SOL    HW1 2510   1.667   0.149   0.640 -1.0068  0.4076  2.7525
  837SOL    HW2 2511   1.601   0.033   0.534 -0.7204 -1.8893  0.4445
  838SOL     OW 2512   1.197   1.414   2.682  0.6594 -0.8161 -0.4215
  838SOL    HW1 2513   1.184   1.507   2.726 -4.5282  0.4092 -0.9882
  838SOL    HW2 2514   1.110   1.371   2.649  0.9905 -1.2349  1.6972
  839SOL     OW 2515   1.647   0.397   0.970 -0.7090  0.1184  0.5649
  839SOL    HW1 2516   1.601   0.487   0.988 -3.0193 -1.7794 -1.2083
  839SOL    HW2 2517   1.580   0.321   0.980 -3.4757 -0.2105  2.3389
  840SOL     OW 2518   2.663   2.954   1.641  0.2428 -0.0843  0.1964
  840SOL    HW1 2519   2.589   3.012   1.594 -2.6939 -4.3575 -2.8249
  840SOL    HW2 2520   2.641   2.930   1.743 -1.8699  1.5709  1.4148
  841SOL     OW 2521   1.534   0.845   3.066 -0.3014  0.4440 -0.5448
  841SOL    HW1 2522   1.451   0.846   3.120  1.0953 -0.3245  1.3008
  841SOL    HW2 2523   1.535   0.892   2.976  2.4677 -1.0493  0.0651
  842SOL     OW 2524   0.804   1.617   1.026  0.1674 -0.3416  0.4980
  842SOL    HW1 2525   0.777   1.713   1.060  0.0882 -0.1573 -0.6173
  842SOL    HW2 2526   0.738   1.580   0.958  2.4528  0.3350 -2.1531
  843SOL     OW 2527   0.119   0.085   1.442  0.2717 -0.2416 -0.2313
  843SOL    HW1 2528   0.210   0.124   1.478  0.7979 -1.4249 -1.4372
  843SOL    HW2 2529   0.129  -0.009   1.398 -0.3042 -2.8383 -0.1160
  844SOL     OW 2530   0.732   2.446   0.205  0.7457  0.2322 -0.3157
  844SOL    HW1 2531   0.681   2.457   0.295  2.1453 -1.2774  0.1690
  844SOL    HW2 2532   0.666   2.426   0.128  0.6464 -2.4186  1.8048
  845SOL     OW 2533   1.733   0.014   1.302 -0.3307  0.0852  0.5551
  845SOL    HW1 2534   1.724  -0.004   1.402  0.0880 -0.6234  0.0806
  845SOL    HW2 2535   1.745   0.117   1.277  0.3517  2.7274  0.0451
  846SOL     OW 2536   1.695   3.004   0.888  0.3913 -0.2393  0.0406
  846SOL    HW1 2537   1.691   2.993   0.784  0.0042  1.5338  0.8304
  846SOL    HW2 2538   1.785   2.981   0.930 -1.9899  1.7649 -3.2468
  847SOL     OW 2539   2.072   1.568   0.192  0.1334 -0.3092  0.2862
  847SOL    HW1 2540   2.025   1.528   0.276  1.6563  0.0817 -1.5385
  847SOL    HW2 2541   2.003   1.586   0.115 -3.3965  0.9640 -1.0207
  848SOL     OW 2542   2.482   0.798   2.660 -0.3256 -0.1364  0.4273
  848SOL    HW1 2543   2.473   0.896   2.637  2.4969  1.1549  0.9847
  848SOL    HW2 2544   2.404   0.747   2.618 -0.0880 -1.2444  0.1745
  849SOL     OW 2545   2.353   0.835   2.286 -0.4505  0.0345  0.5961
  849SOL    HW1 2546   2.423   0.770   2.247  0.1404 -2.1718  1.0584
  849SOL    HW2 2547   2.303   0.799   2.366 -0.8705  2.1571 -3.7618
  850SOL     OW 2548   1.508   0.240   1.265  0.3154 -0.3612  0.3212
  850SOL    HW1 2549   1.542   0.200   1.172  1.0172 -4.2733 -0.2108
  850SOL    HW2 2550   1.475   0.164   1.327 -1.6044  0.0471 -0.0133
  851SOL     OW 2551   0.436   1.673   0.633 -0.4151  0.2195  0.5401
  851SOL    HW1 2552   0.435   1.747   0.702 -1.3219 -3.0885  2.3801
  851SOL    HW2 2553   0.534   1.650   0.613  0.0197  0.7244  0.1856
  852SOL     OW 2554   0.853   2.169   1.787  0.1970 -0.0330 -0.4345
  852SOL    HW1 2555   0.853   2.250   1.730  0.2928 -3.8302  2.5631
  852SOL    HW2 2556   0.773   2.161   1.853 -3.0194 -0.9838 -1.5039
  853SOL     OW 2557   2.527   1.502   2.594 -0.0766  0.1119  0.2271
  853SOL    HW1 2558   2.476   1.421   2.560  0.0411 -1.3923  0.3369
  853SOL    HW2 2559   2.584   1.544   2.524 -0.6524 -0.0285 -2.3477
  854SOL     OW 2560   2.428   1.474   1.740 -0.6475  0.0873 -0.5325
  854SOL    HW1 2561   2.489   1.510   1.665 -0.4790  3.1948 -0.1932
  854SOL    HW2 2562   2.388   1.384   1.709 -0.1481 -1.7998 -0.8830
  855SOL     OW 2563   2.054   2.351   0.963  0.5673  0.8133  0.1727
  855SOL    HW1 2564   2.094   2.436   0.922 -0.5796 -1.8150 -0.8979
  855SOL    HW2 2565   2.105   2.312   1.041  1.8437 -0.3109 -1.3558
  856SOL     OW 2566   1.417   1.449   0.824  0.2644 -0.3692 -0.1366
  856SOL    HW1 2567   1.459   1.542   0.854  2.1163 -1.0508 -2.0113
  856SOL    HW2 2568   1.372   1.391   0.895  0.0983  0.6834 -1.1914
  857SOL     OW 2569   2.924   2.529   1.063  0.3091  0.6273 -0.0358
  857SOL    HW1 2570   2.865   2.456   1.110 -2.4949  2.3987  0.6676
  857SOL    HW2 2571   2.948   2.508   0.962 -0.8752 -1.9913 -1.5019
  858SOL     OW 2572   2.296   2.120   1.776  0.1592 -0.3065 -0.1355
  858SOL    HW1 2573   2.196   2.124   1.743 -2.8265  1.2816  0.1028
  858SOL    HW2 2574   2.346   2.047   1.725  1.1748 -1.7106  1.1146
  859SOL     OW 2575   2.463   0.432   1.036  0.9566  0.5510 -0.0999
  859SOL    HW1 2576   2.541   0.467   0.984 -1.7820  2.1923  0.9059
  859SOL    HW2 2577   2.501   0.367   1.110  0.6072 -0.5007 -0.8361
  860SOL     OW 2578   1.879   2.785   0.532  0.8053  0.1001 -0.3686
  860SOL    HW1 2579   1.873   2.773   0.428 -0.1056  1.9101 -1.7863
  860SOL    HW2 2580   1.900   2.885   0.550 -1.2013 -0.1568  2.6568
  861SOL     OW 2581   0.987   2.593   2.826  0.0249  0.3139  0.7537
  861SOL    HW1 2582   1.076   2.647   2.819  0.3137  1.6849  0.1046
  861SOL    HW2 2583   0.964   2.547   2.914 -0.3450  0.1764  2.0151
  862SOL     OW 2584   2.958   2.546   1.572 -0.3993 -0.4672  0.7465
  862SOL    HW1 2585   3.007   2.571   1.659  0.4809 -2.9266  0.5245
  862SOL    HW2 2586   2.860   2.584   1.565 -0.3971  2.5539  0.8397
  863SOL     OW 2587   1.903   2.678   0.198  0.5040  0.9682 -0.9376
  863SOL    HW1 2588   1.983   2.613   0.193 -1.6902  0.5848 -0.3976
  863SOL    HW2 2589   1.805   2.639   0.219 -1.5120 -0.3084  2.1057
  864SOL     OW 2590   1.923   1.102   2.988  0.3805 -0.2611 -0.1307
  864SOL    HW1 2591   1.938   1.091   2.885 -0.2824 -0.4254 -1.9659
  864SOL    HW2 2592   2.005   1.091   3.051  0.1521 -0.4607 -1.2179
  865SOL     OW 2593   2.183   1.703   0.604  0.6677  0.0008  0.5574
  865SOL    HW1 2594   2.191   1.736   0.703 -0.1038  2.1717  1.4000
  865SOL    HW2 2595   2.151   1.604   0.610 -1.7612  2.5966 -0.8769
  866SOL     OW 2596   2.938   2.800   1.019  0.7044 -0.6764 -0.4667
  866SOL    HW1 2597   2.971   2.828   0.924 -1.7603 -2.4558 -1.6926
  866SOL    HW2 2598   2.913   2.699   1.025  1.1116  1.9126 -1.0026
  867SOL     OW 2599   0.395   1.367   0.832 -1.2668  0.8115  0.3297
  867SOL    HW1 2600   0.415   1.272   0.784  0.5496 -1.6144 -2.0488
  867SOL    HW2 2601   0.309   1.413   0.797 -0.2722  0.0029  1.3810
  868SOL     OW 2602   0.844   1.902   2.020 -0.2684  0.5170  0.1582
  868SOL    HW1 2603   0.795   1.869   2.103 -1.0344  1.7711 -0.6199
  868SOL    HW2 2604   0.797   1.987   1.994  0.2278 -4.1793 -0.1628
  869SOL     OW 2605   2.531   1.952   1.627 -0.6212  0.0799  0.0545
  869SOL    HW1 2606   2.628   1.907   1.635  1.0524  1.4002 -2.6333
  869SOL    HW2 2607   2.491   1.927   1.532  1.7895 -0.8605  1.5832
  870SOL     OW 2608   2.358   2.524   1.257 -0.1274  0.2845  0.6660
  870SOL    HW1 2609   2.299   2.440   1.235  2.0317 -1.4501  1.5919
  870SOL    HW2 2610   2.442   2.500   1.313 -3.5586  2.0081 -0.2713
  871SOL     OW 2611   2.993   1.996   0.527 -0.2089 -0.2226 -0.0298
  871SOL    HW1 2612   2.920   2.058   0.482 -0.7990  1.1935  0.6985
  871SOL    HW2 2613   2.998   1.903   0.480  1.0681  1.0767  0.7392
  872SOL     OW 2614   2.196   0.528   1.715 -0.1106  0.5578  0.5315
  872SOL    HW1 2615   2.192   0.577   1.801 -0.2253 -1.7806 -2.4231
  872SOL    HW2 2616   2.285   0.477   1.712  0.4670  0.9306  3.0612
  873SOL     OW 2617   1.687   2.100   2.877 -0.0830  0.5582  0.4252
  873SOL    HW1 2618   1.660   2.193   2.909  2.9123  3.1116  1.3733
  873SOL    HW2 2619   1.645   2.074   2.787 -2.4152 -2.8846  0.3245
  874SOL     OW 2620   0.588   2.502   0.755  0.0519 -0.4324 -0.1159
  874SOL    HW1 2621   0.571   2.604   0.773 -2.1074  1.0289 -1.3500
  874SOL    HW2 2622   0.686   2.468   0.759 -1.8400 -0.8273  0.3432
  875SOL     OW 2623   2.335   1.560   1.441 -0.0064  0.4431  0.0826
  875SOL    HW1 2624   2.424   1.615   1.455 -1.6864  0.2961 -1.4361
  875SOL    HW2 2625   2.281   1.606   1.369 -1.9540  2.8684  2.0219
  876SOL     OW 2626   0.158   2.253   2.742  0.3156  0.3654 -0.1708
  876SOL    HW1 2627   0.185   2.183   2.817 -0.2613 -0.7485  1.9406
  876SOL    HW2 2628   0.224   2.340   2.753  0.3373  3.6692  0.1387
  877SOL     OW 2629   2.815   2.658   0.613  0.3319 -0.6981  0.3140
  877SOL    HW1 2630   2.848   2.757   0.613  2.2514  0.4665 -1.2655
  877SOL    HW2 2631   2.878   2.583   0.659  2.1851 -4.0524  0.8331
  878SOL     OW 2632   2.742   1.497   2.338 -0.5355 -0.5031  0.9868
  878SOL    HW1 2633   2.740   1.599   2.345  0.2900  1.3101  1.9908
  878SOL    HW2 2634   2.811   1.447   2.397  1.5883 -4.2656 -1.6898
  879SOL     OW 2635   2.443   3.045   1.259  0.5290  0.2485 -0.4189
  879SOL    HW1 2636   2.483   2.953   1.244 -1.1477 -0.1899 -0.3462
  879SOL    HW2 2637   2.344   3.045   1.218  2.4516 -1.1535 -1.0015
  880SOL     OW 2638   0.595   0.497   2.217  0.6906  0.0730 -0.3884
  880SOL    HW1 2639   0.550   0.440   2.295 -2.3164  0.0442  0.3435
  880SOL    HW2 2640   0.591   0.444   2.128  3.1667  1.5093 -3.0261
  881SOL     OW 2641   0.873   0.079   0.462  0.5294 -0.1997 -0.1410
  881SOL    HW1 2642   0.921  -0.011   0.474 -0.5385  0.9155  0.1806
  881SOL    HW2 2643   0.869   0.110   0.364  2.0339 -0.1980 -0.6682
  882SOL     OW 2644   2.751   1.793   1.674  0.1985  0.1311  0.3052
  882SOL    HW1 2645   2.804   1.719   1.621  0.9765 -0.7474 -1.2341
  882SOL    HW2 2646   2.744   1.784   1.775 -2.4316 -0.3644 -2.0673
  883SOL     OW 2647   0.937   0.574   0.965 -0.1700 -0.5575 -0.2143
  883SOL    HW1 2648   0.918   0.656   1.028  1.9359  1.1630 -1.6144
  883SOL    HW2 2649   1.036   0.545   0.970  0.7450  0.3771 -1.4966
  884SOL     OW 2650   1.164   1.919   1.065 -0.1134 -0.2592 -0.0015
  884SOL    HW1 2651   1.159   1.886   0.965  0.1784 -1.4720 -1.7509
  884SOL    HW2 2652   1.082   1.979   1.086  1.6920  1.5072 -0.7630
  885SOL     OW 2653   2.319   1.789   2.304 -0.1704 -0.1292  0.0658
  885SOL    HW1 2654   2.265   1.731   2.370  1.0759 -0.7993 -4.9830
  885SOL    HW2 2655   2.293   1.891   2.313 -1.3227 -1.3496 -1.3835
  886SOL     OW 2656   2.680   0.459   1.810 -0.3546  0.1064 -0.0352
  886SOL    HW1 2657   2.740   0.399   1.877  2.0889 -1.2043  3.1142
  886SOL    HW2 2658   2.735   0.537   1.767 -2.1424  0.1005 -1.5736
  887SOL     OW 2659   0.201   2.050   1.295  0.0473 -0.4496 -0.3380
  887SOL    HW1 2660   0.131   1.996   1.241 -1.1881  0.4297 -1.3053
  887SOL    HW2 2661   0.203   2.151   1.274  0.4531 -1.2747 -2.9431
  888SOL     OW 2662   0.581   1.309   1.494 -0.0325  1.0257 -0.3559
  888SOL    HW1 2663   0.609   1.385   1.429 -2.0830  0.6460 -0.6668
  888SOL    HW2 2664   0.530   1.232   1.447 -0.7390 -3.8593  1.6620
  889SOL     OW 2665   0.835   2.403   2.137  0.1079  0.0822  0.3844
  889SOL    HW1 2666   0.755   2.364   2.089 -1.4632 -0.8813  1.5514
  889SOL    HW2 2667   0.913   2.423   2.070  1.0726  2.2844 -0.4553
  890SOL     OW 2668   2.324   2.423   0.191 -0.2091 -0.4712  0.4887
  890SOL    HW1 2669   2.353   2.492   0.118 -1.0371  4.7281  2.8743
  890SOL    HW2 2670   2.222   2.428   0.216  1.9166 -0.3823  2.1002
  891SOL     OW 2671   2.597   1.667   0.714  0.4949 -0.0037  0.1311
  891SOL    HW1 2672   2.571   1.586   0.777 -0.1138  0.3737 -0.6785
  891SOL    HW2 2673   2.529   1.689   0.637  1.9800  3.6818  0.3171
  892SOL     OW 2674   0.308   0.287   2.242 -0.1995  0.2669  0.3967
  892SOL    HW1 2675   0.287   0.353   2.165 -1.9273 -4.0107 -1.9552
  892SOL    HW2 2676   0.367   0.324   2.324 -1.0428 -2.6558  1.4712
  893SOL     OW 2677   1.624   0.241   2.685  0.2964  0.0894  0.6454
  893SOL    HW1 2678   1.707   0.282   2.725 -2.3468  1.5611  0.2251
  893SOL    HW2 2679   1.542   0.304   2.671 -0.0118  2.2420  0.2883
  894SOL     OW 2680   2.159   2.048   0.059 -0.1305  0.0171 -0.3135
  894SOL    HW1 2681   2.128   2.007  -0.029 -1.7645  3.2163  1.3835
  894SOL    HW2 2682   2.168   1.975   0.131  0.3623  1.6047 -1.2873
  895SOL     OW 2683   2.838   1.398   0.837 -0.2789 -0.7834  0.4944
  895SOL    HW1 2684   2.874   1.330   0.910  0.8040  0.9853  2.3189
  895SOL    HW2 2685   2.912   1.445   0.789  0.5473  0.0586  0.8993
  896SOL     OW 2686   1.699   1.792   1.175  0.0914 -0.1550 -0.2709
  896SOL    HW1 2687   1.787   1.801   1.119  1.3150 -2.8701 -0.3149
  896SOL    HW2 2688   1.629   1.865   1.156  1.1865  0.0485 -0.3568
  897SOL     OW 2689   0.328   0.504   3.056 -0.2433 -0.5245  0.1428
  897SOL    HW1 2690   0.267   0.531   2.978  0.4808  0.6600  3.1946
  897SOL    HW2 2691   0.425   0.540   3.050  1.1691 -2.8739 -0.4351
  898SOL     OW 2692   0.568   2.927   0.999  0.1194  0.0257 -0.4020
  898SOL    HW1 2693   0.513   2.949   1.085  1.2005  4.0675 -0.9211
  898SOL    HW2 2694   0.661   2.972   1.002 -0.7900 -2.0852 -0.1321
  899SOL     OW 2695   2.714   0.930   1.283 -0.1346  0.3681 -0.0504
  899SOL    HW1 2696   2.669   0.926   1.184 -3.7767 -2.0432 -2.6232
  899SOL    HW2 2697   2.806   0.979   1.286 -1.3033  2.3681  0.6974
  900SOL     OW 2698   0.994   2.351   2.381 -0.1563  0.6339  0.1588
  900SOL    HW1 2699   0.916   2.380   2.318  1.1781  0.2147 -0.4619
  900SOL    HW2 2700   0.961   2.341   2.480  1.4971 -0.8504  1.7720
  901SOL     OW 2701   2.004   2.480   1.350 -0.2868  0.2380 -0.1263
  901SOL    HW1 2702   1.958   2.465   1.258 -1.4197  0.1966 -0.9983
  901SOL    HW2 2703   2.097   2.432   1.363 -1.8315  0.5035  1.0773
  902SOL     OW 2704   2.567   1.683   1.481 -0.0809 -0.7267 -0.2322
  902SOL    HW1 2705   2.623   1.724   1.561 -0.4812 -0.8533 -2.1952
  902SOL    HW2 2706   2.634   1.649   1.405 -0.7856 -1.4552 -0.2498
  903SOL     OW 2707   0.278   2.447   1.995 -0.3440  0.3583 -0.2979
  903SOL    HW1 2708   0.187   2.399   2.006  1.3551 -0.1480 -1.2675
  903SOL    HW2 2709   0.278   2.508   1.907  0.7714  3.2700 -3.5993
  904SOL     OW 2710   2.002   0.767   2.602 -0.6345  0.3120 -0.4120
  904SOL    HW1 2711   1.920   0.719   2.636  0.5261 -1.7417  0.4493
  904SOL    HW2 2712   2.005   0.777   2.500 -2.1426  2.6328  4.2594
  905SOL     OW 2713   2.793   0.034   2.543  0.4743  0.2195  0.6034
  905SOL    HW1 2714   2.868  -0.012   2.591 -0.1176 -2.3894  0.5016
  905SOL    HW2 2715   2.816   0.128   2.510  0.7087 -1.4842  0.0547
  906SOL     OW 2716   0.119   1.848   1.937 -0.0157  0.2161 -0.4139
  906SOL    HW1 2717   0.066   1.855   1.849 -1.2540 -2.1931 -0.2648
  906SOL    HW2 2718   0.213   1.892   1.923  0.9353  3.1630 -0.0024
  907SOL     OW 2719   0.192   2.383   1.061  0.1084 -0.0171  0.1714
  907SOL    HW1 2720   0.270   2.452   1.049  1.5518  1.5166 -0.3981
  907SOL    HW2 2721   0.155   2.356   0.968 -0.7858  2.1053  0.9666
  908SOL     OW 2722   2.699   2.823   0.369 -0.1645 -0.1957 -0.8119
  908SOL    HW1 2723   2.678   2.908   0.309 -1.6600 -1.2724  0.2374
  908SOL    HW2 2724   2.637   2.744   0.337 -2.2390  0.0865  0.1935
  909SOL     OW 2725   0.685   0.909   2.637 -0.3267  0.2620 -0.0275
  909SOL    HW1 2726   0.673   0.803   2.643 -0.2106  1.3327 -1.0589
  909SOL    HW2 2727   0.779   0.949   2.618  0.0537  0.5871  1.7472
  910SOL     OW 2728   1.728   1.805   2.087 -0.5465 -0.2104  0.6012
  910SOL    HW1 2729   1.777   1.823   1.998  0.8051  1.2399  0.4854
  910SOL    HW2 2730   1.686   1.890   2.127 -0.1574  0.5892  0.1271
  911SOL     OW 2731   1.752   3.050   1.582  0.2594  0.0584 -0.2133
  911SOL    HW1 2732   1.834   3.010   1.541 -0.4385  1.0678 -2.7735
  911SOL    HW2 2733   1.707   2.980   1.644 -0.4599 -1.4038 -0.3936
  912SOL     OW 2734   2.864   0.957   0.777  0.2085  0.2103 -0.1978
  912SOL    HW1 2735   2.894   0.945   0.876  0.3953  0.9708  0.7583
  912SOL    HW2 2736   2.803   1.040   0.758  1.3376  0.9947  0.2215
  913SOL     OW 2737   2.581   1.283   1.540 -0.0567  0.0628  0.3418
  913SOL    HW1 2738   2.573   1.187   1.575  3.0297 -0.0920 -2.1068
  913SOL    HW2 2739   2.621   1.280   1.442  0.6193 -1.5302 -1.5382
  914SOL     OW 2740   2.795   0.483   1.305 -0.4549  0.2021 -0.2902
  914SOL    HW1 2741   2.774   0.381   1.317 -3.3944 -0.8632  0.2261
  914SOL    HW2 2742   2.752   0.552   1.374  0.3775  0.0849  1.7970
  915SOL     OW 2743   1.175   0.806   1.042 -0.4615 -0.5570 -0.0463
  915SOL    HW1 2744   1.252   0.840   1.111  1.0774  1.0445  1.0997
  915SOL    HW2 2745   1.080   0.801   1.087 -0.0519  2.1463 -0.6642
  916SOL     OW 2746   0.606   0.031   0.588  0.2723 -0.0821 -0.0464
  916SOL    HW1 2747   0.581   0.102   0.657 -0.0903  0.3832 -0.9598
  916SOL    HW2 2748   0.635   0.076   0.500 -1.5079  0.8335 -0.6361
  917SOL     OW 2749   2.734   2.601   1.876 -0.1232  0.8206 -0.2438
  917SOL    HW1 2750   2.699   2.697   1.896  1.4553 -3.7534  0.9285
  917SOL    HW2 2751   2.779   2.594   1.781  1.6399 -2.0699 -1.8315
  918SOL     OW 2752   1.084   2.194   3.086  0.2349  0.0782 -0.0837
  918SOL    HW1 2753   1.048   2.215   3.180 -1.3790  1.3574  0.4177
  918SOL    HW2 2754   1.089   2.096   3.056  0.7320  0.9513 -0.7194
  919SOL     OW 2755   0.897   1.579   2.780  0.1563  0.2462  0.0317
  919SOL    HW1 2756   0.921   1.649   2.708  0.0878 -2.6985 -0.2902
  919SOL    HW2 2757   0.869   1.487   2.741  0.4041  1.1920 -0.4846
  920SOL     OW 2758   1.220   2.018   2.467 -0.0935 -0.9727  0.1864
  920SOL    HW1 2759   1.161   2.025   2.381 -0.4889 -0.5857 -0.0918
  920SOL    HW2 2760   1.253   1.920   2.499  1.6538 -1.0091 -0.7507
  921SOL     OW 2761   1.039   0.100   2.547  0.1358  0.3292 -0.2996
  921SOL    HW1 2762   1.035   0.007   2.493  2.3940 -0.9360  0.7793
  921SOL    HW2 2763   0.960   0.158   2.519 -2.8798 -0.0322 -2.3862
  922SOL     OW 2764   2.131   2.432   2.792  0.6400  0.1238  0.3999
  922SOL    HW1 2765   2.126   2.330   2.811  0.8285  0.1167  1.6779
  922SOL    HW2 2766   2.107   2.458   2.698 -0.2692 -2.9101  1.1114
  923SOL     OW 2767   1.206   2.732   0.221  0.3494  0.0292 -0.0456
  923SOL    HW1 2768   1.296   2.778   0.255  1.8464  0.1693 -2.5400
  923SOL    HW2 2769   1.213   2.628   0.227  0.4859 -2.8849 -0.0132
  924SOL     OW 2770   2.907   1.596   0.071  0.5304  0.3889  0.0719
  924SOL    HW1 2771   2.834   1.593  -0.004  1.6720 -1.2676  0.1001
  924SOL    HW2 2772   2.996   1.561   0.032  1.8090  2.8507  0.4756
  925SOL     OW 2773   0.078   2.889   1.626 -0.2836 -0.1360 -0.0427
  925SOL    HW1 2774  -0.016   2.926   1.631  3.5090 -1.1005  1.4992
  925SOL    HW2 2775   0.128   2.918   1.540  0.7165 -0.8082  0.1624
  926SOL     OW 2776   1.417   2.914   1.258  0.0558 -0.0079 -0.4559
  926SOL    HW1 2777   1.429   2.904   1.156 -1.9309  1.7394  0.9550
  926SOL    HW2 2778   1.418   3.009   1.296  1.2745 -0.1760  0.1539
  927SOL     OW 2779   0.238   2.587   1.750  0.1481  0.5011 -0.4403
  927SOL    HW1 2780   0.224   2.501   1.688  4.4634 -2.3704  0.2142
  927SOL    HW2 2781   0.280   2.664   1.693 -1.4295  0.3072 -0.8273
  928SOL     OW 2782   1.608   2.042   2.132  0.2785 -0.2827  0.0277
  928SOL    HW1 2783   1.643   2.137   2.116 -1.8938  0.2297  0.2381
  928SOL    HW2 2784   1.511   2.036   2.093 -2.2219  2.8326 -0.1760
  929SOL     OW 2785   2.390   2.419   2.856  0.4617 -0.2892  0.2600
  929SOL    HW1 2786   2.286   2.419   2.844 -0.6658  1.0141 -1.5245
  929SOL    HW2 2787   2.441   2.417   2.766  0.9053 -0.7936  1.0460
  930SOL     OW 2788   2.182   1.987   1.091 -0.6224 -0.0721 -0.7233
  930SOL    HW1 2789   2.146   1.963   1.186 -2.0561  3.6056 -0.0652
  930SOL    HW2 2790   2.275   2.032   1.086  0.5656  0.9761  0.4557
  931SOL     OW 2791   0.554   1.757   2.668 -0.6698  0.0915 -0.5802
  931SOL    HW1 2792   0.608   1.749   2.754  0.2843  2.6792  0.1124
  931SOL    HW2 2793   0.545   1.657   2.631 -0.0232 -2.0640  0.3122
  932SOL     OW 2794   0.502   0.111   2.942 -0.1364  0.1218  0.6760
  932SOL    HW1 2795   0.589   0.115   2.885  0.7124  0.5245  0.3286
  932SOL    HW2 2796   0.492   0.017   2.982 -1.2426  0.2026  0.0616
  933SOL     OW 2797   1.069   0.771   2.983 -0.3182 -0.2705  0.3878
  933SOL    HW1 2798   1.153   0.810   3.031 -1.5728 -1.1814  1.3031
  933SOL    HW2 2799   1.008   0.849   2.951  0.6851 -2.3460 -0.6972
  934SOL     OW 2800   0.874   2.980   2.806  0.2317 -0.2125  0.5050
  934SOL    HW1 2801   0.958   2.932   2.777 -3.6769  3.5735 -0.5590
  934SOL    HW2 2802   0.810   2.932   2.874 -1.2963  0.7081  0.5752
  935SOL     OW 2803   3.046   0.528   0.899 -0.3442  0.0709 -1.2043
  935SOL    HW1 2804   3.032   0.489   0.809 -1.0090  2.5578  1.7120
  935SOL    HW2 2805   2.962   0.577   0.929 -0.3189  0.0740 -2.2664
  936SOL     OW 2806   1.135   3.002   0.164  0.0674  0.1600 -0.0341
  936SOL    HW1 2807   1.169   3.028   0.072 -0.1232  0.3443  0.3876
  936SOL    HW2 2808   1.146   2.897   0.177  1.0130 -1.2606 -2.3114
  937SOL     OW 2809   1.940   2.707   2.098  0.2535  0.2681 -0.1520
  937SOL    HW1 2810   1.842   2.702   2.143 -1.0889 -0.2475  1.3018
  937SOL    HW2 2811   1.946   2.710   1.994 -2.3158  0.0335 -1.0945
  938SOL     OW 2812   2.729   2.216   1.517 -0.3327  0.4227 -0.3850
  938SOL    HW1 2813   2.679   2.286   1.576  2.5333  0.0665  0.5544
  938SOL    HW2 2814   2.773   2.141   1.573  0.2703 -1.5375 -2.1807
  939SOL     OW 2815   2.752   0.976   2.519  0.3968 -0.3505 -0.0536
  939SOL    HW1 2816   2.832   0.909   2.510 -0.3467  2.9881 -0.5517
  939SOL    HW2 2817   2.724   0.989   2.620  0.1666  1.1192  2.1749
  940SOL     OW 2818   1.050   0.450   2.662  0.4225  0.1384 -0.2376
  940SOL    HW1 2819   1.112   0.364   2.680 -2.0914 -1.8647  1.8112
  940SOL    HW2 2820   0.944   0.424   2.650 -2.3527 -0.4417  2.1843
  941SOL     OW 2821   0.063   2.860   2.205 -0.1951  0.2511 -0.2550
  941SOL    HW1 2822   0.055   2.760   2.174 -0.9821 -0.5008 -2.2748
  941SOL    HW2 2823   0.123   2.875   2.290 -1.7683  2.1710  0.3786
  942SOL     OW 2824   0.109   0.084   2.510  0.5676  0.0331  0.1835
  942SOL    HW1 2825   0.171   0.095   2.593 -0.2667  1.0046 -3.0097
  942SOL    HW2 2826   0.081   0.173   2.456  0.3173 -0.8480 -1.4852
  943SOL     OW 2827   2.111   1.674   2.440 -0.1846  0.0829 -0.9491
  943SOL    HW1 2828   2.131   1.575   2.455  0.4880  1.9795  1.5235
  943SOL    HW2 2829   2.040   1.675   2.365  1.6806  1.3148  1.8698
  944SOL     OW 2830   2.181   2.288   1.459 -0.0962 -0.1870 -0.8881
  944SOL    HW1 2831   2.255   2.360   1.488  3.8567  0.9196  0.9651
  944SOL    HW2 2832   2.123   2.264   1.539  0.4592 -0.2844 -1.4491
  945SOL     OW 2833   0.655   1.433   0.355  0.0630 -0.1383  0.2247
  945SOL    HW1 2834   0.697   1.467   0.265  0.7888 -0.9577  0.2019
  945SOL    HW2 2835   0.702   1.347   0.388  0.9901  0.0046 -2.3771
  946SOL     OW 2836   0.327   0.990   2.660  0.1791 -0.2437  0.4375
  946SOL    HW1 2837   0.283   0.935   2.579 -0.2781 -0.5544  0.1377
  946SOL    HW2 2838   0.315   1.092   2.647  0.3763  0.5044  2.9851
  947SOL     OW 2839   1.528   0.409   0.177 -0.0256  0.1810 -0.0876
  947SOL    HW1 2840   1.546   0.336   0.247  0.5932  2.3239 -0.1287
  947SOL    HW2 2841   1.434   0.400   0.128 -2.0928  0.2249  0.2999
  948SOL     OW 2842   2.008   3.084   2.122 -0.1608 -0.5018 -0.0515
  948SOL    HW1 2843   1.950   3.088   2.033 -0.0619 -0.0395 -1.4638
  948SOL    HW2 2844   1.969   3.021   2.191  0.6768  0.5586  1.1852
  949SOL     OW 2845   0.641   2.547   0.453  1.0678  0.0751 -0.0485
  949SOL    HW1 2846   0.654   2.638   0.404  0.7352 -0.3288 -1.4219
  949SOL    HW2 2847   0.633   2.548   0.557 -2.4342 -0.1817  0.8514
  950SOL     OW 2848   0.216   2.114   3.013 -0.8287 -0.0498  0.2706
  950SOL    HW1 2849   0.140   2.185   3.031  0.3071  0.6327 -1.5190
  950SOL    HW2 2850   0.199   2.027   3.066 -1.0586  0.2726 -1.8282
  951SOL     OW 2851   1.160   2.819   2.802 -0.5564  0.3495  0.5363
  951SOL    HW1 2852   1.201   2.744   2.740 -0.7069 -3.1039 -0.5838
  951SOL    HW2 2853   1.224   2.902   2.811  1.4361 -0.5650 -3.2704
  952SOL     OW 2854   0.103   1.704   0.477 -0.2900 -0.2866  0.2600
  952SOL    HW1 2855   0.177   1.782   0.455  2.0912  1.9720 -0.8865
  952SOL    HW2 2856   0.081   1.679   0.574 -4.4940  0.6806 -0.7259
  953SOL     OW 2857   2.478   1.731   0.159 -0.2615  0.4948 -0.7477
  953SOL    HW1 2858   2.458   1.637   0.195  4.2702 -0.6952  2.7911
  953SOL    HW2 2859   2.481   1.753   0.057 -1.0764  1.9740  0.1816
  954SOL     OW 2860   2.192   0.482   1.064  0.0669  0.5048 -0.1024
  954SOL    HW1 2861   2.129   0.497   0.987 -2.1029 -0.6029 -0.0621
  954SOL    HW2 2862   2.293   0.462   1.030 -0.1446  1.2711 -1.0533
  955SOL     OW 2863   0.216   2.663   1.282  0.3979  0.4120 -0.9151
  955SOL    HW1 2864   0.115   2.635   1.283 -2.7993  1.5213 -1.2493
  955SOL    HW2 2865   0.260   2.655   1.187  0.3407  0.3889 -0.3566
  956SOL     OW 2866   2.739   2.470   2.497  0.3948  0.3269  0.1301
  956SOL    HW1 2867   2.746   2.365   2.484 -2.9703  0.5982  0.3336
  956SOL    HW2 2868   2.775   2.524   2.419  0.0714 -0.8646  1.1575
  957SOL     OW 2869   1.564   2.004   2.662  0.1141 -0.4411 -0.1004
  957SOL    HW1 2870   1.556   1.900   2.684  0.0423  2.0947  0.9219
  957SOL    HW2 2871   1.556   2.019   2.560  1.9026  0.3772  2.1015
  958SOL     OW 2872   2.649   2.296   2.996 -0.0391 -0.4807 -0.2925
  958SOL    HW1 2873   2.547   2.289   2.975 -1.3969 -0.6887 -0.5999
  958SOL    HW2 2874   2.690   2.230   3.063  1.3887  3.7282  0.3739
  959SOL     OW 2875   0.247   2.793   0.026  0.6825 -0.2505 -0.0492
  959SOL    HW1 2876   0.169   2.785   0.095 -1.3658 -1.2359 -0.1249
  959SOL    HW2 2877   0.292   2.700  -0.001 -0.9092 -1.9094 -0.8409
  960SOL     OW 2878   1.952   0.447   2.015 -0.1557  0.3610  1.2189
  960SOL    HW1 2879   1.910   0.512   1.950  1.5411 -1.5775  2.6488
  960SOL    HW2 2880   1.994   0.492   2.100 -0.7514 -1.4571  1.5515
  961SOL     OW 2881   2.688   1.956   1.034  0.8289  0.6756  0.0247
  961SOL    HW1 2882   2.594   1.973   0.993 -0.0780 -1.2442  1.4370
  961SOL    HW2 2883   2.691   2.000   1.131  2.5468  0.0866 -0.9425
  962SOL     OW 2884   1.276   0.954   0.016 -0.4728  0.1274 -0.5747
  962SOL    HW1 2885   1.290   1.031  -0.052  1.3501  1.6033 -2.1493
  962SOL    HW2 2886   1.250   0.980   0.114  0.2744 -1.2084  0.5074
  963SOL     OW 2887   2.214   2.580   1.915 -0.4916 -0.1198  0.3569
  963SOL    HW1 2888   2.230   2.518   2.001  1.1704 -0.6179  0.0110
  963SOL    HW2 2889   2.271   2.669   1.917 -2.4748 -0.7577 -1.7486
  964SOL     OW 2890   2.430   0.386   1.736 -0.1407 -0.3538  0.1664
  964SOL    HW1 2891   2.523   0.423   1.775 -0.4022  1.1318  2.2426
  964SOL    HW2 2892   2.431   0.350   1.638  2.8902  0.9947  0.1017
  965SOL     OW 2893   2.683   2.987   0.159 -0.2210 -0.4782  0.5435
  965SOL    HW1 2894   2.736   2.937   0.088 -2.1619  0.3225  4.2098
  965SOL    HW2 2895   2.609   3.038   0.109  1.5181  3.2716  1.0245
  966SOL     OW 2896   2.540   2.643   2.198  0.0702 -0.1091  0.5667
  966SOL    HW1 2897   2.471   2.580   2.152  0.1415  1.4815  0.0922
  966SOL    HW2 2898   2.521   2.743   2.183 -0.5405  0.5203  0.4923
  967SOL     OW 2899   2.730   2.858   2.472 -0.7446 -0.2190 -0.2057
  967SOL    HW1 2900   2.775   2.784   2.416  0.5488  1.3048  1.1466
  967SOL    HW2 2901   2.789   2.941   2.478  0.2756  0.0097 -0.7566
  968SOL     OW 2902   1.988   1.050   2.723 -0.2821  0.2658  0.1851
  968SOL    HW1 2903   1.969   1.138   2.678 -0.4769 -2.6957 -0.2992
  968SOL    HW2 2904   1.973   0.967   2.667 -2.7841  1.9054 -0.5516
  969SOL     OW 2905   2.729   2.355   1.181  0.4252  0.4875  0.3831
  969SOL    HW1 2906   2.672   2.370   1.097  1.0795 -2.0526 -1.7846
  969SOL    HW2 2907   2.771   2.260   1.182 -0.2102  0.8562  2.5298
  970SOL     OW 2908   1.120   2.124   1.786  0.0760  0.0340 -0.1264
  970SOL    HW1 2909   1.019   2.126   1.769  0.7975 -1.6984  0.7647
  970SOL    HW2 2910   1.144   2.146   1.881 -2.0997 -2.7219  1.1245
  971SOL     OW 2911   2.825   2.095   1.940  0.0067  0.2671 -0.0792
  971SOL    HW1 2912   2.842   2.195   1.951  1.2004 -1.0744 -2.0940
  971SOL    HW2 2913   2.868   2.071   1.851 -0.4469  0.9150  0.2851
  972SOL     OW 2914   2.072   2.446   0.264  0.6229  0.0692  0.6770
  972SOL    HW1 2915   2.037   2.355   0.223 -0.9607  0.2070 -0.7760
  972SOL    HW2 2916   2.078   2.454   0.365  0.5429 -0.2614 -1.9842
  973SOL     OW 2917   1.308   1.059   1.880 -0.1549 -0.4210 -0.1943
  973SOL    HW1 2918   1.236   1.010   1.819 -4.1329 -1.4339 -1.7290
  973SOL    HW2 2919   1.291   1.162   1.881 -0.2534 -1.5163 -0.0350
  974SOL     OW 2920   1.645   0.562   1.942 -0.5230  0.3456  0.7807
  974SOL    HW1 2921   1.728   0.617   1.908 -3.0308  1.7969  0.8879
  974SOL    HW2 2922   1.568   0.630   1.940  0.9899 -2.2646  3.5079
  975SOL     OW 2923   2.448   3.044   3.055  0.0969  0.1175  0.4357
  975SOL    HW1 2924   2.370   3.009   3.117  0.9851  1.8893  2.0008
  975SOL    HW2 2925   2.440   3.014   2.958  0.8079 -0.2905 -1.3108
  976SOL     OW 2926   1.955   2.907   2.344  0.3301  0.3813  0.5973
  976SOL    HW1 2927   1.879   2.849   2.296 -1.6114 -2.1854  1.6190
  976SOL    HW2 2928   1.980   2.865   2.441  1.9849 -0.1083 -1.1848
  977SOL     OW 2929   0.480   0.600   0.999 -0.5255 -0.7892 -0.8030
  977SOL    HW1 2930   0.394   0.559   0.953  3.2920 -1.4081  1.5286
  977SOL    HW2 2931   0.570   0.597   0.940  1.2646 -0.2871 -1.0571
   3.10000   3.10000   3.10000
