1000 SPC/Fw water molecules t=   1.72000 step= 1720
 2931
    1SOL     OW    1   2.483   0.381   2.664  0.4774 -0.1535  0.2853
    1SOL    HW1    2   2.477   0.278   2.642  0.5883 -1.4248 -0.2598
    1SOL    HW2    3   2.550   0.399   2.738 -1.0633  1.5767 -0.1623
    2SOL     OW    4   2.719   2.951   1.380  0.4904 -0.4516 -0.3757
    2SOL    HW1    5   2.813   2.945   1.330  0.5603 -1.1597  1.4427
    2SOL    HW2    6   2.719   3.015   1.466 -0.0650 -0.9165  0.7668
    3SOL     OW    7   2.709   2.490   0.367  0.0210 -0.3492  0.0468
    3SOL    HW1    8   2.620   2.438   0.356  0.1839  0.1401 -0.5712
    3SOL    HW2    9   2.718   2.550   0.451 -0.9952 -1.6466  0.4659
    4SOL     OW   10   1.317   1.567   2.448 -0.2587 -0.6939 -0.0065
    4SOL    HW1   11   1.235   1.549   2.383 -1.8653  0.2463  0.1382
    4SOL    HW2   12   1.310   1.506   2.531 -1.1736  0.0091  1.6236
    5SOL     OW   13   1.119   1.567   3.017  0.0156  0.9346 -0.3858
    5SOL    HW1   14   1.177   1.649   3.038  0.0325  0.7749 -3.5781
    5SOL    HW2   15   1.041   1.581   2.953  0.1844 -0.4074  1.0532
    6SOL     OW   16   0.255   1.812   3.091 -0.2453 -0.1407  0.3458
    6SOL    HW1   17   0.162   1.792   3.130 -0.4565  1.1883 -0.2663
    6SOL    HW2   18   0.329   1.743   3.109 -0.2183  4.4934 -1.6530
    7SOL     OW   19   2.507   0.912   1.074  0.1503 -0.1785  0.6643
    7SOL    HW1   20   2.406   0.874   1.082 -1.4507  1.5262 -0.9877
    7SOL    HW2   21   2.548   0.896   0.981 -0.5523  0.7718  1.5863
    8SOL     OW   22   0.410   0.651   1.550 -0.4283  0.1860 -0.0604
    8SOL    HW1   23   0.485   0.590   1.588  0.7687  1.5471 -1.4193
    8SOL    HW2   24   0.439   0.707   1.468 -0.0153  0.1624  0.4076
    9SOL     OW   25   1.125   0.898   2.341  0.1050  0.3435  0.2491
    9SOL    HW1   26   1.209   0.909   2.288 -1.4269 -1.4888  0.6359
    9SOL    HW2   27   1.110   0.804   2.378  1.0502 -2.1075  1.4616
   10SOL     OW   28   0.687   1.405   1.253 -1.1819 -0.3582 -0.0529
   10SOL    HW1   29   0.599   1.393   1.201  0.4479 -1.2655  0.6307
   10SOL    HW2   30   0.702   1.508   1.286 -1.6879  4.0528 -3.0895
   11SOL     OW   31   2.343   2.874   0.941 -0.0618 -0.3118  0.2550
   11SOL    HW1   32   2.300   2.824   1.022  0.5975  0.4716  2.3027
   11SOL    HW2   33   2.436   2.906   0.955 -3.2324 -1.9041 -2.9675
   12SOL     OW   34   1.513   0.849   0.459 -0.7017 -0.1009  0.2545
   12SOL    HW1   35   1.416   0.839   0.496 -1.8895 -1.2603  1.0537
   12SOL    HW2   36   1.538   0.788   0.379  3.5955 -0.3194 -0.0565
   13SOL     OW   37   2.464   0.731   1.802  0.2707  0.4348 -0.7005
   13SOL    HW1   38   2.409   0.678   1.876 -0.2168 -1.0256  1.2532
   13SOL    HW2   39   2.462   0.677   1.715 -1.1461 -0.2396 -0.1367
   14SOL     OW   40   1.977   0.003   0.587  0.3010 -0.6290 -0.4394
   14SOL    HW1   41   1.883   0.045   0.579 -0.1143 -3.8895  0.7210
   14SOL    HW2   42   1.990  -0.040   0.685 -1.1117  0.5505  1.4870
   15SOL     OW   43   1.923   2.115   2.674  0.1600  0.7567  0.0432
   15SOL    HW1   44   1.848   2.087   2.742 -0.0198 -0.8438 -1.0568
   15SOL    HW2   45   1.929   2.045   2.592  0.9040  0.3431  0.6334
   16SOL     OW   46   1.585   1.751   3.046 -0.1428  0.3308  0.7695
   16SOL    HW1   47   1.616   1.658   3.083 -0.7314  2.2708  1.5245
   16SOL    HW2   48   1.656   1.822   3.062 -2.1676 -0.7147  1.6830
   17SOL     OW   49   0.119   0.476   0.168  0.2363  0.0012 -0.1858
   17SOL    HW1   50   0.210   0.486   0.122 -0.7092  1.3090  2.0143
   17SOL    HW2   51   0.041   0.469   0.105 -0.0534  0.0462  0.8454
   18SOL     OW   52   0.914   2.909   2.144 -0.1613 -0.4422  0.5568
   18SOL    HW1   53   0.875   2.818   2.163 -1.1168 -0.5362 -3.0976
   18SOL    HW2   54   0.982   2.908   2.065  0.4536 -1.0383 -0.2726
   19SOL     OW   55   0.560   0.901   1.912 -0.3325  0.5746 -0.2461
   19SOL    HW1   56   0.606   0.869   2.000  0.3150 -0.1785 -0.3182
   19SOL    HW2   57   0.615   0.977   1.866 -0.7664 -0.2443  1.4381
   20SOL     OW   58   0.220   2.804   0.797  0.5008 -0.3223 -0.1408
   20SOL    HW1   59   0.113   2.824   0.791  0.2588  2.5687 -1.3572
   20SOL    HW2   60   0.240   2.718   0.751  0.2360  0.9833  1.6592
   21SOL     OW   61   2.731   0.290   2.017  0.3700 -0.5254 -0.8015
   21SOL    HW1   62   2.714   0.204   1.959  0.7705  0.1343  0.1612
   21SOL    HW2   63   2.813   0.283   2.082  0.3316  0.5743  0.6685
   22SOL     OW   64   2.362   0.195   0.133  0.3253 -0.3787  0.2122
   22SOL    HW1   65   2.354   0.111   0.075  0.6605  0.2832  2.0651
   22SOL    HW2   66   2.287   0.256   0.096 -1.6324  0.3265 -0.0974
   23SOL     OW   67   2.817   0.536   0.685  0.1495 -0.2776  0.0201
   23SOL    HW1   68   2.860   0.441   0.684 -1.1100  0.7766  1.5863
   23SOL    HW2   69   2.824   0.595   0.599  0.9841 -0.0720 -0.1740
   24SOL     OW   70   0.302   1.892   0.473  0.1648 -0.1651  0.3644
   24SOL    HW1   71   0.300   1.955   0.395 -1.8946 -3.3125  1.9492
   24SOL    HW2   72   0.397   1.857   0.493 -0.2854 -0.7286 -0.2069
   25SOL     OW   73   2.284   0.605   0.215  0.1133  0.3895  0.2338
   25SOL    HW1   74   2.277   0.614   0.110  2.2265 -0.1824 -1.0996
   25SOL    HW2   75   2.339   0.522   0.241 -0.3578  1.6386  3.2468
   26SOL     OW   76   2.471   2.144   2.118  0.2470  0.5266 -0.0317
   26SOL    HW1   77   2.535   2.189   2.185 -0.3805  0.4647 -0.1051
   26SOL    HW2   78   2.524   2.094   2.043 -0.0048  1.9797  0.2441
   27SOL     OW   79   0.619   3.020   0.132  0.3962  0.4973 -0.2969
   27SOL    HW1   80   0.721   3.041   0.106  2.1109  0.3790 -1.7496
   27SOL    HW2   81   0.558   2.986   0.048 -1.8686  0.6103 -0.6315
   28SOL     OW   82   1.563   0.146   0.305 -0.1110  0.5427  0.3790
   28SOL    HW1   83   1.607   0.121   0.215 -0.6772 -0.8577 -1.6694
   28SOL    HW2   84   1.593   0.243   0.333  0.4357 -2.2590  0.9654
   29SOL     OW   85   2.026   0.565   0.295 -0.3320 -0.2641  0.4560
   29SOL    HW1   86   2.001   0.624   0.375 -0.6928 -3.1382  0.1249
   29SOL    HW2   87   2.128   0.577   0.272  1.3147 -2.1471  1.3713
   30SOL     OW   88   0.174   2.069   0.915 -0.2895  0.2237  0.6193
   30SOL    HW1   89   0.167   2.000   0.834  1.1478 -1.1939  1.9235
   30SOL    HW2   90   0.081   2.101   0.949  0.7041 -0.0173 -1.7448
   31SOL     OW   91   2.117   0.079   2.417 -0.4346  0.3566  0.0986
   31SOL    HW1   92   2.067   0.053   2.506 -0.8846  0.7964  0.4000
   31SOL    HW2   93   2.074   0.032   2.336  2.3520  1.5870  0.0315
   32SOL     OW   94   3.063   3.080   0.243  0.5417 -0.1934  0.2074
   32SOL    HW1   95   3.040   2.979   0.255  1.6193  1.7252 -0.1201
   32SOL    HW2   96   3.162   3.099   0.241 -1.1669 -0.3848  0.9645
   33SOL     OW   97   0.912   0.199   0.648 -0.3844  0.5383  0.1342
   33SOL    HW1   98   0.889   0.171   0.548  0.3908  1.4406  2.2422
   33SOL    HW2   99   1.001   0.254   0.645 -0.0853  2.1235 -2.4093
   34SOL     OW  100   0.350   2.698   1.005 -0.6114 -0.2882 -0.1539
   34SOL    HW1  101   0.314   2.735   0.913  0.5035 -0.2009 -1.5202
   34SOL    HW2  102   0.426   2.752   1.050  1.0025  0.7634 -1.2922
   35SOL     OW  103   0.051   0.130   1.908  0.2277  0.0558  0.3661
   35SOL    HW1  104   0.079   0.031   1.918 -0.8444  0.6355  0.9995
   35SOL    HW2  105   0.029   0.147   1.806 -3.3619  1.4852  0.4230
   36SOL     OW  106   1.926   1.177   1.502 -0.6748  0.7622 -0.2841
   36SOL    HW1  107   2.005   1.121   1.544  0.1028  1.9660  1.2869
   36SOL    HW2  108   1.960   1.256   1.447  0.4080  0.4755  1.0680
   37SOL     OW  109   1.118   0.258   1.013  0.1757 -0.1292  0.2560
   37SOL    HW1  110   1.141   0.362   0.997  0.2746  0.6810 -1.4421
   37SOL    HW2  111   1.177   0.191   0.959 -0.5623  0.3766  4.3735
   38SOL     OW  112   1.157   2.838   2.442  0.2907  0.3633  0.8368
   38SOL    HW1  113   1.081   2.792   2.499  0.9310  1.3360 -1.3931
   38SOL    HW2  114   1.146   2.938   2.413  0.4528  1.3014 -3.5335
   39SOL     OW  115   2.480   1.421   3.009  0.1090 -0.7642 -0.2237
   39SOL    HW1  116   2.558   1.354   3.028 -2.1782 -1.1514  2.7107
   39SOL    HW2  117   2.397   1.396   3.065 -0.7835  2.0166 -0.8409
   40SOL     OW  118   2.052   2.524   2.515 -0.6239 -0.2210 -0.1941
   40SOL    HW1  119   2.006   2.613   2.534 -1.2306 -0.7625 -0.7674
   40SOL    HW2  120   1.991   2.455   2.469  4.7009 -1.1373  2.9930
   41SOL     OW  121   3.039   0.722   2.773 -0.1778 -0.2067  0.3740
   41SOL    HW1  122   3.047   0.801   2.836 -2.7554 -1.2302 -0.1009
   41SOL    HW2  123   2.947   0.672   2.777 -2.4683 -0.3375  1.3723
   42SOL     OW  124   1.756   1.729   0.517 -0.7185  0.1742 -0.2719
   42SOL    HW1  125   1.720   1.630   0.505 -0.6565  0.0415  0.0610
   42SOL    HW2  126   1.760   1.774   0.424  0.1174 -1.4389 -2.4435
   43SOL     OW  127   0.458   1.674   1.126 -0.1955  0.0761  0.5504
   43SOL    HW1  128   0.440   1.573   1.096  1.5608  1.6603 -2.3900
   43SOL    HW2  129   0.395   1.716   1.197 -1.6199 -1.1964 -2.2853
   44SOL     OW  130   1.673   2.327   2.921  0.1495 -0.4118 -0.1920
   44SOL    HW1  131   1.580   2.361   2.949 -0.7674 -0.5617 -2.7747
   44SOL    HW2  132   1.717   2.379   2.841  1.6036  1.1098  0.6823
   45SOL     OW  133   0.368   1.909   2.631 -0.1961  0.3711  0.6967
   45SOL    HW1  134   0.322   1.919   2.540  0.0330 -1.7355 -0.8606
   45SOL    HW2  135   0.452   1.848   2.637 -1.6713 -2.9550  3.0889
   46SOL     OW  136   1.323   0.730   0.249  0.6524 -0.2104 -0.0433
   46SOL    HW1  137   1.317   0.803   0.176 -1.6072 -2.5484  0.4667
   46SOL    HW2  138   1.271   0.648   0.218  2.3380  2.9058  0.8715
   47SOL     OW  139   0.118   2.404   1.599 -0.1152 -0.7051  0.0820
   47SOL    HW1  140   0.074   2.321   1.648 -1.0993 -2.9108  0.8715
   47SOL    HW2  141   0.139   2.376   1.499  2.5181  0.0978 -0.6805
   48SOL     OW  142   2.633   0.698   0.124  0.0749  1.1971  0.0377
   48SOL    HW1  143   2.615   0.673   0.224 -1.1818 -0.5548  1.4939
   48SOL    HW2  144   2.737   0.695   0.109  1.1658 -0.8521 -0.2944
   49SOL     OW  145   0.341   0.834   1.739  0.0470  0.1064 -0.5062
   49SOL    HW1  146   0.407   0.852   1.819  0.4191 -0.6310 -0.6770
   49SOL    HW2  147   0.383   0.769   1.670 -3.0743  0.3025 -0.0744
   50SOL     OW  148   1.727   1.090   0.312 -0.3962 -0.0822  0.2326
   50SOL    HW1  149   1.754   0.994   0.285 -0.5012 -0.9930 -0.3881
   50SOL    HW2  150   1.686   1.092   0.407 -0.0284  0.0195 -0.3184
   51SOL     OW  151   2.958   1.748   0.329  0.2104 -0.3566 -0.5909
   51SOL    HW1  152   2.874   1.713   0.381  0.2273  0.2341 -0.1562
   51SOL    HW2  153   3.046   1.702   0.361  0.5903  3.6729 -0.2923
   52SOL     OW  154   0.774   2.164   0.557 -0.1144 -0.0947  0.4096
   52SOL    HW1  155   0.672   2.147   0.555 -1.2002 -1.1513 -1.8245
   52SOL    HW2  156   0.820   2.104   0.629  0.0487 -0.3763 -0.9852
   53SOL     OW  157   0.304   0.428   1.437  0.5507  0.1184 -0.1855
   53SOL    HW1  158   0.334   0.516   1.487  0.1826 -0.1172  0.5079
   53SOL    HW2  159   0.277   0.439   1.338 -2.5843 -0.9345  0.1969
   54SOL     OW  160   1.727   0.433   0.007  0.7776  0.4127  0.0337
   54SOL    HW1  161   1.804   0.380   0.056  0.8591  0.9595  0.0795
   54SOL    HW2  162   1.641   0.426   0.065 -0.8856  0.1744  0.0263
   55SOL     OW  163   0.776   2.952   0.619  0.7430  0.0216  0.2991
   55SOL    HW1  164   0.718   3.036   0.626 -0.1332 -2.4371  0.3019
   55SOL    HW2  165   0.876   2.971   0.644 -0.2232 -1.1342 -0.0407
   56SOL     OW  166   0.573   1.533   3.049 -0.3068  0.4255  0.5051
   56SOL    HW1  167   0.502   1.563   3.116 -0.7373  1.2690 -0.7107
   56SOL    HW2  168   0.535   1.454   2.992 -2.2990 -0.6397 -0.8071
   57SOL     OW  169   1.684   2.458   2.331 -0.4267 -0.2443  0.4016
   57SOL    HW1  170   1.775   2.405   2.341  0.6389 -0.5622 -1.6417
   57SOL    HW2  171   1.637   2.467   2.422 -0.3609 -1.1750 -0.0101
   58SOL     OW  172   0.647   0.211   1.087 -0.0515  0.0466  0.2968
   58SOL    HW1  173   0.558   0.225   1.142 -0.4666 -1.2940  1.2680
   58SOL    HW2  174   0.672   0.115   1.062  0.4959  0.2337  0.7837
   59SOL     OW  175   0.452   2.368   2.641  0.4526 -0.4962 -0.6496
   59SOL    HW1  176   0.479   2.274   2.676 -1.7781  2.4752  0.1423
   59SOL    HW2  177   0.537   2.430   2.628  2.0908 -0.4247 -1.1139
   60SOL     OW  178   2.311   2.022   2.300 -0.1278 -0.5275 -0.3964
   60SOL    HW1  179   2.370   2.056   2.219  1.4347  1.3469  0.5560
   60SOL    HW2  180   2.324   2.078   2.384  0.2259 -2.3466 -0.4697
   61SOL     OW  181   1.192   0.646   0.488  0.0538  0.2462 -0.3404
   61SOL    HW1  182   1.095   0.664   0.513  0.2419  1.9404 -1.0984
   61SOL    HW2  183   1.231   0.685   0.397  0.9810 -0.4723 -0.9690
   62SOL     OW  184   2.806   1.717   2.685 -0.0153 -0.5377  0.3366
   62SOL    HW1  185   2.743   1.641   2.646  1.4169 -1.1321 -0.7803
   62SOL    HW2  186   2.846   1.691   2.777 -2.7709  0.8675 -0.9632
   63SOL     OW  187   0.543   0.903   0.200 -0.2586 -0.4516 -0.1363
   63SOL    HW1  188   0.564   0.966   0.120  0.5071  1.3375  0.2206
   63SOL    HW2  189   0.564   0.946   0.292  1.0948 -0.7256 -2.2705
   64SOL     OW  190   3.002   0.543   2.338  0.0322  0.5220 -0.3156
   64SOL    HW1  191   2.931   0.585   2.396  1.1359 -0.1772 -0.2580
   64SOL    HW2  192   3.005   0.592   2.252 -0.1148 -0.9487  3.0437
   65SOL     OW  193   0.236   1.446   0.693 -0.4392 -0.2908 -0.3013
   65SOL    HW1  194   0.232   1.534   0.749  1.4413 -0.7421  0.7067
   65SOL    HW2  195   0.277   1.465   0.595  2.4088  1.1694 -2.1040
   66SOL     OW  196   2.571   0.343   0.547  0.0729 -0.0243 -0.7559
   66SOL    HW1  197   2.676   0.330   0.547 -2.4173  0.8925 -1.6941
   66SOL    HW2  198   2.519   0.267   0.596 -1.0540  0.9477 -0.5004
   67SOL     OW  199   0.597   2.533   1.432  0.0395  0.0135  0.1586
   67SOL    HW1  200   0.687   2.523   1.478 -2.2508 -0.8446 -0.5106
   67SOL    HW2  201   0.535   2.448   1.447 -1.6847 -0.7258 -1.0196
   68SOL     OW  202   0.912   1.006   2.445 -0.0157  1.0915  0.4436
   68SOL    HW1  203   0.995   0.968   2.394 -1.6654 -0.6208 -1.7982
   68SOL    HW2  204   0.840   1.034   2.376  2.5161  1.2159  0.8499
   69SOL     OW  205   0.794   2.631   2.366  0.4752 -0.6916 -0.0049
   69SOL    HW1  206   0.828   2.557   2.304 -1.1667  0.2325  0.9350
   69SOL    HW2  207   0.700   2.670   2.347 -0.2357 -0.5367 -0.0006
   70SOL     OW  208   0.468   0.161   2.563  0.2814 -0.1867  0.3628
   70SOL    HW1  209   0.407   0.138   2.641  1.1158  0.9185 -0.8720
   70SOL    HW2  210   0.542   0.095   2.544  0.2275  2.0510 -1.9747
   71SOL     OW  211   1.059   1.755   0.313  0.5082  0.3651  0.1726
   71SOL    HW1  212   0.997   1.726   0.397 -0.8319  1.2595 -0.4474
   71SOL    HW2  213   1.016   1.747   0.217  1.1109  1.9111 -0.1894
   72SOL     OW  214   1.861   0.270   2.156  0.3996  0.1579 -0.0826
   72SOL    HW1  215   1.931   0.343   2.136  2.8743  0.8612 -4.3362
   72SOL    HW2  216   1.903   0.175   2.159  0.6435 -1.6004  1.6055
   73SOL     OW  217   2.758   2.193   2.485 -0.1224 -0.1351  0.1790
   73SOL    HW1  218   2.747   2.105   2.428 -0.1275 -0.1717 -1.7036
   73SOL    HW2  219   2.786   2.180   2.583  0.4721  0.6598  0.4515
   74SOL     OW  220   2.710   2.928   2.108  0.5465  0.3805  0.2000
   74SOL    HW1  221   2.634   2.899   2.173 -1.6987 -0.9916 -2.2269
   74SOL    HW2  222   2.788   2.977   2.154 -2.2477 -0.2130 -3.0171
   75SOL     OW  223   0.957   0.815   1.158  0.2863 -0.2618 -0.1000
   75SOL    HW1  224   0.852   0.805   1.154 -2.0681  2.8744 -1.1639
   75SOL    HW2  225   0.979   0.871   1.243 -1.3767  1.6930  2.3727
   76SOL     OW  226   1.863   1.289   2.626  0.6450 -0.3687  0.3741
   76SOL    HW1  227   1.770   1.249   2.635 -1.2381  0.7600  1.9083
   76SOL    HW2  228   1.866   1.392   2.617  0.7716  1.5771  1.4434
   77SOL     OW  229   2.905   0.940   1.053  0.3564 -0.5383 -0.1048
   77SOL    HW1  230   2.892   0.838   1.033 -3.3545 -1.3765  1.7397
   77SOL    HW2  231   2.988   0.957   1.119  1.1943  0.6983  1.3705
   78SOL     OW  232   1.983   1.437   1.354 -0.1501 -0.0114  0.0275
   78SOL    HW1  233   2.062   1.420   1.293 -2.3878  1.1245  1.0592
   78SOL    HW2  234   1.889   1.436   1.307 -1.9081  0.7762  0.7415
   79SOL     OW  235   0.708   1.449   0.823 -0.3696  0.5558  0.2097
   79SOL    HW1  236   0.610   1.433   0.851  0.9899 -0.9517  1.3154
   79SOL    HW2  237   0.739   1.361   0.779  3.5963 -2.7404  3.6194
   80SOL     OW  238   0.626   0.449   1.571  1.0684 -0.0165  0.4242
   80SOL    HW1  239   0.647   0.524   1.504 -0.6553 -2.9146 -1.6616
   80SOL    HW2  240   0.647   0.361   1.529  1.2426  1.1164  0.2774
   81SOL     OW  241   1.084   1.264   2.521  0.0923  0.1850 -0.2948
   81SOL    HW1  242   1.075   1.160   2.510  0.7756 -1.4466 -0.8859
   81SOL    HW2  243   1.000   1.317   2.487 -1.2845  1.9355  0.1685
   82SOL     OW  244   0.909   2.949   1.542  0.3067  0.0433  1.0764
   82SOL    HW1  245   0.970   2.874   1.509  2.8385  2.2942  1.5172
   82SOL    HW2  246   0.844   2.988   1.472 -0.0226 -4.7738  2.6156
   83SOL     OW  247   2.641   2.393   0.859  0.0711  0.1754  0.5355
   83SOL    HW1  248   2.572   2.348   0.792  1.6620 -1.7676 -1.9986
   83SOL    HW2  249   2.642   2.494   0.853  1.0747 -2.2565 -2.4078
   84SOL     OW  250   0.781   3.092   2.280 -0.0927 -0.2031  0.0141
   84SOL    HW1  251   0.724   3.050   2.356  1.6777 -1.4610  1.3223
   84SOL    HW2  252   0.831   3.019   2.224 -1.1972  2.8786  0.1228
   85SOL     OW  253   0.309   1.717   1.363  0.8202 -0.3605  0.2072
   85SOL    HW1  254   0.261   1.783   1.427  0.3480  2.1509 -0.6195
   85SOL    HW2  255   0.375   1.651   1.418  2.3140  1.1916  2.5126
   86SOL     OW  256   0.448   1.046   1.476  0.7924  0.1448 -0.3889
   86SOL    HW1  257   0.414   0.978   1.411  1.7766  1.2777 -1.3156
   86SOL    HW2  258   0.552   1.041   1.480 -0.8106 -1.2083 -1.4907
   87SOL     OW  259   1.606   0.643   0.294  0.0430 -0.6094 -0.0687
   87SOL    HW1  260   1.700   0.687   0.270  0.8201 -2.0771 -3.9953
   87SOL    HW2  261   1.559   0.615   0.208  1.8214  0.9990 -0.0543
   88SOL     OW  262   1.567   1.323   0.250 -0.3957 -0.0417 -0.1478
   88SOL    HW1  263   1.604   1.235   0.293 -0.9586  1.9062  0.3864
   88SOL    HW2  264   1.458   1.324   0.239 -0.5264 -1.1222 -1.0447
   89SOL     OW  265   0.008   0.395   0.671 -0.3011 -0.2282  0.6173
   89SOL    HW1  266   0.110   0.384   0.691  0.0053  0.3500 -0.9708
   89SOL    HW2  267  -0.036   0.313   0.621  1.9742  0.6289 -1.1826
   90SOL     OW  268   0.745   1.532   0.159 -0.3589 -0.3439  0.0619
   90SOL    HW1  269   0.832   1.477   0.141 -2.1278 -1.1576  0.0484
   90SOL    HW2  270   0.679   1.531   0.077 -0.0846 -0.4311 -0.4847
   91SOL     OW  271   1.307   1.509   1.717  0.2471  0.0385 -0.7055
   91SOL    HW1  272   1.223   1.538   1.763 -0.1551  0.0494 -2.9630
   91SOL    HW2  273   1.345   1.431   1.768  0.9794  1.5217 -0.9730
   92SOL     OW  274   0.013   1.000   1.222 -0.0964  0.1563 -0.2454
   92SOL    HW1  275   0.054   1.086   1.183  2.3857  0.0502 -0.3457
   92SOL    HW2  276   0.019   0.998   1.324  2.2192  0.1205  2.2550
   93SOL     OW  277   3.063   2.636   0.065 -0.6670 -0.1402 -0.0375
   93SOL    HW1  278   3.012   2.634  -0.021  2.8671  1.8055  1.8643
   93SOL    HW2  279   3.124   2.556   0.075 -1.7636  1.7774 -1.2603
   94SOL     OW  280   1.494   1.304   1.675  0.1119  0.4459  0.0007
   94SOL    HW1  281   1.575   1.238   1.663  0.6841 -0.2847  1.8778
   94SOL    HW2  282   1.528   1.399   1.682 -0.4491 -0.7452 -0.0275
   95SOL     OW  283   1.352   2.474   2.914  0.1843  0.0212  0.1229
   95SOL    HW1  284   1.269   2.499   2.967  2.1100  1.4385 -1.5420
   95SOL    HW2  285   1.368   2.370   2.906  0.4430 -3.2382  0.1161
   96SOL     OW  286   0.570   2.171   1.309 -0.0277 -0.1315 -0.4429
   96SOL    HW1  287   0.521   2.153   1.216 -1.8902 -2.0081  1.2922
   96SOL    HW2  288   0.597   2.086   1.361 -2.5336 -0.3455  0.3378
   97SOL     OW  289   0.244   1.614   2.398 -0.0046 -0.0946 -0.4683
   97SOL    HW1  290   0.263   1.703   2.346 -1.8994  0.3756 -2.5659
   97SOL    HW2  291   0.230   1.615   2.499 -0.6584  0.8362 -0.4595
   98SOL     OW  292   2.165   1.668   1.206  0.4618  0.4694 -0.2622
   98SOL    HW1  293   2.122   1.578   1.174  2.0803 -1.2738 -0.4750
   98SOL    HW2  294   2.261   1.671   1.164 -2.2129 -0.1857 -1.0116
   99SOL     OW  295   2.610   2.028   1.293  0.1424  0.1398  0.2944
   99SOL    HW1  296   2.665   2.091   1.347 -1.0943  0.2502 -1.6291
   99SOL    HW2  297   2.539   1.978   1.354 -1.2940 -2.3468 -0.2230
  100SOL     OW  298   2.330   0.365   2.119  0.2294 -0.1783 -0.1767
  100SOL    HW1  299   2.263   0.372   2.197  1.5740 -2.1352 -1.9209
  100SOL    HW2  300   2.428   0.381   2.149  0.1306 -0.2544 -0.0444
  101SOL     OW  301   0.362   1.463   0.440 -0.2450 -0.8371 -0.9417
  101SOL    HW1  302   0.373   1.545   0.508  1.2746 -2.4265 -0.0192
  101SOL    HW2  303   0.456   1.423   0.418 -0.9868  2.7321  1.4385
  102SOL     OW  304   2.244   1.067   0.824  0.3669  0.3755  0.2863
  102SOL    HW1  305   2.214   0.965   0.830 -2.2994 -3.3375  1.2372
  102SOL    HW2  306   2.337   1.075   0.785  0.0898 -1.3510  3.9326
  103SOL     OW  307   2.269   0.085   0.382  0.6002 -0.0576  0.0209
  103SOL    HW1  308   2.328   0.131   0.309  0.2352 -2.0788 -1.2641
  103SOL    HW2  309   2.316   0.008   0.426 -3.1475  0.3541 -0.0433
  104SOL     OW  310   3.054   1.788   2.195  0.0665  0.1819 -0.3442
  104SOL    HW1  311   3.111   1.776   2.111 -0.9911 -0.9216  1.3886
  104SOL    HW2  312   2.958   1.819   2.162 -1.0290  3.4190 -3.9616
  105SOL     OW  313   1.338   2.096   0.773 -0.4527  0.0375 -0.2919
  105SOL    HW1  314   1.320   2.158   0.694 -1.5499  0.3672  0.7209
  105SOL    HW2  315   1.349   1.997   0.739  0.5429  1.8342 -0.0109
  106SOL     OW  316   2.141   0.412   1.417  0.0506  0.0902 -0.0666
  106SOL    HW1  317   2.052   0.364   1.395  1.6678 -0.9607  2.3517
  106SOL    HW2  318   2.179   0.398   1.516  0.0664 -1.5598  0.5814
  107SOL     OW  319   1.926   2.910   1.153  0.4472 -0.0169 -0.2546
  107SOL    HW1  320   1.845   2.956   1.193  2.4018 -0.7852 -0.8774
  107SOL    HW2  321   1.902   2.818   1.106  3.1881  1.0989 -0.8756
  108SOL     OW  322   0.843   2.821   1.139  0.3969  0.1057 -0.2903
  108SOL    HW1  323   0.826   2.720   1.123 -2.3819 -0.1827 -2.1581
  108SOL    HW2  324   0.946   2.836   1.161  2.6477 -0.8426 -2.6147
  109SOL     OW  325   2.164   0.161   0.715  0.1040 -0.0159  0.2790
  109SOL    HW1  326   2.100   0.097   0.663  1.6557 -1.6245  0.4597
  109SOL    HW2  327   2.128   0.181   0.813 -1.9304  1.5052  0.6126
  110SOL     OW  328   0.500   2.820   2.751  0.1172  0.6938  0.0753
  110SOL    HW1  329   0.485   2.833   2.648  1.2323 -0.8483  1.9603
  110SOL    HW2  330   0.573   2.754   2.770 -0.2310  1.2504 -1.4268
  111SOL     OW  331   1.329   0.570   2.271 -0.0398  0.4844  0.0250
  111SOL    HW1  332   1.256   0.613   2.328  3.1935  0.5356 -1.0249
  111SOL    HW2  333   1.352   0.477   2.315  0.5819  0.7003  2.2298
  112SOL     OW  334   1.730   0.454   1.536  0.2473  0.1933  0.1195
  112SOL    HW1  335   1.710   0.505   1.449  3.6932 -0.5585  2.6998
  112SOL    HW2  336   1.644   0.424   1.593 -1.4153  0.9373  2.5565
  113SOL     OW  337   2.349   1.674   1.791 -0.8291 -0.3414 -0.1321
  113SOL    HW1  338   2.397   1.590   1.761 -0.2724 -0.1065  1.7304
  113SOL    HW2  339   2.343   1.674   1.895 -0.7503 -1.7181  2.0356
  114SOL     OW  340   0.277   0.398   1.156 -1.1719 -0.2040 -0.3661
  114SOL    HW1  341   0.184   0.433   1.158  2.6816 -1.4975  1.2651
  114SOL    HW2  342   0.336   0.455   1.091 -0.1379 -0.1025  1.6064
  115SOL     OW  343   2.692   1.519   1.266  0.0178 -0.8181 -0.1321
  115SOL    HW1  344   2.706   1.425   1.307 -0.7670  1.9468  0.9256
  115SOL    HW2  345   2.772   1.557   1.214 -0.7378  0.6474 -1.0474
  116SOL     OW  346   1.928   0.908   0.751  0.4331  0.8705 -0.4401
  116SOL    HW1  347   1.831   0.893   0.715  2.5421  0.8854 -0.7149
  116SOL    HW2  348   1.943   1.013   0.761 -2.7489  0.2563 -0.7563
  117SOL     OW  349   1.135   0.364   0.543 -0.1512 -0.1489 -0.3032
  117SOL    HW1  350   1.189   0.448   0.546 -2.2450 -1.9068 -1.3655
  117SOL    HW2  351   1.102   0.350   0.448  0.1446 -0.1051 -1.1971
  118SOL     OW  352   1.154   1.219   1.079 -0.2826  0.0176  0.2918
  118SOL    HW1  353   1.064   1.195   1.129  1.8366  1.2252  0.1572
  118SOL    HW2  354   1.174   1.321   1.081  1.1114 -0.3038 -0.0166
  119SOL     OW  355   1.867   1.572   2.202  0.5248 -0.0635  0.0904
  119SOL    HW1  356   1.819   1.639   2.136  2.0662  1.3157  1.9021
  119SOL    HW2  357   1.967   1.568   2.176  0.4583  1.8503 -0.5013
  120SOL     OW  358   2.978   2.800   0.281  0.3227 -0.1832  0.0557
  120SOL    HW1  359   2.998   2.753   0.189 -0.9584 -1.6148  1.2812
  120SOL    HW2  360   2.880   2.791   0.305 -0.5356 -0.5120 -1.3456
  121SOL     OW  361   2.014   0.776   2.324 -0.1117 -0.1177 -0.1558
  121SOL    HW1  362   2.052   0.862   2.282  1.4385  0.7644 -0.7712
  121SOL    HW2  363   2.022   0.693   2.265  1.2078  1.8013  0.3380
  122SOL     OW  364   2.631   2.503   1.346  0.3327 -0.1279  0.6714
  122SOL    HW1  365   2.692   2.453   1.278 -2.9017 -0.7045  2.1462
  122SOL    HW2  366   2.647   2.463   1.444  2.4275 -0.6373  1.2321
  123SOL     OW  367   1.653   0.166   1.693  0.0118  0.5845 -0.5187
  123SOL    HW1  368   1.663   0.086   1.628 -1.3158  2.7382 -0.3491
  123SOL    HW2  369   1.745   0.193   1.730 -2.3754  1.2431 -0.6068
  124SOL     OW  370   3.042   0.416   1.156  0.1751  0.0906  0.5402
  124SOL    HW1  371   2.962   0.459   1.214 -1.4987  1.3864 -1.1719
  124SOL    HW2  372   3.058   0.470   1.067  1.8129  0.6403 -0.2311
  125SOL     OW  373   0.874   1.993   0.733  0.5798 -0.1823  0.2808
  125SOL    HW1  374   0.965   1.951   0.748  1.2698  2.3141  1.5798
  125SOL    HW2  375   0.813   1.972   0.817 -0.8533 -0.5621  0.3592
  126SOL     OW  376   1.884   2.316   2.447  0.2721 -0.2347  0.2564
  126SOL    HW1  377   1.959   2.275   2.391 -0.1862  1.3068 -2.6032
  126SOL    HW2  378   1.873   2.274   2.543 -1.5889  0.2970 -0.1615
  127SOL     OW  379   0.896   0.974   0.176 -0.0872 -0.2162 -0.4195
  127SOL    HW1  380   0.872   1.027   0.261  0.7884  0.0351  0.5824
  127SOL    HW2  381   0.905   0.872   0.195  0.0567  1.4125 -1.7178
  128SOL     OW  382   0.929   0.198   1.416 -0.1787 -0.5455 -0.6067
  128SOL    HW1  383   0.909   0.249   1.334 -0.4996  0.1431 -0.5580
  128SOL    HW2  384   0.903   0.102   1.412  0.2020 -0.6070 -0.9636
  129SOL     OW  385   1.874   0.724   1.848  0.4756  0.5294  0.2151
  129SOL    HW1  386   1.899   0.717   1.743 -0.8621 -3.6103  0.5853
  129SOL    HW2  387   1.912   0.804   1.898  0.6237  1.4779 -1.7716
  130SOL     OW  388   1.363   2.199   1.013  0.4995 -0.9818 -0.0244
  130SOL    HW1  389   1.360   2.154   0.920  1.8635 -1.6747  0.1811
  130SOL    HW2  390   1.417   2.288   1.016  0.6195 -1.6284  1.6027
  131SOL     OW  391   3.046   1.400   1.410 -0.5038 -0.3062  0.0845
  131SOL    HW1  392   2.981   1.318   1.411 -0.2552 -0.5297 -0.2693
  131SOL    HW2  393   3.137   1.364   1.397 -2.7309  2.5219  2.9865
  132SOL     OW  394   2.054   2.426   0.558 -0.2352 -0.0737 -0.0285
  132SOL    HW1  395   1.953   2.450   0.539 -1.8668 -1.1389 -1.4057
  132SOL    HW2  396   2.061   2.350   0.629 -0.4240  0.4743 -1.1483
  133SOL     OW  397   1.756   2.519   2.752  0.2606  0.0653 -0.6124
  133SOL    HW1  398   1.661   2.511   2.708 -2.0022  0.1917  2.3325
  133SOL    HW2  399   1.773   2.603   2.804 -0.1828 -2.2405  0.7740
  134SOL     OW  400   2.629   2.398   1.605 -0.5433  0.1881  0.2631
  134SOL    HW1  401   2.577   2.355   1.689 -0.6591  0.3139  0.2624
  134SOL    HW2  402   2.675   2.492   1.619  0.1959 -0.5046 -2.7497
  135SOL     OW  403   0.819   1.387   2.668 -0.4128 -1.1588 -0.2795
  135SOL    HW1  404   0.729   1.341   2.694  1.6901 -0.1185 -2.1667
  135SOL    HW2  405   0.818   1.401   2.565 -1.4841 -2.6878 -0.5688
  136SOL     OW  406   1.163   1.996   0.398  0.2663 -0.5782 -0.2886
  136SOL    HW1  407   1.109   2.076   0.442 -0.0031  0.9272  1.8853
  136SOL    HW2  408   1.109   1.907   0.391 -0.4704 -1.1096  0.2469
  137SOL     OW  409   0.411   1.219   2.313 -0.1508 -0.4114 -0.4836
  137SOL    HW1  410   0.310   1.209   2.321  2.4936 -1.5600  0.4811
  137SOL    HW2  411   0.458   1.127   2.298  1.7343  0.8904 -2.2232
  138SOL     OW  412   2.453   1.489   0.242  0.0304 -0.4212  0.4937
  138SOL    HW1  413   2.400   1.443   0.161 -0.4092  1.0600 -1.1146
  138SOL    HW2  414   2.490   1.417   0.307 -0.2231  0.5840 -1.1812
  139SOL     OW  415   1.865   2.654   1.578  0.1054 -0.2367 -0.0943
  139SOL    HW1  416   1.784   2.694   1.527 -0.6129 -0.5622  2.0105
  139SOL    HW2  417   1.894   2.563   1.539  5.0528 -1.0701 -0.8095
  140SOL     OW  418   2.995   2.965   2.563  0.2806  0.1340  0.3177
  140SOL    HW1  419   3.042   2.874   2.595 -0.3593 -0.9287  1.5505
  140SOL    HW2  420   3.052   3.051   2.586 -1.7840  3.1039 -0.2361
  141SOL     OW  421   1.322   1.652   1.479  0.0837  0.2222 -0.1570
  141SOL    HW1  422   1.217   1.654   1.471  0.8107 -0.5761  1.0369
  141SOL    HW2  423   1.357   1.603   1.563 -1.5936  2.1242  1.9778
  142SOL     OW  424   1.582   0.677   2.215  0.1662 -0.3971  0.1396
  142SOL    HW1  425   1.584   0.719   2.121 -1.5870  0.3591  1.6958
  142SOL    HW2  426   1.487   0.650   2.234  2.1377  0.5396  0.0931
  143SOL     OW  427   2.746   0.801   0.545  0.1092  0.0249 -0.0497
  143SOL    HW1  428   2.801   0.842   0.464 -0.3867  0.4850 -0.5105
  143SOL    HW2  429   2.765   0.844   0.635 -1.9199 -1.3262 -3.4445
  144SOL     OW  430   2.897   1.152   1.427  0.7146 -0.0211  0.1136
  144SOL    HW1  431   2.822   1.133   1.493  1.7403  0.0692 -0.4921
  144SOL    HW2  432   2.984   1.104   1.453 -0.8938 -3.8869  0.8797
  145SOL     OW  433   0.892   1.758   0.070  0.0179 -0.0873 -1.0392
  145SOL    HW1  434   0.866   1.808  -0.018  0.3968  1.3669 -0.7774
  145SOL    HW2  435   0.833   1.678   0.090  0.9442 -0.3429 -2.3264
  146SOL     OW  436   2.472   0.643   1.517  0.0666  0.2029  0.1787
  146SOL    HW1  437   2.452   0.559   1.465  1.2912 -1.1708  1.4374
  146SOL    HW2  438   2.408   0.723   1.494  0.3242 -0.4108  0.9207
  147SOL     OW  439   1.073   2.480   0.571  0.4113  0.6111  0.1740
  147SOL    HW1  440   1.006   2.540   0.516  1.7931  1.1737 -1.5491
  147SOL    HW2  441   1.159   2.457   0.517 -0.2609 -0.8467 -0.7111
  148SOL     OW  442   1.587   1.446   3.091  0.2417 -0.0678 -0.4364
  148SOL    HW1  443   1.605   1.355   3.041 -0.1544 -0.2129  2.0634
  148SOL    HW2  444   1.583   1.424   3.191  1.5179 -0.1304 -1.5364
  149SOL     OW  445   0.675   1.498   2.004 -0.0614  0.0675  0.3473
  149SOL    HW1  446   0.588   1.463   2.044  2.5441 -0.7639  1.8252
  149SOL    HW2  447   0.682   1.464   1.903 -2.3744 -0.2917 -0.1147
  150SOL     OW  448   3.020   1.203   0.948 -0.5601  0.4636  0.4338
  150SOL    HW1  449   3.098   1.230   1.010  2.5424 -0.1241  1.5849
  150SOL    HW2  450   2.963   1.129   0.988  1.3197  1.5738  0.6062
  151SOL     OW  451   0.136   0.879   2.092  0.3204 -0.4414 -0.1886
  151SOL    HW1  452   0.168   0.971   2.054  2.0957 -0.3798 -0.8137
  151SOL    HW2  453   0.195   0.804   2.056  2.1340  2.2823 -0.3632
  152SOL     OW  454   1.476   1.873   1.114 -0.4752  0.0872  0.0994
  152SOL    HW1  455   1.505   1.972   1.120  2.2129 -3.6147 -0.1611
  152SOL    HW2  456   1.372   1.863   1.118  0.9408  0.2081  0.1887
  153SOL     OW  457   0.115   1.490   0.270 -0.5448 -0.0762  0.1332
  153SOL    HW1  458   0.071   1.394   0.277 -4.2392  0.6834 -0.8429
  153SOL    HW2  459   0.119   1.551   0.356  3.3153 -1.6666 -0.0299
  154SOL     OW  460   2.326   1.839   2.778 -0.9725  0.3997 -0.4380
  154SOL    HW1  461   2.340   1.736   2.773  2.0911 -0.8490  0.1451
  154SOL    HW2  462   2.390   1.881   2.712 -1.3537 -0.9653  1.5259
  155SOL     OW  463   2.514   1.309   0.442  0.9805 -0.3437 -0.0784
  155SOL    HW1  464   2.599   1.297   0.505  1.2003  0.7121  2.1087
  155SOL    HW2  465   2.472   1.219   0.412  3.3505 -1.5476  1.5821
  156SOL     OW  466   2.463   0.784   0.771  0.2833 -0.2891  0.1822
  156SOL    HW1  467   2.365   0.758   0.775  2.1870  0.0902 -1.6149
  156SOL    HW2  468   2.468   0.867   0.708 -1.7917 -0.8521 -1.2298
  157SOL     OW  469   1.268   3.093   3.060 -0.1722  0.0740 -0.1846
  157SOL    HW1  470   1.334   3.033   3.003 -1.0490 -2.4884 -3.8675
  157SOL    HW2  471   1.290   3.193   3.075 -3.1846  0.9365  1.9153
  158SOL     OW  472   1.073   1.908   1.850 -0.0101 -0.8016  0.0067
  158SOL    HW1  473   1.071   2.003   1.805 -1.6036  2.6321  0.1557
  158SOL    HW2  474   0.974   1.881   1.881  0.8604 -1.1786  1.4883
  159SOL     OW  475   0.779   0.408   1.252  0.5706 -0.5855 -0.7093
  159SOL    HW1  476   0.724   0.489   1.288  0.6641  0.0120  2.0407
  159SOL    HW2  477   0.736   0.366   1.171 -0.6480 -0.9515  2.3354
  160SOL     OW  478   1.416   2.478   1.423 -0.6346  0.0022 -0.4819
  160SOL    HW1  479   1.370   2.408   1.487 -0.4164 -2.0475 -3.0223
  160SOL    HW2  480   1.510   2.442   1.394  0.2214  0.2597  1.9465
  161SOL     OW  481   0.034   2.644   0.427  0.5059  0.1618 -0.2754
  161SOL    HW1  482  -0.011   2.556   0.421  0.9314  4.3418  0.2803
  161SOL    HW2  483  -0.021   2.714   0.378 -0.4132  0.9013  1.8577
  162SOL     OW  484   2.525   1.911   0.480 -0.1564  0.3421 -0.7908
  162SOL    HW1  485   2.555   1.919   0.384  2.5572  2.9585  0.4311
  162SOL    HW2  486   2.476   1.823   0.496  1.8359  1.4278  3.2771
  163SOL     OW  487   1.984   2.734   0.759 -0.0099  0.1955 -0.1317
  163SOL    HW1  488   1.966   2.748   0.657 -0.5181  0.7186  2.7235
  163SOL    HW2  489   2.049   2.655   0.783 -1.0978  0.2442  1.0093
  164SOL     OW  490  -0.003   0.125   1.233  0.0653  0.1245  0.2395
  164SOL    HW1  491   0.009   0.225   1.209 -0.8652 -2.3496  0.7373
  164SOL    HW2  492   0.050   0.101   1.318 -3.0382 -2.4411 -1.3086
  165SOL     OW  493   1.110   1.434   0.614  0.3786 -0.5303  0.4361
  165SOL    HW1  494   1.072   1.509   0.678 -0.1268  2.6511 -1.9260
  165SOL    HW2  495   1.059   1.444   0.522 -2.2668 -3.5770  2.0488
  166SOL     OW  496   1.520   0.989   1.847  0.0556 -0.5167  0.4185
  166SOL    HW1  497   1.423   1.015   1.876  1.6610 -1.7902  1.8294
  166SOL    HW2  498   1.579   1.063   1.807 -0.1355 -1.7665 -0.7671
  167SOL     OW  499   0.665   2.006   1.530 -0.0404  0.1136 -0.4277
  167SOL    HW1  500   0.686   2.070   1.606  1.5949 -1.7940  0.6488
  167SOL    HW2  501   0.636   1.913   1.564  2.2906 -1.8494  0.6548
  168SOL     OW  502   1.615   2.289   0.131  0.0120 -0.0007 -0.3963
  168SOL    HW1  503   1.692   2.275   0.064 -0.2859 -0.7865  2.6792
  168SOL    HW2  504   1.651   2.284   0.229 -0.4513 -0.5978 -0.5453
  169SOL     OW  505   3.075   2.600   2.179 -0.4612  0.3378  0.5805
  169SOL    HW1  506   3.085   2.535   2.099 -0.0145  1.4405 -2.2149
  169SOL    HW2  507   3.132   2.575   2.264 -0.7127  1.6492  0.0474
  170SOL     OW  508   1.161   0.126   2.088  0.5538 -0.0039  0.8878
  170SOL    HW1  509   1.253   0.152   2.126  1.0675  1.7202 -1.7459
  170SOL    HW2  510   1.159   0.153   1.985 -1.6623  0.8749 -0.8036
  171SOL     OW  511   0.184   0.864   2.426  0.7890 -0.1008  0.1482
  171SOL    HW1  512   0.082   0.848   2.443 -1.7837  0.1002 -0.4814
  171SOL    HW2  513   0.192   0.918   2.342 -1.1331 -0.7856  0.3913
  172SOL     OW  514   0.989   0.976   2.815 -0.7516 -0.1852 -0.6236
  172SOL    HW1  515   0.944   1.022   2.898  2.1621 -0.3518  2.4206
  172SOL    HW2  516   0.946   1.006   2.728  0.8335 -0.8151  0.3157
  173SOL     OW  517   0.355   2.579   0.031 -0.5137 -0.4118 -0.1770
  173SOL    HW1  518   0.413   2.526  -0.032  2.2382 -1.0724 -0.3281
  173SOL    HW2  519   0.374   2.550   0.125 -1.1550  0.2126  1.8366
  174SOL     OW  520   1.470   2.874   1.033  0.0703 -0.1356 -0.4380
  174SOL    HW1  521   1.561   2.913   1.002  0.5542  1.9735 -0.0979
  174SOL    HW2  522   1.437   2.794   0.976  2.0859  0.7326 -0.1258
  175SOL     OW  523   0.494   3.032   1.725  0.4136 -0.4017 -0.0700
  175SOL    HW1  524   0.536   3.036   1.823  1.1774  0.3425  1.4073
  175SOL    HW2  525   0.449   3.121   1.692 -0.4794  0.4438 -1.1799
  176SOL     OW  526   2.619   0.466   3.072 -0.5408 -0.2178 -0.0755
  176SOL    HW1  527   2.593   0.556   3.121  1.5474  1.4909  0.1862
  176SOL    HW2  528   2.652   0.386   3.130 -2.0353 -1.1571 -1.4224
  177SOL     OW  529   0.379   0.237   0.840 -0.3879 -0.6754 -0.4912
  177SOL    HW1  530   0.321   0.149   0.860 -0.4860 -2.3609  0.4025
  177SOL    HW2  531   0.481   0.233   0.841 -1.0471 -2.8414 -0.9844
  178SOL     OW  532   3.095   2.722   2.676  0.1985 -0.3094 -0.2441
  178SOL    HW1  533   3.079   2.624   2.657 -0.4440  1.8174  0.2658
  178SOL    HW2  534   3.195   2.744   2.693  0.8974 -4.0764 -0.6913
  179SOL     OW  535   2.968   1.598   1.224 -0.1539 -0.7284  0.6295
  179SOL    HW1  536   3.021   1.590   1.134 -0.6074  1.0039  2.0416
  179SOL    HW2  537   2.998   1.539   1.301 -1.6411 -1.8085 -0.1052
  180SOL     OW  538   0.278   1.419   1.745  0.3964 -0.2083  0.3199
  180SOL    HW1  539   0.349   1.356   1.778  1.3938  0.8241 -0.4301
  180SOL    HW2  540   0.199   1.424   1.816  0.1729 -2.3691 -1.4974
  181SOL     OW  541   2.996   1.773   2.475  0.4237 -0.5631 -0.1729
  181SOL    HW1  542   2.982   1.759   2.375  0.6759 -1.3976  0.9592
  181SOL    HW2  543   2.920   1.767   2.543  0.3749 -1.6000  0.5943
  182SOL     OW  544   2.213   1.376   1.186 -0.8598 -0.1321  0.0551
  182SOL    HW1  545   2.205   1.272   1.198 -0.5983  2.3777  1.6998
  182SOL    HW2  546   2.302   1.397   1.138 -0.7826  1.2777 -1.6514
  183SOL     OW  547   1.458   2.228   2.417 -0.0016  0.0409  0.2627
  183SOL    HW1  548   1.378   2.163   2.438  0.1379 -0.8602 -0.4585
  183SOL    HW2  549   1.553   2.180   2.403  2.2140  0.0478  0.3810
  184SOL     OW  550   2.177   0.791   0.730 -0.0114 -0.0137 -0.0370
  184SOL    HW1  551   2.087   0.834   0.762 -1.1778  0.5316  2.5506
  184SOL    HW2  552   2.177   0.688   0.752  0.8541 -3.9572 -2.0868
  185SOL     OW  553   1.586   2.782   2.002  0.1565 -0.3781  0.0950
  185SOL    HW1  554   1.496   2.832   2.011 -0.6685 -1.2976  1.4098
  185SOL    HW2  555   1.631   2.756   2.094  2.3267  0.2805  0.3379
  186SOL     OW  556   0.049   2.195   1.778 -0.8919 -0.0712 -0.4814
  186SOL    HW1  557   0.013   2.241   1.865 -0.2380 -0.2137  1.8504
  186SOL    HW2  558   0.139   2.145   1.792  1.9843  1.0844  3.1195
  187SOL     OW  559   1.319   0.704   1.635  0.2191  0.1528 -0.6268
  187SOL    HW1  560   1.411   0.754   1.617 -0.8141 -0.7093  2.0701
  187SOL    HW2  561   1.325   0.598   1.634 -1.5755 -2.3101  1.9942
  188SOL     OW  562   2.689   2.684   1.584 -0.0419  0.5992  0.3968
  188SOL    HW1  563   2.691   2.769   1.641 -1.8364 -2.6155 -1.6977
  188SOL    HW2  564   2.687   2.708   1.483 -0.9367 -0.0742  0.2465
  189SOL     OW  565   0.927   1.211   1.343 -0.5431 -0.5702  0.2099
  189SOL    HW1  566   0.957   1.252   1.433 -0.0214  0.4569  0.3971
  189SOL    HW2  567   0.871   1.277   1.286 -0.0716  2.2036  1.7536
  190SOL     OW  568   1.449   1.882   1.523 -0.2037 -0.5554  0.5186
  190SOL    HW1  569   1.400   1.789   1.505 -0.1982  0.4476 -1.0739
  190SOL    HW2  570   1.445   1.907   1.624 -0.3146 -3.8047 -1.5076
  191SOL     OW  571   0.852   0.781   1.501 -0.2455 -0.1253 -0.0986
  191SOL    HW1  572   0.896   0.708   1.556  2.6130 -2.5194 -1.9887
  191SOL    HW2  573   0.928   0.833   1.456 -1.5786 -2.6474  0.9398
  192SOL     OW  574   1.827   2.439   1.117  0.1755  0.0009  0.5126
  192SOL    HW1  575   1.724   2.437   1.124  1.9929  0.4081  1.2587
  192SOL    HW2  576   1.880   2.346   1.096 -2.0424  2.9480 -0.9576
  193SOL     OW  577   0.526   0.553   0.408 -0.6650 -0.9995 -0.4896
  193SOL    HW1  578   0.462   0.470   0.403  1.0639  0.3567 -0.2210
  193SOL    HW2  579   0.587   0.551   0.327 -1.8163 -1.1922  1.2355
  194SOL     OW  580   0.392   0.829   1.280  0.2014  0.1422 -0.2513
  194SOL    HW1  581   0.292   0.800   1.292 -0.9052  1.0391  0.2276
  194SOL    HW2  582   0.411   0.845   1.183 -1.3434 -0.0312 -1.3651
  195SOL     OW  583   1.042   2.944   0.528  0.2839 -0.1434  0.0517
  195SOL    HW1  584   1.029   2.852   0.483  0.3380  0.1649  0.5316
  195SOL    HW2  585   1.138   2.981   0.524 -0.5465  1.2216  2.4919
  196SOL     OW  586   0.233   1.408   1.307 -0.2130 -0.2754 -0.4129
  196SOL    HW1  587   0.286   1.496   1.305 -0.8640  1.6941 -2.7550
  196SOL    HW2  588   0.263   1.341   1.380  1.0052  2.3889  1.9987
  197SOL     OW  589   0.818   1.938   0.270 -0.8989 -0.3705 -0.2387
  197SOL    HW1  590   0.855   1.917   0.363 -2.0137 -0.1618 -1.5536
  197SOL    HW2  591   0.869   1.890   0.191  0.1095 -0.2883 -1.0831
  198SOL     OW  592   0.269   1.206   0.344 -0.0317  0.2320  0.0330
  198SOL    HW1  593   0.169   1.203   0.316  1.5395 -1.2682  0.9177
  198SOL    HW2  594   0.293   1.291   0.399  0.2633  0.0078 -2.1139
  199SOL     OW  595   2.227   0.424   2.616 -0.1421 -0.2882  0.7179
  199SOL    HW1  596   2.161   0.373   2.683 -1.2886 -2.4112 -1.5757
  199SOL    HW2  597   2.330   0.419   2.643  0.5416  0.5380  0.9734
  200SOL     OW  598   3.058   2.887   0.799  0.6772  0.0172  0.2938
  200SOL    HW1  599   3.081   2.982   0.837  0.9636 -0.3948 -1.4029
  200SOL    HW2  600   2.976   2.885   0.736 -0.9106  0.0305  0.9498
  201SOL     OW  601   0.911   0.696   0.537  0.1900 -0.4253  0.5732
  201SOL    HW1  602   0.888   0.776   0.591  1.6240  0.8428 -1.3023
  201SOL    HW2  603   0.858   0.612   0.564  0.5244  1.5261  0.3179
  202SOL     OW  604   0.452   1.238   1.900 -0.5361  0.7680  0.4300
  202SOL    HW1  605   0.540   1.217   1.847  0.9682 -0.1533  0.8828
  202SOL    HW2  606   0.468   1.278   1.998 -2.0125  1.2031  0.4923
  203SOL     OW  607   0.677   0.179   1.562 -0.4902 -0.2929 -0.3951
  203SOL    HW1  608   0.658   0.101   1.495 -0.4165 -0.0307  0.1623
  203SOL    HW2  609   0.778   0.195   1.583  1.1172  0.5885  1.5846
  204SOL     OW  610   2.088   1.829   2.939 -0.2427  0.5976  0.4462
  204SOL    HW1  611   2.052   1.728   2.937 -1.2050 -1.6269  0.9867
  204SOL    HW2  612   2.157   1.856   2.861  0.5375 -0.6854 -2.9807
  205SOL     OW  613   1.833   1.901   3.041 -0.2701 -0.0901 -0.4949
  205SOL    HW1  614   1.927   1.874   3.014 -0.8970 -0.3082 -0.5156
  205SOL    HW2  615   1.791   1.955   2.963 -0.0108 -1.4080  1.8081
  206SOL     OW  616   2.367   2.699   0.277  0.1615  0.1348 -0.5217
  206SOL    HW1  617   2.337   2.660   0.372 -0.0747  2.4235 -1.2526
  206SOL    HW2  618   2.469   2.711   0.262 -0.7136 -1.6580  1.1414
  207SOL     OW  619   0.692   1.750   2.939  0.4419  0.1252 -0.3039
  207SOL    HW1  620   0.779   1.709   2.899 -0.3903 -0.5164  1.4515
  207SOL    HW2  621   0.646   1.679   3.000  3.3072 -0.1884  1.9510
  208SOL     OW  622   0.991   1.559   1.253 -0.0702  0.1726 -0.5432
  208SOL    HW1  623   0.912   1.584   1.191 -0.0697  0.6482 -1.7451
  208SOL    HW2  624   0.974   1.576   1.354  1.9806  1.0311 -1.9546
  209SOL     OW  625   0.230   0.986   3.054 -0.3850  0.0236  0.2905
  209SOL    HW1  626   0.272   0.918   2.984  1.8791 -0.2389 -3.5097
  209SOL    HW2  627   0.170   0.946   3.125  0.5775  1.7342  1.5768
  210SOL     OW  628   1.671   0.568   1.296  0.2910  0.3470 -0.3090
  210SOL    HW1  629   1.578   0.597   1.252 -1.1673 -0.4630 -0.9745
  210SOL    HW2  630   1.754   0.608   1.253 -0.5779  1.4508 -1.1559
  211SOL     OW  631   2.199   1.030   1.577 -0.3592  0.6424  0.3529
  211SOL    HW1  632   2.201   1.049   1.677 -0.2597 -0.8545  1.5625
  211SOL    HW2  633   2.209   1.119   1.522  0.3029 -2.3840 -0.8906
  212SOL     OW  634   0.037   1.039   1.496 -0.1682 -0.0772 -0.2129
  212SOL    HW1  635   0.123   1.102   1.499  1.7342 -0.4802  1.8708
  212SOL    HW2  636   0.051   0.950   1.550  0.2501 -1.7978  0.1391
  213SOL     OW  637   2.830   0.039   0.374 -0.3790 -0.3652 -0.1972
  213SOL    HW1  638   2.930   0.018   0.345 -1.5336 -1.8546  0.9279
  213SOL    HW2  639   2.757   0.005   0.309  3.0277  1.8545  0.1314
  214SOL     OW  640   2.157   0.342   2.352 -0.2220 -0.0358 -0.0742
  214SOL    HW1  641   2.193   0.372   2.449 -0.4099 -3.0885 -0.3710
  214SOL    HW2  642   2.128   0.244   2.352  0.5156  0.2665  0.0847
  215SOL     OW  643   1.668   2.268   2.082  0.4454  0.2680  0.0086
  215SOL    HW1  644   1.764   2.302   2.086  1.1540  0.2023  2.2128
  215SOL    HW2  645   1.591   2.335   2.091  0.4292 -0.5978  1.3225
  216SOL     OW  646   2.263   0.513   0.766  0.5883 -0.1215  0.0542
  216SOL    HW1  647   2.242   0.464   0.676 -1.1463  0.3093  1.1341
  216SOL    HW2  648   2.355   0.481   0.805  5.0386 -0.3466  1.2416
  217SOL     OW  649   0.931   2.749   2.567 -0.6452 -0.0158  0.4714
  217SOL    HW1  650   0.946   2.674   2.636 -1.4376  4.3244 -1.2464
  217SOL    HW2  651   0.878   2.715   2.480  0.6863 -2.5397 -2.0077
  218SOL     OW  652   1.880   1.407   0.024 -0.0006 -0.2985 -0.0820
  218SOL    HW1  653   1.778   1.411   0.010  0.5613  1.4464  2.2618
  218SOL    HW2  654   1.915   1.316   0.065  2.8815 -0.1646 -0.7204
  219SOL     OW  655   2.441   1.266   2.500 -0.0688 -0.4919 -0.1785
  219SOL    HW1  656   2.453   1.212   2.411  0.8118  1.2419 -0.3230
  219SOL    HW2  657   2.441   1.207   2.585 -0.2508 -1.1800 -0.2319
  220SOL     OW  658   1.406   1.017   1.330  0.5899  0.1205  0.1127
  220SOL    HW1  659   1.492   0.959   1.334  1.5946 -0.6356 -1.4203
  220SOL    HW2  660   1.393   1.067   1.240  1.4819  0.2046 -1.3884
  221SOL     OW  661   1.346   0.933   2.197  0.0197  0.5515  0.0409
  221SOL    HW1  662   1.339   0.947   2.095 -2.2147  0.3905 -2.2682
  221SOL    HW2  663   1.420   0.997   2.239 -1.0848 -0.6308 -1.4755
  222SOL     OW  664   1.157   0.053   1.205 -0.4551 -0.3537 -0.2671
  222SOL    HW1  665   1.212   0.063   1.291  0.7535 -0.6669 -0.7334
  222SOL    HW2  666   1.169   0.132   1.137  2.1537 -1.2269 -0.6585
  223SOL     OW  667   2.729   0.953   2.133 -0.0181  0.5904 -0.1735
  223SOL    HW1  668   2.728   1.057   2.130 -0.2777  2.1447  1.2493
  223SOL    HW2  669   2.805   0.923   2.196 -0.3637  0.4741  1.3163
  224SOL     OW  670   1.507   0.990   2.824 -0.5258  0.2885  0.3284
  224SOL    HW1  671   1.500   0.913   2.760 -0.5338 -0.3296  0.7430
  224SOL    HW2  672   1.548   1.073   2.773  0.9640 -3.0209 -0.0512
  225SOL     OW  673   2.956   2.677   2.913 -0.1760 -0.1213 -0.3992
  225SOL    HW1  674   2.876   2.647   2.853 -2.7784 -2.0381 -1.7221
  225SOL    HW2  675   3.030   2.730   2.863 -1.6303 -0.6508 -1.5576
  226SOL     OW  676   2.417   1.577   2.781 -0.3866  0.1812  0.4930
  226SOL    HW1  677   2.488   1.573   2.705 -0.5303  0.7399  2.3046
  226SOL    HW2  678   2.456   1.534   2.867  2.1588  2.5533 -1.1059
  227SOL     OW  679   0.898   0.257   3.054  0.4363 -0.6637 -0.3658
  227SOL    HW1  680   0.965   0.328   3.013  0.6095 -1.6357 -1.1459
  227SOL    HW2  681   0.842   0.205   2.980  1.0306  0.2714 -0.1903
  228SOL     OW  682   2.432   0.662   2.865  0.1392  0.1523 -0.0531
  228SOL    HW1  683   2.463   0.720   2.788  0.3726 -3.0390  0.5128
  228SOL    HW2  684   2.516   0.621   2.908 -1.2528 -1.4116  1.6601
  229SOL     OW  685   0.564   0.614   1.834  1.0235  0.6916  0.3612
  229SOL    HW1  686   0.632   0.630   1.907  0.6861 -0.5974 -3.5140
  229SOL    HW2  687   0.589   0.535   1.771  1.0891 -1.0951  0.6629
  230SOL     OW  688   1.885   1.228   1.937 -0.0656 -0.2827 -0.4601
  230SOL    HW1  689   1.945   1.308   1.899 -1.1112 -0.4615 -0.5745
  230SOL    HW2  690   1.832   1.256   2.021  2.3898  0.3201 -0.1973
  231SOL     OW  691   0.633   1.089   3.071  0.8612 -0.2096  0.1206
  231SOL    HW1  692   0.715   1.142   3.049 -0.5134 -0.2557 -2.5916
  231SOL    HW2  693   0.559   1.149   3.121 -1.8464 -0.2255  2.4042
  232SOL     OW  694   2.406   2.998   2.802  0.4649 -0.6770  0.0591
  232SOL    HW1  695   2.470   2.915   2.807  0.8239  0.1384 -1.2740
  232SOL    HW2  696   2.447   3.084   2.758 -1.7516 -0.2499 -1.2585
  233SOL     OW  697   1.805   1.169   1.099  0.2867 -0.0264  0.3029
  233SOL    HW1  698   1.882   1.200   1.039  0.1811 -1.1735  0.1663
  233SOL    HW2  699   1.824   1.074   1.132  0.8068 -1.1717 -0.6440
  234SOL     OW  700   1.649   2.505   1.828  0.7801 -0.3750 -0.4744
  234SOL    HW1  701   1.608   2.562   1.906 -2.6972 -0.7758  0.8169
  234SOL    HW2  702   1.587   2.430   1.797 -0.1826  1.8795  3.5350
  235SOL     OW  703   0.021   3.000   2.844  0.4300  0.7310  0.5628
  235SOL    HW1  704  -0.049   2.984   2.772 -0.1136  0.8978  1.8667
  235SOL    HW2  705  -0.022   3.023   2.937  2.6151 -0.0074  0.6539
  236SOL     OW  706   2.905   0.699   0.073 -0.4821  0.5085 -0.0013
  236SOL    HW1  707   2.968   0.719   0.151 -0.7083  0.0966  0.0361
  236SOL    HW2  708   2.947   0.632   0.008 -1.1830 -1.7549 -0.8634
  237SOL     OW  709   1.533   1.689   0.886  0.4968  0.3473  0.0225
  237SOL    HW1  710   1.634   1.655   0.881  0.6982  0.8525  1.9511
  237SOL    HW2  711   1.518   1.776   0.935  0.8644 -1.0421  0.4269
  238SOL     OW  712   1.892   1.173   0.758  0.2819 -0.5318  0.0340
  238SOL    HW1  713   1.941   1.223   0.831  1.0880  1.8651  1.4650
  238SOL    HW2  714   1.793   1.205   0.752  1.0985 -0.8603 -2.1784
  239SOL     OW  715   1.989   0.249   2.783 -0.0411  0.4218  0.0809
  239SOL    HW1  716   2.034   0.216   2.867 -0.9279 -0.4024 -0.4870
  239SOL    HW2  717   1.899   0.301   2.807  1.6654 -0.7306  2.1937
  240SOL     OW  718   0.944   0.696   0.239 -0.1208  0.1069  0.0640
  240SOL    HW1  719   1.023   0.644   0.199  0.6934 -1.6737  1.0613
  240SOL    HW2  720   0.942   0.716   0.340 -1.6460  0.8203 -0.0205
  241SOL     OW  721   0.583   0.106   0.320  0.2648 -0.4884  0.3632
  241SOL    HW1  722   0.655   0.171   0.288  1.3594 -1.3436 -0.2888
  241SOL    HW2  723   0.568   0.026   0.256  0.3304  0.2897  2.5553
  242SOL     OW  724   0.597   2.603   1.184 -0.5491  0.4758 -0.2750
  242SOL    HW1  725   0.612   2.592   1.292  1.0447 -1.3410  1.6876
  242SOL    HW2  726   0.571   2.700   1.154  0.0211  5.5993 -0.3761
  243SOL     OW  727   1.080   0.634   2.413  0.1090 -0.1250  0.4411
  243SOL    HW1  728   0.980   0.664   2.376 -0.1754  0.0194 -1.3918
  243SOL    HW2  729   1.071   0.566   2.490 -0.3914 -0.5318 -1.2992
  244SOL     OW  730   2.696   1.965   2.371  0.4662 -0.1149  0.2739
  244SOL    HW1  731   2.742   1.956   2.281 -1.4086  1.3149  2.4175
  244SOL    HW2  732   2.635   1.887   2.398  0.9566  0.3977 -0.1693
  245SOL     OW  733   2.096   1.016   2.219 -0.2817 -0.3086 -0.4626
  245SOL    HW1  734   2.196   1.011   2.234 -1.2131 -1.3849  0.1178
  245SOL    HW2  735   2.054   1.100   2.263 -0.5094 -0.4763  0.5551
  246SOL     OW  736   0.299   2.842   1.794 -0.4545  0.0358  0.3342
  246SOL    HW1  737   0.212   2.838   1.741  0.8443  3.0243  1.2427
  246SOL    HW2  738   0.383   2.883   1.742  0.7758  1.3339  1.3331
  247SOL     OW  739   2.239   0.567   3.025 -0.1110 -0.4405  0.6960
  247SOL    HW1  740   2.322   0.591   2.964  3.6480  2.4713  1.3177
  247SOL    HW2  741   2.160   0.640   3.021 -0.4825  0.2039 -1.0673
  248SOL     OW  742   2.202   1.823   1.613 -0.4832  0.5939  0.3226
  248SOL    HW1  743   2.271   1.763   1.671  2.7599 -1.9885  0.4290
  248SOL    HW2  744   2.105   1.813   1.640  2.0356  0.2228  0.5180
  249SOL     OW  745   1.900   1.921   1.829 -0.2316 -0.1321  0.7062
  249SOL    HW1  746   1.919   1.863   1.747 -0.5105  0.2682 -0.3979
  249SOL    HW2  747   1.986   1.954   1.876 -0.4184 -0.0214 -0.5708
  250SOL     OW  748   0.949   0.709   1.876  0.3017 -0.4910  0.3605
  250SOL    HW1  749   0.999   0.652   1.948 -0.4527 -2.1189 -0.3152
  250SOL    HW2  750   0.953   0.672   1.782  2.7593 -2.0077 -1.6330
  251SOL     OW  751   3.040   1.525   2.600  0.6577  0.2436  0.9471
  251SOL    HW1  752   3.029   1.626   2.576 -1.8169  0.5790 -0.6909
  251SOL    HW2  753   2.977   1.469   2.537  1.0324  0.3574 -0.5852
  252SOL     OW  754   1.556   0.835   1.592 -0.5549 -0.2807  0.3683
  252SOL    HW1  755   1.620   0.859   1.512  0.1603  0.4388 -0.1264
  252SOL    HW2  756   1.564   0.894   1.677 -1.9498 -0.8640  0.7132
  253SOL     OW  757   0.948   1.502   0.410  0.1226 -0.2974  0.5224
  253SOL    HW1  758   0.921   1.453   0.319 -0.0962 -0.5730 -3.8366
  253SOL    HW2  759   0.872   1.514   0.480 -0.4923  1.9655  2.5566
  254SOL     OW  760   2.046   2.176   1.646 -0.4037 -0.0355  0.1898
  254SOL    HW1  761   2.003   2.103   1.585 -0.0712  1.9832 -1.9109
  254SOL    HW2  762   1.975   2.240   1.690 -2.8210 -0.0118  2.6029
  255SOL     OW  763   0.105   1.188   2.916 -0.2597  0.1482 -0.3963
  255SOL    HW1  764   0.150   1.283   2.889 -0.8326 -0.4998  0.0802
  255SOL    HW2  765   0.165   1.120   2.962 -3.3568 -0.6664  1.8730
  256SOL     OW  766   2.800   1.411   1.760 -0.2593 -0.1738 -0.2527
  256SOL    HW1  767   2.704   1.445   1.764 -3.1404 -2.7657  2.5494
  256SOL    HW2  768   2.808   1.309   1.741  0.7493  2.1149  0.7571
  257SOL     OW  769   0.858   0.245   1.869 -0.9631  0.0055 -0.1832
  257SOL    HW1  770   0.932   0.277   1.795  0.3000 -1.0091 -0.3372
  257SOL    HW2  771   0.844   0.147   1.867  1.5527  4.6913 -0.1184
  258SOL     OW  772   2.961   1.167   0.513  0.0857 -0.2760 -0.3141
  258SOL    HW1  773   2.876   1.219   0.556 -2.6314  3.1590 -3.5177
  258SOL    HW2  774   3.049   1.212   0.551 -0.6170  0.9946 -0.0286
  259SOL     OW  775   0.486   2.944   3.005  0.5700  0.2887 -0.7845
  259SOL    HW1  776   0.396   2.913   3.042 -0.9335  2.9345  3.1704
  259SOL    HW2  777   0.501   2.902   2.910 -0.0311 -0.9923  1.0590
  260SOL     OW  778   2.750   0.750   2.777  0.1134 -0.3010  0.5694
  260SOL    HW1  779   2.688   0.822   2.741  0.4138 -2.3594 -0.8701
  260SOL    HW2  780   2.704   0.659   2.786  0.4217  2.0553  2.4285
  261SOL     OW  781   2.678   1.264   1.312 -1.0749  0.1826 -0.5202
  261SOL    HW1  782   2.614   1.244   1.234 -0.6271 -3.0844  2.1021
  261SOL    HW2  783   2.752   1.192   1.317 -0.8216 -0.2270 -0.8489
  262SOL     OW  784   1.381   2.975   2.062  0.4963  0.2049  0.3959
  262SOL    HW1  785   1.442   3.046   2.019  1.4182 -0.3941 -3.1770
  262SOL    HW2  786   1.292   2.960   2.007  0.1545  1.5773 -0.4617
  263SOL     OW  787   0.813   0.628   2.301  0.0414 -0.0582  0.2949
  263SOL    HW1  788   0.775   0.539   2.259 -1.5635 -2.5718 -0.6742
  263SOL    HW2  789   0.843   0.696   2.228  1.1108 -1.0192  1.0980
  264SOL     OW  790   2.273   0.807   0.412 -0.0028 -0.6502  0.0125
  264SOL    HW1  791   2.292   0.722   0.356 -0.7687 -0.2714  0.5964
  264SOL    HW2  792   2.360   0.857   0.441 -1.4660  2.0084  1.9520
  265SOL     OW  793   0.904   2.378   2.608 -0.5388 -0.8653 -0.0848
  265SOL    HW1  794   0.972   2.435   2.665 -2.5023 -1.5676 -1.6079
  265SOL    HW2  795   0.837   2.338   2.672 -1.1413 -1.1275  1.4916
  266SOL     OW  796   1.282   1.794   3.055 -0.3711  0.1367 -0.0760
  266SOL    HW1  797   1.257   1.835   3.150 -1.3323  1.2155  2.8143
  266SOL    HW2  798   1.387   1.775   3.052  0.4349  1.5310 -1.5153
  267SOL     OW  799   1.091   0.008   2.331  0.0282 -0.4502 -0.1898
  267SOL    HW1  800   1.019  -0.062   2.304 -2.7063 -3.8920 -0.1591
  267SOL    HW2  801   1.118   0.064   2.247  4.4403  1.9056  1.3917
  268SOL     OW  802   0.864   1.284   1.063  0.3398  0.6060  0.1557
  268SOL    HW1  803   0.776   1.319   1.105 -2.7045 -0.0329  0.2354
  268SOL    HW2  804   0.922   1.360   1.024 -1.2098 -0.3837 -0.2140
  269SOL     OW  805   2.373   2.544   1.590 -0.3779 -0.0033  0.1792
  269SOL    HW1  806   2.476   2.520   1.579 -0.0993  0.0069  4.6997
  269SOL    HW2  807   2.359   2.604   1.677 -0.6043  1.1533 -1.1844
  270SOL     OW  808   0.150   2.989   1.985 -0.2594 -0.0020  0.2739
  270SOL    HW1  809   0.214   2.931   1.931 -2.9187  1.7805 -1.3737
  270SOL    HW2  810   0.112   2.940   2.071 -0.5099  0.1879  2.4056
  271SOL     OW  811   0.460   1.381   1.111  0.0797  0.1901 -0.3698
  271SOL    HW1  812   0.448   1.368   1.011 -0.2860  0.9411 -0.4089
  271SOL    HW2  813   0.384   1.340   1.168  0.1801 -0.1358  0.0900
  272SOL     OW  814   1.877   3.085   1.933 -0.2060 -0.3052  0.1471
  272SOL    HW1  815   1.845   2.996   1.891 -2.3755  0.3730  1.1042
  272SOL    HW2  816   1.873   3.172   1.875  0.3881 -1.4666 -0.3211
  273SOL     OW  817   1.470   1.463   2.845 -0.1732  0.0906  0.8325
  273SOL    HW1  818   1.371   1.452   2.821 -0.0548 -1.2031 -0.9187
  273SOL    HW2  819   1.488   1.474   2.948  0.2936 -0.5895  0.6206
  274SOL     OW  820   1.122   0.565   2.060  0.7703  1.1491  0.0239
  274SOL    HW1  821   1.046   0.504   2.099 -1.3418  3.9196 -1.0435
  274SOL    HW2  822   1.210   0.573   2.122  1.2082  0.3127  0.1815
  275SOL     OW  823   0.658   2.099   1.929  0.2419 -0.4311  0.3389
  275SOL    HW1  824   0.637   2.192   1.971  0.2017  0.2150 -1.3498
  275SOL    HW2  825   0.577   2.033   1.934  1.7110 -0.9993  3.1273
  276SOL     OW  826   2.238   0.941   2.864  0.8450  0.2183  0.1725
  276SOL    HW1  827   2.149   0.974   2.812  0.9764  1.3244 -0.0614
  276SOL    HW2  828   2.243   0.837   2.869 -2.5766  0.4156  2.2491
  277SOL     OW  829  -0.002   0.747   0.261 -0.0699  0.2914 -0.4411
  277SOL    HW1  830   0.087   0.799   0.245 -1.8662  0.9414  1.5756
  277SOL    HW2  831   0.016   0.671   0.330  1.2591 -0.2158 -1.6409
  278SOL     OW  832   0.278   0.222   3.023  1.0073 -0.3205 -0.0868
  278SOL    HW1  833   0.359   0.168   2.986  0.0608  1.7209 -0.8481
  278SOL    HW2  834   0.305   0.318   3.043  1.3284 -0.4493  0.3216
  279SOL     OW  835   0.276   3.068   0.906 -0.2214 -0.1446 -0.6861
  279SOL    HW1  836   0.297   3.053   1.006 -1.5562  0.6125 -1.3972
  279SOL    HW2  837   0.255   2.979   0.848 -2.7974 -1.0042  0.1961
  280SOL     OW  838   1.584   2.905   2.423 -0.1001 -0.5229  0.1828
  280SOL    HW1  839   1.649   2.978   2.462 -4.7842  1.0314 -0.4557
  280SOL    HW2  840   1.507   2.950   2.373 -2.2583 -0.5754  0.2303
  281SOL     OW  841   0.565   0.938   2.328  0.5327 -0.1428  0.7501
  281SOL    HW1  842   0.555   0.845   2.278 -0.6778 -2.0480 -0.0866
  281SOL    HW2  843   0.550   0.940   2.435 -2.8312  2.2948  2.2511
  282SOL     OW  844   1.786   2.464   0.551 -0.3302  0.0838  0.0510
  282SOL    HW1  845   1.739   2.379   0.518  1.5919  2.2238  0.5131
  282SOL    HW2  846   1.745   2.554   0.514  2.2201 -0.0457  2.0488
  283SOL     OW  847   1.169   0.923   0.783  0.6235  0.1703  0.8321
  283SOL    HW1  848   1.177   0.883   0.882  0.2881  0.7081  1.5424
  283SOL    HW2  849   1.153   1.028   0.788 -0.3772 -0.1160  0.1665
  284SOL     OW  850   2.240   2.818   2.462  0.0138  0.1558  0.0965
  284SOL    HW1  851   2.338   2.844   2.439 -0.3852 -1.8210 -0.7427
  284SOL    HW2  852   2.209   2.821   2.565 -2.4116  0.5303 -0.8423
  285SOL     OW  853   1.317   3.041   2.623 -0.2660  0.0635 -0.1779
  285SOL    HW1  854   1.329   3.018   2.521 -0.6846 -1.0757 -0.3301
  285SOL    HW2  855   1.262   3.125   2.642 -0.0648 -2.6398  0.1041
  286SOL     OW  856   0.297   0.401   0.659 -0.0240 -0.7426 -0.3239
  286SOL    HW1  857   0.327   0.338   0.740 -2.8922 -3.9065  3.4946
  286SOL    HW2  858   0.348   0.386   0.575 -2.6210 -0.5684 -0.2221
  287SOL     OW  859   0.086   1.280   2.553 -0.1966 -0.5695 -0.5991
  287SOL    HW1  860   0.032   1.202   2.599 -3.7013  0.2214  2.0345
  287SOL    HW2  861   0.035   1.365   2.576  1.3497 -2.3381  0.2083
  288SOL     OW  862   1.530   2.710   1.678 -0.2726 -0.6194 -0.1122
  288SOL    HW1  863   1.586   2.640   1.733 -0.2083  0.1739 -1.1337
  288SOL    HW2  864   1.569   2.715   1.579  2.0630  2.0026 -0.9248
  289SOL     OW  865   0.646   2.791   0.793  0.1529 -0.0311 -0.1043
  289SOL    HW1  866   0.697   2.872   0.753 -2.0653  0.8063 -0.3759
  289SOL    HW2  867   0.596   2.827   0.880  0.1836  0.4804 -1.2048
  290SOL     OW  868   2.835   1.150   1.701  0.2806  0.2231 -0.4596
  290SOL    HW1  869   2.755   1.093   1.744 -0.2677 -1.4707  3.0253
  290SOL    HW2  870   2.929   1.129   1.738 -0.4400 -0.3649 -0.6625
  291SOL     OW  871   1.925   3.076   0.058 -0.1050  0.7834  0.8505
  291SOL    HW1  872   1.933   3.120   0.152 -2.6790 -1.4756  3.0866
  291SOL    HW2  873   2.002   3.109  -0.004 -0.6592 -0.6084 -1.2893
  292SOL     OW  874   2.982   1.205   3.076 -0.3294  1.1002  0.6091
  292SOL    HW1  875   2.936   1.293   3.065 -0.4186 -0.2104  0.6579
  292SOL    HW2  876   3.070   1.197   3.022  1.8804 -0.5550 -1.1287
  293SOL     OW  877   0.579   2.076   0.294 -0.0959  0.1818  0.3252
  293SOL    HW1  878   0.542   2.141   0.369 -1.1859  1.5087  2.8354
  293SOL    HW2  879   0.680   2.044   0.306  0.5401 -2.0089 -1.4246
  294SOL     OW  880   1.874   2.351   1.784  0.1466  0.0655  0.9978
  294SOL    HW1  881   1.910   2.332   1.880 -1.9602  0.7552 -0.7149
  294SOL    HW2  882   1.797   2.419   1.787  1.0423  0.4185  1.0806
  295SOL     OW  883   0.940   1.061   0.464  0.0656 -0.4220  0.0246
  295SOL    HW1  884   1.031   1.107   0.473  1.9159  2.0395  1.0644
  295SOL    HW2  885   0.925   0.986   0.539 -1.5063 -1.6322 -0.1363
  296SOL     OW  886   1.103   2.164   2.754  0.6453 -0.2283 -0.1915
  296SOL    HW1  887   1.029   2.235   2.735 -1.2155 -0.2759  0.8186
  296SOL    HW2  888   1.164   2.140   2.673 -0.9931  1.9629 -0.0894
  297SOL     OW  889   1.273   0.545   1.176 -0.2011  0.6640 -0.4805
  297SOL    HW1  890   1.316   0.487   1.256  0.0386  1.4197 -0.1485
  297SOL    HW2  891   1.351   0.585   1.119  0.3789 -1.2526  1.6989
  298SOL     OW  892   0.471   1.307   2.928 -0.0163 -0.6084 -0.0272
  298SOL    HW1  893   0.446   1.243   3.008  1.6206 -1.5355 -1.5024
  298SOL    HW2  894   0.521   1.255   2.851 -0.8342  0.2022 -3.8447
  299SOL     OW  895   0.435   0.193   1.258 -0.5272  0.1864  0.5813
  299SOL    HW1  896   0.354   0.250   1.217 -0.5171  3.8520 -0.6380
  299SOL    HW2  897   0.434   0.184   1.362  0.9633  1.6691  0.6605
  300SOL     OW  898   1.368   1.815   2.583  0.0331  0.0218 -0.1432
  300SOL    HW1  899   1.358   1.740   2.505  0.0030 -1.7324 -0.2408
  300SOL    HW2  900   1.446   1.783   2.649  1.6031 -0.9238  0.6586
  301SOL     OW  901   0.381   0.305   0.380 -1.0456 -0.3794 -0.2693
  301SOL    HW1  902   0.283   0.280   0.370  0.0747  0.6325  0.9631
  301SOL    HW2  903   0.442   0.221   0.373 -1.3557 -0.1927 -0.1144
  302SOL     OW  904   1.245   2.408   2.306 -0.4597 -0.5773 -0.0402
  302SOL    HW1  905   1.155   2.360   2.313  1.5123 -1.6651 -2.0626
  302SOL    HW2  906   1.319   2.365   2.364 -0.7899  0.6304  0.6297
  303SOL     OW  907   0.921   2.435   0.801 -0.4013 -0.0631 -0.1559
  303SOL    HW1  908   0.989   2.421   0.721 -2.0444  0.0590 -1.1835
  303SOL    HW2  909   0.940   2.514   0.865  0.6294  1.8507 -1.9442
  304SOL     OW  910   0.153   1.912   0.680 -0.1091 -0.5444  0.6213
  304SOL    HW1  911   0.228   1.900   0.605  2.0924 -2.3220 -1.2849
  304SOL    HW2  912   0.066   1.957   0.645  2.1861 -2.3791 -0.8901
  305SOL     OW  913   1.665   0.851   0.698  0.3471 -0.6413  0.1651
  305SOL    HW1  914   1.611   0.862   0.608 -2.9576 -2.1288 -0.7606
  305SOL    HW2  915   1.698   0.751   0.694 -0.4960 -0.9244  0.6728
  306SOL     OW  916   0.370   1.833   1.959  0.5639  0.1380  0.1676
  306SOL    HW1  917   0.442   1.791   1.900 -0.1392  0.7551  0.2736
  306SOL    HW2  918   0.408   1.888   2.036  1.9023 -0.6558 -0.7463
  307SOL     OW  919   3.009   0.877   2.537  0.1258 -0.2891  0.7467
  307SOL    HW1  920   3.043   0.944   2.609 -2.8272  2.0552 -1.4538
  307SOL    HW2  921   2.979   0.785   2.573  0.2166  1.4171  1.2911
  308SOL     OW  922   1.445   2.708   2.824 -0.0346 -0.1458  0.0573
  308SOL    HW1  923   1.453   2.710   2.723 -0.6936 -1.7818 -1.5275
  308SOL    HW2  924   1.419   2.612   2.858 -1.7417  0.7350  0.7455
  309SOL     OW  925   1.219   0.174   1.810 -0.3165 -0.1206  0.1667
  309SOL    HW1  926   1.292   0.100   1.802  0.6380  0.7209 -1.2155
  309SOL    HW2  927   1.171   0.196   1.719 -1.4135 -0.1100  0.4024
  310SOL     OW  928   1.493   2.482   0.664  0.2849 -0.1524  0.1581
  310SOL    HW1  929   1.455   2.487   0.762 -1.5256  0.0896 -0.6760
  310SOL    HW2  930   1.553   2.560   0.639 -0.2164  2.1078 -0.0340
  311SOL     OW  931   1.072   0.958   1.776  0.9446  0.0836  0.3806
  311SOL    HW1  932   1.022   0.871   1.802  0.4734  0.9466 -0.5439
  311SOL    HW2  933   1.131   0.953   1.687 -1.5725 -1.1574 -1.9617
  312SOL     OW  934   1.518   0.622   1.036 -0.3074  0.2605 -0.4012
  312SOL    HW1  935   1.531   0.725   1.043 -0.0012  1.7897  0.2307
  312SOL    HW2  936   1.498   0.587   0.939 -0.2854  0.3342 -0.9136
  313SOL     OW  937   1.628   1.272   0.780  0.2324  0.2304 -0.3809
  313SOL    HW1  938   1.557   1.296   0.848  1.3947 -1.9237  0.1721
  313SOL    HW2  939   1.602   1.204   0.705 -0.2536  2.3534 -2.4896
  314SOL     OW  940   2.998   3.064   3.073  0.0847 -0.3693 -1.1160
  314SOL    HW1  941   3.012   3.082   3.175 -1.1368  0.7914 -0.0996
  314SOL    HW2  942   2.905   3.028   3.052  1.5043  1.7881 -2.1194
  315SOL     OW  943   1.193   0.211   2.812 -0.1366 -0.1093 -0.4185
  315SOL    HW1  944   1.137   0.168   2.733  0.1362  0.0706  0.7497
  315SOL    HW2  945   1.218   0.147   2.893  2.7619 -0.6093  1.0326
  316SOL     OW  946   1.791   2.082   0.884 -0.1354  0.3456 -0.0269
  316SOL    HW1  947   1.737   2.085   0.969  1.8083  0.2647 -3.9005
  316SOL    HW2  948   1.779   2.176   0.835  1.3650 -0.5800 -1.0572
  317SOL     OW  949   1.165   0.712   2.732  0.0837  0.1076 -0.9576
  317SOL    HW1  950   1.131   0.742   2.826  2.8325  0.2207  0.6942
  317SOL    HW2  951   1.128   0.621   2.696 -2.5414  1.1085  0.7106
  318SOL     OW  952   1.385   3.067   2.342 -0.7663 -0.0597 -0.1266
  318SOL    HW1  953   1.429   3.160   2.337  1.3733 -0.2214 -0.3606
  318SOL    HW2  954   1.346   3.047   2.246  0.1951 -1.6683 -0.5904
  319SOL     OW  955   0.636   2.388   3.029 -0.1474  0.0204 -0.1425
  319SOL    HW1  956   0.586   2.306   3.067 -1.1690  2.0696 -3.5849
  319SOL    HW2  957   0.686   2.362   2.941  0.8643  0.7233  1.1126
  320SOL     OW  958   1.691   2.251   0.421 -0.1961  0.4503  0.1334
  320SOL    HW1  959   1.742   2.165   0.401 -0.1128  2.3523  1.9245
  320SOL    HW2  960   1.598   2.230   0.458  1.8846  1.8434 -0.7377
  321SOL     OW  961   1.649   2.707   0.535 -0.1633 -0.2079 -0.5948
  321SOL    HW1  962   1.575   2.723   0.466 -2.2131 -1.7900  2.6914
  321SOL    HW2  963   1.716   2.787   0.552  0.7462 -0.8134  0.0581
  322SOL     OW  964   2.554   1.115   2.315 -0.3540 -0.7081  0.2595
  322SOL    HW1  965   2.617   1.081   2.388 -0.0779  3.3032  0.8170
  322SOL    HW2  966   2.501   1.038   2.263 -0.2797 -1.2051  0.1413
  323SOL     OW  967   1.149   2.700   0.770 -0.0364 -0.0639 -0.0087
  323SOL    HW1  968   1.135   2.631   0.698  4.0232 -2.7169 -0.7400
  323SOL    HW2  969   1.095   2.788   0.746  1.0205  1.9554 -1.2583
  324SOL     OW  970   0.083   2.567   2.429 -0.6899 -0.0910  0.4098
  324SOL    HW1  971   0.046   2.511   2.510 -0.3715  2.0868  1.5293
  324SOL    HW2  972   0.042   2.662   2.423 -1.6739  0.7559 -0.6084
  325SOL     OW  973   1.311   3.040   0.454  0.3467  0.0209  0.1428
  325SOL    HW1  974   1.312   3.076   0.356  0.9798  0.4721  0.2103
  325SOL    HW2  975   1.348   3.116   0.512 -2.1777 -1.3891  2.3990
  326SOL     OW  976   2.454   0.873   0.016 -0.5409  0.4140  0.0813
  326SOL    HW1  977   2.364   0.872   0.063  0.9490 -0.7961 -0.2884
  326SOL    HW2  978   2.528   0.807   0.052  2.3616  1.8609 -0.4766
  327SOL     OW  979   2.859   0.274   0.528 -0.3873 -0.5540 -0.1980
  327SOL    HW1  980   2.851   0.226   0.440 -1.3995 -0.1954  1.9657
  327SOL    HW2  981   2.873   0.209   0.609  1.5733  0.3024 -0.8910
  328SOL     OW  982   2.617   0.584   0.362  0.4045  0.0553  0.2198
  328SOL    HW1  983   2.630   0.637   0.450  1.6580 -0.7970 -0.4294
  328SOL    HW2  984   2.551   0.505   0.366  0.8494 -0.0490  0.1320
  329SOL     OW  985   2.915   3.038   2.243  0.0835  0.2453  0.1686
  329SOL    HW1  986   3.008   2.999   2.251  0.1811  0.7291 -0.0452
  329SOL    HW2  987   2.915   3.143   2.237  1.1156  0.7723 -2.9872
  330SOL     OW  988   0.531   0.264   1.899  0.1736  0.6022  0.1405
  330SOL    HW1  989   0.623   0.264   1.848 -1.6321  1.1908  1.5040
  330SOL    HW2  990   0.541   0.235   1.999  1.5257  1.5965 -0.4357
  331SOL     OW  991   0.009   1.896   1.111  0.2799  0.7900  0.1917
  331SOL    HW1  992  -0.015   1.946   1.022 -0.4994 -0.0172 -0.2318
  331SOL    HW2  993  -0.074   1.907   1.174  0.5460  2.4605 -0.3373
  332SOL     OW  994   0.364   1.185   0.086 -0.1060 -0.0430  0.8584
  332SOL    HW1  995   0.314   1.104   0.038 -1.0982 -1.6115  0.0656
  332SOL    HW2  996   0.343   1.191   0.186  3.2123  0.4585 -0.4010
  333SOL     OW  997   2.915   0.932   0.360  0.2390 -0.0153  0.4695
  333SOL    HW1  998   2.964   1.003   0.425 -3.4846 -1.1692  0.3718
  333SOL    HW2  999   2.972   0.844   0.340 -0.5311 -3.0990 -0.2418
  334SOL     OW 1000   1.727   1.123   1.703  0.1294  0.2277 -0.1942
  334SOL    HW1 1001   1.778   1.135   1.610 -1.4361  0.2928 -2.7980
  334SOL    HW2 1002   1.777   1.161   1.787  2.3413  2.3046  0.7051
  335SOL     OW 1003   1.932   2.806   2.590  0.0520 -0.4208 -0.7843
  335SOL    HW1 1004   1.868   2.780   2.664  0.2987  1.2386  0.8417
  335SOL    HW2 1005   2.021   2.846   2.630 -0.5998  0.7942 -0.5345
  336SOL     OW 1006   0.251   0.072   2.761 -0.0240  0.3035  0.3017
  336SOL    HW1 1007   0.328   0.108   2.823 -0.7384 -0.4818  1.8997
  336SOL    HW2 1008   0.180   0.008   2.812 -0.3694 -1.9972  0.5034
  337SOL     OW 1009   0.867   2.863   3.025 -1.0602 -0.2864  0.4508
  337SOL    HW1 1010   0.868   2.783   3.086 -3.0381  0.7995 -3.0386
  337SOL    HW2 1011   0.936   2.938   3.060 -0.9444 -0.5370 -2.3032
  338SOL     OW 1012   0.020   0.966   0.715 -0.0229  0.0767 -0.4171
  338SOL    HW1 1013  -0.078   0.939   0.718 -0.0830  0.6975 -2.7399
  338SOL    HW2 1014   0.028   1.070   0.716 -1.3672  1.7163 -0.7322
  339SOL     OW 1015   1.767   1.317   2.174 -0.2185  0.5191 -0.2062
  339SOL    HW1 1016   1.675   1.333   2.128  2.4810 -2.3700 -1.6720
  339SOL    HW2 1017   1.819   1.405   2.198 -0.1783 -1.3799 -2.5001
  340SOL     OW 1018   2.250   0.808   1.072  0.6185 -0.5256  0.2553
  340SOL    HW1 1019   2.158   0.846   1.103 -1.7535  2.0203  1.2625
  340SOL    HW2 1020   2.259   0.702   1.073 -0.9048 -0.4122  2.3096
  341SOL     OW 1021   1.902   2.082   0.357 -0.1386 -0.8397 -0.7498
  341SOL    HW1 1022   1.916   2.139   0.273 -0.9180 -0.8149  1.0298
  341SOL    HW2 1023   1.990   2.036   0.386 -1.2136  1.2236 -1.7650
  342SOL     OW 1024   2.189   2.147   2.754  0.1651  0.4142  0.7527
  342SOL    HW1 1025   2.250   2.086   2.805 -3.1856 -0.1397 -0.9110
  342SOL    HW2 1026   2.098   2.104   2.734 -1.2898  2.7994 -0.3906
  343SOL     OW 1027   0.379   0.869   2.824 -0.0743 -0.7876  0.5903
  343SOL    HW1 1028   0.352   0.928   2.742  0.3520  0.2914  0.7710
  343SOL    HW2 1029   0.477   0.878   2.849  0.0887  1.9774 -0.5582
  344SOL     OW 1030   1.951   1.457   0.362  0.3938 -0.4044  0.2198
  344SOL    HW1 1031   1.949   1.361   0.316 -1.5047 -1.6524 -1.7390
  344SOL    HW2 1032   1.863   1.484   0.408  1.1855  0.7632 -1.2925
  345SOL     OW 1033   1.366   2.190   2.853  0.6798 -0.1598  0.0153
  345SOL    HW1 1034   1.267   2.189   2.809  0.8759  0.1721 -0.4455
  345SOL    HW2 1035   1.434   2.160   2.779 -0.2217  2.1375 -2.7755
  346SOL     OW 1036   2.299   0.846   1.384  0.5394 -0.3469 -0.6830
  346SOL    HW1 1037   2.225   0.904   1.428  2.3519 -0.6876 -1.0639
  346SOL    HW2 1038   2.295   0.837   1.282  0.1075 -0.5197  1.5288
  347SOL     OW 1039   0.739   2.796   1.687 -0.3098  0.4762  0.2226
  347SOL    HW1 1040   0.816   2.858   1.659  0.7447 -0.4250  1.4832
  347SOL    HW2 1041   0.662   2.790   1.614  1.0672 -0.8682  0.6168
  348SOL     OW 1042   0.208   0.650   2.861  0.1361 -0.0974 -0.6249
  348SOL    HW1 1043   0.126   0.668   2.797  1.7402 -1.4895 -2.1971
  348SOL    HW2 1044   0.295   0.694   2.822  2.0200  1.0060  1.4907
  349SOL     OW 1045   1.789   0.418   2.819 -0.2724  0.0205 -0.1319
  349SOL    HW1 1046   1.779   0.503   2.759 -0.3318  2.3208  0.3878
  349SOL    HW2 1047   1.766   0.429   2.917  0.9713 -1.9112  0.2321
  350SOL     OW 1048   1.684   0.383   0.381  0.1594 -0.0597  0.4667
  350SOL    HW1 1049   1.754   0.383   0.459 -1.4367 -0.0540  0.6672
  350SOL    HW2 1050   1.651   0.486   0.375  2.1514 -0.1007 -2.0300
  351SOL     OW 1051   0.852   0.825   2.107 -0.1627 -0.5562 -0.3605
  351SOL    HW1 1052   0.898   0.918   2.106  0.2197 -0.6858 -0.4042
  351SOL    HW2 1053   0.838   0.794   2.005  0.2280  0.1273 -1.4866
  352SOL     OW 1054   2.070   1.348   0.598 -0.0135  0.6414 -0.2039
  352SOL    HW1 1055   2.012   1.387   0.520 -0.8204 -0.5767  2.0733
  352SOL    HW2 1056   2.008   1.301   0.666 -1.3300 -2.2922 -1.8426
  353SOL     OW 1057   2.192   2.715   1.115 -0.4478  0.1173  0.1101
  353SOL    HW1 1058   2.275   2.652   1.133  1.4257  0.0351 -0.4961
  353SOL    HW2 1059   2.165   2.761   1.204 -2.3832  0.6463  1.4861
  354SOL     OW 1060   0.220   1.445   2.900  0.0907  0.1266  0.1769
  354SOL    HW1 1061   0.206   1.505   2.816  0.8810  0.8259 -0.0392
  354SOL    HW2 1062   0.321   1.425   2.910 -0.7051 -1.0060  2.3375
  355SOL     OW 1063   0.725   1.592   0.602  0.3344  0.6392  0.0643
  355SOL    HW1 1064   0.740   1.536   0.693  0.6602 -0.8338 -1.3136
  355SOL    HW2 1065   0.673   1.533   0.531 -0.4797  2.6168 -0.0158
  356SOL     OW 1066   0.973   0.334   2.115  0.5611  0.0233 -0.2858
  356SOL    HW1 1067   1.036   0.248   2.124 -0.9390  0.2149  0.3314
  356SOL    HW2 1068   0.901   0.323   2.039  0.9619 -1.6070 -1.2274
  357SOL     OW 1069   0.983   1.400   0.168  0.2157  0.6039  0.0320
  357SOL    HW1 1070   1.027   1.334   0.100 -2.3920  1.1782 -0.0957
  357SOL    HW2 1071   1.047   1.475   0.203 -1.8421  1.3380  0.3683
  358SOL     OW 1072   1.680   1.468   0.487 -0.0831 -0.0365 -0.6182
  358SOL    HW1 1073   1.643   1.425   0.573 -0.6642  1.6083  0.0999
  358SOL    HW2 1074   1.639   1.427   0.403  1.9924 -0.8526  2.4443
  359SOL     OW 1075   1.613   2.577   0.213 -0.5124 -0.3510 -0.0211
  359SOL    HW1 1076   1.627   2.486   0.168  1.1076 -0.9373  1.6130
  359SOL    HW2 1077   1.516   2.594   0.245 -0.1549 -0.1535 -0.8043
  360SOL     OW 1078   0.729   0.490   0.598 -0.2769  0.6462  0.3701
  360SOL    HW1 1079   0.647   0.491   0.540  2.4272 -1.5601 -0.4580
  360SOL    HW2 1080   0.765   0.393   0.606 -2.8334  2.0852 -1.9732
  361SOL     OW 1081   1.349   1.319   0.624 -0.2571  0.4467 -0.4150
  361SOL    HW1 1082   1.383   1.348   0.716  0.0402 -1.3759  1.3448
  361SOL    HW2 1083   1.266   1.379   0.601 -0.6854 -0.9485 -0.9790
  362SOL     OW 1084   1.368   1.833   0.682 -0.2357 -0.4344  0.2129
  362SOL    HW1 1085   1.405   1.767   0.754  0.7232 -0.3415 -0.1669
  362SOL    HW2 1086   1.448   1.861   0.622  1.5067 -1.0784  1.4454
  363SOL     OW 1087   1.293   1.355   1.983 -0.3342 -0.0960 -0.8782
  363SOL    HW1 1088   1.374   1.364   2.049 -0.2984 -1.0218  1.4295
  363SOL    HW2 1089   1.210   1.412   2.012 -1.3780 -1.8225  0.7796
  364SOL     OW 1090   0.556   2.370   1.959 -0.3427  0.1969 -0.4015
  364SOL    HW1 1091   0.452   2.373   1.977 -0.4283  0.5650  2.5233
  364SOL    HW2 1092   0.583   2.462   1.913  1.9682  1.7965  0.7755
  365SOL     OW 1093   0.925   1.976   1.440 -0.0840 -0.0034  0.2722
  365SOL    HW1 1094   0.829   1.982   1.479  0.1530 -1.3904  1.0333
  365SOL    HW2 1095   0.941   2.003   1.342 -0.7690 -1.7801  1.7397
  366SOL     OW 1096   2.746   1.931   0.246  0.2753  0.0828  0.3089
  366SOL    HW1 1097   2.683   1.854   0.211  1.1828  4.4727  0.6855
  366SOL    HW2 1098   2.841   1.892   0.273 -1.3184 -1.8520  0.2118
  367SOL     OW 1099   0.935   1.117   3.042  0.5797 -0.5646 -0.3396
  367SOL    HW1 1100   0.911   1.046   3.117  1.2319 -0.5617 -1.8556
  367SOL    HW2 1101   1.013   1.183   3.070  1.4966  1.5353 -1.0668
  368SOL     OW 1102   1.453   0.549   0.510 -0.2139 -0.1222 -0.6257
  368SOL    HW1 1103   1.353   0.583   0.513 -1.7832  1.4418 -0.6584
  368SOL    HW2 1104   1.512   0.594   0.433  3.4053 -3.1621  1.2422
  369SOL     OW 1105   0.393   1.610   0.139 -0.4277  0.6554 -0.4564
  369SOL    HW1 1106   0.444   1.675   0.206 -0.2891  1.1833 -0.8374
  369SOL    HW2 1107   0.333   1.546   0.190 -0.1725  3.0161  2.0802
  370SOL     OW 1108   0.441   2.187   1.076 -0.0879 -0.4667 -0.6297
  370SOL    HW1 1109   0.479   2.279   1.048 -1.6113  0.5490 -0.7596
  370SOL    HW2 1110   0.343   2.168   1.040 -1.0709 -2.5097 -0.1559
  371SOL     OW 1111   2.904   2.191   2.733  0.2687 -0.5254 -0.6798
  371SOL    HW1 1112   2.979   2.123   2.729 -2.4347 -0.3326  0.7832
  371SOL    HW2 1113   2.928   2.276   2.789 -0.0262 -3.9922  0.6450
  372SOL     OW 1114   0.995   2.050   1.163 -0.5876  0.1943 -0.2966
  372SOL    HW1 1115   0.946   2.065   1.076  1.0304  1.3401  1.4852
  372SOL    HW2 1116   1.067   2.124   1.184  1.6555 -0.4403  0.5709
  373SOL     OW 1117   1.943   1.913   1.045 -0.2660 -0.4581  0.3128
  373SOL    HW1 1118   2.042   1.934   1.061 -0.6254  0.4778  1.8613
  373SOL    HW2 1119   1.902   2.001   1.001  1.3895  1.3197 -1.2751
  374SOL     OW 1120   1.914   0.397   0.556  0.2861 -0.0399 -0.3062
  374SOL    HW1 1121   1.890   0.340   0.636 -1.9760 -1.7767  0.2330
  374SOL    HW2 1122   2.017   0.403   0.531 -1.4700  0.0641 -1.9883
  375SOL     OW 1123   2.425   2.187   1.137 -0.0716  0.1502  0.2431
  375SOL    HW1 1124   2.438   2.218   1.043 -1.1970 -1.1151  0.3245
  375SOL    HW2 1125   2.493   2.116   1.171  2.3405 -0.6286  1.0588
  376SOL     OW 1126   3.096   0.630   1.443 -0.4563  0.1439 -0.2149
  376SOL    HW1 1127   3.099   0.681   1.528 -0.8453 -1.5364  0.3484
  376SOL    HW2 1128   3.060   0.536   1.462 -0.0387 -0.1791  3.3319
  377SOL     OW 1129   2.213   2.929   0.190  0.8165  0.2021  0.1116
  377SOL    HW1 1130   2.184   2.982   0.271 -3.2362 -1.3173 -2.0555
  377SOL    HW2 1131   2.270   2.846   0.215  1.4613  0.3387 -0.7241
  378SOL     OW 1132   1.892   1.896   2.508  0.0574  0.3547  0.6291
  378SOL    HW1 1133   1.991   1.869   2.489 -0.9499 -0.2094  0.1705
  378SOL    HW2 1134   1.833   1.807   2.493 -0.3189  1.1722 -3.3460
  379SOL     OW 1135   0.745   0.151   2.818  0.1804 -0.1562  0.3947
  379SOL    HW1 1136   0.783   0.065   2.781 -2.2434 -1.6579 -0.4669
  379SOL    HW2 1137   0.755   0.222   2.738  0.5468  0.9931 -0.3064
  380SOL     OW 1138   1.535   1.127   0.515  0.0968 -0.1137  0.4112
  380SOL    HW1 1139   1.462   1.194   0.542  2.0495 -0.7072  2.0787
  380SOL    HW2 1140   1.503   1.028   0.497 -1.2082 -4.1016  1.6024
  381SOL     OW 1141   1.253   1.306   1.512 -0.1359  0.2749 -0.2878
  381SOL    HW1 1142   1.318   1.248   1.457  1.4832 -0.2028 -0.1500
  381SOL    HW2 1143   1.302   1.357   1.584  0.8463 -0.3981 -3.7831
  382SOL     OW 1144   1.832   0.837   0.249 -0.6383  0.0603 -0.1416
  382SOL    HW1 1145   1.866   0.780   0.168  2.6187 -2.4067  1.5588
  382SOL    HW2 1146   1.903   0.859   0.321 -0.1160  1.3432 -1.0557
  383SOL     OW 1147   2.515   0.973   1.467 -0.3373  0.1318 -0.0931
  383SOL    HW1 1148   2.418   0.934   1.453 -5.1512  1.1512 -0.9002
  383SOL    HW2 1149   2.565   0.972   1.377 -0.0010 -0.1473  0.1116
  384SOL     OW 1150   0.946   2.290   0.250  0.0272  0.4629 -0.0123
  384SOL    HW1 1151   0.854   2.338   0.237 -0.8225 -1.9226 -1.2975
  384SOL    HW2 1152   0.979   2.279   0.347 -1.4533  1.8450 -2.5334
  385SOL     OW 1153   2.953   2.032   1.683 -0.4970  0.1440  0.4765
  385SOL    HW1 1154   3.026   2.100   1.715  1.1658 -1.7350  0.5794
  385SOL    HW2 1155   2.994   1.936   1.667  1.2938 -1.2462 -3.6279
  386SOL     OW 1156   0.472   1.064   0.460 -0.2373  0.4785  0.1629
  386SOL    HW1 1157   0.451   0.958   0.475  0.3554 -3.6676 -1.1516
  386SOL    HW2 1158   0.395   1.124   0.417  1.9781 -1.0701 -0.1382
  387SOL     OW 1159   0.985   0.351   1.655 -0.4727 -0.6082 -0.0167
  387SOL    HW1 1160   1.004   0.455   1.652 -0.8414 -0.6592 -0.4392
  387SOL    HW2 1161   0.978   0.317   1.557 -1.3556  0.8498  0.6338
  388SOL     OW 1162   1.209   2.703   1.741 -0.3355  0.4548  0.1212
  388SOL    HW1 1163   1.263   2.741   1.663 -1.0530 -2.4226  0.8456
  388SOL    HW2 1164   1.262   2.633   1.800 -3.3581 -0.4336  1.8719
  389SOL     OW 1165   0.132   2.907   1.333 -0.4154 -0.3439 -0.2461
  389SOL    HW1 1166   0.030   2.896   1.315  1.4555 -0.3831  0.2879
  389SOL    HW2 1167   0.188   2.821   1.309 -1.0522  0.7527  1.7532
  390SOL     OW 1168   1.019   0.954   1.389  0.0204  0.9059 -0.1086
  390SOL    HW1 1169   1.105   0.953   1.447 -0.6828  0.7707 -0.9546
  390SOL    HW2 1170   1.001   1.045   1.343  1.0142 -0.8173  1.0855
  391SOL     OW 1171   2.197   1.116   1.131 -0.2597 -0.1806  0.2934
  391SOL    HW1 1172   2.133   1.040   1.164 -0.4643  1.7778 -0.7236
  391SOL    HW2 1173   2.218   1.113   1.026 -3.3842  0.5394 -0.2475
  392SOL     OW 1174   0.882   2.637   0.082  0.0991 -0.2801 -0.2349
  392SOL    HW1 1175   0.977   2.592   0.077 -0.4270  1.8239 -0.2565
  392SOL    HW2 1176   0.809   2.574   0.118 -1.5019 -1.1695  0.3311
  393SOL     OW 1177   0.273   0.676   1.989  0.2913  0.2275 -0.2076
  393SOL    HW1 1178   0.255   0.574   1.989 -0.1704 -0.7646  0.4886
  393SOL    HW2 1179   0.338   0.703   1.909 -1.0988  1.6001  1.1387
  394SOL     OW 1180   3.046   1.952   2.680  0.6161  0.0670  0.0769
  394SOL    HW1 1181   3.134   1.948   2.729 -2.5168 -1.1693  0.2973
  394SOL    HW2 1182   3.045   1.904   2.585  0.0419 -0.8328 -1.3211
  395SOL     OW 1183   1.610   1.952   0.622 -0.0377  0.4235  0.4924
  395SOL    HW1 1184   1.673   1.871   0.600  0.6916  0.7799  2.5441
  395SOL    HW2 1185   1.651   2.021   0.686  1.8965  0.7873 -0.7167
  396SOL     OW 1186   2.899   1.860   1.273  0.7523  0.9324 -0.6453
  396SOL    HW1 1187   2.938   1.761   1.264  1.8121 -0.5907 -0.3249
  396SOL    HW2 1188   2.800   1.865   1.295  2.7093  2.6744  2.1601
  397SOL     OW 1189   1.032   2.218   0.489  0.2927 -0.1534  0.1337
  397SOL    HW1 1190   0.929   2.207   0.498  1.7880 -3.1196 -0.1966
  397SOL    HW2 1191   1.070   2.306   0.532  1.8166 -0.1444  0.3550
  398SOL     OW 1192   2.144   3.057   1.122  0.0403  0.1561  0.4260
  398SOL    HW1 1193   2.071   2.986   1.129  3.5826 -0.9813  1.5607
  398SOL    HW2 1194   2.108   3.147   1.082 -0.7973 -0.3667 -1.0682
  399SOL     OW 1195   3.043   2.457   2.650  0.5078 -0.0631  0.3518
  399SOL    HW1 1196   2.947   2.468   2.617 -0.9093 -0.8124 -1.8452
  399SOL    HW2 1197   3.071   2.357   2.659  2.6231  2.0621  1.8674
  400SOL     OW 1198   0.679   1.664   1.372 -0.0387  0.1620  0.1769
  400SOL    HW1 1199   0.636   1.720   1.447 -1.7162  2.2250 -3.1675
  400SOL    HW2 1200   0.653   1.696   1.277  0.1073 -1.4718  1.4247
  401SOL     OW 1201   1.834   0.270   1.153 -0.0208  0.0051 -0.3035
  401SOL    HW1 1202   1.844   0.273   1.258  0.3473  3.2316 -0.0577
  401SOL    HW2 1203   1.756   0.334   1.132  0.3360  1.8631 -1.5446
  402SOL     OW 1204   1.341   0.252   3.079 -0.1768  0.3289  0.1231
  402SOL    HW1 1205   1.417   0.229   3.012 -1.2480  2.8909 -1.5359
  402SOL    HW2 1206   1.277   0.325   3.039  0.7805  0.9929 -0.4516
  403SOL     OW 1207   2.224   1.829   0.850 -0.6211  0.3666 -0.6055
  403SOL    HW1 1208   2.323   1.846   0.837  2.2986  0.9620 -1.1046
  403SOL    HW2 1209   2.177   1.892   0.917 -1.1825  1.4253 -0.3335
  404SOL     OW 1210   0.238   2.475   2.747 -0.0098  0.1636  0.1185
  404SOL    HW1 1211   0.329   2.449   2.698  2.5603  0.6584  0.7319
  404SOL    HW2 1212   0.250   2.553   2.812  2.5379 -1.2836  1.1513
  405SOL     OW 1213   0.090   2.390   0.753 -0.1463 -0.3628  0.0425
  405SOL    HW1 1214   0.069   2.314   0.682  1.0018 -3.0202 -1.2207
  405SOL    HW2 1215   0.186   2.436   0.745  3.7389 -1.8501 -1.7096
  406SOL     OW 1216   0.066   1.540   3.095 -0.3366 -0.1805  0.2248
  406SOL    HW1 1217   0.114   1.475   3.026  0.3487  0.6658 -1.5416
  406SOL    HW2 1218   0.079   1.523   3.198  0.6140 -1.2618 -0.7065
  407SOL     OW 1219   1.588   0.897   0.966  0.3515 -0.0183  0.3238
  407SOL    HW1 1220   1.594   0.896   0.860 -0.6232 -1.7599 -0.1668
  407SOL    HW2 1221   1.522   0.964   1.007  3.2733 -1.4356  0.8935
  408SOL     OW 1222   1.538   2.410   0.959 -0.3329 -0.1627 -0.0902
  408SOL    HW1 1223   1.613   2.396   0.884  0.0303  0.8726 -0.1881
  408SOL    HW2 1224   1.488   2.499   0.952 -1.9019 -2.7762  0.3067
  409SOL     OW 1225   0.641   0.846   0.756 -0.6529  0.0044  0.1078
  409SOL    HW1 1226   0.566   0.835   0.681 -2.2977 -0.8863 -0.2150
  409SOL    HW2 1227   0.626   0.780   0.835 -2.8030 -0.6963 -2.6689
  410SOL     OW 1228   1.262   2.021   1.391 -0.2296 -0.3203 -0.1145
  410SOL    HW1 1229   1.345   1.969   1.425 -0.0140 -2.7841 -2.6761
  410SOL    HW2 1230   1.196   1.952   1.343  0.2841 -1.0039 -0.7843
  411SOL     OW 1231   2.521   1.830   3.006  0.5672  0.1096  0.7577
  411SOL    HW1 1232   2.565   1.921   3.032  3.1195 -0.2759  1.9198
  411SOL    HW2 1233   2.453   1.832   2.927 -0.6930  0.6026  2.2482
  412SOL     OW 1234   1.475   2.460   2.142  0.0712  0.0989 -0.0675
  412SOL    HW1 1235   1.548   2.480   2.214 -1.2467  2.0055  1.7833
  412SOL    HW2 1236   1.381   2.444   2.187 -0.2638  1.8850  1.5619
  413SOL     OW 1237   3.095   0.215   2.972 -0.1453  0.2480  0.4212
  413SOL    HW1 1238   3.064   0.131   3.020 -0.5768  1.1447 -0.7329
  413SOL    HW2 1239   3.193   0.239   2.995 -1.0805  0.6606  1.5853
  414SOL     OW 1240   1.756   1.481   1.175  0.3432  0.0836 -0.7935
  414SOL    HW1 1241   1.773   1.581   1.204 -0.7080 -0.7665  0.9974
  414SOL    HW2 1242   1.761   1.468   1.074 -1.3783 -1.0131  0.4231
  415SOL     OW 1243   0.306   2.190   0.700  0.3767 -0.4323 -0.6534
  415SOL    HW1 1244   0.274   2.165   0.801  1.2741  0.1190 -0.2430
  415SOL    HW2 1245   0.229   2.216   0.627 -3.6102 -0.3614 -1.8339
  416SOL     OW 1246   0.374   1.094   1.062  0.2635  0.5567 -0.0372
  416SOL    HW1 1247   0.336   1.009   1.018  3.6401 -1.7708  0.4514
  416SOL    HW2 1248   0.477   1.093   1.051  1.0089  3.1104  2.9503
  417SOL     OW 1249   2.347   2.450   2.092  0.1537 -0.2971  0.5823
  417SOL    HW1 1250   2.345   2.350   2.074 -2.0263 -0.5560  1.8772
  417SOL    HW2 1251   2.272   2.492   2.146  2.6851 -0.6677  0.8015
  418SOL     OW 1252   1.030   0.484   1.346 -0.5873  0.1238 -0.1134
  418SOL    HW1 1253   0.938   0.454   1.306 -3.3791  0.1182 -1.1307
  418SOL    HW2 1254   1.094   0.498   1.264  1.1810 -1.9299  0.9273
  419SOL     OW 1255   0.940   0.533   2.975  0.0263  0.5511  0.0312
  419SOL    HW1 1256   0.846   0.543   2.939  3.3168  5.4013  0.8760
  419SOL    HW2 1257   0.975   0.628   3.001 -0.8064  0.0501  1.1990
  420SOL     OW 1258   0.124   2.219   0.500  0.0730  0.6756  0.1215
  420SOL    HW1 1259   0.204   2.200   0.438  0.4309 -3.3948  0.6233
  420SOL    HW2 1260   0.053   2.147   0.494  1.7432 -3.0006  2.5988
  421SOL     OW 1261   0.333   2.964   0.559  0.0917  0.8655 -0.5272
  421SOL    HW1 1262   0.316   2.920   0.651  1.3149  1.1113  0.1889
  421SOL    HW2 1263   0.405   3.040   0.564  0.2711  1.2581  0.4535
  422SOL     OW 1264   1.020   2.611   1.035  0.2650 -0.6022 -0.3083
  422SOL    HW1 1265   1.060   2.676   0.970 -0.7639  0.6617 -1.0449
  422SOL    HW2 1266   1.095   2.581   1.103  2.9197 -1.8800 -1.4159
  423SOL     OW 1267   0.131   0.742   1.230  0.4605 -0.3323  0.3563
  423SOL    HW1 1268   0.082   0.676   1.294 -1.3398 -1.3944 -0.7378
  423SOL    HW2 1269   0.075   0.828   1.204 -1.3779  0.8607 -0.1404
  424SOL     OW 1270   1.186   2.228   2.038 -0.1039  0.1723  0.4681
  424SOL    HW1 1271   1.163   2.329   2.037 -1.9530 -0.5987 -1.9919
  424SOL    HW2 1272   1.146   2.185   2.121 -0.0413 -0.4630 -0.3424
  425SOL     OW 1273   2.008   1.313   0.969 -0.2728 -0.0198  0.0346
  425SOL    HW1 1274   2.091   1.292   1.025 -3.1391  0.1011 -1.3687
  425SOL    HW2 1275   2.000   1.416   0.959  2.8649  0.0607  4.1821
  426SOL     OW 1276   1.423   1.606   1.216 -0.0087  0.0741 -0.6047
  426SOL    HW1 1277   1.463   1.697   1.176 -0.6406 -2.7647 -0.2573
  426SOL    HW2 1278   1.400   1.619   1.315  1.7989 -2.6819 -0.0027
  427SOL     OW 1279   1.939   2.340   2.071  0.1563 -0.1114  0.0046
  427SOL    HW1 1280   1.989   2.280   2.143  1.8406  2.1051 -1.3855
  427SOL    HW2 1281   1.958   2.440   2.078  0.4995  1.9109 -3.0267
  428SOL     OW 1282   0.881   0.019   0.113  0.6448  0.0856  0.1916
  428SOL    HW1 1283   0.910   0.109   0.068 -0.5055  0.3300 -0.3634
  428SOL    HW2 1284   0.956  -0.054   0.133 -0.8187  0.5456  0.5108
  429SOL     OW 1285   1.301   0.167   0.256  0.4946  0.0344 -0.0725
  429SOL    HW1 1286   1.403   0.163   0.285  1.6162  1.0854 -0.5654
  429SOL    HW2 1287   1.292   0.196   0.156  1.4415 -0.3087  1.5979
  430SOL     OW 1288   2.907   1.415   0.310  0.0046  0.3041  0.3558
  430SOL    HW1 1289   2.895   1.466   0.220 -2.8345  0.2580  1.1028
  430SOL    HW2 1290   2.891   1.481   0.381 -0.8857  0.4699 -5.6099
  431SOL     OW 1291   2.060   1.576   0.931 -0.1164 -0.2322 -0.0334
  431SOL    HW1 1292   2.115   1.644   0.984 -0.4493 -0.0591 -2.5943
  431SOL    HW2 1293   1.992   1.622   0.868  0.2153 -0.7763 -0.7915
  432SOL     OW 1294   2.928   2.140   1.227 -0.4162 -0.2721  0.3249
  432SOL    HW1 1295   2.913   2.053   1.284 -1.0307 -0.4504  0.1764
  432SOL    HW2 1296   2.960   2.221   1.282  1.2743  0.3253 -1.2819
  433SOL     OW 1297   1.856   0.186   0.817  0.4781  0.1315  0.3442
  433SOL    HW1 1298   1.772   0.219   0.873  0.2550  0.9348  1.1016
  433SOL    HW2 1299   1.883   0.097   0.851 -3.6193 -0.5455  0.0382
  434SOL     OW 1300   1.552   0.323   0.658 -0.4653 -0.3024 -0.1655
  434SOL    HW1 1301   1.533   0.387   0.574  0.4053  3.7753 -0.7511
  434SOL    HW2 1302   1.603   0.377   0.729  0.1351 -0.0463  2.3674
  435SOL     OW 1303   1.539   1.424   2.069 -0.4235 -0.3294  0.3083
  435SOL    HW1 1304   1.559   1.473   2.161 -2.9528  0.4731  0.4898
  435SOL    HW2 1305   1.524   1.488   1.986  0.7937  1.0142 -1.5907
  436SOL     OW 1306   1.699   2.728   2.258 -0.1483  0.1878 -0.3139
  436SOL    HW1 1307   1.645   2.775   2.331 -1.2778  1.5860  0.7422
  436SOL    HW2 1308   1.691   2.623   2.267  1.5861  0.6069  1.6027
  437SOL     OW 1309   1.085   2.962   0.909  0.1914  0.3913  0.4437
  437SOL    HW1 1310   1.017   3.041   0.906  2.0046 -0.3616 -2.2320
  437SOL    HW2 1311   1.108   2.925   1.004 -0.1545 -0.9183 -0.3229
  438SOL     OW 1312   0.997   2.669   1.442  0.0700  0.2683  0.5428
  438SOL    HW1 1313   1.079   2.717   1.475  0.3608 -1.6378 -0.0733
  438SOL    HW2 1314   1.005   2.566   1.420  2.7028 -0.2535  0.2004
  439SOL     OW 1315   0.681   1.849   1.068  0.2069  0.4066 -0.0836
  439SOL    HW1 1316   0.658   1.927   1.006  1.1047 -0.6078 -0.8305
  439SOL    HW2 1317   0.598   1.792   1.093  0.5398 -1.0237 -1.8067
  440SOL     OW 1318   1.097   2.475   1.977  0.2300  0.1967  0.4317
  440SOL    HW1 1319   1.033   2.498   1.899  0.7699 -2.9960  0.3287
  440SOL    HW2 1320   1.194   2.502   1.959 -0.2277  0.8416  0.1576
  441SOL     OW 1321   0.389   2.672   1.558 -0.4899 -0.4303  0.0855
  441SOL    HW1 1322   0.464   2.605   1.534 -0.6942 -2.2297 -0.5770
  441SOL    HW2 1323   0.305   2.660   1.498  1.1212  0.3324  0.6934
  442SOL     OW 1324   2.263   0.697   2.549  0.0017 -0.4402  0.3632
  442SOL    HW1 1325   2.280   0.600   2.574 -0.6869  0.4653 -1.4882
  442SOL    HW2 1326   2.166   0.723   2.573  0.3390  2.0311  0.1396
  443SOL     OW 1327   1.202   2.690   2.204  0.1648 -0.8365 -0.0822
  443SOL    HW1 1328   1.192   2.749   2.287  0.4439 -2.2100  0.1668
  443SOL    HW2 1329   1.179   2.592   2.217  1.5270  1.1498 -0.9825
  444SOL     OW 1330   1.001   1.342   1.570 -0.1718  0.5900 -0.4469
  444SOL    HW1 1331   1.101   1.321   1.548 -0.0163  1.0275 -0.1493
  444SOL    HW2 1332   0.978   1.444   1.557 -0.9465  0.6417 -1.0849
  445SOL     OW 1333   3.063   2.379   1.973 -0.3894 -0.4056 -0.3738
  445SOL    HW1 1334   3.074   2.456   1.904  1.1912 -1.9072  1.3730
  445SOL    HW2 1335   2.969   2.340   1.971  1.0986  0.2566  0.8856
  446SOL     OW 1336   0.203   1.905   2.353 -0.2725 -0.5102  0.3996
  446SOL    HW1 1337   0.175   1.994   2.397 -0.2926 -0.9320 -2.0348
  446SOL    HW2 1338   0.138   1.886   2.276  0.2222  1.1432 -1.6530
  447SOL     OW 1339   1.201   1.652   1.949  0.6141 -0.1619 -0.0397
  447SOL    HW1 1340   1.157   1.745   1.926  1.5174  0.6512 -2.5137
  447SOL    HW2 1341   1.302   1.659   1.937 -0.3451  1.4383  0.0057
  448SOL     OW 1342   0.113   1.494   1.953  0.0227  0.7554  0.0344
  448SOL    HW1 1343   0.114   1.602   1.950 -0.1039  2.0646  1.8151
  448SOL    HW2 1344   0.120   1.462   2.052  1.2571 -1.5742 -1.0807
  449SOL     OW 1345   1.994   3.023   0.857  0.0466 -0.0118 -0.2904
  449SOL    HW1 1346   2.073   3.033   0.925  2.2898 -0.7258  0.5431
  449SOL    HW2 1347   1.956   2.929   0.837  0.2728  1.5687  0.3199
  450SOL     OW 1348   2.279   1.371   0.886 -0.0261 -0.0413  0.2321
  450SOL    HW1 1349   2.239   1.283   0.859 -0.2548  2.5940  0.5651
  450SOL    HW2 1350   2.224   1.459   0.875  0.1200 -1.9309 -0.8698
  451SOL     OW 1351   1.426   0.022   1.447 -0.0396  0.2288 -0.1393
  451SOL    HW1 1352   1.351   0.093   1.455 -0.2733 -0.5458 -1.8448
  451SOL    HW2 1353   1.439  -0.026   1.538 -2.7801 -1.0348  0.1153
  452SOL     OW 1354   2.638   2.290   2.251 -0.3382 -0.1284 -0.2269
  452SOL    HW1 1355   2.614   2.394   2.241 -0.0578  1.5118 -1.6457
  452SOL    HW2 1356   2.679   2.263   2.338 -0.8554  0.5989  0.4487
  453SOL     OW 1357   2.438   2.592   3.044  0.2280 -0.1855 -0.1464
  453SOL    HW1 1358   2.367   2.652   3.086 -1.0738 -0.9069 -1.6483
  453SOL    HW2 1359   2.404   2.550   2.953 -1.2306  0.7354 -0.0607
  454SOL     OW 1360   0.962   1.082   2.074  0.3131  0.0272 -0.0476
  454SOL    HW1 1361   0.964   1.123   1.978 -0.4641  0.0280 -1.5845
  454SOL    HW2 1362   1.048   1.085   2.135 -0.1386  1.3148  1.8602
  455SOL     OW 1363   0.705   2.632   2.914 -0.2204  0.4256  0.1576
  455SOL    HW1 1364   0.766   2.695   2.963 -0.8349 -0.1813  0.6709
  455SOL    HW2 1365   0.683   2.542   2.968 -1.2784 -0.1261 -1.5402
  456SOL     OW 1366   0.564   1.797   0.292 -0.0090  0.5296  0.0095
  456SOL    HW1 1367   0.663   1.775   0.277  0.8759 -1.9669  3.0058
  456SOL    HW2 1368   0.538   1.895   0.273  0.7143 -3.1775 -0.2125
  457SOL     OW 1369   0.336   2.568   0.673 -0.1874 -0.7597 -0.4251
  457SOL    HW1 1370   0.341   2.589   0.570  2.5553 -2.4857  1.2194
  457SOL    HW2 1371   0.433   2.552   0.711  0.7970  0.7601 -0.1363
  458SOL     OW 1372   2.968   2.936   1.259  0.4643  0.0840  1.0009
  458SOL    HW1 1373   3.024   3.015   1.220 -4.2554  1.3038  0.5914
  458SOL    HW2 1374   2.953   2.859   1.186 -0.3677  1.3619 -0.0376
  459SOL     OW 1375   2.102   2.535   0.918  0.8781 -0.4077 -0.2464
  459SOL    HW1 1376   2.127   2.605   0.997  2.7161  2.0070 -0.9425
  459SOL    HW2 1377   2.182   2.522   0.855 -0.3170  0.6671 -0.2432
  460SOL     OW 1378   1.067   1.915   2.912  0.1300 -0.0079  0.4384
  460SOL    HW1 1379   1.074   2.007   2.865 -1.0531 -1.8638  2.0084
  460SOL    HW2 1380   1.154   1.883   2.964  0.6872 -0.3290  0.4989
  461SOL     OW 1381   0.524   2.114   2.706  0.2587  0.1174  0.1483
  461SOL    HW1 1382   0.449   2.045   2.683  0.8484 -0.9914 -0.0442
  461SOL    HW2 1383   0.601   2.072   2.766  0.8751 -1.1532  1.9361
  462SOL     OW 1384   0.958   1.211   1.818  0.1151 -0.4309 -0.4920
  462SOL    HW1 1385   0.985   1.123   1.784 -0.1751  3.2437  0.0684
  462SOL    HW2 1386   0.995   1.286   1.753  0.7345  0.4655  0.4878
  463SOL     OW 1387   0.449   0.810   0.550 -0.1083  0.1582 -0.2046
  463SOL    HW1 1388   0.498   0.722   0.518  2.1026  3.0661  1.0226
  463SOL    HW2 1389   0.345   0.807   0.547 -0.4577 -1.6205 -0.1092
  464SOL     OW 1390   0.493   2.254   2.216 -0.3006 -0.2058  0.2669
  464SOL    HW1 1391   0.429   2.308   2.278 -0.5040  2.0601 -0.9453
  464SOL    HW2 1392   0.533   2.310   2.136  1.7003  0.0462  0.0997
  465SOL     OW 1393   0.241   0.871   0.882  0.8146 -0.1555  0.4080
  465SOL    HW1 1394   0.172   0.909   0.811  0.1760 -2.8330  0.4843
  465SOL    HW2 1395   0.248   0.767   0.881 -0.3213  0.8111 -2.4291
  466SOL     OW 1396   1.378   1.070   1.040  0.3378 -0.4252 -0.0938
  466SOL    HW1 1397   1.450   1.141   1.063  0.4193 -1.1370 -0.6265
  466SOL    HW2 1398   1.285   1.120   1.029  0.4306  0.0902  2.3730
  467SOL     OW 1399   0.438   0.394   2.411 -0.0014  0.1986  0.5118
  467SOL    HW1 1400   0.443   0.491   2.445  1.3069 -2.4718 -0.0408
  467SOL    HW2 1401   0.447   0.317   2.481 -0.9908  1.1836  0.1313
  468SOL     OW 1402   0.499   2.246   1.695  0.2346  0.0321  0.2450
  468SOL    HW1 1403   0.556   2.314   1.750  2.4512 -0.9588 -0.9284
  468SOL    HW2 1404   0.455   2.289   1.609 -0.0763 -2.0492  0.0285
  469SOL     OW 1405   1.548   1.262   1.099 -0.1362 -0.5507 -0.0372
  469SOL    HW1 1406   1.649   1.234   1.086  1.1421  2.9234 -0.3902
  469SOL    HW2 1407   1.537   1.338   1.164  0.6167 -0.8935 -3.0912
  470SOL     OW 1408   3.034   1.647   0.717 -0.9069 -0.4362 -0.9367
  470SOL    HW1 1409   3.124   1.655   0.766 -4.5220 -1.1019 -0.0747
  470SOL    HW2 1410   2.961   1.690   0.778  0.9235  1.0580 -0.6840
  471SOL     OW 1411   2.683   1.299   2.145 -0.3175 -0.0890 -0.1464
  471SOL    HW1 1412   2.641   1.236   2.218 -2.7312 -0.7475 -1.6135
  471SOL    HW2 1413   2.738   1.382   2.186  1.6423  1.0605  2.3763
  472SOL     OW 1414   1.109   2.468   0.019  0.5341 -0.1772  0.3984
  472SOL    HW1 1415   1.183   2.461   0.093 -0.1384  1.0928  0.6417
  472SOL    HW2 1416   1.055   2.381   0.006 -2.6257  0.3248  3.4112
  473SOL     OW 1417   1.060   1.588   0.849 -0.1678 -0.0272 -0.4279
  473SOL    HW1 1418   0.968   1.615   0.893  0.0098  1.5235  0.2347
  473SOL    HW2 1419   1.132   1.564   0.918 -2.3060  1.7190 -2.6982
  474SOL     OW 1420   0.804   1.212   0.741 -0.0146 -0.2106  0.5508
  474SOL    HW1 1421   0.754   1.201   0.653  0.7627  0.0304  0.3375
  474SOL    HW2 1422   0.870   1.134   0.753  1.9716  1.9467 -0.3992
  475SOL     OW 1423   2.872   0.090   0.753  0.2799 -0.1703  0.7861
  475SOL    HW1 1424   2.963   0.102   0.803  1.1271 -0.1201 -1.6323
  475SOL    HW2 1425   2.784   0.119   0.809  0.9161 -0.5389 -1.6660
  476SOL     OW 1426   0.871   3.062   1.830 -0.0796 -0.6098  0.2787
  476SOL    HW1 1427   0.955   3.028   1.880  0.5796 -1.5671 -0.2388
  476SOL    HW2 1428   0.870   3.037   1.730 -1.3515  0.6226 -0.4447
  477SOL     OW 1429   1.443   0.349   2.422  0.0342  0.6657  0.1355
  477SOL    HW1 1430   1.422   0.375   2.521 -0.1086 -0.6496  1.1823
  477SOL    HW2 1431   1.534   0.295   2.416 -0.6854  1.2450 -0.3938
  478SOL     OW 1432   2.282   1.817   0.246 -0.3160 -0.1024  0.6970
  478SOL    HW1 1433   2.220   1.735   0.227  0.4384 -0.2140 -0.5853
  478SOL    HW2 1434   2.381   1.794   0.256 -3.4195  0.4734  3.2982
  479SOL     OW 1435   1.239   1.098   2.853 -0.6087 -0.1500 -0.9842
  479SOL    HW1 1436   1.321   1.043   2.832  2.0026  0.3551 -0.0721
  479SOL    HW2 1437   1.152   1.060   2.812  0.0808 -2.2419 -1.4878
  480SOL     OW 1438   2.457   2.342   0.375  0.3831 -0.0188 -0.1666
  480SOL    HW1 1439   2.439   2.262   0.434 -1.5828  2.0771 -0.3027
  480SOL    HW2 1440   2.393   2.340   0.292 -1.5626  0.3799 -1.5578
  481SOL     OW 1441   1.106   1.187   0.813 -0.5238  0.4464  0.1004
  481SOL    HW1 1442   1.105   1.281   0.772  0.1592 -0.5231  0.8528
  481SOL    HW2 1443   1.111   1.182   0.917 -0.5484  2.1283 -1.3187
  482SOL     OW 1444   1.619   0.303   2.026  0.0026  0.2121 -0.1274
  482SOL    HW1 1445   1.633   0.385   1.968  1.3819 -1.7178  0.3462
  482SOL    HW2 1446   1.700   0.285   2.090  0.2506 -0.4635  1.8714
  483SOL     OW 1447   0.141   2.354   1.313 -0.2908  0.2067 -0.1274
  483SOL    HW1 1448   0.045   2.392   1.330  1.4230 -0.0918  2.3287
  483SOL    HW2 1449   0.173   2.379   1.219  0.0161  0.1678  2.2065
  484SOL     OW 1450   1.724   0.978   1.377 -0.1527 -0.3355 -0.0813
  484SOL    HW1 1451   1.813   0.936   1.415  1.4009 -0.7008  2.6712
  484SOL    HW2 1452   1.724   1.083   1.375  0.7737  0.6069 -0.7223
  485SOL     OW 1453   0.695   1.114   1.772  0.0171 -0.1574  0.0458
  485SOL    HW1 1454   0.692   1.083   1.671 -0.7648  0.5419 -1.0425
  485SOL    HW2 1455   0.778   1.163   1.796  0.2467 -1.2143 -1.4257
  486SOL     OW 1456   0.890   1.911   2.448 -0.4266 -0.1420 -0.4814
  486SOL    HW1 1457   0.951   1.872   2.518 -3.1533 -1.5042 -1.3587
  486SOL    HW2 1458   0.832   1.991   2.474  2.8302  1.2236 -0.3963
  487SOL     OW 1459   1.743   1.499   0.897 -0.2344 -0.0333  0.0324
  487SOL    HW1 1460   1.703   1.413   0.857  1.9624 -1.3994 -1.6838
  487SOL    HW2 1461   1.801   1.563   0.844  1.2846  1.1760  1.2789
  488SOL     OW 1462   2.952   0.975   2.289 -0.1876 -0.2172 -0.0571
  488SOL    HW1 1463   2.993   0.903   2.231 -0.3340  3.3929 -0.6805
  488SOL    HW2 1464   2.964   0.949   2.392  1.1431  0.4672  1.3896
  489SOL     OW 1465   2.806   0.214   1.308 -0.1249 -0.5191 -0.0911
  489SOL    HW1 1466   2.774   0.211   1.406  1.7491  2.2781  0.6152
  489SOL    HW2 1467   2.908   0.182   1.302  1.4795 -0.0331  1.9587
  490SOL     OW 1468   1.422   2.967   2.859  0.2626  0.3316 -0.3344
  490SOL    HW1 1469   1.434   2.868   2.869  2.5315  1.3467 -0.1710
  490SOL    HW2 1470   1.390   2.988   2.766  0.1798  2.2125  1.7284
  491SOL     OW 1471   1.907   1.556   2.672  0.0272 -0.0292 -0.7114
  491SOL    HW1 1472   1.833   1.582   2.739  3.0185 -4.5553  3.0386
  491SOL    HW2 1473   1.990   1.523   2.733  1.4425  1.2711  0.3205
  492SOL     OW 1474   0.473   1.952   0.740  0.3920 -0.3307 -0.0733
  492SOL    HW1 1475   0.534   1.974   0.819 -1.7079 -1.7953 -1.6226
  492SOL    HW2 1476   0.429   2.038   0.702 -0.7650  0.7591  1.8723
  493SOL     OW 1477   0.429   1.390   2.118  0.3676 -0.3865  0.1339
  493SOL    HW1 1478   0.336   1.435   2.119  0.6430  1.5543 -1.0995
  493SOL    HW2 1479   0.433   1.320   2.196  0.5765  0.4854  0.6963
  494SOL     OW 1480   2.631   2.661   0.168 -0.2086  0.3873  0.6547
  494SOL    HW1 1481   2.682   2.594   0.229  0.6019 -2.5003 -0.0074
  494SOL    HW2 1482   2.607   2.621   0.077 -1.2258  1.6737  1.7136
  495SOL     OW 1483   2.771   2.695   2.689  0.4633  0.3388  0.2016
  495SOL    HW1 1484   2.783   2.603   2.649 -0.9667  0.6270  1.1517
  495SOL    HW2 1485   2.775   2.774   2.617 -0.0516 -0.4035 -0.0389
  496SOL     OW 1486   2.071   2.185   0.721 -0.4253  0.2216 -0.0930
  496SOL    HW1 1487   2.065   2.192   0.830 -2.2974 -2.9572  0.2303
  496SOL    HW2 1488   2.011   2.108   0.681 -3.0538 -2.9593 -2.6210
  497SOL     OW 1489   0.241   2.968   2.420 -0.2297  0.5466 -0.1745
  497SOL    HW1 1490   0.180   2.997   2.493  0.3229 -2.5496 -1.1718
  497SOL    HW2 1491   0.252   3.043   2.351  0.8587 -1.1384  0.3625
  498SOL     OW 1492   1.206   1.490   1.104  0.3446  0.2257 -0.3697
  498SOL    HW1 1493   1.297   1.536   1.124 -0.8281  3.2474 -0.1812
  498SOL    HW2 1494   1.141   1.508   1.187  2.0299 -1.3505 -1.8783
  499SOL     OW 1495   0.855   1.844   0.517 -0.2919  0.2616 -0.3203
  499SOL    HW1 1496   0.806   1.754   0.541  0.1456  0.9254 -1.8859
  499SOL    HW2 1497   0.862   1.911   0.595  1.6268 -2.4370 -2.1879
  500SOL     OW 1498   1.434   2.990   1.679  0.7170 -0.0387 -0.7565
  500SOL    HW1 1499   1.458   3.036   1.771  0.0451  1.8096 -1.5107
  500SOL    HW2 1500   1.450   2.888   1.678 -0.0718  0.1088 -0.3875
  501SOL     OW 1501   0.729   1.136   2.286  0.0945 -0.3342  0.2032
  501SOL    HW1 1502   0.655   1.057   2.292  1.6444 -0.8545 -0.2101
  501SOL    HW2 1503   0.783   1.136   2.197  1.5067  0.8094  0.3900
  502SOL     OW 1504   2.615   0.963   1.721 -0.2095 -0.4017  0.2288
  502SOL    HW1 1505   2.586   0.974   1.624  0.7978 -2.2535  1.3547
  502SOL    HW2 1506   2.568   0.885   1.765 -1.4177  3.4655 -1.6068
  503SOL     OW 1507   1.340   0.168   0.625 -0.1861 -0.4240  0.3262
  503SOL    HW1 1508   1.255   0.226   0.609 -1.2333 -1.7417  0.0739
  503SOL    HW2 1509   1.432   0.223   0.635  2.2233 -0.8408 -1.8787
  504SOL     OW 1510   2.967   2.383   1.405  0.2529 -0.3528  0.0874
  504SOL    HW1 1511   2.976   2.462   1.464 -3.2547 -1.3983 -3.2340
  504SOL    HW2 1512   2.912   2.300   1.444  1.3669 -0.2679 -0.0855
  505SOL     OW 1513   2.314   1.240   1.429 -0.1106  0.1698 -0.3414
  505SOL    HW1 1514   2.275   1.332   1.392  1.8126  0.1216  2.3309
  505SOL    HW2 1515   2.405   1.251   1.481  2.3730 -0.3604 -1.8433
  506SOL     OW 1516   1.905   0.235   1.791  0.3558 -0.1038 -0.9184
  506SOL    HW1 1517   1.990   0.207   1.739 -2.4026 -2.1302 -1.0491
  506SOL    HW2 1518   1.894   0.337   1.815  1.0852  1.1319  0.3050
  507SOL     OW 1519   0.481   0.703   2.171 -0.5447  0.8501 -0.3869
  507SOL    HW1 1520   0.399   0.698   2.107 -1.0483  0.8607  0.7754
  507SOL    HW2 1521   0.537   0.616   2.169  0.4698  3.0227 -1.4111
  508SOL     OW 1522   0.165   1.671   0.833  0.1473  0.4768 -0.8787
  508SOL    HW1 1523   0.180   1.765   0.789 -0.3362  0.9826  0.3119
  508SOL    HW2 1524   0.184   1.672   0.938  3.6456 -2.9348  1.3459
  509SOL     OW 1525   1.357   1.186   2.579 -0.3783 -0.4002  0.3908
  509SOL    HW1 1526   1.281   1.230   2.522 -0.4026  2.4157 -2.9712
  509SOL    HW2 1527   1.344   1.079   2.580  0.2680  1.0521 -0.0726
  510SOL     OW 1528   1.325   1.995   2.020  0.0374  0.3450 -0.2736
  510SOL    HW1 1529   1.290   2.090   2.003 -0.1245 -2.4216  1.7931
  510SOL    HW2 1530   1.283   1.949   2.107 -2.3611 -1.3183  1.6882
  511SOL     OW 1531   3.088   2.635   1.301 -0.5736  0.0208 -0.4721
  511SOL    HW1 1532   3.031   2.615   1.217 -0.2942  0.0390  1.2671
  511SOL    HW2 1533   3.035   2.623   1.387  0.7304 -1.9963 -0.9689
  512SOL     OW 1534   2.409   0.425   1.371  0.0588 -0.4154  0.2360
  512SOL    HW1 1535   2.305   0.437   1.387 -1.8324  2.4688  0.4639
  512SOL    HW2 1536   2.440   0.355   1.298 -0.3754 -1.3025  1.8641
  513SOL     OW 1537   2.500   1.993   0.828  0.3024 -0.7199 -0.4352
  513SOL    HW1 1538   2.449   2.083   0.811  1.4917  0.7569  0.9010
  513SOL    HW2 1539   2.594   1.987   0.783  0.9611  0.2006  0.1903
  514SOL     OW 1540   0.670   2.803   0.405  0.0655  0.0643  0.2600
  514SOL    HW1 1541   0.637   2.875   0.340  0.3407  0.0982  2.1505
  514SOL    HW2 1542   0.718   2.839   0.490  0.2890 -1.8847 -1.7635
  515SOL     OW 1543   1.972   1.225   2.361 -0.4648  0.5479  0.5940
  515SOL    HW1 1544   1.909   1.246   2.282  0.1365 -1.3263 -0.8873
  515SOL    HW2 1545   1.919   1.236   2.447  3.6659 -1.4463  1.9583
  516SOL     OW 1546   0.272   0.318   1.971  0.2405  0.6406  0.2261
  516SOL    HW1 1547   0.367   0.292   1.936 -0.5136  0.7367  0.6652
  516SOL    HW2 1548   0.195   0.253   1.938 -1.8544 -1.2730 -2.7809
  517SOL     OW 1549   0.359   3.044   1.174  0.3073 -0.3673  1.1088
  517SOL    HW1 1550   0.379   3.144   1.198 -1.9720 -1.4644  0.2193
  517SOL    HW2 1551   0.300   2.994   1.238 -0.6872 -0.6704 -0.9827
  518SOL     OW 1552   2.139   0.168   1.651 -0.4066 -0.1760 -0.2493
  518SOL    HW1 1553   2.201   0.220   1.714  1.9600  1.2073 -0.2880
  518SOL    HW2 1554   2.170   0.070   1.625 -1.2290  0.3324 -1.2984
  519SOL     OW 1555   2.351   2.163   2.523 -0.1422  0.0691 -0.1554
  519SOL    HW1 1556   2.298   2.154   2.610  1.8794  2.5369 -0.5265
  519SOL    HW2 1557   2.407   2.247   2.520 -0.3727 -0.9408  1.1548
  520SOL     OW 1558   1.773   2.859   1.805  0.0276 -0.3172  0.4782
  520SOL    HW1 1559   1.703   2.849   1.879  2.4488  0.6134  0.4619
  520SOL    HW2 1560   1.839   2.779   1.806 -2.0122 -0.0199  4.3252
  521SOL     OW 1561   0.573   0.145   2.161  0.0919 -0.1039  0.6373
  521SOL    HW1 1562   0.478   0.107   2.185  0.7381 -1.2850  1.1232
  521SOL    HW2 1563   0.645   0.113   2.227 -1.4984  0.6568  0.8948
  522SOL     OW 1564   0.225   1.898   1.563  0.6575  0.3612  0.0842
  522SOL    HW1 1565   0.250   1.973   1.631 -1.1882  0.1404 -0.0880
  522SOL    HW2 1566   0.214   1.937   1.468 -0.3228 -0.2615  0.1299
  523SOL     OW 1567   2.218   3.008   1.611  0.1187  0.7992 -0.5082
  523SOL    HW1 1568   2.255   2.916   1.574  0.1483 -0.4028  0.0586
  523SOL    HW2 1569   2.117   3.002   1.619  2.1790  2.4914  2.4606
  524SOL     OW 1570   0.238   2.751   2.820 -0.3250  0.6558 -0.1725
  524SOL    HW1 1571   0.194   2.818   2.883 -1.6174 -1.9653 -1.6406
  524SOL    HW2 1572   0.331   2.769   2.781 -2.0181 -1.9046 -0.4151
  525SOL     OW 1573   2.132   1.930   0.468  0.1956  0.4346 -0.4184
  525SOL    HW1 1574   2.125   1.850   0.535 -1.7159 -2.6054 -0.1616
  525SOL    HW2 1575   2.193   1.902   0.389  0.8044  0.6764  0.4388
  526SOL     OW 1576   0.422   1.549   1.545  0.1835  0.7182 -0.3474
  526SOL    HW1 1577   0.353   1.531   1.619  0.9008  1.8368 -2.1578
  526SOL    HW2 1578   0.511   1.501   1.557 -0.2549  2.0037 -1.1131
  527SOL     OW 1579   1.108   2.894   1.199  0.0222  0.4900  0.1053
  527SOL    HW1 1580   1.159   2.856   1.284  1.1937 -0.5153 -1.1661
  527SOL    HW2 1581   1.117   2.995   1.186 -0.7213  0.5695  0.2046
  528SOL     OW 1582   1.347   2.396   0.448 -0.2118 -0.0486 -0.3814
  528SOL    HW1 1583   1.370   2.296   0.439 -0.0569 -0.8984  0.8202
  528SOL    HW2 1584   1.401   2.446   0.522 -0.9283  0.0007 -2.6133
  529SOL     OW 1585   1.823   1.731   0.784  0.1988 -0.1128 -0.0617
  529SOL    HW1 1586   1.788   1.753   0.686 -0.6667 -0.1218 -1.4163
  529SOL    HW2 1587   1.847   1.813   0.840 -1.5175 -1.7199 -0.4727
  530SOL     OW 1588   0.345   2.460   0.268  0.2915  0.3766 -0.6857
  530SOL    HW1 1589   0.348   2.554   0.302 -0.2401 -2.6920 -0.8808
  530SOL    HW2 1590   0.307   2.398   0.346  2.0735  0.1086 -2.7565
  531SOL     OW 1591   1.853   0.827   1.005  0.0888  0.2859 -0.2173
  531SOL    HW1 1592   1.896   0.851   0.913 -1.2578  0.9977  0.6980
  531SOL    HW2 1593   1.746   0.840   1.012 -3.4715  1.4947 -2.9653
  532SOL     OW 1594   0.491   1.090   0.757 -0.1783  0.0266  0.4691
  532SOL    HW1 1595   0.490   1.090   0.651  0.2610 -1.4039 -1.6343
  532SOL    HW2 1596   0.430   1.016   0.793 -1.2805  0.7472  2.0830
  533SOL     OW 1597   1.764   0.031   2.555 -0.4891 -0.3368  0.1870
  533SOL    HW1 1598   1.848  -0.000   2.603 -0.4823 -0.7426  1.6962
  533SOL    HW2 1599   1.705   0.095   2.611  1.0906  0.0165  0.1912
  534SOL     OW 1600   0.401   0.187   1.560  0.1329  0.5280 -0.0535
  534SOL    HW1 1601   0.497   0.200   1.596  0.9651  2.9486 -0.5970
  534SOL    HW2 1602   0.356   0.275   1.530  0.8081  1.7140  0.0570
  535SOL     OW 1603   1.941   0.343   0.170  0.1014 -0.0063 -0.8427
  535SOL    HW1 1604   1.964   0.433   0.222  0.0946 -0.2365 -0.8578
  535SOL    HW2 1605   1.955   0.265   0.243  0.4525 -0.4368  2.2411
  536SOL     OW 1606   1.365   2.610   0.906 -0.3346 -0.0994 -0.5519
  536SOL    HW1 1607   1.338   2.556   0.986  1.6683  1.8200 -2.1539
  536SOL    HW2 1608   1.289   2.652   0.852 -1.0300 -0.3974 -0.5776
  537SOL     OW 1609   0.840   0.254   2.363 -0.0490 -0.3352 -0.2065
  537SOL    HW1 1610   0.884   0.311   2.294  0.7627 -0.3095  1.0840
  537SOL    HW2 1611   0.844   0.152   2.344  1.6776 -3.7288 -1.3340
  538SOL     OW 1612   1.658   2.366   1.385  0.0526  0.5789  0.2232
  538SOL    HW1 1613   1.637   2.266   1.382  1.7346 -0.8326  1.5348
  538SOL    HW2 1614   1.758   2.385   1.401  0.5703  1.5833  0.9661
  539SOL     OW 1615   0.178   1.607   2.690 -0.2513  0.1913 -0.7495
  539SOL    HW1 1616   0.091   1.568   2.647 -0.2695 -0.0549  1.1808
  539SOL    HW2 1617   0.165   1.695   2.743  1.4604  0.4664  1.7070
  540SOL     OW 1618   2.668   1.711   1.913  0.2677  0.0947  0.2049
  540SOL    HW1 1619   2.617   1.626   1.946  0.3471 -0.7661 -0.1783
  540SOL    HW2 1620   2.612   1.796   1.944 -2.6337  0.7054  0.4708
  541SOL     OW 1621   0.546   2.152   0.026 -0.3681 -0.4692  0.1094
  541SOL    HW1 1622   0.548   2.104   0.122  0.3012 -2.2189  1.1964
  541SOL    HW2 1623   0.452   2.143  -0.021 -0.7565 -2.2215  1.0137
  542SOL     OW 1624   2.245   2.660   0.543  0.4618  0.1874  0.9307
  542SOL    HW1 1625   2.228   2.741   0.606  1.8882  2.2578 -0.0932
  542SOL    HW2 1626   2.164   2.598   0.529 -2.7872  2.3837  1.9346
  543SOL     OW 1627   1.095   1.791   1.596  0.0924 -0.4522  0.8286
  543SOL    HW1 1628   1.095   1.803   1.697 -0.1273 -1.9079 -1.1088
  543SOL    HW2 1629   1.054   1.876   1.545 -0.0320  0.2865 -1.7359
  544SOL     OW 1630   1.175   0.524   0.158  0.4725  0.0885 -0.5130
  544SOL    HW1 1631   1.138   0.442   0.211  1.1832  1.3592  1.6727
  544SOL    HW2 1632   1.212   0.499   0.067 -0.5616 -3.3589  2.7049
  545SOL     OW 1633   1.114   1.851   0.776 -0.1929 -0.0349  0.3201
  545SOL    HW1 1634   1.203   1.864   0.728 -0.1604 -2.1811 -0.2948
  545SOL    HW2 1635   1.092   1.749   0.790 -0.3969 -0.3041  0.4413
  546SOL     OW 1636   2.675   1.609   2.985 -0.2509  0.6574  0.5390
  546SOL    HW1 1637   2.617   1.696   2.977 -0.0245 -1.1207 -1.6027
  546SOL    HW2 1638   2.624   1.522   2.998 -1.7554 -1.0731 -0.5148
  547SOL     OW 1639   0.662   3.043   2.521 -0.0187  0.1570  0.5299
  547SOL    HW1 1640   0.720   2.997   2.602  1.4792 -2.5032  1.7009
  547SOL    HW2 1641   0.589   2.981   2.484  1.2271  2.1628  1.4022
  548SOL     OW 1642   2.056   0.761   3.039 -0.6006 -0.1608 -0.3078
  548SOL    HW1 1643   1.957   0.733   3.062 -1.1925  1.5466  0.3702
  548SOL    HW2 1644   2.073   0.860   3.068  0.3495  0.7812  2.4092
  549SOL     OW 1645   0.696   0.569   0.190  0.0980  0.6713 -0.4250
  549SOL    HW1 1646   0.652   0.576   0.097 -0.2510  3.5811 -0.4101
  549SOL    HW2 1647   0.778   0.629   0.208 -0.6899 -1.8118 -1.9229
  550SOL     OW 1648   2.567   2.793   2.859  0.0274 -0.5051  0.4998
  550SOL    HW1 1649   2.529   2.727   2.926  2.2482 -0.3206  1.1493
  550SOL    HW2 1650   2.650   2.756   2.811  0.5915 -1.2966 -0.3271
  551SOL     OW 1651   0.246   0.873   0.258  0.7373 -0.0814 -0.3861
  551SOL    HW1 1652   0.344   0.881   0.228 -1.9433 -2.5128 -1.8897
  551SOL    HW2 1653   0.236   0.886   0.360  1.9296  3.4094 -0.2014
  552SOL     OW 1654   0.610   3.037   1.971  0.7820 -0.0530 -0.4935
  552SOL    HW1 1655   0.595   3.120   2.034  0.2331  0.9871  0.3961
  552SOL    HW2 1656   0.706   3.032   1.938 -0.7047  0.3268  0.4230
  553SOL     OW 1657   2.992   2.394   0.381  0.0723  0.0492 -0.1203
  553SOL    HW1 1658   2.993   2.288   0.393  0.9003 -1.6615 -0.4895
  553SOL    HW2 1659   2.897   2.424   0.371  2.2798  1.2678  1.6870
  554SOL     OW 1660   2.208   0.369   0.528 -0.3810 -0.2623  0.4502
  554SOL    HW1 1661   2.275   0.377   0.448  0.7101  0.6034 -2.1581
  554SOL    HW2 1662   2.207   0.277   0.579  0.6733 -0.9226  0.6740
  555SOL     OW 1663   0.477   2.855   2.471 -0.0729 -0.0350  0.1071
  555SOL    HW1 1664   0.389   2.916   2.459 -2.5987  0.9321  1.3723
  555SOL    HW2 1665   0.479   2.763   2.420  0.7210  2.5440  0.8807
  556SOL     OW 1666   0.820   2.448   1.605  0.1588 -0.6357  0.2891
  556SOL    HW1 1667   0.855   2.506   1.689  2.3613  1.5705 -1.0768
  556SOL    HW2 1668   0.887   2.439   1.528 -3.0192 -2.3248 -0.3588
  557SOL     OW 1669   0.263   2.093   0.281  0.4764  0.1982 -0.5018
  557SOL    HW1 1670   0.195   2.030   0.225 -1.5529 -1.3893 -0.5773
  557SOL    HW2 1671   0.321   2.164   0.231  2.8951  1.3945 -2.7693
  558SOL     OW 1672   2.837   2.125   0.400  0.2739 -0.0480 -0.1996
  558SOL    HW1 1673   2.774   2.201   0.407 -1.2857 -3.5148 -1.4345
  558SOL    HW2 1674   2.783   2.046   0.363 -3.2835  1.4187  1.4172
  559SOL     OW 1675   0.395   2.323   1.448 -0.3869 -0.4348  0.2286
  559SOL    HW1 1676   0.314   2.356   1.403  0.1036 -2.0387  3.7253
  559SOL    HW2 1677   0.453   2.254   1.391  1.5980  2.9756  0.3126
  560SOL     OW 1678   2.132   1.021   3.098  0.0615 -0.7013  0.2528
  560SOL    HW1 1679   2.190   1.074   3.163  1.2150  1.7311  0.0258
  560SOL    HW2 1680   2.180   1.003   3.006  3.3443 -0.4907 -2.1645
  561SOL     OW 1681   0.025   1.940   0.194 -0.2494  0.6140  0.5327
  561SOL    HW1 1682  -0.019   1.853   0.224 -0.7328  2.3386 -2.5057
  561SOL    HW2 1683  -0.032   1.992   0.126 -0.5415 -2.0925  1.9013
  562SOL     OW 1684   1.085   2.081   2.257 -0.5866  0.0957 -0.5725
  562SOL    HW1 1685   1.048   2.177   2.289 -0.1768  1.0867 -0.6653
  562SOL    HW2 1686   1.037   1.999   2.293 -1.7525  1.2545 -0.1641
  563SOL     OW 1687   0.660   2.537   2.666  0.0093  0.3030  0.1176
  563SOL    HW1 1688   0.745   2.521   2.610  0.8819  0.6284  3.6136
  563SOL    HW2 1689   0.683   2.566   2.764 -0.2132 -0.1171  0.0089
  564SOL     OW 1690   2.851   1.404   2.878 -0.1563  0.3445 -0.2037
  564SOL    HW1 1691   2.784   1.468   2.919  0.5952  0.8985 -1.7004
  564SOL    HW2 1692   2.942   1.452   2.849  1.3421 -1.2265  1.6738
  565SOL     OW 1693   2.529   1.969   2.637  0.0047  0.3068 -0.0550
  565SOL    HW1 1694   2.482   2.057   2.600 -1.4221 -0.5446 -0.3757
  565SOL    HW2 1695   2.607   1.986   2.708 -0.8394 -1.5619  1.3873
  566SOL     OW 1696   1.961   2.893   1.442 -0.6703  0.3929 -0.1931
  566SOL    HW1 1697   1.961   2.794   1.472 -0.3727 -0.6945  0.3184
  566SOL    HW2 1698   1.934   2.910   1.343 -1.9434 -3.0876  0.0862
  567SOL     OW 1699   2.374   0.023   2.327 -0.9814  0.1152 -0.4919
  567SOL    HW1 1700   2.286   0.054   2.372  2.1630  1.3642  2.3205
  567SOL    HW2 1701   2.372   0.038   2.226 -0.7148  1.2487  1.8520
  568SOL     OW 1702   1.502   1.719   0.251  0.1160  0.3549 -0.4912
  568SOL    HW1 1703   1.443   1.801   0.224  1.9295 -2.0565 -2.7004
  568SOL    HW2 1704   1.602   1.744   0.268 -1.2041  0.7722 -0.4829
  569SOL     OW 1705   0.252   0.587   0.898 -0.5478  0.0040  0.1326
  569SOL    HW1 1706   0.273   0.525   0.817  0.9006 -1.8968 -1.0403
  569SOL    HW2 1707   0.149   0.601   0.921  1.2261 -0.4469  0.0793
  570SOL     OW 1708   0.633   0.862   2.908  0.0189 -0.3262 -0.0793
  570SOL    HW1 1709   0.681   0.869   2.816  1.6581  0.9226 -0.1932
  570SOL    HW2 1710   0.659   0.934   2.972 -1.3552 -0.8160 -1.7619
  571SOL     OW 1711   0.762   3.067   1.068  0.3270 -0.1052  0.1436
  571SOL    HW1 1712   0.820   3.112   0.991 -0.9019 -1.1016 -1.7880
  571SOL    HW2 1713   0.807   2.976   1.101  1.9967  0.5764 -2.0730
  572SOL     OW 1714   1.653   2.705   1.424  0.0488  0.4051 -0.1761
  572SOL    HW1 1715   1.618   2.614   1.396 -2.8443  2.1926  1.1301
  572SOL    HW2 1716   1.606   2.788   1.373  3.1577  2.8864  0.9380
  573SOL     OW 1717   3.052   0.489   1.925 -0.3857 -0.0492 -0.1938
  573SOL    HW1 1718   3.043   0.388   1.911 -2.3459  0.0721 -0.4605
  573SOL    HW2 1719   3.113   0.534   1.849  3.7648 -0.6684 -2.4917
  574SOL     OW 1720   0.137   1.664   1.103 -0.4242  0.0481 -0.1703
  574SOL    HW1 1721   0.144   1.617   1.196  1.8383 -0.2042 -1.3352
  574SOL    HW2 1722   0.090   1.758   1.109 -0.8856 -1.1054  1.2811
  575SOL     OW 1723   0.880   2.239   0.993  0.0156  0.2405  0.0626
  575SOL    HW1 1724   0.841   2.279   1.084  0.7567  0.2830 -0.1937
  575SOL    HW2 1725   0.891   2.310   0.918  1.0477 -0.5820 -0.7366
  576SOL     OW 1726   2.941   2.999   1.715 -0.3652 -0.2524 -0.4212
  576SOL    HW1 1727   2.838   2.992   1.695  0.8610  0.2788 -0.5037
  576SOL    HW2 1728   2.983   3.095   1.693  1.1744  4.0082  0.8761
  577SOL     OW 1729   2.671   1.230   3.072 -0.1715  0.6421 -0.9379
  577SOL    HW1 1730   2.669   1.138   3.021 -1.9872 -1.2554  0.1678
  577SOL    HW2 1731   2.753   1.254   3.130 -0.0635 -2.4431 -2.2524
  578SOL     OW 1732   1.397   2.733   2.538  0.1551 -0.5132 -0.2328
  578SOL    HW1 1733   1.306   2.762   2.498 -2.1251  0.9750  0.9757
  578SOL    HW2 1734   1.476   2.795   2.514 -0.6949 -1.6746  0.5692
  579SOL     OW 1735   0.091   2.410   0.164  0.4119 -0.4097 -0.3302
  579SOL    HW1 1736   0.030   2.431   0.244 -0.1268  0.2751 -0.3953
  579SOL    HW2 1737   0.195   2.418   0.188  0.5555 -1.1219  1.6573
  580SOL     OW 1738   0.945   2.680   0.409 -0.5068 -0.2141  0.0161
  580SOL    HW1 1739   0.979   2.664   0.312  0.2787  0.6370 -0.1391
  580SOL    HW2 1740   0.851   2.718   0.404  0.2183 -3.1731  1.1210
  581SOL     OW 1741   1.287   2.721   1.463 -0.3111  0.6702  0.5013
  581SOL    HW1 1742   1.301   2.621   1.450  0.2991  2.7085  0.2951
  581SOL    HW2 1743   1.366   2.777   1.419 -0.9190 -0.4114  0.3242
  582SOL     OW 1744   1.510   0.058   1.901 -0.0483 -0.4232 -0.6566
  582SOL    HW1 1745   1.530   0.132   1.971 -0.7068  1.0024 -1.2384
  582SOL    HW2 1746   1.552   0.086   1.807 -1.1138 -1.6433  1.4439
  583SOL     OW 1747   2.442   3.015   0.511 -0.1451 -0.5065 -0.8465
  583SOL    HW1 1748   2.532   2.984   0.463  0.6446 -1.8942 -1.8374
  583SOL    HW2 1749   2.392   2.941   0.564 -1.8970 -2.3628 -0.1810
  584SOL     OW 1750   1.575   1.102   2.248 -0.5762 -0.3959 -0.0546
  584SOL    HW1 1751   1.618   1.196   2.267 -1.6301 -0.0567 -2.5057
  584SOL    HW2 1752   1.625   1.025   2.307  0.0268 -2.8448  0.2269
  585SOL     OW 1753   2.021   2.666   2.884 -0.2099 -0.0528  0.0684
  585SOL    HW1 1754   2.035   2.560   2.870  2.4325 -0.3952  0.5353
  585SOL    HW2 1755   1.923   2.698   2.899  0.9818  1.2628  0.5283
  586SOL     OW 1756   2.944   0.390   1.607 -0.4255  0.6309 -0.2228
  586SOL    HW1 1757   2.947   0.484   1.639 -0.0804 -4.2420 -1.5896
  586SOL    HW2 1758   2.847   0.361   1.586 -2.1661 -0.3304  2.4568
  587SOL     OW 1759   2.165   1.463   2.760  0.6785  0.1559  0.5137
  587SOL    HW1 1760   2.159   1.412   2.667 -0.0375  0.8587 -0.6824
  587SOL    HW2 1761   2.259   1.508   2.774 -0.9238  0.6868  0.1802
  588SOL     OW 1762   0.501   2.631   2.298 -0.4577 -0.2488 -0.6157
  588SOL    HW1 1763   0.479   2.668   2.205 -2.5671 -1.0930  1.7076
  588SOL    HW2 1764   0.456   2.538   2.323 -0.7698 -5.1550  1.2912
  589SOL     OW 1765   2.177   1.354   2.501 -0.0378  0.3618  0.3379
  589SOL    HW1 1766   2.120   1.281   2.446 -0.3000 -1.3928 -0.6876
  589SOL    HW2 1767   2.279   1.337   2.494 -2.5912  0.1090  2.9867
  590SOL     OW 1768   2.298   1.696   2.085 -0.0648 -0.0202 -0.0970
  590SOL    HW1 1769   2.388   1.642   2.086 -1.0220  0.5116 -2.2113
  590SOL    HW2 1770   2.264   1.729   2.180 -1.8978  2.3387  0.4717
  591SOL     OW 1771   1.334   2.451   0.171  0.1724  0.3576  0.1778
  591SOL    HW1 1772   1.365   2.363   0.116  1.1859 -1.9156  0.0917
  591SOL    HW2 1773   1.351   2.448   0.269  0.8029  1.6267 -1.2713
  592SOL     OW 1774   1.778   2.350   0.812  0.0568 -0.3444 -0.0131
  592SOL    HW1 1775   1.766   2.393   0.717  0.9681  1.9775  0.0005
  592SOL    HW2 1776   1.873   2.379   0.851  1.6449 -1.4318  1.3954
  593SOL     OW 1777   0.746   0.299   0.214 -0.1823 -0.2892 -0.4731
  593SOL    HW1 1778   0.777   0.259   0.126 -1.8413 -0.5807  0.1629
  593SOL    HW2 1779   0.765   0.402   0.219  0.7982 -0.1812  0.7379
  594SOL     OW 1780   1.093   1.793   2.662  0.1674 -0.3615 -0.2860
  594SOL    HW1 1781   1.193   1.797   2.636  2.2629  0.4312 -1.4213
  594SOL    HW2 1782   1.072   1.847   2.751 -1.4938 -1.2312  3.4787
  595SOL     OW 1783   1.530   0.149   0.997  0.2739  0.6855  0.2434
  595SOL    HW1 1784   1.583   0.060   0.979  1.1340 -1.6811 -0.8945
  595SOL    HW2 1785   1.434   0.134   0.954 -0.3455 -1.4162 -0.4125
  596SOL     OW 1786   0.163   1.398   2.212  0.3714 -0.2251 -0.1809
  596SOL    HW1 1787   0.086   1.328   2.235  2.1450 -0.1543 -1.9304
  596SOL    HW2 1788   0.176   1.473   2.281 -0.3792  0.3068 -1.1981
  597SOL     OW 1789   2.009   2.695   1.830 -0.5889  0.1716  0.0091
  597SOL    HW1 1790   1.970   2.676   1.732 -0.6614 -0.2599 -2.8180
  597SOL    HW2 1791   2.109   2.687   1.830 -0.2653 -0.4479  1.4692
  598SOL     OW 1792   2.480   2.842   1.296  0.2024 -0.4285  0.0068
  598SOL    HW1 1793   2.571   2.881   1.337  0.7144 -3.8970  0.8398
  598SOL    HW2 1794   2.492   2.745   1.256 -3.0385 -0.5961 -2.1972
  599SOL     OW 1795   2.879   0.271   2.529  0.4459  0.0733 -0.3079
  599SOL    HW1 1796   2.961   0.288   2.471 -1.2768  0.3623 -0.3197
  599SOL    HW2 1797   2.806   0.334   2.490  3.3827  1.3880  1.4175
  600SOL     OW 1798   2.777   1.157   2.771 -0.3759 -0.0795 -0.1806
  600SOL    HW1 1799   2.733   1.087   2.834 -1.7586  1.8159  1.4680
  600SOL    HW2 1800   2.780   1.254   2.813 -0.8654 -1.3672 -1.7992
  601SOL     OW 1801   2.961   1.352   1.968  0.0142  0.6142 -1.0695
  601SOL    HW1 1802   2.898   1.379   1.893 -1.7858 -3.1502  1.2658
  601SOL    HW2 1803   3.055   1.398   1.951  1.0849  0.7775 -3.1868
  602SOL     OW 1804   1.559   1.543   2.303  0.0650  0.1297  0.6118
  602SOL    HW1 1805   1.464   1.527   2.345 -0.3718 -0.2326  0.0656
  602SOL    HW2 1806   1.626   1.595   2.364 -1.0263  0.5569 -1.7116
  603SOL     OW 1807   0.600   1.199   2.692  0.1392 -0.6225 -0.0331
  603SOL    HW1 1808   0.506   1.238   2.670 -0.5132 -1.7759  2.0855
  603SOL    HW2 1809   0.613   1.097   2.669  0.4934  0.3094  0.6854
  604SOL     OW 1810   2.538   1.072   0.234  0.0074 -0.4538  0.5765
  604SOL    HW1 1811   2.629   1.125   0.236 -0.9961 -0.8266 -2.8014
  604SOL    HW2 1812   2.540   1.007   0.155 -0.6086  3.4988 -1.3734
  605SOL     OW 1813   2.581   1.196   1.902  0.2432  0.2188 -0.1486
  605SOL    HW1 1814   2.613   1.110   1.848  0.9846 -0.7339 -0.3085
  605SOL    HW2 1815   2.640   1.224   1.988 -0.2073 -0.3159  1.7745
  606SOL     OW 1816   1.541   2.472   2.589  0.2631  0.3870  0.1211
  606SOL    HW1 1817   1.466   2.531   2.542 -0.9952 -1.3725 -0.6334
  606SOL    HW2 1818   1.530   2.374   2.562  0.6322  0.1505  0.3356
  607SOL     OW 1819   1.259   1.589   0.266  0.4196 -0.4015  0.3585
  607SOL    HW1 1820   1.182   1.652   0.300 -0.9648 -2.3169  0.4906
  607SOL    HW2 1821   1.359   1.619   0.285  1.9085  1.4403 -1.3486
  608SOL     OW 1822   1.376   2.800   0.339  0.3123 -0.5243 -0.2809
  608SOL    HW1 1823   1.427   2.834   0.253  0.6207 -0.1536 -1.6718
  608SOL    HW2 1824   1.359   2.882   0.405 -0.8457 -1.0808  0.5655
  609SOL     OW 1825   1.302   1.322   0.181 -0.1197 -0.4531  0.3276
  609SOL    HW1 1826   1.294   1.419   0.219 -0.1456 -2.2689 -1.0148
  609SOL    HW2 1827   1.259   1.310   0.092  0.2102  1.5319  0.7780
  610SOL     OW 1828   3.030   1.220   2.204  0.1989  0.3348 -0.5904
  610SOL    HW1 1829   2.987   1.129   2.211  0.2118  0.2452 -2.1810
  610SOL    HW2 1830   2.994   1.266   2.121  0.9483  0.7901  0.8256
  611SOL     OW 1831   2.562   0.190   1.142  0.1142  0.0130 -0.2233
  611SOL    HW1 1832   2.494   0.122   1.188  0.2086 -1.6871 -0.9161
  611SOL    HW2 1833   2.654   0.194   1.194 -1.2539 -1.3206  1.3550
  612SOL     OW 1834   0.764   2.360   1.247 -0.0023  0.2575  0.3998
  612SOL    HW1 1835   0.709   2.286   1.290  2.4437 -0.9378  1.6666
  612SOL    HW2 1836   0.709   2.438   1.212  0.5351  1.0128  1.9743
  613SOL     OW 1837   0.775   1.383   2.377 -0.0920 -0.2591  0.4151
  613SOL    HW1 1838   0.788   1.458   2.306  0.5349 -1.9345  0.6475
  613SOL    HW2 1839   0.748   1.293   2.335 -0.3337  2.3906  0.3812
  614SOL     OW 1840   1.508   1.654   1.902  0.1554  0.7627  0.9448
  614SOL    HW1 1841   1.474   1.728   1.840  0.8368 -2.0438 -0.9828
  614SOL    HW2 1842   1.589   1.683   1.955 -3.9422 -0.7638  0.4668
  615SOL     OW 1843   0.718   1.473   1.715 -0.3133 -0.0277 -0.4635
  615SOL    HW1 1844   0.700   1.380   1.671 -1.0739  2.2758  3.3763
  615SOL    HW2 1845   0.794   1.525   1.670  0.8477 -0.5119 -2.6133
  616SOL     OW 1846   1.139   1.572   2.196  0.3904  0.5996  0.0088
  616SOL    HW1 1847   1.039   1.547   2.206  0.5180  1.7873  1.1688
  616SOL    HW2 1848   1.155   1.617   2.100  0.3672 -1.1416 -2.4294
  617SOL     OW 1849   2.992   1.582   1.645 -0.6602  0.4128 -0.1011
  617SOL    HW1 1850   2.916   1.523   1.690 -2.0856  0.1468  0.3705
  617SOL    HW2 1851   3.022   1.535   1.556  0.7877 -0.6871  1.2729
  618SOL     OW 1852   1.911   2.000   1.462  0.5953  0.2452 -0.3335
  618SOL    HW1 1853   1.984   1.979   1.389  0.0350  0.9211 -0.0768
  618SOL    HW2 1854   1.884   1.913   1.515 -0.6183 -1.9827  0.8031
  619SOL     OW 1855   1.780   0.541   2.359 -0.1121  0.2862 -0.1169
  619SOL    HW1 1856   1.730   0.612   2.304  1.8135 -1.4918  1.1968
  619SOL    HW2 1857   1.738   0.446   2.362  0.5390 -0.4411  2.0277
  620SOL     OW 1858   2.227   2.902   0.669 -0.6391 -0.2613 -0.0278
  620SOL    HW1 1859   2.142   2.965   0.664 -0.3720 -0.5652  0.4932
  620SOL    HW2 1860   2.252   2.880   0.768 -0.3864  1.8423  0.3840
  621SOL     OW 1861   2.158   1.895   1.350 -0.4155 -0.4235  0.0376
  621SOL    HW1 1862   2.171   1.873   1.452 -2.3759  1.0573  3.7448
  621SOL    HW2 1863   2.154   1.804   1.297 -0.3800 -1.5866 -0.3116
  622SOL     OW 1864   2.228   1.000   1.851  0.1753 -0.5772  0.0245
  622SOL    HW1 1865   2.304   0.932   1.846 -1.3469 -0.0232 -0.4390
  622SOL    HW2 1866   2.139   0.949   1.880  1.1118  0.1146 -2.0223
  623SOL     OW 1867   1.288   0.926   2.567 -0.2516  0.4498  0.0987
  623SOL    HW1 1868   1.246   0.862   2.642 -3.0265  2.0109  0.2338
  623SOL    HW2 1869   1.237   0.930   2.475 -1.0989 -2.4546 -0.1774
  624SOL     OW 1870   0.544   0.693   0.008 -0.0493  0.0221 -0.5760
  624SOL    HW1 1871   0.570   0.735  -0.081  2.4452 -2.4714  3.7626
  624SOL    HW2 1872   0.569   0.766   0.078 -0.1461 -0.6562 -4.8776
  625SOL     OW 1873   2.781   1.739   0.795 -0.1079 -0.1902  0.1989
  625SOL    HW1 1874   2.761   1.771   0.892  3.0317 -0.2794 -0.0957
  625SOL    HW2 1875   2.714   1.663   0.771 -1.3672  0.0907 -0.4837
  626SOL     OW 1876   0.400   2.786   2.056 -0.4736  0.6128  0.4000
  626SOL    HW1 1877   0.431   2.882   2.072 -1.2655  0.3471 -1.4212
  626SOL    HW2 1878   0.364   2.775   1.962 -1.3822 -1.7572  2.8744
  627SOL     OW 1879   0.720   1.027   1.495 -0.7774  0.2986 -0.4309
  627SOL    HW1 1880   0.773   0.936   1.505 -1.7492 -0.4947  2.4848
  627SOL    HW2 1881   0.772   1.100   1.448 -2.6059 -2.0348  4.1909
  628SOL     OW 1882   2.443   0.141   0.691  0.4651 -0.4042 -0.4276
  628SOL    HW1 1883   2.449   0.070   0.617 -2.0884  2.5333  1.2829
  628SOL    HW2 1884   2.346   0.160   0.720  1.1227 -1.8447 -1.0598
  629SOL     OW 1885   1.975   0.960   1.954 -0.1137  0.3777 -0.2374
  629SOL    HW1 1886   2.013   0.971   2.052  2.3467 -1.0008  1.2386
  629SOL    HW2 1887   1.913   1.039   1.932 -0.8964 -0.6869 -0.0599
  630SOL     OW 1888   2.836   2.201   0.755  0.1262  0.1230  0.5474
  630SOL    HW1 1889   2.769   2.255   0.812  2.5051 -1.1045 -0.7955
  630SOL    HW2 1890   2.795   2.120   0.695 -0.5834 -1.7455 -0.9755
  631SOL     OW 1891   2.994   0.197   2.141  0.4185 -0.8073  0.0003
  631SOL    HW1 1892   3.049   0.210   2.224 -0.2124 -2.6917  1.1050
  631SOL    HW2 1893   3.048   0.167   2.058  0.9385 -1.0594 -2.2851
  632SOL     OW 1894   2.372   2.520   0.766  0.3865  0.4300 -0.2218
  632SOL    HW1 1895   2.437   2.592   0.808  3.8357 -1.2330  4.1629
  632SOL    HW2 1896   2.353   2.538   0.668  1.1301 -1.0652  1.3555
  633SOL     OW 1897   1.592   1.282   2.693 -0.0997 -0.1458  0.3052
  633SOL    HW1 1898   1.544   1.344   2.762 -1.1108  0.5047 -1.0310
  633SOL    HW2 1899   1.517   1.233   2.638 -0.6559 -3.1109  1.6949
  634SOL     OW 1900   0.640   2.082   0.907  0.1052 -0.2940 -0.6424
  634SOL    HW1 1901   0.579   2.138   0.972 -1.4031  1.0952  1.4167
  634SOL    HW2 1902   0.719   2.138   0.881 -2.0255 -2.6495 -2.3329
  635SOL     OW 1903   0.071   2.243   3.031  0.3140 -0.0433  0.4694
  635SOL    HW1 1904  -0.014   2.306   3.013 -1.5021 -0.4685  1.4254
  635SOL    HW2 1905   0.111   2.261   3.128  0.0577  0.6953  3.4242
  636SOL     OW 1906   2.329   2.877   2.022  0.6020 -0.4213 -0.7880
  636SOL    HW1 1907   2.293   2.976   2.041  2.0970 -0.2948  0.3921
  636SOL    HW2 1908   2.280   2.802   2.080 -0.2534 -1.6489  4.0237
  637SOL     OW 1909   2.597   0.718   2.068 -0.5288  0.0690  0.0730
  637SOL    HW1 1910   2.561   0.738   1.976  1.4950 -2.1844  1.4565
  637SOL    HW2 1911   2.659   0.792   2.108 -2.6886 -0.4007 -2.0914
  638SOL     OW 1912   2.429   1.900   1.429 -0.5678 -0.1554  0.6487
  638SOL    HW1 1913   2.327   1.899   1.391 -2.9454 -2.7905 -1.8856
  638SOL    HW2 1914   2.469   1.804   1.439 -3.2810 -0.5544 -1.5536
  639SOL     OW 1915   1.291   2.239   1.553 -0.0843 -0.2371  0.4126
  639SOL    HW1 1916   1.284   2.150   1.498 -1.1176  1.0102 -0.1933
  639SOL    HW2 1917   1.216   2.248   1.623 -1.2934 -1.3428 -1.4283
  640SOL     OW 1918   0.229   1.222   1.515  0.5399 -0.8727  0.6471
  640SOL    HW1 1919   0.246   1.279   1.605  1.6076  0.8588  1.0582
  640SOL    HW2 1920   0.292   1.139   1.513 -0.0733 -2.9960 -0.6176
  641SOL     OW 1921   1.891   0.256   1.423 -0.6700 -0.1333  0.2088
  641SOL    HW1 1922   1.830   0.317   1.482 -2.2617  1.4237  0.3450
  641SOL    HW2 1923   1.947   0.192   1.472  0.0987  4.5014 -0.8981
  642SOL     OW 1924   2.012   0.104   0.329 -0.3078  0.1872  0.0226
  642SOL    HW1 1925   2.115   0.091   0.344 -0.9134 -1.1496  0.0206
  642SOL    HW2 1926   1.966   0.080   0.416 -0.0457 -0.8015  0.9656
  643SOL     OW 1927   2.806   1.890   2.137 -0.1381 -0.3105 -0.1190
  643SOL    HW1 1928   2.767   1.798   2.108  0.1062  1.3054 -0.8058
  643SOL    HW2 1929   2.827   1.959   2.060  0.0992  1.4125  1.9935
  644SOL     OW 1930   2.187   2.266   1.231  0.5782  0.1670  0.1501
  644SOL    HW1 1931   2.284   2.234   1.226 -0.7919  2.3682 -2.0791
  644SOL    HW2 1932   2.159   2.313   1.321  0.8175 -0.9567 -1.5835
  645SOL     OW 1933   0.692   0.841   1.118 -0.2736 -0.3783 -0.9483
  645SOL    HW1 1934   0.631   0.764   1.078 -3.6685  0.2993  2.1014
  645SOL    HW2 1935   0.675   0.926   1.057  0.0853 -0.4786 -0.5024
  646SOL     OW 1936   1.446   1.902   1.789  0.0566 -0.4260  0.5664
  646SOL    HW1 1937   1.526   1.965   1.766  1.2021 -1.8135  0.5627
  646SOL    HW2 1938   1.391   1.926   1.871 -0.4508 -3.4390 -1.4308
  647SOL     OW 1939   0.897   0.928   0.697  0.1043  0.2233 -0.2463
  647SOL    HW1 1940   0.988   0.908   0.744  1.0047  2.1507  1.0688
  647SOL    HW2 1941   0.806   0.889   0.736 -0.4930  2.3869 -1.6344
  648SOL     OW 1942   0.111   0.249   0.324 -0.5484  0.2799 -0.2655
  648SOL    HW1 1943   0.023   0.196   0.316 -1.7048 -1.7902  1.9218
  648SOL    HW2 1944   0.122   0.327   0.263 -4.3945 -2.2449  2.2267
  649SOL     OW 1945   0.000   0.012   0.954  0.1233 -0.3143 -0.2973
  649SOL    HW1 1946   0.103   0.031   0.952  1.9455  0.9623  2.2160
  649SOL    HW2 1947  -0.038   0.047   1.043  1.1114  0.6569 -1.5591
  650SOL     OW 1948   2.725   0.720   1.445  0.1923 -0.3246 -0.0618
  650SOL    HW1 1949   2.625   0.708   1.477 -0.1799  0.9410  2.5887
  650SOL    HW2 1950   2.725   0.795   1.369  2.3592  2.2305  0.3796
  651SOL     OW 1951   0.916   1.593   1.524 -0.2821  0.6411 -0.3823
  651SOL    HW1 1952   0.980   1.663   1.558 -3.6463  0.4272  0.5157
  651SOL    HW2 1953   0.830   1.635   1.479  2.9920 -0.4198 -0.5655
  652SOL     OW 1954   2.287   2.510   2.382  0.7647 -0.5218  0.0108
  652SOL    HW1 1955   2.195   2.505   2.432  3.0343 -1.8577 -2.1566
  652SOL    HW2 1956   2.321   2.609   2.373  3.6690  2.0405 -1.1789
  653SOL     OW 1957   2.788   1.169   0.261  0.2995 -0.0736 -0.3019
  653SOL    HW1 1958   2.822   1.255   0.305  3.8817 -0.0299 -1.5764
  653SOL    HW2 1959   2.842   1.082   0.295  0.0228 -2.0082  0.0883
  654SOL     OW 1960   1.192   2.217   1.221 -0.4750 -0.3580  0.0999
  654SOL    HW1 1961   1.207   2.160   1.306 -0.2679  1.9394  2.4547
  654SOL    HW2 1962   1.264   2.206   1.147 -0.8282  2.4968 -0.1841
  655SOL     OW 1963   0.241   1.072   1.890 -0.6820  0.0676  0.5713
  655SOL    HW1 1964   0.269   0.997   1.830 -1.8976 -1.2083 -0.0818
  655SOL    HW2 1965   0.323   1.139   1.907  1.9943  1.7972  2.5228
  656SOL     OW 1966   2.475   2.422   2.573 -0.7746 -0.0339 -0.4847
  656SOL    HW1 1967   2.553   2.490   2.591 -1.9070 -1.6167 -1.0684
  656SOL    HW2 1968   2.408   2.455   2.503  1.6084 -0.1763  1.1627
  657SOL     OW 1969   3.058   1.100   1.876  0.4314 -0.1061  0.0900
  657SOL    HW1 1970   3.024   1.195   1.902  0.3327 -0.0758  1.7411
  657SOL    HW2 1971   3.162   1.097   1.873  0.1335 -1.2608  2.6085
  658SOL     OW 1972   1.688   0.231   2.371  0.3774 -0.0028 -0.0008
  658SOL    HW1 1973   1.722   0.155   2.428 -3.0756 -1.3067  0.1520
  658SOL    HW2 1974   1.750   0.262   2.287 -1.2990  0.9221 -1.5165
  659SOL     OW 1975   1.405   0.624   2.844  0.2327  0.4809 -0.3325
  659SOL    HW1 1976   1.464   0.688   2.898  1.4618 -1.6971 -1.5681
  659SOL    HW2 1977   1.339   0.668   2.777 -0.5789  1.0415  0.0957
  660SOL     OW 1978   1.391   0.434   1.371 -0.6223  0.1419  0.1106
  660SOL    HW1 1979   1.451   0.441   1.459  2.2080  0.5378  0.7708
  660SOL    HW2 1980   1.441   0.372   1.305  0.0142  3.4974 -1.0063
  661SOL     OW 1981   2.467   1.131   0.665 -0.0698  0.0357  0.0150
  661SOL    HW1 1982   2.496   1.050   0.606  1.1195  0.5053  2.0583
  661SOL    HW2 1983   2.396   1.191   0.616 -0.5036 -1.5035 -1.3908
  662SOL     OW 1984   1.278   0.448   1.824 -0.1750  0.1240 -0.0156
  662SOL    HW1 1985   1.262   0.345   1.806 -0.0806 -1.7089  1.1137
  662SOL    HW2 1986   1.220   0.494   1.902 -1.2574 -0.7964  4.4874
  663SOL     OW 1987   0.840   1.561   2.196  0.0882  0.4655  0.6308
  663SOL    HW1 1988   0.812   1.655   2.238 -2.4126 -0.1671 -0.2073
  663SOL    HW2 1989   0.779   1.535   2.111 -3.4432  1.5211 -1.2234
  664SOL     OW 1990   1.658   2.081   1.390 -0.2487 -0.3806 -0.1789
  664SOL    HW1 1991   1.578   2.019   1.412  0.3256 -1.6837  0.6308
  664SOL    HW2 1992   1.752   2.039   1.408 -0.8914  0.9459 -1.4384
  665SOL     OW 1993   2.314   0.606   1.996  0.0529  0.0846  0.2274
  665SOL    HW1 1994   2.322   0.506   2.023  0.4136  3.8072 -0.0777
  665SOL    HW2 1995   2.246   0.666   2.046  0.4848 -0.6137 -0.7235
  666SOL     OW 1996   0.470   2.264   0.469 -0.7469 -0.2127 -0.1992
  666SOL    HW1 1997   0.524   2.354   0.458  0.2574 -0.5823 -0.7041
  666SOL    HW2 1998   0.424   2.254   0.560  1.2338  0.5864 -1.9688
  667SOL     OW 1999   2.091   0.222   1.001  0.1273 -0.7833  0.3937
  667SOL    HW1 2000   2.147   0.281   1.067 -0.1875 -1.3935 -1.8246
  667SOL    HW2 2001   1.987   0.226   1.014 -1.9410 -1.1173  1.1393
  668SOL     OW 2002   2.010   0.627   1.269  0.6438  1.0271 -0.0420
  668SOL    HW1 2003   2.091   0.634   1.202  0.8320 -1.1693  0.8479
  668SOL    HW2 2004   2.029   0.558   1.344 -0.7619  0.2334  2.9272
  669SOL     OW 2005   3.013   2.096   0.953 -0.0949  0.7444  0.3292
  669SOL    HW1 2006   2.943   2.142   0.894  1.7486 -1.4135  0.9711
  669SOL    HW2 2007   2.992   2.095   1.052  4.0423  0.3533 -3.6328
  670SOL     OW 2008   2.782   2.325   2.011  0.4509 -0.0204 -0.0125
  670SOL    HW1 2009   2.725   2.311   2.097  1.2730  0.4090 -1.7412
  670SOL    HW2 2010   2.774   2.422   1.969 -0.1088  1.1450 -0.7029
  671SOL     OW 2011   1.654   1.700   1.473 -0.1786  0.5401  0.2577
  671SOL    HW1 2012   1.686   1.705   1.374  1.6353 -2.0308 -0.5345
  671SOL    HW2 2013   1.583   1.773   1.496 -5.3899  2.2178 -1.0309
  672SOL     OW 2014   0.387   0.656   2.438 -0.1579 -0.1766  0.2314
  672SOL    HW1 2015   0.430   0.684   2.351 -0.8037  0.0680  1.5760
  672SOL    HW2 2016   0.299   0.715   2.461 -1.4153  1.9153  0.1122
  673SOL     OW 2017   0.144   1.241   1.086 -0.2458  0.4339 -0.9164
  673SOL    HW1 2018   0.173   1.317   1.152 -1.9111 -1.3952  1.1454
  673SOL    HW2 2019   0.226   1.174   1.061 -0.6802 -0.1575 -0.6437
  674SOL     OW 2020   1.553   2.894   0.146  0.6001  0.1161 -0.1730
  674SOL    HW1 2021   1.578   2.993   0.155  1.1344  0.3948  1.1247
  674SOL    HW2 2022   1.635   2.834   0.132 -0.9970  2.0075  0.4444
  675SOL     OW 2023   1.719   0.888   2.370 -0.1932  0.4494 -0.6131
  675SOL    HW1 2024   1.822   0.874   2.378  1.0765  1.6088  0.9871
  675SOL    HW2 2025   1.669   0.822   2.311  1.2929 -0.2582 -2.6363
  676SOL     OW 2026   2.503   1.519   2.035  0.2241  0.1096 -0.5352
  676SOL    HW1 2027   2.494   1.469   1.945  1.4079 -0.9282  2.6611
  676SOL    HW2 2028   2.554   1.460   2.104  2.0193 -0.1568 -0.4826
  677SOL     OW 2029   1.890   0.557   0.910  0.8009 -0.2780 -0.6193
  677SOL    HW1 2030   1.884   0.617   0.993 -0.5457 -0.2682  1.7098
  677SOL    HW2 2031   1.835   0.473   0.922  1.9826  0.5673 -1.3903
  678SOL     OW 2032   0.090   0.811   1.656  0.1772 -0.7011  0.0512
  678SOL    HW1 2033   0.189   0.814   1.688 -1.3028  0.9759 -0.8014
  678SOL    HW2 2034   0.020   0.820   1.736 -0.6892  1.3641 -1.0861
  679SOL     OW 2035   2.465   1.200   1.154 -0.5511  0.2594  0.2617
  679SOL    HW1 2036   2.397   1.191   1.228  0.4004  0.9925 -1.1969
  679SOL    HW2 2037   2.461   1.125   1.085  1.8374  1.0853  2.3364
  680SOL     OW 2038   2.877   0.645   1.694  0.3658 -0.0544  0.3613
  680SOL    HW1 2039   2.803   0.687   1.634  0.0298 -0.1692 -0.8134
  680SOL    HW2 2040   2.913   0.712   1.759 -3.2640 -1.6898  1.2844
  681SOL     OW 2041   3.074   0.142   1.639  0.1206 -0.0478  0.1435
  681SOL    HW1 2042   3.148   0.112   1.569  1.7427  0.3419 -0.8258
  681SOL    HW2 2043   3.026   0.228   1.606  1.9633 -1.1636  0.3462
  682SOL     OW 2044   0.725   3.086   1.362 -0.1514  0.1983 -0.7899
  682SOL    HW1 2045   0.644   3.032   1.391  2.1736  0.6835 -0.4255
  682SOL    HW2 2046   0.746   3.086   1.264 -2.7603 -0.6849  0.4852
  683SOL     OW 2047   1.394   0.238   2.177  0.2137 -0.2235  0.1621
  683SOL    HW1 2048   1.392   0.279   2.272 -1.9577 -1.1537 -1.6089
  683SOL    HW2 2049   1.473   0.277   2.118  0.7524 -0.1275 -0.2325
  684SOL     OW 2050   1.452   2.126   0.473  0.2299  0.3124  0.3598
  684SOL    HW1 2051   1.515   2.064   0.529 -0.2140 -0.4068 -0.2337
  684SOL    HW2 2052   1.372   2.074   0.434  0.7961  0.0960 -0.6992
  685SOL     OW 2053   2.141   1.947   1.952  0.8008 -0.1590  0.2048
  685SOL    HW1 2054   2.207   2.016   1.908  0.3082  1.2480 -1.9818
  685SOL    HW2 2055   2.191   1.876   2.004  1.3589 -0.6296  0.4181
  686SOL     OW 2056   1.527   1.729   2.768 -0.0292 -0.4273 -0.3863
  686SOL    HW1 2057   1.515   1.627   2.771  0.7248 -3.2154  0.1336
  686SOL    HW2 2058   1.551   1.764   2.865 -2.0397  0.7074  0.5323
  687SOL     OW 2059   1.344   2.506   1.900 -0.1254 -0.3096 -0.0565
  687SOL    HW1 2060   1.370   2.430   1.826  2.8102 -0.8049 -1.7146
  687SOL    HW2 2061   1.397   2.489   1.990 -1.8596 -1.7292 -0.0611
  688SOL     OW 2062   2.070   1.509   1.593  0.0141 -0.0111 -0.0951
  688SOL    HW1 2063   2.173   1.524   1.574  1.1718 -0.0836  0.6032
  688SOL    HW2 2064   2.021   1.477   1.509 -3.1221  1.8168  0.3414
  689SOL     OW 2065   2.432   1.066   2.695  0.0655 -0.5432 -0.0002
  689SOL    HW1 2066   2.343   1.036   2.740 -1.7909  0.7105  2.6433
  689SOL    HW2 2067   2.514   1.074   2.761  0.7592  1.0704  0.1250
  690SOL     OW 2068   2.220   2.762   3.065  0.3481  0.0424 -0.5452
  690SOL    HW1 2069   2.137   2.743   3.009 -1.9643  2.7502  0.9075
  690SOL    HW2 2070   2.190   2.809   3.155 -0.4071  2.3905  1.0342
  691SOL     OW 2071   2.582   0.462   2.171 -0.1112 -0.3932  0.4574
  691SOL    HW1 2072   2.646   0.391   2.132 -0.2855  1.0955 -0.3784
  691SOL    HW2 2073   2.602   0.560   2.144 -1.8831 -0.9633 -0.5919
  692SOL     OW 2074   2.739   1.241   0.673  0.0128  0.8269 -0.0523
  692SOL    HW1 2075   2.639   1.225   0.691 -0.5654 -1.2201  2.1083
  692SOL    HW2 2076   2.786   1.304   0.738 -1.7992 -0.3523 -1.4864
  693SOL     OW 2077   2.845   2.923   0.608 -0.5428  0.2513  0.3527
  693SOL    HW1 2078   2.871   3.014   0.644  0.6241 -1.4556 -0.6753
  693SOL    HW2 2079   2.787   2.928   0.523 -0.0194  0.0101 -0.3081
  694SOL     OW 2080   2.380   2.122   0.076  0.0695  0.9145 -0.2043
  694SOL    HW1 2081   2.341   2.215   0.090  1.2312 -4.0790  1.8438
  694SOL    HW2 2082   2.297   2.053   0.084 -1.4849 -0.5059  0.9955
  695SOL     OW 2083   0.553   2.903   1.475 -0.0780 -0.1379 -0.0770
  695SOL    HW1 2084   0.495   2.831   1.442  1.1241  1.2857  1.6040
  695SOL    HW2 2085   0.518   2.951   1.560 -0.8389  0.2535 -0.4684
  696SOL     OW 2086   2.729   1.966   0.643 -0.2020  0.1690 -0.3614
  696SOL    HW1 2087   2.766   1.871   0.668  1.0720  3.3360 -0.5727
  696SOL    HW2 2088   2.658   1.965   0.565  1.9376 -1.0228 -1.5241
  697SOL     OW 2089   1.671   2.063   1.720 -0.2278 -0.6268 -0.3258
  697SOL    HW1 2090   1.748   2.020   1.777  1.0426  0.9034 -0.0573
  697SOL    HW2 2091   1.696   2.105   1.631  0.7958  0.9816  0.4703
  698SOL     OW 2092   2.919   0.314   2.786  0.2996  0.1979  0.4133
  698SOL    HW1 2093   2.917   0.288   2.680  0.6050 -4.5509 -2.6504
  698SOL    HW2 2094   2.981   0.249   2.838 -0.8178  0.3747  2.6489
  699SOL     OW 2095   1.526   0.111   2.929 -0.0898 -0.5135  0.0649
  699SOL    HW1 2096   1.513   0.008   2.920 -0.2116 -0.8702  0.4878
  699SOL    HW2 2097   1.555   0.157   2.841 -1.3412 -0.2232 -1.2212
  700SOL     OW 2098   0.987   2.376   1.407 -0.1595  0.7199 -0.3332
  700SOL    HW1 2099   1.060   2.317   1.366  3.1733  0.8494 -1.2040
  700SOL    HW2 2100   0.899   2.368   1.350  0.1511 -0.5233  1.5598
  701SOL     OW 2101   1.866   2.808   0.022 -0.0499 -0.2640  0.0719
  701SOL    HW1 2102   1.888   2.769   0.117 -2.0685 -0.1951  1.1333
  701SOL    HW2 2103   1.896   2.906   0.014 -1.4312 -0.7824 -1.0688
  702SOL     OW 2104   2.078   1.374   1.835 -0.3757 -0.1323 -0.8727
  702SOL    HW1 2105   2.170   1.332   1.855  1.8027 -0.1461  0.0565
  702SOL    HW2 2106   2.078   1.416   1.742  3.1877 -3.2918  0.7344
  703SOL     OW 2107   2.001   0.862   1.467 -0.1763  0.5695  0.0097
  703SOL    HW1 2108   1.975   0.767   1.509  0.1390 -0.5022  1.2620
  703SOL    HW2 2109   2.070   0.908   1.528 -0.9458 -0.6344  0.6770
  704SOL     OW 2110   0.286   2.060   1.784 -0.8462  0.0976 -0.2063
  704SOL    HW1 2111   0.286   1.992   1.865  2.6438  2.3412  1.1807
  704SOL    HW2 2112   0.376   2.103   1.769 -4.3864 -0.5320  1.3672
  705SOL     OW 2113   2.538   1.413   0.844 -0.0003 -0.3877  0.4549
  705SOL    HW1 2114   2.444   1.383   0.864 -0.3047  0.0294 -0.4242
  705SOL    HW2 2115   2.614   1.374   0.903  1.7868 -0.3477  0.5965
  706SOL     OW 2116   0.637   1.762   1.899 -0.6972 -0.2618 -0.6084
  706SOL    HW1 2117   0.643   1.679   1.951 -0.4564  1.4494 -3.4126
  706SOL    HW2 2118   0.723   1.819   1.909  1.8995 -1.4417  0.4619
  707SOL     OW 2119   2.321   1.250   1.943  0.1050  0.1453 -0.4875
  707SOL    HW1 2120   2.427   1.235   1.937  2.8505 -0.2394  1.1085
  707SOL    HW2 2121   2.270   1.162   1.934  0.4784  0.2322 -1.1149
  708SOL     OW 2122   3.060   0.523   3.039 -0.1349  0.4264 -0.4998
  708SOL    HW1 2123   3.137   0.565   2.993 -0.6675 -1.1073  1.0156
  708SOL    HW2 2124   3.042   0.437   2.998  1.5151  1.0007  3.2653
  709SOL     OW 2125   1.763   1.865   0.255 -0.1231  0.1508 -0.8627
  709SOL    HW1 2126   1.815   1.938   0.314 -2.4235 -0.2043  0.8625
  709SOL    HW2 2127   1.780   1.873   0.157  2.6757 -1.2971  0.5167
  710SOL     OW 2128   1.770   1.667   2.444 -0.1817 -0.0593 -0.1149
  710SOL    HW1 2129   1.820   1.638   2.357  0.8228  1.9856 -4.7832
  710SOL    HW2 2130   1.794   1.613   2.530  1.7324 -1.9084  0.2825
  711SOL     OW 2131   2.608   2.926   0.964 -0.0623 -0.6035  0.0034
  711SOL    HW1 2132   2.630   3.027   0.956 -1.0788  1.5184  0.0446
  711SOL    HW2 2133   2.684   2.876   1.012  1.1369 -1.6866  1.9425
  712SOL     OW 2134   1.493   2.292   1.783  0.4016  0.2418 -0.0375
  712SOL    HW1 2135   1.563   2.222   1.809  0.2334  1.1301  0.3831
  712SOL    HW2 2136   1.430   2.262   1.704 -2.4857  1.8818 -0.6239
  713SOL     OW 2137   2.837   1.358   2.471  0.2255 -0.3258  0.3425
  713SOL    HW1 2138   2.821   1.257   2.463  1.6305 -1.4590 -1.2309
  713SOL    HW2 2139   2.779   1.399   2.541  0.6787 -2.3024 -3.0375
  714SOL     OW 2140   2.695   0.436   2.446  0.0924 -0.4214 -0.6741
  714SOL    HW1 2141   2.625   0.425   2.521 -0.3119 -0.8767 -1.5579
  714SOL    HW2 2142   2.655   0.459   2.355  1.2670  3.0525  0.8021
  715SOL     OW 2143   1.641   2.138   1.107  0.2146  0.0818 -0.3864
  715SOL    HW1 2144   1.557   2.175   1.063  0.4303 -0.7505  1.2917
  715SOL    HW2 2145   1.651   2.149   1.211 -0.4932  0.0172  0.3361
  716SOL     OW 2146   1.227   0.214   1.458 -0.0368  0.0017  0.0028
  716SOL    HW1 2147   1.126   0.191   1.461  0.7171 -0.8104 -1.9064
  716SOL    HW2 2148   1.245   0.303   1.411 -0.5911 -2.6075 -0.5954
  717SOL     OW 2149   1.046   0.613   1.585  0.0116  0.1805 -0.0729
  717SOL    HW1 2150   1.137   0.649   1.621 -0.6081  0.7627 -0.3224
  717SOL    HW2 2151   1.054   0.565   1.489  1.9670 -1.4557  0.0728
  718SOL     OW 2152   0.653   1.080   1.001 -0.4374  0.0377  0.2542
  718SOL    HW1 2153   0.623   1.088   0.897  2.3372  0.5207 -2.2689
  718SOL    HW2 2154   0.737   1.143   1.020  2.5533 -3.2369  1.7003
  719SOL     OW 2155   0.738   1.819   2.234 -0.1090 -0.2505  0.1385
  719SOL    HW1 2156   0.788   1.862   2.320  0.0254 -2.0824 -1.2195
  719SOL    HW2 2157   0.642   1.850   2.226 -0.9899 -4.1323 -1.6964
  720SOL     OW 2158   2.261   1.139   0.217  0.0911  0.1107  0.0025
  720SOL    HW1 2159   2.363   1.134   0.205 -0.9903 -2.2362  1.6948
  720SOL    HW2 2160   2.230   1.114   0.311 -0.1582 -2.3584 -2.5791
  721SOL     OW 2161   2.232   0.022   2.020  0.3106 -0.1343 -0.7918
  721SOL    HW1 2162   2.265   0.106   1.968  0.1796  0.7468  0.0119
  721SOL    HW2 2163   2.130   0.021   2.017 -0.2786  0.3143  1.9771
  722SOL     OW 2164   2.367   1.654   0.499  0.3044 -0.1864  0.1590
  722SOL    HW1 2165   2.372   1.571   0.432  1.1015 -3.1021 -0.3266
  722SOL    HW2 2166   2.273   1.666   0.541 -0.6241 -0.3826 -0.4651
  723SOL     OW 2167   2.563   2.849   1.898 -0.2061  0.2706  0.1994
  723SOL    HW1 2168   2.634   2.880   1.965  1.0981  0.7307  0.6958
  723SOL    HW2 2169   2.470   2.868   1.940  1.8336 -1.8039  0.5155
  724SOL     OW 2170   0.340   2.425   2.374 -0.7919  0.2254 -0.9350
  724SOL    HW1 2171   0.245   2.463   2.375 -1.2565 -0.2925 -1.7443
  724SOL    HW2 2172   0.381   2.391   2.466  0.5845 -2.0742  0.6617
  725SOL     OW 2173   2.264   2.776   1.464 -0.0933  0.5834  0.4342
  725SOL    HW1 2174   2.309   2.814   1.379  1.1619 -1.2513 -0.0449
  725SOL    HW2 2175   2.293   2.675   1.491  1.4655 -3.1326 -2.0593
  726SOL     OW 2176   2.386   2.245   0.803 -0.2588  0.4411  0.1342
  726SOL    HW1 2177   2.376   2.347   0.797 -0.1848  1.2546 -0.6172
  726SOL    HW2 2178   2.337   2.193   0.728  3.4526 -0.6380  1.0371
  727SOL     OW 2179   0.235   3.060   0.162 -0.0697 -0.5763  0.0449
  727SOL    HW1 2180   0.244   2.971   0.113  0.7105  1.8742  0.1520
  727SOL    HW2 2181   0.276   3.140   0.114 -0.6153 -0.5826  0.5660
  728SOL     OW 2182   2.855   0.678   1.016  0.4727 -0.7637 -0.7232
  728SOL    HW1 2183   2.770   0.634   0.976  1.9211 -3.1350 -1.0525
  728SOL    HW2 2184   2.867   0.647   1.115  3.3416 -2.2034 -0.6530
  729SOL     OW 2185   2.929   2.468   0.747  0.7439  0.2141 -0.3497
  729SOL    HW1 2186   2.894   2.370   0.745  1.2410 -0.7388 -0.8335
  729SOL    HW2 2187   3.037   2.467   0.751  3.4066  1.5114 -0.8052
  730SOL     OW 2188   2.615   0.596   0.875  0.2846  0.0956  0.1599
  730SOL    HW1 2189   2.579   0.684   0.834 -0.3890  3.4606  1.4800
  730SOL    HW2 2190   2.666   0.550   0.795 -0.3538  0.3098 -3.4477
  731SOL     OW 2191   0.073   2.112   2.453  0.5247  0.0576  0.0462
  731SOL    HW1 2192   0.092   2.151   2.542 -0.3380 -1.3515 -1.0557
  731SOL    HW2 2193  -0.031   2.109   2.437 -2.0376 -0.6583 -2.5017
  732SOL     OW 2194   1.114   2.827   1.972  0.0383 -0.0799 -0.2429
  732SOL    HW1 2195   1.141   2.761   2.047  0.2304  1.0998 -0.8981
  732SOL    HW2 2196   1.141   2.792   1.877 -2.2682  0.7391 -0.3331
  733SOL     OW 2197   3.034   0.703   2.111 -0.0819 -0.9214  0.3056
  733SOL    HW1 2198   3.124   0.759   2.113 -0.2598 -0.8281  0.3796
  733SOL    HW2 2199   3.032   0.622   2.044 -2.9073  2.8751 -2.1875
  734SOL     OW 2200   1.394   0.362   2.707 -0.1416  0.4329  0.1591
  734SOL    HW1 2201   1.407   0.450   2.756 -3.2626 -1.9695 -0.5530
  734SOL    HW2 2202   1.313   0.306   2.750 -2.0552 -0.2057  0.3434
  735SOL     OW 2203   2.817   2.612   2.275  0.1638  0.7755  0.2537
  735SOL    HW1 2204   2.720   2.607   2.227 -3.8981 -2.6731  0.9521
  735SOL    HW2 2205   2.896   2.597   2.208 -1.1444 -0.3726 -0.3593
  736SOL     OW 2206   0.785   0.394   2.646  0.1623  0.6142 -0.5848
  736SOL    HW1 2207   0.721   0.479   2.628 -0.8687  0.6704  1.1591
  736SOL    HW2 2208   0.812   0.345   2.558  0.0878 -2.6489 -1.2002
  737SOL     OW 2209   2.712   0.485   2.819 -0.0963  0.7918  0.3574
  737SOL    HW1 2210   2.675   0.485   2.919 -0.8450 -0.2285 -1.7149
  737SOL    HW2 2211   2.799   0.423   2.805 -0.8321 -0.1682  0.8483
  738SOL     OW 2212   1.654   1.184   3.012  0.2673 -0.5621 -0.6446
  738SOL    HW1 2213   1.742   1.162   2.964 -1.7638 -0.4704 -1.0615
  738SOL    HW2 2214   1.605   1.096   3.037 -1.3310  0.5007  4.0592
  739SOL     OW 2215   1.748   0.590   0.683  0.3782 -0.7285 -0.1910
  739SOL    HW1 2216   1.801   0.584   0.773 -1.2392 -0.8751  0.0228
  739SOL    HW2 2217   1.797   0.533   0.613 -0.6177 -1.8966 -1.2696
  740SOL     OW 2218   1.905   1.999   2.150 -0.2630  0.5163  0.1241
  740SOL    HW1 2219   1.988   1.989   2.092 -0.3968 -0.0501  1.6320
  740SOL    HW2 2220   1.820   1.962   2.101 -0.4591  1.2778 -1.3006
  741SOL     OW 2221   2.503   0.126   2.546  0.4080 -0.6285  0.0850
  741SOL    HW1 2222   2.598   0.089   2.561 -1.6397  0.4175  1.3137
  741SOL    HW2 2223   2.456   0.088   2.463  1.9168 -1.0495 -1.4790
  742SOL     OW 2224   2.260   1.374   0.052 -0.2157  0.5864 -0.9454
  742SOL    HW1 2225   2.196   1.453   0.034  0.0290 -2.6572  1.4124
  742SOL    HW2 2226   2.237   1.312   0.135  2.5623  0.7154 -1.0858
  743SOL     OW 2227   1.749   0.637   2.640 -0.2267  0.0769  0.4839
  743SOL    HW1 2228   1.793   0.594   2.552  0.5588  1.0802  0.0815
  743SOL    HW2 2229   1.680   0.715   2.624  0.6661  0.8183  1.1268
  744SOL     OW 2230   2.651   2.059   0.011  0.2585 -0.6864  0.3038
  744SOL    HW1 2231   2.550   2.088   0.038 -0.5895 -2.3990  0.5568
  744SOL    HW2 2232   2.698   2.021   0.096  0.9064 -0.7771 -0.6520
  745SOL     OW 2233   2.201   2.705   2.199  0.1742 -0.3023 -0.0395
  745SOL    HW1 2234   2.102   2.708   2.160 -1.7841  1.3838 -1.7850
  745SOL    HW2 2235   2.204   2.755   2.291  0.2780  0.6040 -0.7358
  746SOL     OW 2236   0.003   2.612   1.848 -0.2400 -0.3140 -0.1254
  746SOL    HW1 2237   0.106   2.601   1.834  0.0635  1.4828  0.2388
  746SOL    HW2 2238  -0.019   2.711   1.870  0.9368 -1.6258  0.4898
  747SOL     OW 2239   0.018   1.814   1.723 -0.1825 -0.3785 -0.3719
  747SOL    HW1 2240  -0.034   1.727   1.695 -0.2914 -0.2252 -0.7676
  747SOL    HW2 2241   0.097   1.836   1.663 -0.8264 -0.6213  1.3403
  748SOL     OW 2242   1.761   2.752   2.879 -0.0637 -0.1550 -0.5297
  748SOL    HW1 2243   1.793   2.773   2.978  0.2650  0.4128 -0.5870
  748SOL    HW2 2244   1.653   2.767   2.875 -0.6139 -0.5939  2.9544
  749SOL     OW 2245   1.283   0.058   0.880 -0.0985 -0.1962  0.2999
  749SOL    HW1 2246   1.225  -0.021   0.912  2.6199 -0.1835  0.4336
  749SOL    HW2 2247   1.289   0.070   0.777  0.3928  0.6918 -0.9504
  750SOL     OW 2248   2.300   0.242   1.883 -0.9584  0.4862 -0.2072
  750SOL    HW1 2249   2.366   0.284   1.821  1.2943 -0.5161 -1.6854
  750SOL    HW2 2250   2.308   0.289   1.978  1.0104 -0.2895  0.9137
  751SOL     OW 2251   0.826   2.241   2.867  0.2074  0.2547  0.3757
  751SOL    HW1 2252   0.913   2.250   2.918 -2.2103  1.8773 -0.8986
  751SOL    HW2 2253   0.783   2.145   2.880  0.5037 -0.0483  0.0355
  752SOL     OW 2254   1.239   0.939   1.541 -0.0484 -0.0407  0.3406
  752SOL    HW1 2255   1.308   0.979   1.473  1.0020  1.1422  0.1602
  752SOL    HW2 2256   1.259   0.839   1.567  1.4075 -0.4733 -0.1697
  753SOL     OW 2257   0.932   2.634   1.793  0.3062  0.5908 -0.5988
  753SOL    HW1 2258   1.019   2.666   1.754 -3.1374  2.5568 -1.4241
  753SOL    HW2 2259   0.849   2.694   1.774  0.5207  0.4168 -1.1276
  754SOL     OW 2260   1.156   1.290   3.059 -0.2631  0.4109  0.0497
  754SOL    HW1 2261   1.193   1.238   2.972  1.2168 -0.0206 -1.4878
  754SOL    HW2 2262   1.133   1.387   3.037  1.8570  0.7812  0.4115
  755SOL     OW 2263   2.026   0.531   2.212  0.3109 -0.5627  0.0994
  755SOL    HW1 2264   2.087   0.465   2.262 -1.1907  0.5268 -0.8461
  755SOL    HW2 2265   1.925   0.526   2.243 -0.4140 -1.1477  3.0796
  756SOL     OW 2266   2.637   0.979   2.923  0.1271  0.1345 -0.0131
  756SOL    HW1 2267   2.720   0.910   2.920  1.2203 -1.5626  3.0992
  756SOL    HW2 2268   2.561   0.945   2.987 -0.4730  2.4990  0.6640
  757SOL     OW 2269   0.093   0.521   1.699  0.2525 -0.5675  0.4347
  757SOL    HW1 2270   0.105   0.623   1.684 -1.4151  0.6220 -1.7201
  757SOL    HW2 2271   0.094   0.468   1.614 -1.0678  0.3562  3.6006
  758SOL     OW 2272   2.456   0.006   1.515  0.5968  0.3831  0.2674
  758SOL    HW1 2273   2.369  -0.011   1.568  1.3868  3.3375  0.4825
  758SOL    HW2 2274   2.443   0.008   1.413  1.1323 -0.3675 -1.5497
  759SOL     OW 2275   1.664   0.056   0.051 -0.1085  0.7897  0.1257
  759SOL    HW1 2276   1.614   0.085  -0.037  0.2717  0.3180 -1.7788
  759SOL    HW2 2277   1.758   0.012   0.030  2.0541  0.1053 -2.9219
  760SOL     OW 2278   2.731   1.986   2.816 -0.1278 -0.7038 -0.2030
  760SOL    HW1 2279   2.781   1.908   2.775  1.6487  1.0338 -2.5684
  760SOL    HW2 2280   2.794   2.070   2.803 -0.6374  0.4040 -0.0383
  761SOL     OW 2281   1.910   1.717   1.597  0.0607  0.0235  0.0830
  761SOL    HW1 2282   1.963   1.626   1.606 -0.2906  1.9574 -1.2867
  761SOL    HW2 2283   1.814   1.705   1.560 -2.1497  0.9625  1.5315
  762SOL     OW 2284   0.535   2.424   0.992  0.1202  0.2730  0.6586
  762SOL    HW1 2285   0.546   2.474   0.900 -1.9198  2.3618  0.2474
  762SOL    HW2 2286   0.555   2.485   1.075 -0.0471 -2.1938 -0.5940
  763SOL     OW 2287   2.005   1.576   2.950 -0.3811 -0.3406  0.2716
  763SOL    HW1 2288   2.082   1.528   2.903 -0.4594  1.7913  3.8452
  763SOL    HW2 2289   1.946   1.515   3.007  2.2293 -0.4082  1.5749
  764SOL     OW 2290   0.672   0.552   0.863  0.6077  0.4452 -0.4899
  764SOL    HW1 2291   0.666   0.526   0.762 -2.8926 -0.0359 -0.0353
  764SOL    HW2 2292   0.766   0.582   0.897 -0.9893  1.1423 -0.3682
  765SOL     OW 2293   0.662   0.199   0.807  0.4581  0.1162  0.1320
  765SOL    HW1 2294   0.757   0.211   0.772 -1.4777  1.6858 -0.5586
  765SOL    HW2 2295   0.650   0.229   0.906  2.0079 -0.0911  0.6228
  766SOL     OW 2296   2.958   2.020   3.046  0.4800 -0.2347 -0.3025
  766SOL    HW1 2297   2.862   2.006   3.007  1.9045 -1.4628 -0.9726
  766SOL    HW2 2298   3.010   2.086   2.990 -0.9261 -1.3157  0.1707
  767SOL     OW 2299   2.854   1.575   0.519  0.0596  0.0077  1.2296
  767SOL    HW1 2300   2.763   1.600   0.558  0.9953  0.4414 -0.0032
  767SOL    HW2 2301   2.931   1.597   0.585 -0.3937  0.5741 -1.1420
  768SOL     OW 2302   1.049   0.291   0.301 -0.3986  0.4796  0.4979
  768SOL    HW1 2303   0.959   0.239   0.296  1.5419  3.1920 -1.8526
  768SOL    HW2 2304   1.132   0.221   0.296 -0.3228 -1.7035 -0.2495
  769SOL     OW 2305   1.240   1.825   2.310  0.0401 -0.2959 -0.4440
  769SOL    HW1 2306   1.344   1.802   2.320  1.8146  2.9441 -2.2767
  769SOL    HW2 2307   1.182   1.756   2.271  0.4040  2.5365 -0.4484
  770SOL     OW 2308   0.155   1.143   2.345  0.7358 -0.3119 -0.1092
  770SOL    HW1 2309   0.141   1.201   2.431  0.1751  1.4127  2.5617
  770SOL    HW2 2310   0.059   1.128   2.298 -0.5086  0.2757 -2.7598
  771SOL     OW 2311   2.958   2.813   1.940  0.0193  0.1944 -0.0559
  771SOL    HW1 2312   2.956   2.898   1.882 -0.7401 -2.8400  1.9043
  771SOL    HW2 2313   2.911   2.833   2.027  1.2539  0.8858  2.4418
  772SOL     OW 2314   2.123   0.106   2.992  0.1702 -0.4762  0.1000
  772SOL    HW1 2315   2.212   0.053   3.004 -0.3779  1.3224 -1.0895
  772SOL    HW2 2316   2.125   0.200   3.039  0.7420  0.4711 -0.8964
  773SOL     OW 2317   0.695   2.124   2.481  0.8068  0.3661 -0.4574
  773SOL    HW1 2318   0.665   2.164   2.393  1.0949 -1.6013  0.5363
  773SOL    HW2 2319   0.624   2.099   2.550  1.2913  1.3417  0.2343
  774SOL     OW 2320   2.021   0.007   2.675 -0.0028  1.1026  0.4471
  774SOL    HW1 2321   2.021   0.112   2.707 -0.4695  3.2942  0.3989
  774SOL    HW2 2322   2.085  -0.057   2.719 -0.0928  0.8388 -2.1532
  775SOL     OW 2323   2.494   2.879   2.381  0.4120  0.2019 -0.0247
  775SOL    HW1 2324   2.455   2.970   2.345  0.8153  0.6669  2.6520
  775SOL    HW2 2325   2.586   2.898   2.434  1.1770 -1.7804  2.1331
  776SOL     OW 2326   0.011   1.209   0.250 -0.0161 -0.0585  0.2922
  776SOL    HW1 2327  -0.031   1.196   0.158 -0.2640 -2.3226  2.8998
  776SOL    HW2 2328  -0.065   1.204   0.322 -1.5310 -1.1290 -2.0485
  777SOL     OW 2329   0.300   2.671   0.428  0.4392 -0.3562 -0.8263
  777SOL    HW1 2330   0.197   2.647   0.427 -0.0261  2.2906  0.5867
  777SOL    HW2 2331   0.317   2.775   0.434  0.5297 -1.4288  0.3833
  778SOL     OW 2332   1.322   1.936   0.186 -0.0323 -0.0446 -0.0676
  778SOL    HW1 2333   1.250   1.952   0.259  0.0703  0.2376 -0.4965
  778SOL    HW2 2334   1.359   2.027   0.155 -2.3173 -1.2928  0.1990
  779SOL     OW 2335   0.168   0.830   0.539 -0.3582  0.3455  0.0132
  779SOL    HW1 2336   0.149   0.728   0.535 -0.1518 -0.8520 -0.0472
  779SOL    HW2 2337   0.104   0.876   0.611  0.4336  2.1035  0.6145
  780SOL     OW 2338   0.006   0.306   2.361  0.2652 -0.5240  0.1218
  780SOL    HW1 2339  -0.046   0.397   2.344 -0.4415 -0.9746  1.2398
  780SOL    HW2 2340   0.102   0.314   2.318 -0.9143 -0.5461  0.7236
  781SOL     OW 2341   0.581   1.766   1.614 -0.6201  0.2730  0.2196
  781SOL    HW1 2342   0.634   1.749   1.700  1.1209  0.0988  0.3713
  781SOL    HW2 2343   0.483   1.741   1.630  3.0518 -0.5234  2.6485
  782SOL     OW 2344   2.641   0.140   0.890 -0.1308  0.0578  0.3159
  782SOL    HW1 2345   2.564   0.111   0.826 -1.7847  1.6324 -0.9342
  782SOL    HW2 2346   2.615   0.172   0.986 -0.9066  1.6619  1.8810
  783SOL     OW 2347   2.810   0.670   2.509  0.1172  0.2969  0.5822
  783SOL    HW1 2348   2.770   0.714   2.593  1.1155  0.2906 -1.6038
  783SOL    HW2 2349   2.754   0.582   2.496 -0.6409 -1.3176  0.1500
  784SOL     OW 2350   1.384   2.204   0.029  0.0315  0.3437  0.1142
  784SOL    HW1 2351   1.475   2.234   0.060 -0.8651  2.4274  0.3652
  784SOL    HW2 2352   1.386   2.172  -0.071 -1.0354  2.1496  2.0299
  785SOL     OW 2353   2.159   0.333   0.013  0.3493 -0.0898  0.2801
  785SOL    HW1 2354   2.072   0.359   0.068 -0.4641 -1.9070  1.4961
  785SOL    HW2 2355   2.198   0.423  -0.033  1.8394  1.8840 -2.3717
  786SOL     OW 2356   2.041   2.186   2.269  0.1595  0.3909 -0.6518
  786SOL    HW1 2357   1.974   2.112   2.247  0.3502 -2.6658 -2.0633
  786SOL    HW2 2358   2.136   2.158   2.260 -0.2348  2.3764 -1.9228
  787SOL     OW 2359   1.415   0.618   0.776 -0.1639  0.0407 -0.2823
  787SOL    HW1 2360   1.477   0.702   0.767  2.1407  2.6715  2.4115
  787SOL    HW2 2361   1.417   0.554   0.695 -1.5899 -1.7199  2.9826
  788SOL     OW 2362   1.210   0.467   2.982 -0.3502 -0.1383 -0.1139
  788SOL    HW1 2363   1.116   0.509   2.994  1.5952  0.3097 -2.6309
  788SOL    HW2 2364   1.269   0.509   2.900  1.8067  0.4690 -0.7085
  789SOL     OW 2365   2.666   0.082   1.877 -0.5133 -0.0575 -0.1835
  789SOL    HW1 2366   2.571   0.104   1.853  1.5503 -2.8253 -0.8218
  789SOL    HW2 2367   2.687  -0.022   1.895  1.0121 -0.4857  0.3882
  790SOL     OW 2368   2.617   2.651   0.822  0.0067 -0.0205  0.3771
  790SOL    HW1 2369   2.683   2.672   0.750 -2.7418 -0.0940  0.2571
  790SOL    HW2 2370   2.566   2.734   0.861 -1.4558  2.2254 -1.7154
  791SOL     OW 2371   1.953   1.208   0.196 -0.3767  0.4512 -0.5638
  791SOL    HW1 2372   1.868   1.152   0.218  1.4181 -0.2783 -0.8760
  791SOL    HW2 2373   2.042   1.159   0.206  0.7990 -2.1981 -0.1083
  792SOL     OW 2374   0.441   1.973   2.204  0.3758  0.2279  0.3301
  792SOL    HW1 2375   0.469   2.071   2.211  0.8064 -0.3454  0.8437
  792SOL    HW2 2376   0.361   1.953   2.267  0.9267  1.1652 -2.5354
  793SOL     OW 2377   2.094   1.498   2.097 -0.0328  0.2379 -0.0029
  793SOL    HW1 2378   2.195   1.525   2.095 -1.5371 -0.3663 -1.7352
  793SOL    HW2 2379   2.073   1.453   1.997  2.0224 -0.1778 -4.7661
  794SOL     OW 2380   0.543   1.524   2.453  0.6555  0.2748  0.3901
  794SOL    HW1 2381   0.596   1.457   2.397 -1.8348 -0.4753 -1.6380
  794SOL    HW2 2382   0.456   1.566   2.411 -1.9080 -0.6230 -0.7889
  795SOL     OW 2383   2.483   2.293   1.806 -0.3799  0.1897  0.3191
  795SOL    HW1 2384   2.492   2.346   1.897  0.9939  0.1118 -0.0981
  795SOL    HW2 2385   2.404   2.228   1.801 -1.6105 -0.1070 -0.8374
  796SOL     OW 2386   3.054   1.098   2.703  0.3955  0.3348  0.1409
  796SOL    HW1 2387   2.957   1.107   2.726 -0.4151 -0.1931 -2.8158
  796SOL    HW2 2388   3.115   1.123   2.782 -1.0092 -0.2178  0.1121
  797SOL     OW 2389   0.665   0.643   1.366  0.3907  0.4147  0.2452
  797SOL    HW1 2390   0.734   0.693   1.425  0.5872 -2.7114  0.4060
  797SOL    HW2 2391   0.610   0.700   1.300 -1.3526 -1.9227 -0.3922
  798SOL     OW 2392   1.188   0.518   0.917  0.0828 -0.0937  0.7101
  798SOL    HW1 2393   1.205   0.552   1.015 -1.8523  0.4330 -1.7004
  798SOL    HW2 2394   1.248   0.569   0.847 -1.0156  4.3316 -0.1773
  799SOL     OW 2395   1.824   2.699   0.987 -0.2500 -0.0965  0.2890
  799SOL    HW1 2396   1.831   2.598   1.010 -2.4413  1.9509  1.0636
  799SOL    HW2 2397   1.898   2.725   0.918 -0.3974  1.4164  0.0059
  800SOL     OW 2398   3.016   0.839   1.856  0.2358 -0.4595 -0.0864
  800SOL    HW1 2399   3.019   0.944   1.871 -1.7875 -1.9956  2.1631
  800SOL    HW2 2400   3.012   0.793   1.948  0.3829  0.7960 -0.8045
  801SOL     OW 2401   1.955   2.162   0.107 -0.1196 -0.4927  0.0425
  801SOL    HW1 2402   1.906   2.183   0.020  1.2726  2.9393  1.5031
  801SOL    HW2 2403   2.038   2.096   0.093  2.0693  1.2708 -1.2097
  802SOL     OW 2404   0.672   0.642   2.577 -0.3111  0.1009  0.2044
  802SOL    HW1 2405   0.716   0.639   2.483 -1.7068 -1.0433  1.5634
  802SOL    HW2 2406   0.569   0.649   2.569  0.8758 -0.5810  0.5707
  803SOL     OW 2407   0.937   0.084   0.890 -0.0473  0.2874  0.1572
  803SOL    HW1 2408   0.979   0.157   0.949  3.2750  1.7295 -1.5884
  803SOL    HW2 2409   0.926   0.112   0.790  1.0860  0.6082 -0.2491
  804SOL     OW 2410   0.282   0.053   2.180  0.2115 -0.3432  0.3945
  804SOL    HW1 2411   0.271   0.159   2.195  0.1258 -0.1431  0.5430
  804SOL    HW2 2412   0.213   0.016   2.108  0.4789  2.0939 -0.3968
  805SOL     OW 2413   2.415   0.387   0.332  0.6065 -0.5690  0.0558
  805SOL    HW1 2414   2.488   0.364   0.401 -2.6102  1.1814 -1.1033
  805SOL    HW2 2415   2.404   0.323   0.255 -1.0737 -1.0058  2.1245
  806SOL     OW 2416   0.573   2.635   1.866  0.3748  0.0532  0.3592
  806SOL    HW1 2417   0.509   2.682   1.929 -0.3367  0.0201  0.0876
  806SOL    HW2 2418   0.620   2.698   1.798 -0.7016 -1.0971  2.8817
  807SOL     OW 2419   2.513   0.950   0.469  0.1445 -0.3475 -0.0949
  807SOL    HW1 2420   2.598   0.891   0.494  0.1897 -0.5563  1.8393
  807SOL    HW2 2421   2.530   0.992   0.377  1.9086 -0.5053 -0.8301
  808SOL     OW 2422   0.673   2.021   2.919  0.1579  0.0303  0.2994
  808SOL    HW1 2423   0.639   2.058   3.010 -0.1415 -1.1270  0.9031
  808SOL    HW2 2424   0.682   1.919   2.912  0.1381 -0.5189  1.9942
  809SOL     OW 2425   2.577   1.976   1.919  0.1802  0.1718 -0.1210
  809SOL    HW1 2426   2.674   2.005   1.938 -1.6729 -0.3383 -0.2317
  809SOL    HW2 2427   2.560   1.977   1.817 -0.8641 -2.2078  3.6334
  810SOL     OW 2428   2.192   1.110   0.500 -0.1932  0.2496 -0.1130
  810SOL    HW1 2429   2.140   1.029   0.535  1.5516  0.6060 -1.2448
  810SOL    HW2 2430   2.157   1.197   0.550 -1.0620 -0.9257 -0.6812
  811SOL     OW 2431   1.288   2.480   1.150 -0.0272 -0.2745  0.3499
  811SOL    HW1 2432   1.256   2.383   1.172 -4.5604  3.8140 -0.1667
  811SOL    HW2 2433   1.323   2.539   1.228  0.1501  0.6123 -2.7504
  812SOL     OW 2434   1.505   0.745   1.976  0.3033  0.6318 -0.2434
  812SOL    HW1 2435   1.408   0.715   1.951 -0.3390  1.5807  1.5615
  812SOL    HW2 2436   1.514   0.846   1.950 -0.6237 -3.2703 -1.5388
  813SOL     OW 2437   1.686   2.055   2.389  0.2875 -0.4212 -0.0324
  813SOL    HW1 2438   1.766   2.009   2.431  0.4514  0.2852 -0.8508
  813SOL    HW2 2439   1.687   2.063   2.286  0.8301 -0.2823  0.4601
  814SOL     OW 2440   2.985   1.670   2.898  0.8496  0.3994 -0.0063
  814SOL    HW1 2441   3.034   1.621   2.975 -1.8716 -2.4579 -0.8887
  814SOL    HW2 2442   3.015   1.772   2.893  0.1845 -0.1369  3.1554
  815SOL     OW 2443   2.167   2.850   2.726 -0.4225 -0.6609  0.1962
  815SOL    HW1 2444   2.130   2.778   2.792  1.4150 -0.3109 -0.1876
  815SOL    HW2 2445   2.255   2.895   2.759  0.7347  1.1491 -0.1248
  816SOL     OW 2446   1.489   0.393   1.642  0.0832 -0.0461  0.4242
  816SOL    HW1 2447   1.522   0.299   1.666 -0.9352  2.8206 -0.5582
  816SOL    HW2 2448   1.440   0.430   1.728 -0.9550 -0.8204  0.4268
  817SOL     OW 2449   0.355   1.306   2.600  0.0652 -0.2061 -0.1243
  817SOL    HW1 2450   0.257   1.338   2.592 -0.6102  1.1781 -0.9624
  817SOL    HW2 2451   0.420   1.346   2.531 -0.9962  0.9865 -3.9285
  818SOL     OW 2452   2.015   0.857   0.460  0.1222 -0.3721 -0.0095
  818SOL    HW1 2453   2.117   0.843   0.438  2.1835  2.4181 -2.5091
  818SOL    HW2 2454   1.993   0.840   0.559  1.3172 -2.4216  2.4187
  819SOL     OW 2455   2.797   2.912   2.975 -0.0448 -0.0996 -0.7972
  819SOL    HW1 2456   2.860   2.833   2.979 -0.4934  1.0214  2.8065
  819SOL    HW2 2457   2.703   2.903   2.928 -1.9392  0.2248  0.4998
  820SOL     OW 2458   1.240   1.030   0.537 -0.2706  0.0336  0.0958
  820SOL    HW1 2459   1.222   1.126   0.571 -1.2974  1.4092  1.8861
  820SOL    HW2 2460   1.209   0.955   0.601 -1.8421 -1.6032  3.3030
  821SOL     OW 2461   0.045   1.239   0.710  0.3719  0.3282  0.4838
  821SOL    HW1 2462   0.024   1.244   0.810 -2.7934  0.2546  1.6229
  821SOL    HW2 2463   0.115   1.310   0.677 -3.2849 -1.0174 -1.5873
  822SOL     OW 2464   2.535   1.752   2.467  0.2441  0.2195  0.0666
  822SOL    HW1 2465   2.540   1.827   2.539 -0.3014  0.8657 -2.5723
  822SOL    HW2 2466   2.450   1.769   2.407  0.5878  0.6828 -1.3365
  823SOL     OW 2467   2.029   0.901   1.190  0.2390  0.3996 -0.3726
  823SOL    HW1 2468   2.034   0.851   1.282 -0.0847 -1.4811 -2.3765
  823SOL    HW2 2469   1.943   0.863   1.134 -1.9263 -3.1976 -2.3755
  824SOL     OW 2470   0.191   1.852   2.825 -0.0816 -0.5161  0.3025
  824SOL    HW1 2471   0.214   1.828   2.923  1.7233  1.4621  0.1121
  824SOL    HW2 2472   0.267   1.858   2.758 -2.4106 -1.8776  0.7791
  825SOL     OW 2473   1.298   1.078   0.271 -0.1159 -0.0503 -0.2544
  825SOL    HW1 2474   1.285   1.179   0.251  1.6670  1.4355  1.2542
  825SOL    HW2 2475   1.291   1.047   0.374 -0.2230  0.3797  0.2852
  826SOL     OW 2476   1.948   0.609   1.594  0.0833  0.4424  0.3088
  826SOL    HW1 2477   2.033   0.550   1.618  0.8288 -0.6444  2.1831
  826SOL    HW2 2478   1.865   0.547   1.578  0.2820 -1.6950 -0.2036
  827SOL     OW 2479   0.700   1.217   0.477 -0.4257  0.1943  0.2487
  827SOL    HW1 2480   0.788   1.170   0.449  2.2254  0.5559 -1.0075
  827SOL    HW2 2481   0.615   1.155   0.462 -0.3791  0.5438 -2.0451
  828SOL     OW 2482   2.672   0.200   1.559  0.6252  0.4841  0.3166
  828SOL    HW1 2483   2.582   0.147   1.535  2.0391  0.2004  1.0606
  828SOL    HW2 2484   2.696   0.197   1.659  1.3584 -0.3443 -0.3236
  829SOL     OW 2485   2.917   2.395   2.944 -0.3516  0.7691 -0.6907
  829SOL    HW1 2486   2.820   2.375   2.968  0.7031 -1.4070 -3.8413
  829SOL    HW2 2487   2.937   2.497   2.941  0.5351 -0.0787 -1.0622
  830SOL     OW 2488   2.927   0.917   2.996  0.1220 -0.3301 -0.0434
  830SOL    HW1 2489   2.952   1.006   3.046 -0.5158  1.4013 -0.9316
  830SOL    HW2 2490   2.909   0.836   3.057  0.3119 -1.4037 -1.5055
  831SOL     OW 2491   0.085   0.572   0.437 -0.5164 -0.4348  0.4986
  831SOL    HW1 2492   0.033   0.519   0.511 -2.0571  0.1987  0.3286
  831SOL    HW2 2493   0.110   0.521   0.349 -0.4491 -0.3741  0.2787
  832SOL     OW 2494   1.796   0.705   3.100  0.4022 -0.4635  0.7744
  832SOL    HW1 2495   1.714   0.766   3.070  1.9246 -0.5817  0.6445
  832SOL    HW2 2496   1.767   0.607   3.086 -1.1508 -1.2267  0.2494
  833SOL     OW 2497   2.353   2.121   0.554 -0.5083 -0.1304  0.4106
  833SOL    HW1 2498   2.253   2.108   0.536  1.5801 -0.4166 -0.0224
  833SOL    HW2 2499   2.412   2.041   0.526  2.6168  1.9205  0.7305
  834SOL     OW 2500   0.116   0.054   0.559 -0.1659 -0.1745  0.1833
  834SOL    HW1 2501   0.186  -0.018   0.534 -1.7682  1.5291  0.3178
  834SOL    HW2 2502   0.133   0.148   0.514 -0.9963  1.3369 -0.3377
  835SOL     OW 2503   2.460   1.652   1.165  0.1893  0.4824 -0.5618
  835SOL    HW1 2504   2.533   1.587   1.202 -0.1003  0.9893  0.9562
  835SOL    HW2 2505   2.499   1.710   1.093 -0.9547  1.3402  3.4478
  836SOL     OW 2506   1.545   0.824   2.563 -0.4598  0.1296  0.7377
  836SOL    HW1 2507   1.449   0.853   2.572  0.9396  0.5995 -0.2412
  836SOL    HW2 2508   1.597   0.876   2.489 -0.4178 -1.3817  2.4004
  837SOL     OW 2509   1.722   0.096   0.535 -0.2940 -0.4961 -0.0804
  837SOL    HW1 2510   1.681   0.173   0.596  0.4234  1.9729 -1.7185
  837SOL    HW2 2511   1.687   0.107   0.437  2.9402  0.7104  1.2500
  838SOL     OW 2512   1.185   1.482   2.688 -0.8561  0.2680 -0.5705
  838SOL    HW1 2513   1.109   1.546   2.714 -2.0759 -0.5746  3.1133
  838SOL    HW2 2514   1.158   1.385   2.667  3.8600 -2.0745  2.8645
  839SOL     OW 2515   1.666   0.382   0.966 -0.4796  0.2863  0.2968
  839SOL    HW1 2516   1.612   0.458   1.017 -0.5437  2.3695 -4.0144
  839SOL    HW2 2517   1.636   0.282   0.977  0.8373 -2.5734 -0.9270
  840SOL     OW 2518   2.640   2.951   1.666 -0.0394 -0.3354  0.2516
  840SOL    HW1 2519   2.565   3.007   1.625  2.7039 -0.1034 -3.2349
  840SOL    HW2 2520   2.612   2.907   1.757 -0.7150  2.0966  1.0794
  841SOL     OW 2521   1.551   0.835   3.050 -0.3988  0.2034  0.6172
  841SOL    HW1 2522   1.466   0.833   3.112  0.5703  1.1860  2.8268
  841SOL    HW2 2523   1.543   0.908   2.967  0.9208 -2.8546 -1.7527
  842SOL     OW 2524   0.840   1.609   1.008  0.0182 -0.0613  0.3923
  842SOL    HW1 2525   0.778   1.695   1.025  1.8470 -0.5540 -0.3446
  842SOL    HW2 2526   0.789   1.535   0.958 -1.6660  0.8693  0.3500
  843SOL     OW 2527   0.158   0.066   1.465  0.3486  0.1826 -0.4672
  843SOL    HW1 2528   0.250   0.089   1.506 -2.2208  0.9957 -1.5552
  843SOL    HW2 2529   0.147  -0.033   1.448 -1.1088  1.3659 -1.4595
  844SOL     OW 2530   0.699   2.466   0.202  0.3902 -0.4120 -0.0922
  844SOL    HW1 2531   0.633   2.483   0.280 -0.7535 -0.0956 -1.4760
  844SOL    HW2 2532   0.657   2.446   0.109  0.3808 -1.3527  0.8615
  845SOL     OW 2533   1.745   0.004   1.253 -0.2729  0.4866  0.6841
  845SOL    HW1 2534   1.700   0.020   1.345 -1.2114  1.3495 -2.9681
  845SOL    HW2 2535   1.797   0.089   1.219  2.2128  0.3467  1.8415
  846SOL     OW 2536   1.690   3.045   0.912 -0.4715 -0.1971 -0.0755
  846SOL    HW1 2537   1.693   2.988   0.827  0.8195 -0.4576 -2.6671
  846SOL    HW2 2538   1.766   3.032   0.978 -1.0324 -0.0633  0.0194
  847SOL     OW 2539   2.108   1.637   0.164 -0.4342 -0.4645 -0.2913
  847SOL    HW1 2540   2.057   1.596   0.245  0.0701  1.7645 -1.5310
  847SOL    HW2 2541   2.052   1.650   0.081 -0.7766  1.2331 -1.9714
  848SOL     OW 2542   2.505   0.806   2.634  0.2517 -0.1451  0.2886
  848SOL    HW1 2543   2.491   0.907   2.645 -0.5603 -2.7034  0.5010
  848SOL    HW2 2544   2.423   0.753   2.595  0.2926  2.8831  0.4052
  849SOL     OW 2545   2.372   0.829   2.298  0.2116  0.2500  0.2398
  849SOL    HW1 2546   2.443   0.779   2.242  0.3363 -2.5112 -1.8363
  849SOL    HW2 2547   2.347   0.773   2.384 -2.3543  1.4375 -1.2415
  850SOL     OW 2548   1.523   0.222   1.263 -0.2826 -0.3270  0.1194
  850SOL    HW1 2549   1.531   0.193   1.162  0.2717 -0.4796 -0.7443
  850SOL    HW2 2550   1.504   0.144   1.328 -1.7760  1.1342 -0.0780
  851SOL     OW 2551   0.446   1.661   0.633 -0.0160  0.0886  0.1056
  851SOL    HW1 2552   0.420   1.750   0.683 -2.7821  0.5086 -2.0429
  851SOL    HW2 2553   0.552   1.650   0.625  1.1080  1.0844  0.0093
  852SOL     OW 2554   0.836   2.193   1.728  0.3629  0.7021  0.2960
  852SOL    HW1 2555   0.819   2.279   1.679  1.8416 -4.1548 -0.2100
  852SOL    HW2 2556   0.758   2.156   1.789 -0.5238 -1.4860  2.6034
  853SOL     OW 2557   2.627   1.488   2.582 -0.6967  0.2500 -0.4967
  853SOL    HW1 2558   2.582   1.392   2.563 -0.3462  1.1933  0.3713
  853SOL    HW2 2559   2.597   1.563   2.518  1.2760  0.7554  3.4640
  854SOL     OW 2560   2.460   1.421   1.771  0.0368  1.1221  0.2696
  854SOL    HW1 2561   2.498   1.384   1.681 -2.6802  1.4553  1.0946
  854SOL    HW2 2562   2.392   1.351   1.809  1.7482 -0.7758 -0.3185
  855SOL     OW 2563   2.032   2.277   1.012  0.2792  0.2994 -0.3269
  855SOL    HW1 2564   2.032   2.383   0.989 -0.1778 -0.4419 -1.3437
  855SOL    HW2 2565   2.094   2.260   1.093  1.2932  1.6140 -1.1920
  856SOL     OW 2566   1.418   1.421   0.878  0.3979  0.6280  0.4814
  856SOL    HW1 2567   1.442   1.525   0.886 -0.7687  1.3285 -2.4516
  856SOL    HW2 2568   1.427   1.372   0.969  0.0302 -0.1609 -0.9043
  857SOL     OW 2569   2.887   2.543   1.046  0.0500 -0.3022  0.7841
  857SOL    HW1 2570   2.815   2.480   1.080  2.0536  0.7890 -0.0489
  857SOL    HW2 2571   2.925   2.509   0.958  0.2921  1.3648  0.6033
  858SOL     OW 2572   2.293   2.108   1.797 -0.4040  0.4506  0.5898
  858SOL    HW1 2573   2.219   2.136   1.731  0.2134 -0.2727  0.5114
  858SOL    HW2 2574   2.352   2.045   1.744 -2.1123  1.8051 -0.6731
  859SOL     OW 2575   2.418   0.367   0.965  0.5188 -0.1520  0.1687
  859SOL    HW1 2576   2.492   0.428   0.929 -1.2427 -1.7443  1.3371
  859SOL    HW2 2577   2.450   0.286   1.031  2.1396 -0.1247 -0.2675
  860SOL     OW 2578   1.939   2.833   0.513 -0.4601 -0.3544 -0.3366
  860SOL    HW1 2579   1.913   2.785   0.428 -1.4679  2.0231 -0.1748
  860SOL    HW2 2580   1.953   2.932   0.504 -2.2028 -2.8074  1.6381
  861SOL     OW 2581   1.001   2.538   2.807  0.0232  0.6575  0.4098
  861SOL    HW1 2582   1.068   2.618   2.803 -0.1724 -2.0297 -1.1001
  861SOL    HW2 2583   0.987   2.506   2.903  1.0104 -0.0377 -0.8429
  862SOL     OW 2584   2.986   2.617   1.561 -0.0706  0.0959  0.2347
  862SOL    HW1 2585   3.043   2.610   1.646  0.0903  3.1571 -0.9023
  862SOL    HW2 2586   2.885   2.621   1.584  0.5747  1.2635  0.6252
  863SOL     OW 2587   1.852   2.672   0.281  0.1803  0.5657  0.1721
  863SOL    HW1 2588   1.901   2.582   0.283 -2.2710  2.6379  0.0829
  863SOL    HW2 2589   1.760   2.651   0.235  0.0782  1.8207 -1.8324
  864SOL     OW 2590   1.917   1.135   2.939  0.0283  0.1450 -0.1263
  864SOL    HW1 2591   1.976   1.111   2.854 -0.4699 -0.9841 -0.6606
  864SOL    HW2 2592   1.970   1.125   3.028 -2.3516  0.6054 -1.0677
  865SOL     OW 2593   2.121   1.733   0.632  0.3745  0.2593 -0.3439
  865SOL    HW1 2594   2.153   1.753   0.730  0.3610  0.0053 -2.1251
  865SOL    HW2 2595   2.091   1.634   0.612  2.2220  1.8177  2.4562
  866SOL     OW 2596   2.889   2.801   1.028 -0.3728 -0.3855 -0.5657
  866SOL    HW1 2597   2.955   2.825   0.952  2.7010  1.7827 -1.6017
  866SOL    HW2 2598   2.874   2.697   1.039  1.9774 -0.6368  0.1331
  867SOL     OW 2599   0.461   1.358   0.840 -0.5162  0.6178  0.0746
  867SOL    HW1 2600   0.465   1.254   0.839 -0.2915 -1.0087  1.0046
  867SOL    HW2 2601   0.380   1.392   0.786  1.6875 -1.2658  1.6304
  868SOL     OW 2602   0.853   1.916   1.994  0.4058 -0.0913  0.0090
  868SOL    HW1 2603   0.842   1.888   2.098 -5.6132  0.4428  2.6567
  868SOL    HW2 2604   0.798   2.002   1.971 -0.4837 -1.3900 -0.0050
  869SOL     OW 2605   2.516   2.014   1.655  0.1621 -0.5158 -0.1795
  869SOL    HW1 2606   2.572   2.097   1.625  3.9827  0.4315 -1.4404
  869SOL    HW2 2607   2.487   1.949   1.578  0.4997 -1.7729 -1.1269
  870SOL     OW 2608   2.396   2.514   1.184  0.0280 -0.4225  0.1780
  870SOL    HW1 2609   2.362   2.417   1.184 -0.8518 -2.4974  0.0830
  870SOL    HW2 2610   2.489   2.523   1.231 -0.2666  2.6358 -0.7507
  871SOL     OW 2611   3.046   1.995   0.514 -0.1498 -0.1110  0.0470
  871SOL    HW1 2612   2.978   2.050   0.460 -2.6561 -0.5946  0.0019
  871SOL    HW2 2613   3.045   1.897   0.484  0.3100  1.7881 -0.3473
  872SOL     OW 2614   2.168   0.469   1.707 -0.2018 -0.0804  0.5994
  872SOL    HW1 2615   2.120   0.488   1.801 -0.8980  3.4179  0.8269
  872SOL    HW2 2616   2.274   0.463   1.714  2.6885 -0.2245  0.5996
  873SOL     OW 2617   1.727   2.070   2.867  0.2203  0.1239  0.0870
  873SOL    HW1 2618   1.717   2.168   2.895 -1.3245 -1.3871 -2.6118
  873SOL    HW2 2619   1.663   2.060   2.787 -1.1223  2.0763  1.9264
  874SOL     OW 2620   0.649   2.519   0.743 -0.5916  0.2812 -0.2461
  874SOL    HW1 2621   0.668   2.625   0.747  3.3764  2.1525  2.4348
  874SOL    HW2 2622   0.739   2.479   0.771 -2.1305  0.0130  0.7196
  875SOL     OW 2623   2.314   1.579   1.430 -0.0163  0.1524  0.5870
  875SOL    HW1 2624   2.415   1.612   1.437 -0.8635  2.4164 -0.8660
  875SOL    HW2 2625   2.251   1.629   1.364 -1.3696 -0.1950 -0.8380
  876SOL     OW 2626   0.149   2.222   2.714 -0.3790  0.3369  0.4320
  876SOL    HW1 2627   0.200   2.151   2.760 -1.0948  2.4135 -0.3169
  876SOL    HW2 2628   0.182   2.315   2.740 -0.8508 -1.1185 -0.0317
  877SOL     OW 2629   2.776   2.663   0.590 -0.1880  0.0382  0.1316
  877SOL    HW1 2630   2.812   2.758   0.594  1.1260 -2.4791  0.1876
  877SOL    HW2 2631   2.853   2.602   0.634 -0.0828  0.7911  3.3188
  878SOL     OW 2632   2.760   1.525   2.277 -0.0516  0.1607  0.1394
  878SOL    HW1 2633   2.742   1.622   2.312 -0.5335  0.2771 -0.8382
  878SOL    HW2 2634   2.832   1.475   2.339  0.4320  1.4407 -0.1465
  879SOL     OW 2635   2.386   3.096   1.248 -0.6806 -0.5240 -0.1992
  879SOL    HW1 2636   2.426   2.999   1.242 -0.8002 -1.8730  1.0224
  879SOL    HW2 2637   2.289   3.103   1.208 -0.6163  2.2207  0.3791
  880SOL     OW 2638   0.609   0.450   2.197 -0.7322  0.5178  0.3709
  880SOL    HW1 2639   0.543   0.433   2.271  1.8857 -0.5264 -2.4870
  880SOL    HW2 2640   0.654   0.368   2.164 -1.8997  3.5469  2.1089
  881SOL     OW 2641   0.885   0.090   0.403 -0.4842  0.1937 -0.0688
  881SOL    HW1 2642   0.936   0.003   0.427 -1.4170 -1.2115 -1.8789
  881SOL    HW2 2643   0.802   0.073   0.346 -1.3187  2.1789 -0.3141
  882SOL     OW 2644   2.745   1.750   1.642  0.0034  0.6991  0.4688
  882SOL    HW1 2645   2.848   1.718   1.633  2.4302  0.8553 -1.6099
  882SOL    HW2 2646   2.716   1.741   1.741  3.7616  0.1633 -0.7433
  883SOL     OW 2647   0.915   0.610   0.959  0.2470 -0.4189 -0.0701
  883SOL    HW1 2648   0.923   0.678   1.042 -0.3009 -0.9169  1.2210
  883SOL    HW2 2649   1.003   0.567   0.925  0.7846  0.5504 -1.9971
  884SOL     OW 2650   1.165   1.846   1.080 -0.1707  0.2116  0.0399
  884SOL    HW1 2651   1.161   1.846   0.978 -1.3867  0.9669  1.4745
  884SOL    HW2 2652   1.091   1.900   1.126  2.1741  0.3249 -0.6920
  885SOL     OW 2653   2.290   1.769   2.352  0.3732  0.0256  0.2455
  885SOL    HW1 2654   2.209   1.718   2.391 -1.4476  0.3779  0.0701
  885SOL    HW2 2655   2.268   1.870   2.323 -1.8239  3.7111 -1.0619
  886SOL     OW 2656   2.683   0.456   1.813  0.4684  0.2496  0.0681
  886SOL    HW1 2657   2.712   0.407   1.898 -0.4694 -1.6213  0.7578
  886SOL    HW2 2658   2.744   0.530   1.792  0.3220 -3.4730  0.6523
  887SOL     OW 2659   0.184   2.016   1.306 -0.2770  0.4027 -0.5247
  887SOL    HW1 2660   0.153   1.982   1.215  0.6942  0.5432 -0.4116
  887SOL    HW2 2661   0.201   2.117   1.308 -0.0082 -2.0888  1.2923
  888SOL     OW 2662   0.594   1.302   1.495 -0.0080 -0.3401  0.5644
  888SOL    HW1 2663   0.639   1.336   1.408 -0.6710  0.8282  0.9821
  888SOL    HW2 2664   0.535   1.223   1.471  2.2306 -2.6900 -1.6980
  889SOL     OW 2665   0.847   2.470   2.121 -0.4129 -0.4948  0.2661
  889SOL    HW1 2666   0.775   2.460   2.054  0.5063  2.1621  0.4990
  889SOL    HW2 2667   0.937   2.491   2.075 -1.6495 -2.7101 -2.3202
  890SOL     OW 2668   2.298   2.393   0.116 -0.2401  0.1808  0.2413
  890SOL    HW1 2669   2.330   2.465   0.050  1.4020  1.0840  0.9473
  890SOL    HW2 2670   2.209   2.417   0.161 -0.1518 -3.0305 -2.1267
  891SOL     OW 2671   2.616   1.583   0.635  0.1269  1.3146  0.1532
  891SOL    HW1 2672   2.599   1.501   0.695 -1.5719  0.2309 -0.0359
  891SOL    HW2 2673   2.527   1.626   0.601 -0.8263  0.4114 -1.5802
  892SOL     OW 2674   0.250   0.311   2.235  0.3298 -0.1184  0.1631
  892SOL    HW1 2675   0.262   0.338   2.137  2.7649  4.1177  1.0043
  892SOL    HW2 2676   0.328   0.344   2.300  2.2576  2.2240 -1.0311
  893SOL     OW 2677   1.637   0.219   2.712 -0.0320 -0.1516 -0.3340
  893SOL    HW1 2678   1.700   0.297   2.739  1.1326 -3.5215 -0.3974
  893SOL    HW2 2679   1.543   0.256   2.685 -0.3983 -1.1081 -0.8675
  894SOL     OW 2680   2.148   1.973   0.081  0.1239  0.7185  0.5075
  894SOL    HW1 2681   2.135   1.946  -0.019 -0.6441  1.7183  0.0579
  894SOL    HW2 2682   2.207   1.905   0.141 -0.5799 -2.5789 -1.9220
  895SOL     OW 2683   2.880   1.421   0.824 -0.1698 -0.5889 -0.0413
  895SOL    HW1 2684   2.931   1.333   0.854 -2.1477 -0.6563  2.2433
  895SOL    HW2 2685   2.939   1.484   0.766  0.8911 -0.9948  0.1203
  896SOL     OW 2686   1.765   1.776   1.193 -0.2842 -0.0325 -0.4229
  896SOL    HW1 2687   1.857   1.811   1.153  1.1473 -0.5359 -0.1870
  896SOL    HW2 2688   1.686   1.819   1.144  1.8414  0.7518  0.7454
  897SOL     OW 2689   0.307   0.506   3.076  0.0764  0.3431  0.1445
  897SOL    HW1 2690   0.265   0.567   3.004  0.1502  0.2445  0.2407
  897SOL    HW2 2691   0.396   0.549   3.110  2.5550 -1.3861 -1.9965
  898SOL     OW 2692   0.561   2.854   1.113  0.1564 -0.0269 -0.4737
  898SOL    HW1 2693   0.514   2.944   1.136 -0.2783  1.6774 -2.5150
  898SOL    HW2 2694   0.665   2.856   1.113  0.6549 -2.5289 -0.2242
  899SOL     OW 2695   2.700   0.942   1.249 -0.0966  0.1802  0.5492
  899SOL    HW1 2696   2.622   0.927   1.179  0.3017 -0.8579 -1.4334
  899SOL    HW2 2697   2.786   0.949   1.193 -1.9612  2.3297  1.6500
  900SOL     OW 2698   0.985   2.327   2.340  0.0836 -0.5399  0.2374
  900SOL    HW1 2699   0.929   2.362   2.262 -0.8106 -0.1689  2.1160
  900SOL    HW2 2700   0.946   2.348   2.430  1.3995  1.8399  0.4042
  901SOL     OW 2701   1.921   2.462   1.385  0.4176  0.5554 -0.2252
  901SOL    HW1 2702   1.913   2.472   1.284  1.5560  0.5714 -1.1822
  901SOL    HW2 2703   2.021   2.450   1.414  1.4614  1.3193 -0.8890
  902SOL     OW 2704   2.576   1.676   1.464 -0.0554  0.8383  0.2898
  902SOL    HW1 2705   2.640   1.713   1.539 -0.2116 -0.1983 -0.2103
  902SOL    HW2 2706   2.621   1.621   1.388  3.1498  2.3014 -0.9806
  903SOL     OW 2707   0.279   2.362   1.984  0.3146  0.3877  0.5303
  903SOL    HW1 2708   0.189   2.326   2.007  3.1404  2.1535 -1.6650
  903SOL    HW2 2709   0.275   2.429   1.906  1.2247  0.8259  0.1511
  904SOL     OW 2710   1.988   0.785   2.588  0.5783 -0.2878  0.0445
  904SOL    HW1 2711   1.894   0.748   2.618 -1.0700 -2.3260  1.9350
  904SOL    HW2 2712   2.003   0.774   2.481  2.0873  0.8895  0.6709
  905SOL     OW 2713   2.757   0.050   2.606  0.1490  0.0631 -0.9171
  905SOL    HW1 2714   2.819  -0.035   2.615  2.2031 -1.7898  0.0772
  905SOL    HW2 2715   2.811   0.133   2.570 -0.7258 -2.1399  0.4613
  906SOL     OW 2716   0.107   1.786   1.983 -0.1969  0.3824  0.1437
  906SOL    HW1 2717   0.062   1.818   1.900  1.9945  0.6459  2.0555
  906SOL    HW2 2718   0.208   1.803   1.982 -0.4345  0.3871 -0.4244
  907SOL     OW 2719   0.194   2.443   1.043 -0.0071 -0.4943 -0.1085
  907SOL    HW1 2720   0.254   2.523   1.013  1.7851 -1.4143  1.4057
  907SOL    HW2 2721   0.160   2.384   0.965  2.3015  1.2884  0.7047
  908SOL     OW 2722   2.629   2.855   0.396  0.4192  0.1483 -0.4936
  908SOL    HW1 2723   2.617   2.863   0.292  0.1031 -2.4279 -0.0030
  908SOL    HW2 2724   2.662   2.763   0.432  0.1687 -0.4380 -2.7822
  909SOL     OW 2725   0.687   0.911   2.603 -0.2028  0.4069  0.0050
  909SOL    HW1 2726   0.683   0.806   2.596 -3.1104  1.4469  1.1993
  909SOL    HW2 2727   0.771   0.940   2.555 -0.7063  0.1686  1.8177
  910SOL     OW 2728   1.726   1.782   2.010 -0.6661  0.3958 -0.5174
  910SOL    HW1 2729   1.794   1.812   1.938 -1.5310  0.8470 -0.1852
  910SOL    HW2 2730   1.671   1.864   2.044 -2.5316 -0.9603  0.3801
  911SOL     OW 2731   1.736   3.024   1.577 -0.1339  0.0206 -0.2346
  911SOL    HW1 2732   1.816   2.993   1.520 -1.3364 -0.2775  1.9348
  911SOL    HW2 2733   1.726   2.953   1.655  1.7635 -0.2884 -1.4638
  912SOL     OW 2734   2.817   0.945   0.765  0.5309 -0.5009 -0.3674
  912SOL    HW1 2735   2.827   0.943   0.869  0.1265 -0.5846  0.6425
  912SOL    HW2 2736   2.804   1.040   0.727 -0.5375 -1.1254 -0.7084
  913SOL     OW 2737   2.553   1.291   1.562  0.8974 -0.3909 -0.1296
  913SOL    HW1 2738   2.556   1.192   1.585 -2.4442  1.4107 -1.3503
  913SOL    HW2 2739   2.609   1.317   1.477  1.1201 -0.2340 -1.9422
  914SOL     OW 2740   2.822   0.522   1.275  0.3289 -0.3760  0.6117
  914SOL    HW1 2741   2.782   0.432   1.268  3.1917  2.1245 -2.1295
  914SOL    HW2 2742   2.785   0.587   1.346  1.1073 -3.4470  0.8471
  915SOL     OW 2743   1.189   0.851   1.037 -0.2486 -0.5101  0.2741
  915SOL    HW1 2744   1.257   0.902   1.098 -0.5255 -0.1206  1.7359
  915SOL    HW2 2745   1.105   0.823   1.089  1.1874 -0.7720 -1.8996
  916SOL     OW 2746   0.534   0.062   0.588 -0.2804 -0.1963 -0.5542
  916SOL    HW1 2747   0.592   0.120   0.652 -0.1856 -0.7134 -2.6799
  916SOL    HW2 2748   0.554   0.077   0.487  0.3080  0.0938  0.2075
  917SOL     OW 2749   2.765   2.601   1.891 -0.5529 -0.0648  0.0151
  917SOL    HW1 2750   2.676   2.646   1.918  1.3916 -0.0226 -1.8311
  917SOL    HW2 2751   2.842   2.665   1.903  2.0790  0.0638 -2.4546
  918SOL     OW 2752   0.995   2.200   0.001  0.5240 -0.1527 -0.1459
  918SOL    HW1 2753   0.958   2.221   0.097  2.6366 -0.8584 -0.5160
  918SOL    HW2 2754   1.071   2.131   0.009 -1.3952 -1.6361 -2.2742
  919SOL     OW 2755   0.908   1.611   2.793  0.0703  0.2316 -0.0752
  919SOL    HW1 2756   0.954   1.685   2.738 -0.3371  1.3428 -1.3804
  919SOL    HW2 2757   0.893   1.524   2.738 -1.6941 -2.3133  2.2723
  920SOL     OW 2758   1.228   2.070   2.509 -0.2827  0.4584 -0.2484
  920SOL    HW1 2759   1.185   2.074   2.418 -0.5649  0.3747  2.2561
  920SOL    HW2 2760   1.261   1.972   2.527 -1.0130  2.8107  2.7698
  921SOL     OW 2761   1.043   0.141   2.587  0.2279 -0.3018  0.0123
  921SOL    HW1 2762   1.084   0.124   2.489 -0.6882  0.4742  0.6404
  921SOL    HW2 2763   0.956   0.093   2.601  1.8118 -0.1346 -1.4372
  922SOL     OW 2764   2.086   2.414   2.774 -0.0412 -0.0018 -0.3833
  922SOL    HW1 2765   2.113   2.313   2.774  0.2798  0.8190  3.7586
  922SOL    HW2 2766   2.047   2.447   2.686 -1.5826 -0.3216  2.9496
  923SOL     OW 2767   1.157   2.680   0.207  0.6307  0.2673 -0.3147
  923SOL    HW1 2768   1.236   2.723   0.256 -1.1770 -2.3830 -2.0583
  923SOL    HW2 2769   1.184   2.639   0.117  0.4740 -1.1735 -0.2834
  924SOL     OW 2770   2.856   1.568   0.088 -0.1463  0.2555 -0.5083
  924SOL    HW1 2771   2.786   1.605   0.021 -0.7164  0.5376  0.6367
  924SOL    HW2 2772   2.922   1.635   0.127 -0.3263  0.5588  0.3589
  925SOL     OW 2773   0.097   2.871   1.621  0.4673  0.4942 -0.6212
  925SOL    HW1 2774  -0.000   2.903   1.646 -1.0731 -1.2188 -2.0275
  925SOL    HW2 2775   0.101   2.835   1.521 -1.4135 -4.0768 -1.3988
  926SOL     OW 2776   1.454   2.890   1.309  0.4021  0.1884 -0.1793
  926SOL    HW1 2777   1.457   2.884   1.205 -0.3999 -0.2179  1.3739
  926SOL    HW2 2778   1.454   2.989   1.339 -1.6399  0.3327  2.2466
  927SOL     OW 2779   0.252   2.547   1.774  0.1923  0.5258 -0.1089
  927SOL    HW1 2780   0.200   2.479   1.716  0.2696 -0.0296  1.3050
  927SOL    HW2 2781   0.312   2.613   1.720 -2.7000 -0.1071 -0.8780
  928SOL     OW 2782   1.602   2.008   2.094 -0.1060  0.5377 -0.3224
  928SOL    HW1 2783   1.628   2.106   2.099 -0.1039 -1.1312 -1.1519
  928SOL    HW2 2784   1.503   2.002   2.059 -0.9956 -2.8714  1.4296
  929SOL     OW 2785   2.352   2.447   2.820 -0.3222 -0.4439 -0.2167
  929SOL    HW1 2786   2.249   2.443   2.815 -1.9600  0.3836  0.4954
  929SOL    HW2 2787   2.395   2.415   2.735 -1.1828 -1.4868  2.7834
  930SOL     OW 2788   2.204   1.997   1.083  0.2612 -0.4084  0.0224
  930SOL    HW1 2789   2.184   1.977   1.186 -1.3864 -0.6207 -0.3344
  930SOL    HW2 2790   2.250   2.092   1.073 -0.9286  0.6860 -0.9700
  931SOL     OW 2791   0.586   1.738   2.641  0.2942 -0.0960  0.1725
  931SOL    HW1 2792   0.600   1.737   2.744 -1.9186  1.4280 -2.2219
  931SOL    HW2 2793   0.576   1.646   2.587  0.6899 -0.0041  2.8981
  932SOL     OW 2794   0.496   0.107   2.906 -0.5017 -0.4705 -0.0959
  932SOL    HW1 2795   0.581   0.120   2.845  0.5208 -1.2615  1.5609
  932SOL    HW2 2796   0.508   0.035   2.980  0.9321  1.6779  0.7926
  933SOL     OW 2797   1.068   0.771   3.010 -0.1453 -0.2309 -0.5855
  933SOL    HW1 2798   1.115   0.819   3.086 -1.1880  0.6215 -0.0201
  933SOL    HW2 2799   1.016   0.836   2.951 -1.3329  0.4921  0.5756
  934SOL     OW 2800   0.819   2.930   2.759  0.7921 -0.1501 -0.1899
  934SOL    HW1 2801   0.889   2.886   2.693 -1.7234 -1.3040  0.2463
  934SOL    HW2 2802   0.831   2.881   2.853  0.8502 -1.2580  2.5874
  935SOL     OW 2803   3.085   0.550   0.909 -0.0127  0.6923  0.5255
  935SOL    HW1 2804   3.087   0.499   0.815 -2.1972  1.1108  1.2483
  935SOL    HW2 2805   2.994   0.609   0.923 -1.3221  1.5693  0.4569
  936SOL     OW 2806   1.095   2.979   0.126 -0.3204  0.5206  0.0687
  936SOL    HW1 2807   1.165   3.020   0.063  2.0120  1.9947  1.5288
  936SOL    HW2 2808   1.115   2.885   0.167 -1.2452  1.4434  1.1028
  937SOL     OW 2809   1.947   2.637   2.086  0.0584  0.5107  0.3249
  937SOL    HW1 2810   1.847   2.653   2.109  1.7000 -1.1021 -0.3040
  937SOL    HW2 2811   1.972   2.654   1.989  0.2882 -1.0878  2.4008
  938SOL     OW 2812   2.774   2.178   1.514 -0.2978  0.1899  0.2793
  938SOL    HW1 2813   2.727   2.249   1.576  0.4581  0.1768  1.6981
  938SOL    HW2 2814   2.844   2.119   1.566 -0.3012 -3.7278  0.6844
  939SOL     OW 2815   2.729   1.052   2.522 -0.0233 -0.7017  0.2098
  939SOL    HW1 2816   2.792   0.976   2.492 -2.7175 -0.0551 -0.7486
  939SOL    HW2 2817   2.750   1.084   2.618  0.6770 -1.0992  1.4184
  940SOL     OW 2818   1.067   0.457   2.626  0.0597  0.0171  0.6019
  940SOL    HW1 2819   1.112   0.372   2.649 -2.8276  1.7875 -3.6756
  940SOL    HW2 2820   0.972   0.459   2.652  1.7048  1.7282  0.8978
  941SOL     OW 2821   0.074   2.858   2.211  0.0440  0.6845 -0.0378
  941SOL    HW1 2822   0.041   2.761   2.195  0.4868 -0.5991 -0.4227
  941SOL    HW2 2823   0.141   2.863   2.286 -0.4648  0.1377  0.8279
  942SOL     OW 2824   0.068   0.064   2.557  0.5223 -0.1790 -0.2521
  942SOL    HW1 2825   0.137   0.105   2.626  0.4137 -0.2462 -1.4385
  942SOL    HW2 2826   0.045   0.135   2.483 -1.9202 -0.5603 -2.3674
  943SOL     OW 2827   2.064   1.606   2.431  0.4035  0.7283  0.1258
  943SOL    HW1 2828   2.108   1.523   2.395  0.9323  1.4439  4.1966
  943SOL    HW2 2829   2.007   1.590   2.518 -1.3095 -0.6386 -3.6236
  944SOL     OW 2830   2.163   2.366   1.489  0.3812 -0.6953  0.7977
  944SOL    HW1 2831   2.253   2.411   1.521  0.3582 -2.8536  0.1980
  944SOL    HW2 2832   2.130   2.293   1.547  1.0088  1.3959 -3.9300
  945SOL     OW 2833   0.628   1.430   0.387  0.3982  0.0720 -0.5022
  945SOL    HW1 2834   0.669   1.475   0.300 -0.6607  2.9051  0.6360
  945SOL    HW2 2835   0.666   1.336   0.416  1.8745  0.2484 -0.9308
  946SOL     OW 2836   0.350   1.021   2.588 -0.3067  0.2019  0.5050
  946SOL    HW1 2837   0.289   0.955   2.531 -0.3003  1.2617 -2.6230
  946SOL    HW2 2838   0.324   1.118   2.576 -1.0003  0.6681 -0.0642
  947SOL     OW 2839   1.471   0.458   0.130 -0.1014  0.2774  0.7985
  947SOL    HW1 2840   1.411   0.477   0.207  2.4312  0.2944 -0.8881
  947SOL    HW2 2841   1.434   0.379   0.068 -1.6926  0.4048 -0.7990
  948SOL     OW 2842   1.956   0.011   2.191  0.0524  0.2428  0.0513
  948SOL    HW1 2843   1.932  -0.015   2.088  1.6923 -1.2376  0.2081
  948SOL    HW2 2844   1.945  -0.068   2.257 -0.4090  0.1756  0.3308
  949SOL     OW 2845   0.599   2.511   0.470 -0.4311  0.4391 -0.0560
  949SOL    HW1 2846   0.595   2.612   0.446 -1.3536 -1.1776  0.3839
  949SOL    HW2 2847   0.626   2.504   0.570  0.3543  1.7883 -0.4497
  950SOL     OW 2848   0.307   2.111   3.016 -0.2292 -0.3294  0.0202
  950SOL    HW1 2849   0.217   2.165   3.008 -1.1915 -0.2312 -3.4058
  950SOL    HW2 2850   0.296   2.012   2.990  0.0324  0.1324 -1.8054
  951SOL     OW 2851   1.158   2.778   2.764 -0.1374  0.1144  0.1471
  951SOL    HW1 2852   1.187   2.855   2.706 -1.8519  0.9943  1.8174
  951SOL    HW2 2853   1.221   2.754   2.841 -1.9847  0.2922 -1.7742
  952SOL     OW 2854   0.080   1.673   0.477  0.2780  0.3675 -0.5032
  952SOL    HW1 2855   0.146   1.754   0.500  0.4438  4.0648  2.7403
  952SOL    HW2 2856   0.041   1.648   0.567 -1.0747  0.7819 -1.2106
  953SOL     OW 2857   2.547   1.730   0.164 -0.8472  0.4313 -0.2602
  953SOL    HW1 2858   2.538   1.628   0.185  0.2978 -0.7822 -1.5137
  953SOL    HW2 2859   2.519   1.747   0.062  0.1416 -1.9932 -0.3361
  954SOL     OW 2860   2.176   0.557   1.041 -0.2313 -0.1789  0.6994
  954SOL    HW1 2861   2.108   0.548   0.968 -0.2088 -1.9787 -0.5089
  954SOL    HW2 2862   2.262   0.495   1.021 -0.1507  0.5251  0.2481
  955SOL     OW 2863   0.265   2.657   1.306 -0.3835 -0.0011 -0.1820
  955SOL    HW1 2864   0.174   2.619   1.282 -0.5118  0.5303  1.6902
  955SOL    HW2 2865   0.333   2.631   1.236 -3.2898 -2.0839  0.7056
  956SOL     OW 2866   2.789   2.471   2.523 -0.3781  0.1481 -0.0996
  956SOL    HW1 2867   2.759   2.370   2.508 -3.4014  1.3236  2.0249
  956SOL    HW2 2868   2.801   2.518   2.432 -2.0188 -0.6784 -3.9886
  957SOL     OW 2869   1.551   2.079   2.662 -0.1530 -0.0443  0.1681
  957SOL    HW1 2870   1.489   1.995   2.667  1.0105 -2.7565 -0.5315
  957SOL    HW2 2871   1.597   2.088   2.575 -1.3389 -2.0072  0.0635
  958SOL     OW 2872   2.660   2.330   3.011 -0.3289 -0.2475  0.2243
  958SOL    HW1 2873   2.567   2.374   3.028 -1.5377  0.7143  0.7715
  958SOL    HW2 2874   2.670   2.231   3.043  3.4136  1.9352 -1.6348
  959SOL     OW 2875   0.250   2.827   0.013 -0.3949  0.1024  0.3818
  959SOL    HW1 2876   0.152   2.808   0.036 -0.2681  0.4959  0.1740
  959SOL    HW2 2877   0.306   2.740   0.009  0.0970  1.2695  0.7988
  960SOL     OW 2878   2.018   0.503   1.931 -0.3265 -0.3473 -0.3322
  960SOL    HW1 2879   1.970   0.588   1.897  0.8948 -0.5264 -0.0788
  960SOL    HW2 2880   2.047   0.514   2.035  3.0706 -2.9596  0.7688
  961SOL     OW 2881   2.619   1.867   1.038  0.3507 -0.0818 -0.1647
  961SOL    HW1 2882   2.574   1.909   0.952 -0.2802  0.1686 -2.0650
  961SOL    HW2 2883   2.606   1.918   1.130  2.1901  3.5002  0.2994
  962SOL     OW 2884   1.252   0.936   0.048  0.5502 -0.6332  0.5026
  962SOL    HW1 2885   1.254   1.001  -0.032 -0.9177  1.1230  0.7628
  962SOL    HW2 2886   1.265   0.998   0.133 -1.3386  0.2582 -1.9431
  963SOL     OW 2887   2.314   2.650   1.877  0.2585 -0.0515 -0.6055
  963SOL    HW1 2888   2.319   2.574   1.947 -0.1572 -0.6577  1.0716
  963SOL    HW2 2889   2.328   2.742   1.926 -2.0483  1.5170 -0.7012
  964SOL     OW 2890   2.449   0.392   1.679  0.3545  0.1337 -0.0615
  964SOL    HW1 2891   2.532   0.440   1.721  0.4062 -2.0899  3.0105
  964SOL    HW2 2892   2.479   0.338   1.597 -1.9524 -0.4817  1.6078
  965SOL     OW 2893   2.643   3.013   0.115  0.2951 -0.1362  0.2070
  965SOL    HW1 2894   2.716   2.991   0.042 -3.6602  5.0180  0.8682
  965SOL    HW2 2895   2.555   3.052   0.078  0.4536 -0.7665 -2.2755
  966SOL     OW 2896   2.556   2.597   2.153  0.2544  0.6382 -0.0743
  966SOL    HW1 2897   2.486   2.528   2.117  1.2352 -1.1982  1.2878
  966SOL    HW2 2898   2.509   2.685   2.179 -0.7343  1.2210 -1.6475
  967SOL     OW 2899   2.776   2.840   2.455  0.2401 -0.1713  0.0127
  967SOL    HW1 2900   2.809   2.770   2.386 -0.3543  2.1011  1.1491
  967SOL    HW2 2901   2.836   2.924   2.461  0.8634  0.2411  0.0109
  968SOL     OW 2902   2.013   1.035   2.699 -0.9434  0.8728 -0.0044
  968SOL    HW1 2903   1.973   1.120   2.659 -0.5872 -2.1668  2.9535
  968SOL    HW2 2904   2.001   0.949   2.640  2.7447 -0.5362  2.1633
  969SOL     OW 2905   2.739   2.331   1.150 -0.2676 -0.0586 -0.4304
  969SOL    HW1 2906   2.697   2.331   1.056 -2.6056 -3.2942  1.0001
  969SOL    HW2 2907   2.778   2.237   1.178  1.1001  1.5022  2.0960
  970SOL     OW 2908   1.116   2.228   1.760 -0.6987 -0.1221  0.5335
  970SOL    HW1 2909   1.019   2.217   1.719  2.2373 -0.2899 -0.2613
  970SOL    HW2 2910   1.122   2.220   1.863  1.3757 -2.4852 -1.2709
  971SOL     OW 2911   2.855   2.066   1.929  0.2955 -0.0547 -0.4732
  971SOL    HW1 2912   2.838   2.167   1.960 -0.7592 -1.3044 -0.9467
  971SOL    HW2 2913   2.858   2.048   1.825  0.0758 -0.3779  0.6994
  972SOL     OW 2914   2.059   2.414   0.245  0.5242  0.7147  0.2780
  972SOL    HW1 2915   2.013   2.326   0.204  0.0018 -2.2485 -2.2943
  972SOL    HW2 2916   2.094   2.396   0.342  1.5191 -0.4057 -0.4451
  973SOL     OW 2917   1.268   1.071   1.954  0.1252  0.1954 -0.3971
  973SOL    HW1 2918   1.208   1.028   1.882  0.6001 -1.1352  0.5245
  973SOL    HW2 2919   1.259   1.170   1.956  2.6905 -4.0374 -1.4258
  974SOL     OW 2920   1.650   0.535   1.899 -0.3412 -0.4361  0.1853
  974SOL    HW1 2921   1.740   0.592   1.878 -1.1266  3.3888 -1.9278
  974SOL    HW2 2922   1.570   0.597   1.929  0.8218 -0.8667 -0.1595
  975SOL     OW 2923   2.378   3.057   3.067  0.3400  0.4893  0.4325
  975SOL    HW1 2924   2.351   2.969   3.115  0.1002 -1.3285 -0.7855
  975SOL    HW2 2925   2.400   3.036   2.970  2.7112  0.4474 -1.3012
  976SOL     OW 2926   1.913   2.883   2.321  0.2332  0.1392  0.1890
  976SOL    HW1 2927   1.827   2.839   2.292 -0.9591 -0.0771  0.0483
  976SOL    HW2 2928   1.938   2.864   2.420  0.5869 -0.4446 -2.9836
  977SOL     OW 2929   0.495   0.678   1.014 -0.3296 -0.0807 -0.1713
  977SOL    HW1 2930   0.398   0.672   0.977  0.9543 -0.6804  0.0994
  977SOL    HW2 2931   0.559   0.615   0.952  2.3230 -1.6051 -2.1340
   3.10000   3.10000   3.10000
