1000 SPC/Fw water molecules t=   0.82000 step= 820
 2931
    1SOL     OW    1   2.486   0.348   2.612  0.6739 -0.9595  0.8171
    1SOL    HW1    2   2.504   0.248   2.580 -0.9787 -0.2968 -1.6607
    1SOL    HW2    3   2.530   0.371   2.702  1.1145  1.4514 -0.4207
    2SOL     OW    4   2.750   3.079   1.424 -0.1798 -0.0951 -0.1649
    2SOL    HW1    5   2.824   3.120   1.366  0.3355 -0.0128  1.9434
    2SOL    HW2    6   2.689   3.146   1.479  0.9241 -2.8346  1.4684
    3SOL     OW    7   2.730   2.611   0.361 -0.6771 -0.5141  0.3470
    3SOL    HW1    8   2.701   2.513   0.362  0.2911 -0.6288  1.4833
    3SOL    HW2    9   2.792   2.638   0.440 -0.0972  0.4206 -0.4851
    4SOL     OW   10   1.280   1.475   2.347 -0.1344  0.2314 -0.5139
    4SOL    HW1   11   1.199   1.518   2.303  0.8386 -0.6541  0.5075
    4SOL    HW2   12   1.262   1.379   2.367 -1.4796  1.8781 -2.4263
    5SOL     OW   13   1.141   1.502   3.083  0.3586 -0.2400  0.0288
    5SOL    HW1   14   1.207   1.581   3.098 -0.5375 -2.3129  0.6847
    5SOL    HW2   15   1.046   1.520   3.125 -2.4151  0.3136 -1.0251
    6SOL     OW   16   0.123   1.855   2.944  0.8160 -0.6223  0.0501
    6SOL    HW1   17   0.032   1.873   2.994 -1.2413 -1.2716  1.8206
    6SOL    HW2   18   0.179   1.807   3.019  0.4328  0.3602 -0.2173
    7SOL     OW   19   2.602   0.924   1.136  0.5082 -0.4434 -0.5608
    7SOL    HW1   20   2.527   0.867   1.169  2.7543 -0.6652 -1.0300
    7SOL    HW2   21   2.614   0.925   1.034  0.0174 -1.1940  0.7657
    8SOL     OW   22   0.394   0.622   1.539  0.1191 -0.0474  0.5407
    8SOL    HW1   23   0.479   0.562   1.548  0.9565  3.3191 -0.4387
    8SOL    HW2   24   0.358   0.633   1.442 -0.4648 -1.5540 -0.4695
    9SOL     OW   25   1.177   0.865   2.389  0.2172 -0.5345  0.1847
    9SOL    HW1   26   1.263   0.911   2.350 -0.4123  0.2708  1.8915
    9SOL    HW2   27   1.117   0.812   2.326  1.0519  1.3324 -0.5026
   10SOL     OW   28   0.639   1.337   1.302  0.0055  0.2786  0.2002
   10SOL    HW1   29   0.548   1.361   1.259 -0.1620  1.3748 -0.2216
   10SOL    HW2   30   0.705   1.422   1.284  1.3812  2.7144  1.0802
   11SOL     OW   31   2.353   2.739   0.834 -0.0472 -0.0080 -0.1650
   11SOL    HW1   32   2.308   2.784   0.917 -0.3578 -0.5459 -2.1233
   11SOL    HW2   33   2.456   2.737   0.837 -1.3527 -2.8904 -2.7275
   12SOL     OW   34   1.485   0.899   0.346  0.0321 -0.1698 -0.3095
   12SOL    HW1   35   1.431   0.977   0.297  0.7530  1.3845 -1.5880
   12SOL    HW2   36   1.479   0.801   0.311  1.7751 -1.3380 -0.9065
   13SOL     OW   37   2.470   0.659   1.782  0.1192  0.1741 -0.0068
   13SOL    HW1   38   2.383   0.634   1.828  0.5682 -1.7661 -1.4156
   13SOL    HW2   39   2.477   0.626   1.682  1.4499 -2.1193 -0.5629
   14SOL     OW   40   1.887   0.049   0.738 -0.5274 -0.3007  0.0763
   14SOL    HW1   41   1.816   0.079   0.663 -1.5172  0.4162  0.0979
   14SOL    HW2   42   1.847  -0.027   0.795 -0.7213 -0.2482 -0.8520
   15SOL     OW   43   1.995   2.089   2.733  0.4243  0.1991  0.0369
   15SOL    HW1   44   1.958   2.168   2.783  1.1110  0.8108 -0.6937
   15SOL    HW2   45   1.922   2.015   2.722 -0.8736  1.9881 -0.5549
   16SOL     OW   46   1.618   1.727   2.964  0.0472  0.1835 -0.0267
   16SOL    HW1   47   1.619   1.636   3.014 -0.2663  0.7651  0.8816
   16SOL    HW2   48   1.707   1.781   2.972 -1.4335  0.0142  0.0537
   17SOL     OW   49   0.142   0.520   0.206 -0.4516 -0.0833  0.7144
   17SOL    HW1   50   0.243   0.553   0.224  0.8750  0.7221  0.3043
   17SOL    HW2   51   0.107   0.539   0.111  0.7695  0.8833  0.3377
   18SOL     OW   52   0.971   2.941   2.097  0.3137 -0.6145  0.2544
   18SOL    HW1   53   0.893   2.871   2.091  2.4100  1.1008 -0.2707
   18SOL    HW2   54   1.047   2.911   2.034  1.1108 -1.8376 -0.9891
   19SOL     OW   55   0.525   0.817   1.896  0.1382 -0.2761  0.1228
   19SOL    HW1   56   0.538   0.748   1.975 -0.6355 -0.7545 -1.0915
   19SOL    HW2   57   0.613   0.848   1.843 -3.0862  1.9053  3.2628
   20SOL     OW   58   0.213   2.697   0.838 -0.4523 -0.1810 -0.4847
   20SOL    HW1   59   0.148   2.776   0.823 -0.2780  0.6324 -0.0728
   20SOL    HW2   60   0.273   2.686   0.754 -2.3447 -2.2371 -1.6044
   21SOL     OW   61   2.739   0.210   2.101  0.0468 -0.0951  0.0359
   21SOL    HW1   62   2.680   0.154   2.035  1.0070  0.4839  1.4884
   21SOL    HW2   63   2.838   0.177   2.104 -1.0703 -1.2454  1.0030
   22SOL     OW   64   2.387   0.231   0.130  0.0020 -0.1087  0.4134
   22SOL    HW1   65   2.396   0.130   0.110 -0.4833  1.7152  0.3686
   22SOL    HW2   66   2.303   0.268   0.089  0.9313 -0.5919 -2.1145
   23SOL     OW   67   2.777   0.657   0.645  0.3172 -0.0072  0.1754
   23SOL    HW1   68   2.846   0.581   0.633  0.9629 -0.8950 -0.7173
   23SOL    HW2   69   2.767   0.726   0.561 -1.8695  2.6520 -1.2868
   24SOL     OW   70   0.202   1.909   0.367  0.3945 -0.4591  0.0295
   24SOL    HW1   71   0.143   1.964   0.299  0.2383 -0.8509 -1.7407
   24SOL    HW2   72   0.289   1.874   0.328  2.8542  3.0129 -1.9744
   25SOL     OW   73   2.200   0.550   0.320 -0.1246  0.1905 -0.5919
   25SOL    HW1   74   2.230   0.598   0.235  2.8881 -1.3275 -1.8715
   25SOL    HW2   75   2.263   0.476   0.349 -0.2722  1.8008 -2.8079
   26SOL     OW   76   2.526   2.088   2.085 -0.0712 -0.1730 -0.0234
   26SOL    HW1   77   2.579   2.168   2.133  0.9866 -0.4920 -2.8223
   26SOL    HW2   78   2.582   2.036   2.019 -1.5327  0.9039  0.0456
   27SOL     OW   79   0.598   2.971   0.225 -0.1171 -0.1653 -0.0796
   27SOL    HW1   80   0.703   2.948   0.214  0.9477 -1.1723 -0.5960
   27SOL    HW2   81   0.546   2.994   0.139 -0.2647  0.3287 -0.7233
   28SOL     OW   82   1.568   0.153   0.278 -0.5001 -0.0619 -0.1492
   28SOL    HW1   83   1.599   0.131   0.179 -1.1744 -2.2583 -2.4556
   28SOL    HW2   84   1.600   0.249   0.305  0.8275  0.0391 -2.4344
   29SOL     OW   85   1.961   0.598   0.423 -0.5771  0.1969  0.1716
   29SOL    HW1   86   1.927   0.696   0.435  3.4346 -0.8975 -0.9398
   29SOL    HW2   87   2.065   0.585   0.403  0.8449 -0.4648  1.0910
   30SOL     OW   88   0.187   1.980   0.917  0.1730 -0.1739 -0.2418
   30SOL    HW1   89   0.167   1.987   0.812 -1.3227 -2.3564  0.4749
   30SOL    HW2   90   0.117   2.041   0.968  0.6862 -3.3546 -0.1647
   31SOL     OW   91   2.112   3.067   2.325 -0.2467  0.0517  0.3209
   31SOL    HW1   92   2.064   3.051   2.415 -0.9536  0.9675 -0.5134
   31SOL    HW2   93   2.085   2.985   2.265 -2.7914 -0.5291  1.1159
   32SOL     OW   94   2.953   0.102   0.210 -0.2148  0.3586  0.5560
   32SOL    HW1   95   2.917   0.018   0.265 -2.6885 -2.6127 -0.4215
   32SOL    HW2   96   3.046   0.143   0.238 -1.7842 -0.2666  0.6141
   33SOL     OW   97   0.956   0.285   0.615  0.2836  0.2041 -0.0421
   33SOL    HW1   98   0.942   0.193   0.572 -1.2516  1.7791  0.2905
   33SOL    HW2   99   1.046   0.331   0.588 -1.6671  0.6077 -1.9596
   34SOL     OW  100   0.301   2.784   1.091 -0.1136 -0.0865  0.5210
   34SOL    HW1  101   0.265   2.765   0.991 -1.1599 -0.1424  1.5285
   34SOL    HW2  102   0.400   2.817   1.097 -1.8836  2.6272  2.2270
   35SOL     OW  103   0.021   0.145   1.868 -0.0840 -0.8749  0.4061
   35SOL    HW1  104   0.050   0.050   1.894  0.2249 -0.3374  1.7721
   35SOL    HW2  105  -0.015   0.142   1.771  2.6943 -1.6421  0.6647
   36SOL     OW  106   1.941   1.165   1.744 -0.3122  0.1853  0.0126
   36SOL    HW1  107   1.984   1.124   1.657 -5.1605  1.2969 -0.4383
   36SOL    HW2  108   1.998   1.227   1.794 -2.3288 -0.3501 -1.4688
   37SOL     OW  109   1.194   0.150   0.938 -0.2497 -0.1480  0.6361
   37SOL    HW1  110   1.246   0.222   0.997  0.0931  2.9143 -1.0604
   37SOL    HW2  111   1.249   0.123   0.855 -4.3297  2.1046 -1.8033
   38SOL     OW  112   1.077   2.783   2.480 -0.0419 -0.4639  0.2396
   38SOL    HW1  113   1.031   2.715   2.412 -1.3658 -1.9641 -1.8172
   38SOL    HW2  114   1.030   2.874   2.481  0.4381 -2.4308  0.2890
   39SOL     OW  115   2.300   1.389   3.031 -0.1117  0.2009 -0.2093
   39SOL    HW1  116   2.397   1.349   3.023 -0.0646  0.8028  2.1455
   39SOL    HW2  117   2.282   1.426   3.128 -1.4478 -3.9840  3.2769
   40SOL     OW  118   2.078   2.480   2.557 -0.8752 -0.0625 -0.5144
   40SOL    HW1  119   2.083   2.585   2.574 -1.2598  0.9647  3.3360
   40SOL    HW2  120   1.997   2.458   2.499 -1.7241 -0.9147  0.3413
   41SOL     OW  121   3.039   0.684   2.846  0.6988 -0.0108  0.3743
   41SOL    HW1  122   2.960   0.747   2.817  0.3743  3.5179 -0.9038
   41SOL    HW2  123   2.999   0.587   2.845  1.4360 -0.8502 -1.1053
   42SOL     OW  124   1.766   1.727   0.482  0.5852 -0.7054 -0.3777
   42SOL    HW1  125   1.712   1.642   0.465 -0.0574 -0.3224  0.5941
   42SOL    HW2  126   1.820   1.762   0.402 -2.7407  0.9910 -0.6593
   43SOL     OW  127   0.473   1.680   1.110  0.3100 -0.2480  0.5997
   43SOL    HW1  128   0.474   1.579   1.130  0.3321 -1.5792  1.1044
   43SOL    HW2  129   0.384   1.724   1.127  3.7081  0.1062 -0.2959
   44SOL     OW  130   1.809   2.497   3.060 -0.7779  0.1508  0.2519
   44SOL    HW1  131   1.805   2.588   3.017  1.1472 -2.1023 -1.4805
   44SOL    HW2  132   1.835   2.428   2.987 -3.4747  1.5819 -1.9517
   45SOL     OW  133   0.442   1.938   2.605  0.2702  0.2214  0.0826
   45SOL    HW1  134   0.375   1.921   2.529 -2.2437 -1.4141 -0.0514
   45SOL    HW2  135   0.482   1.849   2.643 -1.6521 -1.6496 -1.0454
   46SOL     OW  136   1.250   0.705   0.198 -0.0336 -0.0664 -0.1252
   46SOL    HW1  137   1.274   0.798   0.154  1.3777 -0.8677 -0.4841
   46SOL    HW2  138   1.148   0.696   0.227  1.1852  1.1022  1.1822
   47SOL     OW  139   0.234   2.500   1.589 -0.2227  0.0304 -0.4807
   47SOL    HW1  140   0.175   2.427   1.635  1.0202  1.1929  0.8607
   47SOL    HW2  141   0.221   2.508   1.487  0.0345 -1.7556 -3.7701
   48SOL     OW  142   2.626   0.643   0.127 -0.3652 -0.1861  0.2415
   48SOL    HW1  143   2.594   0.621   0.222 -1.3163  3.2006  0.6485
   48SOL    HW2  144   2.727   0.678   0.128 -1.4583 -3.4680 -0.4395
   49SOL     OW  145   0.328   0.804   1.726 -0.1739  0.3554  0.9308
   49SOL    HW1  146   0.399   0.808   1.804  0.5056 -0.1538 -0.8919
   49SOL    HW2  147   0.358   0.730   1.660  0.9774  1.6862  0.7140
   50SOL     OW  148   1.664   1.114   0.302 -0.2746  0.0089  0.6555
   50SOL    HW1  149   1.677   1.014   0.282  1.5861  2.4523 -0.7914
   50SOL    HW2  150   1.609   1.133   0.386  2.6808  0.6666 -1.1742
   51SOL     OW  151   2.893   1.871   0.314 -0.4808 -0.6624 -0.2729
   51SOL    HW1  152   2.836   1.794   0.277  1.0986 -1.1886  0.6262
   51SOL    HW2  153   2.980   1.828   0.364  1.0986 -0.6705  2.3714
   52SOL     OW  154   0.780   2.002   0.493 -0.4185  0.2441 -0.0578
   52SOL    HW1  155   0.694   2.051   0.524  1.5023 -2.1353 -1.6974
   52SOL    HW2  156   0.804   1.927   0.567  0.2721  0.9248  0.4187
   53SOL     OW  157   0.171   0.419   1.610 -0.0306 -0.0389 -0.2437
   53SOL    HW1  158   0.244   0.479   1.647 -1.9796 -0.9137  0.8632
   53SOL    HW2  159   0.091   0.474   1.576  2.5457  1.4529 -0.9186
   54SOL     OW  160   1.812   0.474   3.055  0.5500 -0.3656  0.1396
   54SOL    HW1  161   1.852   0.414   3.132  1.7950  1.6240  0.2711
   54SOL    HW2  162   1.710   0.497   3.063 -0.8627  1.6501 -2.2760
   55SOL     OW  163   0.767   2.883   0.693  0.0943  0.0063 -0.0007
   55SOL    HW1  164   0.730   2.976   0.714  0.5442  1.3313 -1.1272
   55SOL    HW2  165   0.867   2.884   0.661  0.1321  3.5390  0.1550
   56SOL     OW  166   0.497   1.607   0.022  0.3447 -0.5520 -0.2869
   56SOL    HW1  167   0.401   1.657   0.008 -1.8195  0.8886 -3.4481
   56SOL    HW2  168   0.508   1.521  -0.036  1.2642  0.6624 -0.0579
   57SOL     OW  169   1.731   2.512   2.504  0.0580 -0.3855 -0.3826
   57SOL    HW1  170   1.777   2.414   2.496 -0.2356 -2.0190 -2.3085
   57SOL    HW2  171   1.648   2.505   2.564  1.7008  1.3414 -4.2719
   58SOL     OW  172   0.645   0.278   1.035  0.2763 -0.8556 -0.3545
   58SOL    HW1  173   0.547   0.299   1.021  2.3423 -0.9717  0.3919
   58SOL    HW2  174   0.650   0.176   1.060 -1.5424  1.2606  0.9411
   59SOL     OW  175   0.446   2.450   2.750 -0.2158  0.1556  0.1107
   59SOL    HW1  176   0.494   2.376   2.692  0.7219 -2.6762 -1.1342
   59SOL    HW2  177   0.499   2.518   2.803 -0.1414  0.4508 -1.9906
   60SOL     OW  178   2.287   2.040   2.196 -0.1399 -0.4057 -0.0591
   60SOL    HW1  179   2.374   2.067   2.147 -3.3403  0.7253  3.3283
   60SOL    HW2  180   2.295   2.080   2.288  2.2565 -2.5164 -2.1656
   61SOL     OW  181   1.345   0.630   0.509  0.0697  0.0306 -0.0459
   61SOL    HW1  182   1.272   0.687   0.551 -1.3958 -0.9967 -0.8811
   61SOL    HW2  183   1.346   0.632   0.407  0.6511 -0.6455 -2.1304
   62SOL     OW  184   2.774   1.801   2.902 -0.2318 -0.1669  0.5914
   62SOL    HW1  185   2.765   1.734   2.978  1.8214 -1.0537 -2.5548
   62SOL    HW2  186   2.846   1.774   2.829 -0.2153 -0.2462 -1.2624
   63SOL     OW  187   0.603   0.916   0.172 -0.5552 -0.4792  0.9230
   63SOL    HW1  188   0.635   0.935   0.078  0.6148  1.7129  0.9054
   63SOL    HW2  189   0.678   0.874   0.228  1.9286  0.8244 -0.5588
   64SOL     OW  190   0.105   0.485   2.478  0.1100 -0.1317  0.1800
   64SOL    HW1  191   0.204   0.454   2.467 -1.8577  1.1877  2.7292
   64SOL    HW2  192   0.079   0.573   2.423 -2.5142  0.6278 -1.3702
   65SOL     OW  193   0.157   1.482   0.560  0.0940  0.4717 -0.0473
   65SOL    HW1  194   0.186   1.542   0.639 -0.6098 -1.0355 -1.9623
   65SOL    HW2  195   0.239   1.480   0.498 -0.1319  3.2541  0.7747
   66SOL     OW  196   2.560   0.401   0.599  0.3825  0.3124  0.2922
   66SOL    HW1  197   2.653   0.427   0.627 -1.1761 -2.5328 -0.3537
   66SOL    HW2  198   2.524   0.322   0.653 -2.4996 -0.0212 -1.5555
   67SOL     OW  199   0.541   2.531   1.365  0.0813  0.0017  0.2635
   67SOL    HW1  200   0.597   2.555   1.452 -0.8187  2.7225  0.0148
   67SOL    HW2  201   0.459   2.462   1.370  0.7774 -0.7326 -0.1400
   68SOL     OW  202   1.020   1.092   2.456 -0.4240  0.1886  0.2901
   68SOL    HW1  203   1.077   1.007   2.433  1.8818  0.2442  0.9492
   68SOL    HW2  204   0.939   1.108   2.388 -1.0389  0.9015 -0.8990
   69SOL     OW  205   0.738   2.733   2.170 -0.2715 -0.6173  0.4130
   69SOL    HW1  206   0.757   2.634   2.176  0.4956 -0.0993  0.0733
   69SOL    HW2  207   0.635   2.749   2.153  0.4253 -2.1774  0.2601
   70SOL     OW  208   0.520   0.325   2.697 -0.2870 -0.5623 -0.2234
   70SOL    HW1  209   0.493   0.360   2.788  1.6046  2.4779 -1.3520
   70SOL    HW2  210   0.530   0.225   2.685 -0.2419  1.4009  1.5489
   71SOL     OW  211   1.097   1.746   0.430  0.4645  0.0937  0.5051
   71SOL    HW1  212   1.027   1.697   0.492 -1.1681 -1.3246  4.4531
   71SOL    HW2  213   1.067   1.762   0.333  0.3070 -0.9746  2.8207
   72SOL     OW  214   1.841   0.201   2.152 -0.2105  0.4464  0.4598
   72SOL    HW1  215   1.932   0.238   2.138 -1.7082 -0.5969  0.2659
   72SOL    HW2  216   1.841   0.094   2.147  1.3870  0.0434  0.7314
   73SOL     OW  217   2.818   2.165   2.419 -0.2526  0.3924  0.0237
   73SOL    HW1  218   2.812   2.079   2.362  2.7387  3.0189  3.1280
   73SOL    HW2  219   2.835   2.148   2.516  2.6471 -0.0742  1.1749
   74SOL     OW  220   2.671   2.913   2.128 -0.8171 -0.1621 -0.0634
   74SOL    HW1  221   2.626   2.911   2.223 -1.1067 -0.6795 -0.1677
   74SOL    HW2  222   2.775   2.943   2.130 -0.7587 -1.1478 -0.5699
   75SOL     OW  223   0.905   0.769   1.105  0.1551  0.1918  0.1818
   75SOL    HW1  224   0.828   0.808   1.046 -1.2302  1.0710  0.0575
   75SOL    HW2  225   0.907   0.809   1.202 -3.3551  2.5959  1.0275
   76SOL     OW  226   1.698   1.201   2.506 -0.1107 -0.6981  0.0812
   76SOL    HW1  227   1.603   1.182   2.530 -0.5726 -2.0587 -0.5001
   76SOL    HW2  228   1.710   1.303   2.536 -0.0516  0.7673 -2.7565
   77SOL     OW  229   2.987   0.926   0.960 -0.0319  0.2408 -0.3836
   77SOL    HW1  230   3.005   0.824   0.948 -2.5558  1.9870  2.3256
   77SOL    HW2  231   3.030   0.963   1.045 -1.7772 -1.7240 -0.1513
   78SOL     OW  232   2.082   1.466   1.515 -0.9272  0.3728  0.3575
   78SOL    HW1  233   2.176   1.452   1.473  1.0630  1.1898  2.1587
   78SOL    HW2  234   2.010   1.489   1.444  0.8251  3.1581  0.1909
   79SOL     OW  235   0.611   1.366   0.877  0.0156  0.1905 -0.0915
   79SOL    HW1  236   0.508   1.387   0.889 -0.9991  0.5947  1.7780
   79SOL    HW2  237   0.633   1.314   0.794 -0.7075  1.1513  0.6566
   80SOL     OW  238   0.621   0.479   1.580  0.0142  0.5843  0.1052
   80SOL    HW1  239   0.681   0.553   1.542  0.0660 -0.5617  1.2330
   80SOL    HW2  240   0.666   0.386   1.576  2.2197  0.1490  2.0659
   81SOL     OW  241   1.039   1.398   2.630 -0.2796 -0.0749 -0.0562
   81SOL    HW1  242   1.090   1.315   2.649  1.0136  2.0985  1.0764
   81SOL    HW2  243   0.972   1.399   2.551 -0.3185 -0.3361 -1.9646
   82SOL     OW  244   1.011   2.933   1.502 -0.3086  0.0673  0.0789
   82SOL    HW1  245   1.011   2.994   1.420  0.7489 -1.3996  0.1579
   82SOL    HW2  246   0.917   2.888   1.512 -0.0507  1.4343  0.2203
   83SOL     OW  247   2.736   2.464   0.850 -0.2584 -0.4349 -0.1389
   83SOL    HW1  248   2.653   2.410   0.833 -0.6954  0.0610  1.5210
   83SOL    HW2  249   2.724   2.567   0.830 -0.8766 -0.0306 -0.4429
   84SOL     OW  250   0.627   3.049   2.373  0.0719 -0.0987 -0.1831
   84SOL    HW1  251   0.547   3.005   2.416  1.7989  0.5051 -0.1156
   84SOL    HW2  252   0.717   3.005   2.406  2.2185 -2.1831  0.7091
   85SOL     OW  253   0.276   1.568   1.493 -0.7626  0.3640 -0.2207
   85SOL    HW1  254   0.246   1.670   1.497  1.2071  0.4357 -0.8803
   85SOL    HW2  255   0.354   1.558   1.563 -2.2013  0.3796 -0.3607
   86SOL     OW  256   0.395   0.997   1.533  0.4344  0.2975  0.1288
   86SOL    HW1  257   0.389   0.952   1.440 -0.6801  0.3284 -0.4595
   86SOL    HW2  258   0.381   0.925   1.605 -2.1220  0.2192  0.4186
   87SOL     OW  259   1.593   0.665   0.209 -0.8159  0.2700 -0.4611
   87SOL    HW1  260   1.674   0.725   0.189  2.2201  1.2636  0.9249
   87SOL    HW2  261   1.568   0.607   0.127  0.5116 -1.2967  2.6833
   88SOL     OW  262   1.610   1.381   0.195  0.5414  0.5037 -0.2241
   88SOL    HW1  263   1.632   1.290   0.236 -2.7265 -0.5089 -2.0453
   88SOL    HW2  264   1.509   1.400   0.206 -1.0973  0.1198  1.5522
   89SOL     OW  265   0.012   0.430   0.578 -0.5396  0.2164  0.2039
   89SOL    HW1  266   0.065   0.360   0.523 -0.4608 -0.2221  1.5108
   89SOL    HW2  267  -0.082   0.399   0.610  0.6233  0.5597 -0.1774
   90SOL     OW  268   0.880   1.610   0.058 -0.5593 -0.4607  0.0284
   90SOL    HW1  269   0.797   1.564   0.106  0.0541  0.5313 -0.3570
   90SOL    HW2  270   0.879   1.612  -0.045  0.7739 -0.3913 -0.7278
   91SOL     OW  271   1.224   1.449   1.794 -0.0320  0.9280  0.3385
   91SOL    HW1  272   1.202   1.519   1.869 -0.3813  0.5241 -0.0943
   91SOL    HW2  273   1.329   1.425   1.779  0.7214  1.2428  1.1871
   92SOL     OW  274   0.006   0.974   1.195 -0.5446  0.2260 -0.3475
   92SOL    HW1  275   0.070   1.047   1.157  1.5087 -1.0238 -1.1652
   92SOL    HW2  276   0.025   0.956   1.297 -0.7501 -1.1059 -1.2092
   93SOL     OW  277   0.005   2.713   3.077 -0.0089 -0.4143 -0.4469
   93SOL    HW1  278  -0.077   2.729   3.017  0.2920  2.0420  0.4078
   93SOL    HW2  279   0.009   2.623   3.127 -0.2063  1.1748  1.9804
   94SOL     OW  280   1.487   1.496   1.754 -0.2777  0.3617 -0.4734
   94SOL    HW1  281   1.543   1.408   1.766  0.1659 -0.7279 -2.0045
   94SOL    HW2  282   1.505   1.567   1.824 -2.4799  0.8006 -2.1100
   95SOL     OW  283   1.363   2.555   2.992 -0.5506 -0.0036 -0.6376
   95SOL    HW1  284   1.287   2.578   3.061 -1.2842 -0.6240  0.0061
   95SOL    HW2  285   1.384   2.456   2.991 -2.0469  0.2918 -1.0313
   96SOL     OW  286   0.534   2.110   1.263  0.6087  0.3848 -0.1289
   96SOL    HW1  287   0.486   2.083   1.173 -0.7174  0.8521 -0.2581
   96SOL    HW2  288   0.569   2.031   1.323 -1.0368  1.9468  0.4763
   97SOL     OW  289   0.405   1.626   2.455  0.3358 -0.4412  0.3233
   97SOL    HW1  290   0.341   1.691   2.412  2.5758 -1.2559  1.7481
   97SOL    HW2  291   0.397   1.630   2.557 -0.6796 -1.9866  1.1704
   98SOL     OW  292   1.990   1.599   1.237  0.5626  0.0653 -0.3922
   98SOL    HW1  293   1.911   1.563   1.293  0.2114  0.3028  0.9915
   98SOL    HW2  294   2.010   1.540   1.154 -1.7199  0.3321 -0.1841
   99SOL     OW  295   2.437   2.062   1.387 -0.0127 -0.4001  0.2705
   99SOL    HW1  296   2.447   2.044   1.487  2.1447 -0.8565 -0.9123
   99SOL    HW2  297   2.457   1.977   1.330 -0.9775  0.0035  0.0372
  100SOL     OW  298   2.338   0.302   2.106  0.6390  0.1917  0.1290
  100SOL    HW1  299   2.273   0.275   2.182 -1.8680 -1.0330  1.7480
  100SOL    HW2  300   2.428   0.333   2.143  0.7764 -0.9198  3.2460
  101SOL     OW  301   0.370   1.520   0.346  0.6673 -0.2357  0.8528
  101SOL    HW1  302   0.428   1.506   0.428  0.1160  0.3796  0.4114
  101SOL    HW2  303   0.413   1.588   0.281 -0.1590  1.5876  1.9457
  102SOL     OW  304   2.249   1.019   0.824 -0.0344 -0.1041  0.0577
  102SOL    HW1  305   2.217   0.922   0.811  1.9020 -0.3036  1.3954
  102SOL    HW2  306   2.279   1.065   0.734 -0.7572 -2.0599  2.9169
  103SOL     OW  307   2.275   0.055   0.394  0.0452  0.5191  0.1643
  103SOL    HW1  308   2.277   0.159   0.392 -0.0807 -2.6923 -0.2015
  103SOL    HW2  309   2.365   0.007   0.420  1.3849  0.8945 -1.8955
  104SOL     OW  310   0.100   1.752   2.187 -0.7368 -0.3099  0.0853
  104SOL    HW1  311   0.155   1.718   2.112  0.1729  0.2787  1.1699
  104SOL    HW2  312  -0.000   1.759   2.159 -1.3740 -0.3343  2.3224
  105SOL     OW  313   1.225   2.107   0.796 -0.3537 -0.4094 -0.1240
  105SOL    HW1  314   1.135   2.111   0.747 -0.0613 -0.5329  2.1346
  105SOL    HW2  315   1.272   2.015   0.788 -0.1039  0.2796  0.2727
  106SOL     OW  316   2.118   0.427   1.426 -0.5259  0.0538 -0.3268
  106SOL    HW1  317   2.100   0.327   1.434 -0.3162  0.2606 -1.5598
  106SOL    HW2  318   2.080   0.477   1.507 -0.7671 -1.6111  1.6245
  107SOL     OW  319   1.802   3.008   1.184  1.0077 -0.5230  0.1595
  107SOL    HW1  320   1.838   3.097   1.228  0.2702  2.0365  0.9956
  107SOL    HW2  321   1.733   2.962   1.244 -0.0249 -0.4187 -1.0137
  108SOL     OW  322   0.785   2.794   1.210 -0.2739  0.4815  0.3809
  108SOL    HW1  323   0.770   2.776   1.310 -0.5066  0.4497 -0.8574
  108SOL    HW2  324   0.874   2.844   1.187 -1.7720  1.1783 -0.8019
  109SOL     OW  325   2.144   0.126   0.722 -0.2288 -0.1939  0.5700
  109SOL    HW1  326   2.049   0.088   0.701  0.8632 -0.1009 -0.3647
  109SOL    HW2  327   2.156   0.130   0.824 -0.1129 -0.8216 -0.6309
  110SOL     OW  328   0.467   2.855   2.769 -0.2364 -0.3170  0.2215
  110SOL    HW1  329   0.452   2.923   2.688 -1.5147 -1.3461  1.5457
  110SOL    HW2  330   0.551   2.793   2.758  0.9059  0.2274 -0.0982
  111SOL     OW  331   1.307   0.576   2.333  0.4422  0.1720  0.0883
  111SOL    HW1  332   1.225   0.590   2.394 -1.8878 -0.6506 -0.0305
  111SOL    HW2  333   1.355   0.487   2.353 -0.5574  0.0349 -1.5170
  112SOL     OW  334   1.732   0.555   1.446  0.4241  0.3554 -0.4911
  112SOL    HW1  335   1.744   0.553   1.341 -3.5136 -0.4811  0.4019
  112SOL    HW2  336   1.703   0.457   1.480  0.6702 -1.1981 -1.6588
  113SOL     OW  337   2.268   1.677   1.787  0.0421  0.2473 -0.0302
  113SOL    HW1  338   2.300   1.589   1.742 -0.0630  1.6312 -0.0976
  113SOL    HW2  339   2.274   1.679   1.891  1.0766  0.1433 -0.5809
  114SOL     OW  340   0.352   0.528   1.245  0.3241 -0.3645 -0.1010
  114SOL    HW1  341   0.410   0.557   1.161  0.5538 -1.8756  2.4427
  114SOL    HW2  342   0.249   0.528   1.229  1.0032 -0.0488  1.6717
  115SOL     OW  343   2.773   1.570   1.266 -0.0890 -0.3489 -0.0420
  115SOL    HW1  344   2.772   1.467   1.258 -1.4819 -0.8127  0.0019
  115SOL    HW2  345   2.785   1.621   1.172 -4.7432  1.3441 -3.3706
  116SOL     OW  346   1.848   1.037   0.736 -0.2691 -0.0533 -0.2347
  116SOL    HW1  347   1.771   0.991   0.693  0.7129  1.0933  0.2858
  116SOL    HW2  348   1.830   1.137   0.749 -1.6100 -1.0131 -2.1796
  117SOL     OW  349   1.200   0.385   0.573  0.6132 -0.8341 -0.6394
  117SOL    HW1  350   1.150   0.432   0.652 -0.4442  3.1026  0.7928
  117SOL    HW2  351   1.253   0.455   0.524 -3.4279 -0.7140  0.6661
  118SOL     OW  352   1.121   1.104   1.102  0.1047  0.1006  0.8542
  118SOL    HW1  353   1.068   1.057   1.171  3.6545  4.1484 -0.1133
  118SOL    HW2  354   1.140   1.204   1.125  1.5470  2.1716  1.4003
  119SOL     OW  355   1.805   1.620   2.143 -0.4694  0.4032 -0.2737
  119SOL    HW1  356   1.796   1.722   2.159  1.8442 -0.3942 -0.5826
  119SOL    HW2  357   1.907   1.592   2.116  3.5378 -0.4841  0.9172
  120SOL     OW  358   2.950   2.881   0.134  0.5306  0.0568 -0.8195
  120SOL    HW1  359   3.030   2.833   0.091 -2.4214 -1.5084  1.2565
  120SOL    HW2  360   2.866   2.822   0.116 -1.0996 -1.7004 -0.9265
  121SOL     OW  361   1.985   0.752   2.269 -0.2854 -0.1627 -0.6274
  121SOL    HW1  362   2.045   0.807   2.201 -0.7075 -0.0411 -2.2071
  121SOL    HW2  363   1.988   0.651   2.257 -2.1254  0.6305  0.2589
  122SOL     OW  364   2.592   2.663   1.220 -0.5581 -0.0502  0.1046
  122SOL    HW1  365   2.670   2.603   1.187  0.2870 -2.3264 -0.1403
  122SOL    HW2  366   2.528   2.700   1.143 -1.3000 -1.7124 -0.7767
  123SOL     OW  367   1.746   0.087   1.727 -0.1665 -0.0370  0.2775
  123SOL    HW1  368   1.759  -0.001   1.668 -0.0256 -1.8373 -2.1077
  123SOL    HW2  369   1.835   0.128   1.762 -1.7780  0.7918 -0.1862
  124SOL     OW  370   0.114   0.463   1.088 -0.2789  0.1528  0.8438
  124SOL    HW1  371   0.079   0.535   1.158 -1.6487  0.9719 -1.1148
  124SOL    HW2  372   0.123   0.511   0.991 -0.0716  2.2265 -3.9273
  125SOL     OW  373   0.846   1.859   0.709  0.0263 -0.3085  0.3891
  125SOL    HW1  374   0.934   1.812   0.736 -2.1328 -0.3720 -1.7163
  125SOL    HW2  375   0.810   1.925   0.781  1.0150 -0.1075 -0.0785
  126SOL     OW  376   1.875   2.287   2.444  0.0727 -0.0245 -0.1275
  126SOL    HW1  377   1.926   2.259   2.358 -3.0232 -0.2629 -0.8122
  126SOL    HW2  378   1.809   2.213   2.478 -0.5920  1.3883  0.2555
  127SOL     OW  379   0.969   0.893   0.253  0.8525  0.3412 -0.3428
  127SOL    HW1  380   0.949   0.973   0.314  0.4841  0.6965 -2.4927
  127SOL    HW2  381   0.958   0.797   0.300 -2.0730 -0.0476  0.0494
  128SOL     OW  382   0.906   0.243   1.378  0.1199 -0.2169  0.1725
  128SOL    HW1  383   0.892   0.311   1.300 -1.6749 -2.8713  0.0690
  128SOL    HW2  384   0.863   0.159   1.350  0.4734 -1.3028  0.9609
  129SOL     OW  385   1.837   0.714   1.900 -0.0885 -0.6429  0.4633
  129SOL    HW1  386   1.845   0.713   1.792  0.8103 -1.1651 -1.9970
  129SOL    HW2  387   1.891   0.795   1.937  0.0613 -3.3830 -2.7693
  130SOL     OW  388   1.365   2.234   1.006  0.0677 -0.0364 -0.1913
  130SOL    HW1  389   1.320   2.180   0.930 -0.5471  3.0593  1.3023
  130SOL    HW2  390   1.447   2.289   0.970 -0.7882  0.2441  0.6265
  131SOL     OW  391   3.056   1.448   1.377  0.7398 -0.2548  0.8279
  131SOL    HW1  392   2.972   1.398   1.345 -0.3633  3.2644  0.2321
  131SOL    HW2  393   3.142   1.394   1.388 -0.2752  0.8405  0.1851
  132SOL     OW  394   2.044   2.434   0.516  0.4740  0.1067 -0.0476
  132SOL    HW1  395   1.937   2.454   0.513 -1.3436 -0.5478 -2.3247
  132SOL    HW2  396   2.066   2.360   0.584 -1.3773  1.8751 -0.6411
  133SOL     OW  397   1.874   2.336   2.851 -0.2862 -0.0761 -0.1076
  133SOL    HW1  398   1.798   2.310   2.787  0.4144 -2.4772 -1.0699
  133SOL    HW2  399   1.960   2.375   2.813  0.5392 -2.5413  3.8150
  134SOL     OW  400   2.668   2.346   1.656 -0.2869  0.4027 -0.2675
  134SOL    HW1  401   2.612   2.339   1.742 -0.3263 -2.0076 -1.9117
  134SOL    HW2  402   2.732   2.429   1.657 -0.6988  0.0038  0.2440
  135SOL     OW  403   0.663   1.477   2.683 -0.4480  0.0444 -0.2240
  135SOL    HW1  404   0.639   1.380   2.715 -3.0284 -4.2907  2.0051
  135SOL    HW2  405   0.666   1.482   2.580 -0.5987 -0.9278  1.1324
  136SOL     OW  406   1.207   1.990   0.406 -0.7162  0.6419  0.0563
  136SOL    HW1  407   1.157   2.058   0.467  0.5583 -2.3159  1.0117
  136SOL    HW2  408   1.163   1.898   0.420  1.5824  2.7888  0.2276
  137SOL     OW  409   0.422   1.167   2.169  0.2462  0.5630  0.3813
  137SOL    HW1  410   0.327   1.169   2.201  0.4380  1.5334  0.0080
  137SOL    HW2  411   0.460   1.071   2.179 -1.4288 -1.6911 -1.0770
  138SOL     OW  412   2.448   1.534   0.243  0.6137 -0.3248 -0.3506
  138SOL    HW1  413   2.367   1.467   0.249 -2.1315 -0.4999  1.3483
  138SOL    HW2  414   2.503   1.529   0.334  0.1079 -2.0597  0.1723
  139SOL     OW  415   1.858   2.600   1.278 -0.2007 -0.5461  0.1679
  139SOL    HW1  416   1.762   2.621   1.256  2.9251  1.7791  0.8691
  139SOL    HW2  417   1.876   2.506   1.321  0.8863 -0.0245 -0.6950
  140SOL     OW  418   3.026   2.980   2.540 -0.1697  0.2223 -0.0768
  140SOL    HW1  419   3.060   2.882   2.552  1.1359 -1.1360 -1.6949
  140SOL    HW2  420   3.106   3.042   2.551  0.0244 -0.4849 -0.0803
  141SOL     OW  421   1.322   1.673   1.626  0.1041  0.0904 -0.0133
  141SOL    HW1  422   1.224   1.688   1.653  0.1951 -1.1919 -1.6446
  141SOL    HW2  423   1.371   1.610   1.691 -0.4347 -2.5019 -0.8273
  142SOL     OW  424   1.570   0.582   2.267 -0.5014 -0.2244 -0.0807
  142SOL    HW1  425   1.568   0.553   2.165  1.6500 -0.7914  0.3577
  142SOL    HW2  426   1.476   0.607   2.299  2.0895  2.9609 -0.4920
  143SOL     OW  427   2.731   0.893   0.522 -0.5222 -0.0436  0.5037
  143SOL    HW1  428   2.774   0.950   0.450  1.3255 -1.5306 -0.0664
  143SOL    HW2  429   2.742   0.940   0.611  0.4395  0.6454 -0.4961
  144SOL     OW  430   2.935   1.157   1.460  0.0634 -0.3409 -0.5143
  144SOL    HW1  431   2.865   1.156   1.537  2.4389 -0.9132  1.0572
  144SOL    HW2  432   2.995   1.072   1.459 -2.7643 -0.5774  1.1582
  145SOL     OW  433   0.999   1.835   0.168 -0.2952 -0.3254  0.2585
  145SOL    HW1  434   1.071   1.869   0.103 -1.4892  0.9925  0.8649
  145SOL    HW2  435   0.944   1.756   0.129 -0.5357  0.6023  2.4248
  146SOL     OW  436   2.506   0.671   1.501 -0.1958 -0.0234 -0.2653
  146SOL    HW1  437   2.480   0.584   1.448  0.5512 -1.0478  1.4037
  146SOL    HW2  438   2.447   0.752   1.476  1.5867  0.8351  3.7925
  147SOL     OW  439   1.101   2.451   0.614  0.0468 -0.1440 -0.0996
  147SOL    HW1  440   1.094   2.518   0.539 -1.4522  1.4680  1.4446
  147SOL    HW2  441   1.179   2.388   0.584  1.6046  0.9597  2.2995
  148SOL     OW  442   1.653   1.463   3.054 -0.8963  0.2887  0.3786
  148SOL    HW1  443   1.661   1.384   2.987 -0.2608  4.9103 -0.4999
  148SOL    HW2  444   1.644   1.426   3.152  0.5734 -0.4504 -0.8042
  149SOL     OW  445   0.713   1.404   1.977 -0.3950 -0.3515  0.3813
  149SOL    HW1  446   0.609   1.408   1.993  1.0597  1.1063  1.9152
  149SOL    HW2  447   0.741   1.346   1.894 -2.3673  0.4510 -1.4629
  150SOL     OW  448   3.022   1.239   0.942 -0.2404 -0.4091  0.1832
  150SOL    HW1  449   3.099   1.253   1.011  1.7383  0.2966 -1.5829
  150SOL    HW2  450   3.024   1.151   0.892  0.2237  1.4879 -1.2490
  151SOL     OW  451   0.199   0.724   2.146 -0.4274  0.1889 -0.3418
  151SOL    HW1  452   0.171   0.818   2.109 -0.1192  0.3028 -1.0051
  151SOL    HW2  453   0.233   0.656   2.075 -0.1869  0.6630 -0.5051
  152SOL     OW  454   1.430   1.768   1.281  0.0466 -0.1387  0.0338
  152SOL    HW1  455   1.429   1.872   1.306  0.0274  0.5048  1.9899
  152SOL    HW2  456   1.340   1.736   1.243  1.9596  1.4543 -1.5768
  153SOL     OW  457   0.019   1.512   0.156  0.4737  0.2844  0.2049
  153SOL    HW1  458   0.031   1.408   0.163  0.2670  0.1790  0.7715
  153SOL    HW2  459   0.038   1.568   0.242  1.1732  0.3803 -0.7740
  154SOL     OW  460   2.381   1.873   2.772  0.5557 -0.0033  0.0450
  154SOL    HW1  461   2.386   1.769   2.785  1.8660  1.2712 -0.2145
  154SOL    HW2  462   2.465   1.910   2.723 -1.9119  0.1374  0.4910
  155SOL     OW  463   2.471   1.207   0.401  0.5457 -0.2567 -0.4509
  155SOL    HW1  464   2.554   1.197   0.340  1.6657  0.9905 -0.4406
  155SOL    HW2  465   2.379   1.183   0.361 -0.2959  2.1556 -1.8121
  156SOL     OW  466   2.524   0.969   0.874 -0.1129  0.3012 -0.1673
  156SOL    HW1  467   2.423   0.954   0.885 -1.5579 -0.2818 -1.2261
  156SOL    HW2  468   2.546   1.055   0.825  0.7743 -1.0379  0.1895
  157SOL     OW  469   1.296   2.926   3.022 -0.2858 -0.0624  0.0800
  157SOL    HW1  470   1.378   2.909   2.964  0.5416 -2.5846 -1.7173
  157SOL    HW2  471   1.275   3.029   3.038  0.0440  2.1902  0.8001
  158SOL     OW  472   1.013   1.823   1.894 -0.3721  0.1567 -0.2107
  158SOL    HW1  473   1.041   1.911   1.846 -0.7339  2.2109  0.7045
  158SOL    HW2  474   0.918   1.827   1.927  1.4442 -0.4881 -1.4431
  159SOL     OW  475   0.824   0.443   1.200 -0.0503 -0.5506  0.1728
  159SOL    HW1  476   0.793   0.520   1.264  1.7817  0.4634  0.6039
  159SOL    HW2  477   0.752   0.406   1.138  2.2029  1.7155  1.4550
  160SOL     OW  478   1.401   2.306   1.578  0.1586  0.0821 -0.1130
  160SOL    HW1  479   1.392   2.315   1.679 -1.8460 -0.2599 -1.4472
  160SOL    HW2  480   1.499   2.310   1.545  2.3370 -0.8060  0.2288
  161SOL     OW  481   0.099   2.946   0.296 -0.5161  0.2767  0.0829
  161SOL    HW1  482  -0.002   2.923   0.288 -3.5424  0.8926  1.1717
  161SOL    HW2  483   0.128   2.995   0.205  1.3156  0.7963  1.1977
  162SOL     OW  484   2.521   1.900   0.476  0.6876 -0.2959  0.1512
  162SOL    HW1  485   2.512   1.859   0.384  3.0902  1.4066  2.9616
  162SOL    HW2  486   2.498   1.844   0.560  1.1252  1.1658  1.5656
  163SOL     OW  487   1.900   2.833   0.715 -0.0060  0.5591  0.4815
  163SOL    HW1  488   1.913   2.828   0.611 -0.6338  1.6213  0.7363
  163SOL    HW2  489   1.964   2.762   0.761  0.7289 -0.5432 -0.8697
  164SOL     OW  490   3.064   0.249   1.211 -0.5136  0.4696  0.3197
  164SOL    HW1  491   3.122   0.339   1.195  0.9792  3.3051  0.8584
  164SOL    HW2  492   3.101   0.192   1.290  1.7517 -0.2458  2.1676
  165SOL     OW  493   0.966   1.451   0.745  0.3312  0.3643  0.0438
  165SOL    HW1  494   0.896   1.477   0.815  2.1527 -2.7331 -3.2498
  165SOL    HW2  495   0.947   1.513   0.664  0.3783  0.0183 -1.5008
  166SOL     OW  496   1.494   1.083   1.737  0.1118 -0.5894  0.6460
  166SOL    HW1  497   1.419   1.052   1.805  1.0327 -0.0010  0.9815
  166SOL    HW2  498   1.553   1.157   1.785 -3.7385  1.2276  2.1535
  167SOL     OW  499   0.720   1.932   1.453 -0.0131  0.3078 -0.0193
  167SOL    HW1  500   0.729   1.994   1.538 -3.5624 -0.6011  0.3141
  167SOL    HW2  501   0.719   1.828   1.474  1.2869 -2.0376  0.2282
  168SOL     OW  502   1.643   2.389   0.139 -0.1145  0.1781 -0.4319
  168SOL    HW1  503   1.719   2.424   0.078  1.4224 -0.8340  0.5127
  168SOL    HW2  504   1.687   2.375   0.234  4.1709  2.2855 -2.3994
  169SOL     OW  505   0.182   2.547   2.237  0.3284  0.1508  0.7774
  169SOL    HW1  506   0.202   2.521   2.139  0.0978 -2.5449  0.5523
  169SOL    HW2  507   0.237   2.486   2.301  1.3043  0.1131 -1.3817
  170SOL     OW  508   1.123   0.241   2.001  0.3007  0.0605  0.3804
  170SOL    HW1  509   1.198   0.230   2.072 -2.0010  1.7464  0.5006
  170SOL    HW2  510   1.153   0.205   1.905 -1.3476 -1.0319 -0.0925
  171SOL     OW  511   0.201   0.771   2.416 -0.6362  0.1564 -0.1138
  171SOL    HW1  512   0.113   0.817   2.444 -0.7266 -0.4879  2.4397
  171SOL    HW2  513   0.211   0.768   2.312  0.3578  0.6868 -2.5703
  172SOL     OW  514   0.910   1.029   2.912 -0.1195 -0.5026  0.0027
  172SOL    HW1  515   0.985   1.094   2.945 -0.9695  0.5741  1.4742
  172SOL    HW2  516   0.882   1.048   2.814  1.2074 -2.2932  1.0058
  173SOL     OW  517   0.641   2.688   0.128  0.0911  0.0502  0.6195
  173SOL    HW1  518   0.628   2.789   0.112  2.0390 -3.2822  1.4771
  173SOL    HW2  519   0.553   2.639   0.129  2.5686  2.9458 -1.6246
  174SOL     OW  520   1.458   2.841   1.082  0.5028  0.4455 -0.3062
  174SOL    HW1  521   1.450   2.920   1.014 -0.1181 -2.9935 -0.3714
  174SOL    HW2  522   1.492   2.759   1.031 -3.1974 -1.8616 -1.9922
  175SOL     OW  523   0.395   0.004   1.647  0.5934 -0.3940 -0.8798
  175SOL    HW1  524   0.469   0.041   1.710 -1.9706 -0.9441  1.4003
  175SOL    HW2  525   0.364   0.069   1.569  0.4903 -0.3646 -1.4342
  176SOL     OW  526   2.609   0.396   0.001  0.3491  0.4201  0.0063
  176SOL    HW1  527   2.595   0.479   0.058  0.2843  1.0817 -3.1169
  176SOL    HW2  528   2.546   0.311   0.013  0.9663 -2.5372  0.2285
  177SOL     OW  529   0.358   0.306   1.014 -0.3710 -0.0577 -0.2121
  177SOL    HW1  530   0.318   0.217   0.977  1.3472 -0.6833  2.6780
  177SOL    HW2  531   0.298   0.357   1.087  1.4229  0.7974 -1.3114
  178SOL     OW  532   3.081   2.697   2.597  0.1662  0.9095 -0.5168
  178SOL    HW1  533   3.024   2.620   2.633 -0.2696  0.8514 -1.2777
  178SOL    HW2  534   3.165   2.719   2.656  2.1419 -0.2353 -1.8502
  179SOL     OW  535   3.101   1.628   1.163 -0.3566  0.0196 -0.6257
  179SOL    HW1  536   3.069   1.722   1.173  0.5984 -1.4337 -2.0820
  179SOL    HW2  537   3.071   1.556   1.236  2.5067 -2.5077 -1.0707
  180SOL     OW  538   0.200   1.221   1.863 -0.8272  0.3625  0.2815
  180SOL    HW1  539   0.303   1.218   1.869  0.3224 -0.1164  1.5205
  180SOL    HW2  540   0.159   1.313   1.883  0.3208 -3.9152 -0.9864
  181SOL     OW  541   3.006   1.848   2.498  0.4813 -0.0063  0.3534
  181SOL    HW1  542   3.082   1.911   2.472  1.4012  2.3731 -0.4965
  181SOL    HW2  543   2.917   1.867   2.449 -0.7956 -2.4890  1.3505
  182SOL     OW  544   2.246   1.307   1.177  0.0544 -0.0164 -0.1896
  182SOL    HW1  545   2.177   1.252   1.119 -2.7152  1.4673 -1.0554
  182SOL    HW2  546   2.248   1.407   1.153  0.5481  0.4559  0.8019
  183SOL     OW  547   1.490   2.224   2.568 -0.8509  0.0104  0.4501
  183SOL    HW1  548   1.402   2.174   2.552 -0.5648  0.1997  1.4232
  183SOL    HW2  549   1.573   2.160   2.539  2.0708 -2.6132  0.6547
  184SOL     OW  550   2.053   0.842   0.784 -0.3597 -0.2150 -0.6560
  184SOL    HW1  551   1.983   0.918   0.776  2.0443  0.3785  2.0187
  184SOL    HW2  552   2.020   0.764   0.845  0.5842  2.2987  0.7198
  185SOL     OW  553   1.604   2.783   2.068  0.5549 -0.3169 -0.4191
  185SOL    HW1  554   1.543   2.865   2.052  0.1958 -1.7754 -2.0981
  185SOL    HW2  555   1.633   2.766   2.167  1.0832  4.0462  0.7238
  186SOL     OW  556   0.110   2.193   1.654 -0.0166 -0.4202 -0.3866
  186SOL    HW1  557   0.075   2.243   1.739 -1.6923  0.3830 -1.4540
  186SOL    HW2  558   0.188   2.130   1.667 -2.0005 -1.7224 -2.1167
  187SOL     OW  559   1.305   0.765   1.667 -0.3504  0.4451 -0.0446
  187SOL    HW1  560   1.384   0.790   1.605  0.5147 -3.3150 -0.7992
  187SOL    HW2  561   1.332   0.750   1.766  0.4700 -2.4506  1.1140
  188SOL     OW  562   2.752   2.787   1.433  0.3033  0.2696 -0.2539
  188SOL    HW1  563   2.750   2.891   1.425 -0.2387  0.6067  1.5438
  188SOL    HW2  564   2.686   2.735   1.375 -2.1766  0.7703  0.4801
  189SOL     OW  565   0.932   1.215   1.401  0.5537 -0.5034 -0.1322
  189SOL    HW1  566   0.997   1.257   1.477  1.8022  0.8151  1.9524
  189SOL    HW2  567   0.848   1.278   1.386 -0.3695 -0.5448  1.1891
  190SOL     OW  568   1.467   1.900   1.586  0.0339 -0.4067  0.1358
  190SOL    HW1  569   1.416   1.811   1.605 -0.6470  0.7042 -0.8396
  190SOL    HW2  570   1.432   1.966   1.655 -0.8498 -3.1072  0.8929
  191SOL     OW  571   0.968   0.749   1.558  0.0605 -0.4604  0.5459
  191SOL    HW1  572   1.053   0.691   1.565  1.2963 -0.7469 -0.2266
  191SOL    HW2  573   0.973   0.846   1.587 -1.9073  0.0613 -0.1521
  192SOL     OW  574   1.867   2.260   1.116  0.4971 -0.3908  0.4494
  192SOL    HW1  575   1.765   2.276   1.099 -0.8330  1.5968 -0.5479
  192SOL    HW2  576   1.927   2.320   1.053  0.3822 -0.2354  0.9862
  193SOL     OW  577   0.580   0.587   0.458  0.4098  0.0158  0.2188
  193SOL    HW1  578   0.536   0.489   0.462 -2.0412 -2.9451 -1.3875
  193SOL    HW2  579   0.614   0.601   0.364  0.0162 -1.0768  2.2935
  194SOL     OW  580   0.341   0.854   1.289 -0.4403  0.1054 -0.0599
  194SOL    HW1  581   0.327   0.755   1.280  0.3287  1.5206  0.1879
  194SOL    HW2  582   0.318   0.903   1.200  0.8717 -1.2718 -1.7771
  195SOL     OW  583   1.014   2.894   0.545  0.0951 -0.4505 -0.1494
  195SOL    HW1  584   0.990   2.795   0.520 -1.0098  2.5450  0.6629
  195SOL    HW2  585   1.116   2.908   0.537 -1.5696 -5.1497  3.1056
  196SOL     OW  586   0.222   1.345   1.373 -0.1507 -0.2622 -0.2611
  196SOL    HW1  587   0.248   1.440   1.411  0.2738 -0.6516  0.9851
  196SOL    HW2  588   0.210   1.276   1.451 -2.1288 -0.6269 -0.5830
  197SOL     OW  589   0.829   2.038   0.233 -0.2743  0.2827  0.0315
  197SOL    HW1  590   0.810   2.028   0.335  1.9465 -0.2905  0.0535
  197SOL    HW2  591   0.892   1.963   0.201 -0.5927 -1.1501  0.3012
  198SOL     OW  592   0.305   1.241   0.219 -0.1446  0.2124  0.3427
  198SOL    HW1  593   0.199   1.237   0.218 -0.6896  0.1160 -1.7860
  198SOL    HW2  594   0.339   1.320   0.265 -1.7238 -2.1278 -0.4128
  199SOL     OW  595   2.228   0.386   2.549  0.2833 -0.3422 -0.3035
  199SOL    HW1  596   2.166   0.323   2.610 -1.4633 -2.7636  1.0680
  199SOL    HW2  597   2.329   0.378   2.575 -2.1164  1.3091  0.5950
  200SOL     OW  598   0.027   2.948   0.745 -0.0056  0.1621  0.1259
  200SOL    HW1  599  -0.058   2.931   0.681 -1.3606 -0.3013 -0.8915
  200SOL    HW2  600   0.019   3.030   0.809 -1.8829 -1.0290  2.4250
  201SOL     OW  601   1.102   0.770   0.629 -0.8621 -0.0537 -0.3275
  201SOL    HW1  602   1.109   0.821   0.720 -1.8300 -3.5580 -0.2235
  201SOL    HW2  603   1.019   0.706   0.618  2.1969  1.0107 -1.1616
  202SOL     OW  604   0.477   1.165   1.832 -0.4800 -0.4653  0.3810
  202SOL    HW1  605   0.534   1.134   1.751 -0.3439 -1.5972 -0.1421
  202SOL    HW2  606   0.519   1.141   1.920 -3.9121  0.0420  3.2605
  203SOL     OW  607   0.662   0.211   1.557 -0.3771 -0.3100 -0.5474
  203SOL    HW1  608   0.737   0.185   1.492 -0.3859 -0.1710 -0.0157
  203SOL    HW2  609   0.685   0.174   1.649  0.1442  1.6504  2.1260
  204SOL     OW  610   2.056   1.867   2.933  0.3451 -0.6473  0.0066
  204SOL    HW1  611   2.048   1.767   2.951 -0.4400  2.6103  1.5109
  204SOL    HW2  612   2.089   1.883   2.838  0.1638  1.4020 -1.7795
  205SOL     OW  613   1.821   1.874   3.064  0.1974 -0.0277 -0.2846
  205SOL    HW1  614   1.907   1.871   3.006 -0.2236 -1.0375  2.6273
  205SOL    HW2  615   1.791   1.969   3.077 -0.8262 -1.6683 -1.2497
  206SOL     OW  616   2.496   2.792   0.322 -0.0381  0.0303  0.1652
  206SOL    HW1  617   2.561   2.716   0.353  1.8519 -2.1013 -0.9902
  206SOL    HW2  618   2.528   2.837   0.233  0.2826  1.2094 -0.3955
  207SOL     OW  619   0.635   1.797   2.964  0.2565  0.2874  0.0814
  207SOL    HW1  620   0.710   1.744   2.914 -0.3900 -0.5469 -1.6369
  207SOL    HW2  621   0.582   1.741   3.037 -0.3504 -0.4244  1.6799
  208SOL     OW  622   1.127   1.570   1.407 -0.3733  0.0267 -0.6759
  208SOL    HW1  623   1.137   1.612   1.312  1.9314 -0.2217 -1.1839
  208SOL    HW2  624   1.178   1.620   1.480  1.9805 -1.3220  1.7106
  209SOL     OW  625   0.246   0.964   3.075 -0.2482 -0.2567  0.5409
  209SOL    HW1  626   0.261   0.883   3.013 -2.3577  1.2830 -0.1152
  209SOL    HW2  627   0.268   0.937   3.174 -2.2904 -1.3988  0.0244
  210SOL     OW  628   1.790   0.542   1.183  0.2377 -0.0263  0.1665
  210SOL    HW1  629   1.720   0.608   1.132 -0.2231 -1.0243 -0.2397
  210SOL    HW2  630   1.884   0.543   1.141  0.6351  0.7488 -1.4610
  211SOL     OW  631   2.153   1.026   1.561  0.7221 -0.4602  0.3578
  211SOL    HW1  632   2.206   0.968   1.633  2.0026  1.6160 -0.2472
  211SOL    HW2  633   2.219   1.095   1.519  1.2599  1.9209  2.7266
  212SOL     OW  634   0.016   0.963   1.475 -0.0748  0.2231 -0.0495
  212SOL    HW1  635   0.065   1.051   1.511 -0.9639  0.4225  2.2958
  212SOL    HW2  636  -0.002   0.887   1.546 -2.2131 -0.8212 -0.0287
  213SOL     OW  637   2.832   0.297   0.377  0.9353 -1.2617  0.2177
  213SOL    HW1  638   2.878   0.233   0.305 -0.0373 -2.2110 -3.0997
  213SOL    HW2  639   2.757   0.360   0.343 -2.9481  1.4389 -2.1888
  214SOL     OW  640   2.176   0.241   2.305 -0.1235 -0.1410 -0.2263
  214SOL    HW1  641   2.187   0.298   2.390 -0.6851 -0.8215 -0.7497
  214SOL    HW2  642   2.147   0.147   2.335  0.8958  1.4666  3.7966
  215SOL     OW  643   1.623   2.277   2.135 -0.3794 -0.0820  0.5312
  215SOL    HW1  644   1.710   2.313   2.096  0.5550  0.1708  1.0210
  215SOL    HW2  645   1.569   2.355   2.183  0.3895 -0.1487 -1.3127
  216SOL     OW  646   2.190   0.657   0.645 -0.0548  0.6545  0.1311
  216SOL    HW1  647   2.163   0.568   0.601 -1.4925 -1.0177  0.0763
  216SOL    HW2  648   2.114   0.722   0.674  0.0539 -1.0324 -0.5226
  217SOL     OW  649   0.766   2.792   2.441 -0.0739  0.1916 -0.4846
  217SOL    HW1  650   0.744   2.702   2.487  1.7164 -1.5859 -1.4212
  217SOL    HW2  651   0.761   2.792   2.339  2.3768  2.9285 -0.8291
  218SOL     OW  652   1.919   1.441   0.049  0.0410  0.1267 -0.6579
  218SOL    HW1  653   1.827   1.462   0.005 -0.6501  2.2646  0.7388
  218SOL    HW2  654   1.919   1.346   0.092  2.1194 -4.7024 -1.1826
  219SOL     OW  655   2.364   1.283   2.535  0.3079  0.5765 -0.4329
  219SOL    HW1  656   2.411   1.228   2.459 -1.8413  0.1135  1.1968
  219SOL    HW2  657   2.329   1.223   2.612 -0.9413  2.5220  0.2809
  220SOL     OW  658   1.526   1.056   1.234  0.2007  0.3256 -0.1813
  220SOL    HW1  659   1.628   1.074   1.248  1.6501 -0.3530  1.7135
  220SOL    HW2  660   1.481   1.079   1.142 -1.5560 -0.6217  0.0685
  221SOL     OW  661   1.358   0.972   2.217 -0.3047  0.0266  0.1328
  221SOL    HW1  662   1.309   0.998   2.134  1.7929 -0.3937  0.0115
  221SOL    HW2  663   1.460   0.972   2.204 -0.2663 -0.8487 -0.5470
  222SOL     OW  664   1.143   0.015   1.185 -0.4851  0.0087 -0.3232
  222SOL    HW1  665   1.216   0.014   1.258 -1.4218 -0.1201 -0.3165
  222SOL    HW2  666   1.161   0.087   1.111 -2.9504 -0.0900 -4.5930
  223SOL     OW  667   2.728   0.887   2.014  0.2486  0.1028  0.1150
  223SOL    HW1  668   2.700   0.878   2.113 -0.3292  0.8958  0.2012
  223SOL    HW2  669   2.800   0.961   1.995 -1.7469  0.0479 -0.0067
  224SOL     OW  670   1.548   1.016   2.767 -0.2997 -0.1615  0.4862
  224SOL    HW1  671   1.599   0.953   2.706 -1.3832  0.0023  2.9569
  224SOL    HW2  672   1.486   1.086   2.713 -2.8060  0.4235 -0.9469
  225SOL     OW  673   2.913   2.784   2.878  0.2840 -0.4786 -0.5825
  225SOL    HW1  674   2.887   2.701   2.821 -1.8200 -0.6763  1.7452
  225SOL    HW2  675   2.998   2.834   2.848  1.8121  0.6270  0.3041
  226SOL     OW  676   2.411   1.590   2.807  0.4037 -0.4828  0.4145
  226SOL    HW1  677   2.478   1.552   2.742  0.6687 -0.8999  1.9907
  226SOL    HW2  678   2.362   1.513   2.859  0.5492  0.8423 -0.4675
  227SOL     OW  679   0.821   0.149   3.061  0.2594 -0.1020  0.6964
  227SOL    HW1  680   0.811   0.065   3.123 -0.0374  0.4374  2.6408
  227SOL    HW2  681   0.817   0.122   2.958 -0.6039  1.7137 -0.3097
  228SOL     OW  682   2.401   0.605   2.864 -0.1260  0.8502 -0.4168
  228SOL    HW1  683   2.363   0.634   2.775 -2.0558 -1.1416  0.1024
  228SOL    HW2  684   2.492   0.553   2.856  0.1909 -1.1108 -0.3117
  229SOL     OW  685   0.631   0.416   1.877  0.2051 -0.5738 -1.0295
  229SOL    HW1  686   0.615   0.312   1.875  0.2860  1.5628 -1.0874
  229SOL    HW2  687   0.640   0.475   1.794  0.6667 -1.8739  2.1034
  230SOL     OW  688   1.908   1.145   2.119 -0.6750 -0.1308 -0.3082
  230SOL    HW1  689   1.964   1.209   2.064 -1.4806  2.7960 -0.3923
  230SOL    HW2  690   1.813   1.184   2.134 -2.2467  2.5913 -2.4299
  231SOL     OW  691   0.681   1.003   3.018  0.4976  0.4046  0.2517
  231SOL    HW1  692   0.781   1.023   2.997  1.1429 -0.2132  0.1345
  231SOL    HW2  693   0.626   1.087   3.036  0.3868  1.6161  0.1241
  232SOL     OW  694   2.381   0.005   2.821 -0.6911  0.1692  0.2360
  232SOL    HW1  695   2.449  -0.074   2.838 -0.7006 -0.9369  1.7670
  232SOL    HW2  696   2.399   0.051   2.731  0.0273 -0.2693 -0.4197
  233SOL     OW  697   1.728   1.291   1.147 -0.4274  0.1720 -0.4503
  233SOL    HW1  698   1.742   1.274   1.044 -0.4382  1.3500 -0.7434
  233SOL    HW2  699   1.774   1.215   1.209  2.0181 -1.2681 -0.0292
  234SOL     OW  700   1.607   2.601   1.857 -0.2146 -0.2331 -0.5208
  234SOL    HW1  701   1.608   2.675   1.932  3.2787  0.1509  1.6189
  234SOL    HW2  702   1.555   2.520   1.895 -1.2017  1.3118 -2.4784
  235SOL     OW  703   0.022   2.983   2.869 -0.4469 -0.0395  0.0099
  235SOL    HW1  704   0.065   3.033   2.789 -1.4733 -0.8326 -1.2157
  235SOL    HW2  705  -0.038   3.035   2.940 -1.6981 -1.2154  2.3377
  236SOL     OW  706   2.901   0.735   0.079  0.8561 -0.3074 -0.5475
  236SOL    HW1  707   2.966   0.786   0.141  1.1367  0.3444 -0.0383
  236SOL    HW2  708   2.955   0.656   0.037  1.2821 -0.3814 -1.1625
  237SOL     OW  709   1.509   1.716   1.026  0.7318  0.1493  0.3046
  237SOL    HW1  710   1.601   1.695   0.983 -2.2397 -1.6930  1.7241
  237SOL    HW2  711   1.513   1.733   1.127 -0.9613  0.8982  0.5424
  238SOL     OW  712   1.760   1.288   0.878 -0.2140  0.0940 -0.0815
  238SOL    HW1  713   1.839   1.363   0.873  1.7690  0.7220  1.2265
  238SOL    HW2  714   1.668   1.318   0.837  1.1740  0.2114 -0.8269
  239SOL     OW  715   2.049   0.255   2.732  0.2284  0.5650 -0.4382
  239SOL    HW1  716   2.106   0.224   2.817  1.0983 -0.2245 -2.5961
  239SOL    HW2  717   1.994   0.345   2.748  0.9939 -0.0569 -1.7568
  240SOL     OW  718   0.926   0.632   0.344 -0.8526 -0.7046 -0.3431
  240SOL    HW1  719   0.948   0.541   0.307 -0.9997  1.6827  0.7259
  240SOL    HW2  720   0.905   0.618   0.444  0.6510  2.9188  0.8323
  241SOL     OW  721   0.610   0.106   0.363 -0.2607 -0.0931 -0.1512
  241SOL    HW1  722   0.657   0.180   0.301  1.1020  3.7318  0.8269
  241SOL    HW2  723   0.592   0.022   0.312 -0.9259  0.1728  1.3491
  242SOL     OW  724   0.665   2.525   1.116 -0.2326 -0.0753 -0.2057
  242SOL    HW1  725   0.619   2.551   1.206 -0.0567  0.8698  0.8086
  242SOL    HW2  726   0.742   2.586   1.086  0.7380  1.4069 -1.0996
  243SOL     OW  727   1.081   0.581   2.491  0.0649  0.0720 -0.1166
  243SOL    HW1  728   0.999   0.628   2.442  1.5529  0.9975  1.8770
  243SOL    HW2  729   1.042   0.520   2.563  1.7566  1.0135  3.1374
  244SOL     OW  730   2.788   1.903   2.327 -0.1860 -0.3363 -0.8157
  244SOL    HW1  731   2.836   1.861   2.252  0.9101 -2.4959  2.9207
  244SOL    HW2  732   2.708   1.845   2.357  1.1346  2.2895  0.1724
  245SOL     OW  733   2.390   0.663   2.217 -0.4834  0.4849  0.2851
  245SOL    HW1  734   2.459   0.725   2.260 -2.5067  0.4405  2.1504
  245SOL    HW2  735   2.425   0.567   2.191 -1.8185 -2.0217 -3.1762
  246SOL     OW  736   0.215   2.907   1.690 -0.2679 -0.1128  0.3494
  246SOL    HW1  737   0.146   2.882   1.618  0.4478 -0.9250  1.8130
  246SOL    HW2  738   0.283   2.979   1.664 -3.1126  1.5212 -1.4286
  247SOL     OW  739   2.144   0.571   3.043  0.0218  0.3984 -0.1141
  247SOL    HW1  740   2.216   0.591   2.977 -0.1809 -1.1706 -1.4810
  247SOL    HW2  741   2.104   0.656   3.083  1.2153  3.5276  3.3249
  248SOL     OW  742   2.145   1.839   1.578  0.3036  0.2345  0.3287
  248SOL    HW1  743   2.216   1.792   1.636  2.3453 -0.3965  0.6315
  248SOL    HW2  744   2.054   1.815   1.617  2.2688  0.0578  1.9007
  249SOL     OW  745   1.866   1.896   1.919 -0.4381  0.3520 -0.0290
  249SOL    HW1  746   1.856   1.833   1.836 -1.3076  2.1117 -0.1404
  249SOL    HW2  747   1.938   1.966   1.908 -2.7627  1.3647  1.0258
  250SOL     OW  748   1.128   0.709   1.932  0.2491 -0.1043  0.9127
  250SOL    HW1  749   1.170   0.615   1.952 -1.3696  0.1417 -0.5566
  250SOL    HW2  750   1.053   0.702   1.862  0.9510 -0.6104  1.0875
  251SOL     OW  751   0.010   1.566   2.520  0.3564 -0.1074 -0.2462
  251SOL    HW1  752  -0.005   1.661   2.486 -0.2219  0.6089 -0.8667
  251SOL    HW2  753  -0.073   1.511   2.547 -0.5679  0.1319 -1.9712
  252SOL     OW  754   1.530   0.864   1.550 -0.4833 -0.4747 -0.4715
  252SOL    HW1  755   1.613   0.861   1.493 -0.6529 -0.9219  2.0415
  252SOL    HW2  756   1.534   0.946   1.609 -1.6616  0.0324  2.2051
  253SOL     OW  757   0.872   1.534   0.488  0.4378 -0.1032  0.6348
  253SOL    HW1  758   0.919   1.461   0.434  2.8265 -3.4209  0.7747
  253SOL    HW2  759   0.769   1.534   0.479  3.5536  1.6053 -2.0359
  254SOL     OW  760   2.026   2.145   1.608 -0.3428  0.2134  0.2195
  254SOL    HW1  761   2.014   2.046   1.583  1.3889  0.1343  0.5476
  254SOL    HW2  762   1.966   2.179   1.682 -1.0580  2.2472 -0.2482
  255SOL     OW  763   0.124   1.160   2.890 -0.1290 -0.3629 -0.7493
  255SOL    HW1  764   0.184   1.244   2.864  1.0220  1.7047  0.5233
  255SOL    HW2  765   0.168   1.100   2.961  2.7755  0.4578  1.5181
  256SOL     OW  766   2.799   1.367   1.744  0.2213 -0.0719  0.3580
  256SOL    HW1  767   2.717   1.428   1.753  0.1934 -0.1125 -1.1817
  256SOL    HW2  768   2.779   1.269   1.715 -0.8726 -0.7189  0.1203
  257SOL     OW  769   0.818   0.212   1.796 -0.7924 -0.0713  0.1553
  257SOL    HW1  770   0.862   0.291   1.735  0.7896  2.5364 -0.1022
  257SOL    HW2  771   0.893   0.137   1.808 -0.3529 -0.0535  3.0146
  258SOL     OW  772   2.924   1.287   0.468  0.3187 -0.6339 -0.2757
  258SOL    HW1  773   2.848   1.358   0.478 -1.2836 -0.0266  1.8513
  258SOL    HW2  774   2.990   1.310   0.549  0.3920  0.1038 -2.9457
  259SOL     OW  775   0.472   2.965   3.035  0.2120  0.2313  0.0664
  259SOL    HW1  776   0.393   2.914   3.078 -1.6568 -0.3776  0.7094
  259SOL    HW2  777   0.497   2.924   2.939  0.6674 -1.1877  1.9816
  260SOL     OW  778   2.762   0.844   2.761 -0.3794  0.2379  0.3084
  260SOL    HW1  779   2.676   0.788   2.776 -0.4982  0.1304 -1.2630
  260SOL    HW2  780   2.795   0.861   2.853 -0.2090 -2.1414 -0.3229
  261SOL     OW  781   2.745   1.305   1.296  0.3705 -0.0006  0.0026
  261SOL    HW1  782   2.657   1.293   1.240 -0.9641  2.7517 -1.0198
  261SOL    HW2  783   2.806   1.217   1.300  0.5025  0.6027  0.8943
  262SOL     OW  784   1.430   2.983   2.036 -0.4514 -0.0503 -0.7738
  262SOL    HW1  785   1.466   3.067   1.986  0.1318  0.7496  0.2084
  262SOL    HW2  786   1.335   2.964   2.008  0.1631  0.1528  1.9702
  263SOL     OW  787   0.874   0.699   2.346 -0.2921  0.2462 -0.7488
  263SOL    HW1  788   0.838   0.619   2.294  0.4271 -0.6135  3.2092
  263SOL    HW2  789   0.895   0.777   2.285 -1.1924  1.4765  2.0711
  264SOL     OW  790   2.193   0.839   0.319  0.1627  0.3153  0.7099
  264SOL    HW1  791   2.150   0.756   0.368  4.1158  0.1894 -0.1250
  264SOL    HW2  792   2.295   0.844   0.331 -4.3035  0.8302 -2.0246
  265SOL     OW  793   0.900   2.349   2.678  0.0730  0.8474  0.0483
  265SOL    HW1  794   0.977   2.393   2.731  0.0450  0.2518 -2.8695
  265SOL    HW2  795   0.882   2.256   2.708  1.5219  0.6900 -0.9960
  266SOL     OW  796   1.334   1.701   0.008  0.2627 -0.5022 -0.4123
  266SOL    HW1  797   1.329   1.782   0.070  0.0237 -2.1388 -1.3588
  266SOL    HW2  798   1.429   1.701  -0.033 -0.7071  1.2705  0.8952
  267SOL     OW  799   0.959   3.030   2.360 -0.1271  0.2624  0.0491
  267SOL    HW1  800   0.971   2.986   2.266  0.7820 -1.4801  1.3718
  267SOL    HW2  801   0.931   3.132   2.349 -2.2539  1.1340 -2.0616
  268SOL     OW  802   0.680   1.164   1.081 -0.3623  1.2470 -0.2831
  268SOL    HW1  803   0.684   1.221   1.168  0.4625 -0.4105 -2.9128
  268SOL    HW2  804   0.669   1.230   1.000  0.2818  1.0460 -3.3222
  269SOL     OW  805   2.383   2.520   1.549 -0.1438  0.2044  0.2957
  269SOL    HW1  806   2.459   2.450   1.566  0.0247  1.4975  0.6350
  269SOL    HW2  807   2.337   2.561   1.632  0.4131 -0.1627 -1.1246
  270SOL     OW  808   0.164   2.995   1.938  0.4677 -0.4719  0.4865
  270SOL    HW1  809   0.178   2.972   1.838  0.5726  0.1271  1.6967
  270SOL    HW2  810   0.160   2.909   1.995 -1.6925 -0.8302 -1.3457
  271SOL     OW  811   0.404   1.367   1.171  0.2446  0.1107 -0.0606
  271SOL    HW1  812   0.373   1.370   1.073  0.4544 -1.5825  1.8844
  271SOL    HW2  813   0.328   1.351   1.241  3.7173 -2.4025 -1.1677
  272SOL     OW  814   1.960   2.858   1.931  0.5823 -0.1202 -0.1429
  272SOL    HW1  815   1.903   2.798   1.866  2.5322  3.8454  2.6614
  272SOL    HW2  816   2.013   2.930   1.876  1.0664 -0.2174 -2.4883
  273SOL     OW  817   1.458   1.444   2.770  0.0583 -0.1232 -0.0725
  273SOL    HW1  818   1.362   1.484   2.788 -0.4196 -0.6273 -0.5031
  273SOL    HW2  819   1.504   1.405   2.859  0.6446 -3.0146 -0.7007
  274SOL     OW  820   1.254   0.475   2.012 -0.6215 -0.2400  0.1227
  274SOL    HW1  821   1.198   0.390   2.011  0.3000  0.4423  1.2411
  274SOL    HW2  822   1.284   0.513   2.105 -0.8644 -2.0844 -1.9717
  275SOL     OW  823   0.603   2.101   1.867 -0.4214 -0.2507  0.3580
  275SOL    HW1  824   0.566   2.194   1.901 -1.3187 -0.4186  1.3778
  275SOL    HW2  825   0.538   2.022   1.871  2.5488  2.2595  2.6725
  276SOL     OW  826   2.166   0.891   2.793  0.1371 -0.4876 -0.8851
  276SOL    HW1  827   2.104   0.871   2.714  4.1149  1.1144 -0.4369
  276SOL    HW2  828   2.129   0.867   2.887 -0.8397 -2.6762 -0.3508
  277SOL     OW  829   3.086   0.873   0.233 -0.3295  0.2431 -0.5241
  277SOL    HW1  830   3.183   0.885   0.196  0.1986  2.3878  0.6282
  277SOL    HW2  831   3.077   0.806   0.313 -1.5764  4.2232  1.8264
  278SOL     OW  832   0.233   0.286   0.016  0.0517  0.2458 -0.1956
  278SOL    HW1  833   0.305   0.222  -0.023  0.1039  1.4338  2.0511
  278SOL    HW2  834   0.269   0.380   0.021 -4.0674 -1.0987 -0.1930
  279SOL     OW  835   0.161   0.085   0.888  0.4143 -0.6297 -0.5656
  279SOL    HW1  836   0.166   0.069   0.991  0.3206 -1.8160 -1.5205
  279SOL    HW2  837   0.232   0.035   0.834  1.1313  0.9050  0.6142
  280SOL     OW  838   1.567   2.950   2.483  0.3442  0.5491 -0.7304
  280SOL    HW1  839   1.656   2.996   2.507 -0.1269 -0.9611  0.9139
  280SOL    HW2  840   1.490   3.019   2.471 -1.1496 -0.0177 -1.6941
  281SOL     OW  841   0.562   0.932   2.223 -0.1123  0.0084 -0.5230
  281SOL    HW1  842   0.583   0.831   2.196 -1.5648  0.3989 -1.4524
  281SOL    HW2  843   0.522   0.934   2.321 -2.0003 -0.2990 -0.9068
  282SOL     OW  844   1.779   2.506   0.525  0.1021 -0.3758  0.4798
  282SOL    HW1  845   1.725   2.434   0.475  0.5991 -0.4922  0.0598
  282SOL    HW2  846   1.723   2.593   0.517  2.5208 -0.1720 -1.4944
  283SOL     OW  847   1.127   0.918   0.852  0.1281  0.3079  0.4400
  283SOL    HW1  848   1.165   0.864   0.931 -0.1779 -2.0652  1.9304
  283SOL    HW2  849   1.070   1.002   0.868 -1.7331  1.0775 -1.5097
  284SOL     OW  850   2.369   2.697   2.454  0.3349  0.7309  0.6370
  284SOL    HW1  851   2.400   2.767   2.388  0.1285 -3.5513 -0.0201
  284SOL    HW2  852   2.437   2.677   2.526  1.0255  1.3079  2.9991
  285SOL     OW  853   1.306   3.027   2.567  0.0346  0.1138  0.1149
  285SOL    HW1  854   1.308   3.052   2.467 -0.3867  0.2308  2.9541
  285SOL    HW2  855   1.221   3.053   2.611 -1.0743 -0.3484 -1.2008
  286SOL     OW  856   0.453   0.462   0.779  0.0749  0.6672  0.1675
  286SOL    HW1  857   0.417   0.407   0.861  1.0744 -1.3472 -1.2464
  286SOL    HW2  858   0.436   0.414   0.686  0.5474 -0.5646  0.8600
  287SOL     OW  859   0.126   1.281   2.539 -0.3708  0.1067 -0.1186
  287SOL    HW1  860   0.055   1.233   2.601  0.0473 -3.3019 -3.7223
  287SOL    HW2  861   0.121   1.380   2.531  3.3598  2.0086 -0.1702
  288SOL     OW  862   1.583   2.685   1.583  0.3549 -0.4176  0.0029
  288SOL    HW1  863   1.609   2.645   1.679 -0.4361 -2.8035  3.4393
  288SOL    HW2  864   1.596   2.616   1.515 -1.7058 -1.7283  2.9183
  289SOL     OW  865   0.629   2.724   0.847  0.3787 -0.4220  0.4454
  289SOL    HW1  866   0.683   2.791   0.789  0.4964 -0.1269  0.4193
  289SOL    HW2  867   0.583   2.770   0.931  0.5930 -1.9694 -0.6533
  290SOL     OW  868   2.788   1.101   1.699 -0.3836  0.1682 -0.3154
  290SOL    HW1  869   2.696   1.059   1.696 -0.1053 -2.5392 -0.7086
  290SOL    HW2  870   2.849   1.047   1.761  0.5196  1.5256  0.3454
  291SOL     OW  871   1.991   0.085   0.069  0.0571 -0.3914 -0.2425
  291SOL    HW1  872   1.995   0.053   0.167  2.8236 -0.7805 -1.3915
  291SOL    HW2  873   2.045   0.170   0.038  0.7199  0.6692  0.6243
  292SOL     OW  874   3.010   1.195   3.060  0.1004 -0.1095 -0.7628
  292SOL    HW1  875   2.931   1.259   3.037  0.9800 -1.7541 -0.7511
  292SOL    HW2  876   3.089   1.206   2.990 -0.2445  0.7278  0.2167
  293SOL     OW  877   0.572   2.142   0.152 -0.3351 -0.1420  0.6224
  293SOL    HW1  878   0.526   2.184   0.229  1.6325 -0.3502 -0.7150
  293SOL    HW2  879   0.661   2.090   0.176  1.4881 -2.2757  1.3686
  294SOL     OW  880   1.794   2.211   1.768  0.8006  0.3235 -0.3865
  294SOL    HW1  881   1.804   2.278   1.848 -2.3139  0.4488 -1.6914
  294SOL    HW2  882   1.735   2.239   1.690  1.1799 -0.1488  2.8872
  295SOL     OW  883   0.987   1.036   0.516 -0.4933  0.4050  0.2141
  295SOL    HW1  884   1.070   0.983   0.545  2.4974 -0.8264  1.0041
  295SOL    HW2  885   0.924   1.057   0.591  1.6915 -0.7373 -0.4143
  296SOL     OW  886   1.254   2.119   2.532  0.4197  0.4002  0.0567
  296SOL    HW1  887   1.229   2.162   2.440 -1.8307 -2.9149  1.0223
  296SOL    HW2  888   1.229   2.020   2.540 -2.3627 -0.5657  1.7509
  297SOL     OW  889   1.442   0.623   1.361  0.0544  0.1724 -0.0153
  297SOL    HW1  890   1.410   0.527   1.334  0.4684 -0.1654  1.1939
  297SOL    HW2  891   1.538   0.632   1.394 -1.8122  0.0461 -3.1124
  298SOL     OW  892   0.537   1.374   2.977  0.4782  0.1391 -0.6105
  298SOL    HW1  893   0.493   1.300   3.030  2.8456 -2.5132 -1.4413
  298SOL    HW2  894   0.587   1.343   2.888  0.4230  0.6735  0.1919
  299SOL     OW  895   0.517   0.278   1.300 -0.5266  0.5649 -0.2598
  299SOL    HW1  896   0.492   0.374   1.292  1.8717  1.3084 -1.5746
  299SOL    HW2  897   0.562   0.257   1.391 -0.5312 -0.6672 -1.8278
  300SOL     OW  898   1.222   1.843   2.799 -0.3657 -0.4129 -0.1529
  300SOL    HW1  899   1.193   1.746   2.820 -1.5992 -1.4921 -2.6023
  300SOL    HW2  900   1.318   1.851   2.769 -1.5203  1.1937 -3.6676
  301SOL     OW  901   0.455   0.339   0.502 -0.1569  0.7059 -0.1064
  301SOL    HW1  902   0.362   0.288   0.481 -1.2311 -0.6759 -1.0377
  301SOL    HW2  903   0.531   0.283   0.456 -0.0508 -0.5561  0.6587
  302SOL     OW  904   1.232   2.454   2.349 -0.3875  1.2944  0.3268
  302SOL    HW1  905   1.134   2.467   2.367  1.3768  0.8350 -0.1882
  302SOL    HW2  906   1.255   2.350   2.339 -0.5946 -0.4690  1.2237
  303SOL     OW  907   0.966   2.372   0.834 -0.2977  0.6531  0.5583
  303SOL    HW1  908   1.021   2.406   0.753 -0.7040 -0.5177 -1.9674
  303SOL    HW2  909   0.968   2.433   0.916 -1.8308  0.5730  2.0345
  304SOL     OW  910   0.109   2.022   0.634 -0.5568 -0.1619  0.1262
  304SOL    HW1  911   0.175   1.987   0.561 -0.8170 -2.9983  0.7971
  304SOL    HW2  912   0.046   2.101   0.608 -1.1108 -2.9547 -0.0262
  305SOL     OW  913   1.646   0.926   0.568  0.0368 -0.3320  0.0556
  305SOL    HW1  914   1.589   0.911   0.484 -0.1044  0.9960 -0.8416
  305SOL    HW2  915   1.678   0.835   0.612  2.7801 -0.3624  0.6984
  306SOL     OW  916   0.439   1.867   1.915 -0.2833  0.2492  0.1770
  306SOL    HW1  917   0.513   1.797   1.894  1.8191 -3.4077  1.3779
  306SOL    HW2  918   0.434   1.882   2.018 -0.1191  1.3454  0.8883
  307SOL     OW  919   3.059   0.911   2.513  0.5387  0.0099  0.0831
  307SOL    HW1  920   3.070   0.985   2.585 -1.9811 -1.1655 -1.2012
  307SOL    HW2  921   2.978   0.847   2.536  2.0618  0.2952 -1.5411
  308SOL     OW  922   1.561   2.656   2.813  0.1352  0.0101 -0.7902
  308SOL    HW1  923   1.516   2.628   2.725  2.1727  1.2307  1.9534
  308SOL    HW2  924   1.503   2.635   2.895  0.8160 -1.7275 -0.7491
  309SOL     OW  925   1.233   0.122   1.764  0.3107  0.6980  0.6707
  309SOL    HW1  926   1.332   0.097   1.789 -0.9755  0.4270 -0.3545
  309SOL    HW2  927   1.209   0.126   1.663 -1.1708  1.6232  1.4480
  310SOL     OW  928   1.512   2.541   0.670  0.0599 -0.0764  0.4951
  310SOL    HW1  929   1.495   2.559   0.769 -0.3118  1.4925 -0.5661
  310SOL    HW2  930   1.558   2.619   0.626  0.0925  0.1215  0.2347
  311SOL     OW  931   1.169   1.008   1.628  0.1979  0.4330  0.0899
  311SOL    HW1  932   1.195   0.908   1.622  1.9874 -0.1381  1.8757
  311SOL    HW2  933   1.229   1.065   1.566  0.6178  1.3150 -1.3804
  312SOL     OW  934   1.605   0.683   1.060  0.3186  0.3794  0.3320
  312SOL    HW1  935   1.608   0.770   1.010  0.2680 -1.9465  3.0029
  312SOL    HW2  936   1.511   0.642   1.061  0.7815  1.2098 -0.6398
  313SOL     OW  937   1.544   1.375   0.716 -0.6808 -0.3143  0.4479
  313SOL    HW1  938   1.467   1.406   0.778  1.1920  2.1706  0.6582
  313SOL    HW2  939   1.514   1.288   0.670 -0.8805 -0.6711  1.2099
  314SOL     OW  940   2.932   0.036   3.020  0.0279  0.0580 -0.7676
  314SOL    HW1  941   2.922   0.061   3.122 -0.4759 -0.6178 -2.2537
  314SOL    HW2  942   2.848  -0.016   2.989  0.5550 -0.8499 -0.4040
  315SOL     OW  943   1.244   0.214   2.797 -0.5088 -0.3260 -0.5755
  315SOL    HW1  944   1.191   0.147   2.743  1.3124  0.3010  2.3278
  315SOL    HW2  945   1.282   0.181   2.886  2.1806  0.2515  0.8286
  316SOL     OW  946   1.716   2.042   0.849 -0.1614 -0.1793 -0.4595
  316SOL    HW1  947   1.667   2.026   0.942  0.0974 -2.2850  0.1996
  316SOL    HW2  948   1.709   2.138   0.809 -0.5771  0.8957 -0.1494
  317SOL     OW  949   1.112   0.651   2.880  0.2850  0.0756  0.1599
  317SOL    HW1  950   1.077   0.690   2.969  0.9325 -1.3369  0.2795
  317SOL    HW2  951   1.065   0.560   2.842 -2.6227 -0.2629 -0.7036
  318SOL     OW  952   1.354   3.084   2.306  0.0324  0.2635  0.6984
  318SOL    HW1  953   1.342   3.175   2.255 -0.8337  2.1892  1.5991
  318SOL    HW2  954   1.411   3.027   2.246 -0.8174 -0.1970 -0.5204
  319SOL     OW  955   0.731   2.428   2.924 -0.1331  0.0339 -0.4532
  319SOL    HW1  956   0.652   2.371   2.962 -2.2531  0.8273  0.7028
  319SOL    HW2  957   0.827   2.397   2.950 -1.2024  0.1074 -0.0826
  320SOL     OW  958   1.715   2.268   0.400  0.2487  0.2550  0.2759
  320SOL    HW1  959   1.792   2.214   0.368 -2.6323 -1.0260 -0.2455
  320SOL    HW2  960   1.637   2.206   0.439 -0.5810 -0.2172  1.9789
  321SOL     OW  961   1.652   2.738   0.499 -0.3760  0.2072  0.0701
  321SOL    HW1  962   1.583   2.769   0.426 -3.0917  0.0009  4.1989
  321SOL    HW2  963   1.747   2.770   0.488 -1.0992 -0.9437  1.4020
  322SOL     OW  964   2.590   1.160   2.396 -0.0447  0.0833 -0.5796
  322SOL    HW1  965   2.678   1.209   2.416  0.6487  0.0873  0.9647
  322SOL    HW2  966   2.556   1.096   2.468 -2.1423 -0.9365 -0.5524
  323SOL     OW  967   1.166   2.637   0.864  0.4734 -0.0698  0.2570
  323SOL    HW1  968   1.142   2.585   0.778 -0.2798 -1.2428  2.1366
  323SOL    HW2  969   1.149   2.740   0.855  2.1073  0.6513 -0.3092
  324SOL     OW  970   0.256   2.500   2.529  0.3024 -0.3976 -0.3158
  324SOL    HW1  971   0.286   2.478   2.628 -1.4724  2.5024 -1.2585
  324SOL    HW2  972   0.154   2.525   2.525  1.3940 -0.3069 -0.3824
  325SOL     OW  973   1.255   3.030   0.507  0.3726  0.6671 -0.1679
  325SOL    HW1  974   1.269   3.091   0.424 -1.2524 -2.2090  0.5794
  325SOL    HW2  975   1.277   3.084   0.595  0.6670  2.0491 -1.6200
  326SOL     OW  976   2.443   0.772   3.078  0.6126  0.1111 -0.3648
  326SOL    HW1  977   2.427   0.725   2.987 -0.9449 -0.5120  0.5053
  326SOL    HW2  978   2.523   0.729   3.133  2.2973 -0.0717 -1.6053
  327SOL     OW  979   2.843   0.361   0.637  0.4127 -0.1745  0.1366
  327SOL    HW1  980   2.837   0.331   0.539  0.3613 -0.6151 -0.0906
  327SOL    HW2  981   2.895   0.300   0.704  0.8322 -1.3720 -0.1036
  328SOL     OW  982   2.563   0.566   0.392  0.3590 -0.3135 -0.1042
  328SOL    HW1  983   2.507   0.658   0.390 -0.1270  0.9992  0.8376
  328SOL    HW2  984   2.568   0.518   0.491  0.3188 -2.2128  1.5299
  329SOL     OW  985   2.970   2.956   2.132 -0.0155 -1.0555 -0.3832
  329SOL    HW1  986   3.020   2.867   2.164  1.2732 -2.0613 -0.2644
  329SOL    HW2  987   2.979   3.036   2.198  1.6632  0.7979 -0.2381
  330SOL     OW  988   0.578   0.150   1.893  0.2516 -0.0664 -0.0008
  330SOL    HW1  989   0.676   0.156   1.852  3.2702 -2.0545 -0.3197
  330SOL    HW2  990   0.577   0.086   1.973 -0.4003 -1.3693  0.3275
  331SOL     OW  991   2.967   1.896   1.139  0.2202  0.1941  0.3071
  331SOL    HW1  992   3.023   1.970   1.088  2.1877 -2.0052 -0.9680
  331SOL    HW2  993   2.904   1.934   1.210  0.2752 -1.0752 -2.3291
  332SOL     OW  994   0.430   1.156   3.096 -0.4486  0.0846 -0.0818
  332SOL    HW1  995   0.348   1.096   3.067  0.3543  0.4419 -1.3883
  332SOL    HW2  996   0.414   1.198   3.186  1.2623 -0.0977 -1.0983
  333SOL     OW  997   2.895   1.057   0.336 -0.0860  0.1394  0.3388
  333SOL    HW1  998   2.910   1.136   0.399  0.1044  0.7622 -0.3913
  333SOL    HW2  999   2.978   0.999   0.315 -1.4269  2.1985  0.6276
  334SOL     OW 1000   1.676   1.249   1.839  0.1171  0.4671  0.0821
  334SOL    HW1 1001   1.767   1.211   1.801  0.9470 -1.0617 -1.3146
  334SOL    HW2 1002   1.689   1.283   1.937 -0.8718  1.5193  0.4364
  335SOL     OW 1003   2.001   2.741   2.601  0.2600 -0.8073 -0.2119
  335SOL    HW1 1004   1.919   2.716   2.653  1.3670  1.0623  1.2048
  335SOL    HW2 1005   2.062   2.800   2.657 -0.9458 -0.6557 -1.1951
  336SOL     OW 1006   0.276   0.167   2.774 -0.0451  0.4207  0.0911
  336SOL    HW1 1007   0.342   0.154   2.851  0.0892  2.2341  1.8008
  336SOL    HW2 1008   0.195   0.225   2.794  0.4354  0.1214 -2.0479
  337SOL     OW 1009   0.960   2.781   2.816 -0.5508  0.7366 -0.0850
  337SOL    HW1 1010   0.952   2.720   2.901 -1.6644  1.0071 -0.4621
  337SOL    HW2 1011   1.056   2.775   2.778 -1.8098  1.3472 -0.7437
  338SOL     OW 1012   0.018   1.023   0.618 -0.3740 -0.0911 -0.0939
  338SOL    HW1 1013  -0.078   0.984   0.640 -0.9729 -1.6221 -0.8838
  338SOL    HW2 1014   0.023   1.130   0.623  2.5832  0.1942 -0.1161
  339SOL     OW 1015   1.702   1.343   2.103 -0.5570 -0.0185  0.5124
  339SOL    HW1 1016   1.603   1.372   2.096 -1.7418  1.0253  0.6485
  339SOL    HW2 1017   1.766   1.410   2.149 -1.4531  0.2263  0.0170
  340SOL     OW 1018   2.367   0.801   1.143  0.1275  0.2828 -0.7297
  340SOL    HW1 1019   2.264   0.825   1.155 -0.8608  1.0989 -1.2961
  340SOL    HW2 1020   2.388   0.728   1.077  2.8606 -0.3079  0.7606
  341SOL     OW 1021   1.940   2.092   0.335 -1.3274  0.0949 -0.0013
  341SOL    HW1 1022   1.943   2.139   0.243  0.7939  2.0219  2.0471
  341SOL    HW2 1023   2.033   2.055   0.370 -0.4478 -0.7806  1.6975
  342SOL     OW 1024   2.263   2.099   2.711 -0.4666  0.1347 -0.0554
  342SOL    HW1 1025   2.310   2.012   2.743 -2.2243 -0.0784  0.5376
  342SOL    HW2 1026   2.161   2.088   2.707  1.5475 -1.6056  0.8476
  343SOL     OW 1027   0.370   0.864   2.754  0.0552  0.6856 -0.1555
  343SOL    HW1 1028   0.368   0.937   2.689  0.0627 -4.1931 -1.1661
  343SOL    HW2 1029   0.468   0.834   2.771 -1.9535 -1.3817 -3.3156
  344SOL     OW 1030   1.922   1.440   0.375 -0.4757  0.5809  0.1027
  344SOL    HW1 1031   1.933   1.352   0.321 -1.6727  1.5003  1.0123
  344SOL    HW2 1032   1.828   1.455   0.419 -0.0545  1.3861  0.7324
  345SOL     OW 1033   1.434   2.238   2.909 -0.0495 -0.2790  0.4037
  345SOL    HW1 1034   1.346   2.180   2.886  0.2285 -1.5518 -1.2433
  345SOL    HW2 1035   1.495   2.250   2.824  0.1303  0.4379  0.8897
  346SOL     OW 1036   2.367   0.883   1.407 -0.3746 -0.2907  0.2818
  346SOL    HW1 1037   2.354   0.984   1.419  0.2735  0.0929 -1.8274
  346SOL    HW2 1038   2.341   0.848   1.312 -0.9860  0.9163  0.6643
  347SOL     OW 1039   0.760   2.833   1.515  0.3112  0.1018  0.5770
  347SOL    HW1 1040   0.706   2.790   1.591  0.0431  1.1884 -2.3827
  347SOL    HW2 1041   0.710   2.918   1.481 -1.9251 -1.4817  0.1264
  348SOL     OW 1042   0.204   0.675   2.845 -0.4104 -0.3320  0.6250
  348SOL    HW1 1043   0.107   0.713   2.836  3.8696 -2.1388  0.6560
  348SOL    HW2 1044   0.281   0.740   2.811 -1.3002  0.6630 -2.0331
  349SOL     OW 1045   1.877   0.452   2.796  0.2082  0.6019  0.3012
  349SOL    HW1 1046   1.880   0.544   2.753 -0.1827 -0.9388 -0.1432
  349SOL    HW2 1047   1.867   0.461   2.901 -0.9862 -0.9429 -1.4941
  350SOL     OW 1048   1.653   0.407   0.341  0.1566 -0.5405  0.4298
  350SOL    HW1 1049   1.690   0.405   0.440  0.4456  2.0923  1.2574
  350SOL    HW2 1050   1.610   0.502   0.315  1.7074  2.4961  0.4923
  351SOL     OW 1051   1.001   0.877   2.147  0.0452 -0.3323 -0.7627
  351SOL    HW1 1052   0.995   0.982   2.134  0.7700  2.2701  2.2116
  351SOL    HW2 1053   1.068   0.830   2.087 -0.2652 -2.0107 -0.5565
  352SOL     OW 1054   2.048   1.327   0.635  0.3827 -0.4631  0.3680
  352SOL    HW1 1055   2.025   1.402   0.561  2.8927  1.7029 -2.6828
  352SOL    HW2 1056   2.069   1.366   0.725 -4.2928 -1.1326  2.9156
  353SOL     OW 1057   2.190   2.835   1.035 -0.4364 -0.2010 -0.1941
  353SOL    HW1 1058   2.220   2.787   1.124 -1.3123 -1.1922 -1.2054
  353SOL    HW2 1059   2.102   2.784   1.005 -1.4758  0.0375  1.1013
  354SOL     OW 1060   0.289   1.412   2.833  0.5991 -0.2492  0.6901
  354SOL    HW1 1061   0.265   1.496   2.771 -0.3316  1.4284 -0.6288
  354SOL    HW2 1062   0.386   1.402   2.866  0.6401 -0.1234  0.2740
  355SOL     OW 1063   0.555   1.514   0.567  1.0420 -0.1462  0.5814
  355SOL    HW1 1064   0.557   1.552   0.664 -0.9488 -2.1050  1.6690
  355SOL    HW2 1065   0.614   1.428   0.557  0.2487 -1.6178  2.0563
  356SOL     OW 1066   0.873   0.257   2.100  0.4985  0.1878  0.4644
  356SOL    HW1 1067   0.976   0.252   2.092  1.0441  1.8442 -0.6333
  356SOL    HW2 1068   0.826   0.269   2.014  1.7896  3.0133  1.8776
  357SOL     OW 1069   0.995   1.271   0.345  0.1510  0.1863 -0.6129
  357SOL    HW1 1070   0.981   1.234   0.250  1.9545 -1.9785  0.5211
  357SOL    HW2 1071   0.996   1.200   0.416 -1.8427  1.3935 -1.3671
  358SOL     OW 1072   1.655   1.469   0.470 -0.4452  0.3307  0.0203
  358SOL    HW1 1073   1.600   1.468   0.557  0.8450  1.9218  0.0578
  358SOL    HW2 1074   1.601   1.452   0.386  1.3128  0.3078  1.5388
  359SOL     OW 1075   1.588   2.659   0.151  0.2255 -0.5074  0.5837
  359SOL    HW1 1076   1.585   2.554   0.141  3.3512  2.7571 -0.1143
  359SOL    HW2 1077   1.492   2.695   0.144 -2.1706 -2.5520 -0.5773
  360SOL     OW 1078   0.860   0.559   0.601 -0.0507 -0.0044 -0.0192
  360SOL    HW1 1079   0.759   0.568   0.582  1.1440  1.1524  1.1382
  360SOL    HW2 1080   0.888   0.465   0.636 -0.8967  0.5732 -0.9321
  361SOL     OW 1081   1.204   1.314   0.760  0.0822 -0.0729 -0.2678
  361SOL    HW1 1082   1.255   1.379   0.824  0.6576 -2.3046  0.8520
  361SOL    HW2 1083   1.111   1.343   0.739  2.9321  0.3498  1.2379
  362SOL     OW 1084   1.352   1.858   0.784  0.3000 -0.1675 -0.4311
  362SOL    HW1 1085   1.400   1.811   0.863 -1.4985 -1.3545  0.3725
  362SOL    HW2 1086   1.422   1.876   0.706  4.0419  0.1863  1.2502
  363SOL     OW 1087   1.231   1.296   2.019 -0.1228 -1.4134  0.6047
  363SOL    HW1 1088   1.311   1.343   2.071 -0.5923  2.6505  1.6248
  363SOL    HW2 1089   1.212   1.350   1.930 -0.9040 -0.4621  0.4319
  364SOL     OW 1090   0.475   2.321   1.983  0.1108  0.0264  0.6341
  364SOL    HW1 1091   0.382   2.364   2.012  1.4481  2.1661  0.2943
  364SOL    HW2 1092   0.509   2.361   1.893  0.8167  0.5116 -0.2147
  365SOL     OW 1093   1.009   1.881   1.400  0.0287  0.2941 -0.5203
  365SOL    HW1 1094   0.918   1.925   1.406  1.2077  1.1783  0.9548
  365SOL    HW2 1095   1.015   1.808   1.324 -0.0325 -2.5824  2.1439
  366SOL     OW 1096   2.752   2.080   0.435  0.4160 -0.2083  0.4906
  366SOL    HW1 1097   2.649   2.063   0.434  1.2764 -1.5281 -2.3162
  366SOL    HW2 1098   2.805   2.017   0.375  0.0152 -0.4252 -0.3091
  367SOL     OW 1099   0.935   1.125   0.085  0.5730  0.4203 -0.1729
  367SOL    HW1 1100   0.945   1.027   0.119  1.3145  0.6027 -0.2964
  367SOL    HW2 1101   1.009   1.147   0.014  0.0845 -0.3118 -2.1692
  368SOL     OW 1102   1.485   0.545   0.731  0.6179  0.6376 -0.1538
  368SOL    HW1 1103   1.425   0.544   0.648 -1.2868 -1.1894  1.6943
  368SOL    HW2 1104   1.566   0.607   0.726  3.8006 -0.1585  0.5688
  369SOL     OW 1105   0.248   1.743   0.056  1.0806 -0.1630  0.1495
  369SOL    HW1 1106   0.299   1.804   0.118  0.5870  0.5135 -0.9393
  369SOL    HW2 1107   0.164   1.701   0.099  0.1869  1.7126  0.5206
  370SOL     OW 1108   0.435   2.070   0.988 -0.3165 -0.1483 -0.8025
  370SOL    HW1 1109   0.442   2.169   0.961 -1.5588  0.4189 -0.9315
  370SOL    HW2 1110   0.348   2.019   0.949 -2.6274 -0.4268 -0.0471
  371SOL     OW 1111   2.902   2.160   2.679  0.1482 -0.0995 -0.2716
  371SOL    HW1 1112   2.823   2.122   2.736  3.0122  3.9288  0.4000
  371SOL    HW2 1113   2.977   2.197   2.736 -0.7671 -0.5791 -1.1523
  372SOL     OW 1114   1.127   1.980   1.131 -0.1377 -0.2552  0.0528
  372SOL    HW1 1115   1.080   2.024   1.046 -0.0204  1.7327 -1.8705
  372SOL    HW2 1116   1.189   2.043   1.189  4.1930  0.9822 -1.1694
  373SOL     OW 1117   2.001   1.996   0.880  0.4696 -0.1425 -0.0745
  373SOL    HW1 1118   2.065   2.015   0.958 -0.7366  0.2136  0.4922
  373SOL    HW2 1119   1.905   2.020   0.899  1.3206  0.3827  0.6595
  374SOL     OW 1120   1.797   0.443   0.575  0.4278 -0.7823  0.0011
  374SOL    HW1 1121   1.838   0.383   0.653 -1.0973  1.1686 -1.4588
  374SOL    HW2 1122   1.865   0.499   0.514  0.9475  2.8077 -2.1531
  375SOL     OW 1123   2.437   2.202   1.154  0.4798 -0.2115 -0.3187
  375SOL    HW1 1124   2.517   2.173   1.096 -0.2434  0.0929 -1.1837
  375SOL    HW2 1125   2.436   2.149   1.246  1.8621 -0.2743 -0.0363
  376SOL     OW 1126   3.068   0.559   1.464  0.2440 -0.4899  0.0707
  376SOL    HW1 1127   3.082   0.633   1.538  0.6857  0.9207 -0.2457
  376SOL    HW2 1128   2.968   0.536   1.457  0.5149  0.4262  1.2315
  377SOL     OW 1129   2.231   2.849   0.362 -0.1393  0.1391 -0.2837
  377SOL    HW1 1130   2.209   2.948   0.351 -1.4768 -3.8005 -0.0306
  377SOL    HW2 1131   2.332   2.829   0.349 -0.6009 -1.1080 -0.0917
  378SOL     OW 1132   1.855   1.838   2.620  0.4074  0.4181 -0.5642
  378SOL    HW1 1133   1.848   1.765   2.694  5.3203  2.0716 -1.9782
  378SOL    HW2 1134   1.900   1.803   2.537 -2.9138  1.3371  1.7269
  379SOL     OW 1135   0.819   0.143   2.796 -0.6396 -0.0708  0.4064
  379SOL    HW1 1136   0.730   0.084   2.780 -2.8021 -1.5425  1.2599
  379SOL    HW2 1137   0.824   0.224   2.737 -0.8576  2.3659  1.2784
  380SOL     OW 1138   1.502   1.159   0.578  0.1151 -0.3054 -0.1538
  380SOL    HW1 1139   1.400   1.131   0.580 -0.3147  0.3205 -2.9383
  380SOL    HW2 1140   1.564   1.076   0.565 -1.2126  3.8921  0.6485
  381SOL     OW 1141   1.363   1.165   1.500 -0.1823  0.1026 -0.5763
  381SOL    HW1 1142   1.406   1.167   1.405 -1.2946  0.7543  0.9107
  381SOL    HW2 1143   1.432   1.139   1.577  0.0279  1.5613  0.6740
  382SOL     OW 1144   1.800   0.841   0.162 -0.1981 -0.3170 -0.8009
  382SOL    HW1 1145   1.854   0.810   0.076  1.3952 -1.1059 -0.2789
  382SOL    HW2 1146   1.860   0.858   0.245  2.8418 -0.8440  0.7807
  383SOL     OW 1147   2.627   1.023   1.462  0.5669 -0.6389 -0.0244
  383SOL    HW1 1148   2.549   0.975   1.417 -2.2311  0.2039 -1.5371
  383SOL    HW2 1149   2.719   1.007   1.416 -0.3839  1.4558  0.7199
  384SOL     OW 1150   0.905   2.311   0.130 -0.6218  0.2208  0.1887
  384SOL    HW1 1151   0.884   2.393   0.194 -0.4807  2.2960 -1.5035
  384SOL    HW2 1152   0.870   2.221   0.162  0.3261  0.4677  1.2141
  385SOL     OW 1153   3.013   2.007   1.722  0.2368  0.1668 -0.2639
  385SOL    HW1 1154   3.079   2.054   1.659  2.0664 -0.5898  0.8200
  385SOL    HW2 1155   3.048   1.910   1.739  4.0628 -1.4938 -0.4152
  386SOL     OW 1156   0.439   1.088   0.442 -0.1502 -0.0394  0.0189
  386SOL    HW1 1157   0.441   0.982   0.447  2.0286 -1.3330  0.4161
  386SOL    HW2 1158   0.402   1.126   0.352  0.1676 -2.2160  2.6101
  387SOL     OW 1159   0.944   0.393   1.635 -0.4837  0.4251 -0.3157
  387SOL    HW1 1160   1.022   0.461   1.638 -2.7633 -1.1018  0.3454
  387SOL    HW2 1161   0.929   0.353   1.539 -3.0927  2.0922 -0.7491
  388SOL     OW 1162   1.190   2.639   1.766 -0.2006 -0.1648 -0.1531
  388SOL    HW1 1163   1.230   2.630   1.671 -1.0970  3.8933  0.6830
  388SOL    HW2 1164   1.228   2.576   1.840 -1.1559  0.2735  1.0703
  389SOL     OW 1165   0.189   3.049   1.143 -0.3377 -0.5138 -1.0454
  389SOL    HW1 1166   0.130   3.074   1.224  0.2908 -0.8006 -1.1297
  389SOL    HW2 1167   0.183   2.953   1.105 -0.4088 -1.2155 -1.6102
  390SOL     OW 1168   1.002   0.969   1.297 -0.5936  0.1804 -0.0050
  390SOL    HW1 1169   1.097   0.949   1.328 -1.6904  0.4558  0.8050
  390SOL    HW2 1170   0.970   1.058   1.344  0.2531  2.2365 -0.8427
  391SOL     OW 1171   2.083   1.192   0.982 -0.1885 -0.1117  0.8575
  391SOL    HW1 1172   2.017   1.123   1.021  1.3398  0.8311 -2.2203
  391SOL    HW2 1173   2.152   1.140   0.920  3.2517  0.6126  0.1433
  392SOL     OW 1174   0.899   2.646   3.078  0.2909  0.0014  0.1971
  392SOL    HW1 1175   0.814   2.634   3.132  1.7504  0.1711 -0.4906
  392SOL    HW2 1176   0.983   2.664   3.132 -0.6294  0.9370 -3.0466
  393SOL     OW 1177   0.418   0.456   2.015 -0.5516 -0.0009 -0.6183
  393SOL    HW1 1178   0.353   0.381   1.991 -1.2179  2.4691 -0.4045
  393SOL    HW2 1179   0.509   0.459   1.964  0.4022  1.8983  0.6929
  394SOL     OW 1180   3.011   1.787   2.766 -0.8898  0.7014 -0.1171
  394SOL    HW1 1181   3.090   1.832   2.820 -1.5454 -1.3682  0.0965
  394SOL    HW2 1182   3.013   1.808   2.667  1.6652  1.8389  0.4016
  395SOL     OW 1183   1.585   1.917   0.634  0.2033 -0.1679  0.1307
  395SOL    HW1 1184   1.633   1.845   0.576  1.5904 -0.2052 -1.2849
  395SOL    HW2 1185   1.657   1.950   0.706  2.6656 -1.0852  2.5412
  396SOL     OW 1186   2.762   1.963   1.308  0.0601  0.0158 -0.4283
  396SOL    HW1 1187   2.675   2.018   1.321  1.8525  0.9752 -1.2610
  396SOL    HW2 1188   2.761   1.869   1.354  2.5611 -2.0985  0.7056
  397SOL     OW 1189   1.025   2.162   0.587 -0.4864  0.1944 -0.6581
  397SOL    HW1 1190   0.943   2.103   0.565  0.9963  2.7087  0.6514
  397SOL    HW2 1191   1.009   2.262   0.574 -0.9506  2.1051 -5.6590
  398SOL     OW 1192   2.239   0.039   1.006 -0.2253 -0.2793  0.3687
  398SOL    HW1 1193   2.221  -0.056   0.983  0.3050  1.9019 -0.8580
  398SOL    HW2 1194   2.160   0.081   1.069 -1.1343  0.1925 -0.2346
  399SOL     OW 1195   2.890   2.538   2.764  0.2881  0.1463  0.1640
  399SOL    HW1 1196   2.865   2.486   2.674  0.2839 -0.0135 -2.3756
  399SOL    HW2 1197   2.822   2.520   2.834  1.8380 -2.1585 -0.2975
  400SOL     OW 1198   0.760   1.574   1.280 -0.2625  0.3711  0.5073
  400SOL    HW1 1199   0.699   1.609   1.357  0.9093 -0.4853 -0.8564
  400SOL    HW2 1200   0.766   1.642   1.205  0.7744 -0.8811 -1.4268
  401SOL     OW 1201   1.843   0.146   1.367  0.0872 -0.7498  0.3602
  401SOL    HW1 1202   1.892   0.157   1.463  0.4693  2.2984 -0.0261
  401SOL    HW2 1203   1.743   0.127   1.379  1.5940  0.1195  0.8984
  402SOL     OW 1204   1.329   0.138   3.075 -0.2525 -0.4305 -0.0118
  402SOL    HW1 1205   1.417   0.123   3.021 -0.5265 -1.2205 -1.5472
  402SOL    HW2 1206   1.324   0.232   3.109  0.4679 -2.7104 -0.7369
  403SOL     OW 1207   2.314   1.842   0.891  0.0375 -0.2915  0.1256
  403SOL    HW1 1208   2.416   1.833   0.902 -0.3296  3.9536 -0.3634
  403SOL    HW2 1209   2.262   1.897   0.965 -1.0105  0.0426  1.7364
  404SOL     OW 1210   0.203   2.478   2.857  0.0240 -0.0845 -0.5079
  404SOL    HW1 1211   0.295   2.451   2.815  1.8166 -0.5889  0.3743
  404SOL    HW2 1212   0.186   2.584   2.866 -0.2316  2.7282 -2.0694
  405SOL     OW 1213   0.178   2.457   0.566 -0.4687 -0.8456 -0.1601
  405SOL    HW1 1214   0.147   2.455   0.470  1.4023 -1.4191  0.1175
  405SOL    HW2 1215   0.241   2.540   0.573 -0.5045 -0.6700  1.1340
  406SOL     OW 1216   0.034   1.452   2.971 -0.1717 -0.1096 -0.0175
  406SOL    HW1 1217   0.124   1.431   2.941 -0.8964 -1.3584  0.1644
  406SOL    HW2 1218   0.020   1.458   3.074  0.6474 -0.6811  0.0472
  407SOL     OW 1219   1.589   0.924   0.879  0.2692 -0.3864  0.1551
  407SOL    HW1 1220   1.578   0.904   0.780 -1.8548 -0.5457  0.0548
  407SOL    HW2 1221   1.519   0.997   0.912  0.6474  1.4546 -1.6914
  408SOL     OW 1222   1.615   2.343   0.989 -0.2204  0.5784 -0.6385
  408SOL    HW1 1223   1.686   2.313   0.916 -2.1055  1.9137  1.1486
  408SOL    HW2 1224   1.586   2.437   0.973 -1.3266  2.0503 -2.0638
  409SOL     OW 1225   0.582   0.877   0.767 -0.0722  0.0532 -0.4833
  409SOL    HW1 1226   0.536   0.873   0.673 -0.5951 -1.6219  1.6203
  409SOL    HW2 1227   0.634   0.790   0.789  3.6272  1.9226  0.1693
  410SOL     OW 1228   1.263   2.007   1.418 -0.0158  0.3447 -0.3213
  410SOL    HW1 1229   1.323   1.971   1.492  1.7507 -1.3988  1.3276
  410SOL    HW2 1230   1.177   1.964   1.407  3.5598  0.7889 -0.2960
  411SOL     OW 1231   2.467   1.892   3.060  0.4178  0.2729  0.0875
  411SOL    HW1 1232   2.389   1.934   3.005  0.9778  0.0321  0.5869
  411SOL    HW2 1233   2.556   1.895   3.009  0.3132  0.4620  2.0225
  412SOL     OW 1234   1.470   2.476   2.224  0.4099 -0.0850 -0.5839
  412SOL    HW1 1235   1.527   2.562   2.233  1.0314 -0.2032 -2.4063
  412SOL    HW2 1236   1.382   2.479   2.284 -0.0491 -1.9185  2.3999
  413SOL     OW 1237   0.016   0.255   2.924 -0.3746  0.1192  0.1381
  413SOL    HW1 1238  -0.063   0.192   2.929 -0.4490  1.1709 -1.1723
  413SOL    HW2 1239   0.075   0.260   3.010  0.4755  0.4482  0.4049
  414SOL     OW 1240   1.790   1.465   1.359  0.4168  0.2630 -0.1316
  414SOL    HW1 1241   1.718   1.515   1.413 -1.4796 -0.7494  1.1785
  414SOL    HW2 1242   1.756   1.401   1.281 -1.4394  0.7409  0.6077
  415SOL     OW 1243   0.302   2.210   0.693 -0.6234 -0.1278  0.2505
  415SOL    HW1 1244   0.258   2.298   0.651 -0.6913  2.5643  0.6669
  415SOL    HW2 1245   0.241   2.129   0.695 -0.2189  0.3546  1.7156
  416SOL     OW 1246   0.342   1.064   1.065  0.4355  0.3279 -0.0630
  416SOL    HW1 1247   0.305   1.036   0.972 -0.9438 -1.8336  0.1876
  416SOL    HW2 1248   0.432   1.114   1.059 -1.6566  0.4036  3.2810
  417SOL     OW 1249   2.099   2.337   1.878  0.0470  0.1703  0.0829
  417SOL    HW1 1250   2.127   2.235   1.894  0.1034  0.7788 -1.6933
  417SOL    HW2 1251   2.010   2.360   1.928 -0.7202 -1.8697  1.0297
  418SOL     OW 1252   1.108   0.509   1.260  0.5130  0.3054 -0.4559
  418SOL    HW1 1253   1.013   0.468   1.271  0.1283  2.4659 -1.7408
  418SOL    HW2 1254   1.119   0.574   1.183 -0.4348 -0.3202 -1.3378
  419SOL     OW 1255   1.036   0.357   3.014 -0.2871  0.2165 -0.3255
  419SOL    HW1 1256   1.069   0.382   2.922  0.0991  1.2421 -1.9767
  419SOL    HW2 1257   0.952   0.296   3.014 -2.5176 -1.1925  1.5205
  420SOL     OW 1258   0.169   2.230   0.359 -0.5621 -0.1206 -0.4561
  420SOL    HW1 1259   0.141   2.173   0.275 -2.0987 -1.6775  0.7997
  420SOL    HW2 1260   0.114   2.199   0.440  1.9861  0.4989  0.2165
  421SOL     OW 1261   0.316   3.072   0.688 -0.6447 -0.4254  0.7806
  421SOL    HW1 1262   0.256   3.010   0.635  1.7996  0.3540 -0.6995
  421SOL    HW2 1263   0.413   3.064   0.650  0.6530 -1.1165 -0.8737
  422SOL     OW 1264   0.966   2.548   1.063  0.0322  0.0784 -0.3932
  422SOL    HW1 1265   1.021   2.602   0.995 -1.1056 -1.2479  0.7983
  422SOL    HW2 1266   0.981   2.572   1.161 -1.8212  0.7414 -2.8638
  423SOL     OW 1267   0.100   0.681   1.270  0.5376 -0.0280  0.3399
  423SOL    HW1 1268   0.046   0.631   1.344 -1.3760  2.2046  0.0753
  423SOL    HW2 1269   0.090   0.782   1.272 -3.0887  3.6576 -2.5040
  424SOL     OW 1270   1.012   2.220   2.059  0.1571  0.1470 -0.0251
  424SOL    HW1 1271   1.015   2.310   2.007  1.3232 -0.7707 -0.0540
  424SOL    HW2 1272   0.974   2.226   2.156 -2.1051  1.7737 -0.2796
  425SOL     OW 1273   1.971   1.430   0.960 -0.0594  0.2932 -0.4120
  425SOL    HW1 1274   2.015   1.332   0.968  0.7851 -1.6694  0.3184
  425SOL    HW2 1275   2.049   1.499   0.941  0.3284  1.9753 -2.1339
  426SOL     OW 1276   1.496   1.531   1.422 -0.3053 -0.2144  0.0221
  426SOL    HW1 1277   1.463   1.621   1.376 -0.4762  1.4129 -3.6055
  426SOL    HW2 1278   1.471   1.527   1.521  0.0100 -1.5203 -0.0941
  427SOL     OW 1279   1.883   2.376   2.035 -0.0296  0.0631 -0.5771
  427SOL    HW1 1280   1.920   2.312   2.107 -2.1081 -0.2134  2.0014
  427SOL    HW2 1281   1.878   2.473   2.074 -0.4200  1.9552 -2.6335
  428SOL     OW 1282   0.862   2.909   0.167  0.0598  0.3412  0.2757
  428SOL    HW1 1283   0.917   2.983   0.217 -2.2444  0.2609  1.0724
  428SOL    HW2 1284   0.926   2.848   0.107  0.2398 -2.0602  1.1801
  429SOL     OW 1285   1.299   0.096   0.262  0.1407  0.1022  0.2112
  429SOL    HW1 1286   1.392   0.118   0.308 -0.7829  2.1519  0.6942
  429SOL    HW2 1287   1.298   0.118   0.162  0.4899 -0.1786 -0.3406
  430SOL     OW 1288   2.708   1.481   0.378  0.1628 -0.0627 -0.2816
  430SOL    HW1 1289   2.758   1.526   0.295 -0.6449  0.5519  0.5329
  430SOL    HW2 1290   2.701   1.547   0.456  0.7961  1.4637 -1.7786
  431SOL     OW 1291   2.129   1.630   0.860  0.6367  0.0607 -0.6000
  431SOL    HW1 1292   2.202   1.704   0.878  0.6666  1.2399  1.0342
  431SOL    HW2 1293   2.055   1.672   0.802  0.7955 -1.3821 -1.6087
  432SOL     OW 1294   2.886   2.235   1.273 -0.3600 -0.3552  0.1889
  432SOL    HW1 1295   2.838   2.140   1.294 -1.0745  0.3537 -0.4052
  432SOL    HW2 1296   2.938   2.281   1.350 -1.4998 -0.1675 -3.4056
  433SOL     OW 1297   1.885   0.372   0.838  0.7698 -0.4511 -0.1021
  433SOL    HW1 1298   1.824   0.334   0.912  2.3712 -0.9405  1.6578
  433SOL    HW2 1299   1.980   0.336   0.851  0.0004 -0.2205  0.5428
  434SOL     OW 1300   1.583   0.268   0.752 -0.1439 -0.7306  0.9232
  434SOL    HW1 1301   1.560   0.370   0.752  0.1293 -0.4121  0.3370
  434SOL    HW2 1302   1.631   0.241   0.833 -1.4147  1.8143 -3.0521
  435SOL     OW 1303   1.435   1.448   2.124  0.1241 -0.6328  0.5682
  435SOL    HW1 1304   1.361   1.463   2.194  2.7737 -1.8372  0.9394
  435SOL    HW2 1305   1.459   1.536   2.065  3.4757  0.0784 -2.4285
  436SOL     OW 1306   1.656   2.719   2.353  0.2702  0.3231 -0.1189
  436SOL    HW1 1307   1.632   2.802   2.416  2.3680  4.6780  0.3886
  436SOL    HW2 1308   1.688   2.637   2.407 -0.2838  1.1643  0.9115
  437SOL     OW 1309   1.105   2.912   0.879  0.0141  0.0422  0.6685
  437SOL    HW1 1310   1.049   2.994   0.842 -0.8039  1.7889 -1.2381
  437SOL    HW2 1311   1.078   2.885   0.978  2.1940  0.4330  2.1849
  438SOL     OW 1312   1.051   2.603   1.313  0.0749 -0.0682 -0.3024
  438SOL    HW1 1313   1.139   2.640   1.347  1.8897 -0.9066 -1.2034
  438SOL    HW2 1314   1.046   2.501   1.342 -1.6041 -1.5728 -0.0606
  439SOL     OW 1315   0.721   1.790   1.094 -0.2343 -0.7257  0.1022
  439SOL    HW1 1316   0.725   1.890   1.107 -0.6100 -1.5969 -0.7998
  439SOL    HW2 1317   0.622   1.758   1.096  0.8315  0.5799 -2.6295
  440SOL     OW 1318   0.976   2.483   1.966 -0.5051  0.2260 -0.0631
  440SOL    HW1 1319   0.910   2.512   1.893  0.0437  0.9104 -0.5750
  440SOL    HW2 1320   1.063   2.543   1.968 -0.5272 -0.7247 -1.8522
  441SOL     OW 1321   0.403   2.807   1.353  0.1246  0.0431  0.1534
  441SOL    HW1 1322   0.461   2.729   1.375 -1.3010  2.1510 -0.9317
  441SOL    HW2 1323   0.340   2.794   1.270 -0.6640 -0.9167  1.6803
  442SOL     OW 1324   2.260   0.649   2.618  0.1695  0.2749  0.4251
  442SOL    HW1 1325   2.267   0.551   2.578  2.1453 -1.0646 -2.5039
  442SOL    HW2 1326   2.176   0.700   2.584 -0.2538 -0.3250  0.4299
  443SOL     OW 1327   1.218   2.720   2.194 -0.0996  0.2154  0.0341
  443SOL    HW1 1328   1.200   2.616   2.221  0.2918 -0.0643  0.5865
  443SOL    HW2 1329   1.193   2.790   2.266  0.3173 -1.0131  1.0481
  444SOL     OW 1330   1.134   1.320   1.553  0.4931 -0.5990  0.7296
  444SOL    HW1 1331   1.214   1.274   1.504  0.2520  1.0318 -1.9307
  444SOL    HW2 1332   1.142   1.351   1.649 -0.2109 -1.1647 -1.1149
  445SOL     OW 1333   3.098   2.376   1.852 -0.1022  0.1754  0.4114
  445SOL    HW1 1334   3.073   2.468   1.811 -0.1721 -1.9484 -0.0278
  445SOL    HW2 1335   3.029   2.350   1.922 -0.6816  1.1258  1.9703
  446SOL     OW 1336   0.242   1.884   2.397  0.4701  0.1419 -0.4604
  446SOL    HW1 1337   0.197   1.955   2.457 -2.1277  0.0131 -0.4097
  446SOL    HW2 1338   0.174   1.838   2.337  3.2313  0.7105  3.6956
  447SOL     OW 1339   1.245   1.660   1.976  0.1318  0.0661 -0.3411
  447SOL    HW1 1340   1.158   1.714   1.955  1.0883  2.0681  0.6543
  447SOL    HW2 1341   1.302   1.719   2.042 -0.1362 -0.1959 -0.5848
  448SOL     OW 1342   0.088   1.452   1.977  0.2163 -0.3992  0.3802
  448SOL    HW1 1343   0.134   1.541   1.939 -1.5007  0.2366 -1.7075
  448SOL    HW2 1344   0.053   1.461   2.073 -0.8538 -1.1412 -0.9114
  449SOL     OW 1345   1.730   2.942   0.912  0.3332  0.2391 -0.2424
  449SOL    HW1 1346   1.780   2.972   1.000  1.7982  0.2125  2.4127
  449SOL    HW2 1347   1.796   2.916   0.837  0.5121 -0.3593  1.4728
  450SOL     OW 1348   2.321   1.437   0.750  0.0023 -0.2105  0.3242
  450SOL    HW1 1349   2.274   1.482   0.833  1.4662 -0.4930 -2.6211
  450SOL    HW2 1350   2.345   1.504   0.675 -0.7080 -0.0092  1.4198
  451SOL     OW 1351   1.301   3.038   1.431  0.4744 -0.3779 -0.0320
  451SOL    HW1 1352   1.262   3.124   1.469 -1.0283 -1.0748 -1.1765
  451SOL    HW2 1353   1.333   2.971   1.508 -3.5645 -1.8841  0.4348
  452SOL     OW 1354   2.650   2.300   2.214 -0.2460 -0.1164 -0.2618
  452SOL    HW1 1355   2.634   2.401   2.222  2.8014 -1.5662 -1.9335
  452SOL    HW2 1356   2.711   2.270   2.295  1.5357  0.0079  0.2133
  453SOL     OW 1357   2.456   2.679   3.080 -0.2894 -0.1010  0.5159
  453SOL    HW1 1358   2.387   2.731   3.138 -0.0627 -0.4838  1.5508
  453SOL    HW2 1359   2.410   2.602   3.018 -0.6110 -0.5234  3.5793
  454SOL     OW 1360   0.977   1.148   2.041 -0.0336 -0.5361 -0.2932
  454SOL    HW1 1361   0.969   1.115   1.943  1.7040  1.0938  0.6922
  454SOL    HW2 1362   1.049   1.224   2.044 -0.7899  0.4997 -0.5473
  455SOL     OW 1363   0.702   2.667   2.816  0.4176 -0.6147  0.5369
  455SOL    HW1 1364   0.791   2.720   2.824 -1.2325  0.2047  3.7526
  455SOL    HW2 1365   0.699   2.584   2.868  0.8103  0.9992 -2.8333
  456SOL     OW 1366   0.443   1.877   0.205  0.4411  0.7561  0.7755
  456SOL    HW1 1367   0.520   1.836   0.263  0.7203 -1.6455 -2.2481
  456SOL    HW2 1368   0.470   1.965   0.154 -2.5111  0.8773 -1.7089
  457SOL     OW 1369   0.379   2.669   0.596 -0.5392 -0.6666  0.1334
  457SOL    HW1 1370   0.363   2.730   0.514 -1.4128  1.9649  0.1238
  457SOL    HW2 1371   0.475   2.659   0.630 -0.8300 -0.9225 -0.6137
  458SOL     OW 1372   2.926   3.094   1.225 -0.1421 -0.4321  0.0228
  458SOL    HW1 1373   2.978   3.177   1.196  0.2909 -2.0362  1.5939
  458SOL    HW2 1374   2.895   3.027   1.149 -2.2591  0.3421  1.3034
  459SOL     OW 1375   2.073   2.632   0.766 -0.0096 -0.1077 -0.4365
  459SOL    HW1 1376   2.173   2.654   0.777 -2.5047  1.2893 -2.6628
  459SOL    HW2 1377   2.053   2.561   0.691  0.5626  0.4344  1.0585
  460SOL     OW 1378   1.207   2.113   2.809  0.5440  0.0933  0.1235
  460SOL    HW1 1379   1.176   2.150   2.717 -2.0454 -3.2829 -2.0094
  460SOL    HW2 1380   1.193   2.009   2.814  0.4109 -1.0392 -1.3476
  461SOL     OW 1381   0.548   2.180   2.654 -0.2963  0.2258 -0.2546
  461SOL    HW1 1382   0.501   2.104   2.599  0.0211 -0.3895 -1.0184
  461SOL    HW2 1383   0.575   2.150   2.748 -1.1267 -0.2392  1.2242
  462SOL     OW 1384   0.957   1.096   1.746  0.4695  0.8557  0.2656
  462SOL    HW1 1385   1.044   1.085   1.685  1.2994  2.1804  0.8681
  462SOL    HW2 1386   0.916   1.192   1.729 -0.2599  0.6804  1.7029
  463SOL     OW 1387   0.452   0.821   0.499 -0.0769 -0.4168  0.0191
  463SOL    HW1 1388   0.504   0.730   0.484 -0.7885  1.5604  0.3871
  463SOL    HW2 1389   0.351   0.815   0.523 -1.5254  0.9032 -1.5032
  464SOL     OW 1390   0.621   2.287   2.234 -0.1435  0.7179  0.2379
  464SOL    HW1 1391   0.574   2.349   2.303  2.5074  0.2477  0.4748
  464SOL    HW2 1392   0.571   2.277   2.140  0.1255 -2.8814  0.1374
  465SOL     OW 1393   0.211   0.948   0.820  0.4957  0.2500 -0.3000
  465SOL    HW1 1394   0.170   0.990   0.740  2.1069 -2.5438  0.2818
  465SOL    HW2 1395   0.222   0.845   0.804 -1.7989  2.8018  1.3651
  466SOL     OW 1396   1.400   1.114   0.996 -0.0471  0.2439  0.0448
  466SOL    HW1 1397   1.390   1.212   0.961 -2.5371 -0.6892 -0.9051
  466SOL    HW2 1398   1.306   1.082   1.026  0.1302  0.5626 -2.9271
  467SOL     OW 1399   0.583   0.423   2.449 -0.9447 -0.1763  0.4417
  467SOL    HW1 1400   0.524   0.505   2.439  0.0516 -4.0052  1.8514
  467SOL    HW2 1401   0.562   0.374   2.537 -0.8300 -0.1434 -1.5993
  468SOL     OW 1402   0.440   2.251   1.616  0.3911  0.4728 -0.2862
  468SOL    HW1 1403   0.499   2.327   1.660  3.4247 -1.2893 -0.3590
  468SOL    HW2 1404   0.399   2.273   1.524 -0.5520  1.5077  2.2843
  469SOL     OW 1405   1.459   1.347   1.226 -0.6022  0.1816 -0.7334
  469SOL    HW1 1406   1.548   1.298   1.198  1.0154 -3.4132 -0.0190
  469SOL    HW2 1407   1.475   1.407   1.310 -1.3654 -3.9222 -0.8176
  470SOL     OW 1408   3.030   1.845   0.762 -0.4811 -0.1781 -0.3496
  470SOL    HW1 1409   3.112   1.904   0.730  1.1916  1.7003 -1.4494
  470SOL    HW2 1410   3.047   1.789   0.844 -0.9848  1.5718  1.0395
  471SOL     OW 1411   2.613   1.293   2.137  0.9313 -0.8370 -0.2773
  471SOL    HW1 1412   2.617   1.214   2.205 -0.7153  0.3344 -0.6511
  471SOL    HW2 1413   2.664   1.377   2.178 -2.1193  2.2807  1.6607
  472SOL     OW 1414   1.149   2.443   0.048 -0.3371  0.5917  0.1685
  472SOL    HW1 1415   1.203   2.448   0.137  1.0770  0.6947  0.1817
  472SOL    HW2 1416   1.051   2.406   0.059 -0.9051  2.4736  0.5166
  473SOL     OW 1417   1.085   1.530   1.021  0.5302  0.3268  0.1519
  473SOL    HW1 1418   0.984   1.515   1.003  0.5127 -1.3303 -0.9869
  473SOL    HW2 1419   1.118   1.470   1.097 -1.6372  0.1161 -1.9303
  474SOL     OW 1420   0.678   1.263   0.549 -0.0830  0.4510  0.0899
  474SOL    HW1 1421   0.648   1.219   0.460  0.5993 -0.4518  0.2030
  474SOL    HW2 1422   0.725   1.191   0.612  2.5178  1.2224 -1.5431
  475SOL     OW 1423   2.851   0.014   0.844  0.5057 -0.4264  0.2871
  475SOL    HW1 1424   2.901   0.109   0.826  0.7665  0.5705  0.0472
  475SOL    HW2 1425   2.750   0.036   0.877 -0.0944  1.1760 -2.3692
  476SOL     OW 1426   0.965   3.076   1.753  0.0429  0.6756  0.1404
  476SOL    HW1 1427   1.054   3.066   1.801  0.5056 -0.1877 -0.0705
  476SOL    HW2 1428   0.965   3.024   1.662 -1.0688 -0.9261 -0.0502
  477SOL     OW 1429   1.417   0.331   2.413 -0.1577 -0.2443  0.1355
  477SOL    HW1 1430   1.405   0.368   2.510  1.7622 -0.3617  1.3358
  477SOL    HW2 1431   1.503   0.273   2.406 -2.2680  1.6660  0.9975
  478SOL     OW 1432   2.221   1.814   0.156 -0.3365  0.0708 -0.5229
  478SOL    HW1 1433   2.165   1.734   0.187 -0.3234 -0.1569  1.8410
  478SOL    HW2 1434   2.312   1.780   0.116  1.4013  2.6511  2.2106
  479SOL     OW 1435   1.191   0.990   2.835  0.0478  0.0645  0.4597
  479SOL    HW1 1436   1.253   0.949   2.761 -0.2194 -0.7445 -0.6917
  479SOL    HW2 1437   1.094   0.953   2.832 -2.6008 -1.0805  2.2667
  480SOL     OW 1438   2.656   2.342   0.354  0.0019  0.1488 -0.0539
  480SOL    HW1 1439   2.673   2.271   0.428  0.3382 -2.2087 -1.0333
  480SOL    HW2 1440   2.558   2.336   0.318 -1.4172 -1.6262  0.6543
  481SOL     OW 1441   0.973   1.164   0.868 -0.0937 -0.5688  0.0585
  481SOL    HW1 1442   0.959   1.265   0.842 -2.3603  0.1119 -0.0386
  481SOL    HW2 1443   0.995   1.147   0.970  0.6089 -0.2410  2.6252
  482SOL     OW 1444   1.591   0.281   2.007 -0.0726  0.2145  0.0952
  482SOL    HW1 1445   1.602   0.385   1.994 -2.2371 -2.9769  1.7644
  482SOL    HW2 1446   1.671   0.236   2.064  1.0649 -0.6110  1.7328
  483SOL     OW 1447   0.108   2.291   1.215 -0.2957  0.3151  0.6335
  483SOL    HW1 1448   0.041   2.363   1.243  1.0627  1.1726 -1.8876
  483SOL    HW2 1449   0.170   2.336   1.146 -1.3099  0.5796 -0.6574
  484SOL     OW 1450   1.779   1.114   1.367 -0.0514 -0.2352 -0.0306
  484SOL    HW1 1451   1.828   1.028   1.407  0.3862 -1.9364 -0.2086
  484SOL    HW2 1452   1.759   1.180   1.441  0.0527 -1.6468  1.4030
  485SOL     OW 1453   0.740   0.910   1.765 -0.0904  0.3840 -0.5316
  485SOL    HW1 1454   0.721   0.885   1.667 -1.5889 -1.3959 -0.3555
  485SOL    HW2 1455   0.824   0.974   1.768 -3.5363  2.2342 -0.5777
  486SOL     OW 1456   0.797   1.872   2.447  0.1686  0.0244 -0.4480
  486SOL    HW1 1457   0.855   1.849   2.535  2.4102 -0.4362 -0.6968
  486SOL    HW2 1458   0.759   1.969   2.445  1.6723 -1.0648  4.4439
  487SOL     OW 1459   1.787   1.655   0.952 -0.1539  0.0127  0.5551
  487SOL    HW1 1460   1.825   1.564   0.971  3.7605 -1.4463 -0.4004
  487SOL    HW2 1461   1.832   1.699   0.870  0.9942 -1.2279  2.2275
  488SOL     OW 1462   2.982   0.858   2.251  0.3970 -0.1815 -0.7293
  488SOL    HW1 1463   3.025   0.764   2.243  2.2018  0.6117 -0.7319
  488SOL    HW2 1464   3.005   0.896   2.346 -1.0555 -0.0950 -0.1292
  489SOL     OW 1465   2.807   0.324   1.259 -0.3671 -0.6725 -0.3495
  489SOL    HW1 1466   2.818   0.319   1.365  3.2424 -0.0501 -0.4514
  489SOL    HW2 1467   2.894   0.286   1.209  1.7718 -2.3812 -0.2414
  490SOL     OW 1468   1.457   2.944   2.793  0.8327  0.7672 -0.2452
  490SOL    HW1 1469   1.488   2.848   2.774  1.9054 -0.8553 -0.6783
  490SOL    HW2 1470   1.393   2.983   2.721 -0.6046 -3.4360 -0.4302
  491SOL     OW 1471   1.699   1.445   2.621  0.3963 -0.3887 -0.3368
  491SOL    HW1 1472   1.618   1.441   2.688 -0.3409 -2.7130  0.7804
  491SOL    HW2 1473   1.791   1.476   2.668 -0.2262  3.0508  0.0249
  492SOL     OW 1474   0.578   2.120   0.640  0.1581  0.5741  0.1929
  492SOL    HW1 1475   0.644   2.101   0.715  0.6978 -0.8654  0.7528
  492SOL    HW2 1476   0.484   2.153   0.676  0.2098 -2.6640 -0.2574
  493SOL     OW 1477   0.427   1.396   2.035  0.1535 -0.0774 -0.3190
  493SOL    HW1 1478   0.338   1.437   2.014  2.4351  3.2486  1.4125
  493SOL    HW2 1479   0.419   1.302   2.085 -0.6346  0.6580 -0.6770
  494SOL     OW 1480   2.720   2.732   0.095 -0.1220  0.5866  0.3884
  494SOL    HW1 1481   2.719   2.692   0.190 -0.0718  1.7765 -1.0338
  494SOL    HW2 1482   2.629   2.718   0.047  5.3464 -0.8333 -2.0509
  495SOL     OW 1483   2.565   2.707   2.625  0.0814 -0.1885 -0.3893
  495SOL    HW1 1484   2.588   2.603   2.631 -1.7807 -4.1817 -1.4074
  495SOL    HW2 1485   2.633   2.761   2.575  1.3750  0.2465 -3.0465
  496SOL     OW 1486   2.083   2.257   0.712 -0.3391 -0.0422  0.0020
  496SOL    HW1 1487   2.081   2.283   0.812  1.6846 -0.7570 -0.8407
  496SOL    HW2 1488   2.129   2.163   0.699 -0.5142 -2.0881 -1.1264
  497SOL     OW 1489   0.203   2.992   2.364 -0.2683  0.1673  0.2731
  497SOL    HW1 1490   0.174   3.061   2.439  0.7134  0.7522 -1.6319
  497SOL    HW2 1491   0.250   3.041   2.284  2.3479  0.8097 -0.7196
  498SOL     OW 1492   1.183   1.353   1.209 -0.2004  0.0937 -0.6186
  498SOL    HW1 1493   1.287   1.359   1.215  1.4248  0.2555  0.6694
  498SOL    HW2 1494   1.136   1.337   1.301 -3.8434  0.3145 -0.2397
  499SOL     OW 1495   0.631   1.743   0.365  0.2436 -0.3413 -0.0338
  499SOL    HW1 1496   0.674   1.655   0.336 -0.0571  1.2286  0.8039
  499SOL    HW2 1497   0.694   1.814   0.405  0.4630  3.0473  0.4574
  500SOL     OW 1498   1.416   2.875   1.633  0.4163 -0.2705 -0.0228
  500SOL    HW1 1499   1.333   2.856   1.696 -4.8836  0.7179  1.7696
  500SOL    HW2 1500   1.496   2.805   1.625  3.0857  0.1753 -0.6498
  501SOL     OW 1501   0.821   1.120   2.275  0.1724 -0.4066 -0.0566
  501SOL    HW1 1502   0.740   1.060   2.261  0.3454  0.9621  1.9816
  501SOL    HW2 1503   0.863   1.159   2.180 -1.9499  1.7315 -0.1028
  502SOL     OW 1504   2.550   0.926   1.711 -0.3192  0.0477  0.3502
  502SOL    HW1 1505   2.541   0.934   1.608 -0.5776  0.4175 -1.9184
  502SOL    HW2 1506   2.547   0.830   1.749 -0.6632 -0.4044 -1.6392
  503SOL     OW 1507   1.333   0.152   0.656 -0.0446  0.2244  0.4690
  503SOL    HW1 1508   1.283   0.227   0.607  0.5058  1.3660 -0.4102
  503SOL    HW2 1509   1.422   0.181   0.703  2.9649 -0.0241 -1.6767
  504SOL     OW 1510   3.014   2.335   1.485  0.4055  0.0523  0.0092
  504SOL    HW1 1511   2.957   2.386   1.559  0.6496  0.9179  0.3890
  504SOL    HW2 1512   3.097   2.284   1.528 -1.3729  0.7044  0.1379
  505SOL     OW 1513   2.323   1.162   1.405  0.4363 -0.3808  0.4721
  505SOL    HW1 1514   2.262   1.201   1.325 -2.3728  1.2227 -3.9476
  505SOL    HW2 1515   2.397   1.229   1.433  1.7864  0.8585 -0.4892
  506SOL     OW 1516   1.977   0.216   1.823 -0.0196  0.0549 -0.3659
  506SOL    HW1 1517   2.074   0.187   1.831 -0.2182 -0.5353 -1.5260
  506SOL    HW2 1518   1.968   0.313   1.856 -3.3914 -0.3637 -3.6292
  507SOL     OW 1519   0.554   0.664   2.124 -0.2083  0.6248 -0.4362
  507SOL    HW1 1520   0.484   0.583   2.101 -1.4114 -3.8296  1.0924
  507SOL    HW2 1521   0.650   0.623   2.135 -0.8750  0.3843  2.3615
  508SOL     OW 1522   0.282   1.643   0.736 -0.1776 -0.4001 -0.2773
  508SOL    HW1 1523   0.336   1.703   0.673 -0.6721 -1.6448  2.4894
  508SOL    HW2 1524   0.260   1.699   0.820 -1.5533 -0.6846 -1.6381
  509SOL     OW 1525   1.255   1.212   2.404 -0.0746  0.4668  0.1060
  509SOL    HW1 1526   1.299   1.168   2.318 -2.0118  2.5841  0.2469
  509SOL    HW2 1527   1.168   1.176   2.434  2.1181 -0.9662  0.1770
  510SOL     OW 1528   1.297   2.120   2.218 -0.0217  0.2712 -0.1360
  510SOL    HW1 1529   1.314   2.167   2.122 -3.7739 -0.2209 -2.5328
  510SOL    HW2 1530   1.202   2.077   2.227 -0.1303 -2.2297 -1.4771
  511SOL     OW 1531   3.004   2.667   1.292 -0.4418  0.2511  0.1939
  511SOL    HW1 1532   3.013   2.660   1.190  1.4063  1.6899  0.0675
  511SOL    HW2 1533   2.908   2.663   1.312  4.2606 -0.4805  0.0116
  512SOL     OW 1534   2.407   0.456   1.376 -0.3540 -0.1841  0.0309
  512SOL    HW1 1535   2.306   0.443   1.389 -1.3527 -1.8441 -0.5721
  512SOL    HW2 1536   2.441   0.376   1.330  0.2545  1.4975 -2.3156
  513SOL     OW 1537   2.592   2.108   0.879  0.5875  0.2318 -0.6146
  513SOL    HW1 1538   2.560   2.204   0.840  1.5243 -0.3840  1.1221
  513SOL    HW2 1539   2.676   2.075   0.829 -0.1266 -0.9198  0.9170
  514SOL     OW 1540   0.661   2.761   0.467 -0.6587 -0.0436 -0.2272
  514SOL    HW1 1541   0.679   2.820   0.384 -0.0175  2.3568 -0.1606
  514SOL    HW2 1542   0.700   2.807   0.554  0.6930 -1.8655 -0.8676
  515SOL     OW 1543   1.944   1.293   2.355  0.2368 -0.0952 -0.2257
  515SOL    HW1 1544   1.959   1.237   2.270 -1.9242 -1.7037  1.1833
  515SOL    HW2 1545   1.876   1.262   2.424  2.5096  0.4531  1.7321
  516SOL     OW 1546   0.265   0.262   1.917 -0.3128 -0.1517  0.1462
  516SOL    HW1 1547   0.347   0.212   1.873  2.5270 -3.8575  0.0646
  516SOL    HW2 1548   0.178   0.225   1.879  2.2386 -0.7586  0.4938
  517SOL     OW 1549   0.480   0.023   1.169  0.3881 -0.3760  0.5225
  517SOL    HW1 1550   0.498   0.115   1.206  2.7826 -1.3764 -2.4101
  517SOL    HW2 1551   0.378   0.017   1.149 -0.0322 -2.3054 -2.6253
  518SOL     OW 1552   2.163   3.055   1.832  0.0838  0.1112 -0.1246
  518SOL    HW1 1553   2.224   3.136   1.853  0.2612 -2.4612  0.2177
  518SOL    HW2 1554   2.167   3.013   1.740  0.9641 -1.0314  0.0495
  519SOL     OW 1555   2.353   2.136   2.451  0.2853  0.6791  0.0689
  519SOL    HW1 1556   2.334   2.124   2.550  2.0248  0.1000  0.0906
  519SOL    HW2 1557   2.368   2.238   2.432  1.4124 -0.2401 -0.5664
  520SOL     OW 1558   1.840   2.685   1.759 -0.2800  0.4407 -0.0066
  520SOL    HW1 1559   1.745   2.651   1.782 -1.1442 -0.2529 -0.4836
  520SOL    HW2 1560   1.903   2.614   1.707  2.6454  0.9414 -0.8888
  521SOL     OW 1561   0.583   3.063   2.099  0.1618  0.2640  0.0478
  521SOL    HW1 1562   0.486   3.051   2.127  0.6404 -1.6870  1.1431
  521SOL    HW2 1563   0.644   3.056   2.184 -0.9051 -0.0897  0.1329
  522SOL     OW 1564   0.223   1.846   1.578  0.2413  0.2332 -0.4935
  522SOL    HW1 1565   0.264   1.930   1.625 -1.1732 -0.1073 -2.3992
  522SOL    HW2 1566   0.189   1.869   1.480  1.6810 -0.0494 -1.9598
  523SOL     OW 1567   2.179   2.958   1.562  0.2105  0.0219 -0.1363
  523SOL    HW1 1568   2.256   2.880   1.567  1.2459 -1.5373  1.0590
  523SOL    HW2 1569   2.096   2.921   1.504  1.4585 -1.0342 -1.7393
  524SOL     OW 1570   0.183   2.756   2.791  0.2639  0.4459 -0.1094
  524SOL    HW1 1571   0.132   2.817   2.858 -1.4515 -0.2004 -0.8289
  524SOL    HW2 1572   0.277   2.798   2.764  1.4485  4.3859  0.4262
  525SOL     OW 1573   2.197   1.970   0.393  0.0715 -0.5158 -0.1652
  525SOL    HW1 1574   2.242   1.931   0.482  1.6801 -2.8723  0.0776
  525SOL    HW2 1575   2.212   1.904   0.316  0.4493  0.4101  0.5058
  526SOL     OW 1576   0.494   1.512   1.662  0.4946  0.3622 -0.1828
  526SOL    HW1 1577   0.552   1.570   1.726 -1.2166 -1.0850 -2.7973
  526SOL    HW2 1578   0.508   1.414   1.677 -0.4931  0.7510 -2.7665
  527SOL     OW 1579   1.047   2.873   1.151 -0.4831 -0.3585  0.2546
  527SOL    HW1 1580   1.087   2.802   1.219 -0.9499 -1.5545 -0.9277
  527SOL    HW2 1581   1.079   2.973   1.157 -2.0420  0.2094 -0.3474
  528SOL     OW 1582   1.334   2.347   0.522 -0.0877  0.6402  0.4933
  528SOL    HW1 1583   1.360   2.247   0.533 -2.8324 -1.6582  0.8274
  528SOL    HW2 1584   1.389   2.411   0.585 -2.5696 -1.0939  1.3742
  529SOL     OW 1585   1.943   1.783   0.695  0.1325  0.0209 -0.6782
  529SOL    HW1 1586   1.886   1.758   0.613  0.1160 -0.5932 -0.6120
  529SOL    HW2 1587   1.914   1.876   0.733  2.4331 -0.6744 -0.3109
  530SOL     OW 1588   0.400   2.598   0.210 -0.8296  0.2260  0.0415
  530SOL    HW1 1589   0.402   2.640   0.304  0.9666  0.4418 -1.9802
  530SOL    HW2 1590   0.409   2.490   0.222  2.5917 -1.0320 -1.7857
  531SOL     OW 1591   1.880   1.017   1.016  0.3282  0.3658 -0.0580
  531SOL    HW1 1592   1.820   1.095   0.971 -3.3002  0.6126  0.3465
  531SOL    HW2 1593   1.865   0.922   0.977 -0.8695 -1.5589  0.6429
  532SOL     OW 1594   0.376   1.152   0.694 -0.1472 -0.5573 -0.3602
  532SOL    HW1 1595   0.416   1.148   0.595 -0.7639 -1.3959 -0.4078
  532SOL    HW2 1596   0.351   1.057   0.737 -0.6711 -0.7126 -1.3409
  533SOL     OW 1597   1.751   0.006   2.574 -0.3360  0.4012  0.0496
  533SOL    HW1 1598   1.853  -0.008   2.567 -2.8079 -0.4214 -0.4397
  533SOL    HW2 1599   1.721   0.075   2.641  0.0173  0.5847 -0.9607
  534SOL     OW 1600   0.276   0.188   1.461  0.2519 -0.6248  0.8828
  534SOL    HW1 1601   0.352   0.223   1.396  2.6782 -1.9401 -1.1195
  534SOL    HW2 1602   0.237   0.267   1.523 -1.8010  0.1145 -0.3811
  535SOL     OW 1603   1.893   0.396   0.202 -0.0732  0.4418 -0.3683
  535SOL    HW1 1604   1.929   0.485   0.239 -0.7949  0.2415  3.5284
  535SOL    HW2 1605   1.799   0.385   0.242  2.2704  2.5581  0.8221
  536SOL     OW 1606   1.435   2.574   0.942 -0.3924 -0.0621 -0.0842
  536SOL    HW1 1607   1.411   2.523   1.029 -0.5256  1.2714 -0.1116
  536SOL    HW2 1608   1.351   2.620   0.901  2.2358 -1.8946  1.3949
  537SOL     OW 1609   0.809   0.158   2.336  0.0912 -0.1808  0.3127
  537SOL    HW1 1610   0.820   0.190   2.238  0.7008 -0.7486 -0.1619
  537SOL    HW2 1611   0.716   0.116   2.354 -1.6605  0.5079 -2.5542
  538SOL     OW 1612   1.669   2.288   1.505  0.1522  0.6254  0.3919
  538SOL    HW1 1613   1.645   2.209   1.442 -2.3308 -0.7027  2.9920
  538SOL    HW2 1614   1.753   2.340   1.478  0.2576  0.2087  2.8665
  539SOL     OW 1615   0.179   1.651   2.728  0.0453 -0.4026  0.0693
  539SOL    HW1 1616   0.109   1.620   2.658 -1.2398 -0.5980 -1.7458
  539SOL    HW2 1617   0.137   1.689   2.818 -4.4225 -0.6855  1.8306
  540SOL     OW 1618   2.712   1.706   1.986  0.1045 -0.0032  0.0973
  540SOL    HW1 1619   2.643   1.625   2.001 -2.4876  1.9803  2.6531
  540SOL    HW2 1620   2.663   1.797   1.966  0.2335  0.0134 -0.3889
  541SOL     OW 1621   0.487   2.307   3.030 -0.1504 -0.4836 -0.4786
  541SOL    HW1 1622   0.497   2.256   3.119  3.4571 -0.4191  2.7165
  541SOL    HW2 1623   0.396   2.349   3.025  3.0606  0.8981 -1.2972
  542SOL     OW 1624   2.269   2.566   0.410  0.2974 -0.1575 -0.1869
  542SOL    HW1 1625   2.243   2.656   0.368 -0.0252  1.2627  0.7697
  542SOL    HW2 1626   2.184   2.515   0.444 -1.2589  0.3174  0.3303
  543SOL     OW 1627   1.054   1.704   1.657  0.8498  0.2517 -0.4571
  543SOL    HW1 1628   1.041   1.744   1.754 -1.5356 -1.7709  0.5953
  543SOL    HW2 1629   1.020   1.768   1.583  2.4758  1.5359  3.0349
  544SOL     OW 1630   0.975   0.400   0.210 -0.2417  0.0880  0.1983
  544SOL    HW1 1631   1.007   0.312   0.250  2.5396  2.5460 -1.5282
  544SOL    HW2 1632   0.968   0.405   0.111 -0.7310  2.0392  2.2287
  545SOL     OW 1633   1.099   1.759   0.774  0.1349 -0.0569  0.8176
  545SOL    HW1 1634   1.202   1.785   0.760  0.3085  2.0326  3.2075
  545SOL    HW2 1635   1.080   1.700   0.860  0.6066  2.7051  3.4896
  546SOL     OW 1636   2.625   1.574   3.083  0.0882  0.5982  0.7406
  546SOL    HW1 1637   2.567   1.615   3.011 -0.5482 -0.7992 -2.3731
  546SOL    HW2 1638   2.573   1.519   3.160  1.0446 -0.4358  3.0272
  547SOL     OW 1639   0.549   0.029   2.651 -0.1831 -0.1132 -0.2335
  547SOL    HW1 1640   0.634  -0.040   2.668  3.7752 -1.1873  0.9088
  547SOL    HW2 1641   0.488   0.003   2.572  0.4916 -0.8953 -1.6827
  548SOL     OW 1642   2.049   0.840   3.037  0.2939  0.2926  0.2968
  548SOL    HW1 1643   1.955   0.818   3.007  1.4918 -1.1493  1.3434
  548SOL    HW2 1644   2.077   0.940   3.045  0.5763  0.5394  0.5650
  549SOL     OW 1645   0.668   0.555   0.199  0.4180 -0.5885 -0.1672
  549SOL    HW1 1646   0.637   0.607   0.114  0.2381 -0.7659  1.9007
  549SOL    HW2 1647   0.757   0.598   0.239  2.8900 -2.0629  1.7007
  550SOL     OW 1648   2.521   2.848   2.886  0.1404  0.2202  0.1968
  550SOL    HW1 1649   2.480   2.778   2.956 -1.4141  1.4124  1.1040
  550SOL    HW2 1650   2.549   2.808   2.795  1.7375  0.0369  3.5401
  551SOL     OW 1651   0.278   0.854   0.222 -0.0691  0.0788  0.1754
  551SOL    HW1 1652   0.381   0.847   0.213  1.1682  2.6122 -1.2519
  551SOL    HW2 1653   0.247   0.828   0.316 -2.0577 -2.1483 -0.5116
  552SOL     OW 1654   0.689   2.955   1.854 -0.0099  0.2339 -0.5192
  552SOL    HW1 1655   0.651   2.984   1.944 -2.5948 -0.4567  0.8383
  552SOL    HW2 1656   0.791   2.977   1.850 -1.1831 -0.2894 -3.5304
  553SOL     OW 1657   3.058   2.571   0.359 -0.4584  0.2254 -0.4164
  553SOL    HW1 1658   3.010   2.480   0.350  0.2383 -1.6292  1.1493
  553SOL    HW2 1659   3.015   2.625   0.439 -0.2726  1.9022 -0.3308
  554SOL     OW 1660   2.160   0.357   0.561 -0.4683 -0.1153  0.0328
  554SOL    HW1 1661   2.238   0.344   0.494 -0.7079 -2.3099  1.7129
  554SOL    HW2 1662   2.129   0.266   0.592 -0.2910  1.8921 -0.3467
  555SOL     OW 1663   0.425   2.934   2.499 -0.5085 -0.7267  0.0155
  555SOL    HW1 1664   0.330   2.940   2.454 -1.4519 -1.4476 -0.2256
  555SOL    HW2 1665   0.469   2.851   2.461 -2.3974  1.0817  0.6750
  556SOL     OW 1666   0.802   2.393   1.564 -0.7433 -0.2080  0.2236
  556SOL    HW1 1667   0.863   2.469   1.603 -0.7763  0.4802  2.6818
  556SOL    HW2 1668   0.846   2.342   1.486 -2.0887 -0.0276  0.3378
  557SOL     OW 1669   0.088   2.070   0.158 -0.0593  0.0157 -0.1804
  557SOL    HW1 1670   0.010   2.017   0.124  2.0947 -1.6864 -1.1230
  557SOL    HW2 1671   0.122   2.137   0.085  0.7320  3.3859  0.9199
  558SOL     OW 1672   2.938   2.327   0.282  0.3925 -0.6024 -0.1367
  558SOL    HW1 1673   2.843   2.309   0.323 -1.7297  2.3003 -0.5356
  558SOL    HW2 1674   2.940   2.314   0.178 -0.0167  1.2655  0.1380
  559SOL     OW 1675   0.361   2.307   1.347  0.1160 -0.3988 -0.1596
  559SOL    HW1 1676   0.264   2.299   1.315 -3.0357  1.3897  1.2169
  559SOL    HW2 1677   0.429   2.235   1.303  0.4624 -0.8078 -0.5538
  560SOL     OW 1678   2.082   1.127   3.078  0.4921  0.1535  0.4026
  560SOL    HW1 1679   2.017   1.149   3.155 -0.4367 -1.8982 -0.0439
  560SOL    HW2 1680   2.164   1.191   3.069  0.4823  0.2564 -0.1738
  561SOL     OW 1681   3.009   1.881   0.028 -0.1539  0.1544 -0.4415
  561SOL    HW1 1682   2.984   1.848   0.121  0.9751  1.0126 -0.9528
  561SOL    HW2 1683   2.952   1.960  -0.000  1.8574 -0.8425 -0.5958
  562SOL     OW 1684   0.972   2.236   2.358  0.9114  0.5926  0.0903
  562SOL    HW1 1685   0.891   2.185   2.390  0.1205  2.0565  2.4038
  562SOL    HW2 1686   0.968   2.334   2.393  0.9611 -2.0098 -1.4802
  563SOL     OW 1687   0.714   2.533   2.572  0.0319  0.3470 -0.3235
  563SOL    HW1 1688   0.780   2.449   2.598  0.8493 -0.6867 -0.1044
  563SOL    HW2 1689   0.682   2.580   2.658 -2.5850  0.2490 -1.2005
  564SOL     OW 1690   2.771   1.309   2.945 -0.1550 -0.0959  0.2978
  564SOL    HW1 1691   2.692   1.333   3.007  1.7207 -1.8019  1.9643
  564SOL    HW2 1692   2.810   1.389   2.894 -2.0193  0.7596  0.0347
  565SOL     OW 1693   2.579   1.940   2.591 -0.1088 -0.5703  0.8290
  565SOL    HW1 1694   2.519   2.013   2.547 -0.8784 -0.6000  0.3941
  565SOL    HW2 1695   2.653   1.978   2.652  0.3049 -0.5688 -0.2265
  566SOL     OW 1696   1.964   2.857   1.385 -0.8897  0.0213 -0.7755
  566SOL    HW1 1697   1.954   2.756   1.371 -1.0940  1.0808 -3.1514
  566SOL    HW2 1698   1.931   2.910   1.298 -1.9176 -1.5018  0.6852
  567SOL     OW 1699   2.497   0.033   2.256 -0.2191 -0.2282  0.8875
  567SOL    HW1 1700   2.558   0.064   2.174  5.5485 -2.6329  1.1502
  567SOL    HW2 1701   2.403   0.012   2.223  1.8046 -1.8063 -1.1473
  568SOL     OW 1702   1.558   1.772   0.272 -0.1332  0.3687  0.6104
  568SOL    HW1 1703   1.489   1.837   0.228  0.5196  1.4570 -0.7738
  568SOL    HW2 1704   1.656   1.809   0.270  0.5204  0.2514 -1.2367
  569SOL     OW 1705   0.283   0.682   0.800 -0.5646  0.5618 -0.9344
  569SOL    HW1 1706   0.348   0.605   0.786  0.8549 -0.0857 -1.9983
  569SOL    HW2 1707   0.188   0.653   0.822 -1.2451  1.2931  2.5745
  570SOL     OW 1708   0.620   0.800   2.841 -0.5595  0.3509  0.1469
  570SOL    HW1 1709   0.646   0.777   2.746  0.7826 -1.7534  1.1839
  570SOL    HW2 1710   0.658   0.894   2.867 -2.2215  1.8382  1.4963
  571SOL     OW 1711   0.777   3.078   1.048  0.4537  0.5710 -0.0107
  571SOL    HW1 1712   0.850   3.106   0.980  2.4492 -3.2776 -0.8415
  571SOL    HW2 1713   0.759   2.978   1.043 -0.7911  2.8021  0.3428
  572SOL     OW 1714   1.588   2.621   1.242 -0.4288 -0.0689  0.4487
  572SOL    HW1 1715   1.500   2.570   1.222  2.1264  0.8040  0.3603
  572SOL    HW2 1716   1.579   2.721   1.237  0.5320 -1.3500 -1.4008
  573SOL     OW 1717   2.893   0.451   2.024 -0.9821  0.5713  0.2619
  573SOL    HW1 1718   2.849   0.356   2.025 -0.0524  0.5049 -1.8201
  573SOL    HW2 1719   2.827   0.524   2.000 -0.7583 -0.6721  1.0918
  574SOL     OW 1720   0.196   1.728   1.000 -0.4808  0.0512  0.2511
  574SOL    HW1 1721   0.197   1.833   0.987  0.1899  0.1935  0.0710
  574SOL    HW2 1722   0.119   1.689   1.058 -1.3735 -0.3457 -1.9064
  575SOL     OW 1723   0.946   2.144   0.973 -0.4349  0.8164 -0.3611
  575SOL    HW1 1724   0.920   2.175   1.068  0.4257 -1.5571 -0.9533
  575SOL    HW2 1725   0.956   2.225   0.908 -1.4564  1.9299  1.0482
  576SOL     OW 1726   2.882   2.980   1.668  0.2709  0.2329  0.3505
  576SOL    HW1 1727   2.790   2.975   1.625 -0.3095 -0.8298  0.6029
  576SOL    HW2 1728   2.915   3.076   1.673  1.2502  1.7429  2.5182
  577SOL     OW 1729   2.516   1.232   0.033 -0.1457  0.2094  0.6772
  577SOL    HW1 1730   2.531   1.153  -0.036  0.3885 -1.8286  0.5994
  577SOL    HW2 1731   2.581   1.244   0.114 -1.2677 -0.4040  0.1754
  578SOL     OW 1732   1.333   2.746   2.510 -0.5752  0.1239 -0.7726
  578SOL    HW1 1733   1.234   2.768   2.482 -0.4068  2.3183  2.1671
  578SOL    HW2 1734   1.401   2.824   2.507  0.3289 -1.7755  1.7860
  579SOL     OW 1735   0.084   2.500   0.130 -0.2535  0.3048  0.2818
  579SOL    HW1 1736   0.057   2.535   0.226  0.2713 -1.9593 -0.0077
  579SOL    HW2 1737   0.189   2.485   0.124  0.5473 -0.7461  0.6575
  580SOL     OW 1738   1.045   2.633   0.426 -0.7024 -0.4927 -0.1243
  580SOL    HW1 1739   1.131   2.661   0.372  0.8944  0.6463 -2.6922
  580SOL    HW2 1740   0.964   2.617   0.364  1.1757 -0.3806  2.6773
  581SOL     OW 1741   1.280   2.581   1.515  0.0263 -0.2613  0.1031
  581SOL    HW1 1742   1.297   2.476   1.509  0.6895 -0.5964  1.2109
  581SOL    HW2 1743   1.366   2.631   1.486 -0.0320 -1.2925 -0.3400
  582SOL     OW 1744   1.494   0.089   1.848 -0.2072 -0.3209  0.6903
  582SOL    HW1 1745   1.527   0.171   1.905 -0.6208  1.6035  1.6131
  582SOL    HW2 1746   1.566   0.050   1.784 -0.0293  2.2909 -0.1824
  583SOL     OW 1747   2.508   3.041   0.504 -0.3828  0.5052  0.1404
  583SOL    HW1 1748   2.586   2.999   0.447  1.6559 -0.4317 -0.9988
  583SOL    HW2 1749   2.438   2.973   0.548  3.1191 -0.4134 -0.7786
  584SOL     OW 1750   1.633   0.928   2.099 -0.0606  0.0001  0.0233
  584SOL    HW1 1751   1.667   1.017   2.052  1.7109 -0.8884 -3.4809
  584SOL    HW2 1752   1.692   0.891   2.174 -2.5799 -1.3156 -0.8953
  585SOL     OW 1753   2.093   2.656   2.935 -0.2791 -0.3493 -0.7978
  585SOL    HW1 1754   2.139   2.570   2.916  1.1942  2.0873  1.9415
  585SOL    HW2 1755   1.996   2.668   2.890 -1.3670  0.0686 -1.1491
  586SOL     OW 1756   2.784   0.296   1.557  0.9328  0.3145 -0.0531
  586SOL    HW1 1757   2.774   0.392   1.605  0.3007  0.7796 -0.5349
  586SOL    HW2 1758   2.690   0.249   1.552  1.4363  1.3622  0.7113
  587SOL     OW 1759   1.952   1.523   2.739  0.4846  0.0504 -0.1750
  587SOL    HW1 1760   2.017   1.460   2.682  1.8968 -2.6322 -2.2220
  587SOL    HW2 1761   1.992   1.552   2.832  1.4227  1.2265 -0.5898
  588SOL     OW 1762   0.466   2.733   2.248  0.0088 -0.2468 -0.2909
  588SOL    HW1 1763   0.379   2.734   2.193 -1.4920 -0.9015  0.9330
  588SOL    HW2 1764   0.477   2.643   2.298  1.2030  2.5188 -0.3913
  589SOL     OW 1765   2.115   1.407   2.552  0.2004 -0.0795  0.0200
  589SOL    HW1 1766   2.058   1.365   2.476  0.1531  2.8141 -1.4420
  589SOL    HW2 1767   2.218   1.376   2.551  2.6664 -0.6046  1.0132
  590SOL     OW 1768   2.332   1.659   2.045  0.0211 -0.1640 -0.2263
  590SOL    HW1 1769   2.421   1.608   2.028  0.5033  0.6087 -1.0867
  590SOL    HW2 1770   2.341   1.708   2.138 -0.1855  0.3033 -0.5991
  591SOL     OW 1771   1.331   2.402   0.258 -0.1407  0.4861 -0.1791
  591SOL    HW1 1772   1.361   2.318   0.202  0.7631 -1.1406  0.7652
  591SOL    HW2 1773   1.334   2.385   0.362 -1.1210  2.0008  0.1496
  592SOL     OW 1774   1.784   2.315   0.778  0.7254  0.0500 -0.5810
  592SOL    HW1 1775   1.731   2.387   0.726 -0.2291  0.2250 -1.7085
  592SOL    HW2 1776   1.884   2.309   0.752 -1.1333  0.1701  0.7467
  593SOL     OW 1777   0.701   0.278   0.183 -0.0932 -0.3328  1.5495
  593SOL    HW1 1778   0.759   0.242   0.102 -1.9091 -2.3749  0.9046
  593SOL    HW2 1779   0.697   0.380   0.195  1.8350 -3.4718  1.2638
  594SOL     OW 1780   0.935   1.849   2.712 -0.0218  0.8947 -0.1855
  594SOL    HW1 1781   1.028   1.853   2.752 -0.5969  0.1538 -2.4323
  594SOL    HW2 1782   0.876   1.930   2.745  0.8736 -1.5865  1.2618
  595SOL     OW 1783   1.549   0.063   1.059  0.8046 -0.2459  0.8148
  595SOL    HW1 1784   1.636   0.025   1.019 -0.9375  1.0624  0.2331
  595SOL    HW2 1785   1.465   0.031   1.010 -0.2048  1.0333  1.4180
  596SOL     OW 1786   0.011   1.451   2.226  0.3321 -0.2252 -0.4843
  596SOL    HW1 1787  -0.064   1.381   2.233  1.6449 -2.1161 -2.2327
  596SOL    HW2 1788   0.042   1.484   2.318  0.5070 -2.3096 -3.6100
  597SOL     OW 1789   2.029   2.549   1.622 -0.3431 -0.3056 -0.2839
  597SOL    HW1 1790   2.057   2.474   1.563 -1.0841 -1.1833 -1.5058
  597SOL    HW2 1791   2.102   2.560   1.698  1.7109 -0.5033  2.9072
  598SOL     OW 1792   2.516   2.979   1.317 -0.1934  0.0818 -0.3821
  598SOL    HW1 1793   2.603   3.024   1.353  2.6127 -1.4683 -0.1025
  598SOL    HW2 1794   2.534   2.926   1.232 -0.1308 -1.2622  1.5925
  599SOL     OW 1795   2.959   0.377   2.502  0.2562 -0.3769  0.4826
  599SOL    HW1 1796   3.050   0.426   2.491 -0.7159 -2.8933 -3.4962
  599SOL    HW2 1797   2.873   0.433   2.482  1.2158 -1.5281 -0.0260
  600SOL     OW 1798   2.761   1.116   2.700  0.2386 -0.2399  0.7125
  600SOL    HW1 1799   2.744   1.018   2.720  1.2403  1.2254  0.3606
  600SOL    HW2 1800   2.727   1.177   2.773  0.3355 -0.5206 -1.3680
  601SOL     OW 1801   2.965   1.282   1.939  0.2879 -0.1039  0.6094
  601SOL    HW1 1802   2.889   1.315   1.877  1.4370 -1.8107 -1.6972
  601SOL    HW2 1803   3.047   1.343   1.926  1.4756  2.3858 -1.0764
  602SOL     OW 1804   1.427   1.709   2.362  0.4370 -0.0230  0.1667
  602SOL    HW1 1805   1.356   1.629   2.362 -0.6331 -2.1646 -1.5414
  602SOL    HW2 1806   1.522   1.682   2.398 -0.2231  0.6846  2.6608
  603SOL     OW 1807   0.586   1.217   2.757 -0.3322  0.0024  0.4606
  603SOL    HW1 1808   0.502   1.170   2.719 -0.3316 -1.0438 -0.9033
  603SOL    HW2 1809   0.671   1.169   2.735 -0.6415  1.0043  0.5930
  604SOL     OW 1810   2.379   1.007   0.145  0.1610  0.2662 -0.1576
  604SOL    HW1 1811   2.419   1.093   0.114 -1.2744 -1.3571 -1.2139
  604SOL    HW2 1812   2.403   0.918   0.093  0.8688  1.2347  0.5014
  605SOL     OW 1813   2.550   1.170   1.892 -0.0401  0.0383  0.6121
  605SOL    HW1 1814   2.549   1.065   1.891 -1.1902 -2.4962 -0.4363
  605SOL    HW2 1815   2.561   1.213   1.990 -0.9947  1.5561 -0.1639
  606SOL     OW 1816   1.461   2.524   2.600 -0.0569  0.2011 -0.0175
  606SOL    HW1 1817   1.410   2.607   2.555 -0.6405  1.2448 -0.8000
  606SOL    HW2 1818   1.421   2.431   2.588  0.2091  0.7643 -1.3968
  607SOL     OW 1819   1.367   1.613   0.395 -0.5605 -0.4142 -0.3055
  607SOL    HW1 1820   1.280   1.655   0.431  0.5286 -0.8995 -2.1034
  607SOL    HW2 1821   1.440   1.678   0.356 -0.7848  1.7261 -1.0528
  608SOL     OW 1822   1.448   2.853   0.342 -0.2120  0.5224 -0.7162
  608SOL    HW1 1823   1.510   2.910   0.283  0.1545 -2.2965 -1.4038
  608SOL    HW2 1824   1.402   2.910   0.416  0.4065  0.7629 -0.4122
  609SOL     OW 1825   1.342   1.397   0.253 -0.5021 -0.4076 -0.4451
  609SOL    HW1 1826   1.348   1.469   0.336 -0.4626  2.7744  0.0045
  609SOL    HW2 1827   1.289   1.430   0.172 -0.4074 -0.9894 -3.0800
  610SOL     OW 1828   3.029   1.131   2.171  0.2203 -0.3443  0.4817
  610SOL    HW1 1829   3.015   1.027   2.178  1.9862 -1.3666 -1.6392
  610SOL    HW2 1830   3.030   1.172   2.076 -1.8551  1.5277 -1.0483
  611SOL     OW 1831   2.572   0.278   1.111 -0.4472 -0.1101  0.0016
  611SOL    HW1 1832   2.514   0.213   1.169 -1.0634  0.0234 -0.8097
  611SOL    HW2 1833   2.657   0.311   1.161 -0.8531 -0.5868 -0.5496
  612SOL     OW 1834   0.771   2.240   1.176 -0.4644 -0.0833 -0.5245
  612SOL    HW1 1835   0.688   2.189   1.206  1.8376  3.2467  0.5737
  612SOL    HW2 1836   0.746   2.339   1.154  2.1068  0.1287  0.9709
  613SOL     OW 1837   0.800   1.378   2.441  0.5149 -0.3124  0.6659
  613SOL    HW1 1838   0.807   1.436   2.354 -0.8503  0.5864 -0.7139
  613SOL    HW2 1839   0.779   1.279   2.418  1.8073 -2.8278  0.4139
  614SOL     OW 1840   1.589   1.635   1.975  0.7456  0.3541  0.4147
  614SOL    HW1 1841   1.536   1.717   2.012 -0.4692  0.4843 -0.3421
  614SOL    HW2 1842   1.674   1.610   2.029  0.9866  0.6076 -0.2176
  615SOL     OW 1843   0.758   1.309   1.705 -0.2228 -0.1813 -0.0709
  615SOL    HW1 1844   0.673   1.260   1.661  1.2677 -0.7959  1.9026
  615SOL    HW2 1845   0.797   1.392   1.653  2.8225 -1.2277 -1.1008
  616SOL     OW 1846   1.062   1.667   2.247 -0.4286  0.3075 -1.0353
  616SOL    HW1 1847   0.973   1.617   2.237  1.9778  0.0838  4.3574
  616SOL    HW2 1848   1.054   1.768   2.248 -0.7463 -2.0611  0.2563
  617SOL     OW 1849   2.947   1.577   1.608  0.1477  0.4441  0.0672
  617SOL    HW1 1850   2.922   1.496   1.664  2.0705 -2.5044  0.2781
  617SOL    HW2 1851   2.967   1.550   1.509 -1.3398  0.3135  1.6015
  618SOL     OW 1852   1.884   1.986   1.384 -0.3738 -0.3155 -0.0813
  618SOL    HW1 1853   1.929   1.996   1.290  0.0149 -0.2728  2.3715
  618SOL    HW2 1854   1.868   1.887   1.409  0.8348 -0.5923  0.9788
  619SOL     OW 1855   1.785   0.438   2.374 -0.0153 -0.2148 -0.5424
  619SOL    HW1 1856   1.707   0.491   2.332  1.1382 -1.4941  1.2082
  619SOL    HW2 1857   1.764   0.344   2.410 -2.4209  2.2260  1.7726
  620SOL     OW 1858   2.316   2.910   0.648 -0.3837 -0.3944 -0.0234
  620SOL    HW1 1859   2.228   2.963   0.665 -1.9767  2.3764  1.6819
  620SOL    HW2 1860   2.320   2.825   0.708 -2.0178  2.9342 -2.1953
  621SOL     OW 1861   2.161   1.832   1.280 -0.1040  0.6220 -0.3215
  621SOL    HW1 1862   2.178   1.824   1.386  3.0021 -2.1159  3.0097
  621SOL    HW2 1863   2.091   1.764   1.248 -0.1515  1.9981 -0.9676
  622SOL     OW 1864   2.283   0.905   1.766 -0.2274  0.7508 -0.5813
  622SOL    HW1 1865   2.382   0.918   1.756 -0.2306  0.5916 -1.7152
  622SOL    HW2 1866   2.255   0.841   1.845 -2.2133  0.8125 -0.1951
  623SOL     OW 1867   1.334   0.828   2.625  0.0064 -0.1561  0.5818
  623SOL    HW1 1868   1.345   0.740   2.678  0.9898 -0.5544  2.0251
  623SOL    HW2 1869   1.263   0.821   2.551 -0.0350  1.7053  0.4686
  624SOL     OW 1870   0.570   0.709   3.098  0.1614 -0.2051 -0.6519
  624SOL    HW1 1871   0.578   0.751   3.002  0.1379 -0.6065  1.4362
  624SOL    HW2 1872   0.565   0.777   3.175  2.3707 -1.0352  2.1576
  625SOL     OW 1873   2.809   1.728   1.033  0.2921  0.1748 -0.8480
  625SOL    HW1 1874   2.719   1.771   0.995 -1.2516 -1.6890 -1.5342
  625SOL    HW2 1875   2.877   1.799   1.063 -0.5858  0.2790 -0.0890
  626SOL     OW 1876   0.589   2.744   1.708  0.5769  0.7164  0.2608
  626SOL    HW1 1877   0.625   2.830   1.758 -3.3734  1.9924 -0.3571
  626SOL    HW2 1878   0.490   2.727   1.730  1.9184  0.1291 -0.8492
  627SOL     OW 1879   0.757   0.943   1.479  0.7694  0.2206  0.5130
  627SOL    HW1 1880   0.689   0.920   1.403  2.0928 -2.0031  0.0551
  627SOL    HW2 1881   0.814   1.021   1.458 -2.3632  0.3012  0.8666
  628SOL     OW 1882   2.446   0.137   0.682 -0.6605 -0.0624 -0.1393
  628SOL    HW1 1883   2.475   0.079   0.598  0.4245  0.4783  0.2272
  628SOL    HW2 1884   2.351   0.177   0.688 -3.0971  1.9765  3.8790
  629SOL     OW 1885   1.982   0.929   1.975 -0.0505 -0.1012 -0.4053
  629SOL    HW1 1886   2.035   0.961   1.891  0.0055 -1.4624  1.2761
  629SOL    HW2 1887   1.943   1.005   2.037  2.0799  0.3110  1.2343
  630SOL     OW 1888   2.915   2.224   0.837 -0.4841 -0.5580 -0.0081
  630SOL    HW1 1889   2.838   2.295   0.835 -1.8220 -1.2056  0.0670
  630SOL    HW2 1890   2.873   2.137   0.793 -0.7948 -0.4479 -1.5615
  631SOL     OW 1891   3.014   0.151   2.117 -0.0369  0.8283  0.1753
  631SOL    HW1 1892   3.081   0.171   2.197 -1.8545  0.3365  0.4071
  631SOL    HW2 1893   3.055   0.150   2.024 -0.0296 -2.7222 -0.7246
  632SOL     OW 1894   2.395   2.538   0.642 -0.6037 -0.0146 -0.1525
  632SOL    HW1 1895   2.412   2.624   0.701 -0.6093  2.9688  0.7983
  632SOL    HW2 1896   2.338   2.553   0.555  0.3557  0.8643 -1.9053
  633SOL     OW 1897   1.410   1.203   2.648 -0.1248  0.2422 -0.8129
  633SOL    HW1 1898   1.426   1.295   2.696  0.6349  0.4338 -1.0781
  633SOL    HW2 1899   1.347   1.204   2.563  2.3361  1.7318 -0.5337
  634SOL     OW 1900   0.717   2.034   0.862  0.5778 -0.2093 -0.0270
  634SOL    HW1 1901   0.637   2.014   0.924  1.0379  0.9292  0.6706
  634SOL    HW2 1902   0.799   2.075   0.911  0.4620 -2.7660 -0.9108
  635SOL     OW 1903   2.980   2.357   0.006  0.2430  0.2913 -0.1632
  635SOL    HW1 1904   2.899   2.405  -0.040  0.2676  0.7610 -0.0826
  635SOL    HW2 1905   3.056   2.420   0.044 -0.1861 -0.3378 -0.5933
  636SOL     OW 1906   2.307   2.739   2.034 -1.0011 -0.3771  0.9974
  636SOL    HW1 1907   2.323   2.839   2.061 -0.6132  2.5754 -1.2659
  636SOL    HW2 1908   2.237   2.699   2.098  2.7530 -0.1624  1.2046
  637SOL     OW 1909   2.661   0.631   1.969  0.4779  0.3767  0.6626
  637SOL    HW1 1910   2.593   0.628   1.884 -1.8715  1.0163  0.7261
  637SOL    HW2 1911   2.706   0.724   1.975 -0.3578 -1.8228 -0.5150
  638SOL     OW 1912   2.457   1.822   1.256  0.2907 -0.1698 -0.1994
  638SOL    HW1 1913   2.351   1.829   1.267 -1.9052  0.1856 -2.1280
  638SOL    HW2 1914   2.500   1.762   1.330 -1.1318  0.4656  2.1819
  639SOL     OW 1915   1.288   2.088   1.695  0.3659  0.9149  0.3775
  639SOL    HW1 1916   1.301   2.144   1.608 -0.6467  1.2149 -2.2471
  639SOL    HW2 1917   1.187   2.081   1.724  1.0059  1.8914  2.5999
  640SOL     OW 1918   0.167   1.158   1.585 -0.1354 -0.0451  0.2100
  640SOL    HW1 1919   0.176   1.182   1.688 -0.5917  1.9485  2.4969
  640SOL    HW2 1920   0.253   1.100   1.561  2.4993 -1.1918  1.1928
  641SOL     OW 1921   2.028   0.178   1.558  0.6092 -0.4921  0.2673
  641SOL    HW1 1922   2.000   0.196   1.659  1.2658 -3.9568 -0.7031
  641SOL    HW2 1923   2.122   0.140   1.547  0.3412  0.3682 -0.2922
  642SOL     OW 1924   2.008   3.081   0.351 -0.2689  0.2963 -0.0938
  642SOL    HW1 1925   2.104   3.105   0.383 -0.6630  0.5999  0.3978
  642SOL    HW2 1926   1.971   3.000   0.406  0.5112  0.9793  1.8486
  643SOL     OW 1927   2.952   1.830   2.093  0.4328  0.6527 -1.0758
  643SOL    HW1 1928   2.896   1.766   2.034 -0.7352 -0.4120 -0.6789
  643SOL    HW2 1929   2.960   1.921   2.047  0.0565  0.2597  0.2296
  644SOL     OW 1930   2.208   2.367   1.175  0.1452  0.3306  0.2282
  644SOL    HW1 1931   2.309   2.350   1.150 -0.2102  0.3932  0.8265
  644SOL    HW2 1932   2.184   2.328   1.271 -0.4971  1.8169 -0.2637
  645SOL     OW 1933   0.618   0.834   1.285 -0.3228 -0.6141 -0.0305
  645SOL    HW1 1934   0.517   0.834   1.297  0.7395  2.1175  2.3688
  645SOL    HW2 1935   0.646   0.861   1.190  1.9661  1.3319 -1.3688
  646SOL     OW 1936   1.442   1.849   2.081  0.0635  0.3230 -0.5365
  646SOL    HW1 1937   1.430   1.945   2.046 -0.8651  0.2428 -0.6282
  646SOL    HW2 1938   1.425   1.841   2.183 -3.3099  0.5741 -0.1427
  647SOL     OW 1939   0.775   1.057   0.708  0.5074  0.8705 -0.4557
  647SOL    HW1 1940   0.829   1.084   0.796  0.0183  1.2516  0.9038
  647SOL    HW2 1941   0.690   0.989   0.724 -0.4009 -1.8236 -0.1651
  648SOL     OW 1942   0.084   0.238   0.252 -0.1132 -0.0539 -0.5069
  648SOL    HW1 1943   0.134   0.203   0.167  2.3323 -0.4696  0.0879
  648SOL    HW2 1944   0.085   0.346   0.255  1.1994 -1.2431 -2.5474
  649SOL     OW 1945   3.014   0.258   0.812  0.1914  0.3728 -0.0539
  649SOL    HW1 1946   3.109   0.222   0.812 -0.3332 -0.8658  3.4578
  649SOL    HW2 1947   2.994   0.315   0.893 -0.2014 -1.5794 -0.0988
  650SOL     OW 1948   2.783   0.734   1.520  0.3460  0.3919 -0.2117
  650SOL    HW1 1949   2.682   0.729   1.528  1.0909  0.0252 -1.9527
  650SOL    HW2 1950   2.817   0.804   1.454 -0.5008 -1.4346 -2.0595
  651SOL     OW 1951   0.874   1.515   1.560  0.4715 -0.1134  0.3351
  651SOL    HW1 1952   0.939   1.567   1.629  3.5618  0.1127  1.6858
  651SOL    HW2 1953   0.935   1.481   1.485  1.0614  1.0815  1.6906
  652SOL     OW 1954   2.329   2.424   2.464  0.1655 -0.0243  0.5451
  652SOL    HW1 1955   2.232   2.418   2.502  0.4201 -0.1664 -0.6326
  652SOL    HW2 1956   2.351   2.523   2.446 -1.4697 -0.8155  3.0306
  653SOL     OW 1957   2.691   1.239   0.242 -0.1648  0.1778 -0.2284
  653SOL    HW1 1958   2.705   1.315   0.311 -0.7956 -0.8376  3.1603
  653SOL    HW2 1959   2.756   1.160   0.251  1.4767 -2.1717 -1.3715
  654SOL     OW 1960   1.232   2.239   1.253  0.2535 -0.1471  0.1364
  654SOL    HW1 1961   1.258   2.179   1.336  0.9630  1.7721  1.9352
  654SOL    HW2 1962   1.288   2.221   1.169 -0.6335  0.0302  1.3929
  655SOL     OW 1963   0.178   0.937   1.934  0.0424  0.5514  0.7944
  655SOL    HW1 1964   0.215   0.875   1.857 -0.7977 -0.6416  0.3837
  655SOL    HW2 1965   0.200   1.036   1.922  0.5758 -0.0322  3.3277
  656SOL     OW 1966   2.579   2.435   2.617 -0.3658 -0.1383 -0.0697
  656SOL    HW1 1967   2.674   2.405   2.585  2.2648  1.1036  1.3489
  656SOL    HW2 1968   2.504   2.432   2.550  1.0981 -1.2371  2.4561
  657SOL     OW 1969   3.002   0.993   1.899 -0.0396 -0.3210 -0.2233
  657SOL    HW1 1970   2.988   1.098   1.895  3.6325  1.2570  0.3573
  657SOL    HW2 1971   3.098   0.969   1.919  0.2422  0.0060  0.0271
  658SOL     OW 1972   1.629   0.170   2.372 -0.3451  0.0759 -0.1021
  658SOL    HW1 1973   1.670   0.107   2.447 -0.3840  1.4154 -0.0413
  658SOL    HW2 1974   1.663   0.142   2.278 -0.0347  0.9732 -1.2020
  659SOL     OW 1975   1.400   0.627   2.834 -0.2493  0.3876  0.0572
  659SOL    HW1 1976   1.446   0.712   2.875 -0.3646 -0.9654  0.5159
  659SOL    HW2 1977   1.300   0.629   2.856  1.3456 -1.8363  2.1429
  660SOL     OW 1978   1.415   0.335   1.401  0.3380  0.1577 -0.2351
  660SOL    HW1 1979   1.444   0.388   1.480  0.7328 -1.5022 -2.2798
  660SOL    HW2 1980   1.463   0.243   1.394  0.7845  2.7287 -1.4531
  661SOL     OW 1981   2.384   1.188   0.650  0.8224 -0.1223 -0.0742
  661SOL    HW1 1982   2.429   1.201   0.560 -0.3050 -0.2349 -1.3589
  661SOL    HW2 1983   2.362   1.280   0.700  1.7719  1.4095  1.0058
  662SOL     OW 1984   1.409   0.371   1.723  0.1423  0.0621  0.2543
  662SOL    HW1 1985   1.352   0.286   1.729  0.1265  1.3713  1.8306
  662SOL    HW2 1986   1.383   0.434   1.802  0.2032  1.9307 -1.8465
  663SOL     OW 1987   0.793   1.549   2.196 -0.4188  0.1555 -0.0668
  663SOL    HW1 1988   0.708   1.604   2.223  2.2350 -0.0173  0.6929
  663SOL    HW2 1989   0.774   1.492   2.100  2.0158 -2.3395 -1.8019
  664SOL     OW 1990   1.623   2.046   1.391 -0.2357  0.0266 -0.3285
  664SOL    HW1 1991   1.582   1.982   1.464 -0.7864 -1.5414  1.5323
  664SOL    HW2 1992   1.729   2.045   1.393 -2.1381 -2.1861 -1.7783
  665SOL     OW 1993   2.239   0.700   1.943  0.3223  0.0495 -0.2160
  665SOL    HW1 1994   2.142   0.667   1.948  0.4394 -1.4472 -1.3665
  665SOL    HW2 1995   2.283   0.701   2.038 -2.8365  0.6016 -2.3604
  666SOL     OW 1996   0.439   2.310   0.328  0.2647 -0.3351  0.6286
  666SOL    HW1 1997   0.503   2.331   0.407 -0.2753 -2.1769  1.7014
  666SOL    HW2 1998   0.349   2.267   0.356  2.0462  1.4266  0.1502
  667SOL     OW 1999   2.079   0.187   1.178 -0.1930  0.0512  0.7017
  667SOL    HW1 2000   2.039   0.274   1.143 -0.2588  0.1555  1.4964
  667SOL    HW2 2001   2.025   0.163   1.263 -1.2987  0.5105 -0.4748
  668SOL     OW 2002   2.056   0.482   1.112  0.0725  0.0868 -0.1705
  668SOL    HW1 2003   2.126   0.502   1.041 -0.5493  1.0164  1.5673
  668SOL    HW2 2004   2.090   0.481   1.206  0.0008  0.0907  1.1126
  669SOL     OW 2005   3.093   2.112   1.022  0.2050 -0.4669  0.8579
  669SOL    HW1 2006   3.027   2.151   0.947 -0.3492  1.3327 -3.7086
  669SOL    HW2 2007   3.094   2.176   1.104  1.4366  1.0731  2.0252
  670SOL     OW 2008   2.859   2.348   2.032  0.2314 -0.1492 -0.9246
  670SOL    HW1 2009   2.770   2.329   2.079  0.7294  1.4091  0.8552
  670SOL    HW2 2010   2.860   2.454   2.005  0.3609  3.5522 -1.4430
  671SOL     OW 2011   1.697   1.786   1.491 -0.2306 -0.3674  0.0081
  671SOL    HW1 2012   1.666   1.775   1.392 -0.5503  1.5793  0.2310
  671SOL    HW2 2013   1.619   1.828   1.553  1.3120  2.5840  1.8343
  672SOL     OW 2014   0.432   0.629   2.366 -0.0084  0.1921  0.3733
  672SOL    HW1 2015   0.448   0.668   2.271 -0.5682  0.0891  2.1663
  672SOL    HW2 2016   0.347   0.664   2.414 -1.2058  0.4793  0.7226
  673SOL     OW 2017   0.128   1.230   1.122 -0.6287 -0.1722 -0.2318
  673SOL    HW1 2018   0.133   1.279   1.213  0.2741  0.1985  1.5344
  673SOL    HW2 2019   0.216   1.182   1.094 -1.1815  1.0382  1.2207
  674SOL     OW 2020   1.713   2.978   0.262  0.2468 -0.4496 -0.5980
  674SOL    HW1 2021   1.755   3.067   0.233 -0.9001 -1.2296  0.7167
  674SOL    HW2 2022   1.762   2.896   0.232 -1.7604 -0.5049  1.0490
  675SOL     OW 2023   1.723   0.811   2.335  0.7119 -0.1071 -0.2073
  675SOL    HW1 2024   1.824   0.797   2.323  2.2985  0.5655  0.9773
  675SOL    HW2 2025   1.663   0.732   2.298 -0.4700  0.7425  3.1987
  676SOL     OW 2026   2.561   1.483   1.934 -0.2413  0.0705 -0.1238
  676SOL    HW1 2027   2.502   1.453   1.852  0.0461 -1.5123  1.5011
  676SOL    HW2 2028   2.586   1.399   1.992 -1.8166 -3.2133  2.8283
  677SOL     OW 2029   1.876   0.658   0.906 -0.5993  0.0513 -0.1436
  677SOL    HW1 2030   1.788   0.640   0.953 -1.6784 -0.4991  0.8930
  677SOL    HW2 2031   1.927   0.573   0.887 -1.9242  0.8257  0.2437
  678SOL     OW 2032   0.033   0.754   1.649 -0.2495 -0.1421  0.6403
  678SOL    HW1 2033   0.131   0.775   1.672 -1.3286 -0.5278 -1.7755
  678SOL    HW2 2034  -0.027   0.742   1.736 -0.7756 -1.2814  2.8655
  679SOL     OW 2035   2.523   1.225   1.155  0.4348 -0.2818 -0.8634
  679SOL    HW1 2036   2.427   1.256   1.129 -1.6390 -2.0809 -0.6331
  679SOL    HW2 2037   2.530   1.120   1.132 -1.9751 -0.7490 -1.6304
  680SOL     OW 2038   2.819   0.530   1.698  0.4985  0.5591  0.3155
  680SOL    HW1 2039   2.801   0.607   1.626  0.9526  0.5920 -0.4511
  680SOL    HW2 2040   2.884   0.550   1.773  1.0072  0.4846  0.7497
  681SOL     OW 2041   3.008   0.155   1.618 -0.6502  0.6865 -0.1213
  681SOL    HW1 2042   3.054   0.112   1.538  0.1831 -2.6990  1.8674
  681SOL    HW2 2043   2.929   0.219   1.608  3.6711 -1.6524 -0.7389
  682SOL     OW 2044   0.796   3.098   1.321  0.1377 -0.5140 -0.8408
  682SOL    HW1 2045   0.698   3.080   1.352  1.8188 -0.2354  0.3586
  682SOL    HW2 2046   0.817   3.101   1.221  2.0869  0.9302  2.1070
  683SOL     OW 2047   1.350   0.239   2.158 -0.2302 -0.0215 -0.4816
  683SOL    HW1 2048   1.368   0.286   2.250 -2.2574  2.5356 -3.3282
  683SOL    HW2 2049   1.443   0.243   2.107  0.6362 -2.9086  2.7275
  684SOL     OW 2050   1.474   2.094   0.465  0.4673  0.1498 -0.0539
  684SOL    HW1 2051   1.521   2.044   0.544 -0.4418  2.2568 -0.5158
  684SOL    HW2 2052   1.397   2.039   0.427  0.2218  2.7027 -0.6663
  685SOL     OW 2053   2.180   2.050   1.937 -0.2532 -0.2574  0.6960
  685SOL    HW1 2054   2.251   2.019   1.861  2.7699  0.3138 -3.2290
  685SOL    HW2 2055   2.216   2.029   2.032 -1.4815  0.1824 -0.7481
  686SOL     OW 2056   1.502   1.814   2.717  0.9623 -0.2523 -0.0767
  686SOL    HW1 2057   1.536   1.769   2.807  0.0663 -1.5342 -0.6735
  686SOL    HW2 2058   1.562   1.787   2.638  0.1797 -0.2514 -0.1043
  687SOL     OW 2059   1.308   2.477   1.963 -0.3311  0.0737  0.8615
  687SOL    HW1 2060   1.333   2.380   1.972 -0.5194  1.5096  0.4138
  687SOL    HW2 2061   1.341   2.534   2.043  2.1072 -1.7907 -2.1497
  688SOL     OW 2062   2.039   1.507   1.804  0.4354  0.2718 -0.6430
  688SOL    HW1 2063   2.129   1.552   1.813  0.9721 -0.1371  0.9283
  688SOL    HW2 2064   2.029   1.478   1.706 -0.8865 -1.4486  1.1908
  689SOL     OW 2065   2.353   1.080   2.765  0.2034  0.0266  0.0308
  689SOL    HW1 2066   2.269   1.026   2.801  0.1823  1.7368  2.4834
  689SOL    HW2 2067   2.428   1.095   2.836 -0.3371 -3.1794  0.2952
  690SOL     OW 2068   2.221   2.780   0.082  0.2430  0.4115  0.0204
  690SOL    HW1 2069   2.168   2.739   0.002  1.0375 -0.9177 -2.1733
  690SOL    HW2 2070   2.175   2.784   0.170  2.5880 -2.4895 -0.6159
  691SOL     OW 2071   2.592   0.439   2.186  0.3901  0.5668  0.1586
  691SOL    HW1 2072   2.665   0.358   2.186  0.6419  1.1408  1.6429
  691SOL    HW2 2073   2.601   0.507   2.109 -2.9592  0.3260  2.9167
  692SOL     OW 2074   2.729   1.245   0.728  0.2561  0.0589  0.3330
  692SOL    HW1 2075   2.631   1.262   0.691 -2.2096 -0.6809 -0.6148
  692SOL    HW2 2076   2.753   1.302   0.812 -1.1796  1.5608 -2.5033
  693SOL     OW 2077   2.866   2.940   0.628  0.4603 -0.1619 -0.4988
  693SOL    HW1 2078   2.840   3.012   0.698  0.7231 -2.4084  3.1532
  693SOL    HW2 2079   2.851   2.959   0.528 -0.8079 -1.5340 -1.0189
  694SOL     OW 2080   2.369   2.186   0.087 -0.2933 -0.6973  0.0231
  694SOL    HW1 2081   2.356   2.275   0.141 -1.5377 -0.8091 -2.7369
  694SOL    HW2 2082   2.279   2.143   0.053  1.7877 -1.7227 -2.6926
  695SOL     OW 2083   0.559   3.004   1.441 -0.1514 -0.0758 -0.2119
  695SOL    HW1 2084   0.517   2.917   1.399  1.9804  0.5989  3.5731
  695SOL    HW2 2085   0.517   3.029   1.535 -1.0476  2.6439 -1.2321
  696SOL     OW 2086   2.803   2.016   0.709 -0.0517 -1.0195 -0.0476
  696SOL    HW1 2087   2.862   1.931   0.724 -0.8711 -1.3136  0.2273
  696SOL    HW2 2088   2.779   2.034   0.610 -2.5303 -1.1526  0.6385
  697SOL     OW 2089   1.621   2.017   1.839 -0.1354  0.1256 -0.0576
  697SOL    HW1 2090   1.665   1.930   1.868  1.8241 -0.6932  0.7209
  697SOL    HW2 2091   1.688   2.092   1.826 -1.4043 -1.6748  2.2310
  698SOL     OW 2092   2.918   0.440   2.783  0.2021  0.0803 -0.1036
  698SOL    HW1 2093   2.911   0.425   2.679 -0.0096 -2.1519 -3.0604
  698SOL    HW2 2094   2.976   0.360   2.823  1.4904 -2.3122 -2.0193
  699SOL     OW 2095   1.544   0.092   2.905  0.2340 -0.4984 -0.4378
  699SOL    HW1 2096   1.539   0.005   2.851  0.8096  0.1866  0.5640
  699SOL    HW2 2097   1.614   0.164   2.867  0.1310  1.3260  0.3906
  700SOL     OW 2098   0.968   2.324   1.333 -0.4265 -0.0591  0.0042
  700SOL    HW1 2099   1.057   2.286   1.299 -1.7840 -0.3470  0.2586
  700SOL    HW2 2100   0.884   2.295   1.277 -1.5993 -0.3327 -0.5584
  701SOL     OW 2101   1.869   2.933   3.057  0.4267 -0.3722 -0.1938
  701SOL    HW1 2102   1.844   2.888   3.147  1.4824  1.9699  0.7867
  701SOL    HW2 2103   1.930   3.017   3.066 -4.5117  1.4745 -0.8686
  702SOL     OW 2104   2.060   1.320   2.001 -0.2278  0.2336  0.4052
  702SOL    HW1 2105   2.145   1.263   1.980 -0.3659  0.4844 -2.2635
  702SOL    HW2 2106   2.049   1.398   1.927 -1.1449  0.5113 -0.8424
  703SOL     OW 2107   1.926   0.906   1.458 -0.3688 -0.0766 -0.0879
  703SOL    HW1 2108   1.916   0.814   1.511  0.0103 -2.3166 -2.4101
  703SOL    HW2 2109   2.014   0.954   1.493  0.3207  0.3723  1.4146
  704SOL     OW 2110   0.317   2.039   1.723 -0.2758 -0.2253  0.2147
  704SOL    HW1 2111   0.352   1.975   1.799  3.5191 -0.3360  3.9735
  704SOL    HW2 2112   0.383   2.117   1.699 -1.2089 -0.0548  1.7733
  705SOL     OW 2113   2.539   1.522   0.901 -0.4993 -0.5025  0.1763
  705SOL    HW1 2114   2.481   1.451   0.858 -0.6986  2.7057 -0.8676
  705SOL    HW2 2115   2.633   1.487   0.932  0.3364 -0.8815 -0.4767
  706SOL     OW 2116   0.617   1.645   1.872  0.7037 -0.1913  0.1642
  706SOL    HW1 2117   0.645   1.554   1.914  1.7646  1.6600  0.1549
  706SOL    HW2 2118   0.680   1.723   1.906  0.2234  0.5908 -2.3159
  707SOL     OW 2119   2.269   1.181   1.843 -0.0730  0.2958 -0.0107
  707SOL    HW1 2120   2.368   1.209   1.823  1.9931 -1.0845  1.1333
  707SOL    HW2 2121   2.259   1.078   1.836  0.8127  1.2884  0.2452
  708SOL     OW 2122   3.071   0.542   3.076  0.1471 -0.5362  0.1388
  708SOL    HW1 2123   3.093   0.608   3.000 -1.6811 -0.0500  2.1049
  708SOL    HW2 2124   3.021   0.459   3.039 -0.3624  3.2357 -0.7703
  709SOL     OW 2125   1.861   1.832   0.247 -0.0343  0.3326 -0.0588
  709SOL    HW1 2126   1.893   1.928   0.267  2.3654  1.2438  1.4249
  709SOL    HW2 2127   1.871   1.810   0.144 -0.7955  0.6213 -2.2323
  710SOL     OW 2128   1.682   1.652   2.406  0.5645  0.0886  0.3684
  710SOL    HW1 2129   1.748   1.647   2.329  2.2507  0.8556 -0.5593
  710SOL    HW2 2130   1.688   1.570   2.471  2.6896 -1.2826 -1.1143
  711SOL     OW 2131   2.615   2.912   1.048  1.3528  0.7069 -0.1058
  711SOL    HW1 2132   2.588   3.005   1.006  0.5223 -0.7480  0.5705
  711SOL    HW2 2133   2.718   2.909   1.071  1.0456  0.6417 -0.1410
  712SOL     OW 2134   1.398   2.208   1.966 -0.1502 -0.1957  0.0690
  712SOL    HW1 2135   1.499   2.211   1.985  0.7402  0.6327  1.3703
  712SOL    HW2 2136   1.373   2.164   1.878  0.5595  0.6114 -1.8509
  713SOL     OW 2137   2.851   1.466   2.538  0.4332  0.1581  0.3051
  713SOL    HW1 2138   2.882   1.369   2.518 -0.3199 -0.1876  0.8948
  713SOL    HW2 2139   2.753   1.464   2.564  1.7152 -0.9651  1.6788
  714SOL     OW 2140   2.708   0.520   2.465  0.5240  0.3260  0.1622
  714SOL    HW1 2141   2.641   0.504   2.541 -0.4038  1.4304  0.2291
  714SOL    HW2 2142   2.666   0.496   2.375  1.0051  1.4005  0.5967
  715SOL     OW 2143   1.591   2.040   1.126 -0.0666 -0.2162  0.9683
  715SOL    HW1 2144   1.537   2.109   1.068 -1.9572 -1.1625 -0.5004
  715SOL    HW2 2145   1.589   2.056   1.226  0.7628 -0.0361  1.0359
  716SOL     OW 2146   1.172   0.169   1.505 -0.4133 -0.0970 -0.5856
  716SOL    HW1 2147   1.079   0.175   1.464  0.2696 -2.5757  1.3958
  716SOL    HW2 2148   1.226   0.245   1.465  0.6410  2.0949  0.6763
  717SOL     OW 2149   1.170   0.549   1.530  0.1482 -0.3048  0.6169
  717SOL    HW1 2150   1.259   0.601   1.559 -0.2572 -1.6363  3.0053
  717SOL    HW2 2151   1.184   0.504   1.435 -1.3585 -2.4906 -1.4493
  718SOL     OW 2152   0.668   0.892   1.031 -0.0225 -0.4128 -0.1126
  718SOL    HW1 2153   0.623   0.889   0.939  1.6877 -0.5293 -2.0004
  718SOL    HW2 2154   0.690   0.989   1.067  2.5693 -0.6463 -0.7090
  719SOL     OW 2155   0.599   1.747   2.309 -0.7205  0.9172 -0.3103
  719SOL    HW1 2156   0.677   1.782   2.366 -2.1332  0.3656 -3.0133
  719SOL    HW2 2157   0.536   1.688   2.370 -0.2636  1.2321 -2.1908
  720SOL     OW 2158   2.181   1.130   0.300 -0.3187  0.5330 -0.0234
  720SOL    HW1 2159   2.224   1.058   0.240 -0.1531 -0.8628  0.9179
  720SOL    HW2 2160   2.159   1.093   0.392  0.2238  1.1952  2.4944
  721SOL     OW 2161   2.286   3.015   2.103  0.1707  0.0332  0.1023
  721SOL    HW1 2162   2.219   3.009   2.024 -4.7050 -3.2144  4.5348
  721SOL    HW2 2163   2.234   3.051   2.188  1.8903  0.7932 -0.5825
  722SOL     OW 2164   2.351   1.607   0.534  0.0158  0.3411 -0.5132
  722SOL    HW1 2165   2.322   1.552   0.454  0.0841 -1.3950  1.5178
  722SOL    HW2 2166   2.298   1.696   0.548  0.5097 -0.9299  1.2039
  723SOL     OW 2167   2.591   2.739   1.944 -0.2422  0.2358 -0.0945
  723SOL    HW1 2168   2.619   2.818   2.009 -0.9031  1.0830 -0.2143
  723SOL    HW2 2169   2.490   2.718   1.945  1.7132  1.1862 -0.9346
  724SOL     OW 2170   0.505   2.481   2.399  0.2292 -0.2493  0.5475
  724SOL    HW1 2171   0.414   2.452   2.444 -0.4948 -4.3781 -1.0655
  724SOL    HW2 2172   0.583   2.486   2.469  1.2270 -0.2489 -0.5640
  725SOL     OW 2173   2.428   2.811   1.532  1.5072  0.4514  0.3992
  725SOL    HW1 2174   2.468   2.867   1.456 -0.5056 -1.0934 -1.2801
  725SOL    HW2 2175   2.441   2.714   1.511 -2.6568  3.6595 -2.2771
  726SOL     OW 2176   2.540   2.329   0.732  0.1527 -0.6871  0.1083
  726SOL    HW1 2177   2.472   2.405   0.710 -1.0772  2.4722  0.3106
  726SOL    HW2 2178   2.524   2.253   0.664 -0.3420  2.3721  2.9319
  727SOL     OW 2179   0.108   3.079   0.077 -0.0973  0.3177  0.2845
  727SOL    HW1 2180   0.143   2.989   0.035  2.2439  0.7659 -0.3205
  727SOL    HW2 2181   0.075   3.138   0.003 -0.0774  0.9213 -1.0429
  728SOL     OW 2182   2.897   0.635   0.956 -0.2832 -0.0431  0.2555
  728SOL    HW1 2183   2.805   0.666   0.907 -1.6914  0.3566  2.1601
  728SOL    HW2 2184   2.877   0.622   1.058  0.5130  0.6455 -1.2859
  729SOL     OW 2185   3.034   2.516   0.761  0.4759  0.0120 -0.0510
  729SOL    HW1 2186   2.981   2.442   0.819  1.7200  2.2276 -0.2486
  729SOL    HW2 2187   3.129   2.494   0.740 -1.3190 -0.0236  4.4558
  730SOL     OW 2188   2.646   0.723   0.871 -0.2124  0.4643  0.4538
  730SOL    HW1 2189   2.606   0.819   0.869 -0.0791 -0.9742 -0.3052
  730SOL    HW2 2190   2.684   0.690   0.776 -0.5174  2.0177 -3.3818
  731SOL     OW 2191   0.057   2.115   2.490  0.3851 -0.1560  0.8532
  731SOL    HW1 2192   0.048   2.159   2.585  0.3189 -0.0826  0.1975
  731SOL    HW2 2193  -0.019   2.138   2.426  0.6723  0.1323  3.4308
  732SOL     OW 2194   1.178   2.854   1.962 -0.3007 -0.0562 -0.3531
  732SOL    HW1 2195   1.201   2.800   2.049 -2.2511  0.4262 -1.6089
  732SOL    HW2 2196   1.191   2.798   1.876  0.8287  0.1806  2.8390
  733SOL     OW 2197   3.057   0.590   2.209 -0.5922 -0.0774 -0.2209
  733SOL    HW1 2198   3.141   0.628   2.160  1.8593  2.6791  0.3707
  733SOL    HW2 2199   2.997   0.527   2.153  2.7566  1.6688  0.8968
  734SOL     OW 2200   1.442   0.386   2.690  0.1790  0.1314 -0.3796
  734SOL    HW1 2201   1.451   0.479   2.738 -0.0727 -0.2810  0.2569
  734SOL    HW2 2202   1.372   0.324   2.738 -0.9184  0.0087  1.0627
  735SOL     OW 2203   2.887   2.664   2.293 -0.0663  0.2843 -0.3727
  735SOL    HW1 2204   2.881   2.703   2.193 -1.0357 -0.5457 -0.5600
  735SOL    HW2 2205   2.984   2.659   2.329  0.3219 -0.0605  1.2075
  736SOL     OW 2206   0.839   0.316   2.564 -0.3292 -0.5090 -0.3511
  736SOL    HW1 2207   0.770   0.368   2.514  0.9137  0.2974 -0.5788
  736SOL    HW2 2208   0.852   0.231   2.509  1.7769  2.3643 -1.2241
  737SOL     OW 2209   2.642   0.461   2.843  0.0949  0.1834  0.3235
  737SOL    HW1 2210   2.609   0.426   2.934 -0.0125 -1.1597 -0.1238
  737SOL    HW2 2211   2.746   0.478   2.843  1.1759  0.3605 -2.2370
  738SOL     OW 2212   1.647   1.246   2.885  0.1378 -0.2432  0.0478
  738SOL    HW1 2213   1.747   1.234   2.882 -2.5551  1.1848 -1.8331
  738SOL    HW2 2214   1.602   1.169   2.834 -1.3503  2.4809 -1.6744
  739SOL     OW 2215   1.716   0.675   0.686 -0.5237 -0.4251  0.0967
  739SOL    HW1 2216   1.783   0.678   0.766  0.2337 -1.4180 -0.1382
  739SOL    HW2 2217   1.723   0.581   0.632 -1.2652 -1.0579  0.0349
  740SOL     OW 2218   1.987   1.934   2.353  0.4240  0.1596 -0.4854
  740SOL    HW1 2219   2.052   1.853   2.364 -0.9655 -0.9613 -0.0375
  740SOL    HW2 2220   1.923   1.916   2.277  1.1631 -3.3473 -0.6697
  741SOL     OW 2221   2.567   0.116   2.564 -0.3495  0.0822 -0.3328
  741SOL    HW1 2222   2.670   0.124   2.582 -0.7441 -0.2647  0.4657
  741SOL    HW2 2223   2.556   0.070   2.470  0.5254 -0.3781 -2.1245
  742SOL     OW 2224   2.198   1.389   0.199  0.5607  0.4689 -0.3657
  742SOL    HW1 2225   2.112   1.450   0.184 -0.6642  1.8346 -2.7151
  742SOL    HW2 2226   2.181   1.293   0.241  0.7842 -4.3346  0.1731
  743SOL     OW 2227   1.821   0.648   2.610  0.7476  0.4951  1.0526
  743SOL    HW1 2228   1.808   0.586   2.533 -1.0228 -4.6881  2.6568
  743SOL    HW2 2229   1.733   0.709   2.616 -1.3772 -0.6381 -0.5504
  744SOL     OW 2230   2.622   2.065   0.166  0.0079  0.9148  0.6076
  744SOL    HW1 2231   2.523   2.094   0.131 -1.3363  3.4178 -1.4828
  744SOL    HW2 2232   2.607   1.979   0.222  0.0837  0.3732 -3.8445
  745SOL     OW 2233   2.137   2.655   2.225  0.7372 -0.1318  0.4090
  745SOL    HW1 2234   2.042   2.657   2.183 -0.2266  1.6813 -0.5917
  745SOL    HW2 2235   2.127   2.665   2.325 -3.2535 -0.5518  0.9824
  746SOL     OW 2236   3.068   2.625   1.735 -0.5802 -0.3137  0.3687
  746SOL    HW1 2237   3.155   2.631   1.682 -1.1367 -0.8536 -0.1528
  746SOL    HW2 2238   3.059   2.714   1.788 -2.0950  0.9052  0.1681
  747SOL     OW 2239   0.025   1.752   1.736  0.7365 -0.2944 -0.5105
  747SOL    HW1 2240  -0.015   1.674   1.693 -1.3396  2.3076 -0.9126
  747SOL    HW2 2241   0.107   1.788   1.681 -0.0766 -0.3305  0.0808
  748SOL     OW 2242   1.826   2.725   2.873 -0.2020  0.1962  0.0670
  748SOL    HW1 2243   1.834   2.815   2.935  0.4025  1.3247  1.8278
  748SOL    HW2 2244   1.729   2.697   2.840  0.2518  0.7601 -1.3194
  749SOL     OW 2245   1.377   3.027   0.890 -0.3695 -0.0463  0.0724
  749SOL    HW1 2246   1.280   3.013   0.876 -1.3973  0.7308 -2.2837
  749SOL    HW2 2247   1.443   3.000   0.811  1.6342 -0.6244  0.8454
  750SOL     OW 2248   2.291   0.206   1.856 -0.3892 -0.7084  0.1874
  750SOL    HW1 2249   2.289   0.280   1.783  0.7499 -1.4788  0.8540
  750SOL    HW2 2250   2.315   0.254   1.951 -2.0627  0.5802  0.4537
  751SOL     OW 2251   0.842   2.085   2.828  0.6877  0.4752 -0.1215
  751SOL    HW1 2252   0.906   2.076   2.909  1.2106  1.6189  0.2713
  751SOL    HW2 2253   0.742   2.084   2.862  0.5678  0.7256 -0.5414
  752SOL     OW 2254   1.318   0.871   1.252 -0.2056 -0.0103  0.4603
  752SOL    HW1 2255   1.391   0.945   1.255 -0.0531 -1.5365  0.9621
  752SOL    HW2 2256   1.348   0.778   1.289  0.0657  2.1236 -1.1432
  753SOL     OW 2257   0.917   2.619   1.666 -0.0375 -0.2813 -0.2480
  753SOL    HW1 2258   1.019   2.626   1.681 -1.1465  1.7383 -0.4338
  753SOL    HW2 2259   0.887   2.659   1.580  0.0205 -1.6998 -1.0967
  754SOL     OW 2260   1.121   1.225   2.988 -0.3102  0.4584  0.4690
  754SOL    HW1 2261   1.200   1.177   2.937  0.5956 -0.9267 -2.1167
  754SOL    HW2 2262   1.155   1.318   3.029 -0.4141  1.4662  1.6738
  755SOL     OW 2263   2.004   0.474   2.204 -0.1804  0.0309  0.1902
  755SOL    HW1 2264   2.082   0.412   2.240  1.7603 -0.6285 -0.7038
  755SOL    HW2 2265   1.921   0.467   2.266 -1.2065  1.9836  0.4090
  756SOL     OW 2266   2.554   1.017   2.960 -0.0958 -0.1026  0.0537
  756SOL    HW1 2267   2.655   1.020   2.974 -0.0262  2.0011 -0.9720
  756SOL    HW2 2268   2.513   0.928   2.991 -0.3854  3.2689 -3.6102
  757SOL     OW 2269   0.074   0.532   1.951 -0.1638  0.6635 -0.6077
  757SOL    HW1 2270   0.147   0.501   1.887 -1.4708 -0.4700 -1.4141
  757SOL    HW2 2271  -0.009   0.466   1.944 -3.4591 -2.7678  3.8738
  758SOL     OW 2272   2.303   0.131   1.517  0.2080  0.0958  0.3260
  758SOL    HW1 2273   2.269   0.031   1.536  0.5425 -2.6594  2.0018
  758SOL    HW2 2274   2.311   0.149   1.415 -0.1040  1.1537 -0.5647
  759SOL     OW 2275   1.710   0.121   0.033  0.1544  0.1290  0.0693
  759SOL    HW1 2276   1.657   0.079  -0.046 -0.7156  0.3016 -1.8103
  759SOL    HW2 2277   1.811   0.110   0.020 -1.1544  0.3978 -1.1293
  760SOL     OW 2278   2.704   2.066   2.822  0.1374  0.3423 -0.2396
  760SOL    HW1 2279   2.739   1.978   2.866 -0.6531  0.6784 -2.3391
  760SOL    HW2 2280   2.665   2.134   2.888  0.3414  0.5147  2.2349
  761SOL     OW 2281   1.875   1.718   1.705  0.5488 -0.8430  0.0667
  761SOL    HW1 2282   1.896   1.619   1.736 -0.2776 -0.7078 -1.8277
  761SOL    HW2 2283   1.815   1.717   1.619  0.7256 -2.7132  1.9231
  762SOL     OW 2284   0.516   2.348   0.956  0.2968  0.2535  0.1966
  762SOL    HW1 2285   0.550   2.364   0.858 -1.2416  1.8255  1.8006
  762SOL    HW2 2286   0.567   2.413   1.016  1.1785 -0.8439  1.1078
  763SOL     OW 2287   2.081   1.595   2.981  0.0041 -0.2531 -0.1012
  763SOL    HW1 2288   2.170   1.541   2.980 -0.0421  1.3546  2.3664
  763SOL    HW2 2289   2.004   1.551   3.031  0.7994  3.9951 -0.9412
  764SOL     OW 2290   0.677   0.641   0.813  0.4506 -0.1289  0.4360
  764SOL    HW1 2291   0.604   0.566   0.797  0.4978 -0.0762 -2.4040
  764SOL    HW2 2292   0.766   0.596   0.856  0.7166 -2.5118 -1.4167
  765SOL     OW 2293   0.727   0.223   0.773 -0.2478  0.1589  0.4752
  765SOL    HW1 2294   0.792   0.267   0.714 -1.0504  0.3344  1.4084
  765SOL    HW2 2295   0.711   0.263   0.871 -1.4621  3.0001 -2.3039
  766SOL     OW 2296   2.861   2.093   3.080  0.3096 -0.2450  0.2259
  766SOL    HW1 2297   2.769   2.082   3.134 -0.4999  1.4198  2.4669
  766SOL    HW2 2298   2.893   2.191   3.064 -2.1570 -1.7565  1.1843
  767SOL     OW 2299   2.764   1.633   0.595 -0.1118 -0.3735 -0.2350
  767SOL    HW1 2300   2.699   1.689   0.655 -0.1991 -2.5196  2.4119
  767SOL    HW2 2301   2.835   1.598   0.655 -1.4843 -0.5017  2.3987
  768SOL     OW 2302   1.009   0.065   0.263  1.2425  0.0924  0.1512
  768SOL    HW1 2303   0.973   0.067   0.361  0.9543  0.3618  3.4985
  768SOL    HW2 2304   1.109   0.036   0.262 -1.0254 -2.7381  1.8271
  769SOL     OW 2305   1.066   1.962   2.291 -0.6145 -0.0135 -0.4543
  769SOL    HW1 2306   0.973   1.957   2.332  1.7258 -0.5005  1.2783
  769SOL    HW2 2307   1.141   1.929   2.360  0.7855 -0.7028  1.2418
  770SOL     OW 2308   0.181   1.169   2.283 -0.1930 -0.5948  0.3330
  770SOL    HW1 2309   0.168   1.230   2.367 -0.3274 -2.5998  0.1601
  770SOL    HW2 2310   0.090   1.143   2.242 -2.2027  1.6996 -0.7175
  771SOL     OW 2311   2.974   2.835   1.882 -0.5461 -0.0427  0.3416
  771SOL    HW1 2312   2.921   2.883   1.804  1.3901 -1.3060 -0.5688
  771SOL    HW2 2313   2.957   2.885   1.971 -1.3199 -0.4380  0.0450
  772SOL     OW 2314   2.199   0.183   2.930 -0.3592  0.8864  0.0912
  772SOL    HW1 2315   2.282   0.118   2.917  1.2994 -2.5303 -0.5940
  772SOL    HW2 2316   2.208   0.244   3.011 -3.0291  1.1090 -0.3147
  773SOL     OW 2317   0.723   2.140   2.430 -0.1877 -0.2266 -0.8031
  773SOL    HW1 2318   0.690   2.188   2.343 -0.2105  3.1907  1.2252
  773SOL    HW2 2319   0.680   2.183   2.516 -2.0272  3.7201  0.8203
  774SOL     OW 2320   2.032   0.004   2.596  0.5795 -0.4447  0.0383
  774SOL    HW1 2321   2.028   0.095   2.649 -0.0274  2.2399  2.5538
  774SOL    HW2 2322   2.084  -0.063   2.648 -1.0958 -0.9659 -1.1870
  775SOL     OW 2323   2.546   2.907   2.365 -0.3376 -0.5602  0.5428
  775SOL    HW1 2324   2.534   3.010   2.338 -3.7678  1.5196 -0.3596
  775SOL    HW2 2325   2.620   2.894   2.442 -0.3108  0.2616  2.3954
  776SOL     OW 2326   0.021   1.233   0.197 -0.5522 -0.1685 -0.5331
  776SOL    HW1 2327  -0.026   1.190   0.114  0.4797  1.3323 -0.0937
  776SOL    HW2 2328  -0.043   1.240   0.276 -0.3084  2.5266  1.6887
  777SOL     OW 2329   0.329   2.836   0.387  0.6471  0.3611  0.6235
  777SOL    HW1 2330   0.235   2.869   0.365  3.9212 -0.3427  2.2639
  777SOL    HW2 2331   0.407   2.883   0.340  1.1231 -1.3133  0.8605
  778SOL     OW 2332   1.360   1.945   0.180  0.4393 -0.5033  0.1757
  778SOL    HW1 2333   1.286   1.967   0.256 -3.3012 -2.1101  0.8072
  778SOL    HW2 2334   1.413   2.030   0.159  0.0283 -0.2780  0.2047
  779SOL     OW 2335   0.182   0.862   0.483 -0.0083  0.1252  0.3476
  779SOL    HW1 2336   0.123   0.775   0.479 -1.1873 -0.6328 -0.1883
  779SOL    HW2 2337   0.127   0.940   0.526 -0.3628 -1.5820 -2.5896
  780SOL     OW 2338   0.084   0.210   2.336 -0.2075 -0.4379 -0.8602
  780SOL    HW1 2339   0.026   0.284   2.380  4.0161  1.3886 -2.0671
  780SOL    HW2 2340   0.176   0.247   2.300  0.8348 -3.2411 -2.3436
  781SOL     OW 2341   0.659   1.683   1.532 -0.5155  0.8156 -0.3469
  781SOL    HW1 2342   0.753   1.648   1.559 -1.6176  0.5532 -0.1615
  781SOL    HW2 2343   0.584   1.629   1.575  0.5954  0.0711  2.9007
  782SOL     OW 2344   2.599   0.074   0.931 -0.0569  0.3006 -0.1797
  782SOL    HW1 2345   2.530   0.076   0.847 -3.0574  0.7760  1.3527
  782SOL    HW2 2346   2.578   0.153   0.991 -2.1884 -1.9638 -0.8174
  783SOL     OW 2347   2.865   0.746   2.534  0.0058  0.1567  0.3191
  783SOL    HW1 2348   2.813   0.799   2.613 -3.5007  1.1090  1.6743
  783SOL    HW2 2349   2.814   0.659   2.502  2.1222 -2.1774 -1.5882
  784SOL     OW 2350   1.446   2.216   0.096  0.3611  0.1732 -0.2894
  784SOL    HW1 2351   1.525   2.273   0.135  2.0095 -1.1660  0.9072
  784SOL    HW2 2352   1.430   2.240  -0.001  1.3767  0.8440  2.7615
  785SOL     OW 2353   2.122   0.339   0.073  0.1660 -0.8728  0.0250
  785SOL    HW1 2354   2.047   0.345   0.150  0.6168  0.3841 -2.2436
  785SOL    HW2 2355   2.123   0.425   0.010  0.1690 -0.0948 -1.5945
  786SOL     OW 2356   2.018   2.184   2.245 -0.4217 -0.4528 -0.0931
  786SOL    HW1 2357   2.010   2.100   2.300 -2.4910 -3.7220  0.2470
  786SOL    HW2 2358   2.107   2.187   2.190  1.5609  1.6209 -0.8460
  787SOL     OW 2359   1.364   0.532   1.007 -0.0384  0.4930  0.9749
  787SOL    HW1 2360   1.302   0.612   1.023  0.2650  0.5467  1.6289
  787SOL    HW2 2361   1.416   0.535   0.917  1.5984 -0.8982 -1.6688
  788SOL     OW 2362   1.283   0.384   0.068 -0.0968 -0.2992  0.2725
  788SOL    HW1 2363   1.185   0.371   0.024 -2.1403  2.4450 -0.5220
  788SOL    HW2 2364   1.283   0.474   0.121 -2.3791  0.6629 -0.9966
  789SOL     OW 2365   2.575   0.097   1.905 -0.1762  0.6054 -1.1296
  789SOL    HW1 2366   2.503   0.171   1.893  0.4217 -1.2376  1.5311
  789SOL    HW2 2367   2.557   0.012   1.852  1.1841 -3.4652 -1.1226
  790SOL     OW 2368   2.684   2.776   0.807  0.1104  0.2961 -0.1824
  790SOL    HW1 2369   2.755   2.825   0.748  1.0714  1.5839 -2.6815
  790SOL    HW2 2370   2.650   2.817   0.894 -1.3615  0.5242 -3.3747
  791SOL     OW 2371   1.935   1.203   0.201  0.1817 -0.5323  0.5694
  791SOL    HW1 2372   1.852   1.142   0.228  1.8380 -0.5890 -2.0935
  791SOL    HW2 2373   2.025   1.167   0.233  1.0098  2.3754 -1.5760
  792SOL     OW 2374   0.427   1.923   2.174  0.1806  0.8517 -0.3800
  792SOL    HW1 2375   0.508   1.872   2.214  0.5300  3.2738 -0.3807
  792SOL    HW2 2376   0.359   1.949   2.245  1.9247 -1.1825 -1.1886
  793SOL     OW 2377   2.076   1.569   2.135 -0.0614  0.4787  0.6322
  793SOL    HW1 2378   2.171   1.613   2.117 -0.8774  0.7031 -2.6961
  793SOL    HW2 2379   2.070   1.468   2.107  0.4779 -1.5813 -1.7288
  794SOL     OW 2380   0.492   1.353   2.378 -0.5983 -0.5430  0.1550
  794SOL    HW1 2381   0.465   1.297   2.293 -2.3347 -0.6202 -0.8919
  794SOL    HW2 2382   0.450   1.449   2.372  1.1558  1.0715  1.0348
  795SOL     OW 2383   2.493   2.270   1.855 -0.3122  0.3988 -0.7025
  795SOL    HW1 2384   2.492   2.225   1.949 -1.3964  2.6284  0.4101
  795SOL    HW2 2385   2.439   2.221   1.781 -1.1601 -0.9718 -0.4905
  796SOL     OW 2386   3.038   1.133   2.685 -0.0339 -0.2712  0.3427
  796SOL    HW1 2387   2.936   1.131   2.713  0.2859  1.0988 -0.8435
  796SOL    HW2 2388   3.101   1.144   2.773 -0.0551  1.0786 -0.2065
  797SOL     OW 2389   0.785   0.640   1.391  0.0253  0.0805  0.3182
  797SOL    HW1 2390   0.862   0.683   1.447 -0.9592 -1.3120  0.5536
  797SOL    HW2 2391   0.717   0.712   1.354 -0.3078 -1.7307 -0.6347
  798SOL     OW 2392   1.319   0.290   1.122  0.1742 -0.0552 -0.9402
  798SOL    HW1 2393   1.322   0.295   1.233 -2.2961 -0.1860  2.5726
  798SOL    HW2 2394   1.329   0.384   1.080 -0.1273  0.6367 -0.2155
  799SOL     OW 2395   1.904   2.745   1.040  0.1616 -0.1258  0.0666
  799SOL    HW1 2396   1.903   2.696   1.137 -2.2282  1.2042  2.1987
  799SOL    HW2 2397   1.835   2.701   0.981 -1.7550  1.1516  0.2785
  800SOL     OW 2398   2.982   0.708   1.862 -0.3499  0.7366  0.1927
  800SOL    HW1 2399   2.954   0.799   1.899 -0.3325  1.3449  0.7017
  800SOL    HW2 2400   3.051   0.664   1.927 -0.5289 -0.7107 -0.7437
  801SOL     OW 2401   1.938   2.224   0.083  0.0957 -0.2637 -0.6071
  801SOL    HW1 2402   1.857   2.181   0.029 -1.8382 -0.4568 -1.8886
  801SOL    HW2 2403   2.031   2.194   0.051 -0.1716  2.0593  3.2175
  802SOL     OW 2404   0.676   0.797   2.540 -0.0388 -0.3160 -0.2857
  802SOL    HW1 2405   0.733   0.767   2.460  0.2074  0.7207 -1.2294
  802SOL    HW2 2406   0.578   0.828   2.516  1.9220  0.9408 -0.7525
  803SOL     OW 2407   0.964   0.043   0.829  0.6452 -0.0478  0.5862
  803SOL    HW1 2408   1.039   0.096   0.884  2.1683  1.1432  0.9049
  803SOL    HW2 2409   0.905   0.102   0.766  0.2222 -1.4547 -2.4635
  804SOL     OW 2410   0.307   0.045   2.149 -0.0816 -0.1734  0.5173
  804SOL    HW1 2411   0.335   0.143   2.164 -0.5924 -0.4181 -1.0456
  804SOL    HW2 2412   0.264   0.031   2.056  1.8075  0.5786  0.0969
  805SOL     OW 2413   2.357   0.335   0.377 -0.3707  0.1145  0.8285
  805SOL    HW1 2414   2.444   0.386   0.408  1.8123 -0.9634  1.3385
  805SOL    HW2 2415   2.372   0.299   0.279 -0.5094 -0.0110  0.7808
  806SOL     OW 2416   0.641   2.441   1.781  0.4508 -0.0441 -0.0124
  806SOL    HW1 2417   0.647   2.546   1.784  0.7632 -0.7991 -0.7111
  806SOL    HW2 2418   0.687   2.399   1.698  0.3003  0.2264 -0.3752
  807SOL     OW 2419   2.489   0.846   0.358 -0.0165  0.0002 -0.1462
  807SOL    HW1 2420   2.538   0.877   0.441  0.4775  0.8413  0.5199
  807SOL    HW2 2421   2.465   0.928   0.296 -1.0163 -1.8502 -2.4499
  808SOL     OW 2422   0.596   2.079   2.906 -0.1322 -0.1093  0.6393
  808SOL    HW1 2423   0.554   2.165   2.949  0.0339 -0.0267 -1.7585
  808SOL    HW2 2424   0.566   1.990   2.952  1.9648  0.6829  2.6135
  809SOL     OW 2425   2.686   1.984   1.900 -0.6523 -0.5829 -0.4243
  809SOL    HW1 2426   2.768   2.039   1.930 -0.5073 -1.0579 -1.7109
  809SOL    HW2 2427   2.664   1.986   1.799 -0.9801  2.6059  0.0064
  810SOL     OW 2428   2.105   1.044   0.557  0.1047  0.4046  0.9285
  810SOL    HW1 2429   2.143   0.973   0.616  1.6290 -0.2662 -1.1821
  810SOL    HW2 2430   2.099   1.142   0.592 -1.4617 -0.4635 -0.0158
  811SOL     OW 2431   1.333   2.499   1.175 -0.0323  0.3770 -0.2829
  811SOL    HW1 2432   1.281   2.410   1.194  1.1720 -1.3526 -0.3929
  811SOL    HW2 2433   1.284   2.583   1.204 -1.1729 -2.8665 -0.2754
  812SOL     OW 2434   1.411   0.749   1.964 -0.4262 -0.1248 -0.5249
  812SOL    HW1 2435   1.492   0.818   1.984  0.6487  1.2450  2.7866
  812SOL    HW2 2436   1.312   0.790   1.970 -0.8013  0.0288  1.5061
  813SOL     OW 2437   1.704   2.043   2.495 -0.0210  0.2854 -0.1520
  813SOL    HW1 2438   1.759   1.963   2.511 -2.2125  1.3521  1.5071
  813SOL    HW2 2439   1.656   2.044   2.404  0.7262  0.5239 -0.3195
  814SOL     OW 2440   2.902   1.553   2.824  0.1173 -0.1257 -0.3796
  814SOL    HW1 2441   2.980   1.510   2.877 -2.0465 -0.8726  1.1734
  814SOL    HW2 2442   2.927   1.651   2.791  1.4196  0.1242 -1.5910
  815SOL     OW 2443   2.140   2.905   2.777  0.5168 -0.1270  0.2668
  815SOL    HW1 2444   2.135   2.829   2.851  0.4737 -1.7016  0.7077
  815SOL    HW2 2445   2.201   2.980   2.808 -2.2986  1.6767 -1.8014
  816SOL     OW 2446   1.645   0.332   1.598 -0.0709  0.0663 -0.2154
  816SOL    HW1 2447   1.691   0.251   1.639 -1.0388 -1.5968  1.2751
  816SOL    HW2 2448   1.564   0.360   1.659  0.1571 -2.4582 -1.1206
  817SOL     OW 2449   0.376   1.181   2.562 -0.2206 -0.1389  0.0994
  817SOL    HW1 2450   0.276   1.211   2.553 -0.9077 -2.4353  0.3360
  817SOL    HW2 2451   0.439   1.242   2.507  2.9148 -1.2581  0.8968
  818SOL     OW 2452   1.884   0.884   0.430 -0.2239  0.5079 -0.4105
  818SOL    HW1 2453   1.946   0.957   0.472  1.1873  1.5159 -0.3034
  818SOL    HW2 2454   1.795   0.885   0.475  1.4800 -1.1117 -0.9217
  819SOL     OW 2455   2.738   2.968   2.968  0.1122 -0.0565 -0.4151
  819SOL    HW1 2456   2.806   2.891   2.956 -0.2092 -2.6655 -0.8013
  819SOL    HW2 2457   2.644   2.950   2.927 -0.6889 -0.9868 -1.4849
  820SOL     OW 2458   1.256   1.063   0.665 -0.1265 -0.4802 -0.4999
  820SOL    HW1 2459   1.226   1.155   0.703 -1.6535  1.6772 -0.5938
  820SOL    HW2 2460   1.232   0.981   0.723 -2.3525  1.9956 -1.6313
  821SOL     OW 2461   3.086   1.310   0.671  0.0621 -0.6169  0.1821
  821SOL    HW1 2462   3.068   1.327   0.774  0.6450 -1.2157  5.0189
  821SOL    HW2 2463   3.173   1.365   0.644  1.1835 -1.1571  0.3069
  822SOL     OW 2464   2.558   1.707   2.417 -0.0081 -0.0091 -0.1675
  822SOL    HW1 2465   2.565   1.769   2.498 -1.6956 -1.0001 -1.7327
  822SOL    HW2 2466   2.492   1.744   2.346 -0.2338  0.8725 -0.2122
  823SOL     OW 2467   2.084   0.907   1.211 -0.2919  0.1050 -0.1383
  823SOL    HW1 2468   2.043   0.902   1.307 -0.8044  0.0018 -0.9790
  823SOL    HW2 2469   2.029   0.965   1.143 -3.8218 -0.6689 -2.4540
  824SOL     OW 2470   0.245   2.045   2.789  0.2343  0.0425  0.1586
  824SOL    HW1 2471   0.204   1.964   2.836  2.0789  0.0921  0.8942
  824SOL    HW2 2472   0.326   2.016   2.732  1.4328 -1.4736  0.0226
  825SOL     OW 2473   1.293   1.129   0.277 -0.0337  0.2100  0.4395
  825SOL    HW1 2474   1.320   1.227   0.248 -1.1538  0.7330 -0.4568
  825SOL    HW2 2475   1.233   1.131   0.364 -0.0773 -0.6197 -1.5940
  826SOL     OW 2476   1.900   0.691   1.624 -0.4558 -0.4047 -0.4242
  826SOL    HW1 2477   1.990   0.639   1.638 -0.8679 -1.9077  0.2366
  826SOL    HW2 2478   1.836   0.640   1.560  2.5693 -1.7625 -1.0186
  827SOL     OW 2479   0.676   1.177   0.210 -0.0189 -0.0260 -0.4449
  827SOL    HW1 2480   0.746   1.166   0.138 -0.8773 -0.0154 -1.5113
  827SOL    HW2 2481   0.621   1.091   0.215 -2.7098 -0.1770  1.4793
  828SOL     OW 2482   2.567   0.119   1.571  0.0830  0.4776  0.1400
  828SOL    HW1 2483   2.464   0.126   1.547 -2.2027  0.1564  2.4412
  828SOL    HW2 2484   2.575   0.069   1.661  1.0223  2.9136  0.4606
  829SOL     OW 2485   2.759   2.499   3.035  0.1651 -0.3020 -0.3336
  829SOL    HW1 2486   2.669   2.446   3.028 -0.2150  1.5338 -4.0423
  829SOL    HW2 2487   2.747   2.595   3.082  1.0742 -0.5306  2.1824
  830SOL     OW 2488   2.832   0.935   3.031 -0.5597  0.3631  0.9665
  830SOL    HW1 2489   2.874   1.021   3.066  0.0507 -0.2283  3.0520
  830SOL    HW2 2490   2.864   0.851   3.081  0.2399 -1.3330 -0.2694
  831SOL     OW 2491   0.011   0.649   0.398 -0.2876  0.3921 -0.2153
  831SOL    HW1 2492  -0.009   0.585   0.474  0.1231 -0.4320 -0.8145
  831SOL    HW2 2493   0.043   0.593   0.316 -1.0372 -0.1715  0.1553
  832SOL     OW 2494   1.804   0.748   2.990  0.3568  0.1884 -0.2472
  832SOL    HW1 2495   1.706   0.790   2.987 -0.5425 -0.7586  3.3285
  832SOL    HW2 2496   1.809   0.649   3.024  0.7249  0.1516  0.2209
  833SOL     OW 2497   2.474   2.148   0.544 -0.3082 -0.3053 -0.5657
  833SOL    HW1 2498   2.398   2.160   0.472 -0.9243 -0.8521 -0.7480
  833SOL    HW2 2499   2.503   2.049   0.547 -0.6739 -1.3720  1.2589
  834SOL     OW 2500   0.209   0.214   0.498 -0.1487 -0.3152 -0.4879
  834SOL    HW1 2501   0.191   0.142   0.566  3.4989  1.9500 -3.4424
  834SOL    HW2 2502   0.167   0.198   0.403 -0.2735  3.2957 -1.7914
  835SOL     OW 2503   2.328   1.573   1.093 -0.3602  0.5150 -0.2958
  835SOL    HW1 2504   2.301   1.673   1.097 -3.2063 -1.5013 -0.5877
  835SOL    HW2 2505   2.423   1.555   1.043  0.5138 -0.7867 -2.4043
  836SOL     OW 2506   1.604   0.835   2.574  0.1827 -0.1756  0.2198
  836SOL    HW1 2507   1.504   0.814   2.578  3.2323  1.0112  0.9351
  836SOL    HW2 2508   1.644   0.835   2.479 -2.4603  1.6625  1.8621
  837SOL     OW 2509   1.710   0.131   0.548  0.0832  0.1579 -0.2801
  837SOL    HW1 2510   1.646   0.181   0.609 -1.5224  0.5133  0.3944
  837SOL    HW2 2511   1.677   0.123   0.450  0.4080 -0.1384  0.2323
  838SOL     OW 2512   1.171   1.547   2.816 -0.2418  0.0662  0.1934
  838SOL    HW1 2513   1.146   1.520   2.914  2.1102 -0.2768  1.4224
  838SOL    HW2 2514   1.111   1.503   2.743 -0.9323  1.2925 -0.3903
  839SOL     OW 2515   1.689   0.319   1.037  0.0000 -0.2708 -0.0401
  839SOL    HW1 2516   1.711   0.401   1.097  0.9227  0.1072  1.0012
  839SOL    HW2 2517   1.613   0.263   1.074 -0.9042  2.0573  2.6098
  840SOL     OW 2518   2.517   2.957   1.746  0.3246 -0.5566 -0.1150
  840SOL    HW1 2519   2.466   2.895   1.684  1.8966  0.5832  2.6330
  840SOL    HW2 2520   2.546   2.901   1.830  1.3426 -0.3007 -0.0950
  841SOL     OW 2521   1.526   0.830   2.959 -0.5602  0.1180  0.1643
  841SOL    HW1 2522   1.460   0.854   3.030  3.1511  1.6950 -2.5940
  841SOL    HW2 2523   1.534   0.902   2.888 -1.0125 -1.8620  0.7131
  842SOL     OW 2524   0.788   1.550   0.955 -0.2207  0.4204  0.4071
  842SOL    HW1 2525   0.766   1.636   1.012  1.0572  0.6963 -1.6173
  842SOL    HW2 2526   0.704   1.488   0.938  1.0277 -3.0104  1.2382
  843SOL     OW 2527   0.053   0.048   1.396  0.3824  0.5170  0.9271
  843SOL    HW1 2528   0.148   0.086   1.407  1.0332  1.6230 -0.4011
  843SOL    HW2 2529   0.033  -0.043   1.448  0.6836 -1.6720 -0.2190
  844SOL     OW 2530   0.813   2.544   0.294 -0.3246  0.5198  0.4421
  844SOL    HW1 2531   0.747   2.511   0.367 -0.2994 -2.7948  1.5489
  844SOL    HW2 2532   0.769   2.607   0.226  0.4047  0.6965 -2.5439
  845SOL     OW 2533   1.642   2.896   1.359  0.1933 -0.3211 -0.0611
  845SOL    HW1 2534   1.703   2.903   1.443 -1.3576  3.3116  2.3322
  845SOL    HW2 2535   1.545   2.869   1.387 -2.0248  2.4994 -0.3897
  846SOL     OW 2536   1.554   2.904   0.687 -0.7350  0.4085  0.8795
  846SOL    HW1 2537   1.607   2.870   0.602 -1.6165  1.0593  0.4819
  846SOL    HW2 2538   1.612   2.922   0.773 -1.5035  2.2372 -0.8701
  847SOL     OW 2539   2.060   1.658   0.305 -0.5584  0.2099  0.0602
  847SOL    HW1 2540   2.014   1.572   0.342  0.9204 -1.8423  0.1276
  847SOL    HW2 2541   1.984   1.732   0.283  1.5585 -1.0000 -1.7546
  848SOL     OW 2542   2.446   0.865   2.580  0.3192 -0.2616 -0.0956
  848SOL    HW1 2543   2.405   0.944   2.637  0.7613  1.0160 -0.1645
  848SOL    HW2 2544   2.386   0.784   2.605  0.2201 -0.5076  1.9906
  849SOL     OW 2545   2.590   0.807   2.346  0.2167  0.0530 -0.2357
  849SOL    HW1 2546   2.694   0.785   2.347 -0.4247 -2.2350 -0.7839
  849SOL    HW2 2547   2.546   0.819   2.439 -1.5075 -1.7727  0.1088
  850SOL     OW 2548   1.548   0.095   1.347 -0.5034  0.0416  0.1234
  850SOL    HW1 2549   1.531   0.083   1.243 -0.6802  0.6090  0.7991
  850SOL    HW2 2550   1.500   0.011   1.386  2.6343 -0.0176 -1.1270
  851SOL     OW 2551   0.455   1.804   0.596 -0.1406  0.1329 -0.0065
  851SOL    HW1 2552   0.506   1.885   0.633 -1.9282 -1.5336  1.3572
  851SOL    HW2 2553   0.508   1.745   0.530  0.8290 -0.2516  0.9404
  852SOL     OW 2554   0.779   2.124   1.655  0.0659  0.4772 -0.2908
  852SOL    HW1 2555   0.782   2.224   1.628 -5.7458 -1.1021  1.2357
  852SOL    HW2 2556   0.708   2.109   1.729 -0.6509  2.1101 -1.0120
  853SOL     OW 2557   2.576   1.481   2.600  0.2891  0.2100 -0.4479
  853SOL    HW1 2558   2.505   1.409   2.577 -0.7335 -0.0449 -0.7362
  853SOL    HW2 2559   2.561   1.559   2.538  0.7620  0.9408  2.4655
  854SOL     OW 2560   2.380   1.408   1.727  0.1228  0.1640 -0.6213
  854SOL    HW1 2561   2.426   1.351   1.650  1.7273 -5.5066  0.2250
  854SOL    HW2 2562   2.294   1.362   1.754  1.6480 -0.4032  1.3546
  855SOL     OW 2563   2.022   2.431   0.980  0.5927 -0.0439 -0.4873
  855SOL    HW1 2564   2.035   2.512   0.918 -0.3580 -1.5659  0.7070
  855SOL    HW2 2565   2.079   2.419   1.067 -3.3605  0.8778 -1.1374
  856SOL     OW 2566   1.358   1.497   0.925 -0.0277 -0.1940 -0.5153
  856SOL    HW1 2567   1.419   1.565   0.971  1.9970 -1.3748 -0.1783
  856SOL    HW2 2568   1.261   1.498   0.963  2.3722  1.0623 -1.5736
  857SOL     OW 2569   3.046   2.693   1.012 -0.4233  0.2955  0.5283
  857SOL    HW1 2570   3.034   2.647   0.924 -1.5053 -2.1311  0.7728
  857SOL    HW2 2571   3.136   2.666   1.058 -2.3682  0.0428  2.7408
  858SOL     OW 2572   2.337   2.039   1.695  0.0012 -1.0125  0.1016
  858SOL    HW1 2573   2.253   2.002   1.642 -2.7298 -0.2647 -2.8269
  858SOL    HW2 2574   2.424   1.984   1.683  0.0397  0.2077  0.3477
  859SOL     OW 2575   2.481   0.545   1.013  0.6134  0.0410  0.0364
  859SOL    HW1 2576   2.542   0.602   0.953 -0.8980  0.9522  2.0015
  859SOL    HW2 2577   2.524   0.457   1.041 -1.7083  1.8845  0.0267
  860SOL     OW 2578   1.949   2.822   0.424  0.0445  0.3071 -0.4696
  860SOL    HW1 2579   1.895   2.788   0.345  0.6720  0.0603  2.1508
  860SOL    HW2 2580   2.046   2.787   0.410  5.0250  1.9338 -2.6557
  861SOL     OW 2581   1.083   2.450   2.875  0.8604  0.4963 -0.3662
  861SOL    HW1 2582   1.105   2.550   2.850  2.5087 -0.0792 -0.0060
  861SOL    HW2 2583   1.097   2.429   2.979 -1.3552  0.1443  0.6609
  862SOL     OW 2584   2.824   2.580   1.607  0.3206 -0.1504  0.2408
  862SOL    HW1 2585   2.915   2.614   1.648  1.0533  1.6918 -1.6295
  862SOL    HW2 2586   2.786   2.649   1.538 -0.3052  2.1361  1.5406
  863SOL     OW 2587   1.842   2.732   0.176 -0.1294 -0.5172 -0.1155
  863SOL    HW1 2588   1.898   2.641   0.177  0.4198  0.2086 -2.8429
  863SOL    HW2 2589   1.740   2.709   0.160 -0.8374 -2.6688  1.0352
  864SOL     OW 2590   1.907   1.192   2.863 -0.2587  0.0820 -0.4156
  864SOL    HW1 2591   1.913   1.140   2.771  0.3908  1.3880 -1.4965
  864SOL    HW2 2592   1.982   1.167   2.930 -0.1372 -3.0590  0.5963
  865SOL     OW 2593   2.213   1.809   0.628 -0.0169 -0.4097 -0.2268
  865SOL    HW1 2594   2.267   1.860   0.701 -0.4523  0.4788  1.1279
  865SOL    HW2 2595   2.112   1.803   0.649  1.0488 -4.4543 -1.7087
  866SOL     OW 2596   2.877   2.909   1.025 -0.1222 -0.5882  0.0539
  866SOL    HW1 2597   2.894   2.975   0.947  1.4277  2.0024  0.7493
  866SOL    HW2 2598   2.917   2.818   1.003  2.6253  1.8290 -1.8094
  867SOL     OW 2599   0.311   1.374   0.894 -0.3373 -0.7193  0.4204
  867SOL    HW1 2600   0.283   1.294   0.839 -1.2999  3.4471 -0.2159
  867SOL    HW2 2601   0.292   1.466   0.843  0.7956  0.9220  1.0775
  868SOL     OW 2602   0.763   1.881   1.984 -0.6517 -0.3344 -0.4795
  868SOL    HW1 2603   0.721   1.866   2.080 -3.8569 -1.1672  0.0439
  868SOL    HW2 2604   0.725   1.957   1.930 -1.7546 -1.6438 -0.1630
  869SOL     OW 2605   2.567   1.919   1.629  0.1633  0.5299 -0.5751
  869SOL    HW1 2606   2.637   1.994   1.604 -3.3510  1.2457  1.5627
  869SOL    HW2 2607   2.612   1.829   1.641  0.9401  3.2355  0.2795
  870SOL     OW 2608   2.213   2.632   1.247 -0.1090 -0.6299  0.0879
  870SOL    HW1 2609   2.213   2.550   1.189 -1.2429  4.6072  2.7724
  870SOL    HW2 2610   2.238   2.609   1.344  0.9203 -3.6217 -1.2708
  871SOL     OW 2611   3.024   2.212   0.512  0.0213  0.2499  0.1845
  871SOL    HW1 2612   2.968   2.253   0.588 -2.7000 -1.7030 -1.7724
  871SOL    HW2 2613   2.993   2.250   0.420 -0.1657  1.5132  1.0134
  872SOL     OW 2614   2.105   0.537   1.692 -0.1469  0.0210 -0.0163
  872SOL    HW1 2615   2.056   0.507   1.777 -1.8754 -1.6872 -1.0041
  872SOL    HW2 2616   2.207   0.510   1.685  0.3407 -1.7138 -1.1384
  873SOL     OW 2617   1.727   2.116   3.061  0.3104 -0.4134 -0.3809
  873SOL    HW1 2618   1.636   2.125   3.112  0.5836  2.9318 -0.3430
  873SOL    HW2 2619   1.716   2.121   2.955 -0.4036  3.6186 -1.8560
  874SOL     OW 2620   0.685   2.472   0.772  0.3035 -0.1107  0.2828
  874SOL    HW1 2621   0.683   2.571   0.806  4.1242  2.5949 -0.3881
  874SOL    HW2 2622   0.781   2.432   0.782 -1.5113 -1.7919 -3.4336
  875SOL     OW 2623   2.342   1.481   1.400  0.1452  0.2661 -0.3289
  875SOL    HW1 2624   2.408   1.541   1.452  1.6242  0.8227  1.3171
  875SOL    HW2 2625   2.372   1.459   1.311  0.0638  0.3987  1.8860
  876SOL     OW 2626   0.069   2.249   2.752  0.2996 -0.6442 -0.0989
  876SOL    HW1 2627   0.134   2.173   2.776 -2.3696  3.6101  0.7931
  876SOL    HW2 2628   0.111   2.345   2.767  1.6897 -1.9535 -0.2482
  877SOL     OW 2629   2.904   2.666   0.576  0.1113 -0.0660  0.3895
  877SOL    HW1 2630   2.894   2.765   0.596 -0.9066  0.7528 -0.0775
  877SOL    HW2 2631   2.951   2.616   0.656  1.0718  0.3950  2.3076
  878SOL     OW 2632   2.771   1.482   2.259 -0.2097  0.0542 -0.4119
  878SOL    HW1 2633   2.815   1.561   2.206  0.0972 -1.9486  0.3189
  878SOL    HW2 2634   2.804   1.480   2.359 -2.4412  0.1459  1.4241
  879SOL     OW 2635   2.394   0.118   1.230 -0.4400  0.0055 -0.4969
  879SOL    HW1 2636   2.427   0.027   1.273  0.7383 -0.7376  2.3130
  879SOL    HW2 2637   2.336   0.103   1.145 -1.0659 -1.7911  0.7415
  880SOL     OW 2638   0.768   0.483   2.219  0.1447  0.3783 -0.1931
  880SOL    HW1 2639   0.679   0.457   2.270 -1.6238 -0.5563  0.6371
  880SOL    HW2 2640   0.807   0.406   2.159 -0.4480 -0.1329 -1.2849
  881SOL     OW 2641   0.895   0.043   0.512 -0.6066 -0.1203 -0.5865
  881SOL    HW1 2642   0.946  -0.044   0.517 -1.9999  3.1389  0.3488
  881SOL    HW2 2643   0.795   0.023   0.498 -0.0559  4.3065  0.2368
  882SOL     OW 2644   2.702   1.680   1.688 -0.0869 -0.1757 -0.0535
  882SOL    HW1 2645   2.793   1.639   1.661  0.3217  0.6571  2.0945
  882SOL    HW2 2646   2.705   1.710   1.792  2.3434  0.0792  2.0900
  883SOL     OW 2647   0.897   0.529   0.935 -0.1778  0.6324 -0.0011
  883SOL    HW1 2648   0.905   0.608   1.001  2.0575  2.0042 -0.2949
  883SOL    HW2 2649   0.895   0.439   0.983  0.2394  1.9961 -0.2218
  884SOL     OW 2650   1.163   1.727   1.185  0.1982 -0.1445 -0.1454
  884SOL    HW1 2651   1.140   1.665   1.101  0.0272 -1.8750 -1.7369
  884SOL    HW2 2652   1.157   1.823   1.154  0.1713  0.1856  0.3796
  885SOL     OW 2653   2.328   1.782   2.292 -0.6095  0.3729  0.3695
  885SOL    HW1 2654   2.249   1.743   2.343  1.4510 -1.2434 -0.6956
  885SOL    HW2 2655   2.311   1.876   2.248  4.3591  2.1365  0.1486
  886SOL     OW 2656   2.605   0.368   1.803  0.0965  0.5212  0.0171
  886SOL    HW1 2657   2.657   0.282   1.830  0.5420 -0.1036  1.9197
  886SOL    HW2 2658   2.670   0.447   1.799 -0.9617 -1.3142 -0.7705
  887SOL     OW 2659   0.111   1.971   1.351  0.2001  0.3480  0.1199
  887SOL    HW1 2660   0.066   1.906   1.285 -1.3124 -0.0570  0.7481
  887SOL    HW2 2661   0.071   2.067   1.353 -0.4754  1.1060  1.6195
  888SOL     OW 2662   0.573   1.211   1.544 -0.1679 -0.2321 -0.3132
  888SOL    HW1 2663   0.584   1.257   1.452 -0.1820 -2.0058 -0.4380
  888SOL    HW2 2664   0.514   1.128   1.542  2.3507  2.3762  0.4058
  889SOL     OW 2665   0.823   2.478   2.183 -0.3762 -0.0887 -0.9497
  889SOL    HW1 2666   0.740   2.419   2.183 -1.3097  0.2741  2.5854
  889SOL    HW2 2667   0.881   2.472   2.102  1.2457 -5.8564  1.5025
  890SOL     OW 2668   2.425   2.414   0.231  0.1266  0.1148  0.0064
  890SOL    HW1 2669   2.500   2.468   0.186 -2.3526  0.4141 -2.1052
  890SOL    HW2 2670   2.373   2.475   0.297  1.1031 -1.6315  1.9151
  891SOL     OW 2671   2.530   1.724   0.699  0.8648  0.3708  0.6818
  891SOL    HW1 2672   2.531   1.672   0.794 -0.8605 -1.6843  1.9855
  891SOL    HW2 2673   2.473   1.663   0.631 -2.3598 -0.3769 -1.1280
  892SOL     OW 2674   0.356   0.302   2.249 -0.1687  0.4194 -0.1314
  892SOL    HW1 2675   0.382   0.371   2.179 -2.3934 -2.1633 -0.1723
  892SOL    HW2 2676   0.415   0.310   2.334  0.8244  1.5117 -0.7896
  893SOL     OW 2677   1.675   0.251   2.727  0.3448 -0.5397  0.1961
  893SOL    HW1 2678   1.751   0.315   2.759 -1.8761  1.5809  1.7265
  893SOL    HW2 2679   1.583   0.293   2.715  1.4300 -2.4883  0.7669
  894SOL     OW 2680   2.140   2.032   0.026 -1.0798  0.0221 -0.3680
  894SOL    HW1 2681   2.102   1.986  -0.059 -1.1042 -0.4616  3.8612
  894SOL    HW2 2682   2.176   1.958   0.091  0.7220  0.6636 -1.3287
  895SOL     OW 2683   2.826   1.438   0.951  0.2806 -0.3492  0.0598
  895SOL    HW1 2684   2.897   1.358   0.956 -1.3864 -1.2160  1.9484
  895SOL    HW2 2685   2.867   1.526   0.976  0.3300  0.1467 -0.2632
  896SOL     OW 2686   1.737   1.806   1.189  1.0459 -0.2163 -0.0438
  896SOL    HW1 2687   1.768   1.742   1.112  0.4723  0.6276 -0.5499
  896SOL    HW2 2688   1.671   1.882   1.159 -0.5203  0.7947  0.4204
  897SOL     OW 2689   0.314   0.546   3.057  0.2817 -0.0903 -0.0266
  897SOL    HW1 2690   0.262   0.587   2.977 -2.0078 -1.7151  0.6605
  897SOL    HW2 2691   0.413   0.580   3.064 -0.1304 -1.3749  0.1350
  898SOL     OW 2692   0.547   2.873   1.082 -0.2145 -0.1654  0.2813
  898SOL    HW1 2693   0.537   2.970   1.117  1.0505 -0.0671 -0.2755
  898SOL    HW2 2694   0.626   2.828   1.126 -0.8308  1.2958  2.3691
  899SOL     OW 2695   2.825   0.914   1.267 -0.2274  0.3282 -0.2522
  899SOL    HW1 2696   2.746   0.927   1.199 -1.5093  1.6683 -2.1183
  899SOL    HW2 2697   2.923   0.938   1.239  0.9705  1.4021 -0.0477
  900SOL     OW 2698   0.983   2.536   2.407  0.9163  0.0202  0.4276
  900SOL    HW1 2699   0.908   2.505   2.339 -0.7040  0.8221 -0.4375
  900SOL    HW2 2700   0.959   2.544   2.501 -0.4544  3.4982  0.3407
  901SOL     OW 2701   1.897   2.343   1.366  0.1350  0.0537 -0.0176
  901SOL    HW1 2702   1.875   2.297   1.274  1.6923  1.8377 -0.9513
  901SOL    HW2 2703   2.000   2.332   1.392  0.6470  0.8791 -0.8196
  902SOL     OW 2704   2.559   1.658   1.452  0.0356 -0.0851  0.5162
  902SOL    HW1 2705   2.592   1.663   1.551  0.7861  3.3336  0.4723
  902SOL    HW2 2706   2.631   1.619   1.391  0.8405  3.1741  1.8976
  903SOL     OW 2707   0.247   2.466   1.978  0.1710 -0.3896 -0.1922
  903SOL    HW1 2708   0.166   2.412   1.942 -1.3917  0.5003  0.2456
  903SOL    HW2 2709   0.287   2.539   1.917  0.5947  1.1816 -1.1786
  904SOL     OW 2710   2.038   0.796   2.541  0.1491  0.3665 -0.5269
  904SOL    HW1 2711   1.955   0.744   2.567 -0.5059 -0.0919 -0.9453
  904SOL    HW2 2712   2.043   0.808   2.438 -2.9459 -1.5474 -1.0824
  905SOL     OW 2713   2.833   0.127   2.566  0.1809 -0.2567  0.0486
  905SOL    HW1 2714   2.903   0.051   2.551  2.1233 -1.5187  0.8274
  905SOL    HW2 2715   2.874   0.216   2.540 -0.0169  0.6545 -1.6787
  906SOL     OW 2716   0.216   1.683   1.929 -0.3883 -0.0604 -0.5255
  906SOL    HW1 2717   0.148   1.715   1.859 -2.9394 -0.9864  0.2130
  906SOL    HW2 2718   0.303   1.738   1.917  0.9205  1.6352  4.0750
  907SOL     OW 2719   0.264   2.439   1.031 -0.1151  0.1339  0.0230
  907SOL    HW1 2720   0.340   2.380   0.992  0.9097  1.6271  0.9128
  907SOL    HW2 2721   0.287   2.537   1.019  0.5870 -0.5523  0.4407
  908SOL     OW 2722   2.804   2.977   0.355 -0.6534  0.2643  0.1182
  908SOL    HW1 2723   2.742   3.027   0.289  1.6085  1.9141 -1.9154
  908SOL    HW2 2724   2.879   2.921   0.306 -0.0818 -1.8295  0.1956
  909SOL     OW 2725   0.825   1.049   2.652 -0.3813 -0.0391 -0.2608
  909SOL    HW1 2726   0.792   0.958   2.612 -2.5254  1.9366 -1.1095
  909SOL    HW2 2727   0.907   1.090   2.600 -0.1942 -1.1282  1.9049
  910SOL     OW 2728   1.773   1.892   2.175 -0.3114 -0.6924 -0.2517
  910SOL    HW1 2729   1.799   1.913   2.080 -1.5197 -1.8283  0.4895
  910SOL    HW2 2730   1.685   1.939   2.202  0.9581 -0.2774 -1.5812
  911SOL     OW 2731   1.809   2.947   1.593  0.1522  0.1188  0.1138
  911SOL    HW1 2732   1.872   2.930   1.513  0.0699 -0.3007 -0.7765
  911SOL    HW2 2733   1.816   2.871   1.667 -0.4492 -1.1379 -0.2930
  912SOL     OW 2734   2.855   1.007   0.735  0.0872 -0.6806 -0.7814
  912SOL    HW1 2735   2.888   0.961   0.823  1.7665  1.7084  1.9523
  912SOL    HW2 2736   2.799   1.093   0.748 -0.4375 -2.3835  2.0485
  913SOL     OW 2737   2.560   1.282   1.516  0.1834  0.0848 -0.5338
  913SOL    HW1 2738   2.598   1.185   1.513 -0.3410 -0.4171  0.9133
  913SOL    HW2 2739   2.616   1.340   1.447  2.5712  1.7620 -0.5756
  914SOL     OW 2740   2.792   0.601   1.200 -0.1125  0.4026  0.2506
  914SOL    HW1 2741   2.788   0.502   1.227  1.4193  2.0403 -0.2302
  914SOL    HW2 2742   2.716   0.660   1.233  3.1801  2.7454 -0.3138
  915SOL     OW 2743   1.183   0.709   1.074  0.2057  0.0860  0.4869
  915SOL    HW1 2744   1.220   0.773   1.141 -0.0809 -0.0092  0.6428
  915SOL    HW2 2745   1.078   0.729   1.073 -1.4310 -2.0512  0.7611
  916SOL     OW 2746   0.587   0.021   0.637  0.1709 -0.0208 -0.7029
  916SOL    HW1 2747   0.622   0.091   0.707  0.4152  0.2124  0.8546
  916SOL    HW2 2748   0.582   0.057   0.534 -1.8741  0.4696 -1.6800
  917SOL     OW 2749   2.846   2.614   1.985  0.3437 -0.0600 -0.5088
  917SOL    HW1 2750   2.752   2.661   1.982 -1.3576 -0.0551  1.2349
  917SOL    HW2 2751   2.911   2.660   1.922  0.2238  1.9627  1.0276
  918SOL     OW 2752   1.011   2.111   3.038  0.0478  0.5465  0.3224
  918SOL    HW1 2753   0.964   2.164   3.111 -1.5371 -0.4056 -0.1263
  918SOL    HW2 2754   1.108   2.136   3.018  0.5600 -3.9083 -0.9232
  919SOL     OW 2755   0.857   1.627   2.862  0.2734  0.2600  0.8894
  919SOL    HW1 2756   0.906   1.688   2.794  0.9368 -0.3517 -0.2117
  919SOL    HW2 2757   0.824   1.543   2.813 -0.7756 -1.4212  0.3132
  920SOL     OW 2758   1.229   1.850   2.491 -0.8212  0.4222 -0.0640
  920SOL    HW1 2759   1.314   1.810   2.445 -3.2218  1.8453 -0.9583
  920SOL    HW2 2760   1.205   1.795   2.574 -0.0857  4.3107  0.8171
  921SOL     OW 2761   1.043   0.031   2.612 -0.0066 -0.3111 -0.0590
  921SOL    HW1 2762   1.028   0.026   2.509  0.4847  0.1060 -0.5624
  921SOL    HW2 2763   0.961   0.000   2.662  1.9737  3.2230 -2.5552
  922SOL     OW 2764   2.184   2.382   2.780 -0.5809  0.2100  0.1302
  922SOL    HW1 2765   2.231   2.292   2.756  2.1051  0.6665  1.6410
  922SOL    HW2 2766   2.129   2.411   2.695 -2.6670  1.6218 -2.3039
  923SOL     OW 2767   1.264   2.663   0.288 -0.2714 -0.3896 -0.4738
  923SOL    HW1 2768   1.331   2.740   0.318  2.2345  1.5991  0.5829
  923SOL    HW2 2769   1.310   2.566   0.285  1.0896 -2.5382 -1.6710
  924SOL     OW 2770   2.838   1.589   0.181  0.0037 -1.1439  0.5078
  924SOL    HW1 2771   2.786   1.567   0.094  0.9568 -0.7777 -1.3422
  924SOL    HW2 2772   2.940   1.568   0.170  0.6689  0.7589  1.3055
  925SOL     OW 2773   0.019   2.871   1.494 -0.0277 -0.0029  0.5503
  925SOL    HW1 2774  -0.063   2.901   1.543  0.0859  0.1933 -1.7568
  925SOL    HW2 2775  -0.001   2.800   1.424 -1.8243 -1.2224  0.8950
  926SOL     OW 2776   1.294   2.792   1.285  0.5237  0.0254 -0.6403
  926SOL    HW1 2777   1.359   2.812   1.205  1.0786  3.9080 -1.1157
  926SOL    HW2 2778   1.263   2.874   1.341 -1.9426 -0.4175 -2.0767
  927SOL     OW 2779   0.320   2.676   1.777  0.2056  0.1743  0.1114
  927SOL    HW1 2780   0.289   2.610   1.704  0.6644  1.9445 -1.8262
  927SOL    HW2 2781   0.278   2.772   1.767  0.5343  0.9940  0.3055
  928SOL     OW 2782   1.566   2.054   2.264 -0.6131 -0.0207  0.5429
  928SOL    HW1 2783   1.592   2.133   2.201  0.5414  0.2651  1.4069
  928SOL    HW2 2784   1.465   2.071   2.286  2.2740 -1.3436  0.2843
  929SOL     OW 2785   2.394   2.522   2.868 -0.1626 -0.3156 -0.1267
  929SOL    HW1 2786   2.307   2.484   2.834  0.2920  0.1791 -0.7484
  929SOL    HW2 2787   2.467   2.533   2.799  1.3062 -0.4637  1.4076
  930SOL     OW 2788   2.189   2.013   1.086  0.5261 -0.0433  0.2683
  930SOL    HW1 2789   2.193   1.946   1.168 -2.2403 -3.0867  0.2800
  930SOL    HW2 2790   2.216   2.111   1.112 -0.8968 -2.7101 -0.7013
  931SOL     OW 2791   0.531   1.716   2.723  0.2737 -0.0406  0.3928
  931SOL    HW1 2792   0.565   1.769   2.808  0.0945  0.7828  2.7309
  931SOL    HW2 2793   0.570   1.624   2.700  0.4614 -0.4526 -1.4649
  932SOL     OW 2794   0.487   0.145   3.029 -0.0874 -0.1595 -0.6922
  932SOL    HW1 2795   0.588   0.164   3.056  0.8544 -0.9510  1.8552
  932SOL    HW2 2796   0.468   0.046   3.041  2.1084  2.5169 -0.2053
  933SOL     OW 2797   0.992   0.802   0.008  0.3697  0.1651 -0.5114
  933SOL    HW1 2798   0.993   0.833   0.109  0.9312 -2.2381  2.9526
  933SOL    HW2 2799   0.925   0.857  -0.053 -1.5176 -1.5126  0.6807
  934SOL     OW 2800   0.784   2.959   2.677  0.1130  0.3211 -0.4112
  934SOL    HW1 2801   0.774   2.899   2.592  0.2897 -0.4265 -0.0888
  934SOL    HW2 2802   0.847   2.907   2.740 -1.7497  0.6540  1.8579
  935SOL     OW 2803   0.034   0.559   0.840  0.1203  0.1820 -0.5601
  935SOL    HW1 2804   0.023   0.502   0.758  1.4149  2.2579  1.5593
  935SOL    HW2 2805  -0.055   0.588   0.877 -0.8436  0.7557 -1.4039
  936SOL     OW 2806   1.124   2.763   0.077 -0.1260 -0.3587  0.2750
  936SOL    HW1 2807   1.177   2.818   0.006  0.7091  2.2730 -0.2833
  936SOL    HW2 2808   1.184   2.745   0.158  0.1306  1.9321 -0.9154
  937SOL     OW 2809   1.890   2.651   2.109  0.5098 -0.7219  0.0497
  937SOL    HW1 2810   1.798   2.692   2.131 -1.8622  1.7238  1.4261
  937SOL    HW2 2811   1.937   2.718   2.044 -3.1963  0.2950 -0.2683
  938SOL     OW 2812   2.771   2.093   1.608  0.0087  0.0776  0.0381
  938SOL    HW1 2813   2.735   2.190   1.629  1.3567 -0.7897  0.7319
  938SOL    HW2 2814   2.865   2.072   1.644 -1.0257  0.2389 -0.3733
  939SOL     OW 2815   2.872   1.217   2.444  0.4249  0.3477 -0.2344
  939SOL    HW1 2816   2.920   1.178   2.358  0.3782  0.8198 -2.1083
  939SOL    HW2 2817   2.862   1.144   2.520  0.5777  0.8485  2.7197
  940SOL     OW 2818   1.038   0.415   2.748 -0.2494 -0.2430 -0.2858
  940SOL    HW1 2819   1.118   0.345   2.758  0.0858 -0.9880  1.4018
  940SOL    HW2 2820   0.960   0.367   2.697  0.8626 -0.8886  1.6819
  941SOL     OW 2821   0.060   2.782   2.266  0.4690  0.3141  0.2410
  941SOL    HW1 2822   0.119   2.692   2.257  3.7421 -2.2630  1.2595
  941SOL    HW2 2823   0.114   2.857   2.311 -1.0293  1.0843  0.0933
  942SOL     OW 2824   0.142   0.055   2.569  0.4635  0.2453 -0.5497
  942SOL    HW1 2825   0.193   0.115   2.633 -2.2418 -1.3012 -2.3694
  942SOL    HW2 2826   0.102   0.113   2.493  0.1622 -0.4808  1.4238
  943SOL     OW 2827   2.093   1.645   2.398 -0.0300  0.3089  0.0712
  943SOL    HW1 2828   2.066   1.613   2.302  2.1076 -0.7568  3.2149
  943SOL    HW2 2829   2.091   1.569   2.463  0.6194  0.7531 -2.8979
  944SOL     OW 2830   2.172   2.323   1.450 -0.0295 -0.4138  0.2203
  944SOL    HW1 2831   2.256   2.358   1.497 -1.3036  0.9340 -1.3361
  944SOL    HW2 2832   2.134   2.257   1.519  1.1459  1.4936  2.2072
  945SOL     OW 2833   0.685   1.506   0.215 -0.0317 -0.2154  0.5441
  945SOL    HW1 2834   0.621   1.546   0.145  1.6271  2.3211  1.0674
  945SOL    HW2 2835   0.649   1.418   0.253 -0.4514  2.0504  0.2607
  946SOL     OW 2836   0.437   0.925   2.461 -0.0329 -0.3780 -0.4026
  946SOL    HW1 2837   0.349   0.877   2.477 -1.1266 -1.8536 -1.3751
  946SOL    HW2 2838   0.427   1.025   2.480  0.4715 -0.6105  0.1472
  947SOL     OW 2839   1.538   0.534   3.080  0.1778  0.3599  0.2481
  947SOL    HW1 2840   1.492   0.581   2.992 -1.3481  1.2580 -0.9680
  947SOL    HW2 2841   1.478   0.454   3.108  0.7839  1.2572 -1.4855
  948SOL     OW 2842   1.829   3.024   2.128 -0.1450  0.4731  0.3587
  948SOL    HW1 2843   1.838   2.959   2.042  0.1664  0.8323  0.6335
  948SOL    HW2 2844   1.864   2.970   2.209  3.5394  2.8936  0.5868
  949SOL     OW 2845   0.609   2.471   0.487 -0.3658 -0.7306 -0.3701
  949SOL    HW1 2846   0.621   2.571   0.461  2.6705 -1.5069  1.1752
  949SOL    HW2 2847   0.641   2.457   0.586 -1.0163  2.9461  0.0057
  950SOL     OW 2848   0.204   2.238   3.046 -0.1242 -0.3695  0.7832
  950SOL    HW1 2849   0.137   2.316   3.025  0.2536 -2.5153 -0.3750
  950SOL    HW2 2850   0.229   2.184   2.963 -0.7740 -1.0307 -0.4390
  951SOL     OW 2851   1.213   2.690   2.796  0.6774 -0.3883 -0.5109
  951SOL    HW1 2852   1.285   2.646   2.855  1.1506  3.0878  1.9662
  951SOL    HW2 2853   1.247   2.709   2.701 -0.2099 -1.6541  2.2372
  952SOL     OW 2854   0.013   1.673   0.387 -0.1837  1.0056 -0.0605
  952SOL    HW1 2855   0.073   1.755   0.413 -2.0807 -2.9626 -2.7429
  952SOL    HW2 2856   0.029   1.580   0.441 -2.5387 -0.5628 -1.2153
  953SOL     OW 2857   2.540   1.812   0.218  0.0811 -0.0714 -0.3696
  953SOL    HW1 2858   2.504   1.715   0.216  0.3465 -1.3950  1.1779
  953SOL    HW2 2859   2.525   1.854   0.119  2.2894  0.9832 -0.6906
  954SOL     OW 2860   2.231   0.535   0.901 -0.2494 -0.1123  0.4572
  954SOL    HW1 2861   2.244   0.570   0.807  1.7327  0.6197  0.4455
  954SOL    HW2 2862   2.321   0.524   0.951 -0.0298  0.4535  1.0740
  955SOL     OW 2863   0.177   2.600   1.324  0.2226  0.0156 -0.6382
  955SOL    HW1 2864   0.074   2.616   1.336 -1.1511  1.7048  1.4884
  955SOL    HW2 2865   0.209   2.645   1.239 -0.4205 -2.0652  1.3921
  956SOL     OW 2866   2.844   2.452   2.518  0.0830 -0.1174  0.3363
  956SOL    HW1 2867   2.863   2.350   2.492 -1.1429 -1.5035  0.0604
  956SOL    HW2 2868   2.858   2.513   2.437 -2.0208  1.1634  0.6423
  957SOL     OW 2869   1.678   2.050   2.773 -0.5840 -0.0220  0.0936
  957SOL    HW1 2870   1.602   1.986   2.799  1.3386  0.9067  0.0220
  957SOL    HW2 2871   1.703   2.031   2.677 -0.0969 -0.1949  0.2197
  958SOL     OW 2872   2.549   2.292   3.008  0.2043  0.0547 -0.0206
  958SOL    HW1 2873   2.485   2.328   2.931 -3.4145  0.3101  1.3263
  958SOL    HW2 2874   2.493   2.246   3.084 -0.2557  2.3205  0.8529
  959SOL     OW 2875   0.257   2.807   0.044 -0.6444 -0.3089  0.4507
  959SOL    HW1 2876   0.166   2.770   0.013  1.9917 -0.1792 -1.5440
  959SOL    HW2 2877   0.304   2.733   0.102 -0.4581  0.3330 -1.6755
  960SOL     OW 2878   1.972   0.483   1.936  0.9777  0.5195  0.1931
  960SOL    HW1 2879   1.913   0.562   1.910 -2.4475 -1.3983 -1.8566
  960SOL    HW2 2880   1.967   0.464   2.040 -2.3758  0.8960  0.3147
  961SOL     OW 2881   2.566   1.869   0.997 -0.3523 -0.1823 -0.2065
  961SOL    HW1 2882   2.570   1.966   0.956  1.6323  2.7681  0.2627
  961SOL    HW2 2883   2.535   1.854   1.097 -2.0777 -2.2327 -0.5294
  962SOL     OW 2884   1.320   0.926   0.035 -0.1179  0.0981 -0.2077
  962SOL    HW1 2885   1.268   0.916  -0.053  1.5120  0.9244  0.2692
  962SOL    HW2 2886   1.292   1.004   0.099  2.3719  0.7807  2.1134
  963SOL     OW 2887   2.224   2.573   1.799 -0.4430 -0.2773  0.5977
  963SOL    HW1 2888   2.205   2.476   1.836 -2.0848  0.8101  0.8493
  963SOL    HW2 2889   2.261   2.640   1.876 -2.0880  0.6942  1.9108
  964SOL     OW 2890   2.359   0.395   1.666 -0.4970 -0.4592 -0.1476
  964SOL    HW1 2891   2.451   0.410   1.718  1.9780 -0.4283  0.9649
  964SOL    HW2 2892   2.369   0.345   1.578  2.5126 -0.4811 -0.1083
  965SOL     OW 2893   2.637   3.037   0.139  0.1288  0.6647  0.2086
  965SOL    HW1 2894   2.694   3.003   0.057  4.0128  1.2103  0.0727
  965SOL    HW2 2895   2.538   3.048   0.115  0.1030  1.8811  0.0068
  966SOL     OW 2896   2.607   2.570   2.219  0.3609  0.2964 -0.8801
  966SOL    HW1 2897   2.703   2.609   2.221  0.3934  0.4546  0.8347
  966SOL    HW2 2898   2.539   2.643   2.194  0.6256  0.5640  0.6624
  967SOL     OW 2899   2.765   2.831   2.483  0.1778  0.0673 -0.0950
  967SOL    HW1 2900   2.805   2.765   2.412  0.9603 -0.8829  0.5915
  967SOL    HW2 2901   2.836   2.885   2.534 -0.2830  0.0424  1.5748
  968SOL     OW 2902   1.901   1.060   2.617 -0.2422 -0.4299  0.1293
  968SOL    HW1 2903   1.808   1.098   2.583 -0.4890 -0.6982  0.4925
  968SOL    HW2 2904   1.933   0.979   2.565  0.7826  3.8149  3.8566
  969SOL     OW 2905   2.848   2.508   1.101  0.6678 -0.6976  0.4035
  969SOL    HW1 2906   2.817   2.487   1.004 -0.3725 -1.0419 -0.6043
  969SOL    HW2 2907   2.857   2.423   1.157  1.2420  1.6067  1.1352
  970SOL     OW 2908   1.020   2.091   1.796 -0.1795 -0.1800  0.3768
  970SOL    HW1 2909   0.933   2.104   1.740 -0.6197 -1.6833 -0.9181
  970SOL    HW2 2910   1.017   2.134   1.891  0.4763 -0.2041  0.9037
  971SOL     OW 2911   2.927   2.076   1.969  0.1259  0.5518 -0.3830
  971SOL    HW1 2912   2.930   2.175   2.010 -2.6826  2.6674  0.3361
  971SOL    HW2 2913   2.969   2.078   1.875  0.6387 -0.3062 -2.4075
  972SOL     OW 2914   1.976   2.480   0.245  0.1450  0.3360  0.2223
  972SOL    HW1 2915   1.966   2.392   0.182  0.9363 -1.1706  0.2125
  972SOL    HW2 2916   2.009   2.452   0.338 -0.9214 -2.7218  0.8464
  973SOL     OW 2917   1.267   1.049   1.893  0.2225 -0.0868 -0.0062
  973SOL    HW1 2918   1.197   1.007   1.829  0.9605 -0.0215 -1.5927
  973SOL    HW2 2919   1.252   1.150   1.908  2.4972 -0.2560 -0.0877
  974SOL     OW 2920   1.613   0.550   1.976  0.5810 -0.5028  0.0302
  974SOL    HW1 2921   1.696   0.598   1.942  0.1712  0.6810  1.4606
  974SOL    HW2 2922   1.519   0.591   1.958 -0.3793  1.8799  2.0335
  975SOL     OW 2923   2.357   3.053   0.047 -0.1115 -0.2822  0.2412
  975SOL    HW1 2924   2.311   2.968   0.089 -1.2051  0.0300  3.3787
  975SOL    HW2 2925   2.341   3.062  -0.055 -0.5541  1.4378  0.1676
  976SOL     OW 2926   1.908   2.858   2.340 -0.0701  0.0624  0.5785
  976SOL    HW1 2927   1.814   2.816   2.336 -1.9237 -1.6530  0.1786
  976SOL    HW2 2928   1.956   2.835   2.429  0.8069 -3.8420 -2.8571
  977SOL     OW 2929   0.472   0.665   1.033 -0.1420 -0.1434 -0.7509
  977SOL    HW1 2930   0.395   0.691   0.973 -2.3656 -0.3213  0.7431
  977SOL    HW2 2931   0.568   0.670   1.001  0.1435 -1.0131 -2.2773
   3.10000   3.10000   3.10000
