1000 SPC/Fw water molecules t=   0.45000 step= 450
 2931
    1SOL     OW    1   2.502   0.318   2.624 -0.6964  0.3212 -0.0325
    1SOL    HW1    2   2.492   0.214   2.617 -1.7353  0.0609 -0.7848
    1SOL    HW2    3   2.552   0.349   2.711 -2.8311  1.1726 -0.5595
    2SOL     OW    4   2.715   3.053   1.450  0.3163 -0.6941 -0.0468
    2SOL    HW1    5   2.780   3.103   1.385 -1.6982  1.7967  0.3618
    2SOL    HW2    6   2.697   3.110   1.530  2.4290 -1.7359 -0.5150
    3SOL     OW    7   2.742   2.601   0.387 -0.1882  0.1783 -0.2322
    3SOL    HW1    8   2.717   2.503   0.372 -0.9689  0.7881  1.1374
    3SOL    HW2    9   2.792   2.610   0.475 -0.9097 -1.8837  0.3541
    4SOL     OW   10   1.322   1.498   2.347 -0.4055  0.2584  0.1388
    4SOL    HW1   11   1.228   1.531   2.312  3.9607  1.2733 -0.2460
    4SOL    HW2   12   1.321   1.401   2.388  0.0034 -0.5469 -2.6322
    5SOL     OW   13   1.197   1.511   3.037 -0.2114  0.2972 -0.1394
    5SOL    HW1   14   1.268   1.570   3.092  2.2171  0.3031  0.6448
    5SOL    HW2   15   1.101   1.552   3.041 -0.8406 -1.2619  2.5130
    6SOL     OW   16   0.038   1.779   2.904  0.0337  0.1143  0.5396
    6SOL    HW1   17   0.021   1.840   2.982  1.4074 -1.9731 -0.5569
    6SOL    HW2   18   0.059   1.682   2.929  1.5198  0.6762  2.4851
    7SOL     OW   19   2.562   0.887   1.160  0.2748  0.1652  0.0070
    7SOL    HW1   20   2.458   0.870   1.170  0.8563 -0.0834 -0.3414
    7SOL    HW2   21   2.600   0.902   1.069  1.1128 -3.0161  0.4747
    8SOL     OW   22   0.425   0.624   1.529  0.6500 -0.4262 -0.2165
    8SOL    HW1   23   0.512   0.575   1.555  2.9274 -0.3870 -1.1377
    8SOL    HW2   24   0.368   0.572   1.460 -0.3307 -0.3777  0.1175
    9SOL     OW   25   1.149   0.963   2.260  0.4547 -0.1751  0.7134
    9SOL    HW1   26   1.204   1.045   2.233 -1.1289 -2.9747  2.5548
    9SOL    HW2   27   1.077   0.940   2.189 -0.7552  1.9235 -1.9304
   10SOL     OW   28   0.716   1.349   1.271  0.3084 -0.2363  0.4106
   10SOL    HW1   29   0.622   1.388   1.234  1.4665  2.2439 -3.7328
   10SOL    HW2   30   0.791   1.414   1.286 -1.4381 -1.6287  0.3269
   11SOL     OW   31   2.364   2.685   0.958  0.5337  0.5083 -0.5154
   11SOL    HW1   32   2.329   2.718   1.050 -1.0992 -0.9524 -2.6258
   11SOL    HW2   33   2.463   2.644   0.960 -0.3965  0.4738 -1.6070
   12SOL     OW   34   1.444   0.908   0.390  0.4796 -0.4895 -0.4679
   12SOL    HW1   35   1.383   0.976   0.341  0.6546 -0.7685 -0.8857
   12SOL    HW2   36   1.464   0.824   0.334 -2.0249 -0.7343 -0.3938
   13SOL     OW   37   2.530   0.661   1.799 -0.0428 -0.2916 -0.2175
   13SOL    HW1   38   2.449   0.668   1.863 -0.0881 -0.5344 -1.1317
   13SOL    HW2   39   2.494   0.650   1.702 -1.5993  2.9614  1.0416
   14SOL     OW   40   1.971   0.040   0.686 -0.8464  0.1363  0.1769
   14SOL    HW1   41   1.888   0.091   0.657  0.7483  0.0535 -1.1665
   14SOL    HW2   42   1.943  -0.049   0.725 -1.0985  0.3642  0.2117
   15SOL     OW   43   1.956   2.009   2.852  0.0114 -0.0487 -0.3015
   15SOL    HW1   44   1.920   2.106   2.871  1.5026 -0.3967 -2.3655
   15SOL    HW2   45   1.902   1.962   2.780  2.1585 -0.7650  1.2924
   16SOL     OW   46   1.613   1.735   3.093 -0.3331  0.0553 -0.2111
   16SOL    HW1   47   1.631   1.634   3.072  0.6935  2.2577 -1.7115
   16SOL    HW2   48   1.696   1.779   3.136 -1.6078  1.9972 -1.6679
   17SOL     OW   49   0.083   0.496   0.120  0.3053  0.1297  0.1419
   17SOL    HW1   50   0.173   0.518   0.073 -1.6048 -0.8236 -2.4192
   17SOL    HW2   51   0.001   0.523   0.060 -1.1806 -1.3992  1.7784
   18SOL     OW   52   0.992   2.912   2.181 -0.0559  0.5821  0.3205
   18SOL    HW1   53   0.901   2.871   2.158 -0.4199 -0.7849  2.9478
   18SOL    HW2   54   1.069   2.882   2.109 -0.9533  2.7076 -2.1307
   19SOL     OW   55   0.539   0.846   1.932  0.4465 -0.0478 -0.4304
   19SOL    HW1   56   0.556   0.886   2.028 -1.5439 -2.3700  0.3309
   19SOL    HW2   57   0.630   0.816   1.884  0.7221 -4.2216  0.7302
   20SOL     OW   58   0.164   2.805   0.836 -0.3909  0.0248  0.1214
   20SOL    HW1   59   0.120   2.889   0.789  2.0654  3.0794 -1.8435
   20SOL    HW2   60   0.232   2.757   0.778  0.0939 -1.3521 -0.5442
   21SOL     OW   61   2.782   0.179   2.123 -0.1387  0.1414 -0.4145
   21SOL    HW1   62   2.820   0.119   2.046 -0.7006  1.0356 -1.4309
   21SOL    HW2   63   2.829   0.162   2.216  0.5388 -2.3574 -1.5617
   22SOL     OW   64   2.319   0.231   0.023 -0.3621 -0.0934  0.7123
   22SOL    HW1   65   2.316   0.127   0.018  0.6201 -1.4351  0.6942
   22SOL    HW2   66   2.224   0.273   0.043  1.2089 -1.8403  1.1972
   23SOL     OW   67   2.788   0.638   0.644 -0.8654  0.1088 -0.0683
   23SOL    HW1   68   2.806   0.547   0.600  2.0617  0.0757 -0.5004
   23SOL    HW2   69   2.785   0.717   0.578  3.9550 -1.9235  0.7783
   24SOL     OW   70   0.146   1.923   0.409  0.2398  0.0013 -1.1763
   24SOL    HW1   71   0.054   1.951   0.366  1.6376  1.6098  3.9628
   24SOL    HW2   72   0.237   1.943   0.358 -1.9584  3.2723 -1.9575
   25SOL     OW   73   2.250   0.495   0.215 -0.4468  0.0872  0.3124
   25SOL    HW1   74   2.348   0.469   0.245 -1.3598  5.1941 -0.4272
   25SOL    HW2   75   2.230   0.529   0.122  0.5559  1.5312  0.7398
   26SOL     OW   76   2.502   2.199   2.087  0.7034  0.0434 -0.2283
   26SOL    HW1   77   2.582   2.228   2.142  0.3066  0.3557 -1.2789
   26SOL    HW2   78   2.519   2.104   2.042  1.4421  0.4194  0.5658
   27SOL     OW   79   0.641   2.975   0.118 -0.4931 -0.5616  0.3728
   27SOL    HW1   80   0.747   2.986   0.128  0.1889 -1.9838  0.5425
   27SOL    HW2   81   0.598   3.034   0.042 -0.3672 -0.0730  1.2435
   28SOL     OW   82   1.574   0.177   0.279  0.1705  0.0648  0.1031
   28SOL    HW1   83   1.622   0.162   0.189  1.8552  2.0725  1.1690
   28SOL    HW2   84   1.573   0.277   0.313  0.4389  0.4997 -0.7522
   29SOL     OW   85   2.032   0.536   0.376  0.0677 -0.6488  0.1477
   29SOL    HW1   86   1.995   0.625   0.339 -1.4060  2.4596  1.6591
   29SOL    HW2   87   2.123   0.506   0.337 -2.6489  0.9165  3.1747
   30SOL     OW   88   0.147   2.037   0.924  0.7528  0.0143  0.2257
   30SOL    HW1   89   0.125   2.048   0.821  0.8874  3.9709 -0.7750
   30SOL    HW2   90   0.075   2.095   0.975 -2.1389  2.6835  0.4964
   31SOL     OW   91   2.108   0.013   2.299  0.5069 -0.1917 -0.2321
   31SOL    HW1   92   2.112  -0.013   2.399 -1.3715 -0.3208  0.1462
   31SOL    HW2   93   2.033  -0.039   2.251  0.7448 -0.4060  2.3329
   32SOL     OW   94   2.935   0.188   0.176  0.3472 -0.2186  0.7406
   32SOL    HW1   95   2.901   0.104   0.230 -0.8262  0.9744 -0.9521
   32SOL    HW2   96   3.015   0.235   0.224  1.6836  1.8878  1.6283
   33SOL     OW   97   0.922   0.319   0.507  0.0129 -0.2276  0.4049
   33SOL    HW1   98   0.906   0.213   0.494 -0.6752  0.8415 -1.6192
   33SOL    HW2   99   1.003   0.348   0.557 -4.1954  1.7514 -0.0892
   34SOL     OW  100   0.385   2.839   1.016 -0.1111 -0.1767 -0.4214
   34SOL    HW1  101   0.330   2.830   0.931 -1.1451  6.7887 -0.5377
   34SOL    HW2  102   0.483   2.811   1.006 -0.9588 -0.5619 -1.2566
   35SOL     OW  103   0.040   0.128   1.861  0.1435  0.8841  0.3276
   35SOL    HW1  104   0.085   0.039   1.885 -2.9894  1.9808 -0.1486
   35SOL    HW2  105  -0.021   0.119   1.778  0.9617  1.6202  1.3689
   36SOL     OW  106   1.935   1.115   1.822 -0.1881 -0.3640  0.1269
   36SOL    HW1  107   1.987   1.106   1.733  0.8343  0.4391  4.0676
   36SOL    HW2  108   1.993   1.180   1.888  1.6639 -0.4828 -0.4397
   37SOL     OW  109   1.187   0.205   0.950 -0.2399 -0.6502  0.1386
   37SOL    HW1  110   1.224   0.287   1.001  0.9105  0.2489  2.4309
   37SOL    HW2  111   1.254   0.124   0.957  1.8001 -1.3241 -0.5381
   38SOL     OW  112   1.071   2.702   2.412  0.4032  0.4204 -0.2575
   38SOL    HW1  113   1.025   2.629   2.468  0.2391  3.3671 -0.5748
   38SOL    HW2  114   1.013   2.785   2.389 -2.6131  2.3331 -1.5395
   39SOL     OW  115   2.326   1.368   3.000  0.1051 -0.5750  0.1023
   39SOL    HW1  116   2.423   1.333   3.020 -1.0719 -0.8692  1.9968
   39SOL    HW2  117   2.260   1.363   3.084 -2.7676 -0.0318  0.7160
   40SOL     OW  118   2.126   2.508   2.526  0.9334 -0.1722 -0.1233
   40SOL    HW1  119   2.108   2.611   2.546  1.0365  1.0378  0.1992
   40SOL    HW2  120   2.036   2.474   2.476 -0.1052 -0.7117 -3.1563
   41SOL     OW  121   2.929   0.713   2.753  0.2044  0.2498  0.0186
   41SOL    HW1  122   2.842   0.773   2.753  1.5675  3.3339 -0.3035
   41SOL    HW2  123   2.896   0.618   2.766 -2.3025 -0.1867 -0.4366
   42SOL     OW  124   1.750   1.778   0.562 -0.2935  0.3905 -0.1746
   42SOL    HW1  125   1.693   1.699   0.521 -0.5556 -0.6253 -1.9787
   42SOL    HW2  126   1.817   1.813   0.493 -1.1570 -1.9009 -1.6395
   43SOL     OW  127   0.472   1.742   1.176  0.1659 -0.2908 -0.8153
   43SOL    HW1  128   0.448   1.667   1.247  1.6735 -0.2571 -0.3539
   43SOL    HW2  129   0.393   1.769   1.118  1.0218  0.1733  0.1450
   44SOL     OW  130   1.795   2.514   3.078  0.3878 -0.7475 -0.7886
   44SOL    HW1  131   1.801   2.559   2.981  1.6152  1.4327 -3.1136
   44SOL    HW2  132   1.888   2.517   3.128 -0.2505 -1.1920  0.2711
   45SOL     OW  133   0.288   1.887   2.602  0.0261  0.1251 -0.0057
   45SOL    HW1  134   0.251   1.913   2.508 -1.1552 -1.2121 -0.4646
   45SOL    HW2  135   0.337   1.798   2.603  1.0238 -0.5327 -1.1295
   46SOL     OW  136   1.186   0.669   0.217  0.5236  0.3990 -0.8172
   46SOL    HW1  137   1.246   0.743   0.179  2.2373 -0.0542 -1.9803
   46SOL    HW2  138   1.088   0.700   0.221  0.8123 -0.0053  1.7480
   47SOL     OW  139   0.211   2.440   1.633 -0.2964  0.0865  0.4822
   47SOL    HW1  140   0.295   2.388   1.616 -0.0501 -1.5365  3.0231
   47SOL    HW2  141   0.155   2.458   1.543  2.0370  2.2196 -1.1732
   48SOL     OW  142   2.594   0.606   0.152  0.3204  0.3627  0.4014
   48SOL    HW1  143   2.561   0.611   0.257  2.8672 -1.3066 -0.7295
   48SOL    HW2  144   2.687   0.644   0.149 -4.7734  3.2493  0.6801
   49SOL     OW  145   0.364   0.806   1.729  0.2570 -0.3198 -0.6090
   49SOL    HW1  146   0.436   0.825   1.804  1.0017  1.0986 -1.2251
   49SOL    HW2  147   0.386   0.734   1.656 -1.0063 -0.1026  0.7421
   50SOL     OW  148   1.679   1.104   0.353 -0.0871  0.6128 -0.7346
   50SOL    HW1  149   1.649   1.008   0.311 -1.5949 -0.1376 -1.8982
   50SOL    HW2  150   1.626   1.130   0.439 -1.7878  0.4962  1.4877
   51SOL     OW  151   2.986   1.911   0.313 -0.4293  0.2758 -0.7048
   51SOL    HW1  152   2.969   1.895   0.214 -1.0202  0.2823  0.1071
   51SOL    HW2  153   2.925   1.860   0.376  1.3926  1.5060 -1.2761
   52SOL     OW  154   0.787   1.947   0.514 -0.2397 -0.2613  0.3138
   52SOL    HW1  155   0.716   2.006   0.568 -1.7023  1.7746 -0.6536
   52SOL    HW2  156   0.821   1.861   0.562 -1.3881  1.5985  0.0141
   53SOL     OW  157   3.086   0.358   1.548  0.0181  0.0673 -0.3678
   53SOL    HW1  158   3.021   0.362   1.628 -1.3469 -0.5538  2.1634
   53SOL    HW2  159   3.075   0.443   1.485  2.7783  0.2147 -1.4552
   54SOL     OW  160   1.756   0.462   3.071  0.2235 -0.4846  0.4073
   54SOL    HW1  161   1.790   0.406   3.152 -0.6169 -2.0163 -1.1468
   54SOL    HW2  162   1.652   0.484   3.081  3.8782  0.8819  0.6270
   55SOL     OW  163   0.732   2.911   0.585  0.2488 -0.1935 -0.1314
   55SOL    HW1  164   0.711   2.996   0.641  2.3683 -0.6928  1.7204
   55SOL    HW2  165   0.828   2.900   0.557 -1.9514  1.0909  2.4757
   56SOL     OW  166   0.452   1.570   3.028  0.2049  0.1751  0.0508
   56SOL    HW1  167   0.387   1.623   3.089 -1.0493 -1.4080 -1.1152
   56SOL    HW2  168   0.411   1.483   2.984 -1.6304 -4.0424 -2.1973
   57SOL     OW  169   1.810   2.460   2.659 -0.0570  0.6301 -0.2892
   57SOL    HW1  170   1.868   2.447   2.574 -3.5846  1.0950 -2.6183
   57SOL    HW2  171   1.729   2.522   2.642 -1.3374  0.1940 -0.3930
   58SOL     OW  172   0.651   0.390   1.123 -0.0676 -0.7024  0.2082
   58SOL    HW1  173   0.600   0.463   1.065 -1.6073 -0.5782  0.7982
   58SOL    HW2  174   0.579   0.319   1.140  2.7829 -2.5286 -2.3724
   59SOL     OW  175   0.421   2.376   2.748 -0.8761 -0.3864  0.3656
   59SOL    HW1  176   0.416   2.272   2.722 -1.1312 -0.3542  1.5949
   59SOL    HW2  177   0.515   2.411   2.773  1.0943  0.8372  0.5254
   60SOL     OW  178   2.292   2.100   2.253  0.4564 -0.2423 -0.0854
   60SOL    HW1  179   2.360   2.147   2.191  1.2583 -0.8705 -0.6329
   60SOL    HW2  180   2.307   2.120   2.354 -2.3337 -2.6619  0.1505
   61SOL     OW  181   1.358   0.642   0.511 -0.2615 -0.3800  0.1180
   61SOL    HW1  182   1.259   0.675   0.525  1.6549 -2.7912  0.9760
   61SOL    HW2  183   1.399   0.658   0.419 -0.1176  0.8078  2.9204
   62SOL     OW  184   2.668   1.805   2.995  0.3413  0.4117 -0.4642
   62SOL    HW1  185   2.659   1.708   3.035  1.8320 -2.2271 -0.7607
   62SOL    HW2  186   2.736   1.819   2.915 -2.4573 -0.4959  0.2098
   63SOL     OW  187   0.524   0.890   0.168  0.9042 -0.3818  0.0147
   63SOL    HW1  188   0.481   0.982   0.148  1.1615  0.5514  1.1701
   63SOL    HW2  189   0.616   0.904   0.213  1.6868  2.1936  0.6400
   64SOL     OW  190   0.069   0.523   2.544 -0.0823 -0.1026  0.2841
   64SOL    HW1  191  -0.014   0.577   2.571 -0.8512  1.9202  0.9435
   64SOL    HW2  192   0.129   0.570   2.466  0.9035  3.3029 -2.3986
   65SOL     OW  193   0.185   1.490   0.622  0.7293  0.5218 -0.3586
   65SOL    HW1  194   0.243   1.568   0.662 -2.3492 -0.6571  0.6787
   65SOL    HW2  195   0.229   1.402   0.605 -1.6298  1.3261  1.7299
   66SOL     OW  196   2.518   0.430   0.637 -0.1487  0.0658 -0.4506
   66SOL    HW1  197   2.478   0.484   0.716 -0.5207  1.4405  1.6380
   66SOL    HW2  198   2.490   0.327   0.636  1.7277  0.4874  0.5691
   67SOL     OW  199   0.510   2.481   1.433  0.2726  0.1373  0.4411
   67SOL    HW1  200   0.575   2.499   1.511  2.3412 -0.3489 -1.6944
   67SOL    HW2  201   0.515   2.385   1.397 -1.2087  0.2537 -2.4809
   68SOL     OW  202   1.001   1.093   2.447 -0.4005 -0.0004 -0.9822
   68SOL    HW1  203   1.067   1.032   2.395 -1.6875  3.4515 -1.9921
   68SOL    HW2  204   0.914   1.091   2.390  0.4432 -0.2013  1.0128
   69SOL     OW  205   0.751   2.759   2.165  0.1816  0.2984 -0.0854
   69SOL    HW1  206   0.771   2.656   2.184  1.6012  3.8000  0.1443
   69SOL    HW2  207   0.655   2.783   2.172  2.1381 -1.3120 -2.3295
   70SOL     OW  208   0.647   0.286   2.730  0.1099  0.1675 -0.3698
   70SOL    HW1  209   0.690   0.331   2.812 -3.6071 -0.8541 -1.9311
   70SOL    HW2  210   0.599   0.199   2.760  0.4273  3.4652 -0.4578
   71SOL     OW  211   1.122   1.800   0.327 -0.7372 -0.3044 -0.1647
   71SOL    HW1  212   1.071   1.717   0.357  2.8059  1.4320 -0.2074
   71SOL    HW2  213   1.114   1.805   0.224  2.4746  0.3080 -0.8627
   72SOL     OW  214   1.784   0.139   2.053 -0.5050 -0.5076 -0.4261
   72SOL    HW1  215   1.855   0.165   1.977  0.8670 -0.6707 -2.9098
   72SOL    HW2  216   1.817   0.057   2.112  2.3836  0.2754 -1.6205
   73SOL     OW  217   2.736   2.177   2.523 -0.0857 -0.4943  0.1245
   73SOL    HW1  218   2.713   2.083   2.503  1.4341 -1.5914 -2.4209
   73SOL    HW2  219   2.800   2.187   2.605 -2.3004  1.3828 -2.8809
   74SOL     OW  220   2.722   2.981   1.996 -0.3200 -0.2417 -0.4906
   74SOL    HW1  221   2.652   2.937   2.065 -0.3587 -1.1443  3.2142
   74SOL    HW2  222   2.818   2.983   2.030  1.5136  1.2810  0.0934
   75SOL     OW  223   0.901   0.766   1.015 -0.1179  0.2283 -0.4975
   75SOL    HW1  224   0.807   0.816   0.994 -2.7083  1.3495  0.7826
   75SOL    HW2  225   0.940   0.803   1.100  2.8052  0.5997 -0.3604
   76SOL     OW  226   1.729   1.230   2.575 -0.2990  0.3003  0.0953
   76SOL    HW1  227   1.639   1.174   2.596 -1.0825 -0.3644 -1.8916
   76SOL    HW2  228   1.710   1.328   2.592 -1.0668 -0.5785 -1.1093
   77SOL     OW  229   2.909   0.961   0.970 -0.0278 -0.0335  0.1783
   77SOL    HW1  230   2.892   0.861   0.945 -2.1056  0.4706 -3.9520
   77SOL    HW2  231   2.922   0.988   1.071 -1.1456  2.6424 -0.6729
   78SOL     OW  232   2.029   1.422   1.514  0.6545  0.1861  0.6444
   78SOL    HW1  233   2.121   1.463   1.493 -1.0593 -1.8571  1.3252
   78SOL    HW2  234   1.967   1.407   1.436  1.7381 -2.2640  1.2246
   79SOL     OW  235   0.592   1.341   0.820  0.7756  0.0073  0.1960
   79SOL    HW1  236   0.508   1.383   0.868  0.8568 -2.5819  0.5908
   79SOL    HW2  237   0.576   1.328   0.716 -1.2662  0.1098 -2.0905
   80SOL     OW  238   0.666   0.492   1.586  0.0496  0.1084  0.0357
   80SOL    HW1  239   0.735   0.543   1.529  1.9714 -0.6858 -0.2201
   80SOL    HW2  240   0.697   0.400   1.619 -1.0446 -0.0282 -0.1753
   81SOL     OW  241   1.034   1.375   2.600  0.6282  0.1253 -0.3854
   81SOL    HW1  242   0.971   1.322   2.661 -0.7219  0.2589  2.4709
   81SOL    HW2  243   0.994   1.396   2.502  2.6811 -2.4641  0.5948
   82SOL     OW  244   0.986   2.957   1.507  0.1280 -0.1878 -0.5275
   82SOL    HW1  245   0.989   2.988   1.406 -0.7714  0.5794 -0.1110
   82SOL    HW2  246   0.910   2.886   1.521  1.2232  1.7162 -1.5478
   83SOL     OW  247   2.670   2.475   0.814 -0.2534  0.2938  0.6355
   83SOL    HW1  248   2.593   2.415   0.781  0.3583  0.7986  0.9444
   83SOL    HW2  249   2.651   2.573   0.810  1.7228  1.1501  1.2983
   84SOL     OW  250   0.727   3.079   2.368  0.2349 -0.1729 -0.3717
   84SOL    HW1  251   0.632   3.050   2.395 -1.4358  0.0556  0.8589
   84SOL    HW2  252   0.806   3.010   2.387 -0.0964 -2.1109 -3.1646
   85SOL     OW  253   0.411   1.652   1.548  0.3287 -0.5456  0.3656
   85SOL    HW1  254   0.343   1.727   1.525  0.8088  0.1217  3.8394
   85SOL    HW2  255   0.401   1.620   1.644 -1.5637  0.0983 -1.6715
   86SOL     OW  256   0.359   0.970   1.513 -0.2615 -0.1544 -0.1616
   86SOL    HW1  257   0.313   0.916   1.439 -0.5272 -0.6118 -0.3625
   86SOL    HW2  258   0.367   0.919   1.602  0.7565 -1.6968 -1.2886
   87SOL     OW  259   1.523   0.644   0.271 -0.1560  0.6153  0.0030
   87SOL    HW1  260   1.617   0.687   0.264  0.0814 -1.0286  0.5765
   87SOL    HW2  261   1.485   0.626   0.179 -1.7251 -1.4319 -0.0318
   88SOL     OW  262   1.561   1.342   0.202 -0.2651  0.5037  0.2554
   88SOL    HW1  263   1.606   1.252   0.227  0.1768  2.0161 -1.4730
   88SOL    HW2  264   1.458   1.360   0.217 -0.9240  1.0027  0.2221
   89SOL     OW  265   0.043   0.425   0.573  0.2589 -1.0927  0.2951
   89SOL    HW1  266   0.101   0.338   0.566 -0.5526  1.3807 -1.6782
   89SOL    HW2  267  -0.050   0.417   0.533  0.7074 -0.4364 -0.0906
   90SOL     OW  268   0.931   1.594   3.021 -0.2776 -0.4367  0.1292
   90SOL    HW1  269   0.850   1.592   3.087 -0.3124  1.4908  0.6268
   90SOL    HW2  270   0.902   1.626   2.923 -3.4562 -0.4221 -0.3961
   91SOL     OW  271   1.283   1.460   1.804 -0.0931 -0.1013  0.6094
   91SOL    HW1  272   1.273   1.554   1.851 -1.1010  1.4455  0.0081
   91SOL    HW2  273   1.370   1.444   1.752  1.3450 -1.6308 -0.0321
   92SOL     OW  274   3.052   1.051   1.224 -0.3394 -0.1891 -0.2748
   92SOL    HW1  275   3.125   1.121   1.192 -0.3300 -0.2263  1.4359
   92SOL    HW2  276   3.088   1.001   1.307  3.1154 -0.1969 -0.6512
   93SOL     OW  277   3.092   2.756   0.067  0.3264  0.0044 -0.4408
   93SOL    HW1  278   3.024   2.757  -0.014 -1.3185 -0.6304 -0.7917
   93SOL    HW2  279   3.147   2.665   0.058 -0.4563 -0.3937 -1.0553
   94SOL     OW  280   1.523   1.419   1.690  0.2701  0.2106  0.0022
   94SOL    HW1  281   1.524   1.332   1.742 -0.2411 -0.0172 -3.1871
   94SOL    HW2  282   1.579   1.495   1.737  0.2669  1.0929 -0.3228
   95SOL     OW  283   1.311   2.525   2.976 -0.0361 -0.0064  0.1606
   95SOL    HW1  284   1.240   2.499   3.051  2.4256  0.1889 -0.3352
   95SOL    HW2  285   1.352   2.437   2.933 -0.7521 -1.0393  1.0888
   96SOL     OW  286   0.572   2.015   1.224 -0.6469 -0.0801  1.0991
   96SOL    HW1  287   0.487   2.049   1.167  1.8809 -0.7553 -1.8027
   96SOL    HW2  288   0.615   1.926   1.191  0.2341  1.9210  1.2893
   97SOL     OW  289   0.370   1.540   2.508 -0.1988  0.2485 -0.6159
   97SOL    HW1  290   0.282   1.556   2.560 -1.0421  1.7266  0.8997
   97SOL    HW2  291   0.447   1.611   2.534  2.6722 -0.7906 -2.4850
   98SOL     OW  292   1.965   1.612   1.265 -0.6969 -0.4054 -0.0422
   98SOL    HW1  293   1.872   1.569   1.294  0.4987 -1.0394  1.7466
   98SOL    HW2  294   2.031   1.540   1.228  0.5281 -0.7603 -4.3869
   99SOL     OW  295   2.480   2.094   1.408 -0.0468 -0.2474  0.9274
   99SOL    HW1  296   2.514   2.100   1.504 -0.7728 -0.1834  1.1347
   99SOL    HW2  297   2.436   2.004   1.388  1.1946  0.0267 -1.5503
  100SOL     OW  298   2.298   0.378   2.063 -0.0713 -0.2129  0.1942
  100SOL    HW1  299   2.246   0.337   2.139  1.8702  2.1219 -3.4136
  100SOL    HW2  300   2.399   0.370   2.074 -1.3073  0.4996  1.7477
  101SOL     OW  301   0.409   1.493   0.277  0.4362  0.0723 -0.1292
  101SOL    HW1  302   0.446   1.521   0.369 -3.5530  1.0683 -1.3517
  101SOL    HW2  303   0.441   1.552   0.200  1.5357 -0.0451  3.0363
  102SOL     OW  304   2.316   1.037   0.822  0.0867 -0.1001  0.1980
  102SOL    HW1  305   2.224   0.986   0.833  0.8641  0.3683 -1.0445
  102SOL    HW2  306   2.316   1.092   0.738 -0.5941  2.4105  0.9387
  103SOL     OW  307   2.310   0.045   0.402  0.1192 -0.1249  0.3571
  103SOL    HW1  308   2.352   0.135   0.368  1.0942 -0.0724 -2.9450
  103SOL    HW2  309   2.374  -0.010   0.468  0.4629 -2.9669 -2.4291
  104SOL     OW  310   0.098   1.783   2.132  0.2989 -0.7534  0.9830
  104SOL    HW1  311   0.098   1.743   2.033 -0.6885  1.4517  1.4670
  104SOL    HW2  312   0.001   1.784   2.161  2.1826 -0.2493  0.4789
  105SOL     OW  313   1.244   2.000   0.793 -0.0967  0.6269  0.3593
  105SOL    HW1  314   1.169   2.008   0.721  0.6156  0.5026 -1.0244
  105SOL    HW2  315   1.306   1.917   0.781 -0.8432  0.0620  0.8145
  106SOL     OW  316   2.121   0.526   1.384  0.3712  0.6979 -0.1211
  106SOL    HW1  317   2.059   0.446   1.414 -0.4832 -0.5293  0.2993
  106SOL    HW2  318   2.086   0.621   1.409  1.9898  1.4939 -1.3959
  107SOL     OW  319   1.809   2.998   1.094 -0.0525 -0.0440  0.3014
  107SOL    HW1  320   1.867   3.070   1.138 -0.2007 -1.4623 -1.5947
  107SOL    HW2  321   1.740   2.959   1.159 -1.0158 -0.8752  0.4842
  108SOL     OW  322   0.823   2.732   1.259  0.2391  0.2721 -0.6352
  108SOL    HW1  323   0.788   2.791   1.336  2.4504 -1.4206 -1.1241
  108SOL    HW2  324   0.920   2.751   1.236 -1.9026  0.2063 -0.3106
  109SOL     OW  325   2.212   0.125   0.798  0.4437  0.2182  0.4484
  109SOL    HW1  326   2.121   0.091   0.761  1.5787  2.5872  0.0811
  109SOL    HW2  327   2.212   0.127   0.900  0.4935  2.3059 -1.6069
  110SOL     OW  328   0.443   2.793   2.686  0.1655 -0.3945  0.5242
  110SOL    HW1  329   0.458   2.852   2.603 -2.2337 -0.0873 -2.1425
  110SOL    HW2  330   0.530   2.758   2.728  2.1112 -1.0072 -2.2973
  111SOL     OW  331   1.332   0.515   2.253  0.5232 -0.1965  0.5267
  111SOL    HW1  332   1.275   0.550   2.332  2.2818  1.8667  0.1834
  111SOL    HW2  333   1.385   0.429   2.282  1.2827 -2.2645 -0.7245
  112SOL     OW  334   1.745   0.526   1.452 -0.4021  0.0996  0.4415
  112SOL    HW1  335   1.736   0.488   1.353  0.2398 -1.9718  0.5752
  112SOL    HW2  336   1.724   0.450   1.518 -0.1770  1.1532 -0.4491
  113SOL     OW  337   2.285   1.621   1.738 -0.1821 -0.3095  0.4579
  113SOL    HW1  338   2.330   1.531   1.727 -1.3372 -0.8744 -0.4972
  113SOL    HW2  339   2.314   1.664   1.830 -2.8138  0.1893  1.3464
  114SOL     OW  340   0.308   0.542   1.282  0.4912 -0.2304 -0.2232
  114SOL    HW1  341   0.322   0.644   1.278 -0.4792  2.0333 -1.3107
  114SOL    HW2  342   0.245   0.508   1.207 -2.1858  1.3274  0.1574
  115SOL     OW  343   2.627   1.616   1.209  0.9700  1.0444  0.4571
  115SOL    HW1  344   2.671   1.525   1.240  1.0565  1.4198  0.2193
  115SOL    HW2  345   2.670   1.656   1.126 -0.4106  0.0242  1.3292
  116SOL     OW  346   1.817   1.044   0.765 -0.4267  0.3361 -0.9130
  116SOL    HW1  347   1.747   0.999   0.706  3.0751 -1.9179 -2.0112
  116SOL    HW2  348   1.804   1.146   0.783  1.1091  0.4338 -1.4108
  117SOL     OW  349   1.123   0.345   0.700  0.3853  0.3230 -0.4497
  117SOL    HW1  350   1.141   0.305   0.797  1.9111  0.1657 -0.7185
  117SOL    HW2  351   1.141   0.445   0.700  0.4275 -0.3295 -1.2018
  118SOL     OW  352   1.103   1.125   1.104 -0.0938  0.3814 -0.6862
  118SOL    HW1  353   1.087   1.027   1.148 -0.5158 -0.9712  0.5657
  118SOL    HW2  354   1.098   1.204   1.166  0.3277 -1.3571 -1.8046
  119SOL     OW  355   1.834   1.606   2.123  0.5810  0.0332 -0.1303
  119SOL    HW1  356   1.809   1.706   2.159 -0.6078  3.6121  3.9433
  119SOL    HW2  357   1.933   1.583   2.102 -0.2839  1.8737  2.2584
  120SOL     OW  358   2.962   2.823   0.294 -0.3503  0.5231  0.1642
  120SOL    HW1  359   3.039   2.813   0.228  2.0534 -1.4930  0.3204
  120SOL    HW2  360   2.942   2.733   0.345 -0.7832  1.0961 -0.4898
  121SOL     OW  361   1.979   0.725   2.244 -0.4871  0.5398  0.2324
  121SOL    HW1  362   1.955   0.766   2.155  2.7574  0.5994  1.6313
  121SOL    HW2  363   2.009   0.623   2.235 -0.0496 -0.7471  1.8415
  122SOL     OW  364   2.706   2.650   1.286 -0.4884  0.0436 -0.7489
  122SOL    HW1  365   2.737   2.615   1.192 -0.3974 -0.3288 -3.1830
  122SOL    HW2  366   2.662   2.580   1.336  1.7301  1.2162 -1.3247
  123SOL     OW  367   1.739   0.077   1.716 -0.4065  0.0084 -0.1745
  123SOL    HW1  368   1.746  -0.003   1.652  0.5198 -2.2460  0.9824
  123SOL    HW2  369   1.827   0.103   1.769  1.4202  1.4096  1.2314
  124SOL     OW  370   0.114   0.485   1.081  0.0551 -0.8052 -0.3951
  124SOL    HW1  371   0.089   0.585   1.110  0.0474  4.0085  0.2099
  124SOL    HW2  372   0.082   0.472   0.978  1.1338 -1.4030 -1.7321
  125SOL     OW  373   0.881   1.738   0.633 -0.4242 -0.5159  0.0705
  125SOL    HW1  374   0.979   1.718   0.598  2.4464  0.5888 -0.5307
  125SOL    HW2  375   0.877   1.740   0.736 -2.0772 -3.2564 -0.7813
  126SOL     OW  376   1.913   2.367   2.418 -0.1503 -0.0015  0.1949
  126SOL    HW1  377   1.974   2.331   2.342 -0.0879 -0.4426 -1.4553
  126SOL    HW2  378   1.846   2.294   2.450 -0.7407 -0.3508 -0.7453
  127SOL     OW  379   0.785   0.947   0.258 -0.2179 -0.5982  0.3468
  127SOL    HW1  380   0.857   0.982   0.325  3.9982 -0.4683 -2.2949
  127SOL    HW2  381   0.797   0.846   0.235 -1.0969 -2.8729  0.1137
  128SOL     OW  382   0.960   0.190   1.386  0.0343  0.5713 -0.5552
  128SOL    HW1  383   0.924   0.284   1.374 -0.8578 -1.6291 -1.7558
  128SOL    HW2  384   0.883   0.122   1.382  2.3056  1.8388 -0.0692
  129SOL     OW  385   1.874   0.673   1.871 -0.3645 -0.6994  0.0613
  129SOL    HW1  386   1.894   0.665   1.771 -1.0309  3.0793  4.6996
  129SOL    HW2  387   1.881   0.769   1.913  0.2803  1.4342 -0.2706
  130SOL     OW  388   1.311   2.195   1.002  0.4534  0.7123 -0.4355
  130SOL    HW1  389   1.269   2.145   0.919  0.6854 -0.1798 -0.1037
  130SOL    HW2  390   1.375   2.268   0.972 -3.5035  0.1739 -0.2622
  131SOL     OW  391   0.029   1.517   1.398  0.2685  0.0193  0.2028
  131SOL    HW1  392  -0.011   1.423   1.408 -0.0186  1.4674 -0.2266
  131SOL    HW2  393   0.131   1.523   1.422  0.3763  3.1468 -0.3759
  132SOL     OW  394   1.991   2.395   0.530 -0.4284 -0.3697 -0.2138
  132SOL    HW1  395   1.891   2.418   0.553  0.3191  0.1052  1.5070
  132SOL    HW2  396   2.025   2.325   0.603  3.0493 -0.5267 -1.5342
  133SOL     OW  397   1.882   2.278   2.870  0.4389  0.3123  0.0382
  133SOL    HW1  398   1.918   2.325   2.957 -2.4392 -2.1821  0.6718
  133SOL    HW2  399   1.845   2.342   2.800  1.9070 -1.3269 -1.0362
  134SOL     OW  400   2.730   2.346   1.628 -0.4245 -0.1080  0.3982
  134SOL    HW1  401   2.668   2.331   1.712  0.1257 -0.7126  0.0017
  134SOL    HW2  402   2.796   2.423   1.649 -0.5232 -0.3469 -1.0555
  135SOL     OW  403   0.722   1.555   2.588 -0.2949  0.3484  0.7906
  135SOL    HW1  404   0.691   1.473   2.644 -0.9814  0.3594  0.1494
  135SOL    HW2  405   0.779   1.532   2.498  5.4237 -0.1095 -5.6966
  136SOL     OW  406   1.208   2.045   0.433  0.8048  0.4129 -0.1207
  136SOL    HW1  407   1.139   2.071   0.506 -0.5535 -1.2552 -0.7431
  136SOL    HW2  408   1.174   1.956   0.388 -1.7901 -0.6625 -1.4601
  137SOL     OW  409   0.423   1.109   2.115  0.2127  0.2536  0.0865
  137SOL    HW1  410   0.320   1.113   2.143 -0.1141 -2.5011 -0.5248
  137SOL    HW2  411   0.482   1.072   2.192  1.2527  0.5080  0.0906
  138SOL     OW  412   2.434   1.501   0.199  0.1858  0.4083  0.2955
  138SOL    HW1  413   2.333   1.475   0.182 -0.8964 -1.0252 -1.4619
  138SOL    HW2  414   2.484   1.425   0.251  1.5624  0.6979 -0.6847
  139SOL     OW  415   1.819   2.649   1.227  0.0917 -0.1041  0.3555
  139SOL    HW1  416   1.719   2.620   1.206  1.7533 -0.6459  3.0437
  139SOL    HW2  417   1.872   2.572   1.267 -2.5064  1.9456  0.5203
  140SOL     OW  418   3.013   2.973   2.564  0.8269  0.5108  1.1391
  140SOL    HW1  419   3.070   2.897   2.606  2.6868 -0.0792 -0.3374
  140SOL    HW2  420   3.074   3.054   2.557  0.8400 -1.7493  2.0841
  141SOL     OW  421   1.209   1.686   1.606  0.0246  0.3939 -0.0719
  141SOL    HW1  422   1.129   1.743   1.646 -1.0788  0.8880 -0.0494
  141SOL    HW2  423   1.257   1.623   1.676  1.1320 -0.3203  2.1960
  142SOL     OW  424   1.596   0.626   2.200 -0.3870 -0.3293 -0.6043
  142SOL    HW1  425   1.602   0.627   2.101  0.1199  0.5601 -1.2751
  142SOL    HW2  426   1.498   0.607   2.230 -1.3238 -1.1790  0.1515
  143SOL     OW  427   2.736   0.872   0.514  0.2582 -0.0913  0.2491
  143SOL    HW1  428   2.759   0.938   0.436 -2.1255  2.1205  0.9253
  143SOL    HW2  429   2.756   0.924   0.603  2.0993  2.1046  1.3717
  144SOL     OW  430   2.993   1.261   1.381 -0.3273  0.0188  0.6988
  144SOL    HW1  431   2.943   1.219   1.463 -0.0625 -2.3881 -0.5968
  144SOL    HW2  432   3.014   1.191   1.308 -0.6493 -0.1137  0.6639
  145SOL     OW  433   1.016   1.816   0.065 -0.1363 -0.4526 -0.4991
  145SOL    HW1  434   1.050   1.889   0.003 -0.8351 -1.5332  0.2514
  145SOL    HW2  435   0.970   1.738   0.013  0.6953 -1.6013  0.8569
  146SOL     OW  436   2.428   0.642   1.559  0.0782  0.0558  0.2507
  146SOL    HW1  437   2.409   0.564   1.495 -1.7351  0.5662 -0.3259
  146SOL    HW2  438   2.359   0.724   1.536 -2.1630  1.3469 -2.9642
  147SOL     OW  439   1.085   2.474   0.578  0.0188 -0.3469  0.0092
  147SOL    HW1  440   1.075   2.561   0.519 -0.2302  0.0510 -1.7290
  147SOL    HW2  441   1.177   2.436   0.566  0.5584 -1.0517  0.0097
  148SOL     OW  442   1.646   1.471   3.070  0.1784 -0.5524  0.8389
  148SOL    HW1  443   1.657   1.403   2.991 -0.7590  0.6274 -1.5670
  148SOL    HW2  444   1.607   1.412   3.146 -1.0136 -0.5493 -1.5039
  149SOL     OW  445   0.683   1.436   1.924  0.8207  0.6731 -0.0617
  149SOL    HW1  446   0.611   1.399   1.992 -0.9387  0.5924  0.3369
  149SOL    HW2  447   0.726   1.360   1.861  2.7368  0.9708 -0.1034
  150SOL     OW  448   2.988   1.244   0.927  0.5937 -0.1322  0.0804
  150SOL    HW1  449   3.075   1.229   0.983 -0.7184 -2.1502 -0.5147
  150SOL    HW2  450   2.928   1.159   0.929 -0.7571  0.3696  2.3971
  151SOL     OW  451   0.175   0.776   2.110 -0.3167  0.0484 -0.3812
  151SOL    HW1  452   0.163   0.840   2.035  1.0017  0.8430 -1.6284
  151SOL    HW2  453   0.264   0.731   2.099 -0.0627  0.6394  0.5555
  152SOL     OW  454   1.357   1.717   1.260  0.4342 -0.1627  0.2129
  152SOL    HW1  455   1.382   1.773   1.342 -0.5667 -0.6504 -0.6494
  152SOL    HW2  456   1.261   1.737   1.225 -2.9840 -0.6928  2.8516
  153SOL     OW  457   0.024   1.537   0.146 -0.3218 -0.6631 -0.2418
  153SOL    HW1  458   0.001   1.438   0.156 -0.4225  2.8150 -0.1585
  153SOL    HW2  459   0.048   1.577   0.239  0.9571 -0.3627 -1.0283
  154SOL     OW  460   2.360   1.854   2.824 -0.0986  0.2563  0.2585
  154SOL    HW1  461   2.373   1.750   2.840 -0.0594 -1.5083 -2.0283
  154SOL    HW2  462   2.444   1.896   2.774  1.3919  0.2274 -0.9221
  155SOL     OW  463   2.481   1.268   0.367 -0.2030 -0.2870  0.5713
  155SOL    HW1  464   2.566   1.247   0.322 -1.7676 -0.3634  1.5544
  155SOL    HW2  465   2.407   1.204   0.337  0.5985 -2.5892  2.7248
  156SOL     OW  466   2.561   0.934   0.873  0.8876 -0.3479  0.3176
  156SOL    HW1  467   2.467   0.983   0.859  1.0476  0.7651 -0.5473
  156SOL    HW2  468   2.633   1.000   0.845 -1.9542  1.5796  1.9968
  157SOL     OW  469   1.191   2.983   2.964  0.0312  0.0925  0.2059
  157SOL    HW1  470   1.253   2.927   2.902  0.9458 -0.8864 -0.2762
  157SOL    HW2  471   1.217   3.083   2.976  1.7511  2.5323 -3.5352
  158SOL     OW  472   1.021   1.850   1.970 -0.2721  0.5469 -0.6290
  158SOL    HW1  473   1.071   1.939   1.950 -0.6619  0.2789  2.3239
  158SOL    HW2  474   0.946   1.869   2.039 -0.9525  3.1078 -0.4646
  159SOL     OW  475   0.863   0.439   1.309 -0.2017 -0.0280  0.2246
  159SOL    HW1  476   0.840   0.531   1.355  0.0134  0.3683 -1.2773
  159SOL    HW2  477   0.789   0.420   1.236 -1.1493  1.8664 -0.8284
  160SOL     OW  478   1.460   2.484   1.637 -0.2628  0.0870  0.0570
  160SOL    HW1  479   1.452   2.578   1.603 -0.7925  0.6146  4.0712
  160SOL    HW2  480   1.539   2.431   1.600 -0.3561 -2.0878 -0.8215
  161SOL     OW  481   0.183   2.896   0.318 -0.2657 -0.2006 -0.7099
  161SOL    HW1  482   0.091   2.868   0.366 -0.8636  0.0349  0.1451
  161SOL    HW2  483   0.151   2.961   0.249  1.6227  1.9299 -1.4077
  162SOL     OW  484   2.590   1.905   0.474 -0.4401 -0.9403 -0.8605
  162SOL    HW1  485   2.560   1.850   0.388 -0.9079 -2.3026 -0.6050
  162SOL    HW2  486   2.575   1.837   0.555  1.2188  0.4031 -2.6536
  163SOL     OW  487   1.962   2.670   0.710  0.2317 -0.1962  0.3655
  163SOL    HW1  488   1.920   2.711   0.624  0.8008 -0.3050 -0.7234
  163SOL    HW2  489   2.027   2.594   0.687  1.2577  0.0379  1.4899
  164SOL     OW  490   3.046   0.279   1.271 -0.2973 -0.0447  0.5361
  164SOL    HW1  491   3.122   0.342   1.236  1.4362  0.0749 -0.5972
  164SOL    HW2  492   3.079   0.212   1.343  0.6239 -3.0105  0.9236
  165SOL     OW  493   0.969   1.421   0.673  0.2538 -0.2413 -0.1112
  165SOL    HW1  494   0.909   1.463   0.745  0.9966 -2.0778 -1.5895
  165SOL    HW2  495   0.996   1.494   0.601 -4.0977 -1.0242 -0.6661
  166SOL     OW  496   1.483   1.063   1.746  0.1290 -0.0336 -0.6422
  166SOL    HW1  497   1.413   1.008   1.794 -0.9307  1.2859  0.5063
  166SOL    HW2  498   1.562   1.091   1.813  4.6432  0.6583 -0.2894
  167SOL     OW  499   0.829   1.922   1.542 -0.3972  0.0148 -0.1675
  167SOL    HW1  500   0.809   1.977   1.630 -0.2896 -1.2668  2.2598
  167SOL    HW2  501   0.756   1.849   1.526  0.7589  1.1392 -1.2470
  168SOL     OW  502   1.619   2.383   0.160 -0.0798 -0.1620  0.0093
  168SOL    HW1  503   1.702   2.413   0.102 -0.8419 -1.5947 -1.2681
  168SOL    HW2  504   1.626   2.292   0.208  1.3362  3.2857  0.4654
  169SOL     OW  505   0.234   2.608   2.212  0.0124  0.5709 -0.0300
  169SOL    HW1  506   0.277   2.557   2.126  1.9426 -2.6628 -0.3819
  169SOL    HW2  507   0.278   2.577   2.301  0.9405  1.9331  1.7227
  170SOL     OW  508   1.232   0.307   1.925 -0.0319  0.4618  0.3656
  170SOL    HW1  509   1.261   0.262   2.015 -0.4738  2.1070  0.5884
  170SOL    HW2  510   1.197   0.235   1.862 -1.0516  0.9666  0.8800
  171SOL     OW  511   0.217   0.767   2.413  0.0220  0.5899  0.0606
  171SOL    HW1  512   0.139   0.780   2.475 -1.8468 -0.3181 -1.3293
  171SOL    HW2  513   0.185   0.801   2.321 -0.3660 -0.3371 -1.4515
  172SOL     OW  514   0.879   1.141   2.978 -0.5653 -0.7087  0.4577
  172SOL    HW1  515   0.974   1.174   3.017  0.5125  0.9187  1.1114
  172SOL    HW2  516   0.885   1.118   2.875 -1.0061  0.1933 -2.6493
  173SOL     OW  517   0.647   2.692   0.126  0.3106  0.5721 -0.5059
  173SOL    HW1  518   0.627   2.794   0.120  0.8883  0.3803  1.5184
  173SOL    HW2  519   0.560   2.632   0.150  0.0916 -1.3190  0.0592
  174SOL     OW  520   1.398   2.820   1.057  0.0532  0.2836  0.6154
  174SOL    HW1  521   1.402   2.903   0.997  3.2086 -2.2085 -1.1264
  174SOL    HW2  522   1.328   2.747   1.020  0.7254  2.2550 -0.4262
  175SOL     OW  523   0.456   0.029   1.657 -0.1544  0.2362 -0.5589
  175SOL    HW1  524   0.497   0.047   1.752  0.9390  0.6051  1.0568
  175SOL    HW2  525   0.399   0.110   1.625 -1.5209  1.5692  2.0668
  176SOL     OW  526   2.512   0.423   3.064  0.0651 -0.4498  0.0691
  176SOL    HW1  527   2.527   0.483   3.148  2.2265  1.6049 -1.9817
  176SOL    HW2  528   2.444   0.354   3.092  3.4046  0.2237 -3.0419
  177SOL     OW  529   0.358   0.302   0.938 -0.2492 -0.5274 -0.4157
  177SOL    HW1  530   0.431   0.254   1.002 -1.4110  1.3861  2.8609
  177SOL    HW2  531   0.267   0.324   0.988 -0.1847 -1.2405  0.9332
  178SOL     OW  532   0.040   2.718   2.579 -0.3805 -0.0085  0.2137
  178SOL    HW1  533  -0.008   2.635   2.624  0.8606 -1.2838  2.2366
  178SOL    HW2  534   0.120   2.742   2.636 -1.1117 -0.3788  1.3580
  179SOL     OW  535   0.008   1.712   1.175 -0.0872 -0.5514  0.4903
  179SOL    HW1  536  -0.066   1.789   1.182 -1.1825  2.6435 -0.3965
  179SOL    HW2  537   0.022   1.647   1.259  0.1298  0.7462 -1.6835
  180SOL     OW  538   0.236   1.205   1.822  0.6995 -0.1341 -0.0892
  180SOL    HW1  539   0.320   1.240   1.768 -0.1564 -0.6025  2.2881
  180SOL    HW2  540   0.222   1.262   1.909  0.9894  1.7332  2.5362
  181SOL     OW  541   3.041   1.848   2.551 -0.0381  0.3181 -0.6991
  181SOL    HW1  542   3.140   1.870   2.521  2.8442 -1.4225  1.2741
  181SOL    HW2  543   2.977   1.893   2.494  2.5231 -0.5723  5.2493
  182SOL     OW  544   2.321   1.260   1.148 -0.4636 -0.1100  0.1959
  182SOL    HW1  545   2.228   1.221   1.117  0.6394  2.5438  0.5428
  182SOL    HW2  546   2.329   1.362   1.150  1.8842 -1.7612 -0.4721
  183SOL     OW  547   1.481   2.279   2.502 -0.2128 -0.7391 -0.6109
  183SOL    HW1  548   1.412   2.209   2.535 -2.0070 -0.7466  0.5645
  183SOL    HW2  549   1.571   2.245   2.500 -2.2939  1.6941  0.0145
  184SOL     OW  550   2.053   0.941   0.805 -0.6883 -0.0571  0.5656
  184SOL    HW1  551   1.973   1.008   0.813 -0.5705 -1.5826  1.3605
  184SOL    HW2  552   2.020   0.850   0.835 -1.7570 -0.3170 -1.2534
  185SOL     OW  553   1.611   2.677   2.093 -0.5355  0.1500  0.0349
  185SOL    HW1  554   1.561   2.750   2.037 -2.0274  1.0425 -2.4517
  185SOL    HW2  555   1.570   2.655   2.183 -0.3204  0.7248 -1.4274
  186SOL     OW  556   0.071   2.212   1.720 -0.3041  0.4335  0.0451
  186SOL    HW1  557   0.119   2.304   1.703 -0.1708 -1.4214  1.1928
  186SOL    HW2  558   0.145   2.134   1.723 -0.6900 -2.6057  1.2939
  187SOL     OW  559   1.375   0.727   1.684  0.1687  0.1611  0.0517
  187SOL    HW1  560   1.425   0.793   1.626 -0.2244  0.3911 -0.5203
  187SOL    HW2  561   1.392   0.731   1.786  0.1184 -1.8663  1.1381
  188SOL     OW  562   2.799   2.798   1.507  0.4836  0.7086  0.2856
  188SOL    HW1  563   2.769   2.897   1.485 -1.0110 -0.3403 -1.3389
  188SOL    HW2  564   2.790   2.733   1.425 -0.6834  1.8791  0.2211
  189SOL     OW  565   0.851   1.021   1.395 -0.5758  0.4463 -0.2053
  189SOL    HW1  566   0.925   1.097   1.419  1.1784 -0.1085  1.2011
  189SOL    HW2  567   0.790   1.059   1.322  2.1974 -1.9307 -0.7662
  190SOL     OW  568   1.508   1.839   1.590  0.1769  0.7881  0.1299
  190SOL    HW1  569   1.416   1.852   1.545  3.0045  3.5100 -0.2863
  190SOL    HW2  570   1.511   1.885   1.683 -1.5903 -1.0719  1.7939
  191SOL     OW  571   0.994   0.762   1.561 -0.2856  0.0477  0.1162
  191SOL    HW1  572   1.045   0.674   1.586 -0.0592 -0.2080 -0.1479
  191SOL    HW2  573   1.053   0.846   1.539 -1.7848 -0.6054 -2.4483
  192SOL     OW  574   1.839   2.310   1.155  0.1692 -0.1489 -1.0157
  192SOL    HW1  575   1.737   2.323   1.142  1.6365  0.9927  0.7256
  192SOL    HW2  576   1.900   2.351   1.085 -1.9717  1.2273 -0.8385
  193SOL     OW  577   0.500   0.592   0.399  0.1666  0.7054 -0.1243
  193SOL    HW1  578   0.515   0.560   0.498 -1.9147  1.8194 -0.1166
  193SOL    HW2  579   0.515   0.520   0.330  0.1107 -0.5278  2.5453
  194SOL     OW  580   0.290   0.814   1.262 -0.2114  0.1821  0.5572
  194SOL    HW1  581   0.198   0.766   1.247 -2.5696  0.8397  0.0366
  194SOL    HW2  582   0.319   0.877   1.182 -0.2251 -0.4863  0.2386
  195SOL     OW  583   0.960   2.930   0.426  0.5534  0.0402 -0.3384
  195SOL    HW1  584   0.987   2.830   0.408 -1.7460  1.7107  1.8008
  195SOL    HW2  585   1.044   2.997   0.424 -2.6292  0.0728  0.5277
  196SOL     OW  586   0.291   1.440   1.420  0.1849 -0.6280 -0.3698
  196SOL    HW1  587   0.356   1.494   1.480 -0.6607 -1.8025  0.1658
  196SOL    HW2  588   0.266   1.347   1.454 -0.9653  0.2887 -1.5033
  197SOL     OW  589   0.937   2.050   0.206  0.2093  0.2512  0.1109
  197SOL    HW1  590   0.921   2.049   0.308  0.2164 -0.4012 -0.1361
  197SOL    HW2  591   0.964   1.960   0.167  0.0333  1.8534  1.4853
  198SOL     OW  592   0.249   1.252   0.278 -0.0986 -0.1588  0.4524
  198SOL    HW1  593   0.153   1.245   0.249  3.0323 -0.7501  1.3237
  198SOL    HW2  594   0.279   1.353   0.284  0.5260 -1.2961 -3.0512
  199SOL     OW  595   2.255   0.380   2.515 -0.4825 -0.0018  0.4710
  199SOL    HW1  596   2.184   0.345   2.586  1.5181  1.4829 -0.8939
  199SOL    HW2  597   2.353   0.384   2.553  1.0953  1.5974  2.6918
  200SOL     OW  598   3.103   2.986   0.712  0.6361 -0.2313  0.0224
  200SOL    HW1  599   3.013   3.001   0.660 -1.9748 -2.4351  0.2665
  200SOL    HW2  600   3.135   3.081   0.743 -0.7000  0.9909 -2.4584
  201SOL     OW  601   1.130   0.750   0.631 -0.4830 -0.0611  0.4857
  201SOL    HW1  602   1.154   0.822   0.701 -0.1431  0.9582  1.3388
  201SOL    HW2  603   1.029   0.745   0.600 -2.4330  0.1427 -1.5958
  202SOL     OW  604   0.498   1.255   1.732  0.0412  0.1446 -0.0856
  202SOL    HW1  605   0.555   1.242   1.647 -0.6296 -1.2876  0.0584
  202SOL    HW2  606   0.501   1.181   1.806 -1.3549 -4.0096  1.4517
  203SOL     OW  607   0.700   0.191   1.608  0.4341 -0.1579  0.2080
  203SOL    HW1  608   0.665   0.125   1.542  1.8554 -0.7858 -2.0142
  203SOL    HW2  609   0.745   0.157   1.695  2.2253  2.6551  1.3714
  204SOL     OW  610   2.095   1.850   3.025 -0.1039  0.1559 -0.0316
  204SOL    HW1  611   2.120   1.760   2.984  2.7076 -0.1157 -0.8838
  204SOL    HW2  612   2.053   1.899   2.942 -0.5952 -2.6368 -2.9720
  205SOL     OW  613   1.845   1.866   0.050 -0.0518 -0.1187 -0.8914
  205SOL    HW1  614   1.919   1.853  -0.017 -0.9170 -2.1746  0.7847
  205SOL    HW2  615   1.797   1.961   0.037  1.0024  3.4264 -1.5802
  206SOL     OW  616   2.545   2.810   0.382  0.2276 -0.2994 -0.7876
  206SOL    HW1  617   2.612   2.728   0.385  1.0057 -2.1399 -0.5350
  206SOL    HW2  618   2.559   2.878   0.305  2.3243  1.2298 -2.5807
  207SOL     OW  619   0.610   1.775   2.894 -0.2983  0.3376  0.3776
  207SOL    HW1  620   0.707   1.742   2.868  1.7097 -1.1397 -0.6181
  207SOL    HW2  621   0.566   1.708   2.965 -1.4328  0.0016  2.7959
  208SOL     OW  622   1.051   1.540   1.452  0.2856  0.2604 -0.0545
  208SOL    HW1  623   0.978   1.580   1.398  0.3224 -0.4371  1.7580
  208SOL    HW2  624   1.105   1.600   1.515 -0.4183 -0.0113  0.9532
  209SOL     OW  625   0.309   0.952   2.999  0.1764 -0.4629 -0.3503
  209SOL    HW1  626   0.299   0.906   2.907  0.9767  0.3207  0.0707
  209SOL    HW2  627   0.261   0.901   3.076 -0.8114  1.3376 -1.0266
  210SOL     OW  628   1.723   0.475   1.180 -0.2251 -0.2612  0.3896
  210SOL    HW1  629   1.691   0.569   1.161  1.1348 -0.1881  0.8579
  210SOL    HW2  630   1.826   0.469   1.161 -1.7422 -2.6812 -1.7027
  211SOL     OW  631   2.132   1.049   1.623 -0.5233  0.0270 -0.1520
  211SOL    HW1  632   2.206   0.995   1.669 -0.6883 -0.7872 -4.4675
  211SOL    HW2  633   2.175   1.116   1.550  2.7126  2.7575 -1.3154
  212SOL     OW  634   0.009   0.961   1.492  0.0006  0.3643  0.2878
  212SOL    HW1  635   0.059   1.053   1.503  0.8165  2.9667 -0.5358
  212SOL    HW2  636   0.022   0.888   1.569 -0.0579  1.8105  3.1557
  213SOL     OW  637   2.697   0.346   0.273  0.4495  0.0633  0.1141
  213SOL    HW1  638   2.771   0.283   0.230 -0.1446 -0.5612  0.6114
  213SOL    HW2  639   2.684   0.440   0.219 -2.2560  2.0230 -2.6033
  214SOL     OW  640   2.173   0.262   2.261  0.0908  0.1595 -0.2513
  214SOL    HW1  641   2.169   0.318   2.349  0.3333  0.7963  1.5522
  214SOL    HW2  642   2.149   0.159   2.269  0.3213 -0.1932  1.0592
  215SOL     OW  643   1.648   2.265   2.007  0.2508  0.2949 -0.4111
  215SOL    HW1  644   1.744   2.307   1.988  1.0422  2.3604  1.7248
  215SOL    HW2  645   1.591   2.319   2.073 -1.1771  1.6052  0.2366
  216SOL     OW  646   2.205   0.547   0.663 -0.0347  0.9511 -0.0577
  216SOL    HW1  647   2.158   0.460   0.626  2.6400 -1.8934 -0.1903
  216SOL    HW2  648   2.251   0.594   0.587  1.7671  0.3411  0.5705
  217SOL     OW  649   0.748   2.781   2.435 -0.2754  0.1715 -0.5450
  217SOL    HW1  650   0.706   2.689   2.470  0.5392 -1.9541  2.1519
  217SOL    HW2  651   0.774   2.781   2.330  0.0891 -2.4266 -2.8072
  218SOL     OW  652   1.903   1.387   0.070 -0.6672 -0.0297 -0.0569
  218SOL    HW1  653   1.816   1.424   0.031  0.3067 -1.5433 -1.7296
  218SOL    HW2  654   1.901   1.321   0.152 -0.6200  0.7200 -1.9310
  219SOL     OW  655   2.361   1.260   2.516 -0.2545 -0.0490 -0.1747
  219SOL    HW1  656   2.409   1.217   2.441 -2.1021  1.0009 -0.9046
  219SOL    HW2  657   2.350   1.198   2.603  0.7680 -3.6771  0.5306
  220SOL     OW  658   1.509   1.029   1.247  0.5294  0.2813 -0.9140
  220SOL    HW1  659   1.608   1.049   1.275 -1.5854 -1.5689  0.3275
  220SOL    HW2  660   1.490   1.074   1.155  1.1034 -0.2373  0.6820
  221SOL     OW  661   1.357   1.131   2.213 -0.0657 -0.5708  0.4179
  221SOL    HW1  662   1.322   1.203   2.146 -0.0479 -1.6264  0.0488
  221SOL    HW2  663   1.442   1.083   2.179 -1.0669 -1.1326  2.3320
  222SOL     OW  664   1.226   0.048   1.209 -0.1260 -0.4681  0.7496
  222SOL    HW1  665   1.291   0.019   1.280 -2.1387  0.6699 -0.4147
  222SOL    HW2  666   1.237   0.148   1.186  3.6762 -1.5667  1.7460
  223SOL     OW  667   2.929   0.848   2.017 -0.7000  0.5165  0.5608
  223SOL    HW1  668   2.959   0.881   2.111  0.3510  0.3794 -0.5225
  223SOL    HW2  669   2.956   0.910   1.939 -2.4286 -2.1905 -2.6390
  224SOL     OW  670   1.487   0.954   2.800 -0.0717 -0.4454 -0.5490
  224SOL    HW1  671   1.521   0.887   2.732  0.4287  0.9120  2.9893
  224SOL    HW2  672   1.490   1.046   2.763 -2.3618  0.4399 -0.2462
  225SOL     OW  673   2.982   2.765   2.886 -0.0973 -0.4214 -0.3323
  225SOL    HW1  674   2.973   2.686   2.824  0.8838 -1.4610 -0.6164
  225SOL    HW2  675   3.076   2.800   2.888 -1.8179  0.9464 -1.6867
  226SOL     OW  676   2.447   1.577   2.884 -0.1955 -0.0394 -0.6136
  226SOL    HW1  677   2.480   1.579   2.782 -1.3833  1.6511 -3.4492
  226SOL    HW2  678   2.406   1.486   2.918  1.7852 -2.0351  0.3608
  227SOL     OW  679   0.895   0.114   3.015  0.4734  0.0283  0.3161
  227SOL    HW1  680   0.915   0.041   3.086 -1.7727  0.1605  1.3941
  227SOL    HW2  681   0.884   0.086   2.920 -2.1794 -0.3354  2.1555
  228SOL     OW  682   2.383   0.621   2.838 -0.0590  0.4791 -0.3020
  228SOL    HW1  683   2.318   0.631   2.755 -1.3631 -2.3170 -1.0931
  228SOL    HW2  684   2.449   0.547   2.823  2.8196  3.8844 -0.0348
  229SOL     OW  685   0.550   0.519   1.860 -0.3609  0.0144  0.1376
  229SOL    HW1  686   0.534   0.471   1.766  0.9659 -2.5384 -1.5781
  229SOL    HW2  687   0.593   0.612   1.840 -0.2781  3.0341  3.5816
  230SOL     OW  688   1.886   1.249   2.164  0.4429 -0.3088 -0.0852
  230SOL    HW1  689   1.952   1.248   2.085  0.4404  0.4841 -3.3069
  230SOL    HW2  690   1.798   1.293   2.141  2.9900 -0.5199 -1.4322
  231SOL     OW  691   0.634   0.999   3.008 -0.0896 -0.1415 -0.0866
  231SOL    HW1  692   0.711   1.067   2.998 -0.9900 -0.1413  0.0297
  231SOL    HW2  693   0.556   1.018   3.076  0.2575 -2.7456  3.5843
  232SOL     OW  694   2.465   0.004   2.756 -0.1986 -0.8430  0.0618
  232SOL    HW1  695   2.497  -0.061   2.832  0.4400  1.9057  2.5663
  232SOL    HW2  696   2.532   0.008   2.676  1.6464  2.2295 -0.6812
  233SOL     OW  697   1.699   1.250   1.077  0.1144  0.4006  0.6266
  233SOL    HW1  698   1.729   1.319   1.006 -1.2268  3.1830 -1.2473
  233SOL    HW2  699   1.750   1.163   1.070 -2.3980  1.4657 -1.1242
  234SOL     OW  700   1.686   2.572   1.825 -0.4716 -0.6236  0.4515
  234SOL    HW1  701   1.659   2.597   1.923 -2.5056 -0.5803 -0.2968
  234SOL    HW2  702   1.623   2.499   1.789 -0.3486 -1.5569  1.8402
  235SOL     OW  703   0.086   2.995   2.898 -0.6416 -0.1189 -0.1641
  235SOL    HW1  704   0.155   3.071   2.873 -1.0315 -2.4815  0.4972
  235SOL    HW2  705   0.022   3.028   2.974 -1.0587 -1.2270  0.1282
  236SOL     OW  706   2.875   0.683   0.109  0.6171  0.6485 -0.4001
  236SOL    HW1  707   2.919   0.761   0.160  0.0599 -1.7062  0.3807
  236SOL    HW2  708   2.936   0.634   0.046 -1.7818 -0.1054  0.9620
  237SOL     OW  709   1.484   1.633   1.001  0.3141 -0.2028  0.2276
  237SOL    HW1  710   1.578   1.610   1.034  0.0556  0.8193 -0.2954
  237SOL    HW2  711   1.416   1.636   1.086 -0.7467  2.7197  1.2001
  238SOL     OW  712   1.762   1.311   0.799 -0.9218 -0.3089 -0.6933
  238SOL    HW1  713   1.852   1.319   0.744 -0.0846 -0.6831 -1.4491
  238SOL    HW2  714   1.674   1.360   0.760 -3.1372  1.9496  0.1401
  239SOL     OW  715   2.069   0.255   2.700 -0.2214  0.3922 -1.0773
  239SOL    HW1  716   2.137   0.238   2.779 -1.0189  1.2710  3.2312
  239SOL    HW2  717   1.986   0.313   2.730 -3.3738  1.4530 -2.2905
  240SOL     OW  718   0.883   0.693   0.250  0.3843  0.4488  0.6105
  240SOL    HW1  719   0.886   0.601   0.202 -0.9487 -2.3003  2.2436
  240SOL    HW2  720   0.887   0.682   0.351 -0.8714 -1.9057 -4.1378
  241SOL     OW  721   0.582   0.077   0.308  0.2256  0.4930 -0.3563
  241SOL    HW1  722   0.604   0.030   0.220 -0.3272  4.2020  1.1151
  241SOL    HW2  723   0.521   0.022   0.374 -0.8892  0.2524  3.4775
  242SOL     OW  724   0.664   2.449   1.162 -0.4802  0.1421  0.1625
  242SOL    HW1  725   0.663   2.517   1.234 -0.8715  0.3754 -1.8664
  242SOL    HW2  726   0.753   2.463   1.106 -1.4811 -0.1486  0.0347
  243SOL     OW  727   1.108   0.652   2.435  0.3111 -0.0203  0.2473
  243SOL    HW1  728   1.054   0.726   2.401  0.0907  0.3317  0.5294
  243SOL    HW2  729   1.053   0.571   2.462 -0.6634 -1.1742 -0.2076
  244SOL     OW  730   2.805   1.873   2.437  0.2389 -0.6107 -0.0871
  244SOL    HW1  731   2.846   1.872   2.337  1.5646  0.4768 -1.6074
  244SOL    HW2  732   2.714   1.825   2.445 -2.0845  0.6947 -4.3595
  245SOL     OW  733   2.474   0.736   2.149  0.4913 -0.5276 -0.0166
  245SOL    HW1  734   2.475   0.797   2.233 -1.1912  2.6103 -1.8815
  245SOL    HW2  735   2.537   0.654   2.159 -3.0408  0.8410  1.7498
  246SOL     OW  736   0.297   2.911   1.672  0.2928  0.1232 -0.0626
  246SOL    HW1  737   0.234   2.887   1.594  3.6227  0.7840  0.2731
  246SOL    HW2  738   0.355   2.997   1.654  3.2306 -0.5011  0.5320
  247SOL     OW  739   2.182   0.577   3.036  0.3487  0.7348 -0.1876
  247SOL    HW1  740   2.264   0.567   2.979  0.8298 -1.6656  1.7129
  247SOL    HW2  741   2.138   0.673   3.036 -0.2323 -0.0876  0.3147
  248SOL     OW  742   2.188   1.875   1.614 -0.5945  0.1784 -0.1602
  248SOL    HW1  743   2.228   1.786   1.648 -3.2174  0.0204 -1.0304
  248SOL    HW2  744   2.112   1.906   1.675  1.3993 -0.0492  2.2251
  249SOL     OW  745   1.928   2.008   1.958  0.2040  0.1281 -0.4043
  249SOL    HW1  746   1.932   1.923   1.900 -0.3614  1.2418 -0.0142
  249SOL    HW2  747   2.020   2.049   1.980 -2.5666 -0.4036  0.3421
  250SOL     OW  748   1.030   0.694   1.860  0.4635  0.9020  0.5096
  250SOL    HW1  749   1.059   0.628   1.939  3.2953 -0.9383 -1.0015
  250SOL    HW2  750   1.073   0.670   1.768 -0.6245  0.6820  0.0214
  251SOL     OW  751   3.070   1.579   2.555  0.1347  0.7105 -0.1353
  251SOL    HW1  752   3.059   1.683   2.553 -1.4307  0.1609 -3.7650
  251SOL    HW2  753   2.979   1.529   2.563  1.8546 -1.9634  0.8615
  252SOL     OW  754   1.506   0.898   1.519 -0.1012  0.2003  0.1415
  252SOL    HW1  755   1.512   0.933   1.425  0.4140 -0.7803  1.3184
  252SOL    HW2  756   1.508   0.967   1.600  2.7837 -0.6366  0.7982
  253SOL     OW  757   0.943   1.582   0.363 -0.3865 -0.1167  0.4252
  253SOL    HW1  758   0.945   1.486   0.321  0.6311 -3.2546 -1.1962
  253SOL    HW2  759   0.864   1.607   0.412  0.1343 -1.2198 -0.6028
  254SOL     OW  760   2.033   2.184   1.600  0.3045 -0.0980 -0.1461
  254SOL    HW1  761   1.955   2.156   1.542  0.8730  1.3029  1.3521
  254SOL    HW2  762   2.012   2.182   1.701  3.6704 -1.5867  1.8096
  255SOL     OW  763   0.136   1.151   2.925 -0.0675 -0.4247  0.0680
  255SOL    HW1  764   0.179   1.244   2.901  1.1183  2.2555 -1.5100
  255SOL    HW2  765   0.214   1.077   2.939  1.4891  2.1554 -0.1279
  256SOL     OW  766   2.825   1.374   1.853  0.2796 -0.5041  0.5226
  256SOL    HW1  767   2.766   1.460   1.848  1.0663  0.0686  0.0953
  256SOL    HW2  768   2.770   1.289   1.877  1.0476 -0.8287  0.4076
  257SOL     OW  769   0.906   0.184   1.899 -0.3714 -0.4454 -0.3622
  257SOL    HW1  770   0.922   0.243   1.816  2.7359  2.3584  1.3633
  257SOL    HW2  771   0.938   0.087   1.888  0.5027 -1.9720 -1.6788
  258SOL     OW  772   2.966   1.278   0.432  0.1349 -0.4365 -0.4234
  258SOL    HW1  773   2.920   1.366   0.392  1.9626  0.3538  0.8532
  258SOL    HW2  774   3.013   1.291   0.521  0.7150  0.6781  1.7380
  259SOL     OW  775   0.448   2.912   2.978  0.1078 -0.2009  0.3558
  259SOL    HW1  776   0.407   2.860   3.057  0.8269  1.1116 -1.7040
  259SOL    HW2  777   0.426   2.878   2.886  0.2811 -0.8523  1.1378
  260SOL     OW  778   2.693   0.841   2.761  0.7944  0.7156 -0.3239
  260SOL    HW1  779   2.599   0.847   2.717  0.8323  3.5496  0.1244
  260SOL    HW2  780   2.685   0.835   2.863  0.4628 -1.3602 -0.5981
  261SOL     OW  781   2.728   1.353   1.319  0.3674  0.0831  0.1623
  261SOL    HW1  782   2.661   1.298   1.252 -2.0854  0.2978 -0.1635
  261SOL    HW2  783   2.827   1.323   1.307  0.2166 -2.2985 -1.8348
  262SOL     OW  784   1.478   2.899   2.001 -0.2638  0.2743 -0.7238
  262SOL    HW1  785   1.485   2.994   1.961 -2.1277 -0.0049  2.6638
  262SOL    HW2  786   1.382   2.859   2.013 -0.9964 -0.7947 -0.7637
  263SOL     OW  787   0.849   0.782   2.309 -0.2496 -0.0439 -0.4106
  263SOL    HW1  788   0.807   0.698   2.271  0.5052 -0.5169 -0.2082
  263SOL    HW2  789   0.876   0.845   2.235 -0.5954  0.4091  0.2145
  264SOL     OW  790   2.261   0.708   0.470 -0.3603 -0.9127 -0.3267
  264SOL    HW1  791   2.155   0.695   0.462 -0.9615 -1.9657  1.8106
  264SOL    HW2  792   2.286   0.814   0.452 -0.4380  0.0538 -1.5559
  265SOL     OW  793   0.898   2.275   2.670  0.1953 -0.3594 -0.0043
  265SOL    HW1  794   0.958   2.307   2.748 -1.8348  0.7590 -0.3397
  265SOL    HW2  795   0.820   2.213   2.711 -0.8490  0.4279  0.7660
  266SOL     OW  796   1.341   1.708   0.057 -0.0993  0.1012 -0.1525
  266SOL    HW1  797   1.324   1.803   0.095  1.0988 -1.2208 -1.3022
  266SOL    HW2  798   1.442   1.696   0.068 -2.1075  0.2974 -1.5785
  267SOL     OW  799   1.051   3.063   2.383 -0.5718 -0.3482 -0.0489
  267SOL    HW1  800   1.045   2.995   2.303  0.3868 -3.4946  0.2782
  267SOL    HW2  801   1.025   3.159   2.359  1.5079 -0.9631 -0.8835
  268SOL     OW  802   0.676   1.156   1.019  0.0364  0.0238  0.4669
  268SOL    HW1  803   0.719   1.214   1.093  0.5118  1.0429  2.7079
  268SOL    HW2  804   0.632   1.215   0.942 -0.3794  0.5269  1.2526
  269SOL     OW  805   2.434   2.450   1.604  0.6280 -0.7404 -0.1354
  269SOL    HW1  806   2.509   2.380   1.592 -0.6886  0.8869  0.3210
  269SOL    HW2  807   2.400   2.459   1.704 -0.1740 -3.0433 -1.8630
  270SOL     OW  808   0.176   2.997   1.940 -0.5460  0.6820 -0.2508
  270SOL    HW1  809   0.270   2.994   1.897 -0.7055  2.2441 -0.2747
  270SOL    HW2  810   0.131   2.902   1.936  0.4952  0.3785  0.0570
  271SOL     OW  811   0.456   1.407   1.188 -0.4915  0.2618 -0.0487
  271SOL    HW1  812   0.428   1.464   1.105 -4.5614 -1.5143  1.8208
  271SOL    HW2  813   0.393   1.415   1.269 -0.4734  2.7107  0.4357
  272SOL     OW  814   1.902   2.918   1.908  0.5719 -0.0287  0.3061
  272SOL    HW1  815   1.873   2.840   1.843 -0.3951 -0.4917  0.0732
  272SOL    HW2  816   1.999   2.956   1.881 -1.4288  0.4495  0.7303
  273SOL     OW  817   1.406   1.411   2.820  0.1237 -0.1086  0.1584
  273SOL    HW1  818   1.342   1.466   2.761 -2.7457  0.1172 -0.0467
  273SOL    HW2  819   1.411   1.445   2.918 -1.9062  2.4847  1.0139
  274SOL     OW  820   1.150   0.523   2.041 -0.0250  0.3076 -0.0837
  274SOL    HW1  821   1.179   0.437   1.986 -2.6328  1.3440  2.1385
  274SOL    HW2  822   1.203   0.540   2.125  1.9066  0.8557 -0.6917
  275SOL     OW  823   0.619   2.086   1.968 -0.0547  0.0446 -0.1371
  275SOL    HW1  824   0.583   2.179   1.936  3.8042 -1.0794 -1.1002
  275SOL    HW2  825   0.567   2.002   1.934 -0.2575 -1.5543 -1.3399
  276SOL     OW  826   2.172   0.935   2.754 -0.1480 -0.3308 -1.0004
  276SOL    HW1  827   2.089   0.940   2.694  1.7731 -2.6120 -1.0375
  276SOL    HW2  828   2.147   0.890   2.850 -0.0612 -0.4636  1.6986
  277SOL     OW  829   3.056   0.865   0.206 -0.0246  0.2758  0.0656
  277SOL    HW1  830   3.133   0.905   0.150  1.0229  1.0293  1.7742
  277SOL    HW2  831   3.080   0.777   0.258  1.1672 -2.7225 -0.4329
  278SOL     OW  832   0.197   0.282   2.961  0.4926  0.4829  0.3154
  278SOL    HW1  833   0.249   0.223   3.023 -0.3145  2.4029 -1.0064
  278SOL    HW2  834   0.219   0.381   2.988 -0.9201 -2.4141 -0.1673
  279SOL     OW  835   0.161   0.053   0.865 -0.0365  0.0865 -0.2934
  279SOL    HW1  836   0.193   0.061   0.965 -0.5526  1.2380 -0.9146
  279SOL    HW2  837   0.233   0.036   0.790  0.3141 -0.2936 -1.4768
  280SOL     OW  838   1.612   2.928   2.560  0.3748 -0.6537  0.1464
  280SOL    HW1  839   1.689   2.988   2.523  3.7029 -0.3362  2.8383
  280SOL    HW2  840   1.528   2.984   2.556  1.0371 -0.5893 -1.9835
  281SOL     OW  841   0.566   0.979   2.302 -0.1899  0.6137 -0.6468
  281SOL    HW1  842   0.589   0.880   2.270 -0.2989 -2.1435 -2.7368
  281SOL    HW2  843   0.514   0.977   2.392  0.6886  2.2830  0.0650
  282SOL     OW  844   1.728   2.407   0.511 -0.0587 -0.7657  0.0601
  282SOL    HW1  845   1.720   2.363   0.417 -1.1547  1.0336 -1.7125
  282SOL    HW2  846   1.674   2.494   0.508 -3.1153 -0.6210 -2.1125
  283SOL     OW  847   1.186   0.964   0.797  0.3515 -0.6746  0.9829
  283SOL    HW1  848   1.227   0.923   0.879 -2.5867  3.1994  1.7516
  283SOL    HW2  849   1.126   1.049   0.818  0.9482 -1.3084 -1.9375
  284SOL     OW  850   2.370   2.795   2.335  0.1624 -0.2367 -0.9751
  284SOL    HW1  851   2.440   2.846   2.281  3.4216 -1.6245  1.8495
  284SOL    HW2  852   2.399   2.779   2.438 -2.2338  0.7166  0.0504
  285SOL     OW  853   1.336   2.967   2.541 -0.5392 -0.2638 -0.2030
  285SOL    HW1  854   1.330   2.989   2.444  1.2923 -0.8193 -1.5158
  285SOL    HW2  855   1.256   2.997   2.600  1.8381  2.0371 -0.5078
  286SOL     OW  856   0.463   0.421   0.703 -0.1453 -0.5058  0.0503
  286SOL    HW1  857   0.428   0.387   0.796  0.6563 -0.5921 -0.0209
  286SOL    HW2  858   0.441   0.354   0.625  0.5754  0.6649  0.4295
  287SOL     OW  859   0.124   1.303   2.546  0.3227 -0.2043  0.3030
  287SOL    HW1  860   0.057   1.247   2.603 -2.1022 -1.1571 -2.8339
  287SOL    HW2  861   0.095   1.406   2.539  1.1222  0.6144  0.8655
  288SOL     OW  862   1.587   2.694   1.508 -0.7591 -0.5060  0.3245
  288SOL    HW1  863   1.645   2.604   1.489  0.8397 -0.3155  4.7842
  288SOL    HW2  864   1.609   2.781   1.461 -3.9235  1.1928  0.7992
  289SOL     OW  865   0.673   2.733   0.763  0.4510 -0.3423  0.5056
  289SOL    HW1  866   0.695   2.809   0.694  2.0412 -2.3127  2.2624
  289SOL    HW2  867   0.671   2.760   0.863  0.6788 -0.0343  1.7904
  290SOL     OW  868   2.863   1.135   1.599 -0.1696 -1.3368  0.5846
  290SOL    HW1  869   2.766   1.100   1.601 -1.5572  1.2408  0.3769
  290SOL    HW2  870   2.920   1.100   1.680 -0.3509 -1.1812 -2.6343
  291SOL     OW  871   1.965   0.036   0.100 -0.5980 -0.3803 -0.5156
  291SOL    HW1  872   1.988   0.039   0.202  0.4480 -1.8305 -0.2236
  291SOL    HW2  873   1.989   0.120   0.042 -0.0646 -0.5603 -0.1978
  292SOL     OW  874   2.979   1.160   3.030  0.3661  0.2697  0.0505
  292SOL    HW1  875   2.910   1.198   2.962  0.5443  0.1251 -2.6939
  292SOL    HW2  876   3.081   1.153   2.999  0.6495  2.3698 -0.6418
  293SOL     OW  877   0.613   2.139   0.130  0.0090  0.5651  0.7493
  293SOL    HW1  878   0.575   2.173   0.223  0.5966  0.8192  1.0041
  293SOL    HW2  879   0.709   2.110   0.130 -2.8539  0.7332 -0.7692
  294SOL     OW  880   1.682   2.155   1.767  0.1124  0.0982  0.1055
  294SOL    HW1  881   1.688   2.192   1.863  0.6462  0.0408  0.1313
  294SOL    HW2  882   1.681   2.221   1.684 -0.9814  0.5105  0.4369
  295SOL     OW  883   1.014   0.996   0.446  0.4034  0.0969  0.6489
  295SOL    HW1  884   1.110   1.028   0.487  0.2629 -0.8084 -0.1023
  295SOL    HW2  885   0.937   1.029   0.509  2.5072  1.9040  3.6976
  296SOL     OW  886   1.337   2.043   2.505  0.2108  0.4133  0.0437
  296SOL    HW1  887   1.347   2.052   2.403 -0.2895  0.2418  0.7834
  296SOL    HW2  888   1.344   1.938   2.536  0.5569 -2.1267  2.2620
  297SOL     OW  889   1.482   0.606   1.359  0.2577  0.0617  0.1047
  297SOL    HW1  890   1.439   0.511   1.371  1.9695  0.6176  2.3875
  297SOL    HW2  891   1.579   0.617   1.394 -1.4139  4.5496  1.0228
  298SOL     OW  892   0.436   1.208   2.886 -0.0496  0.2586  0.0497
  298SOL    HW1  893   0.447   1.149   2.975  0.1681  0.0739  1.4504
  298SOL    HW2  894   0.519   1.214   2.821  0.2007  1.1419 -0.2403
  299SOL     OW  895   0.469   0.291   1.459  0.7813 -0.1552 -0.3910
  299SOL    HW1  896   0.436   0.380   1.421 -2.7122 -2.0369 -2.1347
  299SOL    HW2  897   0.559   0.297   1.499  0.1951 -0.5903 -0.2009
  300SOL     OW  898   1.185   1.795   2.895  0.2672 -0.0590 -0.0764
  300SOL    HW1  899   1.141   1.735   2.825  3.1208  0.2747  2.4131
  300SOL    HW2  900   1.195   1.745   2.989  1.0879 -1.7190 -0.7334
  301SOL     OW  901   0.444   0.272   0.454  0.3155 -0.1653  0.6970
  301SOL    HW1  902   0.347   0.277   0.412  2.2777 -0.4317 -1.0518
  301SOL    HW2  903   0.520   0.257   0.386 -1.8755 -0.7545  1.9647
  302SOL     OW  904   1.246   2.321   2.319  0.4363 -0.0812 -0.4038
  302SOL    HW1  905   1.169   2.353   2.383 -4.4098  1.6881  0.5714
  302SOL    HW2  906   1.240   2.220   2.299 -1.9873  2.4400 -0.1263
  303SOL     OW  907   0.948   2.327   0.791  0.1638  0.0112 -0.1688
  303SOL    HW1  908   0.980   2.374   0.706  1.0088 -1.4959  0.4248
  303SOL    HW2  909   0.986   2.377   0.874  1.8010 -0.7331  0.6263
  304SOL     OW  910   0.133   2.060   0.658  0.1951 -0.0737 -0.5744
  304SOL    HW1  911   0.176   1.996   0.590 -0.1785  0.7656  2.8187
  304SOL    HW2  912   0.063   2.124   0.609 -1.6095  0.1434 -0.1121
  305SOL     OW  913   1.597   0.882   0.620 -0.3191 -0.2415 -0.5665
  305SOL    HW1  914   1.549   0.885   0.525  0.7097 -1.2264 -1.1752
  305SOL    HW2  915   1.669   0.809   0.613 -1.2368  0.2127 -0.6351
  306SOL     OW  916   0.474   1.860   1.901  0.3604 -0.5535  0.0061
  306SOL    HW1  917   0.554   1.800   1.875 -2.8352 -0.5976  1.7416
  306SOL    HW2  918   0.427   1.832   1.987 -0.3431 -1.8750 -2.0536
  307SOL     OW  919   0.021   0.840   2.604 -0.1839  0.1257  0.0516
  307SOL    HW1  920   0.018   0.940   2.631  3.4338 -0.8740 -2.4017
  307SOL    HW2  921  -0.065   0.797   2.638  0.4356  1.0899  0.2725
  308SOL     OW  922   1.515   2.653   2.881 -0.1766  0.8743 -0.2897
  308SOL    HW1  923   1.515   2.638   2.782  2.7390 -1.1004 -0.9992
  308SOL    HW2  924   1.435   2.597   2.932  0.5559 -0.2295 -1.2066
  309SOL     OW  925   1.230   0.087   1.749  0.4142 -0.3456  0.5326
  309SOL    HW1  926   1.336   0.076   1.759  1.8878  1.9332  0.0150
  309SOL    HW2  927   1.203   0.120   1.651 -1.3747 -2.7436 -2.4612
  310SOL     OW  928   1.430   2.567   0.727  1.0861 -0.4937 -0.7619
  310SOL    HW1  929   1.372   2.603   0.807 -2.3528 -2.7538 -0.5093
  310SOL    HW2  930   1.494   2.639   0.679  0.7926 -0.4346 -0.9525
  311SOL     OW  931   1.159   0.964   1.556  0.0444 -0.7066  0.5052
  311SOL    HW1  932   1.228   0.896   1.584 -3.4538  0.0179  0.0362
  311SOL    HW2  933   1.198   1.063   1.543 -0.0425 -1.5038 -1.4162
  312SOL     OW  934   1.634   0.707   1.010  0.6635  0.0020  0.1338
  312SOL    HW1  935   1.608   0.806   0.980 -0.4498  2.2204  2.5941
  312SOL    HW2  936   1.565   0.639   0.966 -2.3051 -0.2458  2.0703
  313SOL     OW  937   1.536   1.402   0.678  0.1295 -0.1045  0.8149
  313SOL    HW1  938   1.440   1.439   0.681  3.0575 -0.2755 -0.9189
  313SOL    HW2  939   1.539   1.301   0.650  0.0510  0.0812  1.2690
  314SOL     OW  940   2.982   3.084   3.084 -0.1249 -0.5812  1.0560
  314SOL    HW1  941   2.962   3.146   3.163  0.9882 -2.9010  2.8107
  314SOL    HW2  942   2.921   2.998   3.074 -0.4088 -1.3044  1.0402
  315SOL     OW  943   1.221   0.226   2.780  0.0225 -0.1343  0.0535
  315SOL    HW1  944   1.175   0.154   2.722  1.2898 -2.6909 -0.8936
  315SOL    HW2  945   1.271   0.177   2.860 -0.6630 -0.5209  0.4476
  316SOL     OW  946   1.721   2.094   0.916 -0.2448  0.3843 -0.5018
  316SOL    HW1  947   1.676   2.101   1.009 -0.3708  1.2575  2.4805
  316SOL    HW2  948   1.708   2.183   0.861 -1.9662 -1.1123 -1.3444
  317SOL     OW  949   1.133   0.716   2.842 -0.6837  0.2359  0.3063
  317SOL    HW1  950   1.067   0.732   2.924  0.1084  0.3696  1.0288
  317SOL    HW2  951   1.101   0.634   2.790  1.2535 -0.2936 -0.9251
  318SOL     OW  952   1.450   3.024   2.257 -0.7263 -0.1296 -0.3926
  318SOL    HW1  953   1.415   3.118   2.250  1.0847 -3.4257 -1.8380
  318SOL    HW2  954   1.484   2.970   2.174  1.6353  0.2490  1.8717
  319SOL     OW  955   0.654   2.405   2.910  0.2886  0.2783 -0.1932
  319SOL    HW1  956   0.574   2.381   2.972 -0.6987 -1.3754 -2.1684
  319SOL    HW2  957   0.735   2.342   2.916 -2.1597 -1.4352  1.0916
  320SOL     OW  958   1.626   2.180   0.344 -0.0282 -0.0568  0.1956
  320SOL    HW1  959   1.725   2.152   0.347  0.5157  1.0253 -0.2930
  320SOL    HW2  960   1.577   2.148   0.427  2.0527  0.9294 -4.0439
  321SOL     OW  961   1.602   2.649   0.492  0.5108 -0.1879 -0.0628
  321SOL    HW1  962   1.511   2.705   0.487 -1.3151 -1.5788 -1.9284
  321SOL    HW2  963   1.682   2.710   0.479 -0.3981 -2.0032 -2.3199
  322SOL     OW  964   2.546   1.121   2.257  0.0885  0.1681  0.1510
  322SOL    HW1  965   2.623   1.148   2.327  2.9978 -0.1579 -0.9752
  322SOL    HW2  966   2.516   1.019   2.265 -1.5965  1.2251 -0.3237
  323SOL     OW  967   1.008   2.659   0.790  0.8254 -0.4318  0.2573
  323SOL    HW1  968   1.004   2.605   0.699 -0.9770 -2.4596  1.6010
  323SOL    HW2  969   1.021   2.760   0.778 -0.8411  0.5490 -1.7514
  324SOL     OW  970   0.224   2.467   2.467  0.7713 -0.1560  0.3361
  324SOL    HW1  971   0.182   2.386   2.518 -0.5420  0.3504  1.0591
  324SOL    HW2  972   0.155   2.547   2.460  0.9631  0.2753 -3.2757
  325SOL     OW  973   1.211   3.050   0.462  0.0513  0.1078  0.2449
  325SOL    HW1  974   1.248   3.094   0.376 -0.0629 -0.3037  0.5044
  325SOL    HW2  975   1.231   3.111   0.541 -0.0372 -0.9830 -1.1179
  326SOL     OW  976   2.466   0.758   3.052  0.1843 -0.4146  0.1643
  326SOL    HW1  977   2.409   0.711   2.977  2.5309  1.5544 -2.4415
  326SOL    HW2  978   2.517   0.695   3.117 -1.6553 -2.4325 -1.1630
  327SOL     OW  979   2.867   0.391   0.506  0.5197 -0.3595 -0.1938
  327SOL    HW1  980   2.815   0.369   0.419  1.9891 -1.3972 -0.6131
  327SOL    HW2  981   2.850   0.326   0.584  1.4725  0.5643 -2.3648
  328SOL     OW  982   2.483   0.562   0.392  0.6072  0.5943  0.2193
  328SOL    HW1  983   2.398   0.620   0.411  0.1169 -0.2618 -2.0271
  328SOL    HW2  984   2.518   0.516   0.476 -1.2002 -1.1888 -2.3009
  329SOL     OW  985   2.935   2.983   2.167 -0.2844 -0.5344 -0.0240
  329SOL    HW1  986   2.984   2.913   2.224 -0.6438 -0.3275  0.4371
  329SOL    HW2  987   2.976   3.078   2.185  0.1897 -0.6633 -1.1579
  330SOL     OW  988   0.529   0.180   1.892  0.0450  0.1078  0.1447
  330SOL    HW1  989   0.589   0.262   1.895 -0.6762  0.1674  1.0189
  330SOL    HW2  990   0.533   0.123   1.977  2.2768  0.9776  0.9861
  331SOL     OW  991   2.943   1.942   1.119 -0.5767  0.1947  0.2339
  331SOL    HW1  992   2.966   2.024   1.061 -1.0401 -0.7390  0.0137
  331SOL    HW2  993   2.873   1.971   1.192 -0.9159 -1.2010 -0.5983
  332SOL     OW  994   0.424   1.123   0.075 -0.1483  0.3040 -0.3598
  332SOL    HW1  995   0.363   1.061   0.020 -0.1422 -0.8361 -0.6628
  332SOL    HW2  996   0.382   1.153   0.164  1.7942 -0.8618 -0.7170
  333SOL     OW  997   2.875   1.056   0.309  0.1166  0.3879  0.2917
  333SOL    HW1  998   2.922   1.121   0.375  2.0041 -1.7642 -0.2254
  333SOL    HW2  999   2.939   1.002   0.251 -1.8409 -0.4796 -1.4546
  334SOL     OW 1000   1.686   1.191   1.892  0.3717 -0.2287 -0.5273
  334SOL    HW1 1001   1.781   1.160   1.869 -3.1571 -0.9966 -1.8878
  334SOL    HW2 1002   1.678   1.283   1.941  0.3993  0.5105  1.6893
  335SOL     OW 1003   1.991   2.763   2.612 -0.3614  0.1250 -0.0148
  335SOL    HW1 1004   1.928   2.698   2.669 -1.8049 -3.2485 -0.5426
  335SOL    HW2 1005   2.062   2.823   2.669  1.1435  3.5564  0.4730
  336SOL     OW 1006   0.257   0.100   2.766  0.2816 -0.6318  0.5153
  336SOL    HW1 1007   0.355   0.093   2.729 -1.2533  1.1200  0.5937
  336SOL    HW2 1008   0.236   0.177   2.836 -0.2298 -1.9949  0.5930
  337SOL     OW 1009   0.932   2.789   2.794  0.0791  0.4135  0.0798
  337SOL    HW1 1010   0.910   2.752   2.886  0.8438 -0.2045 -3.6704
  337SOL    HW2 1011   1.016   2.740   2.760 -0.0289  2.5690 -0.3062
  338SOL     OW 1012   0.030   0.987   0.674 -0.4084  0.2488  0.6241
  338SOL    HW1 1013  -0.068   0.946   0.680 -0.3749 -1.1944  2.5070
  338SOL    HW2 1014   0.029   1.088   0.646  2.8556  1.1548  2.0545
  339SOL     OW 1015   1.678   1.388   2.088 -0.0944 -0.3193  0.0899
  339SOL    HW1 1016   1.580   1.429   2.088  0.9249  1.5762 -0.8766
  339SOL    HW2 1017   1.754   1.463   2.104  0.1726  3.5084  0.7253
  340SOL     OW 1018   2.305   0.806   1.213  0.9562 -0.3354  0.5528
  340SOL    HW1 1019   2.202   0.804   1.203  2.4897 -1.0067 -0.7644
  340SOL    HW2 1020   2.348   0.718   1.173  2.4269 -0.0232 -0.0896
  341SOL     OW 1021   1.917   2.149   0.349  0.0905 -0.1956 -0.3872
  341SOL    HW1 1022   1.949   2.217   0.273 -1.4190 -0.9572 -3.7420
  341SOL    HW2 1023   1.996   2.123   0.409 -1.9264  3.1670  2.7731
  342SOL     OW 1024   2.202   2.105   2.771 -0.0575 -0.0314 -0.1095
  342SOL    HW1 1025   2.270   2.029   2.776 -2.6704  0.1885 -1.6845
  342SOL    HW2 1026   2.108   2.071   2.795 -0.7934 -1.3550  2.6635
  343SOL     OW 1027   0.325   0.792   2.774  0.0867 -0.0084  0.0376
  343SOL    HW1 1028   0.288   0.854   2.696 -2.4470  0.8927 -0.5152
  343SOL    HW2 1029   0.428   0.810   2.794 -3.3545 -0.8288  2.8400
  344SOL     OW 1030   1.909   1.453   0.445  0.4389 -0.2867  0.7682
  344SOL    HW1 1031   1.924   1.386   0.367 -0.9651 -0.6803  2.1854
  344SOL    HW2 1032   1.812   1.487   0.449  3.1630 -0.6672 -1.0986
  345SOL     OW 1033   1.392   2.270   2.883 -0.0284  0.6696  0.7588
  345SOL    HW1 1034   1.294   2.237   2.869  0.5601 -0.5118  0.6151
  345SOL    HW2 1035   1.464   2.211   2.837 -0.4224 -0.8519  1.6141
  346SOL     OW 1036   2.307   0.870   1.469 -0.0701  0.3622  0.2906
  346SOL    HW1 1037   2.266   0.965   1.481 -0.9581  1.8949  0.0868
  346SOL    HW2 1038   2.302   0.833   1.370  1.4551  0.4183 -0.2586
  347SOL     OW 1039   0.729   2.855   1.512  0.0650 -0.5274 -0.1725
  347SOL    HW1 1040   0.717   2.791   1.592  0.4536  1.4394  1.1764
  347SOL    HW2 1041   0.642   2.911   1.496  1.5452 -0.1634  1.6764
  348SOL     OW 1042   0.084   0.653   2.859  0.4897  0.0470 -0.2837
  348SOL    HW1 1043   0.007   0.681   2.797  0.1999  2.2948 -3.4960
  348SOL    HW2 1044   0.183   0.678   2.825  2.5520 -0.5896  0.4700
  349SOL     OW 1045   1.848   0.428   2.798 -0.2879 -0.3523 -0.1904
  349SOL    HW1 1046   1.823   0.520   2.757 -3.7530  0.4024 -0.1071
  349SOL    HW2 1047   1.833   0.435   2.899  0.4885  3.2243 -0.5171
  350SOL     OW 1048   1.630   0.432   0.377 -0.5074  0.4202 -0.1506
  350SOL    HW1 1049   1.717   0.434   0.440  1.4717 -1.2328 -1.4583
  350SOL    HW2 1050   1.571   0.516   0.367 -1.6196  1.5597 -1.6392
  351SOL     OW 1051   0.968   0.902   2.066 -0.0611 -0.3985 -0.3162
  351SOL    HW1 1052   0.932   0.987   2.026  0.5437 -1.3663  2.2826
  351SOL    HW2 1053   0.998   0.836   1.996  2.0747 -1.3716  0.4830
  352SOL     OW 1054   1.999   1.296   0.655  0.0278  0.0917  0.2787
  352SOL    HW1 1055   1.965   1.351   0.581  1.6364 -2.4741  0.8575
  352SOL    HW2 1056   2.088   1.327   0.700  1.1997 -0.5342 -0.0423
  353SOL     OW 1057   2.137   2.896   1.133  0.0124  0.2169 -0.0328
  353SOL    HW1 1058   2.210   2.837   1.182  0.6731  1.9182 -0.0079
  353SOL    HW2 1059   2.106   2.847   1.045  1.2571 -0.9960 -1.3943
  354SOL     OW 1060   0.241   1.407   2.850  0.0838  0.0441  0.2902
  354SOL    HW1 1061   0.218   1.482   2.784 -2.3985  0.3223  2.6847
  354SOL    HW2 1062   0.335   1.363   2.833  2.3851 -0.1573 -1.1318
  355SOL     OW 1063   0.524   1.528   0.512  0.4918 -0.2224 -0.5384
  355SOL    HW1 1064   0.556   1.605   0.570  0.2820 -0.8938 -0.7618
  355SOL    HW2 1065   0.567   1.440   0.538 -0.6124 -0.2114  0.9574
  356SOL     OW 1066   0.926   0.347   2.121  0.5061 -0.6561 -0.2909
  356SOL    HW1 1067   0.988   0.425   2.102 -1.4273 -3.8234  0.6428
  356SOL    HW2 1068   0.919   0.275   2.045  1.6749 -0.2206 -2.2150
  357SOL     OW 1069   1.029   1.296   0.343  0.1427  0.3322  0.7269
  357SOL    HW1 1070   0.956   1.271   0.275  2.7687 -1.4918 -1.3938
  357SOL    HW2 1071   1.014   1.242   0.427  1.0284  2.2349  3.5774
  358SOL     OW 1072   1.651   1.521   0.448 -0.1478 -0.5144  0.4143
  358SOL    HW1 1073   1.629   1.487   0.541  1.6826 -0.2167  1.2590
  358SOL    HW2 1074   1.575   1.517   0.378 -1.1140 -2.0055 -0.5879
  359SOL     OW 1075   1.571   2.694   0.091  0.3113  0.3086 -0.3575
  359SOL    HW1 1076   1.603   2.607   0.053 -0.3555  2.1619  0.6106
  359SOL    HW2 1077   1.467   2.704   0.100 -1.9732  1.2899 -1.6754
  360SOL     OW 1078   0.884   0.612   0.499 -0.5888  0.4338  0.3524
  360SOL    HW1 1079   0.806   0.622   0.571 -2.8653  0.1465  0.7525
  360SOL    HW2 1080   0.906   0.515   0.478  0.3842  0.4714  0.9117
  361SOL     OW 1081   1.248   1.393   0.675 -0.1950 -0.1461  0.1251
  361SOL    HW1 1082   1.287   1.397   0.770 -0.9757  2.3263 -1.1790
  361SOL    HW2 1083   1.145   1.402   0.670 -3.7900 -0.5450 -1.6239
  362SOL     OW 1084   1.380   1.748   0.772  0.1697  0.3938 -0.2289
  362SOL    HW1 1085   1.415   1.683   0.850  0.5087 -0.8904  0.1452
  362SOL    HW2 1086   1.455   1.814   0.744  1.0970 -0.4336 -1.4100
  363SOL     OW 1087   1.213   1.303   2.032  0.5282 -0.3442  0.4434
  363SOL    HW1 1088   1.156   1.366   2.092 -0.8033 -3.3852 -0.4475
  363SOL    HW2 1089   1.246   1.349   1.945  0.6145 -0.1232  1.2988
  364SOL     OW 1090   0.538   2.346   1.920 -0.2515  0.3486 -0.1664
  364SOL    HW1 1091   0.459   2.408   1.934  0.0887  1.1584  0.4251
  364SOL    HW2 1092   0.584   2.364   1.827 -1.6659 -0.2401 -1.0510
  365SOL     OW 1093   1.067   1.944   1.392 -0.3889 -0.2349  0.0172
  365SOL    HW1 1094   0.973   1.956   1.437 -0.4382 -0.5631  3.5766
  365SOL    HW2 1095   1.074   1.858   1.337 -0.9569 -1.7214  1.5595
  366SOL     OW 1096   2.816   2.047   0.481 -0.0053 -0.0888  0.3186
  366SOL    HW1 1097   2.730   1.994   0.465  3.1539 -2.4633 -0.9775
  366SOL    HW2 1098   2.882   2.046   0.396  1.8011  2.1869  0.4463
  367SOL     OW 1099   0.806   1.203   0.141  0.2068 -0.7527 -0.2075
  367SOL    HW1 1100   0.796   1.097   0.149 -1.0436 -0.7393  1.2872
  367SOL    HW2 1101   0.830   1.226   0.039  0.2416 -0.3331  0.1677
  368SOL     OW 1102   1.517   0.574   0.709 -0.2601  0.3114 -0.2738
  368SOL    HW1 1103   1.449   0.612   0.642 -2.3819  1.0411 -0.0632
  368SOL    HW2 1104   1.612   0.611   0.695  0.9261  1.7644  1.9517
  369SOL     OW 1105   0.277   1.730   0.051 -0.6672  0.1101 -0.1550
  369SOL    HW1 1106   0.310   1.818   0.100  1.4080  3.0847  1.5240
  369SOL    HW2 1107   0.175   1.707   0.061  0.2785 -0.5830 -2.6142
  370SOL     OW 1108   0.383   2.121   1.038  0.0322  0.0937  0.3494
  370SOL    HW1 1109   0.411   2.209   0.987  0.8766 -0.2947  0.4898
  370SOL    HW2 1110   0.296   2.085   0.996  1.0115 -0.7565  1.0264
  371SOL     OW 1111   2.901   2.219   2.747 -0.2469  0.4134 -0.1335
  371SOL    HW1 1112   2.901   2.189   2.845  2.5353 -0.4887  0.5170
  371SOL    HW2 1113   2.988   2.274   2.723 -1.4267 -1.0022  0.2043
  372SOL     OW 1114   0.982   1.908   0.935  1.1006  0.4004  0.3219
  372SOL    HW1 1115   0.948   2.000   0.967  1.6054 -1.9083  1.8235
  372SOL    HW2 1116   1.074   1.900   0.888  1.6734 -0.4672  2.0693
  373SOL     OW 1117   1.952   2.011   0.893 -0.1831 -0.1110 -0.4907
  373SOL    HW1 1118   1.995   2.021   0.989 -0.3006  0.0835 -1.1101
  373SOL    HW2 1119   1.847   2.036   0.897  0.7687  1.7174 -0.5759
  374SOL     OW 1120   1.841   0.459   0.543 -0.1173 -0.1185  0.0378
  374SOL    HW1 1121   1.852   0.398   0.628 -3.7041  0.3426  1.1803
  374SOL    HW2 1122   1.936   0.463   0.484 -0.5602  1.5239  1.6660
  375SOL     OW 1123   2.374   2.152   1.130 -0.2759  0.3065  0.0771
  375SOL    HW1 1124   2.463   2.161   1.069  0.4027  1.2835  0.5726
  375SOL    HW2 1125   2.396   2.145   1.232 -2.4231 -0.5697 -1.7292
  376SOL     OW 1126   3.028   0.606   1.412 -0.5509 -0.0400 -0.4592
  376SOL    HW1 1127   3.076   0.674   1.472  0.7845 -0.7077 -0.5643
  376SOL    HW2 1128   2.925   0.612   1.426  0.5426 -0.1489  0.8855
  377SOL     OW 1129   2.275   2.824   0.327 -0.2373 -0.0716  0.3275
  377SOL    HW1 1130   2.247   2.919   0.358  0.4708  0.4299  2.2905
  377SOL    HW2 1131   2.381   2.812   0.352  1.3370 -1.1718  1.4769
  378SOL     OW 1132   1.793   1.918   2.633 -0.8343  0.3195  0.2594
  378SOL    HW1 1133   1.818   1.821   2.657  0.4616 -1.1984 -1.5484
  378SOL    HW2 1134   1.819   1.941   2.535  0.6768 -1.6710 -2.8379
  379SOL     OW 1135   0.879   0.070   2.731  0.1329  0.1838  0.2613
  379SOL    HW1 1136   0.834  -0.014   2.693  3.2968  1.0982 -0.8199
  379SOL    HW2 1137   0.847   0.160   2.691  0.6755  1.2292 -1.8928
  380SOL     OW 1138   1.519   1.152   0.587  0.1828  0.5615 -0.3744
  380SOL    HW1 1139   1.426   1.161   0.537 -0.9260 -0.3795 -1.7820
  380SOL    HW2 1140   1.533   1.058   0.622 -1.6659 -1.2335  0.5465
  381SOL     OW 1141   1.311   1.194   1.517 -0.4098  0.1542  0.6622
  381SOL    HW1 1142   1.350   1.253   1.442  0.5828 -0.3134  1.1560
  381SOL    HW2 1143   1.383   1.175   1.593 -0.3201 -0.8824  0.3437
  382SOL     OW 1144   1.760   0.795   0.266  0.2382  0.0469  0.0269
  382SOL    HW1 1145   1.794   0.786   0.167 -0.9746 -0.8378 -2.2317
  382SOL    HW2 1146   1.838   0.815   0.331  2.0119  0.6773 -0.7548
  383SOL     OW 1147   2.574   0.969   1.504 -0.0077 -0.0533  0.0591
  383SOL    HW1 1148   2.486   0.911   1.487 -3.5516  0.2408 -2.8093
  383SOL    HW2 1149   2.657   0.943   1.450 -0.6974 -3.0604  1.7241
  384SOL     OW 1150   0.886   2.275   0.088 -0.4309  0.2553 -0.6290
  384SOL    HW1 1151   0.841   2.352   0.135 -1.3935  0.1841 -0.5356
  384SOL    HW2 1152   0.882   2.189   0.153 -0.8990 -0.2001  0.6584
  385SOL     OW 1153   2.991   2.015   1.764  0.4099  0.0417  0.4918
  385SOL    HW1 1154   3.037   2.108   1.749  0.2413  0.2691  0.1796
  385SOL    HW2 1155   3.028   1.926   1.713 -1.4166 -2.4089 -0.4349
  386SOL     OW 1156   0.433   1.147   0.459 -0.1101 -0.4441  0.4388
  386SOL    HW1 1157   0.461   1.047   0.451 -0.3411  2.1779 -1.2312
  386SOL    HW2 1158   0.358   1.172   0.392 -1.6551 -0.1253 -0.7193
  387SOL     OW 1159   0.983   0.280   1.651  0.1157 -0.1268 -0.7431
  387SOL    HW1 1160   1.063   0.344   1.620  4.1082  2.5348 -0.8099
  387SOL    HW2 1161   0.941   0.231   1.570  0.1274 -0.4511  2.4198
  388SOL     OW 1162   1.177   2.622   1.785  0.5422  0.0876  0.2408
  388SOL    HW1 1163   1.183   2.620   1.683  3.0459 -1.9321  0.3870
  388SOL    HW2 1164   1.260   2.574   1.816 -0.5639  0.6794 -1.3454
  389SOL     OW 1165   0.250   0.020   1.136 -0.5452 -0.3581 -0.0483
  389SOL    HW1 1166   0.188   0.003   1.215  0.4192 -2.0184  2.8390
  389SOL    HW2 1167   0.282  -0.069   1.093 -2.2802  0.8562 -0.2175
  390SOL     OW 1168   1.036   0.881   1.234  0.5933  0.2016  0.2283
  390SOL    HW1 1169   1.112   0.823   1.278  0.4617 -0.9351 -1.4424
  390SOL    HW2 1170   0.980   0.922   1.312  1.4864 -0.8112 -2.4371
  391SOL     OW 1171   2.094   1.153   1.064  0.1803 -0.3158 -0.0104
  391SOL    HW1 1172   1.998   1.106   1.067 -0.9460  0.3783  0.1976
  391SOL    HW2 1173   2.167   1.082   1.026 -0.1793  1.0734 -0.8003
  392SOL     OW 1174   0.878   2.708   3.056  0.3967 -0.1890  0.0083
  392SOL    HW1 1175   0.791   2.696   3.114 -0.0863  4.1888 -1.4166
  392SOL    HW2 1176   0.956   2.754   3.111 -0.8778 -1.4707  0.6130
  393SOL     OW 1177   0.373   0.572   2.069  0.3187 -0.2322  0.9034
  393SOL    HW1 1178   0.280   0.546   2.033 -0.0084  0.1502  0.6455
  393SOL    HW2 1179   0.448   0.535   2.004  0.8081 -2.8339  2.2619
  394SOL     OW 1180   2.855   1.828   2.812  0.7393 -0.1571  0.2404
  394SOL    HW1 1181   2.940   1.868   2.854 -0.3438  3.8710  0.7931
  394SOL    HW2 1182   2.846   1.846   2.707  1.6220  1.1134 -1.2874
  395SOL     OW 1183   1.584   1.932   0.738 -0.7146  0.0251  0.2184
  395SOL    HW1 1184   1.659   1.873   0.692  3.2479 -0.5694 -0.9277
  395SOL    HW2 1185   1.627   2.007   0.797 -0.5729  1.0606  2.8584
  396SOL     OW 1186   2.768   2.054   1.309  0.4190 -0.0539  0.0784
  396SOL    HW1 1187   2.819   2.071   1.396  2.3120 -0.3291 -2.1078
  396SOL    HW2 1188   2.668   2.029   1.324  1.0458 -0.4266  1.5487
  397SOL     OW 1189   1.013   2.083   0.650  0.2763  0.2911 -0.1043
  397SOL    HW1 1190   0.929   2.032   0.628  0.5388 -0.3274  0.6121
  397SOL    HW2 1191   0.991   2.183   0.678 -2.4977 -1.0166  0.1170
  398SOL     OW 1192   2.175   0.074   1.083 -0.5028  0.5277 -0.2748
  398SOL    HW1 1193   2.152  -0.029   1.098  0.6831  0.8907  0.9279
  398SOL    HW2 1194   2.092   0.131   1.077 -2.3672  0.9732  1.5971
  399SOL     OW 1195   2.973   2.536   2.720  0.2715 -0.0618 -0.8074
  399SOL    HW1 1196   2.915   2.527   2.635  0.2565  0.4323  0.8232
  399SOL    HW2 1197   2.911   2.518   2.807 -1.1707 -0.4551  0.9565
  400SOL     OW 1198   0.847   1.611   1.270  0.1919 -0.2795  0.2242
  400SOL    HW1 1199   0.784   1.641   1.349  1.1606  0.0257  1.6180
  400SOL    HW2 1200   0.823   1.663   1.180  0.2917  0.5755  0.4396
  401SOL     OW 1201   1.825   0.136   1.275 -0.3075  0.2462  0.1955
  401SOL    HW1 1202   1.879   0.183   1.350 -0.5227  0.4187 -3.8420
  401SOL    HW2 1203   1.725   0.128   1.308 -1.4587  0.0344 -0.5373
  402SOL     OW 1204   1.319   0.130   3.039 -0.0488 -0.3456  0.1929
  402SOL    HW1 1205   1.427   0.121   3.024 -2.3908  0.6178  0.9553
  402SOL    HW2 1206   1.289   0.226   3.056  1.2792 -0.3744 -2.5417
  403SOL     OW 1207   2.306   1.804   0.948  0.4395 -0.2047  0.1152
  403SOL    HW1 1208   2.408   1.818   0.970  2.0289  1.4903  0.7024
  403SOL    HW2 1209   2.248   1.873   1.004 -1.2833 -2.6381 -0.6833
  404SOL     OW 1210   0.183   2.504   2.837  0.3552  0.3625  0.0566
  404SOL    HW1 1211   0.273   2.461   2.795  2.3527 -0.9092 -0.5326
  404SOL    HW2 1212   0.165   2.605   2.820 -1.1567 -0.0830 -2.8135
  405SOL     OW 1213   0.234   2.571   0.560 -0.4654 -0.0881 -0.6828
  405SOL    HW1 1214   0.234   2.536   0.467 -0.2304 -0.4517 -0.4287
  405SOL    HW2 1215   0.296   2.648   0.574 -0.7497 -0.1026 -1.9140
  406SOL     OW 1216   0.034   1.513   2.986 -0.2807  0.1430  0.4272
  406SOL    HW1 1217   0.122   1.482   2.934  0.3967 -0.1542  1.0332
  406SOL    HW2 1218   0.053   1.528   3.087  0.2712  1.0357 -0.5764
  407SOL     OW 1219   1.514   0.928   0.892 -0.5071 -0.0126  0.6842
  407SOL    HW1 1220   1.514   0.923   0.790 -2.4383 -3.9567 -0.4600
  407SOL    HW2 1221   1.457   1.005   0.929  0.6728  1.5260 -2.8320
  408SOL     OW 1222   1.505   2.402   0.960  0.4155  0.2190 -0.1776
  408SOL    HW1 1223   1.561   2.395   0.876 -0.6931  0.1391  0.4958
  408SOL    HW2 1224   1.526   2.480   1.031 -0.6189  0.1869  0.1270
  409SOL     OW 1225   0.665   0.862   0.681  0.0570 -0.6459 -0.3663
  409SOL    HW1 1226   0.593   0.880   0.607 -0.5555 -0.2955 -0.1709
  409SOL    HW2 1227   0.697   0.761   0.681 -0.5373  1.2903 -3.0966
  410SOL     OW 1228   1.316   2.016   1.497 -0.1960  0.4010 -0.1050
  410SOL    HW1 1229   1.319   2.086   1.577  0.5462  0.5391 -0.9227
  410SOL    HW2 1230   1.225   1.982   1.459 -2.1909  0.2947 -2.9105
  411SOL     OW 1231   2.377   1.834   0.040  0.0796 -0.1787 -0.1866
  411SOL    HW1 1232   2.287   1.787   0.020 -0.8953 -0.1051 -2.1167
  411SOL    HW2 1233   2.416   1.870  -0.046  0.6518  2.4709  0.5970
  412SOL     OW 1234   1.509   2.406   2.214  0.1851  0.0938 -0.3301
  412SOL    HW1 1235   1.570   2.465   2.274  3.5841 -0.8084  0.5470
  412SOL    HW2 1236   1.443   2.354   2.277 -2.5294  0.0802 -3.2156
  413SOL     OW 1237   3.010   0.262   2.958  0.4220 -0.0326  0.5742
  413SOL    HW1 1238   2.986   0.192   3.031 -0.9883  0.3110  1.9549
  413SOL    HW2 1239   3.109   0.288   2.957 -2.4589 -0.0094 -0.4425
  414SOL     OW 1240   1.772   1.369   1.332 -0.2545  0.5728  0.1850
  414SOL    HW1 1241   1.701   1.442   1.355  0.0988 -0.1766  1.3270
  414SOL    HW2 1242   1.781   1.356   1.229  0.4253  1.8903 -2.8282
  415SOL     OW 1243   0.369   2.274   0.667 -0.1463  0.1700 -0.3029
  415SOL    HW1 1244   0.327   2.355   0.632  1.1239 -0.9227  1.6323
  415SOL    HW2 1245   0.298   2.200   0.682  0.3595 -0.8876  1.8752
  416SOL     OW 1246   0.372   1.021   1.055  0.0459  0.0614 -0.2528
  416SOL    HW1 1247   0.316   0.981   0.974  0.7956 -0.7327  1.4080
  416SOL    HW2 1248   0.453   1.067   1.017  0.3590 -1.3067  0.4082
  417SOL     OW 1249   2.150   2.318   1.893 -0.1469  0.5352  0.1021
  417SOL    HW1 1250   2.173   2.219   1.918  2.7961 -1.7982  1.1888
  417SOL    HW2 1251   2.064   2.351   1.947 -1.9074 -0.0784  4.2795
  418SOL     OW 1252   1.125   0.460   1.331 -0.4350  0.7588  0.1125
  418SOL    HW1 1253   1.030   0.471   1.286  1.0982  1.0861  0.4444
  418SOL    HW2 1254   1.208   0.442   1.262  3.8897  0.9213 -2.1197
  419SOL     OW 1255   0.969   0.377   3.028  0.1870 -0.2478 -0.0468
  419SOL    HW1 1256   1.009   0.431   2.948 -1.5451  2.1457 -1.1805
  419SOL    HW2 1257   0.964   0.276   3.015 -0.3693 -0.8741  0.8958
  420SOL     OW 1258   0.229   2.261   0.347  0.3067 -0.5261 -0.1571
  420SOL    HW1 1259   0.186   2.201   0.272  0.6191  2.4509 -0.6866
  420SOL    HW2 1260   0.157   2.268   0.421 -0.8821 -1.2145 -0.6847
  421SOL     OW 1261   0.325   3.085   0.650 -0.4725  0.5144  0.2939
  421SOL    HW1 1262   0.336   3.017   0.574  2.8032 -0.8722  2.3363
  421SOL    HW2 1263   0.421   3.124   0.671  0.8685 -0.5678  0.0462
  422SOL     OW 1264   0.928   2.502   1.029 -0.1029 -0.1198  0.0754
  422SOL    HW1 1265   0.921   2.577   0.958 -1.2210  0.9920 -2.4268
  422SOL    HW2 1266   0.989   2.517   1.114  1.0952 -0.8989  1.2763
  423SOL     OW 1267   0.043   0.723   1.197  0.2637 -0.4380  0.3059
  423SOL    HW1 1268  -0.015   0.680   1.270  0.4396  1.6631 -0.9707
  423SOL    HW2 1269   0.003   0.812   1.152  1.4470  2.0809  1.7871
  424SOL     OW 1270   1.022   2.152   2.140 -0.2206  0.2196 -1.0601
  424SOL    HW1 1271   1.038   2.256   2.122  2.5269  2.6611 -1.8053
  424SOL    HW2 1272   0.963   2.138   2.226 -0.2485  2.5289  0.1523
  425SOL     OW 1273   1.997   1.400   1.073 -0.3468  0.1072 -0.1863
  425SOL    HW1 1274   2.037   1.300   1.065 -0.1541  0.1231  0.2002
  425SOL    HW2 1275   2.052   1.471   1.024  1.9689 -5.2056 -1.2563
  426SOL     OW 1276   1.555   1.531   1.379 -0.0464  0.3869 -0.0856
  426SOL    HW1 1277   1.499   1.604   1.324 -2.9178  0.5615 -1.2528
  426SOL    HW2 1278   1.560   1.543   1.483  1.7484  1.3843  2.2751
  427SOL     OW 1279   1.922   2.371   2.053 -0.2184 -0.1813  0.4335
  427SOL    HW1 1280   1.956   2.309   2.124  2.2336  1.2497 -1.0484
  427SOL    HW2 1281   1.906   2.467   2.095  0.3023  0.4010  1.3117
  428SOL     OW 1282   0.906   3.051   0.126 -0.5307 -0.2053  0.0097
  428SOL    HW1 1283   0.948   3.142   0.165  1.7876  3.1621  1.7683
  428SOL    HW2 1284   0.970   2.972   0.136  0.4495 -0.1779 -1.4950
  429SOL     OW 1285   1.319   0.057   0.237  0.2302  0.0149 -0.2713
  429SOL    HW1 1286   1.409   0.092   0.267 -2.2582  0.9687 -1.9594
  429SOL    HW2 1287   1.315   0.070   0.132 -1.6416  1.9120  0.2495
  430SOL     OW 1288   2.808   1.513   0.357 -0.1410  0.4900 -0.0126
  430SOL    HW1 1289   2.831   1.578   0.285 -0.4008 -1.3507  0.0583
  430SOL    HW2 1290   2.807   1.560   0.452 -1.2394 -0.0270  0.7758
  431SOL     OW 1291   2.138   1.599   0.909  0.6927 -0.0420 -0.1736
  431SOL    HW1 1292   2.211   1.675   0.932 -0.0892  1.1969  3.9351
  431SOL    HW2 1293   2.047   1.645   0.881  1.1336 -0.1569 -1.5132
  432SOL     OW 1294   2.929   2.299   1.248  0.5166 -0.4143  0.5375
  432SOL    HW1 1295   2.878   2.207   1.248  1.1925  1.3672 -1.9929
  432SOL    HW2 1296   2.953   2.338   1.348 -0.6307  2.5397 -0.1693
  433SOL     OW 1297   1.823   0.349   0.797 -0.1864  0.7899 -0.3659
  433SOL    HW1 1298   1.727   0.336   0.828  2.2082 -2.0129  2.5427
  433SOL    HW2 1299   1.885   0.281   0.847  2.1513 -0.6987 -1.2582
  434SOL     OW 1300   1.538   0.274   0.702 -0.4776  0.4410 -0.3813
  434SOL    HW1 1301   1.525   0.368   0.663 -1.3360 -2.8664  0.4517
  434SOL    HW2 1302   1.549   0.275   0.805 -1.5290  0.5783  3.1522
  435SOL     OW 1303   1.437   1.518   2.106 -0.0941 -0.8599 -0.4886
  435SOL    HW1 1304   1.390   1.506   2.197  0.2830 -1.3245  0.8667
  435SOL    HW2 1305   1.409   1.599   2.053  2.0453  0.3567  2.0328
  436SOL     OW 1306   1.660   2.656   2.400  0.0728 -0.4492  0.8396
  436SOL    HW1 1307   1.662   2.743   2.449 -0.5246 -0.7252 -0.2437
  436SOL    HW2 1308   1.608   2.584   2.449  0.2566 -2.2014  0.9575
  437SOL     OW 1309   1.096   2.915   0.883 -0.1046  0.2037  1.0239
  437SOL    HW1 1310   1.038   2.999   0.851 -0.0438  1.4022 -2.2268
  437SOL    HW2 1311   1.134   2.915   0.979  0.4351 -1.3337  0.9512
  438SOL     OW 1312   1.064   2.518   1.290  0.9357  0.0981  0.1725
  438SOL    HW1 1313   1.105   2.556   1.380 -0.1645  2.2279 -0.4694
  438SOL    HW2 1314   1.041   2.422   1.314  0.7950  0.8022  0.7486
  439SOL     OW 1315   0.717   1.702   1.047  0.1348  0.7981  0.1204
  439SOL    HW1 1316   0.739   1.797   1.011 -0.3908 -1.6235 -4.2256
  439SOL    HW2 1317   0.652   1.698   1.127 -0.4658  0.5173 -3.3061
  440SOL     OW 1318   1.041   2.421   2.046  0.1664 -0.4336  0.1824
  440SOL    HW1 1319   0.978   2.474   1.987 -1.0880 -1.0875 -0.2677
  440SOL    HW2 1320   1.138   2.424   2.012 -2.1815 -2.2843 -1.0781
  441SOL     OW 1321   0.345   2.713   1.373  0.0288 -0.4764  1.0531
  441SOL    HW1 1322   0.400   2.629   1.400 -0.8642  0.6682 -0.8733
  441SOL    HW2 1323   0.352   2.732   1.272 -1.1414 -2.2457  4.6988
  442SOL     OW 1324   2.242   0.662   2.611 -0.4894 -0.3471 -0.0093
  442SOL    HW1 1325   2.220   0.564   2.582 -1.5806 -0.9846  0.1768
  442SOL    HW2 1326   2.174   0.730   2.581  0.5192  1.0653  2.8636
  443SOL     OW 1327   1.277   2.649   2.237 -0.3027  0.4077  0.1373
  443SOL    HW1 1328   1.284   2.551   2.262 -0.9362  3.5067  0.9733
  443SOL    HW2 1329   1.206   2.698   2.293  0.5119  2.3630  0.9384
  444SOL     OW 1330   1.017   1.208   1.483 -0.0722  0.5409  0.4607
  444SOL    HW1 1331   1.123   1.220   1.463 -0.0407  0.3093  1.7491
  444SOL    HW2 1332   0.979   1.277   1.554 -1.2024 -0.4519  4.5277
  445SOL     OW 1333   0.156   2.292   2.025 -0.7447  0.6961 -0.9706
  445SOL    HW1 1334   0.069   2.260   1.981  1.8288 -1.1904 -1.8165
  445SOL    HW2 1335   0.166   2.251   2.125  0.9010  0.1799  0.4335
  446SOL     OW 1336   0.149   1.951   2.367  0.2661  0.0925  0.6454
  446SOL    HW1 1337   0.109   2.048   2.355 -2.1058 -2.0959 -0.8388
  446SOL    HW2 1338   0.123   1.897   2.281 -1.7985  1.0649 -1.2449
  447SOL     OW 1339   1.257   1.696   1.984  0.0256 -0.6387  0.1065
  447SOL    HW1 1340   1.159   1.733   1.976  0.3253  0.5439  2.2919
  447SOL    HW2 1341   1.330   1.764   2.017 -1.1006  0.5822 -0.5998
  448SOL     OW 1342   0.215   1.444   2.053 -0.1140 -0.0337 -0.1284
  448SOL    HW1 1343   0.182   1.526   1.998 -1.4962  0.4398 -0.7509
  448SOL    HW2 1344   0.146   1.412   2.133  0.5680 -1.3131 -0.8236
  449SOL     OW 1345   1.880   2.920   0.797 -0.4681  0.3872  0.1346
  449SOL    HW1 1346   1.882   2.927   0.901  1.1395  0.2211 -2.4897
  449SOL    HW2 1347   1.913   2.823   0.766  2.2010 -2.3059 -0.3759
  450SOL     OW 1348   2.259   1.464   0.683 -0.0606  0.8973  0.2204
  450SOL    HW1 1349   2.218   1.528   0.755 -1.9069 -1.4820  2.4963
  450SOL    HW2 1350   2.248   1.497   0.581 -0.9321 -0.6917 -0.6281
  451SOL     OW 1351   1.384   3.036   1.494 -0.2845  0.0479 -0.1853
  451SOL    HW1 1352   1.312   3.116   1.507 -1.3502  0.2628  1.8900
  451SOL    HW2 1353   1.408   2.995   1.586 -1.2180 -0.5646  4.7375
  452SOL     OW 1354   2.666   2.288   2.269 -0.4530 -0.3440  0.5267
  452SOL    HW1 1355   2.611   2.377   2.273 -2.2973  1.4294  1.0696
  452SOL    HW2 1356   2.695   2.256   2.364  1.7461  0.5650 -0.4586
  453SOL     OW 1357   2.483   2.669   3.057 -0.3155 -0.4588 -0.0319
  453SOL    HW1 1358   2.394   2.683   3.111  2.7943  0.4900  1.1323
  453SOL    HW2 1359   2.471   2.613   2.976  0.1560  1.2899  2.4794
  454SOL     OW 1360   0.921   1.167   2.006 -0.3075 -0.7653  0.5657
  454SOL    HW1 1361   0.919   1.131   1.905 -1.1753  0.8579 -1.3947
  454SOL    HW2 1362   1.001   1.235   2.017  1.4440  0.5503 -1.0975
  455SOL     OW 1363   0.653   2.662   2.809  0.0947  0.4185  0.4679
  455SOL    HW1 1364   0.746   2.706   2.818 -2.1540 -1.5992  1.8538
  455SOL    HW2 1365   0.660   2.580   2.872  1.5201 -0.2428  0.4642
  456SOL     OW 1366   0.359   1.940   0.222 -0.4413 -0.2029  0.2684
  456SOL    HW1 1367   0.452   1.931   0.263 -1.3583 -1.4265 -0.0572
  456SOL    HW2 1368   0.342   2.036   0.189 -0.5405 -2.1235 -1.1957
  457SOL     OW 1369   0.423   2.778   0.654 -0.1539  0.4869  0.0036
  457SOL    HW1 1370   0.439   2.847   0.577 -0.8046 -2.5671  0.2274
  457SOL    HW2 1371   0.505   2.735   0.699  0.2100 -0.8072  0.4560
  458SOL     OW 1372   2.851   0.027   1.235 -0.8209 -0.2728 -0.2107
  458SOL    HW1 1373   2.919   0.096   1.200  0.1826  2.0731 -0.3238
  458SOL    HW2 1374   2.850  -0.066   1.188 -0.3080 -0.7860  1.3312
  459SOL     OW 1375   2.234   2.497   0.794 -0.1703  0.1191  0.1946
  459SOL    HW1 1376   2.274   2.539   0.882  0.9559  2.0887  0.9393
  459SOL    HW2 1377   2.299   2.507   0.713  1.8486  1.5019 -0.6244
  460SOL     OW 1378   1.197   2.073   2.773  0.1539  0.3368  0.3835
  460SOL    HW1 1379   1.239   2.071   2.677 -1.9322 -1.5917 -1.6032
  460SOL    HW2 1380   1.191   1.977   2.815 -0.7967 -0.3473  1.5074
  461SOL     OW 1381   0.412   2.113   2.711 -0.2704 -0.0182  0.3028
  461SOL    HW1 1382   0.378   2.025   2.659 -0.0945 -3.8293  1.0274
  461SOL    HW2 1383   0.461   2.088   2.802  0.3941 -1.5428 -0.4606
  462SOL     OW 1384   0.946   1.021   1.755  0.1656  0.2231 -0.0400
  462SOL    HW1 1385   0.940   0.940   1.690  0.9767  0.8906  1.1086
  462SOL    HW2 1386   0.921   1.110   1.706 -2.1463 -2.0502  1.4986
  463SOL     OW 1387   0.462   0.847   0.488  0.1713  0.3008  0.2524
  463SOL    HW1 1388   0.470   0.749   0.450 -1.1101 -0.1886  0.7599
  463SOL    HW2 1389   0.368   0.884   0.462  3.0558 -1.0050  0.4279
  464SOL     OW 1390   0.596   2.344   2.191 -0.2281 -0.3380  0.4054
  464SOL    HW1 1391   0.526   2.404   2.246 -2.3054  1.8013  0.4044
  464SOL    HW2 1392   0.590   2.359   2.086  3.0108  0.7875 -1.8323
  465SOL     OW 1393   0.246   0.895   0.837  0.3790 -0.0972  0.3140
  465SOL    HW1 1394   0.160   0.936   0.785  0.7234  2.0880 -0.6609
  465SOL    HW2 1395   0.265   0.792   0.818  0.3278 -0.6159  3.0769
  466SOL     OW 1396   1.381   1.138   1.001  0.1933 -0.3866  0.1069
  466SOL    HW1 1397   1.400   1.230   0.953  0.6101  0.1036  0.5923
  466SOL    HW2 1398   1.283   1.136   1.035 -0.8770 -0.7549 -1.1258
  467SOL     OW 1399   0.572   0.402   2.479  0.0372 -0.3057 -0.2112
  467SOL    HW1 1400   0.531   0.497   2.505 -1.0529  0.9788 -1.5140
  467SOL    HW2 1401   0.604   0.347   2.558  1.0931  0.7680 -2.0793
  468SOL     OW 1402   0.425   2.262   1.613 -0.3640  0.0067  0.3146
  468SOL    HW1 1403   0.506   2.327   1.631  1.7018 -2.7044  1.1049
  468SOL    HW2 1404   0.417   2.235   1.511 -3.3675 -0.8038 -0.4064
  469SOL     OW 1405   1.408   1.311   1.285  0.2262 -0.9158  0.0992
  469SOL    HW1 1406   1.475   1.246   1.237 -0.3741  2.2840 -0.9952
  469SOL    HW2 1407   1.454   1.396   1.327 -0.0787  3.3664  3.3531
  470SOL     OW 1408   3.021   1.778   0.733 -0.0756  0.4377 -0.3010
  470SOL    HW1 1409   3.093   1.826   0.675 -2.1493 -0.8587  1.9539
  470SOL    HW2 1410   3.046   1.690   0.781 -1.3686 -1.0989 -1.5420
  471SOL     OW 1411   2.559   1.368   2.165  0.2732 -0.3867 -0.0300
  471SOL    HW1 1412   2.560   1.270   2.199 -0.9201  0.1061  1.8569
  471SOL    HW2 1413   2.629   1.432   2.210  0.5284  1.7125 -0.7305
  472SOL     OW 1414   1.136   2.426   0.066  0.4347 -0.4299 -0.0980
  472SOL    HW1 1415   1.201   2.402   0.144 -0.7029 -2.3564  0.8336
  472SOL    HW2 1416   1.054   2.365   0.060 -0.8876  0.4530 -0.2667
  473SOL     OW 1417   1.089   1.501   1.008  0.4843 -0.4599  0.5327
  473SOL    HW1 1418   0.994   1.507   0.970  2.1773  1.8885 -0.8577
  473SOL    HW2 1419   1.098   1.439   1.094  0.0296  0.0051  2.9449
  474SOL     OW 1420   0.657   1.289   0.544  0.0476  0.0711 -0.0779
  474SOL    HW1 1421   0.581   1.230   0.499  0.7393  1.2936  0.9026
  474SOL    HW2 1422   0.728   1.224   0.587  2.1964  0.4390 -2.0530
  475SOL     OW 1423   2.794   0.027   0.800 -0.3933 -0.7831 -0.1375
  475SOL    HW1 1424   2.884   0.078   0.785 -1.3435  1.3929  0.7959
  475SOL    HW2 1425   2.722   0.074   0.856  1.5361 -0.1503  0.4213
  476SOL     OW 1426   0.991   3.025   1.779  0.0333 -0.6897 -0.5190
  476SOL    HW1 1427   1.076   3.081   1.811  1.3015  0.0737  2.0954
  476SOL    HW2 1428   1.004   2.993   1.679  2.6192  0.6650  0.4852
  477SOL     OW 1429   1.460   0.309   2.393 -0.1659  0.4174 -0.0058
  477SOL    HW1 1430   1.463   0.331   2.495 -0.2705  3.8625 -1.1249
  477SOL    HW2 1431   1.549   0.262   2.360  1.4369  0.7185 -0.6926
  478SOL     OW 1432   2.218   1.872   0.275 -0.1470 -0.0566 -0.8940
  478SOL    HW1 1433   2.185   1.776   0.315 -1.0403 -2.7239  0.8624
  478SOL    HW2 1434   2.298   1.855   0.216 -2.4061 -2.0904  1.7723
  479SOL     OW 1435   1.240   0.966   2.914  0.4916 -0.1933  0.3876
  479SOL    HW1 1436   1.330   0.971   2.864 -1.3663  1.2773 -1.2079
  479SOL    HW2 1437   1.178   0.891   2.878 -0.3178  1.5016 -0.6400
  480SOL     OW 1438   2.692   2.321   0.384 -0.7858  0.4143  0.3710
  480SOL    HW1 1439   2.671   2.271   0.468 -1.4192  1.1534 -2.0110
  480SOL    HW2 1440   2.624   2.299   0.310  0.0702  2.3979 -1.1144
  481SOL     OW 1441   1.051   1.200   0.844 -0.6677  0.6294 -0.3853
  481SOL    HW1 1442   1.031   1.293   0.806 -0.9338  2.7366 -3.0230
  481SOL    HW2 1443   1.059   1.195   0.946 -0.4994  0.8662 -0.9194
  482SOL     OW 1444   1.577   0.294   1.996  0.3007  0.0467 -0.3905
  482SOL    HW1 1445   1.616   0.388   1.998 -0.3314  1.6206  2.0957
  482SOL    HW2 1446   1.648   0.222   2.019 -1.5778  0.1749  2.0236
  483SOL     OW 1447   0.206   2.343   1.228 -0.5483 -0.0556  0.1710
  483SOL    HW1 1448   0.127   2.386   1.278 -1.4519  0.6652 -3.6427
  483SOL    HW2 1449   0.209   2.369   1.127 -0.9262 -0.6418  3.0287
  484SOL     OW 1450   1.760   1.061   1.345  0.2241  0.1606  0.2822
  484SOL    HW1 1451   1.823   1.010   1.408  1.4162  1.2571 -1.8850
  484SOL    HW2 1452   1.787   1.162   1.326  0.8628  1.9092  1.4226
  485SOL     OW 1453   0.756   0.746   1.821  0.4488  0.3143 -0.6577
  485SOL    HW1 1454   0.748   0.760   1.715  0.3966  1.7450 -0.0634
  485SOL    HW2 1455   0.856   0.735   1.853 -0.8881 -2.3149 -0.0542
  486SOL     OW 1456   0.825   1.864   2.414  0.0557 -0.7106  0.2958
  486SOL    HW1 1457   0.871   1.888   2.503 -1.3087 -2.2556 -1.3928
  486SOL    HW2 1458   0.811   1.947   2.353  2.7059  2.7265  0.5230
  487SOL     OW 1459   1.791   1.568   1.030 -0.3575  0.1793 -0.5879
  487SOL    HW1 1460   1.854   1.483   1.048 -0.9548 -1.0709 -0.1963
  487SOL    HW2 1461   1.822   1.626   0.951 -1.0256  1.9340 -1.1247
  488SOL     OW 1462   2.984   0.846   2.296  0.4932  0.1484  0.0749
  488SOL    HW1 1463   3.032   0.753   2.287  0.9092  0.9933  2.2338
  488SOL    HW2 1464   2.906   0.846   2.365  0.6048  0.5105 -1.6950
  489SOL     OW 1465   2.768   0.354   1.243  0.1537  0.7825 -0.4777
  489SOL    HW1 1466   2.735   0.323   1.337  2.2659  0.6048  1.2145
  489SOL    HW2 1467   2.869   0.325   1.231  1.0425 -1.5936 -1.1201
  490SOL     OW 1468   1.442   2.908   2.822  0.3355  0.3175  0.1706
  490SOL    HW1 1469   1.450   2.815   2.870 -2.6800 -0.0359  0.0906
  490SOL    HW2 1470   1.439   2.909   2.720 -1.2936 -1.2185  0.9559
  491SOL     OW 1471   1.736   1.496   2.700 -0.1963 -0.1941 -0.5961
  491SOL    HW1 1472   1.697   1.441   2.779 -0.9966 -1.0102  2.0734
  491SOL    HW2 1473   1.797   1.572   2.730  1.0786  1.9314 -0.4339
  492SOL     OW 1474   0.572   2.069   0.647  0.7452  0.1285 -0.8339
  492SOL    HW1 1475   0.598   2.044   0.749  0.0246  0.5814 -1.5100
  492SOL    HW2 1476   0.514   2.149   0.642 -1.0598 -0.5000 -3.5265
  493SOL     OW 1477   0.466   1.385   2.090 -0.0938 -0.2763  0.0076
  493SOL    HW1 1478   0.370   1.426   2.069  0.9839  2.5976 -2.6568
  493SOL    HW2 1479   0.458   1.283   2.100 -0.7778  0.3274 -1.4008
  494SOL     OW 1480   2.699   2.559   0.104 -0.0600 -0.3200  0.6043
  494SOL    HW1 1481   2.695   2.565   0.208 -0.0520 -0.6520  0.3518
  494SOL    HW2 1482   2.616   2.600   0.057  1.1076 -0.8278 -0.5903
  495SOL     OW 1483   2.532   2.818   2.596 -0.2150 -0.2610 -0.1179
  495SOL    HW1 1484   2.547   2.719   2.607 -0.6336  0.8709  0.2324
  495SOL    HW2 1485   2.589   2.859   2.522 -0.2599  0.3018  1.7516
  496SOL     OW 1486   1.975   2.314   0.814  0.1572 -0.3527  0.0857
  496SOL    HW1 1487   2.043   2.385   0.839 -0.4422  0.0251  1.4241
  496SOL    HW2 1488   2.010   2.218   0.840  0.8515  2.1439 -1.2922
  497SOL     OW 1489   0.157   3.001   2.372 -0.3131  0.1959 -0.6101
  497SOL    HW1 1490   0.128   3.069   2.439 -1.1919 -1.8234 -1.4159
  497SOL    HW2 1491   0.196   3.042   2.287 -1.5123  0.0215  2.0503
  498SOL     OW 1492   1.143   1.373   1.258  0.6447  0.0772  0.1278
  498SOL    HW1 1493   1.243   1.340   1.268  3.5947  1.7550 -2.2139
  498SOL    HW2 1494   1.120   1.441   1.332  0.1546 -0.1136 -2.6861
  499SOL     OW 1495   0.632   1.781   0.311  0.2608 -0.4678 -0.5350
  499SOL    HW1 1496   0.679   1.737   0.230 -1.4551  0.4153 -1.1108
  499SOL    HW2 1497   0.690   1.839   0.381 -0.7395 -0.2096  0.7230
  500SOL     OW 1498   1.494   2.873   1.701 -0.3084 -0.5633  0.4373
  500SOL    HW1 1499   1.500   2.830   1.795 -3.5520  2.0056  1.8721
  500SOL    HW2 1500   1.527   2.814   1.627 -0.9973 -0.1771  2.1943
  501SOL     OW 1501   0.787   1.130   2.290  0.4889 -0.4537 -0.2574
  501SOL    HW1 1502   0.686   1.089   2.312 -2.1394 -1.3097 -0.0035
  501SOL    HW2 1503   0.809   1.136   2.189  0.5615  2.2688  0.1099
  502SOL     OW 1504   2.612   0.932   1.776  0.1776  0.4035 -0.0526
  502SOL    HW1 1505   2.595   0.956   1.678 -0.0574  0.7374 -1.4953
  502SOL    HW2 1506   2.612   0.828   1.789  1.9911 -0.2015 -0.7880
  503SOL     OW 1507   1.291   0.138   0.631  0.0233  0.2050 -0.3358
  503SOL    HW1 1508   1.226   0.217   0.644  1.8154 -1.5773 -1.3417
  503SOL    HW2 1509   1.389   0.168   0.642 -2.4478  1.0838 -2.8307
  504SOL     OW 1510   3.016   2.314   1.498 -0.3670  0.4573 -0.9265
  504SOL    HW1 1511   2.983   2.409   1.529 -0.6799 -0.6276  1.4219
  504SOL    HW2 1512   3.066   2.266   1.572 -1.6460  0.4790 -3.8207
  505SOL     OW 1513   2.290   1.178   1.420 -0.8790 -0.4188 -0.7268
  505SOL    HW1 1514   2.296   1.195   1.322 -0.8180 -0.3842  0.7348
  505SOL    HW2 1515   2.350   1.245   1.469  0.8220  2.6456 -1.9391
  506SOL     OW 1516   1.954   0.178   1.838 -0.2639 -0.0201 -0.6321
  506SOL    HW1 1517   2.049   0.140   1.820 -1.0544  0.8211  0.0980
  506SOL    HW2 1518   1.963   0.279   1.863 -2.4549 -0.1412 -0.5465
  507SOL     OW 1519   0.575   0.725   2.211  0.0140  0.3479 -0.3237
  507SOL    HW1 1520   0.504   0.673   2.157 -1.2822  0.0399  2.8982
  507SOL    HW2 1521   0.647   0.664   2.251  2.7821 -1.3339  1.1704
  508SOL     OW 1522   0.327   1.667   0.780  0.0692 -0.3803 -0.5896
  508SOL    HW1 1523   0.359   1.729   0.705  0.2715 -1.2560  0.4076
  508SOL    HW2 1524   0.311   1.718   0.867  0.9526 -1.5798 -3.4006
  509SOL     OW 1525   1.294   1.202   2.482  0.3511 -0.5693 -0.5835
  509SOL    HW1 1526   1.317   1.157   2.394  1.7450 -0.7001  1.4815
  509SOL    HW2 1527   1.193   1.204   2.511  0.8274  0.1478  1.7872
  510SOL     OW 1528   1.328   2.061   2.225  0.1461  0.7692 -0.0886
  510SOL    HW1 1529   1.355   2.101   2.134  0.8465 -1.4767 -1.7509
  510SOL    HW2 1530   1.278   1.969   2.214 -0.8968 -3.0010 -0.3340
  511SOL     OW 1531   3.019   2.740   1.281  0.2307 -0.3307 -0.6873
  511SOL    HW1 1532   3.059   2.753   1.188 -0.3847 -1.1818 -0.0236
  511SOL    HW2 1533   2.921   2.735   1.273  1.0884 -0.5960  1.1458
  512SOL     OW 1534   2.380   0.413   1.398 -0.2527  0.0751  0.2998
  512SOL    HW1 1535   2.295   0.467   1.388 -0.1437 -0.5113  0.1705
  512SOL    HW2 1536   2.410   0.365   1.314  4.4278 -0.1190  0.3215
  513SOL     OW 1537   2.594   2.149   0.938 -0.1691  0.1086  0.1790
  513SOL    HW1 1538   2.524   2.193   0.879 -0.3451 -0.2195 -0.6221
  513SOL    HW2 1539   2.691   2.154   0.901  0.2015 -0.0895  1.3421
  514SOL     OW 1540   0.670   2.715   0.406  0.1846  0.2212 -0.2415
  514SOL    HW1 1541   0.718   2.729   0.312  0.7932 -2.8085 -1.0383
  514SOL    HW2 1542   0.690   2.790   0.473  0.1492  1.6171 -3.0376
  515SOL     OW 1543   1.925   1.359   2.413  0.0976  0.3830 -0.0474
  515SOL    HW1 1544   1.939   1.339   2.317 -2.6170  1.1682  0.5291
  515SOL    HW2 1545   1.851   1.295   2.452 -1.0984 -1.1566 -1.5053
  516SOL     OW 1546   0.269   0.282   1.882  0.2544  0.4382  0.2430
  516SOL    HW1 1547   0.364   0.233   1.876 -0.3816  0.9612  0.5793
  516SOL    HW2 1548   0.186   0.220   1.868 -0.1726 -1.6733 -0.6389
  517SOL     OW 1549   0.496   0.169   1.164  0.1790  0.2466 -0.1905
  517SOL    HW1 1550   0.549   0.150   1.249  0.1608  1.7344 -1.4817
  517SOL    HW2 1551   0.403   0.133   1.165  5.2897  1.5997  0.3222
  518SOL     OW 1552   2.151   3.062   1.790 -0.1017  0.4462 -0.3299
  518SOL    HW1 1553   2.210   3.139   1.772  2.2024 -4.1273  3.1637
  518SOL    HW2 1554   2.138   3.007   1.704  2.4015  1.7227  1.4021
  519SOL     OW 1555   2.341   2.167   2.519 -0.0495 -0.5518 -0.1514
  519SOL    HW1 1556   2.280   2.143   2.598  3.5183 -0.2292  1.7162
  519SOL    HW2 1557   2.375   2.261   2.508 -3.4668 -0.4620 -0.6181
  520SOL     OW 1558   1.847   2.746   1.707 -0.0286  0.2199  0.6058
  520SOL    HW1 1559   1.802   2.664   1.760 -2.3261 -0.4459 -0.1155
  520SOL    HW2 1560   1.931   2.714   1.665  0.3857  1.6766  0.4918
  521SOL     OW 1561   0.552   0.036   2.116  0.2527 -0.3868 -0.6352
  521SOL    HW1 1562   0.452   0.025   2.145  0.0829  0.0849  0.0403
  521SOL    HW2 1563   0.612   0.042   2.196 -3.5441  1.9534 -1.3300
  522SOL     OW 1564   0.234   1.871   1.464  0.1037  0.1751  0.0059
  522SOL    HW1 1565   0.269   1.945   1.529  2.0041  1.3411  2.1146
  522SOL    HW2 1566   0.193   1.912   1.377 -3.7706 -0.9326  1.2386
  523SOL     OW 1567   2.145   2.922   1.550  0.7232 -0.0275 -0.5292
  523SOL    HW1 1568   2.227   2.859   1.566 -0.8606  1.2199 -1.7519
  523SOL    HW2 1569   2.086   2.876   1.478 -1.2996 -1.7268 -1.0506
  524SOL     OW 1570   0.206   2.775   2.809 -0.5764  0.5795  0.5056
  524SOL    HW1 1571   0.173   2.875   2.840 -2.4744  4.1741  1.0593
  524SOL    HW2 1572   0.300   2.774   2.765 -1.4211 -1.3996  1.9868
  525SOL     OW 1573   2.128   2.050   0.475  0.2029  0.0721  0.3964
  525SOL    HW1 1574   2.101   2.001   0.559 -1.8022 -0.8911 -2.8221
  525SOL    HW2 1575   2.165   1.986   0.398  1.1731 -1.7926 -0.5623
  526SOL     OW 1576   0.427   1.531   1.814 -0.3317  0.1217  0.8502
  526SOL    HW1 1577   0.491   1.577   1.875 -2.7934  0.9214 -5.7183
  526SOL    HW2 1578   0.465   1.437   1.785 -2.7174  0.6642  2.2843
  527SOL     OW 1579   1.066   2.937   1.237  0.2689  0.0014  0.3414
  527SOL    HW1 1580   1.126   2.881   1.301 -1.0995 -0.3612  1.3909
  527SOL    HW2 1581   1.115   3.021   1.192 -1.9534  1.8812 -1.6196
  528SOL     OW 1582   1.344   2.356   0.559  0.6768 -0.1710 -0.2698
  528SOL    HW1 1583   1.390   2.261   0.572 -1.1340  1.3714  0.8954
  528SOL    HW2 1584   1.385   2.430   0.619  2.3636  3.1876 -0.0723
  529SOL     OW 1585   1.886   1.741   0.810 -0.1069 -0.3668  0.2112
  529SOL    HW1 1586   1.847   1.742   0.715  0.1987  0.1350  2.2773
  529SOL    HW2 1587   1.923   1.833   0.831  1.0899 -1.5461 -0.5885
  530SOL     OW 1588   0.443   2.489   0.188 -0.1062  0.2492 -0.7297
  530SOL    HW1 1589   0.441   2.416   0.266  0.0127 -0.6745  1.3067
  530SOL    HW2 1590   0.444   2.439   0.097  0.8799 -0.2167  2.1344
  531SOL     OW 1591   1.854   1.029   1.073 -0.1660 -0.4487  0.3937
  531SOL    HW1 1592   1.842   0.989   0.982  1.2113  2.1005  2.1616
  531SOL    HW2 1593   1.786   1.000   1.147 -1.1851 -0.3575 -1.8353
  532SOL     OW 1594   0.343   1.210   0.712 -0.8766  0.5104 -0.1892
  532SOL    HW1 1595   0.367   1.201   0.611 -2.6477  0.2584  1.3034
  532SOL    HW2 1596   0.297   1.131   0.755 -0.2551  0.9645 -1.7802
  533SOL     OW 1597   1.828   0.040   2.527 -0.4940 -0.2919 -0.1641
  533SOL    HW1 1598   1.916  -0.006   2.543 -1.0954  0.6299 -1.5463
  533SOL    HW2 1599   1.788   0.076   2.617  1.3845 -1.6025  0.3784
  534SOL     OW 1600   0.234   0.181   1.528 -0.6457 -0.2958 -0.2110
  534SOL    HW1 1601   0.303   0.238   1.469 -1.1430  0.4372 -1.0388
  534SOL    HW2 1602   0.145   0.239   1.549 -2.9499 -0.4034  0.4080
  535SOL     OW 1603   1.881   0.347   0.192 -1.2113 -0.9758 -0.0945
  535SOL    HW1 1604   1.951   0.391   0.260  2.4023 -0.3683  3.0552
  535SOL    HW2 1605   1.813   0.291   0.246  1.3412  0.3277  3.0485
  536SOL     OW 1606   1.241   2.625   0.942 -0.3639  0.2390 -0.8228
  536SOL    HW1 1607   1.284   2.535   0.910 -2.9155 -3.2228 -0.2660
  536SOL    HW2 1608   1.143   2.633   0.912  0.3455  1.7826  1.5674
  537SOL     OW 1609   0.910   0.212   2.354  0.2571  0.3214  0.4277
  537SOL    HW1 1610   0.898   0.273   2.273 -3.4972 -2.4978 -0.8001
  537SOL    HW2 1611   0.861   0.122   2.353  3.4122 -1.3156  0.6176
  538SOL     OW 1612   1.683   2.358   1.530 -0.1684  0.4021 -0.0459
  538SOL    HW1 1613   1.641   2.284   1.467 -0.0755  0.2431 -1.7956
  538SOL    HW2 1614   1.763   2.401   1.478 -1.0994 -0.7236 -0.1301
  539SOL     OW 1615   0.182   1.631   2.711  0.0451 -0.2885  0.2748
  539SOL    HW1 1616   0.102   1.612   2.644 -4.1454 -2.8862 -2.9854
  539SOL    HW2 1617   0.166   1.723   2.757  2.2281  2.2686  0.1242
  540SOL     OW 1618   2.706   1.705   2.020  0.1442 -0.1849 -0.3968
  540SOL    HW1 1619   2.669   1.610   1.984  1.1596 -0.0164  0.0225
  540SOL    HW2 1620   2.650   1.784   1.971 -1.6556 -1.2524 -1.6637
  541SOL     OW 1621   0.453   2.294   3.072 -0.0994  0.1791  0.5075
  541SOL    HW1 1622   0.498   2.228   3.137 -0.8336  1.7532 -0.2815
  541SOL    HW2 1623   0.368   2.254   3.036 -2.1787  1.3398 -1.1311
  542SOL     OW 1624   2.202   2.597   0.487  0.7208 -0.5102  0.0264
  542SOL    HW1 1625   2.186   2.670   0.411  0.4370  0.8258 -0.6419
  542SOL    HW2 1626   2.118   2.543   0.506 -0.9808  1.9934 -0.2741
  543SOL     OW 1627   0.986   1.796   1.712 -0.0827  0.3567  0.0825
  543SOL    HW1 1628   0.992   1.835   1.811 -1.8571  0.4583 -0.5651
  543SOL    HW2 1629   0.940   1.860   1.651 -0.7152 -1.1429  0.6133
  544SOL     OW 1630   0.892   0.417   0.203  0.8188  0.1098  0.8631
  544SOL    HW1 1631   0.919   0.352   0.279 -3.5422 -2.6413  1.9070
  544SOL    HW2 1632   0.917   0.379   0.108 -1.2077 -1.6584 -0.0778
  545SOL     OW 1633   1.176   1.698   0.603 -0.2922  0.3048  0.1257
  545SOL    HW1 1634   1.258   1.711   0.667 -0.1605 -0.4325 -0.4973
  545SOL    HW2 1635   1.199   1.722   0.507 -1.2442 -0.8314 -0.5022
  546SOL     OW 1636   2.678   1.554   0.023 -0.2206 -0.1579  0.3173
  546SOL    HW1 1637   2.710   1.480  -0.048 -2.0008 -3.5767 -3.9191
  546SOL    HW2 1638   2.583   1.535   0.064  0.6745  0.3186 -0.6604
  547SOL     OW 1639   0.542   0.038   2.798 -0.0962  0.0276 -0.3578
  547SOL    HW1 1640   0.629  -0.018   2.776  2.4145  0.2628 -0.0305
  547SOL    HW2 1641   0.467  -0.012   2.840 -3.9716 -0.8932 -0.1965
  548SOL     OW 1642   2.084   0.865   3.035  0.4263 -0.3380  0.1278
  548SOL    HW1 1643   1.986   0.835   3.053  0.5314  3.1258  1.3529
  548SOL    HW2 1644   2.091   0.962   3.063  3.3743 -0.7704  0.0618
  549SOL     OW 1645   0.621   0.410   0.153 -0.2477  0.6712  0.3622
  549SOL    HW1 1646   0.594   0.484   0.085  2.8922  1.6951 -0.3119
  549SOL    HW2 1647   0.723   0.432   0.178 -0.9648 -2.4564  4.3517
  550SOL     OW 1648   2.547   2.858   2.891  0.7991  0.5214  0.0473
  550SOL    HW1 1649   2.530   2.773   2.957 -2.1562  0.0037 -0.8491
  550SOL    HW2 1650   2.549   2.833   2.786  1.2884 -2.8687 -2.5482
  551SOL     OW 1651   0.238   0.844   0.156  0.1195  0.7632 -0.4632
  551SOL    HW1 1652   0.336   0.821   0.168 -0.3961  1.8557  0.1280
  551SOL    HW2 1653   0.198   0.873   0.247  0.3219  3.5115  0.0665
  552SOL     OW 1654   0.795   2.798   1.881 -0.4538  0.3488  1.0693
  552SOL    HW1 1655   0.769   2.800   1.979  1.9076 -1.3161  1.0433
  552SOL    HW2 1656   0.855   2.870   1.854 -1.8944 -1.2400 -0.2347
  553SOL     OW 1657   3.058   2.556   0.376  0.0301 -0.0623 -0.2993
  553SOL    HW1 1658   3.012   2.465   0.362  2.1935 -0.4947 -1.5569
  553SOL    HW2 1659   3.019   2.593   0.465  1.0737  0.3930 -0.4327
  554SOL     OW 1660   2.182   0.289   0.566  0.4530 -0.1367 -0.5466
  554SOL    HW1 1661   2.244   0.256   0.494 -0.9574  1.8228  0.6942
  554SOL    HW2 1662   2.195   0.240   0.658  2.0655 -0.0482  2.1946
  555SOL     OW 1663   0.414   2.920   2.432 -0.4435  0.0166 -0.2036
  555SOL    HW1 1664   0.311   2.938   2.419  0.5819  2.0739  1.4197
  555SOL    HW2 1665   0.450   2.841   2.371  0.3740  2.4286 -1.6920
  556SOL     OW 1666   0.903   2.299   1.672 -0.4917  0.0074 -0.2736
  556SOL    HW1 1667   0.908   2.384   1.731 -0.0186 -0.3269 -2.5497
  556SOL    HW2 1668   0.954   2.307   1.580 -0.1800 -1.0577 -0.6792
  557SOL     OW 1669   0.161   2.114   0.131 -0.5926 -0.4547  0.0656
  557SOL    HW1 1670   0.098   2.040   0.096  1.2761 -2.1350 -0.4192
  557SOL    HW2 1671   0.156   2.190   0.065 -0.7060 -0.9699  0.4363
  558SOL     OW 1672   2.960   2.291   0.324  0.5984 -0.4450  0.2272
  558SOL    HW1 1673   2.863   2.294   0.364 -1.0628 -0.9097 -0.6293
  558SOL    HW2 1674   2.966   2.304   0.222  4.0762 -1.5894  0.6699
  559SOL     OW 1675   0.426   2.217   1.347  0.3115  0.0508 -0.4227
  559SOL    HW1 1676   0.370   2.270   1.274 -0.9428 -1.0489  0.4154
  559SOL    HW2 1677   0.476   2.136   1.311 -1.4150  0.1123  0.5111
  560SOL     OW 1678   2.081   1.112   3.098 -0.0593 -0.0536  0.1100
  560SOL    HW1 1679   2.095   1.164   3.009  1.4094  0.9923  1.6160
  560SOL    HW2 1680   2.044   1.169   3.174  3.3950  0.8339 -1.0818
  561SOL     OW 1681   3.059   1.945   0.007 -0.3306  0.2418 -0.2066
  561SOL    HW1 1682   2.999   1.865   0.005  0.7899  4.2116  0.4820
  561SOL    HW2 1683   3.002   2.029  -0.022  2.8096  0.9958  2.7899
  562SOL     OW 1684   0.883   2.165   2.378  0.4442 -0.1494 -0.6695
  562SOL    HW1 1685   0.777   2.144   2.379 -0.5769 -0.5821 -1.9767
  562SOL    HW2 1686   0.921   2.205   2.462  2.2149  1.5698 -0.9347
  563SOL     OW 1687   0.677   2.516   2.588  0.0021 -0.9552  0.3803
  563SOL    HW1 1688   0.735   2.448   2.634 -4.8750  0.2044 -0.0637
  563SOL    HW2 1689   0.659   2.599   2.647 -0.5668 -1.3163  0.4674
  564SOL     OW 1690   2.705   1.303   2.846 -0.1355  0.0026  0.0586
  564SOL    HW1 1691   2.656   1.315   2.935  2.6653  1.5959  0.4896
  564SOL    HW2 1692   2.759   1.388   2.819 -1.9905 -0.5514  0.5106
  565SOL     OW 1693   2.531   1.957   2.575 -0.1841  0.0611 -0.5619
  565SOL    HW1 1694   2.456   2.021   2.549  0.0822 -0.6063 -1.6438
  565SOL    HW2 1695   2.577   1.978   2.668 -1.6860  0.6991  1.2248
  566SOL     OW 1696   1.960   2.869   1.341 -0.2623  0.0866 -0.7358
  566SOL    HW1 1697   1.924   2.776   1.305 -1.0437  0.4074  0.9499
  566SOL    HW2 1698   2.040   2.900   1.280  3.4049 -2.4125  1.5420
  567SOL     OW 1699   2.444   0.130   2.216 -0.7090 -0.2777 -0.3568
  567SOL    HW1 1700   2.455   0.112   2.112 -1.7867 -1.0027 -1.6003
  567SOL    HW2 1701   2.354   0.167   2.243 -1.9965  0.5958 -0.8487
  568SOL     OW 1702   1.494   1.833   0.371  0.4025 -0.2221 -0.3803
  568SOL    HW1 1703   1.435   1.874   0.297 -4.4623  0.4299 -2.0510
  568SOL    HW2 1704   1.593   1.858   0.358 -0.6534 -0.2584 -2.8402
  569SOL     OW 1705   0.300   0.630   0.793 -1.1254 -0.3607 -0.1856
  569SOL    HW1 1706   0.336   0.572   0.720  0.1814  1.7291  1.3570
  569SOL    HW2 1707   0.216   0.604   0.835  1.1939  0.3926 -0.5143
  570SOL     OW 1708   0.620   0.767   2.840  0.7299  0.1189  0.0474
  570SOL    HW1 1709   0.640   0.760   2.739  0.8420  0.0671 -1.2244
  570SOL    HW2 1710   0.663   0.846   2.886 -3.3506 -0.0360  0.5258
  571SOL     OW 1711   0.822   3.050   1.102  0.6700  0.4510  0.2088
  571SOL    HW1 1712   0.860   3.112   1.025 -0.2843  2.3887  0.9197
  571SOL    HW2 1713   0.898   2.997   1.149 -1.6861 -0.7574  1.2065
  572SOL     OW 1714   1.551   2.604   1.161 -0.0368  0.9994  0.0711
  572SOL    HW1 1715   1.480   2.558   1.220  1.0281 -0.1034 -2.1036
  572SOL    HW2 1716   1.514   2.689   1.117  0.6256 -0.2680  2.5038
  573SOL     OW 1717   2.941   0.410   2.082  0.2323  0.2256 -0.1297
  573SOL    HW1 1718   2.894   0.322   2.110  0.9642  3.4407 -1.6176
  573SOL    HW2 1719   2.876   0.479   2.035 -1.6654  0.0603  0.5400
  574SOL     OW 1720   0.227   1.777   1.004 -0.3448  0.2153 -0.0763
  574SOL    HW1 1721   0.208   1.875   0.975  0.3084 -1.0688 -0.7514
  574SOL    HW2 1722   0.148   1.737   1.054  0.7531 -1.5978 -1.1958
  575SOL     OW 1723   0.870   2.144   0.987 -0.8137  0.3983 -0.4512
  575SOL    HW1 1724   0.853   2.198   1.075  0.7344 -1.5861  1.3023
  575SOL    HW2 1725   0.894   2.203   0.903  1.3482  1.6758 -0.9621
  576SOL     OW 1726   2.908   2.912   1.724  0.3595 -0.7304 -0.2209
  576SOL    HW1 1727   2.852   2.859   1.656 -1.4575 -0.7917 -2.3476
  576SOL    HW2 1728   2.930   3.006   1.691 -0.7961 -0.3068 -0.0800
  577SOL     OW 1729   2.558   1.264   3.078 -0.2079 -0.2722  0.2706
  577SOL    HW1 1730   2.560   1.172   3.037  0.3484 -1.1135  0.8382
  577SOL    HW2 1731   2.620   1.262   3.162  0.7066  1.1142  1.3712
  578SOL     OW 1732   1.298   2.690   2.539  0.1010  0.3723  0.3750
  578SOL    HW1 1733   1.198   2.683   2.505 -0.8399 -2.8173  1.3279
  578SOL    HW2 1734   1.349   2.778   2.501  0.4281  2.7438 -0.0459
  579SOL     OW 1735   0.127   2.482   0.180 -0.1605  0.0469 -0.5128
  579SOL    HW1 1736   0.060   2.520   0.252 -1.0610  1.9224 -0.2977
  579SOL    HW2 1737   0.197   2.421   0.225 -1.6411 -0.8499 -0.3402
  580SOL     OW 1738   1.014   2.667   0.381  0.2718  0.3122  0.3559
  580SOL    HW1 1739   1.104   2.660   0.325  1.0137  1.6996 -1.3769
  580SOL    HW2 1740   0.940   2.604   0.341 -1.5967 -1.1536  0.7365
  581SOL     OW 1741   1.218   2.632   1.491  0.5722  0.5555 -0.1732
  581SOL    HW1 1742   1.270   2.548   1.455 -2.0599 -0.1404 -1.3007
  581SOL    HW2 1743   1.240   2.712   1.425  0.4300  1.2507  1.8857
  582SOL     OW 1744   1.493   0.064   1.853  0.4035  0.4035 -0.0817
  582SOL    HW1 1745   1.500   0.149   1.912 -1.8163  0.7936 -0.5484
  582SOL    HW2 1746   1.581   0.050   1.791  2.6235 -0.5463  0.2344
  583SOL     OW 1747   2.459   2.990   0.572  0.3438 -0.4487 -0.9595
  583SOL    HW1 1748   2.504   2.916   0.511  1.3121  0.4943 -0.6380
  583SOL    HW2 1749   2.388   2.958   0.645 -1.9393  2.2077  1.7670
  584SOL     OW 1750   1.582   1.008   2.140  0.4678 -0.0434 -0.1233
  584SOL    HW1 1751   1.623   1.081   2.080  1.1280 -0.4374 -0.3590
  584SOL    HW2 1752   1.647   0.966   2.209  1.4036  2.8003  3.3926
  585SOL     OW 1753   2.087   2.641   2.895 -0.4335  0.0556 -0.3131
  585SOL    HW1 1754   2.094   2.536   2.866 -2.0228 -4.9177 -3.0619
  585SOL    HW2 1755   1.992   2.682   2.877  0.2461 -0.4317  0.4896
  586SOL     OW 1756   2.745   0.259   1.563  0.0920  0.3884 -0.2265
  586SOL    HW1 1757   2.789   0.343   1.598 -2.9464  0.0481  3.5175
  586SOL    HW2 1758   2.656   0.228   1.616  0.6957 -0.7868  0.7205
  587SOL     OW 1759   1.963   1.644   2.730 -0.0717  0.0361  0.0096
  587SOL    HW1 1760   2.012   1.605   2.642  2.3111 -2.2483 -1.4193
  587SOL    HW2 1761   2.008   1.604   2.813 -1.4711 -1.7174  0.2633
  588SOL     OW 1762   0.492   2.715   2.231  0.0299 -0.7538 -0.1558
  588SOL    HW1 1763   0.406   2.721   2.171 -0.9577  1.6643  0.2456
  588SOL    HW2 1764   0.506   2.619   2.262 -1.4086 -0.2155  0.0755
  589SOL     OW 1765   2.131   1.447   2.585 -0.3966 -0.1040  0.3238
  589SOL    HW1 1766   2.054   1.423   2.515 -0.9735  0.5880 -2.0776
  589SOL    HW2 1767   2.221   1.399   2.558  0.0466  2.3206  2.8322
  590SOL     OW 1768   2.367   1.698   2.001 -0.2074  0.1444 -0.1337
  590SOL    HW1 1769   2.463   1.666   1.983  0.0279 -1.1045 -0.9427
  590SOL    HW2 1770   2.362   1.740   2.100 -0.2286 -1.0248  1.1372
  591SOL     OW 1771   1.375   2.459   0.301  0.3793 -0.8159  0.0826
  591SOL    HW1 1772   1.470   2.445   0.257  0.7171  2.1670 -1.9355
  591SOL    HW2 1773   1.365   2.422   0.399  2.1829 -1.5626  2.6166
  592SOL     OW 1774   1.716   2.326   0.773  0.5375  0.0523 -0.2513
  592SOL    HW1 1775   1.709   2.361   0.674 -0.6620 -1.5280  0.6891
  592SOL    HW2 1776   1.815   2.317   0.796  2.3424  1.6057 -0.0489
  593SOL     OW 1777   0.643   0.144   0.046  0.5683  0.0832  0.3907
  593SOL    HW1 1778   0.744   0.117   0.019  0.9570 -0.3750 -2.0722
  593SOL    HW2 1779   0.636   0.241   0.087  0.5016  3.2721  1.6733
  594SOL     OW 1780   0.922   1.950   2.684 -0.0559 -0.7328  0.0535
  594SOL    HW1 1781   1.010   2.002   2.668  0.0821 -0.9967  1.4191
  594SOL    HW2 1782   0.849   2.014   2.718 -1.5742 -1.0722 -1.0279
  595SOL     OW 1783   1.526   0.025   1.071 -0.1986  0.3329 -0.3635
  595SOL    HW1 1784   1.612  -0.025   1.066 -1.0824 -2.3049  0.8212
  595SOL    HW2 1785   1.461  -0.004   0.998  0.4342 -0.9692  0.7752
  596SOL     OW 1786   0.009   1.404   2.243 -0.2293  0.7004  0.3143
  596SOL    HW1 1787  -0.083   1.459   2.254  0.6356  0.6578  0.1093
  596SOL    HW2 1788   0.044   1.383   2.335 -0.2212 -1.8574 -4.1728
  597SOL     OW 1789   2.062   2.608   1.636 -0.2451 -0.3745 -0.3587
  597SOL    HW1 1790   2.085   2.516   1.586  2.9907 -0.4007 -1.4082
  597SOL    HW2 1791   2.132   2.625   1.714 -1.8887  0.2130 -2.3093
  598SOL     OW 1792   2.503   2.909   1.303  0.1215  0.3262  1.1373
  598SOL    HW1 1793   2.563   2.970   1.362  0.7819 -1.4264 -1.1121
  598SOL    HW2 1794   2.555   2.863   1.229 -2.9440  2.1254  0.7496
  599SOL     OW 1795   2.905   0.377   2.466 -0.4933  0.0595 -0.1317
  599SOL    HW1 1796   2.986   0.436   2.493  0.3272  0.2280  1.4769
  599SOL    HW2 1797   2.825   0.431   2.425  1.5501  0.4632 -1.3721
  600SOL     OW 1798   2.835   1.088   2.716 -0.3182 -0.0475 -0.3004
  600SOL    HW1 1799   2.788   0.992   2.724  1.2907  0.6101 -1.6054
  600SOL    HW2 1800   2.783   1.167   2.763  1.2669 -0.0187  0.5660
  601SOL     OW 1801   2.986   1.245   2.018 -0.2603 -0.1014  0.1384
  601SOL    HW1 1802   2.949   1.312   1.943 -0.7028  2.6919 -2.2040
  601SOL    HW2 1803   3.040   1.292   2.091  1.4498 -0.2360 -2.6093
  602SOL     OW 1804   1.502   1.721   2.348 -0.5071 -0.4153 -0.1340
  602SOL    HW1 1805   1.458   1.640   2.318  1.1976  0.7210 -0.1513
  602SOL    HW2 1806   1.583   1.699   2.405 -0.2330  0.4646 -1.5883
  603SOL     OW 1807   0.633   1.249   2.701 -0.0357 -0.4183  0.0735
  603SOL    HW1 1808   0.562   1.247   2.624  0.3436  1.6976  1.6558
  603SOL    HW2 1809   0.717   1.185   2.684  3.1985  1.2651  0.9257
  604SOL     OW 1810   2.417   0.961   0.150 -0.1543 -0.0281 -0.2560
  604SOL    HW1 1811   2.450   1.019   0.070  0.5298 -0.5525 -1.8315
  604SOL    HW2 1812   2.413   0.862   0.129  0.1454  2.7882  0.9687
  605SOL     OW 1813   2.695   1.154   1.961  0.0534  0.4609  0.0262
  605SOL    HW1 1814   2.676   1.069   1.904 -1.2008 -2.5472 -1.2866
  605SOL    HW2 1815   2.654   1.155   2.053 -0.4315  1.5871  0.0753
  606SOL     OW 1816   1.532   2.525   2.626 -0.1400  0.6291  0.0819
  606SOL    HW1 1817   1.445   2.579   2.604  1.0040 -1.6506  0.4982
  606SOL    HW2 1818   1.513   2.423   2.605  1.3217 -1.7218  0.2931
  607SOL     OW 1819   1.359   1.596   0.418  0.6857 -0.2168 -1.0982
  607SOL    HW1 1820   1.318   1.560   0.506 -0.3435 -0.3217  0.5979
  607SOL    HW2 1821   1.432   1.673   0.428 -0.3757  2.3662  1.4234
  608SOL     OW 1822   1.414   2.871   0.459  0.5866 -0.9542 -0.2756
  608SOL    HW1 1823   1.491   2.912   0.398  0.1989 -1.6293 -1.4585
  608SOL    HW2 1824   1.331   2.936   0.466  1.1311 -0.1925  1.6387
  609SOL     OW 1825   1.285   1.369   0.281  0.2822 -0.1716  0.0619
  609SOL    HW1 1826   1.319   1.457   0.316 -0.8780 -1.7803  0.3806
  609SOL    HW2 1827   1.179   1.360   0.291 -1.7437 -1.5418  0.2067
  610SOL     OW 1828   2.962   1.119   2.267  0.2453  0.1122 -0.6123
  610SOL    HW1 1829   2.978   1.017   2.280 -0.8667 -1.6948  0.2537
  610SOL    HW2 1830   2.958   1.145   2.166 -1.5158 -1.2083 -1.7148
  611SOL     OW 1831   2.516   0.292   1.145 -0.1122 -0.0966 -0.1084
  611SOL    HW1 1832   2.478   0.213   1.199  0.5697 -0.0822 -0.8042
  611SOL    HW2 1833   2.617   0.310   1.171 -0.2942 -1.4389 -1.3617
  612SOL     OW 1834   0.785   2.225   1.258  0.5111  0.4242 -0.2423
  612SOL    HW1 1835   0.728   2.137   1.267  2.3787  0.3736  1.3668
  612SOL    HW2 1836   0.727   2.312   1.263  1.8217  2.3549  2.2143
  613SOL     OW 1837   0.884   1.472   2.397 -0.1923  0.0639  0.4572
  613SOL    HW1 1838   0.936   1.521   2.320 -0.1868 -3.7131 -1.7479
  613SOL    HW2 1839   0.797   1.431   2.363  0.2948  2.1078  0.7565
  614SOL     OW 1840   1.670   1.612   1.850 -0.0525 -0.0637  0.7175
  614SOL    HW1 1841   1.626   1.705   1.836  1.6132  1.3308  0.6119
  614SOL    HW2 1842   1.698   1.592   1.946 -1.0815 -0.7225 -0.0110
  615SOL     OW 1843   0.849   1.283   1.699  0.1114 -0.2506 -0.6602
  615SOL    HW1 1844   0.781   1.244   1.628  1.4335 -1.8041  0.8859
  615SOL    HW2 1845   0.849   1.390   1.708  0.0781 -3.3655 -0.4262
  616SOL     OW 1846   1.116   1.585   2.210 -0.3962  0.8882  0.3491
  616SOL    HW1 1847   1.036   1.567   2.144  2.5194 -1.1550  0.9979
  616SOL    HW2 1848   1.126   1.686   2.239 -0.3202  0.0383 -0.4068
  617SOL     OW 1849   2.940   1.527   1.613 -0.6359 -0.0725 -0.1551
  617SOL    HW1 1850   2.916   1.429   1.642 -1.6420  0.8741 -1.8226
  617SOL    HW2 1851   3.002   1.532   1.534 -1.9929 -1.8388  1.4893
  618SOL     OW 1852   1.887   2.092   1.359  0.3908  0.0805  0.2007
  618SOL    HW1 1853   1.915   2.180   1.312  0.8079 -0.4284 -0.5672
  618SOL    HW2 1854   1.885   2.000   1.298  0.5978 -1.0599 -1.6600
  619SOL     OW 1855   1.760   0.464   2.376  0.0827  0.7010  0.0576
  619SOL    HW1 1856   1.694   0.533   2.339 -1.1321  0.9856  0.1555
  619SOL    HW2 1857   1.733   0.363   2.369  0.9490 -1.5641  3.9062
  620SOL     OW 1858   2.302   2.887   0.771  0.1602  0.4176  0.0591
  620SOL    HW1 1859   2.218   2.942   0.808 -1.9782 -0.5075  0.7622
  620SOL    HW2 1860   2.334   2.815   0.836  0.8876  1.9730  0.2705
  621SOL     OW 1861   2.125   1.806   1.355  0.5385 -0.2249  0.1322
  621SOL    HW1 1862   2.159   1.826   1.451  0.6022 -0.9469 -1.8071
  621SOL    HW2 1863   2.090   1.708   1.340 -0.0375 -2.0961 -1.3787
  622SOL     OW 1864   2.283   0.930   1.844 -0.7027 -0.3799 -0.0774
  622SOL    HW1 1865   2.384   0.939   1.822  1.1011 -0.0307 -2.1167
  622SOL    HW2 1866   2.249   0.840   1.875 -1.5076  2.6174 -0.8553
  623SOL     OW 1867   1.351   0.795   2.420  0.3761  0.4328 -0.3924
  623SOL    HW1 1868   1.298   0.708   2.452 -2.1535 -2.6782 -0.6762
  623SOL    HW2 1869   1.291   0.858   2.361 -3.0192 -0.6622 -1.9005
  624SOL     OW 1870   0.537   0.647   3.080  0.1732  0.4066  0.0776
  624SOL    HW1 1871   0.583   0.662   2.989  0.0874 -0.8039 -1.7199
  624SOL    HW2 1872   0.517   0.740   3.125  0.1540  1.7751  1.8226
  625SOL     OW 1873   2.784   1.722   1.005 -0.2055  0.4606 -0.0400
  625SOL    HW1 1874   2.705   1.779   0.975 -0.6627 -0.2926 -0.5817
  625SOL    HW2 1875   2.865   1.781   1.035  0.0490  3.3171 -0.5310
  626SOL     OW 1876   0.618   2.661   1.704 -0.1755  0.2311 -0.3450
  626SOL    HW1 1877   0.686   2.704   1.771  1.0352 -1.7161  0.9440
  626SOL    HW2 1878   0.515   2.659   1.735 -1.5432 -0.5257 -0.0326
  627SOL     OW 1879   0.657   0.894   1.574  0.2294  0.2781 -0.1327
  627SOL    HW1 1880   0.566   0.892   1.539  4.0125  2.5334  0.9212
  627SOL    HW2 1881   0.732   0.900   1.503  1.8113 -1.5262  1.1984
  628SOL     OW 1882   2.451   0.175   0.700  0.8134  0.7510 -0.5217
  628SOL    HW1 1883   2.500   0.096   0.660  1.8644  0.5658  1.1185
  628SOL    HW2 1884   2.354   0.152   0.732  2.5061  1.5300 -1.0249
  629SOL     OW 1885   1.902   0.906   1.998  0.0897  0.4163  0.9082
  629SOL    HW1 1886   1.907   0.982   1.925 -0.0903  1.0286 -0.4272
  629SOL    HW2 1887   1.862   0.948   2.083 -0.2750  1.9464 -0.9830
  630SOL     OW 1888   2.931   2.327   0.781  0.6373  0.2701  0.1040
  630SOL    HW1 1889   2.844   2.386   0.787 -0.1554  0.8802  2.6968
  630SOL    HW2 1890   2.918   2.230   0.745 -0.0578 -2.5496  0.7624
  631SOL     OW 1891   3.072   0.158   2.179  0.4760  0.2737  0.1979
  631SOL    HW1 1892   3.130   0.190   2.255 -4.4605  1.2842  2.2968
  631SOL    HW2 1893   3.091   0.207   2.088 -0.3811  3.6282 -0.2974
  632SOL     OW 1894   2.456   2.575   0.610  0.2513  0.8708  0.4035
  632SOL    HW1 1895   2.522   2.641   0.649 -1.5109 -2.2549  0.2564
  632SOL    HW2 1896   2.379   2.624   0.565  0.6445  1.0071 -1.5739
  633SOL     OW 1897   1.483   1.206   2.677  0.1653  0.1222 -0.2284
  633SOL    HW1 1898   1.456   1.291   2.740  0.0922 -0.5331  2.3730
  633SOL    HW2 1899   1.418   1.188   2.593 -0.6330 -0.7807 -3.0486
  634SOL     OW 1900   0.632   2.021   0.902 -0.0817 -0.5730  0.0332
  634SOL    HW1 1901   0.548   2.054   0.951  1.5916 -0.6709  1.1021
  634SOL    HW2 1902   0.715   2.060   0.950 -1.4097  1.6229 -0.3178
  635SOL     OW 1903   2.999   2.377   0.051 -0.3635 -0.3660  0.7465
  635SOL    HW1 1904   2.951   2.437  -0.022  2.6219 -0.6947 -0.7539
  635SOL    HW2 1905   3.099   2.407   0.063  0.3010 -0.8104 -2.2120
  636SOL     OW 1906   2.366   2.771   1.998 -0.9243  0.1898 -0.0310
  636SOL    HW1 1907   2.332   2.871   2.007  2.6772 -0.8387  2.4113
  636SOL    HW2 1908   2.317   2.707   2.063  1.1549 -2.0302  0.4407
  637SOL     OW 1909   2.771   0.618   1.978 -0.1389  0.4303 -0.0336
  637SOL    HW1 1910   2.689   0.653   1.931  3.4075 -0.7311  0.8567
  637SOL    HW2 1911   2.830   0.703   2.010 -1.6635  1.1872 -0.4413
  638SOL     OW 1912   2.432   1.858   1.309 -0.6938 -0.4061  0.4977
  638SOL    HW1 1913   2.340   1.824   1.281 -0.7978  0.9749  1.0909
  638SOL    HW2 1914   2.492   1.790   1.363 -0.9644 -1.7970 -0.0543
  639SOL     OW 1915   1.309   2.203   1.697 -0.1678 -0.1536  0.3948
  639SOL    HW1 1916   1.340   2.297   1.672 -1.4780 -1.1181 -2.0380
  639SOL    HW2 1917   1.221   2.198   1.747  0.3951  0.2398  3.5496
  640SOL     OW 1918   0.196   1.200   1.542  0.3212  0.2544 -0.5110
  640SOL    HW1 1919   0.160   1.208   1.640 -0.2120 -2.4522  3.6780
  640SOL    HW2 1920   0.264   1.123   1.537  0.2570 -2.6134  0.6912
  641SOL     OW 1921   1.972   0.271   1.451  0.4592  0.0461 -0.7552
  641SOL    HW1 1922   1.911   0.280   1.532  0.9279  0.1806 -0.5685
  641SOL    HW2 1923   2.060   0.216   1.475  2.4634 -2.3022  0.1482
  642SOL     OW 1924   2.020   0.083   0.380  0.0960  0.2995 -0.0907
  642SOL    HW1 1925   2.114   0.045   0.400 -1.1707 -0.0751 -0.2606
  642SOL    HW2 1926   2.000   0.154   0.452 -2.0545 -2.3828  0.8156
  643SOL     OW 1927   2.917   1.833   2.156  0.1180 -0.7540  0.2225
  643SOL    HW1 1928   2.852   1.772   2.102  0.7562 -0.3124  0.7069
  643SOL    HW2 1929   2.936   1.920   2.102 -1.3639 -0.9244 -1.0312
  644SOL     OW 1930   2.299   2.426   1.226  0.1173 -0.5562 -0.3047
  644SOL    HW1 1931   2.322   2.346   1.166 -0.1368  1.6801  0.9639
  644SOL    HW2 1932   2.249   2.406   1.311 -0.5328 -1.3850 -1.8068
  645SOL     OW 1933   0.587   0.826   1.267 -0.3114  0.1372  0.7180
  645SOL    HW1 1934   0.489   0.837   1.287 -0.9610  1.2342  1.3076
  645SOL    HW2 1935   0.622   0.848   1.174  1.0865 -0.7574 -1.7060
  646SOL     OW 1936   1.492   1.818   2.046 -0.5559  0.1230  0.1072
  646SOL    HW1 1937   1.540   1.888   1.983  0.2694 -0.6753 -1.4678
  646SOL    HW2 1938   1.557   1.765   2.106  0.2847  0.4704 -1.4201
  647SOL     OW 1939   0.864   1.096   0.631  0.3008  0.0011 -0.4805
  647SOL    HW1 1940   0.926   1.128   0.712  0.6593 -1.5057  1.5012
  647SOL    HW2 1941   0.797   1.017   0.654 -0.7080 -0.2637 -0.7938
  648SOL     OW 1942   0.146   0.269   0.286 -0.2281  0.0553 -0.2949
  648SOL    HW1 1943   0.170   0.193   0.217  1.2688 -0.2516 -1.6259
  648SOL    HW2 1944   0.133   0.357   0.235  1.9256 -0.6470  0.1326
  649SOL     OW 1945   3.027   0.184   0.801  0.2891  0.2902  0.7108
  649SOL    HW1 1946   3.124   0.162   0.838 -1.1669 -0.0429  1.6847
  649SOL    HW2 1947   3.014   0.287   0.785  0.3683  0.9035 -0.8528
  650SOL     OW 1948   2.715   0.649   1.555 -0.2786  0.1616 -0.1573
  650SOL    HW1 1949   2.611   0.632   1.553 -0.6379 -0.7586  1.3134
  650SOL    HW2 1950   2.756   0.725   1.504 -1.2523  0.3626 -0.6413
  651SOL     OW 1951   0.884   1.548   1.668  0.1181  0.1468 -0.4669
  651SOL    HW1 1952   0.894   1.647   1.702  3.0783 -1.3724 -1.1782
  651SOL    HW2 1953   0.964   1.525   1.604  1.7317 -0.3606 -0.6959
  652SOL     OW 1954   2.395   2.441   2.470 -0.0551 -0.6438 -0.0813
  652SOL    HW1 1955   2.293   2.461   2.489 -2.4401 -1.8480  1.4199
  652SOL    HW2 1956   2.422   2.482   2.378 -2.3969  1.6652 -1.5886
  653SOL     OW 1957   2.728   1.245   0.179 -0.4481  0.1066  0.0871
  653SOL    HW1 1958   2.778   1.327   0.216 -2.5087  1.9279 -0.7524
  653SOL    HW2 1959   2.774   1.159   0.215  0.7343  2.5010  1.5865
  654SOL     OW 1960   1.273   2.207   1.294  0.1363  0.9440  0.0330
  654SOL    HW1 1961   1.314   2.147   1.363  0.7862 -0.7151  0.4660
  654SOL    HW2 1962   1.252   2.153   1.209  1.2855 -1.1223 -0.5135
  655SOL     OW 1963   0.182   0.936   1.884 -0.4106 -0.7884  0.0800
  655SOL    HW1 1964   0.263   0.883   1.851  0.8009  4.2691 -0.4928
  655SOL    HW2 1965   0.190   1.036   1.854 -0.3272  0.0671  1.9769
  656SOL     OW 1966   2.570   2.539   2.658  0.0431 -0.6801  0.1786
  656SOL    HW1 1967   2.671   2.513   2.637 -0.2027 -0.0638 -1.0020
  656SOL    HW2 1968   2.507   2.497   2.584 -0.3463  0.9149 -2.9613
  657SOL     OW 1969   3.002   1.026   1.808  0.2329 -0.4488  0.0837
  657SOL    HW1 1970   3.011   1.111   1.863 -0.0510  1.8550  0.9136
  657SOL    HW2 1971   3.088   0.971   1.783 -1.9381 -2.0878  0.2121
  658SOL     OW 1972   1.711   0.208   2.305 -0.0730  0.0087  0.4890
  658SOL    HW1 1973   1.756   0.154   2.376  1.0755  2.9544 -0.9938
  658SOL    HW2 1974   1.721   0.166   2.208 -1.8129 -2.9143  2.2238
  659SOL     OW 1975   1.390   0.637   2.769 -0.0583 -0.1261  0.2429
  659SOL    HW1 1976   1.431   0.685   2.687 -3.3655 -1.2530  0.6754
  659SOL    HW2 1977   1.305   0.690   2.805 -0.1931  2.8128  0.8545
  660SOL     OW 1978   1.425   0.350   1.430 -0.6358 -0.7679  1.1900
  660SOL    HW1 1979   1.406   0.360   1.530 -3.9513  1.7878 -2.1969
  660SOL    HW2 1980   1.492   0.275   1.405  1.6615  0.5104 -2.0683
  661SOL     OW 1981   2.432   1.254   0.627 -0.1696 -0.0303 -0.2679
  661SOL    HW1 1982   2.466   1.247   0.527 -2.6664  2.3712 -1.1233
  661SOL    HW2 1983   2.386   1.339   0.649  3.4223 -0.1029  1.7380
  662SOL     OW 1984   1.422   0.424   1.709 -0.2130 -0.3173 -0.1080
  662SOL    HW1 1985   1.401   0.374   1.799 -0.3478  1.1323  1.3663
  662SOL    HW2 1986   1.476   0.513   1.722 -0.6466 -3.5328 -2.4192
  663SOL     OW 1987   0.865   1.535   2.118 -0.0766 -1.0560  0.1080
  663SOL    HW1 1988   0.811   1.612   2.164 -3.0503  3.0941 -1.1216
  663SOL    HW2 1989   0.800   1.477   2.063  0.5277 -0.1310  0.5641
  664SOL     OW 1990   1.610   2.103   1.430 -0.0170 -0.6772  0.0596
  664SOL    HW1 1991   1.559   2.024   1.477  2.9879 -0.1545  1.7191
  664SOL    HW2 1992   1.695   2.073   1.384 -1.4765  0.0344 -1.8170
  665SOL     OW 1993   2.289   0.644   1.957  0.4542 -0.3784  0.0618
  665SOL    HW1 1994   2.256   0.545   1.974 -0.4545  0.3695 -0.0017
  665SOL    HW2 1995   2.339   0.681   2.037  2.3240  0.9520 -1.4847
  666SOL     OW 1996   0.481   2.247   0.324  0.5391  0.3405  0.8523
  666SOL    HW1 1997   0.529   2.303   0.399  0.7106 -1.2396 -0.6113
  666SOL    HW2 1998   0.380   2.225   0.339  0.2823  1.0052  0.9316
  667SOL     OW 1999   1.918   0.232   1.038  0.3237  0.0719  0.6480
  667SOL    HW1 2000   1.909   0.335   1.047  1.0326  0.1459 -0.4688
  667SOL    HW2 2001   1.889   0.187   1.130 -0.0754  2.7432 -0.3328
  668SOL     OW 2002   1.995   0.525   1.133  0.1430  0.0930 -0.0335
  668SOL    HW1 2003   2.068   0.538   1.069  1.5806 -0.9343  0.0477
  668SOL    HW2 2004   2.035   0.552   1.225  1.4193  0.0489 -0.9030
  669SOL     OW 2005   3.019   2.186   1.020  0.1382  0.6718 -0.1154
  669SOL    HW1 2006   2.981   2.254   0.956  1.1578 -3.2078  1.1916
  669SOL    HW2 2007   3.009   2.205   1.121 -1.7595 -1.4219 -0.2934
  670SOL     OW 2008   2.889   2.310   2.097  0.0802  0.1889  0.2843
  670SOL    HW1 2009   2.827   2.287   2.182 -1.6295  1.1058  2.1246
  670SOL    HW2 2010   2.881   2.405   2.058 -2.3796  0.6074  0.4839
  671SOL     OW 2011   1.785   1.766   1.539  0.4872  0.0944 -0.2804
  671SOL    HW1 2012   1.808   1.811   1.449 -1.6202  0.5331 -0.8528
  671SOL    HW2 2013   1.680   1.779   1.553  0.1286 -0.3690  1.8294
  672SOL     OW 2014   0.472   0.668   2.528 -0.0764 -0.1312 -0.1917
  672SOL    HW1 2015   0.427   0.712   2.448  1.5732 -2.3148 -0.9759
  672SOL    HW2 2016   0.417   0.684   2.618 -2.3884  3.8237 -0.6863
  673SOL     OW 2017   0.080   1.268   1.117  0.4109 -0.6556  0.0851
  673SOL    HW1 2018   0.019   1.338   1.158  0.7065 -2.7810  0.2555
  673SOL    HW2 2019   0.179   1.289   1.119  1.3369  0.9676  0.8386
  674SOL     OW 2020   1.635   2.985   0.310 -0.2588  0.4831  0.2681
  674SOL    HW1 2021   1.656   3.087   0.289  3.2158  0.2844  2.4971
  674SOL    HW2 2022   1.655   2.923   0.228 -1.3492 -0.1059 -4.2833
  675SOL     OW 2023   1.733   0.850   2.318  0.2412 -0.0550 -0.5339
  675SOL    HW1 2024   1.830   0.808   2.316 -1.9628 -0.2182  1.3229
  675SOL    HW2 2025   1.661   0.785   2.285 -1.5694  2.8764 -2.9624
  676SOL     OW 2026   2.554   1.494   1.922  0.1203 -0.7709  0.3385
  676SOL    HW1 2027   2.503   1.466   1.837 -0.8556  2.3495 -3.1559
  676SOL    HW2 2028   2.564   1.425   2.002 -0.8181 -1.4253 -2.6619
  677SOL     OW 2029   1.930   0.712   0.886  0.3771 -0.4873 -0.0351
  677SOL    HW1 2030   1.849   0.683   0.944  1.6887 -2.0706  1.8107
  677SOL    HW2 2031   1.996   0.634   0.887 -1.3380 -3.1669 -0.2201
  678SOL     OW 2032   0.098   0.750   1.624 -0.5613 -0.0887  0.0789
  678SOL    HW1 2033   0.196   0.771   1.654  0.8131 -0.3468  2.6240
  678SOL    HW2 2034   0.052   0.683   1.689 -2.5783 -1.1971 -1.3808
  679SOL     OW 2035   2.571   1.194   1.173 -0.3376 -0.1148  0.0414
  679SOL    HW1 2036   2.465   1.204   1.153 -1.0996 -0.6260 -0.5294
  679SOL    HW2 2037   2.600   1.098   1.191 -0.4758 -0.7385  2.7567
  680SOL     OW 2038   2.832   0.467   1.711 -0.1641 -0.0674 -0.1047
  680SOL    HW1 2039   2.774   0.539   1.660  1.1113 -0.3585  2.9163
  680SOL    HW2 2040   2.914   0.508   1.766  1.2811 -3.2777  1.7016
  681SOL     OW 2041   2.969   0.060   1.589 -0.2457 -0.1535 -0.3178
  681SOL    HW1 2042   3.052   0.053   1.519 -0.7604  1.4870 -0.5494
  681SOL    HW2 2043   2.912   0.147   1.579 -1.3328 -2.2000 -2.2067
  682SOL     OW 2044   0.671   0.056   1.336  0.4651 -0.2829 -0.2996
  682SOL    HW1 2045   0.605  -0.017   1.371  1.6135  1.8925  0.9914
  682SOL    HW2 2046   0.715   0.025   1.249 -0.2861 -1.8062  0.5753
  683SOL     OW 2047   1.378   0.196   2.154  0.0001 -0.3887 -0.1395
  683SOL    HW1 2048   1.393   0.212   2.254  0.1244 -1.9826 -0.6652
  683SOL    HW2 2049   1.455   0.248   2.104  1.4219 -1.5684  1.2300
  684SOL     OW 2050   1.460   2.106   0.548  0.1106 -0.4391  0.1746
  684SOL    HW1 2051   1.480   2.056   0.635 -1.6123 -1.6855  0.6366
  684SOL    HW2 2052   1.361   2.080   0.515  0.4058  0.8922 -1.0956
  685SOL     OW 2053   2.228   2.080   1.975 -0.1406  0.0588  0.0271
  685SOL    HW1 2054   2.280   2.063   1.889 -0.4566  2.6610  2.2289
  685SOL    HW2 2055   2.246   2.023   2.057  0.3992 -2.5874 -0.0707
  686SOL     OW 2056   1.472   1.814   2.836 -0.6763 -0.1401 -0.2644
  686SOL    HW1 2057   1.532   1.814   2.921 -0.7449 -1.9505 -1.8952
  686SOL    HW2 2058   1.372   1.813   2.863 -1.1146  0.6987  1.2337
  687SOL     OW 2059   1.315   2.416   1.969 -0.3802  0.8791  0.0899
  687SOL    HW1 2060   1.346   2.319   1.942  2.0775 -0.3810 -1.6324
  687SOL    HW2 2061   1.336   2.441   2.065 -1.5450 -1.8545 -0.6074
  688SOL     OW 2062   2.029   1.526   1.786 -0.2558 -0.3217 -0.2802
  688SOL    HW1 2063   2.126   1.568   1.801 -2.2638  0.5573  0.5649
  688SOL    HW2 2064   2.008   1.514   1.686  0.3723  2.0263  1.1176
  689SOL     OW 2065   2.389   1.086   2.741  0.0656 -0.0401  0.6339
  689SOL    HW1 2066   2.289   1.048   2.748 -2.2729  0.9870 -1.0469
  689SOL    HW2 2067   2.447   1.083   2.827  1.7954 -1.9664  0.2295
  690SOL     OW 2068   2.245   2.795   0.048 -0.0453  0.3486 -0.5996
  690SOL    HW1 2069   2.160   2.773  -0.021  0.8800  2.0918 -3.4472
  690SOL    HW2 2070   2.228   2.792   0.151 -0.7383 -0.7318 -0.1960
  691SOL     OW 2071   2.588   0.409   2.087 -0.3693 -0.3274 -0.3039
  691SOL    HW1 2072   2.647   0.328   2.115  0.2162  1.5912 -0.8647
  691SOL    HW2 2073   2.621   0.455   2.000  0.6926  0.5590 -0.2272
  692SOL     OW 2074   2.653   1.203   0.822  0.7750 -0.0332 -0.2191
  692SOL    HW1 2075   2.571   1.228   0.765 -0.5867  0.9139  2.5439
  692SOL    HW2 2076   2.695   1.281   0.873  0.9807  0.7710  0.3512
  693SOL     OW 2077   2.856   3.011   0.573 -0.1345  0.1718 -0.6144
  693SOL    HW1 2078   2.808   3.069   0.646  1.0843  1.6761  0.5663
  693SOL    HW2 2079   2.836   3.049   0.476 -2.5469  0.5078 -1.4564
  694SOL     OW 2080   2.436   2.195   0.130 -0.4378  0.0117 -0.3753
  694SOL    HW1 2081   2.408   2.275   0.193 -2.5954  1.1588  2.2997
  694SOL    HW2 2082   2.355   2.134   0.108  1.5475 -2.8247 -1.1228
  695SOL     OW 2083   0.472   2.954   1.431 -0.1497  0.1074 -0.0150
  695SOL    HW1 2084   0.416   2.868   1.435 -0.7853  1.6282 -0.1637
  695SOL    HW2 2085   0.446   3.022   1.504  0.1035  1.8269 -0.7877
  696SOL     OW 2086   2.862   2.069   0.744  0.3075  0.3950  0.0813
  696SOL    HW1 2087   2.874   1.974   0.783  1.3296  0.2097  2.2982
  696SOL    HW2 2088   2.845   2.064   0.638  0.1673 -0.8643  0.3107
  697SOL     OW 2089   1.649   1.894   1.812  0.0204  0.8007 -0.0158
  697SOL    HW1 2090   1.736   1.851   1.775 -1.6610  2.4305 -1.3538
  697SOL    HW2 2091   1.656   1.996   1.796  2.4682  0.4758 -2.4876
  698SOL     OW 2092   2.870   0.438   2.744 -0.1929 -0.1057 -0.2918
  698SOL    HW1 2093   2.879   0.416   2.641  0.7200 -0.2524 -3.8099
  698SOL    HW2 2094   2.908   0.364   2.802  0.5914 -1.6174  0.3006
  699SOL     OW 2095   1.553   0.047   2.928  0.3761 -0.2667  0.1344
  699SOL    HW1 2096   1.502  -0.041   2.898 -2.5870 -0.8020 -1.8363
  699SOL    HW2 2097   1.617   0.090   2.858  0.9812 -0.0799 -0.5794
  700SOL     OW 2098   0.998   2.267   1.431 -0.1815  0.4817  0.9672
  700SOL    HW1 2099   1.086   2.219   1.405  4.2253  3.2070 -0.2219
  700SOL    HW2 2100   0.920   2.246   1.372  0.7355  2.1771  1.7417
  701SOL     OW 2101   1.924   2.884  -0.002  0.1510  0.2208 -0.4935
  701SOL    HW1 2102   1.863   2.838   0.069  2.2711  1.7471  3.0750
  701SOL    HW2 2103   1.961   2.977   0.028 -2.3544  1.8111  2.1209
  702SOL     OW 2104   2.068   1.305   1.959 -0.1281  0.0630  0.1783
  702SOL    HW1 2105   2.166   1.267   1.963  0.9515  1.0496  0.0660
  702SOL    HW2 2106   2.048   1.371   1.880  0.9534 -0.7024 -0.4729
  703SOL     OW 2107   1.954   0.907   1.483 -0.0595 -0.4310 -0.2793
  703SOL    HW1 2108   1.950   0.805   1.515  3.0567 -0.9468  2.1110
  703SOL    HW2 2109   1.996   0.967   1.558  2.1778  0.4701 -0.0777
  704SOL     OW 2110   0.289   2.029   1.674  0.1296 -0.0160 -0.1901
  704SOL    HW1 2111   0.346   1.966   1.727 -1.1078  2.6752 -0.2899
  704SOL    HW2 2112   0.339   2.119   1.652 -0.4396  3.1067 -0.7640
  705SOL     OW 2113   2.461   1.519   0.854  0.0559  0.3155  0.0375
  705SOL    HW1 2114   2.380   1.468   0.808 -0.7798  0.0161 -1.9101
  705SOL    HW2 2115   2.544   1.462   0.873  0.1062  2.2555  0.8007
  706SOL     OW 2116   0.700   1.699   1.845  0.2594  0.2062  0.4779
  706SOL    HW1 2117   0.709   1.593   1.856  0.3554 -1.6794 -0.4078
  706SOL    HW2 2118   0.763   1.746   1.902  1.8865 -0.3211 -0.2914
  707SOL     OW 2119   2.328   1.203   1.977 -0.6386 -0.2668 -0.4771
  707SOL    HW1 2120   2.373   1.224   2.069 -2.1901  0.8795  0.5193
  707SOL    HW2 2121   2.314   1.104   1.961  1.1266  0.9321  2.9838
  708SOL     OW 2122   2.990   0.526   3.034 -0.9255 -0.4327 -0.4078
  708SOL    HW1 2123   3.072   0.561   2.979  1.9134  2.4397  2.3003
  708SOL    HW2 2124   2.970   0.431   3.002 -3.3221 -0.4184  1.6844
  709SOL     OW 2125   1.898   1.884   0.351  0.0034  0.6714  0.3457
  709SOL    HW1 2126   1.912   1.988   0.360 -1.4375  1.8736  1.5380
  709SOL    HW2 2127   1.846   1.855   0.268  1.7038  0.0944  0.8248
  710SOL     OW 2128   1.756   1.624   2.457 -0.5210  0.1477 -0.5724
  710SOL    HW1 2129   1.790   1.554   2.387 -0.0677 -1.4361  1.4719
  710SOL    HW2 2130   1.722   1.580   2.543 -0.2514 -1.5657 -4.6106
  711SOL     OW 2131   2.581   2.915   0.982 -0.0610 -0.5387  0.3519
  711SOL    HW1 2132   2.549   3.008   0.954 -3.0077 -0.4033  1.0898
  711SOL    HW2 2133   2.684   2.915   1.000 -0.0770  1.6150  3.0796
  712SOL     OW 2134   1.418   2.136   1.964 -0.0927 -0.2269  0.1026
  712SOL    HW1 2135   1.523   2.159   1.970  0.0083 -0.8475 -1.3271
  712SOL    HW2 2136   1.382   2.134   1.862 -2.1989  1.0256 -0.3802
  713SOL     OW 2137   2.791   1.505   2.526 -0.2617 -0.2576  0.1805
  713SOL    HW1 2138   2.787   1.399   2.514 -3.0730 -0.6946 -0.0017
  713SOL    HW2 2139   2.709   1.546   2.580 -2.2214 -1.9728  0.8167
  714SOL     OW 2140   2.608   0.433   2.387  0.0057 -0.3731  0.9685
  714SOL    HW1 2141   2.580   0.377   2.470  0.6412 -0.0672 -2.8304
  714SOL    HW2 2142   2.564   0.401   2.293  0.7172 -0.0795 -0.2263
  715SOL     OW 2143   1.568   2.129   1.146 -0.4104 -0.5985  0.1557
  715SOL    HW1 2144   1.481   2.128   1.094  0.0037  0.7929  1.5576
  715SOL    HW2 2145   1.558   2.127   1.253 -0.9399 -0.6330  2.0901
  716SOL     OW 2146   1.216   0.164   1.466 -0.2504  0.6113 -0.3254
  716SOL    HW1 2147   1.124   0.162   1.430  0.9876 -0.6539 -1.5577
  716SOL    HW2 2148   1.258   0.247   1.438 -2.5029 -1.4273  2.5678
  717SOL     OW 2149   1.155   0.537   1.585 -0.5493 -0.3078  0.1512
  717SOL    HW1 2150   1.251   0.542   1.620  0.6706 -1.1448 -0.8546
  717SOL    HW2 2151   1.157   0.512   1.479  1.1973  0.0077 -0.8817
  718SOL     OW 2152   0.673   0.886   0.957  0.5287 -0.4965  0.3119
  718SOL    HW1 2153   0.664   0.896   0.852 -0.1513  0.9792  0.9178
  718SOL    HW2 2154   0.683   0.980   0.996  1.4108  1.6585  1.5819
  719SOL     OW 2155   0.599   1.731   2.289 -0.0598 -0.7454  0.5529
  719SOL    HW1 2156   0.646   1.802   2.356 -1.1886  3.1491  0.7477
  719SOL    HW2 2157   0.600   1.636   2.322  0.2714  0.8863 -1.5184
  720SOL     OW 2158   2.217   1.128   0.283 -0.0597 -0.1456 -0.4448
  720SOL    HW1 2159   2.273   1.058   0.237 -1.6468  1.6124  1.6327
  720SOL    HW2 2160   2.191   1.099   0.378  2.3261  1.6134  0.9854
  721SOL     OW 2161   2.247   2.997   2.048 -0.3744  0.6979  0.1975
  721SOL    HW1 2162   2.211   3.036   1.959  0.5658 -1.0626 -2.2622
  721SOL    HW2 2163   2.203   3.026   2.135  0.8859 -3.5691 -1.0370
  722SOL     OW 2164   2.341   1.642   0.483 -0.2990 -0.0144 -0.0721
  722SOL    HW1 2165   2.404   1.653   0.397 -0.5422 -0.3300 -2.9699
  722SOL    HW2 2166   2.240   1.673   0.465 -1.8830 -0.3491  2.5183
  723SOL     OW 2167   2.660   2.709   1.914  0.4277 -0.0008 -0.2678
  723SOL    HW1 2168   2.685   2.808   1.944 -0.7521 -0.6372  2.1570
  723SOL    HW2 2169   2.557   2.692   1.926  1.0863 -0.3832 -0.1342
  724SOL     OW 2170   0.479   2.500   2.402  0.0605  0.0100 -0.6911
  724SOL    HW1 2171   0.383   2.482   2.444  1.6425  0.5337  0.5441
  724SOL    HW2 2172   0.551   2.504   2.482  3.6452 -5.1397 -0.8303
  725SOL     OW 2173   2.364   2.725   1.568  0.0578 -0.4805 -0.0850
  725SOL    HW1 2174   2.446   2.788   1.546 -2.0602  2.2986 -0.4584
  725SOL    HW2 2175   2.378   2.624   1.587 -1.1510  0.6637 -0.4101
  726SOL     OW 2176   2.456   2.322   0.700 -0.3658  0.0130  0.5185
  726SOL    HW1 2177   2.464   2.418   0.666  1.8518 -1.9270  1.5876
  726SOL    HW2 2178   2.412   2.255   0.628 -2.2860 -3.1424 -3.4098
  727SOL     OW 2179   0.111   3.084   0.137  0.6896 -0.2721 -0.4869
  727SOL    HW1 2180   0.196   3.066   0.080 -0.0759  2.3630  0.1710
  727SOL    HW2 2181   0.025   3.054   0.083 -0.5831 -3.4443 -1.4883
  728SOL     OW 2182   2.892   0.702   0.914  0.1070 -0.0792 -0.7678
  728SOL    HW1 2183   2.840   0.677   0.826  1.3893 -2.8729 -1.8375
  728SOL    HW2 2184   2.854   0.644   0.993 -1.3821 -1.3608  0.6403
  729SOL     OW 2185   0.039   2.539   0.735 -0.1282 -0.0836  0.0808
  729SOL    HW1 2186   0.050   2.467   0.806  1.4953 -0.4438  0.2797
  729SOL    HW2 2187   0.130   2.562   0.682  3.7636 -0.6654  1.7510
  730SOL     OW 2188   2.531   0.671   0.837 -0.1767 -0.3226 -0.4111
  730SOL    HW1 2189   2.499   0.769   0.857 -0.5879  2.3181 -1.2884
  730SOL    HW2 2190   2.607   0.666   0.768 -1.0554  1.9176 -0.6610
  731SOL     OW 2191   3.090   2.186   2.419  0.5750 -0.0640  0.1493
  731SOL    HW1 2192   3.100   2.226   2.514 -1.2245 -1.4945  1.8890
  731SOL    HW2 2193   3.008   2.222   2.372 -0.0637 -0.3682  2.3754
  732SOL     OW 2194   1.178   2.798   2.022  0.1947  0.2293 -0.6692
  732SOL    HW1 2195   1.226   2.730   2.088 -0.8312 -1.4837 -0.4415
  732SOL    HW2 2196   1.176   2.767   1.921 -0.5793 -0.3689 -0.1586
  733SOL     OW 2197   3.090   0.597   2.254 -0.7441  0.8566 -0.2957
  733SOL    HW1 2198   3.158   0.626   2.179 -0.7742 -1.9380  1.1808
  733SOL    HW2 2199   3.025   0.524   2.224  0.6919  0.3366  0.4239
  734SOL     OW 2200   1.462   0.373   2.680 -0.1176 -0.4898  0.2338
  734SOL    HW1 2201   1.471   0.459   2.732  0.4843 -1.1816  0.9139
  734SOL    HW2 2202   1.365   0.348   2.673 -0.0906  2.5479 -1.7368
  735SOL     OW 2203   2.882   2.614   2.271  0.3055  0.0453 -0.3812
  735SOL    HW1 2204   2.879   2.582   2.173 -0.9584 -1.5023  0.4126
  735SOL    HW2 2205   2.977   2.661   2.290  4.0642  2.0419  1.5527
  736SOL     OW 2206   0.920   0.435   2.512 -0.1994 -0.2188 -0.2282
  736SOL    HW1 2207   0.826   0.474   2.524  0.4101  0.2714  0.2439
  736SOL    HW2 2208   0.918   0.341   2.476  2.0089  2.7688  0.6392
  737SOL     OW 2209   2.623   0.472   2.819  0.1481  0.4978  0.4645
  737SOL    HW1 2210   2.580   0.435   2.908  0.4202  0.8240  2.9044
  737SOL    HW2 2211   2.723   0.454   2.810 -0.9559  2.2905 -2.2880
  738SOL     OW 2212   1.720   1.284   2.894  0.6240 -0.4593  0.2326
  738SOL    HW1 2213   1.819   1.264   2.867 -1.5624  0.1556 -0.6946
  738SOL    HW2 2214   1.659   1.208   2.854 -0.2712  1.3821 -0.2106
  739SOL     OW 2215   1.785   0.702   0.666  0.1287  0.3813  0.4896
  739SOL    HW1 2216   1.849   0.712   0.750 -0.2075 -1.2048  1.4451
  739SOL    HW2 2217   1.792   0.608   0.625  0.1237 -0.1878 -2.3431
  740SOL     OW 2218   1.936   1.946   2.365 -0.0905  0.4083 -0.0031
  740SOL    HW1 2219   2.011   1.881   2.380 -3.7180  1.9969 -0.6293
  740SOL    HW2 2220   1.852   1.915   2.311 -0.3221  0.2724 -1.0560
  741SOL     OW 2221   2.601   0.079   2.464  0.8898  0.5810  0.4307
  741SOL    HW1 2222   2.704   0.084   2.447  1.8676 -2.1646 -2.4878
  741SOL    HW2 2223   2.551   0.113   2.381  1.7785 -0.9628  1.8055
  742SOL     OW 2224   2.181   1.375   0.136 -0.3205  0.2111 -0.5832
  742SOL    HW1 2225   2.080   1.395   0.119 -2.4802  1.7044 -1.0755
  742SOL    HW2 2226   2.196   1.295   0.200 -1.7678 -2.2517  3.7268
  743SOL     OW 2227   1.773   0.640   2.619  0.0399  0.0780  0.0713
  743SOL    HW1 2228   1.767   0.573   2.541 -1.0332  0.6860  1.2848
  743SOL    HW2 2229   1.687   0.684   2.630  3.7764 -1.2707 -0.8617
  744SOL     OW 2230   2.689   2.049   0.033  0.3937 -1.1212 -0.1596
  744SOL    HW1 2231   2.616   2.097   0.090 -0.7084 -0.0062 -2.5489
  744SOL    HW2 2232   2.678   1.952   0.010  1.5958 -2.5464 -0.7162
  745SOL     OW 2233   2.208   2.657   2.168 -0.2172  0.4576 -0.2981
  745SOL    HW1 2234   2.108   2.669   2.165 -0.3665  1.2682 -0.1333
  745SOL    HW2 2235   2.251   2.712   2.242 -2.3594  1.0245 -1.2318
  746SOL     OW 2236   0.041   2.658   1.732 -0.5630  0.2051 -0.0521
  746SOL    HW1 2237   0.124   2.602   1.752 -0.9215  0.0914  1.1597
  746SOL    HW2 2238   0.035   2.733   1.807 -0.3193  0.8030 -1.5733
  747SOL     OW 2239   0.034   1.805   1.653 -0.5802 -0.3194 -0.3669
  747SOL    HW1 2240  -0.012   1.709   1.633 -1.1622 -2.3573  0.5489
  747SOL    HW2 2241   0.104   1.834   1.579 -1.5356  0.7149  1.9013
  748SOL     OW 2242   1.821   2.733   2.876  0.5191  0.1727  0.5440
  748SOL    HW1 2243   1.858   2.804   2.944 -1.8128 -1.3609 -1.4789
  748SOL    HW2 2244   1.717   2.733   2.865  0.8774 -0.8787 -2.2053
  749SOL     OW 2245   1.374   3.046   0.864  0.1545  0.1307 -0.1502
  749SOL    HW1 2246   1.278   3.051   0.812 -2.0732 -0.1189 -2.7281
  749SOL    HW2 2247   1.449   3.035   0.798 -4.0166 -1.7048  0.6284
  750SOL     OW 2248   2.288   0.197   1.850  0.1317 -0.0118  1.0929
  750SOL    HW1 2249   2.309   0.243   1.755 -0.4198  1.0582 -3.0609
  750SOL    HW2 2250   2.295   0.265   1.927  0.5487  1.8246  2.5397
  751SOL     OW 2251   0.785   2.130   2.883  0.6382 -0.2431 -0.8623
  751SOL    HW1 2252   0.870   2.090   2.929 -1.0254  0.8205 -3.2630
  751SOL    HW2 2253   0.698   2.084   2.922  1.5988  1.5657  3.4520
  752SOL     OW 2254   1.320   0.827   1.283  0.0108 -0.1584 -0.1418
  752SOL    HW1 2255   1.379   0.913   1.288 -1.7863 -1.0807  3.4231
  752SOL    HW2 2256   1.372   0.743   1.319  0.1936 -0.7239 -0.4067
  753SOL     OW 2257   0.909   2.566   1.812  0.2618  0.5847  0.2672
  753SOL    HW1 2258   1.005   2.588   1.783  1.0764  0.1654  1.4189
  753SOL    HW2 2259   0.856   2.653   1.842  1.1901  1.6278  2.4463
  754SOL     OW 2260   1.120   1.234   3.045  0.9005  0.4625  0.2891
  754SOL    HW1 2261   1.189   1.161   3.027  0.1987  0.9849 -0.8241
  754SOL    HW2 2262   1.160   1.326   3.051  0.9545 -1.0908  0.8283
  755SOL     OW 2263   1.978   0.450   2.207  0.1333  0.2126  0.0935
  755SOL    HW1 2264   2.034   0.366   2.225 -1.4434  3.6758 -1.0822
  755SOL    HW2 2265   1.895   0.450   2.272 -3.0555 -1.6955 -0.4273
  756SOL     OW 2266   2.571   1.003   2.993  0.8677  0.7040 -0.1661
  756SOL    HW1 2267   2.673   0.977   2.994 -2.3823 -1.4584 -0.3025
  756SOL    HW2 2268   2.513   0.915   3.007  1.4205 -0.9090  0.1709
  757SOL     OW 2269   0.109   0.487   1.977 -0.1157  0.5866 -0.3096
  757SOL    HW1 2270   0.168   0.415   1.929  3.0996 -1.4112 -1.9315
  757SOL    HW2 2271   0.024   0.456   2.024  3.6482 -0.4819 -1.7336
  758SOL     OW 2272   2.222   0.094   1.488  0.2258 -0.0895 -0.1670
  758SOL    HW1 2273   2.171   0.005   1.516  1.9632 -2.2485  0.4933
  758SOL    HW2 2274   2.279   0.087   1.404  1.4472 -0.0829  1.9287
  759SOL     OW 2275   1.702   0.077   0.065 -0.1408  0.5346 -0.0983
  759SOL    HW1 2276   1.659   0.065  -0.032  1.3626  0.2769  0.8198
  759SOL    HW2 2277   1.804   0.052   0.074 -0.4702  1.4835  0.7532
  760SOL     OW 2278   2.597   2.047   2.825 -1.0412  0.8459  0.2408
  760SOL    HW1 2279   2.653   1.989   2.887 -0.4107  2.2318  0.8712
  760SOL    HW2 2280   2.600   2.145   2.860  0.2153  0.5030 -0.0975
  761SOL     OW 2281   1.920   1.795   1.773 -0.3515  0.1429 -0.3492
  761SOL    HW1 2282   1.954   1.704   1.808  2.2823  1.7013 -1.0918
  761SOL    HW2 2283   1.876   1.777   1.676 -0.8314 -2.1787 -0.4205
  762SOL     OW 2284   0.485   2.361   0.954  0.3658 -0.0374 -0.3397
  762SOL    HW1 2285   0.522   2.370   0.862 -0.3091  1.8943 -0.1072
  762SOL    HW2 2286   0.546   2.405   1.024 -0.5611 -0.2589  0.8702
  763SOL     OW 2287   2.086   1.552   2.971  0.5476  0.5448  0.3114
  763SOL    HW1 2288   2.184   1.511   2.963 -1.1919 -2.7210 -0.9804
  763SOL    HW2 2289   2.020   1.496   3.031  0.9033 -2.0617  2.5030
  764SOL     OW 2290   0.689   0.596   0.714  0.0748 -0.7021  0.1098
  764SOL    HW1 2291   0.598   0.540   0.704 -0.3342  2.0199 -0.3425
  764SOL    HW2 2292   0.738   0.575   0.802 -0.7946 -0.8653 -1.4227
  765SOL     OW 2293   0.798   0.268   0.766 -0.3627 -0.1265  0.6979
  765SOL    HW1 2294   0.816   0.295   0.665 -1.2477  1.7655 -1.3290
  765SOL    HW2 2295   0.803   0.347   0.819 -1.0371 -4.5830 -1.1655
  766SOL     OW 2296   2.906   2.151   3.014 -0.6485 -0.0423 -0.3548
  766SOL    HW1 2297   2.811   2.128   3.056  0.6440 -2.2485 -0.4653
  766SOL    HW2 2298   2.955   2.231   3.064  0.2646  0.8718  2.6184
  767SOL     OW 2299   2.805   1.660   0.586  0.1692  0.0278 -0.7038
  767SOL    HW1 2300   2.711   1.672   0.625  1.1730  0.9253  1.0597
  767SOL    HW2 2301   2.878   1.707   0.649  0.5320 -2.6224  1.6756
  768SOL     OW 2302   1.041   0.146   0.244 -0.7268  0.3229 -0.1126
  768SOL    HW1 2303   1.007   0.188   0.336 -0.4967 -2.6848  0.1724
  768SOL    HW2 2304   1.145   0.140   0.231 -1.4935  0.2306  1.0517
  769SOL     OW 2305   1.129   1.838   2.320  0.0055  0.2832  0.1597
  769SOL    HW1 2306   1.032   1.856   2.340  0.1899  1.7125  0.1653
  769SOL    HW2 2307   1.183   1.822   2.409 -1.6785  0.7284 -0.3981
  770SOL     OW 2308   0.161   1.125   2.306  0.1235  0.0992  0.2706
  770SOL    HW1 2309   0.152   1.168   2.396 -1.2732  0.7220 -1.5950
  770SOL    HW2 2310   0.073   1.132   2.253  0.7081 -0.3093 -1.3358
  771SOL     OW 2311   3.061   2.821   1.935  0.2480 -0.2444 -0.2185
  771SOL    HW1 2312   3.010   2.884   1.868 -4.9186  1.1567  0.2553
  771SOL    HW2 2313   3.024   2.830   2.035 -2.7054  0.1644  0.6740
  772SOL     OW 2314   2.313   0.215   2.841 -0.0175 -0.0041  0.0968
  772SOL    HW1 2315   2.370   0.134   2.805 -1.4418 -0.8614  0.8124
  772SOL    HW2 2316   2.315   0.233   2.946 -0.1995  0.3083  2.3212
  773SOL     OW 2317   0.602   2.114   2.389  0.0291  0.1385 -0.3288
  773SOL    HW1 2318   0.602   2.178   2.309 -2.1617  0.3184  0.4734
  773SOL    HW2 2319   0.523   2.118   2.457  1.8429  2.8431  0.0971
  774SOL     OW 2320   2.117   0.005   2.601  0.2319 -0.2907  0.2766
  774SOL    HW1 2321   2.105   0.099   2.641  0.0001 -1.9370 -2.5352
  774SOL    HW2 2322   2.187  -0.048   2.654  0.2056  0.7210  0.9394
  775SOL     OW 2323   2.571   2.971   2.224 -0.4984  0.2560  0.0049
  775SOL    HW1 2324   2.499   3.046   2.204  1.3827  1.7078 -0.2660
  775SOL    HW2 2325   2.652   3.002   2.276 -1.2076  0.5968 -0.4520
  776SOL     OW 2326   3.087   1.250   0.170 -0.0263  0.3692  0.3237
  776SOL    HW1 2327   3.040   1.222   0.082 -1.7686  0.1821  0.8724
  776SOL    HW2 2328   3.016   1.244   0.251 -1.5802  1.4511  0.9547
  777SOL     OW 2329   0.438   2.940   0.424 -0.2230  0.1720 -0.2340
  777SOL    HW1 2330   0.344   2.930   0.378  0.5320 -0.9313  0.7732
  777SOL    HW2 2331   0.514   2.899   0.368 -2.0542 -0.5461 -0.8833
  778SOL     OW 2332   1.338   1.952   0.176  0.3490  0.2744  0.2601
  778SOL    HW1 2333   1.292   1.984   0.259 -1.4204 -2.3809 -2.0244
  778SOL    HW2 2334   1.349   2.030   0.108 -0.1428 -0.8266 -0.8517
  779SOL     OW 2335   0.173   0.884   0.453  0.4298  0.4821 -0.0747
  779SOL    HW1 2336   0.130   0.797   0.419  2.9126  2.2176  2.0278
  779SOL    HW2 2337   0.121   0.926   0.536 -2.9312 -0.8588  2.7318
  780SOL     OW 2338   0.176   0.288   2.404 -0.2837  0.1832  0.4622
  780SOL    HW1 2339   0.143   0.366   2.464 -1.2281 -0.2181  1.6437
  780SOL    HW2 2340   0.263   0.316   2.353 -3.0918  1.5103  1.3800
  781SOL     OW 2341   0.700   1.657   1.494 -0.5982 -0.5319  0.4779
  781SOL    HW1 2342   0.748   1.608   1.572  0.0657  1.4488  0.9174
  781SOL    HW2 2343   0.598   1.671   1.517 -0.8282 -0.6236  0.7281
  782SOL     OW 2344   2.581   0.123   0.924  0.7100  0.4076 -0.4684
  782SOL    HW1 2345   2.529   0.173   0.849  1.8075 -2.1856  1.0004
  782SOL    HW2 2346   2.584   0.171   1.019 -0.6056  1.9938 -1.0280
  783SOL     OW 2347   2.758   0.675   2.463 -0.2404  0.0690 -0.4111
  783SOL    HW1 2348   2.783   0.709   2.552  0.6625 -1.2915  0.2863
  783SOL    HW2 2349   2.679   0.615   2.459  0.6188  0.9463  1.4341
  784SOL     OW 2350   1.403   2.184   0.066  0.2399 -0.3416  0.5155
  784SOL    HW1 2351   1.440   2.220   0.155  0.5333 -0.8900 -2.7125
  784SOL    HW2 2352   1.435   2.240  -0.015  1.7434  1.3241 -2.1488
  785SOL     OW 2353   2.039   0.320   3.074  0.4067 -0.4035  0.3729
  785SOL    HW1 2354   1.967   0.330   3.146 -2.0708  1.6961 -2.0827
  785SOL    HW2 2355   2.074   0.406   3.026 -1.2534  0.2715  1.9824
  786SOL     OW 2356   2.030   2.165   2.247 -0.1948  0.5789  0.0154
  786SOL    HW1 2357   1.975   2.080   2.278 -1.8898 -5.3631 -1.2662
  786SOL    HW2 2358   2.133   2.157   2.242 -1.6337 -0.0717 -0.4126
  787SOL     OW 2359   1.338   0.535   0.921 -0.5056  0.2739 -0.1538
  787SOL    HW1 2360   1.289   0.627   0.954  0.0981  4.9023  3.0037
  787SOL    HW2 2361   1.382   0.547   0.827 -2.7457 -0.2484 -0.5859
  788SOL     OW 2362   1.233   0.420   0.058  0.8388 -0.0806 -0.1005
  788SOL    HW1 2363   1.142   0.390   0.010 -1.2155 -0.8691  0.9961
  788SOL    HW2 2364   1.222   0.489   0.140 -0.6874 -1.0634  2.8966
  789SOL     OW 2365   2.549   0.068   1.951  0.3226 -0.3340 -1.3141
  789SOL    HW1 2366   2.492   0.053   1.870 -2.5843  0.9727  4.2625
  789SOL    HW2 2367   2.626  -0.008   1.961  2.4931  0.4772 -1.7425
  790SOL     OW 2368   2.650   2.754   0.776 -0.5532  0.1224  0.2059
  790SOL    HW1 2369   2.692   2.821   0.705  0.1278  1.7773  1.3279
  790SOL    HW2 2370   2.616   2.810   0.855 -0.0493  0.9182 -2.3005
  791SOL     OW 2371   1.937   1.204   0.283  0.1986 -0.2842 -0.3338
  791SOL    HW1 2372   1.851   1.150   0.317  1.1154  0.1365 -2.8078
  791SOL    HW2 2373   2.029   1.153   0.301 -1.3572 -2.6551  0.1264
  792SOL     OW 2374   0.362   1.747   2.128  0.3233  0.4425  0.2215
  792SOL    HW1 2375   0.449   1.734   2.181 -1.6824 -0.9770  0.7345
  792SOL    HW2 2376   0.281   1.772   2.184  0.3184 -2.8252 -0.1507
  793SOL     OW 2377   2.099   1.543   2.092  0.2836 -0.4726 -0.1394
  793SOL    HW1 2378   2.182   1.595   2.055  1.0348  0.4506 -2.5298
  793SOL    HW2 2379   2.078   1.451   2.047 -2.9426  0.2028 -0.0296
  794SOL     OW 2380   0.570   1.456   2.345  0.3739  0.0788  0.2161
  794SOL    HW1 2381   0.539   1.421   2.252 -3.4753  1.5828 -0.5694
  794SOL    HW2 2382   0.492   1.478   2.413 -1.2764  2.5676 -0.3280
  795SOL     OW 2383   2.539   2.262   1.831 -0.0249 -0.0707 -0.1829
  795SOL    HW1 2384   2.522   2.263   1.930 -1.5363 -0.6675 -1.1537
  795SOL    HW2 2385   2.464   2.215   1.780  1.4494 -2.6603 -1.5594
  796SOL     OW 2386   3.090   1.108   2.692 -0.2395  0.0407  0.5167
  796SOL    HW1 2387   2.985   1.108   2.702  1.7308 -1.7673 -1.4661
  796SOL    HW2 2388   3.149   1.106   2.778 -3.4831 -1.2239  1.2388
  797SOL     OW 2389   0.778   0.673   1.411 -0.2293  0.0836 -0.0988
  797SOL    HW1 2390   0.854   0.737   1.445  0.5893  1.4808 -0.9782
  797SOL    HW2 2391   0.704   0.729   1.361 -1.1825  0.2056 -2.0140
  798SOL     OW 2392   1.337   0.381   1.155  0.5458 -0.4308 -0.0082
  798SOL    HW1 2393   1.407   0.405   1.225 -0.8829 -0.3616 -0.8478
  798SOL    HW2 2394   1.356   0.438   1.064  0.6886  2.6979 -3.3063
  799SOL     OW 2395   1.982   2.719   0.983 -0.6637  0.2714  0.5727
  799SOL    HW1 2396   1.898   2.699   1.034  2.1687  0.4136 -2.0214
  799SOL    HW2 2397   1.975   2.689   0.885  1.2932  0.3580  1.4578
  800SOL     OW 2398   3.054   0.611   1.810  0.5307 -0.5015 -0.2231
  800SOL    HW1 2399   2.984   0.657   1.869 -1.8572 -0.7903 -2.2448
  800SOL    HW2 2400   3.119   0.545   1.856 -2.0522 -3.1276  1.5034
  801SOL     OW 2401   1.958   2.251   0.084  0.2865  0.2896  0.1140
  801SOL    HW1 2402   1.865   2.201   0.078 -0.2808  0.5084  2.8009
  801SOL    HW2 2403   2.037   2.181   0.087 -1.9442 -1.9426  0.4481
  802SOL     OW 2404   0.717   0.814   2.560 -0.4090  0.2217  0.1236
  802SOL    HW1 2405   0.776   0.829   2.472 -0.0922 -0.8985  1.1214
  802SOL    HW2 2406   0.641   0.747   2.550 -0.5363 -2.1922 -0.8323
  803SOL     OW 2407   0.953   0.085   0.888  0.1345 -0.8504 -0.0898
  803SOL    HW1 2408   1.027   0.143   0.931  1.5694 -1.1159  1.5433
  803SOL    HW2 2409   0.885   0.150   0.836 -1.5350  0.0048 -1.0154
  804SOL     OW 2410   0.279   0.037   2.172 -0.6209 -0.1656  0.3309
  804SOL    HW1 2411   0.288   0.142   2.181 -0.0657 -0.2283  1.1110
  804SOL    HW2 2412   0.214   0.006   2.094  1.3382 -1.5548 -1.0764
  805SOL     OW 2413   2.454   0.251   0.298 -0.0036 -0.0799  0.5106
  805SOL    HW1 2414   2.552   0.288   0.293 -2.3637 -0.1737  2.9536
  805SOL    HW2 2415   2.406   0.238   0.206  1.2361  1.2345  2.9674
  806SOL     OW 2416   0.655   2.405   1.673 -0.1147 -0.3965 -0.4251
  806SOL    HW1 2417   0.650   2.510   1.684  0.1642 -1.1282  2.8507
  806SOL    HW2 2418   0.751   2.361   1.671 -0.9858 -0.6649 -0.9244
  807SOL     OW 2419   2.378   0.960   0.456  0.4021 -0.4686 -0.3831
  807SOL    HW1 2420   2.441   0.940   0.537  0.5489  1.5974  0.7861
  807SOL    HW2 2421   2.428   0.941   0.368 -2.1576 -2.1925  2.7756
  808SOL     OW 2422   0.537   2.016   2.987 -0.6556  0.1958 -0.5981
  808SOL    HW1 2423   0.548   2.047   3.087  3.6721  0.3302  1.7774
  808SOL    HW2 2424   0.565   1.916   2.972 -1.0040 -0.3842 -0.3827
  809SOL     OW 2425   2.605   1.980   1.938  0.6054 -0.0918 -0.7511
  809SOL    HW1 2426   2.700   2.002   1.974  1.9425  2.3189  0.2786
  809SOL    HW2 2427   2.598   2.007   1.835 -1.2193  0.3380 -1.2975
  810SOL     OW 2428   2.102   1.043   0.568  0.1742 -0.0449 -0.6675
  810SOL    HW1 2429   2.079   0.995   0.656  2.0040  0.4700  0.1512
  810SOL    HW2 2430   2.089   1.141   0.574  0.9582 -3.4607  0.8153
  811SOL     OW 2431   1.352   2.458   1.321  0.0012 -0.1493 -0.1893
  811SOL    HW1 2432   1.336   2.354   1.322  0.3457  0.6638  0.0632
  811SOL    HW2 2433   1.287   2.509   1.263  2.3706  0.9965 -0.8406
  812SOL     OW 2434   1.473   0.811   1.956 -0.2209  0.6912  0.1333
  812SOL    HW1 2435   1.504   0.877   2.031  1.8102  1.1099  0.0959
  812SOL    HW2 2436   1.377   0.833   1.923 -0.4153 -2.2422 -2.2118
  813SOL     OW 2437   1.731   2.148   2.456  0.3017 -0.7513  0.3937
  813SOL    HW1 2438   1.818   2.097   2.461 -0.2540 -1.1091  1.5825
  813SOL    HW2 2439   1.677   2.119   2.372  0.2788  2.0655  2.8505
  814SOL     OW 2440   2.863   1.559   2.856  0.1079  0.4181 -0.6211
  814SOL    HW1 2441   2.954   1.540   2.894 -0.7860 -2.2545 -2.5212
  814SOL    HW2 2442   2.854   1.656   2.825  0.7534  1.3816  1.7154
  815SOL     OW 2443   2.257   2.831   2.726 -0.3825 -0.3583  0.5784
  815SOL    HW1 2444   2.245   2.763   2.801 -3.3545  0.6709 -3.1207
  815SOL    HW2 2445   2.345   2.823   2.681 -0.3605  2.8363  2.5310
  816SOL     OW 2446   1.665   0.295   1.577 -0.3722  0.0916  0.1754
  816SOL    HW1 2447   1.695   0.210   1.630 -0.0299  2.6059 -1.6153
  816SOL    HW2 2448   1.585   0.343   1.627 -1.2223  0.0568 -0.0803
  817SOL     OW 2449   0.439   1.249   2.509 -0.2973 -0.5191  0.6168
  817SOL    HW1 2450   0.354   1.302   2.526 -1.5177 -2.3589 -0.8713
  817SOL    HW2 2451   0.496   1.294   2.433  1.4704 -0.5512 -1.2763
  818SOL     OW 2452   1.958   0.829   0.470  0.0446  0.0112  0.6529
  818SOL    HW1 2453   2.017   0.911   0.483 -0.6806 -3.2721  2.2986
  818SOL    HW2 2454   1.899   0.816   0.556 -2.3975 -1.2654 -0.9356
  819SOL     OW 2455   2.790   2.897   3.016 -0.2224  0.4871 -0.1714
  819SOL    HW1 2456   2.858   2.844   2.960 -1.8619 -0.1259 -0.0136
  819SOL    HW2 2457   2.700   2.902   2.967  1.2939  1.6457  0.8905
  820SOL     OW 2458   1.238   1.112   0.552 -0.4483  0.2680  0.7830
  820SOL    HW1 2459   1.255   1.211   0.565  1.3178 -2.1171  1.1510
  820SOL    HW2 2460   1.199   1.063   0.629  0.1838 -0.8356  1.8592
  821SOL     OW 2461   0.025   1.270   0.666  0.3783 -0.2392  0.1175
  821SOL    HW1 2462  -0.024   1.255   0.756 -1.0112  0.4160 -0.3219
  821SOL    HW2 2463   0.067   1.363   0.663  1.4572  1.6063  1.0323
  822SOL     OW 2464   2.534   1.751   2.411  0.0283 -0.3132  0.0040
  822SOL    HW1 2465   2.539   1.834   2.472  1.1650  2.4415 -1.7275
  822SOL    HW2 2466   2.457   1.760   2.341  1.1212  0.1384  0.6223
  823SOL     OW 2467   2.022   0.838   1.221 -0.3702 -0.9546  0.2755
  823SOL    HW1 2468   2.013   0.883   1.312  0.6135 -0.6447 -0.9011
  823SOL    HW2 2469   1.943   0.858   1.157  0.9328  0.3039 -0.8303
  824SOL     OW 2470   0.127   2.042   2.796  0.5866  0.5021 -0.4935
  824SOL    HW1 2471   0.078   1.964   2.833  1.9667  1.4068 -1.7267
  824SOL    HW2 2472   0.192   2.018   2.720 -1.8068  0.0639  1.6908
  825SOL     OW 2473   1.286   1.096   0.235 -0.0766  0.3778 -0.0436
  825SOL    HW1 2474   1.285   1.198   0.249 -2.4351 -0.4825 -1.0399
  825SOL    HW2 2475   1.206   1.041   0.263  2.4831  2.2883  1.8891
  826SOL     OW 2476   1.937   0.637   1.596 -0.0166  0.2967 -0.2322
  826SOL    HW1 2477   2.006   0.562   1.624 -2.4200 -0.5627  1.0197
  826SOL    HW2 2478   1.863   0.599   1.529  1.6907 -1.6483 -0.3085
  827SOL     OW 2479   0.715   1.406   0.287 -0.8709 -0.0039  0.2313
  827SOL    HW1 2480   0.694   1.332   0.218 -0.5215 -1.4617 -0.3832
  827SOL    HW2 2481   0.724   1.377   0.387  2.3596 -0.0819  0.7415
  828SOL     OW 2482   2.487   0.095   1.607 -0.7797  0.0709  0.5481
  828SOL    HW1 2483   2.386   0.110   1.576  0.6941  2.3399  2.8496
  828SOL    HW2 2484   2.498  -0.012   1.629 -2.8079 -1.6057  0.3283
  829SOL     OW 2485   2.805   2.490   2.958 -0.4430 -0.5031 -0.2677
  829SOL    HW1 2486   2.734   2.416   2.938  2.3239 -0.6322 -0.7811
  829SOL    HW2 2487   2.782   2.533   3.048  1.4024 -1.7429 -2.3937
  830SOL     OW 2488   2.815   0.905   3.039  0.2892 -0.8456  0.4858
  830SOL    HW1 2489   2.900   0.964   3.024 -0.7122 -2.4587 -1.5324
  830SOL    HW2 2490   2.830   0.818   3.090 -0.7052  0.9902  1.4056
  831SOL     OW 2491   0.020   0.643   0.378  0.2571  0.4757 -0.3341
  831SOL    HW1 2492   0.060   0.592   0.455 -0.1529 -1.0983 -1.1658
  831SOL    HW2 2493  -0.001   0.577   0.306  1.1296  1.3938  2.4833
  832SOL     OW 2494   1.825   0.732   0.008 -0.3782  0.1589  0.0091
  832SOL    HW1 2495   1.728   0.751  -0.013  1.0495 -2.1379 -1.4997
  832SOL    HW2 2496   1.849   0.633  -0.005  0.6003  0.6093 -0.6309
  833SOL     OW 2497   2.429   2.104   0.529 -0.0485 -0.0863 -0.1460
  833SOL    HW1 2498   2.332   2.079   0.518  0.2326  2.3717  2.3536
  833SOL    HW2 2499   2.498   2.027   0.510 -1.4377  2.2380 -0.6461
  834SOL     OW 2500   0.173   0.195   0.557  0.0570  0.2509 -0.8130
  834SOL    HW1 2501   0.220   0.110   0.604  1.6977 -2.9878  1.9303
  834SOL    HW2 2502   0.148   0.186   0.452 -0.2220 -0.5246 -1.2274
  835SOL     OW 2503   2.368   1.535   1.160 -0.7158  0.2808 -0.0837
  835SOL    HW1 2504   2.459   1.573   1.199  0.8633  4.0425  0.0647
  835SOL    HW2 2505   2.354   1.573   1.062  0.4350  1.8713  1.2759
  836SOL     OW 2506   1.578   0.825   2.563 -0.0746  0.4082 -0.1971
  836SOL    HW1 2507   1.487   0.824   2.506 -1.2135 -1.2955 -1.8069
  836SOL    HW2 2508   1.662   0.845   2.504  0.1079  2.0388  0.7886
  837SOL     OW 2509   1.751   0.139   0.551  0.7691 -0.2780  0.2156
  837SOL    HW1 2510   1.684   0.212   0.589  0.9855 -1.1646  2.4201
  837SOL    HW2 2511   1.726   0.114   0.454 -2.7998  2.4993 -1.6168
  838SOL     OW 2512   1.154   1.559   2.738 -0.8715 -0.3746  0.6427
  838SOL    HW1 2513   1.157   1.545   2.839 -2.4830  2.3044 -0.7209
  838SOL    HW2 2514   1.090   1.486   2.697 -1.2639  1.6164 -0.2537
  839SOL     OW 2515   1.584   0.311   0.978 -0.1630 -0.2892  0.3374
  839SOL    HW1 2516   1.641   0.367   1.048  1.1746  0.8597 -0.7718
  839SOL    HW2 2517   1.566   0.218   1.021  1.7812  0.6333  0.9293
  840SOL     OW 2518   2.492   2.943   1.712 -0.3268  0.4741 -0.3232
  840SOL    HW1 2519   2.409   2.881   1.711 -3.5696 -0.7760  0.6244
  840SOL    HW2 2520   2.577   2.912   1.762 -1.1489  1.0545 -0.1375
  841SOL     OW 2521   1.574   0.820   3.045 -0.9472  0.3387 -0.8560
  841SOL    HW1 2522   1.504   0.838   3.122  0.1704  1.7549  2.4911
  841SOL    HW2 2523   1.552   0.872   2.951 -1.2072  0.7688  0.1932
  842SOL     OW 2524   0.806   1.485   0.912 -0.5953  0.4423  0.0760
  842SOL    HW1 2525   0.771   1.563   0.965  0.9445  0.4600  0.8402
  842SOL    HW2 2526   0.730   1.425   0.873  0.2198 -0.8659  1.1177
  843SOL     OW 2527   0.090   3.098   1.382 -0.0636 -0.3650 -0.0189
  843SOL    HW1 2528   0.161   3.159   1.434  1.0747  2.3711 -1.1029
  843SOL    HW2 2529   0.083   3.007   1.428 -2.2650 -0.5494 -0.9718
  844SOL     OW 2530   0.806   2.471   0.260 -0.1913 -0.1983 -0.2277
  844SOL    HW1 2531   0.731   2.462   0.332 -0.0543 -0.8979 -1.7254
  844SOL    HW2 2532   0.762   2.527   0.181 -0.9157 -2.5292 -0.6862
  845SOL     OW 2533   1.654   2.890   1.319  0.3056  0.2432  0.6129
  845SOL    HW1 2534   1.728   2.825   1.289  0.8930  0.4027  1.7629
  845SOL    HW2 2535   1.680   2.951   1.395 -0.9631 -0.4289 -2.8096
  846SOL     OW 2536   1.595   2.939   0.734 -0.0517 -0.1993  0.6953
  846SOL    HW1 2537   1.592   2.944   0.631  0.8831  0.2515 -0.4565
  846SOL    HW2 2538   1.684   2.900   0.771  2.2153  0.6756  0.3950
  847SOL     OW 2539   2.077   1.668   0.377  0.1115  0.2310 -0.7454
  847SOL    HW1 2540   2.020   1.578   0.402 -1.8465 -0.2571  3.9719
  847SOL    HW2 2541   2.012   1.735   0.346 -0.1173 -2.8200 -0.2433
  848SOL     OW 2542   2.449   0.856   2.613  0.1738 -0.1368  0.1779
  848SOL    HW1 2543   2.409   0.942   2.656 -1.9265 -1.1128 -0.0860
  848SOL    HW2 2544   2.384   0.777   2.616  1.0316 -1.7709  0.4408
  849SOL     OW 2545   2.550   0.861   2.375  0.1765  0.1203  0.3486
  849SOL    HW1 2546   2.640   0.814   2.389  2.0836  0.1143 -0.5856
  849SOL    HW2 2547   2.504   0.874   2.472 -1.8903  0.0862 -0.4638
  850SOL     OW 2548   1.563   0.091   1.339  0.0574  0.0619 -0.9770
  850SOL    HW1 2549   1.544   0.072   1.240 -1.3689 -0.6538 -1.6883
  850SOL    HW2 2550   1.518   0.018   1.398  0.7202 -1.5585 -1.8267
  851SOL     OW 2551   0.432   1.800   0.560 -0.1863 -0.1326  0.0424
  851SOL    HW1 2552   0.483   1.888   0.573  1.2274 -2.2250  0.4764
  851SOL    HW2 2553   0.446   1.750   0.469 -0.5315  3.0521 -0.6272
  852SOL     OW 2554   0.804   2.065   1.767 -0.0544  0.7816 -0.8726
  852SOL    HW1 2555   0.829   2.148   1.710 -0.5185  1.1511  0.0715
  852SOL    HW2 2556   0.751   2.082   1.856  0.0286  0.0220 -3.7105
  853SOL     OW 2557   2.503   1.544   2.602  0.0228 -0.2809 -0.0173
  853SOL    HW1 2558   2.462   1.457   2.572 -0.5953  1.4693  2.7884
  853SOL    HW2 2559   2.511   1.614   2.531  0.8951  0.9318 -0.0424
  854SOL     OW 2560   2.400   1.363   1.720 -0.3367 -0.2514 -0.7869
  854SOL    HW1 2561   2.480   1.350   1.656 -0.8706  1.9194  0.3157
  854SOL    HW2 2562   2.391   1.287   1.789  1.4607  0.2025  0.9844
  855SOL     OW 2563   2.085   2.463   1.055 -0.2459 -0.2591  0.8475
  855SOL    HW1 2564   2.058   2.565   1.037  0.7563 -0.2240 -0.5088
  855SOL    HW2 2565   2.162   2.452   1.122  0.4704 -2.4522 -0.7433
  856SOL     OW 2566   1.347   1.402   0.942  0.3733  0.0231  0.1433
  856SOL    HW1 2567   1.408   1.482   0.966 -0.4798 -1.5990 -0.2116
  856SOL    HW2 2568   1.248   1.420   0.968  2.8381  1.0501 -1.2113
  857SOL     OW 2569   3.052   2.740   0.981 -0.2632 -0.3691  0.0740
  857SOL    HW1 2570   3.021   2.638   0.977 -1.9487 -2.5869  0.1186
  857SOL    HW2 2571   3.134   2.764   0.926 -2.8986 -0.0437 -0.7179
  858SOL     OW 2572   2.342   2.095   1.708 -0.6278  0.2548 -0.1036
  858SOL    HW1 2573   2.257   2.093   1.647  0.0760  0.2905  1.4441
  858SOL    HW2 2574   2.410   2.027   1.670  3.7430  0.9590  0.8021
  859SOL     OW 2575   2.447   0.582   1.096  1.2062  0.1463 -0.0105
  859SOL    HW1 2576   2.481   0.606   0.997 -4.3208 -0.1874 -0.8207
  859SOL    HW2 2577   2.478   0.487   1.125  1.6992 -0.5082 -0.3935
  860SOL     OW 2578   1.850   2.798   0.502  0.3734  0.2544 -0.3493
  860SOL    HW1 2579   1.836   2.802   0.402  1.5825 -0.2756  0.4341
  860SOL    HW2 2580   1.849   2.892   0.541  1.5192 -3.8555 -3.2046
  861SOL     OW 2581   1.001   2.434   2.881  0.1745 -0.4779  0.0224
  861SOL    HW1 2582   1.060   2.504   2.828  1.4719 -1.2868  0.8212
  861SOL    HW2 2583   0.977   2.454   2.981  1.2410 -0.7683  0.8829
  862SOL     OW 2584   2.924   2.558   1.596 -0.1337  0.2058 -0.1113
  862SOL    HW1 2585   3.013   2.586   1.640  0.7252 -0.2214 -1.5713
  862SOL    HW2 2586   2.868   2.638   1.559 -2.9757 -0.3309 -4.0983
  863SOL     OW 2587   1.804   2.735   0.226 -0.0707 -0.2196 -0.2855
  863SOL    HW1 2588   1.868   2.656   0.250  1.3196 -2.3978 -1.1017
  863SOL    HW2 2589   1.711   2.709   0.185  0.1421  0.4496 -2.7451
  864SOL     OW 2590   2.019   1.217   2.843 -0.4686 -0.3839 -0.4722
  864SOL    HW1 2591   1.996   1.143   2.779 -3.2822  4.0439  0.8130
  864SOL    HW2 2592   2.062   1.299   2.794  1.3198 -3.3948  0.5478
  865SOL     OW 2593   2.157   1.933   0.732 -0.1253  0.0957 -0.7183
  865SOL    HW1 2594   2.218   1.887   0.805 -0.4236  0.0847 -0.8878
  865SOL    HW2 2595   2.076   1.986   0.776  0.1075 -0.5172  1.4523
  866SOL     OW 2596   2.871   2.951   1.009 -0.5103 -0.0552 -0.5064
  866SOL    HW1 2597   2.851   3.020   0.936 -0.3037 -1.7662  4.0773
  866SOL    HW2 2598   2.937   2.870   0.987  0.9726 -0.4601  1.7181
  867SOL     OW 2599   0.356   1.445   0.934 -0.3715 -0.2554 -0.4104
  867SOL    HW1 2600   0.317   1.360   0.886  0.8227 -1.1106  0.9712
  867SOL    HW2 2601   0.327   1.533   0.899  0.1881 -4.2608  0.8976
  868SOL     OW 2602   0.765   1.863   2.109 -0.1366  0.8428 -0.0218
  868SOL    HW1 2603   0.706   1.816   2.174  3.0635  2.2565 -2.6536
  868SOL    HW2 2604   0.715   1.939   2.062 -0.5480  0.6317  1.8933
  869SOL     OW 2605   2.575   1.950   1.624 -0.0334  0.2279 -0.1646
  869SOL    HW1 2606   2.669   1.983   1.608 -3.1396  0.4932  4.1792
  869SOL    HW2 2607   2.563   1.851   1.586  0.3773  0.0671 -1.8026
  870SOL     OW 2608   2.288   2.700   1.222 -0.4106  0.0555  0.2528
  870SOL    HW1 2609   2.280   2.599   1.237  2.7069  2.1676 -0.9377
  870SOL    HW2 2610   2.352   2.746   1.294 -4.8818 -2.4396  1.6215
  871SOL     OW 2611   0.030   2.281   0.544  0.1335  0.6872 -0.4607
  871SOL    HW1 2612  -0.009   2.345   0.620 -0.6663 -0.2988 -2.7315
  871SOL    HW2 2613  -0.041   2.272   0.468 -0.5006 -0.8812  1.7020
  872SOL     OW 2614   2.113   0.442   1.673  0.7200  0.2367 -0.2700
  872SOL    HW1 2615   2.089   0.424   1.773  0.3267  1.1120 -0.4587
  872SOL    HW2 2616   2.209   0.418   1.652  0.4281 -0.4118 -1.0361
  873SOL     OW 2617   1.719   2.102   3.101  0.3048  0.0607 -0.3403
  873SOL    HW1 2618   1.619   2.082   3.113 -0.1418 -0.3972 -0.4150
  873SOL    HW2 2619   1.748   2.139   3.011  1.3818  3.1757  2.5032
  874SOL     OW 2620   0.677   2.457   0.752 -0.1180 -0.2575 -0.4017
  874SOL    HW1 2621   0.685   2.564   0.744  2.5965 -1.5778  0.8207
  874SOL    HW2 2622   0.770   2.420   0.772 -0.3677 -1.7682  1.4501
  875SOL     OW 2623   2.262   1.532   1.411  0.2381  0.7709 -0.3157
  875SOL    HW1 2624   2.319   1.588   1.480 -0.1661 -2.1915 -2.1714
  875SOL    HW2 2625   2.318   1.499   1.327 -0.8205  0.8817 -2.4120
  876SOL     OW 2626   0.074   2.283   2.658  0.2198  0.5937  0.4204
  876SOL    HW1 2627   0.075   2.194   2.719  0.1189 -3.2048  1.3624
  876SOL    HW2 2628   0.069   2.373   2.706 -0.5704 -0.4948 -1.5883
  877SOL     OW 2629   2.919   2.632   0.599 -0.3612  0.2037 -0.4444
  877SOL    HW1 2630   2.906   2.735   0.618 -0.1387  0.0454 -2.4193
  877SOL    HW2 2631   2.985   2.591   0.666  0.7641 -0.0727 -1.4087
  878SOL     OW 2632   2.815   1.490   2.255 -0.0755 -0.0826 -0.3678
  878SOL    HW1 2633   2.794   1.575   2.203 -0.0029 -0.3514 -1.0390
  878SOL    HW2 2634   2.815   1.503   2.359  2.1478 -0.3008 -0.6501
  879SOL     OW 2635   2.379   0.089   1.278  0.0610 -0.0003  0.7676
  879SOL    HW1 2636   2.426  -0.001   1.291 -2.1968  0.0805  2.8634
  879SOL    HW2 2637   2.312   0.085   1.200 -2.8779  0.8616  1.4073
  880SOL     OW 2638   0.744   0.516   2.246  0.4004 -0.3823  0.4886
  880SOL    HW1 2639   0.732   0.444   2.317  1.8156 -0.0829 -1.7125
  880SOL    HW2 2640   0.785   0.483   2.159 -1.9993 -1.1885  0.1677
  881SOL     OW 2641   0.845   0.084   0.418  0.1226 -0.2347  0.5738
  881SOL    HW1 2642   0.899   0.001   0.406  1.6817 -0.4021  0.8450
  881SOL    HW2 2643   0.744   0.074   0.407  1.5922  2.4623 -2.9691
  882SOL     OW 2644   2.706   1.666   1.689 -0.0699 -0.0233  0.0094
  882SOL    HW1 2645   2.791   1.621   1.645  2.2278  1.5010 -1.8706
  882SOL    HW2 2646   2.731   1.725   1.769 -1.9228 -0.7811 -2.1768
  883SOL     OW 2647   0.834   0.515   0.940  0.5310 -0.0507 -0.1778
  883SOL    HW1 2648   0.877   0.608   0.967  0.6676 -1.4331 -0.7514
  883SOL    HW2 2649   0.789   0.471   1.022  3.1901  1.1893  2.3613
  884SOL     OW 2650   1.097   1.748   1.171 -0.2026  0.0444  0.2183
  884SOL    HW1 2651   1.091   1.654   1.138  0.5070  1.3015  0.1054
  884SOL    HW2 2652   1.044   1.816   1.106 -1.1264  0.1248 -3.8261
  885SOL     OW 2653   2.326   1.820   2.242  0.3796 -0.2074  0.6223
  885SOL    HW1 2654   2.240   1.782   2.287 -1.6655  1.9385  1.6543
  885SOL    HW2 2655   2.314   1.920   2.234 -2.2574  0.4450  0.5961
  886SOL     OW 2656   2.600   0.345   1.798  0.2248 -0.1832  0.1494
  886SOL    HW1 2657   2.604   0.277   1.880  2.7328 -2.0812 -0.6821
  886SOL    HW2 2658   2.691   0.395   1.787  0.6170  0.5441  0.5844
  887SOL     OW 2659   0.145   2.064   1.287 -0.3488  0.1476  0.3387
  887SOL    HW1 2660   0.113   2.025   1.195  2.2565  0.3172 -0.1825
  887SOL    HW2 2661   0.168   2.168   1.282  0.8812 -0.2177 -0.2014
  888SOL     OW 2662   0.639   1.224   1.498 -0.2897  0.3826  0.3424
  888SOL    HW1 2663   0.635   1.263   1.401 -1.8983 -1.1827  3.0859
  888SOL    HW2 2664   0.620   1.120   1.500 -1.0452 -1.8821  1.6023
  889SOL     OW 2665   0.840   2.516   2.225 -0.5118  0.6839 -0.6004
  889SOL    HW1 2666   0.770   2.439   2.229  1.1595  1.2492  0.0990
  889SOL    HW2 2667   0.919   2.492   2.160 -0.5065 -0.5802  1.1143
  890SOL     OW 2668   2.353   2.506   0.252  0.3052  0.2064  0.3412
  890SOL    HW1 2669   2.403   2.575   0.189  1.4152  2.2959 -1.2101
  890SOL    HW2 2670   2.354   2.545   0.350 -0.4239  0.4808  1.2289
  891SOL     OW 2671   2.509   1.730   0.676 -0.2197  0.1597 -0.7550
  891SOL    HW1 2672   2.508   1.667   0.756  1.8692 -0.0144 -2.1619
  891SOL    HW2 2673   2.433   1.703   0.611 -1.7648 -0.6459 -0.4525
  892SOL     OW 2674   0.424   0.346   2.243  0.3773 -0.8593  0.8073
  892SOL    HW1 2675   0.431   0.411   2.164 -1.3671  1.2040 -0.1162
  892SOL    HW2 2676   0.498   0.361   2.317 -0.5258  0.6584  0.7363
  893SOL     OW 2677   1.690   0.212   2.725 -0.5781 -0.0967  0.4602
  893SOL    HW1 2678   1.755   0.287   2.756  0.2063 -1.2903  1.2821
  893SOL    HW2 2679   1.596   0.242   2.691 -2.6573  0.5883 -2.2462
  894SOL     OW 2680   2.167   2.077   0.074  0.3388 -0.2499  0.3312
  894SOL    HW1 2681   2.123   2.012   0.002  2.3462 -2.6627 -0.3093
  894SOL    HW2 2682   2.191   2.023   0.161 -2.2306 -1.2655  1.5546
  895SOL     OW 2683   2.782   1.445   0.917  0.3068 -0.3267 -0.6236
  895SOL    HW1 2684   2.868   1.389   0.921 -0.3230 -1.3687 -1.3869
  895SOL    HW2 2685   2.797   1.543   0.961  1.3832 -1.7242  1.6724
  896SOL     OW 2686   1.853   1.863   1.209  0.1122 -0.3748 -0.2876
  896SOL    HW1 2687   1.917   1.785   1.220 -1.6944 -0.4375 -2.2807
  896SOL    HW2 2688   1.782   1.838   1.137  0.5556  0.7347 -0.0029
  897SOL     OW 2689   0.295   0.553   3.047  0.2162  0.7082  0.3598
  897SOL    HW1 2690   0.228   0.615   2.990  0.8090  0.7826 -2.1022
  897SOL    HW2 2691   0.391   0.595   3.047  1.4915  1.4973 -0.7652
  898SOL     OW 2692   0.672   2.815   1.036 -0.5328  0.1742  0.3207
  898SOL    HW1 2693   0.707   2.914   1.028  2.1792 -0.8045 -1.8070
  898SOL    HW2 2694   0.712   2.779   1.126  0.0942  3.3389  0.0080
  899SOL     OW 2695   2.826   0.877   1.405 -0.4922 -0.3116 -0.4631
  899SOL    HW1 2696   2.823   0.863   1.300 -2.0502  1.9104 -0.0924
  899SOL    HW2 2697   2.892   0.952   1.435 -0.3911 -2.8505  0.1155
  900SOL     OW 2698   1.003   2.467   2.512 -0.1002  0.4870  0.2061
  900SOL    HW1 2699   0.944   2.469   2.433  2.1452 -1.9232  2.8338
  900SOL    HW2 2700   0.967   2.388   2.572 -0.4547 -0.7975  0.6329
  901SOL     OW 2701   1.920   2.434   1.380 -0.0130  0.0758 -0.1465
  901SOL    HW1 2702   1.900   2.376   1.296  0.9354 -0.9094  0.4224
  901SOL    HW2 2703   2.012   2.435   1.422  1.5829  0.2181 -1.2129
  902SOL     OW 2704   2.520   1.676   1.507  0.4533  0.0924  0.1027
  902SOL    HW1 2705   2.581   1.659   1.589  0.5590 -1.1447  1.0606
  902SOL    HW2 2706   2.552   1.616   1.428 -0.4613 -1.0993  0.7716
  903SOL     OW 2707   0.326   2.495   1.987 -0.3259 -0.8579  0.2064
  903SOL    HW1 2708   0.268   2.408   1.977 -0.7813 -0.0500 -1.0410
  903SOL    HW2 2709   0.327   2.562   1.908  2.5625  1.6288  1.2930
  904SOL     OW 2710   1.988   0.789   2.552  0.0376 -0.5053  0.5193
  904SOL    HW1 2711   1.924   0.714   2.595 -2.3174  0.1442  0.4620
  904SOL    HW2 2712   2.002   0.787   2.451  1.1522  0.3764  0.8407
  905SOL     OW 2713   2.864   0.084   2.409  0.0988  0.2832  0.9013
  905SOL    HW1 2714   2.901   0.020   2.481  1.6270 -0.1890  0.9607
  905SOL    HW2 2715   2.882   0.186   2.417  0.1539  2.6216  0.3193
  906SOL     OW 2716   0.150   1.681   1.887  0.2464 -0.7436 -0.0139
  906SOL    HW1 2717   0.109   1.723   1.801  0.5986  0.7251 -2.3777
  906SOL    HW2 2718   0.246   1.650   1.888  2.2985 -0.8128 -1.1716
  907SOL     OW 2719   0.201   2.445   0.968 -0.4546 -0.6137  0.2508
  907SOL    HW1 2720   0.304   2.433   0.964 -0.5388 -1.6985  1.5026
  907SOL    HW2 2721   0.171   2.545   0.953  1.7372  0.3619 -0.3999
  908SOL     OW 2722   2.834   3.055   0.274  0.0771  0.3007  0.3395
  908SOL    HW1 2723   2.740   3.034   0.234 -0.7556  0.7896  1.2331
  908SOL    HW2 2724   2.902   2.980   0.284  0.7169  1.0449 -0.7236
  909SOL     OW 2725   0.852   1.059   2.683 -0.3397  0.1501  0.0686
  909SOL    HW1 2726   0.802   0.966   2.661 -0.5431 -0.4678  1.3526
  909SOL    HW2 2727   0.922   1.080   2.608  0.0789  1.5768  0.2891
  910SOL     OW 2728   1.762   1.874   2.171  0.0918 -0.6421  0.1033
  910SOL    HW1 2729   1.820   1.913   2.094 -1.1824 -0.1239  1.8050
  910SOL    HW2 2730   1.673   1.924   2.185  2.9117  1.1146 -1.9398
  911SOL     OW 2731   1.794   2.975   1.548  0.0801  0.2402  0.0065
  911SOL    HW1 2732   1.876   2.954   1.481  1.1088 -0.2306 -2.2570
  911SOL    HW2 2733   1.789   2.914   1.631  1.1663 -0.1470 -0.0009
  912SOL     OW 2734   2.853   1.027   0.712 -0.1165  0.1410 -0.3633
  912SOL    HW1 2735   2.863   0.994   0.812  0.2566  0.0618 -0.8362
  912SOL    HW2 2736   2.793   1.108   0.707 -2.4402 -1.7148 -0.0416
  913SOL     OW 2737   2.563   1.254   1.515 -0.1452 -0.5269  0.3554
  913SOL    HW1 2738   2.560   1.150   1.506  2.0756 -3.0280 -2.7959
  913SOL    HW2 2739   2.626   1.293   1.440 -0.6610 -1.3454 -0.1690
  914SOL     OW 2740   2.768   0.619   1.130 -0.8919 -0.0384  0.8321
  914SOL    HW1 2741   2.770   0.523   1.163  3.2112  2.9468 -1.5950
  914SOL    HW2 2742   2.675   0.664   1.139 -0.2327  0.6778 -0.2700
  915SOL     OW 2743   1.217   0.761   1.004  0.5000 -0.3513  0.1015
  915SOL    HW1 2744   1.254   0.790   1.100  1.4019 -0.6068  3.0616
  915SOL    HW2 2745   1.118   0.772   0.996  0.2929 -3.4102  3.0444
  916SOL     OW 2746   0.562   0.101   0.654 -0.0979 -0.1677 -0.6060
  916SOL    HW1 2747   0.641   0.148   0.704  3.5350 -0.8498  0.1402
  916SOL    HW2 2748   0.537   0.163   0.575  0.9300 -3.9344 -2.3027
  917SOL     OW 2749   2.889   2.559   1.995  0.2553  0.4826 -0.2540
  917SOL    HW1 2750   2.798   2.615   1.983  1.2438  1.0091  1.3475
  917SOL    HW2 2751   2.963   2.582   1.925  1.9438 -0.9528 -2.2457
  918SOL     OW 2752   1.010   2.064   3.007  0.5555 -0.0679 -0.1267
  918SOL    HW1 2753   1.007   2.154   3.060  0.5805 -0.6168 -0.0207
  918SOL    HW2 2754   1.056   2.069   2.917 -0.5453 -1.4403  1.5693
  919SOL     OW 2755   0.856   1.708   2.779 -0.4383 -0.1783  0.5791
  919SOL    HW1 2756   0.887   1.803   2.748 -0.1716 -1.8591  1.7878
  919SOL    HW2 2757   0.826   1.654   2.695  1.7825  1.0722 -0.2104
  920SOL     OW 2758   1.274   1.763   2.541 -0.2799  0.4495  0.4884
  920SOL    HW1 2759   1.356   1.718   2.493 -0.5155 -2.4004  0.3649
  920SOL    HW2 2760   1.214   1.685   2.576 -0.0885  0.1596 -0.3347
  921SOL     OW 2761   1.115   0.007   2.649 -0.1211 -0.0310 -0.6643
  921SOL    HW1 2762   1.093  -0.004   2.549 -3.7610 -0.5078  2.1414
  921SOL    HW2 2763   1.030   0.026   2.709 -1.4357 -0.0482  3.8937
  922SOL     OW 2764   2.186   2.378   2.749 -0.3046  0.2853  0.6648
  922SOL    HW1 2765   2.170   2.277   2.743 -0.7627 -2.9915 -0.4258
  922SOL    HW2 2766   2.142   2.425   2.666  2.5479 -0.2786 -0.4304
  923SOL     OW 2767   1.270   2.701   0.270  0.0042 -0.1070  0.2321
  923SOL    HW1 2768   1.329   2.761   0.328 -0.6800 -0.2449 -0.7358
  923SOL    HW2 2769   1.301   2.605   0.268  0.7811  1.1927 -0.3213
  924SOL     OW 2770   2.887   1.664   0.144  0.7494 -0.3194  0.0473
  924SOL    HW1 2771   2.807   1.620   0.097 -2.7863  0.1996  2.9373
  924SOL    HW2 2772   2.972   1.603   0.140  0.8866 -1.5994 -3.0807
  925SOL     OW 2773   0.047   2.868   1.516 -0.1707 -0.0238 -0.0084
  925SOL    HW1 2774   0.000   2.865   1.606  0.2195 -0.0655 -0.8489
  925SOL    HW2 2775  -0.002   2.819   1.437  0.0853  1.2679 -1.9802
  926SOL     OW 2776   1.298   2.835   1.335 -0.0660 -0.2093  0.4177
  926SOL    HW1 2777   1.347   2.822   1.241 -0.4994 -2.5147 -2.7329
  926SOL    HW2 2778   1.324   2.919   1.396 -0.9333  1.3490  0.5595
  927SOL     OW 2779   0.343   2.636   1.761 -0.3087  0.0395 -0.7015
  927SOL    HW1 2780   0.302   2.553   1.716 -1.5366 -0.6546  1.5258
  927SOL    HW2 2781   0.297   2.720   1.729  0.2024 -1.3787 -2.5611
  928SOL     OW 2782   1.589   2.071   2.242 -0.5850  0.0273 -0.2107
  928SOL    HW1 2783   1.609   2.101   2.143 -0.6455  1.2221  0.2920
  928SOL    HW2 2784   1.490   2.061   2.265  1.9089  1.5725  2.8326
  929SOL     OW 2785   2.397   2.478   2.866  0.6251 -0.0292  0.4599
  929SOL    HW1 2786   2.298   2.461   2.841 -0.3109  0.9697 -0.3663
  929SOL    HW2 2787   2.459   2.498   2.783 -2.5780  1.1028  1.4958
  930SOL     OW 2788   2.153   1.967   1.107 -0.3786 -0.5324 -0.5048
  930SOL    HW1 2789   2.122   1.916   1.194  0.6415 -0.3838  0.7976
  930SOL    HW2 2790   2.223   2.040   1.123  2.1505  0.3784  0.9140
  931SOL     OW 2791   0.526   1.731   2.632  0.0729  0.4455 -0.1002
  931SOL    HW1 2792   0.528   1.774   2.727 -0.3241  1.9968 -1.3960
  931SOL    HW2 2793   0.608   1.663   2.622 -0.7333 -3.5675 -1.3125
  932SOL     OW 2794   0.357   0.095   3.094 -0.3268 -0.0164  0.2033
  932SOL    HW1 2795   0.442   0.135   3.134 -1.0330 -4.0265 -1.0318
  932SOL    HW2 2796   0.383   0.027   3.023 -0.1902 -0.0025  1.1227
  933SOL     OW 2797   0.950   0.840   3.005 -0.3091 -0.1163 -0.6790
  933SOL    HW1 2798   0.867   0.814   3.068  1.5739 -0.9315  2.2990
  933SOL    HW2 2799   0.975   0.939   3.012  1.2998 -0.2292 -1.9726
  934SOL     OW 2800   0.725   2.948   2.693  0.3228  0.7783  0.5260
  934SOL    HW1 2801   0.728   2.903   2.605  1.7411  1.5879 -0.1835
  934SOL    HW2 2802   0.801   2.908   2.754  2.6114  1.4826 -0.7754
  935SOL     OW 2803   0.021   0.537   0.817  0.6283  0.2644  0.8989
  935SOL    HW1 2804   0.034   0.490   0.724 -1.1059 -0.8598 -0.2202
  935SOL    HW2 2805  -0.050   0.610   0.812  1.8014 -2.9320 -0.4067
  936SOL     OW 2806   1.097   2.833   0.095 -0.6150 -0.1676 -0.0855
  936SOL    HW1 2807   1.141   2.873   0.010  3.1319 -1.4787  0.7868
  936SOL    HW2 2808   1.165   2.799   0.170  0.3804 -1.0781  1.7330
  937SOL     OW 2809   1.889   2.653   2.077 -0.0471  0.1974  0.2436
  937SOL    HW1 2810   1.785   2.665   2.070 -0.8135  0.3380 -0.2105
  937SOL    HW2 2811   1.941   2.737   2.050 -0.9011 -0.1644  0.7416
  938SOL     OW 2812   2.817   2.088   1.581 -0.0824  0.0753  0.0459
  938SOL    HW1 2813   2.793   2.190   1.583 -0.9564 -1.4708 -1.7712
  938SOL    HW2 2814   2.852   2.049   1.672 -2.0460  0.6455  0.3601
  939SOL     OW 2815   2.787   1.238   2.450 -0.2315  0.0207 -0.1211
  939SOL    HW1 2816   2.858   1.205   2.380  0.9730  0.1907 -2.6465
  939SOL    HW2 2817   2.782   1.181   2.536  1.7315  0.6591  0.0161
  940SOL     OW 2818   1.031   0.460   2.758  0.4737  0.6787  0.3454
  940SOL    HW1 2819   1.078   0.367   2.764 -2.4607 -0.8045 -1.7855
  940SOL    HW2 2820   0.980   0.466   2.670  1.0997 -0.4328 -1.4887
  941SOL     OW 2821   0.011   2.765   2.279  0.6112 -0.2603  0.5360
  941SOL    HW1 2822   0.091   2.705   2.245  0.6715 -2.3194 -0.0430
  941SOL    HW2 2823   0.041   2.845   2.344 -0.3194  1.1995  0.0766
  942SOL     OW 2824   0.090   0.093   2.558  0.3075  0.1514 -0.0963
  942SOL    HW1 2825   0.148   0.096   2.646  2.1892  0.7504 -1.3703
  942SOL    HW2 2826   0.109   0.177   2.499  1.9860  0.2810  1.9325
  943SOL     OW 2827   2.104   1.701   2.334 -0.3049 -0.4505  0.1795
  943SOL    HW1 2828   2.066   1.638   2.258  0.4595 -0.4887  3.0141
  943SOL    HW2 2829   2.088   1.658   2.429 -0.0805 -2.5334 -0.4958
  944SOL     OW 2830   2.172   2.382   1.474 -0.8133  0.3272 -0.5054
  944SOL    HW1 2831   2.263   2.393   1.517  0.0285 -0.9366  0.1160
  944SOL    HW2 2832   2.123   2.295   1.504  1.0620 -0.5551  0.6133
  945SOL     OW 2833   0.705   1.581   0.068  0.2164 -0.1683  0.1484
  945SOL    HW1 2834   0.655   1.532  -0.012 -2.4862  1.9737 -0.6091
  945SOL    HW2 2835   0.702   1.525   0.156  0.8942 -1.2562  0.0318
  946SOL     OW 2836   0.415   0.962   2.524  0.1390  0.1868 -0.2499
  946SOL    HW1 2837   0.329   0.924   2.482  1.3303 -1.1032  1.0831
  946SOL    HW2 2838   0.420   1.064   2.534 -0.5452 -2.5511  0.1157
  947SOL     OW 2839   1.473   0.511   3.080 -0.4336 -0.5390  0.1521
  947SOL    HW1 2840   1.461   0.583   3.005  0.3550 -1.7717 -1.0779
  947SOL    HW2 2841   1.379   0.465   3.111 -0.8094 -0.8996  3.9927
  948SOL     OW 2842   1.883   3.029   2.165 -0.7407 -0.0932  0.1555
  948SOL    HW1 2843   1.887   2.992   2.071 -0.4261  0.9313  0.5080
  948SOL    HW2 2844   1.857   2.958   2.238  2.6315 -0.8274  0.5258
  949SOL     OW 2845   0.600   2.454   0.469 -0.0471  0.2064  0.3739
  949SOL    HW1 2846   0.610   2.557   0.447  3.0700  0.7103 -1.4155
  949SOL    HW2 2847   0.597   2.431   0.570 -0.1522 -2.4537 -2.8517
  950SOL     OW 2848   0.175   2.248   2.977 -0.2134  0.2877  0.5188
  950SOL    HW1 2849   0.184   2.341   2.933  1.8016  1.5067 -1.6368
  950SOL    HW2 2850   0.161   2.171   2.907 -1.4175 -2.1008 -0.9959
  951SOL     OW 2851   1.159   2.640   2.788 -0.0969 -0.2568 -0.1672
  951SOL    HW1 2852   1.221   2.610   2.870  0.5994 -0.4405  1.3031
  951SOL    HW2 2853   1.216   2.659   2.705  1.2038 -0.9982  2.0146
  952SOL     OW 2854   0.060   1.653   0.407 -0.9293 -0.0811  0.6229
  952SOL    HW1 2855   0.105   1.749   0.398  1.3991  3.1818 -1.4755
  952SOL    HW2 2856   0.095   1.596   0.486 -2.0750 -1.8196 -3.1527
  953SOL     OW 2857   2.550   1.777   0.253  0.3602  0.1682  0.2091
  953SOL    HW1 2858   2.583   1.680   0.220  0.4888 -1.9441 -0.8405
  953SOL    HW2 2859   2.495   1.817   0.175  1.7090 -0.7928  0.1093
  954SOL     OW 2860   2.177   0.595   0.929 -0.0575  0.3894  0.4411
  954SOL    HW1 2861   2.185   0.578   0.827 -1.2694  0.0818 -0.3085
  954SOL    HW2 2862   2.260   0.619   0.981  0.5571  0.2807  1.4435
  955SOL     OW 2863   0.100   2.551   1.365  0.2192  0.3270  0.1837
  955SOL    HW1 2864   0.024   2.606   1.319 -1.5060 -1.8804  0.4653
  955SOL    HW2 2865   0.180   2.609   1.379  0.2454 -0.2243 -0.0262
  956SOL     OW 2866   2.797   2.472   2.511 -0.3908 -0.3269  0.3505
  956SOL    HW1 2867   2.780   2.371   2.511  1.8468  0.0051 -1.1737
  956SOL    HW2 2868   2.835   2.513   2.426  0.4145  1.0998  0.3539
  957SOL     OW 2869   1.565   2.076   2.734 -0.1127  0.4893  0.4540
  957SOL    HW1 2870   1.514   1.987   2.733 -1.1786  1.8108 -0.4134
  957SOL    HW2 2871   1.647   2.068   2.664  0.8646 -0.5028  1.2438
  958SOL     OW 2872   2.592   2.312   2.960  0.1850  0.2217  0.0607
  958SOL    HW1 2873   2.534   2.372   2.903  3.4532 -1.1976  0.3878
  958SOL    HW2 2874   2.541   2.274   3.042 -2.7643 -0.0462 -1.0982
  959SOL     OW 2875   0.314   2.793   0.096 -0.5036  0.5832 -0.0014
  959SOL    HW1 2876   0.280   2.813   0.190  1.7879 -0.8605 -1.6538
  959SOL    HW2 2877   0.292   2.698   0.062 -1.0772 -1.4278 -0.1894
  960SOL     OW 2878   1.978   0.429   1.943  0.5172  0.5839  0.3433
  960SOL    HW1 2879   1.933   0.519   1.912 -0.4456  0.1670 -0.0630
  960SOL    HW2 2880   1.982   0.421   2.046  2.3873 -0.2062  1.6059
  961SOL     OW 2881   2.563   1.881   1.057  0.8462  0.7665 -0.0970
  961SOL    HW1 2882   2.575   1.986   1.041 -0.1196  0.5496  1.7376
  961SOL    HW2 2883   2.527   1.860   1.153  0.7986  2.4145  0.0950
  962SOL     OW 2884   1.351   0.881   0.063 -0.0588  0.6051  0.5183
  962SOL    HW1 2885   1.317   0.894  -0.037 -0.7309  1.6081 -0.2233
  962SOL    HW2 2886   1.325   0.961   0.125  0.2439 -2.7713 -0.3907
  963SOL     OW 2887   2.300   2.548   1.815  0.1186 -0.4108  0.3582
  963SOL    HW1 2888   2.220   2.482   1.849 -3.8815 -0.1036  1.0020
  963SOL    HW2 2889   2.321   2.618   1.887  2.2694  2.5988 -3.1799
  964SOL     OW 2890   2.369   0.362   1.659  0.1677  0.3144 -0.2057
  964SOL    HW1 2891   2.461   0.371   1.707 -0.2566  2.1927 -1.0495
  964SOL    HW2 2892   2.380   0.376   1.553 -3.8210  1.9181 -3.6405
  965SOL     OW 2893   2.576   2.988   0.174  0.0328 -0.1215  0.5247
  965SOL    HW1 2894   2.598   2.921   0.099  1.1249  0.1821 -1.0439
  965SOL    HW2 2895   2.492   3.042   0.149 -2.0990 -1.2814  0.0768
  966SOL     OW 2896   2.522   2.546   2.200  0.1458  0.0526  0.4443
  966SOL    HW1 2897   2.573   2.629   2.172  0.2232  0.8991  1.2323
  966SOL    HW2 2898   2.440   2.524   2.145  0.5783  1.1642  2.3376
  967SOL     OW 2899   2.781   2.838   2.455  0.3555 -0.7944 -0.0197
  967SOL    HW1 2900   2.798   2.756   2.396  0.1960  1.6447 -3.9804
  967SOL    HW2 2901   2.867   2.869   2.505 -0.0253 -1.5392  2.5836
  968SOL     OW 2902   1.946   1.058   2.614  0.4721  0.3628  0.2542
  968SOL    HW1 2903   1.855   1.110   2.585 -0.7909 -1.1518 -0.4350
  968SOL    HW2 2904   1.951   0.959   2.588 -1.0240  0.5912  1.8456
  969SOL     OW 2905   2.745   2.461   1.080 -0.1998 -0.2046  0.7101
  969SOL    HW1 2906   2.701   2.421   0.997 -0.1953  1.8088  0.4999
  969SOL    HW2 2907   2.812   2.396   1.126  1.3005 -0.2989 -1.3042
  970SOL     OW 2908   1.088   2.111   1.842 -0.1647 -0.4133  0.1463
  970SOL    HW1 2909   0.994   2.129   1.811  2.7632  1.8309  0.5553
  970SOL    HW2 2910   1.099   2.113   1.946  2.0005 -0.6203  0.9521
  971SOL     OW 2911   2.898   2.062   2.010  0.2151  0.0482  0.5502
  971SOL    HW1 2912   2.899   2.161   2.045 -0.4394  2.4987  2.1560
  971SOL    HW2 2913   2.940   2.054   1.916  0.2300  0.2605 -1.6473
  972SOL     OW 2914   1.969   2.483   0.252  0.2600  0.3188 -0.3279
  972SOL    HW1 2915   2.000   2.423   0.175  0.8676 -0.7363 -0.4182
  972SOL    HW2 2916   1.983   2.429   0.344  1.1239 -1.9439 -0.9990
  973SOL     OW 2917   1.231   0.920   1.856  0.4428 -0.0493 -0.1296
  973SOL    HW1 2918   1.155   0.851   1.835 -0.7659  0.6503  0.5063
  973SOL    HW2 2919   1.191   1.017   1.843 -0.0911  2.8204  1.3999
  974SOL     OW 2920   1.631   0.580   1.912 -0.6507  0.4196 -0.3685
  974SOL    HW1 2921   1.731   0.599   1.897 -2.9114  1.2187 -0.8574
  974SOL    HW2 2922   1.579   0.668   1.925  1.1702 -3.2232 -0.9719
  975SOL     OW 2923   2.342   3.046   0.009  0.1507  0.2123  0.4935
  975SOL    HW1 2924   2.297   2.955   0.040 -0.0597 -0.4780  0.6523
  975SOL    HW2 2925   2.381   3.044  -0.089 -2.4993  1.7328 -0.7506
  976SOL     OW 2926   1.881   2.834   2.379 -0.4582  0.1988  0.1215
  976SOL    HW1 2927   1.821   2.750   2.366  0.3230  1.2167 -0.2101
  976SOL    HW2 2928   1.905   2.844   2.477 -0.3164 -1.0607 -1.6083
  977SOL     OW 2929   0.523   0.599   0.973  0.2133 -0.1615 -0.5720
  977SOL    HW1 2930   0.448   0.584   0.910  4.3154  1.4732  3.4775
  977SOL    HW2 2931   0.549   0.696   0.976 -1.2001 -1.7429  0.9754
   3.10000   3.10000   3.10000
