1000 SPC/Fw water molecules t=   0.14000 step= 140
 2931
    1SOL     OW    1   2.534   0.340   2.581  0.2125 -0.5701 -0.5118
    1SOL    HW1    2   2.535   0.244   2.538  0.4862 -1.8558 -0.0325
    1SOL    HW2    3   2.585   0.342   2.666 -0.9073 -0.9581 -1.8073
    2SOL     OW    4   2.725   3.009   1.424 -0.1397 -0.1591 -0.2095
    2SOL    HW1    5   2.813   3.051   1.389 -1.3835  1.5042  3.4263
    2SOL    HW2    6   2.658   3.081   1.463 -1.2614  1.7963  1.3200
    3SOL     OW    7   2.717   2.580   0.431  0.6313 -0.7939 -0.4633
    3SOL    HW1    8   2.706   2.485   0.392  3.6007  0.4249 -1.6690
    3SOL    HW2    9   2.766   2.590   0.523 -1.1789  1.5797  0.2294
    4SOL     OW   10   1.325   1.457   2.325  0.1253 -0.0209  0.1303
    4SOL    HW1   11   1.249   1.495   2.384  1.2906  1.4322 -0.6061
    4SOL    HW2   12   1.360   1.364   2.362  0.6958  0.9872  1.6457
    5SOL     OW   13   1.194   1.490   3.066 -0.3083  0.2500  0.2382
    5SOL    HW1   14   1.224   1.587   3.096 -1.6783 -0.7092 -0.6990
    5SOL    HW2   15   1.098   1.490   3.028  1.2733 -1.6565  0.1905
    6SOL     OW   16   0.125   1.871   2.945 -0.3683 -0.3163 -0.4065
    6SOL    HW1   17   0.117   1.953   3.010 -0.1230  1.5722  0.7049
    6SOL    HW2   18   0.085   1.779   2.986 -0.5228  0.8596  2.4523
    7SOL     OW   19   2.608   0.804   1.167 -0.0355  0.2490  0.2510
    7SOL    HW1   20   2.511   0.768   1.182 -0.2419 -0.3325 -2.6539
    7SOL    HW2   21   2.636   0.793   1.066 -1.6152 -0.8668 -3.2092
    8SOL     OW   22   0.461   0.686   1.546  0.0447  0.0833 -0.0649
    8SOL    HW1   23   0.519   0.602   1.580  1.2320  0.9579 -2.5710
    8SOL    HW2   24   0.414   0.657   1.459  2.9500 -1.2880 -0.0731
    9SOL     OW   25   1.174   0.912   2.271  0.3973  0.1912  0.1248
    9SOL    HW1   26   1.220   0.999   2.239  3.7357 -0.9579 -0.3779
    9SOL    HW2   27   1.094   0.880   2.203  1.6407  1.6335 -3.2921
   10SOL     OW   28   0.640   1.345   1.291  0.1589  0.0003 -0.9565
   10SOL    HW1   29   0.559   1.389   1.239  1.0808 -1.6258  0.5024
   10SOL    HW2   30   0.730   1.401   1.291  3.3441  0.4338 -0.8072
   11SOL     OW   31   2.293   2.567   0.924 -0.0156  0.0558  0.1319
   11SOL    HW1   32   2.320   2.622   1.008  1.9021  1.6211  0.2528
   11SOL    HW2   33   2.372   2.511   0.883 -0.8274  1.2827  1.4129
   12SOL     OW   34   1.439   0.899   0.479  0.7102  0.0511  0.1468
   12SOL    HW1   35   1.353   0.952   0.461  0.1369  0.5611 -0.7321
   12SOL    HW2   36   1.435   0.812   0.427  0.0061  1.7366 -1.7939
   13SOL     OW   37   2.470   0.659   1.796  0.2642 -0.1202  0.4459
   13SOL    HW1   38   2.383   0.645   1.850  0.1016  0.7685 -0.7728
   13SOL    HW2   39   2.460   0.627   1.700 -1.1110  0.8579  0.3151
   14SOL     OW   40   1.838   3.081   0.549  0.7433 -0.4344  0.4337
   14SOL    HW1   41   1.746   3.084   0.497  0.7816 -2.0953 -1.0888
   14SOL    HW2   42   1.821   3.095   0.653 -1.4025  0.0032  0.0378
   15SOL     OW   43   1.963   2.067   2.827  0.0852 -0.0519  0.2638
   15SOL    HW1   44   1.900   2.134   2.872  1.9318  0.2329 -0.8273
   15SOL    HW2   45   1.912   2.000   2.765 -3.2241 -0.4342  0.9602
   16SOL     OW   46   1.562   1.718   0.047  0.5049  0.2346  0.4832
   16SOL    HW1   47   1.602   1.637  -0.004 -1.7664  0.1467  2.1785
   16SOL    HW2   48   1.577   1.705   0.151 -0.8987 -0.5297  0.4202
   17SOL     OW   49   0.122   0.407   0.178  0.2448  0.0243  0.1067
   17SOL    HW1   50   0.213   0.453   0.160  0.5300  0.5963 -1.9644
   17SOL    HW2   51   0.084   0.386   0.085  1.0259 -1.7840 -1.8179
   18SOL     OW   52   1.103   2.881   2.148  0.2930 -0.4219 -0.1236
   18SOL    HW1   53   1.020   2.925   2.102 -1.1712  2.5123 -2.3914
   18SOL    HW2   54   1.168   2.840   2.080 -0.6063 -1.7522  0.6508
   19SOL     OW   55   0.543   1.003   1.951 -0.7529  0.2824 -0.3735
   19SOL    HW1   56   0.477   1.001   2.031 -0.5919 -0.9659 -2.7493
   19SOL    HW2   57   0.629   0.950   1.958 -0.7994  1.2575 -0.6772
   20SOL     OW   58   0.267   2.761   0.856 -0.0643  0.0410  0.2102
   20SOL    HW1   59   0.180   2.807   0.828  1.8026 -1.9377  2.0763
   20SOL    HW2   60   0.333   2.735   0.779 -1.0515 -1.9212  0.4447
   21SOL     OW   61   2.790   0.236   2.158 -0.6831  0.1264 -0.2321
   21SOL    HW1   62   2.839   0.182   2.083  1.2046  0.7952  2.6118
   21SOL    HW2   63   2.790   0.187   2.250  1.7153  3.0119 -1.3306
   22SOL     OW   64   2.377   0.211   0.042  0.5333 -0.0454 -0.9679
   22SOL    HW1   65   2.379   0.107   0.051 -1.6385 -1.9073 -0.0826
   22SOL    HW2   66   2.286   0.252   0.051 -0.6604  0.2970 -1.6788
   23SOL     OW   67   2.772   0.660   0.710  0.2318  0.1771  0.1405
   23SOL    HW1   68   2.765   0.563   0.667 -0.8788 -2.2745  0.8811
   23SOL    HW2   69   2.783   0.740   0.644 -0.3612  0.4362 -0.7734
   24SOL     OW   70   0.163   1.893   0.450 -0.0390 -0.0627  0.2746
   24SOL    HW1   71   0.060   1.905   0.422  0.0841  0.0723  4.0227
   24SOL    HW2   72   0.227   1.913   0.369  1.4513  0.4926  2.0586
   25SOL     OW   73   2.259   0.508   0.176 -0.0697  0.1696  0.3931
   25SOL    HW1   74   2.340   0.468   0.233 -0.5302  2.8817 -3.3671
   25SOL    HW2   75   2.276   0.516   0.069 -1.6633 -0.4492  1.2794
   26SOL     OW   76   2.565   2.188   2.083 -0.4167 -0.1097  0.0378
   26SOL    HW1   77   2.626   2.242   2.149  0.3666  0.3260  0.0221
   26SOL    HW2   78   2.596   2.094   2.060 -0.7810  1.1326  1.4204
   27SOL     OW   79   0.673   2.977   0.095 -0.1551 -0.1697 -0.4207
   27SOL    HW1   80   0.769   3.017   0.076  1.2467 -0.0148  2.1166
   27SOL    HW2   81   0.621   2.941   0.014 -0.4536 -2.9403 -0.3673
   28SOL     OW   82   1.474   0.227   0.194  0.5154 -0.0287  0.0417
   28SOL    HW1   83   1.549   0.201   0.119  3.0562 -2.0084  0.3302
   28SOL    HW2   84   1.509   0.298   0.259  0.2076 -0.6294  1.2453
   29SOL     OW   85   2.003   0.614   0.276 -0.1327 -0.0658 -0.8645
   29SOL    HW1   86   2.007   0.717   0.277  0.5161 -0.2479 -1.8367
   29SOL    HW2   87   2.092   0.575   0.244  0.4426 -0.7148  0.7864
   30SOL     OW   88   0.209   2.043   0.928 -0.1233 -0.1658  0.5822
   30SOL    HW1   89   0.164   2.048   0.830 -0.5732 -2.6016  2.0318
   30SOL    HW2   90   0.170   2.106   1.001 -1.7235 -3.8749 -0.4378
   31SOL     OW   91   2.039   0.038   2.331 -0.5916 -0.1394  0.2082
   31SOL    HW1   92   2.043   0.040   2.437 -0.5719  3.4229  0.0251
   31SOL    HW2   93   1.970  -0.025   2.285 -0.3825  1.2031 -0.9787
   32SOL     OW   94   2.975   0.105   0.235 -0.3961 -0.2667 -0.1098
   32SOL    HW1   95   2.963   0.050   0.320  2.2480  0.8947 -1.2591
   32SOL    HW2   96   3.067   0.078   0.190 -2.0033 -1.7957 -2.1342
   33SOL     OW   97   0.970   0.328   0.429  0.2865  0.0197 -0.3654
   33SOL    HW1   98   0.918   0.237   0.426 -0.3400  3.6192 -0.6907
   33SOL    HW2   99   1.046   0.319   0.504  2.1921 -0.2057  2.1264
   34SOL     OW  100   0.413   2.897   1.066 -0.0967  0.5616  0.0557
   34SOL    HW1  101   0.362   2.845   0.988  0.8785  2.2188 -1.2894
   34SOL    HW2  102   0.517   2.881   1.056  1.1401 -0.1641 -0.6980
   35SOL     OW  103   0.050   3.099   1.801  0.3221 -0.0576 -0.1034
   35SOL    HW1  104   0.097   3.013   1.823  1.9873 -2.1578 -1.1963
   35SOL    HW2  105  -0.008   3.095   1.718  1.1965  0.6949 -0.8110
   36SOL     OW  106   1.901   1.153   1.808 -0.3803 -0.0868  0.8188
   36SOL    HW1  107   1.972   1.109   1.751  2.1559  0.6587 -0.1335
   36SOL    HW2  108   1.923   1.255   1.816 -0.4650  2.5341  0.5688
   37SOL     OW  109   1.131   0.322   1.003  0.2950 -0.1195 -0.2307
   37SOL    HW1  110   1.153   0.422   1.005  0.6338  0.2215 -0.5894
   37SOL    HW2  111   1.189   0.272   1.072 -1.7998  2.0454 -0.4829
   38SOL     OW  112   1.149   2.702   2.397  0.0328 -0.5666  0.3297
   38SOL    HW1  113   1.088   2.635   2.443  0.2713  1.3352 -1.0099
   38SOL    HW2  114   1.097   2.771   2.331 -2.4581 -2.0511 -1.1110
   39SOL     OW  115   2.369   1.479   3.062 -0.8772 -0.4135 -0.0623
   39SOL    HW1  116   2.409   1.392   3.032 -0.9622  0.7890  0.4594
   39SOL    HW2  117   2.322   1.467   3.151  1.8130 -0.1780 -2.2365
   40SOL     OW  118   2.069   2.537   2.562  0.4778  0.3778 -0.4025
   40SOL    HW1  119   2.040   2.632   2.572  1.4101  0.9147 -3.1706
   40SOL    HW2  120   1.994   2.485   2.523 -0.0417  0.4184 -0.6558
   41SOL     OW  121   2.906   0.685   2.759 -0.4391 -0.6926 -0.0250
   41SOL    HW1  122   2.812   0.731   2.764  1.5345 -1.2949  1.9525
   41SOL    HW2  123   2.901   0.587   2.726  2.6648  2.6866 -2.5805
   42SOL     OW  124   1.724   1.750   0.583  0.7945 -0.2320 -0.0492
   42SOL    HW1  125   1.663   1.671   0.548  0.3863  1.3218 -0.9759
   42SOL    HW2  126   1.764   1.806   0.506  1.4198 -0.4918  0.9350
   43SOL     OW  127   0.461   1.735   1.213 -0.6178 -0.1835  0.0505
   43SOL    HW1  128   0.433   1.704   1.309  1.2667 -0.6746  0.1650
   43SOL    HW2  129   0.381   1.757   1.148 -1.4322  1.5952 -1.2154
   44SOL     OW  130   1.732   2.513   0.003 -0.7436  0.5336  0.0258
   44SOL    HW1  131   1.772   2.573  -0.075  3.6757 -0.3512 -0.5822
   44SOL    HW2  132   1.808   2.488   0.064  1.5019  0.5993 -2.3095
   45SOL     OW  133   0.389   1.889   2.507  0.1738  0.4750 -0.5700
   45SOL    HW1  134   0.298   1.896   2.459 -2.9934  0.3000 -0.1783
   45SOL    HW2  135   0.422   1.793   2.512 -0.2842  0.4189  0.7704
   46SOL     OW  136   1.155   0.655   0.182 -0.1513 -0.3804  0.0163
   46SOL    HW1  137   1.175   0.731   0.114 -0.3535  1.3587 -1.4690
   46SOL    HW2  138   1.058   0.663   0.222 -2.8170  1.9293 -2.7419
   47SOL     OW  139   0.250   2.451   1.608  0.1149  0.1825  0.0946
   47SOL    HW1  140   0.330   2.380   1.585  1.4726 -2.6106  0.6732
   47SOL    HW2  141   0.240   2.524   1.539  0.6237 -1.9720  2.0754
   48SOL     OW  142   2.614   0.565   0.118 -0.3952  0.2882  0.4338
   48SOL    HW1  143   2.567   0.593   0.208  3.4594 -0.9068  0.8671
   48SOL    HW2  144   2.705   0.617   0.091  2.5819  2.5816  1.5300
   49SOL     OW  145   0.368   0.826   1.763 -0.2850  0.2067 -0.1192
   49SOL    HW1  146   0.448   0.872   1.808 -0.2654  1.2927  0.2730
   49SOL    HW2  147   0.400   0.764   1.689  1.8707  1.1542 -0.1741
   50SOL     OW  148   1.762   1.068   0.330 -0.2205 -0.6244  0.7128
   50SOL    HW1  149   1.751   0.971   0.303 -0.3792  4.1561  0.6657
   50SOL    HW2  150   1.748   1.091   0.429  1.6079 -0.3932  0.9540
   51SOL     OW  151   3.013   1.887   0.374  0.1849  0.3045  0.3347
   51SOL    HW1  152   3.047   1.910   0.279  1.5030 -1.5407 -1.0439
   51SOL    HW2  153   2.989   1.787   0.382 -0.5621  0.0081  1.1635
   52SOL     OW  154   0.836   1.943   0.469 -0.2513  0.6302 -0.5564
   52SOL    HW1  155   0.760   2.000   0.507  2.6375  0.7775 -1.2128
   52SOL    HW2  156   0.864   1.869   0.535  0.8395 -0.5171  0.1911
   53SOL     OW  157   3.089   0.369   1.514  0.1997 -0.2044 -0.2691
   53SOL    HW1  158   3.083   0.361   1.617 -2.4048 -2.1789  0.2929
   53SOL    HW2  159   3.066   0.462   1.478 -0.5689 -3.6718  0.4166
   54SOL     OW  160   1.763   0.485   3.004 -0.2780 -0.2490  0.0006
   54SOL    HW1  161   1.801   0.448   3.094 -0.2157 -0.1674  1.0291
   54SOL    HW2  162   1.662   0.502   3.000 -2.9724  1.8290  1.8870
   55SOL     OW  163   0.714   2.932   0.650  0.0346  0.2396 -0.5849
   55SOL    HW1  164   0.669   3.025   0.683 -0.0674 -1.8341 -0.1741
   55SOL    HW2  165   0.812   2.936   0.614  2.0959 -2.0935  1.6582
   56SOL     OW  166   0.503   1.528   3.075 -0.4825  0.0549 -0.3552
   56SOL    HW1  167   0.420   1.576   3.111 -0.7463 -1.5866  0.2833
   56SOL    HW2  168   0.497   1.421   3.069  0.3321 -0.6809 -1.9826
   57SOL     OW  169   1.766   2.381   2.650 -0.1402 -0.0655 -0.8382
   57SOL    HW1  170   1.821   2.368   2.561  0.9356 -2.6424  1.0893
   57SOL    HW2  171   1.663   2.385   2.643 -0.7886  2.5581 -1.4436
   58SOL     OW  172   0.618   0.493   1.102 -0.7902 -0.4543  0.3273
   58SOL    HW1  173   0.557   0.570   1.063  1.3192 -5.3120  2.8562
   58SOL    HW2  174   0.582   0.394   1.103  1.7923  1.6392 -1.1266
   59SOL     OW  175   0.478   2.387   2.645 -0.1981  0.4965 -0.3192
   59SOL    HW1  176   0.465   2.293   2.674  3.5127  0.2072 -2.0658
   59SOL    HW2  177   0.538   2.440   2.708  1.8463  2.2957 -0.5670
   60SOL     OW  178   2.332   2.187   2.249  0.0753  0.1132 -0.1714
   60SOL    HW1  179   2.417   2.211   2.198 -0.7444  1.6628  2.2161
   60SOL    HW2  180   2.325   2.242   2.334  1.6666 -0.0952 -0.5960
   61SOL     OW  181   1.368   0.600   0.427  0.5209 -0.7717  0.4907
   61SOL    HW1  182   1.287   0.633   0.479  0.2860 -0.0459 -0.2423
   61SOL    HW2  183   1.352   0.577   0.327  0.4051 -1.4925  0.0027
   62SOL     OW  184   2.672   1.898   0.016 -0.8101 -0.5667 -0.2573
   62SOL    HW1  185   2.681   1.796   0.032  0.3344 -0.3893  1.9945
   62SOL    HW2  186   2.674   1.927  -0.082 -0.1525  1.5493  0.7582
   63SOL     OW  187   0.521   0.796   0.132 -0.1841 -0.0484  0.4425
   63SOL    HW1  188   0.500   0.892   0.100  1.3406 -0.7699  1.4421
   63SOL    HW2  189   0.576   0.797   0.220 -0.0525  0.6527 -0.5838
   64SOL     OW  190   0.072   0.552   2.516  0.0823 -0.7982  0.0852
   64SOL    HW1  191   0.078   0.614   2.595  2.6391 -0.0110 -1.1047
   64SOL    HW2  192   0.054   0.612   2.431  1.6289  2.2232  0.9837
   65SOL     OW  193   0.184   1.452   0.625 -0.0783 -0.3930  0.5117
   65SOL    HW1  194   0.189   1.525   0.700 -0.9250 -2.6656  1.5946
   65SOL    HW2  195   0.281   1.428   0.590  1.8283 -2.5173  0.7745
   66SOL     OW  196   2.465   0.344   0.680  0.4276  0.6205  0.1944
   66SOL    HW1  197   2.392   0.421   0.699  0.5214  0.6922  1.1405
   66SOL    HW2  198   2.425   0.251   0.699  0.0362  2.5413 -0.2043
   67SOL     OW  199   0.478   2.575   1.325  0.2958 -0.6332  0.2589
   67SOL    HW1  200   0.582   2.589   1.313 -0.1882  0.2050  1.6511
   67SOL    HW2  201   0.451   2.470   1.326 -0.4466 -2.5459  1.2168
   68SOL     OW  202   1.022   1.104   2.429  0.0362 -0.0121  0.8911
   68SOL    HW1  203   1.086   1.049   2.366  2.0347 -0.7522 -0.7909
   68SOL    HW2  204   0.934   1.135   2.382 -3.0925  0.7437  2.6648
   69SOL     OW  205   0.775   2.696   2.159  0.7344 -0.3146  0.1748
   69SOL    HW1  206   0.815   2.606   2.184 -1.3205  0.8365 -1.0788
   69SOL    HW2  207   0.669   2.695   2.160 -2.8386  2.4592 -0.4661
   70SOL     OW  208   0.606   0.231   2.712  0.1155  0.2691  0.0114
   70SOL    HW1  209   0.589   0.243   2.813  1.2847  0.1273  0.3659
   70SOL    HW2  210   0.563   0.144   2.679 -1.0395  2.5314 -1.4038
   71SOL     OW  211   1.099   1.820   0.370 -0.4654 -0.5247  0.5124
   71SOL    HW1  212   1.058   1.725   0.378 -0.9577  1.1918  0.3288
   71SOL    HW2  213   1.074   1.860   0.274 -0.1941 -0.1652 -0.4165
   72SOL     OW  214   1.774   0.068   2.089  0.3841  0.2444 -0.1496
   72SOL    HW1  215   1.842   0.096   2.017 -2.9693 -2.1049  1.3028
   72SOL    HW2  216   1.789  -0.028   2.124  2.0427  0.2542  0.7611
   73SOL     OW  217   2.844   2.225   2.522 -0.3296 -0.4396 -0.5147
   73SOL    HW1  218   2.835   2.128   2.472 -1.8779 -3.9007  1.5430
   73SOL    HW2  219   2.870   2.211   2.620 -0.3289 -0.0270  0.6120
   74SOL     OW  220   2.707   3.019   2.060 -0.4499  0.4635 -0.3427
   74SOL    HW1  221   2.644   2.969   2.122  1.3864  0.9226  0.8586
   74SOL    HW2  222   2.806   3.006   2.090  1.1733 -0.4320  1.8023
   75SOL     OW  223   0.917   0.741   0.975 -0.3511  0.1854  0.2806
   75SOL    HW1  224   0.836   0.795   0.945  3.3823 -0.9603  2.0623
   75SOL    HW2  225   0.951   0.774   1.073 -0.9882 -0.1860  2.6371
   76SOL     OW  226   1.749   1.224   2.575  0.2382 -0.3817 -0.3118
   76SOL    HW1  227   1.646   1.210   2.575  2.9842 -0.7318 -1.9861
   76SOL    HW2  228   1.773   1.314   2.624  0.2766 -0.7165  0.3464
   77SOL     OW  229   3.003   0.997   0.983 -0.0788 -0.5834 -0.2323
   77SOL    HW1  230   2.985   0.893   0.989 -0.9097 -0.5157  1.6081
   77SOL    HW2  231   3.056   1.025   1.068  0.0546 -2.6535  0.3737
   78SOL     OW  232   1.976   1.402   1.474 -0.2490 -0.0998  0.4967
   78SOL    HW1  233   2.059   1.416   1.416  1.2728 -1.0164  0.3795
   78SOL    HW2  234   1.889   1.377   1.419  0.9078 -0.5912 -4.0798
   79SOL     OW  235   0.653   1.312   0.860 -0.1668  0.8974  0.2054
   79SOL    HW1  236   0.570   1.366   0.891  2.1642  1.2229 -3.0267
   79SOL    HW2  237   0.636   1.263   0.767  1.3108  0.4740 -0.8622
   80SOL     OW  238   0.643   0.484   1.603  0.0813  0.1846  0.1046
   80SOL    HW1  239   0.717   0.532   1.548 -1.4379  0.1771 -1.1817
   80SOL    HW2  240   0.638   0.386   1.580  1.3722  1.9807 -1.2512
   81SOL     OW  241   1.095   1.426   2.601 -0.1890 -0.5166  0.8220
   81SOL    HW1  242   1.048   1.357   2.664 -0.7640  0.1859  1.8725
   81SOL    HW2  243   1.037   1.441   2.519  2.7668 -0.2171  1.1324
   82SOL     OW  244   0.906   3.026   1.523  0.1113  0.1485 -0.4974
   82SOL    HW1  245   0.963   2.947   1.494 -1.5695  1.2900  1.1003
   82SOL    HW2  246   0.809   3.015   1.501  1.7114 -1.5601  3.4166
   83SOL     OW  247   2.762   2.419   0.811 -0.1381  0.1521 -0.5016
   83SOL    HW1  248   2.671   2.385   0.784  1.2187  0.9363  2.3601
   83SOL    HW2  249   2.792   2.499   0.749  3.0696  1.0203 -0.2541
   84SOL     OW  250   0.666   0.014   2.415  0.3887 -0.1170 -0.1371
   84SOL    HW1  251   0.569  -0.025   2.428 -1.0447 -1.4158  2.6673
   84SOL    HW2  252   0.735  -0.036   2.475 -0.0692  2.7438 -0.0428
   85SOL     OW  253   0.402   1.650   1.470  0.6376 -0.1438  0.1941
   85SOL    HW1  254   0.353   1.740   1.484  3.2608  1.6527 -1.6321
   85SOL    HW2  255   0.399   1.588   1.560  1.3553 -2.3975  1.8833
   86SOL     OW  256   0.359   1.042   1.480 -0.0127 -0.1108 -0.0238
   86SOL    HW1  257   0.376   0.971   1.407 -1.0980 -0.5735 -0.3564
   86SOL    HW2  258   0.383   1.006   1.572  1.1624 -2.0744 -1.2569
   87SOL     OW  259   1.572   0.585   0.196  0.3893 -0.1158  0.2761
   87SOL    HW1  260   1.605   0.684   0.207  0.3929 -0.4590  2.7075
   87SOL    HW2  261   1.554   0.560   0.095 -0.0988 -0.5021  0.0523
   88SOL     OW  262   1.593   1.282   0.175 -0.4553 -0.9615  0.4684
   88SOL    HW1  263   1.622   1.184   0.188 -0.6331 -0.2857  0.3278
   88SOL    HW2  264   1.489   1.296   0.169  1.2525  1.0905  0.3066
   89SOL     OW  265   2.980   0.432   0.576  0.8756  0.7848 -0.1028
   89SOL    HW1  266   3.029   0.341   0.576 -0.3543  0.3572 -1.9121
   89SOL    HW2  267   2.873   0.426   0.595 -2.4769 -2.4095  0.2342
   90SOL     OW  268   0.935   1.645   3.053  0.8614  0.4743  0.0794
   90SOL    HW1  269   0.866   1.651   3.132  1.2368 -0.5178  1.2499
   90SOL    HW2  270   0.894   1.637   2.958  1.2257 -1.4403  0.7113
   91SOL     OW  271   1.261   1.417   1.783  0.5688  0.6390 -0.0453
   91SOL    HW1  272   1.298   1.495   1.836 -0.3455  0.6321 -0.6353
   91SOL    HW2  273   1.337   1.373   1.725  1.1029  1.8405 -2.2325
   92SOL     OW  274   0.063   1.061   1.179  0.0327  0.0482 -0.2839
   92SOL    HW1  275   0.156   1.067   1.132  1.6928 -2.5634 -1.1974
   92SOL    HW2  276   0.072   1.019   1.276  1.7073 -1.7998  2.7645
   93SOL     OW  277   0.091   2.827   0.012 -0.4556 -0.4722  0.6189
   93SOL    HW1  278   0.008   2.825  -0.046 -0.2133  0.3883  2.3537
   93SOL    HW2  279   0.101   2.738   0.059 -2.7307  2.1606  1.6572
   94SOL     OW  280   1.501   1.301   1.663 -0.4576  0.3386  0.3174
   94SOL    HW1  281   1.529   1.217   1.713  0.3146 -0.5112 -2.3564
   94SOL    HW2  282   1.547   1.383   1.703 -0.5346 -0.3721 -2.8906
   95SOL     OW  283   1.393   2.487   2.895 -0.2471  0.7033 -0.4490
   95SOL    HW1  284   1.352   2.492   2.986  1.1429  1.0142  0.0788
   95SOL    HW2  285   1.407   2.388   2.871  2.3357 -0.3101  0.2009
   96SOL     OW  286   0.503   2.025   1.224  0.0829  0.0726 -0.0188
   96SOL    HW1  287   0.490   2.059   1.128  0.1803  2.3426  0.7273
   96SOL    HW2  288   0.502   1.923   1.230 -0.8650 -0.2417  0.9710
   97SOL     OW  289   0.298   1.453   2.470  0.3530  0.3492 -0.0514
   97SOL    HW1  290   0.215   1.406   2.514 -1.6034 -1.6026  1.4697
   97SOL    HW2  291   0.356   1.516   2.531  1.8124 -0.0390  1.7523
   98SOL     OW  292   2.078   1.667   1.270 -0.4389  0.7430  0.4082
   98SOL    HW1  293   2.053   1.590   1.204 -0.1529  4.0704  1.7571
   98SOL    HW2  294   2.140   1.638   1.349  2.3840  2.4377  1.3869
   99SOL     OW  295   2.478   2.165   1.338 -0.2383  0.1053 -0.2773
   99SOL    HW1  296   2.441   2.181   1.434 -2.3641  1.8594 -1.6317
   99SOL    HW2  297   2.461   2.065   1.314  0.8073 -1.6455 -0.8377
  100SOL     OW  298   2.304   0.409   2.057  0.0654  0.1334 -0.6138
  100SOL    HW1  299   2.254   0.355   2.128 -1.3330 -0.7781 -0.5622
  100SOL    HW2  300   2.407   0.434   2.082  1.8282  1.5801  0.7213
  101SOL     OW  301   0.429   1.425   0.279  0.0668  0.1011 -0.0581
  101SOL    HW1  302   0.434   1.431   0.382  0.4214  2.6715  0.2402
  101SOL    HW2  303   0.485   1.499   0.231 -0.7973  0.4502  0.4438
  102SOL     OW  304   2.264   1.077   0.826  0.5110 -0.1469 -0.5671
  102SOL    HW1  305   2.211   0.996   0.795 -0.4083  0.5402 -0.3398
  102SOL    HW2  306   2.314   1.128   0.746  0.2737  1.2528 -2.4238
  103SOL     OW  307   2.287   0.070   0.400 -0.1787 -0.0458  0.3251
  103SOL    HW1  308   2.358   0.149   0.390  1.0657  0.9420 -2.6794
  103SOL    HW2  309   2.326  -0.004   0.462 -1.2457 -2.3404  0.0453
  104SOL     OW  310   0.075   1.867   2.161 -0.1273  0.3321  0.3698
  104SOL    HW1  311   0.113   1.789   2.109 -3.5816  0.6864  0.4494
  104SOL    HW2  312  -0.011   1.906   2.114  0.6032 -1.5187 -2.6234
  105SOL     OW  313   1.110   1.964   0.830  0.2356  0.5183  0.7204
  105SOL    HW1  314   1.098   2.050   0.771  1.1948 -0.6613 -1.7542
  105SOL    HW2  315   1.080   1.879   0.778  2.0933 -1.5034  1.0151
  106SOL     OW  316   2.048   0.475   1.348 -0.1948 -0.2804  0.3108
  106SOL    HW1  317   2.011   0.385   1.382  1.4934 -1.5238 -1.2561
  106SOL    HW2  318   2.023   0.559   1.402  0.7194 -0.6737  0.4100
  107SOL     OW  319   1.803   3.014   1.119 -0.4125  0.5423 -0.4799
  107SOL    HW1  320   1.847   3.077   1.189  0.7195 -0.6670 -0.6766
  107SOL    HW2  321   1.770   2.924   1.165 -0.8011  1.0972 -2.0966
  108SOL     OW  322   0.744   2.629   1.302  0.0814  0.3766  0.0891
  108SOL    HW1  323   0.720   2.704   1.370 -0.6795  0.8530 -1.1074
  108SOL    HW2  324   0.840   2.588   1.321  1.4913 -0.0434  0.0129
  109SOL     OW  325   2.075   0.113   0.686  0.6717 -0.5535  0.0840
  109SOL    HW1  326   2.025   0.050   0.618 -0.0574 -0.0324  0.3449
  109SOL    HW2  327   2.007   0.166   0.743  2.2088 -0.1909  2.6646
  110SOL     OW  328   0.484   2.737   2.744 -0.1854  0.6373  0.0255
  110SOL    HW1  329   0.499   2.784   2.647 -0.3548 -1.0221  0.0537
  110SOL    HW2  330   0.570   2.687   2.773  0.3941 -0.4465 -1.1184
  111SOL     OW  331   1.284   0.531   2.327 -0.1239 -0.0733 -0.1686
  111SOL    HW1  332   1.223   0.590   2.385  1.8645 -0.2727 -0.6978
  111SOL    HW2  333   1.332   0.464   2.386 -2.8621  0.4013 -3.9306
  112SOL     OW  334   1.692   0.501   1.461  0.1049  0.2205 -0.1922
  112SOL    HW1  335   1.700   0.433   1.383  3.0878 -2.3818  2.1565
  112SOL    HW2  336   1.717   0.461   1.553  1.4667 -1.3241 -0.0957
  113SOL     OW  337   2.294   1.667   1.735  0.1352  0.4953  0.5532
  113SOL    HW1  338   2.356   1.589   1.700  4.0631 -1.0015 -0.1557
  113SOL    HW2  339   2.328   1.705   1.826  0.6302 -0.8576 -1.6341
  114SOL     OW  340   0.390   0.566   1.288 -0.1026 -0.1220 -0.3282
  114SOL    HW1  341   0.361   0.652   1.239  0.8495  0.0698 -0.5058
  114SOL    HW2  342   0.430   0.498   1.226 -1.6536  0.7239 -0.4962
  115SOL     OW  343   2.674   1.574   1.257 -0.2926  0.5238 -0.5507
  115SOL    HW1  344   2.705   1.476   1.264  1.5687  0.7403  2.2124
  115SOL    HW2  345   2.696   1.617   1.164  2.0245  1.3345 -1.2193
  116SOL     OW  346   1.825   1.075   0.760 -0.1615  0.1184  0.1027
  116SOL    HW1  347   1.733   1.027   0.744 -0.9047 -1.4961 -0.7467
  116SOL    HW2  348   1.808   1.180   0.754  0.4588  0.8434 -0.2806
  117SOL     OW  349   1.118   0.395   0.655  0.5510 -0.5774 -0.0626
  117SOL    HW1  350   1.080   0.422   0.746 -0.1295 -1.4805 -2.2658
  117SOL    HW2  351   1.159   0.476   0.604  2.5633 -0.5387 -0.2493
  118SOL     OW  352   1.056   1.100   1.026 -0.1011 -0.5437  0.8259
  118SOL    HW1  353   1.034   1.012   1.075 -1.1831  3.3050 -1.2510
  118SOL    HW2  354   1.086   1.179   1.090 -4.5889 -0.7716  1.5459
  119SOL     OW  355   1.830   1.606   2.006  0.0245 -0.3778  0.2160
  119SOL    HW1  356   1.813   1.699   2.058 -0.2884 -1.9955  1.7294
  119SOL    HW2  357   1.928   1.586   2.010 -2.0038 -0.1582 -1.1211
  120SOL     OW  358   2.942   2.772   0.277  0.0978 -0.1016  1.0161
  120SOL    HW1  359   2.852   2.754   0.230 -0.1732  2.6101 -0.5769
  120SOL    HW2  360   2.983   2.690   0.322  0.2947  2.0380 -1.2571
  121SOL     OW  361   2.052   0.736   2.213 -0.4220  0.5131 -0.7964
  121SOL    HW1  362   2.105   0.763   2.132 -0.4417 -2.1634 -0.6354
  121SOL    HW2  363   2.021   0.635   2.208 -2.1333  1.9586 -0.0041
  122SOL     OW  364   2.708   2.537   1.345  0.2834  0.1433  0.1955
  122SOL    HW1  365   2.745   2.524   1.246  1.9550  0.7331  0.9745
  122SOL    HW2  366   2.652   2.463   1.381 -1.0791 -2.0745 -0.2705
  123SOL     OW  367   1.740   0.029   1.676  0.1750 -0.2779 -0.2301
  123SOL    HW1  368   1.747  -0.041   1.601  0.7780 -0.0126 -2.2119
  123SOL    HW2  369   1.812   0.104   1.672 -1.0469  0.7427  0.8673
  124SOL     OW  370   0.182   0.503   1.013 -0.5403  0.1748  0.8560
  124SOL    HW1  371   0.167   0.578   1.077 -1.0777  2.0422 -0.1582
  124SOL    HW2  372   0.144   0.521   0.924  1.3814  2.6999  0.2072
  125SOL     OW  373   0.882   1.750   0.669  0.3359  0.1711  0.3442
  125SOL    HW1  374   0.988   1.747   0.656 -1.3444 -1.2998  0.7170
  125SOL    HW2  375   0.845   1.673   0.726 -0.6325  0.6597  0.0592
  126SOL     OW  376   1.863   2.380   2.376  0.2792 -0.1295 -0.0542
  126SOL    HW1  377   1.922   2.311   2.328 -1.0289  0.2255 -0.4665
  126SOL    HW2  378   1.780   2.412   2.320 -1.7237 -2.7571  0.2010
  127SOL     OW  379   0.932   0.968   0.185 -0.7103 -0.0867 -0.0108
  127SOL    HW1  380   1.019   1.001   0.230 -1.4680 -0.4930  2.0848
  127SOL    HW2  381   0.905   0.866   0.203  0.7829  0.0862 -0.6328
  128SOL     OW  382   1.009   0.188   1.479 -0.1625 -0.4316  0.1369
  128SOL    HW1  383   0.941   0.244   1.425 -1.1763  0.9504 -1.8391
  128SOL    HW2  384   0.971   0.092   1.489 -0.2097 -1.2905 -1.7558
  129SOL     OW  385   1.783   0.727   1.829  0.2873  0.1945  0.3463
  129SOL    HW1  386   1.743   0.754   1.738 -0.6314 -2.9970 -0.5724
  129SOL    HW2  387   1.811   0.812   1.895  5.2887  0.0419  1.5487
  130SOL     OW  388   1.291   2.095   0.988  0.0179 -0.1477  0.3077
  130SOL    HW1  389   1.225   2.045   0.923  2.9656  0.5994 -1.9919
  130SOL    HW2  390   1.353   2.159   0.939  1.3801  0.5672  0.1291
  131SOL     OW  391   3.065   1.519   1.326  0.5728  0.2669  0.0265
  131SOL    HW1  392   3.021   1.422   1.333 -1.3571 -0.8668  1.8555
  131SOL    HW2  393   3.170   1.511   1.330  0.8969 -0.6803  1.8003
  132SOL     OW  394   1.926   2.495   0.525 -0.3727  0.1148  0.3286
  132SOL    HW1  395   1.823   2.503   0.538  1.3483  0.2658  1.3160
  132SOL    HW2  396   1.978   2.532   0.604 -1.6725  1.2757 -1.7772
  133SOL     OW  397   1.809   2.292   2.903  0.3857  0.0733  0.4776
  133SOL    HW1  398   1.778   2.361   2.973  0.8048 -0.0354 -3.3442
  133SOL    HW2  399   1.776   2.323   2.808  0.6500 -2.3437 -1.4685
  134SOL     OW  400   2.626   2.379   1.620  0.3114 -0.1799 -0.1903
  134SOL    HW1  401   2.569   2.335   1.695  2.0506 -1.9873 -0.7656
  134SOL    HW2  402   2.698   2.450   1.659  2.3276 -2.8312  0.9783
  135SOL     OW  403   0.748   1.515   2.554 -0.4587  0.1406 -0.2098
  135SOL    HW1  404   0.720   1.421   2.572  0.9245 -0.7985  0.3061
  135SOL    HW2  405   0.824   1.519   2.477 -0.4337  2.9047  1.0696
  136SOL     OW  406   1.157   2.074   0.454  0.2770 -0.0901  0.2493
  136SOL    HW1  407   1.081   2.124   0.506 -0.9580 -0.7082 -1.2940
  136SOL    HW2  408   1.133   1.974   0.429  1.3971  1.2602 -1.9494
  137SOL     OW  409   0.384   1.026   2.162 -0.0287  0.2986  0.9850
  137SOL    HW1  410   0.303   1.064   2.211  2.7266  0.0538  0.9662
  137SOL    HW2  411   0.409   0.929   2.199  0.9265 -1.1670  0.6116
  138SOL     OW  412   2.450   1.480   0.310  0.3573  0.4988 -0.6756
  138SOL    HW1  413   2.357   1.454   0.275  1.9119 -0.1031  0.0830
  138SOL    HW2  414   2.484   1.398   0.362 -0.9327  2.5408 -0.4136
  139SOL     OW  415   1.771   2.540   1.230  0.0483  0.7330  0.1458
  139SOL    HW1  416   1.682   2.523   1.186  3.0162  0.0875 -0.8013
  139SOL    HW2  417   1.792   2.484   1.316 -2.3468  0.0206  1.2288
  140SOL     OW  418   2.989   3.009   2.529  0.2543 -0.4079  0.3424
  140SOL    HW1  419   3.032   2.939   2.593  0.4738  1.3290  0.0901
  140SOL    HW2  420   3.058   3.063   2.471  3.2459  0.0178  4.0620
  141SOL     OW  421   1.143   1.577   1.608 -0.2876  0.5776 -0.1203
  141SOL    HW1  422   1.167   1.671   1.650 -0.3243 -1.1828 -1.9350
  141SOL    HW2  423   1.191   1.496   1.658 -0.4689  2.3760  0.1813
  142SOL     OW  424   1.547   0.600   2.245  0.1640  0.3376 -0.0852
  142SOL    HW1  425   1.574   0.572   2.146  1.3073 -0.7647  1.1996
  142SOL    HW2  426   1.447   0.595   2.253  3.7233  0.2486  0.8351
  143SOL     OW  427   2.782   0.872   0.507  0.3931  0.4628  0.8846
  143SOL    HW1  428   2.812   0.912   0.419  0.9238  1.3633  3.5400
  143SOL    HW2  429   2.823   0.924   0.588  1.5018  0.8200  0.5679
  144SOL     OW  430   2.985   1.255   1.365  0.7199  0.5094 -0.2208
  144SOL    HW1  431   2.977   1.254   1.470  0.1191 -1.7809 -0.5788
  144SOL    HW2  432   3.069   1.203   1.325  1.4812  0.8744  3.1816
  145SOL     OW  433   1.042   1.866   0.099  0.8214 -0.2098 -0.6686
  145SOL    HW1  434   1.049   1.955   0.040 -1.3588  1.0081 -1.2753
  145SOL    HW2  435   1.032   1.782   0.038  0.8540 -1.0244  1.5794
  146SOL     OW  436   2.532   0.648   1.477  0.6970  0.6381 -0.4448
  146SOL    HW1  437   2.458   0.579   1.449  0.8871  0.8032  0.6755
  146SOL    HW2  438   2.515   0.747   1.453  0.9044 -1.9014  1.2602
  147SOL     OW  439   1.049   2.596   0.619  0.0920 -0.0971 -0.3036
  147SOL    HW1  440   1.010   2.636   0.532  0.7246 -0.9236  0.8265
  147SOL    HW2  441   1.143   2.550   0.599 -0.6327 -1.4832 -1.0201
  148SOL     OW  442   1.637   1.426   3.048 -0.1610  0.4723 -0.4898
  148SOL    HW1  443   1.687   1.354   2.985 -0.6518  0.7910 -0.7959
  148SOL    HW2  444   1.619   1.388   3.143 -1.2792 -1.1293 -1.1947
  149SOL     OW  445   0.643   1.398   1.951  0.0436 -0.1536  0.4333
  149SOL    HW1  446   0.553   1.364   1.995 -1.5322  1.5240  0.3323
  149SOL    HW2  447   0.675   1.333   1.877 -1.5217 -1.5711  1.4286
  150SOL     OW  448   2.962   1.287   0.946  0.0580  0.3395 -0.0234
  150SOL    HW1  449   3.045   1.305   1.004 -0.4592  1.9485 -0.4130
  150SOL    HW2  450   2.934   1.185   0.943  0.1269 -0.5141 -0.1336
  151SOL     OW  451   0.181   0.755   2.081 -0.1778 -0.4883  0.1197
  151SOL    HW1  452   0.174   0.846   2.022  0.0467  1.5365 -1.1743
  151SOL    HW2  453   0.245   0.686   2.037  1.3738  0.9385 -1.8303
  152SOL     OW  454   1.414   1.764   1.281 -0.2459 -0.3611  0.0868
  152SOL    HW1  455   1.408   1.845   1.342  1.9848 -0.4273  0.1361
  152SOL    HW2  456   1.329   1.740   1.225  0.0838 -0.7102  2.0079
  153SOL     OW  457   0.049   1.501   0.156  0.3329 -0.0178  0.1302
  153SOL    HW1  458   0.021   1.403   0.154 -0.4527 -0.4582 -1.1135
  153SOL    HW2  459   0.058   1.548   0.252 -1.2966  0.6370  0.5013
  154SOL     OW  460   2.401   1.955   2.833 -0.1313  0.0999 -0.2932
  154SOL    HW1  461   2.412   1.853   2.842 -1.7299 -0.4248 -0.6920
  154SOL    HW2  462   2.425   2.000   2.745 -0.1588  1.5337  0.9082
  155SOL     OW  463   2.517   1.235   0.411 -0.3515  0.3749 -0.0344
  155SOL    HW1  464   2.552   1.240   0.313  1.7158 -2.0515 -0.7860
  155SOL    HW2  465   2.516   1.133   0.444  1.3628 -1.5120  0.6531
  156SOL     OW  466   2.529   0.999   0.880  0.3901 -0.1799 -0.1783
  156SOL    HW1  467   2.443   1.050   0.906  1.3740 -0.5520  0.1889
  156SOL    HW2  468   2.598   1.060   0.841  0.7036  2.1074  1.3250
  157SOL     OW  469   1.370   2.996   3.105 -0.4769  0.2007 -0.3728
  157SOL    HW1  470   1.431   2.927   3.061 -1.1106 -0.7309 -0.1211
  157SOL    HW2  471   1.340   3.083   3.052  0.1360  0.6073 -1.2330
  158SOL     OW  472   1.060   1.849   2.026  0.2878  0.1842 -0.3325
  158SOL    HW1  473   1.123   1.843   2.110 -0.0089 -0.7245  1.0393
  158SOL    HW2  474   0.961   1.864   2.058 -2.2645 -1.3950  1.4580
  159SOL     OW  475   0.877   0.383   1.323  0.2376 -0.8941  0.0380
  159SOL    HW1  476   0.850   0.452   1.392 -0.9495 -3.5736  1.0503
  159SOL    HW2  477   0.820   0.387   1.238 -0.2917 -0.3889  1.8352
  160SOL     OW  478   1.464   2.381   1.634 -0.7540  0.5964  0.3299
  160SOL    HW1  479   1.479   2.462   1.572 -1.9407 -0.0895 -1.1542
  160SOL    HW2  480   1.558   2.338   1.662 -0.5964 -1.9270 -0.6582
  161SOL     OW  481   0.118   2.954   0.352 -0.5193 -0.3869 -0.6010
  161SOL    HW1  482   0.042   2.884   0.358  1.0271  4.7086 -0.0074
  161SOL    HW2  483   0.104   3.011   0.262 -0.9137  2.8328  1.8572
  162SOL     OW  484   2.592   1.881   0.500 -0.1125 -0.0693  0.0681
  162SOL    HW1  485   2.586   1.814   0.418 -1.0054 -0.8513 -1.6083
  162SOL    HW2  486   2.599   1.832   0.591 -0.0081 -0.3048  0.4841
  163SOL     OW  487   1.977   2.758   0.764  0.1348 -0.0249  0.1922
  163SOL    HW1  488   1.949   2.780   0.664 -0.7246 -1.4765  0.2432
  163SOL    HW2  489   2.016   2.660   0.774  1.5441 -0.4664 -0.7277
  164SOL     OW  490  -0.005   0.239   1.241 -0.4672 -0.2584  0.5100
  164SOL    HW1  491   0.090   0.202   1.221  0.0080  2.9093 -0.4049
  164SOL    HW2  492  -0.010   0.297   1.329 -2.1786 -1.1007  0.4524
  165SOL     OW  493   0.991   1.372   0.637  0.0648  0.7243 -0.2085
  165SOL    HW1  494   0.933   1.433   0.694 -2.1951  0.3425 -2.1043
  165SOL    HW2  495   0.976   1.400   0.539  1.1258  0.3293  2.2890
  166SOL     OW  496   1.388   1.040   1.781  0.7332  0.5477 -0.1899
  166SOL    HW1  497   1.303   0.998   1.824 -0.0910 -1.4867  0.4314
  166SOL    HW2  498   1.453   1.074   1.859 -2.1938 -1.5536  1.4000
  167SOL     OW  499   0.885   1.852   1.567 -0.0068  0.3210 -0.6793
  167SOL    HW1  500   0.863   1.949   1.601  1.8220 -0.6706  1.9107
  167SOL    HW2  501   0.808   1.785   1.574  0.8312  1.3881  0.2792
  168SOL     OW  502   1.522   2.373   0.163 -0.4233  0.0468 -0.7397
  168SOL    HW1  503   1.596   2.409   0.101 -0.6888 -0.7371 -0.6535
  168SOL    HW2  504   1.559   2.321   0.246 -0.7870  0.6823  0.7368
  169SOL     OW  505   0.167   2.550   2.167  0.2115  0.1277 -0.2412
  169SOL    HW1  506   0.224   2.479   2.123 -1.8265 -0.3114  0.5513
  169SOL    HW2  507   0.137   2.531   2.265 -1.2878  0.6719 -0.3964
  170SOL     OW  508   1.277   0.289   1.916  0.1320 -0.4681 -0.4585
  170SOL    HW1  509   1.292   0.268   2.017 -0.5473 -0.4004 -0.8847
  170SOL    HW2  510   1.260   0.198   1.864 -3.6702 -2.5964 -0.0049
  171SOL     OW  511   0.258   0.830   2.410  0.4453 -0.2206 -0.0195
  171SOL    HW1  512   0.168   0.849   2.468 -0.7579  1.4051 -1.0556
  171SOL    HW2  513   0.229   0.801   2.317  0.2616  3.5986  2.9333
  172SOL     OW  514   0.901   1.122   2.925  0.4879 -0.0027  0.1624
  172SOL    HW1  515   0.995   1.142   2.962 -1.3179 -1.6499 -2.8432
  172SOL    HW2  516   0.915   1.088   2.827 -2.4244  0.8102  0.2699
  173SOL     OW  517   0.669   2.705   0.170 -0.3286  0.2021 -0.3147
  173SOL    HW1  518   0.692   2.799   0.134 -2.0778  1.1122  0.3992
  173SOL    HW2  519   0.576   2.676   0.137 -0.1321 -0.0263  0.3089
  174SOL     OW  520   1.315   2.747   1.046  0.3249 -0.1792  0.1886
  174SOL    HW1  521   1.276   2.822   0.984  0.1576  0.6658 -1.4825
  174SOL    HW2  522   1.295   2.654   1.007 -1.7438 -1.1705  0.7426
  175SOL     OW  523   0.388   0.012   1.696 -0.0128 -0.1522  0.3997
  175SOL    HW1  524   0.455   0.061   1.760  0.0819 -1.0778 -2.6423
  175SOL    HW2  525   0.312   0.075   1.665  1.3271  2.3115  1.8846
  176SOL     OW  526   2.619   0.359   3.018 -0.4617  0.0830  0.1372
  176SOL    HW1  527   2.596   0.444   3.072 -1.2206 -2.8489 -0.3962
  176SOL    HW2  528   2.572   0.279   3.060  0.1814  1.3407  3.0893
  177SOL     OW  529   0.377   0.343   0.862  0.2450  0.4502  0.2084
  177SOL    HW1  530   0.435   0.310   0.943 -0.7634 -1.4829  0.8104
  177SOL    HW2  531   0.293   0.397   0.889  2.0905  2.5127 -0.1072
  178SOL     OW  532  -0.001   2.699   2.620  0.4584 -0.0218  0.4460
  178SOL    HW1  533  -0.065   2.646   2.681 -1.9847 -1.6308 -3.2076
  178SOL    HW2  534   0.084   2.737   2.663  3.0691 -0.5431  1.0212
  179SOL     OW  535   3.104   1.740   1.183  0.3877 -0.8416 -0.0232
  179SOL    HW1  536   3.026   1.805   1.157  2.8848 -1.0305  0.0779
  179SOL    HW2  537   3.067   1.661   1.231  1.2609 -1.9316 -3.1201
  180SOL     OW  538   0.180   1.255   1.835 -0.2866 -0.2450  0.2867
  180SOL    HW1  539   0.274   1.236   1.816  0.2172  2.5182 -1.9329
  180SOL    HW2  540   0.165   1.346   1.886  2.4448  0.2902 -0.2980
  181SOL     OW  541   2.997   1.814   2.521 -0.1638 -0.0497 -0.0771
  181SOL    HW1  542   3.103   1.839   2.525  1.4010 -0.9716 -0.9002
  181SOL    HW2  543   2.958   1.875   2.455  0.1694  2.5132 -1.2765
  182SOL     OW  544   2.290   1.214   1.241 -0.1765 -0.2546 -0.2600
  182SOL    HW1  545   2.206   1.181   1.190 -1.2232 -0.0526  1.8951
  182SOL    HW2  546   2.315   1.308   1.208  0.3726  2.9212  1.0156
  183SOL     OW  547   1.529   2.247   2.514  0.2710 -0.2189 -0.0422
  183SOL    HW1  548   1.440   2.194   2.530  1.5584  1.0620 -0.5516
  183SOL    HW2  549   1.610   2.183   2.503  2.3491  1.4492 -0.2566
  184SOL     OW  550   2.046   0.914   0.735  0.0922 -0.3498  0.3428
  184SOL    HW1  551   1.947   0.952   0.745 -2.0132 -0.0687 -0.9881
  184SOL    HW2  552   2.048   0.809   0.741 -1.5033 -3.5197  1.3795
  185SOL     OW  553   1.662   2.750   2.142  0.3947  0.0309 -0.6315
  185SOL    HW1  554   1.594   2.824   2.107 -2.0905 -2.3035 -1.0774
  185SOL    HW2  555   1.656   2.728   2.242  0.3910 -0.9496 -0.4751
  186SOL     OW  556   0.108   2.235   1.715  0.0387  0.2246  0.4051
  186SOL    HW1  557   0.134   2.322   1.666 -2.9243 -0.9209 -1.7858
  186SOL    HW2  558   0.193   2.178   1.748  1.4899  2.6319  0.9320
  187SOL     OW  559   1.420   0.649   1.726 -0.1572  0.1978 -0.5736
  187SOL    HW1  560   1.471   0.727   1.674  2.3004  1.8942 -1.2656
  187SOL    HW2  561   1.396   0.675   1.825 -0.8683  0.0300 -0.5676
  188SOL     OW  562   2.753   2.746   1.522 -0.0410  0.3479 -0.1046
  188SOL    HW1  563   2.711   2.835   1.489  1.8717 -0.9145 -0.4149
  188SOL    HW2  564   2.749   2.672   1.448  0.1246 -0.1099  1.3753
  189SOL     OW  565   0.725   1.009   1.483  0.8905 -0.1150 -0.0711
  189SOL    HW1  566   0.805   1.070   1.454 -1.1652 -0.6183 -0.1154
  189SOL    HW2  567   0.698   0.947   1.404 -0.7491  1.8821 -2.9005
  190SOL     OW  568   1.479   1.768   1.669  0.2170 -0.3179  0.0978
  190SOL    HW1  569   1.443   1.846   1.617  1.4634 -1.5471  1.4582
  190SOL    HW2  570   1.564   1.800   1.720  0.2598 -0.8842 -0.2070
  191SOL     OW  571   1.032   0.797   1.539 -0.2324 -0.3535  0.0544
  191SOL    HW1  572   1.076   0.708   1.570 -1.6543 -1.5534  1.1041
  191SOL    HW2  573   1.107   0.866   1.508  0.0500  1.8727 -0.7023
  192SOL     OW  574   1.901   2.225   1.209 -0.0696  0.6883  0.0592
  192SOL    HW1  575   1.811   2.221   1.161  3.1337  1.0960 -0.4019
  192SOL    HW2  576   1.968   2.288   1.170 -1.1466  0.5422  0.9974
  193SOL     OW  577   0.505   0.535   0.351  0.1935 -0.0996 -0.0406
  193SOL    HW1  578   0.494   0.435   0.382 -2.1731  0.7262  1.0361
  193SOL    HW2  579   0.509   0.536   0.250 -0.5125 -1.0988 -2.6714
  194SOL     OW  580   0.304   0.834   1.247  0.1847  0.6375 -0.0417
  194SOL    HW1  581   0.226   0.770   1.217  1.3124  0.4608  0.2119
  194SOL    HW2  582   0.314   0.923   1.192 -0.6653  0.7697  0.3456
  195SOL     OW  583   0.939   2.940   0.495  0.3694  0.0031 -0.4009
  195SOL    HW1  584   0.949   2.851   0.447  1.1488  0.7568  1.5467
  195SOL    HW2  585   1.028   2.985   0.514 -1.9352  0.6422  2.0576
  196SOL     OW  586   0.245   1.449   1.342  0.5686 -0.3054  0.1621
  196SOL    HW1  587   0.296   1.536   1.378 -1.2251 -0.2622  3.1341
  196SOL    HW2  588   0.217   1.381   1.414 -0.7997 -0.7981 -1.0653
  197SOL     OW  589   0.816   2.000   0.213  0.1201 -0.0409  0.4029
  197SOL    HW1  590   0.821   1.991   0.318  0.7639  0.8447 -0.7469
  197SOL    HW2  591   0.884   1.938   0.163  1.9757  0.0785 -1.0500
  198SOL     OW  592   0.302   1.179   0.237  0.4435 -0.2390  0.5426
  198SOL    HW1  593   0.201   1.192   0.217 -1.2858  1.9120  1.1065
  198SOL    HW2  594   0.356   1.267   0.227  0.5927 -1.0593  0.2984
  199SOL     OW  595   2.271   0.408   2.493  0.0799 -0.4506  0.6834
  199SOL    HW1  596   2.217   0.387   2.576  1.0789 -1.0818 -1.6648
  199SOL    HW2  597   2.374   0.399   2.499  0.3581 -0.0058 -0.2642
  200SOL     OW  598   0.014   2.886   0.804 -0.7260 -0.0553 -0.1767
  200SOL    HW1  599  -0.065   2.899   0.735  0.5895 -0.0703 -1.3345
  200SOL    HW2  600   0.061   2.967   0.844 -0.6697 -2.0796 -2.1236
  201SOL     OW  601   1.137   0.685   0.550  0.3875 -0.1008 -0.3059
  201SOL    HW1  602   1.115   0.784   0.583  1.4354  3.3080  0.3331
  201SOL    HW2  603   1.056   0.640   0.498  0.7641 -0.1591  1.7798
  202SOL     OW  604   0.441   1.211   1.770  0.4177 -0.3810  0.0179
  202SOL    HW1  605   0.481   1.199   1.674  2.6124 -1.7832  0.2458
  202SOL    HW2  606   0.496   1.155   1.845  1.6513  0.4012 -0.5403
  203SOL     OW  607   0.596   0.216   1.528  0.3341 -0.5963 -0.3466
  203SOL    HW1  608   0.594   0.179   1.430 -0.2794  1.4569 -0.6151
  203SOL    HW2  609   0.621   0.137   1.591 -1.0642  1.3903 -0.2348
  204SOL     OW  610   2.068   1.878   3.025 -0.0473 -0.3979  0.3140
  204SOL    HW1  611   2.106   1.783   3.007 -0.3820  1.5983 -0.5790
  204SOL    HW2  612   2.042   1.933   2.937 -0.7227 -3.5727 -1.4348
  205SOL     OW  613   1.883   1.868   0.123 -0.5337  0.1053 -0.3302
  205SOL    HW1  614   1.957   1.830   0.058 -0.5828 -1.5883 -0.5859
  205SOL    HW2  615   1.802   1.916   0.069  0.6646  1.9545  0.5662
  206SOL     OW  616   2.502   2.803   0.392 -0.1404  0.1987  0.0372
  206SOL    HW1  617   2.564   2.727   0.425 -0.4588  1.4735 -1.1391
  206SOL    HW2  618   2.556   2.861   0.322 -0.5956  0.0641  0.4835
  207SOL     OW  619   0.547   1.737   2.848  0.2733 -0.1934 -0.1382
  207SOL    HW1  620   0.638   1.686   2.829  1.5324  2.3043 -1.6449
  207SOL    HW2  621   0.493   1.690   2.920  2.6329 -0.2898 -1.9584
  208SOL     OW  622   1.040   1.449   1.365 -0.4122  0.6591  0.3759
  208SOL    HW1  623   0.968   1.518   1.335 -1.8303  1.3433 -0.1180
  208SOL    HW2  624   1.087   1.477   1.455  0.3476 -0.2910  0.7562
  209SOL     OW  625   0.152   0.925   3.086 -0.0885  0.7883 -0.2250
  209SOL    HW1  626   0.177   0.870   2.999 -1.4923 -1.8335 -2.1527
  209SOL    HW2  627   0.182   0.881   3.175  0.5631  0.6153 -1.0358
  210SOL     OW  628   1.715   0.456   1.159 -0.1239  0.3270  0.0299
  210SOL    HW1  629   1.663   0.529   1.104 -1.1023 -0.1673 -0.2832
  210SOL    HW2  630   1.810   0.452   1.133 -1.5656  1.3781 -0.8062
  211SOL     OW  631   2.109   1.054   1.665  0.1590 -0.1484  0.2944
  211SOL    HW1  632   2.162   1.007   1.738  2.5100  2.1862 -1.3568
  211SOL    HW2  633   2.173   1.103   1.595 -1.5126 -2.6723  1.8151
  212SOL     OW  634   0.035   1.005   1.438 -0.1644 -0.0443  0.1201
  212SOL    HW1  635   0.072   1.096   1.468 -1.1045 -0.6095 -1.7048
  212SOL    HW2  636   0.047   0.934   1.510  0.1199 -1.1635 -0.5637
  213SOL     OW  637   2.734   0.287   0.276 -0.4627  0.3298 -0.4781
  213SOL    HW1  638   2.817   0.231   0.277 -1.7088 -1.2058 -0.7418
  213SOL    HW2  639   2.726   0.355   0.197  0.1157  1.3366  0.8163
  214SOL     OW  640   2.165   0.301   2.260  0.3077 -0.2396  0.5829
  214SOL    HW1  641   2.196   0.361   2.343  1.6512 -0.6499  0.6818
  214SOL    HW2  642   2.123   0.212   2.292  0.8064  0.8971  0.0386
  215SOL     OW  643   1.689   2.301   2.055 -0.5007  0.3224  0.5829
  215SOL    HW1  644   1.785   2.304   2.026 -2.2551 -1.4742 -2.3146
  215SOL    HW2  645   1.665   2.349   2.144 -1.8051  3.0913 -1.1721
  216SOL     OW  646   2.246   0.534   0.655 -0.3908 -0.5459 -0.0791
  216SOL    HW1  647   2.188   0.477   0.597  2.1530  2.2181  2.2449
  216SOL    HW2  648   2.275   0.618   0.603 -0.1215 -0.0652  0.0283
  217SOL     OW  649   0.776   2.780   2.431 -0.5297 -0.1901 -0.4672
  217SOL    HW1  650   0.735   2.701   2.485 -0.9033  3.5637  0.0458
  217SOL    HW2  651   0.786   2.761   2.331 -1.1518  0.7871  1.3593
  218SOL     OW  652   1.930   1.445   0.005 -0.2140  0.1621  0.4491
  218SOL    HW1  653   1.830   1.460  -0.009 -2.1703  2.4202  0.6620
  218SOL    HW2  654   1.951   1.348   0.039  2.2370 -1.1559  2.8918
  219SOL     OW  655   2.382   1.306   2.580  0.5384  0.3447 -0.0782
  219SOL    HW1  656   2.382   1.244   2.500 -3.2011 -1.5196 -1.7153
  219SOL    HW2  657   2.383   1.255   2.675  0.6554  0.8743  0.0126
  220SOL     OW  658   1.432   1.049   1.246 -0.5032  0.3405 -0.2244
  220SOL    HW1  659   1.497   1.022   1.319 -0.9607  1.4671  2.4549
  220SOL    HW2  660   1.451   1.146   1.217 -0.3958  2.8568  0.9034
  221SOL     OW  661   1.299   1.112   2.151 -0.0668  0.5138 -0.1757
  221SOL    HW1  662   1.279   1.199   2.097  0.3931  0.3662 -1.8760
  221SOL    HW2  663   1.388   1.063   2.124  1.0552 -0.6676 -0.6859
  222SOL     OW  664   1.310   0.147   1.136 -0.5766 -0.3588  0.0781
  222SOL    HW1  665   1.401   0.136   1.093 -1.6011 -0.3248  0.9944
  222SOL    HW2  666   1.307   0.192   1.230  0.4066 -3.1231  0.9053
  223SOL     OW  667   2.877   0.810   1.972  0.3867  0.4179 -0.3040
  223SOL    HW1  668   2.879   0.800   2.076 -0.6610  3.2523 -0.1323
  223SOL    HW2  669   2.917   0.903   1.942  0.0887  0.0787  0.1952
  224SOL     OW  670   1.569   1.030   2.785  0.2715 -0.2056  0.1847
  224SOL    HW1  671   1.574   0.961   2.710 -3.2937 -0.1122 -1.3294
  224SOL    HW2  672   1.526   1.124   2.749  0.3261  3.7407 -0.3174
  225SOL     OW  673   2.960   2.797   2.930  0.2837 -0.6911 -0.0363
  225SOL    HW1  674   2.932   2.710   2.872 -1.7910  0.9259 -2.0034
  225SOL    HW2  675   3.029   2.862   2.885  0.1020  2.1227 -1.5530
  226SOL     OW  676   2.452   1.700   2.843  0.0392  0.0264  0.0379
  226SOL    HW1  677   2.487   1.670   2.753  0.0962  0.3339  0.7025
  226SOL    HW2  678   2.454   1.633   2.920 -0.8441  0.7514  0.0148
  227SOL     OW  679   0.770   0.139   2.977  0.3117 -0.1205  0.3748
  227SOL    HW1  680   0.827   0.089   3.047 -0.9144  0.5949 -0.0898
  227SOL    HW2  681   0.803   0.130   2.878  0.8739  0.8640 -1.5528
  228SOL     OW  682   2.365   0.553   2.785 -0.0317  0.4906 -0.0344
  228SOL    HW1  683   2.326   0.606   2.703 -0.0753 -0.8038 -0.3021
  228SOL    HW2  684   2.416   0.466   2.761  0.7438 -1.1124  1.1656
  229SOL     OW  685   0.599   0.501   1.881  0.0975  0.1264 -0.0666
  229SOL    HW1  686   0.628   0.529   1.789 -0.7652 -0.1471  1.7703
  229SOL    HW2  687   0.653   0.527   1.962 -0.4968  0.2552  3.3640
  230SOL     OW  688   1.929   1.222   2.147  0.4050 -0.0380  0.0005
  230SOL    HW1  689   2.007   1.254   2.086 -1.4964  1.0342  0.8444
  230SOL    HW2  690   1.832   1.231   2.111 -1.3883  0.8283  0.2352
  231SOL     OW  691   0.632   1.068   2.939 -0.1720 -0.7175 -0.0635
  231SOL    HW1  692   0.738   1.067   2.944  1.4157  1.0707  0.3244
  231SOL    HW2  693   0.577   1.092   3.030 -1.7912 -1.5551  1.0154
  232SOL     OW  694   2.541   0.031   2.736  0.3252  0.0421 -0.1549
  232SOL    HW1  695   2.552  -0.069   2.760  0.3917  0.8511  1.4537
  232SOL    HW2  696   2.559   0.049   2.636  1.0734  0.0721  0.9865
  233SOL     OW  697   1.735   1.288   1.044  0.3851 -0.3452 -0.3583
  233SOL    HW1  698   1.740   1.305   0.941 -3.0499  0.2976  0.5958
  233SOL    HW2  699   1.794   1.212   1.072 -1.7308 -0.8112  0.1795
  234SOL     OW  700   1.626   2.606   1.904  0.2767  0.7085 -0.4548
  234SOL    HW1  701   1.653   2.657   1.990 -0.8945 -1.0143 -1.0797
  234SOL    HW2  702   1.552   2.534   1.917 -0.4110  1.4470 -2.6250
  235SOL     OW  703   0.014   3.007   2.820  0.6123 -0.1557 -0.0619
  235SOL    HW1  704   0.078   3.062   2.764 -0.9251 -0.1125 -0.3609
  235SOL    HW2  705  -0.057   3.067   2.869 -0.8368  0.4645 -2.4144
  236SOL     OW  706   2.835   0.697   0.039 -0.7555 -0.9800 -0.1544
  236SOL    HW1  707   2.887   0.754   0.110 -0.3347  2.1916 -1.8783
  236SOL    HW2  708   2.894   0.614   0.008 -0.3631 -1.1870 -1.1072
  237SOL     OW  709   1.491   1.656   1.014  0.1815  0.3260  0.3761
  237SOL    HW1  710   1.591   1.629   1.025  1.2859 -1.7052  0.7709
  237SOL    HW2  711   1.456   1.712   1.091  2.5853 -0.1939 -0.5879
  238SOL     OW  712   1.773   1.336   0.770 -0.1478 -0.0430  0.0614
  238SOL    HW1  713   1.861   1.344   0.718  0.4086  0.4036  3.4066
  238SOL    HW2  714   1.701   1.400   0.736  0.9328 -2.2377  2.2503
  239SOL     OW  715   2.136   0.285   2.693 -0.2276  0.2385  0.2683
  239SOL    HW1  716   2.206   0.253   2.761 -2.3077 -1.5351  0.6858
  239SOL    HW2  717   2.071   0.355   2.733  2.0652 -1.8411  0.7962
  240SOL     OW  718   0.871   0.713   0.226 -0.0459 -0.7276 -0.1833
  240SOL    HW1  719   0.854   0.638   0.155 -1.9263  2.1452 -1.8147
  240SOL    HW2  720   0.862   0.681   0.322  0.2108  0.8664  2.4998
  241SOL     OW  721   0.554   0.033   0.345 -0.2933  0.4084 -0.1984
  241SOL    HW1  722   0.556  -0.005   0.254  0.3907  0.6259 -0.5642
  241SOL    HW2  723   0.479  -0.018   0.404  0.1810 -0.4169 -2.3485
  242SOL     OW  724   0.703   2.399   1.133  0.4353 -0.4897 -0.6964
  242SOL    HW1  725   0.686   2.473   1.205 -1.8015 -0.2158 -0.4617
  242SOL    HW2  726   0.794   2.417   1.081 -1.6848 -1.6458  0.1736
  243SOL     OW  727   1.079   0.620   2.485  0.2341 -0.1971 -0.3547
  243SOL    HW1  728   1.008   0.682   2.433 -0.5186 -0.8405 -1.6847
  243SOL    HW2  729   1.032   0.533   2.518  0.5940 -0.6637  1.2019
  244SOL     OW  730   2.817   1.999   2.378 -0.0812 -0.2100  0.3491
  244SOL    HW1  731   2.868   1.992   2.287 -0.9169 -0.3973  2.8588
  244SOL    HW2  732   2.711   1.988   2.368 -1.8359  0.5964  1.1512
  245SOL     OW  733   2.468   0.707   2.168 -0.4035  0.1000 -0.2319
  245SOL    HW1  734   2.466   0.793   2.225  1.1405  0.2007 -1.1499
  245SOL    HW2  735   2.547   0.647   2.187 -1.2785  0.3439 -2.8478
  246SOL     OW  736   0.233   2.861   1.754 -0.9875  0.2853 -0.3660
  246SOL    HW1  737   0.174   2.840   1.670 -0.8976 -1.5205 -1.8242
  246SOL    HW2  738   0.292   2.948   1.755  0.1207 -0.2434  0.4904
  247SOL     OW  739   2.199   0.525   3.009 -0.3192  0.2622  0.1844
  247SOL    HW1  740   2.262   0.540   2.926  0.2966 -1.0069 -1.2986
  247SOL    HW2  741   2.145   0.609   3.027  3.7768  0.0830  1.0692
  248SOL     OW  742   2.179   1.874   1.615 -0.2778  0.2042  0.0707
  248SOL    HW1  743   2.230   1.792   1.655 -2.2912 -0.9934 -0.6628
  248SOL    HW2  744   2.093   1.896   1.667 -0.5490  1.3737  0.1352
  249SOL     OW  745   2.009   1.933   1.941  0.0563 -0.1858  0.3981
  249SOL    HW1  746   2.000   1.887   1.846 -1.0566 -2.6615 -0.4664
  249SOL    HW2  747   2.065   2.019   1.936  0.3534 -0.4322  0.6673
  250SOL     OW  748   1.011   0.655   1.882  0.1026  0.0262 -0.0006
  250SOL    HW1  749   1.002   0.576   1.945 -0.5069  1.4752 -2.3288
  250SOL    HW2  750   1.062   0.624   1.794 -0.0001  2.4305 -2.3862
  251SOL     OW  751   3.042   1.553   2.585 -0.1693 -0.3469 -0.4941
  251SOL    HW1  752   3.015   1.652   2.568 -0.9890  0.4389 -1.8993
  251SOL    HW2  753   2.963   1.490   2.567 -0.1463 -0.3418  0.4439
  252SOL     OW  754   1.548   0.865   1.596 -0.1315 -0.3244 -0.3142
  252SOL    HW1  755   1.624   0.928   1.561  0.5546 -1.2318 -1.7155
  252SOL    HW2  756   1.464   0.919   1.627  0.3429 -1.9942 -0.7258
  253SOL     OW  757   1.004   1.527   0.385 -0.2196  0.1702  0.3068
  253SOL    HW1  758   1.090   1.494   0.325 -0.3851 -0.5866  0.6784
  253SOL    HW2  759   0.917   1.508   0.337  3.8606 -0.7876 -1.2255
  254SOL     OW  760   1.990   2.141   1.609 -0.2805  0.2033 -0.2158
  254SOL    HW1  761   1.989   2.084   1.526 -0.3313  0.4738  0.0023
  254SOL    HW2  762   1.892   2.164   1.640 -0.9973  2.8668 -1.2395
  255SOL     OW  763   0.118   1.136   2.931  0.5494 -0.6497 -0.2594
  255SOL    HW1  764   0.187   1.217   2.939  1.5951  0.2064 -1.1230
  255SOL    HW2  765   0.134   1.053   2.988 -3.6654  2.3888  1.4444
  256SOL     OW  766   2.736   1.321   1.835  0.1748  0.4712 -0.1325
  256SOL    HW1  767   2.675   1.317   1.754  1.9828 -1.5813  1.7020
  256SOL    HW2  768   2.705   1.247   1.900  2.0247  0.0221 -0.7957
  257SOL     OW  769   0.848   0.244   1.862  0.0679  0.0593 -0.0356
  257SOL    HW1  770   0.901   0.307   1.796 -0.8891 -0.2663 -1.2553
  257SOL    HW2  771   0.897   0.154   1.874  0.4365  0.4188  1.8350
  258SOL     OW  772   2.937   1.281   0.409  0.0448 -0.1664  0.4433
  258SOL    HW1  773   2.885   1.361   0.374  1.6318 -1.5947  1.8366
  258SOL    HW2  774   2.968   1.294   0.509 -0.6566 -0.7432 -0.9178
  259SOL     OW  775   0.519   2.870   3.003  0.0291  0.0525  0.0259
  259SOL    HW1  776   0.444   2.840   3.072 -1.0325  2.0903  1.1448
  259SOL    HW2  777   0.544   2.804   2.925  3.0730  1.0664 -1.6877
  260SOL     OW  778   2.645   0.751   2.682 -0.5110  0.1064 -0.0431
  260SOL    HW1  779   2.565   0.816   2.664  2.1189 -0.0647 -2.0679
  260SOL    HW2  780   2.616   0.655   2.701  2.0075  0.8064  0.4055
  261SOL     OW  781   2.712   1.302   1.312 -0.2036  0.3534 -0.2975
  261SOL    HW1  782   2.648   1.237   1.265  0.4047  0.3368  1.1204
  261SOL    HW2  783   2.808   1.266   1.324 -0.6169  0.6959  1.1298
  262SOL     OW  784   1.504   2.946   2.041  0.0631 -0.1524 -0.1829
  262SOL    HW1  785   1.527   3.032   1.993  0.7415 -0.7317  0.9023
  262SOL    HW2  786   1.415   2.899   2.008 -0.7032  2.0920  0.6612
  263SOL     OW  787   0.892   0.750   2.347 -0.1414  0.2381 -0.0479
  263SOL    HW1  788   0.840   0.667   2.305 -1.8654  0.1442  2.1792
  263SOL    HW2  789   0.904   0.830   2.277  0.7634 -0.3204  0.5691
  264SOL     OW  790   2.280   0.767   0.504 -0.2391  0.2936  0.1379
  264SOL    HW1  791   2.186   0.803   0.477  0.4309  3.0401  2.6014
  264SOL    HW2  792   2.345   0.840   0.509 -1.5033 -2.0685 -0.1252
  265SOL     OW  793   0.896   2.322   2.693 -0.8304 -0.0077 -0.1010
  265SOL    HW1  794   0.950   2.392   2.754  1.6573  0.1434  0.9395
  265SOL    HW2  795   0.868   2.239   2.742  1.7408  0.3189 -2.2010
  266SOL     OW  796   1.291   1.745   0.024  0.3783  0.1156 -0.1448
  266SOL    HW1  797   1.230   1.802   0.091 -1.7865  1.8024  0.0083
  266SOL    HW2  798   1.392   1.740   0.056  0.6384 -0.6341  0.0195
  267SOL     OW  799   1.100   0.020   2.311  0.0819  0.1709 -0.0252
  267SOL    HW1  800   1.130  -0.071   2.270  0.2815 -0.0357  1.6020
  267SOL    HW2  801   1.123   0.099   2.249 -3.5462 -0.0801  0.1820
  268SOL     OW  802   0.613   1.137   1.088 -0.5476 -0.3156 -0.0213
  268SOL    HW1  803   0.620   1.179   1.184 -1.9359 -0.3834 -0.4669
  268SOL    HW2  804   0.625   1.213   1.024 -0.3870 -2.7912  2.5040
  269SOL     OW  805   2.449   2.594   1.557  0.3511  0.3294 -0.1638
  269SOL    HW1  806   2.530   2.533   1.561 -0.1942 -0.5688  0.0039
  269SOL    HW2  807   2.389   2.595   1.641 -0.0340  1.1397 -1.5051
  270SOL     OW  808   0.319   2.768   2.031  0.1493  0.1766 -0.2770
  270SOL    HW1  809   0.283   2.789   1.935 -0.4266  1.3587 -0.1968
  270SOL    HW2  810   0.267   2.689   2.070  2.5176 -2.0597 -2.2775
  271SOL     OW  811   0.394   1.373   1.129 -0.6384  0.0756 -0.2939
  271SOL    HW1  812   0.350   1.351   1.040  4.2876  0.6761 -1.5787
  271SOL    HW2  813   0.329   1.385   1.213  0.6384 -1.0235  1.0989
  272SOL     OW  814   1.982   2.826   1.891  0.2085  0.4500  0.3214
  272SOL    HW1  815   1.902   2.827   1.822  0.6553  0.9361 -0.7226
  272SOL    HW2  816   2.055   2.892   1.863 -1.2384 -1.9219  1.5221
  273SOL     OW  817   1.398   1.437   2.897  0.0283  0.0139  0.3167
  273SOL    HW1  818   1.486   1.415   2.949  0.7776  1.8112 -0.2840
  273SOL    HW2  819   1.313   1.439   2.957  0.7252  2.4324 -2.0276
  274SOL     OW  820   1.129   0.491   2.074  0.2324  0.1547 -0.3634
  274SOL    HW1  821   1.179   0.433   2.010 -0.1853 -0.3246 -1.8283
  274SOL    HW2  822   1.189   0.520   2.156  0.5017 -0.5716  0.5621
  275SOL     OW  823   0.647   2.072   1.920  0.1177 -0.7184  0.1577
  275SOL    HW1  824   0.637   2.172   1.953  1.0808 -0.0316 -0.7934
  275SOL    HW2  825   0.559   2.011   1.935  1.8770 -3.3159  2.9681
  276SOL     OW  826   2.152   0.938   2.770 -0.2916  0.5057  0.5009
  276SOL    HW1  827   2.076   0.951   2.704  0.1105  1.4351 -1.2606
  276SOL    HW2  828   2.129   0.900   2.863 -1.4032  5.0087  0.6188
  277SOL     OW  829   3.006   0.811   0.216 -0.5780 -0.1251  0.2166
  277SOL    HW1  830   3.090   0.853   0.186  0.8316 -4.3637  2.0673
  277SOL    HW2  831   3.033   0.738   0.280  2.4685  0.9615 -0.9477
  278SOL     OW  832   0.215   0.295   2.930 -0.0668  0.0864  0.0422
  278SOL    HW1  833   0.292   0.228   2.966 -0.8411 -2.5609  1.3128
  278SOL    HW2  834   0.236   0.394   2.948 -1.6313  0.0293 -1.3049
  279SOL     OW  835   0.136   0.020   0.878 -0.0093 -0.3586  0.0300
  279SOL    HW1  836   0.170   0.047   0.971 -0.6637 -1.3085 -0.1822
  279SOL    HW2  837   0.210   0.043   0.806  0.4048  0.5765 -0.6328
  280SOL     OW  838   1.664   2.938   2.495  0.1996 -0.1209  0.2448
  280SOL    HW1  839   1.737   3.000   2.539 -3.7897  2.5492 -0.5914
  280SOL    HW2  840   1.570   2.988   2.509 -0.3191  1.2336 -0.3305
  281SOL     OW  841   0.648   0.996   2.327 -0.3950 -0.3772 -0.4474
  281SOL    HW1  842   0.628   0.969   2.229 -0.9234 -1.4060  1.4520
  281SOL    HW2  843   0.613   0.929   2.397  1.5230  1.4472  1.6526
  282SOL     OW  844   1.647   2.495   0.573  0.2284  0.0529 -0.5762
  282SOL    HW1  845   1.609   2.429   0.503 -1.9975  1.9596  0.1185
  282SOL    HW2  846   1.611   2.594   0.555 -3.3620 -0.9001  1.2705
  283SOL     OW  847   1.085   0.922   0.694 -0.0185  1.0471 -0.0095
  283SOL    HW1  848   1.148   0.867   0.756  0.1249  0.5887  0.2166
  283SOL    HW2  849   1.026   0.986   0.747  1.1433 -3.4683 -2.2537
  284SOL     OW  850   2.230   2.839   2.408  0.5975  0.1231 -0.5439
  284SOL    HW1  851   2.215   2.853   2.509  1.1587 -1.0731  1.0083
  284SOL    HW2  852   2.245   2.933   2.356 -1.6506 -0.4410  1.3910
  285SOL     OW  853   1.386   3.057   2.539  0.3593 -0.2026  0.5153
  285SOL    HW1  854   1.399   3.057   2.433  0.8378 -0.2798  0.4904
  285SOL    HW2  855   1.295   3.089   2.565  1.8659 -1.3171 -1.7051
  286SOL     OW  856   0.413   0.483   0.630  0.0161  0.5851 -0.3196
  286SOL    HW1  857   0.418   0.418   0.717 -0.9316 -2.5873  2.3245
  286SOL    HW2  858   0.406   0.420   0.545 -1.4516 -1.3823 -1.8108
  287SOL     OW  859   0.050   1.296   2.537 -0.2883  0.8343 -0.0515
  287SOL    HW1  860   0.029   1.212   2.603  0.5358 -2.0000  1.0387
  287SOL    HW2  861   0.012   1.388   2.573 -1.3507 -0.6800  1.8094
  288SOL     OW  862   1.579   2.568   1.494  0.2517  0.3532 -0.1548
  288SOL    HW1  863   1.656   2.620   1.543  0.5741  0.3437 -2.2252
  288SOL    HW2  864   1.588   2.561   1.389 -0.0892 -1.1408 -5.8849
  289SOL     OW  865   0.630   2.728   0.817  0.2707 -0.2330 -0.1119
  289SOL    HW1  866   0.689   2.791   0.759  0.9220 -2.3349 -0.9360
  289SOL    HW2  867   0.624   2.760   0.918 -1.4282 -1.0276  0.1582
  290SOL     OW  868   2.951   1.251   1.690 -0.0730 -0.4026  0.5168
  290SOL    HW1  869   2.856   1.280   1.720 -1.2640 -1.5598 -1.0008
  290SOL    HW2  870   2.982   1.177   1.751 -0.7783  0.6582 -1.8065
  291SOL     OW  871   1.989   0.031   0.088 -0.3948  0.3068 -0.5503
  291SOL    HW1  872   2.012  -0.009   0.183  1.7598 -2.4083 -0.3149
  291SOL    HW2  873   2.055   0.099   0.049 -0.8232  0.2120 -0.6300
  292SOL     OW  874   2.984   1.172   3.064  0.0283 -0.4142  0.1329
  292SOL    HW1  875   2.908   1.216   3.007 -0.2832  3.2900  1.3549
  292SOL    HW2  876   3.070   1.152   3.012 -1.7623 -1.4892 -1.0391
  293SOL     OW  877   0.539   2.064   0.162  0.3255 -0.0811  0.2647
  293SOL    HW1  878   0.514   2.137   0.234 -2.6882  1.4008 -0.8624
  293SOL    HW2  879   0.637   2.026   0.174  2.1500 -0.8478  0.6445
  294SOL     OW  880   1.647   2.109   1.852  0.7204  0.2139 -0.2297
  294SOL    HW1  881   1.670   2.164   1.940  1.1210  0.1172  0.5800
  294SOL    HW2  882   1.677   2.158   1.766  0.1205 -1.5092 -3.4222
  295SOL     OW  883   0.963   1.197   0.416  0.1512 -0.0224  0.7849
  295SOL    HW1  884   1.052   1.170   0.454 -3.8474 -0.6511 -1.6380
  295SOL    HW2  885   0.895   1.127   0.443  0.7061  0.7822  1.2356
  296SOL     OW  886   1.280   2.092   2.534 -0.1857 -0.2190 -0.1182
  296SOL    HW1  887   1.259   2.134   2.447  0.4869 -0.9962 -0.4254
  296SOL    HW2  888   1.313   1.997   2.510 -1.0106  0.6263 -1.5371
  297SOL     OW  889   1.531   0.709   1.365  0.0861  0.2644 -0.2554
  297SOL    HW1  890   1.591   0.623   1.358 -0.1752 -0.5427 -3.2019
  297SOL    HW2  891   1.530   0.749   1.460  0.0303 -3.9884  2.3398
  298SOL     OW  892   0.547   1.303   2.821 -0.5092 -0.4197  0.1934
  298SOL    HW1  893   0.581   1.235   2.894 -1.2268 -0.9683  1.9274
  298SOL    HW2  894   0.618   1.319   2.750  0.0128 -0.2547  1.3145
  299SOL     OW  895   0.365   0.377   1.484  0.4526 -0.1770 -0.3628
  299SOL    HW1  896   0.365   0.456   1.416 -2.0367 -0.7296  0.3221
  299SOL    HW2  897   0.458   0.332   1.490  0.1964 -0.5535 -1.7063
  300SOL     OW  898   1.250   1.801   2.852 -0.4538 -0.2836  0.6171
  300SOL    HW1  899   1.250   1.714   2.798 -0.2911 -0.9675  0.9029
  300SOL    HW2  900   1.257   1.786   2.956 -1.0775 -1.1167 -1.0522
  301SOL     OW  901   0.442   0.294   0.413  0.6027 -0.3826 -0.0108
  301SOL    HW1  902   0.341   0.280   0.415  2.8747  3.9269 -1.1841
  301SOL    HW2  903   0.494   0.222   0.361 -0.8215 -1.8605  0.1314
  302SOL     OW  904   1.175   2.289   2.356  0.1785 -0.0842 -0.1662
  302SOL    HW1  905   1.109   2.370   2.389 -1.7044 -1.5433  0.6966
  302SOL    HW2  906   1.123   2.222   2.299  0.7359  0.5228  1.7258
  303SOL     OW  907   0.943   2.404   0.773 -0.1906 -0.1657  0.6289
  303SOL    HW1  908   0.978   2.486   0.717  1.0257  0.4078  2.1226
  303SOL    HW2  909   0.955   2.412   0.876 -1.8306 -1.0692 -0.2012
  304SOL     OW  910   0.069   2.021   0.682 -0.2370  0.7527  0.0705
  304SOL    HW1  911   0.099   1.970   0.600  1.0064  2.6548 -2.9240
  304SOL    HW2  912  -0.002   2.092   0.658  0.0714 -2.4348 -0.9374
  305SOL     OW  913   1.628   0.879   0.693  0.1641  0.0955  0.2793
  305SOL    HW1  914   1.539   0.869   0.639  2.2763 -0.7404 -0.4803
  305SOL    HW2  915   1.708   0.820   0.658 -0.6451 -0.4566  0.2448
  306SOL     OW  916   0.432   1.905   1.926 -0.2547 -0.5195 -0.2753
  306SOL    HW1  917   0.473   1.820   1.882  0.5952  0.4654  0.2552
  306SOL    HW2  918   0.418   1.895   2.031 -1.2709  2.6128 -0.4332
  307SOL     OW  919   3.094   0.858   2.527  0.2260 -0.0997 -0.0548
  307SOL    HW1  920   3.075   0.924   2.603 -1.2302  0.9022  0.4945
  307SOL    HW2  921   3.003   0.810   2.507 -1.2168 -0.4739  0.1018
  308SOL     OW  922   1.577   2.668   2.825 -0.2500 -0.0477  0.3653
  308SOL    HW1  923   1.560   2.694   2.729 -0.7185 -0.5586 -2.1517
  308SOL    HW2  924   1.511   2.594   2.859  0.8648  1.2690  1.0575
  309SOL     OW  925   1.245   0.024   1.802  0.3647  0.3830  0.0292
  309SOL    HW1  926   1.336   0.017   1.849 -0.6170 -0.3660 -0.8039
  309SOL    HW2  927   1.243   0.052   1.701  0.0187 -0.1230  4.8222
  310SOL     OW  928   1.361   2.668   0.710 -1.5733 -0.0039  0.3157
  310SOL    HW1  929   1.294   2.737   0.749 -1.1759  1.5698  4.5049
  310SOL    HW2  930   1.453   2.704   0.688 -0.6219 -0.0291 -0.1207
  311SOL     OW  931   1.223   0.975   1.450  0.4255  0.1311 -0.3736
  311SOL    HW1  932   1.261   0.950   1.360 -0.9420 -3.6228 -2.5221
  311SOL    HW2  933   1.230   1.076   1.468 -0.3410 -1.3617  0.2527
  312SOL     OW  934   1.593   0.666   1.031 -1.1751  0.7507  0.1853
  312SOL    HW1  935   1.566   0.764   1.036 -0.8354 -0.2835  0.5541
  312SOL    HW2  936   1.523   0.611   0.980 -0.3942  2.0677  1.8525
  313SOL     OW  937   1.600   1.453   0.495  0.3192  0.1833  0.6692
  313SOL    HW1  938   1.507   1.452   0.531  1.6458  2.9949 -0.9229
  313SOL    HW2  939   1.647   1.361   0.479 -1.7031 -1.3382  0.7999
  314SOL     OW  940   2.929   0.097   3.015  0.3337 -0.0156 -0.6664
  314SOL    HW1  941   2.937   0.131   3.110 -0.7727 -0.4607  0.5494
  314SOL    HW2  942   2.854   0.025   3.006 -0.9782  0.5265 -1.5165
  315SOL     OW  943   1.257   0.244   2.774 -0.5796  0.1482 -0.2706
  315SOL    HW1  944   1.207   0.176   2.710 -0.2948 -0.6980  0.5141
  315SOL    HW2  945   1.271   0.209   2.871 -1.4089  2.6902  0.3740
  316SOL     OW  946   1.696   2.070   0.917 -0.1976 -0.3187 -0.1808
  316SOL    HW1  947   1.657   2.108   1.009  1.5640 -0.2361  0.5097
  316SOL    HW2  948   1.692   2.142   0.850 -4.4022 -0.1382  3.3436
  317SOL     OW  949   1.162   0.720   2.815 -0.0947  0.4303 -0.1402
  317SOL    HW1  950   1.113   0.756   2.899 -0.8254 -1.2801 -0.6704
  317SOL    HW2  951   1.122   0.628   2.780  1.7762 -1.2803  2.5734
  318SOL     OW  952   1.397   3.080   2.264 -0.1158 -0.0087 -0.3765
  318SOL    HW1  953   1.424   3.175   2.238 -0.1377 -0.1246  1.9115
  318SOL    HW2  954   1.428   3.003   2.197 -0.5574 -2.2517  0.8254
  319SOL     OW  955   0.639   2.383   2.936 -0.0609  0.3191 -0.2167
  319SOL    HW1  956   0.553   2.363   2.991  2.7790  0.7859 -1.0523
  319SOL    HW2  957   0.693   2.301   2.898 -1.5328  1.3610 -1.3583
  320SOL     OW  958   1.609   2.267   0.391 -0.5732 -0.0578 -0.1689
  320SOL    HW1  959   1.712   2.254   0.416  1.1488 -0.5229 -0.0268
  320SOL    HW2  960   1.547   2.221   0.459  0.6139 -1.2877  2.0910
  321SOL     OW  961   1.608   2.768   0.539 -0.1692  0.1715 -0.3925
  321SOL    HW1  962   1.542   2.810   0.475  0.2962  0.4209  1.7574
  321SOL    HW2  963   1.704   2.794   0.519  1.8849 -3.0337 -2.0859
  322SOL     OW  964   2.679   1.074   2.237  0.1439 -0.1817  0.0921
  322SOL    HW1  965   2.737   1.072   2.321 -0.2166  1.6412 -1.1070
  322SOL    HW2  966   2.587   1.033   2.244 -0.6498 -0.8976 -0.0578
  323SOL     OW  967   1.020   2.702   0.859  0.1230 -0.2389 -0.0159
  323SOL    HW1  968   1.039   2.672   0.764 -0.4782  2.0839  0.9879
  323SOL    HW2  969   0.990   2.803   0.857  1.7143 -0.0267 -1.3785
  324SOL     OW  970   0.096   2.506   2.440 -0.3427  0.3179  0.4270
  324SOL    HW1  971   0.074   2.406   2.462 -0.6546 -0.3902  1.6822
  324SOL    HW2  972   0.064   2.580   2.505 -1.0350  1.5208 -1.0292
  325SOL     OW  973   1.173   3.064   0.481 -0.1356  0.3440  0.0480
  325SOL    HW1  974   1.187   3.116   0.391  0.0782 -2.7166 -0.6773
  325SOL    HW2  975   1.201   3.128   0.565  1.9643 -1.5534  1.2513
  326SOL     OW  976   2.319   0.783   0.047  0.7500 -0.0781 -0.2227
  326SOL    HW1  977   2.223   0.773   0.007 -0.2853  2.1235 -0.4737
  326SOL    HW2  978   2.340   0.707   0.115 -0.3746 -1.6364  0.7884
  327SOL     OW  979   2.702   0.412   0.531 -0.7024 -0.4739  0.0468
  327SOL    HW1  980   2.717   0.379   0.433  0.5435 -1.2949 -0.0953
  327SOL    HW2  981   2.620   0.372   0.578  0.0439  0.1843  0.8132
  328SOL     OW  982   2.520   0.636   0.353 -0.3790  0.3808  0.3017
  328SOL    HW1  983   2.435   0.680   0.399 -2.2478  3.4001  0.7442
  328SOL    HW2  984   2.559   0.560   0.415  0.8134 -3.8715 -1.4090
  329SOL     OW  985   2.969   2.940   2.145 -0.4560  0.1382  0.3330
  329SOL    HW1  986   3.031   2.901   2.222  3.6831  1.4997  1.8105
  329SOL    HW2  987   2.994   3.035   2.116  1.1627  0.1345  0.8524
  330SOL     OW  988   0.531   0.214   1.833  0.3974 -0.4459  0.2600
  330SOL    HW1  989   0.534   0.307   1.789  0.5547 -1.0122  1.0601
  330SOL    HW2  990   0.618   0.194   1.887  1.1600 -0.3415 -2.2731
  331SOL     OW  991   2.913   1.915   1.091  0.4177 -0.3893  0.1670
  331SOL    HW1  992   2.956   2.006   1.051 -0.2133  1.6566 -1.3619
  331SOL    HW2  993   2.855   1.939   1.174 -0.3382  0.5389 -2.0188
  332SOL     OW  994   0.436   1.046   0.057 -0.1405  0.0569  0.1498
  332SOL    HW1  995   0.386   1.015  -0.030  2.4037  0.9055  0.5018
  332SOL    HW2  996   0.373   1.094   0.129  0.7634  1.9748  2.2428
  333SOL     OW  997   2.850   1.047   0.268  0.2612  0.2126 -0.4354
  333SOL    HW1  998   2.889   1.116   0.334 -1.0891  0.2508 -2.6921
  333SOL    HW2  999   2.916   0.981   0.227  0.9815  1.9303 -1.8118
  334SOL     OW 1000   1.648   1.169   1.913 -0.2410 -0.0196  0.0333
  334SOL    HW1 1001   1.730   1.138   1.858  4.2998 -0.3594 -1.6817
  334SOL    HW2 1002   1.654   1.264   1.958 -3.2381  0.5338  1.7124
  335SOL     OW 1003   1.992   2.781   2.605  0.5080  0.1906  0.3585
  335SOL    HW1 1004   1.991   2.755   2.704 -3.8083  0.2995 -1.0496
  335SOL    HW2 1005   1.995   2.879   2.584 -0.2858 -1.4813 -0.3574
  336SOL     OW 1006   0.226   0.070   2.708  0.1462  0.1593  0.5908
  336SOL    HW1 1007   0.317   0.024   2.720 -0.6099 -1.8414 -0.1333
  336SOL    HW2 1008   0.207   0.154   2.768 -0.4733  1.5297 -2.1457
  337SOL     OW 1009   0.974   2.800   2.861 -0.6379  0.1228  0.2786
  337SOL    HW1 1010   0.954   2.758   2.958 -0.1019  0.5090  4.2616
  337SOL    HW2 1011   1.072   2.778   2.826  0.8027  0.1287 -1.4523
  338SOL     OW 1012   3.101   1.007   0.606  0.3230  0.2349  0.4053
  338SOL    HW1 1013   3.021   0.986   0.667 -1.0149 -0.3449 -3.4910
  338SOL    HW2 1014   3.111   1.105   0.579 -1.2896 -0.2456 -3.4785
  339SOL     OW 1015   1.687   1.386   2.070 -0.4869 -0.0100  0.0287
  339SOL    HW1 1016   1.585   1.406   2.067 -0.5462 -0.8106 -0.2150
  339SOL    HW2 1017   1.746   1.470   2.058 -1.2174 -3.1383  0.4313
  340SOL     OW 1018   2.293   0.748   1.243  0.5685 -0.7814 -0.7614
  340SOL    HW1 1019   2.210   0.795   1.198 -1.6778 -0.9178  0.2064
  340SOL    HW2 1020   2.330   0.665   1.196  2.2321 -1.7230 -0.9079
  341SOL     OW 1021   1.878   2.204   0.440  0.2592 -0.2907 -0.7228
  341SOL    HW1 1022   1.905   2.179   0.337 -0.2906  2.2605 -0.9893
  341SOL    HW2 1023   1.962   2.219   0.501  2.5311 -1.4949  0.4257
  342SOL     OW 1024   2.218   2.157   2.821 -0.0897 -0.9682  0.0204
  342SOL    HW1 1025   2.283   2.087   2.850 -1.1691 -0.4370 -0.7362
  342SOL    HW2 1026   2.113   2.132   2.828 -1.2790  0.1223  0.3452
  343SOL     OW 1027   0.321   0.895   2.873  0.1594 -0.0798  0.1799
  343SOL    HW1 1028   0.306   0.958   2.792  0.3964  0.6831  1.1958
  343SOL    HW2 1029   0.418   0.872   2.876  1.0411 -2.4378 -1.6028
  344SOL     OW 1030   1.840   1.479   0.344 -0.3711  0.3577  0.3309
  344SOL    HW1 1031   1.853   1.424   0.255  1.4792  0.3200  0.4280
  344SOL    HW2 1032   1.786   1.565   0.327  0.2319  0.5529  1.8308
  345SOL     OW 1033   1.413   2.207   2.860 -0.4171 -0.2102  0.0834
  345SOL    HW1 1034   1.328   2.152   2.835  0.7707 -1.9640  2.2891
  345SOL    HW2 1035   1.496   2.171   2.808 -0.2121  0.0049 -0.6932
  346SOL     OW 1036   2.440   0.907   1.435 -0.0349  0.2756 -0.9631
  346SOL    HW1 1037   2.390   0.990   1.470 -1.5876  0.4964 -1.9091
  346SOL    HW2 1038   2.385   0.861   1.359  1.8852  0.2538 -2.2453
  347SOL     OW 1039   0.676   2.800   1.509 -0.0311  0.7637 -0.5204
  347SOL    HW1 1040   0.666   2.771   1.612 -1.1586 -0.5475  1.0306
  347SOL    HW2 1041   0.608   2.873   1.475 -1.2934  0.5179 -0.2968
  348SOL     OW 1042   0.077   0.689   2.806 -0.2278  0.1661  0.2901
  348SOL    HW1 1043  -0.024   0.680   2.788  1.1054 -1.0899  1.9948
  348SOL    HW2 1044   0.121   0.777   2.781 -0.9459  0.0712  0.6600
  349SOL     OW 1045   1.919   0.459   2.781 -0.1304 -0.3082  0.2978
  349SOL    HW1 1046   1.919   0.527   2.701  2.0626  0.0909  1.8886
  349SOL    HW2 1047   1.864   0.488   2.864  0.6429  1.7240  0.9090
  350SOL     OW 1048   1.652   0.370   0.372 -0.0925  0.5350  0.1848
  350SOL    HW1 1049   1.719   0.405   0.439 -1.2667  0.9869  0.8963
  350SOL    HW2 1050   1.614   0.453   0.315 -2.8033 -0.9070 -2.8979
  351SOL     OW 1051   0.930   0.925   2.143 -0.4300  0.7517  0.2102
  351SOL    HW1 1052   0.933   1.020   2.101  0.3013  0.1107  1.4918
  351SOL    HW2 1053   0.871   0.860   2.084  0.5771 -1.3289  1.9085
  352SOL     OW 1054   1.984   1.395   0.568  0.3277 -0.0924  0.2926
  352SOL    HW1 1055   1.936   1.432   0.475 -1.8657 -0.2407 -2.7513
  352SOL    HW2 1056   2.070   1.445   0.603 -1.3987  1.9237 -0.2899
  353SOL     OW 1057   2.128   2.821   1.179 -0.3452  0.2992 -0.5571
  353SOL    HW1 1058   2.223   2.796   1.158 -1.0633 -1.5359  3.1679
  353SOL    HW2 1059   2.064   2.755   1.127  0.4553 -2.4640  2.6566
  354SOL     OW 1060   0.285   1.363   2.923  0.0665 -0.0927 -0.1787
  354SOL    HW1 1061   0.239   1.435   2.869 -2.0818 -1.4679 -0.3777
  354SOL    HW2 1062   0.378   1.341   2.886 -1.6373  2.9666 -0.1757
  355SOL     OW 1063   0.448   1.479   0.559  0.0015  0.1793  0.5845
  355SOL    HW1 1064   0.459   1.564   0.617  1.4406  1.8936 -0.9585
  355SOL    HW2 1065   0.534   1.419   0.552  2.2195  0.7826  1.1337
  356SOL     OW 1066   0.846   0.427   2.074  0.8581  0.5304  0.2198
  356SOL    HW1 1067   0.944   0.444   2.104 -0.2669  1.3443  0.8850
  356SOL    HW2 1068   0.840   0.357   1.994  0.6527  2.4672  0.8279
  357SOL     OW 1069   1.055   1.278   0.156  0.3470 -0.1589 -0.1986
  357SOL    HW1 1070   0.982   1.263   0.087 -0.8088  0.5021  0.6680
  357SOL    HW2 1071   1.012   1.258   0.252 -2.2573  0.2384 -0.2397
  358SOL     OW 1072   1.621   1.665   0.325  0.3640  0.1049  0.0174
  358SOL    HW1 1073   1.609   1.570   0.367  1.7511 -2.4085  0.0390
  358SOL    HW2 1074   1.581   1.739   0.387 -2.0925  1.1584 -0.5845
  359SOL     OW 1075   1.565   2.706   0.135 -0.1145  0.0373  0.2950
  359SOL    HW1 1076   1.598   2.625   0.082  0.8288  1.2474  1.4430
  359SOL    HW2 1077   1.485   2.687   0.205  0.5247 -1.3501 -0.5334
  360SOL     OW 1078   0.877   0.577   0.456  0.1649  0.5474 -0.1291
  360SOL    HW1 1079   0.805   0.594   0.529  3.3584 -0.4471 -0.9712
  360SOL    HW2 1080   0.907   0.472   0.449 -1.7229 -2.3003 -0.5331
  361SOL     OW 1081   1.272   1.360   0.645 -0.6230 -0.0629 -0.2160
  361SOL    HW1 1082   1.310   1.406   0.730  0.3098  0.2498  0.8266
  361SOL    HW2 1083   1.166   1.361   0.639 -0.4716 -1.2487 -2.0256
  362SOL     OW 1084   1.385   1.733   0.774  0.1602  0.6597 -0.3058
  362SOL    HW1 1085   1.429   1.700   0.860  1.4612  1.0775 -1.8590
  362SOL    HW2 1086   1.407   1.830   0.759 -0.1296  0.1002  0.2730
  363SOL     OW 1087   1.126   1.327   2.035  0.1905  0.5659 -0.0265
  363SOL    HW1 1088   1.118   1.411   2.094 -0.4663  1.0293 -0.8812
  363SOL    HW2 1089   1.195   1.342   1.959  2.2837  0.0070 -0.5177
  364SOL     OW 1090   0.587   2.327   2.006 -0.2434  0.3275 -0.2764
  364SOL    HW1 1091   0.482   2.337   1.989 -0.0266  1.9696 -0.1392
  364SOL    HW2 1092   0.650   2.381   1.943 -0.5055 -2.6597 -1.3142
  365SOL     OW 1093   1.147   1.837   1.444 -0.4950  1.0013 -0.1438
  365SOL    HW1 1094   1.065   1.859   1.499  0.3334  1.6866 -1.0773
  365SOL    HW2 1095   1.169   1.736   1.444  0.1116  0.4293 -0.0289
  366SOL     OW 1096   2.816   2.070   0.465 -0.3533 -0.3779 -0.1895
  366SOL    HW1 1097   2.718   2.030   0.458 -2.3693  0.2044 -0.0539
  366SOL    HW2 1098   2.889   2.006   0.430 -1.6570  1.8098 -0.5491
  367SOL     OW 1099   0.796   1.204   0.063 -0.7422  0.2925 -0.6082
  367SOL    HW1 1100   0.857   1.133   0.104  2.2261 -0.6348 -1.1529
  367SOL    HW2 1101   0.810   1.198  -0.037  0.5273 -1.5915 -0.6727
  368SOL     OW 1102   1.517   0.512   0.622  0.2217  0.7714  0.0863
  368SOL    HW1 1103   1.469   0.561   0.540 -0.2738  0.6478 -0.2741
  368SOL    HW2 1104   1.614   0.485   0.601  1.7961 -0.5597  1.7266
  369SOL     OW 1105   0.302   1.684   0.093  0.1573  0.1592 -0.2219
  369SOL    HW1 1106   0.279   1.781   0.126 -0.1065  0.0756  0.5556
  369SOL    HW2 1107   0.233   1.626   0.135  2.1623  1.1006  0.2930
  370SOL     OW 1108   0.471   2.139   0.981  0.1983 -0.2269  0.0163
  370SOL    HW1 1109   0.467   2.244   0.982 -1.4794  0.4532  0.0139
  370SOL    HW2 1110   0.384   2.096   0.945  0.6177  0.9988 -1.4717
  371SOL     OW 1111   2.928   2.218   2.771 -0.1427  0.1990  0.3414
  371SOL    HW1 1112   2.935   2.208   2.879 -0.4717  0.7738  1.9550
  371SOL    HW2 1113   3.017   2.239   2.726 -2.1268  0.6923  1.5756
  372SOL     OW 1114   0.884   1.886   1.011  0.3249 -0.0176 -0.3732
  372SOL    HW1 1115   0.856   1.983   1.011  0.9318  0.3701  0.4296
  372SOL    HW2 1116   0.969   1.871   0.952  1.6817  2.6032 -0.7079
  373SOL     OW 1117   1.939   1.947   0.935 -0.1955  0.3051 -0.0256
  373SOL    HW1 1118   2.013   1.985   0.998 -1.6811  0.1202  0.1580
  373SOL    HW2 1119   1.853   2.005   0.946  0.0104  0.2470 -0.1273
  374SOL     OW 1120   1.851   0.414   0.572 -0.0783 -0.4012 -0.0610
  374SOL    HW1 1121   1.834   0.366   0.661 -0.0141 -3.0137  1.1334
  374SOL    HW2 1122   1.942   0.388   0.535 -2.6483 -1.9066  3.4562
  375SOL     OW 1123   2.474   2.285   1.090  0.0149 -0.2667 -0.5852
  375SOL    HW1 1124   2.504   2.225   1.009 -0.6797  2.4241 -0.2750
  375SOL    HW2 1125   2.483   2.244   1.185 -0.1402 -0.7912 -1.2498
  376SOL     OW 1126   3.072   0.643   1.453  0.2278 -0.1636 -0.5374
  376SOL    HW1 1127   3.105   0.695   1.538  0.7506 -1.1935  0.5246
  376SOL    HW2 1128   2.971   0.648   1.442 -0.2949 -1.5135 -0.3073
  377SOL     OW 1129   2.212   2.833   0.333  0.6308  0.0930  0.1260
  377SOL    HW1 1130   2.149   2.889   0.391  1.1332  0.3544  2.8594
  377SOL    HW2 1131   2.309   2.838   0.370 -0.0896  2.0753 -1.9622
  378SOL     OW 1132   1.879   1.850   2.654  0.4656  0.1571  0.0064
  378SOL    HW1 1133   1.917   1.758   2.668 -1.3635  2.2117 -1.4596
  378SOL    HW2 1134   1.787   1.843   2.607  0.4458 -1.0330  0.3576
  379SOL     OW 1135   0.881   0.126   2.702  0.1282 -0.1627  0.1386
  379SOL    HW1 1136   0.852   0.026   2.697  0.0071 -0.4105 -1.0147
  379SOL    HW2 1137   0.822   0.192   2.646  0.4335  1.3854  2.3250
  380SOL     OW 1138   1.565   1.169   0.543 -0.2781 -0.0509 -0.1916
  380SOL    HW1 1139   1.531   1.074   0.517  0.9545  1.3982  0.6060
  380SOL    HW2 1140   1.514   1.200   0.625 -1.4862 -2.4954 -0.1361
  381SOL     OW 1141   1.286   1.236   1.505  0.0041 -0.3775  0.0053
  381SOL    HW1 1142   1.334   1.255   1.417  1.1663  0.4653 -0.2560
  381SOL    HW2 1143   1.357   1.231   1.580 -1.7071 -1.5104 -0.2799
  382SOL     OW 1144   1.755   0.800   0.252  0.9454  0.5131 -0.2944
  382SOL    HW1 1145   1.766   0.793   0.147 -1.6183  1.5594  0.7036
  382SOL    HW2 1146   1.831   0.756   0.306  0.0835 -3.3499  0.1064
  383SOL     OW 1147   2.687   1.003   1.554  0.2369 -0.3231  0.5078
  383SOL    HW1 1148   2.613   0.943   1.510  2.6318  0.2241  0.4191
  383SOL    HW2 1149   2.773   0.988   1.512 -1.1271  0.8838 -1.3683
  384SOL     OW 1150   1.021   2.300   0.151  0.4302 -0.2396  0.1647
  384SOL    HW1 1151   0.942   2.357   0.192 -1.0437  1.6671  4.4656
  384SOL    HW2 1152   1.017   2.201   0.178 -0.5369  2.5831  0.2298
  385SOL     OW 1153   3.009   2.061   1.705  0.8435  0.2298  0.2931
  385SOL    HW1 1154   3.083   2.131   1.715  1.2345 -0.0047  0.6588
  385SOL    HW2 1155   3.061   1.968   1.696 -1.0566 -3.4764  0.6094
  386SOL     OW 1156   0.438   1.067   0.450  0.1567  0.8422 -0.6717
  386SOL    HW1 1157   0.426   0.961   0.454 -2.1893 -0.8558  0.5193
  386SOL    HW2 1158   0.386   1.113   0.366 -1.5760  1.2473 -0.0060
  387SOL     OW 1159   0.995   0.367   1.675 -0.0898  0.6774  0.2198
  387SOL    HW1 1160   1.054   0.452   1.656 -2.2184 -2.0419 -1.7447
  387SOL    HW2 1161   1.006   0.301   1.598 -0.0685 -0.2116 -1.5855
  388SOL     OW 1162   1.254   2.567   1.743 -0.1157  0.5026  0.6007
  388SOL    HW1 1163   1.258   2.558   1.638 -2.4539 -0.5908  0.9865
  388SOL    HW2 1164   1.304   2.494   1.797  0.2066 -2.1186 -0.8023
  389SOL     OW 1165   0.249   0.025   1.127  0.3751  0.3182 -0.1018
  389SOL    HW1 1166   0.205   0.008   1.225 -0.7432 -0.1335  0.5267
  389SOL    HW2 1167   0.320  -0.048   1.099  1.5529  1.0262  0.7250
  390SOL     OW 1168   1.083   0.841   1.177 -0.0883 -0.1198  0.2645
  390SOL    HW1 1169   1.188   0.839   1.161  0.1094  2.5492  0.8750
  390SOL    HW2 1170   1.062   0.789   1.260  0.9319 -0.8727  1.5222
  391SOL     OW 1171   2.111   1.162   1.048  0.9004  0.1979 -0.6160
  391SOL    HW1 1172   2.067   1.083   1.099 -0.2479  0.2830 -0.8552
  391SOL    HW2 1173   2.173   1.129   0.971 -1.1158  0.2988  0.4247
  392SOL     OW 1174   0.914   2.704   0.001  0.2474 -0.0239  0.0448
  392SOL    HW1 1175   0.840   2.681   0.068 -0.2040  0.2089  0.5421
  392SOL    HW2 1176   0.992   2.758   0.038  1.0269 -0.9838  2.2450
  393SOL     OW 1177   0.352   0.577   1.974 -0.2924  0.1749 -0.1064
  393SOL    HW1 1178   0.283   0.499   1.961 -0.4227  0.0469  1.2801
  393SOL    HW2 1179   0.445   0.553   1.937 -2.0358 -1.4837  0.1684
  394SOL     OW 1180   2.828   1.790   2.752 -0.0377  0.2223  0.0201
  394SOL    HW1 1181   2.882   1.805   2.660  0.1096 -1.3672 -0.1231
  394SOL    HW2 1182   2.754   1.863   2.775  0.1475 -3.3551 -2.5276
  395SOL     OW 1183   1.568   1.956   0.702  0.0233 -0.2457 -0.2214
  395SOL    HW1 1184   1.610   1.885   0.645 -0.0579  3.1997  0.9122
  395SOL    HW2 1185   1.628   1.973   0.781 -2.6265 -4.1211  1.2569
  396SOL     OW 1186   2.757   1.995   1.303  0.7203  0.5915  0.1183
  396SOL    HW1 1187   2.751   2.045   1.397 -1.0802  2.7968  1.4444
  396SOL    HW2 1188   2.678   1.929   1.295 -1.1947  3.6050 -0.8483
  397SOL     OW 1189   0.977   2.156   0.668  0.3637 -0.1885  0.4130
  397SOL    HW1 1190   0.885   2.108   0.666 -1.6683 -1.2869 -1.3286
  397SOL    HW2 1191   0.964   2.252   0.696 -1.3194 -2.5135  1.2878
  398SOL     OW 1192   2.205   3.086   1.073  0.0338  0.2010 -0.0955
  398SOL    HW1 1193   2.171   3.004   1.119  2.1164  1.0816 -0.9978
  398SOL    HW2 1194   2.125   3.148   1.038 -2.0498  0.3547 -0.0072
  399SOL     OW 1195   2.871   2.594   2.789 -0.1014  0.2493  0.0900
  399SOL    HW1 1196   2.844   2.527   2.715  2.6821  0.5414  0.4632
  399SOL    HW2 1197   2.831   2.564   2.883 -3.1840 -0.8224 -3.4416
  400SOL     OW 1198   0.805   1.581   1.290  0.4100 -0.0264  0.0438
  400SOL    HW1 1199   0.777   1.652   1.363 -1.8361 -0.4877 -1.1231
  400SOL    HW2 1200   0.763   1.609   1.199  2.2465  0.4021  0.7477
  401SOL     OW 1201   1.853   0.135   1.304  0.2570 -0.4674  0.0890
  401SOL    HW1 1202   1.877   0.156   1.401 -1.1310 -0.9208  0.7261
  401SOL    HW2 1203   1.749   0.127   1.295  0.9653  1.0770  0.4194
  402SOL     OW 1204   1.335   0.160   3.024  0.2079  0.4136  0.4757
  402SOL    HW1 1205   1.436   0.174   3.018  0.3370  1.7668 -3.7062
  402SOL    HW2 1206   1.308   0.212   3.109 -2.0837  1.3981  3.7848
  403SOL     OW 1207   2.255   1.849   0.977  0.3703 -0.6207  0.7199
  403SOL    HW1 1208   2.339   1.802   1.020  1.5843 -1.9847 -2.2925
  403SOL    HW2 1209   2.238   1.941   1.018  1.7338 -2.7684  2.5654
  404SOL     OW 1210   0.218   2.473   2.769 -0.2400 -0.1986 -0.5423
  404SOL    HW1 1211   0.298   2.463   2.706 -0.2533 -0.1972  2.9980
  404SOL    HW2 1212   0.201   2.573   2.789 -1.2762 -1.1251  0.9710
  405SOL     OW 1213   0.189   2.530   0.558  0.0023  0.2484 -0.0619
  405SOL    HW1 1214   0.185   2.428   0.572 -1.1310 -1.5624  0.0190
  405SOL    HW2 1215   0.265   2.575   0.612  0.5053  0.3375  1.4164
  406SOL     OW 1216   0.023   1.602   3.008 -0.0257 -0.4887 -0.1117
  406SOL    HW1 1217   0.075   1.562   2.929 -1.0556 -0.7983  0.3329
  406SOL    HW2 1218   0.037   1.553   3.103 -1.2363 -0.0213 -0.5733
  407SOL     OW 1219   1.566   0.972   0.971 -0.2597  0.2632  0.0497
  407SOL    HW1 1220   1.611   0.933   0.885  0.6393 -0.0722 -0.8545
  407SOL    HW2 1221   1.472   1.011   0.947 -0.5121  1.5372 -3.7177
  408SOL     OW 1222   1.459   2.298   0.936  0.1399 -0.1417  0.3746
  408SOL    HW1 1223   1.542   2.308   0.871  1.5456 -1.1020 -1.5107
  408SOL    HW2 1224   1.455   2.374   1.007 -1.1435  0.3428 -0.3066
  409SOL     OW 1225   0.614   0.856   0.675 -0.0261  0.1596 -0.1843
  409SOL    HW1 1226   0.538   0.880   0.613  1.1789  0.5142 -1.0036
  409SOL    HW2 1227   0.636   0.757   0.672  0.3730 -0.5501 -1.1623
  410SOL     OW 1228   1.370   1.969   1.496  0.0456  0.5569  0.2463
  410SOL    HW1 1229   1.339   2.062   1.520 -0.8596 -1.1998  0.2271
  410SOL    HW2 1230   1.283   1.912   1.496  0.6438  3.5202  0.2689
  411SOL     OW 1231   2.403   1.843   0.071 -0.0118 -0.2509 -0.1934
  411SOL    HW1 1232   2.326   1.810   0.008  1.3586  0.7091 -0.6529
  411SOL    HW2 1233   2.479   1.893   0.020  1.9932  2.7875  1.4621
  412SOL     OW 1234   1.626   2.425   2.280 -0.5951 -0.2675  0.3861
  412SOL    HW1 1235   1.615   2.525   2.304 -2.3867  0.0967 -0.1596
  412SOL    HW2 1236   1.589   2.351   2.339  1.1583 -1.8338 -1.6772
  413SOL     OW 1237   3.041   0.277   2.870 -0.6924 -0.2862 -0.2558
  413SOL    HW1 1238   2.981   0.204   2.917  0.9891  0.2770 -1.8180
  413SOL    HW2 1239   3.142   0.271   2.883 -3.0393  2.4364 -0.1151
  414SOL     OW 1240   1.726   1.333   1.337  0.5932 -0.6026 -0.7134
  414SOL    HW1 1241   1.668   1.414   1.363  1.4123  0.8159  4.4517
  414SOL    HW2 1242   1.733   1.316   1.231  0.1907  2.3824  1.2284
  415SOL     OW 1243   0.242   2.259   0.697  0.4793 -0.3112  0.3846
  415SOL    HW1 1244   0.300   2.245   0.784  0.4313  2.6579  1.6912
  415SOL    HW2 1245   0.178   2.177   0.673  3.2716  1.3779 -1.0401
  416SOL     OW 1246   0.338   1.027   1.068 -0.0425 -0.6696  0.0935
  416SOL    HW1 1247   0.294   1.028   0.975  0.7016  0.6719  0.3315
  416SOL    HW2 1248   0.431   1.078   1.068  3.3923 -0.4482 -1.4581
  417SOL     OW 1249   2.181   2.344   1.877 -0.3128  0.1297  0.1534
  417SOL    HW1 1250   2.225   2.252   1.874 -3.2186  0.2889  0.0203
  417SOL    HW2 1251   2.091   2.338   1.922  0.2613 -1.7238  0.0504
  418SOL     OW 1252   1.134   0.525   1.363 -0.0109 -0.5358  0.3538
  418SOL    HW1 1253   1.049   0.476   1.353 -3.0856  0.5204  1.6700
  418SOL    HW2 1254   1.197   0.513   1.284 -1.6266 -0.1954  0.2857
  419SOL     OW 1255   0.952   0.369   2.985 -0.0097 -0.0663 -0.0826
  419SOL    HW1 1256   1.012   0.418   2.917 -0.5459  0.9162  0.7994
  419SOL    HW2 1257   0.910   0.282   2.945 -1.5903  0.1667 -0.0554
  420SOL     OW 1258   0.175   2.273   0.370  0.2697  0.5200 -0.3026
  420SOL    HW1 1259   0.161   2.231   0.276 -0.0701 -2.1500  1.8374
  420SOL    HW2 1260   0.095   2.239   0.435  0.4311 -3.6626 -0.0489
  421SOL     OW 1261   0.326   0.062   0.701  0.2092 -0.4629 -0.3110
  421SOL    HW1 1262   0.368   0.009   0.626 -0.0151  2.8687 -2.9175
  421SOL    HW2 1263   0.395   0.125   0.743  0.0125  0.7852 -2.6684
  422SOL     OW 1264   0.930   2.518   1.030  0.4524  0.2561  0.3523
  422SOL    HW1 1265   0.931   2.605   0.974  1.3260 -1.5215 -1.7844
  422SOL    HW2 1266   0.972   2.526   1.120 -0.8413 -1.0547 -1.3024
  423SOL     OW 1267   0.046   0.703   1.167 -0.0113  0.1924 -0.9671
  423SOL    HW1 1268   0.044   0.672   1.262  0.9035  1.8472  0.1275
  423SOL    HW2 1269  -0.045   0.690   1.121  2.4530 -2.7759  0.2693
  424SOL     OW 1270   0.988   2.144   2.236 -0.2385 -0.0369  0.0309
  424SOL    HW1 1271   0.931   2.167   2.151  1.6320 -0.8457  0.0758
  424SOL    HW2 1272   0.935   2.161   2.325 -1.3496 -1.6150 -0.7195
  425SOL     OW 1273   2.027   1.435   1.118 -0.7305  0.2624 -0.5772
  425SOL    HW1 1274   2.037   1.331   1.097 -0.4217  0.4913  1.1238
  425SOL    HW2 1275   2.048   1.503   1.040  1.6979  0.0364 -4.0454
  426SOL     OW 1276   1.522   1.541   1.393  0.1998  0.2702 -0.6461
  426SOL    HW1 1277   1.491   1.628   1.340  2.0440 -0.5364  1.2179
  426SOL    HW2 1278   1.507   1.549   1.496  2.2882 -0.0681  0.1561
  427SOL     OW 1279   1.956   2.327   2.054  0.0463  0.6145 -0.3015
  427SOL    HW1 1280   1.985   2.268   2.134  1.0181 -0.5785  1.1654
  427SOL    HW2 1281   1.961   2.425   2.073 -0.4297 -1.6152  0.8190
  428SOL     OW 1282   0.930   3.085   0.048  0.3471  0.0746  0.3241
  428SOL    HW1 1283   0.960   3.165   0.110  0.7292 -1.6459 -1.6250
  428SOL    HW2 1284   0.986   2.998   0.063  0.2743 -0.3492  1.2118
  429SOL     OW 1285   1.267   0.056   0.215  0.0303 -0.2164  0.4010
  429SOL    HW1 1286   1.353   0.114   0.212  0.9324  0.9042 -2.7846
  429SOL    HW2 1287   1.266  -0.018   0.141  1.1879  2.9767 -0.0814
  430SOL     OW 1288   2.770   1.482   0.327  0.0902 -0.0213  0.4315
  430SOL    HW1 1289   2.761   1.540   0.244 -1.9890  1.9134 -1.3457
  430SOL    HW2 1290   2.779   1.546   0.409  2.0765  0.2682 -1.6614
  431SOL     OW 1291   2.079   1.621   0.929  0.3578 -0.1983 -0.1299
  431SOL    HW1 1292   2.121   1.703   0.977 -1.3741 -1.2479  0.9211
  431SOL    HW2 1293   1.990   1.643   0.876 -1.7463 -0.4977 -0.0795
  432SOL     OW 1294   2.915   2.242   1.248 -0.2514  0.5359 -0.3618
  432SOL    HW1 1295   2.853   2.161   1.261 -3.9012 -0.2712 -1.4088
  432SOL    HW2 1296   2.932   2.295   1.335  2.2491  2.4477 -0.7000
  433SOL     OW 1297   1.837   0.266   0.816  0.2279 -0.0864 -0.5100
  433SOL    HW1 1298   1.743   0.264   0.854 -0.9158  0.1610  1.9661
  433SOL    HW2 1299   1.907   0.249   0.891 -0.3575 -1.4128  0.0135
  434SOL     OW 1300   1.493   0.235   0.734  0.2552 -0.1468  0.0550
  434SOL    HW1 1301   1.474   0.321   0.689 -1.1604 -2.2977 -1.4159
  434SOL    HW2 1302   1.526   0.246   0.837  0.0765 -0.6288 -0.2089
  435SOL     OW 1303   1.433   1.450   2.072  0.0448  0.4525  0.3613
  435SOL    HW1 1304   1.369   1.433   2.153 -1.4742  0.1207  0.9964
  435SOL    HW2 1305   1.392   1.520   2.005  0.8581  3.7531 -1.1258
  436SOL     OW 1306   1.662   2.674   2.412 -0.0571 -0.0781 -0.6977
  436SOL    HW1 1307   1.663   2.773   2.451 -0.8491 -1.3381 -0.4531
  436SOL    HW2 1308   1.605   2.616   2.477 -2.1544  2.2341 -2.7289
  437SOL     OW 1309   0.986   2.972   0.882 -0.0976 -0.5675 -0.0004
  437SOL    HW1 1310   0.923   3.056   0.885 -0.3054 -0.6007  2.5504
  437SOL    HW2 1311   1.048   2.965   0.965 -0.2716  0.0603  2.1018
  438SOL     OW 1312   0.991   2.516   1.319 -0.1516 -0.1531 -0.0479
  438SOL    HW1 1313   1.068   2.574   1.351 -0.3034 -1.3790  1.0769
  438SOL    HW2 1314   1.017   2.415   1.339  1.5514  0.2223  0.5362
  439SOL     OW 1315   0.704   1.683   1.051 -0.1858 -0.2220 -0.2364
  439SOL    HW1 1316   0.770   1.765   1.049  0.5276 -0.9897 -0.3432
  439SOL    HW2 1317   0.616   1.700   1.102  0.7681 -0.5380  1.0006
  440SOL     OW 1318   0.961   2.352   1.978 -0.1669  0.4640  0.3137
  440SOL    HW1 1319   0.959   2.442   1.921  1.8064  2.4046  0.0628
  440SOL    HW2 1320   0.993   2.273   1.922 -1.0722  0.8957 -0.3498
  441SOL     OW 1321   0.345   2.803   1.327 -0.6321 -0.6093  0.2444
  441SOL    HW1 1322   0.410   2.723   1.309  0.9379 -0.5055 -2.6694
  441SOL    HW2 1323   0.328   2.857   1.241  0.2919 -0.3239  1.9580
  442SOL     OW 1324   2.233   0.689   2.560  0.1485 -0.1133 -0.0477
  442SOL    HW1 1325   2.245   0.613   2.490 -0.5376  2.0219 -0.7911
  442SOL    HW2 1326   2.159   0.755   2.527  0.4868  2.2424  0.3814
  443SOL     OW 1327   1.287   2.543   2.208 -0.6037  0.8905 -0.1591
  443SOL    HW1 1328   1.285   2.455   2.259 -1.0615  0.4646 -0.5463
  443SOL    HW2 1329   1.254   2.620   2.268 -0.7476  1.1628 -0.8040
  444SOL     OW 1330   0.956   1.193   1.462 -0.1873 -0.1661  0.5864
  444SOL    HW1 1331   1.026   1.151   1.523 -1.0425 -0.6362 -0.8103
  444SOL    HW2 1332   0.984   1.277   1.412 -1.5502 -1.7279  3.2269
  445SOL     OW 1333   0.151   2.184   2.071 -0.1002  0.7509  0.7863
  445SOL    HW1 1334   0.160   2.083   2.082 -0.9270  1.6722  0.9292
  445SOL    HW2 1335   0.107   2.238   2.153 -1.3292  2.4262 -0.5871
  446SOL     OW 1336   0.103   1.964   2.413 -0.3580 -0.5789 -0.1593
  446SOL    HW1 1337   0.067   2.060   2.420  1.2056 -1.1588  1.7281
  446SOL    HW2 1338   0.091   1.921   2.314  0.9210  0.2647 -0.5571
  447SOL     OW 1339   1.300   1.642   1.937 -0.1356 -0.1435 -0.4078
  447SOL    HW1 1340   1.247   1.701   1.870  0.0594 -0.2916 -1.7009
  447SOL    HW2 1341   1.390   1.686   1.973  0.0946 -0.7187  1.8080
  448SOL     OW 1342   0.154   1.483   1.999  0.0513 -0.0118 -0.0264
  448SOL    HW1 1343   0.162   1.571   1.940  1.0626 -0.0635 -1.2248
  448SOL    HW2 1344   0.089   1.492   2.073 -0.0531 -0.3724 -0.6566
  449SOL     OW 1345   1.873   3.003   0.846 -0.4271 -0.8137 -0.1435
  449SOL    HW1 1346   1.878   3.018   0.943  2.1750 -2.8038 -0.7311
  449SOL    HW2 1347   1.928   2.921   0.816 -2.5477  1.5616  0.8632
  450SOL     OW 1348   2.211   1.488   0.683  0.4375 -0.1020  0.1420
  450SOL    HW1 1349   2.209   1.519   0.780  2.1401  0.4598 -1.0531
  450SOL    HW2 1350   2.257   1.556   0.624  0.1834 -1.7691  0.7377
  451SOL     OW 1351   1.394   2.979   1.480  0.3339  0.3730  0.5194
  451SOL    HW1 1352   1.329   3.051   1.516  1.4250 -1.4288 -0.6099
  451SOL    HW2 1353   1.439   2.912   1.548 -0.0991 -2.7612 -2.1184
  452SOL     OW 1354   2.708   2.296   2.296  0.2602  0.2349 -0.3377
  452SOL    HW1 1355   2.641   2.378   2.300  2.0825  0.4360  1.4416
  452SOL    HW2 1356   2.741   2.271   2.392  0.7629  1.4475 -0.0340
  453SOL     OW 1357   2.468   2.671   3.097 -0.5816 -0.4869  0.5153
  453SOL    HW1 1358   2.364   2.683   3.113 -1.9344  0.5245  2.5938
  453SOL    HW2 1359   2.485   2.582   3.043 -1.2809 -2.3060 -3.1460
  454SOL     OW 1360   0.896   1.171   2.028  0.3309  0.0728 -0.2386
  454SOL    HW1 1361   0.866   1.177   1.929 -1.2175  0.5732 -0.2019
  454SOL    HW2 1362   0.985   1.225   2.048 -0.4547  0.1426 -3.0953
  455SOL     OW 1363   0.723   2.612   2.816 -0.6933 -0.3342  0.4043
  455SOL    HW1 1364   0.817   2.654   2.813 -4.2001 -0.8970  1.7597
  455SOL    HW2 1365   0.712   2.532   2.882  2.7921  0.7027 -2.0302
  456SOL     OW 1366   0.317   1.937   0.226 -0.0556 -0.0403 -0.1124
  456SOL    HW1 1367   0.417   1.966   0.221  0.2665  0.0803  0.8581
  456SOL    HW2 1368   0.250   2.005   0.184  0.5474 -2.2704 -3.0543
  457SOL     OW 1369   0.431   2.639   0.650 -0.0901  0.1983  0.2762
  457SOL    HW1 1370   0.463   2.675   0.559  2.5879 -1.1635 -0.6555
  457SOL    HW2 1371   0.505   2.657   0.723  1.0768  0.6888 -1.0436
  458SOL     OW 1372   2.940   0.032   1.271  0.2744  0.2059 -0.7172
  458SOL    HW1 1373   3.003   0.115   1.247  0.8718  0.2992 -0.9134
  458SOL    HW2 1374   2.920  -0.029   1.188 -0.3751 -2.9192  1.3479
  459SOL     OW 1375   2.118   2.508   0.736  0.5663  0.5210 -0.0719
  459SOL    HW1 1376   2.189   2.521   0.807  0.3616  0.6948 -1.9639
  459SOL    HW2 1377   2.165   2.501   0.644  2.8670 -2.4118  1.3817
  460SOL     OW 1378   1.189   2.053   2.798 -1.1107 -0.2492  0.0273
  460SOL    HW1 1379   1.202   2.091   2.700 -0.6740 -1.8748 -0.9747
  460SOL    HW2 1380   1.211   1.952   2.798 -2.9605 -0.0939  2.7308
  461SOL     OW 1381   0.469   2.147   2.757 -0.1310 -0.0276 -0.6501
  461SOL    HW1 1382   0.463   2.079   2.681 -1.2227  0.2597  2.3874
  461SOL    HW2 1383   0.480   2.105   2.847 -1.2650  0.6990 -1.3925
  462SOL     OW 1384   0.944   1.026   1.724 -0.3782  0.3113  0.0838
  462SOL    HW1 1385   0.950   0.953   1.653  0.6569 -0.5551  1.1842
  462SOL    HW2 1386   0.874   1.097   1.707  0.5637  0.3395 -1.5538
  463SOL     OW 1387   0.431   0.785   0.480  0.4315  0.4695  0.2000
  463SOL    HW1 1388   0.470   0.692   0.455 -1.6175 -0.1646  0.2555
  463SOL    HW2 1389   0.328   0.783   0.495 -1.0480 -0.8788 -1.3418
  464SOL     OW 1390   0.546   2.338   2.281  0.1570  0.6918  0.3892
  464SOL    HW1 1391   0.482   2.418   2.295  0.8185  0.1528 -2.6402
  464SOL    HW2 1392   0.567   2.324   2.179  0.5689  0.6128  1.5640
  465SOL     OW 1393   0.246   1.002   0.793 -0.0995 -0.3861 -0.5060
  465SOL    HW1 1394   0.148   1.015   0.761 -1.9562 -1.4443  1.5498
  465SOL    HW2 1395   0.274   0.903   0.773  1.6598 -0.7186  2.4067
  466SOL     OW 1396   1.322   1.142   0.905  0.1067 -0.3466  0.9233
  466SOL    HW1 1397   1.368   1.233   0.903 -0.4980 -0.4333 -0.1945
  466SOL    HW2 1398   1.237   1.141   0.965 -0.8155  1.9343  1.5274
  467SOL     OW 1399   0.644   0.482   2.570  0.0576  0.1123 -0.2803
  467SOL    HW1 1400   0.556   0.529   2.564  2.3993  1.9130 -0.4845
  467SOL    HW2 1401   0.634   0.384   2.599  0.2931 -0.8023  1.4741
  468SOL     OW 1402   0.449   2.284   1.571 -0.7576 -0.0415 -0.3170
  468SOL    HW1 1403   0.544   2.319   1.590 -2.0831  0.8638 -0.9931
  468SOL    HW2 1404   0.438   2.261   1.471 -0.7099  1.8438 -0.9096
  469SOL     OW 1405   1.429   1.308   1.262  0.2226  0.2294 -0.4143
  469SOL    HW1 1406   1.510   1.298   1.202 -0.1093 -1.9284  2.1035
  469SOL    HW2 1407   1.432   1.396   1.322 -0.9219  0.5942  1.9071
  470SOL     OW 1408   2.986   1.829   0.812  0.1894 -0.3718  0.0302
  470SOL    HW1 1409   3.060   1.895   0.783  0.1454 -1.1780 -0.8244
  470SOL    HW2 1410   3.002   1.780   0.903  1.1294 -0.4007  3.0783
  471SOL     OW 1411   2.684   1.388   2.193 -0.3586 -0.3355  0.1174
  471SOL    HW1 1412   2.687   1.285   2.193  1.4859 -1.9696  1.5789
  471SOL    HW2 1413   2.723   1.434   2.280  1.7858 -0.1307  0.7424
  472SOL     OW 1414   1.256   2.418   0.037 -0.8399  0.3676  0.3471
  472SOL    HW1 1415   1.343   2.410   0.093 -2.7918  0.6157  1.6965
  472SOL    HW2 1416   1.172   2.377   0.086 -0.9308 -1.6924 -0.0140
  473SOL     OW 1417   1.069   1.503   1.004  0.0278  0.3767  0.1026
  473SOL    HW1 1418   0.981   1.488   0.951 -1.4998  0.8416  0.6441
  473SOL    HW2 1419   1.086   1.432   1.079  0.3600  1.8206 -0.4032
  474SOL     OW 1420   0.626   1.284   0.472  0.1005 -0.4740  0.6235
  474SOL    HW1 1421   0.560   1.206   0.456  4.2358 -2.6136 -1.4122
  474SOL    HW2 1422   0.709   1.244   0.522  0.1595 -2.0589  2.5145
  475SOL     OW 1423   2.867   0.033   0.814 -0.6365  0.4243  0.1122
  475SOL    HW1 1424   2.924   0.119   0.830  0.4165 -0.1656  2.5300
  475SOL    HW2 1425   2.769   0.038   0.849 -3.0605 -1.9528 -2.0345
  476SOL     OW 1426   0.965   3.039   1.811 -0.4956  0.0128  0.0847
  476SOL    HW1 1427   1.064   3.065   1.814 -3.3254  0.0788 -0.1081
  476SOL    HW2 1428   0.915   3.061   1.724 -1.9000 -0.4438  2.0954
  477SOL     OW 1429   1.431   0.324   2.449  0.0303 -0.0078  0.1465
  477SOL    HW1 1430   1.436   0.351   2.549  2.0587  1.7234  0.8221
  477SOL    HW2 1431   1.499   0.247   2.434 -0.0088  0.1145  0.2249
  478SOL     OW 1432   2.257   1.937   0.302 -0.4415 -0.6685 -0.0800
  478SOL    HW1 1433   2.220   1.844   0.338  1.8854 -0.8308  0.5182
  478SOL    HW2 1434   2.343   1.933   0.250  0.4841  1.7962  0.0073
  479SOL     OW 1435   1.283   0.958   2.856  0.4095 -0.5729  0.1942
  479SOL    HW1 1436   1.355   0.994   2.786 -0.1091 -0.5924 -1.9576
  479SOL    HW2 1437   1.234   0.870   2.824 -0.1057 -2.3932 -1.4076
  480SOL     OW 1438   2.680   2.307   0.431  0.6106  0.7487 -0.0695
  480SOL    HW1 1439   2.734   2.217   0.427  2.1608  0.9077 -0.4672
  480SOL    HW2 1440   2.576   2.283   0.422  0.7106 -1.0086 -2.0247
  481SOL     OW 1441   0.957   1.143   0.788 -0.1691 -0.6563  0.4668
  481SOL    HW1 1442   0.967   1.235   0.737  0.6893  0.8644 -1.0777
  481SOL    HW2 1443   0.994   1.142   0.882 -0.3433  1.2966 -0.0940
  482SOL     OW 1444   1.608   0.287   2.037  0.2107 -0.0329  0.1069
  482SOL    HW1 1445   1.621   0.383   1.999  0.2057  1.5946  0.7705
  482SOL    HW2 1446   1.690   0.246   2.083  0.8307  1.6243 -1.6066
  483SOL     OW 1447   0.114   2.385   1.217 -0.6643 -0.1150 -0.2225
  483SOL    HW1 1448   0.136   2.461   1.287  0.3125 -0.4313  0.9505
  483SOL    HW2 1449   0.125   2.410   1.120  0.7655 -2.2643 -2.1053
  484SOL     OW 1450   1.720   1.061   1.481 -0.1216  0.3643  0.1995
  484SOL    HW1 1451   1.815   1.033   1.463 -2.2151  0.6167 -0.9965
  484SOL    HW2 1452   1.702   1.163   1.470  0.5703 -1.2176  0.0310
  485SOL     OW 1453   0.757   0.739   1.973 -0.5477 -0.1998 -0.2669
  485SOL    HW1 1454   0.679   0.752   1.911 -0.8840  1.6158  0.6106
  485SOL    HW2 1455   0.845   0.721   1.921  0.0533 -1.3086 -1.5723
  486SOL     OW 1456   0.899   1.874   2.438 -0.4815  0.2392 -0.0194
  486SOL    HW1 1457   0.884   1.866   2.538 -0.5907  1.1840 -0.2305
  486SOL    HW2 1458   0.885   1.977   2.409  0.8181  2.0708 -1.1543
  487SOL     OW 1459   1.746   1.582   1.059  0.1321  0.2346  0.4912
  487SOL    HW1 1460   1.815   1.516   1.102  1.0097  0.0149 -2.2800
  487SOL    HW2 1461   1.795   1.634   0.981  0.6325  0.7018  0.6209
  488SOL     OW 1462   2.929   0.811   2.274 -0.3772 -1.0764  0.2921
  488SOL    HW1 1463   3.008   0.741   2.277  0.7129  0.0669  0.5457
  488SOL    HW2 1464   2.846   0.781   2.326 -0.1873 -1.2613 -1.1107
  489SOL     OW 1465   2.829   0.347   1.297 -0.7825  0.5025  0.0452
  489SOL    HW1 1466   2.810   0.302   1.389 -0.2928 -1.3050  0.6999
  489SOL    HW2 1467   2.897   0.296   1.236  1.2012  0.9873  1.0906
  490SOL     OW 1468   1.479   2.985   2.812 -0.1010 -0.4321  0.3534
  490SOL    HW1 1469   1.497   2.883   2.819  0.3167 -0.3395  1.1736
  490SOL    HW2 1470   1.441   3.016   2.719  1.1139 -1.8433 -0.9717
  491SOL     OW 1471   1.797   1.449   2.713  0.4293 -0.5013  0.3353
  491SOL    HW1 1472   1.739   1.432   2.801 -1.4396  0.8582 -0.9608
  491SOL    HW2 1473   1.888   1.500   2.737  1.8575 -1.4247 -2.0932
  492SOL     OW 1474   0.632   2.091   0.599 -0.4630 -0.1112  0.1486
  492SOL    HW1 1475   0.663   2.122   0.694 -2.2987  0.2631 -0.6831
  492SOL    HW2 1476   0.539   2.142   0.568 -2.4309  1.2073 -0.0060
  493SOL     OW 1477   0.405   1.331   2.082  0.3097  0.0508 -0.3451
  493SOL    HW1 1478   0.312   1.365   2.060  0.4947 -0.5632  1.6607
  493SOL    HW2 1479   0.406   1.227   2.086  1.7648 -0.4457 -1.8641
  494SOL     OW 1480   2.714   2.640   0.132 -0.2201 -0.0447  0.2970
  494SOL    HW1 1481   2.703   2.607   0.233 -1.6075 -1.2032 -0.4830
  494SOL    HW2 1482   2.619   2.649   0.084 -2.2302  0.3111 -0.2770
  495SOL     OW 1483   2.519   2.803   2.642 -0.1776  0.0471 -0.0463
  495SOL    HW1 1484   2.543   2.702   2.656 -0.6629 -2.0242  0.3967
  495SOL    HW2 1485   2.588   2.849   2.586 -0.1290  2.7305 -0.1941
  496SOL     OW 1486   1.954   2.305   0.799  0.2367  0.3901 -0.3232
  496SOL    HW1 1487   1.978   2.278   0.895 -0.8479  1.4396  0.8139
  496SOL    HW2 1488   2.017   2.378   0.767 -1.1399 -3.4606 -0.5550
  497SOL     OW 1489   0.294   2.995   2.365 -0.8188  0.2076  0.3073
  497SOL    HW1 1490   0.231   3.077   2.384 -3.3312  2.4405 -0.0669
  497SOL    HW2 1491   0.342   2.996   2.272 -0.4410 -0.8374 -3.5698
  498SOL     OW 1492   1.172   1.309   1.170  0.3873  0.5110  0.9714
  498SOL    HW1 1493   1.272   1.308   1.203 -2.3089 -0.1390  2.7428
  498SOL    HW2 1494   1.118   1.341   1.252  0.6820  1.9328  0.6887
  499SOL     OW 1495   0.606   1.774   0.412 -0.1327  0.9064 -0.5073
  499SOL    HW1 1496   0.570   1.709   0.341 -1.3289  1.4605 -1.6948
  499SOL    HW2 1497   0.688   1.834   0.381  0.9542 -0.9799 -1.0709
  500SOL     OW 1498   1.491   2.774   1.653  0.4157  0.7272  0.2001
  500SOL    HW1 1499   1.512   2.736   1.747 -0.2366  1.9139  0.7259
  500SOL    HW2 1500   1.483   2.703   1.585  2.4702 -0.1195 -1.8798
  501SOL     OW 1501   0.781   1.233   2.268 -0.0373 -0.5800  0.2682
  501SOL    HW1 1502   0.712   1.174   2.314  1.9297 -1.9143  0.3896
  501SOL    HW2 1503   0.794   1.225   2.165  0.4564  0.9374 -2.0109
  502SOL     OW 1504   2.555   0.915   1.800  0.0562 -0.2319  0.1825
  502SOL    HW1 1505   2.639   0.925   1.735  0.3975  1.5260 -1.0287
  502SOL    HW2 1506   2.526   0.819   1.809  2.0449  3.9433 -0.8008
  503SOL     OW 1507   1.242   0.131   0.702  0.2445 -0.0156 -0.5169
  503SOL    HW1 1508   1.177   0.206   0.732 -0.0723  0.1907  1.4859
  503SOL    HW2 1509   1.343   0.156   0.707 -2.5800  0.8640 -0.7038
  504SOL     OW 1510   2.969   2.358   1.482  0.3027  0.1088 -0.1380
  504SOL    HW1 1511   2.915   2.411   1.556  0.5281  0.0134  0.7651
  504SOL    HW2 1512   3.068   2.350   1.496  1.8166 -1.4233  0.7445
  505SOL     OW 1513   2.327   1.143   1.522 -0.4998 -0.3797  0.1029
  505SOL    HW1 1514   2.309   1.196   1.436  2.0212 -0.9546  0.0158
  505SOL    HW2 1515   2.416   1.166   1.569  0.0659  1.1076 -4.6708
  506SOL     OW 1516   1.945   0.225   1.865  0.2939 -0.5120  0.1585
  506SOL    HW1 1517   2.037   0.195   1.845 -3.1329 -0.6288 -1.9707
  506SOL    HW2 1518   1.947   0.318   1.909  2.7031 -1.9561  1.8227
  507SOL     OW 1519   0.490   0.756   2.167  0.0819 -0.2775  0.3240
  507SOL    HW1 1520   0.444   0.699   2.098  2.4392 -0.7139  0.4959
  507SOL    HW2 1521   0.562   0.705   2.224  2.1375 -0.8329  2.3846
  508SOL     OW 1522   0.315   1.652   0.796 -0.6778  0.3175  0.5490
  508SOL    HW1 1523   0.393   1.698   0.737 -1.4008  0.2109 -0.4779
  508SOL    HW2 1524   0.294   1.705   0.883  1.9157  4.6139 -0.3090
  509SOL     OW 1525   1.282   1.206   2.477  0.1406  0.0949  0.0876
  509SOL    HW1 1526   1.269   1.106   2.467  0.9505 -0.2077 -0.7652
  509SOL    HW2 1527   1.192   1.254   2.483  1.2746  4.0414 -2.2752
  510SOL     OW 1528   1.367   2.049   2.215 -0.6707 -0.2780  0.4267
  510SOL    HW1 1529   1.368   2.088   2.120 -1.4142  3.9764  1.4976
  510SOL    HW2 1530   1.288   1.982   2.228  0.9211  1.0003  0.9452
  511SOL     OW 1531   3.023   2.641   1.364 -0.4861 -0.0486 -0.2424
  511SOL    HW1 1532   3.044   2.688   1.274  1.6009  0.2506  1.6408
  511SOL    HW2 1533   2.946   2.573   1.361 -1.6424  0.8812  0.0580
  512SOL     OW 1534   2.339   0.433   1.401 -0.7988  0.0880 -0.0823
  512SOL    HW1 1535   2.244   0.447   1.364 -0.3039  0.3757  2.2971
  512SOL    HW2 1536   2.398   0.383   1.332  0.4636  1.5413 -0.1277
  513SOL     OW 1537   2.533   2.113   0.885 -0.4264 -0.5417  0.2173
  513SOL    HW1 1538   2.522   2.200   0.824 -0.7694  1.8391  0.0931
  513SOL    HW2 1539   2.604   2.052   0.844 -0.3831 -0.3763 -2.2938
  514SOL     OW 1540   0.583   2.756   0.442  0.4163 -0.2117  0.4071
  514SOL    HW1 1541   0.582   2.762   0.340 -0.6084 -0.2364  1.1059
  514SOL    HW2 1542   0.621   2.844   0.485  2.7222  3.4808 -1.6930
  515SOL     OW 1543   1.955   1.331   2.392 -0.1493 -0.0724  0.3910
  515SOL    HW1 1544   1.950   1.313   2.289 -1.2846  1.5034 -2.5656
  515SOL    HW2 1545   1.878   1.286   2.446 -0.7616  0.5319  0.7599
  516SOL     OW 1546   0.262   0.172   1.968  0.4633 -0.1215 -0.3217
  516SOL    HW1 1547   0.351   0.206   1.933 -0.8870 -0.3081  0.8746
  516SOL    HW2 1548   0.188   0.145   1.899 -1.4828  1.3364 -0.3659
  517SOL     OW 1549   0.483   0.249   1.096 -0.2696 -0.1587  0.3516
  517SOL    HW1 1550   0.557   0.188   1.128  1.1608  0.8539  0.1312
  517SOL    HW2 1551   0.393   0.215   1.129 -1.6198 -1.4197 -1.0313
  518SOL     OW 1552   2.188   3.028   1.832 -0.5920  0.1304  0.1989
  518SOL    HW1 1553   2.208   3.130   1.838  0.1207  0.5494  0.0461
  518SOL    HW2 1554   2.223   2.978   1.746 -0.3753 -0.5837 -2.0814
  519SOL     OW 1555   2.328   2.246   2.540 -0.3780  0.3141  0.0978
  519SOL    HW1 1556   2.274   2.203   2.618  0.3152 -1.0236  0.0977
  519SOL    HW2 1557   2.328   2.350   2.542 -1.8550 -0.3483 -0.7946
  520SOL     OW 1558   1.776   2.651   1.658 -0.1585  0.2720 -0.2246
  520SOL    HW1 1559   1.732   2.610   1.742 -0.7300  1.9210 -1.2413
  520SOL    HW2 1560   1.879   2.621   1.651  2.8932  0.1430  0.6151
  521SOL     OW 1561   0.652   0.071   2.127 -0.0381 -0.0718 -0.4672
  521SOL    HW1 1562   0.591  -0.003   2.090 -0.1515  2.4856 -1.0890
  521SOL    HW2 1563   0.673   0.068   2.229 -3.1335 -1.6882  3.5026
  522SOL     OW 1564   0.239   1.908   1.501 -0.3819  0.4273 -0.5378
  522SOL    HW1 1565   0.281   1.972   1.573  0.4427  1.0983  0.1366
  522SOL    HW2 1566   0.224   1.959   1.414  0.9681  2.3657 -0.1811
  523SOL     OW 1567   2.252   2.920   1.564 -0.3051 -0.2572 -0.1323
  523SOL    HW1 1568   2.335   2.883   1.516 -3.3973 -2.9229 -3.7047
  523SOL    HW2 1569   2.165   2.867   1.532  0.7306 -0.2553 -0.3560
  524SOL     OW 1570   0.223   2.745   2.758 -0.2887 -0.0780 -0.4534
  524SOL    HW1 1571   0.190   2.824   2.817 -0.1331 -2.8359 -1.5135
  524SOL    HW2 1572   0.326   2.746   2.757  0.5177  3.4866  0.2950
  525SOL     OW 1573   2.172   2.102   0.520  0.7926 -0.1145 -0.0021
  525SOL    HW1 1574   2.150   2.044   0.610  0.1656 -2.6167  1.7492
  525SOL    HW2 1575   2.205   2.045   0.442 -0.8643  0.5171 -0.2096
  526SOL     OW 1576   0.383   1.530   1.715 -0.3000  0.4519  0.0698
  526SOL    HW1 1577   0.451   1.575   1.772  1.4402  0.3282  0.6131
  526SOL    HW2 1578   0.380   1.427   1.740  1.2988 -0.4789 -0.4078
  527SOL     OW 1579   1.155   3.004   1.105  0.0064 -0.4840  0.2741
  527SOL    HW1 1580   1.204   2.921   1.134  0.3642 -2.5713 -0.8858
  527SOL    HW2 1581   1.217   3.088   1.102 -2.0759  2.9832  0.3797
  528SOL     OW 1582   1.284   2.435   0.620  0.1567 -0.0083  0.6090
  528SOL    HW1 1583   1.333   2.352   0.642 -0.9964  3.2864 -1.4786
  528SOL    HW2 1584   1.324   2.523   0.670  0.5260  0.6817  2.5511
  529SOL     OW 1585   1.854   1.721   0.826 -0.1230  0.2719  0.4919
  529SOL    HW1 1586   1.783   1.714   0.751  0.1658 -0.1923 -0.8121
  529SOL    HW2 1587   1.885   1.822   0.843  1.3571  1.6181  2.0318
  530SOL     OW 1588   0.404   2.515   0.170 -0.9446 -0.2157  0.3881
  530SOL    HW1 1589   0.443   2.478   0.262  1.5131 -0.0060 -0.1327
  530SOL    HW2 1590   0.409   2.442   0.099 -1.4912 -0.1640  0.7127
  531SOL     OW 1591   1.839   1.018   1.052  0.6219  0.6042  0.4308
  531SOL    HW1 1592   1.865   1.018   0.951  0.7126 -3.7592 -0.1106
  531SOL    HW2 1593   1.737   1.000   1.061  0.5731 -1.5210 -2.0727
  532SOL     OW 1594   0.400   1.197   0.679 -0.2361 -0.2873 -0.0694
  532SOL    HW1 1595   0.430   1.150   0.593  2.9863  2.2860 -0.4974
  532SOL    HW2 1596   0.337   1.135   0.738 -0.0561 -1.6479  1.7912
  533SOL     OW 1597   1.825   0.020   2.617 -0.5458  0.2152 -0.6698
  533SOL    HW1 1598   1.929   0.030   2.627  0.7117  0.7971 -0.5712
  533SOL    HW2 1599   1.778   0.108   2.641  3.0631 -0.0463 -1.4315
  534SOL     OW 1600   0.192   0.180   1.550  0.0201  0.0241 -0.0920
  534SOL    HW1 1601   0.253   0.248   1.510 -1.8628 -1.5074  0.3867
  534SOL    HW2 1602   0.098   0.217   1.547  0.7215  1.1425  1.6294
  535SOL     OW 1603   1.877   0.397   0.142 -0.4487  0.2648 -0.3091
  535SOL    HW1 1604   1.926   0.483   0.186 -1.1271  0.3095 -2.2023
  535SOL    HW2 1605   1.807   0.352   0.196  4.0382  3.3688  1.6492
  536SOL     OW 1606   1.223   2.495   0.963 -0.2645 -0.1395  0.8579
  536SOL    HW1 1607   1.240   2.446   0.871 -0.6269  1.2923 -0.5000
  536SOL    HW2 1608   1.124   2.515   0.982 -1.0190  2.7451  0.3318
  537SOL     OW 1609   0.874   0.253   2.300  0.0086  0.1500 -0.5054
  537SOL    HW1 1610   0.852   0.332   2.229  0.5080  0.5459 -1.7772
  537SOL    HW2 1611   0.855   0.155   2.268 -0.5948  0.2779  0.1089
  538SOL     OW 1612   1.723   2.248   1.630  0.1775 -0.3274 -0.0760
  538SOL    HW1 1613   1.656   2.204   1.563 -0.4627  0.3985 -0.7198
  538SOL    HW2 1614   1.781   2.315   1.585 -1.7238 -2.1060 -3.3633
  539SOL     OW 1615   0.147   1.550   2.771  0.5037  0.2244 -0.4858
  539SOL    HW1 1616   0.063   1.554   2.711 -0.2183 -2.2474  1.8883
  539SOL    HW2 1617   0.213   1.625   2.769  0.3043 -0.7706 -0.9322
  540SOL     OW 1618   2.643   1.790   2.142  0.2118 -0.0126  0.2933
  540SOL    HW1 1619   2.612   1.703   2.100  2.3646  0.1150 -2.9539
  540SOL    HW2 1620   2.672   1.862   2.077 -1.7961  0.5637  2.0653
  541SOL     OW 1621   0.416   2.302   3.071 -0.1813 -0.4828 -0.0790
  541SOL    HW1 1622   0.455   2.208   3.090 -2.0076 -1.5213 -1.4765
  541SOL    HW2 1623   0.332   2.284   3.011 -0.3216  0.7419 -0.0315
  542SOL     OW 1624   2.192   2.577   0.456  0.2804  0.6984 -0.0892
  542SOL    HW1 1625   2.180   2.667   0.413 -0.2855 -2.0753  2.0331
  542SOL    HW2 1626   2.115   2.510   0.439 -0.8345  0.6848  1.3283
  543SOL     OW 1627   1.109   1.804   1.750 -0.2456  0.5327 -0.2092
  543SOL    HW1 1628   1.087   1.804   1.850  1.6648 -0.2008 -1.9119
  543SOL    HW2 1629   1.025   1.838   1.698 -3.9554 -0.8171 -0.2220
  544SOL     OW 1630   0.844   0.459   0.126  0.0194 -0.5052 -0.7117
  544SOL    HW1 1631   0.847   0.379   0.192 -2.2840 -0.0220  1.6385
  544SOL    HW2 1632   0.887   0.437   0.035  0.4701 -0.1953  1.3125
  545SOL     OW 1633   1.144   1.751   0.660 -0.0655  0.3955 -0.4544
  545SOL    HW1 1634   1.235   1.737   0.702 -1.2660 -1.7319 -0.8938
  545SOL    HW2 1635   1.148   1.759   0.556  0.1054 -0.2903 -1.7361
  546SOL     OW 1636   2.731   1.583   0.034 -0.1013 -0.0089 -0.3319
  546SOL    HW1 1637   2.775   1.578  -0.065 -1.6090 -2.3485  0.3541
  546SOL    HW2 1638   2.644   1.536   0.022  1.3200  1.7441 -0.8920
  547SOL     OW 1639   0.481   3.047   2.717  0.2725  0.0078  0.3236
  547SOL    HW1 1640   0.486   2.985   2.636 -3.5933  3.9864  0.0067
  547SOL    HW2 1641   0.496   3.001   2.809  0.5427  0.5608  2.8948
  548SOL     OW 1642   2.069   0.770   3.038 -0.0915 -0.3376  0.7709
  548SOL    HW1 1643   1.968   0.750   3.056  1.4554  2.1481 -1.4099
  548SOL    HW2 1644   2.084   0.877   3.022 -1.6350  1.6351 -1.9866
  549SOL     OW 1645   0.563   0.455   0.071  0.4102 -0.1583 -0.2673
  549SOL    HW1 1646   0.535   0.515  -0.005  0.8158 -0.8422  0.0235
  549SOL    HW2 1647   0.663   0.457   0.088 -1.2702  2.2154 -1.8079
  550SOL     OW 1648   2.526   2.866   2.907 -0.0020  0.1207 -0.3860
  550SOL    HW1 1649   2.499   2.796   2.977 -0.6472 -0.3443 -1.5709
  550SOL    HW2 1650   2.515   2.836   2.807 -0.4475 -1.7560 -0.5574
  551SOL     OW 1651   0.252   0.828   0.204 -0.4710 -0.2443 -0.2271
  551SOL    HW1 1652   0.353   0.805   0.197  1.3393 -0.3500 -2.1748
  551SOL    HW2 1653   0.219   0.840   0.303  3.3383  0.2954  0.0971
  552SOL     OW 1654   0.856   2.797   1.905 -0.4445  0.0327 -0.1220
  552SOL    HW1 1655   0.835   2.775   2.005  0.9423 -1.6214  1.3935
  552SOL    HW2 1656   0.916   2.886   1.893  1.1400  2.0959 -1.5359
  553SOL     OW 1657   3.092   2.558   0.372 -0.1656 -0.1879  0.4702
  553SOL    HW1 1658   3.043   2.469   0.350  1.7047 -0.2839 -2.0802
  553SOL    HW2 1659   3.180   2.541   0.430  1.6479 -1.6428 -2.1571
  554SOL     OW 1660   2.084   0.323   0.503  0.3609 -0.0523 -0.2187
  554SOL    HW1 1661   2.131   0.301   0.416  3.7834  0.5619  0.6390
  554SOL    HW2 1662   2.080   0.242   0.573  0.6004 -0.4352  2.9587
  555SOL     OW 1663   0.508   2.867   2.517 -0.1237  0.2010 -0.9329
  555SOL    HW1 1664   0.428   2.860   2.446 -0.9048  0.1998 -0.4416
  555SOL    HW2 1665   0.591   2.822   2.476 -1.6885  0.5616 -1.2508
  556SOL     OW 1666   0.982   2.361   1.641 -0.0910  0.0624 -0.0805
  556SOL    HW1 1667   1.003   2.456   1.681  1.1613  0.5429 -0.4818
  556SOL    HW2 1668   1.030   2.338   1.549  2.2657 -0.8364  0.5536
  557SOL     OW 1669   0.149   2.126   0.108  0.5667  0.5960  0.1245
  557SOL    HW1 1670   0.049   2.089   0.125 -0.6972  1.5877 -2.4733
  557SOL    HW2 1671   0.151   2.165   0.010  1.3774  0.1583 -2.0014
  558SOL     OW 1672   2.952   2.319   0.250 -0.9541  0.4548 -0.0119
  558SOL    HW1 1673   2.850   2.299   0.264 -1.2804 -0.7967 -0.4339
  558SOL    HW2 1674   2.974   2.346   0.152 -0.8474  1.4035 -3.0707
  559SOL     OW 1675   0.412   2.286   1.299  0.4272 -0.0276 -0.1144
  559SOL    HW1 1676   0.318   2.283   1.256  1.7230 -1.5941 -1.6573
  559SOL    HW2 1677   0.462   2.196   1.285  2.0840  0.0109 -0.9826
  560SOL     OW 1678   2.036   1.043   3.016 -0.1682 -0.1811 -0.1465
  560SOL    HW1 1679   2.068   1.108   2.942  1.2604 -0.2319 -1.0520
  560SOL    HW2 1680   1.963   1.079   3.079 -0.1626  1.3808  2.0378
  561SOL     OW 1681   3.031   1.975   0.106  0.1948 -0.2634  0.4829
  561SOL    HW1 1682   2.998   1.879   0.124 -0.6665 -1.0593 -0.5136
  561SOL    HW2 1683   2.967   2.030   0.045  0.8995 -0.7945  1.8030
  562SOL     OW 1684   0.830   2.175   2.462 -0.3427  0.2844 -0.4479
  562SOL    HW1 1685   0.730   2.148   2.454 -1.3730 -1.6215  2.3031
  562SOL    HW2 1686   0.841   2.221   2.560  0.9134  2.2486  3.7940
  563SOL     OW 1687   0.682   2.563   2.538  0.7602 -0.3233 -0.2174
  563SOL    HW1 1688   0.651   2.473   2.505  3.0620  1.0573  0.1600
  563SOL    HW2 1689   0.723   2.570   2.634  1.7869 -2.1152 -2.2070
  564SOL     OW 1690   2.755   1.298   2.897 -0.0726 -0.2153 -0.4774
  564SOL    HW1 1691   2.663   1.293   2.948  0.5592  0.2427 -0.9239
  564SOL    HW2 1692   2.791   1.397   2.881  0.4521  0.1004 -0.4978
  565SOL     OW 1693   2.542   2.024   2.588 -0.1975 -0.2056  0.5124
  565SOL    HW1 1694   2.484   2.108   2.570  0.7333  0.3878  2.1377
  565SOL    HW2 1695   2.622   2.041   2.650 -2.0390  0.1650 -1.1190
  566SOL     OW 1696   2.008   2.822   1.441 -0.0105 -0.0767 -0.1296
  566SOL    HW1 1697   2.019   2.725   1.462 -1.4303  0.3207 -1.3361
  566SOL    HW2 1698   2.037   2.847   1.344 -0.9892 -0.1091  0.4816
  567SOL     OW 1699   2.414   0.124   2.218  0.4970  0.0762 -0.1195
  567SOL    HW1 1700   2.476   0.115   2.137 -0.3803  0.9449  0.4256
  567SOL    HW2 1701   2.319   0.155   2.199  1.9190  3.9374 -0.5161
  568SOL     OW 1702   1.450   1.807   0.471 -0.4035  0.0170  0.2519
  568SOL    HW1 1703   1.425   1.873   0.388  2.0154 -0.7587 -2.0601
  568SOL    HW2 1704   1.480   1.853   0.553 -0.2041 -1.7007 -2.0025
  569SOL     OW 1705   0.291   0.705   0.769 -0.2108  0.6845  0.5267
  569SOL    HW1 1706   0.348   0.629   0.717  5.9007  0.5898 -1.6906
  569SOL    HW2 1707   0.192   0.676   0.780 -4.4741 -1.5096  0.4056
  570SOL     OW 1708   0.602   0.829   2.842  0.2134 -0.2844  0.1767
  570SOL    HW1 1709   0.674   0.797   2.772  1.6764 -1.2523  0.8121
  570SOL    HW2 1710   0.617   0.926   2.871  2.1510  0.1144 -1.0193
  571SOL     OW 1711   0.848   3.064   1.145  0.5137 -0.8420 -0.3771
  571SOL    HW1 1712   0.865   3.134   1.067  0.0848  0.9445  1.1541
  571SOL    HW2 1713   0.939   3.044   1.187  0.0919 -1.5948 -1.6103
  572SOL     OW 1714   1.479   2.571   1.188  0.6367 -0.1086  0.2463
  572SOL    HW1 1715   1.408   2.497   1.228 -1.2410  1.5720  0.0773
  572SOL    HW2 1716   1.433   2.656   1.142 -0.5964  1.3435 -0.9807
  573SOL     OW 1717   2.941   0.467   2.081  0.1316 -0.7143  0.4702
  573SOL    HW1 1718   2.880   0.387   2.103 -0.2895 -0.9724  0.9954
  573SOL    HW2 1719   2.892   0.553   2.043 -1.6662  1.3393 -0.2731
  574SOL     OW 1720   0.223   1.781   1.025 -0.1009  0.6964  0.1772
  574SOL    HW1 1721   0.229   1.885   1.002 -0.7579 -0.2066  0.0205
  574SOL    HW2 1722   0.141   1.759   1.091 -0.3662 -0.3272  0.2908
  575SOL     OW 1723   0.917   2.215   1.021 -0.6510 -0.2183  0.1217
  575SOL    HW1 1724   0.859   2.229   1.106  0.7645 -2.3749  1.3354
  575SOL    HW2 1725   1.018   2.201   1.045  0.9777 -1.9699 -0.8568
  576SOL     OW 1726   2.892   2.917   1.729 -0.0882 -0.3949 -0.3375
  576SOL    HW1 1727   2.837   2.864   1.659  0.0779 -1.3275 -0.1241
  576SOL    HW2 1728   2.883   3.016   1.718  0.7309 -0.6969 -3.8136
  577SOL     OW 1729   2.522   1.235   3.079  0.4298 -0.0341  0.1152
  577SOL    HW1 1730   2.495   1.143   3.029  0.3253 -1.8359  0.8930
  577SOL    HW2 1731   2.588   1.227   3.158 -1.4110 -1.1155 -1.6328
  578SOL     OW 1732   1.327   2.790   2.575  0.1014  0.2890  0.6126
  578SOL    HW1 1733   1.249   2.768   2.509  0.3212 -0.3885  1.2571
  578SOL    HW2 1734   1.362   2.883   2.565 -2.2029 -2.3844  0.6950
  579SOL     OW 1735   0.143   2.599   0.128  0.5365  0.1763  0.0118
  579SOL    HW1 1736   0.086   2.594   0.216 -0.4857  0.7171 -0.8137
  579SOL    HW2 1737   0.233   2.554   0.139  0.8812 -1.6126  1.2033
  580SOL     OW 1738   0.949   2.685   0.379 -0.2302 -0.2758 -0.6731
  580SOL    HW1 1739   1.044   2.702   0.331  0.4076  2.4233  0.9815
  580SOL    HW2 1740   0.902   2.599   0.346  2.0479 -2.0801  0.9999
  581SOL     OW 1741   1.279   2.545   1.480  0.9362  0.7778  0.3116
  581SOL    HW1 1742   1.307   2.461   1.425  0.3690 -0.6229 -0.3871
  581SOL    HW2 1743   1.273   2.625   1.417 -0.7593 -2.0502 -2.9577
  582SOL     OW 1744   1.521   0.072   1.874 -0.0117  0.0934 -0.0057
  582SOL    HW1 1745   1.531   0.158   1.935  2.0368 -0.7116 -0.1659
  582SOL    HW2 1746   1.596   0.055   1.809 -5.4100  0.0446  2.8078
  583SOL     OW 1747   2.378   2.986   0.582  0.0527  0.6124  0.3528
  583SOL    HW1 1748   2.443   2.926   0.529 -0.4399  1.3302  1.4010
  583SOL    HW2 1749   2.345   2.932   0.665  0.5468 -0.1588 -0.7870
  584SOL     OW 1750   1.529   0.973   2.081  0.0869  0.3702  0.2397
  584SOL    HW1 1751   1.591   1.049   2.038  1.6046  0.3720 -0.6676
  584SOL    HW2 1752   1.564   0.937   2.176  1.7756 -1.1142  0.2839
  585SOL     OW 1753   2.095   2.697   2.877  0.1461 -0.4828  0.4947
  585SOL    HW1 1754   2.153   2.610   2.851 -0.4039  1.6551  0.0488
  585SOL    HW2 1755   1.995   2.671   2.897 -0.1675 -0.6740 -2.4674
  586SOL     OW 1756   2.775   0.244   1.562  0.0892 -0.7852 -0.3845
  586SOL    HW1 1757   2.771   0.331   1.616 -1.1591  0.3615  0.4887
  586SOL    HW2 1758   2.698   0.178   1.578  0.7261  0.9475  0.4233
  587SOL     OW 1759   2.024   1.619   2.747 -0.4641  0.0199 -0.1607
  587SOL    HW1 1760   2.088   1.568   2.689  0.1785  0.8954  2.1458
  587SOL    HW2 1761   2.060   1.629   2.841  3.0076 -1.1096  1.3029
  588SOL     OW 1762   0.505   2.696   2.235 -0.9058  0.1073 -0.2721
  588SOL    HW1 1763   0.454   2.738   2.153  0.5299  0.0496 -0.6493
  588SOL    HW2 1764   0.443   2.632   2.290 -2.4810  0.2566  0.7128
  589SOL     OW 1765   2.164   1.468   2.530 -0.6865 -0.0616  0.3610
  589SOL    HW1 1766   2.105   1.409   2.469  0.9150 -1.5792  1.1774
  589SOL    HW2 1767   2.250   1.420   2.553 -0.6374  0.3981 -1.8357
  590SOL     OW 1768   2.363   1.765   2.003 -0.1284 -0.3532 -0.4560
  590SOL    HW1 1769   2.434   1.686   1.998  0.0479 -0.7213  0.5155
  590SOL    HW2 1770   2.362   1.810   2.096  1.0628  0.7275 -3.8077
  591SOL     OW 1771   1.317   2.464   0.331  0.1498  0.0087 -0.7172
  591SOL    HW1 1772   1.395   2.413   0.285 -0.6113  2.4824 -0.6010
  591SOL    HW2 1773   1.289   2.421   0.422 -1.0917  1.1439 -0.4973
  592SOL     OW 1774   1.677   2.321   0.782 -0.7516 -0.0444  0.3224
  592SOL    HW1 1775   1.636   2.368   0.700 -0.5069 -1.3838  0.0775
  592SOL    HW2 1776   1.788   2.317   0.779  0.1220  1.3404 -0.4489
  593SOL     OW 1777   0.527   0.242   3.001  0.2255 -0.1850  0.1867
  593SOL    HW1 1778   0.613   0.185   3.002 -2.6945 -1.6554  2.1561
  593SOL    HW2 1779   0.525   0.330   3.059 -3.3652  1.7600 -2.3778
  594SOL     OW 1780   0.918   1.879   2.761 -0.0301  0.2866  0.0363
  594SOL    HW1 1781   1.020   1.894   2.756 -1.2467 -1.4834 -3.0539
  594SOL    HW2 1782   0.868   1.957   2.813 -0.8563  0.1831  2.0776
  595SOL     OW 1783   1.562   3.083   1.022  0.3477 -0.1508 -0.2933
  595SOL    HW1 1784   1.656   3.050   1.064 -0.2988  0.2645 -1.2336
  595SOL    HW2 1785   1.531   3.027   0.940  0.0979  0.1918 -0.5084
  596SOL     OW 1786   3.080   1.465   2.216 -0.0666 -0.2527 -0.7446
  596SOL    HW1 1787   3.018   1.525   2.279 -3.1151 -1.6213  3.3238
  596SOL    HW2 1788   3.145   1.411   2.273  2.8750 -0.9756  2.8518
  597SOL     OW 1789   2.061   2.582   1.599  0.2589  0.2724  0.4860
  597SOL    HW1 1790   2.101   2.489   1.582 -0.0668  1.2941 -2.4690
  597SOL    HW2 1791   2.097   2.632   1.676  3.2380  0.1059 -2.9380
  598SOL     OW 1792   2.600   2.877   1.218 -0.3395  0.2685 -0.4162
  598SOL    HW1 1793   2.646   2.946   1.284 -1.6590 -0.2224  2.2714
  598SOL    HW2 1794   2.648   2.866   1.122  2.8212 -0.1473 -0.1260
  599SOL     OW 1795   2.928   0.332   2.403 -0.1357 -0.2276 -0.1399
  599SOL    HW1 1796   3.013   0.356   2.350 -1.7513 -1.4922 -3.4590
  599SOL    HW2 1797   2.847   0.384   2.366  0.9386 -1.6383  0.2428
  600SOL     OW 1798   2.816   1.067   2.753  0.5927 -0.5571  0.4723
  600SOL    HW1 1799   2.808   0.997   2.824 -1.2819  0.9584  0.0877
  600SOL    HW2 1800   2.790   1.163   2.789 -2.3000  1.6175 -1.5032
  601SOL     OW 1801   2.938   1.287   2.037 -0.3167  0.0885  0.1275
  601SOL    HW1 1802   2.871   1.330   1.969  1.3583 -1.4404  2.0107
  601SOL    HW2 1803   2.980   1.363   2.099 -0.6815  0.6481  0.5407
  602SOL     OW 1804   1.540   1.681   2.328  0.1175  0.0519  0.9768
  602SOL    HW1 1805   1.473   1.608   2.294 -4.2963 -2.0643 -0.1979
  602SOL    HW2 1806   1.621   1.639   2.379  2.1393  0.4060  3.0101
  603SOL     OW 1807   0.715   1.248   2.619  0.1142  0.0902 -0.4334
  603SOL    HW1 1808   0.628   1.228   2.572 -0.6431 -2.0078  1.8902
  603SOL    HW2 1809   0.774   1.162   2.630  1.0436  0.1680  0.8683
  604SOL     OW 1810   2.393   1.014   0.162 -0.8563 -0.3845 -0.2895
  604SOL    HW1 1811   2.455   1.064   0.092  2.2085 -2.0814  0.8185
  604SOL    HW2 1812   2.344   0.930   0.121  2.0401 -2.0808 -2.0880
  605SOL     OW 1813   2.588   1.108   1.991 -0.3023 -0.0905  0.2107
  605SOL    HW1 1814   2.582   1.018   1.934  0.5957  0.8949 -0.6974
  605SOL    HW2 1815   2.635   1.096   2.081  1.6135  2.5242 -1.1850
  606SOL     OW 1816   1.505   2.515   2.580  0.5185 -0.5842  0.3310
  606SOL    HW1 1817   1.418   2.565   2.595 -0.1859 -0.5483 -0.3807
  606SOL    HW2 1818   1.494   2.415   2.554 -1.0907  2.1866  2.6029
  607SOL     OW 1819   1.327   1.542   0.421  0.3346 -0.0976 -0.4854
  607SOL    HW1 1820   1.274   1.507   0.503  0.2048  1.1973 -2.0105
  607SOL    HW2 1821   1.363   1.636   0.423 -0.2226 -2.9228  0.1149
  608SOL     OW 1822   1.390   2.887   0.407  0.2139  0.1623  0.6066
  608SOL    HW1 1823   1.443   2.939   0.338 -0.7195 -0.3620  2.2436
  608SOL    HW2 1824   1.331   2.951   0.464  0.9804 -0.3760 -1.1478
  609SOL     OW 1825   1.336   1.325   0.222 -0.2361 -0.0673  0.6990
  609SOL    HW1 1826   1.356   1.399   0.290  0.1616  1.2919 -0.8526
  609SOL    HW2 1827   1.240   1.322   0.184  1.2010 -0.5110  2.7356
  610SOL     OW 1828   3.018   1.078   2.282 -0.1988 -0.0900 -0.0188
  610SOL    HW1 1829   2.996   0.976   2.286 -0.2139  0.7183 -1.5002
  610SOL    HW2 1830   2.987   1.119   2.193 -0.6764 -1.1922  0.2776
  611SOL     OW 1831   2.528   0.304   1.239 -0.1291  0.1318  0.0528
  611SOL    HW1 1832   2.505   0.209   1.199 -1.7695 -1.6818  2.5682
  611SOL    HW2 1833   2.627   0.326   1.249 -1.3569  1.6941 -1.2989
  612SOL     OW 1834   0.765   2.168   1.246 -0.0234 -0.4092  0.0404
  612SOL    HW1 1835   0.729   2.079   1.227  1.5914 -0.2782 -0.6962
  612SOL    HW2 1836   0.702   2.250   1.222  0.7375 -0.1743 -0.4918
  613SOL     OW 1837   0.974   1.413   2.353 -0.8654 -0.8034  0.1730
  613SOL    HW1 1838   0.996   1.490   2.281 -2.6782  0.2537 -0.7500
  613SOL    HW2 1839   0.919   1.331   2.322 -2.6546 -2.0642 -0.6196
  614SOL     OW 1840   1.656   1.537   1.753  0.2539  0.4924  0.4520
  614SOL    HW1 1841   1.603   1.623   1.725 -0.6861  0.6951  0.0814
  614SOL    HW2 1842   1.723   1.556   1.829  2.4258  0.1052 -0.0956
  615SOL     OW 1843   0.781   1.267   1.730 -0.2679 -0.2160 -0.2906
  615SOL    HW1 1844   0.703   1.253   1.664 -0.2458  0.2918 -1.3512
  615SOL    HW2 1845   0.847   1.329   1.694  0.0705 -1.6964  0.3031
  616SOL     OW 1846   1.031   1.576   2.155 -0.5024  0.5856  0.0699
  616SOL    HW1 1847   0.966   1.570   2.079 -0.1677 -1.1345  0.4141
  616SOL    HW2 1848   1.072   1.671   2.163 -0.4235  1.7595  0.5960
  617SOL     OW 1849   2.960   1.532   1.593  0.1410 -0.4476  0.0139
  617SOL    HW1 1850   2.965   1.434   1.618  0.7304 -0.1183 -0.6640
  617SOL    HW2 1851   3.002   1.556   1.502  0.4056 -1.8354 -0.9098
  618SOL     OW 1852   1.877   2.006   1.380  0.0727  0.1286  0.2101
  618SOL    HW1 1853   1.903   2.076   1.304 -0.0570  1.8290 -1.0261
  618SOL    HW2 1854   1.864   1.911   1.343 -0.0015  0.1727  1.8043
  619SOL     OW 1855   1.738   0.451   2.383 -0.5711 -0.5432  0.1247
  619SOL    HW1 1856   1.660   0.509   2.350  1.7471  2.0015  1.2881
  619SOL    HW2 1857   1.717   0.349   2.381  2.0300  2.4908 -1.1083
  620SOL     OW 1858   2.253   2.817   0.757  0.1023 -0.0779 -0.1465
  620SOL    HW1 1859   2.150   2.812   0.777  0.6210 -1.1194 -2.0149
  620SOL    HW2 1860   2.303   2.733   0.787 -0.0186 -0.8979 -0.0565
  621SOL     OW 1861   2.181   1.938   1.345 -0.0030 -0.0965  0.2346
  621SOL    HW1 1862   2.174   1.920   1.446  0.1473  0.9116  0.5457
  621SOL    HW2 1863   2.137   1.862   1.288 -0.7761  0.6385  0.1766
  622SOL     OW 1864   2.266   0.927   1.872  0.7957  0.0661 -0.4577
  622SOL    HW1 1865   2.371   0.921   1.865  0.2591  2.5948 -1.0699
  622SOL    HW2 1866   2.228   0.839   1.902  0.6354  2.5742  3.8657
  623SOL     OW 1867   1.256   0.839   2.515 -0.0883 -0.3148  0.3984
  623SOL    HW1 1868   1.181   0.774   2.535 -0.1969  0.9161 -1.4903
  623SOL    HW2 1869   1.238   0.880   2.426 -0.8281  0.1196  0.4463
  624SOL     OW 1870   0.499   0.658   3.010 -0.0198 -0.1978  0.2530
  624SOL    HW1 1871   0.552   0.703   2.930  0.5303 -2.2179 -1.1446
  624SOL    HW2 1872   0.514   0.708   3.101  0.8588 -0.8920 -0.9847
  625SOL     OW 1873   2.724   1.708   1.000 -0.3553 -0.3874 -0.0917
  625SOL    HW1 1874   2.630   1.757   1.013  0.0964  0.9714  2.2410
  625SOL    HW2 1875   2.804   1.779   1.008  0.7270  0.8307 -1.1758
  626SOL     OW 1876   0.626   2.689   1.770 -0.0224  0.0762  0.5423
  626SOL    HW1 1877   0.706   2.735   1.828 -0.2444  2.0236 -0.6623
  626SOL    HW2 1878   0.540   2.667   1.827  0.7323 -1.1815 -0.3904
  627SOL     OW 1879   0.642   0.819   1.694  0.0257 -0.2327 -0.3147
  627SOL    HW1 1880   0.592   0.767   1.620 -0.1854 -1.7843 -1.8118
  627SOL    HW2 1881   0.681   0.911   1.662  1.6592  0.4006 -2.6799
  628SOL     OW 1882   2.357   0.098   0.758 -0.0503 -0.0985  0.2064
  628SOL    HW1 1883   2.385   0.021   0.693 -0.2566  0.4222 -0.6330
  628SOL    HW2 1884   2.257   0.123   0.752 -2.4123  3.1900 -1.4334
  629SOL     OW 1885   1.888   0.931   1.978  0.3225  0.0288 -0.1324
  629SOL    HW1 1886   1.895   1.029   1.944  2.5814  1.9031  3.2476
  629SOL    HW2 1887   1.932   0.920   2.070 -1.4115  1.1770  0.7433
  630SOL     OW 1888   2.928   2.206   0.782 -0.1663  0.0668 -0.4612
  630SOL    HW1 1889   2.877   2.291   0.810  1.5151 -0.1837  0.5765
  630SOL    HW2 1890   2.860   2.127   0.771  0.1266 -0.1499  1.7888
  631SOL     OW 1891   3.037   0.113   2.049 -0.0078  0.0860  0.7190
  631SOL    HW1 1892   3.114   0.135   2.111  0.8798  1.4435  1.0725
  631SOL    HW2 1893   3.065   0.059   1.962  1.7918  0.7605 -1.6939
  632SOL     OW 1894   2.467   2.582   0.611 -1.0813 -0.3057  0.6606
  632SOL    HW1 1895   2.513   2.662   0.656 -0.7466  1.1174 -0.8663
  632SOL    HW2 1896   2.375   2.617   0.568  0.5009  1.9573 -1.7028
  633SOL     OW 1897   1.474   1.260   2.653  0.3241 -0.1598 -0.2272
  633SOL    HW1 1898   1.435   1.322   2.722  1.1908  0.0819 -0.4224
  633SOL    HW2 1899   1.414   1.256   2.568  1.6702 -2.1456 -1.0350
  634SOL     OW 1900   0.714   2.123   0.856 -0.0791 -0.7960 -0.4170
  634SOL    HW1 1901   0.623   2.129   0.905  0.7373  0.6673 -0.5474
  634SOL    HW2 1902   0.800   2.145   0.911 -1.3447 -2.4763  0.3118
  635SOL     OW 1903   3.050   2.405   0.011  0.5649 -0.6987  0.5515
  635SOL    HW1 1904   2.986   2.463  -0.047  0.5547 -2.2371 -1.9657
  635SOL    HW2 1905   3.141   2.452   0.030  0.2641 -1.4890  0.9519
  636SOL     OW 1906   2.374   2.721   2.064 -0.1882  0.0015  0.2127
  636SOL    HW1 1907   2.362   2.813   2.112  3.5257  0.9023 -0.2230
  636SOL    HW2 1908   2.321   2.646   2.113 -1.8622 -2.3228  0.0408
  637SOL     OW 1909   2.676   0.585   1.959  0.2636 -0.8105  0.4548
  637SOL    HW1 1910   2.609   0.593   1.877 -0.1007  1.4061 -2.4154
  637SOL    HW2 1911   2.728   0.675   1.974 -1.8654  0.5258  0.0449
  638SOL     OW 1912   2.476   1.873   1.341 -0.2752 -0.3838 -0.3529
  638SOL    HW1 1913   2.384   1.914   1.372 -1.1931 -2.9307 -0.3730
  638SOL    HW2 1914   2.501   1.789   1.397 -0.6464  1.1315  2.0809
  639SOL     OW 1915   1.260   2.212   1.601 -0.0766  0.0439  0.6581
  639SOL    HW1 1916   1.333   2.289   1.604  2.6486 -3.3767  1.6881
  639SOL    HW2 1917   1.210   2.194   1.694 -4.5745  0.0371  1.8518
  640SOL     OW 1918   0.181   1.239   1.555 -0.1550  0.3220  0.1303
  640SOL    HW1 1919   0.164   1.234   1.658  1.7309  1.1586  0.6182
  640SOL    HW2 1920   0.250   1.169   1.527  0.0774  0.4914  1.3123
  641SOL     OW 1921   1.979   0.257   1.513  0.1675 -0.2661 -0.0045
  641SOL    HW1 1922   1.928   0.287   1.596 -2.1962 -0.4919 -1.0458
  641SOL    HW2 1923   2.084   0.262   1.527  0.4783 -1.1611  0.4007
  642SOL     OW 1924   2.034   3.073   0.340  0.4199  0.4563 -0.0690
  642SOL    HW1 1925   2.135   3.096   0.370  0.7961 -0.5823 -0.5736
  642SOL    HW2 1926   1.966   3.072   0.423  1.8743 -0.5235  1.2282
  643SOL     OW 1927   2.914   1.939   2.081 -0.0521  0.0305  0.4216
  643SOL    HW1 1928   2.861   1.853   2.066  0.4260 -0.6485  2.1277
  643SOL    HW2 1929   2.885   2.022   2.028 -1.2123  0.1675  0.6670
  644SOL     OW 1930   2.290   2.402   1.269  0.0326 -0.0514 -0.4771
  644SOL    HW1 1931   2.348   2.338   1.208 -0.8928 -2.3435 -0.3411
  644SOL    HW2 1932   2.302   2.386   1.374  2.4133 -1.8648  0.9217
  645SOL     OW 1933   0.690   0.827   1.267  0.3778  0.6189  0.1190
  645SOL    HW1 1934   0.601   0.781   1.281  0.2008  0.3859 -1.4040
  645SOL    HW2 1935   0.697   0.853   1.165 -1.5893 -1.8498  0.0400
  646SOL     OW 1936   1.517   1.764   2.025  0.1700  0.6489 -0.1038
  646SOL    HW1 1937   1.579   1.791   1.944  1.7707 -2.1185  0.7747
  646SOL    HW2 1938   1.554   1.779   2.122  0.7692  1.9351  0.5592
  647SOL     OW 1939   0.768   1.094   0.613  0.0277  0.3808  0.1253
  647SOL    HW1 1940   0.847   1.107   0.681 -1.2894  2.8040 -0.5120
  647SOL    HW2 1941   0.717   1.007   0.628  1.8788  0.8717  1.8008
  648SOL     OW 1942   0.182   0.240   0.377  0.1802 -0.3000  0.3384
  648SOL    HW1 1943   0.133   0.153   0.374  0.6702  0.1169 -0.7762
  648SOL    HW2 1944   0.163   0.299   0.295 -2.1762 -0.7701 -1.2435
  649SOL     OW 1945   3.001   0.276   0.925  0.2674  0.0990 -0.4485
  649SOL    HW1 1946   3.083   0.301   0.870 -1.3724  1.3298  1.3493
  649SOL    HW2 1947   3.012   0.290   1.026 -2.3428  1.0754 -0.7489
  650SOL     OW 1948   2.806   0.710   1.455 -0.2143  0.3498  0.7227
  650SOL    HW1 1949   2.702   0.697   1.462 -0.7207 -1.0246 -0.8729
  650SOL    HW2 1950   2.828   0.811   1.421  1.6634  2.0587  0.3390
  651SOL     OW 1951   0.883   1.538   1.686  0.3258  0.0273 -0.4795
  651SOL    HW1 1952   0.873   1.537   1.790  1.0975 -0.4434 -0.5512
  651SOL    HW2 1953   0.979   1.573   1.656 -0.0664  2.5026 -0.3728
  652SOL     OW 1954   2.331   2.539   2.504 -0.0098 -0.3688 -0.1676
  652SOL    HW1 1955   2.238   2.522   2.543  1.3538  1.2689 -0.1544
  652SOL    HW2 1956   2.330   2.622   2.446 -1.3531 -1.6381  0.5025
  653SOL     OW 1957   2.703   1.256   0.182 -0.0117  0.7560 -0.1351
  653SOL    HW1 1958   2.745   1.348   0.220  1.7465 -0.7908  1.0646
  653SOL    HW2 1959   2.757   1.170   0.209 -2.8143 -0.7399 -0.2828
  654SOL     OW 1960   1.204   2.099   1.248  0.6149  0.1559 -0.7127
  654SOL    HW1 1961   1.169   2.003   1.282  2.2261 -0.8621  1.5777
  654SOL    HW2 1962   1.241   2.097   1.151 -0.6554  0.2857  0.9834
  655SOL     OW 1963   0.193   0.992   1.921  0.3819  0.2317  0.1483
  655SOL    HW1 1964   0.261   0.929   1.869  0.4919 -2.2129  3.2666
  655SOL    HW2 1965   0.196   1.094   1.900 -0.6021 -0.0583  0.1998
  656SOL     OW 1966   2.577   2.529   2.634  0.8761 -0.1761 -0.1334
  656SOL    HW1 1967   2.668   2.522   2.585 -0.8831  1.9200 -0.9899
  656SOL    HW2 1968   2.493   2.526   2.571  1.1992 -0.9740  0.2224
  657SOL     OW 1969   3.014   1.058   1.942  0.0595 -0.0270 -0.6293
  657SOL    HW1 1970   2.982   1.150   1.991  0.3538  1.7264 -0.5053
  657SOL    HW2 1971   3.108   1.029   1.972 -0.4022  0.9574  0.8468
  658SOL     OW 1972   1.659   0.161   2.339 -0.1898  0.3402  0.3382
  658SOL    HW1 1973   1.715   0.110   2.405  0.5020 -1.2334  0.5722
  658SOL    HW2 1974   1.661   0.127   2.244 -3.2436  0.6937  2.3512
  659SOL     OW 1975   1.440   0.684   2.814  0.4719 -0.2072 -0.1939
  659SOL    HW1 1976   1.473   0.749   2.748 -0.7873 -0.2247  0.6122
  659SOL    HW2 1977   1.337   0.695   2.828 -0.5975 -0.0326  2.8346
  660SOL     OW 1978   1.429   0.298   1.409 -0.1824  0.5122  0.3184
  660SOL    HW1 1979   1.455   0.360   1.487  0.6458  1.2934 -0.2976
  660SOL    HW2 1980   1.501   0.219   1.403  0.5745 -1.4597 -0.6146
  661SOL     OW 1981   2.390   1.267   0.668  0.2534 -0.1819 -0.2513
  661SOL    HW1 1982   2.454   1.270   0.586  0.0105 -3.0730  1.5492
  661SOL    HW2 1983   2.303   1.333   0.659 -1.3243 -0.1745 -2.9750
  662SOL     OW 1984   1.466   0.383   1.682 -0.0865 -0.3642  0.4993
  662SOL    HW1 1985   1.421   0.333   1.762  0.2321 -0.4701 -1.1059
  662SOL    HW2 1986   1.468   0.482   1.698 -2.0861 -0.7083 -1.4680
  663SOL     OW 1987   0.815   1.611   1.937  0.8209 -0.3448  0.1639
  663SOL    HW1 1988   0.821   1.712   1.983  0.1711  0.5883 -0.2810
  663SOL    HW2 1989   0.727   1.558   1.960 -0.3314  0.6864 -0.2696
  664SOL     OW 1990   1.614   2.103   1.427 -0.1239  0.6945 -0.0792
  664SOL    HW1 1991   1.523   2.059   1.448  0.6978  0.3145 -2.0143
  664SOL    HW2 1992   1.693   2.036   1.440  1.9849 -0.1239  2.6923
  665SOL     OW 1993   2.252   0.682   2.000  0.1871 -0.2644 -0.1716
  665SOL    HW1 1994   2.235   0.580   2.006 -0.0830  1.1954 -1.9297
  665SOL    HW2 1995   2.342   0.705   2.052  1.2241  1.2931  1.6774
  666SOL     OW 1996   0.464   2.227   0.362 -0.0976 -0.2183 -0.4289
  666SOL    HW1 1997   0.513   2.311   0.395  3.3336 -3.0507 -0.2904
  666SOL    HW2 1998   0.367   2.218   0.402 -0.7548 -1.5371  1.3403
  667SOL     OW 1999   2.029   0.214   1.095 -0.3465  0.2572  0.0884
  667SOL    HW1 2000   2.032   0.314   1.073 -2.8633 -0.6638  0.3093
  667SOL    HW2 2001   1.997   0.194   1.188  1.7321  1.6692 -0.1456
  668SOL     OW 2002   1.983   0.499   1.064  0.2568  0.1487  0.1517
  668SOL    HW1 2003   2.065   0.499   0.992 -0.3188 -1.0950 -0.8250
  668SOL    HW2 2004   2.008   0.512   1.161 -0.3669 -1.1298 -1.8289
  669SOL     OW 2005   3.044   2.140   1.023  0.1636  0.2150  0.2715
  669SOL    HW1 2006   3.002   2.168   0.934  2.4233  0.8724 -1.8158
  669SOL    HW2 2007   3.035   2.215   1.098 -0.9087 -0.4201  1.3832
  670SOL     OW 2008   2.934   2.356   2.142 -0.5508 -0.8811 -0.3385
  670SOL    HW1 2009   2.846   2.326   2.183 -1.2537 -2.6838 -1.2447
  670SOL    HW2 2010   2.941   2.453   2.112  0.5609 -1.1399 -3.2805
  671SOL     OW 2011   1.763   1.656   1.515 -0.3308  0.7958 -0.2000
  671SOL    HW1 2012   1.727   1.636   1.420 -1.9844 -1.8002 -1.6374
  671SOL    HW2 2013   1.741   1.576   1.578  2.9510 -2.6147 -0.1465
  672SOL     OW 2014   0.461   0.689   2.596 -0.5761 -0.6971  0.4321
  672SOL    HW1 2015   0.386   0.743   2.547 -1.0585 -0.3308  0.2203
  672SOL    HW2 2016   0.444   0.674   2.698 -0.9675 -0.1298 -3.6299
  673SOL     OW 2017   0.076   1.396   1.064 -0.0221 -0.2048  0.2541
  673SOL    HW1 2018   0.064   1.472   1.132  0.4182 -1.6764  1.9874
  673SOL    HW2 2019   0.176   1.394   1.027  3.9657 -1.5563  1.4562
  674SOL     OW 2020   1.569   3.014   0.229  0.3189 -0.0527 -0.1170
  674SOL    HW1 2021   1.588   3.086   0.161  0.6428 -0.3765  1.2137
  674SOL    HW2 2022   1.588   2.919   0.191  1.6592 -1.2306  2.8190
  675SOL     OW 2023   1.639   0.853   2.325  0.2257 -0.0924  0.6460
  675SOL    HW1 2024   1.736   0.871   2.314 -1.7762  1.0357 -1.1718
  675SOL    HW2 2025   1.606   0.764   2.282 -1.2096  0.0013 -0.9772
  676SOL     OW 2026   2.559   1.557   2.003 -0.1944  0.2911 -0.0601
  676SOL    HW1 2027   2.505   1.507   1.921 -1.2901 -1.7366 -0.0526
  676SOL    HW2 2028   2.600   1.486   2.065  1.4723 -0.3051 -0.9276
  677SOL     OW 2029   1.849   0.722   0.882  0.2049  0.2656 -0.1771
  677SOL    HW1 2030   1.756   0.691   0.916  0.8814  1.4397 -0.7697
  677SOL    HW2 2031   1.914   0.721   0.961 -1.3640 -0.4115  1.1374
  678SOL     OW 2032   0.072   0.832   1.647 -0.1204  0.3752 -0.1678
  678SOL    HW1 2033   0.163   0.849   1.692 -0.8835 -2.0776 -0.7503
  678SOL    HW2 2034   0.012   0.775   1.710  0.4531  2.1178  1.7512
  679SOL     OW 2035   2.559   1.090   1.218 -0.5232 -0.7018 -0.2938
  679SOL    HW1 2036   2.459   1.110   1.203  1.0576 -1.5040  0.6758
  679SOL    HW2 2037   2.577   0.985   1.220  0.2543 -3.4720  0.3526
  680SOL     OW 2038   2.815   0.546   1.693  0.1006  0.2270  0.1310
  680SOL    HW1 2039   2.785   0.585   1.603  0.7188 -0.3283 -0.8301
  680SOL    HW2 2040   2.903   0.588   1.730  0.0211 -1.3970  0.1057
  681SOL     OW 2041   2.999   0.021   1.559 -0.1112 -0.1425 -0.3605
  681SOL    HW1 2042   2.971  -0.005   1.464  0.1729 -0.0198  0.8942
  681SOL    HW2 2043   2.972   0.112   1.590 -2.0837 -2.0152  2.8820
  682SOL     OW 2044   0.618   0.078   1.285 -0.0663  0.1204  0.1101
  682SOL    HW1 2045   0.576   0.001   1.343  0.1745  1.1908  0.8654
  682SOL    HW2 2046   0.703   0.044   1.229  0.3549  0.2439 -2.2393
  683SOL     OW 2047   1.354   0.275   2.166  0.4035 -0.2360 -1.1268
  683SOL    HW1 2048   1.335   0.333   2.255 -0.0582 -0.8268  1.1157
  683SOL    HW2 2049   1.454   0.288   2.134 -0.4138 -0.2314  2.3125
  684SOL     OW 2050   1.405   2.158   0.583  0.5455  0.3012 -0.0400
  684SOL    HW1 2051   1.456   2.069   0.607  2.5696 -0.1566 -1.6539
  684SOL    HW2 2052   1.312   2.138   0.544  0.2583 -0.6018  0.7775
  685SOL     OW 2053   2.247   2.074   1.977  0.1183 -0.0920  0.2160
  685SOL    HW1 2054   2.254   1.972   1.980  0.9307  0.5035  0.4915
  685SOL    HW2 2055   2.289   2.112   2.062  0.3790 -1.7428 -0.4257
  686SOL     OW 2056   1.565   1.876   2.925 -0.1201  0.3183  0.9575
  686SOL    HW1 2057   1.575   1.822   3.013  2.2097 -1.7120  0.5033
  686SOL    HW2 2058   1.466   1.869   2.889  0.2277 -2.1496 -1.1051
  687SOL     OW 2059   1.386   2.427   1.964 -0.3851 -0.6971 -0.1231
  687SOL    HW1 2060   1.398   2.323   1.978  0.0052  0.8886 -0.9626
  687SOL    HW2 2061   1.346   2.476   2.043 -1.1911 -2.9299 -0.4031
  688SOL     OW 2062   2.058   1.487   1.716  0.5109 -0.2325 -0.1971
  688SOL    HW1 2063   2.147   1.535   1.694 -0.9297 -0.4188  0.6244
  688SOL    HW2 2064   2.021   1.438   1.631 -0.8906 -0.2148 -0.1411
  689SOL     OW 2065   2.361   1.122   2.792  0.1961  0.0633 -0.3762
  689SOL    HW1 2066   2.273   1.072   2.798  0.4587  0.0401 -1.3576
  689SOL    HW2 2067   2.432   1.087   2.855  1.7867  1.2623 -0.0675
  690SOL     OW 2068   2.209   2.742   0.040 -0.1087 -0.2337  0.3570
  690SOL    HW1 2069   2.122   2.732  -0.019 -0.5596  0.3248 -2.5170
  690SOL    HW2 2070   2.196   2.788   0.132  0.8274 -0.9113  6.2457
  691SOL     OW 2071   2.569   0.391   2.108  0.0098 -0.1010  0.6905
  691SOL    HW1 2072   2.603   0.294   2.099 -0.1868  0.1108  1.8409
  691SOL    HW2 2073   2.618   0.462   2.042  1.5291  1.0201 -1.2188
  692SOL     OW 2074   2.672   1.189   0.751 -0.4412  0.1162  0.2638
  692SOL    HW1 2075   2.587   1.196   0.689 -1.1333  1.3471 -0.7227
  692SOL    HW2 2076   2.702   1.284   0.788  0.8530 -1.7567  0.9982
  693SOL     OW 2077   2.884   2.932   0.642  0.1457  0.0782 -0.8131
  693SOL    HW1 2078   2.871   3.017   0.700 -2.2604  0.0202 -2.8236
  693SOL    HW2 2079   2.892   2.952   0.542 -2.4323 -0.8343  1.0878
  694SOL     OW 2080   2.370   2.230   0.125 -0.3312 -0.4787  0.2040
  694SOL    HW1 2081   2.353   2.327   0.163 -0.8320 -2.8408  0.2409
  694SOL    HW2 2082   2.283   2.179   0.121  2.3382 -1.0151  1.4774
  695SOL     OW 2083   0.500   3.009   1.473  0.2975 -0.4572  0.2189
  695SOL    HW1 2084   0.410   2.974   1.430 -0.5680 -1.6986 -2.2720
  695SOL    HW2 2085   0.485   3.054   1.570 -0.6840 -1.8527  4.1986
  696SOL     OW 2086   2.747   1.978   0.776  0.0729 -0.0470 -0.2874
  696SOL    HW1 2087   2.834   1.923   0.802 -1.8400 -1.1107  0.5918
  696SOL    HW2 2088   2.713   1.959   0.681  2.2553 -0.3198  1.6402
  697SOL     OW 2089   1.680   1.850   1.809 -0.7696  0.3179 -0.4923
  697SOL    HW1 2090   1.779   1.832   1.802 -0.3260  0.0054 -0.8188
  697SOL    HW2 2091   1.657   1.952   1.828 -0.4948  0.8093  0.3420
  698SOL     OW 2092   2.904   0.417   2.675  0.3922  0.4833  0.0157
  698SOL    HW1 2093   2.908   0.379   2.576 -1.6156 -0.4450  0.9526
  698SOL    HW2 2094   2.967   0.363   2.737 -2.0243  0.2717  0.0488
  699SOL     OW 2095   1.638   0.092   2.919 -0.9121 -0.2938 -0.1173
  699SOL    HW1 2096   1.585   0.004   2.893  0.5678 -1.0857  0.2394
  699SOL    HW2 2097   1.686   0.139   2.839  0.2177 -1.6476 -0.4347
  700SOL     OW 2098   1.012   2.253   1.336 -0.6547 -0.4363 -0.0187
  700SOL    HW1 2099   1.087   2.177   1.314 -0.2720  0.6214  0.8849
  700SOL    HW2 2100   0.925   2.206   1.312  1.1501 -1.3242 -0.4066
  701SOL     OW 2101   1.907   2.882   0.020  0.2332 -0.1306  0.3857
  701SOL    HW1 2102   1.876   2.827   0.103  1.6577 -3.4107  2.9643
  701SOL    HW2 2103   1.929   2.985   0.026  1.9943  0.8256 -2.3470
  702SOL     OW 2104   2.102   1.361   1.952 -0.1084 -0.5576  0.2810
  702SOL    HW1 2105   2.199   1.320   1.964  0.0072  1.2485 -0.7173
  702SOL    HW2 2106   2.085   1.410   1.858 -2.6952 -0.8107  0.2669
  703SOL     OW 2107   1.970   0.896   1.458 -0.6579 -0.5969  0.6254
  703SOL    HW1 2108   1.962   0.801   1.501 -0.2522 -0.1672 -0.3579
  703SOL    HW2 2109   2.019   0.965   1.520  0.8392 -0.6854 -0.4046
  704SOL     OW 2110   0.328   2.074   1.742 -0.0644 -0.0814 -0.1190
  704SOL    HW1 2111   0.359   2.003   1.812  1.3913 -1.7299  0.7388
  704SOL    HW2 2112   0.396   2.152   1.730 -1.6097 -0.3148  0.5286
  705SOL     OW 2113   2.475   1.412   0.896 -0.5660  0.1698 -0.0165
  705SOL    HW1 2114   2.443   1.344   0.823  0.4231  0.4409 -0.8865
  705SOL    HW2 2115   2.566   1.457   0.874  0.3210  1.2737  1.6217
  706SOL     OW 2116   0.579   1.720   1.797  0.5661 -0.2405  0.1831
  706SOL    HW1 2117   0.594   1.737   1.693  2.1968 -0.6628  0.4759
  706SOL    HW2 2118   0.666   1.685   1.843  3.7148  0.2625  3.5019
  707SOL     OW 2119   2.336   1.214   1.953  0.2930 -0.0181  0.9798
  707SOL    HW1 2120   2.435   1.192   1.986  0.7177 -1.1907 -1.1309
  707SOL    HW2 2121   2.291   1.133   1.907 -1.1700  0.8727  1.9773
  708SOL     OW 2122   3.020   0.513   3.043 -0.6011  0.1415  1.0341
  708SOL    HW1 2123   3.072   0.599   3.004  0.7546 -0.7952  1.5094
  708SOL    HW2 2124   3.029   0.430   2.977 -0.9368  0.4471 -0.8946
  709SOL     OW 2125   1.862   1.897   0.392  0.0721 -0.1642 -0.6310
  709SOL    HW1 2126   1.871   1.998   0.411 -0.8339 -1.7085  0.2471
  709SOL    HW2 2127   1.864   1.878   0.291  2.2678  1.2713 -0.5798
  710SOL     OW 2128   1.761   1.545   2.467  0.0131  0.5371 -0.4333
  710SOL    HW1 2129   1.818   1.482   2.407 -1.2488  0.2146  1.1222
  710SOL    HW2 2130   1.764   1.510   2.562 -0.9129  0.4870 -0.3744
  711SOL     OW 2131   2.708   2.865   0.970 -0.4131 -0.2219  0.0162
  711SOL    HW1 2132   2.644   2.939   0.924  1.2279  1.8702 -0.6976
  711SOL    HW2 2133   2.807   2.902   0.990 -0.4742 -0.7036 -0.5016
  712SOL     OW 2134   1.381   2.113   1.954  0.1337 -0.2382 -0.0046
  712SOL    HW1 2135   1.459   2.111   1.888 -1.6485 -1.9331  1.6221
  712SOL    HW2 2136   1.285   2.116   1.911  1.9257 -2.1613  1.4491
  713SOL     OW 2137   2.784   1.426   2.521  0.0518 -0.4190 -0.2026
  713SOL    HW1 2138   2.788   1.325   2.502  0.8166 -0.0135 -1.0349
  713SOL    HW2 2139   2.694   1.469   2.548  1.8846  0.6628  0.0795
  714SOL     OW 2140   2.671   0.462   2.356  0.2017 -0.0368 -0.0877
  714SOL    HW1 2141   2.629   0.438   2.444 -4.1883  4.5583 -0.2762
  714SOL    HW2 2142   2.645   0.410   2.271 -0.6819  1.6402  0.8603
  715SOL     OW 2143   1.601   2.159   1.152 -0.9271  0.1377 -0.3844
  715SOL    HW1 2144   1.512   2.188   1.114 -0.9922 -1.4241 -2.4255
  715SOL    HW2 2145   1.603   2.133   1.254  0.7183  0.7182  0.4259
  716SOL     OW 2146   1.251   0.107   1.544  0.4004  0.4542 -0.7657
  716SOL    HW1 2147   1.165   0.149   1.497  1.4681 -2.5622  0.5401
  716SOL    HW2 2148   1.333   0.170   1.528 -0.3067 -2.1058  0.4944
  717SOL     OW 2149   1.162   0.574   1.629 -0.0819 -0.2749  0.2156
  717SOL    HW1 2150   1.256   0.592   1.673  0.2702 -0.8159  0.9290
  717SOL    HW2 2151   1.162   0.552   1.528  1.1686 -0.1280 -1.1025
  718SOL     OW 2152   0.649   0.904   0.954  0.1416 -0.0515  0.0740
  718SOL    HW1 2153   0.640   0.893   0.852  0.6411 -1.8869  1.3777
  718SOL    HW2 2154   0.643   1.003   0.994 -1.7028 -0.3692 -1.2141
  719SOL     OW 2155   0.719   1.715   2.272 -0.3744  0.2565 -0.1170
  719SOL    HW1 2156   0.779   1.714   2.358  0.2636 -0.7399 -3.2636
  719SOL    HW2 2157   0.648   1.641   2.269  0.0481 -2.3123 -1.2018
  720SOL     OW 2158   2.152   1.158   0.272  0.8377 -0.3299 -0.2230
  720SOL    HW1 2159   2.231   1.098   0.242  1.1489 -1.0285 -0.9482
  720SOL    HW2 2160   2.123   1.137   0.373 -0.5571  0.4668  0.4646
  721SOL     OW 2161   2.257   2.962   2.151 -0.0102  0.9356 -0.1797
  721SOL    HW1 2162   2.278   2.979   2.046  1.5621  1.2738 -1.1813
  721SOL    HW2 2163   2.158   2.984   2.175 -0.3736  1.3809  2.4660
  722SOL     OW 2164   2.354   1.696   0.532  0.3603  0.0959 -0.1272
  722SOL    HW1 2165   2.411   1.733   0.457  1.2499 -1.8227  3.4129
  722SOL    HW2 2166   2.254   1.715   0.520  0.9742 -0.2163 -1.8961
  723SOL     OW 2167   2.648   2.764   1.942  0.2281  0.2773  0.0640
  723SOL    HW1 2168   2.670   2.853   1.990 -1.8485  0.2434  0.1488
  723SOL    HW2 2169   2.554   2.731   1.961  1.2651  0.3727  0.5311
  724SOL     OW 2170   0.367   2.515   2.419  0.3179 -0.3594  0.0467
  724SOL    HW1 2171   0.265   2.512   2.425  2.0136 -0.3508  4.1886
  724SOL    HW2 2172   0.410   2.456   2.497  2.0356 -0.7870 -0.4823
  725SOL     OW 2173   2.458   2.817   1.447  0.5551  0.3851 -0.3966
  725SOL    HW1 2174   2.518   2.823   1.356  3.2071 -0.1819 -1.0511
  725SOL    HW2 2175   2.447   2.718   1.479 -1.7545 -0.4810  1.7271
  726SOL     OW 2176   2.505   2.335   0.712  0.5365 -0.2520 -0.8111
  726SOL    HW1 2177   2.489   2.431   0.666 -1.3906  1.7024  0.3980
  726SOL    HW2 2178   2.526   2.266   0.638  0.1224  3.5318  0.6949
  727SOL     OW 2179   0.115   3.082   0.122  0.0775  0.0875  0.0452
  727SOL    HW1 2180   0.192   3.130   0.078 -0.8280  0.5580 -1.9221
  727SOL    HW2 2181   0.116   2.985   0.084  0.1485  3.3975 -2.2517
  728SOL     OW 2182   2.902   0.739   0.965 -0.1887  0.0497  0.0571
  728SOL    HW1 2183   2.846   0.726   0.877 -1.4559 -1.1818 -0.3846
  728SOL    HW2 2184   2.856   0.698   1.051 -1.9350 -0.5607 -1.4472
  729SOL     OW 2185   0.017   2.568   0.778  0.2633  0.4408 -0.0551
  729SOL    HW1 2186   0.068   2.500   0.830 -0.9894 -0.0679 -1.5666
  729SOL    HW2 2187   0.056   2.583   0.688 -1.4423 -2.7025  1.2346
  730SOL     OW 2188   2.565   0.718   0.885  0.3290 -0.2899 -0.4482
  730SOL    HW1 2189   2.512   0.798   0.848  0.1812 -1.4368 -0.0008
  730SOL    HW2 2190   2.654   0.701   0.835 -0.1062  0.3116  0.8325
  731SOL     OW 2191   3.080   2.225   2.335  0.0839 -0.5700 -0.4425
  731SOL    HW1 2192   3.060   2.250   2.436  1.9007 -0.4944  1.2656
  731SOL    HW2 2193   3.013   2.269   2.271  1.1537  2.1401 -0.8767
  732SOL     OW 2194   1.301   2.753   1.974 -0.7004  0.0867  0.0448
  732SOL    HW1 2195   1.337   2.680   2.042 -0.4801 -0.2486 -1.4014
  732SOL    HW2 2196   1.292   2.713   1.879 -0.3143 -0.6923  0.3302
  733SOL     OW 2197   0.028   0.608   2.251 -0.1568 -0.1654  0.1543
  733SOL    HW1 2198   0.077   0.671   2.183  1.7879 -0.2399  0.2972
  733SOL    HW2 2199  -0.025   0.532   2.206  1.6216 -0.8749  0.0682
  734SOL     OW 2200   1.483   0.394   2.710 -0.0091  0.4133  0.2063
  734SOL    HW1 2201   1.445   0.490   2.711 -4.0515 -0.5793  0.9522
  734SOL    HW2 2202   1.417   0.327   2.752 -0.5594 -0.3218 -0.9115
  735SOL     OW 2203   2.943   2.635   2.300  0.6389 -0.3654 -0.3816
  735SOL    HW1 2204   2.909   2.642   2.206 -0.7859 -0.0778  1.2683
  735SOL    HW2 2205   3.045   2.652   2.318 -0.1264  3.3473  0.2376
  736SOL     OW 2206   0.900   0.398   2.543 -0.0729  0.1391  0.3894
  736SOL    HW1 2207   0.806   0.438   2.564  1.5340  0.5277 -0.2497
  736SOL    HW2 2208   0.889   0.311   2.488  0.9383  0.8737  0.6118
  737SOL     OW 2209   2.671   0.470   2.779 -0.4202 -0.3121 -0.1341
  737SOL    HW1 2210   2.653   0.439   2.880  2.0860 -2.9416 -0.7737
  737SOL    HW2 2211   2.767   0.447   2.757  0.5812 -1.5730  0.3171
  738SOL     OW 2212   1.758   1.215   2.919 -0.5765  0.1469  0.9353
  738SOL    HW1 2213   1.848   1.246   2.879 -0.6339 -0.5011 -0.4341
  738SOL    HW2 2214   1.725   1.132   2.864  1.1673 -0.6896  0.9981
  739SOL     OW 2215   1.836   0.720   0.604 -0.1404  0.0768  0.0510
  739SOL    HW1 2216   1.867   0.724   0.700  3.1443 -0.3741 -1.5488
  739SOL    HW2 2217   1.845   0.620   0.563 -1.3259  0.2648 -1.9721
  740SOL     OW 2218   1.961   1.942   2.347  0.1925 -0.2086 -0.0477
  740SOL    HW1 2219   2.007   1.858   2.381  1.2813 -1.2074  1.2561
  740SOL    HW2 2220   1.903   1.926   2.254 -0.7245  0.9561 -0.3919
  741SOL     OW 2221   2.540   0.096   2.462  0.2770 -0.4371  0.3057
  741SOL    HW1 2222   2.644   0.089   2.444  0.4013 -2.0370 -0.3219
  741SOL    HW2 2223   2.486   0.119   2.376 -0.4603 -2.5800 -0.8390
  742SOL     OW 2224   2.212   1.450   0.184 -0.3626 -0.7119  0.1281
  742SOL    HW1 2225   2.137   1.510   0.153  0.0745 -1.8097 -0.9759
  742SOL    HW2 2226   2.181   1.354   0.213 -0.7271  1.8981 -0.1526
  743SOL     OW 2227   1.823   0.625   2.567  0.5646 -0.0376  1.0002
  743SOL    HW1 2228   1.788   0.556   2.495  1.8511  0.7905 -2.0268
  743SOL    HW2 2229   1.744   0.682   2.604 -1.4768 -0.7046  2.7003
  744SOL     OW 2230   2.651   2.137   0.139 -0.3355  0.6458 -0.0885
  744SOL    HW1 2231   2.551   2.149   0.158 -0.3773  1.7537 -3.2566
  744SOL    HW2 2232   2.668   2.035   0.127 -2.8624 -2.5643 -0.6229
  745SOL     OW 2233   2.173   2.505   2.216  0.0611  0.3872  0.2811
  745SOL    HW1 2234   2.109   2.518   2.132 -2.0466 -0.0178 -0.8549
  745SOL    HW2 2235   2.119   2.501   2.302 -1.1326  0.1599 -1.4342
  746SOL     OW 2236   3.090   2.563   1.771  0.0707  0.4647 -0.2080
  746SOL    HW1 2237   3.183   2.517   1.753  0.0012 -0.0431  0.0065
  746SOL    HW2 2238   3.102   2.660   1.808  1.8626  0.8488 -2.8023
  747SOL     OW 2239   3.097   1.784   1.667  0.4619 -0.0495 -0.3923
  747SOL    HW1 2240   3.053   1.693   1.642 -1.4639  0.8135 -3.0250
  747SOL    HW2 2241   3.168   1.828   1.609 -3.3705  3.3342  0.7621
  748SOL     OW 2242   1.815   2.701   2.945  0.4127 -0.0613 -0.0376
  748SOL    HW1 2243   1.832   2.783   3.004 -1.2381  1.4964  1.7268
  748SOL    HW2 2244   1.726   2.698   2.888 -0.5073  0.5742 -6.5345
  749SOL     OW 2245   1.290   2.921   0.821 -0.2065  0.2572  0.2421
  749SOL    HW1 2246   1.216   2.994   0.787  3.1428  1.0118 -0.1162
  749SOL    HW2 2247   1.388   2.939   0.793  2.1893 -2.2597 -0.3914
  750SOL     OW 2248   2.262   0.205   1.869 -0.1159 -0.5709 -0.2846
  750SOL    HW1 2249   2.308   0.228   1.780 -4.1432 -0.6564  1.5899
  750SOL    HW2 2250   2.289   0.272   1.949 -2.9613  0.2542 -0.2201
  751SOL     OW 2251   0.799   2.161   2.910 -0.4310 -0.0865 -0.1875
  751SOL    HW1 2252   0.884   2.141   2.962 -0.3376  2.9598  1.2421
  751SOL    HW2 2253   0.721   2.096   2.934  1.4537 -0.6256  0.1218
  752SOL     OW 2254   1.353   0.803   1.146 -0.2486 -0.4960  0.3848
  752SOL    HW1 2255   1.393   0.898   1.146  0.7325 -0.0415  1.7553
  752SOL    HW2 2256   1.398   0.741   1.218  0.0204  0.0948 -0.5844
  753SOL     OW 2257   0.995   2.590   1.794 -0.1557 -0.8220 -0.5658
  753SOL    HW1 2258   1.103   2.607   1.780 -1.2161 -0.6329 -1.2094
  753SOL    HW2 2259   0.945   2.671   1.846 -1.1184 -1.0819 -1.9440
  754SOL     OW 2260   1.156   1.170   2.996  0.2371 -0.3899  0.0721
  754SOL    HW1 2261   1.221   1.110   2.942  0.4837 -1.9160 -0.0640
  754SOL    HW2 2262   1.202   1.242   3.055  1.6226  1.3745 -1.1232
  755SOL     OW 2263   1.966   0.479   2.207  0.4374 -0.3497  0.1066
  755SOL    HW1 2264   2.036   0.412   2.228  1.3835  0.9959  3.2283
  755SOL    HW2 2265   1.887   0.468   2.276 -0.9602  0.6060 -1.0649
  756SOL     OW 2266   2.510   0.982   2.988 -0.2087 -0.2318  0.4335
  756SOL    HW1 2267   2.613   0.975   2.988  0.9985  2.4117 -1.4562
  756SOL    HW2 2268   2.459   0.899   3.026 -0.4402 -0.1996  1.7040
  757SOL     OW 2269   0.111   0.427   1.969 -0.0721  0.0187 -0.0379
  757SOL    HW1 2270   0.127   0.321   1.986 -1.5478  1.2668  1.1529
  757SOL    HW2 2271   0.024   0.453   2.016 -2.5235  0.2129 -1.5949
  758SOL     OW 2272   2.314   0.073   1.460  0.0448 -0.1478  0.9174
  758SOL    HW1 2273   2.285  -0.014   1.513  0.0841  0.2507 -1.5599
  758SOL    HW2 2274   2.272   0.078   1.366 -1.4191  0.4579  1.0178
  759SOL     OW 2275   1.704   0.112   0.093 -0.3062 -0.1124 -0.2604
  759SOL    HW1 2276   1.686   0.117  -0.007 -0.0342 -2.4861  2.0561
  759SOL    HW2 2277   1.803   0.103   0.119 -0.0275 -1.0752 -1.3153
  760SOL     OW 2278   2.712   2.020   2.842 -0.0440 -0.7315  0.0036
  760SOL    HW1 2279   2.649   2.098   2.856 -1.1263 -0.8907  1.5349
  760SOL    HW2 2280   2.809   2.059   2.833  1.0066  0.3273  2.0961
  761SOL     OW 2281   1.927   1.784   1.712 -0.4621 -0.2689  0.1070
  761SOL    HW1 2282   2.001   1.710   1.717  0.0275 -0.7600 -2.9784
  761SOL    HW2 2283   1.873   1.769   1.623  1.6785 -0.0196 -2.7973
  762SOL     OW 2284   0.499   2.400   0.936 -0.1147  0.5899  0.0055
  762SOL    HW1 2285   0.540   2.429   0.842 -1.0810  1.8777 -1.2803
  762SOL    HW2 2286   0.575   2.404   1.010 -0.3876 -0.3624 -0.6133
  763SOL     OW 2287   2.129   1.601   3.002  0.5119  0.2201 -0.2669
  763SOL    HW1 2288   2.219   1.564   3.024 -2.7779 -1.7129 -1.5910
  763SOL    HW2 2289   2.052   1.538   3.040 -0.4334  0.4073 -0.5121
  764SOL     OW 2290   0.678   0.592   0.656 -0.2663  0.3045  0.5526
  764SOL    HW1 2291   0.584   0.548   0.639 -1.2822  0.0067  3.0830
  764SOL    HW2 2292   0.719   0.552   0.738  2.0268  0.5040  1.4821
  765SOL     OW 2293   0.808   0.294   0.716  0.2824  0.6468  0.2547
  765SOL    HW1 2294   0.851   0.313   0.620 -2.4896  1.7077  1.1891
  765SOL    HW2 2295   0.813   0.372   0.780  1.1424  0.6401  3.2978
  766SOL     OW 2296   2.913   2.169   3.057  0.0797  0.0743 -0.5190
  766SOL    HW1 2297   2.829   2.181   3.116  1.1441  1.3576  3.8733
  766SOL    HW2 2298   2.976   2.250   3.075  0.2252 -1.5437 -1.7811
  767SOL     OW 2299   2.835   1.613   0.557 -0.0415 -0.3133  0.2568
  767SOL    HW1 2300   2.742   1.628   0.601  0.8985 -1.0175  1.6377
  767SOL    HW2 2301   2.907   1.597   0.626  0.1686  0.4435 -1.2653
  768SOL     OW 2302   1.020   0.213   0.177  0.0298 -0.2752  0.1710
  768SOL    HW1 2303   1.005   0.255   0.269  1.1243 -1.8649  0.2941
  768SOL    HW2 2304   1.116   0.175   0.163  0.4812 -2.8924 -2.1814
  769SOL     OW 2305   1.125   1.810   2.291  0.0633  0.0665 -0.5067
  769SOL    HW1 2306   1.033   1.813   2.350 -1.5060 -1.4336  3.5146
  769SOL    HW2 2307   1.207   1.822   2.353  0.6211 -0.2020  0.1417
  770SOL     OW 2308   0.172   1.153   2.316  0.0877  0.1863  0.4543
  770SOL    HW1 2309   0.152   1.216   2.392 -2.4870 -0.5478 -0.0132
  770SOL    HW2 2310   0.081   1.111   2.283  1.5668 -2.8955 -2.3022
  771SOL     OW 2311   3.062   2.800   1.906 -0.2113 -0.1047  0.0648
  771SOL    HW1 2312   2.990   2.834   1.839  4.7080  2.3826 -2.6307
  771SOL    HW2 2313   3.050   2.828   2.002 -0.4952  1.1734 -1.2499
  772SOL     OW 2314   2.366   0.211   2.839 -0.3367  0.4479  0.6875
  772SOL    HW1 2315   2.425   0.131   2.812  0.2087 -0.0770  0.6102
  772SOL    HW2 2316   2.365   0.217   2.941 -0.0052  1.3938 -1.8284
  773SOL     OW 2317   0.571   2.092   2.404  0.1266 -0.9238  0.3901
  773SOL    HW1 2318   0.535   2.188   2.383  0.8350 -1.4072 -1.1254
  773SOL    HW2 2319   0.504   2.025   2.452 -1.2407  1.6626 -1.6595
  774SOL     OW 2320   2.102   0.012   2.601  0.7129 -0.0072 -0.7475
  774SOL    HW1 2321   2.124   0.106   2.635  0.3036 -1.8057  3.2703
  774SOL    HW2 2322   2.170  -0.060   2.637  2.2594  1.9370 -0.6646
  775SOL     OW 2323   2.566   2.887   2.251  0.1055  0.5514 -0.8885
  775SOL    HW1 2324   2.472   2.922   2.280  3.7463  0.1333 -0.5148
  775SOL    HW2 2325   2.636   2.887   2.326  1.7157  0.3464 -1.6295
  776SOL     OW 2326   0.012   1.229   0.203  0.0320  0.3197  0.1799
  776SOL    HW1 2327  -0.034   1.180   0.122 -0.5801  1.5627 -0.6632
  776SOL    HW2 2328  -0.038   1.240   0.293  0.7541  0.0820 -3.0911
  777SOL     OW 2329   0.380   2.989   0.495  0.8454 -0.1887  0.2519
  777SOL    HW1 2330   0.291   2.985   0.449  3.1550  0.4024  1.2451
  777SOL    HW2 2331   0.398   2.917   0.562 -1.2746  0.3905  0.4733
  778SOL     OW 2332   1.388   1.986   0.294  0.2269  0.7425 -0.3945
  778SOL    HW1 2333   1.317   2.052   0.329 -0.1178 -2.6308 -2.5536
  778SOL    HW2 2334   1.403   2.006   0.194 -1.0222 -3.6495 -1.0410
  779SOL     OW 2335   0.150   0.809   0.458 -0.4899 -0.2570 -0.2348
  779SOL    HW1 2336   0.090   0.728   0.431 -0.9413 -1.4502  1.5314
  779SOL    HW2 2337   0.096   0.888   0.508  1.2217 -0.8330  0.7923
  780SOL     OW 2338   0.107   0.325   2.341  0.4982 -0.2058  0.0340
  780SOL    HW1 2339   0.111   0.414   2.395 -0.5858  0.4345 -1.0548
  780SOL    HW2 2340   0.191   0.309   2.286  0.6228  1.1309 -0.4945
  781SOL     OW 2341   0.670   1.649   1.544 -0.0796 -0.1290 -0.2537
  781SOL    HW1 2342   0.731   1.575   1.585  0.0119 -1.2137 -3.0839
  781SOL    HW2 2343   0.582   1.610   1.506 -0.0975  0.7759  0.7091
  782SOL     OW 2344   2.585   0.018   0.909 -0.3404  0.7574  0.1737
  782SOL    HW1 2345   2.540   0.080   0.837  0.2173  0.1716  1.4667
  782SOL    HW2 2346   2.556   0.039   1.008  0.3312 -1.0927  0.3735
  783SOL     OW 2347   2.736   0.735   2.434  0.8066  0.4777  0.2428
  783SOL    HW1 2348   2.702   0.756   2.533  1.1280  0.4947  0.5238
  783SOL    HW2 2349   2.733   0.634   2.403  2.2779  1.6010  0.1809
  784SOL     OW 2350   1.423   2.103   0.020 -0.0155  0.1210  0.0319
  784SOL    HW1 2351   1.474   2.172   0.075 -1.0113 -0.7141 -0.4957
  784SOL    HW2 2352   1.404   2.134  -0.083 -0.0278  1.1088 -1.9553
  785SOL     OW 2353   2.090   0.274   3.095 -0.2319  0.0970 -0.4320
  785SOL    HW1 2354   2.009   0.292   3.165  1.6799  2.0870  0.9690
  785SOL    HW2 2355   2.109   0.359   3.042 -0.7445 -1.1426  0.4018
  786SOL     OW 2356   2.051   2.203   2.266  0.3986 -0.1480  0.0592
  786SOL    HW1 2357   2.016   2.108   2.303 -0.6844  2.7003  0.5029
  786SOL    HW2 2358   2.147   2.202   2.235  0.6109  0.6907 -1.0457
  787SOL     OW 2359   1.397   0.533   0.880 -0.4846  0.3276 -0.3906
  787SOL    HW1 2360   1.329   0.612   0.884  0.1047 -2.1814 -0.1135
  787SOL    HW2 2361   1.435   0.521   0.788 -2.5748  1.9978  0.7788
  788SOL     OW 2362   1.201   0.442   0.019 -0.0513 -0.3589 -0.1294
  788SOL    HW1 2363   1.122   0.398  -0.030  0.0023  0.6074  0.6838
  788SOL    HW2 2364   1.179   0.517   0.087  2.1678  0.5801  0.7364
  789SOL     OW 2365   2.568   0.119   1.964 -0.2114 -0.6300  0.3786
  789SOL    HW1 2366   2.508   0.080   1.894  1.9601  0.7794  1.2179
  789SOL    HW2 2367   2.632   0.045   2.003 -0.5409  2.3926 -2.4024
  790SOL     OW 2368   2.631   2.775   0.707 -0.0854 -0.4678 -0.2420
  790SOL    HW1 2369   2.711   2.818   0.654 -0.4721 -0.7951  1.2632
  790SOL    HW2 2370   2.649   2.777   0.806 -0.0034  0.3537  1.1849
  791SOL     OW 2371   1.926   1.189   0.145 -0.4308  0.2216  0.4600
  791SOL    HW1 2372   1.855   1.140   0.200  0.0276 -1.8790  2.5748
  791SOL    HW2 2373   2.017   1.174   0.196  2.7148 -2.1703  2.1163
  792SOL     OW 2374   0.431   1.809   2.202 -0.0905 -0.6676  0.0455
  792SOL    HW1 2375   0.516   1.817   2.258 -1.1378 -2.0550 -2.1623
  792SOL    HW2 2376   0.405   1.714   2.182  1.7418 -1.1558  0.9550
  793SOL     OW 2377   2.097   1.617   2.071  0.3664  0.0451 -0.2473
  793SOL    HW1 2378   2.173   1.680   2.037  0.8318 -0.9584  0.0367
  793SOL    HW2 2379   2.112   1.516   2.060  0.3750 -1.6162  1.0159
  794SOL     OW 2380   0.485   1.543   2.275  0.3084 -0.8063  0.5323
  794SOL    HW1 2381   0.473   1.482   2.190 -2.0168 -1.3989  1.5468
  794SOL    HW2 2382   0.402   1.524   2.337  0.4307  0.3247 -1.3574
  795SOL     OW 2383   2.481   2.237   1.801  0.0938  0.1072  0.0545
  795SOL    HW1 2384   2.509   2.228   1.899  2.5677 -1.5403  2.0883
  795SOL    HW2 2385   2.439   2.149   1.762 -1.5658 -0.7574 -0.2906
  796SOL     OW 2386   3.080   1.108   2.707 -0.2623  0.3530 -0.6456
  796SOL    HW1 2387   2.980   1.086   2.725 -1.2125 -4.9587 -2.8483
  796SOL    HW2 2388   3.140   1.113   2.796 -0.3890  2.2803  1.1503
  797SOL     OW 2389   0.803   0.642   1.448  0.2264  0.0987 -0.5975
  797SOL    HW1 2390   0.869   0.686   1.518 -2.1504 -1.1661  1.3655
  797SOL    HW2 2391   0.774   0.715   1.378  1.7410 -0.0402 -0.2427
  798SOL     OW 2392   1.327   0.444   1.189 -0.4156 -0.3174 -0.1780
  798SOL    HW1 2393   1.379   0.386   1.254 -0.4841 -1.1928  0.0521
  798SOL    HW2 2394   1.377   0.468   1.104  0.2357 -1.6907  1.0235
  799SOL     OW 2395   1.961   2.652   1.048  0.0458  0.1308  0.0662
  799SOL    HW1 2396   1.898   2.638   1.129 -0.4127 -0.2652 -0.8978
  799SOL    HW2 2397   1.916   2.705   0.968  2.3800  0.8884 -1.8851
  800SOL     OW 2398   3.069   0.629   1.799 -0.4921 -0.1894  0.2783
  800SOL    HW1 2399   3.002   0.652   1.877  2.7909  0.7993  0.8091
  800SOL    HW2 2400   3.142   0.559   1.824 -1.6262 -1.5071  0.9428
  801SOL     OW 2401   1.897   2.161   0.181  0.2447  0.2602  0.3691
  801SOL    HW1 2402   1.814   2.140   0.118  0.5625  0.4983 -1.2252
  801SOL    HW2 2403   1.984   2.116   0.155 -0.5901  0.6152  0.0798
  802SOL     OW 2404   0.753   0.804   2.583  0.2976 -0.4752  0.1110
  802SOL    HW1 2405   0.800   0.786   2.495  1.6245  1.1243  0.9046
  802SOL    HW2 2406   0.654   0.767   2.587 -3.4028  0.3580  0.9398
  803SOL     OW 2407   0.893   0.161   0.956 -0.3819  0.5770 -1.0318
  803SOL    HW1 2408   0.980   0.217   0.983 -0.3220 -0.7765 -0.1349
  803SOL    HW2 2409   0.838   0.209   0.883  1.2805 -0.0784 -0.1661
  804SOL     OW 2410   0.420   3.008   2.086  0.1405 -0.5042  0.3419
  804SOL    HW1 2411   0.376   3.084   2.028  0.6510 -0.6868  1.3768
  804SOL    HW2 2412   0.376   2.913   2.071 -0.8732 -0.0590  1.2040
  805SOL     OW 2413   2.445   0.303   0.293 -0.7076 -0.3595  0.0222
  805SOL    HW1 2414   2.549   0.294   0.300  3.3251 -1.1602 -3.1242
  805SOL    HW2 2415   2.408   0.279   0.200  0.3714 -1.7691 -1.0284
  806SOL     OW 2416   0.686   2.389   1.672 -0.0689  0.1181  0.2177
  806SOL    HW1 2417   0.669   2.487   1.687 -1.6456 -0.9330  0.4232
  806SOL    HW2 2418   0.785   2.371   1.655 -1.2947  0.6595 -2.9831
  807SOL     OW 2419   2.519   0.921   0.435 -0.6480 -0.3887 -0.1967
  807SOL    HW1 2420   2.604   0.860   0.447  0.1376 -1.5288  1.4025
  807SOL    HW2 2421   2.496   0.937   0.335 -2.4851  1.8202 -2.1852
  808SOL     OW 2422   0.560   1.993   2.991  0.4006  0.3289  0.1514
  808SOL    HW1 2423   0.548   1.998   3.096 -2.6039 -0.4881  1.3773
  808SOL    HW2 2424   0.578   1.902   2.952 -0.2436  0.9107 -0.4517
  809SOL     OW 2425   2.686   1.982   1.909 -0.2033 -0.0180  0.2312
  809SOL    HW1 2426   2.760   2.057   1.913 -1.7284  0.4922  1.0185
  809SOL    HW2 2427   2.640   1.983   1.817 -1.2176 -0.1173  2.0532
  810SOL     OW 2428   2.093   1.127   0.541 -0.2703  0.1565 -0.3928
  810SOL    HW1 2429   2.087   1.073   0.636 -2.3766 -0.4152  0.3682
  810SOL    HW2 2430   2.058   1.227   0.549  0.4443  1.7576 -0.6731
  811SOL     OW 2431   1.286   2.381   1.217 -0.5390  0.7123 -0.0133
  811SOL    HW1 2432   1.245   2.293   1.255  0.1985  1.4912 -0.7215
  811SOL    HW2 2433   1.248   2.399   1.121 -0.9804  2.6659  1.1964
  812SOL     OW 2434   1.367   0.778   1.973  0.0010  0.3122  0.0021
  812SOL    HW1 2435   1.434   0.849   2.016  0.0700  0.5423 -2.7019
  812SOL    HW2 2436   1.269   0.810   1.960 -0.2750 -0.5681  0.8431
  813SOL     OW 2437   1.730   2.034   2.488  0.0321  0.7126 -0.1279
  813SOL    HW1 2438   1.836   2.007   2.487  4.6159 -0.0623 -0.4357
  813SOL    HW2 2439   1.686   2.031   2.393 -0.6171 -1.7019  0.8928
  814SOL     OW 2440   2.876   1.562   2.903 -0.9066 -0.6634  0.3977
  814SOL    HW1 2441   2.970   1.579   2.947  0.9811 -1.7729 -0.3369
  814SOL    HW2 2442   2.856   1.635   2.832  2.7304 -0.0630  0.7372
  815SOL     OW 2443   2.243   2.884   2.723 -0.5895 -0.0561  0.3531
  815SOL    HW1 2444   2.190   2.842   2.802  0.2119  2.8208  0.5283
  815SOL    HW2 2445   2.338   2.841   2.714  1.7934  1.1062  1.3385
  816SOL     OW 2446   1.755   0.352   1.685 -0.0120  0.3155  0.5022
  816SOL    HW1 2447   1.654   0.344   1.692 -0.6851 -0.6780 -1.0174
  816SOL    HW2 2448   1.800   0.329   1.778 -0.2223  0.4365  0.5383
  817SOL     OW 2449   0.469   1.225   2.469 -0.2705 -0.3537 -0.2343
  817SOL    HW1 2450   0.405   1.303   2.481  0.5318 -0.2115  2.0225
  817SOL    HW2 2451   0.472   1.191   2.368  1.1527 -1.5710 -0.6307
  818SOL     OW 2452   2.017   0.858   0.423 -0.0005  0.0050 -0.3796
  818SOL    HW1 2453   2.049   0.956   0.436  0.2963  1.9798  2.7943
  818SOL    HW2 2454   1.944   0.839   0.493 -0.6337 -0.4796 -1.5686
  819SOL     OW 2455   2.750   2.935   3.039  0.2930  0.0646 -0.1449
  819SOL    HW1 2456   2.849   2.900   3.012  2.3208 -0.3764 -0.0146
  819SOL    HW2 2457   2.673   2.905   2.978  1.2533  0.1049  0.0710
  820SOL     OW 2458   1.200   1.122   0.531 -0.1776  0.2367 -0.0351
  820SOL    HW1 2459   1.247   1.203   0.576 -1.0042  0.6755 -0.0470
  820SOL    HW2 2460   1.162   1.048   0.601 -1.7752  3.1645  2.3503
  821SOL     OW 2461   3.079   1.278   0.661  0.0537  0.0960 -0.2347
  821SOL    HW1 2462   3.038   1.282   0.755  2.4603 -0.4455  0.5734
  821SOL    HW2 2463   3.166   1.341   0.653 -1.3725 -1.4454  1.4026
  822SOL     OW 2464   2.546   1.758   2.442 -0.6962  0.1320 -0.6098
  822SOL    HW1 2465   2.521   1.843   2.500  0.6521  0.6622  0.0908
  822SOL    HW2 2466   2.545   1.774   2.340  2.2263 -0.6541  0.8978
  823SOL     OW 2467   2.049   0.890   1.198 -0.2048  0.3139 -0.0689
  823SOL    HW1 2468   2.013   0.880   1.296 -1.0885 -1.8415  0.4596
  823SOL    HW2 2469   1.973   0.930   1.137 -0.7066  1.4920 -0.6319
  824SOL     OW 2470   0.182   2.022   2.713 -0.2340 -0.6038  0.1412
  824SOL    HW1 2471   0.153   1.960   2.792 -1.9284  2.6439  1.5526
  824SOL    HW2 2472   0.236   1.979   2.638 -0.7228  0.4411  0.8747
  825SOL     OW 2473   1.239   1.048   0.270  0.0067  0.4677 -0.2345
  825SOL    HW1 2474   1.219   1.068   0.374  1.7372 -1.7878  1.1035
  825SOL    HW2 2475   1.282   1.126   0.218 -1.9633 -1.9282 -3.1647
  826SOL     OW 2476   1.924   0.640   1.548  0.2420 -0.5144 -0.2254
  826SOL    HW1 2477   1.973   0.583   1.620  0.5948 -2.7260  0.0859
  826SOL    HW2 2478   1.837   0.594   1.514 -1.7079 -0.1002 -0.9088
  827SOL     OW 2479   0.761   1.391   0.256 -0.5031  0.3912  0.9632
  827SOL    HW1 2480   0.756   1.329   0.169  0.2123  0.8489 -0.4050
  827SOL    HW2 2481   0.703   1.354   0.333  0.5497 -0.3520  1.5723
  828SOL     OW 2482   2.549   0.090   1.583 -0.3953  0.4573 -0.3561
  828SOL    HW1 2483   2.457   0.091   1.540 -2.1741 -1.0524  1.4076
  828SOL    HW2 2484   2.559   0.009   1.646 -2.0931 -0.6349  0.2491
  829SOL     OW 2485   2.807   2.498   3.027  0.5700 -0.3799 -0.4403
  829SOL    HW1 2486   2.736   2.425   3.015 -0.5080  0.2215  1.9674
  829SOL    HW2 2487   2.783   2.567   3.103 -2.1836  1.8083  0.4725
  830SOL     OW 2488   2.771   0.936   3.023 -0.0104  0.7179  0.4464
  830SOL    HW1 2489   2.806   1.009   3.087  0.2219  1.5287 -1.0976
  830SOL    HW2 2490   2.808   0.841   3.037  1.7909 -0.4553  0.2604
  831SOL     OW 2491   3.085   0.607   0.367  0.2190  0.2791 -0.2095
  831SOL    HW1 2492   3.035   0.549   0.442  1.9813  0.0103 -0.2803
  831SOL    HW2 2493   3.125   0.550   0.292  1.4579 -0.4574  0.8565
  832SOL     OW 2494   1.803   0.755   3.088 -0.1502 -0.2795  0.9664
  832SOL    HW1 2495   1.736   0.827   3.048 -0.4903  1.3612 -0.6316
  832SOL    HW2 2496   1.800   0.659   3.044  2.6152 -0.5635 -0.3737
  833SOL     OW 2497   2.464   2.136   0.508 -0.0334  0.2121 -0.1110
  833SOL    HW1 2498   2.362   2.148   0.516  0.1249  1.4188 -1.9542
  833SOL    HW2 2499   2.491   2.041   0.495  1.0638  2.2733 -1.1702
  834SOL     OW 2500   0.078   0.241   0.643  0.0366  0.1577 -0.1836
  834SOL    HW1 2501   0.112   0.149   0.682  1.1408  0.2402 -0.0615
  834SOL    HW2 2502   0.108   0.269   0.553 -3.4845 -0.4236 -0.0106
  835SOL     OW 2503   2.416   1.511   1.192 -0.9192  0.1294 -0.2601
  835SOL    HW1 2504   2.510   1.530   1.234  0.6477  0.5327 -3.0884
  835SOL    HW2 2505   2.418   1.486   1.095  0.1684 -0.3316  0.0227
  836SOL     OW 2506   1.518   0.844   2.580 -0.0981 -0.6730 -0.8048
  836SOL    HW1 2507   1.418   0.831   2.549 -0.7399 -0.2490  0.1674
  836SOL    HW2 2508   1.581   0.862   2.498  0.1794 -1.1356 -1.8062
  837SOL     OW 2509   1.541   0.028   0.511  0.3852  0.3771  0.2609
  837SOL    HW1 2510   1.498   0.122   0.517  0.7512 -2.0493 -1.7815
  837SOL    HW2 2511   1.521  -0.014   0.418  0.5940 -0.1109 -0.0846
  838SOL     OW 2512   1.295   1.589   2.665 -0.1442  0.2385 -0.3813
  838SOL    HW1 2513   1.349   1.531   2.735 -0.2343 -2.3573  1.4079
  838SOL    HW2 2514   1.209   1.532   2.636  0.4613 -2.6068 -0.1760
  839SOL     OW 2515   1.616   0.237   0.973  0.3990  0.2759 -0.0450
  839SOL    HW1 2516   1.643   0.285   1.060  0.9747 -0.9812 -1.3630
  839SOL    HW2 2517   1.595   0.138   0.989  0.5302  1.8101  2.7128
  840SOL     OW 2518   2.543   2.955   1.732  0.0100  0.0475 -0.2375
  840SOL    HW1 2519   2.518   2.918   1.635 -2.0820  3.2710 -1.2800
  840SOL    HW2 2520   2.592   2.886   1.792  0.5514  1.9628  2.1754
  841SOL     OW 2521   1.580   0.919   3.052 -0.6067  0.0952 -0.1535
  841SOL    HW1 2522   1.493   0.897   3.105 -0.9070  1.1446  2.9771
  841SOL    HW2 2523   1.569   0.983   2.976  2.3402 -2.1445  2.9746
  842SOL     OW 2524   0.813   1.523   0.851  0.1064 -0.1628 -0.4715
  842SOL    HW1 2525   0.779   1.598   0.922 -0.7138  0.8485  0.5716
  842SOL    HW2 2526   0.750   1.437   0.858 -1.6198  0.5015  0.8040
  843SOL     OW 2527   0.193   3.054   1.403  0.1699  0.0611  0.2053
  843SOL    HW1 2528   0.190   3.131   1.467 -1.4221 -1.6413  1.3493
  843SOL    HW2 2529   0.160   2.964   1.442  0.5070  0.0449  1.0199
  844SOL     OW 2530   0.820   2.487   0.255  0.4112  0.0631  0.0168
  844SOL    HW1 2531   0.760   2.431   0.319  2.9048 -0.2014  2.2674
  844SOL    HW2 2532   0.769   2.573   0.226  0.1552  0.3758  1.1406
  845SOL     OW 2533   1.651   2.830   1.243 -0.2053 -0.3511 -0.0417
  845SOL    HW1 2534   1.602   2.738   1.220  0.8906  0.4191 -1.9961
  845SOL    HW2 2535   1.680   2.835   1.343 -0.3967  3.2133  1.1898
  846SOL     OW 2536   1.550   2.998   0.746  0.6187 -0.1806  0.7702
  846SOL    HW1 2537   1.517   3.056   0.667  2.2074 -0.7652  0.8157
  846SOL    HW2 2538   1.648   2.976   0.735 -0.0824 -0.8291 -1.8625
  847SOL     OW 2539   2.085   1.742   0.468  0.0534 -0.4543 -0.1926
  847SOL    HW1 2540   2.029   1.656   0.487 -1.0140 -0.5879  0.6102
  847SOL    HW2 2541   2.032   1.824   0.450  0.0136  3.2108  0.1090
  848SOL     OW 2542   2.424   0.878   2.650 -0.0178  0.0559 -0.4070
  848SOL    HW1 2543   2.393   0.952   2.712  0.2950 -2.0692  1.5725
  848SOL    HW2 2544   2.360   0.795   2.648  0.1835 -0.2359 -0.1089
  849SOL     OW 2545   2.528   0.906   2.391 -0.0188  0.0773  0.0355
  849SOL    HW1 2546   2.619   0.853   2.407 -1.2554  2.1873 -0.1638
  849SOL    HW2 2547   2.478   0.913   2.479  0.5837 -0.4763 -0.7801
  850SOL     OW 2548   1.590   0.054   1.274 -0.0401 -0.2208 -0.1209
  850SOL    HW1 2549   1.566   0.020   1.176 -2.5730 -4.7250 -0.6932
  850SOL    HW2 2550   1.568  -0.022   1.340  2.2970 -2.2683 -1.8717
  851SOL     OW 2551   0.553   1.729   0.679 -0.6425  0.4193 -0.3525
  851SOL    HW1 2552   0.635   1.779   0.724  0.2667  0.6349 -1.8763
  851SOL    HW2 2553   0.551   1.747   0.572  0.3082 -2.0254  0.7742
  852SOL     OW 2554   0.861   2.106   1.696 -0.4652  0.3157  0.5317
  852SOL    HW1 2555   0.894   2.203   1.678  0.0198  0.8742 -0.5709
  852SOL    HW2 2556   0.779   2.097   1.757  0.5369 -1.2491  3.9824
  853SOL     OW 2557   2.538   1.542   2.614 -0.1210  0.1284 -0.1546
  853SOL    HW1 2558   2.475   1.463   2.591 -1.8798  0.8771 -0.3529
  853SOL    HW2 2559   2.536   1.622   2.543  3.0161  1.1754 -0.3987
  854SOL     OW 2560   2.457   1.420   1.777  0.9172 -0.2403 -0.4385
  854SOL    HW1 2561   2.464   1.368   1.686  0.6111 -4.2020 -1.1926
  854SOL    HW2 2562   2.413   1.360   1.853 -0.5750  2.7570  1.0398
  855SOL     OW 2563   2.080   2.393   1.099  0.3433  0.1833 -0.5357
  855SOL    HW1 2564   2.043   2.482   1.058  0.1995 -0.9043  0.6216
  855SOL    HW2 2565   2.155   2.412   1.170 -0.3081  0.1235 -0.0801
  856SOL     OW 2566   1.342   1.439   0.905  0.0714 -0.0474  0.2245
  856SOL    HW1 2567   1.411   1.516   0.922  0.7016  0.4255  1.8590
  856SOL    HW2 2568   1.249   1.460   0.937  0.1696 -0.5670  0.2308
  857SOL     OW 2569  -0.001   2.737   1.094  0.0157  0.2563 -0.1912
  857SOL    HW1 2570  -0.014   2.738   0.989 -3.2303  0.2073  0.1829
  857SOL    HW2 2571   0.074   2.679   1.125  0.7850  0.5476 -1.4660
  858SOL     OW 2572   2.395   2.057   1.574  0.2972  0.5916  0.2778
  858SOL    HW1 2573   2.307   2.022   1.616  3.4213 -0.4445 -1.1620
  858SOL    HW2 2574   2.479   2.001   1.614 -0.0025  0.6499  2.3540
  859SOL     OW 2575   2.444   0.536   1.083 -0.4319 -0.1538 -0.0285
  859SOL    HW1 2576   2.503   0.581   1.017 -2.5460 -0.2994  1.0689
  859SOL    HW2 2577   2.496   0.467   1.137  0.1176 -0.1554 -2.1284
  860SOL     OW 2578   1.904   2.823   0.507 -0.3352 -0.3403 -0.0615
  860SOL    HW1 2579   1.895   2.778   0.412  1.9470 -0.7628  0.1303
  860SOL    HW2 2580   1.875   2.920   0.506  1.9710  0.0064  0.6772
  861SOL     OW 2581   1.005   2.502   2.861 -0.4515  0.0325  0.2042
  861SOL    HW1 2582   1.078   2.571   2.828 -2.0227  1.9871  1.3409
  861SOL    HW2 2583   0.992   2.507   2.964  0.0071  1.1522 -0.9573
  862SOL     OW 2584   2.833   2.536   1.700  0.2750 -0.1631  0.0594
  862SOL    HW1 2585   2.920   2.546   1.750  0.2154  0.9285  1.1107
  862SOL    HW2 2586   2.818   2.620   1.639  4.1320  1.4035  0.0576
  863SOL     OW 2587   1.823   2.715   0.260  0.1103 -0.0209  0.4701
  863SOL    HW1 2588   1.870   2.620   0.247 -1.2793  0.1452  0.8487
  863SOL    HW2 2589   1.718   2.705   0.250 -2.3353 -0.6683  1.8729
  864SOL     OW 2590   2.028   1.244   2.799  0.0028  0.4429  0.0079
  864SOL    HW1 2591   2.006   1.175   2.724  1.3181 -1.8674  1.7050
  864SOL    HW2 2592   2.050   1.335   2.750  0.5942 -0.0295 -0.4473
  865SOL     OW 2593   2.136   1.949   0.740  0.1159  0.0138 -0.1742
  865SOL    HW1 2594   2.212   1.898   0.789  0.1698 -1.2504 -0.3761
  865SOL    HW2 2595   2.044   1.952   0.783  1.3082 -0.3055  0.5069
  866SOL     OW 2596   2.935   2.978   1.047  0.0190  0.8483 -0.1505
  866SOL    HW1 2597   2.953   3.016   0.955  1.8811  1.3461  1.1627
  866SOL    HW2 2598   3.003   2.900   1.078 -0.2373 -0.2647 -0.6709
  867SOL     OW 2599   0.319   1.397   0.884 -0.0449  0.0155  0.4564
  867SOL    HW1 2600   0.312   1.339   0.798  1.8264  0.0141 -1.1913
  867SOL    HW2 2601   0.315   1.500   0.864  0.8800  2.3707 -0.1415
  868SOL     OW 2602   0.786   1.865   2.039 -0.9155  0.3026 -0.0938
  868SOL    HW1 2603   0.759   1.860   2.142  0.7226  0.9674  3.7939
  868SOL    HW2 2604   0.733   1.942   1.989 -2.2049 -2.8034 -0.5027
  869SOL     OW 2605   2.622   1.904   1.660 -0.1296 -0.2651  0.1200
  869SOL    HW1 2606   2.696   1.959   1.620  1.6826 -0.0668  0.3663
  869SOL    HW2 2607   2.653   1.806   1.683  1.3294 -0.0320 -1.0989
  870SOL     OW 2608   2.391   2.695   1.151  0.0795 -0.2060  0.5560
  870SOL    HW1 2609   2.405   2.610   1.206 -2.7139 -0.7027  0.2590
  870SOL    HW2 2610   2.469   2.763   1.177 -1.0873 -3.1165 -3.5648
  871SOL     OW 2611   3.034   2.251   0.546 -0.1665 -0.3819  0.3496
  871SOL    HW1 2612   3.000   2.247   0.643 -0.6918 -1.2672  0.5168
  871SOL    HW2 2613   2.951   2.262   0.486 -2.1504  0.4454 -1.2819
  872SOL     OW 2614   2.098   0.478   1.695  0.0121  0.6004 -0.4486
  872SOL    HW1 2615   2.063   0.469   1.790  3.1189 -0.1855  0.2491
  872SOL    HW2 2616   2.203   0.461   1.691  0.9183 -2.8869  1.5817
  873SOL     OW 2617   1.723   2.074   3.103  0.1581 -0.5865  0.2153
  873SOL    HW1 2618   1.626   2.036   3.088 -1.8581  1.2424  0.7935
  873SOL    HW2 2619   1.751   2.140   3.030 -0.9577 -0.0070  0.4018
  874SOL     OW 2620   0.672   2.480   0.718 -0.0896 -0.4268  0.0886
  874SOL    HW1 2621   0.660   2.571   0.762 -0.6198 -0.2833  1.2594
  874SOL    HW2 2622   0.771   2.440   0.729  0.7331  2.4372  0.1016
  875SOL     OW 2623   2.283   1.571   1.436 -0.3497 -1.0589  0.5926
  875SOL    HW1 2624   2.369   1.611   1.472 -0.5029  0.7467  1.6602
  875SOL    HW2 2625   2.303   1.538   1.338  2.0995 -0.4134 -0.7317
  876SOL     OW 2626   0.079   2.269   2.633 -0.0012 -0.3911  0.3036
  876SOL    HW1 2627   0.127   2.175   2.642  0.3332 -0.2833  0.9316
  876SOL    HW2 2628   0.121   2.348   2.686  1.3349  3.9524  0.4181
  877SOL     OW 2629   2.881   2.624   0.666  0.2062  0.0046 -0.4528
  877SOL    HW1 2630   2.870   2.726   0.666  0.5521 -2.6404  1.9349
  877SOL    HW2 2631   2.977   2.608   0.700 -0.4462 -0.4179 -0.9684
  878SOL     OW 2632   2.838   1.625   2.315  0.0338  0.2555  0.1313
  878SOL    HW1 2633   2.764   1.691   2.287  0.0162  2.0678 -1.8182
  878SOL    HW2 2634   2.831   1.589   2.412  0.9783 -1.9099  0.3517
  879SOL     OW 2635   2.479   0.052   1.172 -0.6161  0.4248 -0.0160
  879SOL    HW1 2636   2.500  -0.027   1.239  1.1672 -0.5628 -1.8170
  879SOL    HW2 2637   2.378   0.046   1.140 -0.0773  0.5898  1.1148
  880SOL     OW 2638   0.651   0.545   2.265  0.6867  0.0745  0.0787
  880SOL    HW1 2639   0.671   0.512   2.361 -0.5640  0.9962 -0.6012
  880SOL    HW2 2640   0.683   0.481   2.189 -1.1761 -1.0415  1.5403
  881SOL     OW 2641   0.855   0.086   0.395 -0.2427 -0.5005 -0.6056
  881SOL    HW1 2642   0.875  -0.017   0.420  2.7985 -1.4599 -0.3608
  881SOL    HW2 2643   0.758   0.099   0.359 -1.2910  1.2737 -0.1347
  882SOL     OW 2644   2.709   1.593   1.722 -1.0289 -0.0389  0.2153
  882SOL    HW1 2645   2.805   1.591   1.675  0.6550 -0.6713 -1.7050
  882SOL    HW2 2646   2.712   1.546   1.811 -0.2086  1.9504 -0.7525
  883SOL     OW 2647   0.784   0.506   0.883 -0.1753 -0.0731  0.0669
  883SOL    HW1 2648   0.841   0.591   0.893  0.3659 -1.8253  0.6086
  883SOL    HW2 2649   0.728   0.488   0.970  0.1160  2.6537 -0.7139
  884SOL     OW 2650   1.202   1.718   1.106 -0.0363  0.4397  0.0910
  884SOL    HW1 2651   1.153   1.638   1.072 -0.4792  2.7950 -0.6167
  884SOL    HW2 2652   1.165   1.807   1.068  1.4999 -2.6676  2.4096
  885SOL     OW 2653   2.322   1.905   2.268  0.6678  0.0430 -0.7517
  885SOL    HW1 2654   2.253   1.848   2.321  1.5311  0.4853  0.9787
  885SOL    HW2 2655   2.315   2.007   2.291 -1.4375  1.2013  1.7542
  886SOL     OW 2656   2.609   0.341   1.786  0.1811  0.3727 -0.1647
  886SOL    HW1 2657   2.605   0.265   1.860 -1.5651  1.3939 -0.1531
  886SOL    HW2 2658   2.666   0.418   1.818  2.7370 -1.2978 -1.9057
  887SOL     OW 2659   0.152   2.072   1.275  0.3218  0.0573 -0.5839
  887SOL    HW1 2660   0.087   2.017   1.223 -0.4916 -0.2346  2.2449
  887SOL    HW2 2661   0.109   2.163   1.293  1.0162 -0.3508 -1.9737
  888SOL     OW 2662   0.588   1.239   1.548 -0.1391  0.4355  0.5762
  888SOL    HW1 2663   0.571   1.292   1.467  1.3491  0.0792  0.0783
  888SOL    HW2 2664   0.644   1.153   1.521  1.5568  0.2183 -0.2159
  889SOL     OW 2665   0.833   2.445   2.246  0.4463 -0.4961 -0.0112
  889SOL    HW1 2666   0.738   2.406   2.260 -1.4697  3.7880 -0.4611
  889SOL    HW2 2667   0.883   2.412   2.158 -0.1790  0.1989  0.3740
  890SOL     OW 2668   2.374   2.508   0.271 -0.1265  0.1381 -0.9050
  890SOL    HW1 2669   2.397   2.599   0.221 -1.3900  2.2083  1.0944
  890SOL    HW2 2670   2.310   2.531   0.348  0.7970  0.7846 -0.4152
  891SOL     OW 2671   2.614   1.682   0.703 -0.6250 -0.2248  0.2023
  891SOL    HW1 2672   2.641   1.701   0.802  1.3730  1.7836 -0.7275
  891SOL    HW2 2673   2.508   1.693   0.688 -1.1733  1.5003 -2.3581
  892SOL     OW 2674   0.367   0.329   2.207 -0.3386  0.1799 -0.2705
  892SOL    HW1 2675   0.386   0.430   2.191 -1.0057  2.2027 -1.8680
  892SOL    HW2 2676   0.443   0.267   2.185  0.6021  1.8037  2.7170
  893SOL     OW 2677   1.725   0.254   2.706 -0.4691  0.3150  0.7502
  893SOL    HW1 2678   1.803   0.298   2.755 -1.4300 -1.5679 -1.5690
  893SOL    HW2 2679   1.640   0.313   2.702 -0.1251 -4.6697  0.5190
  894SOL     OW 2680   2.134   2.085   0.098  0.2456  0.7648  0.0155
  894SOL    HW1 2681   2.108   2.020   0.024 -1.1262  2.0571  0.2855
  894SOL    HW2 2682   2.178   2.036   0.177 -0.6363  0.0324 -1.0808
  895SOL     OW 2683   2.744   1.454   0.897 -0.1151  0.3452  0.5242
  895SOL    HW1 2684   2.817   1.387   0.938 -0.3278  0.7780  3.1349
  895SOL    HW2 2685   2.754   1.547   0.935  0.6893 -0.8743  0.2705
  896SOL     OW 2686   1.808   1.776   1.238 -1.0176  0.7559 -0.2273
  896SOL    HW1 2687   1.908   1.748   1.252 -0.4944 -2.2374  1.6633
  896SOL    HW2 2688   1.769   1.724   1.157 -0.2396  1.7867 -0.3730
  897SOL     OW 2689   0.235   0.556   3.016  0.5512  0.3068 -0.1823
  897SOL    HW1 2690   0.195   0.630   2.959  0.7398 -2.7651  2.5079
  897SOL    HW2 2691   0.334   0.569   3.048 -1.0040  0.6566  1.2362
  898SOL     OW 2692   0.681   2.820   1.096  0.4654 -0.2516 -0.1872
  898SOL    HW1 2693   0.723   2.907   1.138  0.8591  0.6258  2.5437
  898SOL    HW2 2694   0.691   2.741   1.160  1.2419 -0.9636 -1.0604
  899SOL     OW 2695   2.877   0.949   1.335 -0.3202 -0.1211  0.2004
  899SOL    HW1 2696   2.813   1.019   1.292  1.5612 -1.0830 -0.4123
  899SOL    HW2 2697   2.968   0.988   1.350 -2.9041 -3.3554 -0.7159
  900SOL     OW 2698   1.002   2.474   2.471  0.6226 -0.4363 -0.1155
  900SOL    HW1 2699   0.937   2.465   2.387 -1.0072  0.2046 -1.4536
  900SOL    HW2 2700   0.973   2.420   2.555 -1.0564 -1.2358  0.0206
  901SOL     OW 2701   1.874   2.387   1.444  0.0047  0.1212  0.2592
  901SOL    HW1 2702   1.896   2.301   1.388 -1.2231  2.6844  0.3398
  901SOL    HW2 2703   1.957   2.432   1.494  0.8131  1.0519  1.3541
  902SOL     OW 2704   2.539   1.630   1.497 -0.1797  0.2128 -0.0389
  902SOL    HW1 2705   2.593   1.620   1.590  0.1675  0.7110  0.1398
  902SOL    HW2 2706   2.599   1.606   1.416 -0.5957 -3.7745  1.5540
  903SOL     OW 2707   0.321   2.392   1.979  0.3945  0.5175  0.1843
  903SOL    HW1 2708   0.250   2.324   2.004  0.6336  0.4298  0.5665
  903SOL    HW2 2709   0.310   2.444   1.889  0.8155 -0.3862 -0.9433
  904SOL     OW 2710   1.975   0.815   2.467  0.0947  0.0737  0.4423
  904SOL    HW1 2711   1.916   0.736   2.510  1.3636  0.7827  1.0591
  904SOL    HW2 2712   2.015   0.786   2.373  0.4209  1.2526  0.3074
  905SOL     OW 2713   2.812   0.078   2.413 -0.6417  0.1300 -0.2660
  905SOL    HW1 2714   2.857   0.003   2.468 -1.8579 -0.2797  2.2849
  905SOL    HW2 2715   2.851   0.172   2.441  1.0345 -0.7595  3.9422
  906SOL     OW 2716   0.165   1.736   1.886  0.6706  0.0373  0.2481
  906SOL    HW1 2717   0.092   1.742   1.807 -0.8588  1.2656 -0.4584
  906SOL    HW2 2718   0.239   1.811   1.883  2.8244 -1.0787  0.3345
  907SOL     OW 2719   0.224   2.484   0.960  0.0725  0.2664  0.2279
  907SOL    HW1 2720   0.316   2.436   0.954  0.3070  0.0490 -1.4323
  907SOL    HW2 2721   0.222   2.578   0.921  0.8380 -1.5446  1.2684
  908SOL     OW 2722   2.842   3.014   0.370 -0.6265  0.5189 -0.5561
  908SOL    HW1 2723   2.759   3.037   0.314  0.5101 -0.5352 -0.8720
  908SOL    HW2 2724   2.874   2.914   0.347  0.9706  0.0544 -1.0312
  909SOL     OW 2725   0.879   1.029   2.671 -0.1935 -0.0406 -0.2379
  909SOL    HW1 2726   0.815   0.953   2.658  1.1886  1.8763 -0.0791
  909SOL    HW2 2727   0.941   1.048   2.589 -0.6542  2.2927 -0.8367
  910SOL     OW 2728   1.813   1.888   2.119 -0.3369  0.5173 -0.2730
  910SOL    HW1 2729   1.893   1.895   2.054  2.5225 -1.9732 -1.0170
  910SOL    HW2 2730   1.747   1.966   2.123 -1.7259  0.5864  2.9061
  911SOL     OW 2731   1.768   2.914   1.518  0.2363  0.0207 -0.5270
  911SOL    HW1 2732   1.861   2.882   1.480 -0.1842  2.0639  1.3310
  911SOL    HW2 2733   1.714   2.840   1.566  0.3746  1.7918  0.5007
  912SOL     OW 2734   2.873   1.012   0.746  0.3469 -0.6169 -0.6567
  912SOL    HW1 2735   2.907   1.009   0.844  0.6274 -0.1993 -1.0853
  912SOL    HW2 2736   2.792   1.080   0.739 -0.6350  1.6468  1.7451
  913SOL     OW 2737   2.587   1.266   1.566  0.6684  0.4222  0.0648
  913SOL    HW1 2738   2.633   1.174   1.578  0.9163  0.7903 -0.6768
  913SOL    HW2 2739   2.620   1.319   1.485  0.1839 -0.1924  1.6339
  914SOL     OW 2740   2.853   0.612   1.195 -0.2795 -0.3149  0.0666
  914SOL    HW1 2741   2.824   0.522   1.228 -1.8487  1.0165  0.1520
  914SOL    HW2 2742   2.832   0.680   1.269 -0.7617  1.7240 -1.2645
  915SOL     OW 2743   1.218   0.735   0.910  0.3027  0.1733 -0.3033
  915SOL    HW1 2744   1.255   0.758   1.005 -2.0477  2.3797 -1.0878
  915SOL    HW2 2745   1.121   0.705   0.918 -0.2650 -0.5095 -2.0721
  916SOL     OW 2746   0.635   0.096   0.676  0.1057  0.2201 -0.3183
  916SOL    HW1 2747   0.707   0.170   0.707 -1.8814  1.5670 -0.6593
  916SOL    HW2 2748   0.597   0.115   0.580 -0.6891 -2.0164 -0.7279
  917SOL     OW 2749   2.872   2.611   2.039  0.4719 -0.2194 -0.1685
  917SOL    HW1 2750   2.785   2.656   2.023  1.5482 -1.3611 -0.8679
  917SOL    HW2 2751   2.942   2.619   1.966 -0.2162  1.5184 -0.3630
  918SOL     OW 2752   1.048   2.091   3.036 -0.5378  0.0499 -0.5045
  918SOL    HW1 2753   1.053   2.183   3.082 -1.5901 -1.2649  0.3231
  918SOL    HW2 2754   1.121   2.077   2.963  2.1530  1.0297  0.1976
  919SOL     OW 2755   0.803   1.639   2.808  0.5986  0.1168  0.4248
  919SOL    HW1 2756   0.850   1.722   2.769 -0.7813  2.7054 -0.2429
  919SOL    HW2 2757   0.798   1.564   2.738 -0.1654 -0.6484 -1.6266
  920SOL     OW 2758   1.345   1.818   2.458  0.4028 -0.2251  0.1722
  920SOL    HW1 2759   1.427   1.790   2.397  0.9233  0.9574  2.9889
  920SOL    HW2 2760   1.343   1.764   2.547 -0.1784 -0.3498 -1.0115
  921SOL     OW 2761   1.133   0.060   2.596 -0.2784 -0.6330  0.2439
  921SOL    HW1 2762   1.119   0.040   2.496 -1.5805  2.3905 -1.1708
  921SOL    HW2 2763   1.038   0.064   2.647  1.7340 -0.2010  0.9058
  922SOL     OW 2764   2.198   2.448   2.798  0.1744 -0.1642 -0.1651
  922SOL    HW1 2765   2.183   2.340   2.812  0.8786 -2.7785 -2.5350
  922SOL    HW2 2766   2.151   2.480   2.713  1.5538  1.9839  0.5273
  923SOL     OW 2767   1.188   2.738   0.283  0.3657  0.0028  0.0077
  923SOL    HW1 2768   1.249   2.807   0.332 -0.2751  2.8659 -1.4933
  923SOL    HW2 2769   1.232   2.646   0.265  3.2716 -1.1981  0.2918
  924SOL     OW 2770   2.943   1.695   0.159  0.0866 -0.0665  0.2783
  924SOL    HW1 2771   2.852   1.658   0.118 -1.6122  0.2548 -0.4876
  924SOL    HW2 2772   3.016   1.621   0.171  0.3290  2.9082 -0.2000
  925SOL     OW 2773   0.041   2.845   1.537  0.1741 -0.7595 -0.4510
  925SOL    HW1 2774  -0.023   2.925   1.552 -0.0288  0.5983 -1.4086
  925SOL    HW2 2775  -0.016   2.759   1.505  1.2124  0.3060  0.8789
  926SOL     OW 2776   1.271   2.775   1.330 -0.0565  0.0637 -0.5116
  926SOL    HW1 2777   1.300   2.787   1.233  1.4658 -0.1153 -0.6000
  926SOL    HW2 2778   1.318   2.844   1.389 -0.1335  0.3642 -0.8138
  927SOL     OW 2779   0.368   2.609   1.801  0.2090  0.6226  0.4051
  927SOL    HW1 2780   0.357   2.533   1.731  2.1976  1.3297  0.2582
  927SOL    HW2 2781   0.341   2.703   1.764 -1.3792 -0.2478 -1.3024
  928SOL     OW 2782   1.636   2.097   2.234 -1.0069  0.0573  0.1543
  928SOL    HW1 2783   1.653   2.183   2.178 -1.5706 -0.2178 -1.1280
  928SOL    HW2 2784   1.537   2.076   2.252  0.1596 -0.6341  0.7264
  929SOL     OW 2785   2.475   2.496   2.891  0.2287 -0.4007 -0.1030
  929SOL    HW1 2786   2.366   2.495   2.889 -1.9332  1.1304  3.3122
  929SOL    HW2 2787   2.513   2.495   2.797 -0.4087 -2.6082  2.0691
  930SOL     OW 2788   2.151   2.077   1.092  0.6985 -0.2818  0.6881
  930SOL    HW1 2789   2.167   2.059   1.191 -0.7561  1.4109  0.8894
  930SOL    HW2 2790   2.171   2.176   1.058  0.8367  1.5294 -2.7167
  931SOL     OW 2791   0.464   1.626   2.611  0.1196  0.5882 -0.3723
  931SOL    HW1 2792   0.482   1.679   2.697 -1.6378  0.4233 -0.5149
  931SOL    HW2 2793   0.542   1.585   2.559 -0.1457  0.9840 -0.4480
  932SOL     OW 2794   0.361   0.056   0.015  0.0259 -0.4064  0.4209
  932SOL    HW1 2795   0.408   0.142  -0.016  2.3496  0.4714  2.1730
  932SOL    HW2 2796   0.428  -0.021   0.037 -0.2811 -1.0542  2.8376
  933SOL     OW 2797   1.021   0.823   3.040  0.0686 -0.1028  0.4920
  933SOL    HW1 2798   1.092   0.872   3.101 -0.2239 -0.0101  1.4256
  933SOL    HW2 2799   0.927   0.865   3.039 -0.4058  1.6224  0.3829
  934SOL     OW 2800   0.891   2.970   2.629 -0.3023 -0.0578  0.2909
  934SOL    HW1 2801   0.871   2.906   2.545  1.0481  0.1699  0.0557
  934SOL    HW2 2802   0.913   2.923   2.717 -1.5898  1.8195 -2.1134
  935SOL     OW 2803   0.038   0.565   0.789  0.2609 -0.5726  0.2863
  935SOL    HW1 2804  -0.015   0.498   0.721  0.4668 -0.5688  0.8915
  935SOL    HW2 2805  -0.025   0.637   0.828  0.2757 -0.0286  2.9910
  936SOL     OW 2806   1.113   2.893   0.070  0.0044  0.0543 -0.6075
  936SOL    HW1 2807   1.195   2.913   0.009  0.5213 -0.5647  0.0967
  936SOL    HW2 2808   1.137   2.848   0.160 -2.1958  0.4092 -1.3221
  937SOL     OW 2809   1.946   2.603   2.081 -0.2205  0.3345  0.0473
  937SOL    HW1 2810   1.940   2.645   2.178 -0.3683  0.9700 -0.4224
  937SOL    HW2 2811   1.955   2.675   2.009 -1.0012  0.1638 -1.1508
  938SOL     OW 2812   2.754   2.119   1.557 -0.0669  0.1775 -0.1052
  938SOL    HW1 2813   2.701   2.211   1.573 -3.1437  0.8538  0.5379
  938SOL    HW2 2814   2.851   2.117   1.594  1.4636 -0.3674  1.2844
  939SOL     OW 2815   2.821   1.136   2.485 -0.2996 -0.1985 -0.6060
  939SOL    HW1 2816   2.915   1.114   2.443  0.5179 -2.8023  1.2296
  939SOL    HW2 2817   2.811   1.111   2.584  1.5987 -0.4500 -1.0101
  940SOL     OW 2818   1.085   0.456   2.751  0.5111 -0.0486  0.3833
  940SOL    HW1 2819   1.153   0.382   2.770 -1.3217 -2.0299  4.6936
  940SOL    HW2 2820   1.018   0.437   2.671  0.9259 -1.3424 -0.3375
  941SOL     OW 2821   0.084   2.818   2.280  0.2815  0.0581 -0.1965
  941SOL    HW1 2822   0.129   2.737   2.234  0.7067  0.3978 -1.3783
  941SOL    HW2 2823   0.156   2.876   2.323 -0.9297 -0.2229  1.9603
  942SOL     OW 2824   0.101   0.075   2.442 -0.0500 -0.0042  0.1742
  942SOL    HW1 2825   0.148   0.071   2.538  0.6967  1.1877 -0.4100
  942SOL    HW2 2826   0.089   0.175   2.412 -1.0947  0.2121  2.1382
  943SOL     OW 2827   2.137   1.705   2.344 -0.5856  0.3933  0.4164
  943SOL    HW1 2828   2.104   1.655   2.266  1.0960  1.4116  1.1795
  943SOL    HW2 2829   2.162   1.642   2.424  0.0251 -2.9827 -1.0893
  944SOL     OW 2830   2.174   2.350   1.573 -0.4982  0.6425 -0.0663
  944SOL    HW1 2831   2.251   2.331   1.642  1.1915 -1.3458 -1.7674
  944SOL    HW2 2832   2.110   2.268   1.575  3.0027  1.3591  1.0504
  945SOL     OW 2833   0.704   1.636   0.143  0.7643 -0.1267 -0.6780
  945SOL    HW1 2834   0.629   1.622   0.075  1.7779  0.1770  1.7265
  945SOL    HW2 2835   0.732   1.547   0.190  1.3848 -0.4361  0.2598
  946SOL     OW 2836   0.335   1.013   2.612 -0.1956  0.4277 -0.1197
  946SOL    HW1 2837   0.314   0.940   2.539 -1.0799  2.0406 -3.3342
  946SOL    HW2 2838   0.373   1.102   2.573 -2.1286  0.5706 -0.7944
  947SOL     OW 2839   1.476   0.521   3.039  0.1025 -0.2528  0.0531
  947SOL    HW1 2840   1.466   0.589   2.962 -0.0351 -0.7416 -0.1955
  947SOL    HW2 2841   1.385   0.478   3.057  0.4855 -1.3969 -0.3066
  948SOL     OW 2842   1.942   2.918   2.170 -0.2631 -0.5311  0.1010
  948SOL    HW1 2843   1.927   2.886   2.069  1.5800 -4.0653 -1.6545
  948SOL    HW2 2844   1.948   2.838   2.233 -1.3707  0.5276  1.6093
  949SOL     OW 2845   0.577   2.476   0.436  0.1966 -0.3506  0.4668
  949SOL    HW1 2846   0.609   2.566   0.387 -1.5224 -0.5523 -0.6441
  949SOL    HW2 2847   0.596   2.487   0.536 -1.4667 -0.3207  1.3034
  950SOL     OW 2848   0.170   2.240   2.927 -0.3180 -0.3639  0.3057
  950SOL    HW1 2849   0.186   2.325   2.876  0.5217 -3.8910  0.0399
  950SOL    HW2 2850   0.164   2.162   2.856  1.7841 -0.2604 -1.0658
  951SOL     OW 2851   1.227   2.672   2.796  0.0749  0.1014 -0.3628
  951SOL    HW1 2852   1.289   2.594   2.836 -0.2161  0.0232 -1.7438
  951SOL    HW2 2853   1.264   2.714   2.710  1.0887  1.2011 -1.8367
  952SOL     OW 2854   0.039   1.624   0.429  0.3865 -0.1729  0.0036
  952SOL    HW1 2855   0.064   1.714   0.476 -0.1966  1.6217 -3.7153
  952SOL    HW2 2856   0.052   1.539   0.482 -0.7238 -0.5651 -0.9386
  953SOL     OW 2857   2.513   1.737   0.291  0.4242 -0.1770  0.0680
  953SOL    HW1 2858   2.494   1.633   0.294  1.6238  0.8275 -0.9342
  953SOL    HW2 2859   2.495   1.777   0.201  2.7212 -0.6402 -1.7040
  954SOL     OW 2860   2.216   0.533   0.930  0.0220  0.2814 -0.1937
  954SOL    HW1 2861   2.248   0.541   0.832  3.3857  0.6912  1.7685
  954SOL    HW2 2862   2.305   0.530   0.989 -0.2352  0.7090 -0.3297
  955SOL     OW 2863   0.180   2.602   1.390 -0.1912  0.4749  0.2177
  955SOL    HW1 2864   0.079   2.628   1.396  1.9884  0.5208  0.1668
  955SOL    HW2 2865   0.245   2.682   1.374  3.8730 -3.3867 -0.1772
  956SOL     OW 2866   2.804   2.492   2.501 -0.2038  0.2022 -0.1909
  956SOL    HW1 2867   2.823   2.388   2.507 -0.3974  0.2149  2.6116
  956SOL    HW2 2868   2.856   2.541   2.423  3.4082  1.9588  0.8895
  957SOL     OW 2869   1.625   2.076   2.748  0.4007  0.5433 -0.3900
  957SOL    HW1 2870   1.612   1.995   2.815  3.4128 -1.8047  0.6804
  957SOL    HW2 2871   1.687   2.054   2.670 -1.3818 -0.0163  1.0101
  958SOL     OW 2872   2.623   2.293   2.995  0.7023  0.2742 -1.0409
  958SOL    HW1 2873   2.556   2.366   2.965 -1.1314  1.9564 -1.9099
  958SOL    HW2 2874   2.608   2.253   3.091 -0.6062  2.4473 -1.7128
  959SOL     OW 2875   0.398   2.804   0.148 -0.2449 -0.4277  0.2684
  959SOL    HW1 2876   0.320   2.866   0.162  0.3967  1.1839 -0.5064
  959SOL    HW2 2877   0.378   2.702   0.178 -0.9091 -1.8474  1.4228
  960SOL     OW 2878   1.915   0.491   1.923  0.4318 -0.4384 -0.2089
  960SOL    HW1 2879   1.899   0.583   1.880  1.2512 -0.6213  0.4449
  960SOL    HW2 2880   1.936   0.500   2.026  0.0115  0.0394 -1.8143
  961SOL     OW 2881   2.526   1.882   1.056  0.0907 -0.3199 -0.2705
  961SOL    HW1 2882   2.521   1.971   1.004  0.8484 -1.4780 -0.6680
  961SOL    HW2 2883   2.509   1.897   1.156 -0.0298  0.4474  0.1983
  962SOL     OW 2884   1.302   0.873   0.040 -0.3143 -0.6668 -0.2045
  962SOL    HW1 2885   1.310   0.908  -0.053 -0.2893 -1.1138  2.3714
  962SOL    HW2 2886   1.283   0.940   0.114 -0.3107  0.0823  0.4603
  963SOL     OW 2887   2.317   2.578   1.807 -0.2929 -0.2544 -0.3644
  963SOL    HW1 2888   2.276   2.487   1.835 -0.1821  2.5605  0.3143
  963SOL    HW2 2889   2.327   2.643   1.885 -1.1921  0.9580 -0.6187
  964SOL     OW 2890   2.373   0.394   1.670 -0.3813 -0.8700  0.2763
  964SOL    HW1 2891   2.464   0.378   1.717 -1.5740 -1.3537 -0.9357
  964SOL    HW2 2892   2.383   0.412   1.567 -1.2905 -0.1148  4.1484
  965SOL     OW 2893   2.598   3.011   0.195 -0.5085 -0.2089  0.4303
  965SOL    HW1 2894   2.671   2.996   0.121 -1.3948 -2.2321  0.4144
  965SOL    HW2 2895   2.506   3.031   0.149  0.2565  0.1031 -0.7462
  966SOL     OW 2896   2.473   2.490   2.257  0.3988 -0.4111  0.0813
  966SOL    HW1 2897   2.510   2.576   2.207  1.1923  0.0632  1.1733
  966SOL    HW2 2898   2.372   2.493   2.275  1.0723  0.9253 -0.7114
  967SOL     OW 2899   2.745   2.871   2.456  0.2740  0.5556  0.2783
  967SOL    HW1 2900   2.749   2.778   2.408 -0.1348 -0.6666 -2.0890
  967SOL    HW2 2901   2.843   2.908   2.472  0.5718  0.5268 -1.1184
  968SOL     OW 2902   1.968   1.068   2.603 -0.6831 -0.0847  0.3112
  968SOL    HW1 2903   1.880   1.120   2.593  0.1185  1.1759 -0.2580
  968SOL    HW2 2904   1.973   0.975   2.559  1.8250 -1.2537 -1.9029
  969SOL     OW 2905   2.798   2.564   1.088  0.6147  0.3099  0.7254
  969SOL    HW1 2906   2.758   2.656   1.061  1.1499 -0.2312  0.3071
  969SOL    HW2 2907   2.772   2.483   1.028  0.3616 -1.6635  0.5073
  970SOL     OW 2908   1.107   2.096   1.841  1.3438 -0.2254 -0.0430
  970SOL    HW1 2909   1.119   2.013   1.898 -1.4661  0.3903  2.8857
  970SOL    HW2 2910   1.032   2.088   1.769  1.5808 -0.7649  0.2366
  971SOL     OW 2911   2.889   2.169   1.938 -0.1424 -0.2843 -0.3471
  971SOL    HW1 2912   2.925   2.256   1.986 -0.6146 -1.3749  1.8632
  971SOL    HW2 2913   2.943   2.139   1.854 -2.6900  1.3329 -1.2669
  972SOL     OW 2914   1.926   2.448   0.241  0.5407  0.1778 -0.0175
  972SOL    HW1 2915   1.980   2.374   0.184  0.4272 -1.4161 -0.6477
  972SOL    HW2 2916   1.894   2.420   0.332 -0.0116 -1.8027 -2.4695
  973SOL     OW 2917   1.130   0.900   1.885 -0.1549 -0.3245 -0.1200
  973SOL    HW1 2918   1.086   0.807   1.890 -2.8466  0.0520 -0.0887
  973SOL    HW2 2919   1.066   0.966   1.833 -2.0348 -2.0736  0.4607
  974SOL     OW 2920   1.595   0.563   1.987 -0.0262  0.2006  0.4072
  974SOL    HW1 2921   1.672   0.601   1.928  0.5606 -0.9780 -1.3413
  974SOL    HW2 2922   1.506   0.613   1.979 -0.9296 -1.0601  0.0209
  975SOL     OW 2923   2.385   3.033   0.018  0.7320  0.1493 -0.4559
  975SOL    HW1 2924   2.310   2.968   0.051  0.1800  0.2809 -0.5415
  975SOL    HW2 2925   2.445   2.989  -0.052 -3.9001 -0.9386 -0.7600
  976SOL     OW 2926   1.938   2.702   2.342  0.4081 -0.3442 -0.6686
  976SOL    HW1 2927   1.854   2.664   2.388  0.2595  2.8062  1.2754
  976SOL    HW2 2928   2.009   2.729   2.412  1.4305 -1.3237  0.8819
  977SOL     OW 2929   0.451   0.679   1.011 -0.3496  0.3491  0.2993
  977SOL    HW1 2930   0.373   0.666   0.946 -1.7306  0.0099 -1.9466
  977SOL    HW2 2931   0.505   0.766   0.992  0.7459  0.3137 -1.4723
   3.10000   3.10000   3.10000
