1000 SPC/Fw water molecules t=   0.15000 step= 150
 2931
    1SOL     OW    1   2.536   0.334   2.573 -0.0515 -0.4790 -1.0216
    1SOL    HW1    2   2.532   0.232   2.543  0.1788 -1.4862  1.1659
    1SOL    HW2    3   2.580   0.353   2.666  0.6618  1.7242  1.8632
    2SOL     OW    4   2.722   3.011   1.423 -0.4645  0.3650 -0.0045
    2SOL    HW1    5   2.809   3.058   1.395  0.2170  0.1524 -1.4814
    2SOL    HW2    6   2.650   3.072   1.473 -0.7820 -2.1963  0.8155
    3SOL     OW    7   2.723   2.575   0.424  0.7616 -0.5257 -0.6247
    3SOL    HW1    8   2.733   2.473   0.412  0.0176 -1.2338  1.4599
    3SOL    HW2    9   2.760   2.594   0.520 -0.4643  3.1662 -0.9523
    4SOL     OW   10   1.327   1.457   2.326  0.2617 -0.0735  0.2221
    4SOL    HW1   11   1.257   1.512   2.377  0.9276  1.1305 -0.8424
    4SOL    HW2   12   1.357   1.374   2.376 -1.9674  2.3124  0.6168
    5SOL     OW   13   1.191   1.492   3.067 -0.1680  0.2101  0.0821
    5SOL    HW1   14   1.214   1.586   3.095 -0.9922 -1.4620 -0.1258
    5SOL    HW2   15   1.094   1.482   3.039 -1.0590  0.0379  1.8853
    6SOL     OW   16   0.120   1.869   2.943 -0.5432 -0.1990  0.0183
    6SOL    HW1   17   0.119   1.954   3.004  0.1201 -0.8565 -1.4096
    6SOL    HW2   18   0.086   1.783   2.986  1.1569  1.2006 -2.9579
    7SOL     OW   19   2.605   0.805   1.166 -0.3215  0.1658 -0.2808
    7SOL    HW1   20   2.511   0.769   1.188  0.3288  0.2002  1.9026
    7SOL    HW2   21   2.636   0.804   1.064  0.2246  1.6987  1.1668
    8SOL     OW   22   0.462   0.684   1.544  0.3252 -0.3749 -0.2886
    8SOL    HW1   23   0.529   0.615   1.575 -2.1448  1.5343 -1.3172
    8SOL    HW2   24   0.420   0.669   1.451  0.1363  1.0911 -0.7166
    9SOL     OW   25   1.178   0.915   2.270  0.3548  0.4490 -0.3485
    9SOL    HW1   26   1.258   0.977   2.235  3.8535 -1.4548  0.1924
    9SOL    HW2   27   1.110   0.895   2.198  1.6223  0.9957  3.7249
   10SOL     OW   28   0.643   1.344   1.282  0.2592  0.0502 -0.8633
   10SOL    HW1   29   0.567   1.381   1.229  1.1141 -2.3874 -0.7174
   10SOL    HW2   30   0.727   1.410   1.276 -1.5954  0.3269 -0.8556
   11SOL     OW   31   2.295   2.569   0.926  0.5436  0.2510  0.1686
   11SOL    HW1   32   2.323   2.631   1.009 -1.1892  1.1331  0.8820
   11SOL    HW2   33   2.367   2.506   0.897 -1.8031 -1.0448  1.4990
   12SOL     OW   34   1.444   0.900   0.480  0.6611  0.2048  0.1914
   12SOL    HW1   35   1.363   0.964   0.464  0.3281  0.5021 -0.1961
   12SOL    HW2   36   1.451   0.816   0.417  0.8605 -0.7711 -1.7995
   13SOL     OW   37   2.471   0.658   1.800  0.1124 -0.1301  0.3541
   13SOL    HW1   38   2.384   0.655   1.854  0.2516  0.9937  0.3947
   13SOL    HW2   39   2.463   0.634   1.698  0.3875 -0.0047 -0.9545
   14SOL     OW   40   1.844   3.077   0.554  0.5446 -0.4466  0.4700
   14SOL    HW1   41   1.761   3.084   0.492  2.1015  1.5293  1.0001
   14SOL    HW2   42   1.822   3.096   0.652  0.8468 -0.1212 -1.6662
   15SOL     OW   43   1.963   2.065   2.830 -0.0628 -0.3024  0.3618
   15SOL    HW1   44   1.916   2.153   2.859  0.7054  2.5267 -1.9253
   15SOL    HW2   45   1.904   1.998   2.772  0.0418  0.1672  0.0814
   16SOL     OW   46   1.568   1.718   0.054  0.4818 -0.0646  0.7623
   16SOL    HW1   47   1.586   1.631   0.005 -1.1928 -0.9302  1.2430
   16SOL    HW2   48   1.580   1.712   0.156  2.0514  1.0176 -0.2775
   17SOL     OW   49   0.126   0.408   0.176  0.3555  0.0020 -0.0501
   17SOL    HW1   50   0.211   0.466   0.158 -0.5077  1.7423 -2.5219
   17SOL    HW2   51   0.071   0.375   0.092 -0.5405  0.7545 -0.0510
   18SOL     OW   52   1.104   2.877   2.146  0.0686 -0.3092 -0.1057
   18SOL    HW1   53   1.034   2.936   2.093  2.4399  0.0922 -0.5448
   18SOL    HW2   54   1.167   2.822   2.084  0.4906 -1.9202 -0.8742
   19SOL     OW   55   0.536   1.006   1.944 -0.7093  0.2648 -0.7407
   19SOL    HW1   56   0.470   0.997   2.022 -2.0503  1.3357 -0.3765
   19SOL    HW2   57   0.625   0.958   1.965  1.1706  1.0073 -0.0528
   20SOL     OW   58   0.268   2.761   0.859  0.1623 -0.1212  0.1862
   20SOL    HW1   59   0.175   2.793   0.835 -1.8034 -0.9970  1.9104
   20SOL    HW2   60   0.312   2.718   0.777 -1.7026 -1.4036  1.3819
   21SOL     OW   61   2.785   0.236   2.156 -0.0925 -0.2558 -0.2459
   21SOL    HW1   62   2.854   0.190   2.098  0.1545  1.9768  0.7424
   21SOL    HW2   63   2.795   0.211   2.253 -1.5493  2.8882  0.6112
   22SOL     OW   64   2.380   0.209   0.033  0.2520 -0.2154 -0.7929
   22SOL    HW1   65   2.377   0.102   0.032  1.9081 -1.1061 -2.9163
   22SOL    HW2   66   2.283   0.255   0.020 -2.1929  2.1513 -3.8733
   23SOL     OW   67   2.775   0.662   0.712  0.2346  0.0400 -0.0687
   23SOL    HW1   68   2.752   0.568   0.674 -0.9952  1.3307  3.0605
   23SOL    HW2   69   2.776   0.729   0.630 -0.2616  0.2966 -0.1203
   24SOL     OW   70   0.164   1.892   0.456  0.1579  0.0020  0.9098
   24SOL    HW1   71   0.067   1.908   0.426  2.6233 -0.0976 -1.7640
   24SOL    HW2   72   0.225   1.914   0.375 -1.6676 -0.3736 -0.0276
   25SOL     OW   73   2.258   0.511   0.180  0.0657  0.2888  0.2133
   25SOL    HW1   74   2.346   0.485   0.213 -1.5963  1.8273 -1.7212
   25SOL    HW2   75   2.244   0.502   0.080 -4.3032 -1.1074  4.6448
   26SOL     OW   76   2.561   2.188   2.084 -0.3900  0.0167  0.0973
   26SOL    HW1   77   2.624   2.239   2.150 -1.2428  0.7505  0.6913
   26SOL    HW2   78   2.594   2.093   2.062 -0.6397 -1.7380 -1.4729
   27SOL     OW   79   0.671   2.976   0.093  0.0197 -0.0854 -0.0575
   27SOL    HW1   80   0.768   3.011   0.074 -0.7269 -0.1362  0.1253
   27SOL    HW2   81   0.635   2.931   0.003 -0.0902 -0.3140 -1.9517
   28SOL     OW   82   1.480   0.227   0.193  0.9455 -0.1031 -0.1737
   28SOL    HW1   83   1.564   0.181   0.154 -2.5346 -0.8991  4.4023
   28SOL    HW2   84   1.510   0.284   0.277 -0.7302 -0.9226  2.7650
   29SOL     OW   85   2.003   0.613   0.265 -0.1395 -0.0675 -1.1523
   29SOL    HW1   86   2.017   0.716   0.278  1.6693 -0.1945  1.2272
   29SOL    HW2   87   2.096   0.562   0.257  1.6552 -1.6269  1.3821
   30SOL     OW   88   0.209   2.041   0.933 -0.5338 -0.0641  0.4363
   30SOL    HW1   89   0.159   2.016   0.850  3.4073 -3.5230  2.1442
   30SOL    HW2   90   0.142   2.074   1.000 -0.3037 -3.3813  0.6502
   31SOL     OW   91   2.034   0.040   2.331 -0.5196  0.2478  0.0028
   31SOL    HW1   92   2.030   0.042   2.434  0.4163 -0.5961 -1.3892
   31SOL    HW2   93   1.967  -0.028   2.297  0.9528 -0.3167  0.6710
   32SOL     OW   94   2.975   0.104   0.232  0.0778  0.1887 -0.5141
   32SOL    HW1   95   2.950   0.043   0.312 -2.7974 -2.4030 -1.2902
   32SOL    HW2   96   3.039   0.061   0.165 -3.2900 -2.1372 -0.4257
   33SOL     OW   97   0.973   0.328   0.428  0.3337  0.0877 -0.1807
   33SOL    HW1   98   0.919   0.242   0.420  2.3640 -1.6743  1.2616
   33SOL    HW2   99   1.045   0.325   0.506 -2.7700 -0.8100 -1.2265
   34SOL     OW  100   0.413   2.903   1.065 -0.1258  0.6355 -0.1306
   34SOL    HW1  101   0.362   2.870   0.983  1.9536  2.0358  0.9088
   34SOL    HW2  102   0.516   2.882   1.067 -1.6962 -0.6536  0.4846
   35SOL     OW  103   0.054   3.098   1.801  0.3860 -0.0926  0.0582
   35SOL    HW1  104   0.105   3.002   1.809  1.8620 -2.7369 -0.0002
   35SOL    HW2  105   0.006   3.109   1.707  0.2741  2.8504 -2.6051
   36SOL     OW  106   1.899   1.155   1.816 -0.2926  0.2997  0.8922
   36SOL    HW1  107   1.976   1.108   1.753  1.7930  0.0443 -1.2960
   36SOL    HW2  108   1.906   1.259   1.825 -0.3731 -0.2892 -0.0547
   37SOL     OW  109   1.132   0.322   1.000 -0.0663 -0.0271 -0.3379
   37SOL    HW1  110   1.161   0.422   0.995  1.7142 -0.2496 -0.2914
   37SOL    HW2  111   1.186   0.267   1.065  0.5210 -0.7973 -1.7221
   38SOL     OW  112   1.147   2.699   2.399 -0.4462 -0.1626 -0.0891
   38SOL    HW1  113   1.095   2.620   2.443  1.1497 -3.5797  0.8253
   38SOL    HW2  114   1.098   2.749   2.325  2.8735 -2.4662  1.4801
   39SOL     OW  115   2.362   1.476   3.060 -0.7038 -0.3262 -0.3622
   39SOL    HW1  116   2.414   1.390   3.033  1.5990 -1.7038  0.5378
   39SOL    HW2  117   2.327   1.472   3.155 -0.1789  0.4523  1.8576
   40SOL     OW  118   2.074   2.538   2.557  0.7243 -0.1817 -0.3403
   40SOL    HW1  119   2.054   2.643   2.561 -1.1425  3.2157  0.0697
   40SOL    HW2  120   1.996   2.480   2.514 -2.5170 -0.6659 -2.1330
   41SOL     OW  121   2.905   0.680   2.760 -0.0140 -0.4615  0.0439
   41SOL    HW1  122   2.808   0.707   2.769 -0.0950 -2.9509 -0.3863
   41SOL    HW2  123   2.910   0.598   2.701  0.6940  0.8468 -1.4357
   42SOL     OW  124   1.730   1.749   0.583  0.5710 -0.1678 -0.0121
   42SOL    HW1  125   1.677   1.674   0.540  2.8956  0.7297 -0.1882
   42SOL    HW2  126   1.792   1.797   0.514  3.1714 -1.1268  0.2454
   43SOL     OW  127   0.456   1.735   1.212 -0.5149  0.1466 -0.2546
   43SOL    HW1  128   0.434   1.690   1.302  0.0942 -1.9958 -1.0906
   43SOL    HW2  129   0.367   1.751   1.158 -0.3405 -1.7409  1.4659
   44SOL     OW  130   1.728   2.516   0.003 -0.4854  0.1180  0.0661
   44SOL    HW1  131   1.755   2.585  -0.074 -1.8881  1.8146  1.7105
   44SOL    HW2  132   1.801   2.479   0.072  0.8967 -0.5535  1.9648
   45SOL     OW  133   0.388   1.895   2.501 -0.1711  0.7487 -0.4804
   45SOL    HW1  134   0.291   1.899   2.455 -0.6146  0.1441 -1.4274
   45SOL    HW2  135   0.419   1.796   2.525 -0.1228 -1.2391  1.4865
   46SOL     OW  136   1.151   0.654   0.182 -0.4479 -0.0986 -0.0773
   46SOL    HW1  137   1.202   0.719   0.114  3.2283 -1.7872  0.8826
   46SOL    HW2  138   1.047   0.666   0.195 -0.2855  0.3612 -2.8428
   47SOL     OW  139   0.251   2.451   1.611  0.2107 -0.0761  0.4048
   47SOL    HW1  140   0.323   2.377   1.593 -2.6596  1.9732  1.3225
   47SOL    HW2  141   0.236   2.509   1.526 -1.7582 -1.0625 -3.4715
   48SOL     OW  142   2.613   0.568   0.122  0.0637  0.3717  0.5111
   48SOL    HW1  143   2.583   0.588   0.218 -1.3956 -1.1413  0.0560
   48SOL    HW2  144   2.697   0.625   0.087 -2.6043 -1.5262 -3.2457
   49SOL     OW  145   0.365   0.830   1.762 -0.4561  0.6043  0.0339
   49SOL    HW1  146   0.439   0.883   1.813 -0.0168  0.5628  0.0396
   49SOL    HW2  147   0.400   0.769   1.683  0.2247 -0.6769 -1.6203
   50SOL     OW  148   1.760   1.064   0.337 -0.2288 -0.2701  0.6685
   50SOL    HW1  149   1.746   0.968   0.314  0.2441 -2.3063 -0.4561
   50SOL    HW2  150   1.753   1.080   0.438  0.2657  0.3296  0.9393
   51SOL     OW  151   3.014   1.890   0.377  0.0567  0.3332  0.3930
   51SOL    HW1  152   3.043   1.908   0.276 -1.9395  0.3790 -0.5035
   51SOL    HW2  153   2.977   1.793   0.393 -1.5379  0.0744  0.2699
   52SOL     OW  154   0.834   1.949   0.465 -0.1258  0.6008 -0.2096
   52SOL    HW1  155   0.763   2.010   0.508 -1.5036  0.9240  1.0862
   52SOL    HW2  156   0.863   1.871   0.532 -0.6547  0.2549  0.0872
   53SOL     OW  157   3.090   0.364   1.512 -0.0492 -0.5557 -0.0443
   53SOL    HW1  158   3.054   0.354   1.608 -2.6210 -0.4602 -2.1802
   53SOL    HW2  159   3.071   0.457   1.476  2.1403  0.7533 -1.1750
   54SOL     OW  160   1.758   0.484   3.005 -0.4505  0.0959  0.2630
   54SOL    HW1  161   1.801   0.439   3.091  1.6710 -1.8165 -1.1458
   54SOL    HW2  162   1.651   0.500   3.017 -3.0831 -0.7787  0.2102
   55SOL     OW  163   0.714   2.932   0.645  0.0241  0.2450 -0.3476
   55SOL    HW1  164   0.687   3.024   0.669  1.3172 -2.8490 -2.4903
   55SOL    HW2  165   0.816   2.935   0.620 -0.2082 -1.2287 -1.1551
   56SOL     OW  166   0.499   1.529   3.072 -0.3923 -0.1297 -0.3285
   56SOL    HW1  167   0.408   1.565   3.113 -2.0378  1.1791  0.3904
   56SOL    HW2  168   0.492   1.432   3.046  0.2566  3.8275 -2.5045
   57SOL     OW  169   1.765   2.380   2.643 -0.1097 -0.2017 -0.9109
   57SOL    HW1  170   1.812   2.345   2.560 -0.2115 -1.4711  1.2568
   57SOL    HW2  171   1.670   2.416   2.615  0.8595  4.2706 -0.7941
   58SOL     OW  172   0.613   0.486   1.106 -0.7515 -0.8327  0.2046
   58SOL    HW1  173   0.548   0.553   1.079  1.7509  1.0412  2.5634
   58SOL    HW2  174   0.581   0.393   1.093  1.7048  0.0535  0.4886
   59SOL     OW  175   0.476   2.393   2.642 -0.1844  0.7708 -0.3076
   59SOL    HW1  176   0.495   2.292   2.669  1.8741 -3.1568  0.3210
   59SOL    HW2  177   0.545   2.458   2.693  1.0023  3.4182 -1.2455
   60SOL     OW  178   2.333   2.190   2.248  0.0184  0.2437 -0.1608
   60SOL    HW1  179   2.417   2.214   2.192  0.9202  0.3967 -1.4190
   60SOL    HW2  180   2.326   2.227   2.346  0.6267 -1.4710  2.8594
   61SOL     OW  181   1.372   0.593   0.430  0.2543 -0.5633  0.0934
   61SOL    HW1  182   1.284   0.636   0.472 -1.2397  1.0700  0.5837
   61SOL    HW2  183   1.359   0.568   0.330  1.8318 -0.9697 -0.2098
   62SOL     OW  184   2.664   1.893   0.014 -0.7718 -0.5562 -0.1028
   62SOL    HW1  185   2.693   1.794   0.023  1.2410  0.3439 -1.0757
   62SOL    HW2  186   2.685   1.919  -0.085  1.5335 -0.6240 -1.3534
   63SOL     OW  187   0.520   0.797   0.138 -0.0584  0.1148  0.7118
   63SOL    HW1  188   0.505   0.894   0.105  0.2487  0.8371  0.7182
   63SOL    HW2  189   0.583   0.787   0.218  0.4889 -1.3591 -0.6736
   64SOL     OW  190   0.074   0.547   2.517  0.1319 -0.6946 -0.0695
   64SOL    HW1  191   0.105   0.591   2.607  2.7334 -0.6946  1.3598
   64SOL    HW2  192   0.070   0.600   2.428  1.8594 -0.7283  1.6227
   65SOL     OW  193   0.183   1.447   0.630 -0.0757 -0.5001  0.4881
   65SOL    HW1  194   0.188   1.509   0.712  0.5253 -1.2157  0.3270
   65SOL    HW2  195   0.280   1.420   0.599 -1.1817  0.6376  0.6861
   66SOL     OW  196   2.469   0.352   0.682  0.3478  0.8504  0.1539
   66SOL    HW1  197   2.407   0.429   0.697  2.5900 -1.6905 -1.2230
   66SOL    HW2  198   2.430   0.259   0.706  0.3496  0.4935  1.5782
   67SOL     OW  199   0.481   2.566   1.327  0.2922 -1.0275  0.2194
   67SOL    HW1  200   0.582   2.583   1.335 -0.9421 -1.6051  2.1775
   67SOL    HW2  201   0.456   2.466   1.332  1.7853  2.1598 -0.3959
   68SOL     OW  202   1.021   1.103   2.438 -0.2112 -0.1587  0.8579
   68SOL    HW1  203   1.072   1.047   2.363 -2.0677 -0.3369  0.4632
   68SOL    HW2  204   0.928   1.134   2.399 -0.1016  0.4850  0.9520
   69SOL     OW  205   0.780   2.695   2.159  0.3264  0.0849 -0.0653
   69SOL    HW1  206   0.803   2.598   2.188 -0.6292 -2.1275  1.3610
   69SOL    HW2  207   0.675   2.715   2.174  2.1395  1.2916  1.8343
   70SOL     OW  208   0.608   0.235   2.711  0.1797  0.5522 -0.1043
   70SOL    HW1  209   0.595   0.241   2.814 -0.2459 -1.1840  0.0177
   70SOL    HW2  210   0.551   0.158   2.673 -1.6469  0.1027  0.4912
   71SOL     OW  211   1.094   1.815   0.374 -0.4708 -0.5412  0.2336
   71SOL    HW1  212   1.046   1.725   0.390 -1.5345 -0.1646  0.6572
   71SOL    HW2  213   1.080   1.851   0.279  0.5046 -3.0904  2.2059
   72SOL     OW  214   1.778   0.068   2.089  0.5099 -0.0140  0.0094
   72SOL    HW1  215   1.827   0.091   2.006 -1.9090  0.5619 -1.5559
   72SOL    HW2  216   1.807  -0.024   2.130  1.3671  0.2773  0.7692
   73SOL     OW  217   2.840   2.218   2.518 -0.4517 -0.5982 -0.3972
   73SOL    HW1  218   2.826   2.120   2.480  0.7598  1.1702  1.1342
   73SOL    HW2  219   2.862   2.225   2.623 -0.6454  0.1568  1.4352
   74SOL     OW  220   2.706   3.021   2.059  0.1553  0.0861 -0.0564
   74SOL    HW1  221   2.636   2.987   2.132 -2.5195  1.4829  1.8208
   74SOL    HW2  222   2.809   3.005   2.084  0.5359 -0.5050 -1.3444
   75SOL     OW  223   0.915   0.742   0.980 -0.2469  0.0607  0.5213
   75SOL    HW1  224   0.842   0.804   0.952  0.2095  1.6607  1.2408
   75SOL    HW2  225   0.959   0.764   1.071  0.6006 -1.0921 -3.5050
   76SOL     OW  226   1.753   1.220   2.571  0.4340 -0.2961 -0.5144
   76SOL    HW1  227   1.654   1.205   2.561  0.2546  0.0395 -0.5938
   76SOL    HW2  228   1.771   1.304   2.631 -0.6761 -1.8026  0.7485
   77SOL     OW  229   3.002   0.990   0.982 -0.3664 -0.7734 -0.3163
   77SOL    HW1  230   2.962   0.894   0.984 -1.4238  1.2916  0.0736
   77SOL    HW2  231   3.065   1.020   1.061  1.4497 -1.1327 -0.0416
   78SOL     OW  232   1.973   1.400   1.475 -0.3681 -0.2669 -0.0506
   78SOL    HW1  233   2.073   1.412   1.439  2.2824  0.0995  2.8423
   78SOL    HW2  234   1.900   1.372   1.406  0.7801 -0.6907  0.7704
   79SOL     OW  235   0.650   1.320   0.861 -0.4178  0.6538 -0.0782
   79SOL    HW1  236   0.571   1.381   0.868 -0.1934  0.7697 -1.9494
   79SOL    HW2  237   0.650   1.266   0.775  0.9811  0.8745  3.1804
   80SOL     OW  238   0.645   0.486   1.603  0.2118  0.4134  0.0053
   80SOL    HW1  239   0.700   0.549   1.541 -1.4779  0.5546 -0.8064
   80SOL    HW2  240   0.640   0.386   1.577  0.2082 -1.3669 -0.6904
   81SOL     OW  241   1.093   1.421   2.610 -0.1345 -0.4398  0.9108
   81SOL    HW1  242   1.041   1.360   2.673 -1.0853  0.3805 -0.8823
   81SOL    HW2  243   1.052   1.421   2.515 -0.4637 -4.4396 -0.8377
   82SOL     OW  244   0.907   3.028   1.518 -0.0155  0.1782 -0.4964
   82SOL    HW1  245   0.969   2.949   1.505  2.6313  0.1258  1.1301
   82SOL    HW2  246   0.810   2.998   1.532 -1.3240 -1.5155  3.1390
   83SOL     OW  247   2.763   2.421   0.808  0.2539  0.2055 -0.0652
   83SOL    HW1  248   2.665   2.405   0.779 -1.8104  2.9465 -2.9005
   83SOL    HW2  249   2.803   2.497   0.748 -0.9553 -0.6813 -0.6142
   84SOL     OW  250   0.668   0.013   2.414  0.1119 -0.2173 -0.0983
   84SOL    HW1  251   0.578  -0.031   2.448  2.6116 -0.2892  1.4956
   84SOL    HW2  252   0.747  -0.008   2.472  0.8639  2.7684 -1.1952
   85SOL     OW  253   0.408   1.647   1.472  0.4305 -0.3162  0.4148
   85SOL    HW1  254   0.378   1.747   1.484  1.6965  0.6583  0.1111
   85SOL    HW2  255   0.393   1.600   1.566 -1.1811  2.8847 -1.4780
   86SOL     OW  256   0.359   1.039   1.480 -0.0210 -0.3316 -0.0303
   86SOL    HW1  257   0.350   0.978   1.395 -3.0714  0.7670 -0.8351
   86SOL    HW2  258   0.392   0.992   1.567  1.1873 -2.0202 -0.2458
   87SOL     OW  259   1.576   0.582   0.199  0.3826 -0.4304  0.4338
   87SOL    HW1  260   1.613   0.676   0.220  0.8706 -1.0301 -0.2687
   87SOL    HW2  261   1.545   0.575   0.100 -1.1951  2.7584  1.3418
   88SOL     OW  262   1.590   1.274   0.178 -0.3341 -0.7892  0.1015
   88SOL    HW1  263   1.613   1.177   0.206  0.3238 -0.0171  2.5266
   88SOL    HW2  264   1.492   1.291   0.200  1.4663 -0.8455  4.3079
   89SOL     OW  265   2.985   0.439   0.575  0.2822  0.4415 -0.1081
   89SOL    HW1  266   3.046   0.354   0.573  3.4700  2.3222  1.2734
   89SOL    HW2  267   2.881   0.421   0.576  3.4609  2.2855 -2.5967
   90SOL     OW  268   0.943   1.650   3.055  0.6849  0.3855  0.2841
   90SOL    HW1  269   0.873   1.644   3.131  1.6102 -0.3508  0.4714
   90SOL    HW2  270   0.897   1.629   2.965  1.6702  0.1369 -0.5118
   91SOL     OW  271   1.268   1.422   1.782  0.5329  0.2957 -0.2382
   91SOL    HW1  272   1.291   1.507   1.839  1.0463  1.6973  0.8550
   91SOL    HW2  273   1.345   1.387   1.721  1.8541  2.0806  1.8510
   92SOL     OW  274   0.067   1.061   1.179  0.4818 -0.0077 -0.0163
   92SOL    HW1  275   0.155   1.048   1.122  0.4073 -1.4971 -0.3104
   92SOL    HW2  276   0.067   1.014   1.276 -0.6520  0.0454 -0.7138
   93SOL     OW  277   0.085   2.826   0.018 -0.5922  0.2544  0.4686
   93SOL    HW1  278  -0.004   2.827  -0.033 -2.3311 -1.4226  0.7329
   93SOL    HW2  279   0.101   2.742   0.076  1.0289 -1.7930  1.2239
   94SOL     OW  280   1.496   1.305   1.665 -0.5435  0.5063  0.2363
   94SOL    HW1  281   1.536   1.214   1.697  1.1551 -0.6000 -0.4546
   94SOL    HW2  282   1.563   1.380   1.687  2.9958 -0.4640 -0.3578
   95SOL     OW  283   1.391   2.492   2.892 -0.1060  0.4041 -0.3501
   95SOL    HW1  284   1.349   2.496   2.990 -2.2977 -0.9488  2.7452
   95SOL    HW2  285   1.423   2.394   2.867  0.7758 -0.7941 -0.1882
   96SOL     OW  286   0.505   2.027   1.225  0.3194  0.1737  0.2701
   96SOL    HW1  287   0.488   2.064   1.128 -0.8285 -0.2321 -1.6265
   96SOL    HW2  288   0.485   1.923   1.226 -2.1281 -0.4793 -1.1414
   97SOL     OW  289   0.301   1.456   2.471  0.2886  0.2122  0.3877
   97SOL    HW1  290   0.215   1.408   2.514 -0.5660  0.0155 -2.0994
   97SOL    HW2  291   0.355   1.512   2.542  0.2091  0.6028 -0.6248
   98SOL     OW  292   2.073   1.677   1.276 -0.4475  0.9935  0.5875
   98SOL    HW1  293   2.059   1.597   1.218  0.3155  0.8012  1.3414
   98SOL    HW2  294   2.152   1.654   1.343  0.5465  1.8913 -0.6874
   99SOL     OW  295   2.474   2.166   1.333 -0.3126  0.1279 -0.6855
   99SOL    HW1  296   2.430   2.185   1.424 -0.2541 -1.6591 -0.4694
   99SOL    HW2  297   2.483   2.062   1.320  2.0159  0.3134  2.4490
  100SOL     OW  298   2.305   0.411   2.050  0.1317  0.1253 -0.5993
  100SOL    HW1  299   2.244   0.367   2.129 -3.0081  1.5322  0.9672
  100SOL    HW2  300   2.403   0.424   2.084 -1.6663 -1.9419 -2.2862
  101SOL     OW  301   0.430   1.427   0.279  0.1320  0.2573 -0.0145
  101SOL    HW1  302   0.427   1.447   0.382 -1.2060  1.0768  0.3901
  101SOL    HW2  303   0.474   1.498   0.220 -1.5770 -1.2916 -1.1659
  102SOL     OW  304   2.269   1.076   0.821  0.4680 -0.0480 -0.5314
  102SOL    HW1  305   2.200   1.004   0.786 -1.8748  0.2343 -1.9733
  102SOL    HW2  306   2.306   1.138   0.745 -1.3847  0.0741  1.7292
  103SOL     OW  307   2.285   0.070   0.402 -0.3076  0.0447  0.0746
  103SOL    HW1  308   2.358   0.137   0.371 -0.1200 -2.8327  0.0002
  103SOL    HW2  309   2.328  -0.002   0.469  2.2770  2.0679  1.6554
  104SOL     OW  310   0.072   1.870   2.161 -0.3980  0.4419 -0.1627
  104SOL    HW1  311   0.109   1.781   2.123  1.0988 -1.7406  1.4926
  104SOL    HW2  312  -0.016   1.910   2.123 -0.3455  0.2742  3.0857
  105SOL     OW  313   1.111   1.969   0.836  0.1548  0.3204  0.4401
  105SOL    HW1  314   1.091   2.042   0.764 -2.2803 -0.6905  0.6632
  105SOL    HW2  315   1.124   1.874   0.793  5.2434  0.6971  1.6822
  106SOL     OW  316   2.048   0.472   1.349 -0.0587 -0.3285  0.0953
  106SOL    HW1  317   2.017   0.381   1.388  0.6968 -1.1755 -0.0361
  106SOL    HW2  318   2.021   0.545   1.417  0.1726  0.1240  0.9142
  107SOL     OW  319   1.801   3.019   1.114 -0.0674  0.3578 -0.6239
  107SOL    HW1  320   1.849   3.077   1.185 -0.5550 -0.4020  0.3166
  107SOL    HW2  321   1.753   2.938   1.155 -0.8654  3.5755  0.2586
  108SOL     OW  322   0.745   2.633   1.302  0.1027  0.3375  0.0184
  108SOL    HW1  323   0.725   2.705   1.378  1.0948  0.2746  2.1072
  108SOL    HW2  324   0.840   2.591   1.316 -1.2606  0.5903 -0.9110
  109SOL     OW  325   2.081   0.110   0.687  0.6248 -0.3280 -0.0347
  109SOL    HW1  326   2.022   0.047   0.633 -0.0423  0.4062  3.1111
  109SOL    HW2  327   2.028   0.151   0.766  1.3660 -2.2903  2.0054
  110SOL     OW  328   0.485   2.742   2.745  0.2616  0.5228 -0.0016
  110SOL    HW1  329   0.485   2.778   2.651 -0.7571 -1.3685  2.8883
  110SOL    HW2  330   0.567   2.680   2.766 -0.2885 -0.3458 -0.8663
  111SOL     OW  331   1.284   0.531   2.323  0.0641  0.0250 -0.6340
  111SOL    HW1  332   1.221   0.585   2.385 -1.1899 -1.4148  0.6568
  111SOL    HW2  333   1.321   0.450   2.371 -0.7356 -1.8618  0.4929
  112SOL     OW  334   1.695   0.499   1.460  0.4800 -0.3167 -0.0363
  112SOL    HW1  335   1.719   0.442   1.376  1.0612  2.5229 -2.1819
  112SOL    HW2  336   1.716   0.464   1.558 -0.8431  0.1644  1.3048
  113SOL     OW  337   2.298   1.668   1.740  0.5171  0.0498  0.5314
  113SOL    HW1  338   2.372   1.600   1.703  0.5868  1.5426  0.8611
  113SOL    HW2  339   2.322   1.716   1.826 -1.6503  1.6183  0.0128
  114SOL     OW  340   0.388   0.566   1.285 -0.1866  0.0762 -0.2480
  114SOL    HW1  341   0.373   0.661   1.246  1.2759  1.2756  1.3274
  114SOL    HW2  342   0.422   0.496   1.216 -0.0649 -1.4489 -1.8641
  115SOL     OW  343   2.672   1.579   1.252 -0.2553  0.5617 -0.6054
  115SOL    HW1  344   2.717   1.487   1.278  1.1919 -0.4994  1.0619
  115SOL    HW2  345   2.718   1.620   1.167  1.7185 -0.0974  0.7923
  116SOL     OW  346   1.822   1.074   0.761 -0.0888 -0.2488  0.1085
  116SOL    HW1  347   1.739   1.017   0.728  0.3997  1.0594 -1.9632
  116SOL    HW2  348   1.804   1.176   0.758 -2.7111 -2.6748  0.5337
  117SOL     OW  349   1.124   0.389   0.653  0.6186 -0.5154 -0.2702
  117SOL    HW1  350   1.080   0.412   0.741  0.4242 -0.5380  0.0546
  117SOL    HW2  351   1.182   0.467   0.615  1.5931 -1.0774  2.2302
  118SOL     OW  352   1.055   1.097   1.035 -0.1458 -0.2248  1.1872
  118SOL    HW1  353   1.027   1.011   1.075  0.2671 -1.3600 -0.6116
  118SOL    HW2  354   1.056   1.174   1.101 -1.3999 -0.5552 -0.0838
  119SOL     OW  355   1.829   1.603   2.008 -0.4131 -0.2171  0.2629
  119SOL    HW1  356   1.804   1.679   2.068  0.4686 -3.2170 -0.7587
  119SOL    HW2  357   1.933   1.591   2.003  2.9104  2.0719  0.2047
  120SOL     OW  358   2.942   2.774   0.287 -0.0464  0.4038  0.9705
  120SOL    HW1  359   2.864   2.749   0.221  1.4195 -1.4081 -1.2259
  120SOL    HW2  360   2.986   2.686   0.316  1.3025 -1.2713  0.7300
  121SOL     OW  361   2.047   0.742   2.205 -0.6563  0.4632 -0.7632
  121SOL    HW1  362   2.115   0.744   2.124  2.5491 -1.9502 -1.3262
  121SOL    HW2  363   2.001   0.652   2.214 -0.7782  2.7811  0.6764
  122SOL     OW  364   2.711   2.538   1.348  0.4666  0.1746  0.2093
  122SOL    HW1  365   2.756   2.534   1.256  0.0793  2.3342  1.7399
  122SOL    HW2  366   2.655   2.447   1.369 -0.6911 -2.9229 -0.0243
  123SOL     OW  367   1.741   0.027   1.675 -0.0436  0.0377 -0.0288
  123SOL    HW1  368   1.761  -0.043   1.596  1.4750 -1.2353 -0.2988
  123SOL    HW2  369   1.805   0.105   1.678 -0.8725 -0.9539  0.4571
  124SOL     OW  370   0.178   0.507   1.020 -0.2032  0.2981  0.8112
  124SOL    HW1  371   0.149   0.580   1.092 -2.8041  0.7708  3.7526
  124SOL    HW2  372   0.140   0.524   0.920 -3.0086 -0.4026 -4.0413
  125SOL     OW  373   0.883   1.752   0.673  0.1002  0.0457  0.3581
  125SOL    HW1  374   0.983   1.739   0.667 -1.5839  0.9075  1.0335
  125SOL    HW2  375   0.836   1.676   0.727 -1.5562  0.1386  0.2468
  126SOL     OW  376   1.867   2.379   2.376  0.4993 -0.1388  0.1403
  126SOL    HW1  377   1.928   2.308   2.329  2.1808 -0.9232  0.2647
  126SOL    HW2  378   1.770   2.387   2.337 -0.6055 -1.5518  2.0766
  127SOL     OW  379   0.926   0.968   0.185 -0.5410  0.0524  0.0630
  127SOL    HW1  380   1.004   0.999   0.247 -1.1503  1.3942  1.1067
  127SOL    HW2  381   0.904   0.868   0.193 -1.8137  1.1277 -1.9304
  128SOL     OW  382   1.004   0.183   1.478 -0.4302 -0.3492 -0.0235
  128SOL    HW1  383   0.957   0.246   1.404  1.1900 -1.3335 -2.9420
  128SOL    HW2  384   0.972   0.082   1.477 -2.0960 -1.0429 -2.0549
  129SOL     OW  385   1.786   0.727   1.835  0.5402  0.1056  0.6533
  129SOL    HW1  386   1.748   0.756   1.741  0.2908  0.6778  0.2598
  129SOL    HW2  387   1.845   0.806   1.864 -0.2302 -3.7414 -3.5654
  130SOL     OW  388   1.291   2.094   0.990  0.0284 -0.1994  0.3082
  130SOL    HW1  389   1.246   2.040   0.914  1.5870 -0.3093 -0.5300
  130SOL    HW2  390   1.365   2.168   0.962  1.4549  1.9125  1.7083
  131SOL     OW  391   3.071   1.519   1.327  0.5427 -0.1981  0.2744
  131SOL    HW1  392   3.015   1.431   1.339  1.5850  1.3974 -0.5072
  131SOL    HW2  393   3.173   1.506   1.347 -0.5808 -0.9960  1.4340
  132SOL     OW  394   1.921   2.497   0.528 -0.4916  0.2578  0.2340
  132SOL    HW1  395   1.821   2.493   0.548 -0.4232 -1.6868  0.6986
  132SOL    HW2  396   1.980   2.538   0.601  1.1908  0.1488  0.8409
  133SOL     OW  397   1.812   2.291   2.908  0.3079 -0.2202  0.4735
  133SOL    HW1  398   1.781   2.376   2.953  0.0111  2.1271 -3.2564
  133SOL    HW2  399   1.800   2.297   2.804  2.1527 -0.6675  1.0143
  134SOL     OW  400   2.630   2.377   1.618  0.5777 -0.2544 -0.0360
  134SOL    HW1  401   2.577   2.318   1.686 -0.6792 -0.8687 -0.9670
  134SOL    HW2  402   2.715   2.417   1.658 -0.6140 -2.5769 -1.8951
  135SOL     OW  403   0.743   1.517   2.553 -0.3297  0.3909 -0.2551
  135SOL    HW1  404   0.739   1.409   2.568  1.6341 -3.6724 -0.1539
  135SOL    HW2  405   0.815   1.535   2.487 -2.9136  0.3801  2.3898
  136SOL     OW  406   1.160   2.074   0.456  0.2214 -0.0586  0.1440
  136SOL    HW1  407   1.076   2.110   0.504  1.2656 -0.7429  0.8186
  136SOL    HW2  408   1.143   1.980   0.419  1.7942  0.8089  0.1965
  137SOL     OW  409   0.385   1.028   2.173  0.1857  0.0774  1.0575
  137SOL    HW1  410   0.314   1.071   2.234  0.2767  0.6417  3.2525
  137SOL    HW2  411   0.406   0.930   2.198 -1.7896  1.8342 -0.0703
  138SOL     OW  412   2.454   1.485   0.303  0.4951  0.6292 -0.7774
  138SOL    HW1  413   2.360   1.469   0.264  0.1090 -0.3036  0.1234
  138SOL    HW2  414   2.489   1.414   0.368 -1.8348 -0.2550  0.1789
  139SOL     OW  415   1.772   2.547   1.232  0.0962  0.6745  0.3203
  139SOL    HW1  416   1.693   2.521   1.173 -0.5505 -0.0123 -2.1873
  139SOL    HW2  417   1.784   2.489   1.317  1.2215  1.3514 -0.4687
  140SOL     OW  418   2.994   3.005   2.532  0.6935 -0.5647  0.4345
  140SOL    HW1  419   3.019   2.936   2.602 -3.3090 -0.8719  0.4602
  140SOL    HW2  420   3.069   3.073   2.505 -0.5449  2.2032  1.7059
  141SOL     OW  421   1.141   1.582   1.604 -0.0377  0.5700 -0.3675
  141SOL    HW1  422   1.153   1.676   1.640 -2.6615 -0.4013 -1.4524
  141SOL    HW2  423   1.180   1.511   1.666 -2.3516  1.9209 -0.4758
  142SOL     OW  424   1.551   0.604   2.245  0.6172  0.4919  0.2896
  142SOL    HW1  425   1.577   0.571   2.152 -2.6510  1.0042  0.7715
  142SOL    HW2  426   1.453   0.589   2.265 -0.8641 -1.7475 -0.0727
  143SOL     OW  427   2.788   0.877   0.517  0.6279  0.4795  1.1827
  143SOL    HW1  428   2.815   0.918   0.426  0.5195  1.1431 -0.6790
  143SOL    HW2  429   2.822   0.923   0.604 -1.1483 -0.2262  0.9157
  144SOL     OW  430   2.993   1.260   1.366  0.8605  0.3491  0.2988
  144SOL    HW1  431   2.970   1.239   1.464 -1.4927 -0.5337 -1.6074
  144SOL    HW2  432   3.075   1.213   1.328 -1.5639  1.9300 -2.3654
  145SOL     OW  433   1.051   1.866   0.093  0.8119  0.0492 -0.6048
  145SOL    HW1  434   1.035   1.945   0.025 -0.4406 -2.5598 -1.1646
  145SOL    HW2  435   1.025   1.776   0.046 -1.6053  0.3878  0.2212
  146SOL     OW  436   2.540   0.653   1.473  0.5132  0.5471 -0.4327
  146SOL    HW1  437   2.468   0.585   1.448  2.7685 -1.0078  0.0934
  146SOL    HW2  438   2.504   0.747   1.463 -0.2972  1.0536  1.9068
  147SOL     OW  439   1.051   2.595   0.615  0.3742 -0.2562 -0.3017
  147SOL    HW1  440   1.005   2.633   0.531 -0.2969 -0.4724 -1.1863
  147SOL    HW2  441   1.132   2.534   0.597 -2.5761 -0.1244 -0.5965
  148SOL     OW  442   1.636   1.430   3.043 -0.0234  0.1303 -0.4999
  148SOL    HW1  443   1.678   1.358   2.984 -1.4174  2.0835  0.8097
  148SOL    HW2  444   1.607   1.385   3.134 -1.3286  1.0942  0.2358
  149SOL     OW  445   0.642   1.396   1.956 -0.1074  0.0194  0.4928
  149SOL    HW1  446   0.548   1.383   2.000  0.4061  0.4155 -0.5346
  149SOL    HW2  447   0.670   1.324   1.888 -1.0157 -0.8623  1.0349
  150SOL     OW  448   2.961   1.289   0.945 -0.2286 -0.0421 -0.1626
  150SOL    HW1  449   3.045   1.330   0.995  0.6495  3.4481 -1.0222
  150SOL    HW2  450   2.957   1.187   0.956  3.2784  2.0184  1.7509
  151SOL     OW  451   0.179   0.753   2.080 -0.2354  0.0150 -0.1780
  151SOL    HW1  452   0.170   0.848   2.038 -0.5193 -2.2470  3.2403
  151SOL    HW2  453   0.252   0.690   2.033  0.7439 -0.2876 -0.1200
  152SOL     OW  454   1.413   1.759   1.282 -0.1839 -0.3597  0.0357
  152SOL    HW1  455   1.415   1.845   1.341  1.4280  0.7021  0.6257
  152SOL    HW2  456   1.319   1.745   1.241 -0.5350 -0.1153  0.4306
  153SOL     OW  457   0.052   1.502   0.158  0.1743  0.2145  0.6560
  153SOL    HW1  458   0.036   1.396   0.159  2.8406 -2.6106 -0.8296
  153SOL    HW2  459   0.049   1.535   0.255  0.3403 -0.2066 -2.0133
  154SOL     OW  460   2.398   1.958   2.832 -0.2735  0.2590 -0.2354
  154SOL    HW1  461   2.408   1.853   2.829 -0.4263 -1.1427  2.0525
  154SOL    HW2  462   2.436   1.993   2.741  1.9007  1.1445 -1.2288
  155SOL     OW  463   2.515   1.234   0.410 -0.1117 -0.3307  0.0253
  155SOL    HW1  464   2.569   1.245   0.319  1.4590  1.8616  0.9474
  155SOL    HW2  465   2.520   1.139   0.454 -0.2634  1.7849 -0.1766
  156SOL     OW  466   2.533   0.998   0.879  0.3523 -0.3794  0.0073
  156SOL    HW1  467   2.440   1.033   0.903 -1.1094 -1.9470 -1.1729
  156SOL    HW2  468   2.605   1.074   0.851  1.9423  3.0497 -0.1300
  157SOL     OW  469   1.363   2.998   3.100 -0.6807  0.1458 -0.7690
  157SOL    HW1  470   1.424   2.928   3.052  0.0636 -2.0616  0.9404
  157SOL    HW2  471   1.359   3.084   3.042  0.4915  1.7104  2.0478
  158SOL     OW  472   1.062   1.852   2.024  0.2175  0.3153 -0.3394
  158SOL    HW1  473   1.119   1.840   2.111 -1.6578  0.2548  0.2963
  158SOL    HW2  474   0.956   1.851   2.038  0.3874 -0.5936 -2.4660
  159SOL     OW  475   0.879   0.374   1.324  0.1256 -0.8474  0.2096
  159SOL    HW1  476   0.843   0.431   1.403 -0.5373 -0.6793  1.9337
  159SOL    HW2  477   0.820   0.379   1.241  0.2742 -1.1569 -1.2328
  160SOL     OW  478   1.457   2.384   1.639 -0.5510  0.0210  0.5154
  160SOL    HW1  479   1.476   2.465   1.573  0.7439  1.1222  0.8212
  160SOL    HW2  480   1.544   2.335   1.657 -2.5393  1.8121 -0.3413
  161SOL     OW  481   0.114   2.952   0.347 -0.2717 -0.1224 -0.2135
  161SOL    HW1  482   0.031   2.902   0.360 -1.1972  1.7065 -0.9338
  161SOL    HW2  483   0.107   3.025   0.277  0.3130 -1.9747  1.0338
  162SOL     OW  484   2.592   1.881   0.501  0.0371  0.0518  0.0855
  162SOL    HW1  485   2.572   1.827   0.412 -1.1128  2.8399 -0.3159
  162SOL    HW2  486   2.600   1.816   0.583  0.4732 -2.0809 -1.0102
  163SOL     OW  487   1.979   2.756   0.765  0.1746 -0.2914  0.0235
  163SOL    HW1  488   1.939   2.773   0.670 -0.4895 -0.5023  1.4281
  163SOL    HW2  489   2.031   2.665   0.774  1.1058  1.1902  0.0878
  164SOL     OW  490   3.091   0.239   1.245 -0.2547  0.1877  0.5349
  164SOL    HW1  491   3.190   0.237   1.216 -0.9389  3.5650 -0.7891
  164SOL    HW2  492   3.081   0.285   1.336  0.0116 -2.0136 -0.1964
  165SOL     OW  493   0.991   1.381   0.637  0.0973  0.8083  0.1755
  165SOL    HW1  494   0.918   1.435   0.691 -2.0202  1.7284 -0.8965
  165SOL    HW2  495   0.993   1.395   0.537  0.0313  0.6020 -0.5048
  166SOL     OW  496   1.394   1.045   1.782  0.5819  0.3847  0.0927
  166SOL    HW1  497   1.306   0.988   1.797  1.3794  0.0817 -1.9152
  166SOL    HW2  498   1.454   1.066   1.858 -1.4268 -1.4993 -1.7974
  167SOL     OW  499   0.887   1.856   1.562  0.2124  0.5359 -0.3409
  167SOL    HW1  500   0.873   1.944   1.613  0.7628 -0.4989 -0.2744
  167SOL    HW2  501   0.806   1.792   1.568 -0.8496 -0.1176 -1.6464
  168SOL     OW  502   1.518   2.373   0.155 -0.4591 -0.0566 -0.6560
  168SOL    HW1  503   1.592   2.404   0.090 -0.0976  0.0515 -2.1252
  168SOL    HW2  504   1.557   2.332   0.245  0.1193  0.5194 -0.3832
  169SOL     OW  505   0.169   2.553   2.165  0.1652  0.3754  0.0164
  169SOL    HW1  506   0.213   2.471   2.121  0.0008 -0.9274 -1.9858
  169SOL    HW2  507   0.127   2.528   2.257 -1.0368  0.4742 -0.9302
  170SOL     OW  508   1.277   0.282   1.909 -0.1716 -0.5942 -0.8795
  170SOL    HW1  509   1.302   0.277   2.010  1.8750 -0.0444 -1.1301
  170SOL    HW2  510   1.226   0.199   1.871 -1.5427  0.9929  2.6814
  171SOL     OW  511   0.260   0.829   2.413 -0.0654  0.0037  0.4246
  171SOL    HW1  512   0.175   0.859   2.461  2.0650 -1.0878 -3.1096
  171SOL    HW2  513   0.255   0.820   2.313  3.0885  1.4995 -0.8245
  172SOL     OW  514   0.904   1.122   2.926  0.0816 -0.0483  0.0290
  172SOL    HW1  515   1.004   1.131   2.945  2.2007 -1.5863 -3.3516
  172SOL    HW2  516   0.883   1.092   2.830 -0.2478  0.0775  0.6380
  173SOL     OW  517   0.666   2.707   0.166 -0.2082  0.1293 -0.3732
  173SOL    HW1  518   0.672   2.812   0.154 -1.9311  1.8323  2.6315
  173SOL    HW2  519   0.572   2.670   0.139 -0.9702 -0.7599 -0.4861
  174SOL     OW  520   1.317   2.746   1.047  0.1225 -0.0240  0.1169
  174SOL    HW1  521   1.303   2.819   0.971  3.7004 -0.7424 -1.0105
  174SOL    HW2  522   1.280   2.649   1.020 -1.8434 -1.1572  0.8885
  175SOL     OW  523   0.387   0.012   1.701 -0.0694  0.0127  0.5877
  175SOL    HW1  524   0.465   0.055   1.749  0.3724 -0.6245 -0.4065
  175SOL    HW2  525   0.317   0.080   1.664 -0.4242 -0.4943 -1.6358
  176SOL     OW  526   2.613   0.360   3.022 -0.6158  0.0016  0.4364
  176SOL    HW1  527   2.602   0.449   3.069  1.2053  0.9379  0.6606
  176SOL    HW2  528   2.575   0.274   3.066 -0.4175 -0.3230  0.3732
  177SOL     OW  529   0.380   0.348   0.864  0.2857  0.5468  0.3016
  177SOL    HW1  530   0.420   0.293   0.944 -0.6381 -2.2378 -1.2838
  177SOL    HW2  531   0.310   0.416   0.899  1.0736  1.5699  0.6651
  178SOL     OW  532   0.003   2.699   2.621  0.2870 -0.0524  0.0646
  178SOL    HW1  533  -0.072   2.647   2.673 -1.7679  0.8028  0.3378
  178SOL    HW2  534   0.090   2.703   2.686  1.1773 -3.2174  1.6462
  179SOL     OW  535   0.010   1.733   1.181  0.7633 -0.3816 -0.4811
  179SOL    HW1  536  -0.064   1.798   1.158 -0.3739 -2.4732  1.2331
  179SOL    HW2  537  -0.028   1.642   1.221 -1.5191 -2.5802  1.1768
  180SOL     OW  538   0.180   1.254   1.838 -0.0574  0.0251  0.2888
  180SOL    HW1  539   0.279   1.245   1.795  4.4353 -0.2103 -2.7624
  180SOL    HW2  540   0.158   1.341   1.891 -2.2484 -1.0393  1.1729
  181SOL     OW  541   2.996   1.815   2.521  0.0770 -0.2057  0.2325
  181SOL    HW1  542   3.096   1.828   2.513 -4.0976  1.3727 -3.2091
  181SOL    HW2  543   2.937   1.883   2.456 -2.8391  2.8106 -1.6775
  182SOL     OW  544   2.290   1.214   1.240  0.1934 -0.0553  0.3055
  182SOL    HW1  545   2.203   1.188   1.188  0.0010  1.3735 -2.7162
  182SOL    HW2  546   2.315   1.316   1.222 -0.0617  1.0983  0.5869
  183SOL     OW  547   1.532   2.247   2.512  0.2734  0.0554 -0.2727
  183SOL    HW1  548   1.451   2.187   2.528  1.6826 -1.0669 -0.1926
  183SOL    HW2  549   1.618   2.186   2.512  0.1124 -0.5024  1.3176
  184SOL     OW  550   2.046   0.909   0.738  0.0253 -0.4370  0.3299
  184SOL    HW1  551   1.954   0.960   0.737  1.9376 -0.3658  0.0261
  184SOL    HW2  552   2.041   0.805   0.757 -1.3885  1.1764  1.7231
  185SOL     OW  553   1.665   2.749   2.135  0.2245 -0.1338 -0.7829
  185SOL    HW1  554   1.588   2.811   2.105  1.7022 -0.5554 -0.1630
  185SOL    HW2  555   1.662   2.725   2.238  1.1647 -0.7235  0.3882
  186SOL     OW  556   0.109   2.238   1.719  0.1725  0.3620  0.4631
  186SOL    HW1  557   0.123   2.317   1.653 -0.2739  0.2533 -1.0060
  186SOL    HW2  558   0.197   2.196   1.747 -2.3027  0.4198 -0.6671
  187SOL     OW  559   1.419   0.652   1.720 -0.0935  0.4352 -0.4954
  187SOL    HW1  560   1.482   0.725   1.673  0.1347 -1.7977 -0.4304
  187SOL    HW2  561   1.388   0.688   1.813 -0.9008  1.1677 -1.8723
  188SOL     OW  562   2.755   2.749   1.522  0.2528  0.3080  0.0556
  188SOL    HW1  563   2.729   2.838   1.479  2.1642  0.0625 -1.0189
  188SOL    HW2  564   2.737   2.667   1.460 -2.3318 -0.0178  1.4977
  189SOL     OW  565   0.733   1.008   1.480  0.8290  0.0619 -0.2250
  189SOL    HW1  566   0.812   1.071   1.466  1.0137 -0.6605  1.2598
  189SOL    HW2  567   0.697   0.960   1.393  1.2701  0.8377 -0.9304
  190SOL     OW  568   1.480   1.763   1.669  0.0317 -0.7960 -0.0967
  190SOL    HW1  569   1.440   1.839   1.613 -0.8834  1.0751 -1.2826
  190SOL    HW2  570   1.562   1.795   1.727 -0.9102  1.6466  0.6819
  191SOL     OW  571   1.028   0.795   1.540 -0.3920 -0.0850  0.0887
  191SOL    HW1  572   1.076   0.710   1.578  1.5664  1.3515  0.1916
  191SOL    HW2  573   1.102   0.864   1.510 -0.4343 -1.8598  0.7563
  192SOL     OW  574   1.900   2.232   1.211 -0.1988  0.5830  0.2208
  192SOL    HW1  575   1.817   2.226   1.154 -1.0557 -0.4929 -0.2365
  192SOL    HW2  576   1.973   2.298   1.172  3.1219  1.7915 -0.2508
  193SOL     OW  577   0.507   0.536   0.348  0.1610  0.4206 -0.2197
  193SOL    HW1  578   0.481   0.446   0.389  0.2829  0.4070 -0.9968
  193SOL    HW2  579   0.515   0.530   0.240  1.3529 -1.6401 -2.5071
  194SOL     OW  580   0.306   0.839   1.248 -0.0701  0.5110  0.0507
  194SOL    HW1  581   0.224   0.787   1.220  0.2783  1.6384  2.0034
  194SOL    HW2  582   0.321   0.920   1.183  3.4382 -0.9098 -0.5856
  195SOL     OW  583   0.941   2.940   0.492 -0.1022 -0.0079 -0.2208
  195SOL    HW1  584   0.957   2.845   0.456  0.4555 -1.9654  0.2392
  195SOL    HW2  585   1.031   2.991   0.515  3.0847  1.0001 -1.0637
  196SOL     OW  586   0.248   1.447   1.346  0.2229 -0.1186  0.7433
  196SOL    HW1  587   0.291   1.522   1.400  0.0386 -2.5664 -0.8633
  196SOL    HW2  588   0.218   1.365   1.405  0.5167 -2.8564 -1.2530
  197SOL     OW  589   0.817   2.000   0.214  0.2518 -0.0289  0.0011
  197SOL    HW1  590   0.832   1.990   0.316  0.0746 -0.4720 -0.5386
  197SOL    HW2  591   0.891   1.947   0.161 -0.4084  1.1343 -0.5421
  198SOL     OW  592   0.304   1.178   0.242  0.0609  0.1847  0.5192
  198SOL    HW1  593   0.199   1.200   0.237 -0.4390 -0.1031  1.9465
  198SOL    HW2  594   0.362   1.265   0.246  0.4329  0.2639  2.8825
  199SOL     OW  595   2.273   0.405   2.497  0.4305 -0.2751  0.4081
  199SOL    HW1  596   2.219   0.356   2.572 -3.4448 -3.8144 -0.8005
  199SOL    HW2  597   2.374   0.388   2.515  0.4984 -0.5451  0.1758
  200SOL     OW  598   0.007   2.884   0.802 -0.7610  0.0230 -0.3672
  200SOL    HW1  599  -0.061   2.900   0.728 -0.0841 -3.6779  0.4126
  200SOL    HW2  600   0.055   2.973   0.825  1.6875  1.2550  0.3697
  201SOL     OW  601   1.140   0.685   0.547  0.2316  0.0748 -0.2645
  201SOL    HW1  602   1.129   0.784   0.580  1.7573 -2.2162 -0.5825
  201SOL    HW2  603   1.052   0.648   0.514  0.5346  1.3990  1.5896
  202SOL     OW  604   0.445   1.206   1.771  0.5738 -0.6542  0.2232
  202SOL    HW1  605   0.496   1.213   1.678  0.6640  3.0896  0.7569
  202SOL    HW2  606   0.493   1.156   1.845 -2.8726  0.6390 -1.9186
  203SOL     OW  607   0.600   0.213   1.524  0.2949 -0.0164 -0.4356
  203SOL    HW1  608   0.602   0.174   1.428  2.1685 -3.2267  1.6333
  203SOL    HW2  609   0.612   0.141   1.591 -1.0050 -0.2820 -2.3270
  204SOL     OW  610   2.069   1.874   3.025  0.0829 -0.4905 -0.3214
  204SOL    HW1  611   2.106   1.778   3.018 -0.0329 -0.9513  2.6361
  204SOL    HW2  612   2.028   1.916   2.941 -1.2836 -0.2472  2.5902
  205SOL     OW  613   1.877   1.867   0.120 -0.7806  0.0379 -0.4431
  205SOL    HW1  614   1.948   1.836   0.051 -1.0262  1.9533 -0.0876
  205SOL    HW2  615   1.819   1.939   0.080  3.3890 -0.1109  2.8498
  206SOL     OW  616   2.501   2.806   0.391 -0.2406  0.4414 -0.0348
  206SOL    HW1  617   2.560   2.726   0.420  0.9355  0.0309 -1.6542
  206SOL    HW2  618   2.543   2.870   0.324 -0.2783 -0.6135  1.0563
  207SOL     OW  619   0.551   1.736   2.846  0.4223 -0.1221 -0.1907
  207SOL    HW1  620   0.650   1.714   2.826  0.2012  2.6554  0.9801
  207SOL    HW2  621   0.516   1.673   2.918  2.4903 -2.6365  0.3672
  208SOL     OW  622   1.036   1.455   1.368 -0.3366  0.5180  0.4634
  208SOL    HW1  623   0.953   1.518   1.343 -1.8654 -0.3207  1.0116
  208SOL    HW2  624   1.081   1.487   1.457 -1.3255  1.7924 -0.6111
  209SOL     OW  625   0.149   0.931   3.083 -0.4197  0.3909 -0.2998
  209SOL    HW1  626   0.175   0.876   2.997  0.5739  2.7427  0.1287
  209SOL    HW2  627   0.196   0.895   3.170  1.3681  1.9551  1.1902
  210SOL     OW  628   1.713   0.459   1.158 -0.4240  0.2131 -0.1301
  210SOL    HW1  629   1.653   0.534   1.120 -0.4009  0.4456  2.8148
  210SOL    HW2  630   1.813   0.468   1.124  3.4703  2.0504 -1.5595
  211SOL     OW  631   2.112   1.052   1.668  0.3897 -0.1677  0.1710
  211SOL    HW1  632   2.168   1.007   1.744 -0.3397 -1.9140  2.6040
  211SOL    HW2  633   2.165   1.092   1.595 -1.7476 -0.8398  0.8928
  212SOL     OW  634   0.033   1.004   1.439 -0.2241  0.0449  0.0373
  212SOL    HW1  635   0.075   1.090   1.475  0.9772 -0.9581  1.8740
  212SOL    HW2  636   0.050   0.928   1.511  0.2991 -1.3810  1.3304
  213SOL     OW  637   2.729   0.291   0.272 -0.6206  0.5785 -0.4579
  213SOL    HW1  638   2.805   0.218   0.257  0.3178 -3.5091 -1.9123
  213SOL    HW2  639   2.736   0.365   0.201  0.4092  1.0124  0.9441
  214SOL     OW  640   2.168   0.298   2.267  0.4729 -0.2155  0.8780
  214SOL    HW1  641   2.218   0.337   2.348  0.9084 -3.8943 -0.8224
  214SOL    HW2  642   2.125   0.207   2.288 -0.1280 -0.8594 -0.7450
  215SOL     OW  643   1.682   2.302   2.059 -0.7338  0.0381  0.2710
  215SOL    HW1  644   1.782   2.315   2.029  2.3864  0.6557 -0.2829
  215SOL    HW2  645   1.662   2.387   2.116 -2.6357  2.6622 -2.5617
  216SOL     OW  646   2.244   0.530   0.654  0.0250 -0.2663  0.0677
  216SOL    HW1  647   2.183   0.470   0.602 -2.2410 -1.9211 -1.2236
  216SOL    HW2  648   2.266   0.620   0.606 -1.9319  0.0715 -0.5007
  217SOL     OW  649   0.771   2.783   2.427 -0.5234  0.3102 -0.3256
  217SOL    HW1  650   0.734   2.702   2.475  1.5415 -0.3546 -1.0548
  217SOL    HW2  651   0.776   2.761   2.327 -0.0402  0.9825 -1.7891
  218SOL     OW  652   1.929   1.446   0.010 -0.0900  0.1484  0.5603
  218SOL    HW1  653   1.824   1.466   0.005 -1.0452  0.3101  1.0002
  218SOL    HW2  654   1.940   1.351   0.060 -2.0237 -0.4472  1.6891
  219SOL     OW  655   2.387   1.309   2.579  0.4402  0.1432 -0.0239
  219SOL    HW1  656   2.355   1.241   2.501 -2.2638  0.2973 -1.2558
  219SOL    HW2  657   2.388   1.260   2.668  0.7008  2.0353 -1.9233
  220SOL     OW  658   1.429   1.050   1.245 -0.3688 -0.0412 -0.2293
  220SOL    HW1  659   1.478   1.022   1.335 -0.7833 -0.3260  2.3998
  220SOL    HW2  660   1.416   1.156   1.234 -3.9437  0.5713  2.6904
  221SOL     OW  661   1.300   1.117   2.149  0.2576  0.5137 -0.2912
  221SOL    HW1  662   1.271   1.196   2.088 -1.5342 -0.6626  0.2000
  221SOL    HW2  663   1.387   1.067   2.119 -0.3893  1.3127 -0.2667
  222SOL     OW  664   1.303   0.142   1.138 -0.6255 -0.4291  0.4111
  222SOL    HW1  665   1.394   0.130   1.091 -0.4482 -1.3774 -2.5825
  222SOL    HW2  666   1.313   0.159   1.238 -0.9119 -3.4291  0.2349
  223SOL     OW  667   2.882   0.815   1.971  0.4614  0.4996  0.0906
  223SOL    HW1  668   2.871   0.824   2.073 -0.4689  1.6255 -0.7880
  223SOL    HW2  669   2.918   0.900   1.925 -0.0952 -1.3957 -2.0831
  224SOL     OW  670   1.570   1.030   2.785  0.1018  0.3455  0.0236
  224SOL    HW1  671   1.545   0.957   2.709 -2.3935 -1.4433 -1.1850
  224SOL    HW2  672   1.550   1.129   2.756  2.9309 -2.7508  0.5391
  225SOL     OW  673   2.965   2.793   2.929  0.5855 -0.2246 -0.3449
  225SOL    HW1  674   2.915   2.728   2.867 -0.9511  1.0836  3.2724
  225SOL    HW2  675   3.016   2.869   2.874 -0.4562  0.8089  0.6128
  226SOL     OW  676   2.452   1.700   2.844  0.0740 -0.2777  0.0931
  226SOL    HW1  677   2.493   1.653   2.759  1.2371 -1.5273 -1.7330
  226SOL    HW2  678   2.441   1.630   2.919 -2.6547  0.2700  1.8076
  227SOL     OW  679   0.774   0.138   2.979  0.5386 -0.1433  0.0887
  227SOL    HW1  680   0.832   0.081   3.043  0.5025 -1.3282  0.1523
  227SOL    HW2  681   0.811   0.129   2.881 -0.2747 -0.5522  0.4213
  228SOL     OW  682   2.365   0.558   2.785 -0.1420  0.4130 -0.1132
  228SOL    HW1  683   2.320   0.590   2.698 -0.7399 -1.9950  0.7793
  228SOL    HW2  684   2.420   0.469   2.773  0.6254  0.8407  1.3540
  229SOL     OW  685   0.598   0.502   1.883 -0.1476  0.1583  0.3656
  229SOL    HW1  686   0.641   0.526   1.793  0.4522 -1.7524 -3.4556
  229SOL    HW2  687   0.667   0.534   1.960  2.0649  0.4668  2.0861
  230SOL     OW  688   1.932   1.222   2.146  0.1553  0.1607 -0.4192
  230SOL    HW1  689   1.997   1.267   2.082  0.9694  0.2809  0.5885
  230SOL    HW2  690   1.832   1.247   2.121 -0.9851  0.9347  2.8714
  231SOL     OW  691   0.630   1.062   2.940 -0.0938 -0.3307  0.5974
  231SOL    HW1  692   0.733   1.087   2.950 -1.3157  1.3160 -1.1193
  231SOL    HW2  693   0.583   1.061   3.032  1.1469 -3.8470 -2.6302
  232SOL     OW  694   2.544   0.032   2.736  0.3237  0.1236  0.1781
  232SOL    HW1  695   2.557  -0.063   2.771  0.6499  0.6472 -0.2319
  232SOL    HW2  696   2.557   0.041   2.633 -1.0239 -2.3095 -1.0744
  233SOL     OW  697   1.738   1.285   1.043  0.1752 -0.2470  0.0542
  233SOL    HW1  698   1.726   1.303   0.944 -0.2757 -0.0404  0.4628
  233SOL    HW2  699   1.782   1.190   1.052 -0.7700 -3.5122 -2.6657
  234SOL     OW  700   1.628   2.613   1.897  0.0948  0.6655 -0.6670
  234SOL    HW1  701   1.650   2.649   1.991  0.8121 -0.2862 -0.5222
  234SOL    HW2  702   1.552   2.543   1.900  0.4681  0.6614 -2.0823
  235SOL     OW  703   0.019   3.006   2.819  0.2625 -0.1194 -0.0808
  235SOL    HW1  704   0.091   3.057   2.762  3.3879 -0.0609 -0.1334
  235SOL    HW2  705  -0.059   3.065   2.851  0.8139 -0.3284 -1.1386
  236SOL     OW  706   2.829   0.688   0.037 -0.5432 -0.8511 -0.2407
  236SOL    HW1  707   2.887   0.753   0.095  0.9239 -1.7806 -0.0992
  236SOL    HW2  708   2.889   0.611  -0.002 -0.8301  0.7972 -0.3054
  237SOL     OW  709   1.495   1.658   1.016  0.4870  0.1986  0.2162
  237SOL    HW1  710   1.587   1.608   1.033 -0.3911 -2.2092  0.4956
  237SOL    HW2  711   1.466   1.715   1.097 -0.4764  0.5829  1.4502
  238SOL     OW  712   1.773   1.335   0.772 -0.0430  0.0149  0.1564
  238SOL    HW1  713   1.864   1.368   0.734  0.4724  2.6149  0.9660
  238SOL    HW2  714   1.702   1.397   0.738 -0.3280 -0.2267 -0.4675
  239SOL     OW  715   2.134   0.286   2.697 -0.2874  0.0509  0.4826
  239SOL    HW1  716   2.206   0.243   2.761  1.8125 -0.2121  0.4946
  239SOL    HW2  717   2.066   0.347   2.741 -1.6146 -0.8257  0.5073
  240SOL     OW  718   0.871   0.708   0.224 -0.0646 -0.4028 -0.3289
  240SOL    HW1  719   0.836   0.635   0.161 -0.8268 -0.3127  0.4578
  240SOL    HW2  720   0.864   0.661   0.323  1.1260 -2.3248  1.8208
  241SOL     OW  721   0.550   0.037   0.342 -0.4555  0.5692 -0.1925
  241SOL    HW1  722   0.583  -0.001   0.246  3.8998 -1.3595 -2.2361
  241SOL    HW2  723   0.491  -0.025   0.395  3.3068 -0.2832 -1.9382
  242SOL     OW  724   0.705   2.395   1.126  0.0269 -0.2931 -0.7402
  242SOL    HW1  725   0.684   2.473   1.193  0.4695 -0.3618 -1.7035
  242SOL    HW2  726   0.789   2.417   1.077 -1.1346  0.2866 -0.0482
  243SOL     OW  727   1.080   0.618   2.481  0.1761 -0.1163 -0.3397
  243SOL    HW1  728   1.012   0.670   2.422  1.0851 -2.0087  0.3488
  243SOL    HW2  729   1.039   0.532   2.524 -0.2144  0.3465  0.0206
  244SOL     OW  730   2.815   1.996   2.382 -0.3196 -0.4626  0.3358
  244SOL    HW1  731   2.860   1.987   2.293 -0.9858 -0.2580  0.7886
  244SOL    HW2  732   2.712   1.990   2.374  2.2049  0.0669  0.6339
  245SOL     OW  733   2.464   0.710   2.165 -0.4939  0.3885 -0.2735
  245SOL    HW1  734   2.482   0.790   2.227  1.3319 -0.6174  1.0411
  245SOL    HW2  735   2.541   0.641   2.165  0.1514 -1.9807 -2.5386
  246SOL     OW  736   0.224   2.863   1.751 -0.6749  0.4260 -0.5073
  246SOL    HW1  737   0.170   2.843   1.661 -2.2087 -1.2229  0.2330
  246SOL    HW2  738   0.286   2.943   1.734 -0.5753 -1.2867 -0.6250
  247SOL     OW  739   2.198   0.527   3.009 -0.0540 -0.0122  0.0131
  247SOL    HW1  740   2.260   0.525   2.924 -0.7595 -0.0241  0.4685
  247SOL    HW2  741   2.163   0.621   3.029  0.9819  2.0591 -1.4672
  248SOL     OW  742   2.176   1.878   1.615 -0.2197  0.4635 -0.0218
  248SOL    HW1  743   2.210   1.785   1.648 -1.6469 -0.4171  0.1065
  248SOL    HW2  744   2.086   1.907   1.658 -1.1103  0.6689 -1.0146
  249SOL     OW  745   2.009   1.930   1.945 -0.1835 -0.4080  0.4263
  249SOL    HW1  746   1.988   1.878   1.856 -0.2333  1.1412  1.1021
  249SOL    HW2  747   2.075   2.009   1.932  1.6884 -1.3636 -2.2467
  250SOL     OW  748   1.011   0.657   1.878 -0.1932  0.4147 -0.5431
  250SOL    HW1  749   1.018   0.574   1.939  4.0773 -1.7190 -0.0500
  250SOL    HW2  750   1.057   0.640   1.787 -0.7108 -0.3985  1.0555
  251SOL     OW  751   3.039   1.549   2.580 -0.3591 -0.3916 -0.3557
  251SOL    HW1  752   3.021   1.649   2.547  0.8482  0.1978 -2.4518
  251SOL    HW2  753   2.953   1.490   2.573 -2.4194  0.2221  0.2867
  252SOL     OW  754   1.547   0.861   1.593 -0.0780 -0.3929 -0.2357
  252SOL    HW1  755   1.617   0.922   1.546 -1.3975 -0.7732 -0.9517
  252SOL    HW2  756   1.471   0.920   1.627  1.7137  0.5882  0.4099
  253SOL     OW  757   1.003   1.529   0.385  0.3369  0.0381 -0.0754
  253SOL    HW1  758   1.090   1.498   0.353 -3.5929  2.3243  4.5668
  253SOL    HW2  759   0.919   1.497   0.336 -1.7438 -1.8620  0.1235
  254SOL     OW  760   1.987   2.143   1.607 -0.3027  0.3166 -0.1812
  254SOL    HW1  761   1.977   2.081   1.522 -2.3909 -1.4590 -1.7118
  254SOL    HW2  762   1.898   2.190   1.631  1.6077  1.5206 -0.5981
  255SOL     OW  763   0.122   1.133   2.927  0.5097 -0.0425 -0.3448
  255SOL    HW1  764   0.199   1.203   2.933 -0.4501 -1.2107 -2.3126
  255SOL    HW2  765   0.127   1.071   3.011 -0.6014 -0.7805  2.2593
  256SOL     OW  766   2.737   1.323   1.835  0.2498  0.2468  0.0565
  256SOL    HW1  767   2.674   1.326   1.755 -2.5061  1.1631  0.2175
  256SOL    HW2  768   2.717   1.249   1.904 -1.3739 -0.3630 -0.1175
  257SOL     OW  769   0.848   0.245   1.863 -0.0566  0.0697  0.1092
  257SOL    HW1  770   0.895   0.294   1.783  0.2897 -2.3461 -0.9374
  257SOL    HW2  771   0.897   0.159   1.891  0.0749  0.8656  0.8933
  258SOL     OW  772   2.939   1.278   0.413  0.2409 -0.4192  0.5239
  258SOL    HW1  773   2.881   1.360   0.390 -1.7974  1.1032  1.8645
  258SOL    HW2  774   2.972   1.279   0.509  0.6848 -1.8058 -1.2564
  259SOL     OW  775   0.520   2.873   3.003  0.0614  0.1544 -0.1719
  259SOL    HW1  776   0.447   2.832   3.063  1.6082 -0.1106 -0.8545
  259SOL    HW2  777   0.538   2.803   2.928 -1.2906  0.8484  0.5349
  260SOL     OW  778   2.644   0.751   2.681  0.1302 -0.0861 -0.0290
  260SOL    HW1  779   2.556   0.803   2.666 -1.4726 -1.7431  1.6523
  260SOL    HW2  780   2.619   0.659   2.720 -0.0564  0.0326  3.1485
  261SOL     OW  781   2.710   1.306   1.310 -0.1592  0.4245 -0.1934
  261SOL    HW1  782   2.652   1.228   1.271 -0.1998 -1.1963  0.0059
  261SOL    HW2  783   2.808   1.277   1.326  0.6462  1.9746 -0.4335
  262SOL     OW  784   1.503   2.944   2.040 -0.3310 -0.1718 -0.0535
  262SOL    HW1  785   1.535   3.029   1.986  1.7596  0.6815 -1.6221
  262SOL    HW2  786   1.414   2.909   2.006  1.0224 -0.4347  0.1696
  263SOL     OW  787   0.889   0.752   2.347 -0.4800  0.0488  0.0211
  263SOL    HW1  788   0.823   0.683   2.312 -0.1359  3.7233  0.0146
  263SOL    HW2  789   0.910   0.823   2.277  0.2418 -1.6239  0.7320
  264SOL     OW  790   2.277   0.770   0.505 -0.3625  0.0636  0.2163
  264SOL    HW1  791   2.183   0.812   0.495  0.0661  1.1072  0.9178
  264SOL    HW2  792   2.360   0.833   0.507  3.1376  2.1395 -0.7635
  265SOL     OW  793   0.889   2.323   2.691 -0.4228  0.1578 -0.1361
  265SOL    HW1  794   0.943   2.390   2.752 -2.4263  0.6816 -1.8381
  265SOL    HW2  795   0.870   2.235   2.744 -1.8062 -2.0463  1.2932
  266SOL     OW  796   1.293   1.747   0.023  0.1583  0.0822 -0.1197
  266SOL    HW1  797   1.235   1.811   0.082  2.6559 -0.0223 -1.5041
  266SOL    HW2  798   1.392   1.743   0.051 -1.5415  1.6136 -0.6876
  267SOL     OW  799   1.100   0.022   2.313 -0.1015  0.1367  0.3568
  267SOL    HW1  800   1.135  -0.065   2.271  0.5321  1.5656 -0.8939
  267SOL    HW2  801   1.098   0.097   2.244 -1.8120 -0.6323 -1.2176
  268SOL     OW  802   0.606   1.133   1.089 -0.7556 -0.5119  0.1358
  268SOL    HW1  803   0.603   1.172   1.183 -0.8610  1.2736 -2.3996
  268SOL    HW2  804   0.629   1.201   1.016  1.1960  1.3106 -0.4672
  269SOL     OW  805   2.451   2.594   1.556  0.1723 -0.3136  0.1500
  269SOL    HW1  806   2.526   2.521   1.569  0.9501 -1.8517 -0.3255
  269SOL    HW2  807   2.393   2.598   1.642 -0.5278  0.9418  0.8679
  270SOL     OW  808   0.319   2.770   2.028 -0.1125  0.2015 -0.1428
  270SOL    HW1  809   0.283   2.800   1.935 -0.3928  0.3155  0.0825
  270SOL    HW2  810   0.293   2.670   2.049  1.8620 -2.0449 -2.2320
  271SOL     OW  811   0.394   1.373   1.131  0.1879 -0.1380  0.4827
  271SOL    HW1  812   0.360   1.378   1.031  0.1256  4.0353 -1.5307
  271SOL    HW2  813   0.312   1.381   1.190 -0.0261  0.3174 -4.3116
  272SOL     OW  814   1.983   2.829   1.894 -0.0968  0.2703  0.3243
  272SOL    HW1  815   1.911   2.834   1.823  2.6693  1.3053  1.1252
  272SOL    HW2  816   2.062   2.892   1.881  0.6860  0.9765  1.4047
  273SOL     OW  817   1.399   1.437   2.897  0.1650  0.0172  0.0509
  273SOL    HW1  818   1.485   1.444   2.955 -0.2176  2.6106 -0.6958
  273SOL    HW2  819   1.321   1.466   2.956  0.5628  2.0031 -0.6515
  274SOL     OW  820   1.131   0.491   2.071  0.0938  0.1120 -0.0808
  274SOL    HW1  821   1.183   0.431   1.998  2.4871 -1.6902 -2.3490
  274SOL    HW2  822   1.188   0.509   2.155 -0.3368 -1.5198 -1.3237
  275SOL     OW  823   0.650   2.065   1.921  0.1526 -0.6927  0.2211
  275SOL    HW1  824   0.627   2.161   1.953 -0.5997 -1.9961 -0.3993
  275SOL    HW2  825   0.572   2.006   1.950  1.8548  1.1897 -1.4425
  276SOL     OW  826   2.150   0.943   2.775 -0.2645  0.5994  0.5873
  276SOL    HW1  827   2.079   0.971   2.700  0.9581  2.6751 -2.4444
  276SOL    HW2  828   2.103   0.943   2.864 -1.1839  3.7901  0.1193
  277SOL     OW  829   3.004   0.811   0.219 -0.3548  0.1662  0.1316
  277SOL    HW1  830   3.092   0.846   0.171  3.0093 -0.2920 -2.5274
  277SOL    HW2  831   3.005   0.728   0.285 -2.3471 -2.2894  1.2181
  278SOL     OW  832   0.213   0.293   2.930 -0.1990 -0.4373 -0.0876
  278SOL    HW1  833   0.283   0.236   2.979 -2.2886  3.6366 -0.1946
  278SOL    HW2  834   0.233   0.393   2.952  0.0686 -0.0560  1.3798
  279SOL     OW  835   0.135   0.017   0.877 -0.2226 -0.3788 -0.1454
  279SOL    HW1  836   0.165   0.026   0.977  0.8963 -2.0849  0.9778
  279SOL    HW2  837   0.213   0.036   0.810  0.8598 -1.4060  2.1134
  280SOL     OW  838   1.663   2.939   2.499 -0.2669  0.1589  0.2428
  280SOL    HW1  839   1.732   3.004   2.540 -1.4586  0.0505  0.7770
  280SOL    HW2  840   1.565   2.967   2.492  2.7509 -2.4054 -0.5953
  281SOL     OW  841   0.644   0.993   2.323 -0.3619 -0.2660 -0.3524
  281SOL    HW1  842   0.613   0.942   2.241 -1.5940 -2.8977  1.6341
  281SOL    HW2  843   0.626   0.939   2.409  1.3738  1.4811  1.2499
  282SOL     OW  844   1.647   2.497   0.565 -0.1299  0.1353 -0.7282
  282SOL    HW1  845   1.600   2.432   0.500 -0.4597  0.2779 -0.8492
  282SOL    HW2  846   1.603   2.588   0.583  1.0249 -1.5072  1.8519
  283SOL     OW  847   1.087   0.929   0.693  0.4110  0.4886 -0.1127
  283SOL    HW1  848   1.149   0.878   0.759 -0.1955  1.7982  0.3984
  283SOL    HW2  849   1.018   0.987   0.737 -1.5380  1.7169 -0.5042
  284SOL     OW  850   2.235   2.840   2.405  0.5694  0.0458 -0.2451
  284SOL    HW1  851   2.232   2.844   2.510  1.8829  0.1576 -0.2808
  284SOL    HW2  852   2.230   2.926   2.358 -1.2468 -3.2972  1.4835
  285SOL     OW  853   1.391   3.053   2.542  0.5891 -0.4507  0.0746
  285SOL    HW1  854   1.405   3.064   2.441  0.2809  1.0754  2.0473
  285SOL    HW2  855   1.298   3.093   2.571 -1.7302  1.9516  3.0123
  286SOL     OW  856   0.414   0.485   0.629  0.1104  0.2501  0.0904
  286SOL    HW1  857   0.395   0.427   0.718 -2.1145  1.1926 -2.4616
  286SOL    HW2  858   0.397   0.433   0.539 -0.2967  0.8247  1.3214
  287SOL     OW  859   0.048   1.304   2.537 -0.0222  0.6711  0.0789
  287SOL    HW1  860   0.035   1.215   2.593  0.0996  2.8659 -2.5304
  287SOL    HW2  861   0.002   1.386   2.578 -0.2834 -0.0611 -1.3321
  288SOL     OW  862   1.581   2.573   1.487  0.3237  0.5860 -0.9895
  288SOL    HW1  863   1.671   2.604   1.528  1.2937 -2.9151 -0.4011
  288SOL    HW2  864   1.587   2.557   1.379 -0.5957  0.0844  0.0845
  289SOL     OW  865   0.632   2.724   0.817  0.2124 -0.4807  0.1615
  289SOL    HW1  866   0.686   2.791   0.757 -1.3197  1.4023 -0.6316
  289SOL    HW2  867   0.633   2.761   0.912  2.0437 -0.0832 -2.0532
  290SOL     OW  868   2.950   1.247   1.692 -0.0391 -0.3292 -0.1645
  290SOL    HW1  869   2.856   1.274   1.729  0.9373 -0.9206  3.4244
  290SOL    HW2  870   2.995   1.173   1.746  1.7869 -1.0861  1.1219
  291SOL     OW  871   1.984   0.032   0.082 -0.3419  0.0773 -0.5739
  291SOL    HW1  872   2.024  -0.002   0.175 -0.7122  1.9864 -0.1028
  291SOL    HW2  873   2.041   0.111   0.042 -2.7265  2.6007 -2.1074
  292SOL     OW  874   2.982   1.168   3.065 -0.3798 -0.2943  0.1243
  292SOL    HW1  875   2.918   1.241   3.027  1.0624  1.2666  2.4035
  292SOL    HW2  876   3.058   1.145   2.998  0.0280 -0.9029 -1.3432
  293SOL     OW  877   0.544   2.062   0.163  0.6534 -0.1490  0.0945
  293SOL    HW1  878   0.506   2.136   0.229 -0.0790 -0.6140  0.1020
  293SOL    HW2  879   0.645   2.044   0.192  0.3582  2.3171  1.2526
  294SOL     OW  880   1.654   2.111   1.849  0.6149  0.2755 -0.0838
  294SOL    HW1  881   1.674   2.178   1.926 -0.8024  0.8114 -2.5375
  294SOL    HW2  882   1.686   2.158   1.758  1.7761  1.1986 -0.9291
  295SOL     OW  883   0.963   1.196   0.421 -0.1224 -0.0122  0.2273
  295SOL    HW1  884   1.054   1.168   0.456  0.9902 -1.8911  1.9306
  295SOL    HW2  885   0.882   1.144   0.457 -0.3609  1.3105  2.5806
  296SOL     OW  886   1.279   2.088   2.532 -0.0332 -0.4157  0.1323
  296SOL    HW1  887   1.250   2.158   2.455 -1.3060  2.4647 -1.9448
  296SOL    HW2  888   1.308   1.992   2.507 -1.0104  0.2924 -3.6521
  297SOL     OW  889   1.531   0.711   1.362 -0.0759  0.0243 -0.4584
  297SOL    HW1  890   1.589   0.630   1.333 -0.3193  1.4700 -1.8788
  297SOL    HW2  891   1.533   0.726   1.467  0.2619 -0.1717  0.5265
  298SOL     OW  892   0.542   1.300   2.825 -0.6407 -0.2161  0.7098
  298SOL    HW1  893   0.560   1.217   2.887 -2.9275 -2.0831 -2.5047
  298SOL    HW2  894   0.616   1.306   2.751 -0.0050 -1.4100 -1.6757
  299SOL     OW  895   0.369   0.374   1.480  0.2075 -0.4131 -0.2900
  299SOL    HW1  896   0.357   0.451   1.413  0.9777 -0.6637 -0.7113
  299SOL    HW2  897   0.463   0.332   1.477  0.7894  0.9083 -1.3413
  300SOL     OW  898   1.245   1.797   2.858 -0.4932 -0.4545  0.6585
  300SOL    HW1  899   1.253   1.713   2.793  0.5970  0.0508 -1.8136
  300SOL    HW2  900   1.253   1.776   2.957  0.0209 -0.6582 -0.0427
  301SOL     OW  901   0.449   0.289   0.413  0.6168 -0.6781  0.0643
  301SOL    HW1  902   0.349   0.295   0.397 -0.6159  0.8466 -1.5714
  301SOL    HW2  903   0.485   0.199   0.374  0.8947 -2.2183  2.3171
  302SOL     OW  904   1.177   2.290   2.355  0.1788  0.3118  0.0361
  302SOL    HW1  905   1.117   2.352   2.407  4.0262 -3.4749  0.3252
  302SOL    HW2  906   1.126   2.217   2.301 -0.7422 -0.9091 -1.0344
  303SOL     OW  907   0.941   2.402   0.779 -0.2694 -0.1473  0.5468
  303SOL    HW1  908   0.990   2.483   0.737  0.7097 -1.3836  1.0596
  303SOL    HW2  909   0.929   2.406   0.881 -3.0795 -0.7069  0.2377
  304SOL     OW  910   0.067   2.028   0.680 -0.1541  0.6916  0.0295
  304SOL    HW1  911   0.126   1.985   0.598  3.4751  0.0542 -1.0425
  304SOL    HW2  912  -0.014   2.084   0.655 -1.6016 -0.1773 -0.9106
  305SOL     OW  913   1.630   0.880   0.695  0.2340 -0.0734  0.1111
  305SOL    HW1  914   1.550   0.876   0.632  0.0867  2.7996  0.5052
  305SOL    HW2  915   1.707   0.816   0.669  0.4785  0.4965  2.9051
  306SOL     OW  916   0.427   1.901   1.924 -0.4987 -0.4119  0.0374
  306SOL    HW1  917   0.488   1.821   1.893  1.6651 -0.0191  0.9281
  306SOL    HW2  918   0.412   1.895   2.025 -0.6471 -1.8132 -1.8868
  307SOL     OW  919   3.095   0.857   2.528  0.3110 -0.1513  0.0370
  307SOL    HW1  920   3.087   0.939   2.594 -0.6631  1.4731 -1.3154
  307SOL    HW2  921   3.008   0.806   2.501 -0.0803  1.5837  1.2944
  308SOL     OW  922   1.575   2.671   2.827 -0.2775  0.4577  0.0944
  308SOL    HW1  923   1.562   2.668   2.719  1.1181 -3.0342 -1.8242
  308SOL    HW2  924   1.516   2.598   2.869  0.4411  0.2215  1.4776
  309SOL     OW  925   1.247   0.028   1.805  0.3129  0.3794  0.0982
  309SOL    HW1  926   1.345   0.017   1.836  0.7165 -0.1907  1.2166
  309SOL    HW2  927   1.246   0.059   1.712 -2.5437  0.5452  0.8869
  310SOL     OW  928   1.346   2.670   0.715 -1.3972  0.3877  0.7068
  310SOL    HW1  929   1.300   2.743   0.780 -0.9484  0.4899  2.5184
  310SOL    HW2  930   1.440   2.705   0.680  0.1622 -0.3331 -2.7256
  311SOL     OW  931   1.225   0.973   1.447  0.0229 -0.3625 -0.2224
  311SOL    HW1  932   1.262   0.946   1.349  1.5022  0.6521 -2.4347
  311SOL    HW2  933   1.247   1.073   1.462  3.0448  0.6455 -0.8321
  312SOL     OW  934   1.582   0.673   1.032 -0.9381  0.6295  0.0547
  312SOL    HW1  935   1.557   0.772   1.050 -1.3519  1.6700  1.7552
  312SOL    HW2  936   1.508   0.622   0.982 -2.1748  1.1067 -1.0756
  313SOL     OW  937   1.604   1.455   0.503  0.2394  0.0262  0.9010
  313SOL    HW1  938   1.503   1.472   0.518 -2.2997  4.1418 -1.5957
  313SOL    HW2  939   1.619   1.353   0.487 -0.7875 -0.1026  0.2563
  314SOL     OW  940   2.930   0.093   3.010 -0.0207 -0.5769 -0.3823
  314SOL    HW1  941   2.933   0.126   3.111 -0.2845 -0.1470  0.9678
  314SOL    HW2  942   2.847   0.034   2.990 -0.7851  0.7100 -1.4603
  315SOL     OW  943   1.251   0.246   2.772 -0.6325 -0.0172 -0.2137
  315SOL    HW1  944   1.213   0.168   2.716  1.6244  0.4972  0.6059
  315SOL    HW2  945   1.261   0.220   2.873 -0.4086  0.3823  0.5881
  316SOL     OW  946   1.694   2.068   0.917 -0.1798 -0.3871  0.2377
  316SOL    HW1  947   1.674   2.077   1.017  0.8802 -2.4694 -1.7460
  316SOL    HW2  948   1.663   2.148   0.855 -3.2609  3.6161 -0.6696
  317SOL     OW  949   1.160   0.722   2.815 -0.2621 -0.0058  0.1256
  317SOL    HW1  950   1.100   0.754   2.894 -1.5653  0.6080 -0.2223
  317SOL    HW2  951   1.150   0.623   2.790  2.9066  1.0970 -0.2313
  318SOL     OW  952   1.396   3.078   2.263  0.0487 -0.4211 -0.1078
  318SOL    HW1  953   1.420   3.175   2.232 -1.5281  1.2757 -1.3002
  318SOL    HW2  954   1.433   3.014   2.192 -0.2815  3.1428  0.5765
  319SOL     OW  955   0.639   2.388   2.933 -0.0584  0.1854 -0.2978
  319SOL    HW1  956   0.562   2.363   2.992  0.8287  1.7358  0.0734
  319SOL    HW2  957   0.688   2.305   2.898  0.8643  1.8320  0.6467
  320SOL     OW  958   1.604   2.266   0.393 -0.2390 -0.0244  0.2117
  320SOL    HW1  959   1.707   2.244   0.400 -1.7977 -1.2800 -1.8552
  320SOL    HW2  960   1.543   2.212   0.462 -1.9893 -1.4262  0.2114
  321SOL     OW  961   1.607   2.768   0.537 -0.1201 -0.2422 -0.0207
  321SOL    HW1  962   1.538   2.826   0.486 -0.2750  3.1540 -0.3660
  321SOL    HW2  963   1.706   2.771   0.496  0.2758 -0.6307 -3.8082
  322SOL     OW  964   2.681   1.073   2.237  0.2086 -0.0029  0.1331
  322SOL    HW1  965   2.736   1.095   2.322  2.4863  4.2185 -0.0145
  322SOL    HW2  966   2.596   1.018   2.269 -0.1231 -2.2854  1.6149
  323SOL     OW  967   1.021   2.702   0.859  0.0310  0.1399  0.1472
  323SOL    HW1  968   1.040   2.666   0.762  0.2128 -0.2998 -2.3357
  323SOL    HW2  969   1.011   2.805   0.869  2.2897 -0.8357  0.4998
  324SOL     OW  970   0.093   2.509   2.444 -0.3894  0.1490  0.5008
  324SOL    HW1  971   0.067   2.419   2.487  0.7998  0.7918  0.9701
  324SOL    HW2  972   0.049   2.590   2.496 -0.9760  3.6418 -1.7057
  325SOL     OW  973   1.173   3.067   0.483  0.2817  0.2611  0.3138
  325SOL    HW1  974   1.197   3.105   0.391  1.6724  0.5020  1.8044
  325SOL    HW2  975   1.214   3.126   0.555 -0.5263  0.4981 -4.5648
  326SOL     OW  976   2.326   0.782   0.045  0.7453 -0.1317 -0.1315
  326SOL    HW1  977   2.230   0.790   0.005  1.0343  0.7497  0.1534
  326SOL    HW2  978   2.336   0.698   0.109 -0.6639 -0.6399 -1.4397
  327SOL     OW  979   2.696   0.408   0.531 -0.5147 -0.3581  0.0441
  327SOL    HW1  980   2.710   0.354   0.443 -1.0079 -2.5762  1.3738
  327SOL    HW2  981   2.612   0.373   0.584 -1.5110  0.4571  1.3845
  328SOL     OW  982   2.515   0.639   0.357 -0.4069  0.2370  0.3882
  328SOL    HW1  983   2.436   0.687   0.410  1.0438 -1.4792  1.8315
  328SOL    HW2  984   2.540   0.550   0.406 -3.8749  1.0085  0.7914
  329SOL     OW  985   2.967   2.943   2.150  0.0746  0.3695  0.5801
  329SOL    HW1  986   3.039   2.898   2.215 -0.9655 -1.4743 -1.8485
  329SOL    HW2  987   2.989   3.041   2.116 -1.3930  1.5224 -0.6365
  330SOL     OW  988   0.535   0.209   1.836  0.6251 -0.5230  0.2485
  330SOL    HW1  989   0.531   0.307   1.802 -1.2538  0.4889  1.7115
  330SOL    HW2  990   0.627   0.186   1.875 -0.0093 -1.1264 -0.5224
  331SOL     OW  991   2.917   1.912   1.092  0.4098 -0.1981  0.0005
  331SOL    HW1  992   2.960   1.995   1.045 -0.1764 -3.1028  1.7282
  331SOL    HW2  993   2.848   1.938   1.166 -0.0027  0.2545 -0.1235
  332SOL     OW  994   0.438   1.046   0.058  0.1883 -0.0580 -0.2238
  332SOL    HW1  995   0.378   1.029  -0.021 -0.8056  1.5842  2.6626
  332SOL    HW2  996   0.381   1.100   0.129  1.7020 -0.6092 -0.5486
  333SOL     OW  997   2.852   1.049   0.263  0.1629  0.2534 -0.4697
  333SOL    HW1  998   2.890   1.126   0.319 -0.2247  1.9544 -0.1180
  333SOL    HW2  999   2.927   0.988   0.224  0.9182 -1.5630 -0.1668
  334SOL     OW 1000   1.646   1.167   1.912 -0.2536 -0.1439 -0.0481
  334SOL    HW1 1001   1.747   1.163   1.868  1.7329  0.5642 -0.0999
  334SOL    HW2 1002   1.640   1.255   1.970 -2.4072 -1.4534  1.7810
  335SOL     OW 1003   1.996   2.783   2.608  0.2598  0.3769  0.3555
  335SOL    HW1 1004   1.960   2.768   2.703 -2.8792 -0.6332  0.9411
  335SOL    HW2 1005   1.993   2.884   2.587  0.4376  2.4286 -1.7274
  336SOL     OW 1006   0.225   0.071   2.713 -0.1611  0.2130  0.4299
  336SOL    HW1 1007   0.320   0.027   2.730  1.1422 -0.4497  0.5526
  336SOL    HW2 1008   0.229   0.164   2.754  1.6624 -0.0579 -1.7460
  337SOL     OW 1009   0.969   2.801   2.863 -0.5281  0.1612  0.0151
  337SOL    HW1 1010   0.955   2.778   2.967 -0.4385  2.0486 -1.0603
  337SOL    HW2 1011   1.066   2.779   2.831 -1.3102  0.2158  1.4649
  338SOL     OW 1012   0.006   1.008   0.608  0.3569  0.0214  0.0504
  338SOL    HW1 1013  -0.089   0.989   0.644 -0.5286 -1.6661 -0.2934
  338SOL    HW2 1014   0.006   1.104   0.564  2.5702  1.5256 -1.2680
  339SOL     OW 1015   1.683   1.383   2.071 -0.3584 -0.3464  0.0308
  339SOL    HW1 1016   1.581   1.412   2.077 -0.7173  0.1165  1.7812
  339SOL    HW2 1017   1.739   1.465   2.054  0.0404  0.0083 -0.9051
  340SOL     OW 1018   2.300   0.741   1.236  0.7318 -0.6376 -0.8322
  340SOL    HW1 1019   2.204   0.771   1.208  0.2901 -1.7711  2.1952
  340SOL    HW2 1020   2.329   0.654   1.180  0.3528 -1.9181 -1.7002
  341SOL     OW 1021   1.882   2.201   0.435  0.2777 -0.2665 -0.5065
  341SOL    HW1 1022   1.894   2.202   0.333 -1.1148  0.8029  2.6921
  341SOL    HW2 1023   1.972   2.198   0.490  0.4104 -2.1905 -2.1798
  342SOL     OW 1024   2.216   2.151   2.820 -0.5792 -0.5609 -0.1680
  342SOL    HW1 1025   2.279   2.069   2.846  2.8366 -2.8259 -0.3356
  342SOL    HW2 1026   2.117   2.121   2.828  2.3951  0.3809 -1.0435
  343SOL     OW 1027   0.324   0.894   2.873  0.1763 -0.1132  0.0517
  343SOL    HW1 1028   0.308   0.964   2.799  1.8109  0.1658 -0.4709
  343SOL    HW2 1029   0.419   0.843   2.865  1.8935 -2.6113 -2.3436
  344SOL     OW 1030   1.840   1.483   0.347  0.2727  0.3256  0.3247
  344SOL    HW1 1031   1.852   1.431   0.260 -1.5782  1.4394  1.0032
  344SOL    HW2 1032   1.783   1.568   0.332 -0.6126  0.1265 -0.8717
  345SOL     OW 1033   1.409   2.204   2.861 -0.2864 -0.1954  0.1106
  345SOL    HW1 1034   1.327   2.141   2.850 -0.2385 -0.7898 -0.1640
  345SOL    HW2 1035   1.494   2.173   2.808 -0.9902 -0.6703  0.1421
  346SOL     OW 1036   2.440   0.909   1.425  0.0182  0.0310 -1.0860
  346SOL    HW1 1037   2.381   0.991   1.457 -1.5137  0.3136 -0.8316
  346SOL    HW2 1038   2.399   0.859   1.344  0.3074  0.1895 -0.7438
  347SOL     OW 1039   0.675   2.807   1.505 -0.2212  0.7676 -0.1932
  347SOL    HW1 1040   0.658   2.759   1.597  1.4421 -1.9141 -3.3665
  347SOL    HW2 1041   0.598   2.874   1.482  0.6364  0.5258 -0.3335
  348SOL     OW 1042   0.076   0.690   2.810 -0.1510  0.1807  0.4557
  348SOL    HW1 1043  -0.026   0.683   2.800 -0.6108 -0.6170  1.0656
  348SOL    HW2 1044   0.107   0.784   2.782 -0.0220  0.9931 -0.0329
  349SOL     OW 1045   1.919   0.455   2.784  0.1096 -0.2678  0.2740
  349SOL    HW1 1046   1.925   0.529   2.713 -0.4896 -0.7584  1.1015
  349SOL    HW2 1047   1.869   0.484   2.872  0.0776 -2.3701  1.0414
  350SOL     OW 1048   1.649   0.376   0.372 -0.4723  0.3649 -0.2162
  350SOL    HW1 1049   1.716   0.415   0.443  0.8148  2.7762  0.0139
  350SOL    HW2 1050   1.612   0.451   0.309  2.7361  1.7563  1.9955
  351SOL     OW 1051   0.925   0.931   2.146 -0.4820  0.2941  0.2889
  351SOL    HW1 1052   0.920   1.024   2.100 -2.3133  0.3916 -1.2265
  351SOL    HW2 1053   0.876   0.863   2.089  0.9869  2.6811 -0.0804
  352SOL     OW 1054   1.986   1.393   0.569 -0.0395 -0.0891 -0.1589
  352SOL    HW1 1055   1.932   1.424   0.484  0.8718 -2.3770  4.6343
  352SOL    HW2 1056   2.057   1.460   0.600 -0.9324 -0.1019  0.6585
  353SOL     OW 1057   2.125   2.823   1.174 -0.2439  0.2061 -0.4307
  353SOL    HW1 1058   2.222   2.789   1.197  1.0598 -0.7585  3.8513
  353SOL    HW2 1059   2.061   2.747   1.148  0.0022  0.7238  0.5681
  354SOL     OW 1060   0.286   1.362   2.921  0.0026 -0.1895 -0.1019
  354SOL    HW1 1061   0.216   1.418   2.865 -2.4950 -0.8043 -1.4391
  354SOL    HW2 1062   0.379   1.359   2.877  1.4507  1.1672 -1.9525
  355SOL     OW 1063   0.451   1.481   0.565  0.4161  0.3410  0.5729
  355SOL    HW1 1064   0.473   1.576   0.603  0.7909  1.1377 -1.2629
  355SOL    HW2 1065   0.534   1.417   0.554 -1.6189 -1.7120 -0.8684
  356SOL     OW 1066   0.854   0.432   2.078  0.7660  0.4252  0.3092
  356SOL    HW1 1067   0.952   0.460   2.097  0.8715  1.8809 -1.6142
  356SOL    HW2 1068   0.849   0.374   1.996  0.8376  2.2007  1.5435
  357SOL     OW 1069   1.056   1.277   0.157  0.1995 -0.0757  0.3630
  357SOL    HW1 1070   0.991   1.278   0.075  0.5966  1.2757 -1.0403
  357SOL    HW2 1071   1.016   1.263   0.251  0.3564 -0.0998 -2.2301
  358SOL     OW 1072   1.625   1.665   0.324  0.3745 -0.0717 -0.2148
  358SOL    HW1 1073   1.619   1.568   0.369  0.4673  0.1293  0.7655
  358SOL    HW2 1074   1.554   1.729   0.370 -2.3275 -1.9786 -1.7909
  359SOL     OW 1075   1.563   2.707   0.141 -0.3051  0.0088  0.7483
  359SOL    HW1 1076   1.614   2.637   0.081  2.8430  1.9050 -1.7295
  359SOL    HW2 1077   1.486   2.669   0.190  1.5672 -0.2164 -3.1191
  360SOL     OW 1078   0.880   0.581   0.457  0.3399  0.2087  0.1038
  360SOL    HW1 1079   0.811   0.597   0.529 -0.5805  0.1003 -0.2482
  360SOL    HW2 1080   0.895   0.482   0.428 -0.3795  4.8482 -1.3639
  361SOL     OW 1081   1.267   1.360   0.642 -0.7165  0.0787 -0.2110
  361SOL    HW1 1082   1.296   1.396   0.738 -0.4446 -1.4749  1.0404
  361SOL    HW2 1083   1.164   1.362   0.639  0.8723  0.7039  0.4208
  362SOL     OW 1084   1.388   1.740   0.771  0.1758  0.6717 -0.3317
  362SOL    HW1 1085   1.435   1.699   0.855  0.6842 -0.5681  1.1329
  362SOL    HW2 1086   1.410   1.840   0.754  1.2634  2.1088 -0.5239
  363SOL     OW 1087   1.129   1.333   2.034  0.3709  0.4827 -0.1220
  363SOL    HW1 1088   1.109   1.423   2.084 -0.4686  2.1017 -0.9412
  363SOL    HW2 1089   1.194   1.346   1.952 -0.9720  1.7231 -1.0063
  364SOL     OW 1090   0.585   2.330   2.003 -0.2751  0.3631 -0.4973
  364SOL    HW1 1091   0.488   2.366   1.996  1.6922  1.5949  2.8822
  364SOL    HW2 1092   0.644   2.360   1.926  0.1158 -2.4934 -0.6486
  365SOL     OW 1093   1.143   1.846   1.442 -0.3773  0.9027 -0.2583
  365SOL    HW1 1094   1.049   1.867   1.484 -3.4515  0.9728 -1.8786
  365SOL    HW2 1095   1.160   1.743   1.443 -1.2359  0.5605 -0.3966
  366SOL     OW 1096   2.810   2.067   0.463 -0.7832 -0.3473 -0.2612
  366SOL    HW1 1097   2.718   2.019   0.459  1.9846 -0.9742  0.3144
  366SOL    HW2 1098   2.883   2.009   0.422  0.2280 -0.0412 -0.6750
  367SOL     OW 1099   0.792   1.205   0.056 -0.5000  0.2518 -0.3969
  367SOL    HW1 1100   0.839   1.130   0.118 -2.5513 -1.9838  0.7884
  367SOL    HW2 1101   0.806   1.198  -0.049  1.6904 -1.0519 -2.5673
  368SOL     OW 1102   1.520   0.518   0.626  0.4030  0.5559  0.6082
  368SOL    HW1 1103   1.473   0.550   0.537  0.6208 -2.3153  0.8272
  368SOL    HW2 1104   1.619   0.490   0.607  0.3133  1.0843  0.0755
  369SOL     OW 1105   0.303   1.686   0.091  0.3534  0.2883 -0.4452
  369SOL    HW1 1106   0.303   1.780   0.133  1.2639 -2.4180  2.7829
  369SOL    HW2 1107   0.243   1.614   0.138 -1.8731 -1.0726  2.8483
  370SOL     OW 1108   0.472   2.138   0.981 -0.0324 -0.1771 -0.0429
  370SOL    HW1 1109   0.470   2.244   0.976  0.8967  0.2441 -1.1940
  370SOL    HW2 1110   0.390   2.089   0.939  0.2692 -1.2131  0.4085
  371SOL     OW 1111   2.926   2.219   2.776 -0.1681  0.1419  0.8065
  371SOL    HW1 1112   2.923   2.218   2.879 -2.1152  0.6439 -2.9832
  371SOL    HW2 1113   3.018   2.247   2.739  1.7908  0.7031  0.7987
  372SOL     OW 1114   0.889   1.887   1.007  0.6096  0.1417 -0.4641
  372SOL    HW1 1115   0.849   1.982   1.023 -1.5522  0.0865  1.3456
  372SOL    HW2 1116   0.974   1.885   0.949 -0.6616  1.1792 -0.1862
  373SOL     OW 1117   1.938   1.952   0.935 -0.0227  0.4017 -0.0472
  373SOL    HW1 1118   2.007   1.986   1.003 -1.8290  1.3088  0.9442
  373SOL    HW2 1119   1.844   2.000   0.934 -0.3571  0.3372 -0.5405
  374SOL     OW 1120   1.848   0.410   0.575 -0.6281 -0.3263  0.2994
  374SOL    HW1 1121   1.818   0.356   0.665 -1.5848 -1.3754  1.8099
  374SOL    HW2 1122   1.938   0.384   0.533  1.5420 -0.1444 -2.1140
  375SOL     OW 1123   2.473   2.284   1.086 -0.0309 -0.3109 -0.4516
  375SOL    HW1 1124   2.500   2.230   1.005 -1.3628  1.4243 -0.6818
  375SOL    HW2 1125   2.497   2.230   1.171  1.1160  0.4257  0.1404
  376SOL     OW 1126   3.074   0.640   1.448  0.3913 -0.3483 -0.5369
  376SOL    HW1 1127   3.114   0.689   1.529  0.8283 -0.3352 -2.1934
  376SOL    HW2 1128   2.968   0.651   1.444 -2.0757  1.6394  0.5136
  377SOL     OW 1129   2.218   2.834   0.336  0.6000 -0.0400  0.1218
  377SOL    HW1 1130   2.157   2.891   0.399  1.2694  1.4693  0.8933
  377SOL    HW2 1131   2.319   2.848   0.344  0.9077  0.8491 -1.7691
  378SOL     OW 1132   1.882   1.851   2.654  0.1986  0.3513  0.1103
  378SOL    HW1 1133   1.935   1.765   2.670  2.4724 -0.9999  0.5240
  378SOL    HW2 1134   1.792   1.846   2.604  1.1796 -0.7519 -0.8082
  379SOL     OW 1135   0.882   0.126   2.706  0.0554 -0.0278  0.4676
  379SOL    HW1 1136   0.863   0.030   2.666  2.4334  1.3066 -3.1134
  379SOL    HW2 1137   0.817   0.196   2.672 -0.3800 -0.6223  3.1525
  380SOL     OW 1138   1.562   1.167   0.542 -0.3045 -0.1625 -0.1219
  380SOL    HW1 1139   1.548   1.076   0.503  1.1522  0.6098 -0.6035
  380SOL    HW2 1140   1.505   1.193   0.626 -1.5526 -1.4398  0.5207
  381SOL     OW 1141   1.285   1.232   1.503 -0.2693 -0.5133 -0.1809
  381SOL    HW1 1142   1.339   1.258   1.415  2.0030  0.7887 -0.2799
  381SOL    HW2 1143   1.344   1.223   1.586 -0.1137  0.4329 -0.0422
  382SOL     OW 1144   1.764   0.805   0.251  0.8258  0.3870 -0.1344
  382SOL    HW1 1145   1.770   0.799   0.150  0.7014  1.5984  1.3888
  382SOL    HW2 1146   1.821   0.725   0.289 -1.6085 -2.2487 -1.0295
  383SOL     OW 1147   2.689   0.999   1.559  0.0654 -0.3340  0.5914
  383SOL    HW1 1148   2.611   0.954   1.515 -0.2589  2.1451  0.6937
  383SOL    HW2 1149   2.778   1.001   1.500  2.9972  0.7951 -3.1120
  384SOL     OW 1150   1.023   2.299   0.154  0.1499 -0.1305  0.2901
  384SOL    HW1 1151   0.965   2.374   0.206  2.8890  1.7516 -0.6355
  384SOL    HW2 1152   1.014   2.206   0.189 -0.3936  0.3248  1.7019
  385SOL     OW 1153   3.016   2.062   1.708  0.1734 -0.0107  0.2543
  385SOL    HW1 1154   3.106   2.121   1.712  5.4809 -3.7836 -0.5817
  385SOL    HW2 1155   3.034   1.960   1.708  0.5605  2.5579  1.8415
  386SOL     OW 1156   0.439   1.074   0.442 -0.0115  0.6198 -1.0087
  386SOL    HW1 1157   0.416   0.972   0.458  0.8959  1.7468  0.6037
  386SOL    HW2 1158   0.375   1.116   0.375  1.2975 -0.4843  2.4674
  387SOL     OW 1159   0.993   0.373   1.675 -0.3511  0.6005  0.0981
  387SOL    HW1 1160   1.052   0.452   1.658  0.7955 -1.0945  0.1960
  387SOL    HW2 1161   1.000   0.291   1.605  0.4991 -1.0723 -0.0383
  388SOL     OW 1162   1.253   2.571   1.750 -0.0588  0.3181  0.6360
  388SOL    HW1 1163   1.250   2.564   1.646  0.3192  3.0561  0.2268
  388SOL    HW2 1164   1.308   2.491   1.794  1.1793  0.8743  2.1865
  389SOL     OW 1165   0.253   0.028   1.128  0.4174  0.2533  0.4033
  389SOL    HW1 1166   0.210   0.003   1.218  1.3476  0.9116 -2.5672
  389SOL    HW2 1167   0.328  -0.039   1.102  0.1203  1.3733 -0.9947
  390SOL     OW 1168   1.082   0.839   1.181 -0.1377 -0.0334  0.2957
  390SOL    HW1 1169   1.181   0.861   1.165 -1.9248  0.1776  1.3954
  390SOL    HW2 1170   1.064   0.789   1.274  0.6919 -0.6416  3.3118
  391SOL     OW 1171   2.118   1.164   1.043  0.5994  0.0979 -0.5461
  391SOL    HW1 1172   2.062   1.087   1.083 -0.0987  0.5027 -2.7232
  391SOL    HW2 1173   2.170   1.138   0.960 -0.4764  1.3406 -0.5951
  392SOL     OW 1174   0.917   2.703   0.003  0.2563 -0.1961  0.3197
  392SOL    HW1 1175   0.835   2.682   0.065 -1.9033 -0.2326 -0.4556
  392SOL    HW2 1176   0.998   2.753   0.051  1.9864  0.7917  1.0360
  393SOL     OW 1177   0.349   0.577   1.974 -0.2237 -0.0657  0.0929
  393SOL    HW1 1178   0.267   0.513   1.974 -1.6563  2.2474  0.7827
  393SOL    HW2 1179   0.434   0.540   1.927 -0.6445 -1.4660 -1.8384
  394SOL     OW 1180   2.829   1.789   2.751  0.1445 -0.1906 -0.3917
  394SOL    HW1 1181   2.880   1.800   2.664 -0.3620 -1.0542  2.9658
  394SOL    HW2 1182   2.754   1.853   2.759  1.4117 -1.2345  0.1955
  395SOL     OW 1183   1.567   1.952   0.699 -0.2277 -0.4465 -0.4732
  395SOL    HW1 1184   1.635   1.897   0.646  5.2856  0.3227  1.0421
  395SOL    HW2 1185   1.591   1.963   0.801 -3.1462  0.3337  2.7226
  396SOL     OW 1186   2.762   2.002   1.307  0.3880  0.7499  0.3482
  396SOL    HW1 1187   2.759   2.065   1.392  1.8244  0.3203 -0.9148
  396SOL    HW2 1188   2.671   1.962   1.282 -0.2584  2.8951 -0.6753
  397SOL     OW 1189   0.979   2.153   0.671  0.2748 -0.4933  0.1483
  397SOL    HW1 1190   0.892   2.095   0.653  0.5878 -0.3185 -0.2793
  397SOL    HW2 1191   0.962   2.245   0.719 -1.1717  0.9656  3.4591
  398SOL     OW 1192   2.206   3.089   1.073  0.1036  0.5210  0.0022
  398SOL    HW1 1193   2.180   2.994   1.107 -0.8208 -2.8345 -1.6149
  398SOL    HW2 1194   2.126   3.150   1.051  1.8816 -0.8729  2.5093
  399SOL     OW 1195   2.870   2.595   2.787 -0.1495  0.0369 -0.4190
  399SOL    HW1 1196   2.867   2.541   2.701  0.7993  1.6137 -0.9844
  399SOL    HW2 1197   2.817   2.559   2.866  0.9726 -0.8804 -2.2757
  400SOL     OW 1198   0.809   1.582   1.290  0.4244  0.0341  0.1590
  400SOL    HW1 1199   0.763   1.637   1.362 -1.3119 -2.0886 -2.0670
  400SOL    HW2 1200   0.790   1.609   1.193  1.9712  1.1185 -0.0720
  401SOL     OW 1201   1.855   0.130   1.305  0.2564 -0.6055 -0.0798
  401SOL    HW1 1202   1.889   0.158   1.401  0.8184  1.2944  0.7008
  401SOL    HW2 1203   1.753   0.126   1.289  0.2134 -0.5291  1.0749
  402SOL     OW 1204   1.337   0.165   3.029 -0.1021  0.1852  0.2836
  402SOL    HW1 1205   1.429   0.195   2.989  0.5287  4.6708  0.2749
  402SOL    HW2 1206   1.309   0.226   3.115  4.0355  3.9954  0.5961
  403SOL     OW 1207   2.258   1.840   0.984  0.3828 -1.0959  0.5886
  403SOL    HW1 1208   2.352   1.800   0.994  0.4600  2.0856 -1.9401
  403SOL    HW2 1209   2.243   1.925   1.043  0.0970 -0.5986  3.0009
  404SOL     OW 1210   0.215   2.469   2.764 -0.3149 -0.5428 -0.4609
  404SOL    HW1 1211   0.311   2.459   2.732  1.5992 -0.4731  2.6766
  404SOL    HW2 1212   0.197   2.568   2.790  0.3539  0.0191 -0.7775
  405SOL     OW 1213   0.189   2.532   0.559  0.0479  0.1250  0.1882
  405SOL    HW1 1214   0.185   2.425   0.566  0.4928 -0.9701 -0.8602
  405SOL    HW2 1215   0.277   2.569   0.604  1.9570 -0.5120 -1.9419
  406SOL     OW 1216   0.022   1.598   3.007 -0.1972 -0.5315  0.0624
  406SOL    HW1 1217   0.077   1.554   2.930  1.1962  0.3050 -1.1372
  406SOL    HW2 1218   0.038   1.553   3.096  0.1551  2.1133 -1.9924
  407SOL     OW 1219   1.563   0.974   0.968 -0.3056  0.1406 -0.3889
  407SOL    HW1 1220   1.615   0.929   0.889 -0.9213 -0.1510  0.0468
  407SOL    HW2 1221   1.478   1.032   0.941  0.8751  1.9458  0.4659
  408SOL     OW 1222   1.460   2.297   0.939  0.0658 -0.0724  0.2839
  408SOL    HW1 1223   1.548   2.304   0.877  0.0242 -0.0715  1.4675
  408SOL    HW2 1224   1.450   2.382   0.995 -0.3748  0.7135 -1.5512
  409SOL     OW 1225   0.615   0.858   0.674  0.1468  0.3567  0.0291
  409SOL    HW1 1226   0.544   0.879   0.600 -0.7542  0.6334 -2.1518
  409SOL    HW2 1227   0.649   0.757   0.662  3.1214 -1.7217 -0.1780
  410SOL     OW 1228   1.370   1.977   1.499  0.1625  0.6018  0.2523
  410SOL    HW1 1229   1.348   2.074   1.531 -0.8430  2.7347  2.3106
  410SOL    HW2 1230   1.290   1.916   1.481  0.0461  1.4165 -1.6102
  411SOL     OW 1231   2.404   1.841   0.069 -0.0323 -0.0777 -0.3266
  411SOL    HW1 1232   2.340   1.823  -0.007  2.2222  1.7858 -0.9866
  411SOL    HW2 1233   2.483   1.905   0.036  0.2512  0.0749  1.2986
  412SOL     OW 1234   1.620   2.422   2.282 -0.8979 -0.2536  0.3944
  412SOL    HW1 1235   1.588   2.515   2.318 -1.1030  1.1866 -0.5532
  412SOL    HW2 1236   1.581   2.350   2.347 -1.0649 -2.6456  0.6647
  413SOL     OW 1237   3.034   0.278   2.865 -0.5152  0.1269 -0.5113
  413SOL    HW1 1238   2.995   0.199   2.916  0.0577  0.6354 -0.4771
  413SOL    HW2 1239   3.133   0.288   2.890  0.5478  3.1511 -0.4835
  414SOL     OW 1240   1.732   1.328   1.331  0.6671 -0.4208 -0.6923
  414SOL    HW1 1241   1.681   1.406   1.384  0.3103 -0.8080  1.4785
  414SOL    HW2 1242   1.732   1.345   1.234  0.3754  1.8283  2.4459
  415SOL     OW 1243   0.248   2.259   0.700  0.6084 -0.0870  0.2653
  415SOL    HW1 1244   0.290   2.255   0.793 -2.6307  0.2670 -0.9733
  415SOL    HW2 1245   0.207   2.172   0.679  3.7874  1.4451  2.6079
  416SOL     OW 1246   0.339   1.024   1.067  0.1543 -0.1936 -0.1885
  416SOL    HW1 1247   0.297   1.024   0.971  0.3278 -0.6018 -1.4283
  416SOL    HW2 1248   0.441   1.056   1.072 -0.3253 -2.1218  1.2491
  417SOL     OW 1249   2.177   2.344   1.879 -0.3751 -0.0051  0.1430
  417SOL    HW1 1250   2.223   2.253   1.874  0.7521 -0.4630  0.7832
  417SOL    HW2 1251   2.083   2.349   1.928 -2.3083  1.5887  1.7848
  418SOL     OW 1252   1.132   0.521   1.368 -0.1522 -0.3225  0.5637
  418SOL    HW1 1253   1.032   0.477   1.353 -4.3056 -1.4668 -1.3007
  418SOL    HW2 1254   1.195   0.497   1.288  1.4864 -2.5281 -0.1500
  419SOL     OW 1255   0.953   0.369   2.985  0.1816  0.0715  0.0073
  419SOL    HW1 1256   0.992   0.422   2.905 -3.0192 -0.1509 -1.9759
  419SOL    HW2 1257   0.892   0.292   2.951 -1.6578  1.4946  1.4257
  420SOL     OW 1258   0.175   2.275   0.367 -0.0430  0.0073 -0.0638
  420SOL    HW1 1259   0.180   2.227   0.276  1.1749 -0.1013  0.1325
  420SOL    HW2 1260   0.112   2.240   0.440  2.4570  2.2666 -2.5620
  421SOL     OW 1261   0.330   0.059   0.697  0.2884 -0.1467 -0.3247
  421SOL    HW1 1262   0.350   0.022   0.600 -1.3566 -0.2188 -3.2898
  421SOL    HW2 1263   0.390   0.138   0.728  0.0668  1.5802 -1.2984
  422SOL     OW 1264   0.934   2.518   1.033  0.3882 -0.0282  0.1440
  422SOL    HW1 1265   0.960   2.599   0.971  3.0474 -0.0473  0.4159
  422SOL    HW2 1266   0.963   2.537   1.131 -0.7875  2.1506  3.5916
  423SOL     OW 1267   0.048   0.704   1.159  0.3078  0.0660 -0.7776
  423SOL    HW1 1268   0.042   0.696   1.265 -1.0326  2.3888  2.1672
  423SOL    HW2 1269  -0.036   0.670   1.115  0.0514 -1.4156 -1.0619
  424SOL     OW 1270   0.985   2.143   2.237 -0.3678 -0.2642 -0.0036
  424SOL    HW1 1271   0.946   2.163   2.147  1.9821 -0.0794  0.6522
  424SOL    HW2 1272   0.916   2.154   2.314 -2.0555  0.3640 -1.4672
  425SOL     OW 1273   2.020   1.438   1.111 -0.5877  0.0339 -0.8550
  425SOL    HW1 1274   2.037   1.338   1.105 -1.2157  1.6117  3.1386
  425SOL    HW2 1275   2.060   1.487   1.023  0.0641  1.9341 -0.1446
  426SOL     OW 1276   1.525   1.542   1.388  0.3214  0.1608 -0.3876
  426SOL    HW1 1277   1.500   1.629   1.344  0.1112 -1.5846 -0.1731
  426SOL    HW2 1278   1.528   1.552   1.491  1.8890  0.0561 -1.0448
  427SOL     OW 1279   1.957   2.332   2.050  0.0875  0.3577 -0.5201
  427SOL    HW1 1280   1.998   2.274   2.132  1.8765  0.7630  0.4737
  427SOL    HW2 1281   1.941   2.433   2.071 -2.8938  3.3194 -0.2121
  428SOL     OW 1282   0.931   3.085   0.051  0.0707  0.0673  0.4742
  428SOL    HW1 1283   0.964   3.168   0.098 -0.9587  0.2841 -1.8939
  428SOL    HW2 1284   0.999   3.004   0.057  1.4744  1.4480 -2.1328
  429SOL     OW 1285   1.268   0.054   0.218  0.1668 -0.0987  0.1646
  429SOL    HW1 1286   1.343   0.132   0.214 -1.2806  2.2726  2.2121
  429SOL    HW2 1287   1.272  -0.012   0.143  0.5742 -0.2211  1.3409
  430SOL     OW 1288   2.772   1.484   0.328  0.2845 -0.0081  0.1151
  430SOL    HW1 1289   2.736   1.541   0.244 -2.4462  1.8970  1.0324
  430SOL    HW2 1290   2.803   1.538   0.411  1.7394  0.5275 -0.5066
  431SOL     OW 1291   2.082   1.618   0.927  0.2736 -0.2182 -0.1833
  431SOL    HW1 1292   2.124   1.700   0.975  2.3941 -0.3927 -0.6806
  431SOL    HW2 1293   1.991   1.645   0.879  0.4291 -0.3260 -0.2139
  432SOL     OW 1294   2.912   2.246   1.242 -0.2663  0.4565 -0.6900
  432SOL    HW1 1295   2.829   2.182   1.264 -2.2371  1.9890  1.1220
  432SOL    HW2 1296   2.938   2.300   1.331  0.1725  0.0154  0.6053
  433SOL     OW 1297   1.840   0.265   0.813  0.4020 -0.1736 -0.2939
  433SOL    HW1 1298   1.738   0.265   0.852 -2.3281 -0.2451 -0.3310
  433SOL    HW2 1299   1.911   0.241   0.883  0.9421 -0.4191 -0.6953
  434SOL     OW 1300   1.494   0.232   0.734  0.0572 -0.3134  0.0170
  434SOL    HW1 1301   1.478   0.325   0.686  0.9692  2.9347 -0.8364
  434SOL    HW2 1302   1.534   0.249   0.824  0.2545 -0.5118 -3.9786
  435SOL     OW 1303   1.431   1.454   2.075 -0.2504  0.3526  0.2782
  435SOL    HW1 1304   1.374   1.448   2.164  1.5811  1.4679  1.7012
  435SOL    HW2 1305   1.402   1.541   2.019  0.4023  1.3623  1.3091
  436SOL     OW 1306   1.660   2.674   2.406 -0.2163  0.1899 -0.6339
  436SOL    HW1 1307   1.669   2.772   2.434 -0.3673 -1.5339 -0.8150
  436SOL    HW2 1308   1.592   2.619   2.458 -0.4283  1.3367  0.3817
  437SOL     OW 1309   0.985   2.968   0.885 -0.1862 -0.3335  0.3397
  437SOL    HW1 1310   0.918   3.046   0.887 -0.4771 -1.6026 -1.7751
  437SOL    HW2 1311   1.053   2.964   0.968  1.9989 -0.2418  0.1175
  438SOL     OW 1312   0.991   2.515   1.319 -0.0648 -0.0065 -0.1659
  438SOL    HW1 1313   1.064   2.576   1.363  1.1996 -1.1492  2.4155
  438SOL    HW2 1314   0.999   2.412   1.329 -1.1454  1.2446 -0.6166
  439SOL     OW 1315   0.702   1.680   1.050  0.0033 -0.2619 -0.1311
  439SOL    HW1 1316   0.766   1.762   1.039 -0.6778 -0.3181 -1.6471
  439SOL    HW2 1317   0.617   1.705   1.106 -1.3693  0.6267  0.2332
  440SOL     OW 1318   0.958   2.359   1.980 -0.3240  0.7919  0.1700
  440SOL    HW1 1319   0.983   2.449   1.934  1.6886 -1.1154  2.2196
  440SOL    HW2 1320   0.993   2.277   1.925  0.8671 -0.3150  0.3087
  441SOL     OW 1321   0.340   2.798   1.328 -0.3868 -0.3934  0.1441
  441SOL    HW1 1322   0.406   2.715   1.310 -0.5686 -1.1544  0.9169
  441SOL    HW2 1323   0.329   2.863   1.250  0.6239  0.5828 -0.4036
  442SOL     OW 1324   2.234   0.689   2.559  0.3139  0.0239  0.0546
  442SOL    HW1 1325   2.240   0.618   2.486 -2.1181  0.8741 -0.2659
  442SOL    HW2 1326   2.166   0.767   2.542  0.0371 -0.4493  0.3624
  443SOL     OW 1327   1.282   2.551   2.206 -0.4189  0.8786 -0.3289
  443SOL    HW1 1328   1.268   2.457   2.251 -2.5819 -0.7194 -0.0377
  443SOL    HW2 1329   1.240   2.626   2.264 -1.8704  0.0578  0.5379
  444SOL     OW 1330   0.952   1.190   1.468 -0.3479 -0.3308  0.6131
  444SOL    HW1 1331   1.030   1.147   1.520  0.4915 -1.7043  0.1994
  444SOL    HW2 1332   0.978   1.283   1.438 -1.7013  1.9938  1.5678
  445SOL     OW 1333   0.150   2.193   2.079 -0.2226  1.0286  1.0750
  445SOL    HW1 1334   0.146   2.092   2.098 -0.2595 -0.0222 -0.0894
  445SOL    HW2 1335   0.088   2.238   2.145 -0.3992  0.0109 -3.1186
  446SOL     OW 1336   0.102   1.957   2.412  0.0401 -0.6125 -0.2585
  446SOL    HW1 1337   0.073   2.056   2.419  0.2589 -0.3369 -0.3043
  446SOL    HW2 1338   0.100   1.929   2.314  0.7287  0.1684  2.8186
  447SOL     OW 1339   1.299   1.641   1.932  0.0196  0.1542 -0.5508
  447SOL    HW1 1340   1.258   1.703   1.860  0.3180 -0.4353 -1.4605
  447SOL    HW2 1341   1.374   1.697   1.981 -1.9904  0.6165  0.6575
  448SOL     OW 1342   0.157   1.482   1.997  0.4221 -0.1036 -0.3481
  448SOL    HW1 1343   0.166   1.572   1.945  0.0788 -0.3223  1.8218
  448SOL    HW2 1344   0.079   1.490   2.070 -3.2445 -0.2671  1.6819
  449SOL     OW 1345   1.869   2.995   0.844 -0.4276 -0.7316 -0.4753
  449SOL    HW1 1346   1.874   3.008   0.950 -1.7589 -0.1291  3.9162
  449SOL    HW2 1347   1.911   2.912   0.808 -1.3861 -1.8031 -0.9361
  450SOL     OW 1348   2.216   1.488   0.684  0.4950 -0.0542  0.0055
  450SOL    HW1 1349   2.216   1.518   0.783 -0.1180  0.1466  1.4978
  450SOL    HW2 1350   2.274   1.548   0.621  3.2965  0.7969 -0.8997
  451SOL     OW 1351   1.399   2.980   1.482  0.5199 -0.2016  0.3596
  451SOL    HW1 1352   1.340   3.049   1.530  0.8687  1.8556 -0.0550
  451SOL    HW2 1353   1.426   2.908   1.551 -0.3746  0.5110 -0.7084
  452SOL     OW 1354   2.709   2.300   2.293  0.0182  0.4170 -0.4144
  452SOL    HW1 1355   2.650   2.382   2.300  0.9058 -0.8247  0.0735
  452SOL    HW2 1356   2.762   2.272   2.379  1.8990  0.0693 -2.1945
  453SOL     OW 1357   2.462   2.664   3.102 -0.4618 -0.6504  0.5052
  453SOL    HW1 1358   2.362   2.694   3.129 -0.5545  0.1911  0.0772
  453SOL    HW2 1359   2.463   2.595   3.019 -3.2155  2.3920 -0.9388
  454SOL     OW 1360   0.900   1.173   2.024  0.4083  0.2993 -0.6838
  454SOL    HW1 1361   0.850   1.176   1.932 -2.0190 -0.8799  0.7874
  454SOL    HW2 1362   0.987   1.227   2.025  0.3634 -0.3907 -0.8407
  455SOL     OW 1363   0.717   2.610   2.819 -0.5246 -0.1457  0.2445
  455SOL    HW1 1364   0.799   2.665   2.831 -1.7953  2.5603  1.8219
  455SOL    HW2 1365   0.712   2.520   2.867 -3.0223 -1.2909 -1.7306
  456SOL     OW 1366   0.315   1.936   0.225 -0.3139 -0.1091 -0.2616
  456SOL    HW1 1367   0.414   1.971   0.225  0.5732 -0.3392  1.0911
  456SOL    HW2 1368   0.258   1.993   0.160 -1.0585 -0.9641 -1.2740
  457SOL     OW 1369   0.431   2.644   0.652  0.0309  0.5172  0.2978
  457SOL    HW1 1370   0.469   2.652   0.553  0.1677 -1.8283 -1.0007
  457SOL    HW2 1371   0.501   2.662   0.726 -1.7715  1.0722  0.0882
  458SOL     OW 1372   2.940   0.032   1.266 -0.0483 -0.2000 -0.2576
  458SOL    HW1 1373   3.007   0.105   1.237 -1.0050 -1.8528  0.4982
  458SOL    HW2 1374   2.934  -0.038   1.189  1.6138  0.1198 -0.6442
  459SOL     OW 1375   2.125   2.514   0.733  0.5092  0.5897 -0.5579
  459SOL    HW1 1376   2.179   2.532   0.822  0.0132  1.1774  2.7625
  459SOL    HW2 1377   2.179   2.480   0.652  2.4258 -1.4435  1.6829
  460SOL     OW 1378   1.177   2.051   2.797 -1.1386 -0.0321 -0.1084
  460SOL    HW1 1379   1.200   2.065   2.696  0.4972 -4.0294  0.7578
  460SOL    HW2 1380   1.197   1.953   2.830  0.2602 -0.3881  1.7442
  461SOL     OW 1381   0.467   2.146   2.751 -0.1465 -0.2467 -0.6907
  461SOL    HW1 1382   0.449   2.072   2.684 -1.6106 -0.6053 -1.1479
  461SOL    HW2 1383   0.479   2.112   2.850  0.9949  0.7236  3.0033
  462SOL     OW 1384   0.941   1.028   1.725 -0.2607  0.1858  0.2056
  462SOL    HW1 1385   0.951   0.949   1.658  0.1146 -1.4898 -0.5112
  462SOL    HW2 1386   0.879   1.104   1.689 -0.1782  2.0026 -1.6504
  463SOL     OW 1387   0.433   0.788   0.481 -0.0469  0.2039  0.0422
  463SOL    HW1 1388   0.473   0.697   0.450  1.8048  1.0103 -1.0495
  463SOL    HW2 1389   0.326   0.792   0.484 -0.6286  2.0526 -0.6255
  464SOL     OW 1390   0.549   2.346   2.284  0.3845  0.7539  0.1643
  464SOL    HW1 1391   0.480   2.421   2.295 -0.5612 -0.4551  0.6811
  464SOL    HW2 1392   0.571   2.318   2.188 -1.0990  0.1853  1.4321
  465SOL     OW 1393   0.245   0.998   0.789 -0.0614 -0.4452 -0.2133
  465SOL    HW1 1394   0.142   0.997   0.770  0.1596 -3.0073 -0.4209
  465SOL    HW2 1395   0.282   0.901   0.795 -1.5417 -0.7674  1.0869
  466SOL     OW 1396   1.323   1.139   0.916  0.1369 -0.2229  1.0784
  466SOL    HW1 1397   1.362   1.234   0.896 -0.5562  0.7169 -0.7760
  466SOL    HW2 1398   1.232   1.139   0.967 -0.3594 -1.8233 -0.2718
  467SOL     OW 1399   0.646   0.481   2.566  0.2603 -0.2106 -0.5102
  467SOL    HW1 1400   0.571   0.554   2.572  0.2360  3.5487  1.8199
  467SOL    HW2 1401   0.617   0.396   2.623 -2.5759  1.8423  2.7749
  468SOL     OW 1402   0.443   2.283   1.567 -0.6346 -0.1391 -0.3139
  468SOL    HW1 1403   0.533   2.323   1.598 -0.0750 -0.4143  0.8899
  468SOL    HW2 1404   0.427   2.281   1.463  0.0228  2.0081 -0.7571
  469SOL     OW 1405   1.431   1.313   1.259  0.2541  0.8150 -0.1187
  469SOL    HW1 1406   1.523   1.299   1.214  2.1423 -0.5240 -0.4121
  469SOL    HW2 1407   1.443   1.398   1.320  0.4677 -0.3285 -1.3490
  470SOL     OW 1408   2.987   1.824   0.814  0.2544 -0.3813  0.3118
  470SOL    HW1 1409   3.062   1.880   0.767 -0.3507 -1.3466 -3.1242
  470SOL    HW2 1410   3.015   1.791   0.910  0.4140  1.0040 -0.2525
  471SOL     OW 1411   2.680   1.384   2.196 -0.1843 -0.4487  0.3943
  471SOL    HW1 1412   2.696   1.279   2.203 -0.1811 -1.2817  0.0879
  471SOL    HW2 1413   2.735   1.441   2.263 -0.0204  1.3174 -3.5745
  472SOL     OW 1414   1.247   2.422   0.041 -0.9231  0.2821  0.3993
  472SOL    HW1 1415   1.326   2.417   0.106 -1.6028  0.4930  0.9319
  472SOL    HW2 1416   1.161   2.374   0.073 -0.3410  1.1433 -1.5954
  473SOL     OW 1417   1.069   1.507   1.004 -0.0235  0.4515 -0.0753
  473SOL    HW1 1418   0.974   1.498   0.963  0.0265  0.9283  1.6281
  473SOL    HW2 1419   1.092   1.436   1.073  0.4384  0.0013 -1.3173
  474SOL     OW 1420   0.629   1.276   0.479  0.3554 -0.6851  0.6657
  474SOL    HW1 1421   0.575   1.203   0.430  0.6510  0.4192 -2.0224
  474SOL    HW2 1422   0.707   1.243   0.543 -0.8923 -1.3701  1.7129
  475SOL     OW 1423   2.861   0.037   0.815 -0.7128  0.5365  0.1463
  475SOL    HW1 1424   2.905   0.119   0.863 -2.1416 -0.2940  2.3946
  475SOL    HW2 1425   2.757   0.040   0.836 -0.8631  0.5447 -0.8969
  476SOL     OW 1426   0.959   3.039   1.814 -0.5171  0.0840  0.3035
  476SOL    HW1 1427   1.054   3.071   1.806 -0.0885 -0.1122  0.4142
  476SOL    HW2 1428   0.910   3.055   1.725 -0.9044 -1.2415 -0.7394
  477SOL     OW 1429   1.431   0.324   2.451 -0.0486  0.0687  0.1108
  477SOL    HW1 1430   1.456   0.368   2.544  3.0044  0.1918 -0.5978
  477SOL    HW2 1431   1.498   0.251   2.421  0.7180  0.7963 -0.3763
  478SOL     OW 1432   2.252   1.931   0.302 -0.4742 -0.6882  0.0976
  478SOL    HW1 1433   2.237   1.838   0.338 -0.1784  1.3464 -0.1068
  478SOL    HW2 1434   2.342   1.933   0.245  0.7701  0.6016 -2.1711
  479SOL     OW 1435   1.288   0.953   2.857  0.5331 -0.5286 -0.0819
  479SOL    HW1 1436   1.351   0.988   2.785 -1.0541 -0.5208  2.1316
  479SOL    HW2 1437   1.232   0.866   2.827 -0.4735  0.8138  1.7832
  480SOL     OW 1438   2.686   2.313   0.428  0.6707  0.5647 -0.4313
  480SOL    HW1 1439   2.755   2.235   0.441 -0.7364  1.0209  2.2620
  480SOL    HW2 1440   2.591   2.282   0.412  3.9289 -0.9655  0.0150
  481SOL     OW 1441   0.955   1.139   0.791 -0.2206 -0.0943  0.1266
  481SOL    HW1 1442   0.981   1.226   0.736  1.7723 -1.3095  0.5998
  481SOL    HW2 1443   0.993   1.138   0.891  0.6755 -1.8062  3.0592
  482SOL     OW 1444   1.610   0.288   2.037  0.1790  0.2671  0.0806
  482SOL    HW1 1445   1.611   0.392   2.015 -1.7726  0.6270  1.6755
  482SOL    HW2 1446   1.700   0.245   2.063  1.0318 -1.4025 -2.1699
  483SOL     OW 1447   0.108   2.382   1.215 -0.3882 -0.2560 -0.0259
  483SOL    HW1 1448   0.137   2.460   1.277 -1.1860 -1.1590 -1.0199
  483SOL    HW2 1449   0.138   2.407   1.114  1.4300  0.1190 -2.8282
  484SOL     OW 1450   1.717   1.065   1.483 -0.3773  0.4180  0.2418
  484SOL    HW1 1451   1.807   1.022   1.452  0.4982 -3.3562 -1.1162
  484SOL    HW2 1452   1.711   1.163   1.462  0.8075 -0.1379 -1.2644
  485SOL     OW 1453   0.753   0.738   1.970 -0.3891  0.0041 -0.1869
  485SOL    HW1 1454   0.674   0.764   1.904 -1.2345  1.3315 -3.0803
  485SOL    HW2 1455   0.840   0.704   1.918  0.0297 -1.7830 -0.1085
  486SOL     OW 1456   0.894   1.878   2.438 -0.3741  0.3662 -0.0790
  486SOL    HW1 1457   0.878   1.875   2.542 -0.8981  2.1183  1.3898
  486SOL    HW2 1458   0.894   1.974   2.400  0.4184 -2.1174  1.2595
  487SOL     OW 1459   1.750   1.586   1.062  0.4960  0.3868  0.2379
  487SOL    HW1 1460   1.806   1.501   1.083 -1.1462 -0.9040 -3.4613
  487SOL    HW2 1461   1.781   1.640   0.978 -0.7639 -1.2555 -0.2449
  488SOL     OW 1462   2.928   0.801   2.274  0.1139 -0.8904 -0.3049
  488SOL    HW1 1463   3.007   0.735   2.283 -0.8225 -0.7295 -0.0663
  488SOL    HW2 1464   2.846   0.772   2.334 -0.2037 -0.0891  2.2777
  489SOL     OW 1465   2.821   0.351   1.298 -0.7637  0.1936  0.0503
  489SOL    HW1 1466   2.802   0.304   1.392 -2.0934  1.2330  1.3989
  489SOL    HW2 1467   2.905   0.314   1.251 -0.1682  2.9632  1.0709
  490SOL     OW 1468   1.478   2.980   2.815 -0.0215 -0.6234  0.2619
  490SOL    HW1 1469   1.500   2.881   2.829  0.2225  0.3429  0.9837
  490SOL    HW2 1470   1.453   3.003   2.717  1.1685 -0.4370  0.9991
  491SOL     OW 1471   1.801   1.444   2.716  0.3951 -0.5255  0.3513
  491SOL    HW1 1472   1.741   1.456   2.796  2.7999  3.0903 -1.5314
  491SOL    HW2 1473   1.886   1.500   2.732 -2.3532  0.3304  0.7995
  492SOL     OW 1474   0.626   2.092   0.599 -0.7342  0.1944 -0.2029
  492SOL    HW1 1475   0.649   2.109   0.699 -1.5844 -1.9833  0.5868
  492SOL    HW2 1476   0.541   2.131   0.564  4.1793 -3.0250  1.5235
  493SOL     OW 1477   0.409   1.331   2.078  0.5221  0.0427 -0.3567
  493SOL    HW1 1478   0.310   1.365   2.073 -1.7362 -0.5523  1.0345
  493SOL    HW2 1479   0.417   1.228   2.078 -0.8528  0.5447 -0.1622
  494SOL     OW 1480   2.709   2.639   0.136 -0.6210 -0.0042  0.4831
  494SOL    HW1 1481   2.699   2.600   0.230 -0.2564  0.5432 -1.7504
  494SOL    HW2 1482   2.619   2.664   0.087  1.2377  0.9938  1.8494
  495SOL     OW 1483   2.517   2.803   2.642 -0.3056 -0.0330  0.2633
  495SOL    HW1 1484   2.542   2.699   2.639  0.4478 -0.3244 -2.6683
  495SOL    HW2 1485   2.587   2.857   2.580  1.6799  0.9029 -2.4543
  496SOL     OW 1486   1.954   2.307   0.797 -0.2353  0.1211 -0.1011
  496SOL    HW1 1487   1.973   2.290   0.898  0.7380  1.3888  0.3702
  496SOL    HW2 1488   2.024   2.367   0.754  2.3035  0.1412 -1.2082
  497SOL     OW 1489   0.286   2.997   2.365 -0.7790  0.1968 -0.0822
  497SOL    HW1 1490   0.213   3.076   2.381 -1.9182 -0.5012  0.8498
  497SOL    HW2 1491   0.327   3.000   2.265 -0.5101  0.5161 -0.3914
  498SOL     OW 1492   1.174   1.314   1.182 -0.0013  0.4093  1.0403
  498SOL    HW1 1493   1.272   1.302   1.205 -1.1952  0.9942  0.8212
  498SOL    HW2 1494   1.114   1.368   1.250  2.0387  3.2322  1.6581
  499SOL     OW 1495   0.604   1.782   0.406 -0.1010  0.7320 -0.7401
  499SOL    HW1 1496   0.561   1.732   0.324 -1.4704  2.4803 -1.3981
  499SOL    HW2 1497   0.694   1.824   0.384 -0.6538 -0.7809  2.5186
  500SOL     OW 1498   1.495   2.783   1.654  0.2966  0.9695  0.1554
  500SOL    HW1 1499   1.514   2.754   1.751  0.3364  1.8721  0.5124
  500SOL    HW2 1500   1.512   2.698   1.587  3.1444 -2.7170 -0.9240
  501SOL     OW 1501   0.782   1.229   2.271 -0.0183 -0.6179  0.2818
  501SOL    HW1 1502   0.731   1.142   2.299  1.7729 -3.3453  0.2511
  501SOL    HW2 1503   0.798   1.222   2.165  2.5185  1.1196 -0.0988
  502SOL     OW 1504   2.557   0.915   1.802  0.4056  0.1680  0.1347
  502SOL    HW1 1505   2.620   0.946   1.727 -4.1794  1.1593  0.6485
  502SOL    HW2 1506   2.536   0.816   1.796  1.0418 -1.9971 -1.9504
  503SOL     OW 1507   1.244   0.130   0.697  0.1721 -0.0212 -0.4622
  503SOL    HW1 1508   1.176   0.199   0.736 -1.6288 -1.8362 -0.8753
  503SOL    HW2 1509   1.340   0.161   0.708  1.0320 -1.2698  0.0113
  504SOL     OW 1510   2.972   2.360   1.482  0.2871  0.2471  0.1988
  504SOL    HW1 1511   2.925   2.409   1.559  0.0930 -0.1324 -1.0808
  504SOL    HW2 1512   3.075   2.339   1.505  1.9768 -1.6380 -0.1315
  505SOL     OW 1513   2.324   1.142   1.521 -0.0938  0.1137 -0.3857
  505SOL    HW1 1514   2.295   1.167   1.423 -3.9996 -4.3852 -1.5348
  505SOL    HW2 1515   2.418   1.167   1.551  0.2958 -0.5534  0.7767
  506SOL     OW 1516   1.947   0.220   1.867 -0.0600 -0.6908  0.2142
  506SOL    HW1 1517   2.032   0.177   1.829  2.2722 -2.0819 -1.2455
  506SOL    HW2 1518   1.962   0.308   1.920  2.0359 -0.0819  0.5400
  507SOL     OW 1519   0.492   0.754   2.172  0.4240 -0.2427  0.6017
  507SOL    HW1 1520   0.454   0.693   2.095 -1.1506 -0.7314 -2.2588
  507SOL    HW2 1521   0.563   0.699   2.229 -0.7084 -0.1206  0.0845
  508SOL     OW 1522   0.309   1.657   0.802 -0.3967  0.7054  0.4525
  508SOL    HW1 1523   0.380   1.685   0.735 -2.7023 -2.3019  2.0535
  508SOL    HW2 1524   0.288   1.727   0.880 -2.2965  0.6767  0.7509
  509SOL     OW 1525   1.286   1.209   2.478  0.5538  0.3781  0.0068
  509SOL    HW1 1526   1.259   1.109   2.460 -2.4262 -0.0838 -0.8062
  509SOL    HW2 1527   1.199   1.266   2.458 -0.9588 -0.0836 -2.5239
  510SOL     OW 1528   1.361   2.048   2.221 -0.6181 -0.1788  0.8273
  510SOL    HW1 1529   1.354   2.103   2.131 -1.5936  0.2001 -0.7880
  510SOL    HW2 1530   1.285   1.985   2.230 -0.1950  0.9740 -0.7016
  511SOL     OW 1531   3.018   2.642   1.363 -0.6291  0.2425 -0.2262
  511SOL    HW1 1532   3.036   2.685   1.271 -1.0682 -0.0946 -0.9272
  511SOL    HW2 1533   2.933   2.582   1.353 -1.3161  0.0345  0.4285
  512SOL     OW 1534   2.333   0.435   1.401 -0.5305  0.3131  0.2752
  512SOL    HW1 1535   2.236   0.449   1.369 -0.6236 -0.2591 -1.7084
  512SOL    HW2 1536   2.392   0.392   1.327 -2.1547  0.4089 -1.2931
  513SOL     OW 1537   2.529   2.109   0.885 -0.4075 -0.3306  0.0821
  513SOL    HW1 1538   2.502   2.197   0.835 -1.6017 -2.1379 -0.0429
  513SOL    HW2 1539   2.604   2.054   0.832  1.5009  0.6219 -1.9141
  514SOL     OW 1540   0.588   2.757   0.446  0.4414  0.1888  0.2990
  514SOL    HW1 1541   0.578   2.753   0.343  0.2654 -0.1543 -0.5747
  514SOL    HW2 1542   0.643   2.840   0.485  1.8895 -1.8991  1.2255
  515SOL     OW 1543   1.952   1.331   2.395 -0.3531  0.1452  0.3602
  515SOL    HW1 1544   1.943   1.305   2.290  0.9819 -2.0507  0.0817
  515SOL    HW2 1545   1.879   1.282   2.451  0.9368 -0.4891  1.8402
  516SOL     OW 1546   0.264   0.169   1.965  0.0967 -0.2555 -0.5221
  516SOL    HW1 1547   0.353   0.204   1.927  2.0385 -0.1431  0.4728
  516SOL    HW2 1548   0.197   0.153   1.888  0.9052 -0.5802  0.0124
  517SOL     OW 1549   0.480   0.248   1.100 -0.3283 -0.0326  0.3029
  517SOL    HW1 1550   0.558   0.188   1.142  0.5093 -1.7749  3.1246
  517SOL    HW2 1551   0.387   0.197   1.112 -1.0979 -2.9338 -1.3157
  518SOL     OW 1552   2.182   3.029   1.832 -0.4780  0.0107 -0.1364
  518SOL    HW1 1553   2.214   3.129   1.846  0.3673  0.1328  2.7546
  518SOL    HW2 1554   2.215   2.989   1.741 -1.3062  0.3749  0.8099
  519SOL     OW 1555   2.325   2.248   2.541 -0.3237  0.0873  0.1345
  519SOL    HW1 1556   2.275   2.206   2.620  0.4003  1.3199 -0.2029
  519SOL    HW2 1557   2.314   2.351   2.537 -0.7787  0.1276 -0.6083
  520SOL     OW 1558   1.777   2.653   1.655  0.2896  0.3226 -0.3293
  520SOL    HW1 1559   1.727   2.632   1.744  0.3730  2.0701  1.3132
  520SOL    HW2 1560   1.879   2.626   1.659 -2.6179  0.2095  1.3865
  521SOL     OW 1561   0.652   0.071   2.126 -0.2056 -0.2298  0.0784
  521SOL    HW1 1562   0.583   0.015   2.075 -0.3404  2.3612 -3.5927
  521SOL    HW2 1563   0.642   0.054   2.232 -0.2145  0.5880  0.4713
  522SOL     OW 1564   0.237   1.914   1.496 -0.1404  0.5354 -0.3494
  522SOL    HW1 1565   0.274   1.965   1.578 -1.6922 -0.5404 -0.4751
  522SOL    HW2 1566   0.220   1.972   1.408 -0.8218  2.3782 -1.0018
  523SOL     OW 1567   2.247   2.916   1.561 -0.8928 -0.3763 -0.2097
  523SOL    HW1 1568   2.327   2.875   1.503  1.2359 -0.8697 -1.3555
  523SOL    HW2 1569   2.152   2.888   1.545  0.8624  3.4760  1.3832
  524SOL     OW 1570   0.220   2.747   2.755 -0.4852  0.1608 -0.1701
  524SOL    HW1 1571   0.172   2.810   2.814  0.1455 -0.8443 -0.2370
  524SOL    HW2 1572   0.327   2.756   2.747  0.7089  1.0421  0.0035
  525SOL     OW 1573   2.179   2.100   0.521  0.7238 -0.2316  0.1522
  525SOL    HW1 1574   2.163   2.039   0.606  1.8552  1.7880 -1.7340
  525SOL    HW2 1575   2.195   2.044   0.433 -1.0134 -0.7323 -1.9823
  526SOL     OW 1576   0.382   1.532   1.716 -0.2336  0.0797 -0.0682
  526SOL    HW1 1577   0.455   1.592   1.770  1.9824  2.0428  1.6690
  526SOL    HW2 1578   0.388   1.431   1.728  1.9439  1.9618 -0.0048
  527SOL     OW 1579   1.153   3.000   1.108 -0.4639 -0.3849  0.2106
  527SOL    HW1 1580   1.223   2.921   1.128  3.8729  0.2352 -0.0882
  527SOL    HW2 1581   1.204   3.092   1.116  0.0089 -0.4640  1.8451
  528SOL     OW 1582   1.285   2.436   0.626 -0.1362  0.1538  0.5532
  528SOL    HW1 1583   1.342   2.351   0.634  3.0649 -2.6708 -0.3411
  528SOL    HW2 1584   1.323   2.522   0.671 -0.7590 -1.5173 -1.9166
  529SOL     OW 1585   1.851   1.722   0.831 -0.3414  0.0532  0.6006
  529SOL    HW1 1586   1.805   1.733   0.736  3.1864  3.0370 -1.9496
  529SOL    HW2 1587   1.886   1.816   0.867 -0.8549 -1.7055  2.0771
  530SOL     OW 1588   0.395   2.512   0.175 -0.7045 -0.2800  0.6036
  530SOL    HW1 1589   0.445   2.481   0.259 -1.0854 -0.2771 -1.3660
  530SOL    HW2 1590   0.396   2.439   0.098 -0.5215 -1.6229 -0.6968
  531SOL     OW 1591   1.844   1.023   1.054  0.5136  0.3284  0.0930
  531SOL    HW1 1592   1.889   0.999   0.963  2.1387 -0.5418  1.2070
  531SOL    HW2 1593   1.744   0.993   1.066  0.2772 -0.2616  1.1157
  532SOL     OW 1594   0.397   1.196   0.681 -0.2555 -0.0854  0.5877
  532SOL    HW1 1595   0.436   1.162   0.588  0.2345  0.8358 -2.4369
  532SOL    HW2 1596   0.347   1.113   0.725  0.8215 -1.0446 -2.3929
  533SOL     OW 1597   1.822   0.023   2.610 -0.1429  0.2964 -0.8886
  533SOL    HW1 1598   1.926   0.011   2.616 -1.3758 -1.7631 -0.8660
  533SOL    HW2 1599   1.784   0.115   2.639  0.1894  1.2610  1.0204
  534SOL     OW 1600   0.192   0.180   1.550 -0.0716 -0.2482  0.1449
  534SOL    HW1 1601   0.266   0.248   1.520  3.5242  2.3988  0.9942
  534SOL    HW2 1602   0.098   0.225   1.558 -0.7116  1.8948  0.2923
  535SOL     OW 1603   1.874   0.401   0.139 -0.1789  0.7798 -0.0061
  535SOL    HW1 1604   1.920   0.487   0.161 -0.8912 -2.1668 -4.7507
  535SOL    HW2 1605   1.822   0.361   0.218 -0.7003 -2.1920  2.4294
  536SOL     OW 1606   1.219   2.494   0.971 -0.4989 -0.1408  0.7044
  536SOL    HW1 1607   1.239   2.463   0.876  1.2761  1.2530  2.1300
  536SOL    HW2 1608   1.125   2.542   0.974 -0.1330  2.8420 -0.0566
  537SOL     OW 1609   0.874   0.256   2.294 -0.1251  0.2434 -0.7906
  537SOL    HW1 1610   0.861   0.318   2.214  1.7941 -2.0051  1.3044
  537SOL    HW2 1611   0.848   0.159   2.271 -0.4527  0.8504  2.3093
  538SOL     OW 1612   1.723   2.245   1.626 -0.1219 -0.3092 -0.4614
  538SOL    HW1 1613   1.658   2.187   1.566  0.1816 -3.1018  0.7902
  538SOL    HW2 1614   1.782   2.315   1.571  2.3751  3.0180 -1.0308
  539SOL     OW 1615   0.153   1.550   2.768  0.4902 -0.0039 -0.3630
  539SOL    HW1 1616   0.068   1.553   2.708 -0.8633 -1.8292 -0.7567
  539SOL    HW2 1617   0.207   1.635   2.741  1.6070  1.8805 -2.0135
  540SOL     OW 1618   2.646   1.789   2.144  0.3586  0.0105  0.1845
  540SOL    HW1 1619   2.635   1.702   2.082  1.4031 -3.1007 -1.1041
  540SOL    HW2 1620   2.646   1.877   2.090 -3.1494  3.0514  1.8398
  541SOL     OW 1621   0.413   2.296   3.070 -0.1837 -0.3675 -0.0972
  541SOL    HW1 1622   0.447   2.201   3.096 -2.7073 -1.6054  0.0757
  541SOL    HW2 1623   0.326   2.304   3.018  0.0642 -1.3362  1.3545
  542SOL     OW 1624   2.194   2.582   0.456  0.0591  0.3255  0.1199
  542SOL    HW1 1625   2.182   2.676   0.418  1.8234  3.2881 -0.4835
  542SOL    HW2 1626   2.106   2.526   0.453 -0.5776  1.3348  1.6382
  543SOL     OW 1627   1.105   1.810   1.748 -0.3682  0.5122 -0.3111
  543SOL    HW1 1628   1.100   1.809   1.851 -0.7452  1.7429  1.3959
  543SOL    HW2 1629   1.010   1.816   1.699 -0.9400 -2.0630  1.2465
  544SOL     OW 1630   0.842   0.454   0.119 -0.3176 -0.4833 -0.6876
  544SOL    HW1 1631   0.842   0.382   0.194  0.3774  0.4871  0.0716
  544SOL    HW2 1632   0.899   0.417   0.040  1.0789 -2.1278 -0.2312
  545SOL     OW 1633   1.143   1.754   0.653 -0.0313  0.2377 -0.8062
  545SOL    HW1 1634   1.232   1.722   0.700  1.5917 -1.5197  0.6392
  545SOL    HW2 1635   1.153   1.766   0.550  0.6133  1.6683  0.0591
  546SOL     OW 1636   2.729   1.583   0.029 -0.0236  0.2116 -0.2670
  546SOL    HW1 1637   2.784   1.566  -0.054 -2.8989 -2.0873  1.7995
  546SOL    HW2 1638   2.634   1.544   0.038 -1.7440 -0.8188 -0.6704
  547SOL     OW 1639   0.483   3.052   2.723  0.0452  0.5555  0.6327
  547SOL    HW1 1640   0.468   2.986   2.645 -0.7516 -1.3914  0.1700
  547SOL    HW2 1641   0.504   2.990   2.806  1.1443 -0.6984 -0.7633
  548SOL     OW 1642   2.068   0.771   3.045 -0.2074  0.4588  0.5340
  548SOL    HW1 1643   1.972   0.741   3.063  1.2445 -2.9059  2.4019
  548SOL    HW2 1644   2.077   0.872   3.026  0.3902 -2.9076  2.5758
  549SOL     OW 1645   0.567   0.454   0.068  0.3978 -0.1714 -0.3040
  549SOL    HW1 1646   0.531   0.524  -0.003 -1.9093  2.9603 -0.6606
  549SOL    HW2 1647   0.668   0.463   0.091  2.8280 -0.6751  1.9598
  550SOL     OW 1648   2.524   2.866   2.903 -0.2198 -0.0779 -0.4798
  550SOL    HW1 1649   2.500   2.792   2.974  0.3618 -0.4876  1.9963
  550SOL    HW2 1650   2.523   2.833   2.803  1.8237  1.2043 -0.9888
  551SOL     OW 1651   0.249   0.824   0.203 -0.1748 -0.3671 -0.0567
  551SOL    HW1 1652   0.348   0.804   0.169 -0.8760 -0.2857 -2.2724
  551SOL    HW2 1653   0.238   0.835   0.304  0.4400 -1.4256 -0.7562
  552SOL     OW 1654   0.852   2.797   1.905 -0.3483  0.0790 -0.1920
  552SOL    HW1 1655   0.850   2.774   2.009  1.7347  1.0755  0.5328
  552SOL    HW2 1656   0.899   2.890   1.884 -3.5148 -1.2759  0.6307
  553SOL     OW 1657   3.091   2.555   0.375  0.0267 -0.4071  0.0391
  553SOL    HW1 1658   3.050   2.468   0.333 -0.1410 -0.4474 -1.0284
  553SOL    HW2 1659   3.181   2.541   0.423 -2.0255  1.0762  0.7430
  554SOL     OW 1660   2.089   0.322   0.501  0.7211 -0.3346  0.0535
  554SOL    HW1 1661   2.165   0.303   0.429  3.8321  0.7436 -0.1879
  554SOL    HW2 1662   2.099   0.251   0.578  1.0843  2.2293 -1.1621
  555SOL     OW 1663   0.506   2.868   2.506 -0.4164  0.2404 -1.0664
  555SOL    HW1 1664   0.421   2.875   2.450  2.2323  1.6537  0.2069
  555SOL    HW2 1665   0.590   2.832   2.457 -0.3282  1.3201 -3.7306
  556SOL     OW 1666   0.981   2.360   1.638 -0.0654 -0.1178 -0.3802
  556SOL    HW1 1667   1.003   2.452   1.684 -1.9342 -1.1303  1.6509
  556SOL    HW2 1668   1.049   2.330   1.567  0.4629 -1.0774  2.7465
  557SOL     OW 1669   0.154   2.133   0.106  0.4908  0.6724 -0.1525
  557SOL    HW1 1670   0.060   2.092   0.114  3.3031  0.6879 -2.2514
  557SOL    HW2 1671   0.181   2.176   0.015  0.7306  1.2018  1.5010
  558SOL     OW 1672   2.942   2.325   0.250 -1.0793  0.5161  0.0834
  558SOL    HW1 1673   2.844   2.292   0.256 -0.1184 -0.0291 -2.2387
  558SOL    HW2 1674   2.973   2.358   0.152 -0.4306  0.8692  0.2110
  559SOL     OW 1675   0.417   2.285   1.297  0.4988 -0.1639 -0.2250
  559SOL    HW1 1676   0.327   2.281   1.247  0.8241  0.1790 -0.4212
  559SOL    HW2 1677   0.478   2.200   1.279  0.7691 -0.2771 -0.4574
  560SOL     OW 1678   2.035   1.041   3.014 -0.1736 -0.0392 -0.2088
  560SOL    HW1 1679   2.064   1.113   2.943 -0.1921  0.6380 -0.5954
  560SOL    HW2 1680   1.980   1.092   3.091  1.6898 -0.2915  2.4456
  561SOL     OW 1681   3.032   1.970   0.111 -0.0171 -0.7287  0.5057
  561SOL    HW1 1682   2.992   1.871   0.108 -0.1128 -1.2069 -1.4546
  561SOL    HW2 1683   2.978   2.036   0.054  1.6653  1.8420  0.4911
  562SOL     OW 1684   0.826   2.178   2.461 -0.0779  0.2460 -0.2698
  562SOL    HW1 1685   0.727   2.135   2.461 -1.1378  0.1993  2.9786
  562SOL    HW2 1686   0.855   2.235   2.547 -2.8152 -0.2102 -2.4601
  563SOL     OW 1687   0.690   2.559   2.537  0.9134 -0.6047  0.0739
  563SOL    HW1 1688   0.668   2.468   2.497  0.1850 -0.7168 -3.5190
  563SOL    HW2 1689   0.738   2.554   2.627  1.1989  1.3031 -0.3516
  564SOL     OW 1690   2.755   1.296   2.892 -0.0522 -0.0240 -0.4268
  564SOL    HW1 1691   2.667   1.297   2.943  1.0719 -0.3609 -0.7795
  564SOL    HW2 1692   2.794   1.391   2.880  0.1992 -1.7353 -0.2558
  565SOL     OW 1693   2.539   2.023   2.593 -0.3265 -0.0835  0.4650
  565SOL    HW1 1694   2.484   2.109   2.574 -0.2398  0.3380 -0.6955
  565SOL    HW2 1695   2.620   2.032   2.652  0.0574 -1.2211  0.5459
  566SOL     OW 1696   2.009   2.821   1.439  0.1217  0.0795 -0.2900
  566SOL    HW1 1697   2.009   2.718   1.462 -0.9434 -3.0463  1.5999
  566SOL    HW2 1698   2.037   2.841   1.342  0.5467 -0.6921 -0.2788
  567SOL     OW 1699   2.419   0.126   2.217  0.5654  0.2257 -0.1765
  567SOL    HW1 1700   2.477   0.120   2.131  1.4289 -0.6153 -1.0075
  567SOL    HW2 1701   2.336   0.188   2.205  0.4256  3.2392  2.5041
  568SOL     OW 1702   1.445   1.806   0.472 -0.4597 -0.1426 -0.2961
  568SOL    HW1 1703   1.436   1.874   0.395 -0.4342 -1.0978  2.6156
  568SOL    HW2 1704   1.471   1.857   0.558 -0.8775  1.0419  4.1258
  569SOL     OW 1705   0.288   0.710   0.775 -0.1692  0.4715  0.5671
  569SOL    HW1 1706   0.361   0.664   0.711 -1.2785  3.6864 -0.2545
  569SOL    HW2 1707   0.192   0.656   0.758  0.9731 -2.0311 -2.7754
  570SOL     OW 1708   0.606   0.825   2.841  0.5147 -0.6784 -0.3417
  570SOL    HW1 1709   0.682   0.786   2.782  0.4207 -0.0892  0.9205
  570SOL    HW2 1710   0.620   0.927   2.871 -0.3215  1.3414  0.6361
  571SOL     OW 1711   0.852   3.057   1.142  0.2270 -0.6305 -0.2573
  571SOL    HW1 1712   0.856   3.139   1.079  0.8241 -0.7967  1.9025
  571SOL    HW2 1713   0.945   3.020   1.170  1.8934 -1.3749 -3.1648
  572SOL     OW 1714   1.484   2.571   1.191  0.2158  0.1386  0.2095
  572SOL    HW1 1715   1.413   2.504   1.218  4.5334  0.5384 -1.3093
  572SOL    HW2 1716   1.446   2.650   1.131  3.7985 -1.6075 -0.5059
  573SOL     OW 1717   2.942   0.461   2.085 -0.0819 -0.3791  0.2904
  573SOL    HW1 1718   2.884   0.377   2.115  1.1778 -2.7971  2.1669
  573SOL    HW2 1719   2.880   0.536   2.049  1.0516 -2.7906  1.0352
  574SOL     OW 1720   0.223   1.788   1.028 -0.0364  0.7641  0.4129
  574SOL    HW1 1721   0.216   1.885   0.995 -1.0981 -1.4163 -0.3163
  574SOL    HW2 1722   0.143   1.759   1.086  2.0475  0.7656 -1.7204
  575SOL     OW 1723   0.912   2.212   1.023 -0.3281 -0.5287  0.1376
  575SOL    HW1 1724   0.866   2.203   1.117  1.0607 -2.6663  1.5680
  575SOL    HW2 1725   1.012   2.186   1.024 -1.9485 -0.9052 -2.2225
  576SOL     OW 1726   2.890   2.912   1.725 -0.1684 -0.5783 -0.4841
  576SOL    HW1 1727   2.838   2.842   1.669 -0.0069 -2.5694  1.5984
  576SOL    HW2 1728   2.893   3.009   1.681  1.1156  0.8439 -4.6730
  577SOL     OW 1729   2.525   1.234   3.078  0.3123 -0.3110 -0.2233
  577SOL    HW1 1730   2.506   1.138   3.043  1.1121  2.1374  1.2215
  577SOL    HW2 1731   2.591   1.243   3.158  0.7046  4.5782  0.4284
  578SOL     OW 1732   1.328   2.791   2.581  0.0716 -0.0974  0.5977
  578SOL    HW1 1733   1.259   2.755   2.513  1.8141 -1.6564  0.4087
  578SOL    HW2 1734   1.348   2.891   2.567 -0.8573  3.3812  0.1860
  579SOL     OW 1735   0.148   2.598   0.129  0.2302 -0.2178  0.2837
  579SOL    HW1 1736   0.082   2.598   0.209  0.4889 -0.1284 -0.3957
  579SOL    HW2 1737   0.241   2.549   0.152  2.3197 -0.6449  2.0438
  580SOL     OW 1738   0.947   2.683   0.374  0.1479  0.0191 -0.3506
  580SOL    HW1 1739   1.038   2.714   0.338 -2.2802 -0.0594  0.7065
  580SOL    HW2 1740   0.927   2.587   0.337  1.4058 -0.5098 -2.1873
  581SOL     OW 1741   1.287   2.552   1.479  0.5870  0.4664  0.0127
  581SOL    HW1 1742   1.307   2.456   1.443 -0.2790  0.8181  0.5649
  581SOL    HW2 1743   1.273   2.632   1.410  1.1676  2.1378 -2.1220
  582SOL     OW 1744   1.518   0.074   1.876 -0.0762  0.2282  0.2654
  582SOL    HW1 1745   1.555   0.150   1.932  0.6349 -1.5728 -0.0398
  582SOL    HW2 1746   1.580   0.046   1.803 -1.2423 -2.5242 -2.6328
  583SOL     OW 1747   2.380   2.991   0.585  0.1296  0.5137  0.3330
  583SOL    HW1 1748   2.449   2.939   0.531  0.5532 -0.0606  0.8799
  583SOL    HW2 1749   2.332   2.935   0.659 -0.9178 -0.6015 -1.6675
  584SOL     OW 1750   1.531   0.978   2.085  0.3725  0.4843  0.3732
  584SOL    HW1 1751   1.596   1.037   2.028 -1.2358 -2.1942 -0.9074
  584SOL    HW2 1752   1.577   0.935   2.166 -0.3338  0.7103 -2.1911
  585SOL     OW 1753   2.095   2.692   2.882  0.0891 -0.5269  0.3661
  585SOL    HW1 1754   2.148   2.612   2.858 -2.9898  1.2170  2.1909
  585SOL    HW2 1755   1.993   2.674   2.886  0.4407  0.4529  0.3477
  586SOL     OW 1756   2.777   0.237   1.559  0.1361 -0.5748 -0.1151
  586SOL    HW1 1757   2.767   0.329   1.610  1.6635  0.9766 -1.4004
  586SOL    HW2 1758   2.690   0.181   1.568 -1.7740 -2.0347 -3.2416
  587SOL     OW 1759   2.021   1.618   2.748 -0.3463 -0.2811 -0.0643
  587SOL    HW1 1760   2.082   1.584   2.669 -0.0666  1.7242 -4.2535
  587SOL    HW2 1761   2.065   1.629   2.848  1.4565  0.2287  2.5723
  588SOL     OW 1762   0.496   2.697   2.232 -0.8297  0.0322 -0.3196
  588SOL    HW1 1763   0.447   2.734   2.150 -1.9590 -1.3706  0.8437
  588SOL    HW2 1764   0.431   2.645   2.298 -0.8312  1.7412  0.3536
  589SOL     OW 1765   2.157   1.467   2.533 -0.7688 -0.0253  0.3543
  589SOL    HW1 1766   2.088   1.409   2.481 -2.4380  0.1700  1.2257
  589SOL    HW2 1767   2.254   1.427   2.547  1.3586 -0.7796 -0.4409
  590SOL     OW 1768   2.361   1.760   1.998 -0.0556 -0.5726 -0.4552
  590SOL    HW1 1769   2.435   1.687   2.006 -1.2140  1.3470  0.5328
  590SOL    HW2 1770   2.366   1.826   2.075 -0.3513  1.7925 -1.6597
  591SOL     OW 1771   1.317   2.467   0.324 -0.0779  0.4720 -0.7271
  591SOL    HW1 1772   1.398   2.421   0.284  0.0238 -0.2464  1.0067
  591SOL    HW2 1773   1.295   2.429   0.418  1.9439  0.3089 -0.6835
  592SOL     OW 1774   1.672   2.319   0.785 -0.1472 -0.0832  0.0689
  592SOL    HW1 1775   1.635   2.369   0.701 -0.6296  0.8903  0.3153
  592SOL    HW2 1776   1.774   2.323   0.789 -4.7523 -1.1350  2.5306
  593SOL     OW 1777   0.525   0.240   3.002 -0.2742 -0.1015  0.1991
  593SOL    HW1 1778   0.614   0.195   3.026  1.0567 -0.0976 -0.0724
  593SOL    HW2 1779   0.531   0.332   3.050 -0.1775 -0.2283 -0.9148
  594SOL     OW 1780   0.916   1.882   2.760 -0.3248  0.3580 -0.0981
  594SOL    HW1 1781   1.015   1.896   2.741 -0.3974  0.8754 -0.9426
  594SOL    HW2 1782   0.885   1.955   2.827  3.0887 -1.0537 -0.0510
  595SOL     OW 1783   1.564   3.080   1.018  0.2788 -0.4923 -0.4624
  595SOL    HW1 1784   1.660   3.054   1.040 -1.1479  1.9320 -1.9369
  595SOL    HW2 1785   1.536   3.041   0.925 -0.1587  2.8842 -1.9307
  596SOL     OW 1786   3.079   1.462   2.213 -0.2181 -0.2147 -0.3244
  596SOL    HW1 1787   2.995   1.503   2.265 -0.3902 -2.1015 -2.1123
  596SOL    HW2 1788   3.157   1.411   2.273  0.8691 -0.1507  1.3987
  597SOL     OW 1789   2.062   2.586   1.603  0.1547  0.5478  0.3856
  597SOL    HW1 1790   2.110   2.498   1.571 -0.7329 -1.6449 -2.2833
  597SOL    HW2 1791   2.133   2.635   1.662  3.3731  3.7937  0.6910
  598SOL     OW 1792   2.597   2.880   1.214 -0.0737  0.3981 -0.3002
  598SOL    HW1 1793   2.644   2.926   1.295 -0.6761 -2.8384  0.5229
  598SOL    HW2 1794   2.663   2.872   1.133 -1.5010  0.2406  0.7645
  599SOL     OW 1795   2.926   0.330   2.402 -0.2762 -0.2425  0.0235
  599SOL    HW1 1796   3.007   0.328   2.337 -0.9811 -2.0809 -0.8656
  599SOL    HW2 1797   2.840   0.377   2.371 -0.1529  0.4209 -0.6274
  600SOL     OW 1798   2.821   1.063   2.757  0.3799 -0.2593  0.4061
  600SOL    HW1 1799   2.792   0.995   2.832 -1.8810 -2.0356  1.9960
  600SOL    HW2 1800   2.776   1.157   2.776  0.0764 -1.2525 -0.5609
  601SOL     OW 1801   2.936   1.289   2.040 -0.2501  0.2730  0.4404
  601SOL    HW1 1802   2.872   1.325   1.973  1.1102  0.7945  1.2685
  601SOL    HW2 1803   2.977   1.360   2.102 -0.9747 -1.1816 -1.3846
  602SOL     OW 1804   1.541   1.681   2.337  0.0432 -0.0311  0.8865
  602SOL    HW1 1805   1.470   1.603   2.311  1.3407 -0.8570  2.2165
  602SOL    HW2 1806   1.624   1.637   2.391  0.6354 -1.4320  0.5790
  603SOL     OW 1807   0.716   1.249   2.614  0.2729  0.1307 -0.4359
  603SOL    HW1 1808   0.621   1.211   2.580 -2.5323 -2.4332 -0.9510
  603SOL    HW2 1809   0.781   1.174   2.644 -0.0012  1.2781  1.0274
  604SOL     OW 1810   2.385   1.010   0.159 -0.5838 -0.4260 -0.4055
  604SOL    HW1 1811   2.467   1.052   0.118 -1.1197 -0.1703  4.2937
  604SOL    HW2 1812   2.364   0.913   0.120  0.4251 -1.2672  1.5476
  605SOL     OW 1813   2.585   1.109   1.991 -0.2664  0.2370 -0.2060
  605SOL    HW1 1814   2.592   1.027   1.930  0.5410  1.7407  0.0460
  605SOL    HW2 1815   2.650   1.098   2.074  1.1583 -1.1156  1.1880
  606SOL     OW 1816   1.509   2.511   2.583  0.2270 -0.4283  0.1678
  606SOL    HW1 1817   1.420   2.567   2.592 -0.1198  1.2883  0.0561
  606SOL    HW2 1818   1.496   2.411   2.572  1.5606 -1.2114  1.5843
  607SOL     OW 1819   1.330   1.540   0.415  0.1668 -0.1462 -0.4888
  607SOL    HW1 1820   1.277   1.509   0.496  0.5053 -2.2221 -1.1899
  607SOL    HW2 1821   1.370   1.633   0.429  2.1442  1.4737 -0.7689
  608SOL     OW 1822   1.392   2.889   0.413  0.2180  0.1674  0.5684
  608SOL    HW1 1823   1.443   2.937   0.337 -0.0374  0.9142 -1.5371
  608SOL    HW2 1824   1.323   2.946   0.462 -0.8517 -0.4343 -0.8997
  609SOL     OW 1825   1.333   1.325   0.229 -0.5488  0.0616  0.6791
  609SOL    HW1 1826   1.353   1.411   0.287  1.2967  1.5137  0.8244
  609SOL    HW2 1827   1.234   1.320   0.203 -0.9188 -1.6561  0.0225
  610SOL     OW 1828   3.014   1.075   2.280 -0.3450 -0.3944 -0.2594
  610SOL    HW1 1829   2.991   0.975   2.284 -1.0498 -0.0334 -0.5929
  610SOL    HW2 1830   2.977   1.129   2.199 -1.4925  1.3542  0.7097
  611SOL     OW 1831   2.525   0.308   1.239 -0.2385  0.3650 -0.0019
  611SOL    HW1 1832   2.508   0.204   1.233 -0.3397  1.0498  2.9203
  611SOL    HW2 1833   2.628   0.323   1.240  1.4322  0.2467 -0.1431
  612SOL     OW 1834   0.767   2.163   1.248  0.1631 -0.4681  0.1116
  612SOL    HW1 1835   0.715   2.073   1.229 -3.5910 -2.7272  1.2181
  612SOL    HW2 1836   0.713   2.244   1.213  2.5724 -0.6014 -0.4075
  613SOL     OW 1837   0.964   1.406   2.355 -1.0817 -0.5946  0.0695
  613SOL    HW1 1838   0.979   1.475   2.278  1.2600 -0.7348  1.7269
  613SOL    HW2 1839   0.892   1.331   2.325 -3.1780 -1.5688  3.1671
  614SOL     OW 1840   1.658   1.541   1.757  0.1940  0.3301  0.3006
  614SOL    HW1 1841   1.601   1.626   1.737 -0.1698 -0.0134  1.7290
  614SOL    HW2 1842   1.735   1.562   1.827  0.7282  1.1683  0.6711
  615SOL     OW 1843   0.778   1.264   1.728 -0.3358 -0.5736 -0.0179
  615SOL    HW1 1844   0.699   1.265   1.658 -1.1941  1.8469 -0.8273
  615SOL    HW2 1845   0.857   1.332   1.701  3.7573  3.6109  0.1893
  616SOL     OW 1846   1.026   1.581   2.156 -0.4499  0.3257  0.1521
  616SOL    HW1 1847   0.960   1.575   2.072 -1.7774  2.3478 -3.0538
  616SOL    HW2 1848   1.064   1.677   2.171 -1.2221  0.4777  0.3527
  617SOL     OW 1849   2.962   1.528   1.592  0.1739 -0.4120 -0.1927
  617SOL    HW1 1850   2.973   1.432   1.634  0.9001 -1.0597  3.7132
  617SOL    HW2 1851   2.996   1.539   1.493 -0.7952 -0.9853 -1.8220
  618SOL     OW 1852   1.878   2.008   1.383  0.2152  0.3663  0.3117
  618SOL    HW1 1853   1.890   2.077   1.305 -1.4202 -0.4162  1.5067
  618SOL    HW2 1854   1.851   1.915   1.341 -2.3677 -0.1661 -1.3149
  619SOL     OW 1855   1.735   0.448   2.384 -0.1550 -0.3087  0.0067
  619SOL    HW1 1856   1.656   0.507   2.349 -1.2954 -0.3759 -0.7439
  619SOL    HW2 1857   1.709   0.353   2.368 -1.5045  0.1649 -0.7357
  620SOL     OW 1858   2.255   2.815   0.755  0.0695 -0.1667 -0.2474
  620SOL    HW1 1859   2.154   2.810   0.757  1.4880  0.5184 -1.5441
  620SOL    HW2 1860   2.303   2.730   0.796  0.3341 -0.5974  1.7889
  621SOL     OW 1861   2.182   1.937   1.346  0.1444 -0.1030  0.1288
  621SOL    HW1 1862   2.174   1.925   1.451 -0.0862  0.4104  1.1965
  621SOL    HW2 1863   2.130   1.862   1.298 -0.5540 -0.0336  1.1349
  622SOL     OW 1864   2.274   0.930   1.867  0.7362  0.6110 -0.6431
  622SOL    HW1 1865   2.373   0.935   1.852 -0.8798  0.1003 -1.2282
  622SOL    HW2 1866   2.253   0.855   1.939  3.8090 -0.0600  4.0147
  623SOL     OW 1867   1.254   0.836   2.518 -0.0599 -0.1899  0.5399
  623SOL    HW1 1868   1.187   0.762   2.546  0.1136 -2.7793  1.8542
  623SOL    HW2 1869   1.238   0.876   2.419 -1.3084 -0.4289 -4.0387
  624SOL     OW 1870   0.499   0.653   3.012  0.0128 -0.5177  0.1823
  624SOL    HW1 1871   0.548   0.697   2.931 -1.4613 -0.2490  0.6240
  624SOL    HW2 1872   0.516   0.711   3.096 -0.9126  0.2193  0.1567
  625SOL     OW 1873   2.721   1.707   0.999 -0.1988  0.0933  0.0206
  625SOL    HW1 1874   2.637   1.759   1.033  1.4784 -0.7702  0.7669
  625SOL    HW2 1875   2.806   1.766   0.998 -0.7507 -2.8611 -0.6687
  626SOL     OW 1876   0.628   2.690   1.774  0.3853  0.1924  0.3122
  626SOL    HW1 1877   0.693   2.745   1.831 -3.0976 -1.2813  0.0036
  626SOL    HW2 1878   0.546   2.661   1.827  1.4880  0.5698 -0.5344
  627SOL     OW 1879   0.644   0.818   1.690  0.4632  0.1112 -0.4566
  627SOL    HW1 1880   0.585   0.758   1.623 -2.2756 -1.3765  0.9007
  627SOL    HW2 1881   0.696   0.894   1.639  1.3974 -2.3790 -0.9306
  628SOL     OW 1882   2.356   0.100   0.759 -0.1420  0.2208 -0.1625
  628SOL    HW1 1883   2.374   0.021   0.694 -0.3906 -0.4854  1.0661
  628SOL    HW2 1884   2.253   0.132   0.746 -1.1286  0.3659  0.7684
  629SOL     OW 1885   1.892   0.933   1.979  0.4637  0.1328  0.2072
  629SOL    HW1 1886   1.908   1.031   1.941  0.8724 -0.1492 -1.3753
  629SOL    HW2 1887   1.915   0.911   2.078 -1.1532 -0.7748  1.0908
  630SOL     OW 1888   2.926   2.206   0.780 -0.1273 -0.2700 -0.0082
  630SOL    HW1 1889   2.880   2.297   0.805 -1.8698  1.5414 -1.2320
  630SOL    HW2 1890   2.858   2.128   0.784 -0.3320  1.4112  0.9322
  631SOL     OW 1891   3.038   0.112   2.055  0.1834 -0.1977  0.4551
  631SOL    HW1 1892   3.113   0.150   2.119  0.0341  1.9305  1.8493
  631SOL    HW2 1893   3.076   0.085   1.960 -0.0402  2.6690  0.6368
  632SOL     OW 1894   2.453   2.582   0.619 -1.6258  0.0297  0.7255
  632SOL    HW1 1895   2.531   2.652   0.641  1.7722 -0.8859 -2.3883
  632SOL    HW2 1896   2.391   2.610   0.544  3.9590 -1.2689 -0.3598
  633SOL     OW 1897   1.479   1.258   2.652  0.7785 -0.3178 -0.1300
  633SOL    HW1 1898   1.437   1.329   2.717 -1.1718  1.9458  0.4415
  633SOL    HW2 1899   1.410   1.234   2.577 -2.1742 -1.7785  2.2278
  634SOL     OW 1900   0.714   2.115   0.852 -0.0502 -0.7656 -0.2087
  634SOL    HW1 1901   0.623   2.130   0.901 -1.3970 -1.0453 -1.6353
  634SOL    HW2 1902   0.795   2.144   0.908  1.0026  1.4356 -2.3356
  635SOL     OW 1903   3.056   2.397   0.015  0.6591 -0.9011  0.3812
  635SOL    HW1 1904   2.992   2.447  -0.051 -0.1704 -0.7769  0.4567
  635SOL    HW2 1905   3.139   2.455   0.037 -0.2351  1.3986  0.6871
  636SOL     OW 1906   2.373   2.719   2.065 -0.0336 -0.3729 -0.0284
  636SOL    HW1 1907   2.375   2.809   2.119 -0.2072 -0.3750  1.5887
  636SOL    HW2 1908   2.304   2.653   2.113 -1.7796  1.8562  0.5355
  637SOL     OW 1909   2.679   0.580   1.961  0.3393 -0.2440  0.1501
  637SOL    HW1 1910   2.608   0.587   1.881 -0.4928 -2.0898  1.7037
  637SOL    HW2 1911   2.726   0.670   1.985  0.9464 -1.3650  1.4658
  638SOL     OW 1912   2.472   1.869   1.338 -0.4569 -0.3643 -0.2260
  638SOL    HW1 1913   2.372   1.892   1.351 -0.7480 -2.1132 -3.0817
  638SOL    HW2 1914   2.514   1.800   1.405  1.7945  1.0259 -0.1977
  639SOL     OW 1915   1.258   2.211   1.608 -0.2267 -0.1520  0.8351
  639SOL    HW1 1916   1.345   2.258   1.639 -0.9874 -2.4651  2.9756
  639SOL    HW2 1917   1.190   2.207   1.687  0.1593  0.8228 -2.5758
  640SOL     OW 1918   0.180   1.242   1.556 -0.2672  0.2988 -0.0514
  640SOL    HW1 1919   0.168   1.259   1.657  0.2805  2.0742 -0.5204
  640SOL    HW2 1920   0.258   1.176   1.529  2.0175 -0.0480  0.7788
  641SOL     OW 1921   1.980   0.254   1.513  0.3019 -0.3912 -0.0128
  641SOL    HW1 1922   1.916   0.294   1.587 -1.1885  1.7599  0.2214
  641SOL    HW2 1923   2.077   0.254   1.544 -3.0866 -0.5898  2.3689
  642SOL     OW 1924   2.039   3.076   0.342  0.6315  0.1915  0.3001
  642SOL    HW1 1925   2.136   3.112   0.356 -2.2819  2.6131 -1.0848
  642SOL    HW2 1926   1.980   3.082   0.425  2.2353  2.3858 -1.6173
  643SOL     OW 1927   2.915   1.938   2.088  0.1786 -0.0737  0.8929
  643SOL    HW1 1928   2.857   1.853   2.073 -0.9280 -1.2614  0.3678
  643SOL    HW2 1929   2.882   2.018   2.027  1.2392  0.6859 -0.8749
  644SOL     OW 1930   2.291   2.400   1.266  0.1696 -0.2483 -0.1577
  644SOL    HW1 1931   2.340   2.340   1.196 -0.3251  2.4324 -1.1972
  644SOL    HW2 1932   2.313   2.383   1.365 -0.0938  0.9568 -2.7409
  645SOL     OW 1933   0.691   0.832   1.266  0.1211  0.5561 -0.1665
  645SOL    HW1 1934   0.605   0.780   1.294 -0.4610 -0.4486  0.8324
  645SOL    HW2 1935   0.708   0.853   1.167  0.5535  0.1378  0.8766
  646SOL     OW 1936   1.519   1.770   2.025  0.5392  0.6777  0.0950
  646SOL    HW1 1937   1.593   1.775   1.954 -0.7156 -1.2600 -0.0534
  646SOL    HW2 1938   1.554   1.794   2.120 -2.2931  0.5660 -0.2164
  647SOL     OW 1939   0.768   1.098   0.614 -0.0050  0.3241  0.1086
  647SOL    HW1 1940   0.836   1.130   0.683 -1.0826  1.1413  0.2981
  647SOL    HW2 1941   0.725   1.008   0.641 -0.2743 -0.7186  0.5319
  648SOL     OW 1942   0.182   0.237   0.379 -0.0483 -0.2734  0.2901
  648SOL    HW1 1943   0.145   0.139   0.375  1.0718 -3.6145  0.0283
  648SOL    HW2 1944   0.148   0.303   0.301 -1.6650  2.0283 -0.1590
  649SOL     OW 1945   3.002   0.276   0.920  0.0564 -0.0287 -0.4098
  649SOL    HW1 1946   3.083   0.315   0.874  0.6451  0.9559 -0.6831
  649SOL    HW2 1947   2.998   0.302   1.020 -1.1264  1.1627 -0.1825
  650SOL     OW 1948   2.804   0.714   1.463 -0.1423  0.3580  0.7692
  650SOL    HW1 1949   2.703   0.692   1.446  1.1178  1.3254 -1.6664
  650SOL    HW2 1950   2.829   0.807   1.420 -2.8056 -2.0070  0.0770
  651SOL     OW 1951   0.887   1.537   1.681  0.3679 -0.0558 -0.5377
  651SOL    HW1 1952   0.873   1.545   1.784 -0.4431  1.6988 -1.0974
  651SOL    HW2 1953   0.975   1.580   1.647 -0.8174 -1.3361 -0.7247
  652SOL     OW 1954   2.331   2.536   2.503 -0.0219 -0.2976 -0.0041
  652SOL    HW1 1955   2.236   2.526   2.543 -1.5680  0.1543 -0.1194
  652SOL    HW2 1956   2.339   2.618   2.439  2.5707  0.6459 -1.9510
  653SOL     OW 1957   2.702   1.263   0.180  0.0029  0.5747 -0.0031
  653SOL    HW1 1958   2.746   1.336   0.235 -2.4471 -1.5950  0.2565
  653SOL    HW2 1959   2.737   1.168   0.206 -1.5357 -0.0594 -0.9019
  654SOL     OW 1960   1.210   2.099   1.242  0.5760 -0.2032 -0.4751
  654SOL    HW1 1961   1.208   2.009   1.291  4.0991  3.4934 -0.1404
  654SOL    HW2 1962   1.245   2.090   1.146  0.2775 -0.7056 -0.4785
  655SOL     OW 1963   0.195   0.992   1.925  0.2682 -0.0479  0.3666
  655SOL    HW1 1964   0.271   0.937   1.882 -0.1176  1.1273  0.8757
  655SOL    HW2 1965   0.199   1.086   1.883 -0.9244 -1.5808 -0.9511
  656SOL     OW 1966   2.584   2.528   2.633  0.3864 -0.0067 -0.1631
  656SOL    HW1 1967   2.671   2.529   2.575  1.8732 -0.4150 -0.4360
  656SOL    HW2 1968   2.499   2.512   2.577  0.1948 -1.5535  1.8650
  657SOL     OW 1969   3.014   1.057   1.937 -0.0847  0.0308 -0.4935
  657SOL    HW1 1970   2.988   1.155   1.963  1.4426 -2.1063 -3.1915
  657SOL    HW2 1971   3.114   1.034   1.957  1.3528  0.3975 -2.8863
  658SOL     OW 1972   1.657   0.165   2.344 -0.2758  0.4266  0.5784
  658SOL    HW1 1973   1.717   0.101   2.404  0.9177 -0.7782  2.3409
  658SOL    HW2 1974   1.647   0.125   2.250 -1.3027  0.2286 -1.9827
  659SOL     OW 1975   1.443   0.681   2.814  0.2597 -0.5425  0.1005
  659SOL    HW1 1976   1.474   0.751   2.740  0.8878  2.1028 -3.4550
  659SOL    HW2 1977   1.343   0.696   2.843  0.4832  0.9188  0.0861
  660SOL     OW 1978   1.429   0.301   1.411 -0.0932  0.1291 -0.0199
  660SOL    HW1 1979   1.458   0.366   1.489  1.9247 -0.8589  1.3541
  660SOL    HW2 1980   1.496   0.224   1.393 -0.4215  3.3324  0.5711
  661SOL     OW 1981   2.392   1.266   0.665  0.1038  0.0054 -0.6692
  661SOL    HW1 1982   2.444   1.248   0.578 -1.4029 -2.2961 -0.9967
  661SOL    HW2 1983   2.312   1.325   0.645  3.1094 -2.1484  2.4272
  662SOL     OW 1984   1.466   0.379   1.686  0.0692 -0.6055  0.5457
  662SOL    HW1 1985   1.412   0.331   1.757 -0.7876  0.4710 -0.8560
  662SOL    HW2 1986   1.441   0.482   1.686 -2.9899  1.8486 -0.7804
  663SOL     OW 1987   0.823   1.610   1.940  0.7098  0.1365  0.4320
  663SOL    HW1 1988   0.814   1.703   1.979 -0.9062 -4.5856 -1.1627
  663SOL    HW2 1989   0.745   1.542   1.963  3.5019 -2.8426  0.3853
  664SOL     OW 1990   1.613   2.109   1.426 -0.2208  0.6177 -0.0377
  664SOL    HW1 1991   1.527   2.051   1.432  0.5913 -2.5759 -0.8247
  664SOL    HW2 1992   1.703   2.054   1.444  0.6878  1.3044 -1.1367
  665SOL     OW 1993   2.255   0.681   1.998  0.3102 -0.0565 -0.1472
  665SOL    HW1 1994   2.240   0.579   1.997  1.4124 -0.2837 -0.2479
  665SOL    HW2 1995   2.331   0.702   2.070 -2.4212 -1.6233  0.9278
  666SOL     OW 1996   0.463   2.224   0.358 -0.1538 -0.3762 -0.3055
  666SOL    HW1 1997   0.527   2.294   0.401  1.0191 -0.1158  0.9260
  666SOL    HW2 1998   0.370   2.230   0.404  0.8902  2.5455 -1.4614
  667SOL     OW 1999   2.026   0.217   1.095 -0.3210  0.3840 -0.1669
  667SOL    HW1 2000   2.007   0.316   1.070 -2.3121  1.1733 -0.8170
  667SOL    HW2 2001   1.994   0.190   1.192 -2.1575 -2.3604  1.9673
  668SOL     OW 2002   1.985   0.499   1.064  0.4488 -0.0999 -0.0188
  668SOL    HW1 2003   2.063   0.509   1.000 -3.2692  1.8331  1.2428
  668SOL    HW2 2004   2.020   0.507   1.161  0.0153 -0.2115  2.2376
  669SOL     OW 2005   3.047   2.143   1.025  0.4487  0.2262  0.2530
  669SOL    HW1 2006   3.027   2.185   0.929  1.6190  2.7729 -0.8737
  669SOL    HW2 2007   3.008   2.201   1.103 -3.4571 -2.3671 -0.6966
  670SOL     OW 2008   2.930   2.346   2.138 -0.4064 -0.9332 -0.4914
  670SOL    HW1 2009   2.833   2.324   2.176 -1.7803 -1.5248  1.7474
  670SOL    HW2 2010   2.920   2.440   2.089 -0.8865  0.2959 -2.7017
  671SOL     OW 2011   1.760   1.662   1.513 -0.2546  0.6989 -0.1057
  671SOL    HW1 2012   1.719   1.644   1.416 -0.7460 -0.3175 -0.1341
  671SOL    HW2 2013   1.782   1.580   1.575  2.9354  0.3614 -2.0587
  672SOL     OW 2014   0.455   0.683   2.598 -0.6736 -0.5591  0.2427
  672SOL    HW1 2015   0.383   0.732   2.540  0.7320 -1.6769 -1.3290
  672SOL    HW2 2016   0.429   0.672   2.691 -1.0525  0.0346 -1.2816
  673SOL     OW 2017   0.079   1.394   1.067  0.3409 -0.2633  0.2379
  673SOL    HW1 2018   0.064   1.454   1.150  0.7931 -1.4969  1.9931
  673SOL    HW2 2019   0.180   1.379   1.039 -1.8376 -0.2863  1.1888
  674SOL     OW 2020   1.571   3.011   0.231  0.1457 -0.5136  0.4881
  674SOL    HW1 2021   1.613   3.086   0.170  3.6544  1.4563  0.3444
  674SOL    HW2 2022   1.606   2.919   0.197  1.4477  0.3348 -0.6665
  675SOL     OW 2023   1.640   0.853   2.330 -0.0680 -0.0519  0.4888
  675SOL    HW1 2024   1.738   0.874   2.302  2.8386  0.3838 -1.3044
  675SOL    HW2 2025   1.604   0.763   2.287  0.0826 -0.9371  1.4815
  676SOL     OW 2026   2.556   1.558   2.002 -0.4192  0.1299 -0.2706
  676SOL    HW1 2027   2.518   1.509   1.920  4.1144  1.2117  1.8242
  676SOL    HW2 2028   2.617   1.497   2.065  1.5129 -0.1109  0.9120
  677SOL     OW 2029   1.851   0.725   0.882  0.2385  0.3645 -0.0500
  677SOL    HW1 2030   1.753   0.703   0.899 -0.2504  0.8649 -1.0839
  677SOL    HW2 2031   1.915   0.710   0.962 -0.0040 -2.2913  0.7136
  678SOL     OW 2032   0.071   0.835   1.647 -0.0359  0.2741  0.0099
  678SOL    HW1 2033   0.170   0.837   1.671  0.7004 -1.2335 -2.1480
  678SOL    HW2 2034   0.008   0.791   1.716 -0.0624  0.9700  0.5184
  679SOL     OW 2035   2.555   1.081   1.216 -0.1932 -0.8930 -0.1737
  679SOL    HW1 2036   2.456   1.105   1.210 -0.7676 -0.4878  0.7546
  679SOL    HW2 2037   2.575   0.977   1.211 -1.1890  0.9747 -1.8237
  680SOL     OW 2038   2.816   0.547   1.694  0.2229  0.0181  0.0055
  680SOL    HW1 2039   2.796   0.591   1.600  0.1151  1.4118 -0.4464
  680SOL    HW2 2040   2.907   0.577   1.729 -0.1625 -1.3901  0.7630
  681SOL     OW 2041   2.998   0.019   1.557 -0.1497 -0.1494 -0.2194
  681SOL    HW1 2042   2.984   0.015   1.455  3.7534  1.6898 -1.9680
  681SOL    HW2 2043   2.937   0.098   1.594 -4.3087 -0.2820  1.4248
  682SOL     OW 2044   0.619   0.079   1.285  0.1815  0.1402 -0.1624
  682SOL    HW1 2045   0.578   0.008   1.348  0.4374  0.4629  0.1073
  682SOL    HW2 2046   0.694   0.038   1.226 -1.9595 -0.8147  1.7975
  683SOL     OW 2047   1.358   0.273   2.158  0.5161 -0.1639 -0.5010
  683SOL    HW1 2048   1.329   0.305   2.251  1.0661 -4.0327 -3.2798
  683SOL    HW2 2049   1.456   0.281   2.135 -1.2014 -0.4222 -0.1484
  684SOL     OW 2050   1.411   2.161   0.581  0.6581  0.4208 -0.1617
  684SOL    HW1 2051   1.477   2.085   0.609  0.5198  1.9108  1.4493
  684SOL    HW2 2052   1.316   2.127   0.550  0.4294 -2.4902  0.1252
  685SOL     OW 2053   2.249   2.073   1.980  0.2138 -0.1267  0.1440
  685SOL    HW1 2054   2.259   1.970   1.972  1.0650 -0.4571  0.0133
  685SOL    HW2 2055   2.291   2.118   2.063  0.3752  0.3369  0.8477
  686SOL     OW 2056   1.563   1.879   2.934 -0.2402  0.2786  0.7051
  686SOL    HW1 2057   1.589   1.813   3.013  0.7704 -0.4638  0.9853
  686SOL    HW2 2058   1.478   1.846   2.885  1.9178 -1.7735  0.6620
  687SOL     OW 2059   1.382   2.420   1.962 -0.3704 -0.8498 -0.1039
  687SOL    HW1 2060   1.405   2.323   1.963  0.9790  1.5960 -2.6265
  687SOL    HW2 2061   1.333   2.453   2.048 -1.7321 -0.8921  1.3259
  688SOL     OW 2062   2.063   1.484   1.715  0.4272 -0.2889 -0.0079
  688SOL    HW1 2063   2.146   1.539   1.695  0.0105  0.2790 -0.4607
  688SOL    HW2 2064   2.017   1.452   1.626  0.5580  2.2135 -0.7980
  689SOL     OW 2065   2.364   1.124   2.788  0.3473  0.3258 -0.5104
  689SOL    HW1 2066   2.277   1.064   2.787 -0.9701 -1.7246 -1.1636
  689SOL    HW2 2067   2.432   1.086   2.860  0.3327 -1.2466  2.1841
  690SOL     OW 2068   2.210   2.741   0.046  0.0348 -0.0571  0.6655
  690SOL    HW1 2069   2.127   2.751  -0.019  1.4087  1.8539  0.5500
  690SOL    HW2 2070   2.176   2.756   0.151 -2.7228 -3.3243  1.6714
  691SOL     OW 2071   2.568   0.392   2.114 -0.0352  0.1745  0.5640
  691SOL    HW1 2072   2.613   0.298   2.113  1.4481  0.5726  1.7050
  691SOL    HW2 2073   2.619   0.457   2.048 -1.6247 -0.9437  2.0778
  692SOL     OW 2074   2.668   1.191   0.753 -0.3278  0.3717  0.1504
  692SOL    HW1 2075   2.585   1.214   0.697  0.8485  1.6582  2.4878
  692SOL    HW2 2076   2.706   1.274   0.798 -0.4061 -1.4205  0.5655
  693SOL     OW 2077   2.885   2.932   0.633 -0.0486 -0.0066 -0.9893
  693SOL    HW1 2078   2.860   3.013   0.694  0.2692 -0.9243  1.3304
  693SOL    HW2 2079   2.866   2.947   0.534 -2.5597 -0.8650 -1.2196
  694SOL     OW 2080   2.369   2.225   0.128  0.2323 -0.2901  0.3875
  694SOL    HW1 2081   2.353   2.312   0.172 -0.4122 -3.2488  0.1949
  694SOL    HW2 2082   2.285   2.166   0.116 -2.2955 -0.2846 -1.5221
  695SOL     OW 2083   0.502   3.005   1.476 -0.0566 -0.5148  0.3667
  695SOL    HW1 2084   0.427   2.961   1.415  3.0997 -0.8835 -1.5213
  695SOL    HW2 2085   0.463   3.022   1.573 -1.2186 -2.1098 -2.5356
  696SOL     OW 2086   2.749   1.977   0.774  0.3156 -0.3270 -0.2536
  696SOL    HW1 2087   2.818   1.913   0.810 -2.2965  0.6097  0.5181
  696SOL    HW2 2088   2.730   1.965   0.675  1.4140  2.1826 -1.2181
  697SOL     OW 2089   1.673   1.854   1.806 -0.5448  0.3734 -0.1278
  697SOL    HW1 2090   1.775   1.827   1.784  1.2975 -1.5138 -2.6319
  697SOL    HW2 2091   1.663   1.955   1.832  0.8252  0.2255  0.3479
  698SOL     OW 2092   2.908   0.422   2.674  0.3691  0.4157 -0.1928
  698SOL    HW1 2093   2.907   0.381   2.581  1.9919  0.5497  1.6100
  698SOL    HW2 2094   2.955   0.362   2.745 -0.5891 -0.4626  0.2285
  699SOL     OW 2095   1.628   0.088   2.918 -0.9260 -0.5344 -0.0988
  699SOL    HW1 2096   1.584  -0.000   2.890 -0.9857  0.7572  0.5009
  699SOL    HW2 2097   1.681   0.133   2.841 -0.6365  1.3180  1.2420
  700SOL     OW 2098   1.006   2.248   1.337 -0.3407 -0.1567  0.3000
  700SOL    HW1 2099   1.089   2.193   1.323 -5.0248 -0.5549 -0.6562
  700SOL    HW2 2100   0.914   2.203   1.315 -0.2350 -3.4994 -0.3062
  701SOL     OW 2101   1.908   2.878   0.024  0.2132 -0.2198  0.6789
  701SOL    HW1 2102   1.905   2.841   0.124  1.6262 -0.8994  0.4905
  701SOL    HW2 2103   1.940   2.978   0.035  0.6082 -0.4845 -1.8496
  702SOL     OW 2104   2.100   1.356   1.956 -0.1554 -0.4596  0.2867
  702SOL    HW1 2105   2.196   1.321   1.949 -2.0952 -0.7693 -0.8495
  702SOL    HW2 2106   2.069   1.399   1.867 -0.2332 -1.4743  2.4927
  703SOL     OW 2107   1.964   0.891   1.464 -0.4971 -0.3339  0.6670
  703SOL    HW1 2108   1.951   0.794   1.501 -1.9267 -1.0676 -0.1252
  703SOL    HW2 2109   2.025   0.946   1.526 -0.6082 -2.7795  0.5891
  704SOL     OW 2110   0.328   2.072   1.741 -0.0107 -0.1653 -0.0824
  704SOL    HW1 2111   0.372   2.003   1.812  0.9477  0.3144  0.2131
  704SOL    HW2 2112   0.388   2.150   1.719 -0.4049 -0.7607 -2.4988
  705SOL     OW 2113   2.468   1.415   0.896 -0.7264  0.3262  0.0870
  705SOL    HW1 2114   2.445   1.356   0.815 -0.3167  1.7097 -0.2442
  705SOL    HW2 2115   2.569   1.448   0.895  0.7914 -1.9845  2.2894
  706SOL     OW 2116   0.587   1.717   1.800  0.8940 -0.3101  0.2447
  706SOL    HW1 2117   0.613   1.720   1.701  1.4444 -2.6365  2.2926
  706SOL    HW2 2118   0.673   1.698   1.864  0.2693  0.9401  1.4014
  707SOL     OW 2119   2.340   1.214   1.962  0.4928 -0.0014  0.7522
  707SOL    HW1 2120   2.436   1.179   1.977 -1.3705 -0.1605 -0.2988
  707SOL    HW2 2121   2.275   1.138   1.934 -2.1003  0.4296  3.2616
  708SOL     OW 2122   3.015   0.514   3.052 -0.3810  0.0822  0.6720
  708SOL    HW1 2123   3.079   0.586   3.026 -0.7151 -3.9666  2.7265
  708SOL    HW2 2124   3.005   0.438   2.982 -2.5469  2.1972  1.8663
  709SOL     OW 2125   1.863   1.896   0.386  0.1208 -0.0657 -0.3462
  709SOL    HW1 2126   1.859   1.993   0.417 -1.3570  0.0212  0.0465
  709SOL    HW2 2127   1.881   1.885   0.282  0.8808  0.4437 -2.0917
  710SOL     OW 2128   1.760   1.550   2.462 -0.2384  0.7007 -0.7335
  710SOL    HW1 2129   1.816   1.489   2.406  0.5011  0.7327  1.5109
  710SOL    HW2 2130   1.756   1.525   2.566  0.4399 -0.0152  1.6367
  711SOL     OW 2131   2.703   2.864   0.968 -0.2986  0.1509 -0.3148
  711SOL    HW1 2132   2.652   2.945   0.931  0.1129 -1.8079  1.9450
  711SOL    HW2 2133   2.799   2.887   0.994 -2.4868 -2.5249  0.4200
  712SOL     OW 2134   1.382   2.112   1.955 -0.2068  0.0319 -0.0272
  712SOL    HW1 2135   1.462   2.087   1.896  2.1639 -2.7626  1.6544
  712SOL    HW2 2136   1.295   2.095   1.908  1.9896 -1.5661  0.2837
  713SOL     OW 2137   2.787   1.423   2.518  0.1771 -0.2335 -0.2872
  713SOL    HW1 2138   2.778   1.320   2.500  0.6906 -1.6989 -0.5838
  713SOL    HW2 2139   2.700   1.454   2.562  1.3477 -0.4762  2.2865
  714SOL     OW 2140   2.674   0.463   2.357  0.0965  0.0692  0.0590
  714SOL    HW1 2141   2.596   0.467   2.430 -2.2322  3.1467  2.3223
  714SOL    HW2 2142   2.631   0.427   2.271  1.3209  2.6456 -2.5829
  715SOL     OW 2143   1.594   2.160   1.148 -0.5441  0.1078 -0.2010
  715SOL    HW1 2144   1.495   2.170   1.111 -3.1568 -1.2977 -1.0864
  715SOL    HW2 2145   1.591   2.149   1.251 -0.6738  1.7963 -0.7092
  716SOL     OW 2146   1.256   0.109   1.538  0.6705  0.1085 -0.4772
  716SOL    HW1 2147   1.169   0.142   1.503  2.0772  0.3033  1.6021
  716SOL    HW2 2148   1.327   0.177   1.516 -3.1618  1.5465 -2.3548
  717SOL     OW 2149   1.162   0.572   1.631  0.2811 -0.1287  0.2537
  717SOL    HW1 2150   1.255   0.587   1.675 -1.4834  0.1553  1.1989
  717SOL    HW2 2151   1.172   0.553   1.525 -1.1919 -0.5243 -2.1574
  718SOL     OW 2152   0.651   0.901   0.955  0.1782 -0.2308  0.0093
  718SOL    HW1 2153   0.639   0.888   0.853 -0.1148 -1.5417 -0.5830
  718SOL    HW2 2154   0.627   0.995   0.984 -0.4397 -3.0838  1.3818
  719SOL     OW 2155   0.714   1.717   2.270 -0.5822  0.1338 -0.2751
  719SOL    HW1 2156   0.787   1.717   2.337  0.2018  1.7152 -2.3302
  719SOL    HW2 2157   0.657   1.626   2.269  0.0655 -1.5722  0.3707
  720SOL     OW 2158   2.161   1.155   0.270  0.8949 -0.2111 -0.1395
  720SOL    HW1 2159   2.242   1.094   0.240  1.7281 -0.7172  0.4758
  720SOL    HW2 2160   2.139   1.143   0.371  3.4536  0.0609 -1.6261
  721SOL     OW 2161   2.257   2.972   2.148  0.1232  1.0464 -0.4151
  721SOL    HW1 2162   2.267   2.997   2.050 -2.5915  1.2659  3.2300
  721SOL    HW2 2163   2.160   2.996   2.179  0.1909  1.2917 -0.6626
  722SOL     OW 2164   2.357   1.696   0.533  0.1459 -0.0518  0.2850
  722SOL    HW1 2165   2.429   1.717   0.464  2.6858 -1.9820 -0.8279
  722SOL    HW2 2166   2.262   1.721   0.498 -0.1586  0.8207 -1.6561
  723SOL     OW 2167   2.649   2.768   1.944  0.1830  0.3304  0.1324
  723SOL    HW1 2168   2.667   2.861   1.984  0.6189  1.4830 -0.8424
  723SOL    HW2 2169   2.557   2.724   1.967 -1.2581 -1.5135  1.0309
  724SOL     OW 2170   0.371   2.510   2.420  0.6231 -0.4601  0.0507
  724SOL    HW1 2171   0.272   2.519   2.453 -0.4518  0.6939  2.7137
  724SOL    HW2 2172   0.435   2.467   2.487  0.1923  2.3447 -1.2408
  725SOL     OW 2173   2.464   2.824   1.440  0.7378  0.9287 -0.8178
  725SOL    HW1 2174   2.531   2.814   1.363 -1.6918 -0.5522  1.8746
  725SOL    HW2 2175   2.457   2.728   1.492  2.3525 -0.2266  1.5145
  726SOL     OW 2176   2.511   2.335   0.705  0.6279  0.0599 -0.5509
  726SOL    HW1 2177   2.480   2.432   0.678 -0.0399 -1.8732  0.5334
  726SOL    HW2 2178   2.519   2.276   0.624 -1.8032  0.8791 -1.8699
  727SOL     OW 2179   0.116   3.084   0.120 -0.0849  0.3129 -0.2200
  727SOL    HW1 2180   0.188   3.148   0.073  1.9132  1.6036 -1.6035
  727SOL    HW2 2181   0.091   2.999   0.068 -2.1305  1.0702 -1.7809
  728SOL     OW 2182   2.898   0.739   0.964 -0.4603 -0.0844 -0.2460
  728SOL    HW1 2183   2.852   0.717   0.872  1.9798 -0.4844 -0.2844
  728SOL    HW2 2184   2.861   0.689   1.047  2.4487 -0.6720 -0.2697
  729SOL     OW 2185   0.020   2.571   0.777  0.2555  0.2832 -0.0669
  729SOL    HW1 2186   0.056   2.496   0.840 -0.6704 -1.1114  2.8680
  729SOL    HW2 2187   0.053   2.566   0.680  1.1814 -1.3604 -2.9106
  730SOL     OW 2188   2.568   0.714   0.882  0.2620 -0.4464 -0.2270
  730SOL    HW1 2189   2.522   0.802   0.856  1.2393  1.2300  2.2868
  730SOL    HW2 2190   2.650   0.696   0.821 -0.7700 -1.8905 -2.0877
  731SOL     OW 2191   3.082   2.220   2.331  0.3810 -0.5951 -0.2532
  731SOL    HW1 2192   3.066   2.241   2.431 -0.6215 -1.0815 -1.9442
  731SOL    HW2 2193   3.030   2.287   2.267  0.6146  2.1309 -0.4749
  732SOL     OW 2194   1.294   2.752   1.975 -0.6427 -0.0558  0.0730
  732SOL    HW1 2195   1.326   2.684   2.043 -1.9276  0.9923 -0.1220
  732SOL    HW2 2196   1.282   2.715   1.878 -1.3315 -0.0641 -0.4493
  733SOL     OW 2197   0.026   0.608   2.251 -0.1356  0.1234  0.0336
  733SOL    HW1 2198   0.098   0.656   2.191  2.0800 -1.0164  1.1896
  733SOL    HW2 2199  -0.013   0.525   2.203 -0.0492 -0.8919 -0.1191
  734SOL     OW 2200   1.480   0.398   2.712 -0.3773  0.3648  0.2046
  734SOL    HW1 2201   1.438   0.494   2.726  0.6822  1.7707  2.3612
  734SOL    HW2 2202   1.418   0.317   2.736 -0.5233 -0.9356 -1.5978
  735SOL     OW 2203   2.949   2.631   2.300  0.7533 -0.1458  0.0634
  735SOL    HW1 2204   2.916   2.634   2.200 -1.1203 -2.6291 -2.5025
  735SOL    HW2 2205   3.031   2.692   2.308 -2.6911  3.1652  0.5182
  736SOL     OW 2206   0.901   0.399   2.548  0.3401  0.1567  0.6556
  736SOL    HW1 2207   0.811   0.446   2.555  0.2475 -0.6648 -2.1150
  736SOL    HW2 2208   0.900   0.330   2.471  0.0730  3.3735 -2.7446
  737SOL     OW 2209   2.667   0.466   2.780 -0.5394 -0.3582  0.1836
  737SOL    HW1 2210   2.647   0.416   2.867  0.7090 -1.6915 -2.5258
  737SOL    HW2 2211   2.761   0.447   2.729  0.5405 -0.3872 -2.2014
  738SOL     OW 2212   1.754   1.217   2.925 -0.5090  0.2183  0.5772
  738SOL    HW1 2213   1.851   1.242   2.893  0.7631 -1.9559  0.9105
  738SOL    HW2 2214   1.716   1.127   2.892 -0.0809  0.4355  2.9481
  739SOL     OW 2215   1.836   0.720   0.603 -0.0360 -0.1554 -0.4392
  739SOL    HW1 2216   1.877   0.709   0.700  0.0948 -2.1825  2.5275
  739SOL    HW2 2217   1.833   0.632   0.556 -0.9343  3.4633  1.3539
  740SOL     OW 2218   1.963   1.941   2.346  0.0625 -0.1212 -0.2592
  740SOL    HW1 2219   2.016   1.852   2.375  1.8514 -0.6203 -0.5200
  740SOL    HW2 2220   1.905   1.918   2.267  2.1806 -0.1863  4.1493
  741SOL     OW 2221   2.544   0.092   2.464  0.4174 -0.5896  0.0051
  741SOL    HW1 2222   2.642   0.065   2.438 -0.2635 -1.5007  0.1430
  741SOL    HW2 2223   2.481   0.084   2.379 -1.2940 -2.9053  0.9547
  742SOL     OW 2224   2.207   1.443   0.185 -0.5020 -0.9021  0.1844
  742SOL    HW1 2225   2.131   1.502   0.146 -1.5447  0.5123 -1.1475
  742SOL    HW2 2226   2.178   1.353   0.219  0.9800 -0.2862  0.6793
  743SOL     OW 2227   1.827   0.625   2.577  0.4694  0.0650  1.0282
  743SOL    HW1 2228   1.808   0.561   2.497  0.4755  0.0674  2.1007
  743SOL    HW2 2229   1.738   0.657   2.625 -0.6936 -3.6906  1.0553
  744SOL     OW 2230   2.646   2.142   0.138 -0.3864  0.5857 -0.0301
  744SOL    HW1 2231   2.552   2.186   0.129 -0.7944  2.2215 -2.4072
  744SOL    HW2 2232   2.654   2.040   0.105 -2.6594  1.2262 -2.8073
  745SOL     OW 2233   2.172   2.510   2.218  0.0521  0.4856  0.0019
  745SOL    HW1 2234   2.115   2.524   2.132  1.7527  0.9804  1.2387
  745SOL    HW2 2235   2.117   2.501   2.306 -0.6403 -0.1990  2.1818
  746SOL     OW 2236   3.093   2.568   1.769  0.4031  0.3596 -0.2610
  746SOL    HW1 2237   3.176   2.513   1.749 -1.0973  0.8972 -0.1037
  746SOL    HW2 2238   3.108   2.667   1.795  0.5792  0.0803  0.1344
  747SOL     OW 2239   0.001   1.784   1.664  0.3524  0.0200 -0.5422
  747SOL    HW1 2240  -0.050   1.710   1.612 -1.9784  0.0317  0.9116
  747SOL    HW2 2241   0.050   1.842   1.594  0.9573  3.9009 -0.7312
  748SOL     OW 2242   1.819   2.700   2.941  0.5209 -0.0342 -0.6930
  748SOL    HW1 2243   1.821   2.787   3.007  0.9722  1.1436  1.9118
  748SOL    HW2 2244   1.744   2.711   2.863  0.6709  0.0635 -1.4728
  749SOL     OW 2245   1.289   2.924   0.823 -0.0331  0.4491  0.0560
  749SOL    HW1 2246   1.244   3.005   0.793  2.1874 -1.8968  2.7664
  749SOL    HW2 2247   1.394   2.925   0.795  1.5219 -1.4333  0.8116
  750SOL     OW 2248   2.259   0.199   1.867 -0.3017 -0.4300 -0.2229
  750SOL    HW1 2249   2.284   0.239   1.779 -1.8657  0.7157 -0.4920
  750SOL    HW2 2250   2.262   0.274   1.935 -2.4685 -2.5319 -1.9067
  751SOL     OW 2251   0.795   2.158   2.907 -0.4411 -0.4438 -0.3389
  751SOL    HW1 2252   0.878   2.168   2.972 -0.0894  2.1154  1.3305
  751SOL    HW2 2253   0.725   2.094   2.943  0.1899  0.7206  1.2909
  752SOL     OW 2254   1.351   0.799   1.151 -0.0988 -0.3028  0.6509
  752SOL    HW1 2255   1.391   0.897   1.159 -0.4945  1.0777  0.6394
  752SOL    HW2 2256   1.399   0.732   1.211 -0.6779 -1.1117 -1.4229
  753SOL     OW 2257   0.992   2.581   1.789 -0.2718 -0.6170 -0.4430
  753SOL    HW1 2258   1.090   2.599   1.776 -4.4883 -1.6420  1.0445
  753SOL    HW2 2259   0.941   2.664   1.818  1.4032 -3.0811 -3.6736
  754SOL     OW 2260   1.159   1.167   2.997  0.2849 -0.4021  0.0206
  754SOL    HW1 2261   1.218   1.094   2.947 -0.0496 -1.6209  0.2100
  754SOL    HW2 2262   1.214   1.247   3.036  1.6751  0.6307 -1.9310
  755SOL     OW 2263   1.969   0.476   2.208 -0.0196  0.0282 -0.0775
  755SOL    HW1 2264   2.050   0.415   2.250  2.6279 -2.5646  3.8151
  755SOL    HW2 2265   1.883   0.471   2.263  1.1937 -1.4812 -0.3958
  756SOL     OW 2266   2.507   0.981   2.992 -0.3480 -0.2727  0.4242
  756SOL    HW1 2267   2.613   0.966   2.984  0.9589 -0.6541 -0.6523
  756SOL    HW2 2268   2.470   0.894   3.034 -0.9733  0.4466 -0.2453
  757SOL     OW 2269   0.108   0.426   1.969 -0.2423 -0.0958 -0.0316
  757SOL    HW1 2270   0.137   0.335   1.994  0.0998  4.4408  0.8236
  757SOL    HW2 2271   0.008   0.454   1.995 -1.8824 -1.9884 -0.8301
  758SOL     OW 2272   2.312   0.070   1.468 -0.4567 -0.3557  0.8087
  758SOL    HW1 2273   2.287  -0.020   1.505  0.9401  0.3504 -1.0868
  758SOL    HW2 2274   2.268   0.096   1.378  0.4715  2.3097  1.2351
  759SOL     OW 2275   1.702   0.111   0.090 -0.0742 -0.2068 -0.4674
  759SOL    HW1 2276   1.678   0.095  -0.010 -3.0251 -1.4368 -2.0150
  759SOL    HW2 2277   1.803   0.092   0.109  0.5190 -0.8091  0.3794
  760SOL     OW 2278   2.711   2.015   2.842 -0.0631 -0.4445 -0.0749
  760SOL    HW1 2279   2.637   2.079   2.884 -0.9215 -0.4175  3.9924
  760SOL    HW2 2280   2.808   2.050   2.857 -1.7330 -0.1023  2.4010
  761SOL     OW 2281   1.925   1.779   1.710 -0.1522 -0.4234 -0.2812
  761SOL    HW1 2282   1.995   1.703   1.720 -1.9776 -1.0090  0.8593
  761SOL    HW2 2283   1.868   1.785   1.621 -0.9681  0.6453  0.7748
  762SOL     OW 2284   0.498   2.407   0.935 -0.2130  0.6519 -0.0780
  762SOL    HW1 2285   0.532   2.438   0.842  0.1754 -0.1352  1.8357
  762SOL    HW2 2286   0.574   2.406   1.004 -0.5852  0.9121 -2.0628
  763SOL     OW 2287   2.132   1.603   2.999  0.0566  0.3439 -0.2448
  763SOL    HW1 2288   2.220   1.547   3.003  2.1158 -2.9730 -1.9956
  763SOL    HW2 2289   2.047   1.551   3.030  0.8839  1.2108 -0.8416
  764SOL     OW 2290   0.674   0.594   0.661 -0.3642  0.3522  0.2703
  764SOL    HW1 2291   0.577   0.555   0.656 -0.6807 -0.1653  1.5103
  764SOL    HW2 2292   0.729   0.563   0.750  0.4463 -0.4820  3.6140
  765SOL     OW 2293   0.811   0.300   0.720  0.3871  0.6356  0.1777
  765SOL    HW1 2294   0.833   0.335   0.631 -1.9116  1.0544  2.9519
  765SOL    HW2 2295   0.813   0.381   0.795 -1.2207  2.4266  2.1881
  766SOL     OW 2296   2.913   2.171   3.053  0.0216  0.0542 -0.4607
  766SOL    HW1 2297   2.839   2.179   3.130  0.9680  0.8119  0.8922
  766SOL    HW2 2298   2.988   2.240   3.056  0.2128 -0.0405  0.2717
  767SOL     OW 2299   2.834   1.610   0.560 -0.1678 -0.3473  0.2474
  767SOL    HW1 2300   2.748   1.624   0.618  0.3082 -0.0607  1.6965
  767SOL    HW2 2301   2.921   1.604   0.616  2.5172  0.9375 -0.7309
  768SOL     OW 2302   1.022   0.209   0.178  0.3017 -0.4842  0.0302
  768SOL    HW1 2303   1.023   0.245   0.275  0.8635  0.1000  0.5867
  768SOL    HW2 2304   1.113   0.157   0.160 -0.3314 -1.3956 -0.1488
  769SOL     OW 2305   1.125   1.811   2.289 -0.0771  0.0714 -0.0909
  769SOL    HW1 2306   1.038   1.812   2.350  2.7888  1.2806 -1.9205
  769SOL    HW2 2307   1.217   1.809   2.341  1.1858 -1.5683 -0.4901
  770SOL     OW 2308   0.174   1.155   2.319  0.2820  0.0683  0.2568
  770SOL    HW1 2309   0.130   1.208   2.399 -2.8034 -0.1930  1.6723
  770SOL    HW2 2310   0.102   1.094   2.277  1.4671 -0.2476  0.7705
  771SOL     OW 2311   3.061   2.799   1.906 -0.1355  0.1521 -0.0478
  771SOL    HW1 2312   3.027   2.858   1.828  3.0149  0.8646 -1.7971
  771SOL    HW2 2313   3.030   2.843   1.995 -2.1501  0.5330  1.4680
  772SOL     OW 2314   2.362   0.214   2.845 -0.7138  0.4611  0.5425
  772SOL    HW1 2315   2.434   0.146   2.808  2.3362  1.5876  0.4463
  772SOL    HW2 2316   2.373   0.234   2.943  2.9179  0.5240  0.6941
  773SOL     OW 2317   0.572   2.083   2.409 -0.1388 -0.7982  0.5679
  773SOL    HW1 2318   0.552   2.171   2.358  3.2543 -2.3931 -2.5213
  773SOL    HW2 2319   0.492   2.028   2.429  1.5879 -0.3007 -2.9267
  774SOL     OW 2320   2.111   0.012   2.596  0.8942 -0.0242 -0.3327
  774SOL    HW1 2321   2.112   0.105   2.647 -1.6254  1.7836  0.3354
  774SOL    HW2 2322   2.180  -0.059   2.624 -0.1734 -0.3954 -1.4663
  775SOL     OW 2323   2.568   2.892   2.242  0.0945  0.6121 -0.7050
  775SOL    HW1 2324   2.485   2.930   2.276  1.2254  0.1865 -2.0240
  775SOL    HW2 2325   2.647   2.898   2.312  1.2802  1.0900 -1.2087
  776SOL     OW 2326   0.014   1.232   0.203 -0.0497  0.2014 -0.0493
  776SOL    HW1 2327  -0.040   1.206   0.117  2.1151  2.7302 -1.9708
  776SOL    HW2 2328  -0.046   1.244   0.282  0.8578  1.5320  1.1658
  777SOL     OW 2329   0.388   2.987   0.497  0.6567 -0.1332  0.2007
  777SOL    HW1 2330   0.299   2.982   0.446 -0.9540 -0.1494 -2.6369
  777SOL    HW2 2331   0.397   2.911   0.568  2.2021 -1.7624  2.1171
  778SOL     OW 2332   1.391   1.994   0.288  0.3772  0.6281 -0.6586
  778SOL    HW1 2333   1.302   2.034   0.318 -2.1366 -1.0751 -1.6497
  778SOL    HW2 2334   1.395   1.979   0.185 -1.6822 -0.6134 -1.1958
  779SOL     OW 2335   0.146   0.807   0.457 -0.4573 -0.0233  0.1286
  779SOL    HW1 2336   0.082   0.723   0.447 -0.5070 -0.1881  0.1857
  779SOL    HW2 2337   0.106   0.876   0.518  2.0521 -2.6926 -0.6762
  780SOL     OW 2338   0.113   0.324   2.340  0.4597 -0.0109 -0.1837
  780SOL    HW1 2339   0.099   0.410   2.398 -1.3874 -1.0106  1.4520
  780SOL    HW2 2340   0.203   0.323   2.285  2.7507  1.4757 -0.2253
  781SOL     OW 2341   0.671   1.648   1.541  0.1862  0.1151 -0.3271
  781SOL    HW1 2342   0.736   1.570   1.563 -0.3822 -0.9699 -1.5783
  781SOL    HW2 2343   0.577   1.623   1.506 -0.0922  0.6189 -0.1735
  782SOL     OW 2344   2.584   0.025   0.911 -0.0777  0.8203  0.2715
  782SOL    HW1 2345   2.518   0.077   0.854 -2.3385 -2.3342  1.2596
  782SOL    HW2 2346   2.550   0.030   1.008  0.2980 -1.6686 -0.4325
  783SOL     OW 2347   2.743   0.739   2.436  0.5835  0.0344  0.5267
  783SOL    HW1 2348   2.722   0.748   2.537  2.5921  1.3075 -0.8916
  783SOL    HW2 2349   2.742   0.641   2.410  0.5332  1.7155 -1.0608
  784SOL     OW 2350   1.423   2.105   0.019  0.0201  0.2777 -0.3217
  784SOL    HW1 2351   1.463   2.178   0.080 -1.4342  0.9186  2.5029
  784SOL    HW2 2352   1.411   2.139  -0.078  0.7514 -1.5556  3.0548
  785SOL     OW 2353   2.087   0.276   3.093 -0.2491  0.2597 -0.0294
  785SOL    HW1 2354   2.024   0.306   3.165  2.0842  0.5249 -2.6655
  785SOL    HW2 2355   2.119   0.353   3.032  1.5699 -0.1352 -1.7666
  786SOL     OW 2356   2.054   2.202   2.266  0.0568 -0.2994  0.1661
  786SOL    HW1 2357   2.026   2.117   2.308  1.8954  2.3703 -0.6343
  786SOL    HW2 2358   2.158   2.194   2.242  2.8176 -0.6106  1.2052
  787SOL     OW 2359   1.392   0.536   0.876 -0.5449  0.3077 -0.1713
  787SOL    HW1 2360   1.320   0.606   0.889 -0.4547 -0.1711  0.5789
  787SOL    HW2 2361   1.431   0.531   0.780  1.4242  0.6801 -2.7956
  788SOL     OW 2362   1.202   0.438   0.017  0.1078 -0.4373 -0.2336
  788SOL    HW1 2363   1.107   0.408  -0.009 -1.2306 -0.2060  1.4987
  788SOL    HW2 2364   1.194   0.516   0.089  2.8334  0.4866  0.8832
  789SOL     OW 2365   2.565   0.115   1.968 -0.3097 -0.1196  0.2932
  789SOL    HW1 2366   2.508   0.080   1.890 -1.5179 -0.8390 -1.8337
  789SOL    HW2 2367   2.637   0.051   1.994 -0.3743  0.2091 -0.2570
  790SOL     OW 2368   2.631   2.771   0.706 -0.0445 -0.3592 -0.2077
  790SOL    HW1 2369   2.702   2.819   0.654 -1.7898  0.4622  0.5776
  790SOL    HW2 2370   2.639   2.779   0.813 -0.6086  0.7804  2.2645
  791SOL     OW 2371   1.923   1.189   0.152 -0.2401  0.2576  0.3620
  791SOL    HW1 2372   1.845   1.142   0.212 -1.4074 -0.5363  3.2520
  791SOL    HW2 2373   2.026   1.170   0.183  0.2766 -1.1324  0.1766
  792SOL     OW 2374   0.431   1.802   2.201  0.0472 -0.7172 -0.2281
  792SOL    HW1 2375   0.519   1.821   2.249  0.7442  2.6188 -0.2779
  792SOL    HW2 2376   0.408   1.700   2.193 -1.2815 -2.1838  1.1615
  793SOL     OW 2377   2.102   1.617   2.069  0.6210 -0.0875 -0.1376
  793SOL    HW1 2378   2.183   1.671   2.037  0.1856  0.2959  0.4374
  793SOL    HW2 2379   2.117   1.512   2.056 -0.6051 -1.5051 -0.8284
  794SOL     OW 2380   0.486   1.533   2.278  0.0724 -0.9141  0.2342
  794SOL    HW1 2381   0.479   1.464   2.203  0.4545 -2.2422  2.9114
  794SOL    HW2 2382   0.415   1.530   2.351  2.2852 -1.0187  0.8300
  795SOL     OW 2383   2.483   2.237   1.803  0.2107 -0.0521  0.0900
  795SOL    HW1 2384   2.520   2.219   1.903  0.3022 -0.9901  1.5570
  795SOL    HW2 2385   2.427   2.159   1.762 -0.8277  1.6705  0.8226
  796SOL     OW 2386   3.077   1.110   2.700 -0.1891 -0.0343 -0.6902
  796SOL    HW1 2387   2.985   1.058   2.715 -0.2773 -1.0306  0.6005
  796SOL    HW2 2388   3.122   1.132   2.793 -1.8304  0.8630 -1.8440
  797SOL     OW 2389   0.805   0.642   1.443  0.1750  0.0111 -0.4657
  797SOL    HW1 2390   0.857   0.683   1.521 -0.6185  0.7324 -1.9160
  797SOL    HW2 2391   0.787   0.711   1.371  1.6975 -1.1031  0.4438
  798SOL     OW 2392   1.323   0.440   1.187 -0.4030 -0.2529 -0.2765
  798SOL    HW1 2393   1.369   0.387   1.268 -0.5074  0.0851  3.1169
  798SOL    HW2 2394   1.382   0.455   1.104  1.0765 -1.0939 -1.1292
  799SOL     OW 2395   1.962   2.653   1.049  0.0593  0.0739  0.0219
  799SOL    HW1 2396   1.878   2.627   1.106 -2.5968 -1.1112 -3.4041
  799SOL    HW2 2397   1.937   2.704   0.963  1.8750 -1.0358  1.4616
  800SOL     OW 2398   3.064   0.626   1.803 -0.6400 -0.3452  0.6248
  800SOL    HW1 2399   3.026   0.679   1.881  2.5574  3.4762 -1.6527
  800SOL    HW2 2400   3.131   0.551   1.828 -0.5289 -0.1556 -0.3167
  801SOL     OW 2401   1.898   2.165   0.184  0.0376  0.4115  0.0184
  801SOL    HW1 2402   1.824   2.135   0.117  0.0080 -0.2008  2.0716
  801SOL    HW2 2403   1.994   2.132   0.153  3.7780  2.6307  0.8598
  802SOL     OW 2404   0.753   0.800   2.586 -0.2887 -0.3646  0.4307
  802SOL    HW1 2405   0.810   0.784   2.499  1.9932 -1.0904 -0.6814
  802SOL    HW2 2406   0.654   0.765   2.571  2.0130 -0.4409 -1.8426
  803SOL     OW 2407   0.890   0.166   0.948 -0.2401  0.4986 -0.7142
  803SOL    HW1 2408   0.978   0.211   0.973 -1.4208 -0.9365 -1.9885
  803SOL    HW2 2409   0.852   0.207   0.862  2.1414 -1.0505 -2.3543
  804SOL     OW 2410   0.421   3.004   2.090  0.0288 -0.2553  0.4248
  804SOL    HW1 2411   0.375   3.082   2.044 -0.1450 -0.9211  2.2950
  804SOL    HW2 2412   0.375   2.913   2.072  1.0563  0.8193 -0.4820
  805SOL     OW 2413   2.441   0.298   0.291 -0.1671 -0.6085 -0.3158
  805SOL    HW1 2414   2.550   0.293   0.295 -0.0434  0.6190  1.6567
  805SOL    HW2 2415   2.398   0.264   0.200 -2.7229 -1.2434 -0.5277
  806SOL     OW 2416   0.685   2.390   1.674 -0.2187  0.1024  0.1659
  806SOL    HW1 2417   0.660   2.489   1.694 -0.1306  1.5514  1.2293
  806SOL    HW2 2418   0.778   2.384   1.629  0.2102  1.9441 -2.2516
  807SOL     OW 2419   2.510   0.919   0.433 -0.9997 -0.0623 -0.0965
  807SOL    HW1 2420   2.599   0.864   0.445 -0.6634  1.4714 -1.6928
  807SOL    HW2 2421   2.490   0.936   0.329  0.4667 -1.4066 -0.7265
  808SOL     OW 2422   0.565   1.998   2.993  0.3941  0.4595  0.2142
  808SOL    HW1 2423   0.530   1.993   3.092 -0.5654  1.1837 -0.6167
  808SOL    HW2 2424   0.564   1.902   2.948 -1.8191 -1.3706 -2.3668
  809SOL     OW 2425   2.684   1.983   1.915 -0.3550  0.1269  0.8414
  809SOL    HW1 2426   2.744   2.066   1.912 -2.1550  0.3313 -1.9910
  809SOL    HW2 2427   2.634   1.965   1.826  0.8099 -2.2518  0.0453
  810SOL     OW 2428   2.090   1.129   0.538 -0.4471  0.1464 -0.1644
  810SOL    HW1 2429   2.063   1.075   0.619 -1.0568  1.5043 -4.6349
  810SOL    HW2 2430   2.060   1.230   0.547 -0.0642 -0.7346 -0.0942
  811SOL     OW 2431   1.281   2.389   1.218 -0.4681  0.8702  0.2361
  811SOL    HW1 2432   1.248   2.295   1.241 -0.0461  0.2514 -3.5815
  811SOL    HW2 2433   1.243   2.423   1.128 -0.8482  0.4069  0.9031
  812SOL     OW 2434   1.368   0.779   1.972  0.0855  0.2782 -0.0995
  812SOL    HW1 2435   1.432   0.856   1.994  0.2651 -1.6328 -1.6159
  812SOL    HW2 2436   1.271   0.814   1.967  0.1810 -0.7796  0.0501
  813SOL     OW 2437   1.733   2.040   2.487  0.5802  0.5457 -0.1142
  813SOL    HW1 2438   1.835   2.016   2.477 -3.7255  1.8006  0.1438
  813SOL    HW2 2439   1.684   2.026   2.396 -1.0478  0.9937  0.2438
  814SOL     OW 2440   2.869   1.556   2.907 -0.6123 -0.6296  0.2900
  814SOL    HW1 2441   2.965   1.549   2.950 -0.8996 -2.3471  0.1672
  814SOL    HW2 2442   2.856   1.636   2.839 -1.3976  0.8922  0.4921
  815SOL     OW 2443   2.239   2.885   2.725 -0.3577  0.2263  0.1179
  815SOL    HW1 2444   2.192   2.854   2.810  1.2307 -0.4469  0.2018
  815SOL    HW2 2445   2.341   2.861   2.724 -0.8381  1.6871  1.2425
  816SOL     OW 2446   1.754   0.355   1.690  0.0974  0.2714  0.3409
  816SOL    HW1 2447   1.649   0.339   1.690 -1.6491 -0.5872  1.5255
  816SOL    HW2 2448   1.798   0.334   1.779 -1.5151  0.7977 -0.5089
  817SOL     OW 2449   0.468   1.220   2.468 -0.1417 -0.5763 -0.0600
  817SOL    HW1 2450   0.408   1.307   2.471 -0.1627  1.4615 -2.7412
  817SOL    HW2 2451   0.474   1.190   2.370 -0.0651  0.8922  1.5717
  818SOL     OW 2452   2.017   0.861   0.420  0.1415  0.2437 -0.2560
  818SOL    HW1 2453   2.045   0.960   0.453 -2.1555  0.6429  2.3198
  818SOL    HW2 2454   1.940   0.814   0.471 -0.0743 -1.4236 -1.4717
  819SOL     OW 2455   2.756   2.937   3.039  0.8044  0.1502 -0.1362
  819SOL    HW1 2456   2.841   2.882   3.015 -2.4329 -0.7905  2.2874
  819SOL    HW2 2457   2.675   2.908   2.980 -2.3926  1.3619  0.8993
  820SOL     OW 2458   1.198   1.123   0.533 -0.2075  0.0867  0.3741
  820SOL    HW1 2459   1.243   1.214   0.562  0.5774  1.3782 -2.4587
  820SOL    HW2 2460   1.149   1.072   0.606  0.2996  1.1386 -2.7569
  821SOL     OW 2461   3.079   1.280   0.660  0.0106  0.3437 -0.1100
  821SOL    HW1 2462   3.048   1.269   0.759  0.2602 -1.2921  0.4873
  821SOL    HW2 2463   3.162   1.333   0.645 -2.1046 -1.7499 -1.3749
  822SOL     OW 2464   2.539   1.759   2.437 -0.5457  0.3255 -0.3955
  822SOL    HW1 2465   2.530   1.848   2.487  0.6163 -1.4815 -1.4036
  822SOL    HW2 2466   2.558   1.776   2.338  0.5253 -0.6832 -1.0325
  823SOL     OW 2467   2.046   0.893   1.196 -0.3366  0.3312 -0.2789
  823SOL    HW1 2468   2.016   0.870   1.296  0.0475  0.3276  0.2536
  823SOL    HW2 2469   1.966   0.934   1.141 -1.1505 -0.2148  1.9757
  824SOL     OW 2470   0.179   2.019   2.716 -0.3507 -0.2789  0.4061
  824SOL    HW1 2471   0.148   1.958   2.793 -0.7360 -0.3630 -0.0691
  824SOL    HW2 2472   0.232   1.958   2.652  0.1085 -1.9878  0.0288
  825SOL     OW 2473   1.239   1.050   0.267  0.0219  0.1674 -0.2008
  825SOL    HW1 2474   1.243   1.078   0.366  0.9682 -0.3155 -2.7992
  825SOL    HW2 2475   1.264   1.135   0.215 -2.0618  1.3747 -0.7042
  826SOL     OW 2476   1.926   0.634   1.545  0.2937 -0.4744 -0.3031
  826SOL    HW1 2477   1.979   0.564   1.606  0.1555 -2.1544 -1.2721
  826SOL    HW2 2478   1.830   0.603   1.510 -1.1695 -0.2986  0.2703
  827SOL     OW 2479   0.756   1.396   0.264 -0.4661  0.5231  0.7219
  827SOL    HW1 2480   0.763   1.329   0.185  0.9307  0.7338  2.9948
  827SOL    HW2 2481   0.712   1.348   0.346  0.6484 -0.1856  1.8517
  828SOL     OW 2482   2.545   0.091   1.581 -0.0983  0.0495 -0.1618
  828SOL    HW1 2483   2.448   0.109   1.535 -1.8653  2.3558 -1.8956
  828SOL    HW2 2484   2.549   0.016   1.657 -1.3259  0.0646  2.0703
  829SOL     OW 2485   2.810   2.496   3.025  0.2456 -0.1802 -0.2018
  829SOL    HW1 2486   2.746   2.411   3.018  1.0897 -3.1026 -0.7057
  829SOL    HW2 2487   2.783   2.571   3.097  0.7798 -0.2464  0.0637
  830SOL     OW 2488   2.771   0.944   3.026  0.2068  0.8429  0.2829
  830SOL    HW1 2489   2.822   1.018   3.078  2.0587  1.9127 -1.5149
  830SOL    HW2 2490   2.807   0.847   3.051 -1.8341 -0.8721  1.0339
  831SOL     OW 2491   3.088   0.608   0.365  0.2250 -0.3276  0.1086
  831SOL    HW1 2492   3.050   0.558   0.445  1.5505  2.7008 -1.0769
  831SOL    HW2 2493   3.139   0.547   0.297  1.6263 -0.2776 -0.5437
  832SOL     OW 2494   1.802   0.752   3.096 -0.1861 -0.2600  0.4893
  832SOL    HW1 2495   1.727   0.816   3.055 -0.7307 -1.3830  2.6969
  832SOL    HW2 2496   1.802   0.661   3.045 -0.6425 -0.1636  1.3149
  833SOL     OW 2497   2.464   2.141   0.507  0.0347  0.6369 -0.1799
  833SOL    HW1 2498   2.360   2.147   0.502 -0.8764 -1.2240 -0.8092
  833SOL    HW2 2499   2.495   2.043   0.489  0.5773 -2.4519 -0.3852
  834SOL     OW 2500   0.077   0.242   0.642 -0.0611 -0.0514 -0.1365
  834SOL    HW1 2501   0.129   0.162   0.678  0.2448  2.6469  2.2783
  834SOL    HW2 2502   0.104   0.256   0.541  0.5082  0.7598 -3.7719
  835SOL     OW 2503   2.408   1.511   1.188 -0.6438 -0.0424 -0.3762
  835SOL    HW1 2504   2.502   1.544   1.216 -1.9463  1.9478 -0.5580
  835SOL    HW2 2505   2.398   1.479   1.087 -3.7894 -1.5023 -2.6842
  836SOL     OW 2506   1.518   0.837   2.572 -0.0239 -0.5960 -0.7399
  836SOL    HW1 2507   1.414   0.832   2.556  0.0888  0.2736  1.1059
  836SOL    HW2 2508   1.569   0.844   2.481 -1.5557 -1.9915 -1.0602
  837SOL     OW 2509   1.544   0.031   0.511  0.3079  0.1309 -0.1043
  837SOL    HW1 2510   1.514   0.126   0.518  2.3757  0.6306 -0.1004
  837SOL    HW2 2511   1.545  -0.011   0.417  2.5385  2.4485  0.1933
  838SOL     OW 2512   1.294   1.588   2.664 -0.0603 -0.0380 -0.0386
  838SOL    HW1 2513   1.355   1.544   2.738 -0.4242  1.6133 -0.9703
  838SOL    HW2 2514   1.217   1.528   2.624  1.4498 -0.1735  0.3897
  839SOL     OW 2515   1.619   0.241   0.974  0.3741  0.5873  0.2455
  839SOL    HW1 2516   1.658   0.301   1.047  1.2591  1.4987 -1.3700
  839SOL    HW2 2517   1.601   0.140   0.996  1.0130 -1.2112  0.9062
  840SOL     OW 2518   2.543   2.959   1.730 -0.0519  0.3874 -0.4278
  840SOL    HW1 2519   2.508   2.909   1.647 -0.0894 -1.1110  3.8850
  840SOL    HW2 2520   2.590   2.883   1.785 -0.1379 -0.5904 -1.1373
  841SOL     OW 2521   1.576   0.918   3.054 -0.3011 -0.1813  0.3392
  841SOL    HW1 2522   1.486   0.916   3.109 -0.5176  1.3096 -0.5818
  841SOL    HW2 2523   1.564   0.977   2.973 -1.5222 -0.1727 -2.8541
  842SOL     OW 2524   0.813   1.523   0.848  0.0982  0.1386 -0.2381
  842SOL    HW1 2525   0.782   1.598   0.914  0.3091 -2.0190 -1.8458
  842SOL    HW2 2526   0.754   1.437   0.850  1.7731  0.8567 -0.7331
  843SOL     OW 2527   0.194   3.053   1.405  0.1596 -0.2382  0.0666
  843SOL    HW1 2528   0.183   3.136   1.471 -0.5238  3.4275  1.1501
  843SOL    HW2 2529   0.163   2.960   1.438 -0.2097 -1.1607 -1.0248
  844SOL     OW 2530   0.824   2.486   0.256  0.4573 -0.2804  0.1000
  844SOL    HW1 2531   0.783   2.433   0.334  0.5793  1.2372  0.9266
  844SOL    HW2 2532   0.765   2.569   0.229 -1.4532 -1.0396  0.4527
  845SOL     OW 2533   1.650   2.828   1.242 -0.1470 -0.1428 -0.1881
  845SOL    HW1 2534   1.617   2.733   1.228  2.6731  0.9326  3.7693
  845SOL    HW2 2535   1.663   2.844   1.345 -2.2817 -1.0694 -0.3858
  846SOL     OW 2536   1.557   2.995   0.753  0.5326 -0.2910  0.7306
  846SOL    HW1 2537   1.532   3.060   0.675  1.5154  1.2403  0.5022
  846SOL    HW2 2538   1.652   2.952   0.748  1.3986 -3.4273  2.6569
  847SOL     OW 2539   2.086   1.738   0.466  0.0761 -0.6062 -0.1784
  847SOL    HW1 2540   2.020   1.664   0.489  0.9552  0.0122 -0.0060
  847SOL    HW2 2541   2.028   1.832   0.455 -0.7063  3.5581 -0.5477
  848SOL     OW 2542   2.422   0.879   2.645 -0.3710  0.0741 -0.4720
  848SOL    HW1 2543   2.395   0.944   2.722  0.4708  0.8114  0.9224
  848SOL    HW2 2544   2.354   0.801   2.633 -0.6587  1.0464 -2.8475
  849SOL     OW 2545   2.527   0.907   2.390 -0.1051  0.0446 -0.2704
  849SOL    HW1 2546   2.616   0.864   2.399 -2.4988  1.1313  0.3290
  849SOL    HW2 2547   2.473   0.909   2.480 -0.3438 -0.9900  1.7758
  850SOL     OW 2548   1.587   0.049   1.273 -0.4246 -0.4416  0.0731
  850SOL    HW1 2549   1.558   0.017   1.175  0.4509  0.2091  1.0968
  850SOL    HW2 2550   1.597  -0.021   1.350  2.4142  0.1535  1.3381
  851SOL     OW 2551   0.548   1.733   0.674 -0.3779  0.4712 -0.7706
  851SOL    HW1 2552   0.627   1.781   0.716 -3.2492 -0.8241  0.0658
  851SOL    HW2 2553   0.554   1.735   0.574 -0.4003 -0.0040  2.7320
  852SOL     OW 2554   0.856   2.108   1.702 -0.3254  0.1106  0.6306
  852SOL    HW1 2555   0.881   2.207   1.679 -1.1686  0.1535 -0.6300
  852SOL    HW2 2556   0.793   2.105   1.788  0.2927  0.6510  3.2239
  853SOL     OW 2557   2.538   1.544   2.612  0.0930  0.3136 -0.1990
  853SOL    HW1 2558   2.461   1.478   2.584 -1.0174  1.0492 -0.8498
  853SOL    HW2 2559   2.551   1.619   2.541 -0.3758 -1.3219  0.3025
  854SOL     OW 2560   2.463   1.416   1.773  0.5018 -0.3888 -0.3188
  854SOL    HW1 2561   2.483   1.345   1.694  2.5900 -1.1482  1.0265
  854SOL    HW2 2562   2.406   1.376   1.848 -0.2336  0.2796 -2.1032
  855SOL     OW 2563   2.082   2.394   1.093  0.1557  0.1831 -0.5724
  855SOL    HW1 2564   2.046   2.484   1.060  1.2445  0.2854  0.7023
  855SOL    HW2 2565   2.160   2.406   1.163  0.8338 -0.5527 -1.5061
  856SOL     OW 2566   1.343   1.439   0.907  0.2300  0.1032  0.1520
  856SOL    HW1 2567   1.408   1.509   0.951  0.0687 -1.7731  2.4990
  856SOL    HW2 2568   1.245   1.455   0.943 -2.8635 -1.1469  0.8976
  857SOL     OW 2569  -0.001   2.740   1.092 -0.1685  0.3888 -0.3562
  857SOL    HW1 2570  -0.038   2.731   0.998 -1.8793 -0.4457  2.3117
  857SOL    HW2 2571   0.086   2.682   1.101  2.6637 -0.2711 -2.0116
  858SOL     OW 2572   2.399   2.062   1.580  0.4768  0.4657  0.9171
  858SOL    HW1 2573   2.313   2.011   1.592  1.5020 -2.0244 -3.1901
  858SOL    HW2 2574   2.484   2.014   1.608 -2.3503  1.3733 -2.5739
  859SOL     OW 2575   2.439   0.536   1.084 -0.6802  0.0354  0.2229
  859SOL    HW1 2576   2.489   0.589   1.009  1.0703  1.1504 -2.5860
  859SOL    HW2 2577   2.489   0.452   1.120  0.0104 -2.2941 -2.2695
  860SOL     OW 2578   1.901   2.818   0.507 -0.2382 -0.7884  0.0227
  860SOL    HW1 2579   1.906   2.784   0.410 -0.2396  1.9055  0.3000
  860SOL    HW2 2580   1.896   2.924   0.511  1.7067  1.8617  0.2520
  861SOL     OW 2581   1.002   2.503   2.863 -0.2605  0.1951  0.3166
  861SOL    HW1 2582   1.061   2.579   2.827 -1.4923 -0.6618 -0.1271
  861SOL    HW2 2583   0.980   2.509   2.962 -1.3343  0.0557 -0.6348
  862SOL     OW 2584   2.837   2.536   1.699  0.2304 -0.0225 -0.2052
  862SOL    HW1 2585   2.927   2.528   1.759  2.9732 -1.1551  0.7461
  862SOL    HW2 2586   2.824   2.620   1.639 -0.2162 -0.2718  0.8441
  863SOL     OW 2587   1.823   2.713   0.265  0.0319 -0.1517  0.5155
  863SOL    HW1 2588   1.868   2.622   0.258 -1.1012  0.9434  0.9418
  863SOL    HW2 2589   1.718   2.713   0.254  1.8004  0.2883 -0.9994
  864SOL     OW 2590   2.028   1.249   2.799 -0.0718  0.4790  0.2482
  864SOL    HW1 2591   2.026   1.164   2.738  1.9838  0.6982 -0.8920
  864SOL    HW2 2592   2.064   1.329   2.749  1.1256 -3.1028 -0.5970
  865SOL     OW 2593   2.138   1.948   0.738  0.1463 -0.2753 -0.0103
  865SOL    HW1 2594   2.209   1.892   0.790  2.1877  0.0455 -1.4757
  865SOL    HW2 2595   2.053   1.957   0.796 -1.3067  2.9162  0.0156
  866SOL     OW 2596   2.937   2.984   1.046  0.3604  0.2745  0.0351
  866SOL    HW1 2597   2.969   3.040   0.961  1.0629  4.1168 -0.8815
  866SOL    HW2 2598   2.998   2.905   1.067 -1.5600  2.2777 -0.9968
  867SOL     OW 2599   0.317   1.397   0.885 -0.1108 -0.0167 -0.1286
  867SOL    HW1 2600   0.338   1.338   0.800  2.5695 -0.8866  1.0659
  867SOL    HW2 2601   0.326   1.503   0.866  0.5498  0.5837  0.4142
  868SOL     OW 2602   0.778   1.867   2.040 -0.6431  0.0044  0.1496
  868SOL    HW1 2603   0.760   1.861   2.145 -1.5811  0.0516 -1.9713
  868SOL    HW2 2604   0.715   1.932   1.993 -0.4736  0.2192  2.3619
  869SOL     OW 2605   2.621   1.901   1.661 -0.2356 -0.4888  0.1219
  869SOL    HW1 2606   2.691   1.973   1.618  0.5043  2.5771 -1.6100
  869SOL    HW2 2607   2.656   1.806   1.676  0.4178  0.8125 -1.0240
  870SOL     OW 2608   2.390   2.693   1.156 -0.3842 -0.1792  0.1996
  870SOL    HW1 2609   2.388   2.607   1.214  0.9870  0.5170  1.8300
  870SOL    HW2 2610   2.476   2.739   1.159  0.2077 -4.9829  0.7450
  871SOL     OW 2611   3.032   2.247   0.548  0.1785 -0.3554  0.0043
  871SOL    HW1 2612   2.990   2.240   0.646 -3.5495 -0.0664  0.5966
  871SOL    HW2 2613   2.959   2.260   0.471  0.7022 -0.3119 -0.9441
  872SOL     OW 2614   2.102   0.483   1.693  0.5217  0.3253 -0.2641
  872SOL    HW1 2615   2.057   0.477   1.789 -2.0127  1.1527  0.9768
  872SOL    HW2 2616   2.196   0.440   1.676 -1.7628 -0.6512 -1.4237
  873SOL     OW 2617   1.722   2.069   3.103 -0.2741 -0.4371 -0.0241
  873SOL    HW1 2618   1.621   2.043   3.100  0.8059  0.0347  1.3261
  873SOL    HW2 2619   1.750   2.137   3.029  0.5841 -0.2393 -0.9726
  874SOL     OW 2620   0.672   2.476   0.719  0.2371 -0.4950  0.2101
  874SOL    HW1 2621   0.652   2.572   0.764 -0.9815  1.7993 -0.0251
  874SOL    HW2 2622   0.770   2.448   0.724 -2.3959 -0.4829 -1.0327
  875SOL     OW 2623   2.280   1.561   1.439 -0.4509 -1.0952  0.1586
  875SOL    HW1 2624   2.354   1.609   1.499 -0.2952 -0.5262  2.6439
  875SOL    HW2 2625   2.316   1.534   1.344  1.8219 -0.1382  1.5773
  876SOL     OW 2626   0.078   2.267   2.636 -0.0361 -0.2073  0.2797
  876SOL    HW1 2627   0.129   2.181   2.661 -1.5172  0.4368  1.0717
  876SOL    HW2 2628   0.133   2.355   2.676  1.0017  1.2492 -0.8913
  877SOL     OW 2629   2.883   2.624   0.661 -0.0270 -0.1235 -0.5897
  877SOL    HW1 2630   2.870   2.722   0.678  2.3171  0.4081  1.7048
  877SOL    HW2 2631   2.971   2.586   0.703  0.1157 -0.3735  1.4109
  878SOL     OW 2632   2.840   1.626   2.315  0.2384  0.0626 -0.0294
  878SOL    HW1 2633   2.767   1.699   2.290 -0.0009  0.9204  0.6034
  878SOL    HW2 2634   2.817   1.586   2.409 -2.2296  0.0986 -0.3440
  879SOL     OW 2635   2.472   0.055   1.172 -0.7427  0.1926 -0.0109
  879SOL    HW1 2636   2.508  -0.032   1.209 -1.0320  0.2393 -4.3706
  879SOL    HW2 2637   2.376   0.045   1.136  0.9691 -1.3833 -0.5187
  880SOL     OW 2638   0.658   0.547   2.267  0.7240  0.0624  0.2215
  880SOL    HW1 2639   0.661   0.516   2.364 -1.7230  0.6609  0.2718
  880SOL    HW2 2640   0.687   0.474   2.202  1.3987  0.8343  1.2525
  881SOL     OW 2641   0.852   0.082   0.390 -0.3440 -0.3588 -0.5322
  881SOL    HW1 2642   0.885  -0.013   0.414 -0.5006  2.2134 -0.6538
  881SOL    HW2 2643   0.750   0.075   0.365 -0.1650 -4.1649  0.9598
  882SOL     OW 2644   2.701   1.595   1.722 -0.6482  0.4070 -0.3778
  882SOL    HW1 2645   2.791   1.578   1.671 -2.4255 -1.5950  1.2461
  882SOL    HW2 2646   2.700   1.553   1.817 -1.4618 -0.7179  2.1945
  883SOL     OW 2647   0.784   0.506   0.885  0.0203  0.1564  0.4846
  883SOL    HW1 2648   0.858   0.578   0.900  2.5406 -0.9705  1.2309
  883SOL    HW2 2649   0.717   0.501   0.962 -0.7853  0.2971 -1.6738
  884SOL     OW 2650   1.202   1.723   1.108 -0.0294  0.6399  0.3025
  884SOL    HW1 2651   1.148   1.644   1.064 -0.9186 -1.4721 -1.3124
  884SOL    HW2 2652   1.176   1.812   1.079  1.6299  0.3310  1.2230
  885SOL     OW 2653   2.327   1.906   2.261  0.6087  0.1000 -0.7081
  885SOL    HW1 2654   2.271   1.836   2.314  1.3794 -1.0722 -1.3061
  885SOL    HW2 2655   2.317   2.009   2.286  0.4287 -0.1048 -1.1932
  886SOL     OW 2656   2.611   0.345   1.785  0.0598  0.2578 -0.1416
  886SOL    HW1 2657   2.595   0.278   1.860  1.1246  3.1449  0.0296
  886SOL    HW2 2658   2.696   0.405   1.797  3.7691 -1.2988 -0.6579
  887SOL     OW 2659   0.155   2.073   1.269  0.4682  0.0985 -0.4876
  887SOL    HW1 2660   0.082   2.003   1.241 -2.6429 -1.2870  1.4704
  887SOL    HW2 2661   0.124   2.171   1.274 -0.1239  0.9484 -2.9005
  888SOL     OW 2662   0.588   1.241   1.551  0.1216  0.0507  0.3062
  888SOL    HW1 2663   0.579   1.306   1.464  0.7730  2.9336 -3.4175
  888SOL    HW2 2664   0.639   1.152   1.532 -2.0064  0.2183  0.5357
  889SOL     OW 2665   0.837   2.441   2.246  0.4843 -0.4310 -0.1589
  889SOL    HW1 2666   0.734   2.430   2.251 -0.1207  1.3746 -0.1004
  889SOL    HW2 2667   0.874   2.400   2.160 -0.8016 -1.1064  1.5260
  890SOL     OW 2668   2.373   2.512   0.261 -0.1064  0.2595 -1.1300
  890SOL    HW1 2669   2.400   2.600   0.219 -0.2700 -1.2167  1.2071
  890SOL    HW2 2670   2.319   2.512   0.350  0.8951 -0.7190 -0.2155
  891SOL     OW 2671   2.607   1.680   0.703 -0.6786 -0.0222 -0.0667
  891SOL    HW1 2672   2.634   1.715   0.797 -3.4638  0.9799 -0.5778
  891SOL    HW2 2673   2.508   1.696   0.685  1.7755 -0.8945  2.5105
  892SOL     OW 2674   0.363   0.333   2.205 -0.4714  0.5148 -0.1934
  892SOL    HW1 2675   0.376   0.432   2.175 -1.0991 -0.2599 -1.3933
  892SOL    HW2 2676   0.452   0.279   2.209  1.9449 -0.0452  2.5017
  893SOL     OW 2677   1.721   0.253   2.713 -0.3711 -0.0833  0.6666
  893SOL    HW1 2678   1.789   0.322   2.745 -1.3382  3.3127 -1.7758
  893SOL    HW2 2679   1.633   0.302   2.717 -0.5817 -0.4549  1.4222
  894SOL     OW 2680   2.137   2.091   0.099  0.4230  0.5378  0.1511
  894SOL    HW1 2681   2.101   2.035   0.018 -0.5971  0.4566 -2.2705
  894SOL    HW2 2682   2.170   2.030   0.175 -0.8470 -1.1281  0.4526
  895SOL     OW 2683   2.744   1.456   0.903  0.0866 -0.0498  0.6212
  895SOL    HW1 2684   2.815   1.394   0.945 -0.1363  1.7904 -1.2156
  895SOL    HW2 2685   2.745   1.558   0.934 -1.3863  2.7861  0.2238
  896SOL     OW 2686   1.801   1.784   1.237 -0.6282  0.8521 -0.0191
  896SOL    HW1 2687   1.886   1.731   1.272 -2.6213 -1.8799  0.6325
  896SOL    HW2 2688   1.755   1.736   1.159 -0.4968  0.0573  1.1364
  897SOL     OW 2689   0.241   0.557   3.016  0.7434  0.2182  0.1251
  897SOL    HW1 2690   0.193   0.619   2.953 -2.6286 -2.2595 -2.6757
  897SOL    HW2 2691   0.331   0.597   3.042 -0.7091  1.3520 -1.5783
  898SOL     OW 2692   0.685   2.819   1.096  0.3086 -0.0580 -0.0988
  898SOL    HW1 2693   0.737   2.903   1.133  2.1464 -1.2556 -1.8935
  898SOL    HW2 2694   0.710   2.729   1.145  2.7635 -1.3395 -0.6421
  899SOL     OW 2695   2.871   0.947   1.339 -0.7624 -0.1867  0.4354
  899SOL    HW1 2696   2.827   1.007   1.271  3.3564 -1.8803 -2.6003
  899SOL    HW2 2697   2.971   0.961   1.347  1.7121 -1.8397 -0.7018
  900SOL     OW 2698   1.006   2.469   2.469  0.1860 -0.5770 -0.2821
  900SOL    HW1 2699   0.938   2.473   2.388  1.6290  1.3368  0.1112
  900SOL    HW2 2700   0.967   2.417   2.552  0.4252  0.2171  0.9600
  901SOL     OW 2701   1.874   2.390   1.448  0.0811  0.2350  0.4260
  901SOL    HW1 2702   1.898   2.323   1.377 -0.5230  3.4688 -1.0081
  901SOL    HW2 2703   1.958   2.431   1.491 -2.0711 -0.4573 -1.0767
  902SOL     OW 2704   2.539   1.632   1.498  0.1184  0.2686  0.2804
  902SOL    HW1 2705   2.584   1.624   1.589 -1.5044 -0.1863 -1.9744
  902SOL    HW2 2706   2.585   1.580   1.420 -1.4980 -1.4223 -0.2265
  903SOL     OW 2707   0.325   2.396   1.981  0.3149  0.3097  0.2159
  903SOL    HW1 2708   0.255   2.318   1.995  0.3456 -2.5658  0.1208
  903SOL    HW2 2709   0.310   2.447   1.892  0.5483  2.2551  1.2065
  904SOL     OW 2710   1.978   0.818   2.472  0.4082  0.3711  0.3993
  904SOL    HW1 2711   1.930   0.739   2.515  1.9373  1.2284 -0.9796
  904SOL    HW2 2712   2.008   0.797   2.375 -1.8892  0.5528  1.0925
  905SOL     OW 2713   2.806   0.081   2.413 -0.5525  0.3762  0.1841
  905SOL    HW1 2714   2.833  -0.009   2.461 -1.2325 -1.3637 -1.8146
  905SOL    HW2 2715   2.854   0.168   2.445  0.1660 -0.5494 -1.5004
  906SOL     OW 2716   0.171   1.736   1.888  0.5587  0.1900  0.0843
  906SOL    HW1 2717   0.103   1.762   1.815  2.5199  0.8055  2.5399
  906SOL    HW2 2718   0.257   1.794   1.881  0.8841 -2.5559  0.4370
  907SOL     OW 2719   0.226   2.486   0.963  0.3143  0.1162  0.1906
  907SOL    HW1 2720   0.319   2.442   0.947 -0.1860 -0.0060  0.6554
  907SOL    HW2 2721   0.224   2.584   0.933 -1.3095  2.5051  1.5706
  908SOL     OW 2722   2.836   3.016   0.366 -0.4738 -0.0639 -0.3020
  908SOL    HW1 2723   2.754   3.041   0.308 -1.0129 -0.5225 -0.8467
  908SOL    HW2 2724   2.887   2.933   0.332 -1.1547  3.8961 -1.8551
  909SOL     OW 2725   0.878   1.031   2.668 -0.1301  0.4076 -0.4131
  909SOL    HW1 2726   0.830   0.941   2.644  1.3169 -3.7210 -1.0517
  909SOL    HW2 2727   0.940   1.059   2.588  1.3642  1.3338  1.0162
  910SOL     OW 2728   1.809   1.890   2.118 -0.3401  0.1660 -0.0769
  910SOL    HW1 2729   1.886   1.917   2.045 -0.5830  2.1197 -1.2074
  910SOL    HW2 2730   1.753   1.979   2.133 -0.2689  1.6065  1.5341
  911SOL     OW 2731   1.768   2.915   1.511  0.0275 -0.0410 -0.7050
  911SOL    HW1 2732   1.866   2.891   1.499 -0.2389  1.3837  0.9666
  911SOL    HW2 2733   1.730   2.851   1.582  1.2891  1.7736  1.4275
  912SOL     OW 2734   2.874   1.007   0.740  0.0135 -0.5225 -0.6536
  912SOL    HW1 2735   2.930   0.991   0.827  1.7725 -1.3292 -1.7211
  912SOL    HW2 2736   2.799   1.081   0.744  1.3619 -0.8584  1.2113
  913SOL     OW 2737   2.594   1.269   1.568  0.7444  0.2307  0.2845
  913SOL    HW1 2738   2.634   1.173   1.568 -0.7843 -1.5489  0.0869
  913SOL    HW2 2739   2.622   1.321   1.484 -0.4937  1.4424 -1.1798
  914SOL     OW 2740   2.850   0.609   1.196 -0.1843 -0.1598 -0.1945
  914SOL    HW1 2741   2.815   0.517   1.233 -1.5143 -1.8894  3.0478
  914SOL    HW2 2742   2.821   0.692   1.253 -2.7268 -0.0351  0.0171
  915SOL     OW 2743   1.219   0.736   0.907  0.1516  0.1167 -0.4894
  915SOL    HW1 2744   1.249   0.784   0.992 -0.8349  1.8109 -1.5090
  915SOL    HW2 2745   1.115   0.716   0.903 -1.8063  2.2409  0.5007
  916SOL     OW 2746   0.635   0.098   0.673 -0.0423  0.3120 -0.3965
  916SOL    HW1 2747   0.688   0.182   0.692 -2.9044 -1.6165 -2.3803
  916SOL    HW2 2748   0.598   0.094   0.577  1.0694 -1.8494  0.8799
  917SOL     OW 2749   2.877   2.609   2.037  0.5297 -0.1584 -0.4345
  917SOL    HW1 2750   2.783   2.646   2.008 -3.7816 -0.6776 -0.7945
  917SOL    HW2 2751   2.951   2.636   1.968  3.9539  1.2598  1.0672
  918SOL     OW 2752   1.043   2.091   3.031 -0.5181  0.1157 -0.3016
  918SOL    HW1 2753   1.042   2.178   3.088 -0.7113  0.2185  0.9336
  918SOL    HW2 2754   1.121   2.090   2.959 -1.1330  1.2055 -1.7292
  919SOL     OW 2755   0.810   1.639   2.811  0.5457 -0.0484  0.3570
  919SOL    HW1 2756   0.840   1.739   2.785  0.4133  2.0338  1.0853
  919SOL    HW2 2757   0.792   1.577   2.724 -0.4424  1.8173 -2.8757
  920SOL     OW 2758   1.348   1.816   2.461  0.3941 -0.1709  0.4689
  920SOL    HW1 2759   1.436   1.796   2.414 -0.2635  0.4327  1.0765
  920SOL    HW2 2760   1.329   1.755   2.540 -2.1000 -0.5556 -1.4341
  921SOL     OW 2761   1.131   0.053   2.597 -0.2500 -0.5726  0.1885
  921SOL    HW1 2762   1.105   0.066   2.494 -0.9766  2.0700 -0.5840
  921SOL    HW2 2763   1.050   0.064   2.654  2.5582 -0.2320 -0.8272
  922SOL     OW 2764   2.200   2.445   2.797  0.3045 -0.4415 -0.0758
  922SOL    HW1 2765   2.205   2.342   2.792  1.8792  3.7159 -1.1855
  922SOL    HW2 2766   2.154   2.488   2.712 -1.2868 -0.6304 -1.3973
  923SOL     OW 2767   1.193   2.738   0.282  0.7168 -0.0291 -0.1110
  923SOL    HW1 2768   1.252   2.816   0.322  0.3575  1.0373 -0.0074
  923SOL    HW2 2769   1.250   2.647   0.283 -0.1419 -0.9023  1.9064
  924SOL     OW 2770   2.943   1.697   0.162 -0.1045  0.1747  0.1733
  924SOL    HW1 2771   2.862   1.656   0.111  2.8114  0.5872  0.2578
  924SOL    HW2 2772   3.020   1.633   0.158 -0.2027  1.7195 -1.6239
  925SOL     OW 2773   0.043   2.839   1.533  0.2085 -0.6277 -0.3465
  925SOL    HW1 2774  -0.020   2.923   1.541 -0.5044 -0.9374 -1.1679
  925SOL    HW2 2775  -0.008   2.757   1.506  0.8670  2.1677  0.2571
  926SOL     OW 2776   1.271   2.776   1.324 -0.1283 -0.0032 -0.5595
  926SOL    HW1 2777   1.308   2.772   1.226  1.4241 -1.1556 -1.1026
  926SOL    HW2 2778   1.312   2.853   1.385  0.5123  2.6369 -1.0148
  927SOL     OW 2779   0.369   2.615   1.803  0.1168  0.6462 -0.1117
  927SOL    HW1 2780   0.370   2.541   1.731  0.4351  0.3619  0.1283
  927SOL    HW2 2781   0.322   2.702   1.772 -1.9434 -0.4191  2.9506
  928SOL     OW 2782   1.627   2.097   2.236 -0.9219  0.0646  0.0732
  928SOL    HW1 2783   1.636   2.171   2.163  0.0625 -1.3588 -1.0568
  928SOL    HW2 2784   1.526   2.069   2.243 -2.3516 -1.9568 -0.8497
  929SOL     OW 2785   2.475   2.492   2.892 -0.2618 -0.3710  0.3031
  929SOL    HW1 2786   2.372   2.491   2.892  3.1081 -1.7137 -1.7835
  929SOL    HW2 2787   2.507   2.479   2.794 -0.2587 -0.7504 -2.0207
  930SOL     OW 2788   2.158   2.075   1.097  0.7636 -0.0253  0.4247
  930SOL    HW1 2789   2.158   2.079   1.202 -1.0590  0.9076  1.8402
  930SOL    HW2 2790   2.174   2.170   1.057 -0.1636 -2.1745  0.6362
  931SOL     OW 2791   0.463   1.632   2.605  0.2025  0.6156 -0.5276
  931SOL    HW1 2792   0.483   1.679   2.697 -2.0959  0.6596  1.5478
  931SOL    HW2 2793   0.555   1.600   2.569  0.8075  0.0796 -0.9045
  932SOL     OW 2794   0.363   0.053   0.020  0.2288 -0.3884  0.6554
  932SOL    HW1 2795   0.430   0.132  -0.005  2.5361  0.1154 -0.8284
  932SOL    HW2 2796   0.412  -0.031   0.054 -2.8761 -1.3009  0.6011
  933SOL     OW 2797   1.022   0.823   3.044  0.0668  0.1186  0.4873
  933SOL    HW1 2798   1.089   0.867   3.108  0.5453 -2.2202 -0.4921
  933SOL    HW2 2799   0.931   0.874   3.043 -0.3616 -0.2345 -0.5782
  934SOL     OW 2800   0.886   2.969   2.630 -0.5762 -0.4404 -0.0206
  934SOL    HW1 2801   0.879   2.904   2.553  0.1632  2.3260  1.6947
  934SOL    HW2 2802   0.907   2.920   2.716 -0.0023  0.1884  1.2114
  935SOL     OW 2803   0.041   0.561   0.792  0.1492 -0.4934  0.2513
  935SOL    HW1 2804  -0.010   0.504   0.726  2.0130  2.9119  1.6170
  935SOL    HW2 2805  -0.027   0.621   0.847 -0.6942 -1.8849  1.3682
  936SOL     OW 2806   1.113   2.892   0.064  0.0836 -0.1790 -0.5187
  936SOL    HW1 2807   1.204   2.912   0.018  0.1957  1.1326  0.4978
  936SOL    HW2 2808   1.129   2.842   0.152 -0.9880 -1.3444 -0.2546
  937SOL     OW 2809   1.945   2.606   2.081 -0.0336  0.2135  0.0438
  937SOL    HW1 2810   1.928   2.650   2.172 -1.2271 -0.1149 -1.8988
  937SOL    HW2 2811   1.942   2.674   2.000 -1.4902  0.9634 -1.2118
  938SOL     OW 2812   2.754   2.121   1.556 -0.0377  0.3153 -0.0117
  938SOL    HW1 2813   2.697   2.207   1.575  0.6953 -1.3421 -1.0377
  938SOL    HW2 2814   2.849   2.129   1.605  0.2365  0.7790  0.5979
  939SOL     OW 2815   2.820   1.133   2.479 -0.0319 -0.3168 -0.5472
  939SOL    HW1 2816   2.909   1.104   2.433 -1.2365  0.5608 -2.8863
  939SOL    HW2 2817   2.807   1.105   2.580 -1.8617 -0.8398  0.6978
  940SOL     OW 2818   1.089   0.455   2.756  0.2372 -0.1519  0.4050
  940SOL    HW1 2819   1.146   0.371   2.793  2.3176 -1.1491  2.1810
  940SOL    HW2 2820   1.029   0.424   2.677  0.4742  1.0347  1.3631
  941SOL     OW 2821   0.087   2.818   2.278 -0.0557 -0.0342 -0.3249
  941SOL    HW1 2822   0.134   2.744   2.222  2.1578  1.0998 -0.4235
  941SOL    HW2 2823   0.152   2.871   2.342  2.3072 -0.8563  2.1303
  942SOL     OW 2824   0.101   0.076   2.447  0.0247  0.0448  0.6503
  942SOL    HW1 2825   0.153   0.073   2.535 -0.5060  0.3117 -1.7309
  942SOL    HW2 2826   0.078   0.172   2.412 -0.1391 -0.9328 -0.8428
  943SOL     OW 2827   2.131   1.707   2.351 -0.4648  0.2039  0.8601
  943SOL    HW1 2828   2.107   1.683   2.249 -0.3335  2.7763 -4.8161
  943SOL    HW2 2829   2.156   1.628   2.414 -1.1555 -1.1010 -0.9683
  944SOL     OW 2830   2.172   2.353   1.573 -0.0434  0.1906 -0.1898
  944SOL    HW1 2831   2.263   2.347   1.619 -0.7051  1.7173 -2.2101
  944SOL    HW2 2832   2.109   2.273   1.581 -0.2087 -0.2225  1.8592
  945SOL     OW 2833   0.713   1.635   0.137  0.9662 -0.1703 -0.5910
  945SOL    HW1 2834   0.635   1.616   0.074  0.0627 -1.2368 -1.2309
  945SOL    HW2 2835   0.740   1.549   0.192  0.2251  0.1940  0.3358
  946SOL     OW 2836   0.333   1.017   2.609 -0.3116  0.4388 -0.5742
  946SOL    HW1 2837   0.304   0.959   2.527 -0.6947  0.5789  0.5167
  946SOL    HW2 2838   0.365   1.113   2.586  0.3938  1.1469  3.1506
  947SOL     OW 2839   1.478   0.519   3.039  0.3459 -0.2827  0.1530
  947SOL    HW1 2840   1.469   0.582   2.956 -1.0976 -0.5162 -1.8463
  947SOL    HW2 2841   1.389   0.469   3.065 -1.0882 -0.1485  0.2045
  948SOL     OW 2842   1.939   2.912   2.169 -0.2943 -0.3992 -0.2854
  948SOL    HW1 2843   1.953   2.864   2.077  2.3917 -0.5067  2.5547
  948SOL    HW2 2844   1.929   2.846   2.251 -2.0951 -0.8394  2.4235
  949SOL     OW 2845   0.580   2.472   0.440  0.2938 -0.4992  0.1622
  949SOL    HW1 2846   0.587   2.565   0.402 -1.9002 -0.9832  4.9912
  949SOL    HW2 2847   0.580   2.476   0.546 -0.7571 -0.6408  1.6731
  950SOL     OW 2848   0.168   2.234   2.928 -0.0969 -0.8563  0.2264
  950SOL    HW1 2849   0.185   2.328   2.887 -0.5764  2.1886 -0.7724
  950SOL    HW2 2850   0.180   2.152   2.868  1.4829  1.0835  1.1673
  951SOL     OW 2851   1.226   2.673   2.791 -0.1405  0.0806 -0.4174
  951SOL    HW1 2852   1.287   2.597   2.823 -1.2534  1.5323 -0.9574
  951SOL    HW2 2853   1.267   2.729   2.708  0.2614  2.3369 -0.3548
  952SOL     OW 2854   0.041   1.621   0.426  0.2665 -0.2142 -0.3374
  952SOL    HW1 2855   0.085   1.709   0.456  2.2645 -1.2339 -3.6192
  952SOL    HW2 2856   0.069   1.553   0.501  2.3525  0.4227  2.2788
  953SOL     OW 2857   2.519   1.735   0.291  0.7023 -0.2332  0.1370
  953SOL    HW1 2858   2.505   1.633   0.296  0.5711  0.2737  0.8618
  953SOL    HW2 2859   2.503   1.775   0.192 -0.9372  0.9171 -2.4552
  954SOL     OW 2860   2.219   0.535   0.928  0.0277  0.2857  0.0441
  954SOL    HW1 2861   2.245   0.544   0.828  0.5300 -0.1838 -0.3970
  954SOL    HW2 2862   2.290   0.532   1.001 -0.2888  0.0545 -2.3561
  955SOL     OW 2863   0.181   2.603   1.393  0.1575 -0.2308  0.3661
  955SOL    HW1 2864   0.091   2.649   1.389  1.2705  1.2202 -1.0647
  955SOL    HW2 2865   0.253   2.675   1.370 -0.1321  0.9344 -0.5905
  956SOL     OW 2866   2.804   2.496   2.499  0.2811  0.3519 -0.1575
  956SOL    HW1 2867   2.828   2.398   2.517 -0.4234  1.7243 -0.0159
  956SOL    HW2 2868   2.880   2.540   2.441  0.5700 -0.0010  1.0856
  957SOL     OW 2869   1.629   2.079   2.746  0.4591  0.2266 -0.0727
  957SOL    HW1 2870   1.639   2.001   2.818  1.7447  1.0510  0.0509
  957SOL    HW2 2871   1.673   2.067   2.653 -1.5661  1.5176 -2.6891
  958SOL     OW 2872   2.629   2.297   2.984  0.5649  0.3470 -0.9125
  958SOL    HW1 2873   2.557   2.366   2.940  0.1124  0.3019 -3.4257
  958SOL    HW2 2874   2.603   2.263   3.076  0.2250 -0.1118 -1.8721
  959SOL     OW 2875   0.395   2.799   0.151 -0.3869 -0.7109  0.3752
  959SOL    HW1 2876   0.315   2.868   0.161 -1.7666  1.0545  0.0984
  959SOL    HW2 2877   0.365   2.704   0.179 -0.4355  1.9334 -1.4702
  960SOL     OW 2878   1.921   0.487   1.922  0.7518 -0.3646 -0.0238
  960SOL    HW1 2879   1.891   0.577   1.876 -2.3888 -0.0373  0.0857
  960SOL    HW2 2880   1.933   0.493   2.022 -0.7525 -0.3414 -0.7846
  961SOL     OW 2881   2.527   1.879   1.054  0.1922 -0.4648 -0.2129
  961SOL    HW1 2882   2.524   1.964   0.995 -0.5340  0.7054  0.1566
  961SOL    HW2 2883   2.503   1.893   1.156 -1.6258  0.1478  0.3872
  962SOL     OW 2884   1.299   0.866   0.040 -0.3597 -0.6505  0.0550
  962SOL    HW1 2885   1.299   0.905  -0.055 -1.6952  0.0068 -2.8249
  962SOL    HW2 2886   1.281   0.937   0.118 -0.5327  0.3738  2.0893
  963SOL     OW 2887   2.314   2.577   1.803 -0.4279 -0.0546 -0.4421
  963SOL    HW1 2888   2.268   2.492   1.836 -0.7633 -0.2092 -0.2552
  963SOL    HW2 2889   2.325   2.651   1.878  0.5955  1.1834  0.1907
  964SOL     OW 2890   2.367   0.385   1.674 -0.6640 -0.8631  0.3886
  964SOL    HW1 2891   2.462   0.362   1.708 -0.2241 -1.0544 -0.8400
  964SOL    HW2 2892   2.365   0.403   1.577 -2.2986 -1.7077  1.1001
  965SOL     OW 2893   2.594   3.008   0.198 -0.3147 -0.3869  0.2621
  965SOL    HW1 2894   2.663   2.970   0.132 -1.5200 -2.1907  1.1673
  965SOL    HW2 2895   2.506   3.036   0.153  0.9863  0.3288  0.3398
  966SOL     OW 2896   2.479   2.486   2.257  0.6754 -0.1964 -0.0294
  966SOL    HW1 2897   2.520   2.570   2.217 -0.0072 -2.3153  1.2081
  966SOL    HW2 2898   2.375   2.489   2.265  0.0562 -1.4411 -1.3805
  967SOL     OW 2899   2.749   2.875   2.458  0.3460  0.2582  0.0651
  967SOL    HW1 2900   2.755   2.783   2.406  1.7154  1.0765  1.1509
  967SOL    HW2 2901   2.841   2.918   2.471 -0.6891  0.2623  0.4095
  968SOL     OW 2902   1.963   1.064   2.606 -0.5810 -0.5511  0.1977
  968SOL    HW1 2903   1.877   1.120   2.580 -0.9398  1.9290  0.5859
  968SOL    HW2 2904   1.972   0.988   2.531  1.1629  0.1573 -2.4102
  969SOL     OW 2905   2.804   2.566   1.095  0.4242  0.2106  0.5765
  969SOL    HW1 2906   2.770   2.652   1.053  2.0318 -0.3655 -0.0126
  969SOL    HW2 2907   2.785   2.485   1.029  2.4808 -0.0475  0.4467
  970SOL     OW 2908   1.120   2.093   1.841  1.2320 -0.3080  0.0559
  970SOL    HW1 2909   1.103   2.027   1.923 -0.7958  1.1235  3.6502
  970SOL    HW2 2910   1.045   2.086   1.771  1.5968  0.7190 -0.4869
  971SOL     OW 2911   2.885   2.165   1.935 -0.4715 -0.3537 -0.4071
  971SOL    HW1 2912   2.927   2.236   1.996  0.1019 -2.9686  0.4268
  971SOL    HW2 2913   2.932   2.163   1.843 -0.1214  2.3655 -0.2739
  972SOL     OW 2914   1.931   2.449   0.238  0.5831 -0.2226 -0.4453
  972SOL    HW1 2915   1.975   2.374   0.184 -0.9754  3.3797 -0.7346
  972SOL    HW2 2916   1.897   2.416   0.331 -0.4246  2.2232  3.0466
  973SOL     OW 2917   1.127   0.896   1.882 -0.3729 -0.2977 -0.2369
  973SOL    HW1 2918   1.082   0.802   1.904 -0.2266 -1.0256  1.4870
  973SOL    HW2 2919   1.067   0.968   1.839  1.0239  0.2192  0.9679
  974SOL     OW 2920   1.595   0.564   1.989  0.1409  0.0820  0.0563
  974SOL    HW1 2921   1.665   0.601   1.920  0.0911  0.3868 -0.1417
  974SOL    HW2 2922   1.503   0.612   1.974 -1.4157  0.4910  0.0805
  975SOL     OW 2923   2.391   3.032   0.014  0.4236 -0.2128 -0.3647
  975SOL    HW1 2924   2.306   2.986   0.051  0.2031  2.5784 -0.2484
  975SOL    HW2 2925   2.426   2.996  -0.075 -0.8878  1.6851 -3.0523
  976SOL     OW 2926   1.943   2.698   2.336  0.4175 -0.3239 -0.5661
  976SOL    HW1 2927   1.847   2.693   2.378 -0.7901  2.4025 -1.1201
  976SOL    HW2 2928   2.022   2.723   2.401  0.8586 -0.1472 -0.9490
  977SOL     OW 2929   0.447   0.684   1.012 -0.2973  0.5192  0.0200
  977SOL    HW1 2930   0.368   0.670   0.938 -1.6513  0.3416 -1.2826
  977SOL    HW2 2931   0.511   0.763   0.989  1.0677 -0.4395  0.9858
   3.10000   3.10000   3.10000
