1000 SPC/Fw water molecules t=   0.65000 step= 650
 2931
    1SOL     OW    1   2.471   0.371   2.606 -0.1365 -0.1820 -0.2038
    1SOL    HW1    2   2.510   0.281   2.571 -0.9383 -0.5976 -0.1786
    1SOL    HW2    3   2.533   0.411   2.676 -1.8913  1.3197 -0.9134
    2SOL     OW    4   2.717   3.054   1.398  0.7524 -0.2464 -0.2333
    2SOL    HW1    5   2.752   3.076   1.304  2.2360  0.1759  2.2637
    2SOL    HW2    6   2.669   3.133   1.445 -1.6941  0.2442  1.4266
    3SOL     OW    7   2.730   2.601   0.365 -0.2041  0.5258 -0.0058
    3SOL    HW1    8   2.704   2.498   0.379  0.7481  0.7423  0.6136
    3SOL    HW2    9   2.818   2.629   0.419  0.9499  1.7192  1.1160
    4SOL     OW   10   1.286   1.456   2.362  0.2466 -0.6150 -0.0616
    4SOL    HW1   11   1.192   1.495   2.347 -3.6542 -0.2549  1.5254
    4SOL    HW2   12   1.285   1.354   2.385  1.5888 -2.0062 -0.0357
    5SOL     OW   13   1.171   1.501   3.080 -0.3195  0.2372 -0.0611
    5SOL    HW1   14   1.244   1.574   3.099  0.9938 -2.2756  0.3725
    5SOL    HW2   15   1.077   1.536   3.101  0.2976  1.1203  0.8479
    6SOL     OW   16   0.094   1.853   2.934  0.0131  0.7629 -0.3162
    6SOL    HW1   17   0.015   1.886   2.994 -2.2745 -2.2885  0.5320
    6SOL    HW2   18   0.160   1.801   3.002  0.0011  0.1821  4.0269
    7SOL     OW   19   2.526   0.930   1.144  0.0990  0.4010 -0.1575
    7SOL    HW1   20   2.466   0.843   1.153  2.0911  1.4711 -1.9877
    7SOL    HW2   21   2.559   0.956   1.046 -1.2854  1.9453 -1.5574
    8SOL     OW   22   0.421   0.580   1.529 -0.4840 -0.2199  0.0124
    8SOL    HW1   23   0.515   0.550   1.567  0.7316  0.3042 -0.5858
    8SOL    HW2   24   0.415   0.585   1.426 -1.2316 -2.5925  0.0981
    9SOL     OW   25   1.141   0.910   2.314 -0.0290 -0.2650  0.2878
    9SOL    HW1   26   1.230   0.937   2.271 -0.2000  1.5140  1.0051
    9SOL    HW2   27   1.065   0.881   2.241 -0.0053  0.0680 -1.5671
   10SOL     OW   28   0.650   1.332   1.273 -0.9694 -0.0957  0.3550
   10SOL    HW1   29   0.556   1.353   1.236  3.2233  3.1973  0.6026
   10SOL    HW2   30   0.710   1.417   1.270 -1.3191  2.0789 -0.6358
   11SOL     OW   31   2.368   2.748   0.889  0.3382 -0.1317 -0.7141
   11SOL    HW1   32   2.353   2.757   0.991 -1.8630  2.3911 -1.7827
   11SOL    HW2   33   2.466   2.758   0.870 -1.2920 -1.2954 -0.4299
   12SOL     OW   34   1.476   0.870   0.343  0.0287 -0.1212  0.7870
   12SOL    HW1   35   1.385   0.917   0.321 -0.7827  1.9270  0.0646
   12SOL    HW2   36   1.503   0.784   0.286  0.8964 -3.4186  1.5948
   13SOL     OW   37   2.508   0.667   1.810  0.1838  0.7403  0.2423
   13SOL    HW1   38   2.428   0.675   1.877 -0.1144 -2.2231 -0.0400
   13SOL    HW2   39   2.474   0.633   1.721 -1.0967 -1.3394  0.6781
   14SOL     OW   40   1.965   0.100   0.732  0.4413 -0.2157 -0.3685
   14SOL    HW1   41   1.893   0.132   0.663  0.0050  0.0526  0.6434
   14SOL    HW2   42   1.914   0.032   0.796  0.3944  2.1818  0.9447
   15SOL     OW   43   1.947   2.011   2.767  0.0857  0.1212 -0.3971
   15SOL    HW1   44   1.897   2.105   2.767  1.3778  1.4908 -1.9353
   15SOL    HW2   45   1.885   1.932   2.733 -0.9854 -0.8988 -2.8183
   16SOL     OW   46   1.612   1.722   3.016 -0.1028  0.0360 -0.1885
   16SOL    HW1   47   1.641   1.623   3.031  0.4668 -1.2458  0.7013
   16SOL    HW2   48   1.660   1.787   3.082 -2.2155  3.5122  1.2287
   17SOL     OW   49   0.100   0.522   0.149  0.0683  0.0964  0.0774
   17SOL    HW1   50   0.186   0.559   0.103  0.8728  1.1275 -0.3968
   17SOL    HW2   51   0.020   0.509   0.083  2.2339  0.8477  0.8471
   18SOL     OW   52   0.948   2.996   2.116 -0.2701  0.4113 -0.8387
   18SOL    HW1   53   0.888   2.914   2.144 -0.7320 -2.0499  1.8240
   18SOL    HW2   54   1.002   2.972   2.036 -2.5180 -0.0188  1.1626
   19SOL     OW   55   0.521   0.826   1.912  0.3728 -0.1428 -0.1345
   19SOL    HW1   56   0.524   0.778   2.001 -0.1010  0.2448 -1.0935
   19SOL    HW2   57   0.611   0.839   1.863  1.7152  0.2659 -1.0428
   20SOL     OW   58   0.215   2.777   0.840  0.3759 -0.2756  0.6005
   20SOL    HW1   59   0.153   2.855   0.814  1.8181 -2.2132 -1.2922
   20SOL    HW2   60   0.274   2.750   0.761  1.1828  1.3329  0.9560
   21SOL     OW   61   2.780   0.178   2.072 -0.0349  0.0342  0.4544
   21SOL    HW1   62   2.716   0.111   2.025 -0.2116 -0.6351  1.8927
   21SOL    HW2   63   2.871   0.141   2.103  0.0172 -1.3477 -0.1622
   22SOL     OW   64   2.357   0.204   0.080  0.0340  0.2030 -0.5580
   22SOL    HW1   65   2.369   0.099   0.065  1.7589 -3.1021 -0.9971
   22SOL    HW2   66   2.260   0.236   0.078  0.2886 -2.7614 -1.2015
   23SOL     OW   67   2.748   0.652   0.621  0.1627  0.2672  0.0578
   23SOL    HW1   68   2.737   0.558   0.569  0.3143  1.4297  0.5495
   23SOL    HW2   69   2.741   0.737   0.559  0.4399 -0.5634  1.1510
   24SOL     OW   70   0.156   1.928   0.379  0.4961 -0.1682 -0.2990
   24SOL    HW1   71   0.097   1.988   0.319  0.7227 -2.2756 -3.4345
   24SOL    HW2   72   0.247   1.905   0.336 -2.7341  0.9222 -1.9745
   25SOL     OW   73   2.226   0.506   0.286 -0.1037  0.3152  0.8351
   25SOL    HW1   74   2.257   0.600   0.266  0.5924 -3.3596 -1.2193
   25SOL    HW2   75   2.193   0.448   0.203  1.8676  1.2182 -2.6977
   26SOL     OW   76   2.528   2.111   2.081  0.1565 -0.3073  0.2539
   26SOL    HW1   77   2.588   2.165   2.151  2.2610  3.2225  0.6243
   26SOL    HW2   78   2.575   2.030   2.036 -0.3677  1.5791  1.6104
   27SOL     OW   79   0.596   2.964   0.177  0.2656  0.8061  0.0353
   27SOL    HW1   80   0.699   2.958   0.190  0.1651  0.8754  1.4996
   27SOL    HW2   81   0.566   2.975   0.077 -0.1716  0.9199 -0.0636
   28SOL     OW   82   1.545   0.176   0.290  0.4312 -0.0068  0.1473
   28SOL    HW1   83   1.593   0.168   0.199  0.4718  0.1588  0.2598
   28SOL    HW2   84   1.545   0.275   0.325  2.9828 -2.2169 -1.1655
   29SOL     OW   85   1.961   0.548   0.404 -0.0369  0.0061  0.2035
   29SOL    HW1   86   1.942   0.649   0.439 -2.5437  1.1974  1.6867
   29SOL    HW2   87   2.059   0.525   0.390  1.3657  2.2852 -0.3565
   30SOL     OW   88   0.217   2.034   0.901 -0.6079 -0.0084  0.2722
   30SOL    HW1   89   0.216   2.056   0.804  1.8376  0.4599  3.1404
   30SOL    HW2   90   0.121   2.058   0.937  0.3156 -3.3825 -3.2551
   31SOL     OW   91   2.102   3.074   2.310  0.2279  0.0622  0.0562
   31SOL    HW1   92   2.082   3.092   2.413 -0.1217 -1.5324  1.9462
   31SOL    HW2   93   2.015   3.036   2.268 -1.7119 -0.4690  0.4449
   32SOL     OW   94   2.954   0.174   0.262  0.0485 -0.9128  0.3236
   32SOL    HW1   95   2.923   0.107   0.328  0.2744  1.5623 -1.1239
   32SOL    HW2   96   3.048   0.212   0.279 -1.2373  0.2255 -1.0975
   33SOL     OW   97   0.934   0.336   0.593 -0.2077 -0.3579 -0.0124
   33SOL    HW1   98   0.941   0.244   0.542  0.5494  1.0775 -3.4067
   33SOL    HW2   99   1.016   0.360   0.653  3.6898  0.0076  2.7371
   34SOL     OW  100   0.344   2.820   1.116 -0.7318  0.1880 -0.9331
   34SOL    HW1  101   0.285   2.812   1.031 -1.5007 -1.4282 -0.8798
   34SOL    HW2  102   0.444   2.822   1.091 -0.8629 -0.7694  0.4821
   35SOL     OW  103   3.098   0.225   1.830 -0.2983 -0.0211 -0.3635
   35SOL    HW1  104   3.137   0.138   1.873 -0.6398 -1.8992 -0.4405
   35SOL    HW2  105   3.047   0.203   1.739 -1.2293 -0.8589 -1.3809
   36SOL     OW  106   1.966   1.092   1.832  0.3131  0.7722 -0.3665
   36SOL    HW1  107   1.993   1.067   1.738  2.2670 -0.1563 -2.2356
   36SOL    HW2  108   2.013   1.174   1.870 -0.2318  0.0231 -1.3681
   37SOL     OW  109   1.209   0.169   0.881 -0.1103 -0.5139 -0.1366
   37SOL    HW1  110   1.261   0.226   0.949 -0.6564 -1.7206 -1.6812
   37SOL    HW2  111   1.265   0.089   0.843  0.0339  1.6636 -0.4335
   38SOL     OW  112   1.111   2.787   2.414  0.0454  0.2749 -0.0059
   38SOL    HW1  113   1.042   2.719   2.434 -0.4772  1.9901  0.0684
   38SOL    HW2  114   1.071   2.882   2.392 -0.5362 -1.0863 -1.8691
   39SOL     OW  115   2.344   1.399   3.026 -0.3170  0.3267  0.5080
   39SOL    HW1  116   2.411   1.318   3.039 -4.7044 -2.1461  0.3753
   39SOL    HW2  117   2.301   1.434   3.114  4.1210  0.0266 -0.0436
   40SOL     OW  118   2.091   2.496   2.575 -0.4359 -0.3587  0.2655
   40SOL    HW1  119   2.040   2.584   2.592  1.4737 -0.7233  2.5325
   40SOL    HW2  120   2.027   2.420   2.541  3.6580 -0.4064  1.5332
   41SOL     OW  121   2.976   0.662   2.773  0.4974 -0.5419  0.4861
   41SOL    HW1  122   2.891   0.717   2.743  1.2400 -2.2210  2.2562
   41SOL    HW2  123   2.952   0.556   2.762  2.4041 -0.7952  1.2291
   42SOL     OW  124   1.764   1.781   0.539 -0.2362 -0.0992  0.2484
   42SOL    HW1  125   1.713   1.693   0.518 -1.4202  0.5399  0.1645
   42SOL    HW2  126   1.790   1.829   0.448  0.0625  1.1836 -2.0575
   43SOL     OW  127   0.468   1.695   1.082 -0.1192 -0.8469  0.2287
   43SOL    HW1  128   0.445   1.623   1.147  0.2557  1.7939  2.1359
   43SOL    HW2  129   0.393   1.703   1.010 -1.7235  1.0418 -0.9387
   44SOL     OW  130   1.827   2.478   3.055 -0.0128 -0.2780  0.1931
   44SOL    HW1  131   1.815   2.560   2.995 -1.3071  1.5598  0.2579
   44SOL    HW2  132   1.922   2.456   3.067  1.6194  2.4226 -0.8262
   45SOL     OW  133   0.344   1.916   2.605  0.6452  0.7908 -0.4180
   45SOL    HW1  134   0.300   1.910   2.509  1.8658 -1.7090  2.1091
   45SOL    HW2  135   0.416   1.838   2.624  0.0861  1.7000 -1.6860
   46SOL     OW  136   1.239   0.679   0.164  0.1158  0.5083  0.7091
   46SOL    HW1  137   1.263   0.778   0.139 -0.3505 -1.0314  0.7683
   46SOL    HW2  138   1.145   0.661   0.206  1.2742 -1.8354  0.5756
   47SOL     OW  139   0.206   2.461   1.632  0.0681  0.6023 -0.4453
   47SOL    HW1  140   0.265   2.373   1.629  0.8827 -3.1562 -1.1319
   47SOL    HW2  141   0.188   2.503   1.536 -2.3731  0.9728  2.3862
   48SOL     OW  142   2.612   0.614   0.135 -0.4408 -0.1248 -0.0176
   48SOL    HW1  143   2.565   0.618   0.226 -1.5515 -0.5748 -3.5779
   48SOL    HW2  144   2.696   0.669   0.144 -0.0124  2.8166  1.6476
   49SOL     OW  145   0.331   0.777   1.709 -0.5931  0.3891 -0.1251
   49SOL    HW1  146   0.407   0.788   1.781  0.5256 -0.9076  0.9164
   49SOL    HW2  147   0.351   0.702   1.638  1.9470 -0.2711  0.0514
   50SOL     OW  148   1.660   1.136   0.298  0.0360 -0.0101 -0.6368
   50SOL    HW1  149   1.653   1.039   0.279  0.0800  2.5841  1.3538
   50SOL    HW2  150   1.607   1.165   0.379  0.5770  1.5657 -1.2621
   51SOL     OW  151   2.894   1.835   0.373 -0.1478  0.3606  0.1171
   51SOL    HW1  152   2.915   1.793   0.277 -1.9531 -2.0449  0.5687
   51SOL    HW2  153   2.927   1.774   0.448 -0.4508  0.1197  0.1620
   52SOL     OW  154   0.779   1.990   0.476  0.3044  0.0842 -0.3722
   52SOL    HW1  155   0.687   2.034   0.503  1.2326 -0.4461  0.7345
   52SOL    HW2  156   0.803   1.917   0.543  1.5846  3.4359  3.0870
   53SOL     OW  157   0.076   0.419   1.580  1.2036  0.4496  0.6499
   53SOL    HW1  158   0.104   0.480   1.655  1.7139 -0.0249 -0.5898
   53SOL    HW2  159   0.012   0.465   1.519  4.3719  1.1866 -1.3401
   54SOL     OW  160   1.777   0.465   3.073  0.6084 -0.2329 -0.6987
   54SOL    HW1  161   1.810   0.411   3.156  3.4355 -0.8414  0.6186
   54SOL    HW2  162   1.675   0.470   3.069  1.7996  0.6550 -0.6524
   55SOL     OW  163   0.779   2.906   0.677  0.1733  0.1292  0.3986
   55SOL    HW1  164   0.710   2.980   0.674  2.0153 -2.4601  1.6051
   55SOL    HW2  165   0.866   2.924   0.624 -3.1579  3.5462 -3.3886
   56SOL     OW  166   0.444   1.570   3.080  0.2349  0.6874  0.8648
   56SOL    HW1  167   0.346   1.593   3.063 -0.6045  1.1565  1.7424
   56SOL    HW2  168   0.475   1.474   3.036  0.0083  3.8325 -0.7433
   57SOL     OW  169   1.790   2.516   2.611 -0.6249  0.2182 -0.8251
   57SOL    HW1  170   1.828   2.449   2.545 -1.6268 -1.9294 -0.2387
   57SOL    HW2  171   1.687   2.495   2.628  0.8597 -1.7597 -1.0399
   58SOL     OW  172   0.655   0.347   1.036 -0.0303 -0.3867  0.1637
   58SOL    HW1  173   0.585   0.422   1.027  0.4455 -2.7406 -1.1866
   58SOL    HW2  174   0.603   0.261   1.059  1.4137 -2.2935  0.1535
   59SOL     OW  175   0.427   2.399   2.776  0.4951  0.0900  0.0159
   59SOL    HW1  176   0.439   2.305   2.737 -0.1906  0.5872 -0.8256
   59SOL    HW2  177   0.509   2.435   2.837  0.5093 -0.1168  0.0434
   60SOL     OW  178   2.298   2.036   2.201 -0.6306  0.0459 -0.2215
   60SOL    HW1  179   2.394   2.057   2.164  2.8640  2.0135 -0.7459
   60SOL    HW2  180   2.276   2.069   2.297 -1.4373  0.6902  0.8785
   61SOL     OW  181   1.296   0.604   0.490  0.1052  0.2718 -0.5254
   61SOL    HW1  182   1.218   0.658   0.540 -0.9464  1.5160  0.4579
   61SOL    HW2  183   1.309   0.635   0.391  1.3154  1.0517 -2.0270
   62SOL     OW  184   2.707   1.791   2.926  0.7431 -0.3140  0.0937
   62SOL    HW1  185   2.682   1.697   2.971  1.8093 -1.1950 -1.2655
   62SOL    HW2  186   2.793   1.792   2.874 -1.5869 -0.4053  0.4799
   63SOL     OW  187   0.608   0.909   0.156 -0.1741 -0.9893 -0.3063
   63SOL    HW1  188   0.611   1.011   0.149  2.5002  0.4289  0.1968
   63SOL    HW2  189   0.684   0.873   0.219  3.8951  0.9725 -0.2519
   64SOL     OW  190   0.115   0.558   2.533  0.7299 -0.2358 -0.7188
   64SOL    HW1  191   0.192   0.515   2.585 -0.1399 -1.1358  0.8023
   64SOL    HW2  192   0.130   0.646   2.486 -1.5659 -1.1694  2.7287
   65SOL     OW  193   0.196   1.480   0.569 -0.5817 -0.1704 -0.4503
   65SOL    HW1  194   0.229   1.536   0.652 -0.5017  1.5370  0.8666
   65SOL    HW2  195   0.281   1.468   0.508  1.2640 -3.5213 -1.7696
   66SOL     OW  196   2.530   0.383   0.579  0.0892 -0.8706 -0.2004
   66SOL    HW1  197   2.535   0.428   0.673  0.8924  0.7032  0.2990
   66SOL    HW2  198   2.542   0.282   0.583 -0.6077 -1.4246  0.8604
   67SOL     OW  199   0.548   2.524   1.365 -0.4904 -0.2141 -0.0246
   67SOL    HW1  200   0.605   2.516   1.450  0.5862  1.5069  0.0375
   67SOL    HW2  201   0.481   2.445   1.342 -1.0143 -0.7627 -2.1513
   68SOL     OW  202   1.019   1.122   2.440  0.4651 -0.0979 -0.3153
   68SOL    HW1  203   1.061   1.029   2.423  0.1649  0.0068  2.2963
   68SOL    HW2  204   0.929   1.133   2.390  1.4777  4.1206  0.4351
   69SOL     OW  205   0.778   2.777   2.223 -0.5191 -0.3159  0.0191
   69SOL    HW1  206   0.810   2.681   2.192  0.1157  1.5912 -2.2293
   69SOL    HW2  207   0.678   2.790   2.193 -3.8725  0.9707  0.3253
   70SOL     OW  208   0.590   0.307   2.716 -0.3826  0.4404 -0.0349
   70SOL    HW1  209   0.566   0.346   2.809 -0.6105 -1.5964  1.4036
   70SOL    HW2  210   0.586   0.201   2.707 -2.3965 -2.2578 -0.4066
   71SOL     OW  211   1.056   1.728   0.355 -0.1503 -0.5249  0.3636
   71SOL    HW1  212   0.983   1.660   0.383  0.3353 -1.9491  1.2670
   71SOL    HW2  213   1.053   1.757   0.252  1.6781 -0.5468 -2.5246
   72SOL     OW  214   1.804   0.167   2.088  0.4144  0.1073  1.0613
   72SOL    HW1  215   1.846   0.201   1.999 -2.7156  0.3008  0.9856
   72SOL    HW2  216   1.818   0.066   2.099  0.1800 -1.3456 -2.2794
   73SOL     OW  217   2.820   2.143   2.444  0.6951 -0.3208 -0.5327
   73SOL    HW1  218   2.789   2.041   2.408 -1.7096 -4.7161 -2.3484
   73SOL    HW2  219   2.833   2.151   2.547 -2.2594  0.4211 -0.1884
   74SOL     OW  220   2.716   2.895   2.051 -0.5212 -0.0850  1.0499
   74SOL    HW1  221   2.658   2.915   2.130  3.7361 -1.1697 -0.0624
   74SOL    HW2  222   2.809   2.934   2.061  0.0861 -2.8980 -0.3945
   75SOL     OW  223   0.927   0.738   1.062  0.0401  0.1439  0.4362
   75SOL    HW1  224   0.839   0.791   1.038  3.1253 -2.0149  3.0142
   75SOL    HW2  225   0.990   0.793   1.124 -1.3349 -0.9391  0.3914
   76SOL     OW  226   1.674   1.281   2.532 -0.7838  0.0052  0.0583
   76SOL    HW1  227   1.575   1.251   2.553  1.8287 -0.5895  1.3281
   76SOL    HW2  228   1.692   1.369   2.588  0.2939  2.3825  0.0623
   77SOL     OW  229   2.958   0.935   0.961  0.1828 -0.0698  0.1475
   77SOL    HW1  230   2.941   0.843   0.916  3.0568 -2.1052 -0.5753
   77SOL    HW2  231   2.974   0.936   1.061  1.4497 -0.5243 -0.5833
   78SOL     OW  232   2.059   1.382   1.531  0.5660 -0.1043 -0.2900
   78SOL    HW1  233   2.140   1.447   1.521 -0.7143  1.3175  0.6477
   78SOL    HW2  234   2.046   1.319   1.448 -0.5491  0.1663 -0.9929
   79SOL     OW  235   0.657   1.342   0.880 -0.2572 -0.8483 -0.1709
   79SOL    HW1  236   0.562   1.381   0.877 -0.2824  1.6783  0.4659
   79SOL    HW2  237   0.687   1.305   0.786 -1.5250 -1.1701 -1.3001
   80SOL     OW  238   0.668   0.458   1.618 -0.5269 -0.0154 -0.1146
   80SOL    HW1  239   0.724   0.519   1.553  0.8294 -2.8788 -1.6098
   80SOL    HW2  240   0.689   0.357   1.611 -0.9983  0.7613 -0.2507
   81SOL     OW  241   1.041   1.390   2.599 -0.1637 -0.3335  0.3964
   81SOL    HW1  242   1.062   1.292   2.557  0.1787 -1.4263 -4.1570
   81SOL    HW2  243   0.963   1.438   2.552  0.4185  2.6596 -1.7941
   82SOL     OW  244   0.934   2.939   1.498  0.5173  0.0715 -0.4552
   82SOL    HW1  245   0.967   2.971   1.405 -0.1810  0.3241 -0.2196
   82SOL    HW2  246   0.845   2.887   1.485  0.4279 -0.4856  1.2847
   83SOL     OW  247   2.704   2.502   0.848  0.2573 -0.0888  0.2533
   83SOL    HW1  248   2.637   2.437   0.802  3.6625  1.0682 -0.9389
   83SOL    HW2  249   2.689   2.604   0.822  2.1555  2.8927  0.6295
   84SOL     OW  250   0.682   3.058   2.314  0.0734 -0.4333  0.2387
   84SOL    HW1  251   0.635   3.029   2.407 -2.8091 -1.9394  1.6404
   84SOL    HW2  252   0.784   3.054   2.317  1.1626  3.3005  0.5403
   85SOL     OW  253   0.349   1.595   1.539 -0.1337 -0.7584 -0.4113
   85SOL    HW1  254   0.292   1.680   1.534 -2.8489  1.1630 -0.3038
   85SOL    HW2  255   0.345   1.558   1.635 -2.0122  0.1856  2.1929
   86SOL     OW  256   0.381   0.970   1.515  0.4003 -0.1677 -0.2265
   86SOL    HW1  257   0.348   0.926   1.423  2.0730 -0.8958 -1.9498
   86SOL    HW2  258   0.393   0.896   1.590  0.2092  0.6000  0.4480
   87SOL     OW  259   1.556   0.665   0.184  0.7295  0.2035  0.1218
   87SOL    HW1  260   1.642   0.721   0.175 -1.6577 -1.4720  0.0006
   87SOL    HW2  261   1.527   0.619   0.094 -1.6067 -2.1655  1.4462
   88SOL     OW  262   1.570   1.388   0.228 -0.3068 -0.4320 -0.4089
   88SOL    HW1  263   1.604   1.291   0.244 -1.5225 -0.4420  0.9423
   88SOL    HW2  264   1.466   1.409   0.241  0.4421 -2.4012 -0.0653
   89SOL     OW  265   0.021   0.430   0.589 -0.4628 -0.2209  0.0385
   89SOL    HW1  266   0.090   0.354   0.588 -0.9453  0.6143 -3.0305
   89SOL    HW2  267  -0.080   0.398   0.573 -2.0829  0.2470  0.2311
   90SOL     OW  268   0.926   1.613   0.012 -0.0181  0.6590  0.3547
   90SOL    HW1  269   0.860   1.576   0.084  0.1127  2.7055  2.8327
   90SOL    HW2  270   0.880   1.632  -0.080  0.3493  0.1538  0.9427
   91SOL     OW  271   1.262   1.434   1.786 -0.1005  0.4190 -0.1534
   91SOL    HW1  272   1.231   1.507   1.852 -0.4611  0.7978 -3.8976
   91SOL    HW2  273   1.364   1.436   1.763 -0.4099 -0.1203 -2.3327
   92SOL     OW  274  -0.001   0.943   1.216  0.7174 -0.8207 -0.1900
   92SOL    HW1  275   0.051   1.018   1.170 -0.2105 -0.7013  0.5665
   92SOL    HW2  276   0.020   0.953   1.320  0.0632  1.5633  1.6296
   93SOL     OW  277   0.024   2.748   0.016  0.5966 -0.2633 -0.4283
   93SOL    HW1  278  -0.034   2.752  -0.069  0.4458  3.7564  0.0107
   93SOL    HW2  279   0.064   2.654   0.029  2.5096  0.7976  0.6240
   94SOL     OW  280   1.522   1.461   1.760 -0.4089 -0.7537  0.2301
   94SOL    HW1  281   1.573   1.375   1.784 -2.1905 -3.6483 -0.5695
   94SOL    HW2  282   1.562   1.544   1.809 -0.0284 -1.1328 -1.7744
   95SOL     OW  283   1.408   2.517   3.024  0.5339  0.0094  0.0907
   95SOL    HW1  284   1.314   2.517   3.063 -0.6286 -0.1815  0.9688
   95SOL    HW2  285   1.427   2.432   2.964 -0.5114 -0.5412 -1.2636
   96SOL     OW  286   0.541   2.064   1.320  0.4485  0.9707  0.1667
   96SOL    HW1  287   0.496   2.028   1.236  0.7677  1.4033  2.9428
   96SOL    HW2  288   0.605   2.003   1.371  0.4026  0.7124 -0.1324
   97SOL     OW  289   0.406   1.626   2.439 -0.3412  0.5180 -0.0322
   97SOL    HW1  290   0.310   1.582   2.432 -1.1266 -0.2704 -1.0342
   97SOL    HW2  291   0.430   1.650   2.534  0.8101 -2.4116 -0.7521
   98SOL     OW  292   1.957   1.592   1.245  0.0283  0.0722  0.1173
   98SOL    HW1  293   1.924   1.544   1.325  1.4678  0.0808 -1.4156
   98SOL    HW2  294   1.956   1.531   1.161 -0.9236  0.3677 -0.6026
   99SOL     OW  295   2.469   2.133   1.362 -0.2743  0.0648  0.2005
   99SOL    HW1  296   2.453   2.207   1.432  0.4161 -0.0217  0.0661
   99SOL    HW2  297   2.419   2.046   1.386  1.0920 -1.3098 -0.5692
  100SOL     OW  298   2.292   0.350   2.076  0.1632 -0.6461 -0.2860
  100SOL    HW1  299   2.232   0.319   2.158 -1.7759  1.2968  1.3884
  100SOL    HW2  300   2.395   0.371   2.101  0.7351 -1.6271  2.6087
  101SOL     OW  301   0.350   1.515   0.250 -0.4336  0.4742 -0.1853
  101SOL    HW1  302   0.414   1.519   0.333  0.3678  2.4693  1.6171
  101SOL    HW2  303   0.359   1.594   0.183  0.2919  1.2645 -1.7565
  102SOL     OW  304   2.305   1.006   0.843 -0.6045 -0.7547  0.5430
  102SOL    HW1  305   2.215   0.964   0.825  1.8278  0.0293 -0.8536
  102SOL    HW2  306   2.316   1.094   0.782 -0.9316  3.2313  1.4984
  103SOL     OW  307   2.298   0.018   0.402 -0.1533 -0.0882 -0.0641
  103SOL    HW1  308   2.322   0.115   0.364  3.3375  0.2079 -2.2866
  103SOL    HW2  309   2.369  -0.026   0.459 -2.4986 -1.4363 -2.1880
  104SOL     OW  310   0.097   1.755   2.187  0.4504  0.5496 -0.7889
  104SOL    HW1  311   0.126   1.752   2.086  0.5420  2.7194  2.0998
  104SOL    HW2  312  -0.009   1.763   2.185 -1.7282 -0.4413  0.7815
  105SOL     OW  313   1.277   2.115   0.774 -0.0285  0.2417 -0.2233
  105SOL    HW1  314   1.198   2.149   0.717 -0.4577  0.7865 -0.6303
  105SOL    HW2  315   1.285   2.012   0.770 -3.3136 -1.0575  2.6468
  106SOL     OW  316   2.147   0.520   1.398 -0.0624 -0.8613 -0.2305
  106SOL    HW1  317   2.091   0.451   1.454 -1.4804 -0.7784  1.0948
  106SOL    HW2  318   2.158   0.612   1.444  1.1212  0.2289  0.7394
  107SOL     OW  319   1.753   3.001   1.141 -0.3384  0.4398  0.6435
  107SOL    HW1  320   1.811   3.077   1.181  2.6482 -1.5654  0.0260
  107SOL    HW2  321   1.698   2.955   1.221  0.1329  0.7477  1.0543
  108SOL     OW  322   0.828   2.782   1.189 -0.1381  0.4137 -0.2877
  108SOL    HW1  323   0.798   2.791   1.289 -2.0103  0.9188 -0.8924
  108SOL    HW2  324   0.929   2.758   1.178  1.3414  0.3594  1.0127
  109SOL     OW  325   2.222   0.105   0.761 -0.6956 -0.3024 -0.4622
  109SOL    HW1  326   2.119   0.097   0.735 -2.4199 -1.7114 -0.5677
  109SOL    HW2  327   2.228   0.120   0.866  0.2565 -0.6215  1.5720
  110SOL     OW  328   0.446   2.862   2.758  0.0260 -0.4716  0.4574
  110SOL    HW1  329   0.423   2.870   2.655 -0.2062  1.8335  1.7925
  110SOL    HW2  330   0.521   2.794   2.774 -1.9186  0.1280 -1.0869
  111SOL     OW  331   1.304   0.504   2.282  0.0756 -0.1695  0.1506
  111SOL    HW1  332   1.240   0.545   2.354 -1.7953  0.8709 -2.6763
  111SOL    HW2  333   1.359   0.425   2.323  0.1372 -2.2381  1.4128
  112SOL     OW  334   1.734   0.514   1.492 -0.8026  0.4189 -0.0345
  112SOL    HW1  335   1.762   0.479   1.399 -1.1101  0.3871  1.4983
  112SOL    HW2  336   1.691   0.444   1.551 -1.3881 -0.7726 -1.0705
  113SOL     OW  337   2.258   1.647   1.783  0.1213  0.0867  0.1278
  113SOL    HW1  338   2.288   1.549   1.759  1.8750 -0.2277 -0.9296
  113SOL    HW2  339   2.270   1.673   1.883 -3.5513  1.2430 -1.0166
  114SOL     OW  340   0.402   0.495   1.243 -0.3538 -0.1949  0.0969
  114SOL    HW1  341   0.455   0.560   1.180 -0.7233 -1.8956  0.0441
  114SOL    HW2  342   0.311   0.471   1.208  2.2389 -0.4400  1.0311
  115SOL     OW  343   2.780   1.641   1.298  0.2400 -0.5629  0.6242
  115SOL    HW1  344   2.776   1.537   1.319  0.6137  0.3722  0.1980
  115SOL    HW2  345   2.802   1.663   1.199  1.1032  0.3656 -0.8306
  116SOL     OW  346   1.837   1.038   0.704  0.1900 -0.0621 -0.2946
  116SOL    HW1  347   1.758   1.020   0.635 -2.2268  1.1485 -2.0959
  116SOL    HW2  348   1.834   1.127   0.756  1.5490 -0.3762  0.3968
  117SOL     OW  349   1.188   0.388   0.709  0.4468  0.3390 -0.0034
  117SOL    HW1  350   1.220   0.375   0.802 -4.4667  0.9901 -1.0419
  117SOL    HW2  351   1.214   0.483   0.674  3.0773  2.5410  1.5783
  118SOL     OW  352   1.108   1.161   1.067 -0.0146 -0.6525 -0.3189
  118SOL    HW1  353   1.061   1.073   1.107  1.1820  0.4790  0.4876
  118SOL    HW2  354   1.153   1.224   1.136  0.0216  0.2932  1.9391
  119SOL     OW  355   1.829   1.607   2.108  0.0477 -0.2760  0.5472
  119SOL    HW1  356   1.816   1.707   2.140  2.3863 -3.6869  0.7240
  119SOL    HW2  357   1.926   1.576   2.115 -1.3292  1.2174 -1.7625
  120SOL     OW  358   2.930   2.830   0.210 -0.4613 -0.2824 -0.0809
  120SOL    HW1  359   2.995   2.799   0.130  0.9598 -1.5421 -1.5303
  120SOL    HW2  360   2.853   2.768   0.219  0.0781 -0.3138 -3.2839
  121SOL     OW  361   2.024   0.763   2.317 -0.0781 -0.1890  0.6292
  121SOL    HW1  362   2.059   0.822   2.241  1.7533 -0.1561 -1.0918
  121SOL    HW2  363   2.033   0.659   2.300 -0.9943 -0.0933  2.3132
  122SOL     OW  364   2.623   2.697   1.246  0.9223 -0.5810 -0.3698
  122SOL    HW1  365   2.668   2.608   1.214 -0.2267  2.6915  1.2240
  122SOL    HW2  366   2.603   2.765   1.169 -1.5949 -0.6473 -1.7416
  123SOL     OW  367   1.726   0.065   1.673  0.4419  0.1665  0.1931
  123SOL    HW1  368   1.749  -0.015   1.612 -0.9475  0.2865 -0.6235
  123SOL    HW2  369   1.805   0.092   1.738 -0.6284 -0.2193 -2.0928
  124SOL     OW  370   0.130   0.418   1.114  0.0731  0.1327 -0.4649
  124SOL    HW1  371   0.098   0.511   1.162 -2.2497 -0.8044 -1.8116
  124SOL    HW2  372   0.112   0.436   1.017  1.4484  1.5700  2.2795
  125SOL     OW  373   0.841   1.820   0.686  0.0327  0.6616 -0.0339
  125SOL    HW1  374   0.936   1.783   0.706 -1.4160 -0.0672  1.7639
  125SOL    HW2  375   0.789   1.845   0.769 -2.6418  2.6135 -1.1239
  126SOL     OW  376   1.901   2.316   2.476 -0.3163 -0.3014  0.2772
  126SOL    HW1  377   1.969   2.282   2.403  0.9211  0.2979  1.1698
  126SOL    HW2  378   1.841   2.239   2.510  2.2858  0.3749  4.4038
  127SOL     OW  379   0.851   0.884   0.307  0.6258 -0.1104 -0.1523
  127SOL    HW1  380   0.870   0.933   0.397 -0.8324 -0.2745 -0.7664
  127SOL    HW2  381   0.915   0.806   0.281 -2.1848 -1.2580 -0.8915
  128SOL     OW  382   0.967   0.228   1.371 -0.0826  0.2166  0.2901
  128SOL    HW1  383   0.931   0.318   1.325 -0.8116  4.5939 -2.2627
  128SOL    HW2  384   0.918   0.144   1.332 -2.2066  0.1509 -1.2940
  129SOL     OW  385   1.836   0.714   1.887 -0.0907  0.7913  0.0316
  129SOL    HW1  386   1.848   0.718   1.790  0.2216  1.4408  0.4559
  129SOL    HW2  387   1.898   0.780   1.941  1.3070 -0.7100 -3.0970
  130SOL     OW  388   1.372   2.226   1.018  0.1044 -0.7195  0.2411
  130SOL    HW1  389   1.336   2.194   0.925  0.8007 -0.8755 -0.0776
  130SOL    HW2  390   1.447   2.297   1.005  0.2824  1.7790  1.2802
  131SOL     OW  391   3.051   1.439   1.371 -0.5101 -0.2134 -0.2297
  131SOL    HW1  392   3.001   1.353   1.386 -3.7567  0.7994  1.9857
  131SOL    HW2  393   3.151   1.423   1.356 -0.0842 -1.2168 -0.7653
  132SOL     OW  394   2.025   2.453   0.547  1.0475 -0.2640  0.6341
  132SOL    HW1  395   1.928   2.438   0.516 -0.7652  3.1253  2.4234
  132SOL    HW2  396   2.050   2.379   0.616  0.0882  1.1219 -2.3169
  133SOL     OW  397   1.868   2.272   2.766  0.5530  0.4481  0.1207
  133SOL    HW1  398   1.933   2.293   2.843  1.8438  1.3492 -0.3931
  133SOL    HW2  399   1.837   2.357   2.713 -0.5663  2.5334 -1.0091
  134SOL     OW  400   2.690   2.318   1.653  0.5062  0.1819  0.4613
  134SOL    HW1  401   2.628   2.306   1.738 -1.2994  1.3899 -0.8164
  134SOL    HW2  402   2.756   2.397   1.666  2.5401 -0.6313  0.0788
  135SOL     OW  403   0.719   1.501   2.660 -0.2811 -0.8168  0.1549
  135SOL    HW1  404   0.687   1.421   2.713  2.7834  0.8814  1.3846
  135SOL    HW2  405   0.743   1.480   2.554 -0.0658  1.9234 -0.1360
  136SOL     OW  406   1.191   1.946   0.441 -0.0407  0.0941 -0.0710
  136SOL    HW1  407   1.134   1.981   0.518 -1.9958 -0.4469  0.5993
  136SOL    HW2  408   1.144   1.858   0.408 -0.9281 -0.1436 -0.8173
  137SOL     OW  409   0.408   1.133   2.149  0.0651  0.4018 -0.2858
  137SOL    HW1  410   0.332   1.135   2.223  0.7066  2.4618  1.5311
  137SOL    HW2  411   0.478   1.056   2.166  1.5974 -1.2887  1.5701
  138SOL     OW  412   2.484   1.494   0.278  0.2856  0.4137 -0.0730
  138SOL    HW1  413   2.388   1.479   0.243  1.4833 -0.7519 -0.3812
  138SOL    HW2  414   2.509   1.413   0.337 -1.2892 -0.1194  0.6170
  139SOL     OW  415   1.823   2.650   1.298  0.4907  0.1273 -0.0152
  139SOL    HW1  416   1.735   2.642   1.243 -1.4259  0.1569  1.2941
  139SOL    HW2  417   1.848   2.555   1.330  0.8424 -2.1812  3.1616
  140SOL     OW  418   3.005   2.900   2.609  0.3330 -0.1398 -0.1486
  140SOL    HW1  419   3.040   2.798   2.604  3.6636 -0.4853  1.5805
  140SOL    HW2  420   3.083   2.963   2.640  1.5057  1.8271  0.5222
  141SOL     OW  421   1.276   1.700   1.619  0.5334 -0.2503  0.4627
  141SOL    HW1  422   1.219   1.784   1.638  0.4709  2.0708 -0.0826
  141SOL    HW2  423   1.290   1.639   1.701 -0.4984 -1.2932  0.2252
  142SOL     OW  424   1.554   0.613   2.206  0.2385 -0.4843  0.8882
  142SOL    HW1  425   1.551   0.598   2.102 -0.5054  2.2148 -0.2082
  142SOL    HW2  426   1.461   0.591   2.247  3.2385 -0.5440 -0.6834
  143SOL     OW  427   2.739   0.906   0.485 -0.1528 -0.2445  0.1003
  143SOL    HW1  428   2.770   0.966   0.404  1.1329  2.1916 -0.3897
  143SOL    HW2  429   2.790   0.943   0.573  1.7385 -0.9371  2.2961
  144SOL     OW  430   2.935   1.185   1.452  0.0845 -0.5496  0.1193
  144SOL    HW1  431   2.850   1.170   1.507  1.3607 -0.1469 -1.5760
  144SOL    HW2  432   3.008   1.114   1.468 -1.4227  0.1359  1.7229
  145SOL     OW  433   1.000   1.859   0.076 -0.1040 -0.0245 -0.0638
  145SOL    HW1  434   0.993   1.929   0.001  1.3884  0.6561 -0.6875
  145SOL    HW2  435   0.971   1.765   0.041 -2.3626  0.7505  1.7481
  146SOL     OW  436   2.459   0.694   1.518  0.2536 -0.0173 -0.4229
  146SOL    HW1  437   2.431   0.610   1.464  1.0999 -0.4268 -1.7295
  146SOL    HW2  438   2.407   0.775   1.474  1.6196 -1.3197  1.5767
  147SOL     OW  439   1.111   2.482   0.611  0.4765  0.3652 -0.2861
  147SOL    HW1  440   1.062   2.535   0.531  1.5954 -0.3388  2.2184
  147SOL    HW2  441   1.194   2.429   0.570  0.4483 -1.1706 -0.0221
  148SOL     OW  442   1.664   1.459   3.075  0.2742  0.2955 -0.2541
  148SOL    HW1  443   1.667   1.377   3.008 -0.6473  0.3203 -2.3577
  148SOL    HW2  444   1.622   1.425   3.164  0.5653 -1.8072 -0.4315
  149SOL     OW  445   0.706   1.432   1.967 -0.2852 -0.2046  0.3530
  149SOL    HW1  446   0.619   1.416   2.018 -0.2711 -0.5727 -0.0705
  149SOL    HW2  447   0.717   1.373   1.885  2.3898 -1.6397  2.7585
  150SOL     OW  448   3.042   1.269   0.975 -0.0182  0.3184 -0.2129
  150SOL    HW1  449   3.128   1.240   1.023 -1.0636  0.0795  0.8657
  150SOL    HW2  450   2.971   1.192   0.965 -0.1073 -0.8949 -0.1704
  151SOL     OW  451   0.232   0.755   2.107  0.3600 -0.2911  0.7533
  151SOL    HW1  452   0.213   0.838   2.045 -2.7663 -1.7609  0.1967
  151SOL    HW2  453   0.205   0.665   2.061  0.9620  0.0817  0.3885
  152SOL     OW  454   1.390   1.787   1.284  0.1465 -0.5409 -0.4866
  152SOL    HW1  455   1.366   1.854   1.359 -0.1625 -2.6437  0.4349
  152SOL    HW2  456   1.304   1.746   1.241  1.0680 -0.5231  0.3993
  153SOL     OW  457   3.058   1.514   0.182 -0.2645 -0.1189 -0.2612
  153SOL    HW1  458   3.078   1.412   0.198  0.7644 -0.4944 -0.8326
  153SOL    HW2  459   3.047   1.570   0.270  0.5086  1.5645 -0.2767
  154SOL     OW  460   2.347   1.838   2.759  0.7077 -0.1546 -0.5399
  154SOL    HW1  461   2.332   1.743   2.792 -0.8042  0.8883  1.1904
  154SOL    HW2  462   2.439   1.854   2.717  0.2302 -1.8066 -1.2622
  155SOL     OW  463   2.422   1.236   0.405 -0.0583  0.1159 -0.3408
  155SOL    HW1  464   2.497   1.186   0.349  0.0055 -0.7133 -3.0624
  155SOL    HW2  465   2.321   1.215   0.373 -0.7050 -2.0747  2.0571
  156SOL     OW  466   2.572   0.984   0.866  0.3039 -0.1550  0.0950
  156SOL    HW1  467   2.469   0.995   0.852 -0.6429  0.6906  1.6087
  156SOL    HW2  468   2.627   1.065   0.830  0.1670  1.8389 -4.4584
  157SOL     OW  469   1.266   2.984   3.067  0.2434 -0.2335  0.1716
  157SOL    HW1  470   1.320   2.982   2.974  0.0329 -3.2059  1.0024
  157SOL    HW2  471   1.265   3.075   3.119  0.0328 -0.8227  2.8387
  158SOL     OW  472   1.018   1.835   1.973  0.4652 -0.3078 -0.8762
  158SOL    HW1  473   1.057   1.927   1.986  0.3214  1.4841 -0.4356
  158SOL    HW2  474   0.921   1.828   2.017 -1.2250  0.7221  0.4719
  159SOL     OW  475   0.838   0.451   1.234 -0.8525 -0.3876 -0.2174
  159SOL    HW1  476   0.787   0.507   1.303 -1.1486 -0.0147  0.0464
  159SOL    HW2  477   0.773   0.398   1.172 -0.7922  1.9406 -1.6274
  160SOL     OW  478   1.422   2.369   1.653 -0.7067 -0.6641 -0.5272
  160SOL    HW1  479   1.408   2.461   1.699 -1.3767 -0.9095  3.1919
  160SOL    HW2  480   1.511   2.357   1.600 -1.1285 -2.1824 -0.5683
  161SOL     OW  481   0.094   2.911   0.304 -0.7875  0.2403 -0.7749
  161SOL    HW1  482   0.006   2.860   0.292  3.1860  2.5499  0.3408
  161SOL    HW2  483   0.115   2.976   0.221  1.8928  1.5409 -0.0804
  162SOL     OW  484   2.543   1.920   0.452 -0.1388 -0.4586  0.2559
  162SOL    HW1  485   2.572   1.854   0.377  1.6752  0.6369 -0.9816
  162SOL    HW2  486   2.511   1.867   0.530  1.7832  3.0649  2.0422
  163SOL     OW  487   1.934   2.730   0.772 -0.0104  0.0163 -0.2997
  163SOL    HW1  488   1.911   2.719   0.671  0.2715  0.3228  0.0493
  163SOL    HW2  489   2.018   2.675   0.792  1.1298  2.8770 -2.1375
  164SOL     OW  490   3.045   0.202   1.186  0.6689  0.1605  0.5751
  164SOL    HW1  491   3.116   0.252   1.130  1.2482 -0.7588  1.4396
  164SOL    HW2  492   3.090   0.135   1.250  1.9147  0.7355 -3.6483
  165SOL     OW  493   0.908   1.427   0.686  0.0748 -0.2439 -0.1161
  165SOL    HW1  494   0.905   1.493   0.771 -2.0230 -0.3342  3.5964
  165SOL    HW2  495   0.894   1.484   0.602  0.9843  0.3676 -0.0358
  166SOL     OW  496   1.477   1.080   1.733  0.8226 -0.0428  0.2243
  166SOL    HW1  497   1.389   1.075   1.784 -1.1888  2.1543 -3.2626
  166SOL    HW2  498   1.547   1.141   1.778 -2.6210 -1.0442  1.1787
  167SOL     OW  499   0.740   1.909   1.475 -0.4870  0.0161 -0.4607
  167SOL    HW1  500   0.739   1.980   1.554 -0.4989 -0.2591  0.7694
  167SOL    HW2  501   0.693   1.820   1.495  0.1035 -1.2537 -0.7443
  168SOL     OW  502   1.638   2.394   0.150  0.5406  0.1053 -0.1224
  168SOL    HW1  503   1.708   2.405   0.075  0.1003 -1.6327  0.0691
  168SOL    HW2  504   1.665   2.328   0.225  4.5120 -0.8292 -1.2636
  169SOL     OW  505   0.183   2.545   2.229 -0.4499  0.0464 -0.0917
  169SOL    HW1  506   0.191   2.501   2.137 -0.6854  1.2074  1.2111
  169SOL    HW2  507   0.243   2.493   2.293 -1.4177 -2.8021 -1.4264
  170SOL     OW  508   1.181   0.248   1.988 -1.2495 -0.0958  0.3023
  170SOL    HW1  509   1.243   0.229   2.070 -1.4099  0.0105 -0.2538
  170SOL    HW2  510   1.199   0.179   1.914 -0.4862  0.2416 -0.0527
  171SOL     OW  511   0.225   0.822   2.373 -0.1019 -0.6125  0.2209
  171SOL    HW1  512   0.141   0.884   2.398 -1.5204  1.0310 -1.5377
  171SOL    HW2  513   0.234   0.810   2.268  1.6402 -1.8912  0.5138
  172SOL     OW  514   0.922   1.070   2.924  0.6247 -0.5400 -0.0468
  172SOL    HW1  515   1.009   1.123   2.936  0.3956 -1.7145 -1.2327
  172SOL    HW2  516   0.895   1.067   2.826 -2.0828  1.8777  2.0149
  173SOL     OW  517   0.667   2.653   0.074  0.1386 -0.4643  0.3681
  173SOL    HW1  518   0.681   2.751   0.061  0.5716  1.4483 -2.7774
  173SOL    HW2  519   0.577   2.627   0.110  1.6746  0.2272 -0.5249
  174SOL     OW  520   1.400   2.825   1.076 -0.2748 -0.9477 -0.4337
  174SOL    HW1  521   1.431   2.916   1.035  1.7726  2.0565 -0.0086
  174SOL    HW2  522   1.401   2.749   1.009  2.0737  1.5057 -0.5350
  175SOL     OW  523   0.378   0.044   1.672 -0.9543  0.1968 -0.1073
  175SOL    HW1  524   0.449   0.076   1.741 -2.2321  0.0552 -0.4199
  175SOL    HW2  525   0.345   0.121   1.613 -2.7983 -0.2024  1.8161
  176SOL     OW  526   2.566   0.377   3.085 -0.0176  0.1610  0.4807
  176SOL    HW1  527   2.575   0.461   3.150  0.0542  2.3088 -0.5336
  176SOL    HW2  528   2.501   0.301   3.109 -1.8825 -4.1123 -2.4050
  177SOL     OW  529   0.342   0.311   0.975  0.2577  0.1113  0.4028
  177SOL    HW1  530   0.377   0.220   1.003 -0.0340  0.9270 -1.9429
  177SOL    HW2  531   0.260   0.348   1.021 -1.7583 -0.9090 -2.3114
  178SOL     OW  532   0.042   2.670   2.654 -0.6125 -0.0434  0.2696
  178SOL    HW1  533  -0.034   2.615   2.699 -0.1992 -0.2735 -1.9951
  178SOL    HW2  534   0.110   2.699   2.727 -1.4308 -0.6130  1.6617
  179SOL     OW  535   0.008   1.694   1.197  0.0619 -0.0126 -0.1525
  179SOL    HW1  536  -0.062   1.763   1.161 -0.9487  1.9738  0.4009
  179SOL    HW2  537  -0.027   1.619   1.255 -0.1940 -2.4711  1.8468
  180SOL     OW  538   0.224   1.196   1.874  0.1144  0.0313 -0.1102
  180SOL    HW1  539   0.322   1.201   1.865 -2.0298 -0.9855 -1.1270
  180SOL    HW2  540   0.186   1.265   1.947  0.8901  2.1787  0.7346
  181SOL     OW  541   3.007   1.833   2.508 -0.1608  0.3315 -0.4758
  181SOL    HW1  542   3.099   1.884   2.499 -0.3027 -2.1049  2.8536
  181SOL    HW2  543   2.926   1.881   2.463 -4.4513 -0.5439 -0.4792
  182SOL     OW  544   2.270   1.299   1.161  0.0087  0.0779  0.0749
  182SOL    HW1  545   2.181   1.260   1.124 -0.4265  1.0643 -0.8521
  182SOL    HW2  546   2.297   1.395   1.125 -0.1372  0.3288 -0.9674
  183SOL     OW  547   1.504   2.242   2.558  0.2421 -0.4110  0.2637
  183SOL    HW1  548   1.417   2.177   2.565 -0.6531  2.3807 -0.7775
  183SOL    HW2  549   1.592   2.196   2.587  0.2936 -0.8801  0.9894
  184SOL     OW  550   2.058   0.894   0.766 -0.2651 -0.0563 -0.2573
  184SOL    HW1  551   1.971   0.951   0.746 -1.3430 -0.8665  1.7974
  184SOL    HW2  552   2.035   0.799   0.803 -0.1759 -2.9102 -1.0457
  185SOL     OW  553   1.562   2.748   2.090 -0.6682  0.6182  0.0756
  185SOL    HW1  554   1.523   2.838   2.048  1.5777  0.3362 -1.3580
  185SOL    HW2  555   1.509   2.704   2.169  0.6026  1.1139  3.5193
  186SOL     OW  556   0.055   2.206   1.690  0.3709  0.5357 -0.2068
  186SOL    HW1  557   0.080   2.298   1.658  0.4707  1.0839  0.4437
  186SOL    HW2  558   0.140   2.145   1.694 -1.5269 -1.3522  2.0352
  187SOL     OW  559   1.389   0.728   1.672  0.1468  0.5912  0.6596
  187SOL    HW1  560   1.483   0.738   1.627  0.4440 -1.3572 -2.5415
  187SOL    HW2  561   1.388   0.754   1.771 -0.9209 -0.5228 -0.0723
  188SOL     OW  562   2.768   2.753   1.448 -0.1096 -0.4243  0.0364
  188SOL    HW1  563   2.791   2.854   1.455 -1.0594  0.7980  1.3604
  188SOL    HW2  564   2.692   2.734   1.376  0.7418  0.3501  0.1501
  189SOL     OW  565   0.844   1.114   1.360  0.3002  0.5973  0.3415
  189SOL    HW1  566   0.916   1.142   1.431 -1.1856  1.2332  0.0892
  189SOL    HW2  567   0.798   1.204   1.333  0.3460  1.5646  1.9883
  190SOL     OW  568   1.533   1.892   1.586 -0.2815  0.1735 -0.5974
  190SOL    HW1  569   1.446   1.834   1.584 -1.4503 -2.0952 -0.1986
  190SOL    HW2  570   1.551   1.930   1.683 -0.4475 -2.1990  0.6144
  191SOL     OW  571   0.986   0.751   1.529  0.1822 -0.0292 -0.3002
  191SOL    HW1  572   1.049   0.667   1.537 -0.7088 -2.1924 -0.7357
  191SOL    HW2  573   1.031   0.839   1.564  0.2740  0.8392  0.9286
  192SOL     OW  574   1.865   2.208   1.131  0.0781 -0.6087  0.5737
  192SOL    HW1  575   1.789   2.170   1.072  0.2888  0.8314  0.9886
  192SOL    HW2  576   1.926   2.279   1.079  1.5485 -1.0184 -1.5473
  193SOL     OW  577   0.508   0.603   0.441 -0.3007 -0.0653  0.8303
  193SOL    HW1  578   0.478   0.521   0.488  2.2870 -0.7324 -0.8666
  193SOL    HW2  579   0.568   0.581   0.356  1.0380  0.0332  0.7964
  194SOL     OW  580   0.310   0.838   1.274 -0.0945  0.7069  0.0941
  194SOL    HW1  581   0.242   0.757   1.267 -0.0352 -0.9752  1.2580
  194SOL    HW2  582   0.319   0.883   1.184 -1.3284 -0.2570  0.2244
  195SOL     OW  583   1.005   2.913   0.537  0.4020  0.2012  0.9782
  195SOL    HW1  584   0.990   2.819   0.503 -1.4093 -2.7847  1.2768
  195SOL    HW2  585   1.097   2.942   0.507  0.0035  0.4281 -2.7051
  196SOL     OW  586   0.245   1.380   1.362 -0.5654  0.1760 -0.0614
  196SOL    HW1  587   0.272   1.469   1.412 -0.6800 -0.4661  0.9122
  196SOL    HW2  588   0.235   1.299   1.431 -0.4284 -0.8710 -0.7667
  197SOL     OW  589   0.829   2.019   0.213  0.2823  0.0536 -0.0967
  197SOL    HW1  590   0.801   2.019   0.316  1.9880  0.1838  1.5645
  197SOL    HW2  591   0.887   1.937   0.183  0.5704 -1.4794  1.5862
  198SOL     OW  592   0.296   1.244   0.240  0.4085 -0.1357 -0.2067
  198SOL    HW1  593   0.196   1.230   0.252 -1.5750 -4.2521  2.1559
  198SOL    HW2  594   0.324   1.346   0.246 -0.5089  0.7250 -1.8514
  199SOL     OW  595   2.212   0.341   2.546 -0.0576  0.1160  0.5688
  199SOL    HW1  596   2.176   0.290   2.622 -0.5506  1.0728 -1.3634
  199SOL    HW2  597   2.315   0.370   2.563  2.7813 -2.7172  0.8349
  200SOL     OW  598   0.044   2.968   0.700 -0.2927 -0.4275  0.2326
  200SOL    HW1  599  -0.021   2.992   0.623  1.3155 -1.9534 -0.6158
  200SOL    HW2  600   0.079   3.053   0.753 -0.5282 -1.1730 -0.3189
  201SOL     OW  601   1.124   0.735   0.628 -0.0430 -0.1364 -0.3268
  201SOL    HW1  602   1.136   0.818   0.689  1.6449 -1.2637  0.8082
  201SOL    HW2  603   1.032   0.695   0.613  0.9823 -0.7120 -0.6782
  202SOL     OW  604   0.508   1.213   1.809  0.5111 -0.2785 -0.3168
  202SOL    HW1  605   0.516   1.207   1.704  0.2629  2.7398 -3.2814
  202SOL    HW2  606   0.527   1.122   1.860  1.6030  0.9798  0.0089
  203SOL     OW  607   0.702   0.194   1.564 -0.1758  0.1197 -0.4289
  203SOL    HW1  608   0.729   0.147   1.471 -0.3636 -0.5754 -2.9837
  203SOL    HW2  609   0.758   0.160   1.646 -1.9084  0.5944 -0.2092
  204SOL     OW  610   2.039   1.870   2.983 -0.1157  0.5652 -0.3573
  204SOL    HW1  611   2.040   1.763   2.970 -0.2001 -1.1492  2.0479
  204SOL    HW2  612   2.008   1.915   2.892  1.5776  1.5821  1.0303
  205SOL     OW  613   1.819   1.854   0.023 -0.4550 -0.4478 -0.1292
  205SOL    HW1  614   1.903   1.841  -0.038  0.9140  0.4034 -2.1340
  205SOL    HW2  615   1.777   1.946  -0.001 -0.0072 -1.4037  1.4110
  206SOL     OW  616   2.511   2.782   0.340 -0.2332 -0.3889  0.7942
  206SOL    HW1  617   2.580   2.706   0.336 -1.2746  2.1306 -1.5657
  206SOL    HW2  618   2.538   2.860   0.274  1.2022 -1.6969  0.5120
  207SOL     OW  619   0.556   1.772   2.930  0.6092 -0.3339  0.2524
  207SOL    HW1  620   0.662   1.774   2.930 -0.8280  1.1719  1.7899
  207SOL    HW2  621   0.522   1.689   2.982 -0.4980  2.0158 -0.1796
  208SOL     OW  622   1.178   1.555   1.404  0.5314  0.3970  0.5350
  208SOL    HW1  623   1.144   1.628   1.333  1.8163 -0.4654 -1.6007
  208SOL    HW2  624   1.207   1.597   1.495 -2.4477 -1.5546 -1.4633
  209SOL     OW  625   0.267   0.971   3.003  0.1488  0.2547 -0.2218
  209SOL    HW1  626   0.320   0.910   2.936  0.4156 -1.8870  1.4045
  209SOL    HW2  627   0.248   0.916   3.089 -0.1497  3.4980  1.1070
  210SOL     OW  628   1.768   0.466   1.214  0.2978  0.3768  0.4824
  210SOL    HW1  629   1.699   0.542   1.197 -1.1421  1.5934 -0.7083
  210SOL    HW2  630   1.866   0.501   1.204 -0.9893  0.4794  1.0651
  211SOL     OW  631   2.125   1.044   1.609 -0.0130 -0.1854 -0.7400
  211SOL    HW1  632   2.177   0.967   1.651  1.3127 -0.4603 -1.5569
  211SOL    HW2  633   2.184   1.098   1.543 -0.2812 -0.3295  3.6481
  212SOL     OW  634   0.040   0.990   1.479 -0.7203 -0.1679  0.2502
  212SOL    HW1  635   0.120   1.047   1.514 -0.4132  0.3495 -1.8785
  212SOL    HW2  636   0.003   0.918   1.541  0.9914 -0.3583 -2.7091
  213SOL     OW  637   2.759   0.395   0.315 -0.0018  0.1166  1.0784
  213SOL    HW1  638   2.807   0.335   0.249 -0.2160  1.0933 -1.8430
  213SOL    HW2  639   2.699   0.453   0.254  0.4445 -3.7132  0.4583
  214SOL     OW  640   2.146   0.263   2.290  0.3810 -0.3782 -0.3788
  214SOL    HW1  641   2.173   0.311   2.378 -2.7685 -1.1438  0.9974
  214SOL    HW2  642   2.116   0.166   2.307  1.1692 -0.7573 -0.1428
  215SOL     OW  643   1.637   2.335   2.045 -0.3592 -0.3467  0.1384
  215SOL    HW1  644   1.738   2.363   2.048 -2.1966 -0.4290  1.5409
  215SOL    HW2  645   1.587   2.381   2.125 -0.6819  1.5272  0.3134
  216SOL     OW  646   2.217   0.604   0.677 -0.0997  0.9242 -0.2548
  216SOL    HW1  647   2.189   0.506   0.657  0.3425  2.1534  0.4253
  216SOL    HW2  648   2.265   0.646   0.593 -0.2456  0.8060 -3.8516
  217SOL     OW  649   0.731   2.764   2.487  0.1543  0.1006  0.0433
  217SOL    HW1  650   0.685   2.683   2.532 -2.4146  0.5065  1.2868
  217SOL    HW2  651   0.750   2.762   2.384  1.6267  1.2492 -0.3652
  218SOL     OW  652   1.930   1.454   0.075  0.3359  0.2842  0.2798
  218SOL    HW1  653   1.831   1.481   0.039 -1.8002  0.2175 -0.7224
  218SOL    HW2  654   1.929   1.359   0.122  3.3551 -0.2228  0.4986
  219SOL     OW  655   2.326   1.282   2.578 -0.0938  0.0125 -0.2544
  219SOL    HW1  656   2.359   1.221   2.501  1.7302 -1.2595 -0.3940
  219SOL    HW2  657   2.326   1.234   2.669  2.2063  4.1241 -2.2585
  220SOL     OW  658   1.524   1.007   1.260 -0.2889  0.3574  0.9202
  220SOL    HW1  659   1.606   1.059   1.291  1.1193 -2.4926  2.3996
  220SOL    HW2  660   1.474   1.049   1.180 -2.7339 -1.1106 -0.1039
  221SOL     OW  661   1.365   1.071   2.180 -0.1179 -0.0232  0.1260
  221SOL    HW1  662   1.315   1.081   2.088 -0.0633 -0.4754 -0.6430
  221SOL    HW2  663   1.464   1.043   2.167  1.2765 -1.1101  1.2060
  222SOL     OW  664   1.208   0.030   1.175 -0.3873  0.0825  0.2461
  222SOL    HW1  665   1.301   0.036   1.222  1.1802  0.1608 -0.3636
  222SOL    HW2  666   1.187   0.115   1.121 -0.2238 -1.5998 -0.2761
  223SOL     OW  667   2.800   0.866   2.058 -0.2679 -0.0175 -0.3795
  223SOL    HW1  668   2.818   0.891   2.154 -0.4036 -1.0723 -0.7293
  223SOL    HW2  669   2.862   0.913   1.991 -1.4285  0.9899 -1.4680
  224SOL     OW  670   1.524   0.992   2.745  0.5926  0.4239 -0.0129
  224SOL    HW1  671   1.573   0.940   2.666 -0.4344 -2.0424  1.0957
  224SOL    HW2  672   1.498   1.093   2.721 -2.1312  2.5973  1.1399
  225SOL     OW  673   2.949   2.787   2.884 -0.2291  0.2079  0.1173
  225SOL    HW1  674   2.912   2.707   2.826 -2.8745 -0.3120  3.2121
  225SOL    HW2  675   2.991   2.861   2.829 -0.2256 -1.0401  2.3972
  226SOL     OW  676   2.416   1.585   2.837 -0.2572  0.4067  0.2904
  226SOL    HW1  677   2.464   1.558   2.749 -1.1908  1.4739  1.3798
  226SOL    HW2  678   2.380   1.503   2.889 -0.6090 -1.1510  1.0117
  227SOL     OW  679   0.833   0.146   3.033  0.2055 -0.1073 -0.3218
  227SOL    HW1  680   0.870   0.060   3.081  0.2436  1.3944 -3.0892
  227SOL    HW2  681   0.855   0.149   2.927 -2.6883  2.3356  0.9724
  228SOL     OW  682   2.403   0.620   2.869 -0.1583 -0.0074  0.0043
  228SOL    HW1  683   2.351   0.633   2.779  0.3864 -0.1984  1.9695
  228SOL    HW2  684   2.492   0.568   2.856  0.6669 -1.9259  1.8850
  229SOL     OW  685   0.609   0.498   1.890 -0.1057 -0.2320  0.1402
  229SOL    HW1  686   0.662   0.419   1.839  2.0811 -0.3459  0.1914
  229SOL    HW2  687   0.625   0.592   1.838  4.9076 -0.6634 -2.2829
  230SOL     OW  688   1.919   1.193   2.131  0.1878 -0.0880 -0.1921
  230SOL    HW1  689   1.983   1.225   2.052 -3.0195  1.9920  0.8026
  230SOL    HW2  690   1.828   1.240   2.132  1.4719 -2.9104 -4.1030
  231SOL     OW  691   0.631   0.981   2.950 -0.5764 -0.0130  0.0725
  231SOL    HW1  692   0.726   1.026   2.936  0.4710  1.6057 -1.3356
  231SOL    HW2  693   0.568   1.032   3.019 -1.4355 -1.1037  0.9824
  232SOL     OW  694   2.448   0.007   2.780  0.4360 -0.0661  0.3949
  232SOL    HW1  695   2.489  -0.083   2.810 -3.1579 -2.9301 -1.6620
  232SOL    HW2  696   2.497   0.057   2.703 -1.3742 -0.5949  0.0715
  233SOL     OW  697   1.696   1.306   1.142  0.0589 -0.2735  0.0131
  233SOL    HW1  698   1.708   1.288   1.040  0.8813  1.1875  2.8701
  233SOL    HW2  699   1.740   1.232   1.195 -2.1320 -1.0196 -1.2957
  234SOL     OW  700   1.591   2.589   1.853  0.1151  0.0443 -0.5494
  234SOL    HW1  701   1.611   2.669   1.917 -2.3191  2.0457 -1.7089
  234SOL    HW2  702   1.541   2.516   1.912 -1.7512 -0.1288  1.4294
  235SOL     OW  703   0.033   3.010   2.865  0.4563 -0.2137 -0.5852
  235SOL    HW1  704   0.120   3.054   2.831  1.2096 -0.3927 -2.4581
  235SOL    HW2  705  -0.006   3.057   2.948 -2.5642  1.6554 -2.2994
  236SOL     OW  706   2.876   0.735   0.099  0.3309  0.5375 -0.7732
  236SOL    HW1  707   2.925   0.778   0.183  0.1628  0.3847 -1.2243
  236SOL    HW2  708   2.927   0.647   0.064 -1.9720 -0.7395 -2.3950
  237SOL     OW  709   1.453   1.703   1.033  0.3090  0.3223 -0.4856
  237SOL    HW1  710   1.548   1.704   0.993  2.2004  0.0622 -2.7453
  237SOL    HW2  711   1.450   1.744   1.127 -0.2199 -2.3604 -1.9024
  238SOL     OW  712   1.786   1.280   0.836 -0.2207  0.1222  0.5386
  238SOL    HW1  713   1.880   1.318   0.822 -0.6739  2.2520  0.8027
  238SOL    HW2  714   1.705   1.316   0.780 -0.0620 -2.5817  1.3395
  239SOL     OW  715   2.008   0.239   2.725  0.1416  0.0152  0.8181
  239SOL    HW1  716   2.074   0.215   2.799 -2.8099 -1.9781 -1.0740
  239SOL    HW2  717   1.935   0.305   2.755  0.9497 -0.3284 -0.3594
  240SOL     OW  718   1.001   0.622   0.301  0.4273  0.2349  0.0196
  240SOL    HW1  719   0.969   0.522   0.265 -3.1104 -0.4437 -1.4886
  240SOL    HW2  720   0.940   0.647   0.382 -0.1413 -1.1058  1.9307
  241SOL     OW  721   0.620   0.108   0.315  0.6378 -0.3334  0.1325
  241SOL    HW1  722   0.622   0.173   0.239 -2.2018  0.0196  0.7945
  241SOL    HW2  723   0.602   0.013   0.275  0.1240  1.8644  3.4894
  242SOL     OW  724   0.699   2.473   1.131  0.2502  0.3506 -0.5262
  242SOL    HW1  725   0.648   2.508   1.220 -1.4922  1.3557  1.9337
  242SOL    HW2  726   0.790   2.521   1.114 -0.8472  2.8674  1.2400
  243SOL     OW  727   1.132   0.599   2.461 -0.2911 -0.4939  0.9629
  243SOL    HW1  728   1.092   0.689   2.422  1.6184  0.8350 -1.1419
  243SOL    HW2  729   1.062   0.543   2.516  1.4586  0.1742 -2.2128
  244SOL     OW  730   2.776   1.862   2.344  0.2748  0.7826  0.1770
  244SOL    HW1  731   2.826   1.825   2.262 -0.0107  1.1238  1.7912
  244SOL    HW2  732   2.712   1.794   2.388 -0.6863 -1.3053  0.5158
  245SOL     OW  733   2.469   0.666   2.192  0.0011 -0.4033  0.2182
  245SOL    HW1  734   2.515   0.741   2.253 -2.5227  0.0902  2.2532
  245SOL    HW2  735   2.532   0.597   2.164 -1.6502 -0.4606 -0.2328
  246SOL     OW  736   0.228   2.932   1.652  0.0443  0.4978  0.0471
  246SOL    HW1  737   0.171   2.925   1.564  0.9369  0.9889 -2.4768
  246SOL    HW2  738   0.302   3.008   1.652  1.5252 -0.4871 -0.3190
  247SOL     OW  739   2.143   0.565   3.052 -0.4784  0.2444  0.0979
  247SOL    HW1  740   2.218   0.552   2.977  2.5330 -2.9482 -2.8597
  247SOL    HW2  741   2.094   0.657   3.044 -1.6244 -0.3561 -1.2886
  248SOL     OW  742   2.119   1.788   1.590 -0.1484  0.1221 -0.2523
  248SOL    HW1  743   2.181   1.742   1.661 -1.9040 -1.1906  1.3939
  248SOL    HW2  744   2.016   1.775   1.612 -1.8017 -0.9379  0.1257
  249SOL     OW  745   1.953   1.905   1.939  0.1273 -0.2114  0.1520
  249SOL    HW1  746   1.937   1.873   1.842  0.8619 -0.3766 -2.5024
  249SOL    HW2  747   2.034   1.970   1.951  0.6683  0.2962  1.3111
  250SOL     OW  748   1.117   0.757   1.897 -0.3359  0.1826  0.6173
  250SOL    HW1  749   1.145   0.664   1.929 -1.0163  0.8026 -1.5642
  250SOL    HW2  750   1.142   0.776   1.801 -1.4319 -1.4156  0.6805
  251SOL     OW  751   3.063   1.566   2.530  0.9614  0.2146  0.1082
  251SOL    HW1  752   3.042   1.670   2.510  0.9404  0.7284 -0.3628
  251SOL    HW2  753   2.977   1.505   2.552 -0.2896 -0.2169  1.4135
  252SOL     OW  754   1.572   0.912   1.537  0.3228  0.3751  0.5154
  252SOL    HW1  755   1.531   0.922   1.437  0.6535  0.0507 -3.3651
  252SOL    HW2  756   1.527   0.976   1.606  0.0513 -1.7980  1.0327
  253SOL     OW  757   0.883   1.531   0.400 -0.0847 -0.0247  0.5014
  253SOL    HW1  758   0.926   1.433   0.410  0.7838  1.5897  1.4832
  253SOL    HW2  759   0.777   1.531   0.379 -5.4762  1.3992 -2.1477
  254SOL     OW  760   2.071   2.111   1.561  0.3453  0.1602  0.6755
  254SOL    HW1  761   2.014   2.072   1.481  1.3719 -1.9542 -0.7688
  254SOL    HW2  762   2.035   2.082   1.654  3.0538  1.8468  1.7903
  255SOL     OW  763   0.097   1.176   2.936  0.1018 -0.1841  0.4797
  255SOL    HW1  764   0.151   1.260   2.903  0.8520 -0.0317 -1.2575
  255SOL    HW2  765   0.153   1.099   2.973 -1.0086  1.5731 -0.0569
  256SOL     OW  766   2.785   1.371   1.790 -0.6642  0.2475 -0.6447
  256SOL    HW1  767   2.709   1.420   1.845 -1.3241 -0.5743 -0.8248
  256SOL    HW2  768   2.761   1.270   1.776 -1.4996  0.1578 -1.9338
  257SOL     OW  769   0.866   0.139   1.787 -0.0031  0.5890 -0.3337
  257SOL    HW1  770   0.914   0.220   1.744 -0.9050 -1.2143  1.3558
  257SOL    HW2  771   0.927   0.051   1.792 -1.4544  0.3492 -2.4563
  258SOL     OW  772   2.947   1.306   0.423  0.1044 -0.3758  0.1762
  258SOL    HW1  773   2.907   1.385   0.376 -1.2237 -1.8925  2.4592
  258SOL    HW2  774   2.975   1.335   0.523 -1.4057  3.4105  1.7393
  259SOL     OW  775   0.508   2.944   3.023 -0.2713  0.0934  0.5386
  259SOL    HW1  776   0.446   2.869   3.058 -0.4852  1.1586 -0.0643
  259SOL    HW2  777   0.515   2.945   2.916 -0.9959 -0.7735 -2.9266
  260SOL     OW  778   2.706   0.822   2.705 -0.0800  0.0625  0.5546
  260SOL    HW1  779   2.606   0.842   2.673 -2.5504  1.5935  1.1918
  260SOL    HW2  780   2.740   0.899   2.769  0.4679  2.2197  1.0463
  261SOL     OW  781   2.726   1.368   1.357  0.0646 -0.3230 -0.8017
  261SOL    HW1  782   2.660   1.323   1.296  0.9382  0.3512  2.1742
  261SOL    HW2  783   2.812   1.312   1.362 -0.5322 -0.9470  1.9904
  262SOL     OW  784   1.451   2.989   1.989  0.2044  0.2993  0.1548
  262SOL    HW1  785   1.475   3.048   1.906  0.7452  1.0310 -1.3692
  262SOL    HW2  786   1.358   2.943   1.978  0.4255  0.4749 -0.5355
  263SOL     OW  787   0.867   0.725   2.339 -0.6144 -0.5188 -0.1985
  263SOL    HW1  788   0.844   0.627   2.298 -0.5291 -1.7923  1.5741
  263SOL    HW2  789   0.901   0.781   2.255 -1.3314 -0.2820  0.2313
  264SOL     OW  790   2.232   0.800   0.318 -0.0639  0.4882 -0.4433
  264SOL    HW1  791   2.157   0.797   0.385  1.1305 -1.0254 -2.4359
  264SOL    HW2  792   2.306   0.849   0.368 -1.5258 -1.8635  0.6789
  265SOL     OW  793   0.920   2.279   2.648 -0.4201 -0.1434  0.1544
  265SOL    HW1  794   0.948   2.341   2.727  2.1415  2.7195  0.7888
  265SOL    HW2  795   0.885   2.191   2.686  2.3601  0.4985  1.6041
  266SOL     OW  796   1.353   1.744   3.074 -0.0131 -0.1007 -0.1863
  266SOL    HW1  797   1.366   1.808   3.155  0.7036  0.4872 -0.0469
  266SOL    HW2  798   1.447   1.712   3.043  1.4867 -2.4454 -1.4979
  267SOL     OW  799   0.992   3.067   2.373 -0.4014 -0.1375 -0.0488
  267SOL    HW1  800   0.976   3.049   2.269 -1.0647 -0.3626  0.6063
  267SOL    HW2  801   0.997   3.169   2.391  0.5219 -0.0309 -0.2630
  268SOL     OW  802   0.658   1.139   1.085  0.8264  0.0626 -0.3094
  268SOL    HW1  803   0.666   1.204   1.169  2.3159  0.1673  0.1960
  268SOL    HW2  804   0.686   1.188   1.002  0.0956 -0.9510  2.6944
  269SOL     OW  805   2.427   2.467   1.547 -0.9249  0.1952 -0.1240
  269SOL    HW1  806   2.518   2.419   1.558  0.8876  0.6789  0.6312
  269SOL    HW2  807   2.374   2.488   1.635  0.5724 -0.7727  0.4537
  270SOL     OW  808   0.132   3.069   1.902  0.0345 -0.5689  0.2104
  270SOL    HW1  809   0.182   3.039   1.816 -0.4979 -0.4608 -0.1050
  270SOL    HW2  810   0.070   2.994   1.936 -0.3735 -0.6545  0.3247
  271SOL     OW  811   0.409   1.430   1.161  0.0369 -0.1008 -0.3629
  271SOL    HW1  812   0.386   1.413   1.065 -1.8565 -0.1726 -0.6597
  271SOL    HW2  813   0.334   1.415   1.233 -1.2720 -0.6336  1.1803
  272SOL     OW  814   1.959   2.869   1.914  0.4413  0.7476  0.0701
  272SOL    HW1  815   1.911   2.809   1.843  0.6370 -1.7246 -0.0174
  272SOL    HW2  816   2.015   2.935   1.866 -2.5850  1.4889  1.4164
  273SOL     OW  817   1.419   1.440   2.829  0.6806  0.1338 -0.3852
  273SOL    HW1  818   1.329   1.489   2.815  1.9441 -2.0161 -0.3530
  273SOL    HW2  819   1.473   1.470   2.909  1.7267 -0.0146 -2.6139
  274SOL     OW  820   1.217   0.522   2.015  0.6554 -0.3797 -0.6012
  274SOL    HW1  821   1.180   0.428   1.992  2.0893  1.2384  1.6032
  274SOL    HW2  822   1.264   0.533   2.111  1.3668  0.7932  2.5029
  275SOL     OW  823   0.641   2.086   1.878  0.3314 -0.0516 -0.4340
  275SOL    HW1  824   0.605   2.170   1.921  1.1288  0.3275  0.0644
  275SOL    HW2  825   0.575   2.008   1.850 -2.0092 -1.3591 -1.3454
  276SOL     OW  826   2.158   0.924   2.818 -0.3794 -0.2063 -0.1579
  276SOL    HW1  827   2.089   0.942   2.742 -2.8114  3.0663 -0.7161
  276SOL    HW2  828   2.115   0.871   2.893  1.7751  0.3741 -1.3686
  277SOL     OW  829  -0.006   0.877   0.263  0.5052 -0.0025  0.6337
  277SOL    HW1  830   0.066   0.922   0.206  0.4484 -0.0772 -0.3046
  277SOL    HW2  831   0.025   0.802   0.328 -1.4805 -1.8730  0.2927
  278SOL     OW  832   0.239   0.285   3.058  0.0499 -0.2324  0.2880
  278SOL    HW1  833   0.323   0.223   3.079  2.7976 -3.2476  0.5304
  278SOL    HW2  834   0.272   0.383   3.053 -0.1781 -0.3771  0.0402
  279SOL     OW  835   0.127   0.074   0.871  0.7376  0.6695  0.2769
  279SOL    HW1  836   0.150   0.034   0.965 -1.2699  0.3012  0.6363
  279SOL    HW2  837   0.204   0.070   0.799  2.8082 -0.8308  2.8668
  280SOL     OW  838   1.602   2.878   2.557 -0.6271  0.4616 -0.1864
  280SOL    HW1  839   1.688   2.937   2.577  0.0458 -0.2873 -1.8580
  280SOL    HW2  840   1.523   2.941   2.525 -0.6950  1.8561 -1.3193
  281SOL     OW  841   0.583   0.959   2.266  0.6904 -0.7884 -0.2694
  281SOL    HW1  842   0.619   0.879   2.210  1.2582 -0.1202  1.7413
  281SOL    HW2  843   0.534   0.928   2.351  0.6126 -0.0439 -1.9448
  282SOL     OW  844   1.759   2.399   0.509  0.2078  0.0266  0.1417
  282SOL    HW1  845   1.725   2.340   0.427 -0.8873  0.3541 -2.2865
  282SOL    HW2  846   1.734   2.500   0.487 -0.1819  2.4664 -2.4591
  283SOL     OW  847   1.136   0.925   0.840 -0.2916  0.0875  0.0610
  283SOL    HW1  848   1.164   0.848   0.911  1.6888 -0.3428  2.0758
  283SOL    HW2  849   1.049   0.978   0.867 -0.1342 -0.4371  2.1327
  284SOL     OW  850   2.350   2.776   2.329 -0.0039 -0.3638  0.4992
  284SOL    HW1  851   2.403   2.868   2.313  1.3140  2.9749  0.7016
  284SOL    HW2  852   2.294   2.771   2.411  1.8116  0.4066 -1.0816
  285SOL     OW  853   1.365   3.063   2.543 -0.4410  0.3591  0.5951
  285SOL    HW1  854   1.355   3.049   2.435  1.0863 -0.9792 -3.1486
  285SOL    HW2  855   1.277   3.079   2.590 -0.9628 -3.6118 -0.0817
  286SOL     OW  856   0.457   0.420   0.755 -0.1857 -0.3061  0.4650
  286SOL    HW1  857   0.420   0.381   0.843  1.3941  0.8807  0.3326
  286SOL    HW2  858   0.471   0.356   0.677  1.8841 -0.5396  3.0403
  287SOL     OW  859   0.133   1.324   2.537 -0.4511  0.4904  0.0800
  287SOL    HW1  860   0.084   1.247   2.587  1.5867 -1.8176  2.2529
  287SOL    HW2  861   0.074   1.407   2.537 -0.3576 -2.3632 -1.8870
  288SOL     OW  862   1.547   2.673   1.591  0.1198  0.3504  0.7255
  288SOL    HW1  863   1.564   2.632   1.683  0.0110 -1.4829  0.9724
  288SOL    HW2  864   1.555   2.601   1.510  1.1601 -0.4825 -1.4769
  289SOL     OW  865   0.622   2.709   0.822 -0.7010  0.5888 -0.2693
  289SOL    HW1  866   0.696   2.763   0.780 -2.8193 -0.1069  0.8000
  289SOL    HW2  867   0.587   2.748   0.916  0.5017 -0.1856  3.1216
  290SOL     OW  868   2.828   1.074   1.702 -0.2159  0.0723  0.3049
  290SOL    HW1  869   2.738   1.021   1.717 -0.6424 -0.3872  1.2479
  290SOL    HW2  870   2.904   1.036   1.763  2.4086  0.6138  1.0102
  291SOL     OW  871   1.946   0.078   0.057  0.0615  0.1368 -0.1497
  291SOL    HW1  872   1.956   0.062   0.164  1.6599 -2.4634  0.2312
  291SOL    HW2  873   2.026   0.125   0.008  1.1946 -2.1336 -1.6769
  292SOL     OW  874   2.972   1.227   3.087  0.3909 -0.2653 -0.1972
  292SOL    HW1  875   2.886   1.257   3.037  3.3403  1.8200  0.2541
  292SOL    HW2  876   3.049   1.224   3.022 -1.6474  1.2083  0.7419
  293SOL     OW  877   0.549   2.100   0.158 -0.7509  0.5562  0.1788
  293SOL    HW1  878   0.518   2.172   0.233  0.3589  2.5796 -1.0427
  293SOL    HW2  879   0.652   2.087   0.155  1.7949 -0.9133 -3.2088
  294SOL     OW  880   1.739   2.227   1.769  0.6492  0.4564 -0.3273
  294SOL    HW1  881   1.747   2.303   1.838 -0.4678  0.8259 -0.7202
  294SOL    HW2  882   1.716   2.251   1.670  1.5632  1.2891  1.9116
  295SOL     OW  883   1.057   1.023   0.519  0.0592  0.6330 -0.0811
  295SOL    HW1  884   1.135   1.049   0.580 -3.0490 -0.7390  2.4048
  295SOL    HW2  885   0.977   0.982   0.572 -3.2312 -1.3614  0.3707
  296SOL     OW  886   1.264   2.076   2.516 -0.0843  0.5394  0.5951
  296SOL    HW1  887   1.288   2.089   2.418  2.5011  0.1064 -0.8963
  296SOL    HW2  888   1.273   1.978   2.546 -0.0518  2.3777 -0.2080
  297SOL     OW  889   1.455   0.610   1.396 -0.1621  0.0860 -0.3304
  297SOL    HW1  890   1.415   0.519   1.379  0.8902 -1.1354 -0.2393
  297SOL    HW2  891   1.545   0.616   1.451 -0.5520  1.4400  1.5147
  298SOL     OW  892   0.513   1.341   2.947  0.0801 -0.1257  0.0047
  298SOL    HW1  893   0.506   1.271   3.025 -2.0993  0.5438 -1.9853
  298SOL    HW2  894   0.573   1.317   2.861  0.6670 -2.1773 -1.6970
  299SOL     OW  895   0.491   0.280   1.349  0.2730 -0.0575 -0.0574
  299SOL    HW1  896   0.438   0.362   1.318  1.4673 -3.6374  0.0752
  299SOL    HW2  897   0.577   0.307   1.396  0.7323 -4.6971  1.3116
  300SOL     OW  898   1.207   1.824   2.862  0.4524  0.5832  0.0566
  300SOL    HW1  899   1.196   1.734   2.811 -0.6384 -3.2529 -0.8419
  300SOL    HW2  900   1.272   1.815   2.944  2.0398  0.8956  0.6414
  301SOL     OW  901   0.477   0.268   0.516  0.0848 -0.0833  0.2326
  301SOL    HW1  902   0.378   0.276   0.492  0.0004 -0.2113 -1.3072
  301SOL    HW2  903   0.528   0.217   0.442 -3.3218  0.3438 -2.0816
  302SOL     OW  904   1.207   2.409   2.281  0.6433  0.4239  0.4058
  302SOL    HW1  905   1.122   2.453   2.334  0.1153 -0.5150  0.3117
  302SOL    HW2  906   1.200   2.308   2.286  0.3598 -0.7657 -3.0352
  303SOL     OW  907   0.978   2.337   0.821 -0.0209  0.3119  0.5404
  303SOL    HW1  908   1.025   2.390   0.743  2.4702 -1.1124  0.7196
  303SOL    HW2  909   0.948   2.402   0.898 -1.6091 -0.8305  0.0566
  304SOL     OW  910   0.150   2.042   0.617 -0.1991 -0.2370  0.4059
  304SOL    HW1  911   0.168   1.990   0.531  1.1945 -1.0218  0.7962
  304SOL    HW2  912   0.099   2.132   0.597  1.6151  2.6808  2.3121
  305SOL     OW  913   1.599   0.939   0.588  0.4528  0.3192 -0.2282
  305SOL    HW1  914   1.553   0.926   0.493 -0.0603  3.8957 -0.3506
  305SOL    HW2  915   1.671   0.863   0.599  1.3223 -1.4857 -1.8686
  306SOL     OW  916   0.432   1.865   1.897 -0.2519  0.5610  0.3016
  306SOL    HW1  917   0.521   1.811   1.881  0.3094 -0.5453  0.7237
  306SOL    HW2  918   0.405   1.867   2.002  0.1114 -0.1802  2.0942
  307SOL     OW  919   3.056   0.887   2.526 -0.0142  0.4786 -0.1801
  307SOL    HW1  920   3.085   0.965   2.584  0.5326  1.5764 -3.2607
  307SOL    HW2  921   3.025   0.812   2.591  0.3545  0.5873 -0.0698
  308SOL     OW  922   1.536   2.682   2.869  0.2871 -0.5595  0.3535
  308SOL    HW1  923   1.563   2.626   2.785  0.7363 -1.3814 -2.4483
  308SOL    HW2  924   1.469   2.633   2.926 -0.0258  1.3085 -3.0013
  309SOL     OW  925   1.232   0.074   1.775 -0.0246 -0.2083 -0.4451
  309SOL    HW1  926   1.331   0.068   1.799 -0.1536 -0.6585  0.3575
  309SOL    HW2  927   1.213   0.098   1.677 -2.5137  0.1912  0.6626
  310SOL     OW  928   1.499   2.553   0.688  0.0053  0.2864  0.0382
  310SOL    HW1  929   1.471   2.613   0.767 -0.2941  1.8266  0.9264
  310SOL    HW2  930   1.545   2.604   0.613 -0.2640 -0.4145 -2.0654
  311SOL     OW  931   1.188   0.939   1.583 -0.5657  0.6764 -0.3021
  311SOL    HW1  932   1.247   0.853   1.568 -0.5707 -3.5058  0.3631
  311SOL    HW2  933   1.236   1.023   1.542 -0.6864 -0.6831 -0.4441
  312SOL     OW  934   1.617   0.659   0.980 -0.0124 -0.0377 -0.1002
  312SOL    HW1  935   1.588   0.755   0.955  1.3975  0.9841 -1.1575
  312SOL    HW2  936   1.560   0.589   0.936 -0.6247  0.6587 -1.0354
  313SOL     OW  937   1.592   1.402   0.696  0.4362 -0.0205  0.0201
  313SOL    HW1  938   1.525   1.446   0.763 -1.0063  0.3765  1.4252
  313SOL    HW2  939   1.541   1.329   0.637  2.3648 -0.7018 -0.2335
  314SOL     OW  940   3.000   0.033   3.079 -0.4423 -0.3754 -0.9997
  314SOL    HW1  941   2.982   0.075   3.171 -0.1490  1.2811 -1.6939
  314SOL    HW2  942   2.915  -0.001   3.035 -0.1458  1.0356  1.4787
  315SOL     OW  943   1.218   0.203   2.807 -0.5167  0.0276  0.0906
  315SOL    HW1  944   1.208   0.138   2.723  2.0944 -2.6797 -1.9503
  315SOL    HW2  945   1.216   0.151   2.894  2.2710 -0.8041 -2.2555
  316SOL     OW  946   1.709   2.087   0.904 -0.2663  0.1215 -0.7918
  316SOL    HW1  947   1.636   2.063   0.978  0.5610  1.0216 -0.1641
  316SOL    HW2  948   1.689   2.175   0.856  2.5334 -1.7213 -0.1001
  317SOL     OW  949   1.126   0.708   2.873  0.2112 -0.3342  0.5827
  317SOL    HW1  950   1.064   0.741   2.950  1.7163  0.0757 -1.5725
  317SOL    HW2  951   1.108   0.612   2.838 -0.0498 -0.3558 -1.5612
  318SOL     OW  952   1.324   3.055   2.240 -0.2067 -0.0105  0.1350
  318SOL    HW1  953   1.324   3.157   2.204 -1.1016  2.7324  1.8580
  318SOL    HW2  954   1.361   2.990   2.165 -0.1322  2.3408 -0.5796
  319SOL     OW  955   0.644   2.453   2.935 -0.0757 -0.2444  0.1893
  319SOL    HW1  956   0.584   2.404   3.006  1.6447  1.6425  1.3465
  319SOL    HW2  957   0.746   2.445   2.955  1.2177  1.9114  1.3008
  320SOL     OW  958   1.684   2.192   0.325  0.4603  0.6050  0.7481
  320SOL    HW1  959   1.770   2.129   0.310  0.4407  1.6437 -0.8563
  320SOL    HW2  960   1.598   2.141   0.355 -0.7127 -2.4387  0.7417
  321SOL     OW  961   1.674   2.670   0.484 -0.0462  0.2450  0.0268
  321SOL    HW1  962   1.596   2.725   0.451 -0.2884 -1.2206  0.6369
  321SOL    HW2  963   1.763   2.718   0.475  1.0523 -0.9894  1.6940
  322SOL     OW  964   2.533   1.137   2.329  0.1124 -0.3128  1.0236
  322SOL    HW1  965   2.602   1.163   2.402  1.4165  0.3671  1.2456
  322SOL    HW2  966   2.558   1.051   2.277 -0.3848 -0.9562  0.2405
  323SOL     OW  967   1.091   2.634   0.827  1.0535  0.0763 -0.1817
  323SOL    HW1  968   1.092   2.593   0.733  0.3459  0.7796  1.4063
  323SOL    HW2  969   1.083   2.738   0.827  2.1572 -0.0978  0.2827
  324SOL     OW  970   0.252   2.540   2.514  0.2193  0.2329  0.3655
  324SOL    HW1  971   0.226   2.488   2.598 -1.4263  0.2501 -1.4021
  324SOL    HW2  972   0.178   2.609   2.498  2.8712 -1.5735 -1.3908
  325SOL     OW  973   1.242   3.033   0.464 -0.2450 -0.1213  0.2687
  325SOL    HW1  974   1.242   3.073   0.368  0.4075 -0.1840  0.0674
  325SOL    HW2  975   1.260   3.111   0.530  0.1655  0.9944 -0.6163
  326SOL     OW  976   2.442   0.786   3.073  0.0098 -0.2067 -0.2880
  326SOL    HW1  977   2.406   0.731   2.991  0.5091 -1.2697  0.9066
  326SOL    HW2  978   2.460   0.724   3.153 -2.2161 -0.0873  0.9136
  327SOL     OW  979   2.853   0.343   0.563  0.0494  0.4616  0.6323
  327SOL    HW1  980   2.821   0.370   0.464  1.4391 -0.1466 -0.1194
  327SOL    HW2  981   2.796   0.272   0.607  1.4366 -0.3189 -0.3929
  328SOL     OW  982   2.519   0.599   0.390  0.5863 -0.4361 -0.0103
  328SOL    HW1  983   2.479   0.689   0.428 -1.2987  0.9844 -3.3024
  328SOL    HW2  984   2.534   0.517   0.449 -0.4071 -0.6846 -0.7734
  329SOL     OW  985   2.974   3.000   2.129  0.2184  0.0164 -0.1676
  329SOL    HW1  986   3.024   2.921   2.176 -2.3378 -0.7084  0.2104
  329SOL    HW2  987   2.994   3.090   2.178 -3.6569 -2.0764  1.1161
  330SOL     OW  988   0.583   0.151   1.842  0.1452  0.0354  0.1562
  330SOL    HW1  989   0.674   0.151   1.794 -0.1159 -2.4197  1.3518
  330SOL    HW2  990   0.585   0.096   1.930  1.7577 -0.6660 -2.4774
  331SOL     OW  991   2.962   1.920   1.134 -0.2860 -0.3001  0.6915
  331SOL    HW1  992   2.983   2.009   1.085 -1.3866 -0.5220 -2.1047
  331SOL    HW2  993   2.911   1.941   1.221  1.2082 -0.6188  0.1366
  332SOL     OW  994   0.448   1.139   0.018 -0.0064  0.0502 -0.8458
  332SOL    HW1  995   0.374   1.086  -0.036 -0.1005 -2.0714  0.6704
  332SOL    HW2  996   0.404   1.196   0.092  1.9674  0.8733 -1.0723
  333SOL     OW  997   2.865   1.054   0.290  0.3943  0.6220 -0.4179
  333SOL    HW1  998   2.896   1.140   0.342  2.4560 -0.6784 -1.6312
  333SOL    HW2  999   2.946   0.990   0.264  0.5017 -1.5851 -2.0826
  334SOL     OW 1000   1.699   1.242   1.837  0.1175  0.4705 -0.0059
  334SOL    HW1 1001   1.773   1.172   1.821  0.0037  0.4182 -0.8840
  334SOL    HW2 1002   1.699   1.281   1.937 -0.1579  2.0889 -1.3386
  335SOL     OW 1003   1.952   2.757   2.616 -0.5444  0.3425 -0.4142
  335SOL    HW1 1004   1.875   2.693   2.637 -1.1182  1.0382  0.9706
  335SOL    HW2 1005   1.991   2.803   2.696  0.9033  0.0953 -0.1975
  336SOL     OW 1006   0.246   0.085   2.846  0.2074  0.2653 -0.1607
  336SOL    HW1 1007   0.333   0.053   2.888  1.4648 -0.6571  1.1191
  336SOL    HW2 1008   0.232   0.188   2.865  1.9671  3.3570 -2.9737
  337SOL     OW 1009   0.923   2.790   2.811  0.4358 -0.4188  0.0663
  337SOL    HW1 1010   0.920   2.752   2.911 -1.6470  1.1217  2.5022
  337SOL    HW2 1011   1.019   2.765   2.773  1.0786 -1.5323  1.7343
  338SOL     OW 1012   0.020   1.028   0.671  0.1958 -0.1720 -0.6592
  338SOL    HW1 1013  -0.075   0.994   0.671  2.2960 -1.1204  0.7908
  338SOL    HW2 1014   0.027   1.128   0.662  1.3420  0.7883  1.6582
  339SOL     OW 1015   1.718   1.359   2.091  0.2347 -0.0839 -0.1732
  339SOL    HW1 1016   1.623   1.363   2.127  1.5579  0.0965 -2.1142
  339SOL    HW2 1017   1.771   1.451   2.100 -1.6638  0.7326  1.1125
  340SOL     OW 1018   2.355   0.705   1.201 -0.1661 -0.3235  0.0756
  340SOL    HW1 1019   2.261   0.735   1.170 -1.8493  2.8477  0.7805
  340SOL    HW2 1020   2.391   0.620   1.152 -0.2688 -0.5211  0.9717
  341SOL     OW 1021   1.956   2.106   0.328  0.6348 -0.1385  0.5600
  341SOL    HW1 1022   1.968   2.176   0.252 -0.8956 -0.6881  0.8959
  341SOL    HW2 1023   2.041   2.092   0.384  2.2108 -2.3788 -0.1402
  342SOL     OW 1024   2.206   2.089   2.735  0.2903  0.1279 -0.1160
  342SOL    HW1 1025   2.265   2.004   2.733 -1.5238 -1.5504 -1.7999
  342SOL    HW2 1026   2.102   2.065   2.735 -0.7460  1.8550 -2.0650
  343SOL     OW 1027   0.409   0.837   2.762  0.4703  1.1546  0.3040
  343SOL    HW1 1028   0.418   0.911   2.690  0.6284  1.2041 -0.0832
  343SOL    HW2 1029   0.494   0.788   2.768 -0.8238 -2.0284 -0.2967
  344SOL     OW 1030   1.951   1.391   0.415  0.3655 -0.1391 -0.8647
  344SOL    HW1 1031   1.935   1.320   0.340 -1.2923 -1.4033 -1.3587
  344SOL    HW2 1032   1.866   1.441   0.450 -0.7577  0.8997  0.3043
  345SOL     OW 1033   1.406   2.275   2.863  0.8372 -0.0330 -0.6477
  345SOL    HW1 1034   1.316   2.236   2.834  2.6463 -0.5749  1.3606
  345SOL    HW2 1035   1.488   2.221   2.828  0.1711  0.5745  0.4827
  346SOL     OW 1036   2.343   0.911   1.413  0.2948  0.4518 -0.4945
  346SOL    HW1 1037   2.334   1.015   1.396  1.2492 -1.7239 -0.1927
  346SOL    HW2 1038   2.328   0.850   1.330  0.0510  1.6629 -0.7264
  347SOL     OW 1039   0.716   2.783   1.454  0.1628  0.1070 -0.2748
  347SOL    HW1 1040   0.696   2.715   1.529 -1.4624 -0.6412  0.0219
  347SOL    HW2 1041   0.655   2.864   1.455  0.0559 -0.8455  1.1809
  348SOL     OW 1042   0.153   0.669   2.826 -0.0432 -0.3465  0.3266
  348SOL    HW1 1043   0.053   0.678   2.795  0.3888  1.7356 -0.2234
  348SOL    HW2 1044   0.223   0.706   2.771 -1.6881 -3.0538  3.5336
  349SOL     OW 1045   1.820   0.407   2.806  0.4143  0.0698 -0.2255
  349SOL    HW1 1046   1.783   0.496   2.761  0.6207  0.1992  0.2264
  349SOL    HW2 1047   1.802   0.417   2.909 -0.4894  0.7296  0.7369
  350SOL     OW 1048   1.540   0.453   0.377  0.4522 -0.1593 -0.0807
  350SOL    HW1 1049   1.584   0.472   0.469  0.0774 -0.1087 -1.9284
  350SOL    HW2 1050   1.524   0.533   0.311 -1.7977  0.3127  2.2778
  351SOL     OW 1051   0.965   0.845   2.118  0.7420  0.3490 -0.2955
  351SOL    HW1 1052   0.936   0.938   2.087 -1.0063  1.5500  2.1743
  351SOL    HW2 1053   1.024   0.798   2.044  1.1571 -1.6448  1.6448
  352SOL     OW 1054   2.032   1.281   0.682  0.5243  0.1564 -0.3136
  352SOL    HW1 1055   2.017   1.347   0.601  1.3441  0.6169 -2.0499
  352SOL    HW2 1056   2.135   1.268   0.710 -1.3705 -1.9250 -0.9412
  353SOL     OW 1057   2.191   2.900   1.079  0.2668 -0.5110  0.0823
  353SOL    HW1 1058   2.204   2.818   1.142 -0.4069 -1.5375  1.9659
  353SOL    HW2 1059   2.103   2.891   1.026 -2.6045 -0.1256  1.3225
  354SOL     OW 1060   0.234   1.393   2.852  0.2148  0.0326 -0.3780
  354SOL    HW1 1061   0.223   1.473   2.786 -0.9569 -0.9019 -1.0069
  354SOL    HW2 1062   0.332   1.353   2.858 -3.1766 -1.9371 -1.1984
  355SOL     OW 1063   0.492   1.506   0.492  0.0248 -0.9598  0.3945
  355SOL    HW1 1064   0.523   1.603   0.516  2.1087 -1.3625 -0.4761
  355SOL    HW2 1065   0.560   1.435   0.526  1.4375 -0.0234 -1.2342
  356SOL     OW 1066   0.932   0.267   2.078 -0.7109 -0.3809  0.2496
  356SOL    HW1 1067   1.032   0.258   2.053 -0.4820 -1.0584  0.0374
  356SOL    HW2 1068   0.864   0.231   2.005  3.0372  0.7119 -2.2466
  357SOL     OW 1069   0.991   1.287   0.403 -0.2288 -0.4209 -0.0710
  357SOL    HW1 1070   0.963   1.252   0.310  2.4741 -1.0968 -0.5760
  357SOL    HW2 1071   1.032   1.211   0.461 -2.0062 -3.0564 -1.4354
  358SOL     OW 1072   1.712   1.501   0.461  0.0132  0.2699  0.2640
  358SOL    HW1 1073   1.662   1.468   0.546  1.3627 -1.6860  1.2590
  358SOL    HW2 1074   1.656   1.497   0.372 -1.7983 -1.5525  0.5287
  359SOL     OW 1075   1.583   2.752   0.078 -0.0265  0.0276  0.4809
  359SOL    HW1 1076   1.553   2.674   0.014 -0.4085 -1.8708 -1.2919
  359SOL    HW2 1077   1.534   2.839   0.057  2.4271 -1.7661  1.5698
  360SOL     OW 1078   0.860   0.612   0.564  0.0758 -0.2619  0.4245
  360SOL    HW1 1079   0.792   0.627   0.640  2.9606 -0.2825  0.2829
  360SOL    HW2 1080   0.869   0.514   0.539 -0.1706  0.7659 -1.3811
  361SOL     OW 1081   1.196   1.372   0.701 -0.0601 -0.0447  0.3775
  361SOL    HW1 1082   1.223   1.405   0.793  2.0469  3.9691  0.4187
  361SOL    HW2 1083   1.104   1.412   0.664 -0.7974 -0.4532 -1.4680
  362SOL     OW 1084   1.332   1.826   0.799  0.0510  0.7772  0.3206
  362SOL    HW1 1085   1.350   1.787   0.894 -0.6741  2.2452 -1.1639
  362SOL    HW2 1086   1.420   1.847   0.747  1.1558 -1.2465 -0.4154
  363SOL     OW 1087   1.210   1.283   2.012  0.1685  0.4339  0.0088
  363SOL    HW1 1088   1.296   1.309   2.063  0.1048 -3.2307  1.3949
  363SOL    HW2 1089   1.197   1.345   1.927  2.0029  2.9722  0.8125
  364SOL     OW 1090   0.511   2.323   1.940 -0.1717 -0.4860  0.2645
  364SOL    HW1 1091   0.412   2.349   1.967 -0.9950  0.2356  0.5820
  364SOL    HW2 1092   0.544   2.374   1.856 -1.3340 -1.6237  2.0753
  365SOL     OW 1093   1.026   1.856   1.412 -0.1808 -0.0379  0.4883
  365SOL    HW1 1094   0.931   1.895   1.428  2.0068  0.7153  1.2509
  365SOL    HW2 1095   1.042   1.831   1.315 -1.4725 -1.8333  1.3393
  366SOL     OW 1096   2.778   2.069   0.478 -0.3703 -0.1254 -0.1232
  366SOL    HW1 1097   2.687   2.021   0.458 -2.8220 -2.6841  1.2244
  366SOL    HW2 1098   2.860   2.009   0.455 -2.2855  0.4369 -0.3185
  367SOL     OW 1099   0.900   1.137   0.177  0.4759 -0.0354  0.4752
  367SOL    HW1 1100   0.838   1.056   0.197  1.2446 -1.2712 -0.6521
  367SOL    HW2 1101   0.952   1.117   0.090  1.1529  1.0809  1.3599
  368SOL     OW 1102   1.491   0.571   0.702  0.2543  0.2931 -0.3347
  368SOL    HW1 1103   1.422   0.592   0.621 -2.9265 -0.1469  0.6527
  368SOL    HW2 1104   1.557   0.648   0.719 -0.4504 -2.5981  1.0814
  369SOL     OW 1105   0.213   1.727   0.053 -0.3962 -0.1530 -0.1910
  369SOL    HW1 1106   0.252   1.796   0.123 -2.2327 -0.1605  0.4843
  369SOL    HW2 1107   0.138   1.668   0.086 -1.3927 -0.8760 -0.7022
  370SOL     OW 1108   0.453   2.086   1.044 -0.3154 -0.1947 -0.1533
  370SOL    HW1 1109   0.471   2.190   1.050  0.9860 -1.2511 -0.4148
  370SOL    HW2 1110   0.357   2.064   1.009 -2.1980 -1.0151  1.0905
  371SOL     OW 1111   2.868   2.197   2.707  0.1472 -0.2866 -0.3527
  371SOL    HW1 1112   2.836   2.141   2.791  0.4665 -2.4114  2.8248
  371SOL    HW2 1113   2.961   2.238   2.720 -0.5496 -0.4541  1.6320
  372SOL     OW 1114   1.083   1.976   1.094  0.0661  0.4735  0.3651
  372SOL    HW1 1115   0.979   2.001   1.080 -1.0575  3.0147  0.6512
  372SOL    HW2 1116   1.151   2.038   1.042  1.5032 -0.0300  3.0972
  373SOL     OW 1117   1.977   2.013   0.885  0.6170  0.2217 -1.0136
  373SOL    HW1 1118   2.022   2.008   0.978  1.8018  0.9087 -0.5336
  373SOL    HW2 1119   1.877   2.040   0.888 -0.5487  0.8496  1.4111
  374SOL     OW 1120   1.776   0.474   0.569 -0.0385  0.0756 -0.3519
  374SOL    HW1 1121   1.804   0.418   0.652 -0.1184  1.3337  3.1574
  374SOL    HW2 1122   1.844   0.473   0.500 -3.3211  0.6783  3.1837
  375SOL     OW 1123   2.382   2.179   1.118  0.4346 -0.2389 -0.1489
  375SOL    HW1 1124   2.470   2.169   1.066  0.5426  0.5187  0.4768
  375SOL    HW2 1125   2.407   2.169   1.219  0.2718  1.4034  2.3487
  376SOL     OW 1126   3.011   0.587   1.432  0.1432 -0.0082  0.1921
  376SOL    HW1 1127   3.082   0.648   1.481  0.8025  0.0762 -1.5118
  376SOL    HW2 1128   2.915   0.608   1.467  1.0145 -1.9305  1.9730
  377SOL     OW 1129   2.228   2.849   0.341  0.6930  0.8613  0.2291
  377SOL    HW1 1130   2.235   2.954   0.346  0.1804  1.5723 -2.8576
  377SOL    HW2 1131   2.321   2.815   0.316 -0.5538  1.1725  3.1475
  378SOL     OW 1132   1.803   1.794   2.680  0.6944 -0.3414 -0.0495
  378SOL    HW1 1133   1.708   1.779   2.655  2.9079  0.1338 -2.7346
  378SOL    HW2 1134   1.859   1.711   2.697 -1.2006  1.7081  2.9906
  379SOL     OW 1135   0.887   0.128   2.729 -0.0462  0.0852  0.3371
  379SOL    HW1 1136   0.843   0.064   2.660 -0.8576 -2.3266  0.2155
  379SOL    HW2 1137   0.893   0.231   2.699  2.2370 -0.0756 -0.7482
  380SOL     OW 1138   1.504   1.178   0.544 -0.2323 -0.4892  0.6479
  380SOL    HW1 1139   1.408   1.177   0.568  3.3801  0.3089  1.5178
  380SOL    HW2 1140   1.546   1.085   0.564 -2.3467 -0.5573 -0.3776
  381SOL     OW 1141   1.333   1.143   1.507 -0.0548 -0.4306 -0.8720
  381SOL    HW1 1142   1.381   1.173   1.419  0.8719  2.6384  0.2952
  381SOL    HW2 1143   1.402   1.137   1.585 -2.9751  0.9235 -1.0171
  382SOL     OW 1144   1.813   0.828   0.209  0.0328  0.4885 -0.1339
  382SOL    HW1 1145   1.841   0.815   0.108  3.0502  0.5615 -0.8292
  382SOL    HW2 1146   1.874   0.770   0.272 -1.1158 -1.3432 -1.1703
  383SOL     OW 1147   2.614   1.000   1.494  0.2779  0.6637 -0.1362
  383SOL    HW1 1148   2.542   0.979   1.423  4.8297  0.9124  0.0824
  383SOL    HW2 1149   2.713   0.985   1.462  3.4258  3.0460  2.2514
  384SOL     OW 1150   0.917   2.264   0.115  0.1703  0.0246  0.4109
  384SOL    HW1 1151   0.879   2.345   0.170 -0.4713  2.0415  1.4029
  384SOL    HW2 1152   0.890   2.174   0.162  1.0045  1.0646 -1.0918
  385SOL     OW 1153   2.988   2.006   1.777  0.0226  0.5686 -0.3679
  385SOL    HW1 1154   3.052   2.082   1.743  3.6385 -1.0796  0.9205
  385SOL    HW2 1155   3.028   1.913   1.765  1.5739  3.5468 -1.3419
  386SOL     OW 1156   0.455   1.141   0.476  0.1851 -0.0404 -0.2368
  386SOL    HW1 1157   0.491   1.048   0.472 -2.2941  0.9244  2.0525
  386SOL    HW2 1158   0.383   1.151   0.399 -0.7271 -0.3101 -2.1115
  387SOL     OW 1159   0.998   0.359   1.684  0.0928 -0.1731 -0.1390
  387SOL    HW1 1160   1.076   0.425   1.669 -2.0799 -0.6426  0.9396
  387SOL    HW2 1161   0.968   0.325   1.596 -1.0460  1.9295  0.2579
  388SOL     OW 1162   1.225   2.627   1.794 -0.1238  0.0510 -0.2391
  388SOL    HW1 1163   1.242   2.603   1.689  0.5414  0.1710 -0.9730
  388SOL    HW2 1164   1.284   2.562   1.850  1.3632  0.6164  2.1913
  389SOL     OW 1165   0.192   3.076   1.138  0.2111 -0.5652 -0.4249
  389SOL    HW1 1166   0.143   3.110   1.227 -1.7519  0.9154  0.4480
  389SOL    HW2 1167   0.260   2.999   1.151  0.6215  0.5689  1.3487
  390SOL     OW 1168   1.051   0.924   1.220 -0.1679 -0.1932  0.1041
  390SOL    HW1 1169   1.130   0.875   1.269  1.0434  1.1756 -0.2786
  390SOL    HW2 1170   1.000   0.980   1.288 -0.4753  2.9517 -1.4197
  391SOL     OW 1171   2.030   1.171   1.014  0.0610 -0.0462 -0.5160
  391SOL    HW1 1172   1.961   1.096   1.049 -0.7133 -0.7562  1.4017
  391SOL    HW2 1173   2.097   1.120   0.962 -1.6415 -1.0573  0.5960
  392SOL     OW 1174   0.934   2.650   3.036 -0.6894  0.1356 -0.0146
  392SOL    HW1 1175   0.858   2.636   3.101  0.2434 -2.9025  1.8041
  392SOL    HW2 1176   1.023   2.677   3.082  1.6618 -0.6712  0.1106
  393SOL     OW 1177   0.405   0.492   2.099  0.4277 -0.2041 -0.0871
  393SOL    HW1 1178   0.309   0.454   2.084 -0.9664  1.0449 -0.6118
  393SOL    HW2 1179   0.462   0.458   2.017  1.9937  1.6143 -0.0182
  394SOL     OW 1180   2.952   1.826   2.787  0.7743  0.0770 -0.5355
  394SOL    HW1 1181   3.035   1.831   2.851  2.7064 -2.8258 -0.0434
  394SOL    HW2 1182   2.974   1.817   2.687  0.0522 -1.6105  1.5542
  395SOL     OW 1183   1.581   1.904   0.685 -0.0846 -0.0151 -0.5260
  395SOL    HW1 1184   1.654   1.844   0.640  1.8119  2.2435  2.7984
  395SOL    HW2 1185   1.624   1.958   0.760  0.1041 -0.9314 -2.4868
  396SOL     OW 1186   2.761   2.016   1.339 -0.1425 -0.9385  0.1142
  396SOL    HW1 1187   2.764   2.022   1.443  1.7805 -0.7413  1.2042
  396SOL    HW2 1188   2.669   2.003   1.302  1.3399 -1.4253  1.0966
  397SOL     OW 1189   1.022   2.104   0.632  0.3369 -0.2828  0.2655
  397SOL    HW1 1190   0.947   2.082   0.562 -2.8825  0.8267 -1.3381
  397SOL    HW2 1191   0.989   2.153   0.715 -0.3225 -1.0752 -2.4911
  398SOL     OW 1192   2.244   0.065   1.030  0.8570 -0.5412  0.1544
  398SOL    HW1 1193   2.240  -0.035   1.050 -1.3405  2.9362 -0.8068
  398SOL    HW2 1194   2.150   0.110   1.048  0.0681  2.6821  1.5979
  399SOL     OW 1195   2.866   2.578   2.726 -0.2391  0.1865  0.2565
  399SOL    HW1 1196   2.849   2.529   2.640 -1.9437 -1.3854  0.0033
  399SOL    HW2 1197   2.829   2.522   2.809 -0.1044  0.0706  2.2225
  400SOL     OW 1198   0.783   1.600   1.265 -0.5522  0.0970 -0.2367
  400SOL    HW1 1199   0.733   1.641   1.347 -0.7021  0.8633  0.1552
  400SOL    HW2 1200   0.780   1.668   1.187 -0.9112 -1.3730  1.2370
  401SOL     OW 1201   1.827   0.153   1.286  0.2611  0.5552  0.3909
  401SOL    HW1 1202   1.882   0.202   1.355  1.2556 -1.6269  0.8201
  401SOL    HW2 1203   1.735   0.201   1.274  2.2964  1.0597  0.1854
  402SOL     OW 1204   1.340   0.169   3.066 -0.0490 -0.1289  0.3810
  402SOL    HW1 1205   1.427   0.146   3.015 -0.1835  1.2141 -1.9486
  402SOL    HW2 1206   1.346   0.266   3.111 -0.3525  3.6160 -1.3576
  403SOL     OW 1207   2.302   1.846   0.914 -0.0919  0.4884 -0.1006
  403SOL    HW1 1208   2.400   1.819   0.948 -0.7951 -3.6441 -0.4269
  403SOL    HW2 1209   2.251   1.897   0.986 -1.1231 -3.0761 -0.0050
  404SOL     OW 1210   0.173   2.502   2.854  0.3806 -0.0685  0.1032
  404SOL    HW1 1211   0.269   2.457   2.840 -1.5778  2.5231  1.2642
  404SOL    HW2 1212   0.176   2.603   2.876 -0.1022 -1.2784  0.8571
  405SOL     OW 1213   0.246   2.517   0.559  0.0437 -0.5220  0.6304
  405SOL    HW1 1214   0.181   2.514   0.476  1.2402  2.8459  0.1993
  405SOL    HW2 1215   0.306   2.604   0.561  0.6274  0.3180 -1.6849
  406SOL     OW 1216   0.012   1.509   3.011  0.0617 -0.1539 -0.2143
  406SOL    HW1 1217   0.087   1.453   2.963 -0.3640 -1.6211  0.9279
  406SOL    HW2 1218   0.014   1.503   3.117  1.0198 -0.8286  4.5704
  407SOL     OW 1219   1.529   0.924   0.903  0.2454 -0.0357 -0.2804
  407SOL    HW1 1220   1.541   0.950   0.802  1.7576  2.5436  1.7323
  407SOL    HW2 1221   1.485   0.996   0.957 -1.1246  0.0903 -2.2165
  408SOL     OW 1222   1.578   2.414   0.985  0.1670  0.1806  0.6991
  408SOL    HW1 1223   1.647   2.407   0.906  3.0379  0.9887 -2.0807
  408SOL    HW2 1224   1.602   2.482   1.058 -0.5598 -1.0418 -2.6876
  409SOL     OW 1225   0.582   0.840   0.751 -0.7039 -0.6558  1.0288
  409SOL    HW1 1226   0.519   0.854   0.668 -0.6017 -1.1674 -2.1309
  409SOL    HW2 1227   0.614   0.744   0.758 -1.2139  0.8657  1.8820
  410SOL     OW 1228   1.259   1.999   1.450 -0.0476  0.3851  0.1179
  410SOL    HW1 1229   1.272   2.035   1.547 -2.5455 -0.7373 -1.6045
  410SOL    HW2 1230   1.169   1.936   1.431 -2.1091 -0.6428  3.1158
  411SOL     OW 1231   2.424   1.785   3.070  0.3965 -0.1582 -0.7473
  411SOL    HW1 1232   2.353   1.805   3.001  2.6193  1.3796  1.0181
  411SOL    HW2 1233   2.503   1.735   3.027 -0.5933  0.3618  0.4453
  412SOL     OW 1234   1.478   2.472   2.222 -1.1422 -0.1481  0.2089
  412SOL    HW1 1235   1.524   2.517   2.305  0.2731  0.2796 -3.4495
  412SOL    HW2 1236   1.381   2.452   2.241 -0.4434  2.8722 -2.3542
  413SOL     OW 1237   3.073   0.279   2.967  0.2662 -0.0556 -0.2289
  413SOL    HW1 1238   3.040   0.185   3.002  0.0750  0.3769 -2.5492
  413SOL    HW2 1239   3.177   0.286   2.983  1.9880  3.7698  0.2813
  414SOL     OW 1240   1.775   1.418   1.393  0.3754  1.1354  0.0157
  414SOL    HW1 1241   1.716   1.490   1.435  1.3871 -0.8514  1.4041
  414SOL    HW2 1242   1.757   1.399   1.291 -0.6296  1.1706  0.3055
  415SOL     OW 1243   0.376   2.275   0.614 -0.2125  0.1003  0.1743
  415SOL    HW1 1244   0.345   2.366   0.574  2.8184 -0.1163 -1.6011
  415SOL    HW2 1245   0.299   2.204   0.616  3.7021 -0.4502 -0.5809
  416SOL     OW 1246   0.381   1.060   1.038 -0.4236 -0.4363  0.0056
  416SOL    HW1 1247   0.348   1.029   0.948 -1.1569  1.3770  2.8086
  416SOL    HW2 1248   0.482   1.093   1.032 -0.3914  0.4874  1.1973
  417SOL     OW 1249   2.118   2.361   1.893 -0.1117  0.1006 -0.0060
  417SOL    HW1 1250   2.135   2.261   1.913 -1.8559  0.4369 -1.9932
  417SOL    HW2 1251   2.044   2.392   1.953  1.4405 -1.0482 -0.9940
  418SOL     OW 1252   1.112   0.505   1.286  0.2004 -0.4245 -0.7412
  418SOL    HW1 1253   1.016   0.515   1.261 -0.1648 -0.6317  0.1734
  418SOL    HW2 1254   1.163   0.425   1.243 -1.9014  0.0556  1.5344
  419SOL     OW 1255   1.046   0.364   3.048  0.7714 -0.6644 -0.8928
  419SOL    HW1 1256   1.082   0.417   2.965  0.0561  1.7832 -1.2702
  419SOL    HW2 1257   0.971   0.293   3.025 -1.8786 -2.0786  2.4614
  420SOL     OW 1258   0.210   2.253   0.332 -0.3873  0.0150  0.1025
  420SOL    HW1 1259   0.168   2.196   0.257 -0.2646 -2.4973  2.2163
  420SOL    HW2 1260   0.132   2.294   0.390 -0.1068  0.4529  1.7402
  421SOL     OW 1261   0.321   3.089   0.704 -0.7169  0.3205  0.4024
  421SOL    HW1 1262   0.293   3.004   0.653  0.0977 -1.0207 -1.3931
  421SOL    HW2 1263   0.420   3.104   0.699 -0.5907  0.3602 -3.4314
  422SOL     OW 1264   0.967   2.513   1.039  0.0509 -0.2568  0.2073
  422SOL    HW1 1265   1.000   2.572   0.957  0.7106  0.6145 -1.6088
  422SOL    HW2 1266   1.001   2.539   1.137  3.3742 -0.5344  0.0251
  423SOL     OW 1267   0.048   0.651   1.206  0.1968  0.1715  0.1319
  423SOL    HW1 1268  -0.006   0.609   1.288 -2.3367  1.1508  2.1451
  423SOL    HW2 1269   0.010   0.740   1.173  1.9341 -1.6407  1.6755
  424SOL     OW 1270   0.974   2.211   2.065  0.0243  0.4297  0.2009
  424SOL    HW1 1271   0.998   2.307   2.032  0.6998 -1.4674 -0.3138
  424SOL    HW2 1272   0.982   2.200   2.166  1.7532  1.0354 -0.2668
  425SOL     OW 1273   1.974   1.443   1.010 -0.1830  0.4858 -0.0554
  425SOL    HW1 1274   1.987   1.340   1.006 -0.0966  2.5544 -3.1895
  425SOL    HW2 1275   2.049   1.488   0.953  0.7544 -1.9779 -1.1694
  426SOL     OW 1276   1.507   1.569   1.441  0.0240  0.1134 -0.0312
  426SOL    HW1 1277   1.469   1.658   1.416 -0.6318 -1.8379 -0.7920
  426SOL    HW2 1278   1.479   1.530   1.533  1.2901 -2.3316 -1.7059
  427SOL     OW 1279   1.920   2.409   2.091  0.9722  0.2442 -0.3655
  427SOL    HW1 1280   1.960   2.379   2.184 -1.2616 -1.0457  1.3526
  427SOL    HW2 1281   1.892   2.513   2.092  0.1210 -0.3195 -0.3418
  428SOL     OW 1282   0.864   2.947   0.142 -0.0890 -0.6978 -0.0450
  428SOL    HW1 1283   0.889   3.043   0.173 -1.9489 -2.9901 -1.1652
  428SOL    HW2 1284   0.946   2.889   0.129 -1.9118  0.3514 -1.4489
  429SOL     OW 1285   1.285   0.076   0.227  0.2131 -0.6703  0.1855
  429SOL    HW1 1286   1.359   0.100   0.297  0.5233  2.5885  1.9893
  429SOL    HW2 1287   1.317   0.108   0.134 -0.5572 -0.6625  1.2306
  430SOL     OW 1288   2.806   1.539   0.335 -1.1027  0.3169  0.4058
  430SOL    HW1 1289   2.794   1.616   0.265  0.7033  2.6607  0.0168
  430SOL    HW2 1290   2.799   1.572   0.433 -3.3865 -1.3337 -0.9655
  431SOL     OW 1291   2.129   1.632   0.888 -0.2248 -0.1693  0.2425
  431SOL    HW1 1292   2.178   1.712   0.931  1.0169 -0.2222 -1.0046
  431SOL    HW2 1293   2.052   1.671   0.831  0.2378  1.5177  1.0166
  432SOL     OW 1294   2.918   2.232   1.239  0.0603  0.8865 -0.0624
  432SOL    HW1 1295   2.838   2.177   1.266 -1.4886 -2.6448  2.0463
  432SOL    HW2 1296   2.968   2.285   1.311  0.4816  1.2266  1.0467
  433SOL     OW 1297   1.877   0.357   0.797  0.0198  0.7084  0.1219
  433SOL    HW1 1298   1.812   0.343   0.873 -0.5064 -0.2519  0.0131
  433SOL    HW2 1299   1.939   0.275   0.785 -3.4942 -0.7841  0.4475
  434SOL     OW 1300   1.549   0.294   0.746  0.0387 -0.6182  0.4781
  434SOL    HW1 1301   1.518   0.378   0.704 -1.4813 -2.4601  0.8400
  434SOL    HW2 1302   1.610   0.312   0.832  2.7806  0.0548 -1.2231
  435SOL     OW 1303   1.447   1.380   2.151 -0.3252  0.1873  0.1569
  435SOL    HW1 1304   1.393   1.385   2.242  0.3733 -1.6759 -1.0605
  435SOL    HW2 1305   1.457   1.469   2.106  2.2202 -0.9492  1.3250
  436SOL     OW 1306   1.608   2.653   2.412  0.0630  0.7230  0.1034
  436SOL    HW1 1307   1.596   2.741   2.469 -2.1196 -0.5218  2.8669
  436SOL    HW2 1308   1.651   2.573   2.470  4.9712  2.1662 -2.1890
  437SOL     OW 1309   1.076   2.913   0.889  0.0952 -0.3239 -0.4428
  437SOL    HW1 1310   1.006   2.987   0.862  1.4150 -1.3153 -3.6678
  437SOL    HW2 1311   1.107   2.906   0.990  0.1550  1.7154  2.1145
  438SOL     OW 1312   1.044   2.599   1.281 -0.5694  0.5529  0.3285
  438SOL    HW1 1313   1.043   2.653   1.373 -0.1703 -2.4940  1.0072
  438SOL    HW2 1314   1.017   2.496   1.306 -0.3852 -2.1266 -1.0971
  439SOL     OW 1315   0.749   1.783   1.049  0.3752  0.1756  0.6037
  439SOL    HW1 1316   0.761   1.884   1.029 -0.2367  1.3689  1.5821
  439SOL    HW2 1317   0.648   1.759   1.055 -0.5811 -3.1105  0.0970
  440SOL     OW 1318   1.039   2.473   1.983 -0.4103  0.3607 -0.9445
  440SOL    HW1 1319   0.987   2.516   1.902  1.6015  0.3279 -1.2394
  440SOL    HW2 1320   1.136   2.505   1.988  0.8180 -3.6235 -1.7185
  441SOL     OW 1321   0.407   2.779   1.367  0.3164  0.3607  0.3758
  441SOL    HW1 1322   0.459   2.699   1.411  1.8916 -0.8669 -2.8449
  441SOL    HW2 1323   0.368   2.768   1.273  1.1648 -0.6119 -1.5254
  442SOL     OW 1324   2.246   0.677   2.600  0.4063 -0.4493  0.0960
  442SOL    HW1 1325   2.241   0.589   2.547  0.1454  0.3396  1.1186
  442SOL    HW2 1326   2.153   0.730   2.607  0.5753  2.7537 -0.1406
  443SOL     OW 1327   1.234   2.660   2.196 -0.0656  0.1649  0.1120
  443SOL    HW1 1328   1.243   2.566   2.238 -1.2613  0.4039  1.2736
  443SOL    HW2 1329   1.209   2.736   2.267  0.2455 -0.3065 -2.9312
  444SOL     OW 1330   1.049   1.230   1.503  0.3370 -0.0681  0.0076
  444SOL    HW1 1331   1.142   1.197   1.486  1.8816 -0.0839 -2.4906
  444SOL    HW2 1332   1.042   1.312   1.567  0.7346  3.2525 -0.8511
  445SOL     OW 1333   3.082   2.400   1.911 -0.6232  0.3126 -0.4363
  445SOL    HW1 1334   3.020   2.381   1.830 -1.6321  0.4766 -2.5024
  445SOL    HW2 1335   3.041   2.361   1.996  0.0234  1.8335 -1.6793
  446SOL     OW 1336   0.191   1.930   2.378  0.2650 -0.3017  0.7262
  446SOL    HW1 1337   0.139   2.015   2.388  0.3324  0.0345 -3.7113
  446SOL    HW2 1338   0.149   1.865   2.305  0.2210 -2.7256 -1.9159
  447SOL     OW 1339   1.238   1.662   1.921  0.4652 -0.1079  0.3453
  447SOL    HW1 1340   1.151   1.712   1.938  1.2397 -0.0516 -0.9113
  447SOL    HW2 1341   1.318   1.712   1.963 -2.2639  1.3271  2.5558
  448SOL     OW 1342   0.137   1.402   2.024 -0.5967 -0.5692  0.4751
  448SOL    HW1 1343   0.138   1.491   1.973  0.1075  0.6268 -1.0610
  448SOL    HW2 1344   0.090   1.405   2.116 -1.8452 -1.0017 -1.4117
  449SOL     OW 1345   1.778   2.981   0.865 -0.8674 -0.2087  0.1761
  449SOL    HW1 1346   1.771   2.985   0.968 -1.1868  0.5500  1.0169
  449SOL    HW2 1347   1.840   2.901   0.833  0.6029 -0.5772  1.2368
  450SOL     OW 1348   2.292   1.463   0.739  0.3856  0.3905  0.0450
  450SOL    HW1 1349   2.229   1.517   0.806 -0.6283  1.3314  1.4305
  450SOL    HW2 1350   2.316   1.511   0.654  0.3383 -0.6379  2.4905
  451SOL     OW 1351   1.402   3.059   1.481 -0.2510  0.5463 -0.2650
  451SOL    HW1 1352   1.334   3.136   1.487  1.8672 -3.1644 -2.4540
  451SOL    HW2 1353   1.402   3.009   1.572 -0.1858 -0.2856  1.0990
  452SOL     OW 1354   2.668   2.291   2.240  0.2924  0.3150 -0.4138
  452SOL    HW1 1355   2.627   2.380   2.280 -1.9427 -1.1000  0.4976
  452SOL    HW2 1356   2.720   2.241   2.312  0.5593  1.2499  0.7378
  453SOL     OW 1357   2.450   2.646   3.096  0.2989  0.2468 -0.2764
  453SOL    HW1 1358   2.385   2.722   3.122  1.7755 -2.5067  2.7780
  453SOL    HW2 1359   2.434   2.592   3.007 -2.3668 -0.9337 -2.2536
  454SOL     OW 1360   0.962   1.108   2.059 -0.4752 -0.1664  0.4648
  454SOL    HW1 1361   0.961   1.127   1.958  2.3462 -0.7828  0.0830
  454SOL    HW2 1362   1.035   1.165   2.102 -1.3669  0.3478 -0.5422
  455SOL     OW 1363   0.661   2.693   2.778 -0.7234  0.3038 -0.1855
  455SOL    HW1 1364   0.760   2.718   2.776  2.9251  1.1942  0.1730
  455SOL    HW2 1365   0.631   2.625   2.853  0.4685 -0.6650  3.0697
  456SOL     OW 1366   0.394   1.903   0.220  0.6588  0.3204 -0.0502
  456SOL    HW1 1367   0.473   1.836   0.232 -2.1809 -0.4131  0.6572
  456SOL    HW2 1368   0.436   1.994   0.198 -1.0013 -0.6933 -1.2893
  457SOL     OW 1369   0.400   2.751   0.593 -0.2130 -0.8269  0.1593
  457SOL    HW1 1370   0.396   2.796   0.497 -1.4483 -2.2961 -1.9193
  457SOL    HW2 1371   0.500   2.736   0.633  2.0050  1.1109  1.1984
  458SOL     OW 1372   2.812   0.028   1.153  0.1553  0.2378 -0.3945
  458SOL    HW1 1373   2.886   0.099   1.136 -1.2541  0.9952  0.8252
  458SOL    HW2 1374   2.819  -0.059   1.099  2.3569 -1.3924 -0.1685
  459SOL     OW 1375   2.176   2.578   0.801 -0.6481  0.9725 -0.5802
  459SOL    HW1 1376   2.257   2.620   0.843 -1.4438 -0.5838 -0.4780
  459SOL    HW2 1377   2.192   2.490   0.757 -1.8483 -0.8737  1.5512
  460SOL     OW 1378   1.192   2.102   2.781 -0.1710  0.8341  0.1273
  460SOL    HW1 1379   1.170   2.113   2.683 -0.5521 -2.2483  1.7449
  460SOL    HW2 1380   1.196   2.003   2.808  0.5508  1.0128 -1.1075
  461SOL     OW 1381   0.504   2.152   2.694  0.2325  0.4900 -0.1618
  461SOL    HW1 1382   0.434   2.076   2.675 -1.0848  0.7652  0.4722
  461SOL    HW2 1383   0.539   2.139   2.789 -3.3821  0.0226 -0.7342
  462SOL     OW 1384   1.004   1.085   1.764 -0.4101  0.0654  0.9256
  462SOL    HW1 1385   1.071   1.045   1.695  2.7904  2.1704  2.0273
  462SOL    HW2 1386   0.951   1.159   1.716  0.9305 -0.0938 -0.8610
  463SOL     OW 1387   0.464   0.864   0.491 -0.2550 -0.0409 -0.2435
  463SOL    HW1 1388   0.483   0.761   0.472  0.8168 -2.3465 -0.5599
  463SOL    HW2 1389   0.366   0.882   0.510  0.3789 -0.0649  2.5285
  464SOL     OW 1390   0.570   2.319   2.213 -0.4334 -0.1629  0.3906
  464SOL    HW1 1391   0.543   2.398   2.271 -2.7890 -2.7990  0.7678
  464SOL    HW2 1392   0.513   2.305   2.133  1.9443 -1.4409 -0.0157
  465SOL     OW 1393   0.263   0.922   0.825 -0.6445  0.3004 -0.5105
  465SOL    HW1 1394   0.173   0.937   0.783 -0.1878 -1.2904 -0.1958
  465SOL    HW2 1395   0.286   0.823   0.833  0.2732 -1.5265  1.6702
  466SOL     OW 1396   1.414   1.149   1.053  0.0084 -0.0578 -0.4803
  466SOL    HW1 1397   1.418   1.251   1.056 -1.4468 -0.0019 -0.4571
  466SOL    HW2 1398   1.324   1.126   1.008 -0.9649 -0.4091 -0.4350
  467SOL     OW 1399   0.616   0.416   2.459  0.1501  0.2506 -0.3499
  467SOL    HW1 1400   0.547   0.493   2.443  0.6109  2.0562  0.6727
  467SOL    HW2 1401   0.609   0.373   2.551  1.3151 -1.4674  1.8554
  468SOL     OW 1402   0.425   2.257   1.623  0.6379 -0.3398  0.7103
  468SOL    HW1 1403   0.499   2.302   1.675 -0.8038  1.0613  0.9093
  468SOL    HW2 1404   0.421   2.283   1.523 -3.6724 -0.4046  1.5588
  469SOL     OW 1405   1.474   1.326   1.303  0.2432  0.6721 -0.6119
  469SOL    HW1 1406   1.537   1.304   1.231 -3.3617 -1.0333 -0.4143
  469SOL    HW2 1407   1.493   1.419   1.352 -2.0212  1.7343 -2.2268
  470SOL     OW 1408   3.013   1.877   0.722 -0.2055  0.5786  0.2653
  470SOL    HW1 1409   3.108   1.905   0.691  1.9079 -0.9809 -1.7936
  470SOL    HW2 1410   3.009   1.798   0.795 -0.4501  0.5636  2.1832
  471SOL     OW 1411   2.583   1.342   2.162  0.0931  0.2460  0.3436
  471SOL    HW1 1412   2.574   1.246   2.202 -0.8988 -0.9045 -0.5564
  471SOL    HW2 1413   2.656   1.401   2.204 -0.5677 -2.0868 -1.4686
  472SOL     OW 1414   1.169   2.381   0.031  0.1905 -0.0936 -0.2982
  472SOL    HW1 1415   1.240   2.382   0.103  0.0777  3.1103 -2.5074
  472SOL    HW2 1416   1.086   2.323   0.056  0.3225  0.8054  1.9331
  473SOL     OW 1417   1.045   1.467   1.051 -0.1815  0.0437  0.3649
  473SOL    HW1 1418   0.960   1.483   0.997  0.3335  2.5128  1.5234
  473SOL    HW2 1419   1.035   1.393   1.125  0.0964 -1.6224 -1.8547
  474SOL     OW 1420   0.647   1.281   0.605 -0.0553  0.2749  0.3243
  474SOL    HW1 1421   0.587   1.210   0.566 -0.8104  2.6443  0.0723
  474SOL    HW2 1422   0.747   1.258   0.589 -0.8000 -0.4830  0.7527
  475SOL     OW 1423   2.837   0.034   0.840 -0.2621 -0.0753  0.3231
  475SOL    HW1 1424   2.905   0.111   0.843 -2.9552  0.6672 -0.5886
  475SOL    HW2 1425   2.743   0.073   0.855  2.2910  1.1699  0.8474
  476SOL     OW 1426   1.013   2.971   1.757 -0.7940  0.1504  0.3166
  476SOL    HW1 1427   1.088   3.038   1.781 -0.5991 -1.1107 -0.0843
  476SOL    HW2 1428   1.008   2.953   1.655  1.2196 -1.9597 -0.6347
  477SOL     OW 1429   1.468   0.322   2.431  0.2223  0.0252 -0.2171
  477SOL    HW1 1430   1.432   0.332   2.525  2.3134 -0.8300  0.0671
  477SOL    HW2 1431   1.568   0.289   2.426  0.0963  0.0239 -1.5222
  478SOL     OW 1432   2.221   1.841   0.212 -0.0981 -0.3782  0.1811
  478SOL    HW1 1433   2.168   1.755   0.247 -0.5037  2.6548  0.5099
  478SOL    HW2 1434   2.283   1.813   0.134  0.1593 -0.9447 -2.3458
  479SOL     OW 1435   1.250   0.950   2.875 -0.1489  0.2734 -0.3183
  479SOL    HW1 1436   1.338   0.953   2.818  1.5929  0.4460 -0.1296
  479SOL    HW2 1437   1.197   0.859   2.865 -0.1246  0.5397 -0.1512
  480SOL     OW 1438   2.629   2.347   0.391 -0.0915  0.3217 -0.3726
  480SOL    HW1 1439   2.572   2.297   0.464  1.0164 -1.7039  0.4122
  480SOL    HW2 1440   2.573   2.370   0.304 -2.6500 -0.3712  1.0759
  481SOL     OW 1441   0.931   1.166   0.852 -0.1734  0.5482  0.7902
  481SOL    HW1 1442   0.917   1.256   0.796 -0.9765 -0.5024 -0.0920
  481SOL    HW2 1443   0.989   1.178   0.937  0.6771  0.3267 -1.1199
  482SOL     OW 1444   1.556   0.309   1.987  0.3017 -0.7213  0.0029
  482SOL    HW1 1445   1.555   0.408   1.944 -2.8717 -0.0073  1.1793
  482SOL    HW2 1446   1.643   0.271   2.016 -0.6180  2.3234  1.3983
  483SOL     OW 1447   0.145   2.283   1.208  0.4903 -0.3876  0.0166
  483SOL    HW1 1448   0.093   2.337   1.280 -4.0648  0.9519 -1.0112
  483SOL    HW2 1449   0.146   2.331   1.117  1.4438  1.8204 -0.6818
  484SOL     OW 1450   1.767   1.128   1.358 -0.2948  0.2412  0.3463
  484SOL    HW1 1451   1.831   1.055   1.393  2.2047  1.6590 -0.0824
  484SOL    HW2 1452   1.777   1.217   1.412  0.4500 -1.4924 -0.2458
  485SOL     OW 1453   0.750   0.818   1.768 -0.5095  0.7880  0.0668
  485SOL    HW1 1454   0.726   0.872   1.684 -3.0482 -0.4779 -0.3250
  485SOL    HW2 1455   0.847   0.783   1.763  1.5973  0.1009 -1.2243
  486SOL     OW 1456   0.825   1.857   2.475 -0.2353 -0.5035  0.2863
  486SOL    HW1 1457   0.894   1.823   2.538 -2.2991 -0.3478  1.2479
  486SOL    HW2 1458   0.771   1.939   2.514 -0.4556 -2.1041  1.8255
  487SOL     OW 1459   1.766   1.606   0.938 -0.1673  0.4691  0.4298
  487SOL    HW1 1460   1.829   1.532   0.972 -2.4599  1.9857 -1.2379
  487SOL    HW2 1461   1.815   1.677   0.878  1.6227 -0.0508 -2.8810
  488SOL     OW 1462   2.943   0.887   2.294 -0.3374 -0.2874 -0.8530
  488SOL    HW1 1463   2.964   0.788   2.266  0.2675 -0.6003 -2.7625
  488SOL    HW2 1464   2.988   0.906   2.386  1.2194 -1.6619 -1.1452
  489SOL     OW 1465   2.850   0.359   1.268  0.5628 -0.5488 -0.0755
  489SOL    HW1 1466   2.798   0.337   1.355  1.5639  1.4171 -0.1305
  489SOL    HW2 1467   2.921   0.286   1.244 -1.1527 -1.5089  0.8694
  490SOL     OW 1468   1.410   2.953   2.824  0.1085  0.3885  0.2097
  490SOL    HW1 1469   1.470   2.867   2.831 -1.8687  1.2438 -1.5520
  490SOL    HW2 1470   1.394   2.984   2.725  1.7133 -1.3219 -1.0927
  491SOL     OW 1471   1.699   1.527   2.644 -0.4443 -0.2037  0.3373
  491SOL    HW1 1472   1.622   1.530   2.711  4.1382 -1.7743 -1.5143
  491SOL    HW2 1473   1.793   1.517   2.687 -2.0151  1.3940 -2.6716
  492SOL     OW 1474   0.560   2.092   0.595 -1.0723  0.4512  0.6563
  492SOL    HW1 1475   0.573   2.075   0.694 -1.1208  1.3042 -1.5345
  492SOL    HW2 1476   0.495   2.176   0.579 -3.3009  2.8785 -1.0441
  493SOL     OW 1477   0.444   1.401   2.084 -0.5083  0.1392 -0.2696
  493SOL    HW1 1478   0.351   1.432   2.051  2.0357 -1.7565 -1.2899
  493SOL    HW2 1479   0.442   1.298   2.097  1.7193 -0.1479  0.5356
  494SOL     OW 1480   2.719   2.619   0.100 -0.0465  0.8223 -0.7422
  494SOL    HW1 1481   2.709   2.610   0.202  0.4702  2.0667 -0.0116
  494SOL    HW2 1482   2.627   2.646   0.058 -2.1534 -0.3445 -0.1361
  495SOL     OW 1483   2.562   2.737   2.637  0.4792 -0.1140  0.3447
  495SOL    HW1 1484   2.561   2.631   2.644 -1.6139 -1.2217  1.7255
  495SOL    HW2 1485   2.631   2.778   2.567 -1.8393  1.0484  1.6629
  496SOL     OW 1486   2.042   2.271   0.772  0.3791 -0.1145 -0.7520
  496SOL    HW1 1487   2.070   2.321   0.863 -0.2741 -0.2204  1.0630
  496SOL    HW2 1488   2.024   2.173   0.789  0.4291  0.4771  0.4832
  497SOL     OW 1489   0.199   2.991   2.371  0.4102 -0.0336 -0.2154
  497SOL    HW1 1490   0.168   3.050   2.455 -0.6265  1.3390  0.7244
  497SOL    HW2 1491   0.228   3.051   2.292 -1.4794  0.0016  1.1047
  498SOL     OW 1492   1.206   1.325   1.262  0.5739  0.5288 -0.1525
  498SOL    HW1 1493   1.312   1.309   1.272  0.4134 -1.8100  0.5250
  498SOL    HW2 1494   1.177   1.405   1.325 -1.9191  0.4125 -0.6162
  499SOL     OW 1495   0.622   1.800   0.288 -0.3430 -0.5664  0.7322
  499SOL    HW1 1496   0.650   1.721   0.222 -0.7029 -4.8691 -2.5097
  499SOL    HW2 1497   0.697   1.860   0.320 -0.1311 -0.2332 -0.9361
  500SOL     OW 1498   1.393   2.873   1.681 -0.3661 -0.4009 -0.5039
  500SOL    HW1 1499   1.304   2.842   1.712  2.0952  3.7127  0.6405
  500SOL    HW2 1500   1.451   2.797   1.639  3.7638 -0.8618  4.3160
  501SOL     OW 1501   0.789   1.148   2.307 -0.2466 -0.2900 -0.3148
  501SOL    HW1 1502   0.700   1.100   2.300  5.4997 -1.9337 -0.0200
  501SOL    HW2 1503   0.829   1.164   2.216  1.8767 -0.3069 -2.7033
  502SOL     OW 1504   2.556   0.942   1.761  0.4221 -0.2609 -0.5312
  502SOL    HW1 1505   2.559   0.947   1.656  1.6533 -0.5837 -0.5674
  502SOL    HW2 1506   2.559   0.842   1.797 -1.5521 -1.6713 -2.0765
  503SOL     OW 1507   1.320   0.169   0.592  0.7040 -0.4984  0.0781
  503SOL    HW1 1508   1.238   0.225   0.631 -0.5576  0.8069  0.6789
  503SOL    HW2 1509   1.413   0.204   0.626  2.0501  1.9740  0.4297
  504SOL     OW 1510   3.000   2.346   1.498 -0.4463  0.3572 -0.0505
  504SOL    HW1 1511   2.926   2.412   1.524 -0.4701 -1.9770  0.6659
  504SOL    HW2 1512   3.008   2.270   1.569  1.2018 -0.8972  1.0667
  505SOL     OW 1513   2.266   1.172   1.422 -0.2725 -0.3094  0.0957
  505SOL    HW1 1514   2.250   1.212   1.327  2.4057  1.6762 -0.6943
  505SOL    HW2 1515   2.340   1.235   1.469 -0.2143  1.3095  0.1251
  506SOL     OW 1516   1.935   0.205   1.821  0.5981 -0.1870  0.2508
  506SOL    HW1 1517   2.017   0.144   1.798 -1.1629  0.4196 -0.3925
  506SOL    HW2 1518   1.971   0.303   1.838 -1.7043  1.1145 -0.8490
  507SOL     OW 1519   0.599   0.700   2.151  0.1514 -0.0215 -0.2023
  507SOL    HW1 1520   0.537   0.629   2.113  1.5410  1.1445  3.1518
  507SOL    HW2 1521   0.696   0.660   2.172 -1.4532 -0.3600 -1.3633
  508SOL     OW 1522   0.308   1.643   0.755  0.1890  0.6129 -0.1198
  508SOL    HW1 1523   0.366   1.709   0.696  2.1635  3.5249  1.3563
  508SOL    HW2 1524   0.256   1.695   0.830 -1.9155  1.4383  1.3010
  509SOL     OW 1525   1.277   1.181   2.432 -0.6086  0.0348 -0.2439
  509SOL    HW1 1526   1.330   1.136   2.353  3.2072 -4.0371 -1.1083
  509SOL    HW2 1527   1.172   1.170   2.433  1.4925  0.5356 -1.1387
  510SOL     OW 1528   1.268   2.119   2.216 -0.2985 -0.2032 -0.1569
  510SOL    HW1 1529   1.301   2.148   2.123 -1.0663  0.2861  0.8950
  510SOL    HW2 1530   1.197   2.045   2.205  4.6119  2.1139 -1.9150
  511SOL     OW 1531   3.000   2.695   1.265  0.1126 -0.0645  0.0292
  511SOL    HW1 1532   2.975   2.688   1.166  1.3778 -1.1021  3.0077
  511SOL    HW2 1533   2.915   2.735   1.319 -0.2559 -1.2363  2.7064
  512SOL     OW 1534   2.429   0.433   1.373  0.1964 -0.1795 -0.3720
  512SOL    HW1 1535   2.335   0.472   1.348 -0.9766  1.1986  1.9028
  512SOL    HW2 1536   2.480   0.386   1.292  1.9070 -0.6837  1.3685
  513SOL     OW 1537   2.620   2.122   0.929  0.2696 -0.5411 -0.1860
  513SOL    HW1 1538   2.559   2.196   0.893 -1.0826 -1.3661  0.8816
  513SOL    HW2 1539   2.698   2.101   0.866 -3.0168  1.1089  1.3671
  514SOL     OW 1540   0.675   2.761   0.430 -0.4096  0.1169  0.1367
  514SOL    HW1 1541   0.663   2.796   0.337  3.0664  2.7123  2.5791
  514SOL    HW2 1542   0.683   2.835   0.501  0.5602 -0.3077  1.5777
  515SOL     OW 1543   1.904   1.335   2.401  0.2421 -0.2461  0.0715
  515SOL    HW1 1544   1.914   1.272   2.319  0.0937  0.1455 -0.6759
  515SOL    HW2 1545   1.815   1.323   2.456  2.8313 -3.5183 -0.0365
  516SOL     OW 1546   0.292   0.302   1.880  0.1566 -0.2713 -0.1791
  516SOL    HW1 1547   0.382   0.276   1.846 -0.5029 -0.4312  1.3163
  516SOL    HW2 1548   0.213   0.237   1.851 -1.5011 -1.7120 -2.0912
  517SOL     OW 1549   0.490   0.125   1.133 -0.1232  0.3141  0.0946
  517SOL    HW1 1550   0.492   0.159   1.238 -1.4289  1.8329 -0.4601
  517SOL    HW2 1551   0.440   0.033   1.124  1.4033 -2.1410 -2.0680
  518SOL     OW 1552   2.149   0.004   1.815  0.3458  0.0215  0.3306
  518SOL    HW1 1553   2.230   0.073   1.803  2.2220  3.9115  3.3125
  518SOL    HW2 1554   2.152  -0.069   1.743 -2.0639 -0.4751  1.8809
  519SOL     OW 1555   2.304   2.111   2.468  0.3507  0.0675 -0.1635
  519SOL    HW1 1556   2.244   2.103   2.555 -0.0584  2.5922  0.2353
  519SOL    HW2 1557   2.317   2.214   2.436  0.0561  3.7657  0.9343
  520SOL     OW 1558   1.832   2.692   1.743 -0.3219 -0.7953 -0.2861
  520SOL    HW1 1559   1.768   2.619   1.772  3.1017  3.5453 -0.0327
  520SOL    HW2 1560   1.916   2.657   1.692  1.1527  1.0742 -0.0676
  521SOL     OW 1561   0.555   3.083   2.064  0.0557 -0.2936 -0.4413
  521SOL    HW1 1562   0.461   3.074   2.108  0.5487 -0.3169 -0.8072
  521SOL    HW2 1563   0.628   3.081   2.138 -0.7239  1.3983  3.4965
  522SOL     OW 1564   0.177   1.844   1.556 -0.0881  0.0498  0.4021
  522SOL    HW1 1565   0.237   1.903   1.619 -1.7501 -0.7229  0.1064
  522SOL    HW2 1566   0.155   1.882   1.463 -2.2962 -1.3153  2.2706
  523SOL     OW 1567   2.177   2.947   1.580  0.0077  0.1954  0.0196
  523SOL    HW1 1568   2.214   2.856   1.551 -2.6259  1.0056 -3.2566
  523SOL    HW2 1569   2.086   2.953   1.528 -0.9044  0.7854  1.7612
  524SOL     OW 1570   0.191   2.775   2.846  0.3527 -0.0418 -0.4595
  524SOL    HW1 1571   0.127   2.860   2.862  0.5455 -0.7946 -1.1281
  524SOL    HW2 1572   0.289   2.801   2.831 -0.3611  0.8630 -0.6203
  525SOL     OW 1573   2.204   2.031   0.413  0.0323  0.1854 -1.1059
  525SOL    HW1 1574   2.188   1.978   0.498  0.5256 -0.6621 -2.3510
  525SOL    HW2 1575   2.185   1.973   0.327 -1.8639  0.9156  1.7766
  526SOL     OW 1576   0.451   1.510   1.765  0.1176 -0.7306 -0.5160
  526SOL    HW1 1577   0.495   1.573   1.831  1.1270  1.4172 -1.9218
  526SOL    HW2 1578   0.473   1.415   1.795  0.2880  0.2246 -4.2537
  527SOL     OW 1579   1.103   2.887   1.171 -0.0525  0.3148 -0.7373
  527SOL    HW1 1580   1.172   2.816   1.200  1.2585 -1.8911  0.9379
  527SOL    HW2 1581   1.128   2.988   1.180 -1.4781  1.3321 -2.6352
  528SOL     OW 1582   1.376   2.347   0.545 -0.2354 -0.3091 -0.3264
  528SOL    HW1 1583   1.408   2.252   0.546 -2.1209  2.8556 -0.8771
  528SOL    HW2 1584   1.433   2.414   0.606 -0.9009  0.8300  0.8939
  529SOL     OW 1585   1.920   1.782   0.776 -0.1015  0.4188 -0.4389
  529SOL    HW1 1586   1.855   1.790   0.694  1.3404 -1.7115 -0.7818
  529SOL    HW2 1587   1.956   1.879   0.804  0.7971  2.0465 -2.7188
  530SOL     OW 1588   0.380   2.535   0.181 -0.2126  0.1186 -0.4065
  530SOL    HW1 1589   0.397   2.555   0.284 -0.8964  3.0137 -0.4499
  530SOL    HW2 1590   0.436   2.453   0.157  2.9887  0.0651  1.1252
  531SOL     OW 1591   1.850   0.963   1.106  0.6586  0.4055 -0.0500
  531SOL    HW1 1592   1.806   0.891   1.041  0.8196  0.2750 -2.6218
  531SOL    HW2 1593   1.804   0.967   1.202 -1.1985  0.7977 -1.7599
  532SOL     OW 1594   0.330   1.179   0.737  0.7264 -0.4752 -0.4627
  532SOL    HW1 1595   0.322   1.210   0.638  1.9259  0.6691  1.0121
  532SOL    HW2 1596   0.319   1.078   0.758 -2.5044 -0.4323 -1.2685
  533SOL     OW 1597   1.777   0.006   2.587 -1.3352 -0.2653 -0.2376
  533SOL    HW1 1598   1.882   0.007   2.589  1.6499  0.9257 -0.1857
  533SOL    HW2 1599   1.731   0.070   2.653  0.8498  1.4533 -0.9426
  534SOL     OW 1600   0.233   0.215   1.486  1.2087  0.0964 -0.1811
  534SOL    HW1 1601   0.324   0.246   1.450 -1.4374 -0.9213 -0.1619
  534SOL    HW2 1602   0.178   0.298   1.521 -0.0125 -1.8796 -0.6823
  535SOL     OW 1603   1.849   0.343   0.202  0.5634  0.5697  0.4389
  535SOL    HW1 1604   1.872   0.415   0.266 -0.3422 -1.3664  1.1423
  535SOL    HW2 1605   1.794   0.271   0.244  0.6804 -0.4605  1.2136
  536SOL     OW 1606   1.371   2.597   0.927  0.5969 -0.0053  0.3256
  536SOL    HW1 1607   1.422   2.511   0.908 -3.5138 -0.3462  0.0721
  536SOL    HW2 1608   1.269   2.597   0.907 -0.7223  4.4953 -1.2178
  537SOL     OW 1609   0.875   0.220   2.345 -0.0764 -0.2508 -0.5797
  537SOL    HW1 1610   0.901   0.261   2.250 -2.3148 -2.0267 -0.7415
  537SOL    HW2 1611   0.782   0.171   2.344 -0.9587  1.4898 -0.9453
  538SOL     OW 1612   1.655   2.335   1.490  0.4780 -0.7344 -0.0683
  538SOL    HW1 1613   1.635   2.245   1.443 -0.5936 -0.9741 -0.2156
  538SOL    HW2 1614   1.742   2.369   1.444 -0.1810  1.4796  0.1413
  539SOL     OW 1615   0.199   1.599   2.674  0.5177  0.6366  0.1088
  539SOL    HW1 1616   0.105   1.598   2.624  1.6392  0.2318  3.1605
  539SOL    HW2 1617   0.209   1.689   2.721 -1.5573  0.5639 -3.6962
  540SOL     OW 1618   2.746   1.658   1.959  0.4148  0.4858 -0.3629
  540SOL    HW1 1619   2.660   1.606   1.936  0.0299  0.9285 -0.8895
  540SOL    HW2 1620   2.720   1.756   1.960 -0.6381 -0.4531  0.7573
  541SOL     OW 1621   0.468   2.310   0.027  0.1054 -0.0199 -0.1844
  541SOL    HW1 1622   0.498   2.241   0.094 -0.9189  3.3757 -0.4038
  541SOL    HW2 1623   0.370   2.287  -0.011  1.3653  1.2782 -2.9465
  542SOL     OW 1624   2.242   2.572   0.441 -0.2267  0.2177  0.1642
  542SOL    HW1 1625   2.199   2.664   0.429 -1.3270 -2.2705  0.7822
  542SOL    HW2 1626   2.174   2.509   0.490 -0.7477 -0.8294  1.8560
  543SOL     OW 1627   1.002   1.743   1.712 -0.0986 -0.3534 -0.2082
  543SOL    HW1 1628   1.017   1.766   1.811  0.0275  1.5752 -2.1848
  543SOL    HW2 1629   0.990   1.830   1.654 -2.9813 -0.2190 -1.4771
  544SOL     OW 1630   0.939   0.387   0.203  0.4678 -0.3514  0.5155
  544SOL    HW1 1631   0.931   0.292   0.239 -0.8797 -1.3372 -0.2702
  544SOL    HW2 1632   1.002   0.394   0.123  1.0054  0.8361  0.6434
  545SOL     OW 1633   1.107   1.705   0.664  0.1292  0.0698  0.4398
  545SOL    HW1 1634   1.193   1.746   0.711  0.0446 -1.7359  0.1457
  545SOL    HW2 1635   1.115   1.688   0.562  0.2382 -2.0073  1.4851
  546SOL     OW 1636   2.597   1.560   3.023 -0.6854  0.3847 -0.4262
  546SOL    HW1 1637   2.514   1.552   2.957  0.4860  1.9527  0.3296
  546SOL    HW2 1638   2.589   1.522   3.116  0.5897 -0.2728  1.9788
  547SOL     OW 1639   0.547   0.021   2.750  0.3539  0.3205 -0.3698
  547SOL    HW1 1640   0.646   0.008   2.775  1.4885  2.6264 -2.1476
  547SOL    HW2 1641   0.492  -0.061   2.705 -2.1860  0.0648  0.1065
  548SOL     OW 1642   2.032   0.814   3.056  0.0671  0.0006  0.4539
  548SOL    HW1 1643   1.929   0.804   3.037  0.3763 -1.4195  2.3165
  548SOL    HW2 1644   2.060   0.914   3.079  1.8137  2.6447 -0.1856
  549SOL     OW 1645   0.682   0.564   0.199  0.5887  0.7084 -0.4783
  549SOL    HW1 1646   0.631   0.605   0.114 -0.5005  2.4159  1.1357
  549SOL    HW2 1647   0.783   0.575   0.190 -1.2053  1.0537  3.1727
  550SOL     OW 1648   2.508   2.864   2.868 -0.6497 -0.2014  0.0474
  550SOL    HW1 1649   2.477   2.803   2.941  1.8442  0.6972 -0.5542
  550SOL    HW2 1650   2.522   2.827   2.771  1.1187  1.7627  0.0667
  551SOL     OW 1651   0.292   0.902   0.225 -0.0218 -0.5350 -0.0473
  551SOL    HW1 1652   0.373   0.840   0.235  2.4198  1.5720 -1.2442
  551SOL    HW2 1653   0.253   0.928   0.319  0.9704  1.5509 -1.9912
  552SOL     OW 1654   0.757   2.912   1.876 -0.0915  0.7853  0.0309
  552SOL    HW1 1655   0.711   3.004   1.882 -1.0512 -4.4242 -0.2449
  552SOL    HW2 1656   0.858   2.918   1.849  0.1166 -0.2888 -0.1303
  553SOL     OW 1657   0.045   2.516   0.373 -0.0686 -0.3940  0.5377
  553SOL    HW1 1658  -0.030   2.457   0.332  3.1956 -0.7839  0.0304
  553SOL    HW2 1659   0.004   2.604   0.413  1.8036 -0.1345  0.5925
  554SOL     OW 1660   2.209   0.334   0.582 -0.6039 -0.1168  0.0167
  554SOL    HW1 1661   2.263   0.328   0.496  1.0656  0.9972 -1.2455
  554SOL    HW2 1662   2.185   0.240   0.620  0.5128 -0.3077 -0.4649
  555SOL     OW 1663   0.411   2.900   2.492  0.2563  0.1716  0.2738
  555SOL    HW1 1664   0.345   2.966   2.449 -2.4015  0.0688  1.3263
  555SOL    HW2 1665   0.447   2.840   2.414 -0.9351 -0.4762 -0.7134
  556SOL     OW 1666   0.903   2.389   1.618 -0.7680  0.2114 -0.2143
  556SOL    HW1 1667   0.930   2.475   1.671  0.5594  2.0347 -1.0192
  556SOL    HW2 1668   0.951   2.383   1.524 -1.3214 -1.2727 -1.1476
  557SOL     OW 1669   0.096   2.091   0.137  0.0345 -0.1844  0.1950
  557SOL    HW1 1670   0.008   2.037   0.110 -0.2815 -0.3891 -0.1578
  557SOL    HW2 1671   0.152   2.116   0.054  2.6316  3.1145  1.8766
  558SOL     OW 1672   2.935   2.303   0.340  0.0936  0.6124 -0.5190
  558SOL    HW1 1673   2.835   2.280   0.354  0.4677  1.6175  0.6765
  558SOL    HW2 1674   2.968   2.300   0.242  1.6870  0.1092 -0.8337
  559SOL     OW 1675   0.389   2.303   1.351 -0.1193  0.2110 -0.4930
  559SOL    HW1 1676   0.305   2.298   1.292  1.3789  0.3950  1.4013
  559SOL    HW2 1677   0.447   2.215   1.342  2.2765 -0.2722 -0.2064
  560SOL     OW 1678   2.095   1.105   3.056 -0.2090  0.3355  0.1411
  560SOL    HW1 1679   2.045   1.171   3.120 -0.3394 -1.1002  0.7800
  560SOL    HW2 1680   2.197   1.093   3.069  0.4615 -0.9142  0.8438
  561SOL     OW 1681   3.010   1.928   0.023 -0.1229 -0.7894  0.3525
  561SOL    HW1 1682   2.950   1.847   0.055  1.2718 -4.1369  3.9339
  561SOL    HW2 1683   2.947   1.996  -0.026  0.8798  0.0802  2.4248
  562SOL     OW 1684   0.945   2.170   2.366 -0.0006  0.5814 -0.7934
  562SOL    HW1 1685   0.847   2.140   2.372  2.9056  2.4535 -0.3907
  562SOL    HW2 1686   0.980   2.202   2.459  3.4537  0.5628  2.4595
  563SOL     OW 1687   0.690   2.464   2.593  0.4735  0.1450 -0.1021
  563SOL    HW1 1688   0.754   2.382   2.577 -0.9912 -2.4505 -0.3117
  563SOL    HW2 1689   0.664   2.478   2.696 -0.0756  2.8607 -1.9180
  564SOL     OW 1690   2.770   1.316   2.919 -0.3032 -0.0848 -0.2256
  564SOL    HW1 1691   2.679   1.342   2.964 -2.4947  1.4684 -0.2551
  564SOL    HW2 1692   2.821   1.399   2.879 -0.4175  0.6169  0.7913
  565SOL     OW 1693   2.550   1.990   2.579  0.1740 -0.3692 -0.1311
  565SOL    HW1 1694   2.473   2.045   2.534 -0.5693 -1.1372 -0.3718
  565SOL    HW2 1695   2.563   2.011   2.682 -1.9150 -0.2201 -0.1252
  566SOL     OW 1696   2.009   2.865   1.361 -0.4558 -0.1765  0.9763
  566SOL    HW1 1697   1.950   2.790   1.328  1.9048  0.6357  0.7338
  566SOL    HW2 1698   2.079   2.889   1.293  1.6138 -0.6670  1.3568
  567SOL     OW 1699   2.480   0.120   2.282  0.6011 -0.5751  0.5861
  567SOL    HW1 1700   2.380   0.112   2.278  1.8466  2.4052  3.8889
  567SOL    HW2 1701   2.532   0.109   2.191  0.5281 -2.3508 -0.5303
  568SOL     OW 1702   1.527   1.787   0.248 -0.3091 -0.9308 -0.3715
  568SOL    HW1 1703   1.466   1.864   0.210  2.3048 -0.9043  0.0925
  568SOL    HW2 1704   1.626   1.810   0.240 -1.1482  0.6440  2.5156
  569SOL     OW 1705   0.291   0.631   0.856 -0.3172 -0.3278  0.3884
  569SOL    HW1 1706   0.361   0.564   0.809  3.0392  0.7974 -0.5905
  569SOL    HW2 1707   0.189   0.607   0.832 -2.7762 -0.5518  0.6177
  570SOL     OW 1708   0.681   0.744   2.831  0.2736  0.0590  0.1857
  570SOL    HW1 1709   0.712   0.751   2.728 -3.5766 -0.8686  0.0247
  570SOL    HW2 1710   0.683   0.839   2.877  0.8376  0.2165  0.8582
  571SOL     OW 1711   0.843   3.050   1.102 -0.2459 -0.2420 -0.3832
  571SOL    HW1 1712   0.873   3.098   1.017 -1.2347 -0.8973  0.6026
  571SOL    HW2 1713   0.874   2.951   1.105  0.6669 -1.7544 -2.8763
  572SOL     OW 1714   1.588   2.630   1.166  0.7556 -0.3494  0.7399
  572SOL    HW1 1715   1.509   2.564   1.185 -1.5482 -2.6364 -2.0904
  572SOL    HW2 1716   1.551   2.723   1.150  1.7629  1.1823  0.7812
  573SOL     OW 1717   2.909   0.430   2.049 -0.3732  0.3484 -0.2805
  573SOL    HW1 1718   2.862   0.342   2.058  0.7619  0.0313 -1.9585
  573SOL    HW2 1719   2.846   0.501   2.004 -1.3250  0.6148  0.5791
  574SOL     OW 1720   0.216   1.769   0.982 -0.2304 -0.2209 -0.3008
  574SOL    HW1 1721   0.217   1.872   0.971  4.0090 -0.7774 -0.7450
  574SOL    HW2 1722   0.132   1.728   1.029 -2.4864 -0.2557  0.1665
  575SOL     OW 1723   0.860   2.146   0.982  1.1175 -0.6119  0.3194
  575SOL    HW1 1724   0.835   2.174   1.077 -0.8052 -1.5229  0.3496
  575SOL    HW2 1725   0.916   2.214   0.928 -1.6841  0.8682  0.0125
  576SOL     OW 1726   2.935   2.939   1.670 -0.2378  0.1833 -0.4949
  576SOL    HW1 1727   2.840   2.898   1.659  1.7766 -0.1229  1.5074
  576SOL    HW2 1728   2.944   3.037   1.635  3.8113 -1.8731  0.9333
  577SOL     OW 1729   2.536   1.227   3.076  0.2838 -0.4136 -0.2235
  577SOL    HW1 1730   2.564   1.147   3.016 -0.1649  1.2599 -2.5355
  577SOL    HW2 1731   2.591   1.232   3.168  0.9351  1.1886 -0.9674
  578SOL     OW 1732   1.345   2.674   2.592  0.1128  0.3158 -0.2962
  578SOL    HW1 1733   1.258   2.704   2.545 -1.0910  3.4971 -1.1160
  578SOL    HW2 1734   1.434   2.706   2.550  1.9956 -2.5063  1.3929
  579SOL     OW 1735   0.125   2.507   0.119 -0.0822 -0.0331 -0.3098
  579SOL    HW1 1736   0.110   2.531   0.221  1.6043 -0.9821 -0.4771
  579SOL    HW2 1737   0.226   2.495   0.107 -1.7548 -2.2010  0.5484
  580SOL     OW 1738   1.025   2.601   0.393  0.6308  0.3338  0.1367
  580SOL    HW1 1739   1.116   2.620   0.350 -1.4568  0.5709 -1.0192
  580SOL    HW2 1740   0.956   2.577   0.317 -0.6045 -0.8761  0.2339
  581SOL     OW 1741   1.234   2.590   1.519  0.5418 -0.1684  0.3060
  581SOL    HW1 1742   1.266   2.499   1.483 -0.5527 -0.5407  0.8484
  581SOL    HW2 1743   1.281   2.663   1.459  0.0111 -1.4387 -0.6158
  582SOL     OW 1744   1.498   0.097   1.809  0.6571  0.0400  0.1527
  582SOL    HW1 1745   1.519   0.167   1.884  0.8365  1.5899 -0.0189
  582SOL    HW2 1746   1.579   0.064   1.746 -0.5809 -1.4354 -1.0458
  583SOL     OW 1747   2.504   2.979   0.527 -0.2370  0.0378 -0.2018
  583SOL    HW1 1748   2.521   2.905   0.459  1.8797  1.1552  1.7922
  583SOL    HW2 1749   2.435   2.962   0.611 -1.1101  0.8177  1.9788
  584SOL     OW 1750   1.614   0.992   2.092  0.0995 -0.5529 -0.1975
  584SOL    HW1 1751   1.673   1.073   2.097 -1.8119 -1.1269  2.7225
  584SOL    HW2 1752   1.662   0.908   2.133 -1.2573  0.1388  0.9887
  585SOL     OW 1753   2.090   2.682   2.949  0.1132  0.4286  0.1779
  585SOL    HW1 1754   2.135   2.598   2.904  1.1449  0.0644  1.8746
  585SOL    HW2 1755   1.990   2.685   2.956 -0.2997  0.7164  2.1385
  586SOL     OW 1756   2.721   0.233   1.548 -0.1116  0.0186  0.3778
  586SOL    HW1 1757   2.751   0.302   1.617 -1.2696 -0.7054  1.3810
  586SOL    HW2 1758   2.630   0.193   1.567  3.3619  2.2415  0.2934
  587SOL     OW 1759   1.948   1.572   2.742 -0.4752 -0.9681 -0.3595
  587SOL    HW1 1760   2.016   1.550   2.667 -0.7635  2.5005  1.9564
  587SOL    HW2 1761   1.995   1.569   2.835 -0.9114  1.2814  0.5333
  588SOL     OW 1762   0.467   2.741   2.253  0.1296  0.3949  0.0922
  588SOL    HW1 1763   0.377   2.715   2.215  2.8647  1.0111  0.4321
  588SOL    HW2 1764   0.511   2.657   2.295  1.9405  1.2767 -1.4839
  589SOL     OW 1765   2.103   1.448   2.553 -0.0622 -0.1797  0.7288
  589SOL    HW1 1766   2.032   1.396   2.493 -0.6343  1.2867  1.3227
  589SOL    HW2 1767   2.183   1.389   2.575  0.6275  0.7951  0.1809
  590SOL     OW 1768   2.330   1.670   2.047 -0.4055 -0.0623  0.5166
  590SOL    HW1 1769   2.420   1.620   2.042 -1.2641 -0.6517 -1.0827
  590SOL    HW2 1770   2.324   1.724   2.135  1.2948 -0.7083  0.8222
  591SOL     OW 1771   1.360   2.407   0.256 -1.0866 -0.3050  0.3816
  591SOL    HW1 1772   1.453   2.427   0.219 -2.6096 -0.3840 -1.6690
  591SOL    HW2 1773   1.360   2.365   0.351 -0.3626 -1.5501 -0.7276
  592SOL     OW 1774   1.760   2.353   0.793 -0.2781 -0.5634 -0.7111
  592SOL    HW1 1775   1.719   2.368   0.702 -1.2243  0.2915  2.2069
  592SOL    HW2 1776   1.866   2.344   0.791  1.3631 -0.5549 -0.7835
  593SOL     OW 1777   0.651   0.270   0.109 -0.1236  0.1843  0.0268
  593SOL    HW1 1778   0.711   0.250   0.030 -0.9141 -0.6363  1.8605
  593SOL    HW2 1779   0.678   0.352   0.169  0.2534  0.4966  2.7030
  594SOL     OW 1780   0.969   1.845   2.715 -0.2882 -0.9556  0.0302
  594SOL    HW1 1781   1.061   1.869   2.752 -0.6595 -0.6279 -2.9668
  594SOL    HW2 1782   0.896   1.914   2.747 -0.2635 -0.3513  0.6096
  595SOL     OW 1783   1.508   0.063   1.023 -0.1792 -0.2192 -0.1097
  595SOL    HW1 1784   1.593   0.018   0.980 -1.0000 -0.2676 -1.9932
  595SOL    HW2 1785   1.420   0.029   0.982  1.5117 -1.0729  1.0885
  596SOL     OW 1786   3.072   1.484   2.237 -0.2655  0.0880  0.0943
  596SOL    HW1 1787   2.973   1.491   2.223  2.9275 -2.0591 -0.6077
  596SOL    HW2 1788   3.115   1.579   2.239  0.7396  2.1147  2.9471
  597SOL     OW 1789   2.058   2.598   1.635 -0.5715 -0.0905 -0.5790
  597SOL    HW1 1790   2.085   2.544   1.545 -0.4114 -1.6233 -1.2856
  597SOL    HW2 1791   2.135   2.588   1.704  0.7374 -1.6514  1.2038
  598SOL     OW 1792   2.455   2.948   1.333 -0.4026  0.2687  0.1143
  598SOL    HW1 1793   2.525   2.986   1.403  2.0684  2.3623 -1.1968
  598SOL    HW2 1794   2.504   2.918   1.242  0.9164 -1.2548 -1.6579
  599SOL     OW 1795   2.929   0.421   2.477 -0.1494  0.4148  0.3267
  599SOL    HW1 1796   2.987   0.507   2.472 -0.9007 -0.7195  1.5781
  599SOL    HW2 1797   2.831   0.432   2.447 -0.4577  0.0963 -2.3690
  600SOL     OW 1798   2.810   1.109   2.715 -0.1636 -0.0237 -0.0970
  600SOL    HW1 1799   2.728   1.085   2.663 -0.3700  2.0189 -0.9314
  600SOL    HW2 1800   2.789   1.164   2.800 -0.0061  0.9657  2.3092
  601SOL     OW 1801   2.993   1.258   1.952 -0.1323 -0.3659 -0.4530
  601SOL    HW1 1802   2.919   1.309   1.894  0.9298 -0.2947 -1.5717
  601SOL    HW2 1803   3.079   1.313   1.952 -1.2446  1.9295 -2.7048
  602SOL     OW 1804   1.415   1.688   2.370  0.0960  0.3290  0.1628
  602SOL    HW1 1805   1.366   1.594   2.371 -2.1186 -0.0213  0.2000
  602SOL    HW2 1806   1.521   1.677   2.363 -2.9538  0.8898 -2.4210
  603SOL     OW 1807   0.623   1.243   2.732 -0.1677  0.2684  0.5810
  603SOL    HW1 1808   0.539   1.219   2.675 -1.8363  0.8399  1.2748
  603SOL    HW2 1809   0.701   1.171   2.726 -1.0265 -1.0575  2.2363
  604SOL     OW 1810   2.419   1.003   0.151  0.2863  0.2121  0.4350
  604SOL    HW1 1811   2.436   1.098   0.106 -4.6034 -0.2511  1.8174
  604SOL    HW2 1812   2.413   0.920   0.086  0.3158  0.3613 -0.8581
  605SOL     OW 1813   2.630   1.164   1.919 -0.3812 -0.1373 -0.7017
  605SOL    HW1 1814   2.612   1.074   1.873 -2.7570  3.1496  1.7138
  605SOL    HW2 1815   2.647   1.159   2.021  0.8951  2.0414 -0.6025
  606SOL     OW 1816   1.537   2.488   2.652  0.3203 -0.2846  0.1953
  606SOL    HW1 1817   1.442   2.524   2.656 -0.5790 -0.0815 -0.9006
  606SOL    HW2 1818   1.539   2.389   2.613  1.9320  0.6764  0.3803
  607SOL     OW 1819   1.393   1.631   0.418  0.3539  0.7212  0.2167
  607SOL    HW1 1820   1.351   1.701   0.485 -0.6028  1.3586  0.0914
  607SOL    HW2 1821   1.437   1.672   0.334 -0.9824 -0.6871  1.6951
  608SOL     OW 1822   1.457   2.822   0.389 -0.3247  0.1576 -0.1355
  608SOL    HW1 1823   1.504   2.874   0.313  1.5432  1.2388  0.5116
  608SOL    HW2 1824   1.391   2.884   0.440  0.8896  0.0001  1.5843
  609SOL     OW 1825   1.301   1.410   0.261  0.8737 -0.2243 -0.1919
  609SOL    HW1 1826   1.322   1.471   0.345  1.7234 -0.1241  2.4118
  609SOL    HW2 1827   1.207   1.430   0.215  2.4048  1.1470 -0.8248
  610SOL     OW 1828   3.019   1.145   2.194 -0.0898  0.2540 -0.0105
  610SOL    HW1 1829   2.977   1.048   2.200 -1.1805 -0.0016  0.0193
  610SOL    HW2 1830   3.030   1.181   2.097 -0.0920 -1.6825  0.9969
  611SOL     OW 1831   2.595   0.295   1.159  0.4553 -0.0466 -0.3878
  611SOL    HW1 1832   2.540   0.218   1.201 -0.5329 -0.6461 -0.5072
  611SOL    HW2 1833   2.693   0.292   1.190  0.2939  2.1944 -1.3173
  612SOL     OW 1834   0.770   2.234   1.240 -0.3298 -0.6302  0.4650
  612SOL    HW1 1835   0.691   2.190   1.289 -0.7270 -0.7053 -1.3916
  612SOL    HW2 1836   0.741   2.326   1.203  0.6774 -0.1802 -0.3003
  613SOL     OW 1837   0.821   1.426   2.421  0.2926  0.6370 -0.2388
  613SOL    HW1 1838   0.891   1.464   2.356 -0.4073 -3.6639 -1.3499
  613SOL    HW2 1839   0.761   1.354   2.378 -1.1942  1.0612  2.5807
  614SOL     OW 1840   1.623   1.643   1.932 -0.0230  0.1863  0.3514
  614SOL    HW1 1841   1.547   1.707   1.963 -0.7885  1.5653 -1.4964
  614SOL    HW2 1842   1.704   1.637   2.000 -0.4760 -0.2178  1.2267
  615SOL     OW 1843   0.799   1.292   1.682  0.2421  0.3540  0.3096
  615SOL    HW1 1844   0.718   1.270   1.622 -2.0941 -0.4861 -0.9642
  615SOL    HW2 1845   0.847   1.378   1.665  0.6944  0.2673  1.6478
  616SOL     OW 1846   1.063   1.603   2.344 -0.5895  0.4620  0.5620
  616SOL    HW1 1847   1.005   1.584   2.262 -0.0207 -2.3155 -1.1998
  616SOL    HW2 1848   1.117   1.691   2.338  1.5551  0.1633 -2.2443
  617SOL     OW 1849   2.920   1.533   1.611  0.6543  0.2883 -0.2316
  617SOL    HW1 1850   2.872   1.475   1.683 -2.7427  0.5613 -3.7754
  617SOL    HW2 1851   2.950   1.476   1.527  0.2540 -2.6142 -1.9106
  618SOL     OW 1852   1.960   2.045   1.318 -0.1545 -0.3889 -0.3454
  618SOL    HW1 1853   1.913   2.104   1.247 -1.0233 -0.4465  0.8162
  618SOL    HW2 1854   1.997   1.954   1.285 -2.7887  1.6561 -0.1494
  619SOL     OW 1855   1.756   0.469   2.369  0.2502 -0.2595 -0.4325
  619SOL    HW1 1856   1.684   0.524   2.312 -1.2469  0.9988  0.0651
  619SOL    HW2 1857   1.755   0.364   2.367  0.6918 -1.2600 -0.0436
  620SOL     OW 1858   2.343   2.958   0.738  0.1788  0.1709 -0.9459
  620SOL    HW1 1859   2.300   3.046   0.753  0.1129 -2.3080 -0.8439
  620SOL    HW2 1860   2.335   2.891   0.818  2.0241 -0.7058  1.6684
  621SOL     OW 1861   2.127   1.793   1.298  0.2072 -0.6906  0.1885
  621SOL    HW1 1862   2.140   1.780   1.399  0.8692 -1.5629  0.2785
  621SOL    HW2 1863   2.080   1.706   1.252 -2.5570  0.8364  0.0147
  622SOL     OW 1864   2.267   0.893   1.770 -0.3679 -0.3645  0.0362
  622SOL    HW1 1865   2.369   0.892   1.744 -1.3656 -0.0636 -2.4488
  622SOL    HW2 1866   2.250   0.837   1.854 -1.6494 -1.5592  1.3048
  623SOL     OW 1867   1.328   0.791   2.558 -0.3668 -0.2156  0.9283
  623SOL    HW1 1868   1.303   0.697   2.584  0.5313  2.2858  3.6145
  623SOL    HW2 1869   1.270   0.838   2.487  1.9563  1.3164  0.3290
  624SOL     OW 1870   0.531   0.710   3.092 -0.0917  0.7721  0.5613
  624SOL    HW1 1871   0.582   0.724   3.002 -3.8691 -2.1451 -2.5261
  624SOL    HW2 1872   0.527   0.794   3.147 -2.6854 -0.4726 -2.8805
  625SOL     OW 1873   2.812   1.745   1.016  0.6962  0.2157  0.3507
  625SOL    HW1 1874   2.711   1.765   1.035  0.0095 -1.4853  1.6646
  625SOL    HW2 1875   2.878   1.813   1.063 -0.9457 -0.6462 -0.7199
  626SOL     OW 1876   0.595   2.692   1.714 -0.1181 -0.0218  0.2267
  626SOL    HW1 1877   0.654   2.745   1.776 -1.3145 -2.0123  2.5363
  626SOL    HW2 1878   0.494   2.695   1.736  0.7179 -0.4639  0.7270
  627SOL     OW 1879   0.681   0.945   1.538  0.1353  0.3913 -0.4620
  627SOL    HW1 1880   0.590   0.934   1.495 -1.5213 -2.4504 -1.3078
  627SOL    HW2 1881   0.743   1.005   1.480  1.4510 -0.9980  1.2952
  628SOL     OW 1882   2.504   0.129   0.664 -0.0910  0.1817 -0.0719
  628SOL    HW1 1883   2.531   0.047   0.602  1.8660 -2.6338 -0.6656
  628SOL    HW2 1884   2.407   0.123   0.697  0.5999  2.7509  0.0828
  629SOL     OW 1885   1.975   0.914   2.043  0.5330 -0.3017 -0.4469
  629SOL    HW1 1886   1.977   0.977   1.960 -1.7208 -0.9463 -1.5887
  629SOL    HW2 1887   1.949   0.965   2.127  0.0815 -1.1252 -2.3019
  630SOL     OW 1888   2.957   2.305   0.814  0.2275  0.0001 -0.2077
  630SOL    HW1 1889   2.902   2.387   0.842 -0.8564 -3.3445 -0.7710
  630SOL    HW2 1890   2.897   2.220   0.801 -0.6498  1.2405 -3.3050
  631SOL     OW 1891   3.069   0.184   2.160 -0.2834  0.6124 -0.7392
  631SOL    HW1 1892   3.094   0.240   2.245  2.2927 -1.1377  3.1856
  631SOL    HW2 1893   3.069   0.235   2.072 -0.6152  0.1628  0.8780
  632SOL     OW 1894   2.444   2.592   0.642 -0.5393 -0.4656  0.2186
  632SOL    HW1 1895   2.428   2.671   0.711 -0.6319 -0.2095 -0.0997
  632SOL    HW2 1896   2.376   2.599   0.556  1.1850  0.9407 -1.4611
  633SOL     OW 1897   1.433   1.235   2.652 -0.2865  0.1430 -0.1280
  633SOL    HW1 1898   1.426   1.316   2.715 -0.3493 -2.5540 -0.7107
  633SOL    HW2 1899   1.352   1.210   2.587 -0.6875 -1.2706  0.5689
  634SOL     OW 1900   0.654   1.999   0.863  0.4995  0.3991 -0.5446
  634SOL    HW1 1901   0.566   2.028   0.912 -0.4853  2.4947 -0.2876
  634SOL    HW2 1902   0.731   2.066   0.879  1.5365  1.2397  0.1361
  635SOL     OW 1903   3.001   2.333   0.054 -0.3743 -0.0132 -0.2299
  635SOL    HW1 1904   2.933   2.380  -0.006  0.5317 -0.5376 -0.3369
  635SOL    HW2 1905   3.081   2.393   0.075  0.8844  0.4302 -1.0677
  636SOL     OW 1906   2.338   2.756   1.926 -0.0137  0.2434  0.0985
  636SOL    HW1 1907   2.344   2.852   1.961 -0.1994 -0.4560 -1.0915
  636SOL    HW2 1908   2.290   2.694   2.000  0.1044 -0.5789  1.3088
  637SOL     OW 1909   2.730   0.612   1.956  0.0251 -0.0688  0.1726
  637SOL    HW1 1910   2.648   0.626   1.898 -3.7403 -0.8346  1.1129
  637SOL    HW2 1911   2.746   0.696   2.015  0.5410 -1.6497  0.4344
  638SOL     OW 1912   2.400   1.815   1.314  0.2945 -0.3838  0.1065
  638SOL    HW1 1913   2.296   1.824   1.328 -0.3766 -0.3867 -2.9078
  638SOL    HW2 1914   2.454   1.765   1.386 -3.6771  0.5029 -1.1033
  639SOL     OW 1915   1.291   2.106   1.686  0.2049 -0.5348  0.0016
  639SOL    HW1 1916   1.356   2.181   1.654  0.8451 -2.3849  0.7159
  639SOL    HW2 1917   1.201   2.141   1.732 -0.0876  0.1238 -0.6694
  640SOL     OW 1918   0.222   1.188   1.551 -0.0601  0.0413  0.0211
  640SOL    HW1 1919   0.244   1.224   1.648  0.4412  0.5499 -1.0572
  640SOL    HW2 1920   0.279   1.097   1.538  0.3108 -0.4760  2.7059
  641SOL     OW 1921   1.990   0.281   1.479  0.1979 -0.8153  0.2789
  641SOL    HW1 1922   1.955   0.321   1.565 -3.0327 -2.9297  0.5788
  641SOL    HW2 1923   2.072   0.221   1.491 -0.3173  2.9092  0.5756
  642SOL     OW 1924   2.014   0.014   0.320  0.1108 -0.3619  0.3102
  642SOL    HW1 1925   2.109   0.037   0.355 -0.0416 -1.4906  0.1870
  642SOL    HW2 1926   1.958  -0.023   0.398  0.9790 -2.3526 -0.4105
  643SOL     OW 1927   2.928   1.797   2.129  0.1273 -0.1474  0.2189
  643SOL    HW1 1928   2.871   1.742   2.063  0.6606 -0.7703 -1.1498
  643SOL    HW2 1929   2.949   1.892   2.083  0.9407 -1.0440 -1.2672
  644SOL     OW 1930   2.228   2.425   1.196 -0.3353  0.0418  0.1101
  644SOL    HW1 1931   2.300   2.358   1.165 -3.5337 -2.0310  0.5132
  644SOL    HW2 1932   2.200   2.410   1.296 -0.9030  0.0511  0.0742
  645SOL     OW 1933   0.589   0.865   1.290  0.4769 -0.1848  0.0369
  645SOL    HW1 1934   0.494   0.861   1.243 -2.4400 -1.2248  0.3087
  645SOL    HW2 1935   0.660   0.924   1.242  3.1305 -1.3015  2.7875
  646SOL     OW 1936   1.428   1.812   2.051 -0.8286  0.0953  0.2401
  646SOL    HW1 1937   1.469   1.898   2.010  1.3897 -0.4831  0.9946
  646SOL    HW2 1938   1.430   1.804   2.155 -3.5208  0.0137  1.0710
  647SOL     OW 1939   0.781   1.030   0.668 -0.1035  0.0617  0.2201
  647SOL    HW1 1940   0.829   1.068   0.751 -1.6737 -1.5613 -3.3280
  647SOL    HW2 1941   0.715   0.955   0.684 -0.2085  2.2422 -0.9131
  648SOL     OW 1942   0.158   0.253   0.254 -0.1270  0.0660  0.4028
  648SOL    HW1 1943   0.188   0.179   0.190 -0.4127  3.4249  1.2761
  648SOL    HW2 1944   0.177   0.347   0.214 -1.1678  0.9443  0.0977
  649SOL     OW 1945   2.999   0.233   0.865  0.1408  0.0517 -0.0037
  649SOL    HW1 1946   3.081   0.173   0.848  0.6987 -1.3910  0.6671
  649SOL    HW2 1947   3.010   0.332   0.838  2.3951  0.5905 -2.2535
  650SOL     OW 1948   2.732   0.645   1.499 -0.0774  0.3512  0.1235
  650SOL    HW1 1949   2.628   0.643   1.505  0.9527  1.2639 -1.3691
  650SOL    HW2 1950   2.770   0.731   1.452  0.3169  1.2175 -0.6914
  651SOL     OW 1951   0.929   1.512   1.585 -0.1226 -0.0520 -0.6410
  651SOL    HW1 1952   0.939   1.602   1.631  1.6149  0.2425 -0.4840
  651SOL    HW2 1953   0.986   1.516   1.497 -0.8040  2.2460 -1.7589
  652SOL     OW 1954   2.337   2.367   2.409  0.5467 -0.3497 -0.1763
  652SOL    HW1 1955   2.251   2.414   2.441  1.4278 -1.1889 -0.6524
  652SOL    HW2 1956   2.413   2.433   2.391 -0.4486 -0.4295  1.5510
  653SOL     OW 1957   2.659   1.230   0.224  0.1122 -0.6140  0.2579
  653SOL    HW1 1958   2.704   1.326   0.224 -0.3721  0.8743 -0.4646
  653SOL    HW2 1959   2.729   1.158   0.256 -0.0644 -2.2318 -0.9439
  654SOL     OW 1960   1.271   2.239   1.300 -0.1292  0.5840 -0.2368
  654SOL    HW1 1961   1.281   2.153   1.360  1.0592 -1.7597 -0.1455
  654SOL    HW2 1962   1.301   2.213   1.203 -1.3236  0.7546 -0.2496
  655SOL     OW 1963   0.149   0.930   1.852 -0.4365  0.0164 -0.2018
  655SOL    HW1 1964   0.222   0.869   1.809  1.0711 -2.2816 -0.2493
  655SOL    HW2 1965   0.187   1.026   1.871 -1.5859  0.1805 -1.3787
  656SOL     OW 1966   2.541   2.441   2.619  0.1472 -0.1912 -0.1741
  656SOL    HW1 1967   2.631   2.433   2.572 -0.0031 -0.4435 -0.2033
  656SOL    HW2 1968   2.461   2.401   2.566 -1.8931 -1.8412  0.5525
  657SOL     OW 1969   3.002   0.980   1.909 -0.4141 -0.2302  0.7424
  657SOL    HW1 1970   2.996   1.086   1.923 -0.7691  0.1319  2.2733
  657SOL    HW2 1971   3.097   0.940   1.892 -3.1088  1.2670  0.1997
  658SOL     OW 1972   1.707   0.178   2.380 -0.1633 -0.2082 -0.0378
  658SOL    HW1 1973   1.736   0.096   2.441  0.5000 -1.8964  0.7482
  658SOL    HW2 1974   1.725   0.160   2.281 -1.3831  0.1407  2.3394
  659SOL     OW 1975   1.390   0.626   2.822 -0.4555  0.1875 -0.0567
  659SOL    HW1 1976   1.451   0.695   2.866  0.9478  2.9725 -0.1466
  659SOL    HW2 1977   1.291   0.660   2.818  1.3248  2.0690 -0.7127
  660SOL     OW 1978   1.371   0.320   1.449  0.5414  0.4074  0.5637
  660SOL    HW1 1979   1.374   0.352   1.546  0.0474 -0.2369  1.5474
  660SOL    HW2 1980   1.452   0.267   1.408  0.6397 -3.3192 -1.7376
  661SOL     OW 1981   2.332   1.214   0.686 -0.0860 -0.5483 -0.2770
  661SOL    HW1 1982   2.367   1.205   0.587 -2.5195  0.5568  0.7775
  661SOL    HW2 1983   2.316   1.315   0.712  0.1796  1.4649 -2.5444
  662SOL     OW 1984   1.377   0.401   1.731 -0.1434 -0.1131 -0.5134
  662SOL    HW1 1985   1.320   0.333   1.786 -0.7323 -1.6767 -1.0444
  662SOL    HW2 1986   1.342   0.495   1.747 -1.5291  0.2069  0.3318
  663SOL     OW 1987   0.878   1.576   2.137 -0.1641 -0.2916 -0.3800
  663SOL    HW1 1988   0.810   1.648   2.169  2.3735 -3.1675 -1.2154
  663SOL    HW2 1989   0.826   1.509   2.083 -0.2449 -0.0300  0.4326
  664SOL     OW 1990   1.638   2.075   1.393 -0.5870  0.4809  0.0028
  664SOL    HW1 1991   1.587   2.011   1.454 -0.2693  0.9073 -2.1100
  664SOL    HW2 1992   1.742   2.052   1.390  0.7684 -2.4361 -3.1794
  665SOL     OW 1993   2.276   0.705   1.978 -1.1124  0.3620 -0.0694
  665SOL    HW1 1994   2.179   0.697   2.008  0.5365 -0.3719 -2.0317
  665SOL    HW2 1995   2.338   0.703   2.061 -0.4581 -1.0800  0.7822
  666SOL     OW 1996   0.495   2.316   0.319 -0.0192  0.3252 -0.4833
  666SOL    HW1 1997   0.556   2.363   0.385  0.1640 -2.0917 -0.1567
  666SOL    HW2 1998   0.396   2.298   0.348 -1.4103  1.3950  0.4126
  667SOL     OW 1999   2.004   0.204   1.087  0.8321 -0.5415  0.3414
  667SOL    HW1 2000   2.038   0.304   1.096  1.1502  1.4344  0.7185
  667SOL    HW2 2001   1.924   0.193   1.152  1.3978 -0.4591  0.9544
  668SOL     OW 2002   2.038   0.469   1.153  0.2332 -0.3228  0.9559
  668SOL    HW1 2003   2.091   0.509   1.068  2.7860  1.9756 -1.5011
  668SOL    HW2 2004   2.095   0.482   1.240  0.3964 -1.0735  0.5339
  669SOL     OW 2005   3.089   2.146   1.006  0.5148 -0.5896 -0.2919
  669SOL    HW1 2006   3.041   2.200   0.930  0.2001 -0.8326 -0.5087
  669SOL    HW2 2007   3.095   2.200   1.099  0.2826 -1.0701  0.2993
  670SOL     OW 2008   2.892   2.313   2.093 -0.3999 -0.2058  0.0744
  670SOL    HW1 2009   2.805   2.291   2.150  0.9759  1.9895 -2.9331
  670SOL    HW2 2010   2.877   2.403   2.044 -1.6106  0.6015  1.0583
  671SOL     OW 2011   1.764   1.811   1.451 -0.5949 -0.2632 -0.0846
  671SOL    HW1 2012   1.755   1.810   1.346  0.5430 -1.6836  0.3873
  671SOL    HW2 2013   1.671   1.819   1.492  0.7713 -0.4625 -0.3522
  672SOL     OW 2014   0.437   0.633   2.388 -0.4139 -0.1157 -0.3298
  672SOL    HW1 2015   0.484   0.632   2.295 -0.9855 -1.5157 -1.9360
  672SOL    HW2 2016   0.347   0.680   2.389  2.4205  0.0031 -0.5404
  673SOL     OW 2017   0.157   1.190   1.160 -0.0561  0.6999  0.1648
  673SOL    HW1 2018   0.186   1.262   1.229  2.0211  0.2291 -0.8335
  673SOL    HW2 2019   0.238   1.151   1.103 -1.6450 -0.9080 -0.1768
  674SOL     OW 2020   1.662   2.993   0.320  0.7008  0.2638  0.1089
  674SOL    HW1 2021   1.632   3.087   0.306 -1.3922 -0.0870 -0.9206
  674SOL    HW2 2022   1.764   2.978   0.315  0.1268  0.9549 -1.6957
  675SOL     OW 2023   1.737   0.808   2.256  0.0835 -0.0454  0.1870
  675SOL    HW1 2024   1.832   0.774   2.273 -0.0215  0.8286  0.6287
  675SOL    HW2 2025   1.665   0.732   2.246 -2.0546 -0.9203 -0.8107
  676SOL     OW 2026   2.537   1.483   1.928  0.1108  0.0557  0.1294
  676SOL    HW1 2027   2.483   1.436   1.847 -0.2019 -1.3377 -0.2526
  676SOL    HW2 2028   2.556   1.426   2.009  1.0652  1.2520 -2.6945
  677SOL     OW 2029   1.918   0.712   0.931 -0.1795 -0.4596 -0.1718
  677SOL    HW1 2030   1.837   0.664   0.977 -1.8374 -1.8648  2.3327
  677SOL    HW2 2031   2.013   0.668   0.955  0.9805 -2.8263  3.3615
  678SOL     OW 2032   0.068   0.751   1.606  0.1516 -0.1263  0.4067
  678SOL    HW1 2033   0.169   0.764   1.635  0.2388 -2.3690 -0.0727
  678SOL    HW2 2034   0.011   0.723   1.688  0.0639 -0.2098 -0.1969
  679SOL     OW 2035   2.518   1.193   1.214 -0.5546  0.8287  0.0978
  679SOL    HW1 2036   2.425   1.223   1.189  0.6953 -2.1300  1.2762
  679SOL    HW2 2037   2.533   1.093   1.196 -0.6934  0.1989 -0.4730
  680SOL     OW 2038   2.824   0.464   1.700 -0.1620  0.4453  0.5931
  680SOL    HW1 2039   2.777   0.531   1.632 -2.7108  0.5121 -2.4825
  680SOL    HW2 2040   2.915   0.496   1.745 -0.7703  0.5475 -0.3144
  681SOL     OW 2041   2.974   0.115   1.605  0.4475  0.1678  0.1941
  681SOL    HW1 2042   3.039   0.089   1.528  0.1069  0.6899 -1.7958
  681SOL    HW2 2043   2.882   0.163   1.574 -3.4372  3.3997  0.5312
  682SOL     OW 2044   0.735   0.055   1.340  0.3018  0.8992  0.4067
  682SOL    HW1 2045   0.665  -0.000   1.393 -1.1807  1.6305  1.4395
  682SOL    HW2 2046   0.774   0.004   1.257  2.3147 -0.0396 -1.8891
  683SOL     OW 2047   1.391   0.207   2.174  0.1098  0.3320  0.1099
  683SOL    HW1 2048   1.421   0.222   2.274  0.3253  0.8166  3.0304
  683SOL    HW2 2049   1.455   0.266   2.114  1.3336  1.9335 -0.7949
  684SOL     OW 2050   1.458   2.056   0.468  0.5521  0.0336 -0.0239
  684SOL    HW1 2051   1.508   1.995   0.538  1.2853 -1.0950  0.8480
  684SOL    HW2 2052   1.360   2.024   0.464  1.4210  2.2571 -2.4039
  685SOL     OW 2053   2.200   2.111   1.945 -0.2210 -0.2339 -0.6419
  685SOL    HW1 2054   2.228   2.103   1.846 -1.0858  1.1522  0.1616
  685SOL    HW2 2055   2.252   2.044   2.012  0.3684 -0.6143  0.4751
  686SOL     OW 2056   1.491   1.844   2.775 -0.0139  0.1366 -0.2970
  686SOL    HW1 2057   1.533   1.811   2.864 -2.6009 -2.0418 -0.2449
  686SOL    HW2 2058   1.387   1.856   2.790  0.2779 -2.6191 -1.9923
  687SOL     OW 2059   1.352   2.467   1.970  0.0288  0.6339 -0.3117
  687SOL    HW1 2060   1.347   2.366   1.950 -2.5262  1.8836 -0.0335
  687SOL    HW2 2061   1.402   2.492   2.058  1.6497 -1.0501  1.2176
  688SOL     OW 2062   2.009   1.521   1.770  0.0623 -0.2552  0.7889
  688SOL    HW1 2063   2.079   1.599   1.769 -0.0478 -0.8052 -1.5612
  688SOL    HW2 2064   2.020   1.467   1.679 -3.1076 -1.2978 -2.4375
  689SOL     OW 2065   2.390   1.066   2.790  0.2992 -0.1546  0.5940
  689SOL    HW1 2066   2.295   1.024   2.781  1.8460 -0.4727 -1.8316
  689SOL    HW2 2067   2.438   1.062   2.883 -0.8161 -1.1381  1.2161
  690SOL     OW 2068   2.216   2.812   0.058 -0.0652  0.4396 -0.1841
  690SOL    HW1 2069   2.139   2.786  -0.003 -2.7589 -2.2277  0.5202
  690SOL    HW2 2070   2.204   2.782   0.161  2.5852  0.1582  3.6244
  691SOL     OW 2071   2.629   0.409   2.117  0.4482  0.1148  0.1216
  691SOL    HW1 2072   2.680   0.322   2.115  0.3980 -2.0757 -1.2016
  691SOL    HW2 2073   2.655   0.477   2.044 -0.1431  1.2520  1.1957
  692SOL     OW 2074   2.692   1.229   0.737  0.1540  0.5028  0.1860
  692SOL    HW1 2075   2.594   1.241   0.717  2.4446 -0.2464  0.1758
  692SOL    HW2 2076   2.729   1.291   0.814 -1.5088  3.9019 -1.4455
  693SOL     OW 2077   2.814   2.930   0.635  0.1946 -0.3709  0.2536
  693SOL    HW1 2078   2.829   3.006   0.703  0.1710 -1.8976  1.3497
  693SOL    HW2 2079   2.791   2.974   0.543 -2.7359 -2.2166  0.5557
  694SOL     OW 2080   2.399   2.250   0.078  0.3657 -0.4547 -0.2312
  694SOL    HW1 2081   2.408   2.291   0.172  0.1183  1.6657 -2.4845
  694SOL    HW2 2082   2.310   2.205   0.064  1.0935 -0.0704  0.0738
  695SOL     OW 2083   0.570   3.008   1.494  0.1387 -0.2036  0.0789
  695SOL    HW1 2084   0.497   2.937   1.469  0.7516 -1.2914 -1.4982
  695SOL    HW2 2085   0.536   3.090   1.546 -0.8604 -1.6363 -0.0201
  696SOL     OW 2086   2.814   2.075   0.760  0.2255 -0.2675 -0.7461
  696SOL    HW1 2087   2.878   1.993   0.764 -0.2186 -1.0823  0.5839
  696SOL    HW2 2088   2.780   2.089   0.666 -0.1181  0.9564  0.6504
  697SOL     OW 2089   1.605   1.990   1.836 -0.9299 -0.0828  0.1445
  697SOL    HW1 2090   1.681   1.924   1.845  0.7243  1.5524  2.3084
  697SOL    HW2 2091   1.643   2.086   1.823  0.8460  1.7653  4.0242
  698SOL     OW 2092   2.913   0.398   2.756  0.3366  0.0100  0.3003
  698SOL    HW1 2093   2.912   0.379   2.656  4.8239  1.0939  3.2373
  698SOL    HW2 2094   2.996   0.357   2.801  0.5955  0.2708 -0.0899
  699SOL     OW 2095   1.556   0.061   2.916  0.1831 -0.1849 -0.0373
  699SOL    HW1 2096   1.495  -0.018   2.881  0.8483  0.4031  1.9967
  699SOL    HW2 2097   1.588   0.130   2.844 -0.2743  0.6002  0.1647
  700SOL     OW 2098   0.993   2.347   1.369 -0.2497 -0.3902 -0.6905
  700SOL    HW1 2099   1.095   2.319   1.356 -0.3207  2.0859 -2.3583
  700SOL    HW2 2100   0.927   2.300   1.305 -2.8677 -0.7557  1.0987
  701SOL     OW 2101   1.918   2.921   3.066 -0.3963  0.9090  0.1526
  701SOL    HW1 2102   1.858   2.876   3.135  2.7277  0.1775 -0.5831
  701SOL    HW2 2103   1.940   3.017   3.097  0.6295 -1.4311  4.0221
  702SOL     OW 2104   2.092   1.338   1.956 -0.0801 -0.0276 -0.0133
  702SOL    HW1 2105   2.178   1.290   1.927 -1.6683  0.5101  0.1159
  702SOL    HW2 2106   2.069   1.418   1.894  3.4220  1.6956 -0.6443
  703SOL     OW 2107   1.930   0.921   1.452  0.5464 -0.2233  0.1509
  703SOL    HW1 2108   1.879   0.857   1.515  1.6135  1.5459  1.6764
  703SOL    HW2 2109   2.007   0.964   1.505 -1.9808  0.6939 -0.4021
  704SOL     OW 2110   0.303   2.019   1.714  0.0924  0.2288 -0.7764
  704SOL    HW1 2111   0.344   1.948   1.778  0.2085  1.1207 -0.7487
  704SOL    HW2 2112   0.363   2.107   1.702 -1.8117  1.0777 -0.8693
  705SOL     OW 2113   2.528   1.545   0.862 -0.5877 -0.0632 -0.1542
  705SOL    HW1 2114   2.463   1.470   0.834 -0.2005  1.8169  0.0339
  705SOL    HW2 2115   2.622   1.510   0.879 -0.3433 -0.4179  1.4162
  706SOL     OW 2116   0.688   1.712   1.892 -0.3380 -0.1950  0.2652
  706SOL    HW1 2117   0.719   1.615   1.905 -1.1560  2.5953 -0.2534
  706SOL    HW2 2118   0.703   1.767   1.979  2.6075  0.6644 -0.1494
  707SOL     OW 2119   2.286   1.170   1.877 -0.1412  0.2121 -0.1629
  707SOL    HW1 2120   2.387   1.167   1.866 -1.6741 -0.7232  1.0033
  707SOL    HW2 2121   2.237   1.082   1.853  1.1975 -1.6744  1.7323
  708SOL     OW 2122   3.004   0.538   3.051  0.4411  0.7386  0.0929
  708SOL    HW1 2123   2.974   0.613   2.988  2.1703  0.2312  2.2913
  708SOL    HW2 2124   3.021   0.452   3.001 -1.8343  1.1371  1.4225
  709SOL     OW 2125   1.842   1.855   0.276  0.3827 -0.8182 -0.4149
  709SOL    HW1 2126   1.900   1.941   0.304  0.2132 -2.9839  0.3734
  709SOL    HW2 2127   1.858   1.826   0.175 -0.2548 -0.0728 -1.1120
  710SOL     OW 2128   1.687   1.617   2.375 -0.1470  0.0322 -0.2083
  710SOL    HW1 2129   1.756   1.570   2.315  0.3968  0.3845  1.7452
  710SOL    HW2 2130   1.681   1.586   2.474 -0.3892 -2.8872  0.0815
  711SOL     OW 2131   2.602   2.945   1.080 -0.0732  0.1340 -0.6700
  711SOL    HW1 2132   2.578   3.035   1.036  0.0150 -1.0297  0.4879
  711SOL    HW2 2133   2.697   2.918   1.052 -2.5045  0.0346  0.5944
  712SOL     OW 2134   1.376   2.185   1.973 -0.0867 -0.2267 -0.0779
  712SOL    HW1 2135   1.477   2.203   1.988  1.6563  2.9113 -1.2982
  712SOL    HW2 2136   1.361   2.138   1.881 -1.6481  1.3412 -2.6748
  713SOL     OW 2137   2.801   1.465   2.510  0.3981 -0.7607  0.2309
  713SOL    HW1 2138   2.794   1.369   2.476 -1.2589  0.1584 -0.5500
  713SOL    HW2 2139   2.711   1.505   2.541 -0.4659 -1.2011 -1.6547
  714SOL     OW 2140   2.667   0.448   2.404  0.3248  0.2704 -0.5601
  714SOL    HW1 2141   2.597   0.419   2.472 -0.7492 -0.2141  1.3484
  714SOL    HW2 2142   2.648   0.423   2.303 -2.4280 -1.6215 -1.8358
  715SOL     OW 2143   1.551   2.018   1.109  0.3049 -0.4877  0.0007
  715SOL    HW1 2144   1.480   2.086   1.078 -1.9826 -0.5827 -1.5859
  715SOL    HW2 2145   1.584   2.036   1.207 -0.5466 -0.4560 -1.9839
  716SOL     OW 2146   1.192   0.153   1.519 -0.0046  0.3680 -0.3181
  716SOL    HW1 2147   1.108   0.180   1.448 -2.2555  1.1838 -0.7204
  716SOL    HW2 2148   1.269   0.222   1.501 -0.0240 -1.2698  0.0634
  717SOL     OW 2149   1.177   0.572   1.548 -0.3475  0.0813 -0.4574
  717SOL    HW1 2150   1.270   0.616   1.573  0.0049  0.7891 -0.6323
  717SOL    HW2 2151   1.173   0.569   1.443  0.6413  2.2587  1.9494
  718SOL     OW 2152   0.697   0.863   0.993 -0.0329  0.3507 -0.2216
  718SOL    HW1 2153   0.651   0.875   0.900  1.1166 -0.8857  0.3921
  718SOL    HW2 2154   0.694   0.955   1.047 -2.8258  1.6665  0.0391
  719SOL     OW 2155   0.674   1.684   2.331 -0.4388  0.0561  0.7455
  719SOL    HW1 2156   0.742   1.738   2.389 -0.0919  0.2311 -0.0923
  719SOL    HW2 2157   0.585   1.680   2.381 -5.1731  0.5785  2.0871
  720SOL     OW 2158   2.182   1.109   0.270 -0.0669  0.4253  0.2142
  720SOL    HW1 2159   2.254   1.049   0.221 -0.6140 -2.3243 -2.3115
  720SOL    HW2 2160   2.152   1.066   0.366  1.6705 -0.2469  2.1984
  721SOL     OW 2161   2.291   3.017   2.068  0.4596 -0.1620 -0.1965
  721SOL    HW1 2162   2.251   3.063   1.983 -1.5912 -1.1096  0.0227
  721SOL    HW2 2163   2.234   3.044   2.149  0.7907  1.6588  2.8885
  722SOL     OW 2164   2.275   1.600   0.493 -0.2023 -0.2653  0.6244
  722SOL    HW1 2165   2.322   1.535   0.430  1.4006 -0.6388  2.2741
  722SOL    HW2 2166   2.184   1.626   0.459  1.3736  1.0653 -0.7944
  723SOL     OW 2167   2.636   2.700   1.895 -0.3592  0.5320  0.3101
  723SOL    HW1 2168   2.680   2.777   1.948  0.2553  2.4643 -1.9408
  723SOL    HW2 2169   2.532   2.699   1.902 -1.4724  1.1141 -0.4654
  724SOL     OW 2170   0.486   2.508   2.402 -0.0270 -0.5679 -0.0024
  724SOL    HW1 2171   0.391   2.509   2.442  0.1524 -1.6385 -0.9572
  724SOL    HW2 2172   0.552   2.491   2.482  0.8909  2.5388  0.1557
  725SOL     OW 2173   2.346   2.736   1.482 -0.2709  0.4955 -0.1493
  725SOL    HW1 2174   2.405   2.807   1.440  2.1693  1.4864 -0.6084
  725SOL    HW2 2175   2.395   2.647   1.500  0.3667 -1.5615  0.4564
  726SOL     OW 2176   2.518   2.328   0.732  0.0897  0.4980  0.0985
  726SOL    HW1 2177   2.481   2.420   0.718  1.5061 -0.3130 -3.4231
  726SOL    HW2 2178   2.465   2.256   0.670 -0.4591  0.5104 -1.6624
  727SOL     OW 2179   0.176   3.052   0.076 -0.4562  0.4059 -0.2886
  727SOL    HW1 2180   0.243   2.980   0.045 -0.2424 -3.4677  2.5706
  727SOL    HW2 2181   0.088   3.052   0.018 -0.9065 -1.2158  0.7837
  728SOL     OW 2182   2.894   0.665   0.915  1.1104 -0.5220  0.1675
  728SOL    HW1 2183   2.814   0.673   0.850  0.5644  0.9498  0.3598
  728SOL    HW2 2184   2.858   0.626   1.005 -0.9824  1.2369 -1.1186
  729SOL     OW 2185   3.083   2.530   0.716 -0.3945  0.1370 -0.1187
  729SOL    HW1 2186   3.043   2.449   0.762 -0.7946 -0.4701  1.3414
  729SOL    HW2 2187   3.175   2.518   0.674 -3.4682  1.0978  1.5985
  730SOL     OW 2188   2.608   0.687   0.860  0.3822  0.0219  0.0322
  730SOL    HW1 2189   2.582   0.786   0.883  0.0691 -1.9309  0.6942
  730SOL    HW2 2190   2.657   0.675   0.770  0.0506  1.7917  1.4340
  731SOL     OW 2191   0.023   2.143   2.415 -0.1403 -0.5458  0.0683
  731SOL    HW1 2192   0.041   2.236   2.454 -0.9985  0.5811 -3.6159
  731SOL    HW2 2193  -0.078   2.128   2.403 -0.5551  1.5687  1.1532
  732SOL     OW 2194   1.217   2.831   1.978  0.5434 -0.3950  0.2090
  732SOL    HW1 2195   1.210   2.775   2.065 -5.5868 -0.4560  0.4984
  732SOL    HW2 2196   1.215   2.778   1.890 -0.2625 -0.9923 -0.4362
  733SOL     OW 2197   3.006   0.620   2.230  0.0386 -0.0031  0.2434
  733SOL    HW1 2198   3.104   0.603   2.231 -2.0065  1.2131  1.2083
  733SOL    HW2 2199   2.948   0.552   2.174 -0.7066 -0.4722 -3.4874
  734SOL     OW 2200   1.396   0.375   2.706  0.0888  0.1305  0.1768
  734SOL    HW1 2201   1.389   0.473   2.747 -1.8918 -1.5205  2.1175
  734SOL    HW2 2202   1.330   0.307   2.753  1.1317  0.0153  0.5266
  735SOL     OW 2203   2.900   2.629   2.301  0.2827  0.3438  0.0609
  735SOL    HW1 2204   2.884   2.603   2.204  0.2340  3.2455  0.4187
  735SOL    HW2 2205   2.984   2.687   2.315 -3.0474 -1.1883  4.2198
  736SOL     OW 2206   0.917   0.389   2.575 -0.7237 -0.3035  0.2934
  736SOL    HW1 2207   0.831   0.444   2.551  1.4630  1.8191  0.6552
  736SOL    HW2 2208   0.926   0.310   2.506  0.4261 -4.4621  3.2475
  737SOL     OW 2209   2.650   0.444   2.802  0.0462 -0.3485  0.5224
  737SOL    HW1 2210   2.635   0.436   2.906  0.1087  1.3110 -0.1759
  737SOL    HW2 2211   2.746   0.413   2.776  1.0871  1.6137 -2.1777
  738SOL     OW 2212   1.695   1.245   2.890 -0.6292 -0.0592  0.1287
  738SOL    HW1 2213   1.793   1.251   2.851  1.9521  0.8013  0.3065
  738SOL    HW2 2214   1.653   1.156   2.862 -1.5574 -0.7313  0.0474
  739SOL     OW 2215   1.765   0.723   0.670  0.0263  0.2189  0.2457
  739SOL    HW1 2216   1.825   0.740   0.751 -2.4943  0.1844 -0.6997
  739SOL    HW2 2217   1.770   0.626   0.631 -2.2577  1.7047  0.9354
  740SOL     OW 2218   1.981   1.933   2.379  0.4498  1.2339 -0.2049
  740SOL    HW1 2219   2.040   1.851   2.402 -1.6554 -2.8136  0.0036
  740SOL    HW2 2220   1.902   1.904   2.313  0.6411 -1.7800  3.2352
  741SOL     OW 2221   2.587   0.150   2.518 -0.1765  0.2693  0.1627
  741SOL    HW1 2222   2.695   0.136   2.511 -0.6153 -0.7701 -0.2405
  741SOL    HW2 2223   2.544   0.139   2.425  1.3404 -0.8083 -0.3373
  742SOL     OW 2224   2.185   1.384   0.172 -0.6155 -0.3093  0.1893
  742SOL    HW1 2225   2.100   1.424   0.129  2.6419  2.6113 -1.3856
  742SOL    HW2 2226   2.183   1.289   0.211  2.4270  0.9588  0.5174
  743SOL     OW 2227   1.766   0.601   2.606  0.7874 -0.0928 -0.3037
  743SOL    HW1 2228   1.768   0.535   2.520 -3.2260  0.1580  0.0646
  743SOL    HW2 2229   1.681   0.664   2.603 -4.4422  3.0902 -1.2707
  744SOL     OW 2230   2.672   2.016   0.086 -0.7315  0.2736  0.2277
  744SOL    HW1 2231   2.577   2.053   0.094  1.7097  0.6875  0.9629
  744SOL    HW2 2232   2.679   1.917   0.130 -0.2162  0.7412  0.7376
  745SOL     OW 2233   2.165   2.630   2.156 -0.1050 -0.2253 -0.0074
  745SOL    HW1 2234   2.077   2.667   2.192  1.0417  1.4564  1.5631
  745SOL    HW2 2235   2.245   2.683   2.192 -1.0864  1.1881  2.9224
  746SOL     OW 2236  -0.003   2.649   1.721  0.0981 -0.2142 -0.1322
  746SOL    HW1 2237   0.090   2.596   1.712 -0.5263 -2.5738 -0.4699
  746SOL    HW2 2238   0.005   2.727   1.790  0.0155 -0.5104 -1.6102
  747SOL     OW 2239   3.062   1.747   1.712 -0.1908 -0.4335  0.7005
  747SOL    HW1 2240   3.006   1.671   1.666  2.2026 -1.1066  1.8718
  747SOL    HW2 2241   3.128   1.784   1.641  1.7562  2.1278 -0.1377
  748SOL     OW 2242   1.806   2.714   2.899 -0.2729 -0.2253 -0.4540
  748SOL    HW1 2243   1.840   2.805   2.934  1.8725 -3.4882  0.4580
  748SOL    HW2 2244   1.702   2.714   2.880 -0.1398  0.3549 -1.2037
  749SOL     OW 2245   1.345   3.013   0.860  0.1779  0.4635  0.3293
  749SOL    HW1 2246   1.245   2.975   0.860  1.6482  1.4841  0.5294
  749SOL    HW2 2247   1.412   2.951   0.807  2.2453 -3.9796 -0.7556
  750SOL     OW 2248   2.315   0.218   1.840  0.0744 -0.1432 -0.4129
  750SOL    HW1 2249   2.335   0.278   1.757  2.7309 -0.2956  3.4982
  750SOL    HW2 2250   2.304   0.278   1.923 -1.0962  0.0847 -0.3975
  751SOL     OW 2251   0.811   2.016   2.838 -0.0248 -0.1143 -0.5955
  751SOL    HW1 2252   0.863   2.076   2.905 -0.5285  2.1896  0.3805
  751SOL    HW2 2253   0.717   1.992   2.882 -1.6998 -0.7462  0.4202
  752SOL     OW 2254   1.322   0.807   1.269  0.4989 -0.7833  0.0527
  752SOL    HW1 2255   1.386   0.885   1.249 -2.2443  2.2800  0.1141
  752SOL    HW2 2256   1.366   0.726   1.321  2.6096  0.0102  1.0601
  753SOL     OW 2257   0.942   2.627   1.789 -0.3533 -0.4000 -0.5519
  753SOL    HW1 2258   1.042   2.648   1.768  2.5350 -0.6787 -0.4631
  753SOL    HW2 2259   0.891   2.704   1.836  1.5618 -0.1854 -0.8450
  754SOL     OW 2260   1.153   1.166   3.009 -0.0536 -0.2249 -0.4409
  754SOL    HW1 2261   1.198   1.085   2.955 -1.4302  1.8129  0.3151
  754SOL    HW2 2262   1.219   1.247   3.026  0.1090  0.2683 -0.2959
  755SOL     OW 2263   2.007   0.505   2.229 -0.5171  0.2609 -0.4003
  755SOL    HW1 2264   2.068   0.427   2.257  0.2102  1.5097  1.4989
  755SOL    HW2 2265   1.917   0.502   2.285 -0.7871  0.3652 -3.9281
  756SOL     OW 2266   2.582   0.981   2.975  0.0760  0.1771 -0.0043
  756SOL    HW1 2267   2.672   0.955   2.933 -1.0585 -2.0437 -2.7583
  756SOL    HW2 2268   2.542   0.892   3.014 -0.7427 -0.4312  1.8198
  757SOL     OW 2269   0.087   0.465   2.000  0.1445  0.4070 -0.2336
  757SOL    HW1 2270   0.134   0.387   1.937  0.6187 -0.1613  0.5160
  757SOL    HW2 2271  -0.012   0.445   2.025  1.0771  2.7173 -0.2100
  758SOL     OW 2272   2.258   0.130   1.465 -0.0552  0.1213  0.2353
  758SOL    HW1 2273   2.224   0.035   1.487 -1.9027  2.3787 -0.9568
  758SOL    HW2 2274   2.314   0.136   1.376 -2.0113  0.6218 -0.7365
  759SOL     OW 2275   1.663   0.121   0.052 -0.4646 -0.3217 -0.2913
  759SOL    HW1 2276   1.619   0.098  -0.038  2.8030  0.5168 -1.3534
  759SOL    HW2 2277   1.768   0.105   0.050  1.6041  3.2279 -0.5004
  760SOL     OW 2278   2.617   2.050   2.827  0.0165  0.8618 -0.3490
  760SOL    HW1 2279   2.672   1.975   2.876  1.3844  0.2531  0.9842
  760SOL    HW2 2280   2.614   2.140   2.875 -1.1445  0.0005  0.7154
  761SOL     OW 2281   1.853   1.773   1.714  0.4234 -0.0784 -0.3322
  761SOL    HW1 2282   1.875   1.678   1.740 -0.7415 -1.0439  0.6791
  761SOL    HW2 2283   1.812   1.771   1.621 -1.9600 -1.8817  2.0331
  762SOL     OW 2284   0.494   2.352   0.965 -0.1486 -0.3226 -0.0115
  762SOL    HW1 2285   0.528   2.350   0.865  1.0434  0.7020 -1.6242
  762SOL    HW2 2286   0.561   2.406   1.024 -2.6931 -0.5447 -0.2934
  763SOL     OW 2287   2.081   1.591   2.982  0.2607 -0.4270 -0.5082
  763SOL    HW1 2288   2.179   1.579   2.984 -0.7988 -0.2967  1.9253
  763SOL    HW2 2289   2.024   1.539   3.051 -0.5644  0.7653 -0.0098
  764SOL     OW 2290   0.681   0.571   0.754 -0.7455  0.6942  0.3252
  764SOL    HW1 2291   0.594   0.519   0.752  1.7715  0.6900 -0.1719
  764SOL    HW2 2292   0.742   0.553   0.838  0.5622  0.3933  2.4034
  765SOL     OW 2293   0.749   0.230   0.788  0.2484 -0.3787  0.3743
  765SOL    HW1 2294   0.810   0.277   0.716 -1.7734  0.1948  2.1125
  765SOL    HW2 2295   0.699   0.298   0.852 -4.1034  2.6019  0.7112
  766SOL     OW 2296   2.862   2.131   3.002 -0.1176  0.0248  0.4630
  766SOL    HW1 2297   2.787   2.091   3.057  0.8322  1.1977  0.3627
  766SOL    HW2 2298   2.920   2.206   3.044 -0.1972  0.5200 -1.0105
  767SOL     OW 2299   2.791   1.678   0.590  0.4187 -0.4701  0.0427
  767SOL    HW1 2300   2.691   1.698   0.602 -2.1712  1.6570  1.1340
  767SOL    HW2 2301   2.847   1.741   0.648 -0.4698  1.1792 -1.2735
  768SOL     OW 2302   0.993   0.082   0.210 -1.3347  0.3918 -0.1888
  768SOL    HW1 2303   0.954   0.089   0.303  1.2040  1.7898 -0.5206
  768SOL    HW2 2304   1.097   0.108   0.207  1.4127  0.8138  0.9724
  769SOL     OW 2305   1.125   1.882   2.325  0.2179  0.4476 -0.4271
  769SOL    HW1 2306   1.027   1.918   2.339 -0.7743 -0.3562  0.9643
  769SOL    HW2 2307   1.179   1.886   2.410 -2.1482  0.1823 -0.1762
  770SOL     OW 2308   0.189   1.196   2.299  0.2869  0.2355 -0.4459
  770SOL    HW1 2309   0.181   1.257   2.385 -1.3294  1.8009  0.6297
  770SOL    HW2 2310   0.094   1.171   2.265  1.4313  0.3187  0.3137
  771SOL     OW 2311   3.047   2.842   1.910 -0.3132  0.6723 -0.5407
  771SOL    HW1 2312   3.009   2.880   1.822 -1.8075  1.1749  0.2564
  771SOL    HW2 2313   2.997   2.889   1.987 -0.5371 -1.1837 -2.1680
  772SOL     OW 2314   2.237   0.143   2.921 -0.1187  0.0636  0.4640
  772SOL    HW1 2315   2.323   0.116   2.873 -2.4162 -1.2430 -0.2784
  772SOL    HW2 2316   2.246   0.222   2.991  0.1485 -1.3045  0.3118
  773SOL     OW 2317   0.664   2.118   2.407  0.2170  0.0658  0.0449
  773SOL    HW1 2318   0.652   2.175   2.321 -0.8707 -1.6410  1.1653
  773SOL    HW2 2319   0.585   2.116   2.469  2.3339  5.0450 -1.9411
  774SOL     OW 2320   2.060   0.013   2.605  0.3082  0.1953 -0.1831
  774SOL    HW1 2321   2.050   0.106   2.649 -1.5126  1.2612  0.6540
  774SOL    HW2 2322   2.128  -0.049   2.661 -0.9379 -0.6754  0.3107
  775SOL     OW 2323   2.580   2.945   2.304 -0.3905 -0.2325 -0.0681
  775SOL    HW1 2324   2.556   3.038   2.339  0.9793 -2.5955 -0.0758
  775SOL    HW2 2325   2.655   2.898   2.365 -0.4078 -0.4075  0.1532
  776SOL     OW 2326   3.105   1.257   0.217  0.0189  0.3060  0.8217
  776SOL    HW1 2327   3.048   1.240   0.130 -0.4015 -1.8039  0.8372
  776SOL    HW2 2328   3.045   1.270   0.301  2.7102  0.6981 -0.0779
  777SOL     OW 2329   0.380   2.865   0.336  0.1540 -0.6638  0.4353
  777SOL    HW1 2330   0.277   2.878   0.324 -1.0614  0.3301 -2.0101
  777SOL    HW2 2331   0.442   2.916   0.273  1.2454 -1.1801 -1.6787
  778SOL     OW 2332   1.352   1.983   0.168  0.0228  0.5081 -0.1851
  778SOL    HW1 2333   1.279   1.996   0.240 -1.4017 -2.2190  0.6530
  778SOL    HW2 2334   1.374   2.072   0.114 -1.1053 -0.2374 -0.5616
  779SOL     OW 2335   0.204   0.880   0.515 -0.1666 -0.4625  0.3435
  779SOL    HW1 2336   0.180   0.781   0.511 -1.7253  0.9638 -1.0689
  779SOL    HW2 2337   0.130   0.943   0.559 -1.3541 -1.3320 -0.5282
  780SOL     OW 2338   0.098   0.280   2.398  0.0076 -0.5703 -0.5891
  780SOL    HW1 2339   0.097   0.373   2.449  0.9365 -0.7268 -0.5086
  780SOL    HW2 2340   0.192   0.263   2.357 -0.5721 -1.0030  0.4798
  781SOL     OW 2341   0.651   1.647   1.526  0.3029  0.2146 -0.3894
  781SOL    HW1 2342   0.718   1.595   1.584 -0.2965 -0.5759  0.9916
  781SOL    HW2 2343   0.554   1.628   1.552  1.2727  1.0156 -1.7630
  782SOL     OW 2344   2.586   0.111   0.930 -0.2292 -0.7892  0.7339
  782SOL    HW1 2345   2.549   0.131   0.839 -1.0999  0.3872  1.2359
  782SOL    HW2 2346   2.577   0.180   1.007 -0.0768 -1.5450 -2.5416
  783SOL     OW 2347   2.790   0.705   2.483 -0.3121  0.3122  0.1267
  783SOL    HW1 2348   2.753   0.735   2.578  2.3696 -2.3001  0.2535
  783SOL    HW2 2349   2.735   0.627   2.442  4.0847  1.1601  1.4270
  784SOL     OW 2350   1.461   2.206   0.036 -0.3580  0.1253  0.2216
  784SOL    HW1 2351   1.505   2.287   0.075 -1.5489  1.4706  2.3538
  784SOL    HW2 2352   1.416   2.226  -0.059 -0.7080  1.7930  0.9381
  785SOL     OW 2353   2.112   0.309   0.064  0.1786  0.3383 -0.0507
  785SOL    HW1 2354   2.020   0.299   0.118  1.3996 -0.2939  0.3037
  785SOL    HW2 2355   2.118   0.399   0.011 -1.2134 -1.4043  2.7657
  786SOL     OW 2356   2.059   2.183   2.295 -0.3097 -0.4990  0.1344
  786SOL    HW1 2357   2.012   2.095   2.335 -1.3633  3.4484  2.1563
  786SOL    HW2 2358   2.150   2.163   2.253  1.5763  2.2668 -1.0452
  787SOL     OW 2359   1.337   0.469   0.948  0.0036  0.2810  0.6649
  787SOL    HW1 2360   1.295   0.564   0.972 -0.8417 -1.6353  2.8822
  787SOL    HW2 2361   1.395   0.471   0.866 -2.0560 -0.0717 -0.8338
  788SOL     OW 2362   1.286   0.409   0.082 -0.4589  0.3817 -0.0722
  788SOL    HW1 2363   1.194   0.375   0.060 -0.6907  2.2393  5.4272
  788SOL    HW2 2364   1.285   0.501   0.122  0.5464 -3.1689 -1.3937
  789SOL     OW 2365   2.566   0.061   1.952 -0.3399 -0.2103 -0.2996
  789SOL    HW1 2366   2.476   0.098   1.919 -1.3195  3.4930  0.8994
  789SOL    HW2 2367   2.587  -0.023   1.904  0.9130  4.1106  2.9483
  790SOL     OW 2368   2.628   2.804   0.806  0.4686 -0.3374  0.1633
  790SOL    HW1 2369   2.668   2.822   0.712  0.7452  0.3976  0.3616
  790SOL    HW2 2370   2.633   2.887   0.873  0.6219  2.4402  2.2295
  791SOL     OW 2371   1.906   1.197   0.183  0.4477 -0.0953 -0.2507
  791SOL    HW1 2372   1.811   1.163   0.183 -1.1413 -0.4713 -0.5065
  791SOL    HW2 2373   1.977   1.144   0.236 -0.8991  1.7033  0.8989
  792SOL     OW 2374   0.450   1.786   2.185  0.1895  0.2181  0.5545
  792SOL    HW1 2375   0.536   1.737   2.213 -0.3301  0.2412  1.1956
  792SOL    HW2 2376   0.374   1.785   2.256  0.7558 -1.0562  0.6175
  793SOL     OW 2377   2.098   1.546   2.141 -0.1539 -0.1005 -0.3994
  793SOL    HW1 2378   2.194   1.590   2.132  0.3325 -1.5630  0.2885
  793SOL    HW2 2379   2.086   1.464   2.078 -0.7455  1.0434  2.1380
  794SOL     OW 2380   0.522   1.409   2.347 -0.0992  0.1916 -0.1074
  794SOL    HW1 2381   0.517   1.396   2.242 -0.7831  0.1202  0.5185
  794SOL    HW2 2382   0.482   1.503   2.376 -0.2473 -0.9540  0.6370
  795SOL     OW 2383   2.509   2.252   1.847 -0.2790 -0.1741  0.0607
  795SOL    HW1 2384   2.518   2.207   1.942 -1.7874 -1.1495  0.2359
  795SOL    HW2 2385   2.427   2.212   1.794  0.7975 -1.2121  0.3602
  796SOL     OW 2386   3.094   1.127   2.681 -0.4296 -0.0080  0.0728
  796SOL    HW1 2387   2.994   1.113   2.686  1.3407  0.7121  3.0110
  796SOL    HW2 2388   3.132   1.122   2.776 -0.8482  0.5738 -0.3917
  797SOL     OW 2389   0.739   0.643   1.389  0.3281  0.0045 -0.1607
  797SOL    HW1 2390   0.808   0.699   1.443 -0.5810 -2.0132  0.6147
  797SOL    HW2 2391   0.674   0.705   1.339  0.2421 -0.9478  0.8524
  798SOL     OW 2392   1.267   0.312   1.161  0.0113 -0.0489  0.1667
  798SOL    HW1 2393   1.319   0.331   1.245  0.2843  0.6092 -0.1893
  798SOL    HW2 2394   1.296   0.375   1.081 -2.0626 -2.2620  3.4526
  799SOL     OW 2395   1.961   2.721   1.055  0.1194 -0.0435 -0.4576
  799SOL    HW1 2396   1.882   2.720   1.124 -0.9035 -0.4231  1.9419
  799SOL    HW2 2397   1.926   2.737   0.955 -0.3098  0.6822  1.3476
  800SOL     OW 2398   3.047   0.645   1.830 -0.3899 -0.1520  0.6432
  800SOL    HW1 2399   2.986   0.718   1.872  1.6805  0.8942 -1.3752
  800SOL    HW2 2400   3.113   0.597   1.899 -0.4377 -1.6206 -1.5058
  801SOL     OW 2401   1.980   2.235   0.108  0.2496 -0.0384 -0.2975
  801SOL    HW1 2402   1.899   2.196   0.061  2.2487 -0.0027  0.0513
  801SOL    HW2 2403   2.067   2.185   0.078  0.7168  0.6445  0.9992
  802SOL     OW 2404   0.710   0.828   2.572  0.1222 -0.0394 -0.3845
  802SOL    HW1 2405   0.752   0.783   2.490 -0.3828  0.8665  1.1908
  802SOL    HW2 2406   0.610   0.863   2.556 -2.0911  1.0030 -1.6785
  803SOL     OW 2407   0.946   0.043   0.857 -0.2734  0.7077 -0.2937
  803SOL    HW1 2408   1.023   0.111   0.857 -0.2392 -1.5350 -0.9029
  803SOL    HW2 2409   0.856   0.084   0.825  0.3984 -2.8232  1.3018
  804SOL     OW 2410   0.278   0.043   2.135  0.0104  0.1635  0.0212
  804SOL    HW1 2411   0.255   0.141   2.116 -0.1251  1.9986  0.3828
  804SOL    HW2 2412   0.226  -0.013   2.065 -1.9700  0.1669 -1.2207
  805SOL     OW 2413   2.394   0.263   0.351 -0.2871  0.1898  0.3672
  805SOL    HW1 2414   2.480   0.306   0.396  1.1267  0.0515  0.7504
  805SOL    HW2 2415   2.383   0.290   0.249 -0.1935 -1.2404 -1.1554
  806SOL     OW 2416   0.622   2.428   1.691  0.0810  0.6370  0.2764
  806SOL    HW1 2417   0.615   2.533   1.695 -0.2606  1.1675  0.2068
  806SOL    HW2 2418   0.718   2.392   1.673  0.1675  1.6570  1.1681
  807SOL     OW 2419   2.474   0.901   0.413 -0.1502 -0.1508 -0.6107
  807SOL    HW1 2420   2.576   0.906   0.438 -1.1358 -1.2573 -0.0077
  807SOL    HW2 2421   2.461   0.948   0.320  0.0134  1.5117 -1.1934
  808SOL     OW 2422   0.571   2.045   2.950  0.0763 -0.2365 -0.5899
  808SOL    HW1 2423   0.525   2.079   3.036 -0.7083  0.8328 -2.4708
  808SOL    HW2 2424   0.544   1.948   2.930  0.6683  2.1235  0.6776
  809SOL     OW 2425   2.706   1.945   1.939 -0.2919  0.2442 -0.1318
  809SOL    HW1 2426   2.795   1.994   1.961  0.7328  0.2542 -1.0533
  809SOL    HW2 2427   2.668   1.977   1.851  1.3012  1.2504  0.3244
  810SOL     OW 2428   2.100   1.029   0.537  0.0533  0.1724  0.0429
  810SOL    HW1 2429   2.114   0.968   0.623 -1.2187  0.6547 -0.3510
  810SOL    HW2 2430   2.062   1.124   0.560 -0.6231  0.7064  1.5205
  811SOL     OW 2431   1.365   2.508   1.258 -0.3406  0.0627 -0.1529
  811SOL    HW1 2432   1.359   2.406   1.263  1.3689  0.2398 -1.2265
  811SOL    HW2 2433   1.276   2.556   1.226 -3.0128 -1.2574  0.8575
  812SOL     OW 2434   1.433   0.823   1.917 -0.4483 -0.2853  0.0161
  812SOL    HW1 2435   1.506   0.890   1.951  1.0042 -1.6850 -1.7841
  812SOL    HW2 2436   1.329   0.841   1.929 -2.2868 -1.1915 -2.0624
  813SOL     OW 2437   1.761   2.073   2.478 -0.2830 -0.5103  0.2011
  813SOL    HW1 2438   1.849   2.017   2.471  0.9650 -0.4755  1.6800
  813SOL    HW2 2439   1.704   2.064   2.394 -3.1995  1.7052  0.0226
  814SOL     OW 2440   2.900   1.524   2.852  0.6172 -0.4465  0.3559
  814SOL    HW1 2441   2.988   1.514   2.911 -1.1280 -1.4698  1.2358
  814SOL    HW2 2442   2.903   1.605   2.789  0.8904 -0.8626  1.1970
  815SOL     OW 2443   2.170   2.904   2.794 -0.1184  0.2816  0.4260
  815SOL    HW1 2444   2.142   2.825   2.853 -1.8868  2.5192 -1.1828
  815SOL    HW2 2445   2.269   2.936   2.816 -0.4929  0.8816 -1.9277
  816SOL     OW 2446   1.639   0.327   1.664  0.4024 -0.3803 -0.5374
  816SOL    HW1 2447   1.657   0.227   1.660 -1.8879  0.1644  1.3652
  816SOL    HW2 2448   1.547   0.352   1.711 -1.2562  1.7170  0.9289
  817SOL     OW 2449   0.412   1.232   2.542  0.0515  0.1012  0.5123
  817SOL    HW1 2450   0.316   1.271   2.553 -0.7746 -1.2779 -0.2746
  817SOL    HW2 2451   0.462   1.291   2.468 -1.1766 -2.1948  1.0986
  818SOL     OW 2452   1.938   0.812   0.479 -0.5920  0.5939 -0.0289
  818SOL    HW1 2453   1.985   0.903   0.484 -1.1883  1.0346 -1.8092
  818SOL    HW2 2454   1.878   0.799   0.565  0.8058 -1.0561  0.1424
  819SOL     OW 2455   2.754   2.948   3.005 -0.0540  0.6090 -0.1012
  819SOL    HW1 2456   2.822   2.871   2.973 -0.4738 -0.4789 -0.0261
  819SOL    HW2 2457   2.667   2.952   2.944 -2.8201 -0.1966  0.1516
  820SOL     OW 2458   1.266   1.113   0.652  0.2221 -0.3745  0.1132
  820SOL    HW1 2459   1.224   1.202   0.686  1.3147  0.5233 -0.4322
  820SOL    HW2 2460   1.269   1.028   0.724  1.0520 -3.5625  0.7409
  821SOL     OW 2461   3.085   1.334   0.659 -0.5103  0.0550 -0.1723
  821SOL    HW1 2462   3.067   1.364   0.756  3.7207  4.3464 -3.0261
  821SOL    HW2 2463   3.168   1.391   0.620  2.6679 -1.6206 -0.3604
  822SOL     OW 2464   2.537   1.750   2.464  0.1551  0.0554  0.6994
  822SOL    HW1 2465   2.557   1.845   2.511 -0.4712  1.3233  1.1391
  822SOL    HW2 2466   2.455   1.756   2.402  1.3298  1.7116 -0.1910
  823SOL     OW 2467   2.104   0.851   1.197 -0.4807  1.0780 -0.3052
  823SOL    HW1 2468   2.047   0.847   1.286  0.7303 -0.8693  1.6041
  823SOL    HW2 2469   2.052   0.896   1.119  0.1985  1.4092  1.4850
  824SOL     OW 2470   0.187   2.071   2.783  0.3499  0.4552  0.2185
  824SOL    HW1 2471   0.121   2.005   2.838 -0.8182 -2.4443  2.1292
  824SOL    HW2 2472   0.231   2.023   2.702 -1.2725 -3.1816  0.4838
  825SOL     OW 2473   1.270   1.093   0.278  0.3974 -0.0353 -0.7661
  825SOL    HW1 2474   1.293   1.195   0.292 -1.5753 -2.8818  0.1046
  825SOL    HW2 2475   1.219   1.050   0.359  3.2153 -2.6363 -0.4698
  826SOL     OW 2476   1.894   0.691   1.611 -0.0340  0.4782  0.4626
  826SOL    HW1 2477   1.977   0.641   1.644  0.2160 -0.7013 -1.7813
  826SOL    HW2 2478   1.819   0.627   1.579  1.5277 -0.5753 -0.7014
  827SOL     OW 2479   0.674   1.334   0.289 -0.5476 -1.4117 -0.2210
  827SOL    HW1 2480   0.744   1.269   0.242 -0.0593 -1.3733 -2.0395
  827SOL    HW2 2481   0.606   1.288   0.351  0.5975  2.4651  2.9738
  828SOL     OW 2482   2.504   0.067   1.592  0.0883  0.0739  0.1260
  828SOL    HW1 2483   2.407   0.092   1.564 -0.5430  2.8042  0.0833
  828SOL    HW2 2484   2.497  -0.013   1.660 -1.1206 -0.0780  0.6445
  829SOL     OW 2485   2.810   2.445   2.982 -0.2978  0.1168  0.4600
  829SOL    HW1 2486   2.763   2.354   2.963 -3.4030  1.9597  0.2698
  829SOL    HW2 2487   2.760   2.502   3.052  0.6532  1.6129  1.3364
  830SOL     OW 2488   2.854   0.943   2.986 -0.1988 -0.2944  0.1684
  830SOL    HW1 2489   2.895   1.033   3.025 -0.0150  2.1940 -0.0804
  830SOL    HW2 2490   2.863   0.860   3.055 -1.2270 -2.3828  1.8467
  831SOL     OW 2491   0.112   0.631   0.436 -0.0855  0.2049  0.3938
  831SOL    HW1 2492   0.052   0.563   0.490  0.2480 -2.0448 -1.0095
  831SOL    HW2 2493   0.125   0.602   0.337 -0.5795 -2.9073 -1.0754
  832SOL     OW 2494   1.771   0.740   3.041 -0.1859  0.1164 -0.5493
  832SOL    HW1 2495   1.681   0.781   3.008  0.0907  1.1396 -0.6085
  832SOL    HW2 2496   1.772   0.634   3.046 -1.9105  1.1515  0.1197
  833SOL     OW 2497   2.419   2.168   0.524 -0.0882  0.4703  0.5054
  833SOL    HW1 2498   2.328   2.163   0.472 -2.0889  2.2067 -1.1248
  833SOL    HW2 2499   2.478   2.085   0.503  1.4677  1.2894  0.6021
  834SOL     OW 2500   0.202   0.211   0.525  0.3301  0.0850  0.2757
  834SOL    HW1 2501   0.226   0.118   0.565 -0.2133 -0.6761  2.0916
  834SOL    HW2 2502   0.166   0.211   0.434  0.1160 -0.1773  3.1150
  835SOL     OW 2503   2.398   1.564   1.148  0.1236 -0.3050 -0.0505
  835SOL    HW1 2504   2.434   1.643   1.206 -0.1974 -0.7097  0.7160
  835SOL    HW2 2505   2.435   1.549   1.058 -0.5066 -2.1129  0.1704
  836SOL     OW 2506   1.607   0.820   2.516 -0.1325 -0.2850  0.0779
  836SOL    HW1 2507   1.505   0.801   2.529 -1.6989  3.2528 -0.8519
  836SOL    HW2 2508   1.635   0.854   2.422  1.5286  0.8471  0.0449
  837SOL     OW 2509   1.736   0.133   0.598 -0.0778 -0.5682 -0.3529
  837SOL    HW1 2510   1.661   0.166   0.659 -0.6588 -0.5849 -0.2167
  837SOL    HW2 2511   1.733   0.181   0.503 -0.7840  0.7334 -2.1391
  838SOL     OW 2512   1.141   1.552   2.794  0.0829 -0.1394  0.2223
  838SOL    HW1 2513   1.134   1.509   2.888  1.9522  0.9107  0.7483
  838SOL    HW2 2514   1.090   1.496   2.720 -0.3255  1.4431  0.1805
  839SOL     OW 2515   1.641   0.336   1.000 -0.0470  0.2744 -0.8495
  839SOL    HW1 2516   1.700   0.372   1.079  0.4649  0.2114  1.3669
  839SOL    HW2 2517   1.589   0.248   1.024  1.4710 -1.6777 -1.5501
  840SOL     OW 2518   2.485   2.953   1.762  0.4877 -0.2948  0.0774
  840SOL    HW1 2519   2.394   2.917   1.722 -1.2170  0.3976  1.3698
  840SOL    HW2 2520   2.538   2.879   1.807  1.8936 -0.3774  2.1136
  841SOL     OW 2521   1.533   0.844   2.970 -0.6361  0.0575 -0.1694
  841SOL    HW1 2522   1.462   0.867   3.045 -1.3443  3.7579  2.2978
  841SOL    HW2 2523   1.559   0.914   2.903 -1.4170 -1.5569 -1.2431
  842SOL     OW 2524   0.825   1.529   0.914  0.0804  0.4030  0.6008
  842SOL    HW1 2525   0.789   1.625   0.938 -0.1435  0.1247  1.0084
  842SOL    HW2 2526   0.750   1.457   0.902  2.8817  0.7074 -2.5038
  843SOL     OW 2527   0.042   0.034   1.375 -0.3017  0.6687  0.1721
  843SOL    HW1 2528   0.115   0.101   1.412  0.4903 -1.7102 -1.6085
  843SOL    HW2 2529   0.026  -0.057   1.424 -3.3897 -1.5041 -0.9057
  844SOL     OW 2530   0.806   2.496   0.223 -0.2099  0.1816 -0.1645
  844SOL    HW1 2531   0.754   2.465   0.309  0.4752  1.3395  1.0974
  844SOL    HW2 2532   0.737   2.538   0.156  1.0736 -1.3006 -0.5442
  845SOL     OW 2533   1.628   2.920   1.381 -0.4778  0.5635  0.1294
  845SOL    HW1 2534   1.701   2.929   1.459  1.2641 -0.0503 -1.9223
  845SOL    HW2 2535   1.540   2.879   1.416  0.1670 -3.2761  2.5609
  846SOL     OW 2536   1.554   2.891   0.707  0.2713  0.0938 -0.6391
  846SOL    HW1 2537   1.571   2.860   0.613 -1.6312 -0.5971  1.7254
  846SOL    HW2 2538   1.635   2.926   0.761 -1.3282 -1.4432  0.0132
  847SOL     OW 2539   2.041   1.668   0.346  0.1284 -0.3729 -0.5132
  847SOL    HW1 2540   2.010   1.571   0.344  0.8806  4.2050 -0.6223
  847SOL    HW2 2541   1.957   1.727   0.369 -0.6721  1.7595  1.1876
  848SOL     OW 2542   2.468   0.881   2.605  0.0456  0.1494 -0.4871
  848SOL    HW1 2543   2.450   0.960   2.671 -0.5888 -1.1730  0.5382
  848SOL    HW2 2544   2.383   0.819   2.605 -1.5260  2.3778  0.3004
  849SOL     OW 2545   2.602   0.863   2.348  0.4964 -0.0955  0.2091
  849SOL    HW1 2546   2.704   0.842   2.352  1.1463  0.3746 -1.3389
  849SOL    HW2 2547   2.561   0.872   2.440  0.6171 -0.2372 -2.3331
  850SOL     OW 2548   1.531   0.165   1.270  0.0880  0.4152  0.4518
  850SOL    HW1 2549   1.507   0.128   1.175 -1.6447 -3.4201 -0.3820
  850SOL    HW2 2550   1.554   0.080   1.326 -1.2620 -3.7632 -1.0401
  851SOL     OW 2551   0.486   1.793   0.540 -0.0565  0.1521  0.4426
  851SOL    HW1 2552   0.556   1.867   0.566  0.4976  1.6625  0.3128
  851SOL    HW2 2553   0.422   1.821   0.464 -0.0127 -0.0183  0.3035
  852SOL     OW 2554   0.795   2.118   1.654 -0.2048  0.1883 -0.4889
  852SOL    HW1 2555   0.842   2.208   1.635 -0.8028 -0.6745 -0.6191
  852SOL    HW2 2556   0.736   2.109   1.737  2.3340  2.8741 -0.8299
  853SOL     OW 2557   2.532   1.516   2.604 -0.4393  0.1358 -0.2900
  853SOL    HW1 2558   2.462   1.449   2.565  1.2651 -3.8834  0.9301
  853SOL    HW2 2559   2.527   1.613   2.555  1.0224  1.5508 -0.9883
  854SOL     OW 2560   2.375   1.407   1.714 -0.2634  0.4347 -0.1093
  854SOL    HW1 2561   2.424   1.387   1.627 -0.6955  0.8987  1.1651
  854SOL    HW2 2562   2.314   1.326   1.745 -0.7833 -0.5527 -1.2280
  855SOL     OW 2563   2.015   2.416   1.024 -0.4363  0.2549 -0.7347
  855SOL    HW1 2564   2.002   2.512   0.989  1.9594  0.9559 -3.8539
  855SOL    HW2 2565   2.091   2.403   1.095  1.7070 -0.7196  2.5746
  856SOL     OW 2566   1.323   1.461   0.952  0.1215  0.5236  0.1629
  856SOL    HW1 2567   1.380   1.539   0.988  0.4607  1.0875  0.0480
  856SOL    HW2 2568   1.227   1.460   0.997 -1.7752  0.7741  1.9344
  857SOL     OW 2569   3.027   2.716   0.943  0.1036  0.0558 -0.2580
  857SOL    HW1 2570   3.044   2.663   0.855 -1.3386  2.3803 -0.0580
  857SOL    HW2 2571   3.110   2.714   1.007  3.6667  0.0434  2.0544
  858SOL     OW 2572   2.331   2.102   1.703 -0.4909  0.1591 -0.2735
  858SOL    HW1 2573   2.269   2.090   1.623 -0.2546  1.3654 -0.1409
  858SOL    HW2 2574   2.409   2.027   1.706  0.3593 -0.0365  1.7389
  859SOL     OW 2575   2.485   0.523   1.034  0.0392 -0.1517 -0.3868
  859SOL    HW1 2576   2.543   0.582   0.973  1.2446  0.0923  1.6158
  859SOL    HW2 2577   2.539   0.440   1.067 -0.8346 -2.5100  0.4567
  860SOL     OW 2578   1.974   2.788   0.419  0.3444 -0.0869  0.0223
  860SOL    HW1 2579   1.922   2.768   0.321 -1.5392 -1.0622 -2.2481
  860SOL    HW2 2580   2.069   2.820   0.399  0.0999  0.7837  2.0636
  861SOL     OW 2581   1.008   2.409   2.863  0.1855  0.6695  0.0942
  861SOL    HW1 2582   1.002   2.513   2.853 -1.1092 -0.4563  0.4312
  861SOL    HW2 2583   1.063   2.377   2.945 -0.7512  1.7187 -0.7634
  862SOL     OW 2584   2.860   2.542   1.627 -0.2768 -0.3477 -0.2757
  862SOL    HW1 2585   2.938   2.579   1.685 -0.3271  0.6065 -1.7816
  862SOL    HW2 2586   2.811   2.610   1.563 -1.3735 -2.4804 -0.7163
  863SOL     OW 2587   1.855   2.726   0.189 -0.2081  0.2890 -0.2774
  863SOL    HW1 2588   1.902   2.633   0.179 -0.1107  0.3106 -0.3520
  863SOL    HW2 2589   1.753   2.724   0.179  1.4344  0.2269 -0.1177
  864SOL     OW 2590   1.961   1.221   2.838 -0.1928  0.1832  0.5364
  864SOL    HW1 2591   1.987   1.187   2.741 -0.5211 -2.9827 -1.0062
  864SOL    HW2 2592   2.008   1.167   2.915 -1.3056 -1.6829  0.4683
  865SOL     OW 2593   2.180   1.897   0.661 -0.3867 -0.3131  0.3794
  865SOL    HW1 2594   2.249   1.926   0.730  0.6020 -2.3566 -0.4417
  865SOL    HW2 2595   2.119   1.820   0.694 -0.2892 -1.2746  0.0970
  866SOL     OW 2596   2.847   2.907   0.992  0.4023 -0.5212 -0.5491
  866SOL    HW1 2597   2.857   2.990   0.931  2.2406  0.5939 -0.2047
  866SOL    HW2 2598   2.913   2.827   0.964  2.2390 -2.4238 -1.8329
  867SOL     OW 2599   0.408   1.411   0.867  0.4227  0.4266  0.4970
  867SOL    HW1 2600   0.372   1.330   0.806 -1.1253  1.9811  1.1657
  867SOL    HW2 2601   0.386   1.505   0.831 -1.4904  2.3824 -1.4845
  868SOL     OW 2602   0.767   1.896   2.087  0.2832 -0.2461 -1.0396
  868SOL    HW1 2603   0.768   1.921   2.187 -0.4901  0.8323 -0.9914
  868SOL    HW2 2604   0.720   1.971   2.025  0.1445 -0.3297  0.2995
  869SOL     OW 2605   2.540   1.933   1.670 -0.3766 -0.6091  0.0480
  869SOL    HW1 2606   2.626   1.978   1.637 -1.0327  3.3695 -2.2068
  869SOL    HW2 2607   2.556   1.832   1.670 -1.0889  1.5736 -0.5969
  870SOL     OW 2608   2.278   2.686   1.212 -0.5659  0.5192  0.1185
  870SOL    HW1 2609   2.276   2.585   1.184 -2.9152 -0.8474 -0.2722
  870SOL    HW2 2610   2.282   2.702   1.308 -1.6800 -2.4217  1.2031
  871SOL     OW 2611   3.087   2.244   0.566 -0.7614 -0.4681  0.1956
  871SOL    HW1 2612   3.053   2.272   0.657 -0.9810  2.1931 -1.2638
  871SOL    HW2 2613   3.015   2.256   0.493 -1.4630 -0.0493 -0.3053
  872SOL     OW 2614   2.098   0.519   1.707 -0.1651  0.1835  0.1732
  872SOL    HW1 2615   2.059   0.481   1.797  1.6801  3.5327  1.2552
  872SOL    HW2 2616   2.203   0.514   1.703  0.6631  2.1343 -1.4958
  873SOL     OW 2617   1.732   2.135   3.071 -0.5334 -0.2285 -0.1849
  873SOL    HW1 2618   1.640   2.142   3.124  0.2910  0.4686  2.2862
  873SOL    HW2 2619   1.722   2.137   2.966 -0.1362  1.2312 -1.1297
  874SOL     OW 2620   0.674   2.444   0.737 -0.0773  0.4782 -0.4431
  874SOL    HW1 2621   0.666   2.534   0.788  1.3205 -2.1158  1.6728
  874SOL    HW2 2622   0.753   2.386   0.773  0.6999 -4.0720 -1.0872
  875SOL     OW 2623   2.310   1.504   1.417  0.0212 -0.8290 -0.3609
  875SOL    HW1 2624   2.400   1.513   1.462  2.6469 -0.9378  0.0473
  875SOL    HW2 2625   2.316   1.520   1.311 -0.3104  0.0166 -2.4418
  876SOL     OW 2626   0.058   2.314   2.691 -0.2013 -0.4956  0.0734
  876SOL    HW1 2627   0.108   2.222   2.704  1.8474  0.6087 -0.2623
  876SOL    HW2 2628   0.078   2.391   2.755 -1.4892 -0.4001  1.4921
  877SOL     OW 2629   2.961   2.690   0.496 -0.5551 -0.1428  0.0220
  877SOL    HW1 2630   2.939   2.784   0.540  1.5687  0.0414  1.0551
  877SOL    HW2 2631   2.979   2.618   0.573 -0.1970 -0.9468  1.8044
  878SOL     OW 2632   2.784   1.532   2.232 -0.0441 -0.4006  0.1283
  878SOL    HW1 2633   2.760   1.599   2.155 -0.1611 -0.4173 -1.2782
  878SOL    HW2 2634   2.785   1.573   2.325 -1.8763 -0.5805 -0.9660
  879SOL     OW 2635   2.420   0.099   1.232 -0.2137  0.2162 -1.0713
  879SOL    HW1 2636   2.451   0.007   1.270 -0.3504  0.0340 -1.6587
  879SOL    HW2 2637   2.353   0.088   1.149 -1.3323  0.8138 -0.6005
  880SOL     OW 2638   0.781   0.498   2.211  0.1240  0.3011  0.0900
  880SOL    HW1 2639   0.735   0.425   2.268  0.3867 -0.5520 -2.2162
  880SOL    HW2 2640   0.801   0.469   2.113  1.3714 -0.9895  0.8587
  881SOL     OW 2641   0.908   0.072   0.477 -0.2164 -0.6819  0.4816
  881SOL    HW1 2642   0.948  -0.020   0.510  2.4017 -0.5986 -0.9364
  881SOL    HW2 2643   0.811   0.068   0.452 -0.4410 -0.0758 -0.1516
  882SOL     OW 2644   2.716   1.703   1.700 -0.3450 -0.5338 -0.1959
  882SOL    HW1 2645   2.793   1.672   1.634  0.8426  1.1170  1.6432
  882SOL    HW2 2646   2.749   1.692   1.794  0.4384  0.8936 -0.3914
  883SOL     OW 2647   0.876   0.522   0.940 -0.0146  0.3629 -0.3895
  883SOL    HW1 2648   0.892   0.612   0.987  0.2419 -0.5082  0.6673
  883SOL    HW2 2649   0.878   0.441   1.005  1.7381 -0.7930  1.0089
  884SOL     OW 2650   1.130   1.716   1.178  0.4377  0.0913  0.1920
  884SOL    HW1 2651   1.106   1.627   1.134  0.2718 -0.5678 -2.4555
  884SOL    HW2 2652   1.112   1.796   1.107  1.3715 -1.6449  0.6898
  885SOL     OW 2653   2.327   1.778   2.284  0.0843 -0.5095  0.0229
  885SOL    HW1 2654   2.237   1.738   2.326  1.1570 -2.4002  1.2564
  885SOL    HW2 2655   2.301   1.872   2.245 -1.0063 -0.4967 -0.7072
  886SOL     OW 2656   2.592   0.361   1.816 -0.0667 -0.4875 -0.2639
  886SOL    HW1 2657   2.602   0.310   1.902  0.6624 -0.5602 -1.1431
  886SOL    HW2 2658   2.689   0.377   1.775  1.3446 -2.7357 -1.8247
  887SOL     OW 2659   0.110   1.976   1.334 -0.1632 -0.1432  0.2648
  887SOL    HW1 2660   0.092   1.894   1.270 -0.4829 -2.7281  1.6887
  887SOL    HW2 2661   0.074   2.068   1.301  0.0877  0.1362 -2.5494
  888SOL     OW 2662   0.544   1.231   1.541 -0.5088 -0.2337  0.3414
  888SOL    HW1 2663   0.582   1.259   1.452 -0.4600  0.9116 -0.3225
  888SOL    HW2 2664   0.476   1.151   1.533 -1.3055  0.4517  1.1999
  889SOL     OW 2665   0.814   2.508   2.150 -0.2124  0.3283 -0.0048
  889SOL    HW1 2666   0.752   2.428   2.139 -2.3021 -0.9988  0.7051
  889SOL    HW2 2667   0.907   2.493   2.106  1.7186  0.4120  0.5662
  890SOL     OW 2668   2.415   2.488   0.229  0.4396 -0.0437  0.0852
  890SOL    HW1 2669   2.406   2.539   0.137 -0.8053 -2.2408 -0.9153
  890SOL    HW2 2670   2.356   2.536   0.300 -0.7845 -0.0876  0.0001
  891SOL     OW 2671   2.505   1.705   0.619  0.0612  0.1857  0.1386
  891SOL    HW1 2672   2.501   1.674   0.719  0.3714 -0.1477 -0.7209
  891SOL    HW2 2673   2.413   1.677   0.571 -2.0641 -0.5685  5.9363
  892SOL     OW 2674   0.355   0.267   2.336 -0.4739 -0.0634 -0.2853
  892SOL    HW1 2675   0.400   0.359   2.316  0.6883  0.7424  0.1318
  892SOL    HW2 2676   0.419   0.190   2.326 -0.1852 -0.5029  1.7684
  893SOL     OW 2677   1.635   0.229   2.726 -0.1099  0.5979 -0.2790
  893SOL    HW1 2678   1.718   0.290   2.752  0.8491  0.7448  1.4804
  893SOL    HW2 2679   1.542   0.278   2.701  0.3572  0.9972 -0.4254
  894SOL     OW 2680   2.184   2.058   0.051 -0.3018 -0.3070 -0.1752
  894SOL    HW1 2681   2.176   2.037  -0.048 -1.7702  0.7835 -0.2804
  894SOL    HW2 2682   2.185   1.975   0.108 -1.9295 -0.9862 -2.1952
  895SOL     OW 2683   2.841   1.464   0.907  0.1214 -0.0356  0.1819
  895SOL    HW1 2684   2.917   1.402   0.947  1.4630 -3.3820  1.6802
  895SOL    HW2 2685   2.839   1.554   0.957 -0.1764 -2.1066 -0.3759
  896SOL     OW 2686   1.751   1.813   1.172 -0.9795  0.0107 -0.4054
  896SOL    HW1 2687   1.795   1.728   1.128 -0.7163 -0.4271 -1.1201
  896SOL    HW2 2688   1.660   1.842   1.132 -0.0163  0.0214 -0.8817
  897SOL     OW 2689   0.304   0.554   3.036  0.2722  0.1906 -0.3151
  897SOL    HW1 2690   0.253   0.595   2.957  1.7390 -0.4365  0.0778
  897SOL    HW2 2691   0.388   0.615   3.056  1.7448  2.0753  0.7222
  898SOL     OW 2692   0.603   2.877   1.044 -0.8205 -0.3261  0.0694
  898SOL    HW1 2693   0.629   2.974   1.019  0.4366  1.4519  0.5842
  898SOL    HW2 2694   0.677   2.837   1.105  1.2951 -0.3539  2.8431
  899SOL     OW 2695   2.848   0.887   1.358  0.1521  0.7056 -0.1006
  899SOL    HW1 2696   2.787   0.852   1.280 -0.0042 -0.8478 -0.1370
  899SOL    HW2 2697   2.942   0.929   1.324  0.5162  2.8180 -2.1992
  900SOL     OW 2698   1.014   2.512   2.435  0.2741  0.1540  0.5980
  900SOL    HW1 2699   0.941   2.512   2.361 -3.8255  1.1784 -1.4805
  900SOL    HW2 2700   0.975   2.494   2.534 -1.8599 -0.1185 -0.4454
  901SOL     OW 2701   1.902   2.384   1.367 -0.1028 -0.1768 -0.0970
  901SOL    HW1 2702   1.898   2.323   1.281 -1.5395  0.3803  2.0938
  901SOL    HW2 2703   1.988   2.374   1.426  0.9863 -0.2244 -0.6303
  902SOL     OW 2704   2.568   1.643   1.455  0.3347  0.3525 -0.5045
  902SOL    HW1 2705   2.578   1.656   1.557  0.4924 -1.6038  0.4947
  902SOL    HW2 2706   2.660   1.656   1.405 -0.4297  0.4308  0.3165
  903SOL     OW 2707   0.254   2.442   1.974 -0.3222  0.1194  0.0889
  903SOL    HW1 2708   0.161   2.403   1.939 -0.8705 -0.9801 -2.6611
  903SOL    HW2 2709   0.288   2.527   1.921  3.8416 -0.4409  0.9646
  904SOL     OW 2710   1.990   0.788   2.577  0.3056  0.0507  0.1667
  904SOL    HW1 2711   1.921   0.719   2.611  1.9291  1.1263 -1.2561
  904SOL    HW2 2712   2.006   0.784   2.473 -1.8312 -1.2369 -0.7931
  905SOL     OW 2713   2.844   0.114   2.532 -0.9036  0.3503  0.2816
  905SOL    HW1 2714   2.900   0.034   2.570 -2.1980 -2.3875  0.5848
  905SOL    HW2 2715   2.899   0.194   2.488 -2.1484  2.0666  0.7931
  906SOL     OW 2716   0.150   1.692   1.921  0.5283  0.7285  0.0197
  906SOL    HW1 2717   0.080   1.732   1.855  1.1002 -1.6238  3.5406
  906SOL    HW2 2718   0.247   1.699   1.885 -0.8637  1.6849  2.5802
  907SOL     OW 2719   0.218   2.428   0.989  0.2442  0.0948  0.2919
  907SOL    HW1 2720   0.320   2.404   0.981  2.0007  1.6468  0.1618
  907SOL    HW2 2721   0.195   2.515   0.940  0.1817 -0.3365  0.1581
  908SOL     OW 2722   2.807   3.038   0.383  0.0483  0.2036  0.7846
  908SOL    HW1 2723   2.710   3.051   0.341  2.0802  0.0404 -1.0812
  908SOL    HW2 2724   2.863   2.960   0.336 -1.1180 -2.3862  0.8169
  909SOL     OW 2725   0.850   1.056   2.646 -0.0870 -0.2397 -0.3301
  909SOL    HW1 2726   0.812   0.967   2.617  0.3018  1.4844 -0.1088
  909SOL    HW2 2727   0.925   1.089   2.584  1.1328  0.6096  1.8069
  910SOL     OW 2728   1.806   1.886   2.156  0.0855 -0.0337  0.0988
  910SOL    HW1 2729   1.868   1.902   2.073  2.3862  2.0269 -0.1445
  910SOL    HW2 2730   1.745   1.968   2.176 -1.2561  2.4352  0.8048
  911SOL     OW 2731   1.818   2.918   1.566 -0.0698  0.2813  0.0987
  911SOL    HW1 2732   1.883   2.899   1.486 -0.7728  0.2199  2.4701
  911SOL    HW2 2733   1.822   2.847   1.644 -1.6366 -1.4647  0.3172
  912SOL     OW 2734   2.847   1.006   0.708  0.0317 -0.2871  0.3129
  912SOL    HW1 2735   2.879   1.014   0.805 -2.8909  1.4096 -1.0300
  912SOL    HW2 2736   2.779   1.082   0.684  0.3587  0.6611  0.3137
  913SOL     OW 2737   2.527   1.285   1.527 -0.1068  0.0660  0.1193
  913SOL    HW1 2738   2.547   1.180   1.508  2.5730 -0.2922  1.7916
  913SOL    HW2 2739   2.595   1.336   1.467  1.8499 -1.6063  1.5270
  914SOL     OW 2740   2.783   0.603   1.164 -0.3936 -0.5050  0.4981
  914SOL    HW1 2741   2.830   0.523   1.203  1.7968 -0.9122 -1.0608
  914SOL    HW2 2742   2.690   0.610   1.201  0.7791  0.6735 -0.0300
  915SOL     OW 2743   1.206   0.720   1.029 -0.3139 -0.2305 -0.3071
  915SOL    HW1 2744   1.251   0.761   1.117 -2.8200 -1.5882  0.3692
  915SOL    HW2 2745   1.103   0.710   1.046 -1.5384  0.6653  3.9228
  916SOL     OW 2746   0.625   0.034   0.649  0.1354 -0.0768 -0.1532
  916SOL    HW1 2747   0.686   0.102   0.700 -1.7880 -2.2309  0.5758
  916SOL    HW2 2748   0.556   0.078   0.588 -3.3394 -3.7949 -0.5182
  917SOL     OW 2749   2.849   2.583   2.014 -0.6245  0.1407  0.0522
  917SOL    HW1 2750   2.776   2.606   1.945  1.1576 -0.0537 -1.2925
  917SOL    HW2 2751   2.937   2.641   2.008 -1.3839  1.4201  3.0769
  918SOL     OW 2752   1.011   2.115   3.004  0.2741  0.0009  0.9545
  918SOL    HW1 2753   0.980   2.178   3.081 -1.1536 -1.8697  1.4700
  918SOL    HW2 2754   1.101   2.145   2.963  1.1735 -0.9393 -0.7201
  919SOL     OW 2755   0.811   1.679   2.870 -0.1272 -0.1609 -0.2665
  919SOL    HW1 2756   0.877   1.746   2.822 -0.2889  0.0979 -0.8919
  919SOL    HW2 2757   0.765   1.613   2.802  0.9689  0.4167 -1.9947
  920SOL     OW 2758   1.254   1.813   2.560  0.2115 -0.0193 -0.3942
  920SOL    HW1 2759   1.310   1.755   2.492 -0.7608 -1.1128 -1.8274
  920SOL    HW2 2760   1.185   1.746   2.598  0.1405 -0.9956  0.6316
  921SOL     OW 2761   1.111   0.003   2.614  0.3237  0.2756  0.2280
  921SOL    HW1 2762   1.063  -0.032   2.532 -0.6191  1.9104  1.5389
  921SOL    HW2 2763   1.041   0.030   2.690 -0.1428  1.7804  0.6047
  922SOL     OW 2764   2.231   2.396   2.770 -0.1161  0.3724 -0.1567
  922SOL    HW1 2765   2.251   2.290   2.755  1.4151 -0.1511 -0.4916
  922SOL    HW2 2766   2.194   2.434   2.678  0.7416 -4.2072 -1.1182
  923SOL     OW 2767   1.264   2.652   0.275 -0.0819  0.1636  0.1773
  923SOL    HW1 2768   1.345   2.710   0.316 -0.3967 -0.2713 -2.8234
  923SOL    HW2 2769   1.299   2.555   0.246  0.1252  0.3091  0.1107
  924SOL     OW 2770   2.859   1.695   0.086 -0.2542 -0.2778 -0.0723
  924SOL    HW1 2771   2.790   1.649   0.022 -0.6967  0.3355 -1.0985
  924SOL    HW2 2772   2.939   1.630   0.105 -1.4658  0.2149 -1.0991
  925SOL     OW 2773   0.042   2.879   1.466 -0.4964 -0.0198 -0.2458
  925SOL    HW1 2774  -0.023   2.867   1.550 -3.3426  0.7005  0.0650
  925SOL    HW2 2775   0.067   2.793   1.413 -1.6564 -0.9079  2.3689
  926SOL     OW 2776   1.339   2.817   1.338 -0.5496 -0.3055 -0.1784
  926SOL    HW1 2777   1.361   2.816   1.234  0.1031 -0.6675  1.4540
  926SOL    HW2 2778   1.361   2.906   1.392  1.2212 -1.4590 -0.2478
  927SOL     OW 2779   0.325   2.697   1.759 -0.2967 -0.4181  0.1109
  927SOL    HW1 2780   0.293   2.623   1.690 -0.9265 -0.5181  1.6714
  927SOL    HW2 2781   0.279   2.791   1.743 -0.4015 -0.2518 -1.5330
  928SOL     OW 2782   1.602   2.087   2.226 -0.2343 -0.1264 -0.1411
  928SOL    HW1 2783   1.608   2.164   2.157  1.3332  0.7761  1.4954
  928SOL    HW2 2784   1.500   2.065   2.240 -4.0333  0.9576 -1.2111
  929SOL     OW 2785   2.461   2.514   2.860  0.8715  0.0556 -0.4955
  929SOL    HW1 2786   2.366   2.470   2.871 -0.2760 -0.6390  0.9070
  929SOL    HW2 2787   2.502   2.487   2.769 -3.5381  0.8791 -3.8135
  930SOL     OW 2788   2.146   2.002   1.094  0.4292  0.4419  0.2480
  930SOL    HW1 2789   2.124   1.935   1.165  1.8039  3.7944 -2.8902
  930SOL    HW2 2790   2.228   2.063   1.112 -1.5112  2.5455 -1.5881
  931SOL     OW 2791   0.534   1.734   2.667  0.1460 -0.5552  0.7394
  931SOL    HW1 2792   0.523   1.750   2.769 -1.5477  2.6943  0.3004
  931SOL    HW2 2793   0.602   1.657   2.645 -0.2211  0.9325 -0.7091
  932SOL     OW 2794   0.469   0.121   3.077  0.1382  0.1631  0.0373
  932SOL    HW1 2795   0.527   0.179   3.135  3.2315 -0.3554  0.6851
  932SOL    HW2 2796   0.521   0.035   3.048  0.4222 -0.4985  0.8903
  933SOL     OW 2797   0.934   0.820   3.044  0.1921 -0.0371  0.0829
  933SOL    HW1 2798   0.848   0.805   3.095  3.0007  0.3592  0.7733
  933SOL    HW2 2799   0.938   0.909   2.990  0.9267  0.2172 -0.7193
  934SOL     OW 2800   0.784   2.963   2.657 -0.1127 -0.3341  0.1816
  934SOL    HW1 2801   0.753   2.888   2.588 -0.9649 -2.1806  0.3589
  934SOL    HW2 2802   0.836   2.913   2.734 -2.9470  0.0826 -1.3107
  935SOL     OW 2803   0.018   0.511   0.848  0.0531  0.6310  0.0380
  935SOL    HW1 2804   0.034   0.495   0.741 -0.2047 -0.2421 -2.4857
  935SOL    HW2 2805  -0.065   0.570   0.863 -2.6967 -0.7428 -2.2022
  936SOL     OW 2806   1.101   2.825   0.098  0.2192 -0.6275  0.0335
  936SOL    HW1 2807   1.155   2.879   0.030  2.8013 -1.9793  1.0959
  936SOL    HW2 2808   1.162   2.780   0.171 -1.3545  0.7848 -0.2083
  937SOL     OW 2809   1.830   2.661   2.090  0.2285 -0.8492  0.5233
  937SOL    HW1 2810   1.739   2.709   2.090  0.4754 -0.5343  0.7668
  937SOL    HW2 2811   1.905   2.721   2.048 -0.3698  2.8564 -0.7823
  938SOL     OW 2812   2.775   2.061   1.630 -0.2959  0.1153 -0.6672
  938SOL    HW1 2813   2.759   2.163   1.646  0.8665  1.5256 -0.6696
  938SOL    HW2 2814   2.850   2.018   1.691  1.2111 -0.8901 -1.9417
  939SOL     OW 2815   2.820   1.183   2.411  0.4505 -0.1234 -0.1699
  939SOL    HW1 2816   2.873   1.180   2.321 -2.7744  0.5493  1.7955
  939SOL    HW2 2817   2.868   1.145   2.493 -1.2041  2.5389  0.5926
  940SOL     OW 2818   1.069   0.439   2.788 -0.0330 -0.0037 -0.0594
  940SOL    HW1 2819   1.127   0.354   2.779 -0.8983 -0.1267 -1.7826
  940SOL    HW2 2820   0.994   0.428   2.713 -0.3953 -1.8424 -0.7620
  941SOL     OW 2821   0.020   2.784   2.295  0.0305  0.1063 -0.2144
  941SOL    HW1 2822   0.073   2.698   2.275  0.2849 -0.6753  1.3423
  941SOL    HW2 2823   0.074   2.858   2.346 -1.4305 -1.6446 -2.0852
  942SOL     OW 2824   0.131   0.063   2.568 -0.1856 -0.7890 -0.2675
  942SOL    HW1 2825   0.160   0.080   2.666 -1.8143 -1.8822  1.9377
  942SOL    HW2 2826   0.104   0.150   2.521 -1.2030  0.9425  0.9895
  943SOL     OW 2827   2.106   1.669   2.393 -0.0006 -0.1065 -0.2348
  943SOL    HW1 2828   2.073   1.634   2.304  1.1367 -0.1472 -1.0449
  943SOL    HW2 2829   2.102   1.607   2.472 -0.1747 -1.9942 -3.3166
  944SOL     OW 2830   2.155   2.370   1.467 -0.2892 -0.2520 -0.0548
  944SOL    HW1 2831   2.258   2.396   1.487  3.0798 -0.7525 -0.3199
  944SOL    HW2 2832   2.136   2.277   1.514  3.1538 -1.7650  0.6527
  945SOL     OW 2833   0.670   1.573   0.147  0.1002  0.1608  0.4911
  945SOL    HW1 2834   0.582   1.584   0.095  3.1618 -0.8880 -0.1394
  945SOL    HW2 2835   0.667   1.486   0.206  0.2189 -0.6349  0.1621
  946SOL     OW 2836   0.440   0.956   2.505  0.3019 -0.4360 -0.1555
  946SOL    HW1 2837   0.364   0.887   2.480  0.3455 -0.3805 -2.8361
  946SOL    HW2 2838   0.401   1.053   2.520  0.0569  1.1720  1.8105
  947SOL     OW 2839   1.503   0.481   3.060 -0.3685 -0.1337 -0.0515
  947SOL    HW1 2840   1.463   0.512   2.974 -0.9416 -0.0478 -1.6218
  947SOL    HW2 2841   1.427   0.438   3.118  0.0814  0.1865 -2.4549
  948SOL     OW 2842   1.853   3.008   2.118 -0.5671  0.0015 -0.4449
  948SOL    HW1 2843   1.901   2.969   2.032  0.5449 -0.6925 -2.1749
  948SOL    HW2 2844   1.810   2.931   2.171  2.2907  0.7982 -2.2094
  949SOL     OW 2845   0.650   2.496   0.475  0.0047 -0.5485  0.2002
  949SOL    HW1 2846   0.649   2.595   0.443  0.5509 -1.9666 -1.8728
  949SOL    HW2 2847   0.652   2.475   0.576 -2.3015  1.8496  0.9869
  950SOL     OW 2848   0.226   2.223   3.027  0.3528 -0.3105  0.1391
  950SOL    HW1 2849   0.144   2.285   3.009  0.4309 -1.4570 -1.4405
  950SOL    HW2 2850   0.255   2.167   2.946  1.4371  0.9530  3.1717
  951SOL     OW 2851   1.158   2.634   2.823  0.2229 -0.1357  0.2671
  951SOL    HW1 2852   1.206   2.565   2.880 -1.5778  1.8447  0.3348
  951SOL    HW2 2853   1.219   2.669   2.750  0.1144 -0.7641 -1.0713
  952SOL     OW 2854   0.039   1.669   0.404  0.3909 -0.3983 -0.4844
  952SOL    HW1 2855   0.093   1.758   0.402  0.7850  0.6462 -1.2438
  952SOL    HW2 2856   0.078   1.590   0.448 -1.8619 -1.1491  2.8501
  953SOL     OW 2857   2.562   1.761   0.228 -0.2023 -0.2667 -0.1122
  953SOL    HW1 2858   2.546   1.666   0.270 -0.2250  2.1024  0.6692
  953SOL    HW2 2859   2.515   1.760   0.135 -0.3861 -3.4250 -0.8908
  954SOL     OW 2860   2.214   0.544   0.949  0.0993 -0.3205 -1.0584
  954SOL    HW1 2861   2.220   0.582   0.848  3.0881 -0.8388 -0.8257
  954SOL    HW2 2862   2.309   0.517   0.987  1.1388  0.8084  1.2038
  955SOL     OW 2863   0.141   2.572   1.385  0.0624  0.1126 -0.0487
  955SOL    HW1 2864   0.051   2.608   1.351  1.3762 -0.8777 -0.0786
  955SOL    HW2 2865   0.222   2.601   1.322  2.3938  0.2338 -0.4409
  956SOL     OW 2866   2.810   2.447   2.498  0.1389  0.0241 -0.6113
  956SOL    HW1 2867   2.818   2.343   2.491 -0.9009 -0.7146  0.9473
  956SOL    HW2 2868   2.859   2.499   2.418 -2.6777 -0.5259  0.0771
  957SOL     OW 2869   1.609   2.125   2.796 -0.3695 -0.1880 -0.1149
  957SOL    HW1 2870   1.603   2.025   2.761 -0.6267 -2.7062  0.4031
  957SOL    HW2 2871   1.700   2.165   2.776 -3.5970  0.7080 -1.4127
  958SOL     OW 2872   2.560   2.284   2.974 -0.1704 -0.5270 -0.2194
  958SOL    HW1 2873   2.537   2.378   2.939 -2.3569  0.3534  0.7968
  958SOL    HW2 2874   2.495   2.249   3.049  1.0787  1.5395 -0.4315
  959SOL     OW 2875   0.300   2.777   0.031  0.3282 -0.0403 -0.0987
  959SOL    HW1 2876   0.204   2.771  -0.004  0.6671 -1.9602 -0.6076
  959SOL    HW2 2877   0.318   2.700   0.101 -0.2100 -0.6617  0.7272
  960SOL     OW 2878   1.977   0.487   1.957 -0.4453 -0.1653  0.2414
  960SOL    HW1 2879   1.905   0.554   1.924  0.2282 -0.8949  2.2311
  960SOL    HW2 2880   1.992   0.487   2.063  0.3797 -1.1178  2.7495
  961SOL     OW 2881   2.553   1.865   1.059 -0.0621 -0.1335 -0.1397
  961SOL    HW1 2882   2.569   1.950   1.005 -0.4539 -2.3446 -1.3296
  961SOL    HW2 2883   2.515   1.875   1.157  0.1017  0.8048  0.5096
  962SOL     OW 2884   1.292   0.913   0.035  0.1014  0.1422 -0.4091
  962SOL    HW1 2885   1.266   0.963  -0.054  0.6241  1.7246 -3.0633
  962SOL    HW2 2886   1.289   0.968   0.120  0.0658  0.2808 -0.1922
  963SOL     OW 2887   2.292   2.531   1.767  0.0133 -0.1946  0.5587
  963SOL    HW1 2888   2.255   2.459   1.828  0.7476  2.6235 -2.7177
  963SOL    HW2 2889   2.312   2.619   1.814  2.1276 -0.2665 -1.5919
  964SOL     OW 2890   2.369   0.389   1.648 -0.3775 -0.1499  0.1245
  964SOL    HW1 2891   2.454   0.384   1.706 -1.5145 -1.2941  0.7577
  964SOL    HW2 2892   2.391   0.384   1.543  0.9857  1.2177  1.8137
  965SOL     OW 2893   2.605   2.983   0.159 -0.2237  0.3613 -0.3599
  965SOL    HW1 2894   2.687   2.965   0.096 -0.7367 -0.2386 -0.1016
  965SOL    HW2 2895   2.525   3.016   0.100  0.5808  1.0609  1.2416
  966SOL     OW 2896   2.569   2.559   2.345  0.1265 -0.0384  0.1909
  966SOL    HW1 2897   2.636   2.627   2.383  0.1712 -2.2581  0.3532
  966SOL    HW2 2898   2.501   2.604   2.282 -0.1451 -0.9628 -0.5825
  967SOL     OW 2899   2.772   2.852   2.437 -0.2484 -0.2001  0.0171
  967SOL    HW1 2900   2.800   2.764   2.388  0.8667  0.0037  0.9087
  967SOL    HW2 2901   2.838   2.874   2.516  0.0987  2.4863 -1.7238
  968SOL     OW 2902   1.938   1.070   2.593 -0.1977  0.1252 -0.5495
  968SOL    HW1 2903   1.858   1.118   2.561  2.4659 -1.5286  0.8496
  968SOL    HW2 2904   1.944   0.969   2.579 -0.1571 -0.4277  0.2980
  969SOL     OW 2905   2.758   2.487   1.136 -0.1519  0.6014  0.1290
  969SOL    HW1 2906   2.755   2.493   1.033  1.8531  1.8023  0.0787
  969SOL    HW2 2907   2.788   2.392   1.168 -1.2457 -0.1879 -0.3634
  970SOL     OW 2908   1.051   2.110   1.805 -0.2860 -0.4035  0.0225
  970SOL    HW1 2909   0.965   2.091   1.752  0.3381 -1.0030 -0.9180
  970SOL    HW2 2910   1.032   2.163   1.894  1.4913  0.8036 -0.3020
  971SOL     OW 2911   2.976   2.043   2.047  0.3619  0.1271 -0.3424
  971SOL    HW1 2912   2.967   2.144   2.080  0.3965 -2.2526  2.6181
  971SOL    HW2 2913   3.007   2.032   1.945  1.7757 -0.2102  2.0963
  972SOL     OW 2914   1.990   2.475   0.228 -0.2811  0.4120  0.2551
  972SOL    HW1 2915   2.023   2.383   0.198  1.2211 -1.2300  1.9651
  972SOL    HW2 2916   1.998   2.483   0.330 -0.0936 -0.0951 -1.8753
  973SOL     OW 2917   1.235   1.045   1.906  0.2765  0.3187  0.1779
  973SOL    HW1 2918   1.147   1.008   1.871  0.7022 -1.4586  0.2135
  973SOL    HW2 2919   1.219   1.145   1.935 -1.1000 -0.4879 -2.5125
  974SOL     OW 2920   1.562   0.581   1.932  0.2746 -0.5059  0.5132
  974SOL    HW1 2921   1.660   0.601   1.897  1.6819 -0.0012 -1.5368
  974SOL    HW2 2922   1.497   0.664   1.929 -0.4078  1.8227 -0.9601
  975SOL     OW 2923   2.374   3.048   3.083 -0.0300 -0.4423 -0.3347
  975SOL    HW1 2924   2.308   2.976   3.121  2.5441 -1.4360  3.7568
  975SOL    HW2 2925   2.346   3.094   2.996 -1.1464 -1.6118  0.4880
  976SOL     OW 2926   1.896   2.812   2.339 -0.2181 -0.1642 -0.1990
  976SOL    HW1 2927   1.817   2.747   2.335  0.6199  1.2223  0.6424
  976SOL    HW2 2928   1.920   2.838   2.439  4.9358  1.4730  1.2373
  977SOL     OW 2929   0.487   0.678   1.064  0.2499  0.4238  0.2781
  977SOL    HW1 2930   0.409   0.701   0.994 -2.4098  2.0021 -1.5850
  977SOL    HW2 2931   0.578   0.737   1.051  1.3145  2.7297 -1.2426
   3.10000   3.10000   3.10000
