1000 SPC/Fw water molecules t=   0.12000 step= 120
 2931
    1SOL     OW    1   2.528   0.353   2.587  0.4059 -0.7980 -0.3752
    1SOL    HW1    2   2.529   0.248   2.577 -1.0893  0.2122 -2.0109
    1SOL    HW2    3   2.587   0.393   2.668  1.3076 -2.4521  3.4788
    2SOL     OW    4   2.730   3.013   1.423 -0.3315 -0.1582  0.2207
    2SOL    HW1    5   2.802   3.047   1.356  0.2195 -2.2881 -2.0842
    2SOL    HW2    6   2.688   3.088   1.484 -1.4685 -0.5401 -3.2762
    3SOL     OW    7   2.707   2.592   0.435  0.5008 -0.6049  0.0445
    3SOL    HW1    8   2.639   2.520   0.467 -0.1090 -3.4015 -3.5451
    3SOL    HW2    9   2.777   2.603   0.512  0.6782 -0.7135  0.3245
    4SOL     OW   10   1.322   1.454   2.323  0.1517  0.2422  0.1218
    4SOL    HW1   11   1.242   1.493   2.373 -0.7274 -1.4974  1.1072
    4SOL    HW2   12   1.330   1.355   2.340  1.7359  1.6711 -0.5950
    5SOL     OW   13   1.196   1.488   3.060  0.0921 -0.0840  0.1736
    5SOL    HW1   14   1.255   1.562   3.097 -0.5071  0.7999  0.3787
    5SOL    HW2   15   1.097   1.517   3.065 -1.6896  0.5251 -1.7544
    6SOL     OW   16   0.131   1.875   2.949 -0.3373 -0.2187 -0.0029
    6SOL    HW1   17   0.118   1.926   3.037 -0.4806  1.0218 -2.6014
    6SOL    HW2   18   0.097   1.782   2.947  0.3558  1.4219  0.1368
    7SOL     OW   19   2.607   0.804   1.169  0.1216 -0.3322 -0.3388
    7SOL    HW1   20   2.521   0.762   1.204 -0.4213  0.9047 -1.0190
    7SOL    HW2   21   2.635   0.792   1.070  0.1982  1.4057  1.6385
    8SOL     OW   22   0.457   0.682   1.548  0.5580  0.2219 -0.0405
    8SOL    HW1   23   0.507   0.598   1.569 -2.9802 -0.0135  1.5585
    8SOL    HW2   24   0.394   0.679   1.465 -1.5228 -1.1607 -0.2445
    9SOL     OW   25   1.163   0.909   2.272  0.4295  0.1588 -0.2282
    9SOL    HW1   26   1.221   0.964   2.203 -1.8021  3.1394 -0.7442
    9SOL    HW2   27   1.077   0.880   2.233  2.9819 -0.7796  4.0330
   10SOL     OW   28   0.631   1.348   1.306  0.5633 -0.1803 -0.6032
   10SOL    HW1   29   0.562   1.359   1.234  0.3815  2.1376  0.0845
   10SOL    HW2   30   0.696   1.431   1.308  2.1677 -3.2217  0.7226
   11SOL     OW   31   2.299   2.564   0.917 -0.3413  0.1320  0.3974
   11SOL    HW1   32   2.301   2.606   1.015 -0.6600 -0.1101  0.7401
   11SOL    HW2   33   2.364   2.490   0.902  0.1078  1.7138 -2.0427
   12SOL     OW   34   1.426   0.897   0.480  0.7146  0.1985 -0.1639
   12SOL    HW1   35   1.342   0.945   0.436 -0.9427 -0.3243  2.6209
   12SOL    HW2   36   1.432   0.793   0.459 -0.3453 -0.8337 -1.5362
   13SOL     OW   37   2.463   0.660   1.788  0.4428  0.0734  0.4956
   13SOL    HW1   38   2.382   0.627   1.843  0.1567  0.5198  0.6695
   13SOL    HW2   39   2.474   0.613   1.693 -0.4510 -0.0409 -0.9031
   14SOL     OW   40   1.821   3.091   0.543  0.8344 -0.6090  0.2264
   14SOL    HW1   41   1.734   3.145   0.535  1.2848 -1.8335 -1.7682
   14SOL    HW2   42   1.856   3.084   0.637 -0.7922  1.3920 -0.1790
   15SOL     OW   43   1.963   2.065   2.825  0.0329  0.0744  0.2246
   15SOL    HW1   44   1.892   2.142   2.826 -2.4693  0.2170  1.9999
   15SOL    HW2   45   1.951   1.994   2.748 -0.1250  1.5323  0.0776
   16SOL     OW   46   1.557   1.711   0.039 -0.0114  0.4376  0.3985
   16SOL    HW1   47   1.596   1.635  -0.018  1.9778  0.3321 -0.8187
   16SOL    HW2   48   1.591   1.708   0.137  0.2443  0.0841  0.1444
   17SOL     OW   49   0.117   0.411   0.176  0.3348 -0.6173  0.3383
   17SOL    HW1   50   0.209   0.460   0.169 -1.0414  0.3955 -0.1860
   17SOL    HW2   51   0.045   0.438   0.102  3.1248 -1.3668 -1.2391
   18SOL     OW   52   1.101   2.888   2.153 -0.0637 -0.3511 -0.2255
   18SOL    HW1   53   1.004   2.889   2.115  2.5212  2.3020  0.3733
   18SOL    HW2   54   1.173   2.863   2.081 -0.4275 -0.5517 -1.5646
   19SOL     OW   55   0.560   0.999   1.954 -1.0145  0.0932  0.0857
   19SOL    HW1   56   0.489   1.016   2.030 -1.5170  0.8601  2.0154
   19SOL    HW2   57   0.628   0.922   1.981  2.3701  0.5029 -1.5021
   20SOL     OW   58   0.267   2.762   0.852  0.1233  0.0212  0.0862
   20SOL    HW1   59   0.175   2.805   0.823 -2.4519  1.0681 -0.7257
   20SOL    HW2   60   0.324   2.739   0.769  2.5558  1.2128  1.1123
   21SOL     OW   61   2.802   0.227   2.161 -0.4749  0.5115  0.0667
   21SOL    HW1   62   2.852   0.188   2.081 -3.2781  1.1786 -2.3172
   21SOL    HW2   63   2.783   0.159   2.234 -1.2947  0.1603  2.1588
   22SOL     OW   64   2.367   0.213   0.060  0.6205 -0.1345 -0.6732
   22SOL    HW1   65   2.390   0.111   0.041  0.8159  1.6797 -0.3618
   22SOL    HW2   66   2.263   0.240   0.042 -0.3907  1.4757  1.0528
   23SOL     OW   67   2.769   0.660   0.707  0.1546 -0.2100 -0.0061
   23SOL    HW1   68   2.752   0.572   0.657  0.9817  1.7664  1.8297
   23SOL    HW2   69   2.776   0.739   0.639  0.6917  1.0923  2.0642
   24SOL     OW   70   0.162   1.895   0.444 -0.0347  0.2271  0.0715
   24SOL    HW1   71   0.074   1.890   0.396  0.7582 -1.4734 -0.9177
   24SOL    HW2   72   0.238   1.889   0.374 -0.9886 -1.2450 -1.6034
   25SOL     OW   73   2.264   0.506   0.176 -0.2579  0.0923 -0.3994
   25SOL    HW1   74   2.314   0.440   0.229 -0.0712  0.3431  1.9709
   25SOL    HW2   75   2.261   0.490   0.077  3.0837  1.0887 -0.4594
   26SOL     OW   76   2.570   2.187   2.081  0.0241  0.2482  0.2371
   26SOL    HW1   77   2.638   2.221   2.154 -1.4692  1.7853  0.5420
   26SOL    HW2   78   2.611   2.118   2.014 -0.8489 -3.0425  0.5462
   27SOL     OW   79   0.677   2.982   0.103 -0.0479 -0.1913 -0.4726
   27SOL    HW1   80   0.765   3.029   0.073 -1.5937 -0.7438 -1.0915
   27SOL    HW2   81   0.620   2.963   0.015 -1.7736  0.3450 -0.1659
   28SOL     OW   82   1.463   0.232   0.193  0.4996 -0.4496 -0.2195
   28SOL    HW1   83   1.539   0.200   0.138 -3.6207  2.3646 -0.2093
   28SOL    HW2   84   1.503   0.289   0.272  1.3007  0.7009 -0.3211
   29SOL     OW   85   2.007   0.614   0.289 -0.4790  0.1488 -0.5895
   29SOL    HW1   86   2.021   0.692   0.356 -0.0161  2.4236 -3.1911
   29SOL    HW2   87   2.098   0.584   0.239  1.1090 -1.1376 -0.5380
   30SOL     OW   88   0.215   2.053   0.918 -0.3258 -0.6447  0.3566
   30SOL    HW1   89   0.163   2.020   0.838  0.0048  2.8423 -0.9022
   30SOL    HW2   90   0.156   2.118   0.968  2.4519  1.9818  3.2482
   31SOL     OW   91   2.049   0.041   2.329 -0.6882 -0.1374  0.2724
   31SOL    HW1   92   2.081   0.004   2.419 -0.0961  0.4529  0.2354
   31SOL    HW2   93   2.013  -0.038   2.273 -1.6358 -0.0695  0.1177
   32SOL     OW   94   2.985   0.113   0.239 -0.3181 -0.1325 -0.2274
   32SOL    HW1   95   2.918   0.036   0.265  0.6772 -2.9201  2.5683
   32SOL    HW2   96   3.079   0.080   0.212 -1.0179 -1.3880  1.3745
   33SOL     OW   97   0.962   0.321   0.436  0.1179  0.4172 -0.2188
   33SOL    HW1   98   0.936   0.222   0.429  2.5763 -2.0841  0.2109
   33SOL    HW2   99   1.035   0.341   0.507 -0.6231 -2.4742 -3.1137
   34SOL     OW  100   0.409   2.887   1.063  0.4627  0.5347  0.0686
   34SOL    HW1  101   0.362   2.827   0.997  0.5420 -0.5888  2.5413
   34SOL    HW2  102   0.508   2.864   1.085 -0.5641  0.4173 -0.8855
   35SOL     OW  103   0.043   3.101   1.807  0.2824 -0.0242 -0.4641
   35SOL    HW1  104   0.053   2.997   1.838  3.4439  0.6887  0.9269
   35SOL    HW2  105  -0.014   3.113   1.717 -1.3412 -1.4095  0.0186
   36SOL     OW  106   1.905   1.153   1.795 -0.0877  0.1483  0.6653
   36SOL    HW1  107   1.969   1.106   1.721 -0.6266 -0.8351  1.4274
   36SOL    HW2  108   1.931   1.251   1.816  0.5041 -2.5928 -1.7143
   37SOL     OW  109   1.123   0.321   1.008  0.2539  0.1270 -0.1644
   37SOL    HW1  110   1.159   0.415   1.037  0.4744  1.3604 -2.4673
   37SOL    HW2  111   1.192   0.246   1.019  2.3895  0.6329  2.8864
   38SOL     OW  112   1.147   2.712   2.390  0.1096 -0.0465  0.4351
   38SOL    HW1  113   1.081   2.635   2.414 -0.5920 -2.9457  1.9312
   38SOL    HW2  114   1.116   2.788   2.333  1.0927 -1.8066  2.9713
   39SOL     OW  115   2.386   1.487   3.065 -0.8508 -0.2439 -0.2458
   39SOL    HW1  116   2.439   1.394   3.050 -0.2125 -2.2366 -1.1917
   39SOL    HW2  117   2.330   1.487   3.155 -1.9169 -2.1159  2.6504
   40SOL     OW  118   2.060   2.521   2.571  0.7504  1.0974 -0.3793
   40SOL    HW1  119   2.014   2.618   2.594 -0.7173  1.4475  1.2898
   40SOL    HW2  120   1.989   2.454   2.522 -1.4503  1.4362  0.4969
   41SOL     OW  121   2.912   0.696   2.758 -0.2048 -0.3948  0.1231
   41SOL    HW1  122   2.825   0.737   2.721 -1.9383  0.4919  0.7062
   41SOL    HW2  123   2.895   0.596   2.773 -1.7147 -2.9348 -0.8855
   42SOL     OW  124   1.706   1.753   0.586  0.4181 -0.0232 -0.2716
   42SOL    HW1  125   1.679   1.660   0.556  1.0738  0.5355  0.7956
   42SOL    HW2  126   1.767   1.805   0.516  1.3621 -0.4922 -2.1940
   43SOL     OW  127   0.473   1.741   1.210 -0.5400 -0.3074  0.2530
   43SOL    HW1  128   0.455   1.706   1.306 -2.0769 -0.6241 -0.2328
   43SOL    HW2  129   0.391   1.719   1.151  0.8649  1.0451  0.2669
   44SOL     OW  130   1.741   2.494   0.010 -0.3244  1.2416 -0.7992
   44SOL    HW1  131   1.761   2.571  -0.060 -2.8104  0.7471  0.2570
   44SOL    HW2  132   1.803   2.476   0.096  0.6622  0.6713  0.6674
   45SOL     OW  133   0.386   1.883   2.519  0.0383  0.1474 -0.5307
   45SOL    HW1  134   0.323   1.893   2.433 -0.2258  0.7784  1.2506
   45SOL    HW2  135   0.414   1.782   2.539  1.6288 -0.8181 -2.9375
   46SOL     OW  136   1.160   0.658   0.187 -0.3805 -0.0592 -0.3027
   46SOL    HW1  137   1.206   0.731   0.127 -2.8968 -0.3729 -0.5493
   46SOL    HW2  138   1.071   0.680   0.233  1.6637 -2.9086  0.7866
   47SOL     OW  139   0.244   2.453   1.605  0.5903 -0.2387  0.3588
   47SOL    HW1  140   0.328   2.395   1.591 -2.9321  1.5260 -0.6260
   47SOL    HW2  141   0.214   2.497   1.513 -1.1578  2.7088 -2.0899
   48SOL     OW  142   2.617   0.554   0.105  0.0947  0.8168  0.9184
   48SOL    HW1  143   2.577   0.580   0.194 -3.7657  1.4888 -0.4852
   48SOL    HW2  144   2.691   0.616   0.069 -1.4434 -3.3435 -0.9243
   49SOL     OW  145   0.366   0.828   1.766  0.3282 -0.2303 -0.0550
   49SOL    HW1  146   0.460   0.840   1.811 -0.1285  0.6718 -0.9579
   49SOL    HW2  147   0.368   0.757   1.686  1.3690 -1.5358 -0.7978
   50SOL     OW  148   1.764   1.074   0.315  0.1892 -0.2672  0.7243
   50SOL    HW1  149   1.747   0.973   0.295  1.1130 -4.4295  0.4402
   50SOL    HW2  150   1.699   1.108   0.392  1.5909  0.7314  2.6121
   51SOL     OW  151   3.006   1.884   0.368  0.5088  0.0209  0.4589
   51SOL    HW1  152   2.980   1.948   0.287  3.5232 -1.3131 -0.9054
   51SOL    HW2  153   2.989   1.783   0.345  0.6108 -0.3452  1.2623
   52SOL     OW  154   0.832   1.934   0.482  0.6688  0.2965 -0.6181
   52SOL    HW1  155   0.758   1.995   0.526 -3.5877 -0.5572 -0.4357
   52SOL    HW2  156   0.853   1.849   0.543  0.2526  0.6108 -0.9309
   53SOL     OW  157   3.085   0.378   1.518 -0.0495 -0.4815 -0.0560
   53SOL    HW1  158   3.112   0.387   1.617  0.0451 -1.2144 -0.6918
   53SOL    HW2  159   3.089   0.470   1.472  1.2511  1.4745 -2.0779
   54SOL     OW  160   1.769   0.491   3.002 -0.2140 -0.2557  0.2457
   54SOL    HW1  161   1.824   0.454   3.082 -0.8756 -0.1558 -1.0010
   54SOL    HW2  162   1.665   0.459   3.000  0.1459  1.5769 -2.7039
   55SOL     OW  163   0.710   2.932   0.661  0.4231  0.1405 -0.2465
   55SOL    HW1  164   0.684   3.027   0.671 -1.2426 -1.1176  0.9103
   55SOL    HW2  165   0.794   2.930   0.596 -0.9228 -0.3690 -2.2754
   56SOL     OW  166   0.510   1.533   3.085 -0.1781 -0.7332 -0.5951
   56SOL    HW1  167   0.430   1.595   3.120 -0.6066  1.9786 -1.0517
   56SOL    HW2  168   0.484   1.436   3.077  1.5927  1.6851  1.8845
   57SOL     OW  169   1.769   2.384   2.660 -0.1155 -0.3201 -0.3021
   57SOL    HW1  170   1.789   2.393   2.561  2.4021  0.9527  0.7133
   57SOL    HW2  171   1.675   2.338   2.673 -1.6416  1.8845 -0.0943
   58SOL     OW  172   0.630   0.498   1.095 -0.6465 -0.0221  0.0687
   58SOL    HW1  173   0.577   0.577   1.060  0.6719  5.3022 -0.8799
   58SOL    HW2  174   0.573   0.413   1.099 -0.6138 -2.2018  2.4621
   59SOL     OW  175   0.474   2.379   2.652  0.5125  0.2251 -0.4755
   59SOL    HW1  176   0.461   2.277   2.692 -3.2295 -0.9441  0.8856
   59SOL    HW2  177   0.538   2.433   2.721 -0.2913  0.5337  0.0355
   60SOL     OW  178   2.329   2.185   2.249  0.0405  0.0207 -0.0471
   60SOL    HW1  179   2.416   2.187   2.189  1.4779  1.2788 -0.6764
   60SOL    HW2  180   2.340   2.211   2.353 -1.0362  3.8511  0.9882
   61SOL     OW  181   1.356   0.618   0.418  0.6405 -1.0714  0.2271
   61SOL    HW1  182   1.264   0.646   0.464  0.8984 -0.4949  2.5219
   61SOL    HW2  183   1.352   0.616   0.314  0.1893 -1.9123  0.8964
   62SOL     OW  184   2.689   1.902   0.014 -0.9024  0.0219  0.4602
   62SOL    HW1  185   2.697   1.800   0.021 -1.2294  0.1619 -0.3292
   62SOL    HW2  186   2.701   1.927  -0.087 -1.7406  0.3271 -0.6803
   63SOL     OW  187   0.526   0.800   0.129 -0.2114 -0.3258 -0.2241
   63SOL    HW1  188   0.500   0.899   0.103 -1.2307  1.0048 -0.6377
   63SOL    HW2  189   0.594   0.789   0.204 -2.1415  0.0057  1.6590
   64SOL     OW  190   0.071   0.563   2.515  0.2297 -0.3775 -0.0372
   64SOL    HW1  191   0.030   0.620   2.595 -0.3802  1.0788  0.9665
   64SOL    HW2  192   0.050   0.590   2.417 -2.1217  0.5241  2.4982
   65SOL     OW  193   0.182   1.465   0.616  0.4287 -0.8497  0.6585
   65SOL    HW1  194   0.194   1.556   0.661 -0.9210  0.0144 -0.1042
   65SOL    HW2  195   0.265   1.445   0.557 -1.5508  1.1499  0.3029
   66SOL     OW  196   2.458   0.332   0.674  0.1482  0.6358  0.4118
   66SOL    HW1  197   2.389   0.403   0.663  0.7671 -1.0310  1.8008
   66SOL    HW2  198   2.425   0.244   0.719 -0.3236 -1.5924  0.1192
   67SOL     OW  199   0.474   2.584   1.318  0.1289 -0.3244  0.3789
   67SOL    HW1  200   0.575   2.595   1.315  0.1963 -1.2501 -0.9573
   67SOL    HW2  201   0.448   2.488   1.304  0.6393  2.6479  1.3833
   68SOL     OW  202   1.017   1.103   2.413  0.4249  0.1332  0.5916
   68SOL    HW1  203   1.068   1.025   2.366 -0.3620  1.6924  1.4323
   68SOL    HW2  204   0.950   1.141   2.343  0.5269 -1.2443  1.8268
   69SOL     OW  205   0.766   2.701   2.155  0.0364 -0.3574  0.1103
   69SOL    HW1  206   0.816   2.617   2.191  2.7253 -0.6371  2.3170
   69SOL    HW2  207   0.669   2.708   2.198  2.5887 -2.3455 -1.1692
   70SOL     OW  208   0.601   0.224   2.710  0.4891  0.3857  0.0818
   70SOL    HW1  209   0.556   0.263   2.795  1.7509 -1.2634  1.4099
   70SOL    HW2  210   0.583   0.121   2.705 -0.9445 -0.5318 -0.4809
   71SOL     OW  211   1.107   1.822   0.363 -0.4035  0.4049  0.1405
   71SOL    HW1  212   1.081   1.723   0.376 -1.1300 -1.2578 -0.7628
   71SOL    HW2  213   1.083   1.855   0.270  0.0560 -0.3820  1.7222
   72SOL     OW  214   1.771   0.066   2.091 -0.0071 -0.1330 -0.1101
   72SOL    HW1  215   1.843   0.101   2.029  1.6933  1.7006 -0.7197
   72SOL    HW2  216   1.769  -0.038   2.104  0.1198 -0.7920  0.9692
   73SOL     OW  217   2.849   2.232   2.524 -0.2504 -0.2466  0.1847
   73SOL    HW1  218   2.861   2.143   2.474  0.6393  3.4102 -0.2126
   73SOL    HW2  219   2.870   2.231   2.629 -0.1233 -1.8437  0.6189
   74SOL     OW  220   2.713   3.006   2.068 -0.0306  0.7734 -0.5159
   74SOL    HW1  221   2.650   2.977   2.150 -2.7880 -0.4827 -0.5954
   74SOL    HW2  222   2.816   2.982   2.076 -1.4493  1.7420 -0.4481
   75SOL     OW  223   0.919   0.740   0.965  0.1628 -0.1813  0.6840
   75SOL    HW1  224   0.833   0.791   0.948 -1.7510  1.8919 -0.6507
   75SOL    HW2  225   0.982   0.785   1.031 -1.5433 -0.6232 -1.4870
   76SOL     OW  226   1.740   1.230   2.581  0.4448 -0.3430 -0.2959
   76SOL    HW1  227   1.638   1.230   2.593 -0.9941 -0.3834  0.9110
   76SOL    HW2  228   1.777   1.319   2.622 -0.4910  0.8230 -0.8179
   77SOL     OW  229   3.000   1.009   0.984  0.2831 -0.5381 -0.0077
   77SOL    HW1  230   2.973   0.910   0.976  2.3471 -0.3643 -0.0899
   77SOL    HW2  231   3.074   1.034   1.056 -0.1737  0.9276  1.1475
   78SOL     OW  232   1.980   1.402   1.466 -0.2268  0.0697  0.4065
   78SOL    HW1  233   2.024   1.427   1.374  2.7413  0.3251  1.6869
   78SOL    HW2  234   1.878   1.392   1.471  1.7855 -1.1013 -1.2734
   79SOL     OW  235   0.647   1.296   0.859  0.5431  0.7402 -0.1339
   79SOL    HW1  236   0.564   1.327   0.907 -0.3661  1.1665  1.7918
   79SOL    HW2  237   0.626   1.238   0.778  0.2516  1.9438  1.1013
   80SOL     OW  238   0.640   0.477   1.606  0.1199  0.5695 -0.2588
   80SOL    HW1  239   0.708   0.542   1.558  2.2688 -1.3192 -1.2909
   80SOL    HW2  240   0.641   0.376   1.572 -0.1348 -2.4700  1.0906
   81SOL     OW  241   1.093   1.435   2.586  0.0789 -0.2115  0.6704
   81SOL    HW1  242   1.067   1.359   2.649 -0.1261 -0.9872 -1.7452
   81SOL    HW2  243   1.053   1.421   2.489 -3.2307 -1.2196  0.2773
   82SOL     OW  244   0.903   3.025   1.529  0.1057 -0.0159 -0.0828
   82SOL    HW1  245   0.969   2.945   1.513  1.8949 -1.1444 -1.9817
   82SOL    HW2  246   0.815   3.017   1.472 -2.4017  1.5155 -1.7233
   83SOL     OW  247   2.759   2.415   0.819  0.4930  0.1014 -0.1834
   83SOL    HW1  248   2.665   2.389   0.780 -1.1058 -0.1582 -3.1599
   83SOL    HW2  249   2.789   2.500   0.766 -2.4352 -0.8922 -0.6564
   84SOL     OW  250   0.662   0.015   2.417 -0.0036 -0.0116  0.0118
   84SOL    HW1  251   0.564  -0.007   2.399  2.1260 -0.7736  0.0613
   84SOL    HW2  252   0.718  -0.059   2.454  0.5740  0.3253  0.2368
   85SOL     OW  253   0.382   1.655   1.467  1.2390 -0.3838  0.2274
   85SOL    HW1  254   0.323   1.740   1.481 -0.7573 -1.2340  1.1405
   85SOL    HW2  255   0.378   1.605   1.556  1.2069  0.9171 -2.5696
   86SOL     OW  256   0.358   1.044   1.483  0.0587  0.1306 -0.2867
   86SOL    HW1  257   0.368   0.973   1.407  1.8003 -0.7243  0.7279
   86SOL    HW2  258   0.382   1.011   1.579 -1.1174  0.4175  0.5586
   87SOL     OW  259   1.566   0.585   0.190  0.3478  0.1517  0.2667
   87SOL    HW1  260   1.612   0.676   0.200 -1.5581  0.9713 -1.6851
   87SOL    HW2  261   1.517   0.578   0.099  1.3861 -1.0550  0.1368
   88SOL     OW  262   1.602   1.296   0.168 -0.5114 -0.4532 -0.4033
   88SOL    HW1  263   1.653   1.215   0.208 -0.6458 -1.8041 -0.3012
   88SOL    HW2  264   1.506   1.303   0.205 -0.9519 -0.2228  0.2383
   89SOL     OW  265   2.970   0.422   0.579 -0.1098  0.1447 -0.2511
   89SOL    HW1  266   3.023   0.345   0.621  1.1479  1.0657  0.1152
   89SOL    HW2  267   2.874   0.405   0.550  2.2217  4.1038  2.9873
   90SOL     OW  268   0.916   1.639   3.052  0.8726  0.1248 -0.0556
   90SOL    HW1  269   0.842   1.630   3.124  1.5477  2.1902  0.4682
   90SOL    HW2  270   0.873   1.633   2.957  1.6303  2.4793 -0.8990
   91SOL     OW  271   1.253   1.401   1.788  0.2919  0.7965 -0.6022
   91SOL    HW1  272   1.281   1.489   1.840  2.9892  0.8765  0.8314
   91SOL    HW2  273   1.332   1.336   1.776 -0.2349  2.8452 -1.6519
   92SOL     OW  274   0.063   1.067   1.183 -0.1527 -0.5497 -0.1377
   92SOL    HW1  275   0.160   1.093   1.155 -1.7636 -0.5046  0.0994
   92SOL    HW2  276   0.055   1.020   1.277  0.3212  0.5394 -3.2645
   93SOL     OW  277   0.100   2.836   3.098 -0.3055 -0.1723  0.9170
   93SOL    HW1  278   0.007   2.829   3.048 -1.0216 -1.9733 -0.8925
   93SOL    HW2  279   0.131   2.741   3.135  0.1783 -3.3043 -0.1697
   94SOL     OW  280   1.510   1.298   1.665 -0.5737  0.0224 -0.4959
   94SOL    HW1  281   1.527   1.214   1.725  0.4210 -0.1461  1.0596
   94SOL    HW2  282   1.580   1.371   1.693 -0.4512  1.2451  3.6401
   95SOL     OW  283   1.394   2.473   2.906  0.1904  0.7895 -0.5967
   95SOL    HW1  284   1.337   2.455   2.998 -1.3595  0.7080  0.4824
   95SOL    HW2  285   1.417   2.377   2.863 -3.3527  0.1978 -0.3664
   96SOL     OW  286   0.505   2.022   1.225 -0.1720  0.2530 -0.0412
   96SOL    HW1  287   0.490   2.054   1.125 -0.9019 -1.8530 -1.1818
   96SOL    HW2  288   0.494   1.918   1.228  1.4237  0.0202 -0.5148
   97SOL     OW  289   0.294   1.447   2.469 -0.0413  0.4071  0.2810
   97SOL    HW1  290   0.203   1.403   2.498  2.0796  0.8909 -0.5174
   97SOL    HW2  291   0.326   1.523   2.531  1.6640 -0.6490 -3.0131
   98SOL     OW  292   2.083   1.651   1.258 -0.0632  0.6187  0.5239
   98SOL    HW1  293   2.073   1.556   1.221 -1.3296 -0.6075 -1.7445
   98SOL    HW2  294   2.132   1.643   1.352 -1.5295 -1.4003  0.4145
   99SOL     OW  295   2.482   2.167   1.343 -0.5355 -0.1131 -0.2643
   99SOL    HW1  296   2.487   2.161   1.446  1.4740 -1.0500 -0.7312
   99SOL    HW2  297   2.495   2.073   1.300 -2.4152 -0.1618  2.2973
  100SOL     OW  298   2.302   0.408   2.065  0.3879 -0.0455 -0.2004
  100SOL    HW1  299   2.246   0.379   2.152 -0.2885 -0.2275  0.2067
  100SOL    HW2  300   2.401   0.390   2.080 -2.4963  2.2640 -1.5382
  101SOL     OW  301   0.426   1.421   0.277  0.2999  0.2618  0.0563
  101SOL    HW1  302   0.425   1.436   0.381  0.4464 -3.1891  1.0298
  101SOL    HW2  303   0.485   1.484   0.223  0.3403  0.8391  1.9282
  102SOL     OW  304   2.254   1.079   0.841  0.5879 -0.0799 -0.8031
  102SOL    HW1  305   2.192   1.004   0.801  1.5101 -1.8848 -1.7921
  102SOL    HW2  306   2.299   1.136   0.769  0.8574 -2.4308  0.8772
  103SOL     OW  307   2.290   0.072   0.396  0.0717 -0.1299 -0.0156
  103SOL    HW1  308   2.338   0.160   0.388 -0.2245 -2.8519  3.1483
  103SOL    HW2  309   2.338   0.016   0.469 -0.0374  1.0422  0.2774
  104SOL     OW  310   0.079   1.862   2.154 -0.3005  0.2358  0.3877
  104SOL    HW1  311   0.128   1.809   2.079  2.2824 -1.8958 -0.3656
  104SOL    HW2  312  -0.023   1.876   2.151  0.3813  2.2763 -0.3845
  105SOL     OW  313   1.102   1.961   0.820  0.5325 -0.0150  0.2762
  105SOL    HW1  314   1.042   2.038   0.785  3.2446  2.0273  1.6766
  105SOL    HW2  315   1.119   1.886   0.748 -4.6140 -1.0082  0.7233
  106SOL     OW  316   2.050   0.482   1.341 -0.0542 -0.4048  0.4338
  106SOL    HW1  317   2.004   0.407   1.399 -0.3821 -1.9458 -0.7235
  106SOL    HW2  318   2.038   0.574   1.389 -1.0164  0.6816 -0.2493
  107SOL     OW  319   1.816   3.005   1.129 -0.5567  0.1431 -0.4346
  107SOL    HW1  320   1.838   3.088   1.187 -1.6001  0.5817  0.6386
  107SOL    HW2  321   1.754   2.939   1.176  0.1291  0.3197  0.7534
  108SOL     OW  322   0.741   2.625   1.304  0.1645  0.1238 -0.3968
  108SOL    HW1  323   0.724   2.672   1.397  0.1137  0.2971  0.6094
  108SOL    HW2  324   0.837   2.586   1.302 -2.3023 -1.1876  0.8077
  109SOL     OW  325   2.058   0.126   0.682  0.9971 -0.6366  0.2667
  109SOL    HW1  326   2.048   0.032   0.648 -2.5810  2.2187 -2.9418
  109SOL    HW2  327   1.971   0.158   0.729  0.5235  0.2147 -0.9312
  110SOL     OW  328   0.492   2.721   2.750 -0.6055  1.0298 -0.6758
  110SOL    HW1  329   0.486   2.771   2.664  0.8181  0.5051  0.3036
  110SOL    HW2  330   0.589   2.684   2.770 -0.7953 -0.5378 -0.8529
  111SOL     OW  331   1.289   0.532   2.334 -0.1344  0.0836 -0.6395
  111SOL    HW1  332   1.199   0.558   2.383 -1.2547  0.5309  1.2763
  111SOL    HW2  333   1.348   0.471   2.396  0.7081 -1.0894  3.7127
  112SOL     OW  334   1.689   0.500   1.462  0.0933 -0.1312  0.0310
  112SOL    HW1  335   1.675   0.481   1.361 -0.9240 -0.8228  0.5234
  112SOL    HW2  336   1.707   0.423   1.532 -0.1774  2.2011  2.5806
  113SOL     OW  337   2.290   1.659   1.731  0.2039  0.3374 -0.1391
  113SOL    HW1  338   2.342   1.568   1.717 -0.5116  2.6369 -2.3380
  113SOL    HW2  339   2.307   1.705   1.819  1.4532 -0.0243  0.8811
  114SOL     OW  340   0.393   0.567   1.295 -0.3275 -0.0336 -0.2563
  114SOL    HW1  341   0.357   0.663   1.270  1.0300  0.0445 -1.9288
  114SOL    HW2  342   0.461   0.528   1.225  0.2577 -3.6477 -0.6840
  115SOL     OW  343   2.680   1.565   1.267 -0.3002  0.4076 -0.4831
  115SOL    HW1  344   2.703   1.460   1.272 -0.9997 -0.5350 -2.5011
  115SOL    HW2  345   2.698   1.601   1.172 -2.4589  0.6959  0.7750
  116SOL     OW  346   1.826   1.070   0.761  0.1589  0.3301 -0.2177
  116SOL    HW1  347   1.750   1.011   0.722 -1.6171  2.7525  1.8543
  116SOL    HW2  348   1.795   1.167   0.767  0.2527 -1.5785 -0.6709
  117SOL     OW  349   1.105   0.409   0.659  0.5407 -0.7544 -0.4135
  117SOL    HW1  350   1.101   0.410   0.761 -0.7284  2.1692  0.8418
  117SOL    HW2  351   1.128   0.503   0.622  1.6054 -1.9146 -1.2494
  118SOL     OW  352   1.065   1.105   1.018 -0.7473  0.1719  0.2742
  118SOL    HW1  353   1.065   1.020   1.073 -0.7533 -3.0955  0.1418
  118SOL    HW2  354   1.101   1.187   1.073  3.2916  0.7308 -1.4764
  119SOL     OW  355   1.831   1.617   2.002 -0.3112 -0.6311  0.1823
  119SOL    HW1  356   1.791   1.708   2.018  3.4590 -1.4151  0.9188
  119SOL    HW2  357   1.932   1.614   2.037  3.8554 -1.0542 -0.3950
  120SOL     OW  358   2.938   2.769   0.262  0.1569  0.4564  0.7431
  120SOL    HW1  359   2.882   2.723   0.185 -1.9320 -1.4604  1.8192
  120SOL    HW2  360   3.003   2.696   0.300  0.4660 -3.0646  1.6554
  121SOL     OW  361   2.062   0.729   2.227 -0.7758  0.0236 -0.5051
  121SOL    HW1  362   2.134   0.760   2.156  0.0155  3.1663 -2.5338
  121SOL    HW2  363   2.034   0.631   2.219  2.2136  0.0641 -0.5344
  122SOL     OW  364   2.704   2.537   1.342  0.2655 -0.0079 -0.1541
  122SOL    HW1  365   2.723   2.531   1.243 -0.5118 -0.1653  1.7500
  122SOL    HW2  366   2.664   2.444   1.383 -1.8343  0.0291  2.0378
  123SOL     OW  367   1.735   0.037   1.684  0.3625 -0.2707 -0.5761
  123SOL    HW1  368   1.735  -0.060   1.638  0.7581 -0.8399 -0.0808
  123SOL    HW2  369   1.822   0.087   1.668 -0.8528 -0.3629  0.2088
  124SOL     OW  370   0.192   0.497   0.995 -0.2457  0.4950  0.9277
  124SOL    HW1  371   0.169   0.545   1.088  0.8187  1.3502  0.9821
  124SOL    HW2  372   0.114   0.498   0.915 -0.7135 -1.8120 -1.6355
  125SOL     OW  373   0.876   1.745   0.665  0.4148  0.4527  0.0231
  125SOL    HW1  374   0.977   1.742   0.660  0.5173  2.0881 -0.9213
  125SOL    HW2  375   0.834   1.662   0.712  0.3409 -0.5427  1.0876
  126SOL     OW  376   1.871   2.385   2.385 -0.9611 -0.3274 -0.6729
  126SOL    HW1  377   1.931   2.303   2.355  0.4748 -0.4983 -2.3589
  126SOL    HW2  378   1.782   2.394   2.329  1.0880  4.0286 -2.6429
  127SOL     OW  379   0.946   0.976   0.183 -0.6057 -0.7371  0.2617
  127SOL    HW1  380   1.046   0.992   0.204 -0.3828  1.2920  0.3564
  127SOL    HW2  381   0.910   0.882   0.203 -2.4055  0.5619  0.2151
  128SOL     OW  382   1.009   0.192   1.474  0.3648 -0.0232  0.3967
  128SOL    HW1  383   0.957   0.255   1.405 -2.1419 -2.4692  2.1625
  128SOL    HW2  384   0.954   0.107   1.502  0.9145  0.4012  0.2130
  129SOL     OW  385   1.772   0.724   1.823  0.7495  0.3308  0.2741
  129SOL    HW1  386   1.764   0.764   1.728 -0.7194  1.8950 -0.3113
  129SOL    HW2  387   1.797   0.803   1.879 -3.5649 -1.5584 -0.8860
  130SOL     OW  388   1.283   2.094   0.988  0.5227  0.1224 -0.1457
  130SOL    HW1  389   1.225   2.037   0.924 -1.1798  0.1706  1.4390
  130SOL    HW2  390   1.350   2.165   0.942  0.4982  0.1657 -2.1423
  131SOL     OW  391   3.058   1.514   1.326  0.2439  0.1328 -0.0160
  131SOL    HW1  392   3.007   1.427   1.309  3.1127  1.1699 -0.1952
  131SOL    HW2  393   3.159   1.500   1.325 -0.5652  1.5050 -1.7665
  132SOL     OW  394   1.929   2.493   0.520  0.0659  0.2092  0.1919
  132SOL    HW1  395   1.827   2.485   0.536 -1.5148  1.0792 -0.6972
  132SOL    HW2  396   1.987   2.471   0.604  1.0901  2.9123  2.9122
  133SOL     OW  397   1.798   2.290   2.906  0.4677 -0.0118 -0.5812
  133SOL    HW1  398   1.778   2.355   2.981  0.5621  1.0770  0.4187
  133SOL    HW2  399   1.812   2.338   2.813 -1.9034  2.5837  0.7004
  134SOL     OW  400   2.619   2.385   1.621  0.4238 -0.1966  0.0345
  134SOL    HW1  401   2.561   2.331   1.689 -0.6217  1.5631  1.9812
  134SOL    HW2  402   2.697   2.428   1.668 -2.1003  2.3833 -0.8788
  135SOL     OW  403   0.757   1.510   2.553 -0.1903  0.5814 -0.1063
  135SOL    HW1  404   0.739   1.412   2.601 -3.7351 -1.9003  0.1332
  135SOL    HW2  405   0.819   1.498   2.479 -2.3140 -0.8752  2.1057
  136SOL     OW  406   1.153   2.077   0.454 -0.0488 -0.2873 -0.2907
  136SOL    HW1  407   1.087   2.118   0.523  1.7726  1.9253  0.0583
  136SOL    HW2  408   1.120   1.986   0.421  0.7291 -2.0879  1.9987
  137SOL     OW  409   0.380   1.025   2.151  0.5967 -0.2128  0.1832
  137SOL    HW1  410   0.286   1.053   2.188 -1.7395  0.9020  0.5214
  137SOL    HW2  411   0.397   0.924   2.160 -0.9416  1.7897  2.2967
  138SOL     OW  412   2.443   1.471   0.324  0.4692  0.5764 -0.6572
  138SOL    HW1  413   2.351   1.471   0.272 -1.5697 -3.0984  0.1108
  138SOL    HW2  414   2.468   1.381   0.371 -0.0467 -1.4653 -1.2327
  139SOL     OW  415   1.768   2.528   1.226  0.2869  0.5337  0.3358
  139SOL    HW1  416   1.665   2.513   1.224 -2.2705  0.3957 -1.0352
  139SOL    HW2  417   1.822   2.465   1.288  0.5286  1.3750 -0.6512
  140SOL     OW  418   2.983   3.011   2.519  0.2275  0.2384  0.6928
  140SOL    HW1  419   3.019   2.943   2.584  0.2556 -0.6487 -0.4622
  140SOL    HW2  420   3.054   3.065   2.463 -2.0433  0.5638 -3.5021
  141SOL     OW  421   1.150   1.566   1.606 -0.0285  0.5714  0.2806
  141SOL    HW1  422   1.133   1.652   1.658  0.2064  1.4865  1.0888
  141SOL    HW2  423   1.187   1.490   1.663 -1.1070 -1.3022 -0.2816
  142SOL     OW  424   1.540   0.594   2.247  0.6163  0.2692 -0.1613
  142SOL    HW1  425   1.557   0.584   2.146 -1.2103 -0.2254  0.1364
  142SOL    HW2  426   1.439   0.581   2.271 -3.4479  0.3048 -2.6095
  143SOL     OW  427   2.778   0.861   0.491  0.0323  0.4930  0.7479
  143SOL    HW1  428   2.791   0.893   0.392  1.0464  1.3357 -1.5217
  143SOL    HW2  429   2.808   0.925   0.565 -0.1151 -0.2482  0.4054
  144SOL     OW  430   2.971   1.247   1.368  0.7068  0.2692  0.0147
  144SOL    HW1  431   2.999   1.241   1.466 -0.8556  2.6838  0.6340
  144SOL    HW2  432   3.021   1.192   1.300  0.4673  0.6841  0.3362
  145SOL     OW  433   1.026   1.869   0.109  0.7941 -0.0676 -0.2215
  145SOL    HW1  434   1.055   1.951   0.053  0.2363 -1.2287  0.3116
  145SOL    HW2  435   0.995   1.795   0.045  1.7721  0.5250 -1.9838
  146SOL     OW  436   2.519   0.638   1.484  0.4330  0.3945 -0.4712
  146SOL    HW1  437   2.463   0.562   1.442  0.8724 -0.5978  0.3136
  146SOL    HW2  438   2.476   0.732   1.470  2.2146  3.5236 -1.5643
  147SOL     OW  439   1.050   2.600   0.620 -0.1790 -0.3530  0.2540
  147SOL    HW1  440   1.006   2.636   0.531  0.0249  0.6982 -1.6930
  147SOL    HW2  441   1.138   2.550   0.606 -0.3260  2.5156 -0.3258
  148SOL     OW  442   1.646   1.417   3.053 -0.5765  0.1198  0.1991
  148SOL    HW1  443   1.676   1.333   3.006 -0.8669  1.1005  1.3810
  148SOL    HW2  444   1.612   1.392   3.150  0.1748  1.2006  1.8017
  149SOL     OW  445   0.642   1.402   1.942  0.0005 -0.1091  0.4750
  149SOL    HW1  446   0.569   1.343   1.985  1.2814 -0.3001 -0.5023
  149SOL    HW2  447   0.700   1.355   1.871 -1.0439 -0.2058 -0.2134
  150SOL     OW  448   2.959   1.279   0.943  0.0643  0.3062  0.1993
  150SOL    HW1  449   3.039   1.326   0.992  2.3196 -1.8218  1.5718
  150SOL    HW2  450   2.962   1.178   0.965 -2.2064  1.7356 -1.0957
  151SOL     OW  451   0.181   0.763   2.082 -0.0295 -0.0831 -0.1932
  151SOL    HW1  452   0.186   0.853   2.036  0.2404 -3.6650  0.7596
  151SOL    HW2  453   0.239   0.687   2.040 -0.1837 -1.4430  1.4911
  152SOL     OW  454   1.414   1.770   1.275  0.1733 -0.2224  0.4556
  152SOL    HW1  455   1.410   1.850   1.344 -1.2250  0.6989  0.9491
  152SOL    HW2  456   1.325   1.764   1.219  0.7670 -1.9469 -2.5976
  153SOL     OW  457   0.044   1.502   0.160  0.0687  0.0610 -0.2058
  153SOL    HW1  458   0.051   1.394   0.160 -1.4366 -1.7966 -1.4169
  153SOL    HW2  459   0.071   1.538   0.250  0.8995  0.7776 -3.3980
  154SOL     OW  460   2.404   1.958   2.837 -0.1400 -0.4449 -0.1142
  154SOL    HW1  461   2.422   1.857   2.865  0.6529  0.3747  1.1974
  154SOL    HW2  462   2.437   1.970   2.737 -0.8759  2.1662 -1.1848
  155SOL     OW  463   2.522   1.226   0.412 -0.1317  0.4157  0.0367
  155SOL    HW1  464   2.585   1.242   0.330 -3.9092  1.9147 -2.3324
  155SOL    HW2  465   2.502   1.128   0.433  0.2059  2.8489 -0.6793
  156SOL     OW  466   2.519   0.999   0.884  0.3414  0.1292 -0.1659
  156SOL    HW1  467   2.422   1.034   0.884  1.2027  1.8443  1.5010
  156SOL    HW2  468   2.595   1.066   0.842  2.0119 -0.3643 -2.3762
  157SOL     OW  469   1.376   2.990   0.009 -0.1177  0.5490 -0.2047
  157SOL    HW1  470   1.453   2.946  -0.048  0.3518 -2.6995  2.0265
  157SOL    HW2  471   1.349   3.084  -0.025 -1.4852 -0.8726  1.4180
  158SOL     OW  472   1.062   1.848   2.026 -0.3901 -0.1364  0.2548
  158SOL    HW1  473   1.094   1.850   2.124  1.1598  0.5785 -1.9913
  158SOL    HW2  474   0.958   1.862   2.016  1.6073  2.2420  2.5568
  159SOL     OW  475   0.872   0.404   1.323  0.1157 -1.1381  0.0122
  159SOL    HW1  476   0.855   0.504   1.355  1.3111 -0.1234  1.7593
  159SOL    HW2  477   0.839   0.383   1.227 -0.3163 -1.0314 -0.8202
  160SOL     OW  478   1.479   2.368   1.633 -0.4529  0.4750 -0.2640
  160SOL    HW1  479   1.517   2.446   1.573 -1.0728  2.9735  0.9617
  160SOL    HW2  480   1.556   2.322   1.680 -1.6621  3.9322  0.1177
  161SOL     OW  481   0.125   2.953   0.366 -0.5471  0.4153 -0.7051
  161SOL    HW1  482   0.078   2.866   0.364 -1.0653 -2.1210 -0.7873
  161SOL    HW2  483   0.120   3.002   0.274  0.8554 -2.3116 -2.3923
  162SOL     OW  484   2.599   1.887   0.504 -0.5608 -0.4116 -0.3742
  162SOL    HW1  485   2.570   1.853   0.409  2.1557 -1.9178  1.3725
  162SOL    HW2  486   2.596   1.808   0.572  0.2757  0.9519  1.1162
  163SOL     OW  487   1.974   2.760   0.761  0.1923 -0.2429  0.0446
  163SOL    HW1  488   1.957   2.783   0.662  0.7995  0.5685  0.2295
  163SOL    HW2  489   2.002   2.663   0.777 -0.4054  0.3258  0.2269
  164SOL     OW  490   0.007   0.244   1.232 -0.6639 -0.0853  0.4457
  164SOL    HW1  491   0.084   0.178   1.214 -0.3022 -0.6431  0.9904
  164SOL    HW2  492   0.032   0.314   1.301 -2.0662 -0.9829  1.5192
  165SOL     OW  493   0.992   1.366   0.644 -0.0081 -0.4088 -0.2737
  165SOL    HW1  494   0.957   1.447   0.703 -1.6023  0.5266  0.0405
  165SOL    HW2  495   0.971   1.376   0.543 -2.0542  2.7404 -1.3985
  166SOL     OW  496   1.379   1.032   1.783  0.3787  0.3602 -0.1102
  166SOL    HW1  497   1.287   1.010   1.829  1.3879  0.6118  1.3708
  166SOL    HW2  498   1.455   1.059   1.840 -1.0809  1.4479 -0.9392
  167SOL     OW  499   0.887   1.845   1.579 -0.2467  0.5674 -0.3525
  167SOL    HW1  500   0.854   1.942   1.591 -0.5831  0.1256 -2.3874
  167SOL    HW2  501   0.808   1.777   1.566 -0.1374 -2.1318 -0.4025
  168SOL     OW  502   1.530   2.371   0.171 -0.3640  0.1104 -0.0483
  168SOL    HW1  503   1.601   2.411   0.104  0.0889  0.9772 -0.2474
  168SOL    HW2  504   1.576   2.333   0.258 -0.5176 -1.7060 -1.2921
  169SOL     OW  505   0.166   2.552   2.172 -0.1750 -0.3076 -0.0767
  169SOL    HW1  506   0.228   2.494   2.109  2.0693 -0.3901 -0.6910
  169SOL    HW2  507   0.134   2.497   2.254  1.1591  1.5956  1.1053
  170SOL     OW  508   1.276   0.301   1.923 -0.1087 -0.6049 -0.3306
  170SOL    HW1  509   1.297   0.284   2.023  0.7316 -1.6917 -0.1143
  170SOL    HW2  510   1.266   0.213   1.868  3.5398  1.0244  0.7457
  171SOL     OW  511   0.248   0.830   2.411  0.3776  0.3515 -0.0744
  171SOL    HW1  512   0.152   0.842   2.441  2.7308 -1.3303  1.7726
  171SOL    HW2  513   0.264   0.774   2.328 -2.0185 -2.1351 -2.9468
  172SOL     OW  514   0.897   1.122   2.925 -0.2361  0.0359  0.1297
  172SOL    HW1  515   0.995   1.147   2.952  1.9621  0.1958  0.8417
  172SOL    HW2  516   0.891   1.086   2.825  5.2621 -0.2897 -0.5320
  173SOL     OW  517   0.679   2.701   0.172 -0.5712 -0.1310  0.1817
  173SOL    HW1  518   0.692   2.806   0.163  1.3731 -0.0572 -1.3793
  173SOL    HW2  519   0.583   2.669   0.144 -1.3281  1.3028 -1.2480
  174SOL     OW  520   1.308   2.751   1.044  0.2926 -0.1254 -0.0040
  174SOL    HW1  521   1.315   2.828   0.973 -2.6075 -0.4587  1.4376
  174SOL    HW2  522   1.289   2.656   1.001  3.3853 -0.1925 -0.1816
  175SOL     OW  523   0.386   0.017   1.694  0.4313 -0.4055 -0.0686
  175SOL    HW1  524   0.430   0.093   1.748 -0.3084 -0.7630  3.2215
  175SOL    HW2  525   0.309   0.049   1.629 -0.9724 -0.0530  0.1303
  176SOL     OW  526   2.627   0.361   3.019 -0.3013 -0.1316 -0.3497
  176SOL    HW1  527   2.629   0.426   3.102 -1.3320  2.2913  1.0215
  176SOL    HW2  528   2.551   0.291   3.012  0.4720 -2.2727  1.4723
  177SOL     OW  529   0.372   0.334   0.858  0.2464  0.6287  0.3327
  177SOL    HW1  530   0.441   0.308   0.932  0.2214  1.3294 -0.2922
  177SOL    HW2  531   0.283   0.366   0.899 -1.2807 -1.3228 -1.4384
  178SOL     OW  532   3.088   2.696   2.612  0.4678  0.1049  0.3560
  178SOL    HW1  533   3.017   2.683   2.688  2.2096 -0.4686  2.1553
  178SOL    HW2  534   3.175   2.739   2.660  0.4399  1.9983 -1.2491
  179SOL     OW  535   3.094   1.758   1.183  0.5600 -0.7944 -0.1282
  179SOL    HW1  536   3.014   1.815   1.151 -0.9170 -1.0294  1.2778
  179SOL    HW2  537   3.068   1.701   1.270 -2.1372 -1.7917  2.1431
  180SOL     OW  538   0.181   1.257   1.833  0.1011  0.1330  0.1181
  180SOL    HW1  539   0.292   1.255   1.814  3.0923 -2.0753  0.3344
  180SOL    HW2  540   0.142   1.335   1.889 -1.4862 -1.5646 -0.8222
  181SOL     OW  541   2.999   1.816   2.528  0.2973 -0.2935 -0.2327
  181SOL    HW1  542   3.073   1.880   2.508 -2.2668 -4.0519  1.8492
  181SOL    HW2  543   2.910   1.834   2.464  0.1213  4.1499 -3.1199
  182SOL     OW  544   2.295   1.220   1.246 -0.5911 -0.3311 -0.1425
  182SOL    HW1  545   2.230   1.190   1.170  0.4428 -1.3385 -0.8972
  182SOL    HW2  546   2.343   1.311   1.216 -1.1647 -1.8515 -2.2923
  183SOL     OW  547   1.520   2.250   2.513  0.5030 -0.1700  0.0252
  183SOL    HW1  548   1.427   2.208   2.528  0.1437 -0.7518  1.3917
  183SOL    HW2  549   1.591   2.174   2.524  0.4360 -0.6089 -0.5155
  184SOL     OW  550   2.053   0.924   0.728 -0.6489 -0.4791  0.2379
  184SOL    HW1  551   1.967   0.975   0.754  0.2181 -3.6033  0.0871
  184SOL    HW2  552   2.043   0.821   0.725  1.0961  1.9245  0.4278
  185SOL     OW  553   1.655   2.750   2.153  0.0571  0.1023 -0.5924
  185SOL    HW1  554   1.622   2.843   2.126  2.1095 -0.6483 -0.8603
  185SOL    HW2  555   1.655   2.737   2.258  0.9462 -0.4442  0.4367
  186SOL     OW  556   0.109   2.233   1.706  0.0835 -0.0189  0.5225
  186SOL    HW1  557   0.174   2.314   1.696  0.5551  1.1471  0.1063
  186SOL    HW2  558   0.161   2.147   1.716 -1.6584  0.9885  0.3317
  187SOL     OW  559   1.422   0.647   1.739  0.1061  0.0235 -0.4797
  187SOL    HW1  560   1.467   0.709   1.669 -2.2932 -0.7283  0.8129
  187SOL    HW2  561   1.397   0.698   1.825  0.0453 -1.7259 -0.2659
  188SOL     OW  562   2.753   2.741   1.524  0.0623  0.0923 -0.0775
  188SOL    HW1  563   2.726   2.835   1.494 -2.3509  0.8466  0.5035
  188SOL    HW2  564   2.734   2.668   1.451  1.2419  0.3694 -1.6954
  189SOL     OW  565   0.713   1.012   1.483  0.2071  0.0964 -0.0532
  189SOL    HW1  566   0.797   1.070   1.475  1.5283 -0.6272 -0.4098
  189SOL    HW2  567   0.717   0.920   1.434 -0.4369  0.1076  0.2981
  190SOL     OW  568   1.474   1.773   1.664  0.2243 -0.2701  0.4407
  190SOL    HW1  569   1.425   1.843   1.599  0.1596  2.4837 -0.8615
  190SOL    HW2  570   1.544   1.817   1.728  0.9104  0.6184 -0.9475
  191SOL     OW  571   1.034   0.804   1.537  0.0894 -0.3347  0.1649
  191SOL    HW1  572   1.087   0.731   1.586  1.0735  0.1437 -2.2675
  191SOL    HW2  573   1.102   0.875   1.506 -0.3802 -2.5115  1.8629
  192SOL     OW  574   1.898   2.209   1.209  0.2992  0.7560 -0.0730
  192SOL    HW1  575   1.798   2.210   1.180 -1.4671 -0.0065  0.6042
  192SOL    HW2  576   1.963   2.279   1.155  3.4634  1.7352 -1.2896
  193SOL     OW  577   0.507   0.546   0.351 -0.2433 -0.7942  0.2752
  193SOL    HW1  578   0.471   0.450   0.372  3.8372 -1.7313 -1.2636
  193SOL    HW2  579   0.530   0.555   0.245 -1.1041 -0.6152  0.0525
  194SOL     OW  580   0.298   0.820   1.247  0.2400  0.6955 -0.0480
  194SOL    HW1  581   0.197   0.807   1.236  0.8695 -1.9726 -0.1331
  194SOL    HW2  582   0.333   0.887   1.176  1.6835  1.4138  1.2088
  195SOL     OW  583   0.932   2.939   0.499  0.3200  0.1469  0.1500
  195SOL    HW1  584   0.916   2.842   0.459 -0.2119 -0.3070 -2.7082
  195SOL    HW2  585   1.033   2.970   0.478  2.6397  0.8497 -1.4175
  196SOL     OW  586   0.232   1.457   1.342  0.7715 -0.2839 -0.0271
  196SOL    HW1  587   0.307   1.522   1.354 -0.8639 -0.7950 -3.4845
  196SOL    HW2  588   0.226   1.384   1.418  0.0536 -0.3283  1.3737
  197SOL     OW  589   0.809   2.000   0.207  0.5849 -0.0181  0.2018
  197SOL    HW1  590   0.829   1.994   0.307 -0.8719 -0.3625  0.8636
  197SOL    HW2  591   0.880   1.944   0.154 -1.5013 -0.8650  0.8678
  198SOL     OW  592   0.293   1.186   0.228  0.4672 -0.3816  0.3190
  198SOL    HW1  593   0.188   1.179   0.215  1.2823 -0.3233 -0.9943
  198SOL    HW2  594   0.328   1.281   0.251  0.4960  0.0621 -0.6538
  199SOL     OW  595   2.269   0.421   2.482  0.2427 -0.5687  0.4822
  199SOL    HW1  596   2.203   0.359   2.538 -3.2145  0.4129  3.4661
  199SOL    HW2  597   2.369   0.391   2.500  0.6368  0.0846 -0.8576
  200SOL     OW  598   0.030   2.889   0.811 -1.0008 -0.1302 -0.5541
  200SOL    HW1  599  -0.056   2.884   0.755 -0.2295 -1.5734  0.7706
  200SOL    HW2  600   0.057   2.992   0.829  2.5943  1.4756  3.5942
  201SOL     OW  601   1.125   0.681   0.550  0.7356  0.4881  0.2659
  201SOL    HW1  602   1.105   0.756   0.619 -0.5351 -0.7426 -3.1836
  201SOL    HW2  603   1.039   0.657   0.503  2.2988 -0.6315 -1.9660
  202SOL     OW  604   0.431   1.216   1.774  0.3719 -0.3232 -0.1097
  202SOL    HW1  605   0.481   1.253   1.690 -1.3190 -1.3007 -1.5326
  202SOL    HW2  606   0.471   1.138   1.820 -0.7936  2.2155  0.1075
  203SOL     OW  607   0.591   0.224   1.533  0.0562 -0.2120 -0.1274
  203SOL    HW1  608   0.612   0.174   1.445  0.3717 -1.1481  0.2546
  203SOL    HW2  609   0.625   0.171   1.611  1.3170 -3.0559 -2.7519
  204SOL     OW  610   2.074   1.885   3.018 -0.5611 -0.2195  0.4205
  204SOL    HW1  611   2.074   1.786   2.988  2.7708 -1.8951 -0.0217
  204SOL    HW2  612   2.038   1.956   2.954  2.8560  0.4162  0.7124
  205SOL     OW  613   1.889   1.861   0.128 -0.3090  0.4740 -0.2386
  205SOL    HW1  614   1.971   1.888   0.071 -0.1652 -1.3952 -0.9309
  205SOL    HW2  615   1.809   1.904   0.094  2.1028 -1.1399 -1.4718
  206SOL     OW  616   2.506   2.800   0.392 -0.3414  0.1604 -0.0218
  206SOL    HW1  617   2.559   2.715   0.422  1.6180 -0.3386  0.4819
  206SOL    HW2  618   2.555   2.856   0.322  1.3908 -1.3122  0.2472
  207SOL     OW  619   0.540   1.737   2.856  0.6261  0.0998 -0.7302
  207SOL    HW1  620   0.632   1.691   2.862 -1.0227 -1.5937  0.0995
  207SOL    HW2  621   0.476   1.701   2.928 -1.1101  0.6669  1.2654
  208SOL     OW  622   1.050   1.436   1.358 -0.3579  0.5345  0.3794
  208SOL    HW1  623   0.961   1.482   1.323  0.8423  2.0251  0.4415
  208SOL    HW2  624   1.085   1.485   1.442 -1.0266 -0.2838 -0.2176
  209SOL     OW  625   0.151   0.908   3.089  0.0736  0.7266 -0.1165
  209SOL    HW1  626   0.217   0.895   3.010 -2.0496  0.8567  2.0125
  209SOL    HW2  627   0.193   0.888   3.184 -1.0210  0.2325  1.2026
  210SOL     OW  628   1.718   0.446   1.159 -0.4631  0.7782 -0.1969
  210SOL    HW1  629   1.676   0.538   1.137  0.7454 -0.0698 -0.0757
  210SOL    HW2  630   1.824   0.440   1.132  3.3027  0.0310  0.6782
  211SOL     OW  631   2.108   1.055   1.656 -0.0323  0.3489  0.4138
  211SOL    HW1  632   2.133   0.989   1.736 -0.5369 -2.2628  2.0779
  211SOL    HW2  633   2.185   1.100   1.610 -0.1537  1.2664 -0.5525
  212SOL     OW  634   0.039   1.010   1.442 -0.2905 -0.2097 -0.6214
  212SOL    HW1  635   0.093   1.089   1.483 -0.9608 -0.1481  0.9049
  212SOL    HW2  636   0.041   0.928   1.511  0.6035 -0.7718  0.6003
  213SOL     OW  637   2.745   0.285   0.284 -0.7318  0.1618 -0.5337
  213SOL    HW1  638   2.839   0.230   0.279  1.6204 -0.9871  0.5250
  213SOL    HW2  639   2.717   0.321   0.193  0.2579  0.9951  0.5904
  214SOL     OW  640   2.153   0.300   2.254  0.8976  0.3726  0.0249
  214SOL    HW1  641   2.205   0.337   2.334 -2.3088  1.1310 -0.4755
  214SOL    HW2  642   2.112   0.206   2.272  0.4513 -0.6630  0.9942
  215SOL     OW  643   1.699   2.291   2.047 -0.1833  0.4369  0.3523
  215SOL    HW1  644   1.806   2.315   2.040  1.4171  2.7474 -1.0714
  215SOL    HW2  645   1.652   2.370   2.100 -1.0321 -1.1360  3.5278
  216SOL     OW  646   2.250   0.539   0.653  0.0781  0.0683  0.3137
  216SOL    HW1  647   2.194   0.470   0.599 -2.9055 -1.8476 -2.3630
  216SOL    HW2  648   2.266   0.631   0.601 -0.6295 -0.4382 -1.0368
  217SOL     OW  649   0.787   2.784   2.438 -0.6272 -0.3746 -0.1557
  217SOL    HW1  650   0.766   2.685   2.465 -0.4665 -2.2335  1.6302
  217SOL    HW2  651   0.797   2.791   2.333  0.3579 -0.3295 -2.7462
  218SOL     OW  652   1.934   1.438   3.097 -0.0513  0.5282  0.4419
  218SOL    HW1  653   1.834   1.462   3.071  0.5092 -1.3246  0.9464
  218SOL    HW2  654   1.930   1.336   3.125  0.3655  1.7592 -1.5683
  219SOL     OW  655   2.374   1.299   2.585  0.2245  0.2828 -0.1210
  219SOL    HW1  656   2.439   1.256   2.511 -1.6740 -0.4234 -2.2360
  219SOL    HW2  657   2.360   1.237   2.663  0.2044  2.8758 -1.2682
  220SOL     OW  658   1.442   1.031   1.250 -0.7025  0.9058 -0.2412
  220SOL    HW1  659   1.536   0.998   1.289 -1.5886  0.6524  1.6506
  220SOL    HW2  660   1.424   1.135   1.262  2.9218  0.7709 -4.6413
  221SOL     OW  661   1.298   1.105   2.156  0.1555  0.1790 -0.2329
  221SOL    HW1  662   1.258   1.192   2.118  1.4784 -0.3827  0.3045
  221SOL    HW2  663   1.385   1.074   2.113 -1.3188 -0.5880  1.4452
  222SOL     OW  664   1.321   0.154   1.134 -0.4530 -0.2119  0.2646
  222SOL    HW1  665   1.412   0.135   1.086  1.1064 -0.9764 -1.2584
  222SOL    HW2  666   1.323   0.231   1.201 -2.6212 -1.7373  1.6170
  223SOL     OW  667   2.872   0.798   1.981  0.1295  0.7897 -0.5340
  223SOL    HW1  668   2.888   0.795   2.082  0.5045 -2.1554 -0.6342
  223SOL    HW2  669   2.900   0.887   1.937  1.2956  1.2245  0.2108
  224SOL     OW  670   1.565   1.035   2.785  0.0205 -0.0956 -0.3296
  224SOL    HW1  671   1.587   0.949   2.725  2.2838 -1.2781 -0.5918
  224SOL    HW2  672   1.529   1.114   2.732  0.1325 -4.7417  2.3624
  225SOL     OW  673   2.962   2.810   2.935 -0.3718 -0.6057 -0.3095
  225SOL    HW1  674   2.917   2.736   2.884  2.3026 -1.2656  0.7994
  225SOL    HW2  675   3.000   2.882   2.868  2.3565 -2.9199  0.6234
  226SOL     OW  676   2.454   1.692   2.844 -0.2375  0.6500 -0.1410
  226SOL    HW1  677   2.488   1.645   2.753 -0.1026  2.4714 -2.8830
  226SOL    HW2  678   2.436   1.622   2.920  1.4505  1.3560  1.4695
  227SOL     OW  679   0.769   0.138   2.969 -0.2022  0.1273  0.5115
  227SOL    HW1  680   0.827   0.078   3.031  0.9368  0.9133  2.1631
  227SOL    HW2  681   0.798   0.126   2.868 -1.0915 -0.1108  1.7678
  228SOL     OW  682   2.363   0.546   2.785  0.2801  0.3845  0.0269
  228SOL    HW1  683   2.321   0.604   2.713  0.3014 -0.5909  0.2863
  228SOL    HW2  684   2.429   0.476   2.744 -1.5795 -1.0708  0.5423
  229SOL     OW  685   0.599   0.503   1.877 -0.1450 -0.1085  0.4129
  229SOL    HW1  686   0.617   0.482   1.774 -0.3505  0.6330 -1.6278
  229SOL    HW2  687   0.695   0.506   1.931 -0.6714  1.8953  2.5032
  230SOL     OW  688   1.926   1.220   2.142  0.0304  0.2601  0.4997
  230SOL    HW1  689   1.995   1.257   2.077  2.1295 -2.3277  0.4951
  230SOL    HW2  690   1.832   1.267   2.127 -0.9433 -4.0224 -2.0009
  231SOL     OW  691   0.633   1.082   2.943  0.1065 -0.5664  0.0023
  231SOL    HW1  692   0.733   1.104   2.927 -0.1652 -4.7095 -0.8640
  231SOL    HW2  693   0.607   1.093   3.039 -1.1509  0.4079 -4.1246
  232SOL     OW  694   2.536   0.027   2.734  0.2424  0.3116  0.4177
  232SOL    HW1  695   2.540  -0.071   2.761  0.1477  0.1457 -2.0617
  232SOL    HW2  696   2.520   0.040   2.632  0.5442  0.4266 -0.7745
  233SOL     OW  697   1.732   1.290   1.052 -0.1695  0.0943 -0.4900
  233SOL    HW1  698   1.753   1.337   0.962  1.7025 -1.0314 -1.5197
  233SOL    HW2  699   1.808   1.217   1.067  2.0772 -0.7435  1.0706
  234SOL     OW  700   1.621   2.593   1.913 -0.0554  0.4986 -0.4019
  234SOL    HW1  701   1.651   2.650   1.995  2.6432  2.1601 -0.8558
  234SOL    HW2  702   1.565   2.510   1.942  0.8807 -0.3808  0.2481
  235SOL     OW  703   0.004   3.010   2.823  0.2674 -0.1869 -0.0577
  235SOL    HW1  704   0.084   3.059   2.772  1.6318  0.5665 -0.9621
  235SOL    HW2  705  -0.036   3.065   2.899 -0.5887 -1.3473 -1.1108
  236SOL     OW  706   2.850   0.709   0.043 -0.5585  0.0273 -0.1573
  236SOL    HW1  707   2.913   0.745   0.118 -1.9049 -2.7627  1.3763
  236SOL    HW2  708   2.901   0.638  -0.010 -1.0298 -0.6815  2.6092
  237SOL     OW  709   1.485   1.650   1.007  0.3688  0.4031  0.0532
  237SOL    HW1  710   1.587   1.626   1.025 -0.4002  0.6569  0.0955
  237SOL    HW2  711   1.438   1.696   1.088 -1.2451  0.9607  0.4329
  238SOL     OW  712   1.778   1.343   0.761 -0.2584 -0.5764  0.7217
  238SOL    HW1  713   1.851   1.360   0.687  1.7357 -1.9288 -1.0535
  238SOL    HW2  714   1.698   1.404   0.742 -1.2783  0.9957 -0.9553
  239SOL     OW  715   2.139   0.283   2.689 -0.1757 -0.0805  0.1987
  239SOL    HW1  716   2.231   0.279   2.745  1.3896  0.8408  1.0447
  239SOL    HW2  717   2.064   0.337   2.735 -1.4876  1.4451 -0.2148
  240SOL     OW  718   0.872   0.721   0.230 -0.1057 -0.2454 -0.4117
  240SOL    HW1  719   0.867   0.636   0.172  1.3317 -0.3755 -0.1942
  240SOL    HW2  720   0.852   0.683   0.330 -0.0129 -0.7332  0.5409
  241SOL     OW  721   0.560   0.027   0.350 -0.6192  0.3093  0.0015
  241SOL    HW1  722   0.585  -0.031   0.261 -1.7021 -1.3220 -2.8412
  241SOL    HW2  723   0.491  -0.013   0.411  1.7139  0.1728  0.3574
  242SOL     OW  724   0.697   2.415   1.142  0.3067 -0.9207 -0.2454
  242SOL    HW1  725   0.698   2.484   1.220  0.3698 -0.9590 -0.3226
  242SOL    HW2  726   0.764   2.447   1.073  2.0916 -1.0831 -0.2259
  243SOL     OW  727   1.075   0.623   2.493  0.1027  0.0474 -0.4180
  243SOL    HW1  728   1.016   0.693   2.448  0.4069 -1.0521  0.6133
  243SOL    HW2  729   1.024   0.533   2.505 -0.0686  0.3803 -1.7645
  244SOL     OW  730   2.823   2.003   2.364 -0.5070 -0.0789  0.8917
  244SOL    HW1  731   2.860   1.990   2.271  1.0739  0.5771  0.4444
  244SOL    HW2  732   2.732   1.957   2.372  0.1303  2.4397 -1.2304
  245SOL     OW  733   2.478   0.708   2.175 -0.3405 -0.0968 -0.5638
  245SOL    HW1  734   2.451   0.775   2.250 -1.2877  0.8950 -0.8522
  245SOL    HW2  735   2.534   0.628   2.212  2.1523 -0.2609  0.6582
  246SOL     OW  736   0.256   2.858   1.761 -1.3123  0.2684 -0.4418
  246SOL    HW1  737   0.168   2.846   1.705 -0.3265 -1.0807 -1.0359
  246SOL    HW2  738   0.306   2.940   1.726 -0.6178 -0.0647  2.8548
  247SOL     OW  739   2.202   0.521   3.003  0.0443  0.2942  0.5395
  247SOL    HW1  740   2.277   0.530   2.929 -2.1070  2.1168  0.1130
  247SOL    HW2  741   2.121   0.582   2.983 -1.9280  1.1496  0.5115
  248SOL     OW  742   2.186   1.875   1.613 -0.0805 -0.0165  0.0792
  248SOL    HW1  743   2.241   1.791   1.642 -0.7547 -0.1919  1.8724
  248SOL    HW2  744   2.082   1.855   1.621 -0.0904  0.2448  4.3079
  249SOL     OW  745   2.007   1.939   1.934  0.1474 -0.5077  0.3421
  249SOL    HW1  746   1.984   1.909   1.838  2.0746  0.8768  1.7589
  249SOL    HW2  747   2.079   2.014   1.932 -1.5158  1.3171 -0.9058
  250SOL     OW  748   1.009   0.650   1.883 -0.2297  0.3681 -0.5135
  250SOL    HW1  749   1.057   0.616   1.969 -1.6742 -3.1228  2.0898
  250SOL    HW2  750   1.052   0.608   1.800  2.8757  0.0284  3.7590
  251SOL     OW  751   3.044   1.555   2.593  0.0772  0.1452 -0.3043
  251SOL    HW1  752   3.042   1.659   2.572 -1.2936 -0.3889  1.3024
  251SOL    HW2  753   2.948   1.511   2.585  0.4614 -1.6975 -2.0998
  252SOL     OW  754   1.547   0.877   1.603  0.1288 -0.7944 -0.4492
  252SOL    HW1  755   1.620   0.941   1.565  0.6928 -0.8701  1.2348
  252SOL    HW2  756   1.484   0.930   1.664 -1.5046  0.3164 -2.3143
  253SOL     OW  757   1.005   1.526   0.377  0.4553  0.0656  0.3356
  253SOL    HW1  758   1.071   1.496   0.312 -2.0361  1.2871  2.1811
  253SOL    HW2  759   0.906   1.496   0.361 -3.8979 -0.2759 -0.8779
  254SOL     OW  760   1.995   2.135   1.611 -0.3075  0.5056  0.1572
  254SOL    HW1  761   1.985   2.068   1.529  0.8590 -0.5875 -1.3520
  254SOL    HW2  762   1.915   2.133   1.674 -0.3610  0.0786 -2.4905
  255SOL     OW  763   0.113   1.149   2.939 -0.0603 -0.7011 -0.4824
  255SOL    HW1  764   0.175   1.232   2.943 -3.0852 -0.6681 -0.2049
  255SOL    HW2  765   0.159   1.066   2.984  1.9027 -3.6782 -1.2916
  256SOL     OW  766   2.726   1.311   1.837  0.8918  0.2789 -0.1566
  256SOL    HW1  767   2.664   1.345   1.760 -1.7756  1.9630 -0.5761
  256SOL    HW2  768   2.678   1.241   1.901 -1.3589  1.3249  1.0970
  257SOL     OW  769   0.848   0.241   1.865  0.0285  0.3491 -0.0384
  257SOL    HW1  770   0.901   0.293   1.790  0.5266  0.3543  0.2595
  257SOL    HW2  771   0.863   0.139   1.858  2.4515  0.7473 -1.0996
  258SOL     OW  772   2.938   1.284   0.402 -0.0245 -0.1572  0.2097
  258SOL    HW1  773   2.863   1.358   0.383 -1.9805  2.1634 -1.2140
  258SOL    HW2  774   2.978   1.288   0.496 -0.1538  0.9134  0.8502
  259SOL     OW  775   0.516   2.869   3.000  0.2657 -0.0773  0.2567
  259SOL    HW1  776   0.474   2.830   3.086 -1.0838  0.5748 -1.2617
  259SOL    HW2  777   0.490   2.801   2.926  2.9460 -0.0613  0.0855
  260SOL     OW  778   2.653   0.745   2.685 -0.4480  0.5576 -0.5946
  260SOL    HW1  779   2.566   0.800   2.706 -1.1236  2.1522  1.3363
  260SOL    HW2  780   2.647   0.652   2.736 -3.1239 -1.8117 -1.0387
  261SOL     OW  781   2.714   1.297   1.315 -0.0546  0.0423  0.0049
  261SOL    HW1  782   2.666   1.208   1.279 -2.0813  0.3109 -1.7831
  261SOL    HW2  783   2.818   1.282   1.330  0.7790 -0.6480 -2.5236
  262SOL     OW  784   1.499   2.951   2.043  0.1113 -0.4486  0.0356
  262SOL    HW1  785   1.509   3.024   1.966  1.7678  2.6045 -0.2695
  262SOL    HW2  786   1.457   2.863   2.011 -0.2049  0.4404 -0.1051
  263SOL     OW  787   0.890   0.746   2.344  0.2468  0.0581  0.1423
  263SOL    HW1  788   0.864   0.671   2.284  0.6088  1.1118  0.7192
  263SOL    HW2  789   0.892   0.832   2.289  1.3597 -0.0113 -0.4883
  264SOL     OW  790   2.287   0.761   0.499 -0.5438  0.0651  0.4218
  264SOL    HW1  791   2.197   0.770   0.447 -0.2618 -0.1840  0.2933
  264SOL    HW2  792   2.352   0.846   0.493  0.6253  4.2688  0.1214
  265SOL     OW  793   0.908   2.318   2.697 -0.1746  0.3896 -0.0807
  265SOL    HW1  794   0.945   2.404   2.741 -2.2973 -0.4710 -2.5701
  265SOL    HW2  795   0.850   2.264   2.766 -2.2099 -1.8507  0.3380
  266SOL     OW  796   1.284   1.742   0.025  0.1806  0.2107  0.0279
  266SOL    HW1  797   1.244   1.791   0.106  1.0962 -1.0351 -1.5635
  266SOL    HW2  798   1.385   1.741   0.033 -0.7380  0.4093  1.5097
  267SOL     OW  799   1.100   0.017   2.310 -0.1743  0.0757  0.0387
  267SOL    HW1  800   1.110  -0.065   2.247  2.2011  0.0222  0.9304
  267SOL    HW2  801   1.176   0.084   2.292 -0.8205  1.8024 -2.9536
  268SOL     OW  802   0.624   1.147   1.087 -0.8460 -0.7456  0.2604
  268SOL    HW1  803   0.647   1.195   1.175  0.6233  0.1501 -1.1137
  268SOL    HW2  804   0.659   1.196   1.001 -0.4886  4.9652 -1.1282
  269SOL     OW  805   2.441   2.578   1.566  0.3889  1.0702 -0.6103
  269SOL    HW1  806   2.512   2.498   1.566  3.1160  2.3223 -1.3964
  269SOL    HW2  807   2.390   2.578   1.659 -0.3375  0.3284 -0.3838
  270SOL     OW  808   0.312   2.765   2.040  0.5286  0.2034 -0.6058
  270SOL    HW1  809   0.292   2.764   1.938 -0.3672 -0.1704 -0.1632
  270SOL    HW2  810   0.237   2.715   2.094 -0.0666 -0.6180 -0.4254
  271SOL     OW  811   0.406   1.369   1.142 -0.5745 -0.0389 -0.4409
  271SOL    HW1  812   0.372   1.383   1.043 -4.6509 -0.9959 -2.3013
  271SOL    HW2  813   0.328   1.399   1.200  1.0553  2.3628 -0.8095
  272SOL     OW  814   1.979   2.819   1.885  0.1187  0.1079  0.2374
  272SOL    HW1  815   1.898   2.815   1.824  0.8533  0.9254  1.6043
  272SOL    HW2  816   2.048   2.892   1.860  0.6783  2.7063 -1.0553
  273SOL     OW  817   1.398   1.430   2.890 -0.1743  0.4093  0.3257
  273SOL    HW1  818   1.484   1.440   2.947 -0.0249 -1.7098  1.0523
  273SOL    HW2  819   1.317   1.455   2.949 -0.3372 -0.1086  3.4052
  274SOL     OW  820   1.122   0.487   2.083  0.3892  0.2511 -0.3122
  274SOL    HW1  821   1.181   0.419   2.021  2.4121 -0.2029 -0.6090
  274SOL    HW2  822   1.177   0.520   2.163 -0.4651  0.1708 -2.4881
  275SOL     OW  823   0.646   2.087   1.915 -0.3129 -0.6526  0.3994
  275SOL    HW1  824   0.625   2.175   1.964  0.2472 -0.6951  0.8367
  275SOL    HW2  825   0.560   2.041   1.895  0.5844  0.9414 -0.7208
  276SOL     OW  826   2.161   0.923   2.765 -0.4492  0.7001  0.2025
  276SOL    HW1  827   2.075   0.967   2.719 -0.7490  0.1759 -1.7055
  276SOL    HW2  828   2.141   0.829   2.799  1.6778  1.4950  3.7514
  277SOL     OW  829   3.014   0.822   0.214 -0.7143 -0.8059 -0.2101
  277SOL    HW1  830   3.092   0.870   0.154  2.7694  2.3261  0.6931
  277SOL    HW2  831   3.036   0.736   0.279 -0.0424 -2.1060  2.1169
  278SOL     OW  832   0.220   0.291   2.928 -0.2521  0.0988  0.1637
  278SOL    HW1  833   0.317   0.273   2.945 -3.6922 -1.9506  0.9409
  278SOL    HW2  834   0.202   0.386   2.970  2.6174  2.8802 -0.3826
  279SOL     OW  835   0.132   0.028   0.879  0.3669 -0.4057 -0.3785
  279SOL    HW1  836   0.164   0.032   0.980  2.1618  1.6316  0.2911
  279SOL    HW2  837   0.211   0.038   0.811 -0.3876 -1.3344  1.1556
  280SOL     OW  838   1.662   2.938   2.492 -0.0543  0.0638 -0.0667
  280SOL    HW1  839   1.744   2.971   2.544  1.4673 -0.6843  1.2198
  280SOL    HW2  840   1.573   2.985   2.504  2.3402 -0.0207  2.4696
  281SOL     OW  841   0.652   1.002   2.333 -0.0680 -0.3391 -0.2187
  281SOL    HW1  842   0.655   0.993   2.231 -0.8628 -0.0953 -1.0348
  281SOL    HW2  843   0.603   0.921   2.376 -0.7559 -0.5333  0.5023
  282SOL     OW  844   1.645   2.493   0.579 -0.1615  0.1365 -0.0738
  282SOL    HW1  845   1.629   2.429   0.499  0.3947 -0.9164 -0.4120
  282SOL    HW2  846   1.641   2.595   0.562  1.6851 -0.3828 -0.9478
  283SOL     OW  847   1.087   0.904   0.697 -0.2778  0.5611 -0.3850
  283SOL    HW1  848   1.132   0.860   0.780  1.8729  0.1939 -1.5218
  283SOL    HW2  849   1.043   0.996   0.719 -0.6773  4.2558  2.3405
  284SOL     OW  850   2.219   2.837   2.419  0.4561  0.1627 -0.7454
  284SOL    HW1  851   2.215   2.887   2.510 -0.5985 -1.0427  0.2840
  284SOL    HW2  852   2.252   2.888   2.343  0.2321  2.0000  2.5516
  285SOL     OW  853   1.378   3.060   2.531  0.3320 -0.2279 -0.0714
  285SOL    HW1  854   1.385   3.074   2.429  0.2597  0.0547  1.1235
  285SOL    HW2  855   1.301   3.118   2.579 -1.8229  1.3234  3.4860
  286SOL     OW  856   0.416   0.476   0.636 -0.2506  0.2393 -0.2085
  286SOL    HW1  857   0.388   0.424   0.721  3.1267  0.6072 -3.9948
  286SOL    HW2  858   0.418   0.419   0.551 -0.0765  1.4965  2.3573
  287SOL     OW  859   0.060   1.289   2.533 -0.6935 -0.2157  0.3886
  287SOL    HW1  860   0.033   1.215   2.596 -0.9294  3.1221 -1.2817
  287SOL    HW2  861   0.014   1.378   2.551  2.0994  0.8626 -0.5958
  288SOL     OW  862   1.576   2.568   1.496  0.0458 -0.0832  0.1142
  288SOL    HW1  863   1.649   2.576   1.566 -0.6086  0.6686 -0.3897
  288SOL    HW2  864   1.612   2.576   1.397 -2.1068 -0.8825  3.2300
  289SOL     OW  865   0.627   2.737   0.823  0.0531 -0.5777 -0.2918
  289SOL    HW1  866   0.644   2.824   0.766  1.6275  0.3171 -1.1519
  289SOL    HW2  867   0.660   2.756   0.917 -1.5479  0.8020 -1.4322
  290SOL     OW  868   2.954   1.258   1.680 -0.4773 -0.4940  0.2662
  290SOL    HW1  869   2.875   1.287   1.744  1.0973  3.0838  0.1903
  290SOL    HW2  870   3.022   1.195   1.728 -0.5808 -1.7637  4.5034
  291SOL     OW  871   1.993   0.028   0.095  0.0914 -0.0235  0.0035
  291SOL    HW1  872   2.015   0.013   0.196 -3.2326  1.0632 -0.4263
  291SOL    HW2  873   2.055   0.098   0.048  0.6374 -0.7420 -1.5421
  292SOL     OW  874   2.980   1.178   3.063  0.2371 -0.3073 -0.1068
  292SOL    HW1  875   2.905   1.192   2.993  1.2608 -0.8966  0.2146
  292SOL    HW2  876   3.077   1.176   3.019  1.7924  1.4084  1.0775
  293SOL     OW  877   0.543   2.068   0.157 -0.5640 -0.3003  0.2224
  293SOL    HW1  878   0.511   2.117   0.242  1.6591  0.1470 -0.3210
  293SOL    HW2  879   0.643   2.042   0.173 -2.3551 -1.0106 -0.3484
  294SOL     OW  880   1.633   2.110   1.858  0.6981 -0.2022 -0.1400
  294SOL    HW1  881   1.644   2.170   1.940 -0.9768 -1.7043 -1.3152
  294SOL    HW2  882   1.671   2.166   1.775  0.4895  1.1984  1.0284
  295SOL     OW  883   0.966   1.193   0.399 -0.2250  0.3247  0.3263
  295SOL    HW1  884   1.041   1.201   0.472  2.3561 -1.0737  4.0323
  295SOL    HW2  885   0.880   1.142   0.431  0.2517 -1.8198  2.6687
  296SOL     OW  886   1.287   2.096   2.537 -0.1931 -0.4015  0.2920
  296SOL    HW1  887   1.234   2.165   2.468 -0.5057 -0.9611 -4.8833
  296SOL    HW2  888   1.312   2.003   2.498 -0.4502  0.1888 -0.3420
  297SOL     OW  889   1.528   0.706   1.370  0.3051 -0.0740 -0.0955
  297SOL    HW1  890   1.584   0.641   1.426  0.7048 -0.5877 -3.1600
  297SOL    HW2  891   1.528   0.805   1.407  0.4161  0.1345  0.9904
  298SOL     OW  892   0.555   1.314   2.821 -0.0425 -0.5483 -0.0897
  298SOL    HW1  893   0.564   1.220   2.865  1.2800  0.8674 -0.8811
  298SOL    HW2  894   0.589   1.312   2.721  1.0353 -0.3141 -1.4360
  299SOL     OW  895   0.359   0.380   1.490  0.1571 -0.1667 -0.5109
  299SOL    HW1  896   0.376   0.449   1.415  1.8861  1.3580  0.6693
  299SOL    HW2  897   0.448   0.338   1.525  0.5547  0.4322  0.1666
  300SOL     OW  898   1.261   1.805   2.843 -0.7814 -0.1280  0.4136
  300SOL    HW1  899   1.277   1.729   2.770 -1.1573 -0.9747  0.0657
  300SOL    HW2  900   1.265   1.774   2.940  1.0119  2.2658  1.6415
  301SOL     OW  901   0.432   0.292   0.417  0.2617  0.4077 -0.3585
  301SOL    HW1  902   0.333   0.259   0.402 -2.0078 -2.0951  2.1388
  301SOL    HW2  903   0.500   0.226   0.371  1.9219  1.7936 -1.2599
  302SOL     OW  904   1.177   2.294   2.358 -0.3685 -0.2379  0.1205
  302SOL    HW1  905   1.130   2.366   2.407  1.8424 -0.2595 -3.6650
  302SOL    HW2  906   1.115   2.238   2.292 -1.7150 -1.2938 -2.4461
  303SOL     OW  907   0.944   2.405   0.761  0.1407 -0.0044  0.5030
  303SOL    HW1  908   0.984   2.473   0.692 -1.2693 -0.0242 -0.6813
  303SOL    HW2  909   0.939   2.442   0.858  2.2323 -0.7852  1.6833
  304SOL     OW  910   0.070   2.011   0.684 -0.0420  0.5668  0.0224
  304SOL    HW1  911   0.125   1.944   0.614 -1.7031 -2.5431 -1.1818
  304SOL    HW2  912   0.011   2.083   0.640 -0.9171  1.8091  0.6455
  305SOL     OW  913   1.622   0.879   0.689  0.3961 -0.1333  0.0625
  305SOL    HW1  914   1.540   0.897   0.632 -1.4370 -1.1027  1.4886
  305SOL    HW2  915   1.696   0.827   0.642  1.1807 -0.2637  1.6436
  306SOL     OW  916   0.431   1.910   1.936  0.0283 -0.0892 -0.4257
  306SOL    HW1  917   0.495   1.851   1.877  0.7270 -1.4146 -1.1107
  306SOL    HW2  918   0.442   1.881   2.033  0.9009 -0.9296 -1.4449
  307SOL     OW  919   3.094   0.858   2.531 -0.0338 -0.2354 -0.4102
  307SOL    HW1  920   3.099   0.950   2.583 -3.5003 -1.6672  1.2956
  307SOL    HW2  921   2.998   0.826   2.512  1.4925  0.6471  0.2999
  308SOL     OW  922   1.576   2.672   2.821  0.3022 -0.3805  0.3849
  308SOL    HW1  923   1.601   2.671   2.716 -2.4664  2.4145 -0.8272
  308SOL    HW2  924   1.531   2.584   2.847 -0.4051 -0.2496 -1.6596
  309SOL     OW  925   1.240   0.018   1.800  0.1271  0.3497 -0.1896
  309SOL    HW1  926   1.342   0.007   1.829  1.4814  0.5649  3.9221
  309SOL    HW2  927   1.234   0.040   1.700 -2.1981  0.1561 -3.3440
  310SOL     OW  928   1.393   2.668   0.702 -1.5877  0.1575  0.5612
  310SOL    HW1  929   1.325   2.748   0.719 -3.3570 -2.5526 -1.2240
  310SOL    HW2  930   1.490   2.700   0.674 -1.3127  0.0889  1.6325
  311SOL     OW  931   1.215   0.978   1.456  0.0001 -0.3984 -0.2583
  311SOL    HW1  932   1.296   0.974   1.384  0.3161  0.2107 -0.4737
  311SOL    HW2  933   1.238   1.058   1.519  1.5550  2.0846 -2.2955
  312SOL     OW  934   1.615   0.651   1.021 -0.9749  0.5311  0.6724
  312SOL    HW1  935   1.589   0.751   1.043 -1.8532  2.2281 -0.1609
  312SOL    HW2  936   1.542   0.602   0.962 -2.0471 -0.4701 -0.9978
  313SOL     OW  937   1.592   1.449   0.489  0.5626  0.2169  0.0614
  313SOL    HW1  938   1.495   1.408   0.489 -2.5136  0.6429  3.7067
  313SOL    HW2  939   1.663   1.388   0.445  0.5123 -0.4819  1.3592
  314SOL     OW  940   2.921   0.092   3.031  0.3354  0.3572 -0.9584
  314SOL    HW1  941   2.951   0.124   3.127 -0.1535  1.6676 -0.6941
  314SOL    HW2  942   2.854   0.012   3.031  0.8100  0.9872 -0.7167
  315SOL     OW  943   1.268   0.240   2.776 -0.6663  0.1527  0.2831
  315SOL    HW1  944   1.218   0.181   2.710  0.5280  1.6591 -0.8689
  315SOL    HW2  945   1.289   0.189   2.866  0.6351 -1.3434 -0.2682
  316SOL     OW  946   1.704   2.077   0.914 -0.5825 -0.7487  0.4670
  316SOL    HW1  947   1.654   2.087   1.004 -1.3101  2.9051 -2.0783
  316SOL    HW2  948   1.736   2.169   0.866  1.3412  2.2733 -3.0940
  317SOL     OW  949   1.162   0.714   2.818  0.0717  0.0182 -0.0893
  317SOL    HW1  950   1.109   0.739   2.904  0.6650  2.3643  0.8373
  317SOL    HW2  951   1.120   0.638   2.764 -0.5922  2.3372 -1.2276
  318SOL     OW  952   1.402   3.083   2.268 -0.1969 -0.5025 -0.0929
  318SOL    HW1  953   1.385   3.182   2.239  1.4077  1.9109 -0.6582
  318SOL    HW2  954   1.438   3.033   2.187 -1.6437 -0.4700  1.4793
  319SOL     OW  955   0.640   2.379   2.939 -0.0906 -0.1720 -0.0141
  319SOL    HW1  956   0.550   2.353   2.980 -2.5757  1.2180  0.6859
  319SOL    HW2  957   0.714   2.312   2.959  0.7751 -1.0488 -2.5723
  320SOL     OW  958   1.618   2.270   0.399 -0.1889 -0.1278 -0.6382
  320SOL    HW1  959   1.712   2.228   0.414 -1.9931  1.5130 -0.5320
  320SOL    HW2  960   1.539   2.220   0.448 -0.6490  0.4950 -0.4837
  321SOL     OW  961   1.610   2.763   0.543  0.0689 -0.0462 -0.0795
  321SOL    HW1  962   1.525   2.807   0.498  0.4489  2.6001 -1.9327
  321SOL    HW2  963   1.683   2.838   0.564  0.1834  0.9615 -2.0661
  322SOL     OW  964   2.678   1.079   2.240  0.1091 -0.3179 -0.3429
  322SOL    HW1  965   2.758   1.098   2.303  0.5689 -2.1417  1.2200
  322SOL    HW2  966   2.605   1.016   2.290 -4.3146  0.7580 -3.7762
  323SOL     OW  967   1.014   2.709   0.862  0.5148 -0.4155 -0.0521
  323SOL    HW1  968   1.030   2.668   0.763  0.5667 -1.6019 -2.8339
  323SOL    HW2  969   1.005   2.813   0.868 -2.1996 -1.1018 -1.1809
  324SOL     OW  970   0.102   2.500   2.431 -0.0877  0.1033  0.5169
  324SOL    HW1  971   0.074   2.402   2.449  1.2876  1.1333 -1.7027
  324SOL    HW2  972   0.054   2.569   2.498  1.6601  1.7359  0.9225
  325SOL     OW  973   1.180   3.064   0.480 -0.3301 -0.0835  0.2231
  325SOL    HW1  974   1.186   3.116   0.393 -1.4492  1.7019  0.5316
  325SOL    HW2  975   1.178   3.128   0.557 -2.0304 -0.2286 -2.3698
  326SOL     OW  976   2.306   0.786   0.053  0.3967 -0.1903 -0.4870
  326SOL    HW1  977   2.227   0.751  -0.004  1.0072 -1.4685  1.2489
  326SOL    HW2  978   2.356   0.710   0.101 -0.9123  1.2285  0.6294
  327SOL     OW  979   2.711   0.423   0.531 -0.0600 -0.5517 -0.0831
  327SOL    HW1  980   2.722   0.371   0.441 -0.3630  1.1395 -0.7091
  327SOL    HW2  981   2.627   0.388   0.584 -1.1576 -1.4946 -0.3706
  328SOL     OW  982   2.524   0.628   0.352 -0.1301  0.2983 -0.0765
  328SOL    HW1  983   2.437   0.664   0.394  2.8017  0.0242  0.0385
  328SOL    HW2  984   2.586   0.607   0.430 -4.1802 -0.9260 -0.4651
  329SOL     OW  985   2.973   2.939   2.134 -0.0308 -0.0665  0.7228
  329SOL    HW1  986   3.014   2.874   2.203 -1.9332  1.2002 -1.4536
  329SOL    HW2  987   3.000   3.039   2.136 -1.0490  0.1199 -1.8780
  330SOL     OW  988   0.522   0.222   1.832  0.6432 -0.3342 -0.1262
  330SOL    HW1  989   0.530   0.320   1.800 -0.3598  0.2906 -2.2949
  330SOL    HW2  990   0.583   0.198   1.910  0.8046  0.5525  0.1937
  331SOL     OW  991   2.903   1.918   1.093  0.6169  0.1010 -0.4462
  331SOL    HW1  992   2.961   1.993   1.056 -0.2029 -1.9933  2.1982
  331SOL    HW2  993   2.834   1.950   1.164  1.6465 -0.5381  3.3767
  332SOL     OW  994   0.438   1.040   0.045 -0.0747  0.4433  0.7097
  332SOL    HW1  995   0.363   1.015  -0.015  1.1148 -0.7038 -0.2473
  332SOL    HW2  996   0.395   1.098   0.120 -1.8094 -2.2850  0.5248
  333SOL     OW  997   2.849   1.039   0.281 -0.0235  0.6386 -0.8456
  333SOL    HW1  998   2.895   1.103   0.351 -0.8439  1.5414  1.3708
  333SOL    HW2  999   2.904   0.949   0.264 -1.8230 -1.3885 -0.7156
  334SOL     OW 1000   1.646   1.168   1.912  0.3595  0.3451  0.1920
  334SOL    HW1 1001   1.733   1.146   1.850 -2.6776 -2.4931  0.0765
  334SOL    HW2 1002   1.670   1.250   1.971  1.0093 -0.2366 -2.2510
  335SOL     OW 1003   1.984   2.785   2.607  0.3713 -0.4417 -0.3394
  335SOL    HW1 1004   2.036   2.769   2.698  0.3013 -2.9739  0.9534
  335SOL    HW2 1005   1.965   2.887   2.592  1.6049  1.6420 -2.6254
  336SOL     OW 1006   0.221   0.067   2.700  0.2546  0.1754  0.3496
  336SOL    HW1 1007   0.324   0.041   2.683  1.7455 -0.1969  1.2673
  336SOL    HW2 1008   0.221   0.139   2.773 -1.5712 -0.4273  0.6099
  337SOL     OW 1009   0.986   2.801   2.848 -0.5542 -0.2785  1.0116
  337SOL    HW1 1010   0.934   2.768   2.930  1.9903 -1.2322 -1.8154
  337SOL    HW2 1011   1.080   2.758   2.844 -1.8013  2.5929  0.1621
  338SOL     OW 1012   3.100   1.003   0.602 -0.2397  0.1998  0.0801
  338SOL    HW1 1013   3.017   0.977   0.660  1.0802 -1.4765  3.0852
  338SOL    HW2 1014   3.110   1.110   0.610  3.7669  1.0924 -0.3940
  339SOL     OW 1015   1.700   1.389   2.068 -0.8388 -0.1790  0.1547
  339SOL    HW1 1016   1.598   1.410   2.083 -1.1902  0.2230  0.8461
  339SOL    HW2 1017   1.753   1.477   2.050  0.8971  1.9251  0.2319
  340SOL     OW 1018   2.287   0.765   1.258  0.1093 -0.7558 -0.7619
  340SOL    HW1 1019   2.200   0.816   1.235  2.2711 -0.9046 -1.9551
  340SOL    HW2 1020   2.291   0.676   1.200  0.9505 -1.3266  0.1501
  341SOL     OW 1021   1.871   2.206   0.454  0.3791  0.1600 -0.6985
  341SOL    HW1 1022   1.887   2.202   0.356  1.6168 -3.0565  1.2931
  341SOL    HW2 1023   1.955   2.232   0.509 -0.6402  0.6808 -1.0877
  342SOL     OW 1024   2.220   2.178   2.820 -0.4745 -0.9935  0.0961
  342SOL    HW1 1025   2.296   2.104   2.845  2.8001 -2.1130  1.4319
  342SOL    HW2 1026   2.130   2.133   2.816  1.7012  0.8121 -0.4093
  343SOL     OW 1027   0.316   0.900   2.867  0.0040 -0.3118  0.3980
  343SOL    HW1 1028   0.311   0.940   2.770  0.9308 -0.0865  0.8587
  343SOL    HW2 1029   0.418   0.870   2.890  1.8857  1.8237 -0.4358
  344SOL     OW 1030   1.852   1.475   0.331 -0.4688  0.1048  0.6910
  344SOL    HW1 1031   1.829   1.394   0.274 -0.8664  2.1686 -0.2640
  344SOL    HW2 1032   1.777   1.546   0.324 -1.4223  0.0012 -0.2646
  345SOL     OW 1033   1.420   2.213   2.858 -0.3849 -0.3656  0.2772
  345SOL    HW1 1034   1.331   2.173   2.819 -0.3223  0.2770 -2.0128
  345SOL    HW2 1035   1.505   2.166   2.820 -1.2681  0.3076 -0.8897
  346SOL     OW 1036   2.439   0.899   1.454  0.2285  0.3779 -1.0314
  346SOL    HW1 1037   2.408   0.994   1.490  0.2072  0.4717  0.2411
  346SOL    HW2 1038   2.367   0.853   1.396 -0.7837  0.9367  0.7562
  347SOL     OW 1039   0.678   2.787   1.515 -0.2423  0.5728 -0.0301
  347SOL    HW1 1040   0.669   2.737   1.605  1.4371  2.1738 -1.4341
  347SOL    HW2 1041   0.606   2.858   1.504  1.1259  0.0278 -2.3821
  348SOL     OW 1042   0.080   0.687   2.800 -0.0871  0.0709  0.2265
  348SOL    HW1 1043  -0.022   0.712   2.786 -2.2938 -2.0281 -0.8404
  348SOL    HW2 1044   0.142   0.769   2.782  0.3392  0.7833 -0.8275
  349SOL     OW 1045   1.921   0.463   2.770 -0.0585  0.1014  0.6762
  349SOL    HW1 1046   1.877   0.524   2.702  0.4809 -1.6885 -1.0587
  349SOL    HW2 1047   1.878   0.467   2.866 -1.5108 -1.6570 -0.2184
  350SOL     OW 1048   1.655   0.365   0.367 -0.4378  0.2356  0.1504
  350SOL    HW1 1049   1.740   0.354   0.429  0.9441  2.7663  0.1508
  350SOL    HW2 1050   1.649   0.463   0.342  1.6031 -1.8125  2.1677
  351SOL     OW 1051   0.932   0.910   2.133  0.2363  0.5579  0.7204
  351SOL    HW1 1052   0.931   1.009   2.098 -0.3192  2.2990 -0.4988
  351SOL    HW2 1053   0.872   0.857   2.071  0.6172  2.2781  0.3566
  352SOL     OW 1054   1.978   1.390   0.567  0.3498  0.6060 -0.4165
  352SOL    HW1 1055   1.945   1.436   0.485  1.0561 -0.6412  4.4844
  352SOL    HW2 1056   2.070   1.424   0.599  0.8635 -0.7677  1.0442
  353SOL     OW 1057   2.135   2.820   1.186 -0.5880 -0.1322 -0.1224
  353SOL    HW1 1058   2.234   2.787   1.161  2.0982  1.5079 -3.4394
  353SOL    HW2 1059   2.066   2.773   1.125  0.4390  1.8314 -2.2373
  354SOL     OW 1060   0.290   1.361   2.926 -0.3620  0.2556  0.0084
  354SOL    HW1 1061   0.240   1.433   2.863  0.9785  2.2822 -0.8238
  354SOL    HW2 1062   0.382   1.327   2.887  0.6550 -2.4370 -0.9499
  355SOL     OW 1063   0.446   1.475   0.547  0.2544  0.1527  0.6803
  355SOL    HW1 1064   0.474   1.548   0.614 -2.2329 -0.6161  1.7865
  355SOL    HW2 1065   0.519   1.403   0.527 -2.4117 -0.3670  0.7598
  356SOL     OW 1066   0.832   0.413   2.072  0.5394  0.6775  0.0018
  356SOL    HW1 1067   0.932   0.441   2.065  2.3327 -0.8452  1.3975
  356SOL    HW2 1068   0.813   0.344   2.000  1.4542  0.2972 -0.3872
  357SOL     OW 1069   1.054   1.283   0.163 -0.1313 -0.4238 -0.3583
  357SOL    HW1 1070   0.979   1.275   0.092 -0.6856 -1.1555 -0.6831
  357SOL    HW2 1071   1.031   1.252   0.258 -0.9598  1.0129 -1.7710
  358SOL     OW 1072   1.619   1.661   0.319  0.0781  0.2890  0.6505
  358SOL    HW1 1073   1.579   1.574   0.362 -0.2137  1.7888 -0.2499
  358SOL    HW2 1074   1.561   1.741   0.353  1.0050 -1.2718  2.3745
  359SOL     OW 1075   1.566   2.706   0.133 -0.2869 -0.0397  0.2550
  359SOL    HW1 1076   1.580   2.634   0.058  1.5799 -2.1295 -0.3263
  359SOL    HW2 1077   1.483   2.695   0.184  1.8998  0.6049  0.4604
  360SOL     OW 1078   0.874   0.574   0.463  0.1472 -0.1728 -0.3659
  360SOL    HW1 1079   0.789   0.581   0.521 -2.4626 -0.3319 -0.0372
  360SOL    HW2 1080   0.904   0.480   0.438  1.2713  2.8351  1.9842
  361SOL     OW 1081   1.282   1.364   0.649 -0.4948 -0.1531 -0.1726
  361SOL    HW1 1082   1.317   1.386   0.747  0.3274  0.2573 -0.7608
  361SOL    HW2 1083   1.180   1.371   0.651  0.3643 -1.0624  0.4873
  362SOL     OW 1084   1.383   1.725   0.781  0.0817 -0.0579 -0.3788
  362SOL    HW1 1085   1.408   1.685   0.877 -0.6780  0.6101  1.5032
  362SOL    HW2 1086   1.440   1.812   0.759 -2.2450  3.2598  0.6470
  363SOL     OW 1087   1.125   1.317   2.038  0.0442  0.3348 -0.1426
  363SOL    HW1 1088   1.108   1.402   2.097  0.4912  0.7813 -0.2481
  363SOL    HW2 1089   1.133   1.340   1.936  1.9911  1.8894  1.5368
  364SOL     OW 1090   0.590   2.324   2.009 -0.0185 -0.0268 -0.1716
  364SOL    HW1 1091   0.489   2.334   1.998  0.2558 -2.7153  0.9440
  364SOL    HW2 1092   0.643   2.408   1.986  0.9583 -0.5197 -2.1887
  365SOL     OW 1093   1.152   1.814   1.448  0.2199  1.1825 -0.0786
  365SOL    HW1 1094   1.049   1.831   1.472 -1.2823  1.3092  2.3619
  365SOL    HW2 1095   1.172   1.712   1.439 -0.6159  1.1825 -0.9197
  366SOL     OW 1096   2.822   2.071   0.467 -0.3903  0.1782 -0.1960
  366SOL    HW1 1097   2.746   2.003   0.466  0.0070  2.4683 -0.1781
  366SOL    HW2 1098   2.911   2.022   0.452  0.6188 -1.8710 -0.4887
  367SOL     OW 1099   0.808   1.197   0.073 -0.5860  0.8161 -0.2387
  367SOL    HW1 1100   0.811   1.103   0.127  0.8392  0.8048 -1.6178
  367SOL    HW2 1101   0.834   1.192  -0.031 -1.5315  0.4576 -1.2583
  368SOL     OW 1102   1.514   0.495   0.623  0.0802  1.0347 -0.1866
  368SOL    HW1 1103   1.445   0.523   0.553  2.1534  1.3133 -0.1527
  368SOL    HW2 1104   1.607   0.487   0.578 -0.7098 -0.5514  0.8113
  369SOL     OW 1105   0.298   1.678   0.096  0.4123  0.3634 -0.1636
  369SOL    HW1 1106   0.308   1.767   0.149 -3.8093 -0.0148 -1.8590
  369SOL    HW2 1107   0.206   1.626   0.113 -1.9640 -0.3091  3.1673
  370SOL     OW 1108   0.466   2.136   0.982  0.3283  0.5189 -0.0173
  370SOL    HW1 1109   0.479   2.238   0.953  0.2658  0.5272  0.3168
  370SOL    HW2 1110   0.371   2.097   0.965  0.4781 -0.5624  0.4428
  371SOL     OW 1111   2.937   2.210   2.768 -0.7610  0.6175 -0.0577
  371SOL    HW1 1112   2.939   2.214   2.868 -0.9317 -1.2799 -3.1803
  371SOL    HW2 1113   3.029   2.239   2.727  1.9969  0.0337 -0.9994
  372SOL     OW 1114   0.877   1.887   1.019  0.4609 -0.2578 -0.2969
  372SOL    HW1 1115   0.849   1.986   0.998 -0.3130  0.1839 -0.4742
  372SOL    HW2 1116   0.942   1.844   0.954 -0.1318  0.7872  0.9653
  373SOL     OW 1117   1.944   1.946   0.936 -0.0721 -0.1066 -0.2042
  373SOL    HW1 1118   2.010   1.991   1.002  0.5584 -0.0893 -0.4150
  373SOL    HW2 1119   1.844   1.978   0.944  0.1371  2.1868  1.7327
  374SOL     OW 1120   1.847   0.429   0.571  0.3974 -0.9170  0.0053
  374SOL    HW1 1121   1.839   0.392   0.673 -0.0171 -0.7632  0.1158
  374SOL    HW2 1122   1.940   0.413   0.523  2.4678 -0.0487 -2.6455
  375SOL     OW 1123   2.475   2.288   1.104 -0.0780 -0.2545 -0.8040
  375SOL    HW1 1124   2.496   2.229   1.024 -0.1035 -0.8516 -0.8815
  375SOL    HW2 1125   2.510   2.245   1.193 -0.2692  1.7840  1.8791
  376SOL     OW 1126   3.069   0.645   1.463  0.1216 -0.1526 -0.1979
  376SOL    HW1 1127   3.127   0.720   1.502 -1.8042 -1.0268  0.7458
  376SOL    HW2 1128   2.964   0.673   1.461 -0.9530  0.6893 -2.6072
  377SOL     OW 1129   2.202   2.825   0.330  0.5987  0.4167  0.0571
  377SOL    HW1 1130   2.137   2.911   0.331  0.1018  0.5153  4.4207
  377SOL    HW2 1131   2.289   2.838   0.382  0.0927 -0.8475  1.9035
  378SOL     OW 1132   1.872   1.846   2.656  0.1290  0.4141 -0.2634
  378SOL    HW1 1133   1.926   1.761   2.690  0.1629 -3.6573 -0.7538
  378SOL    HW2 1134   1.790   1.828   2.596 -0.1090  0.7860  0.1222
  379SOL     OW 1135   0.876   0.128   2.703  0.1095  0.2236 -0.1251
  379SOL    HW1 1136   0.896   0.032   2.667 -0.7173 -1.1975  2.1623
  379SOL    HW2 1137   0.819   0.181   2.637  0.7869 -0.5651 -0.8008
  380SOL     OW 1138   1.571   1.165   0.546 -0.1417  0.3746 -0.1164
  380SOL    HW1 1139   1.521   1.081   0.519 -0.4640 -0.3070  0.4034
  380SOL    HW2 1140   1.532   1.221   0.626 -2.1606 -0.1020  0.7572
  381SOL     OW 1141   1.287   1.242   1.504 -0.2672 -0.3605  0.1026
  381SOL    HW1 1142   1.307   1.249   1.400  2.5242  0.2937  0.0596
  381SOL    HW2 1143   1.367   1.274   1.563  0.6017 -1.7198  0.2158
  382SOL     OW 1144   1.739   0.793   0.254  0.6346  0.1786 -0.1235
  382SOL    HW1 1145   1.788   0.775   0.167 -1.6365  0.4376 -1.2323
  382SOL    HW2 1146   1.810   0.790   0.333  1.8749  0.2913 -0.5360
  383SOL     OW 1147   2.680   1.007   1.547  0.2037  0.0154  0.4258
  383SOL    HW1 1148   2.597   0.978   1.494  0.7291 -1.2417  0.6993
  383SOL    HW2 1149   2.775   0.968   1.508  3.5643 -2.0544 -0.9889
  384SOL     OW 1150   1.017   2.299   0.143  0.1359  0.1420  0.5668
  384SOL    HW1 1151   0.939   2.371   0.155  0.1161 -2.5407 -0.7352
  384SOL    HW2 1152   1.005   2.215   0.196  0.8102 -2.2364 -1.6301
  385SOL     OW 1153   2.993   2.060   1.700  0.6567 -0.1850  0.4237
  385SOL    HW1 1154   3.066   2.132   1.678  1.4865 -0.5240  0.1399
  385SOL    HW2 1155   3.029   1.967   1.680  3.9385  5.6289 -0.4330
  386SOL     OW 1156   0.436   1.052   0.458 -0.0377  0.5256 -0.3175
  386SOL    HW1 1157   0.454   0.950   0.458  0.5606  2.0779 -0.3508
  386SOL    HW2 1158   0.389   1.080   0.376  2.6364  1.7822  1.6460
  387SOL     OW 1159   0.999   0.362   1.677 -0.3223  0.1253 -0.3596
  387SOL    HW1 1160   1.069   0.434   1.681  0.8401  0.4302  0.1098
  387SOL    HW2 1161   1.008   0.290   1.597  1.5233 -0.3631  0.7223
  388SOL     OW 1162   1.259   2.562   1.739 -0.3165 -0.0226 -0.3516
  388SOL    HW1 1163   1.271   2.540   1.638  1.2012  2.8628 -0.6932
  388SOL    HW2 1164   1.321   2.505   1.804 -1.9058  1.0419  1.8990
  389SOL     OW 1165   0.242   0.018   1.133  0.3249  0.3253 -0.2629
  389SOL    HW1 1166   0.234  -0.009   1.230 -1.4267  2.0840 -2.4575
  389SOL    HW2 1167   0.297  -0.052   1.081 -0.2273 -0.2150 -0.1424
  390SOL     OW 1168   1.083   0.842   1.169  0.2322  0.0680  0.2760
  390SOL    HW1 1169   1.181   0.814   1.168 -1.8713 -0.6966 -0.5310
  390SOL    HW2 1170   1.038   0.822   1.265  0.8315 -3.8722  1.6026
  391SOL     OW 1171   2.095   1.157   1.059  0.6696  0.4070 -0.3826
  391SOL    HW1 1172   2.059   1.067   1.098  1.2119  0.2278 -0.1072
  391SOL    HW2 1173   2.145   1.141   0.971  2.4960 -0.9721 -0.3208
  392SOL     OW 1174   0.911   2.703  -0.001  0.0542  0.0827  0.1618
  392SOL    HW1 1175   0.836   2.684   0.069  0.8299 -1.6556  0.0232
  392SOL    HW2 1176   0.975   2.785   0.020  0.9196 -0.2859 -0.5626
  393SOL     OW 1177   0.359   0.574   1.978 -0.2972  0.0405 -0.2703
  393SOL    HW1 1178   0.277   0.515   1.954  0.2858 -0.6622 -0.4475
  393SOL    HW2 1179   0.451   0.548   1.932  0.9685  1.4270 -0.8764
  394SOL     OW 1180   2.825   1.789   2.751  0.1884  0.0614 -0.1170
  394SOL    HW1 1181   2.882   1.810   2.671 -1.0501 -0.5793 -0.1024
  394SOL    HW2 1182   2.795   1.871   2.799 -1.2071  0.1692  2.2326
  395SOL     OW 1183   1.568   1.954   0.702 -0.0050  0.1643 -0.1206
  395SOL    HW1 1184   1.644   1.882   0.686  1.4791 -2.7766 -0.3543
  395SOL    HW2 1185   1.598   2.034   0.768  3.4136  1.2815  1.2357
  396SOL     OW 1186   2.746   1.979   1.303  0.3134  0.9540 -0.1074
  396SOL    HW1 1187   2.748   2.039   1.387  1.1210 -2.0450 -0.5247
  396SOL    HW2 1188   2.675   1.905   1.310  2.1478 -0.8569 -0.2166
  397SOL     OW 1189   0.975   2.161   0.660 -0.0366 -0.3872  0.2992
  397SOL    HW1 1190   0.881   2.115   0.670  1.0982  0.7861  1.7648
  397SOL    HW2 1191   0.978   2.262   0.696 -0.3809  2.3491 -0.0327
  398SOL     OW 1192   2.207   3.079   1.079 -0.1178  0.4659 -0.4230
  398SOL    HW1 1193   2.141   3.003   1.109 -1.7373 -1.3426  1.4119
  398SOL    HW2 1194   2.161   3.171   1.070 -0.6771 -3.1376 -3.1751
  399SOL     OW 1195   2.876   2.586   2.787 -0.3226  0.4266  0.1616
  399SOL    HW1 1196   2.812   2.559   2.711 -1.6978 -3.2677  0.6807
  399SOL    HW2 1197   2.864   2.543   2.878  0.5695  1.4243  1.5212
  400SOL     OW 1198   0.798   1.580   1.289  0.2918  0.1257  0.0387
  400SOL    HW1 1199   0.789   1.639   1.371  0.5238  1.1422 -1.8310
  400SOL    HW2 1200   0.765   1.623   1.199 -2.6269  0.2744 -0.2942
  401SOL     OW 1201   1.848   0.142   1.298  0.1473 -0.3577  0.3049
  401SOL    HW1 1202   1.901   0.194   1.376 -1.2770 -0.7051  2.7269
  401SOL    HW2 1203   1.754   0.106   1.324 -0.5683  0.4410 -0.8516
  402SOL     OW 1204   1.336   0.149   3.015 -0.3349  0.6475  0.0724
  402SOL    HW1 1205   1.437   0.144   3.034 -1.8737  2.3231  2.5526
  402SOL    HW2 1206   1.301   0.227   3.079  3.9712 -2.5730  2.4644
  403SOL     OW 1207   2.247   1.860   0.965  0.4424 -0.5736  0.5147
  403SOL    HW1 1208   2.328   1.854   1.027 -2.2067 -1.4908  1.9587
  403SOL    HW2 1209   2.192   1.950   0.978  1.0335  2.3740  0.2438
  404SOL     OW 1210   0.224   2.475   2.775 -0.2314 -0.0276 -0.0369
  404SOL    HW1 1211   0.301   2.447   2.712 -1.2453  0.8595 -3.6354
  404SOL    HW2 1212   0.211   2.580   2.775  0.0969  0.8603 -0.2408
  405SOL     OW 1213   0.190   2.527   0.561 -0.1129  0.1506 -0.1408
  405SOL    HW1 1214   0.195   2.421   0.569  0.3116  0.6308 -1.3269
  405SOL    HW2 1215   0.285   2.571   0.567 -1.3130  0.1977  0.4512
  406SOL     OW 1216   0.026   1.615   3.010 -0.2876 -0.8860  0.1230
  406SOL    HW1 1217   0.071   1.565   2.927  1.2762 -0.2210 -2.0447
  406SOL    HW2 1218   0.041   1.565   3.095  0.6477  0.7072 -0.3862
  407SOL     OW 1219   1.570   0.963   0.970  0.0148  0.6321  0.0415
  407SOL    HW1 1220   1.587   0.930   0.874  0.3280  0.2782  1.4824
  407SOL    HW2 1221   1.484   1.020   0.985 -0.9335 -2.6038 -0.5277
  408SOL     OW 1222   1.456   2.305   0.930  0.0430 -0.3814  0.2690
  408SOL    HW1 1223   1.540   2.304   0.868 -0.7579  0.6106  1.8487
  408SOL    HW2 1224   1.462   2.383   0.994  0.0859 -2.3464  1.8818
  409SOL     OW 1225   0.614   0.857   0.681  0.1170 -0.1045 -0.2564
  409SOL    HW1 1226   0.522   0.845   0.628 -1.1586  2.9288 -0.8955
  409SOL    HW2 1227   0.668   0.763   0.682 -1.7409 -1.7238  0.6126
  410SOL     OW 1228   1.370   1.962   1.493  0.1850  0.0645  0.1065
  410SOL    HW1 1229   1.343   2.063   1.523 -1.9393  2.6813  0.5529
  410SOL    HW2 1230   1.289   1.900   1.465 -1.0365 -0.5395 -0.0296
  411SOL     OW 1231   2.398   1.846   0.073  0.4878 -0.0589 -0.1163
  411SOL    HW1 1232   2.314   1.820   0.024  1.3137 -1.2449  1.3053
  411SOL    HW2 1233   2.473   1.878   0.006 -0.6889 -0.8427 -0.1411
  412SOL     OW 1234   1.630   2.432   2.274  0.1081 -0.4078  0.4316
  412SOL    HW1 1235   1.639   2.536   2.292  2.3367  0.1269 -1.0537
  412SOL    HW2 1236   1.570   2.388   2.350  0.1170 -2.5691  0.8024
  413SOL     OW 1237   3.057   0.284   2.874 -0.8246 -0.4450 -0.1823
  413SOL    HW1 1238   3.001   0.215   2.928 -3.4610  0.3461  0.6998
  413SOL    HW2 1239   3.161   0.276   2.897  2.3995 -1.2248 -1.1875
  414SOL     OW 1240   1.716   1.344   1.345  0.4086 -0.4644 -0.5308
  414SOL    HW1 1241   1.633   1.411   1.340 -0.1319  0.1920 -1.7770
  414SOL    HW2 1242   1.730   1.301   1.259  0.7164 -1.3003  0.8207
  415SOL     OW 1243   0.230   2.263   0.689  0.5233 -0.2860  0.4153
  415SOL    HW1 1244   0.303   2.215   0.740 -0.4009  0.8677  2.0173
  415SOL    HW2 1245   0.162   2.198   0.667  1.2265 -0.7103  1.8529
  416SOL     OW 1246   0.334   1.041   1.066  0.3179 -0.5914  0.0481
  416SOL    HW1 1247   0.315   1.015   0.967 -0.6035 -0.8312 -0.1231
  416SOL    HW2 1248   0.416   1.103   1.085 -1.2658 -2.4422 -0.3750
  417SOL     OW 1249   2.189   2.342   1.873 -0.3760  0.1196  0.0559
  417SOL    HW1 1250   2.251   2.260   1.892  0.5420 -0.6924  0.2200
  417SOL    HW2 1251   2.093   2.343   1.922 -2.1293  0.4819  1.0614
  418SOL     OW 1252   1.135   0.535   1.354  0.0067 -0.2905  0.3669
  418SOL    HW1 1253   1.061   0.458   1.325 -0.4173 -1.8583  0.3632
  418SOL    HW2 1254   1.230   0.513   1.314 -0.0491 -0.4067  0.0835
  419SOL     OW 1255   0.957   0.373   2.985 -0.3334 -0.2946  0.0834
  419SOL    HW1 1256   0.986   0.403   2.889  1.2274  1.1840  0.5671
  419SOL    HW2 1257   0.903   0.284   2.981  1.3778 -0.7944 -2.6520
  420SOL     OW 1258   0.170   2.263   0.373  0.0052  0.3988  0.2018
  420SOL    HW1 1259   0.156   2.252   0.272  1.1696  1.4575 -1.3511
  420SOL    HW2 1260   0.096   2.295   0.432  1.6129 -0.6076 -2.5865
  421SOL     OW 1261   0.324   0.071   0.709 -0.0858 -0.3077 -0.4548
  421SOL    HW1 1262   0.356  -0.007   0.642  1.3762 -2.7527  0.9378
  421SOL    HW2 1263   0.401   0.122   0.758 -0.7301 -0.5629  1.6970
  422SOL     OW 1264   0.925   2.515   1.030  0.1142 -0.1184 -0.2923
  422SOL    HW1 1265   0.950   2.602   0.975 -2.8033  2.0601  0.1580
  422SOL    HW2 1266   0.946   2.532   1.134  1.7753  0.8655  2.8626
  423SOL     OW 1267   0.046   0.697   1.186  0.0039  0.3125 -1.1921
  423SOL    HW1 1268   0.008   0.657   1.280  1.2492 -0.7707  0.8945
  423SOL    HW2 1269  -0.027   0.746   1.133 -2.9229 -1.0308 -0.6945
  424SOL     OW 1270   0.988   2.146   2.234  0.1183 -0.1570  0.0533
  424SOL    HW1 1271   0.933   2.172   2.154 -0.7861  0.1453  1.0959
  424SOL    HW2 1272   0.935   2.154   2.324  1.1302  2.9340  1.2808
  425SOL     OW 1273   2.039   1.428   1.129 -0.3511  0.3288 -0.5521
  425SOL    HW1 1274   2.070   1.336   1.102 -2.6983  1.1031 -0.4695
  425SOL    HW2 1275   2.056   1.501   1.054 -2.5281  2.0191  2.4723
  426SOL     OW 1276   1.513   1.537   1.402  0.7109  0.2228 -0.2882
  426SOL    HW1 1277   1.490   1.620   1.351 -0.8429 -0.6259 -1.9977
  426SOL    HW2 1278   1.482   1.545   1.501  0.4279  0.1845 -0.5824
  427SOL     OW 1279   1.957   2.322   2.050 -0.1750 -0.2370  0.6233
  427SOL    HW1 1280   2.003   2.279   2.138 -1.1504 -0.1075 -0.5199
  427SOL    HW2 1281   1.942   2.428   2.056 -0.7832  1.9986 -0.4027
  428SOL     OW 1282   0.920   3.088   0.044  0.5234 -0.3865  0.1111
  428SOL    HW1 1283   0.945   3.174   0.092 -0.0324 -0.1741  1.7427
  428SOL    HW2 1284   1.000   3.022   0.032  0.4448 -1.0692  0.3116
  429SOL     OW 1285   1.260   0.056   0.212  0.5676 -0.0234 -0.1557
  429SOL    HW1 1286   1.330   0.136   0.220  1.7556 -1.0339  2.5731
  429SOL    HW2 1287   1.288  -0.028   0.165 -2.7111 -1.0158 -0.7898
  430SOL     OW 1288   2.769   1.482   0.319  0.0845 -0.1305  0.4032
  430SOL    HW1 1289   2.778   1.554   0.238 -0.0357  0.3814  0.9664
  430SOL    HW2 1290   2.785   1.523   0.413 -1.9342  1.8535  0.1924
  431SOL     OW 1291   2.078   1.626   0.933 -0.3027 -0.0505 -0.2020
  431SOL    HW1 1292   2.155   1.695   0.933  0.0172  0.2927  1.7152
  431SOL    HW2 1293   1.995   1.660   0.878  0.8305 -1.9592 -0.5391
  432SOL     OW 1294   2.921   2.229   1.255 -0.2717  0.8652 -0.2885
  432SOL    HW1 1295   2.866   2.139   1.266  1.7050  1.0842  0.7386
  432SOL    HW2 1296   2.921   2.277   1.347 -1.4390 -0.9071 -0.4755
  433SOL     OW 1297   1.840   0.268   0.823 -0.2897 -0.0595 -0.1675
  433SOL    HW1 1298   1.737   0.255   0.854 -0.5401 -0.1731 -1.4279
  433SOL    HW2 1299   1.906   0.291   0.899 -0.6765 -2.7105 -0.3490
  434SOL     OW 1300   1.486   0.243   0.732  0.2079 -0.6563  0.4639
  434SOL    HW1 1301   1.507   0.340   0.689  0.5212  2.5059 -0.0707
  434SOL    HW2 1302   1.535   0.234   0.819  0.0392 -0.0433 -1.0051
  435SOL     OW 1303   1.428   1.436   2.067  0.2655  0.7626  0.0248
  435SOL    HW1 1304   1.418   1.446   2.170 -1.1035  1.1005 -1.3623
  435SOL    HW2 1305   1.382   1.516   2.018  0.4268 -1.3472  1.0550
  436SOL     OW 1306   1.665   2.675   2.428 -0.4903 -0.1290 -0.8613
  436SOL    HW1 1307   1.664   2.777   2.445  1.7480  0.0112  0.7626
  436SOL    HW2 1308   1.624   2.616   2.505  2.5964 -0.4264  2.4574
  437SOL     OW 1309   0.988   2.984   0.880 -0.2401 -0.4542  0.1796
  437SOL    HW1 1310   0.945   3.068   0.843 -1.1982 -1.6818  1.2394
  437SOL    HW2 1311   1.055   2.994   0.961  0.8006 -2.8311 -0.8090
  438SOL     OW 1312   0.994   2.524   1.317 -0.3821 -0.5632  0.2723
  438SOL    HW1 1313   1.081   2.569   1.355  1.3434 -0.3089 -0.6058
  438SOL    HW2 1314   0.993   2.419   1.320  1.8707  0.0472  1.2165
  439SOL     OW 1315   0.704   1.688   1.057  0.2076 -0.1320 -0.2104
  439SOL    HW1 1316   0.767   1.770   1.041 -0.2720 -0.2182 -0.3571
  439SOL    HW2 1317   0.607   1.717   1.086 -1.5160 -1.0722 -0.5828
  440SOL     OW 1318   0.961   2.341   1.972  0.0136  0.7133  0.1643
  440SOL    HW1 1319   0.962   2.419   1.907 -1.4427 -1.1398  1.0523
  440SOL    HW2 1320   1.032   2.267   1.949 -0.7070 -0.5455 -2.0381
  441SOL     OW 1321   0.353   2.820   1.322 -0.3131 -0.8207  0.2404
  441SOL    HW1 1322   0.391   2.726   1.355 -0.1433 -0.5812 -0.7346
  441SOL    HW2 1323   0.382   2.846   1.226 -2.3440 -0.7959 -1.6238
  442SOL     OW 1324   2.232   0.688   2.560  0.1071  0.2854 -0.0259
  442SOL    HW1 1325   2.247   0.589   2.534 -0.9731  0.4735 -1.7747
  442SOL    HW2 1326   2.139   0.726   2.530  0.1899 -0.5624 -0.7100
  443SOL     OW 1327   1.301   2.526   2.212 -0.6496  0.8919 -0.3206
  443SOL    HW1 1328   1.289   2.427   2.248 -0.0980  0.5922  2.0404
  443SOL    HW2 1329   1.253   2.594   2.275 -0.3297  0.4868  0.4552
  444SOL     OW 1330   0.961   1.195   1.449 -0.1674 -0.0416  0.6081
  444SOL    HW1 1331   1.029   1.177   1.527  0.5582 -1.8652  1.6818
  444SOL    HW2 1332   0.979   1.288   1.405  0.4522  1.7428 -2.5611
  445SOL     OW 1333   0.153   2.168   2.059 -0.2108  0.8860  0.7464
  445SOL    HW1 1334   0.173   2.067   2.049  0.3276 -0.5645  0.0589
  445SOL    HW2 1335   0.108   2.186   2.147  1.3224  3.3286 -1.4010
  446SOL     OW 1336   0.110   1.977   2.414 -0.2653 -0.7913  0.0656
  446SOL    HW1 1337   0.074   2.069   2.384 -1.7335  0.2577  0.6584
  446SOL    HW2 1338   0.114   1.916   2.334 -2.1872 -0.1304  0.8276
  447SOL     OW 1339   1.300   1.643   1.937  0.3276  0.1689  0.2346
  447SOL    HW1 1340   1.229   1.709   1.902  1.0127 -0.4883 -1.0247
  447SOL    HW2 1341   1.379   1.698   1.979 -0.2044 -0.2366 -0.4651
  448SOL     OW 1342   0.154   1.482   1.999  0.0704  0.2632 -0.2363
  448SOL    HW1 1343   0.159   1.580   1.966 -0.3806 -1.4852 -0.3788
  448SOL    HW2 1344   0.087   1.473   2.084 -1.5986  0.7779  1.3209
  449SOL     OW 1345   1.881   3.019   0.845 -0.1788 -0.7392 -0.0549
  449SOL    HW1 1346   1.839   3.036   0.946 -1.5779  0.5754  3.1578
  449SOL    HW2 1347   1.926   2.927   0.832  2.2180 -1.8072  0.1993
  450SOL     OW 1348   2.205   1.492   0.681  0.2095 -0.4118 -0.0526
  450SOL    HW1 1349   2.153   1.523   0.768  1.4121 -0.7757  2.7950
  450SOL    HW2 1350   2.274   1.565   0.643  0.7264  1.9731 -1.6798
  451SOL     OW 1351   1.387   2.974   1.473  0.3632 -0.0533  0.5303
  451SOL    HW1 1352   1.333   3.062   1.490 -1.9989  1.9153 -0.8824
  451SOL    HW2 1353   1.434   2.946   1.561  1.2929  0.3463 -0.5886
  452SOL     OW 1354   2.698   2.295   2.297  0.6544 -0.0021  0.2446
  452SOL    HW1 1355   2.617   2.356   2.293  0.5119 -0.4590 -0.5143
  452SOL    HW2 1356   2.727   2.259   2.390  0.0637 -0.3374  0.2090
  453SOL     OW 1357   2.480   2.680   3.093 -0.5881 -0.3604  0.0886
  453SOL    HW1 1358   2.382   2.711   3.105  0.4059 -2.5262 -4.0090
  453SOL    HW2 1359   2.488   2.607   3.018  0.5789  0.2233  3.3042
  454SOL     OW 1360   0.893   1.170   2.032  0.0080  0.0986 -0.2042
  454SOL    HW1 1361   0.872   1.167   1.930  1.0421  0.4348 -0.1478
  454SOL    HW2 1362   0.979   1.222   2.055 -0.4888 -0.1425  2.9801
  455SOL     OW 1363   0.737   2.619   2.808 -0.5283 -0.1793  0.3695
  455SOL    HW1 1364   0.839   2.627   2.815  1.9014  2.0327 -0.5980
  455SOL    HW2 1365   0.694   2.544   2.865 -2.6898 -1.0098  2.3410
  456SOL     OW 1366   0.312   1.938   0.228  0.3248  0.1655 -0.0219
  456SOL    HW1 1367   0.408   1.962   0.192  1.4095 -1.0251  1.2808
  456SOL    HW2 1368   0.246   2.017   0.210 -0.5561  0.6328  1.4955
  457SOL     OW 1369   0.426   2.643   0.646  0.3048 -0.5487  0.3244
  457SOL    HW1 1370   0.469   2.655   0.550 -0.8105  2.5637 -0.0652
  457SOL    HW2 1371   0.493   2.633   0.723  0.9803  2.1912 -0.8067
  458SOL     OW 1372   2.931   0.026   1.284  0.4797  0.4477 -0.5608
  458SOL    HW1 1373   2.993   0.105   1.291  0.0613 -0.2651 -1.4831
  458SOL    HW2 1374   2.943  -0.016   1.189 -1.0626  1.5062 -1.4499
  459SOL     OW 1375   2.105   2.502   0.733  0.4936 -0.0570  0.1152
  459SOL    HW1 1376   2.162   2.514   0.825  2.8716  0.4642  2.2503
  459SOL    HW2 1377   2.150   2.542   0.646  0.4722 -0.6600  0.0184
  460SOL     OW 1378   1.208   2.062   2.794 -0.8239 -0.5212  0.2662
  460SOL    HW1 1379   1.211   2.081   2.692 -0.2533  1.6979  1.9560
  460SOL    HW2 1380   1.246   1.965   2.813  1.8262 -1.4984 -3.8272
  461SOL     OW 1381   0.472   2.140   2.769 -0.1784  0.6388 -0.7355
  461SOL    HW1 1382   0.481   2.084   2.684 -0.7953  0.8641 -2.1649
  461SOL    HW2 1383   0.496   2.087   2.861  0.0973  0.2229  1.9552
  462SOL     OW 1384   0.951   1.021   1.722 -0.2646  0.1042  0.0982
  462SOL    HW1 1385   0.941   0.954   1.641  0.1845 -0.0891 -1.0563
  462SOL    HW2 1386   0.882   1.101   1.721 -1.4683  0.2908  0.9720
  463SOL     OW 1387   0.426   0.778   0.475  0.0115  0.2898  0.1998
  463SOL    HW1 1388   0.460   0.688   0.435  2.2701  0.9408  1.5124
  463SOL    HW2 1389   0.323   0.786   0.496  0.8271  0.1286  2.1717
  464SOL     OW 1390   0.542   2.330   2.275  0.4240 -0.0111  0.1212
  464SOL    HW1 1391   0.477   2.395   2.322 -0.0867  1.1249  0.4589
  464SOL    HW2 1392   0.543   2.331   2.172 -0.8974 -0.5199 -0.3707
  465SOL     OW 1393   0.246   1.007   0.802 -0.0162 -0.1680 -0.2313
  465SOL    HW1 1394   0.169   1.044   0.742  1.1487 -0.8755 -0.7937
  465SOL    HW2 1395   0.275   0.916   0.766 -0.9224  1.3040 -2.5450
  466SOL     OW 1396   1.325   1.147   0.889 -0.2005 -0.3029  0.6568
  466SOL    HW1 1397   1.328   1.251   0.897  2.4592  0.0768  1.4641
  466SOL    HW2 1398   1.231   1.105   0.905  0.0670  1.7282  4.2653
  467SOL     OW 1399   0.641   0.475   2.571  0.4781  0.4578 -0.0545
  467SOL    HW1 1400   0.568   0.553   2.584 -4.7268 -1.0124  0.1958
  467SOL    HW2 1401   0.608   0.389   2.626  0.7560 -0.1476 -1.5180
  468SOL     OW 1402   0.466   2.281   1.580 -0.9280  0.3555 -0.4518
  468SOL    HW1 1403   0.557   2.318   1.620  1.5834 -1.0653 -1.8459
  468SOL    HW2 1404   0.468   2.274   1.475 -0.8722 -2.4693 -0.5383
  469SOL     OW 1405   1.430   1.314   1.262 -0.0389 -0.5290  0.5137
  469SOL    HW1 1406   1.483   1.333   1.174  1.8327 -1.7691 -1.1413
  469SOL    HW2 1407   1.453   1.390   1.330 -2.2406  0.0203 -1.6243
  470SOL     OW 1408   2.981   1.839   0.807  0.3077 -0.5679  0.4324
  470SOL    HW1 1409   3.058   1.903   0.779 -0.3272 -0.0024  1.0335
  470SOL    HW2 1410   3.001   1.781   0.891 -1.3650 -0.5089 -1.4969
  471SOL     OW 1411   2.684   1.395   2.188  0.2595 -0.2387  0.3747
  471SOL    HW1 1412   2.692   1.290   2.189 -1.2244  0.2686 -0.7793
  471SOL    HW2 1413   2.736   1.445   2.261 -3.6154 -1.3480  0.4565
  472SOL     OW 1414   1.275   2.413   0.030 -0.9623  0.2137  0.2266
  472SOL    HW1 1415   1.364   2.381   0.069 -0.2551  1.2129  0.2202
  472SOL    HW2 1416   1.193   2.399   0.089  0.0486  0.2654 -0.1657
  473SOL     OW 1417   1.071   1.494   1.001 -0.1876  0.4649  0.3807
  473SOL    HW1 1418   0.980   1.499   0.949  1.3997 -1.8819 -1.2171
  473SOL    HW2 1419   1.085   1.406   1.052  0.3198  0.7994  1.6788
  474SOL     OW 1420   0.623   1.293   0.460  0.0938 -0.2210  0.3371
  474SOL    HW1 1421   0.530   1.251   0.471 -0.1201 -1.1323  2.2473
  474SOL    HW2 1422   0.704   1.234   0.494  0.0960  0.9098  0.5840
  475SOL     OW 1423   2.881   0.030   0.817 -0.6347 -0.0065 -0.4536
  475SOL    HW1 1424   2.929   0.121   0.807 -0.5764 -0.6348 -0.8584
  475SOL    HW2 1425   2.789   0.048   0.865  0.7090  0.0405  0.6433
  476SOL     OW 1426   0.979   3.043   1.808 -0.7272 -0.1417  0.2122
  476SOL    HW1 1427   1.081   3.057   1.826  1.6269 -0.7694  0.8796
  476SOL    HW2 1428   0.962   3.018   1.707 -2.7274  1.8950 -2.0308
  477SOL     OW 1429   1.430   0.324   2.445 -0.0263  0.1239  0.1293
  477SOL    HW1 1430   1.437   0.320   2.550 -1.8823 -0.3347 -0.6684
  477SOL    HW2 1431   1.490   0.254   2.397  0.6102 -1.3097  3.4598
  478SOL     OW 1432   2.263   1.947   0.307 -0.2873 -0.5182 -0.2351
  478SOL    HW1 1433   2.191   1.882   0.333  1.2286  0.6504 -0.4021
  478SOL    HW2 1434   2.327   1.907   0.230  2.9375 -0.0006 -0.4711
  479SOL     OW 1435   1.278   0.975   2.857  0.2870 -1.0359 -0.2518
  479SOL    HW1 1436   1.370   0.980   2.818 -3.1185  1.5799 -1.0954
  479SOL    HW2 1437   1.221   0.893   2.830  0.6941  0.5114  0.5185
  480SOL     OW 1438   2.667   2.296   0.430  0.5316  0.4089 -0.0460
  480SOL    HW1 1439   2.729   2.215   0.450 -2.4154 -1.1634  0.5043
  480SOL    HW2 1440   2.571   2.279   0.452  2.5488  2.0992  0.1947
  481SOL     OW 1441   0.961   1.148   0.780 -0.2963  0.3484  0.1773
  481SOL    HW1 1442   0.980   1.241   0.733 -0.9619 -1.3934  1.6866
  481SOL    HW2 1443   0.987   1.142   0.885  0.8488 -1.2601  1.9871
  482SOL     OW 1444   1.597   0.286   2.035  0.8687  0.1354  0.0923
  482SOL    HW1 1445   1.623   0.387   2.018 -0.6298 -0.4504 -1.9444
  482SOL    HW2 1446   1.672   0.221   2.065  0.7305 -0.5354  2.4158
  483SOL     OW 1447   0.130   2.387   1.222 -0.9521  0.0410 -0.1677
  483SOL    HW1 1448   0.150   2.465   1.285 -2.4728 -1.9979 -0.0666
  483SOL    HW2 1449   0.129   2.425   1.120 -1.3987  1.5527 -1.1205
  484SOL     OW 1450   1.722   1.055   1.477 -0.1907  0.4234  0.1720
  484SOL    HW1 1451   1.819   1.012   1.467  2.8413 -0.5172  0.7243
  484SOL    HW2 1452   1.720   1.157   1.459 -2.0968  1.1184  0.5454
  485SOL     OW 1453   0.769   0.747   1.976 -0.6527 -0.4993  0.1167
  485SOL    HW1 1454   0.704   0.736   1.892 -1.2994 -1.2091 -0.7056
  485SOL    HW2 1455   0.865   0.710   1.951 -0.9955  2.0076 -1.2989
  486SOL     OW 1456   0.906   1.869   2.442 -0.1990  0.3066 -0.6137
  486SOL    HW1 1457   0.918   1.846   2.544 -3.2410  1.4399  1.4151
  486SOL    HW2 1458   0.872   1.963   2.429  0.9040 -2.4841 -0.3538
  487SOL     OW 1459   1.746   1.582   1.048 -0.2066 -0.0100  0.5132
  487SOL    HW1 1460   1.781   1.498   1.097  2.9011  1.9864  1.0934
  487SOL    HW2 1461   1.792   1.606   0.959  1.3536 -0.4598  1.7027
  488SOL     OW 1462   2.936   0.829   2.266 -0.1879 -0.7044  0.3105
  488SOL    HW1 1463   3.007   0.754   2.270 -1.1156 -0.7191  0.3983
  488SOL    HW2 1464   2.856   0.811   2.333 -0.6724  0.1103  2.5611
  489SOL     OW 1465   2.838   0.338   1.294 -0.0967  0.3086  0.1009
  489SOL    HW1 1466   2.839   0.327   1.400 -2.3923 -0.9366 -0.3224
  489SOL    HW2 1467   2.900   0.275   1.244 -2.3986  1.3419 -0.9165
  490SOL     OW 1468   1.481   2.995   2.806 -0.2169 -0.5498  0.1891
  490SOL    HW1 1469   1.494   2.894   2.791  0.0795 -0.2619  0.8978
  490SOL    HW2 1470   1.431   3.042   2.731  0.4717 -0.4443  0.5845
  491SOL     OW 1471   1.793   1.460   2.717  0.1391 -0.7318 -0.5378
  491SOL    HW1 1472   1.747   1.424   2.798  0.1524  2.5012 -0.8362
  491SOL    HW2 1473   1.847   1.541   2.746 -0.5359 -1.9278  0.1434
  492SOL     OW 1474   0.647   2.091   0.596 -1.0655  0.1420 -0.0980
  492SOL    HW1 1475   0.657   2.100   0.699  1.3907  0.9839  1.4593
  492SOL    HW2 1476   0.570   2.134   0.553  1.9378 -1.6348  3.7683
  493SOL     OW 1477   0.398   1.329   2.087  0.5803  0.1014 -0.2209
  493SOL    HW1 1478   0.318   1.387   2.050 -2.1481 -1.4337 -0.6445
  493SOL    HW2 1479   0.364   1.243   2.134  1.1920 -0.2999 -2.3370
  494SOL     OW 1480   2.719   2.642   0.136 -0.2836 -0.2184 -0.6423
  494SOL    HW1 1481   2.713   2.626   0.235  0.1278  0.4240 -1.8665
  494SOL    HW2 1482   2.639   2.686   0.091  0.4051 -2.8595  0.3627
  495SOL     OW 1483   2.524   2.802   2.644 -0.3984 -0.0652  0.0049
  495SOL    HW1 1484   2.537   2.697   2.641  1.1106  2.0611  0.1813
  495SOL    HW2 1485   2.593   2.842   2.571  0.6153 -0.8254 -0.5754
  496SOL     OW 1486   1.950   2.299   0.808 -0.0777  0.3173 -0.7704
  496SOL    HW1 1487   1.998   2.234   0.876  0.1154  2.7642  2.2905
  496SOL    HW2 1488   2.014   2.378   0.780  2.4769  3.0980  0.2095
  497SOL     OW 1489   0.313   2.986   2.358 -1.0885  0.6602  0.3415
  497SOL    HW1 1490   0.245   3.053   2.401  1.5374  0.0561 -0.8224
  497SOL    HW2 1491   0.363   3.027   2.274 -0.1269 -2.2274  3.0137
  498SOL     OW 1492   1.168   1.297   1.152 -0.0250  0.3826  0.4841
  498SOL    HW1 1493   1.270   1.304   1.156  0.4818  2.0098  2.2854
  498SOL    HW2 1494   1.116   1.340   1.235  1.5093  0.4164  2.5161
  499SOL     OW 1495   0.607   1.757   0.422  0.0424  0.9123 -0.3887
  499SOL    HW1 1496   0.615   1.689   0.343 -3.0904 -0.8007  0.6255
  499SOL    HW2 1497   0.675   1.831   0.418 -1.0400 -0.0136 -2.2161
  500SOL     OW 1498   1.481   2.765   1.655  0.6026  0.3221 -0.2778
  500SOL    HW1 1499   1.525   2.725   1.739 -0.6993  0.0389 -0.8314
  500SOL    HW2 1500   1.461   2.683   1.585 -1.0003 -1.1227 -0.1492
  501SOL     OW 1501   0.782   1.247   2.267 -0.1334 -0.7712 -0.2236
  501SOL    HW1 1502   0.715   1.176   2.307 -2.5707  1.1775  0.8898
  501SOL    HW2 1503   0.819   1.211   2.174 -0.9613  0.2407  0.8102
  502SOL     OW 1504   2.551   0.912   1.801  0.3201  0.4650 -0.0218
  502SOL    HW1 1505   2.615   0.946   1.728  1.5558 -3.2603  1.8563
  502SOL    HW2 1506   2.524   0.811   1.785 -1.5925 -4.2954  0.1313
  503SOL     OW 1507   1.239   0.129   0.710  0.3058  0.2042 -0.3414
  503SOL    HW1 1508   1.182   0.216   0.696 -1.5522 -0.8568  1.7321
  503SOL    HW2 1509   1.337   0.148   0.734  2.5309 -1.4925  0.4067
  504SOL     OW 1510   2.960   2.360   1.488  0.3628 -0.2095 -0.2763
  504SOL    HW1 1511   2.900   2.402   1.557  1.2224 -0.1591 -2.4270
  504SOL    HW2 1512   3.065   2.368   1.510  1.2714 -0.3896 -2.8514
  505SOL     OW 1513   2.334   1.150   1.524 -0.1718 -0.3701 -0.2343
  505SOL    HW1 1514   2.309   1.175   1.425 -0.8783  2.5769 -0.7827
  505SOL    HW2 1515   2.414   1.197   1.571  0.0438 -2.9963  4.9769
  506SOL     OW 1516   1.943   0.237   1.864 -0.2132 -0.7862 -0.1876
  506SOL    HW1 1517   2.045   0.221   1.888  3.6820  0.1487  0.4949
  506SOL    HW2 1518   1.914   0.338   1.880  0.7088  0.3515 -0.2446
  507SOL     OW 1519   0.486   0.763   2.160  0.4130 -0.4210  0.3538
  507SOL    HW1 1520   0.407   0.732   2.096 -1.4243 -0.9916 -0.4130
  507SOL    HW2 1521   0.545   0.682   2.193 -0.2786  2.6540  0.9977
  508SOL     OW 1522   0.325   1.645   0.787 -0.1553  0.3955  0.1851
  508SOL    HW1 1523   0.413   1.686   0.764 -1.8931 -0.2311  0.6964
  508SOL    HW2 1524   0.270   1.685   0.867 -1.5439 -2.1464  1.4387
  509SOL     OW 1525   1.278   1.203   2.476  0.2445  0.2852 -0.1147
  509SOL    HW1 1526   1.293   1.100   2.467 -2.1937 -0.8702  1.9426
  509SOL    HW2 1527   1.175   1.213   2.495  0.1867  1.2225  2.6598
  510SOL     OW 1528   1.379   2.050   2.207 -0.7273  0.2613  0.4514
  510SOL    HW1 1529   1.382   2.045   2.099  1.8794 -1.9702 -0.6025
  510SOL    HW2 1530   1.308   1.990   2.242 -0.6943 -1.0063 -2.3610
  511SOL     OW 1531   3.027   2.643   1.363  0.2089 -0.0406  0.1653
  511SOL    HW1 1532   2.987   2.687   1.277  2.6255  0.9544 -1.8923
  511SOL    HW2 1533   2.968   2.559   1.388 -0.3561 -0.8883 -0.9392
  512SOL     OW 1534   2.354   0.432   1.398 -0.5415  0.2132  0.4122
  512SOL    HW1 1535   2.262   0.448   1.353 -1.3456 -1.2779 -1.1411
  512SOL    HW2 1536   2.410   0.364   1.340 -2.4365 -1.2956 -0.1419
  513SOL     OW 1537   2.541   2.120   0.886 -0.5265 -0.2025 -0.3279
  513SOL    HW1 1538   2.514   2.200   0.825  1.5354 -2.5551 -0.4096
  513SOL    HW2 1539   2.636   2.079   0.859 -0.3750 -0.7477 -0.0915
  514SOL     OW 1540   0.572   2.762   0.434  0.6001 -0.5076  0.2941
  514SOL    HW1 1541   0.613   2.786   0.342 -1.1308  0.2679 -0.6919
  514SOL    HW2 1542   0.621   2.800   0.519 -1.6908  2.1357 -1.7660
  515SOL     OW 1543   1.957   1.333   2.388 -0.2840 -0.2825 -0.1065
  515SOL    HW1 1544   1.970   1.277   2.298  1.2668  1.1941  0.9576
  515SOL    HW2 1545   1.898   1.283   2.456  0.2752  0.1407 -0.3248
  516SOL     OW 1546   0.254   0.172   1.969  0.3100  0.0164  0.1043
  516SOL    HW1 1547   0.345   0.204   1.931  2.3422  1.5759  1.0576
  516SOL    HW2 1548   0.206   0.108   1.902 -0.7026  1.5016  0.8928
  517SOL     OW 1549   0.491   0.252   1.093 -0.4234 -0.0128 -0.1870
  517SOL    HW1 1550   0.547   0.175   1.144  0.4230 -1.3980 -0.7468
  517SOL    HW2 1551   0.388   0.241   1.119  0.2679 -1.5990  2.2362
  518SOL     OW 1552   2.199   3.024   1.832 -0.4467  0.2524 -0.3135
  518SOL    HW1 1553   2.214   3.127   1.843 -1.0296  0.2227  0.7046
  518SOL    HW2 1554   2.233   2.989   1.740 -0.5806 -1.1334  2.9705
  519SOL     OW 1555   2.337   2.242   2.539 -0.6038  0.1111  0.0474
  519SOL    HW1 1556   2.278   2.220   2.621 -0.2743 -0.1435 -0.8916
  519SOL    HW2 1557   2.372   2.339   2.543 -0.7746  0.7243  0.6881
  520SOL     OW 1558   1.778   2.644   1.666  0.0001  0.3550 -0.6735
  520SOL    HW1 1559   1.753   2.611   1.761 -0.2984 -1.4637 -0.0312
  520SOL    HW2 1560   1.862   2.599   1.628 -1.4437  2.5317  2.3964
  521SOL     OW 1561   0.654   0.072   2.132 -0.1129 -0.0810  0.0030
  521SOL    HW1 1562   0.582  -0.001   2.126  1.1630 -1.6335 -2.4015
  521SOL    HW2 1563   0.692   0.088   2.230  2.1812  0.3962 -2.8443
  522SOL     OW 1564   0.246   1.896   1.511 -0.1983  0.6730 -0.3694
  522SOL    HW1 1565   0.274   1.961   1.586 -0.6636  0.4703 -2.4864
  522SOL    HW2 1566   0.200   1.940   1.426  0.0815  0.5656 -1.3746
  523SOL     OW 1567   2.252   2.932   1.574  0.1334 -0.7029 -0.7852
  523SOL    HW1 1568   2.344   2.887   1.539  3.3178 -0.9266  1.2770
  523SOL    HW2 1569   2.165   2.904   1.532  1.7454 -3.1712  0.3373
  524SOL     OW 1570   0.223   2.752   2.772 -0.1172 -0.4721 -0.7144
  524SOL    HW1 1571   0.213   2.840   2.818  1.6136 -0.1128 -0.4573
  524SOL    HW2 1572   0.325   2.723   2.749  1.1622 -0.2102 -0.3268
  525SOL     OW 1573   2.159   2.107   0.516  0.4821 -0.4145  0.4456
  525SOL    HW1 1574   2.146   2.055   0.604  0.6265  3.0103 -1.9772
  525SOL    HW2 1575   2.198   2.049   0.438  1.3227 -1.7495  0.0363
  526SOL     OW 1576   0.388   1.518   1.710 -0.3960  0.4479  0.2488
  526SOL    HW1 1577   0.437   1.589   1.776  1.7969 -0.2969  1.8358
  526SOL    HW2 1578   0.367   1.429   1.752  0.8232  2.1863 -0.8311
  527SOL     OW 1579   1.155   3.014   1.100 -0.0396 -0.4776  0.1588
  527SOL    HW1 1580   1.188   2.934   1.161  1.7892 -0.1400  0.2581
  527SOL    HW2 1581   1.225   3.091   1.112  0.7110 -2.9452 -0.8642
  528SOL     OW 1582   1.282   2.429   0.609 -0.0664  0.6747  0.3586
  528SOL    HW1 1583   1.332   2.338   0.631  2.8128 -2.8976  3.7594
  528SOL    HW2 1584   1.339   2.513   0.626 -2.0638 -1.1106  0.0488
  529SOL     OW 1585   1.851   1.711   0.815  0.3418  0.6250  0.6668
  529SOL    HW1 1586   1.809   1.737   0.722 -2.4698 -1.3400  1.2760
  529SOL    HW2 1587   1.876   1.796   0.869 -0.0039  0.7075 -3.4463
  530SOL     OW 1588   0.422   2.520   0.162 -0.8020 -0.3295  0.6107
  530SOL    HW1 1589   0.410   2.484   0.256  0.4224 -0.2835 -1.1407
  530SOL    HW2 1590   0.433   2.444   0.088 -0.6208 -1.7534  0.2404
  531SOL     OW 1591   1.829   1.010   1.045  0.4216  0.2029  0.1309
  531SOL    HW1 1592   1.848   1.056   0.954 -0.0134  1.7480  1.1936
  531SOL    HW2 1593   1.729   0.984   1.060 -0.0913  3.1369  3.2094
  532SOL     OW 1594   0.402   1.201   0.682 -0.0010 -0.1221 -0.1449
  532SOL    HW1 1595   0.403   1.145   0.590 -0.6099 -1.2338 -1.0877
  532SOL    HW2 1596   0.353   1.140   0.749 -1.7605  1.9344 -2.5169
  533SOL     OW 1597   1.830   0.014   2.629  0.1146  0.4351 -0.5938
  533SOL    HW1 1598   1.935   0.012   2.628 -0.9079  0.9671  1.3847
  533SOL    HW2 1599   1.784   0.100   2.669 -2.8761  1.1926  0.3712
  534SOL     OW 1600   0.194   0.179   1.551 -0.2048 -0.1512 -0.0220
  534SOL    HW1 1601   0.266   0.262   1.551  1.3110  3.0469 -0.7490
  534SOL    HW2 1602   0.097   0.212   1.525 -0.6821  0.7262 -0.3166
  535SOL     OW 1603   1.882   0.389   0.150  0.1747  0.7783 -0.2677
  535SOL    HW1 1604   1.916   0.457   0.214  1.5060 -1.4170 -1.2947
  535SOL    HW2 1605   1.788   0.347   0.171 -3.7053 -3.4860 -0.7058
  536SOL     OW 1606   1.229   2.493   0.949 -0.2815  0.2697  0.3718
  536SOL    HW1 1607   1.264   2.446   0.866 -1.5596 -0.5285  2.4012
  536SOL    HW2 1608   1.125   2.512   0.942 -1.0203 -1.5365  3.3449
  537SOL     OW 1609   0.872   0.251   2.310  0.1407  0.0545 -0.6590
  537SOL    HW1 1610   0.848   0.305   2.230  0.1224  2.3594  3.6102
  537SOL    HW2 1611   0.898   0.155   2.288 -4.1080 -0.5355 -1.9529
  538SOL     OW 1612   1.720   2.254   1.635 -0.0612 -0.3275 -0.5116
  538SOL    HW1 1613   1.689   2.189   1.559 -1.2254  0.2239  0.2888
  538SOL    HW2 1614   1.788   2.333   1.607  1.2973  3.0490  1.0579
  539SOL     OW 1615   0.141   1.550   2.778 -0.0424 -0.1209 -0.3728
  539SOL    HW1 1616   0.069   1.550   2.700 -0.4560  0.1878 -0.9407
  539SOL    HW2 1617   0.204   1.635   2.766  2.8189  0.9930  2.4283
  540SOL     OW 1618   2.642   1.791   2.137 -0.0492 -0.0477  0.1659
  540SOL    HW1 1619   2.597   1.693   2.127 -1.0301 -0.9546  2.0379
  540SOL    HW2 1620   2.640   1.851   2.051  4.2754  1.0289 -0.5762
  541SOL     OW 1621   0.420   2.309   3.074 -0.0785  0.0280 -0.4668
  541SOL    HW1 1622   0.459   2.242   3.145 -0.0768 -2.6331 -2.6080
  541SOL    HW2 1623   0.335   2.275   3.023  0.5419 -2.3218  1.5803
  542SOL     OW 1624   2.187   2.569   0.457  0.1339  0.0212 -0.0667
  542SOL    HW1 1625   2.186   2.664   0.411  1.3907  3.0704 -1.9740
  542SOL    HW2 1626   2.099   2.514   0.437  1.6504 -1.8035 -1.8120
  543SOL     OW 1627   1.114   1.794   1.763 -0.0176  0.4697 -0.9463
  543SOL    HW1 1628   1.072   1.810   1.858 -1.8326  0.5830  0.2474
  543SOL    HW2 1629   1.057   1.837   1.684 -0.3233  0.7338  1.4141
  544SOL     OW 1630   0.843   0.465   0.132  0.0624 -0.1995  0.1147
  544SOL    HW1 1631   0.895   0.393   0.187 -1.8152 -1.1245 -0.1185
  544SOL    HW2 1632   0.873   0.455   0.032  0.7282 -0.3159 -1.3996
  545SOL     OW 1633   1.146   1.743   0.664 -0.1848  0.4090 -0.0203
  545SOL    HW1 1634   1.237   1.724   0.718  1.8276  2.6858  1.1484
  545SOL    HW2 1635   1.165   1.770   0.565 -1.3563 -0.2310  0.8371
  546SOL     OW 1636   2.730   1.585   0.038  0.3804  0.0972  0.1338
  546SOL    HW1 1637   2.791   1.576  -0.044 -2.6149 -0.1537 -0.7994
  546SOL    HW2 1638   2.646   1.521   0.043 -1.4471 -2.8034 -3.9555
  547SOL     OW 1639   0.477   3.048   2.711  0.0772 -0.1805  0.1179
  547SOL    HW1 1640   0.509   2.975   2.642  2.0798 -1.9426 -0.9608
  547SOL    HW2 1641   0.492   3.003   2.806 -0.3126 -0.5669 -0.7050
  548SOL     OW 1642   2.069   0.775   3.025  0.0545  0.1661  0.5928
  548SOL    HW1 1643   1.974   0.742   3.043  0.0037 -3.1648  2.7385
  548SOL    HW2 1644   2.078   0.875   3.031  1.8274 -3.3753  2.7839
  549SOL     OW 1645   0.559   0.456   0.078  0.0128 -0.0313 -0.4899
  549SOL    HW1 1646   0.543   0.541   0.012 -1.3095  1.4158 -1.2381
  549SOL    HW2 1647   0.657   0.445   0.117  1.6493 -1.5407  0.2674
  550SOL     OW 1648   2.525   2.867   2.916  0.1263 -0.3533 -0.4292
  550SOL    HW1 1649   2.514   2.786   2.984 -0.5228  0.1345  1.1473
  550SOL    HW2 1650   2.524   2.842   2.815 -0.3245  2.0886  0.0921
  551SOL     OW 1651   0.257   0.831   0.215 -0.1594 -0.0449 -0.8138
  551SOL    HW1 1652   0.358   0.799   0.217 -0.6270  0.6769  0.5160
  551SOL    HW2 1653   0.208   0.825   0.305 -1.9018 -0.3548 -2.0403
  552SOL     OW 1654   0.863   2.797   1.911 -0.1530 -0.2042 -0.4874
  552SOL    HW1 1655   0.816   2.789   2.005  0.2222  1.1087 -0.9781
  552SOL    HW2 1656   0.872   2.893   1.879  2.7070 -2.9635  2.1356
  553SOL     OW 1657   3.094   2.560   0.364  0.0339 -0.1821  0.4802
  553SOL    HW1 1658   3.026   2.481   0.363 -0.6554 -0.6538  0.0983
  553SOL    HW2 1659   3.144   2.570   0.453  0.0551  0.6287 -1.0067
  554SOL     OW 1660   2.083   0.325   0.502 -0.1706 -0.3651  0.4747
  554SOL    HW1 1661   2.086   0.300   0.399  0.3055  0.4271 -1.2106
  554SOL    HW2 1662   2.106   0.243   0.559 -2.7601  1.4993 -1.2589
  555SOL     OW 1663   0.516   2.861   2.528 -0.7630  0.4128  0.0345
  555SOL    HW1 1664   0.440   2.883   2.464  1.4586 -2.6982 -0.6630
  555SOL    HW2 1665   0.602   2.824   2.480  0.8437 -0.1469 -1.1402
  556SOL     OW 1666   0.977   2.357   1.643  0.6296  0.2201 -0.2305
  556SOL    HW1 1667   0.997   2.445   1.694 -0.6889  0.1861 -0.0216
  556SOL    HW2 1668   1.020   2.352   1.550 -1.8961 -0.2962  0.3327
  557SOL     OW 1669   0.142   2.119   0.109  0.2185 -0.0060 -0.0519
  557SOL    HW1 1670   0.069   2.048   0.115  0.4090  2.4947  1.0436
  557SOL    HW2 1671   0.135   2.186   0.030 -0.8459 -1.9546 -0.1075
  558SOL     OW 1672   2.969   2.311   0.258 -0.8288  0.3006 -0.5971
  558SOL    HW1 1673   2.868   2.300   0.257  0.6953  1.3254  0.3808
  558SOL    HW2 1674   3.012   2.346   0.169 -2.7659 -0.4895  0.6140
  559SOL     OW 1675   0.401   2.286   1.301  0.6503  0.0758 -0.1613
  559SOL    HW1 1676   0.306   2.321   1.290  0.2290 -1.5379 -0.2769
  559SOL    HW2 1677   0.414   2.187   1.268  1.6067 -0.1829  1.6622
  560SOL     OW 1678   2.041   1.047   3.018 -0.2723 -0.1824 -0.1122
  560SOL    HW1 1679   2.044   1.116   2.940  1.3813 -0.4899  0.4035
  560SOL    HW2 1680   1.971   1.077   3.091 -1.3983 -2.2610 -1.8611
  561SOL     OW 1681   3.023   1.972   0.100  0.4790  0.6226  0.2299
  561SOL    HW1 1682   2.981   1.877   0.080  1.4211 -0.7375  2.8784
  561SOL    HW2 1683   2.981   2.050   0.043 -0.1575  0.2315 -1.9733
  562SOL     OW 1684   0.837   2.166   2.464 -0.2393  0.5044  0.3546
  562SOL    HW1 1685   0.737   2.156   2.431  0.6832  2.4932 -0.3984
  562SOL    HW2 1686   0.852   2.230   2.544 -3.8816 -2.3940 -3.4854
  563SOL     OW 1687   0.668   2.565   2.546  0.6767  0.0397 -0.2730
  563SOL    HW1 1688   0.598   2.489   2.531  1.4947 -2.7652 -4.4489
  563SOL    HW2 1689   0.682   2.596   2.644  1.4357  0.9744  0.5069
  564SOL     OW 1690   2.757   1.301   2.907 -0.2271  0.0194 -0.4861
  564SOL    HW1 1691   2.671   1.297   2.960 -0.2057 -1.0779 -0.4273
  564SOL    HW2 1692   2.799   1.394   2.900 -0.9112 -0.7565 -1.0894
  565SOL     OW 1693   2.544   2.027   2.578 -0.0370 -0.0819  0.5184
  565SOL    HW1 1694   2.489   2.107   2.539 -0.7801  0.6676 -0.0923
  565SOL    HW2 1695   2.617   2.046   2.647  1.5683 -0.4090  0.9144
  566SOL     OW 1696   2.012   2.820   1.440 -0.5211  0.2971 -0.1141
  566SOL    HW1 1697   2.035   2.732   1.500  0.6620 -1.9457  1.2248
  566SOL    HW2 1698   2.060   2.821   1.347 -0.0432  2.6346 -0.2391
  567SOL     OW 1699   2.405   0.122   2.219  0.3883  0.2198 -0.1210
  567SOL    HW1 1700   2.456   0.125   2.127  3.2094 -1.3177  0.2084
  567SOL    HW2 1701   2.309   0.079   2.218 -2.1022  2.9270  0.7682
  568SOL     OW 1702   1.453   1.808   0.475  0.2229  0.1811 -0.6851
  568SOL    HW1 1703   1.416   1.873   0.404 -1.7408 -2.6058  0.6654
  568SOL    HW2 1704   1.469   1.860   0.567 -0.6793  0.8737  4.3226
  569SOL     OW 1705   0.295   0.693   0.760 -0.0619  0.2401  0.3330
  569SOL    HW1 1706   0.324   0.614   0.703 -4.0139  3.0520  3.2417
  569SOL    HW2 1707   0.191   0.679   0.776  2.0452  1.7427 -0.7802
  570SOL     OW 1708   0.598   0.835   2.834  0.2659 -0.5638  0.4493
  570SOL    HW1 1709   0.653   0.829   2.747  0.2004 -1.1999  2.4774
  570SOL    HW2 1710   0.602   0.930   2.883 -1.3792  0.4259  0.4832
  571SOL     OW 1711   0.837   3.079   1.157  0.3601 -0.5064 -0.8028
  571SOL    HW1 1712   0.842   3.144   1.076  2.5829 -2.5723 -1.6182
  571SOL    HW2 1713   0.932   3.058   1.193  1.3702  0.7049  0.1269
  572SOL     OW 1714   1.472   2.572   1.186 -0.1635 -0.0582 -0.0177
  572SOL    HW1 1715   1.424   2.488   1.202  2.3855  0.7711  0.3304
  572SOL    HW2 1716   1.423   2.641   1.131  1.6663 -0.2954  1.9675
  573SOL     OW 1717   2.942   0.481   2.074 -0.2027 -0.5739  0.0908
  573SOL    HW1 1718   2.909   0.386   2.107 -1.9293 -1.0102 -0.5982
  573SOL    HW2 1719   2.868   0.533   2.027  4.8627  1.0496  2.2674
  574SOL     OW 1720   0.228   1.770   1.024 -0.2686  0.5308  0.1689
  574SOL    HW1 1721   0.228   1.857   0.972 -0.3039  1.3485  0.9140
  574SOL    HW2 1722   0.145   1.760   1.081  0.4095  0.0934 -1.3346
  575SOL     OW 1723   0.929   2.219   1.019 -0.5132 -0.1839  0.1129
  575SOL    HW1 1724   0.856   2.226   1.093 -1.3439  3.3339 -0.0233
  575SOL    HW2 1725   1.025   2.229   1.053 -2.5008 -0.7449 -0.0705
  576SOL     OW 1726   2.889   2.922   1.738  0.3413 -0.2902 -0.4974
  576SOL    HW1 1727   2.840   2.878   1.657  0.0520  0.4607  0.0082
  576SOL    HW2 1728   2.859   3.023   1.757  1.0038  1.8580 -0.0710
  577SOL     OW 1729   2.516   1.240   3.077  0.0873 -0.5940  0.0031
  577SOL    HW1 1730   2.525   1.151   3.029 -1.9668  1.6940 -0.4064
  577SOL    HW2 1731   2.584   1.257   3.154  1.9582  1.1369  1.6221
  578SOL     OW 1732   1.329   2.787   2.566 -0.4029 -0.0176  0.2331
  578SOL    HW1 1733   1.271   2.744   2.490 -0.5207  1.0303 -0.2500
  578SOL    HW2 1734   1.358   2.887   2.544  2.8210  3.2089  0.1456
  579SOL     OW 1735   0.133   2.592   0.129  0.2611  0.5743 -0.0437
  579SOL    HW1 1736   0.083   2.575   0.218  1.3441  0.8201 -0.7740
  579SOL    HW2 1737   0.237   2.563   0.135  0.9563  0.3816 -0.0411
  580SOL     OW 1738   0.949   2.690   0.393  0.5478 -0.1809 -0.6076
  580SOL    HW1 1739   1.033   2.709   0.340 -0.8492 -3.1711 -0.4475
  580SOL    HW2 1740   0.888   2.622   0.338 -1.8507  0.2184 -1.0216
  581SOL     OW 1741   1.260   2.533   1.470  0.9173  0.4547  0.7366
  581SOL    HW1 1742   1.291   2.465   1.397  1.5894  1.3616  2.3349
  581SOL    HW2 1743   1.274   2.637   1.448  2.2928  1.6143 -0.1311
  582SOL     OW 1744   1.525   0.070   1.870 -0.3104  0.2584  0.3902
  582SOL    HW1 1745   1.543   0.150   1.935 -3.3937  0.7753  1.0336
  582SOL    HW2 1746   1.603   0.053   1.803  4.1138 -1.6268 -1.8518
  583SOL     OW 1747   2.380   2.972   0.575 -0.0915  0.8645  0.3425
  583SOL    HW1 1748   2.443   2.917   0.514  0.1091 -1.1921  0.2643
  583SOL    HW2 1749   2.318   2.915   0.638  0.4505  0.5509  1.6044
  584SOL     OW 1750   1.526   0.968   2.079  0.2607  0.1375  0.0658
  584SOL    HW1 1751   1.583   1.032   2.024 -1.7918  0.6158  1.9139
  584SOL    HW2 1752   1.566   0.949   2.170 -2.6104  1.1190 -0.5234
  585SOL     OW 1753   2.090   2.702   2.864  0.2938 -0.3731  0.6287
  585SOL    HW1 1754   2.126   2.610   2.865  1.5930  0.6554  0.9053
  585SOL    HW2 1755   1.998   2.713   2.912  0.6984 -1.1105  2.9087
  586SOL     OW 1756   2.776   0.257   1.566 -0.2466 -0.6476  0.0927
  586SOL    HW1 1757   2.783   0.341   1.629  1.1660 -0.6052 -1.5275
  586SOL    HW2 1758   2.686   0.203   1.571 -0.3146 -2.6867 -1.9953
  587SOL     OW 1759   2.028   1.616   2.744 -0.1058  0.1896  0.3353
  587SOL    HW1 1760   2.089   1.591   2.662  0.6520 -1.5646 -0.7230
  587SOL    HW2 1761   2.069   1.614   2.847 -1.3963  2.0443  1.0247
  588SOL     OW 1762   0.520   2.694   2.238 -0.4663  0.1476 -0.2159
  588SOL    HW1 1763   0.443   2.717   2.176  0.4640  1.0949  0.2225
  588SOL    HW2 1764   0.489   2.636   2.318 -1.9895 -0.4303 -2.3909
  589SOL     OW 1765   2.174   1.472   2.525 -0.2712 -0.2670  0.1705
  589SOL    HW1 1766   2.091   1.438   2.471 -0.0643 -0.5457 -0.6805
  589SOL    HW2 1767   2.250   1.400   2.548  0.7876 -1.2326  2.0242
  590SOL     OW 1768   2.361   1.770   2.016  0.3307 -0.2759 -0.7798
  590SOL    HW1 1769   2.444   1.710   2.007 -0.4405 -0.2754 -0.8297
  590SOL    HW2 1770   2.349   1.805   2.112 -0.3421 -0.6338  1.8874
  591SOL     OW 1771   1.315   2.463   0.344  0.1084 -0.0038 -0.5843
  591SOL    HW1 1772   1.389   2.411   0.300  0.5952 -1.7207  0.3188
  591SOL    HW2 1773   1.309   2.440   0.445  0.1391 -2.3740 -0.8125
  592SOL     OW 1774   1.693   2.320   0.775 -0.5491 -0.0298  0.2247
  592SOL    HW1 1775   1.672   2.405   0.718 -1.0593  0.8415 -0.1307
  592SOL    HW2 1776   1.790   2.310   0.793 -3.6698 -0.8918  0.3649
  593SOL     OW 1777   0.525   0.248   2.998  0.0754 -0.3074  0.3550
  593SOL    HW1 1778   0.624   0.211   2.980  1.7638 -0.7527 -3.2239
  593SOL    HW2 1779   0.537   0.310   3.082  0.7590 -1.1657  0.6043
  594SOL     OW 1780   0.924   1.876   2.759 -0.4378  0.1758  0.1504
  594SOL    HW1 1781   1.013   1.899   2.802  1.1425  0.4188 -1.0841
  594SOL    HW2 1782   0.862   1.957   2.770  0.7025 -1.3800  2.5535
  595SOL     OW 1783   1.558   3.081   1.025  0.0903  0.2620 -0.0112
  595SOL    HW1 1784   1.642   3.031   1.051  1.0357  3.2553  1.6264
  595SOL    HW2 1785   1.514   3.043   0.938  1.0010 -0.6598 -0.7738
  596SOL     OW 1786   3.082   1.471   2.222 -0.3036 -0.1703 -0.1603
  596SOL    HW1 1787   3.025   1.555   2.244  3.9546 -2.5869  1.5368
  596SOL    HW2 1788   3.106   1.405   2.303  2.4105  0.8950 -2.1232
  597SOL     OW 1789   2.051   2.578   1.595  0.6605 -0.0365 -0.0678
  597SOL    HW1 1790   2.129   2.505   1.580  0.1523 -2.8222  0.4899
  597SOL    HW2 1791   2.066   2.625   1.691 -1.4346  2.8773  2.2853
  598SOL     OW 1792   2.602   2.872   1.224  0.2174  0.3856 -0.2443
  598SOL    HW1 1793   2.685   2.900   1.278 -0.7720  2.8655 -1.6726
  598SOL    HW2 1794   2.626   2.857   1.126 -1.7999  0.2841  0.1131
  599SOL     OW 1795   2.927   0.339   2.410 -0.1326 -0.5789 -0.4108
  599SOL    HW1 1796   3.032   0.343   2.403  0.0943  3.0823  0.1078
  599SOL    HW2 1797   2.876   0.409   2.353 -1.1504  0.7352  0.0058
  600SOL     OW 1798   2.806   1.077   2.750  0.4531 -0.3430 -0.2371
  600SOL    HW1 1799   2.802   0.984   2.799  1.1851 -1.6804  2.0473
  600SOL    HW2 1800   2.770   1.153   2.813  3.9663 -0.9457 -0.5748
  601SOL     OW 1801   2.944   1.292   2.036 -0.2699 -0.5442  0.0169
  601SOL    HW1 1802   2.869   1.325   1.978  0.3703  2.2274 -1.9166
  601SOL    HW2 1803   2.980   1.361   2.100 -0.3327 -0.6048 -1.4594
  602SOL     OW 1804   1.540   1.681   2.307 -0.1019  0.0090  1.1855
  602SOL    HW1 1805   1.485   1.598   2.278  2.6744  2.6768  0.1870
  602SOL    HW2 1806   1.624   1.644   2.358 -1.4271 -1.0595 -1.0957
  603SOL     OW 1807   0.711   1.249   2.619  0.2943 -0.0493  0.5907
  603SOL    HW1 1808   0.639   1.225   2.541 -1.3600  1.1293 -0.6496
  603SOL    HW2 1809   0.772   1.168   2.644 -1.3635  0.1365 -1.7629
  604SOL     OW 1810   2.406   1.025   0.172 -0.3419 -0.6179 -0.8038
  604SOL    HW1 1811   2.416   1.094   0.100  0.5901 -1.6937  0.7966
  604SOL    HW2 1812   2.367   0.934   0.139 -3.5429  0.1939  1.3725
  605SOL     OW 1813   2.593   1.111   1.986 -0.2702 -0.2823  0.2863
  605SOL    HW1 1814   2.587   1.034   1.918 -0.5357 -0.6412  1.3083
  605SOL    HW2 1815   2.639   1.074   2.076 -0.2220 -1.5921  2.0518
  606SOL     OW 1816   1.496   2.523   2.571  0.4636 -0.2417  0.4241
  606SOL    HW1 1817   1.400   2.568   2.581 -0.1153  0.9618  1.7959
  606SOL    HW2 1818   1.500   2.423   2.548  1.4372 -1.7697 -1.7480
  607SOL     OW 1819   1.319   1.545   0.430  0.3712 -0.2050 -0.3045
  607SOL    HW1 1820   1.302   1.495   0.519 -2.0622 -1.0640 -0.3255
  607SOL    HW2 1821   1.360   1.642   0.442  0.7416  3.4312 -2.4510
  608SOL     OW 1822   1.386   2.884   0.394  0.2266  0.0624  0.6161
  608SOL    HW1 1823   1.442   2.935   0.319 -0.3131  2.2897 -1.8704
  608SOL    HW2 1824   1.316   2.943   0.444  0.2508  0.7282  2.2603
  609SOL     OW 1825   1.333   1.326   0.209  0.2234 -0.0318  0.4563
  609SOL    HW1 1826   1.337   1.390   0.294  3.0369 -0.5832  2.3644
  609SOL    HW2 1827   1.248   1.340   0.152 -0.7407 -0.3785 -0.3078
  610SOL     OW 1828   3.018   1.080   2.281  0.3528 -0.2315  0.0650
  610SOL    HW1 1829   2.996   0.978   2.282 -0.9376 -0.3420  1.4125
  610SOL    HW2 1830   2.978   1.133   2.201 -0.6428 -0.5268 -0.9329
  611SOL     OW 1831   2.536   0.307   1.237 -0.6351 -0.3023  0.0385
  611SOL    HW1 1832   2.520   0.212   1.198 -0.6448  1.1552 -1.4557
  611SOL    HW2 1833   2.630   0.308   1.284  1.0324 -0.5972  0.3469
  612SOL     OW 1834   0.764   2.171   1.248  0.2966  0.1614 -0.3549
  612SOL    HW1 1835   0.685   2.102   1.272 -0.0259 -4.4458 -1.3485
  612SOL    HW2 1836   0.724   2.264   1.225 -1.0529 -1.3505  0.9854
  613SOL     OW 1837   0.990   1.428   2.356 -0.4558 -0.3416 -0.4767
  613SOL    HW1 1838   1.017   1.490   2.279  1.7325 -0.9428  2.8015
  613SOL    HW2 1839   0.904   1.371   2.329  1.8972 -2.6306  0.2202
  614SOL     OW 1840   1.648   1.529   1.744  0.6525  0.3254  0.3559
  614SOL    HW1 1841   1.582   1.608   1.738  2.7443  0.5580 -1.1632
  614SOL    HW2 1842   1.695   1.530   1.837  0.0610  2.3988  0.4863
  615SOL     OW 1843   0.787   1.271   1.737 -0.4351 -0.4023 -0.3850
  615SOL    HW1 1844   0.707   1.253   1.669 -0.8276  0.4733  1.2871
  615SOL    HW2 1845   0.836   1.369   1.721  2.7699  1.9247 -2.6706
  616SOL     OW 1846   1.042   1.565   2.145 -0.5457  0.1748  1.0958
  616SOL    HW1 1847   0.969   1.601   2.077 -1.8853 -0.0013 -1.2250
  616SOL    HW2 1848   1.090   1.646   2.190 -1.8382  1.4524 -3.0097
  617SOL     OW 1849   2.959   1.543   1.595 -0.0810 -0.4112 -0.1634
  617SOL    HW1 1850   2.967   1.444   1.634 -0.5853 -1.3874  0.3120
  617SOL    HW2 1851   2.971   1.550   1.491  1.6967  1.5445  0.0459
  618SOL     OW 1852   1.875   2.000   1.377  0.3342  0.4967  0.0742
  618SOL    HW1 1853   1.897   2.078   1.312 -0.8373 -1.6394  1.3316
  618SOL    HW2 1854   1.844   1.915   1.322 -1.4560 -0.1127 -0.1397
  619SOL     OW 1855   1.741   0.451   2.377  0.1904  0.4589  0.5818
  619SOL    HW1 1856   1.664   0.491   2.314 -2.5687  0.7356 -0.0950
  619SOL    HW2 1857   1.716   0.355   2.397 -0.2700 -1.6249  1.0290
  620SOL     OW 1858   2.252   2.818   0.761 -0.1003  0.0308 -0.2984
  620SOL    HW1 1859   2.154   2.831   0.785  0.9918 -0.2083  0.9858
  620SOL    HW2 1860   2.301   2.746   0.821  0.9701 -1.9107 -1.6031
  621SOL     OW 1861   2.182   1.936   1.337 -0.1159  0.2600  0.5409
  621SOL    HW1 1862   2.180   1.930   1.442  0.0554 -1.4570  0.7875
  621SOL    HW2 1863   2.158   1.844   1.295 -0.7835  1.2113 -1.0406
  622SOL     OW 1864   2.252   0.927   1.876  0.7391  0.0905  0.1758
  622SOL    HW1 1865   2.353   0.920   1.859 -0.1275 -2.1136  0.8618
  622SOL    HW2 1866   2.216   0.826   1.889 -0.5066 -3.0369 -3.4297
  623SOL     OW 1867   1.259   0.844   2.510 -0.2400 -0.1044  0.1288
  623SOL    HW1 1868   1.215   0.761   2.559 -1.9742 -0.7565  0.1073
  623SOL    HW2 1869   1.232   0.854   2.403  0.0167 -0.1406 -2.0279
  624SOL     OW 1870   0.497   0.659   3.008  0.3947  0.1273 -0.0329
  624SOL    HW1 1871   0.538   0.722   2.935 -1.4196  0.8246  0.7597
  624SOL    HW2 1872   0.491   0.711   3.098 -0.6608 -0.4618  1.8782
  625SOL     OW 1873   2.730   1.714   1.001 -0.2181 -0.1013 -0.0874
  625SOL    HW1 1874   2.642   1.767   0.999  0.1071 -1.8025 -0.3187
  625SOL    HW2 1875   2.809   1.772   1.030 -2.0899 -0.8750 -0.5764
  626SOL     OW 1876   0.632   2.688   1.761 -0.4119  0.1820  0.5417
  626SOL    HW1 1877   0.701   2.702   1.831 -1.0111 -0.0164 -0.9767
  626SOL    HW2 1878   0.542   2.663   1.800 -0.5192  1.9737  2.4256
  627SOL     OW 1879   0.645   0.825   1.706 -0.1770 -0.1888 -0.9375
  627SOL    HW1 1880   0.580   0.774   1.639 -0.1743  0.2053 -0.5062
  627SOL    HW2 1881   0.682   0.913   1.670 -1.4730 -1.2164  2.5539
  628SOL     OW 1882   2.360   0.098   0.751 -0.2402  0.2625  0.2788
  628SOL    HW1 1883   2.384   0.015   0.694  1.9536  0.7369  2.0489
  628SOL    HW2 1884   2.260   0.092   0.788  0.3158  0.5418 -1.2225
  629SOL     OW 1885   1.879   0.929   1.980  0.4235  0.0590 -0.0428
  629SOL    HW1 1886   1.875   0.997   1.901  0.2784  1.1665  0.7438
  629SOL    HW2 1887   1.952   0.942   2.054  0.6649 -1.2725  0.9655
  630SOL     OW 1888   2.925   2.204   0.792  0.3536 -0.1040 -0.2880
  630SOL    HW1 1889   2.868   2.295   0.802 -0.4440  1.5665 -1.6769
  630SOL    HW2 1890   2.869   2.129   0.752  0.3172  1.2733 -0.8455
  631SOL     OW 1891   3.035   0.106   2.036  0.0980  0.5534  0.4713
  631SOL    HW1 1892   3.115   0.142   2.094  0.5901 -1.7894  1.4685
  631SOL    HW2 1893   3.066   0.081   1.940 -1.1915 -2.4049  3.6688
  632SOL     OW 1894   2.482   2.583   0.602 -0.7357  0.0294  0.1592
  632SOL    HW1 1895   2.547   2.665   0.627 -2.0851  1.8260  1.8087
  632SOL    HW2 1896   2.388   2.607   0.581  1.5596 -0.2481  1.5278
  633SOL     OW 1897   1.467   1.264   2.662  0.3888 -0.2377 -0.7675
  633SOL    HW1 1898   1.441   1.331   2.741 -1.7953  0.5184  0.5911
  633SOL    HW2 1899   1.386   1.255   2.596  0.4140  0.8394 -0.5243
  634SOL     OW 1900   0.718   2.139   0.863 -0.1762 -0.7135 -0.0557
  634SOL    HW1 1901   0.633   2.123   0.921 -1.7854 -1.6654 -1.1644
  634SOL    HW2 1902   0.786   2.207   0.902  1.2467 -0.8144 -1.1392
  635SOL     OW 1903   3.043   2.420   0.000  0.2880 -0.7692  0.2370
  635SOL    HW1 1904   2.948   2.465  -0.008  1.6935  1.6159  0.7024
  635SOL    HW2 1905   3.115   2.489   0.028  1.6600 -1.5881  0.5302
  636SOL     OW 1906   2.376   2.720   2.061  0.0343  0.3970  0.2235
  636SOL    HW1 1907   2.319   2.800   2.093 -0.4925 -0.5029  0.6575
  636SOL    HW2 1908   2.331   2.633   2.100 -0.1003  2.5940  0.6262
  637SOL     OW 1909   2.677   0.601   1.952 -0.2271 -0.7008  0.2197
  637SOL    HW1 1910   2.584   0.627   1.914  1.5508 -3.7948 -0.8632
  637SOL    HW2 1911   2.749   0.673   1.948 -0.1003 -1.4680  1.0754
  638SOL     OW 1912   2.481   1.880   1.345 -0.2819 -0.2348 -0.0733
  638SOL    HW1 1913   2.405   1.937   1.384 -0.0727 -0.1118  0.0851
  638SOL    HW2 1914   2.490   1.783   1.380  1.7554 -0.4566 -0.4905
  639SOL     OW 1915   1.262   2.210   1.585 -0.0160  0.3034  1.0832
  639SOL    HW1 1916   1.315   2.296   1.589 -2.3936  1.6436 -0.2672
  639SOL    HW2 1917   1.235   2.180   1.678  2.6757  1.2281 -1.5849
  640SOL     OW 1918   0.181   1.233   1.547  0.0803  0.4618  0.5135
  640SOL    HW1 1919   0.168   1.244   1.650 -1.3631 -3.2725  0.1321
  640SOL    HW2 1920   0.265   1.172   1.518  0.0044 -1.8942  1.2474
  641SOL     OW 1921   1.978   0.262   1.515  0.1221 -0.3896 -0.0941
  641SOL    HW1 1922   1.931   0.315   1.594  0.9243 -0.5766  2.3233
  641SOL    HW2 1923   2.077   0.270   1.524 -2.2347  0.9772 -1.1378
  642SOL     OW 1924   2.028   3.065   0.349  0.1814  0.2881 -0.6711
  642SOL    HW1 1925   2.110   3.121   0.362 -0.4948 -0.6877 -0.0562
  642SOL    HW2 1926   1.946   3.091   0.402  0.9393 -0.5413 -0.7650
  643SOL     OW 1927   2.920   1.936   2.079 -0.5662  0.2381 -0.1074
  643SOL    HW1 1928   2.856   1.875   2.022 -0.0442 -2.9419  0.8841
  643SOL    HW2 1929   2.926   2.032   2.035 -0.8939 -0.0048 -1.3701
  644SOL     OW 1930   2.286   2.409   1.276  0.3007 -0.6611 -0.2525
  644SOL    HW1 1931   2.373   2.379   1.231 -0.8568  0.1562 -0.6103
  644SOL    HW2 1932   2.272   2.384   1.373  1.0215  2.0376 -2.2543
  645SOL     OW 1933   0.682   0.815   1.266  0.6642  0.7108 -0.0401
  645SOL    HW1 1934   0.586   0.772   1.271 -0.5683  0.0757  0.8014
  645SOL    HW2 1935   0.707   0.872   1.185 -1.3365 -0.5305 -1.1285
  646SOL     OW 1936   1.516   1.755   2.026 -0.0006  0.2588 -0.1497
  646SOL    HW1 1937   1.575   1.811   1.966 -3.1845  0.7650 -1.9852
  646SOL    HW2 1938   1.554   1.736   2.119 -1.5999  1.2334 -1.0600
  647SOL     OW 1939   0.764   1.083   0.606  0.4204  0.7256  0.6133
  647SOL    HW1 1940   0.831   1.094   0.684  1.4168 -2.1281  0.6991
  647SOL    HW2 1941   0.701   0.999   0.618 -0.8778 -0.2364 -0.6079
  648SOL     OW 1942   0.178   0.240   0.375  0.4184  0.2485 -0.0524
  648SOL    HW1 1943   0.116   0.154   0.371  0.3729 -1.6001 -0.4257
  648SOL    HW2 1944   0.150   0.321   0.308  2.2390  0.3372 -0.2738
  649SOL     OW 1945   3.000   0.273   0.933 -0.2128  0.2658 -0.3446
  649SOL    HW1 1946   3.064   0.266   0.853  1.7581  0.8570 -0.8924
  649SOL    HW2 1947   3.051   0.272   1.025 -0.9658  0.4190  1.3074
  650SOL     OW 1948   2.805   0.706   1.443  0.4325  0.0575  0.5848
  650SOL    HW1 1949   2.706   0.681   1.446  1.1531  2.5237  1.0255
  650SOL    HW2 1950   2.818   0.793   1.391 -1.6761 -2.0738  2.2348
  651SOL     OW 1951   0.876   1.533   1.694  0.4420  0.4272 -0.4045
  651SOL    HW1 1952   0.859   1.591   1.779 -0.0668 -2.0012  1.5633
  651SOL    HW2 1953   0.975   1.527   1.667 -0.4176  0.9337  0.0833
  652SOL     OW 1954   2.329   2.547   2.507  0.2781 -0.5588 -0.1261
  652SOL    HW1 1955   2.225   2.538   2.528 -0.8901 -1.9154  0.0887
  652SOL    HW2 1956   2.355   2.639   2.462  0.5242  1.4422 -1.5988
  653SOL     OW 1957   2.700   1.244   0.181  0.4482  0.3696  0.1498
  653SOL    HW1 1958   2.710   1.331   0.231 -1.1219  0.3790 -2.2354
  653SOL    HW2 1959   2.771   1.173   0.211  2.0530  1.3245  0.6882
  654SOL     OW 1960   1.195   2.091   1.254  0.1247  0.6323  0.1299
  654SOL    HW1 1961   1.162   2.002   1.288 -0.4339  1.9145 -2.4767
  654SOL    HW2 1962   1.251   2.079   1.168  1.6842  0.6125 -1.3356
  655SOL     OW 1963   0.186   0.986   1.914  0.4802  0.1802  0.4839
  655SOL    HW1 1964   0.260   0.949   1.853 -1.4101  0.5058 -1.8689
  655SOL    HW2 1965   0.178   1.087   1.895 -0.5387  0.4479  1.2516
  656SOL     OW 1966   2.562   2.533   2.637  0.4778 -0.2051 -0.1275
  656SOL    HW1 1967   2.647   2.498   2.585  3.2328 -0.7938  1.2094
  656SOL    HW2 1968   2.473   2.528   2.582  1.1529  1.0203 -0.9219
  657SOL     OW 1969   3.013   1.048   1.952 -0.0167  0.9183 -0.2601
  657SOL    HW1 1970   2.989   1.145   1.974  0.2464 -1.3371  0.8375
  657SOL    HW2 1971   3.114   1.027   1.936  1.3608  0.9480  1.3039
  658SOL     OW 1972   1.665   0.156   2.330 -0.4645  0.0782  0.2680
  658SOL    HW1 1973   1.699   0.110   2.422  1.1619  1.1398  1.1824
  658SOL    HW2 1974   1.719   0.120   2.246 -0.7744  0.8897 -3.0254
  659SOL     OW 1975   1.433   0.687   2.814  0.0333 -0.0970  0.3243
  659SOL    HW1 1976   1.484   0.747   2.741  1.5169  1.1449 -1.5219
  659SOL    HW2 1977   1.327   0.692   2.802  1.8600 -0.2670 -1.3718
  660SOL     OW 1978   1.434   0.287   1.403 -0.1961  0.4145 -0.0288
  660SOL    HW1 1979   1.441   0.327   1.500  0.2213  1.3495 -0.0381
  660SOL    HW2 1980   1.512   0.226   1.383 -2.4293  1.6149  4.2821
  661SOL     OW 1981   2.389   1.273   0.670 -0.0727 -0.2071 -0.1217
  661SOL    HW1 1982   2.408   1.286   0.572  2.7132  1.7503 -0.6112
  661SOL    HW2 1983   2.321   1.341   0.701  2.0347 -3.3683  1.0800
  662SOL     OW 1984   1.470   0.388   1.677 -0.1208 -0.3842  0.0957
  662SOL    HW1 1985   1.407   0.349   1.746  0.4867  0.8898  0.9340
  662SOL    HW2 1986   1.463   0.496   1.682  0.1649  2.2676  1.8628
  663SOL     OW 1987   0.800   1.618   1.935  0.5157 -0.1045  0.2203
  663SOL    HW1 1988   0.784   1.700   1.985  2.3542 -2.0919 -1.9577
  663SOL    HW2 1989   0.761   1.531   1.976 -0.3033 -0.4492 -0.3516
  664SOL     OW 1990   1.611   2.089   1.428  0.1748  0.8546 -0.0820
  664SOL    HW1 1991   1.538   2.026   1.468 -0.5742  1.0614  0.1420
  664SOL    HW2 1992   1.699   2.038   1.396 -2.3837 -0.5693 -0.2295
  665SOL     OW 1993   2.249   0.679   2.003  0.1546  0.4658 -0.2603
  665SOL    HW1 1994   2.231   0.582   2.028 -0.6914  0.4179  1.0173
  665SOL    HW2 1995   2.327   0.714   2.063 -1.1827 -1.5247 -0.8718
  666SOL     OW 1996   0.463   2.237   0.374  0.1379 -0.5800 -0.4596
  666SOL    HW1 1997   0.494   2.335   0.395 -0.7202  1.2972 -1.0894
  666SOL    HW2 1998   0.361   2.235   0.359  1.5880 -1.4154 -0.3117
  667SOL     OW 1999   2.035   0.208   1.092 -0.1575  0.3704  0.1464
  667SOL    HW1 2000   2.064   0.309   1.098  0.6497  1.4812 -1.2905
  667SOL    HW2 2001   1.948   0.181   1.149 -0.8523 -1.1272  3.2474
  668SOL     OW 2002   1.982   0.496   1.067  0.2316  0.1326 -0.5708
  668SOL    HW1 2003   2.060   0.526   1.010 -2.6729  0.2358 -0.9401
  668SOL    HW2 2004   2.002   0.516   1.168 -1.0807  1.1601  2.4705
  669SOL     OW 2005   3.044   2.138   1.019 -0.1568  0.0974  0.0828
  669SOL    HW1 2006   2.996   2.166   0.927 -3.0339 -0.6126  0.8501
  669SOL    HW2 2007   3.009   2.194   1.098  3.2510  1.4879 -1.1166
  670SOL     OW 2008   2.942   2.373   2.152 -0.2215 -0.7713 -0.6611
  670SOL    HW1 2009   2.849   2.348   2.201 -0.2764 -1.3471  0.0715
  670SOL    HW2 2010   2.932   2.475   2.120  1.6369  0.5209  0.7301
  671SOL     OW 2011   1.774   1.646   1.524 -0.6536  0.2107 -0.5435
  671SOL    HW1 2012   1.751   1.672   1.424 -2.1968 -2.1963  0.3874
  671SOL    HW2 2013   1.703   1.591   1.577  0.8941  1.5230 -1.1528
  672SOL     OW 2014   0.473   0.703   2.592 -0.6087 -0.6066  0.2264
  672SOL    HW1 2015   0.396   0.728   2.526 -1.0514  1.5091  0.5786
  672SOL    HW2 2016   0.453   0.717   2.687  0.2972 -3.6657  1.9361
  673SOL     OW 2017   0.078   1.403   1.059  0.0650 -0.5081  0.3088
  673SOL    HW1 2018   0.042   1.493   1.094  0.7344 -0.2582  0.6925
  673SOL    HW2 2019   0.131   1.407   0.972 -0.8643  0.9455  4.0245
  674SOL     OW 2020   1.561   3.012   0.231  0.2649 -0.1620 -0.0425
  674SOL    HW1 2021   1.620   3.095   0.200 -1.2985  2.8896 -3.5497
  674SOL    HW2 2022   1.558   2.943   0.152  2.0261 -0.7245  0.5179
  675SOL     OW 2023   1.639   0.855   2.313 -0.2015 -0.0466  0.3516
  675SOL    HW1 2024   1.743   0.860   2.332  2.6012  0.6235  0.9570
  675SOL    HW2 2025   1.603   0.755   2.305  0.4187  0.3571  0.3211
  676SOL     OW 2026   2.560   1.554   2.005 -0.1219  0.0071 -0.3928
  676SOL    HW1 2027   2.537   1.509   1.919  2.3725  2.2307  2.2227
  676SOL    HW2 2028   2.605   1.493   2.080 -0.6635 -1.7091  0.1990
  677SOL     OW 2029   1.843   0.716   0.885  0.2652  0.3881 -0.1583
  677SOL    HW1 2030   1.761   0.683   0.940 -0.2100 -0.9754 -0.6307
  677SOL    HW2 2031   1.936   0.709   0.933 -0.2333  0.8169  2.1697
  678SOL     OW 2032   0.076   0.825   1.649 -0.3449  0.3410  0.0735
  678SOL    HW1 2033   0.160   0.867   1.692  0.6548  0.1006  0.0771
  678SOL    HW2 2034   0.032   0.744   1.702 -0.8200 -0.3271 -0.1716
  679SOL     OW 2035   2.567   1.106   1.222 -0.2396 -0.7002 -0.1660
  679SOL    HW1 2036   2.469   1.136   1.227 -1.4676 -0.6351 -2.4053
  679SOL    HW2 2037   2.577   1.007   1.191 -0.3735  1.2323  2.7151
  680SOL     OW 2038   2.814   0.542   1.690  0.0037  0.2585  0.2375
  680SOL    HW1 2039   2.776   0.586   1.603 -0.5825  0.1108 -0.3729
  680SOL    HW2 2040   2.909   0.575   1.710 -0.9900  2.1435  1.9427
  681SOL     OW 2041   3.002   0.029   1.562 -0.3589 -0.6976 -0.1333
  681SOL    HW1 2042   2.990  -0.010   1.466  0.2023 -1.6273 -0.4043
  681SOL    HW2 2043   2.974   0.133   1.561  2.3239  2.3389  1.7031
  682SOL     OW 2044   0.621   0.075   1.283 -0.1351  0.0356  0.0710
  682SOL    HW1 2045   0.562   0.003   1.329  0.5777 -1.1179 -0.4820
  682SOL    HW2 2046   0.705   0.032   1.243 -0.9503  1.2605  2.1541
  683SOL     OW 2047   1.351   0.277   2.184 -0.0822  0.0732 -0.5094
  683SOL    HW1 2048   1.340   0.337   2.264  0.5091 -0.1365 -3.6997
  683SOL    HW2 2049   1.438   0.287   2.135 -0.2744  1.2114 -1.9298
  684SOL     OW 2050   1.393   2.155   0.581  0.7484  0.0415  0.1669
  684SOL    HW1 2051   1.430   2.097   0.658 -1.1029 -1.4593 -1.7291
  684SOL    HW2 2052   1.303   2.119   0.540  0.2072  0.9798  0.1432
  685SOL     OW 2053   2.246   2.078   1.974 -0.1386 -0.1650 -0.1225
  685SOL    HW1 2054   2.264   1.975   1.972 -1.6044 -1.0804  2.0117
  685SOL    HW2 2055   2.272   2.126   2.064  1.8192 -0.3602  1.1211
  686SOL     OW 2056   1.560   1.871   2.909  0.4219  0.3241  0.4893
  686SOL    HW1 2057   1.563   1.818   3.000 -0.4351  1.9706  1.5209
  686SOL    HW2 2058   1.464   1.889   2.883  1.6575  0.5834  1.6181
  687SOL     OW 2059   1.394   2.440   1.968 -0.4016 -0.7306 -0.3821
  687SOL    HW1 2060   1.398   2.340   1.974  0.4160 -0.2021  0.6195
  687SOL    HW2 2061   1.361   2.486   2.059 -0.6011  2.8421  0.1880
  688SOL     OW 2062   2.054   1.494   1.718 -0.0006 -0.5921  0.1397
  688SOL    HW1 2063   2.129   1.562   1.703  1.0417 -0.8540 -2.1957
  688SOL    HW2 2064   2.008   1.471   1.627  0.9172 -0.2890 -0.2923
  689SOL     OW 2065   2.356   1.120   2.799  0.3918  0.1960 -0.2841
  689SOL    HW1 2066   2.259   1.076   2.795 -0.5696  0.0021  0.3545
  689SOL    HW2 2067   2.415   1.063   2.869 -0.0733 -0.7608 -0.3655
  690SOL     OW 2068   2.213   2.748   0.033 -0.4621 -0.4995  0.1997
  690SOL    HW1 2069   2.135   2.737  -0.031  0.5526 -1.0585  3.3486
  690SOL    HW2 2070   2.177   2.796   0.123  1.7604  2.3781 -2.5653
  691SOL     OW 2071   2.567   0.392   2.096  0.0957 -0.0185  0.4386
  691SOL    HW1 2072   2.618   0.307   2.068 -0.7267 -1.0548  0.5799
  691SOL    HW2 2073   2.608   0.477   2.055 -0.8481 -2.6355  1.2766
  692SOL     OW 2074   2.678   1.193   0.744  0.0053 -0.4149  0.3585
  692SOL    HW1 2075   2.595   1.188   0.685  0.7788 -1.3704  2.2920
  692SOL    HW2 2076   2.694   1.286   0.778 -0.9854 -0.3137 -0.3078
  693SOL     OW 2077   2.886   2.926   0.654 -0.1775  0.4602 -0.3292
  693SOL    HW1 2078   2.870   2.999   0.728  1.0429  1.1333  1.1894
  693SOL    HW2 2079   2.881   2.968   0.559  2.3015  1.5680 -2.2338
  694SOL     OW 2080   2.375   2.242   0.122 -0.0770 -0.7619  0.3249
  694SOL    HW1 2081   2.383   2.328   0.173 -1.7609  0.9885 -3.0869
  694SOL    HW2 2082   2.280   2.222   0.082 -3.5054 -1.5031 -0.3294
  695SOL     OW 2083   0.497   3.018   1.464 -0.0172 -0.2926  0.6629
  695SOL    HW1 2084   0.426   2.956   1.423 -0.7489  2.8213  2.4164
  695SOL    HW2 2085   0.457   3.065   1.546  3.7904  0.9025 -2.2336
  696SOL     OW 2086   2.748   1.979   0.777 -0.1291 -0.2286  0.2023
  696SOL    HW1 2087   2.827   1.916   0.792  1.6581  2.3549  0.2448
  696SOL    HW2 2088   2.702   1.969   0.686 -0.7980  1.0134 -1.8966
  697SOL     OW 2089   1.694   1.845   1.823 -0.6943  0.1953 -0.7537
  697SOL    HW1 2090   1.791   1.813   1.790  1.2709  0.3839  0.3449
  697SOL    HW2 2091   1.685   1.949   1.831 -1.4019 -1.0219 -1.1835
  698SOL     OW 2092   2.905   0.406   2.674 -0.3909  0.5468 -0.2338
  698SOL    HW1 2093   2.932   0.389   2.577  0.6858  1.1895  0.7409
  698SOL    HW2 2094   2.967   0.356   2.743  1.8799  0.9138  0.4496
  699SOL     OW 2095   1.652   0.098   2.922 -0.5503 -0.4460 -0.3537
  699SOL    HW1 2096   1.598   0.022   2.881 -1.5310 -0.1948  1.9357
  699SOL    HW2 2097   1.678   0.172   2.854  0.7754 -0.1755  0.2520
  700SOL     OW 2098   1.018   2.263   1.340  0.4262 -0.3949 -0.2261
  700SOL    HW1 2099   1.092   2.198   1.316 -4.4439 -2.9385 -1.4307
  700SOL    HW2 2100   0.919   2.225   1.328 -0.4404 -2.4498 -1.4878
  701SOL     OW 2101   1.898   2.886   0.014  0.4790 -0.1699  0.3051
  701SOL    HW1 2102   1.863   2.847   0.107 -0.9254 -0.8289 -2.1794
  701SOL    HW2 2103   1.945   2.975   0.040 -1.8098 -0.3221 -0.4887
  702SOL     OW 2104   2.107   1.370   1.951 -0.3267 -0.2826 -0.0724
  702SOL    HW1 2105   2.182   1.301   1.944 -0.6446 -0.7935  1.5236
  702SOL    HW2 2106   2.089   1.414   1.860  2.7542 -0.0509  0.3471
  703SOL     OW 2107   1.983   0.910   1.452 -0.4654 -0.7619  0.0563
  703SOL    HW1 2108   1.951   0.815   1.479 -0.1317 -1.5641  1.0704
  703SOL    HW2 2109   2.031   0.957   1.530 -2.3721  0.6665 -0.1547
  704SOL     OW 2110   0.329   2.076   1.741 -0.0134 -0.0141  0.2493
  704SOL    HW1 2111   0.370   2.031   1.828 -1.6497 -1.4064 -0.7586
  704SOL    HW2 2112   0.393   2.139   1.691  1.0581  0.5646  1.9616
  705SOL     OW 2113   2.481   1.411   0.897 -0.2488 -0.0378 -0.2686
  705SOL    HW1 2114   2.440   1.341   0.835 -0.5468  0.3727  0.5282
  705SOL    HW2 2115   2.586   1.405   0.900 -0.1036  2.0805 -4.0111
  706SOL     OW 2116   0.564   1.725   1.791  0.8375 -0.3021  0.1625
  706SOL    HW1 2117   0.568   1.728   1.691 -0.5389  1.4200  2.4212
  706SOL    HW2 2118   0.649   1.678   1.834 -0.1181  0.2030 -1.8100
  707SOL     OW 2119   2.332   1.213   1.931  0.2499  0.3166  1.2869
  707SOL    HW1 2120   2.411   1.202   1.995  0.1675  0.2093  0.0046
  707SOL    HW2 2121   2.295   1.120   1.901  0.2747 -0.2444 -1.4992
  708SOL     OW 2122   3.032   0.512   3.023 -0.4122  0.0799  0.8518
  708SOL    HW1 2123   3.070   0.585   2.970 -1.5967 -0.6687  2.9258
  708SOL    HW2 2124   3.032   0.420   2.979  0.7240  0.8483  1.1415
  709SOL     OW 2125   1.860   1.902   0.405  0.1001 -0.2203 -0.6200
  709SOL    HW1 2126   1.866   2.003   0.423  1.1450  0.3702 -1.6499
  709SOL    HW2 2127   1.855   1.877   0.301 -1.7363 -1.1914 -1.6796
  710SOL     OW 2128   1.760   1.537   2.467  0.0150  0.2033  0.3088
  710SOL    HW1 2129   1.834   1.496   2.411 -0.4181  0.1418  0.5957
  710SOL    HW2 2130   1.765   1.512   2.572  2.4863 -0.7603  1.8098
  711SOL     OW 2131   2.709   2.865   0.968  0.3724  0.2846  0.1272
  711SOL    HW1 2132   2.653   2.943   0.934 -1.8037 -2.8452  0.3626
  711SOL    HW2 2133   2.793   2.893   1.015 -0.1824  1.1241 -0.9835
  712SOL     OW 2134   1.376   2.122   1.948  0.1873 -0.6487  0.4966
  712SOL    HW1 2135   1.464   2.116   1.891  3.0029  1.3713 -0.8305
  712SOL    HW2 2136   1.293   2.144   1.895 -0.8446 -0.1351  1.1665
  713SOL     OW 2137   2.782   1.434   2.524 -0.0140 -0.3321 -0.2049
  713SOL    HW1 2138   2.788   1.327   2.530  1.1516 -1.7454 -1.3155
  713SOL    HW2 2139   2.703   1.466   2.583 -1.7441  0.2801 -1.7296
  714SOL     OW 2140   2.672   0.461   2.359 -0.1491  0.0331 -0.0836
  714SOL    HW1 2141   2.655   0.386   2.437  1.5933 -0.5609  3.1209
  714SOL    HW2 2142   2.627   0.430   2.270  1.4785  0.1965 -1.7311
  715SOL     OW 2143   1.618   2.159   1.162 -0.6970 -0.2361 -0.5141
  715SOL    HW1 2144   1.524   2.204   1.138 -2.2073  0.8006 -0.7196
  715SOL    HW2 2145   1.613   2.130   1.262 -0.0893 -0.6624 -1.8866
  716SOL     OW 2146   1.249   0.105   1.554 -0.0327 -0.1928 -0.1782
  716SOL    HW1 2147   1.152   0.132   1.534 -0.8579  3.0074 -1.3640
  716SOL    HW2 2148   1.309   0.177   1.517  1.1042  1.6581  1.0255
  717SOL     OW 2149   1.165   0.580   1.627 -0.0991 -0.2072 -0.0625
  717SOL    HW1 2150   1.261   0.606   1.652 -2.0591 -0.2384  1.4785
  717SOL    HW2 2151   1.151   0.559   1.522 -1.1784 -1.5863  0.3012
  718SOL     OW 2152   0.649   0.903   0.953 -0.1453  0.1986 -0.0943
  718SOL    HW1 2153   0.621   0.915   0.853  0.0107  0.2183 -1.6337
  718SOL    HW2 2154   0.641   0.991   1.006  2.4014 -0.7701  1.6530
  719SOL     OW 2155   0.724   1.711   2.276  0.0244  0.1014 -0.0038
  719SOL    HW1 2156   0.769   1.752   2.356 -0.5572 -1.5638  0.9545
  719SOL    HW2 2157   0.642   1.647   2.300 -1.3741 -0.0696 -2.4073
  720SOL     OW 2158   2.143   1.165   0.280 -0.1400 -0.4195 -0.4331
  720SOL    HW1 2159   2.232   1.125   0.243  0.2758 -0.6130  0.6362
  720SOL    HW2 2160   2.142   1.163   0.381  0.4864 -1.5992 -2.1982
  721SOL     OW 2161   2.254   2.945   2.149  0.3454  0.7822  0.1221
  721SOL    HW1 2162   2.262   2.974   2.054  0.2954 -2.2849  2.3405
  721SOL    HW2 2163   2.153   2.940   2.171  0.0696  2.9717 -0.4766
  722SOL     OW 2164   2.344   1.696   0.535  0.5936 -0.0493 -0.2423
  722SOL    HW1 2165   2.399   1.717   0.448  0.6977  2.6989 -3.1597
  722SOL    HW2 2166   2.250   1.747   0.533 -1.3094 -1.4416  1.2211
  723SOL     OW 2167   2.642   2.760   1.941  0.4649  0.1572  0.0111
  723SOL    HW1 2168   2.690   2.847   1.974  0.0844  0.3902  0.1985
  723SOL    HW2 2169   2.546   2.740   1.984 -2.0925 -1.2006 -1.8198
  724SOL     OW 2170   0.364   2.520   2.414 -0.0402 -0.2115  0.3491
  724SOL    HW1 2171   0.258   2.530   2.407 -2.3767 -0.8721 -0.5834
  724SOL    HW2 2172   0.397   2.494   2.506 -2.7033 -1.4362 -0.9852
  725SOL     OW 2173   2.453   2.821   1.449  0.0604 -0.3243 -0.2422
  725SOL    HW1 2174   2.505   2.830   1.365 -4.0912 -1.7506  2.2765
  725SOL    HW2 2175   2.460   2.721   1.489  1.2453 -0.5644 -1.2280
  726SOL     OW 2176   2.500   2.333   0.722  0.2115  0.3498 -0.1064
  726SOL    HW1 2177   2.496   2.428   0.679  0.1076 -1.9819 -2.2905
  726SOL    HW2 2178   2.468   2.262   0.656  2.3487 -2.2539 -2.0591
  727SOL     OW 2179   0.115   3.076   0.121 -0.2176  0.3776  0.2165
  727SOL    HW1 2180   0.209   3.119   0.086  1.7100 -0.8443 -0.9543
  727SOL    HW2 2181   0.077   3.004   0.056  1.6910 -3.8043  1.0593
  728SOL     OW 2182   2.910   0.741   0.963 -0.6381 -0.2108  0.2299
  728SOL    HW1 2183   2.853   0.713   0.882  0.2619  1.9038  0.2250
  728SOL    HW2 2184   2.899   0.686   1.049 -1.0422  0.8476  0.5915
  729SOL     OW 2185   0.015   2.560   0.778 -0.2309  0.3825 -0.1385
  729SOL    HW1 2186   0.059   2.501   0.857  2.2648 -0.4267  1.0526
  729SOL    HW2 2187   0.083   2.577   0.697  0.8856  3.8506 -2.1282
  730SOL     OW 2188   2.561   0.722   0.893  0.1049 -0.1769 -0.4472
  730SOL    HW1 2189   2.552   0.826   0.895 -3.3313  0.3141 -2.0571
  730SOL    HW2 2190   2.607   0.688   0.806  3.3591 -1.3114  0.1788
  731SOL     OW 2191   3.080   2.233   2.346 -0.0549 -0.2274 -0.3581
  731SOL    HW1 2192   3.015   2.250   2.423  2.6541  0.3436 -1.0584
  731SOL    HW2 2193   3.037   2.269   2.255 -3.7220 -2.3521 -0.2577
  732SOL     OW 2194   1.316   2.753   1.975 -0.7212  0.0325  0.0010
  732SOL    HW1 2195   1.320   2.689   2.054  1.6806 -0.3969 -0.8307
  732SOL    HW2 2196   1.296   2.709   1.882 -0.1619 -0.1904 -0.7025
  733SOL     OW 2197   0.023   0.615   2.247  0.5404 -0.4649  0.2475
  733SOL    HW1 2198   0.094   0.662   2.184 -1.2758 -0.0316 -0.9076
  733SOL    HW2 2199  -0.041   0.555   2.191  0.0077 -2.0150  1.3366
  734SOL     OW 2200   1.486   0.389   2.706 -0.2261  0.0169  0.0666
  734SOL    HW1 2201   1.513   0.485   2.742 -1.2586  1.7965 -3.0241
  734SOL    HW2 2202   1.400   0.344   2.749  0.2444 -0.6380  0.9234
  735SOL     OW 2203   2.928   2.640   2.308  1.1357 -0.2373 -0.4602
  735SOL    HW1 2204   2.917   2.645   2.201 -1.0229 -0.2262 -2.6054
  735SOL    HW2 2205   3.024   2.617   2.335 -0.1487  0.1479  0.3838
  736SOL     OW 2206   0.901   0.396   2.537  0.0246 -0.0638  0.6109
  736SOL    HW1 2207   0.806   0.432   2.554 -0.7020  0.5108 -1.4952
  736SOL    HW2 2208   0.907   0.349   2.443 -2.6321 -1.8335 -0.0214
  737SOL     OW 2209   2.672   0.482   2.784 -0.1260 -0.6627 -0.1782
  737SOL    HW1 2210   2.650   0.439   2.874  0.4280  1.4288 -0.5245
  737SOL    HW2 2211   2.757   0.441   2.727  2.7792 -1.1653  2.1457
  738SOL     OW 2212   1.769   1.217   2.899 -0.5564 -0.1763  1.0522
  738SOL    HW1 2213   1.871   1.201   2.877  0.3028  1.4832  0.1003
  738SOL    HW2 2214   1.702   1.150   2.861  2.1060 -0.6456 -0.8812
  739SOL     OW 2215   1.840   0.717   0.608 -0.0487  0.0600 -0.6328
  739SOL    HW1 2216   1.811   0.719   0.712 -1.6821  0.5167  1.8062
  739SOL    HW2 2217   1.857   0.623   0.581 -0.4947  2.7535  1.6764
  740SOL     OW 2218   1.959   1.947   2.345 -0.2388 -0.2286 -0.1105
  740SOL    HW1 2219   2.017   1.865   2.380 -0.3025 -0.8827  0.9131
  740SOL    HW2 2220   1.896   1.913   2.278  2.3902  1.9761  1.4051
  741SOL     OW 2221   2.538   0.108   2.458  0.0345 -0.4990  0.1845
  741SOL    HW1 2222   2.636   0.078   2.441 -0.6154  0.7552 -0.9970
  741SOL    HW2 2223   2.482   0.107   2.368  0.5815  1.0843  0.3408
  742SOL     OW 2224   2.214   1.459   0.182  0.1677 -0.3735  0.0247
  742SOL    HW1 2225   2.128   1.522   0.189 -1.4753  1.7016 -1.4596
  742SOL    HW2 2226   2.195   1.361   0.201  0.4988 -1.1717  0.8291
  743SOL     OW 2227   1.811   0.627   2.555  0.8153 -0.1122  0.1111
  743SOL    HW1 2228   1.784   0.549   2.489 -2.1804 -0.5797  3.8600
  743SOL    HW2 2229   1.731   0.691   2.572  1.5535 -0.8662  0.3455
  744SOL     OW 2230   2.658   2.133   0.144 -0.2813  0.1143 -0.3976
  744SOL    HW1 2231   2.571   2.136   0.202 -1.8933 -2.3227 -1.4091
  744SOL    HW2 2232   2.680   2.039   0.098  0.3475  0.9381  2.7229
  745SOL     OW 2233   2.178   2.499   2.214 -0.5317  0.2802 -0.1827
  745SOL    HW1 2234   2.115   2.535   2.142  1.7227 -1.3830  0.7321
  745SOL    HW2 2235   2.140   2.502   2.312 -2.1625 -0.1087  1.0728
  746SOL     OW 2236   3.089   2.555   1.778  0.0411  0.2977 -0.4492
  746SOL    HW1 2237   3.179   2.526   1.741 -0.2854  0.1715  1.7806
  746SOL    HW2 2238   3.090   2.641   1.838  0.0303 -0.1338  0.6878
  747SOL     OW 2239   3.096   1.784   1.672 -0.1252 -0.1095 -0.2239
  747SOL    HW1 2240   3.032   1.700   1.675  0.7968 -0.0475  3.0583
  747SOL    HW2 2241   3.174   1.766   1.603  3.6782  3.4856 -0.8676
  748SOL     OW 2242   1.814   2.700   2.946 -0.3052  0.0541 -0.1879
  748SOL    HW1 2243   1.847   2.792   2.989  1.2555 -1.4683 -1.2739
  748SOL    HW2 2244   1.716   2.712   2.904  1.0412 -1.0314  5.1556
  749SOL     OW 2245   1.288   2.918   0.817  0.0286  0.3096  0.0890
  749SOL    HW1 2246   1.200   2.954   0.805  2.5120 -0.7033  0.1642
  749SOL    HW2 2247   1.367   2.979   0.778  2.2299 -0.5075  2.1469
  750SOL     OW 2248   2.270   0.214   1.870 -0.5386 -0.4080  0.2433
  750SOL    HW1 2249   2.310   0.258   1.787  2.6486 -1.2062 -2.4921
  750SOL    HW2 2250   2.277   0.284   1.944  2.5543 -1.4312 -0.0541
  751SOL     OW 2251   0.806   2.156   2.912 -0.3071  0.5570 -0.1383
  751SOL    HW1 2252   0.889   2.115   2.965  0.4603 -1.5760 -0.7966
  751SOL    HW2 2253   0.716   2.114   2.938 -0.0881  0.5466  0.1062
  752SOL     OW 2254   1.358   0.807   1.139 -0.2420  0.0026  0.3487
  752SOL    HW1 2255   1.377   0.911   1.156  0.8613  0.8651 -2.7223
  752SOL    HW2 2256   1.403   0.746   1.206 -0.5917  0.5446  0.7778
  753SOL     OW 2257   0.998   2.601   1.806 -0.1440  0.0285 -0.5311
  753SOL    HW1 2258   1.094   2.601   1.790 -0.5781 -0.3447  0.9538
  753SOL    HW2 2259   0.963   2.688   1.839  0.6698 -0.7604  0.8761
  754SOL     OW 2260   1.149   1.179   2.996  0.4822 -0.4071 -0.0091
  754SOL    HW1 2261   1.219   1.122   2.943  0.0587  0.3957  0.2635
  754SOL    HW2 2262   1.188   1.235   3.075  0.6249 -0.7141 -0.4278
  755SOL     OW 2263   1.955   0.483   2.202  0.4486  0.2367  0.4320
  755SOL    HW1 2264   2.026   0.397   2.196  0.9139 -3.1282 -0.4260
  755SOL    HW2 2265   1.889   0.471   2.280  2.6740 -2.3036 -0.2146
  756SOL     OW 2266   2.511   0.984   2.980  0.1089 -0.1017  0.5180
  756SOL    HW1 2267   2.609   0.942   2.989  0.8626  1.1048  0.5196
  756SOL    HW2 2268   2.443   0.907   2.991  0.6227  0.9806  0.4730
  757SOL     OW 2269   0.115   0.424   1.968 -0.2317  0.1133 -0.0193
  757SOL    HW1 2270   0.172   0.344   1.971 -3.3939  0.3439  1.1268
  757SOL    HW2 2271   0.034   0.426   2.035  0.7050  0.7298  1.8228
  758SOL     OW 2272   2.312   0.073   1.444  0.0500 -0.0526  0.7741
  758SOL    HW1 2273   2.275  -0.005   1.496  0.1629  0.5418  1.9586
  758SOL    HW2 2274   2.288   0.078   1.343 -0.2025 -0.1281  0.6226
  759SOL     OW 2275   1.710   0.119   0.091 -0.4060 -0.4397  0.3973
  759SOL    HW1 2276   1.697   0.103  -0.014 -0.2151  2.2234 -2.8903
  759SOL    HW2 2277   1.805   0.083   0.123  0.6854  1.8994  1.8399
  760SOL     OW 2278   2.713   2.037   2.839 -0.0766 -1.1700  0.0554
  760SOL    HW1 2279   2.650   2.110   2.886  0.2088  2.4341 -2.6061
  760SOL    HW2 2280   2.802   2.078   2.807 -1.1416 -2.1093  1.8804
  761SOL     OW 2281   1.938   1.786   1.712 -0.5223  0.0614  0.0340
  761SOL    HW1 2282   1.976   1.709   1.768  1.7172  0.3930 -2.4076
  761SOL    HW2 2283   1.865   1.765   1.640 -1.5542  0.6689  2.3164
  762SOL     OW 2284   0.504   2.392   0.937 -0.2497  0.2236 -0.0627
  762SOL    HW1 2285   0.555   2.410   0.851 -0.5410 -1.1116  1.2007
  762SOL    HW2 2286   0.559   2.416   1.019  1.2291 -0.3294 -1.3809
  763SOL     OW 2287   2.123   1.601   3.008 -0.2329 -0.1679 -0.1265
  763SOL    HW1 2288   2.224   1.565   3.011  3.9526  0.2021  1.4311
  763SOL    HW2 2289   2.053   1.534   3.046  2.0285 -0.2796 -0.4265
  764SOL     OW 2290   0.680   0.585   0.639  0.1237  0.4250  0.7195
  764SOL    HW1 2291   0.586   0.558   0.602  1.9575 -0.6707  1.1169
  764SOL    HW2 2292   0.691   0.556   0.745 -0.8036 -1.9439  1.1718
  765SOL     OW 2293   0.809   0.281   0.709 -0.2068  0.4291  0.0634
  765SOL    HW1 2294   0.879   0.285   0.641 -2.0713  0.1106  0.5271
  765SOL    HW2 2295   0.789   0.381   0.748 -0.1800  2.1162  1.1021
  766SOL     OW 2296   2.910   2.171   3.062  0.3726 -0.4036  0.0504
  766SOL    HW1 2297   2.805   2.170   3.052  0.6229  0.8716  1.4169
  766SOL    HW2 2298   2.951   2.261   3.092 -0.8113  0.7878  0.4705
  767SOL     OW 2299   2.833   1.617   0.554  0.1721 -0.1105  0.0696
  767SOL    HW1 2300   2.750   1.666   0.595 -1.7462 -1.4043 -0.3815
  767SOL    HW2 2301   2.914   1.613   0.620 -0.2658 -2.1156  3.2518
  768SOL     OW 2302   1.021   0.220   0.177 -0.0077 -0.4798 -0.0072
  768SOL    HW1 2303   0.992   0.276   0.259 -1.3098  1.4459 -0.7271
  768SOL    HW2 2304   1.121   0.188   0.187  0.0018  1.6975 -0.3996
  769SOL     OW 2305   1.127   1.810   2.295 -0.3545  0.0614  0.0724
  769SOL    HW1 2306   1.040   1.849   2.329  3.1711 -1.7749 -2.1425
  769SOL    HW2 2307   1.202   1.798   2.368 -0.1901  1.1785  0.3547
  770SOL     OW 2308   0.173   1.154   2.306 -0.4618 -0.2048  0.3624
  770SOL    HW1 2309   0.212   1.188   2.398 -1.3859  2.7182  1.8992
  770SOL    HW2 2310   0.074   1.123   2.319  0.6269  1.0581  1.4672
  771SOL     OW 2311   3.063   2.798   1.909 -0.0740  0.2384 -0.3451
  771SOL    HW1 2312   2.985   2.843   1.853 -3.4904 -2.3166  0.7125
  771SOL    HW2 2313   3.054   2.832   2.009  1.5832 -1.0940  2.3082
  772SOL     OW 2314   2.368   0.205   2.831 -0.0482  0.1847  0.1618
  772SOL    HW1 2315   2.447   0.147   2.787  0.2916 -1.2408  1.8764
  772SOL    HW2 2316   2.367   0.198   2.932  1.9986 -0.5046  0.9531
  773SOL     OW 2317   0.571   2.103   2.404 -0.1113 -0.2573 -0.3904
  773SOL    HW1 2318   0.532   2.184   2.350 -2.7628  2.3138  3.2985
  773SOL    HW2 2319   0.507   2.033   2.431  2.1851 -0.9230  2.1008
  774SOL     OW 2320   2.091   0.010   2.614  0.1206  0.1143 -0.5308
  774SOL    HW1 2321   2.119   0.113   2.612  1.7925  1.3558 -2.7743
  774SOL    HW2 2322   2.135  -0.049   2.686  0.8386 -1.6748 -2.7829
  775SOL     OW 2323   2.557   2.879   2.266  0.5339  0.2235 -0.4541
  775SOL    HW1 2324   2.463   2.903   2.275  0.2451  0.4463 -1.6230
  775SOL    HW2 2325   2.618   2.891   2.353  1.2797  1.1255  0.2757
  776SOL     OW 2326   0.014   1.221   0.204 -0.2230  0.4091 -0.1281
  776SOL    HW1 2327  -0.039   1.204   0.115  1.0977 -2.5530 -0.0316
  776SOL    HW2 2328  -0.050   1.249   0.280  0.5216 -0.1119  3.5655
  777SOL     OW 2329   0.360   2.991   0.491  0.9988  0.0963  0.0832
  777SOL    HW1 2330   0.263   2.983   0.444 -1.6900 -0.1168 -1.2937
  777SOL    HW2 2331   0.407   2.896   0.511  2.5294 -0.5346  5.2528
  778SOL     OW 2332   1.379   1.983   0.296  0.5724 -0.4474  0.0947
  778SOL    HW1 2333   1.315   2.037   0.357  1.5219  3.6488  1.3879
  778SOL    HW2 2334   1.408   2.040   0.213  1.1036  1.6441  0.4935
  779SOL     OW 2335   0.155   0.817   0.463  0.1081 -0.1638 -0.1840
  779SOL    HW1 2336   0.101   0.728   0.447 -0.5785 -0.2888 -2.9070
  779SOL    HW2 2337   0.099   0.882   0.513 -0.1721 -1.3677 -1.8721
  780SOL     OW 2338   0.101   0.331   2.341 -0.0338 -0.2910 -0.0483
  780SOL    HW1 2339   0.109   0.398   2.421  0.2392 -0.2463 -0.4161
  780SOL    HW2 2340   0.191   0.326   2.282  0.8029 -2.6670 -0.0927
  781SOL     OW 2341   0.675   1.654   1.548 -0.4500 -0.2645 -0.1590
  781SOL    HW1 2342   0.736   1.597   1.612 -1.4255 -1.4219  1.0912
  781SOL    HW2 2343   0.601   1.600   1.502 -0.6423 -0.9191  0.0547
  782SOL     OW 2344   2.594   0.007   0.906 -0.4419  0.5318  0.1304
  782SOL    HW1 2345   2.521   0.026   0.838  1.0657  2.3331 -1.6221
  782SOL    HW2 2346   2.559   0.025   1.001 -1.3124  0.7919  0.3150
  783SOL     OW 2347   2.720   0.720   2.427  0.6381  0.7725  0.5196
  783SOL    HW1 2348   2.711   0.731   2.529  0.8436  2.7325  0.1408
  783SOL    HW2 2349   2.688   0.627   2.400  0.5605  0.9905 -0.8281
  784SOL     OW 2350   1.426   2.103   0.025 -0.2846 -0.0397 -0.6314
  784SOL    HW1 2351   1.476   2.180   0.070  0.2889  0.4478  1.7139
  784SOL    HW2 2352   1.400   2.125  -0.070  0.6986 -1.3463  2.5631
  785SOL     OW 2353   2.095   0.274   0.004 -0.5648 -0.1388 -0.2504
  785SOL    HW1 2354   2.003   0.301   0.034  0.3464 -2.5338 -0.9416
  785SOL    HW2 2355   2.151   0.353  -0.036 -1.2199  2.2997 -2.1162
  786SOL     OW 2356   2.043   2.197   2.268  0.0944  0.3597 -0.3931
  786SOL    HW1 2357   2.016   2.107   2.299  1.5625  1.1855 -0.0483
  786SOL    HW2 2358   2.151   2.206   2.276  2.4095  0.4535 -1.6704
  787SOL     OW 2359   1.409   0.530   0.886 -0.7610  0.0304 -0.1475
  787SOL    HW1 2360   1.332   0.599   0.871  0.0107  3.1850  0.2954
  787SOL    HW2 2361   1.457   0.499   0.795  2.0435 -0.6945 -2.8096
  788SOL     OW 2362   1.203   0.444   0.019 -0.2853  0.0762  0.1597
  788SOL    HW1 2363   1.115   0.406  -0.021  0.7963 -2.5451 -1.1455
  788SOL    HW2 2364   1.182   0.527   0.082 -0.6429 -0.1886  0.1098
  789SOL     OW 2365   2.571   0.126   1.959 -0.0246  0.0677  0.2078
  789SOL    HW1 2366   2.499   0.092   1.888 -2.6234 -2.2958 -1.9805
  789SOL    HW2 2367   2.631   0.049   1.994  0.1942 -1.6568  2.8672
  790SOL     OW 2368   2.632   2.786   0.711  0.0159 -0.6983 -0.3244
  790SOL    HW1 2369   2.684   2.849   0.652  1.2397 -2.5458  0.6454
  790SOL    HW2 2370   2.667   2.785   0.813  0.2172 -0.5828  0.8062
  791SOL     OW 2371   1.927   1.190   0.128  0.4100 -0.2979  1.0114
  791SOL    HW1 2372   1.846   1.152   0.189  0.0715  1.1305  0.7358
  791SOL    HW2 2373   2.024   1.179   0.170 -3.2948  0.8691  1.2973
  792SOL     OW 2374   0.433   1.827   2.198 -0.1254 -0.9010  0.2754
  792SOL    HW1 2375   0.507   1.862   2.261  1.7806 -2.0695  1.7170
  792SOL    HW2 2376   0.409   1.723   2.209 -2.8249 -2.2039 -2.8934
  793SOL     OW 2377   2.093   1.616   2.076  0.2434  0.1868 -0.3092
  793SOL    HW1 2378   2.155   1.692   2.046 -0.4771 -0.0827  0.4585
  793SOL    HW2 2379   2.105   1.525   2.019 -0.4435 -0.9181  1.3041
  794SOL     OW 2380   0.476   1.556   2.264  0.4530 -0.3777  0.5125
  794SOL    HW1 2381   0.508   1.495   2.187 -1.5042 -1.3630  0.4109
  794SOL    HW2 2382   0.422   1.513   2.338 -0.5150 -1.3503 -0.1389
  795SOL     OW 2383   2.477   2.239   1.800  0.2229 -0.2411 -0.0943
  795SOL    HW1 2384   2.488   2.229   1.906 -0.1058  0.9631 -0.9751
  795SOL    HW2 2385   2.462   2.150   1.750  0.2574  1.2126  2.3041
  796SOL     OW 2386   3.083   1.097   2.716 -0.0667  0.6038 -0.1064
  796SOL    HW1 2387   2.990   1.135   2.744  1.4190  1.7081  1.1219
  796SOL    HW2 2388   3.152   1.110   2.791 -1.2268 -0.4211 -1.9781
  797SOL     OW 2389   0.805   0.643   1.459 -0.3134 -0.1579 -0.2577
  797SOL    HW1 2390   0.887   0.700   1.472 -0.4931 -0.2634  0.0256
  797SOL    HW2 2391   0.742   0.683   1.390  1.3057  1.3064 -0.9406
  798SOL     OW 2392   1.336   0.452   1.189 -0.6905 -0.5400  0.0340
  798SOL    HW1 2393   1.400   0.428   1.273 -0.3626 -2.0524  0.4683
  798SOL    HW2 2394   1.385   0.481   1.102 -0.5680  0.1436 -0.7306
  799SOL     OW 2395   1.956   2.651   1.049  0.5185  0.2778 -0.2452
  799SOL    HW1 2396   1.902   2.593   1.117 -0.4605  0.8662  1.3122
  799SOL    HW2 2397   1.894   2.678   0.974  0.0718 -0.4626  2.3919
  800SOL     OW 2398   3.075   0.631   1.795 -0.1568  0.0844  0.0465
  800SOL    HW1 2399   3.002   0.665   1.858 -1.5475 -3.0416  0.2901
  800SOL    HW2 2400   3.155   0.582   1.839  1.1131 -0.1747 -1.7848
  801SOL     OW 2401   1.894   2.159   0.180 -0.1750 -0.1843 -0.3518
  801SOL    HW1 2402   1.818   2.122   0.120 -0.6418  0.0820  2.6667
  801SOL    HW2 2403   1.991   2.141   0.138  2.1802 -0.4641  0.4119
  802SOL     OW 2404   0.743   0.811   2.579  0.4569 -0.1143  0.1831
  802SOL    HW1 2405   0.811   0.792   2.501  0.4870 -1.9178 -1.3595
  802SOL    HW2 2406   0.669   0.738   2.573  2.2422  2.1617  1.3039
  803SOL     OW 2407   0.901   0.154   0.972 -0.3819  0.1332 -0.3933
  803SOL    HW1 2408   0.983   0.212   0.988 -0.4169  0.3868 -1.4310
  803SOL    HW2 2409   0.845   0.189   0.895 -1.1679  0.8972 -1.1388
  804SOL     OW 2410   0.417   3.020   2.080  0.1095 -0.7430  0.2028
  804SOL    HW1 2411   0.363   3.092   2.033  1.3472 -0.6500 -0.8109
  804SOL    HW2 2412   0.394   2.926   2.047  0.1785 -0.4143 -0.0368
  805SOL     OW 2413   2.453   0.312   0.296 -0.0429 -0.5288 -0.2696
  805SOL    HW1 2414   2.548   0.303   0.339 -2.5334  0.4275 -0.5941
  805SOL    HW2 2415   2.433   0.272   0.201 -2.6778  2.2042 -0.1644
  806SOL     OW 2416   0.692   2.390   1.669 -0.5397 -0.3047  0.0042
  806SOL    HW1 2417   0.673   2.493   1.680  0.6051  1.4828  0.4569
  806SOL    HW2 2418   0.793   2.369   1.690  0.5134 -0.5581  0.5784
  807SOL     OW 2419   2.525   0.932   0.438  0.0429 -0.8242 -0.0235
  807SOL    HW1 2420   2.621   0.907   0.465 -1.2743 -2.0405 -3.1694
  807SOL    HW2 2421   2.521   0.926   0.334  0.1439  0.0579  1.4811
  808SOL     OW 2422   0.558   1.990   2.984 -0.1023  0.0805  0.6080
  808SOL    HW1 2423   0.548   2.001   3.087  2.4943  0.4442 -0.9232
  808SOL    HW2 2424   0.539   1.890   2.952  2.0133 -1.9770  0.1737
  809SOL     OW 2425   2.690   1.985   1.907 -0.1713 -0.1575  0.0397
  809SOL    HW1 2426   2.756   2.065   1.896  1.3992 -0.8317 -0.0598
  809SOL    HW2 2427   2.662   1.944   1.816  0.1433  0.8919 -1.6764
  810SOL     OW 2428   2.099   1.125   0.546 -0.3403 -0.1469 -0.0591
  810SOL    HW1 2429   2.098   1.053   0.614  1.5675  4.7223  0.4096
  810SOL    HW2 2430   2.035   1.202   0.570  1.3067  0.5099 -0.6041
  811SOL     OW 2431   1.296   2.364   1.217 -0.6192  1.1032  0.0799
  811SOL    HW1 2432   1.264   2.274   1.256 -1.3127  0.1414 -1.2198
  811SOL    HW2 2433   1.272   2.373   1.118 -0.0130 -1.3128 -0.7358
  812SOL     OW 2434   1.369   0.769   1.975 -0.0515  0.6524 -0.0578
  812SOL    HW1 2435   1.429   0.832   2.027 -0.0041 -0.7966  1.1927
  812SOL    HW2 2436   1.288   0.823   1.938 -1.3482 -0.9314 -0.3152
  813SOL     OW 2437   1.723   2.023   2.488  0.7705  0.1123 -0.1032
  813SOL    HW1 2438   1.817   1.987   2.487 -4.1010  2.6393  1.2525
  813SOL    HW2 2439   1.696   2.058   2.395 -0.2910  0.5431  0.0967
  814SOL     OW 2440   2.885   1.575   2.896 -0.0105 -0.5414  0.2432
  814SOL    HW1 2441   2.982   1.589   2.933 -1.2493  0.9096  0.9641
  814SOL    HW2 2442   2.851   1.649   2.829 -2.2454 -0.4790 -0.5100
  815SOL     OW 2443   2.251   2.884   2.714 -0.2879  0.1395  0.5664
  815SOL    HW1 2444   2.214   2.813   2.777 -1.8923 -0.0509  0.3679
  815SOL    HW2 2445   2.342   2.852   2.674 -2.1215 -1.8662  1.3449
  816SOL     OW 2446   1.754   0.346   1.677  0.2917  0.2642  0.3315
  816SOL    HW1 2447   1.650   0.349   1.703 -0.2531 -0.6726  1.1202
  816SOL    HW2 2448   1.809   0.299   1.747 -1.4184  3.8434  1.6175
  817SOL     OW 2449   0.473   1.234   2.472 -0.1328 -0.5149 -0.1805
  817SOL    HW1 2450   0.405   1.313   2.464 -1.2004 -0.1740  0.3425
  817SOL    HW2 2451   0.468   1.180   2.386 -0.1741  2.3731  0.2727
  818SOL     OW 2452   2.017   0.856   0.428  0.0521  0.1494 -0.2785
  818SOL    HW1 2453   2.028   0.961   0.420  0.9812 -0.8468  0.8466
  818SOL    HW2 2454   1.971   0.824   0.516 -1.2891  2.4945 -0.2542
  819SOL     OW 2455   2.746   2.940   3.044  0.2885 -0.6802 -0.5299
  819SOL    HW1 2456   2.813   2.869   3.016  0.1335  2.7203  0.4730
  819SOL    HW2 2457   2.652   2.923   3.000 -1.2403 -0.3310 -0.3048
  820SOL     OW 2458   1.205   1.112   0.532 -0.2470  0.4772 -0.0621
  820SOL    HW1 2459   1.243   1.193   0.584  0.7026  1.5250 -0.3304
  820SOL    HW2 2460   1.181   1.030   0.585  0.2664  0.6421 -2.5954
  821SOL     OW 2461   3.079   1.279   0.664  0.1065 -0.1685 -0.0718
  821SOL    HW1 2462   3.021   1.292   0.751 -1.4523  0.6162  0.7582
  821SOL    HW2 2463   3.152   1.345   0.647  0.4711 -0.3056 -1.1530
  822SOL     OW 2464   2.556   1.758   2.449 -0.3624 -0.0480 -0.1680
  822SOL    HW1 2465   2.543   1.839   2.510 -2.3550 -1.6631 -0.3486
  822SOL    HW2 2466   2.507   1.772   2.360  1.3945 -0.9183 -3.0888
  823SOL     OW 2467   2.052   0.887   1.194 -0.0300 -0.0246  0.3409
  823SOL    HW1 2468   2.042   0.907   1.297 -1.3131 -0.7917 -0.0417
  823SOL    HW2 2469   1.960   0.890   1.147  1.3089  1.7555  1.2360
  824SOL     OW 2470   0.186   2.030   2.710 -0.2094 -0.3282  0.2142
  824SOL    HW1 2471   0.188   1.960   2.787 -1.1359 -2.1349 -0.1681
  824SOL    HW2 2472   0.247   1.993   2.633  0.9144 -0.2235 -1.8085
  825SOL     OW 2473   1.241   1.044   0.273 -0.2105  0.1458  0.1650
  825SOL    HW1 2474   1.188   1.065   0.357  0.9050 -0.2379 -0.4770
  825SOL    HW2 2475   1.299   1.130   0.259  1.3926  0.9320 -0.6877
  826SOL     OW 2476   1.920   0.653   1.550  0.1567 -0.6675 -0.0554
  826SOL    HW1 2477   1.987   0.598   1.611 -1.9112  0.0505  0.5040
  826SOL    HW2 2478   1.832   0.599   1.527  1.7337 -1.0917 -0.3137
  827SOL     OW 2479   0.766   1.390   0.240 -0.1029 -0.4457  0.2749
  827SOL    HW1 2480   0.799   1.312   0.181 -2.1427  0.2183  1.7341
  827SOL    HW2 2481   0.713   1.353   0.322 -0.0917 -0.2728  1.1711
  828SOL     OW 2482   2.562   0.081   1.588 -0.6868  0.4524 -0.0533
  828SOL    HW1 2483   2.477   0.107   1.528 -0.9990  0.1847 -0.9732
  828SOL    HW2 2484   2.550   0.003   1.660  0.7043  0.7659 -0.1587
  829SOL     OW 2485   2.799   2.502   3.030  0.2970  0.1285  0.1074
  829SOL    HW1 2486   2.742   2.417   3.006  0.6711 -0.3617 -1.7271
  829SOL    HW2 2487   2.768   2.557   3.116  3.2273 -1.1806 -0.3499
  830SOL     OW 2488   2.772   0.927   3.014  0.0158  0.3021  0.5748
  830SOL    HW1 2489   2.821   0.989   3.080 -2.0001  0.5059  1.5543
  830SOL    HW2 2490   2.778   0.826   3.048 -1.1533  0.2947 -1.6334
  831SOL     OW 2491   3.079   0.599   0.371  0.1985  0.4745 -0.0375
  831SOL    HW1 2492   3.035   0.555   0.449 -0.2087  0.7029 -2.3917
  831SOL    HW2 2493   3.113   0.531   0.298  0.0250  0.9800 -2.3359
  832SOL     OW 2494   1.803   0.757   3.069  0.0246 -0.0459  0.6787
  832SOL    HW1 2495   1.726   0.828   3.076  1.6435 -0.6795  0.2074
  832SOL    HW2 2496   1.767   0.662   3.053  1.3668  0.3611  1.3226
  833SOL     OW 2497   2.461   2.130   0.515  0.3860  0.4833 -0.7029
  833SOL    HW1 2498   2.356   2.128   0.528  0.0661  1.0336  2.1528
  833SOL    HW2 2499   2.498   2.029   0.511 -0.9885 -2.9517  0.0331
  834SOL     OW 2500   0.076   0.238   0.645  0.2377 -0.0303 -0.1393
  834SOL    HW1 2501   0.102   0.157   0.703 -2.2205  0.2087 -1.4209
  834SOL    HW2 2502   0.158   0.270   0.584  1.0583  2.5941 -3.1072
  835SOL     OW 2503   2.427   1.504   1.195 -0.1998  0.7096  0.1466
  835SOL    HW1 2504   2.510   1.530   1.250 -1.8731 -0.8538  0.9719
  835SOL    HW2 2505   2.439   1.493   1.090 -1.0804 -0.6874 -1.6500
  836SOL     OW 2506   1.523   0.854   2.593 -0.3067 -0.2885 -0.4999
  836SOL    HW1 2507   1.419   0.857   2.582  0.6119 -1.8650 -1.7844
  836SOL    HW2 2508   1.567   0.879   2.503  0.5475 -0.8064  0.9719
  837SOL     OW 2509   1.533   0.026   0.503  0.2557 -0.3705  0.5552
  837SOL    HW1 2510   1.517   0.119   0.541 -0.1898  1.7872 -1.3796
  837SOL    HW2 2511   1.532   0.017   0.400 -1.0358 -0.2089  0.9988
  838SOL     OW 2512   1.299   1.592   2.674 -0.2091 -0.4173 -0.5251
  838SOL    HW1 2513   1.360   1.543   2.742 -1.4708  0.7094 -1.7038
  838SOL    HW2 2514   1.221   1.539   2.632 -0.3147  0.3971  1.5165
  839SOL     OW 2515   1.607   0.236   0.975  0.4069  0.0530 -0.2284
  839SOL    HW1 2516   1.633   0.296   1.055 -0.3200 -1.7294  2.1583
  839SOL    HW2 2517   1.602   0.130   0.991  0.1644 -2.6743 -1.7108
  840SOL     OW 2518   2.546   2.947   1.732 -0.2154  0.5549 -0.0831
  840SOL    HW1 2519   2.519   2.883   1.661  0.7456  1.8980  0.1775
  840SOL    HW2 2520   2.581   2.884   1.807  0.3176 -1.2135 -0.4017
  841SOL     OW 2521   1.589   0.921   3.050 -0.3656 -0.0404  0.4483
  841SOL    HW1 2522   1.506   0.862   3.078  0.2051 -0.0934  0.1596
  841SOL    HW2 2523   1.576   0.959   2.954 -2.4437  1.8633 -2.5975
  842SOL     OW 2524   0.816   1.526   0.858 -0.4240  0.0035 -0.2234
  842SOL    HW1 2525   0.772   1.581   0.932  0.8221 -0.9321 -2.1769
  842SOL    HW2 2526   0.771   1.438   0.837  0.2594  0.1847  1.0491
  843SOL     OW 2527   0.190   3.054   1.394  0.1658 -0.2569  0.5070
  843SOL    HW1 2528   0.197   3.145   1.454  1.0936  1.7401  0.9050
  843SOL    HW2 2529   0.137   2.974   1.436  0.9068 -1.0320 -0.4587
  844SOL     OW 2530   0.807   2.484   0.254  0.7475  0.3454  0.3127
  844SOL    HW1 2531   0.741   2.414   0.289 -0.5452  1.3172 -1.5561
  844SOL    HW2 2532   0.758   2.553   0.192  0.9594 -0.1753 -0.2389
  845SOL     OW 2533   1.653   2.830   1.247 -0.0850  0.1145 -0.3623
  845SOL    HW1 2534   1.598   2.750   1.231  0.7538  0.3088  0.8563
  845SOL    HW2 2535   1.688   2.823   1.344 -0.1407 -1.8538 -0.6909
  846SOL     OW 2536   1.537   3.002   0.738  0.5546 -0.3539  0.0374
  846SOL    HW1 2537   1.535   3.040   0.639 -2.0090  2.7782  0.3284
  846SOL    HW2 2538   1.631   2.980   0.780  2.3082  0.2718 -0.2161
  847SOL     OW 2539   2.085   1.749   0.470  0.0592 -0.5970  0.0760
  847SOL    HW1 2540   2.058   1.652   0.486 -0.3971  2.1446 -0.2551
  847SOL    HW2 2541   1.996   1.814   0.455  1.5682  1.9968 -1.1218
  848SOL     OW 2542   2.419   0.881   2.657  0.3610 -0.3990 -0.1650
  848SOL    HW1 2543   2.394   0.981   2.676  0.2441  0.2909  0.4423
  848SOL    HW2 2544   2.341   0.823   2.619  1.2840 -2.0366  1.8139
  849SOL     OW 2545   2.525   0.903   2.390  0.4461  0.2810 -0.1996
  849SOL    HW1 2546   2.600   0.835   2.387  0.3256 -0.1510  2.5212
  849SOL    HW2 2547   2.478   0.906   2.485 -0.6267 -0.1594  1.8401
  850SOL     OW 2548   1.588   0.065   1.287  0.4220 -0.6226 -1.1284
  850SOL    HW1 2549   1.587   0.053   1.184 -0.1786 -0.0902  0.3637
  850SOL    HW2 2550   1.529   0.005   1.349 -0.2233 -1.2474 -0.4453
  851SOL     OW 2551   0.564   1.724   0.686 -0.4156  0.1906 -0.5500
  851SOL    HW1 2552   0.639   1.754   0.745 -1.8086  0.8412 -0.0508
  851SOL    HW2 2553   0.580   1.742   0.589 -1.8475  2.8851 -0.0251
  852SOL     OW 2554   0.868   2.101   1.684 -0.1730  0.1203  0.6742
  852SOL    HW1 2555   0.912   2.192   1.658 -0.8622 -0.1146  2.3627
  852SOL    HW2 2556   0.771   2.119   1.724 -1.2497 -1.3095 -0.3125
  853SOL     OW 2557   2.539   1.537   2.617  0.0299  0.4854 -0.2867
  853SOL    HW1 2558   2.477   1.454   2.611  1.7129 -0.7476 -1.2274
  853SOL    HW2 2559   2.522   1.605   2.542 -2.1467 -0.6470  1.3593
  854SOL     OW 2560   2.436   1.423   1.787  0.8048 -0.2423 -0.2830
  854SOL    HW1 2561   2.481   1.424   1.692 -0.8806 -0.2283  0.2570
  854SOL    HW2 2562   2.401   1.331   1.815  3.2474  0.4532  0.4667
  855SOL     OW 2563   2.072   2.391   1.106  0.2821  0.0583 -0.2556
  855SOL    HW1 2564   2.051   2.484   1.071 -0.2624  0.0114 -1.0308
  855SOL    HW2 2565   2.158   2.391   1.166  0.7887  1.2990 -0.1563
  856SOL     OW 2566   1.339   1.439   0.900  0.3549  0.2215  0.1236
  856SOL    HW1 2567   1.411   1.507   0.934 -0.3935 -0.1654 -2.1487
  856SOL    HW2 2568   1.240   1.466   0.932 -1.3974 -0.5156  1.2226
  857SOL     OW 2569   0.001   2.733   1.096 -0.2042  0.1686 -0.2095
  857SOL    HW1 2570   0.022   2.732   0.997 -1.3842  0.5822  0.9677
  857SOL    HW2 2571   0.067   2.670   1.150  1.3657 -1.2803  0.8168
  858SOL     OW 2572   2.388   2.045   1.576  0.4654  0.7667 -0.3495
  858SOL    HW1 2573   2.295   2.005   1.587 -1.4149 -0.4317  2.1869
  858SOL    HW2 2574   2.466   1.983   1.582 -1.7115  0.7636 -1.0103
  859SOL     OW 2575   2.453   0.541   1.085 -0.6193 -0.2488 -0.0852
  859SOL    HW1 2576   2.524   0.587   1.018  2.9668 -0.5958 -1.8158
  859SOL    HW2 2577   2.492   0.462   1.143  0.7746  0.1812  1.3497
  860SOL     OW 2578   1.907   2.829   0.506  0.0666 -0.4536  0.0933
  860SOL    HW1 2579   1.875   2.790   0.416 -0.1100  1.2123  0.3807
  860SOL    HW2 2580   1.883   2.933   0.508 -2.5878  1.0558 -0.0009
  861SOL     OW 2581   1.016   2.501   2.858 -0.5224  0.0319  0.0058
  861SOL    HW1 2582   1.103   2.543   2.824 -0.4455 -0.5663  0.0332
  861SOL    HW2 2583   1.003   2.501   2.959 -0.4134 -0.1029  0.5523
  862SOL     OW 2584   2.825   2.539   1.695  0.1905 -0.1044  0.3715
  862SOL    HW1 2585   2.933   2.538   1.707  2.0098 -0.2620  0.1527
  862SOL    HW2 2586   2.779   2.625   1.658  0.5384 -1.6353 -0.4657
  863SOL     OW 2587   1.824   2.715   0.251 -0.1971 -0.2103  0.5827
  863SOL    HW1 2588   1.874   2.628   0.252  0.6572  0.8382 -1.0276
  863SOL    HW2 2589   1.737   2.716   0.195  1.4675 -0.0321  1.5522
  864SOL     OW 2590   2.025   1.238   2.799  0.0827  0.3475  0.0264
  864SOL    HW1 2591   2.034   1.179   2.713 -0.8582  1.7110 -1.2159
  864SOL    HW2 2592   2.065   1.329   2.785 -1.0724 -1.6880 -3.4968
  865SOL     OW 2593   2.133   1.949   0.740  0.1676 -0.2117  0.3811
  865SOL    HW1 2594   2.207   1.915   0.807  1.4267  0.4137 -1.8438
  865SOL    HW2 2595   2.040   1.961   0.786 -1.8799  0.8043 -2.1187
  866SOL     OW 2596   2.938   2.963   1.051 -0.2616  0.4112 -0.1985
  866SOL    HW1 2597   2.947   3.011   0.956 -1.3824  0.4264 -3.4728
  866SOL    HW2 2598   3.007   2.891   1.069 -1.7597  2.6540  1.1367
  867SOL     OW 2599   0.313   1.392   0.874  0.3721  0.3584  0.5004
  867SOL    HW1 2600   0.326   1.321   0.800 -2.5184  2.1789  0.1442
  867SOL    HW2 2601   0.336   1.489   0.839 -1.0291 -0.6223  1.0771
  868SOL     OW 2602   0.802   1.865   2.039 -0.3804 -0.2844 -0.0999
  868SOL    HW1 2603   0.747   1.817   2.114 -0.7430  3.3142 -1.7412
  868SOL    HW2 2604   0.762   1.954   2.016 -0.1484 -0.1776  0.1784
  869SOL     OW 2605   2.617   1.905   1.658  0.3230 -0.0269  0.1943
  869SOL    HW1 2606   2.674   1.984   1.607  2.4701 -0.2904 -1.1323
  869SOL    HW2 2607   2.664   1.815   1.672 -1.8237  1.1023  2.6362
  870SOL     OW 2608   2.394   2.702   1.144 -0.1348 -0.2414  0.0751
  870SOL    HW1 2609   2.409   2.615   1.198  2.3174  0.1247  1.9843
  870SOL    HW2 2610   2.450   2.775   1.181 -0.4067 -1.3332  3.5171
  871SOL     OW 2611   3.044   2.260   0.540 -0.6053 -0.4966  0.2363
  871SOL    HW1 2612   2.995   2.276   0.632 -0.4660 -1.3775  0.6919
  871SOL    HW2 2613   2.978   2.231   0.462 -2.2456  2.2141  2.5532
  872SOL     OW 2614   2.094   0.470   1.702  0.4354  0.2749 -0.3635
  872SOL    HW1 2615   2.046   0.472   1.797 -1.1184 -0.9605  0.8875
  872SOL    HW2 2616   2.197   0.463   1.692 -0.9124  1.9182 -0.6727
  873SOL     OW 2617   1.717   2.084   3.093  0.2945 -0.3875  0.7111
  873SOL    HW1 2618   1.640   2.024   3.062  1.4346 -0.3019  2.1784
  873SOL    HW2 2619   1.759   2.144   3.018  1.0052 -0.3888  0.0705
  874SOL     OW 2620   0.675   2.483   0.715 -0.0326 -0.0645  0.1241
  874SOL    HW1 2621   0.689   2.586   0.742 -0.5971  1.1539  0.5459
  874SOL    HW2 2622   0.754   2.424   0.729 -2.3101  0.3218  0.7167
  875SOL     OW 2623   2.287   1.590   1.423 -0.2275 -0.8270  0.5245
  875SOL    HW1 2624   2.379   1.600   1.475  0.9379 -0.4681 -1.1782
  875SOL    HW2 2625   2.298   1.548   1.329 -1.1848 -0.4405  2.5812
  876SOL     OW 2626   0.076   2.273   2.625  0.4442 -0.1755  0.4229
  876SOL    HW1 2627   0.115   2.179   2.641 -1.2266  0.6197 -1.5645
  876SOL    HW2 2628   0.121   2.346   2.689 -1.4622 -1.0880  0.1513
  877SOL     OW 2629   2.876   2.629   0.672  0.0471 -0.4232 -0.3236
  877SOL    HW1 2630   2.884   2.728   0.648  1.0424  1.0529  0.6003
  877SOL    HW2 2631   2.956   2.595   0.734  2.0025  2.6157  0.5713
  878SOL     OW 2632   2.839   1.621   2.314 -0.0395  0.1086 -0.0035
  878SOL    HW1 2633   2.759   1.679   2.276 -0.3919 -0.7223  1.7688
  878SOL    HW2 2634   2.811   1.587   2.408  1.5582  1.9059  0.4747
  879SOL     OW 2635   2.484   0.041   1.168  0.0855  0.6213  0.4905
  879SOL    HW1 2636   2.489  -0.013   1.253 -1.7686 -0.0227 -1.0172
  879SOL    HW2 2637   2.400   0.019   1.114 -0.6690  1.6484  0.8076
  880SOL     OW 2638   0.640   0.543   2.263  0.4673  0.0596  0.2120
  880SOL    HW1 2639   0.649   0.498   2.355  1.7451  0.5529  1.2036
  880SOL    HW2 2640   0.714   0.519   2.196 -0.9361 -0.2415 -1.8684
  881SOL     OW 2641   0.853   0.093   0.408  0.3701  0.0066 -0.5988
  881SOL    HW1 2642   0.881   0.005   0.451 -2.0270  0.5791 -2.6769
  881SOL    HW2 2643   0.763   0.073   0.361  0.3920  1.0580 -0.7421
  882SOL     OW 2644   2.727   1.596   1.719 -0.6606 -0.1489 -0.0058
  882SOL    HW1 2645   2.820   1.579   1.675 -2.2376  1.1165  2.7539
  882SOL    HW2 2646   2.709   1.533   1.801 -0.8051 -2.4938  1.6008
  883SOL     OW 2647   0.790   0.508   0.883 -0.4141 -0.1142  0.0607
  883SOL    HW1 2648   0.850   0.591   0.907 -0.9986  2.6549 -0.7350
  883SOL    HW2 2649   0.728   0.476   0.959 -0.0006 -1.6539  0.1797
  884SOL     OW 2650   1.202   1.715   1.104  0.0287  0.2677  0.1536
  884SOL    HW1 2651   1.154   1.619   1.084 -0.6604 -3.6532 -0.7940
  884SOL    HW2 2652   1.170   1.789   1.045 -0.9732  1.5842  0.2993
  885SOL     OW 2653   2.313   1.900   2.277  0.1551  0.2977 -0.2042
  885SOL    HW1 2654   2.227   1.845   2.297  0.0203  1.3219  0.6279
  885SOL    HW2 2655   2.310   2.005   2.279  1.7536 -0.6876  0.3812
  886SOL     OW 2656   2.605   0.336   1.794 -0.0080 -0.1177 -0.4954
  886SOL    HW1 2657   2.622   0.252   1.849  1.4491  1.9832  0.2066
  886SOL    HW2 2658   2.657   0.422   1.830  0.2526  0.9937  2.1260
  887SOL     OW 2659   0.143   2.070   1.287  0.7238  0.0680 -0.4556
  887SOL    HW1 2660   0.112   2.034   1.192 -3.1930 -0.4115 -1.3737
  887SOL    HW2 2661   0.105   2.165   1.308 -1.2474 -0.0325 -0.8386
  888SOL     OW 2662   0.587   1.231   1.539  0.3021  0.0037  0.3860
  888SOL    HW1 2663   0.595   1.291   1.447 -2.9359  1.9463 -1.9384
  888SOL    HW2 2664   0.614   1.131   1.523  0.1590  2.5557 -0.6920
  889SOL     OW 2665   0.827   2.448   2.243  0.0353  0.0896  0.0254
  889SOL    HW1 2666   0.764   2.372   2.279 -0.2263 -0.6427  0.9255
  889SOL    HW2 2667   0.884   2.415   2.166  0.7690  0.8924  0.8833
  890SOL     OW 2668   2.380   2.500   0.282 -0.3385  0.5609 -0.3409
  890SOL    HW1 2669   2.411   2.576   0.222 -1.4248 -0.4488  0.6963
  890SOL    HW2 2670   2.315   2.521   0.362 -1.4661  2.6052 -0.5083
  891SOL     OW 2671   2.620   1.689   0.703 -0.0875 -0.3347 -0.1194
  891SOL    HW1 2672   2.658   1.660   0.792 -2.5907 -0.4167  0.6786
  891SOL    HW2 2673   2.535   1.638   0.686  0.5902  2.4527  2.5959
  892SOL     OW 2674   0.372   0.323   2.215 -0.1512  0.4140 -0.3839
  892SOL    HW1 2675   0.427   0.412   2.221 -3.4009  0.5764 -1.3706
  892SOL    HW2 2676   0.412   0.254   2.146  2.0986 -0.9507 -0.1737
  893SOL     OW 2677   1.733   0.256   2.697 -0.5353 -0.4790  0.2929
  893SOL    HW1 2678   1.817   0.317   2.714  2.5027 -0.1536  4.1289
  893SOL    HW2 2679   1.651   0.318   2.684 -0.8252  3.4761 -0.7923
  894SOL     OW 2680   2.134   2.068   0.099 -0.2187  0.7983 -0.0817
  894SOL    HW1 2681   2.127   1.990   0.025 -0.6894 -0.4759 -1.2035
  894SOL    HW2 2682   2.186   2.037   0.186 -0.8791 -0.3090  0.6318
  895SOL     OW 2683   2.749   1.448   0.884 -0.2775  0.1121  0.7702
  895SOL    HW1 2684   2.835   1.393   0.891 -1.5404  1.0044 -0.2461
  895SOL    HW2 2685   2.746   1.540   0.937 -0.2556  2.9479  1.0976
  896SOL     OW 2686   1.830   1.763   1.243 -1.1295  0.6361 -0.1923
  896SOL    HW1 2687   1.933   1.740   1.241 -1.8030  1.8599 -1.5877
  896SOL    HW2 2688   1.775   1.700   1.184  0.4555 -0.0424 -0.6720
  897SOL     OW 2689   0.229   0.555   3.017  0.2830  0.0098  0.2657
  897SOL    HW1 2690   0.168   0.588   2.938 -1.4257  2.9786 -1.6859
  897SOL    HW2 2691   0.327   0.585   3.001  2.2996 -2.4633  3.0421
  898SOL     OW 2692   0.670   2.825   1.099  0.3914 -0.2082 -0.1728
  898SOL    HW1 2693   0.739   2.900   1.077 -0.8642 -0.3119  3.5983
  898SOL    HW2 2694   0.697   2.763   1.179 -0.2471 -0.7914  0.1605
  899SOL     OW 2695   2.882   0.953   1.335 -0.2490 -0.3619 -0.1906
  899SOL    HW1 2696   2.821   1.014   1.280 -0.7202  1.6725  1.9347
  899SOL    HW2 2697   2.973   0.998   1.360  2.5552  3.5690 -1.1721
  900SOL     OW 2698   0.992   2.484   2.472  0.2989 -0.5819  0.0058
  900SOL    HW1 2699   0.917   2.478   2.402  3.3697 -0.8664 -0.0427
  900SOL    HW2 2700   0.972   2.431   2.560  1.4397  0.1672  0.2617
  901SOL     OW 2701   1.876   2.383   1.438 -0.1436  0.1727  0.4058
  901SOL    HW1 2702   1.895   2.307   1.375  0.2941 -0.8619  0.6272
  901SOL    HW2 2703   1.961   2.435   1.460 -1.6481 -0.9368  1.0259
  902SOL     OW 2704   2.547   1.629   1.497 -0.6332 -0.0899  0.1181
  902SOL    HW1 2705   2.595   1.603   1.582 -1.0390 -0.0785 -1.8370
  902SOL    HW2 2706   2.608   1.623   1.412  0.4129  3.1095 -0.4968
  903SOL     OW 2707   0.314   2.379   1.979  0.2587  0.7385 -0.3046
  903SOL    HW1 2708   0.242   2.302   1.962 -0.0767 -1.3075  2.3972
  903SOL    HW2 2709   0.301   2.464   1.920  0.4178  0.2525  0.1706
  904SOL     OW 2710   1.975   0.814   2.459 -0.0345 -0.1646  0.4109
  904SOL    HW1 2711   1.924   0.735   2.495 -0.7675  0.1181 -0.7725
  904SOL    HW2 2712   2.004   0.798   2.361 -0.5652 -0.9268  0.4744
  905SOL     OW 2713   2.820   0.084   2.412  0.0178 -0.5470  0.4627
  905SOL    HW1 2714   2.875   0.010   2.464 -0.0989 -1.6677 -1.2155
  905SOL    HW2 2715   2.864   0.176   2.394 -2.3839 -1.2545 -1.5557
  906SOL     OW 2716   0.153   1.736   1.884  0.5341 -0.0275 -0.3152
  906SOL    HW1 2717   0.083   1.744   1.811  1.8668 -2.2756  1.8306
  906SOL    HW2 2718   0.212   1.819   1.889 -1.2484  0.1202  0.0754
  907SOL     OW 2719   0.222   2.483   0.956  0.1583 -0.2363  0.0812
  907SOL    HW1 2720   0.317   2.441   0.969 -0.6083 -0.1930  1.1046
  907SOL    HW2 2721   0.225   2.582   0.919 -2.1447  1.7507 -0.5847
  908SOL     OW 2722   2.852   3.002   0.383 -0.2389  0.4962 -0.5311
  908SOL    HW1 2723   2.757   3.033   0.354 -0.7877  1.6695 -3.1407
  908SOL    HW2 2724   2.889   2.924   0.329 -2.8688  0.9523  1.3475
  909SOL     OW 2725   0.883   1.026   2.671 -0.2158  0.3124  0.0667
  909SOL    HW1 2726   0.834   0.934   2.645 -2.9139 -2.4858  1.9050
  909SOL    HW2 2727   0.962   1.046   2.606 -0.2874 -1.0401  0.6457
  910SOL     OW 2728   1.819   1.878   2.122 -0.1962  0.4777  0.0100
  910SOL    HW1 2729   1.886   1.918   2.049  0.3672 -0.9698  0.2391
  910SOL    HW2 2730   1.744   1.952   2.134 -0.6403  1.1143 -2.7103
  911SOL     OW 2731   1.761   2.907   1.525  0.3302  0.5744 -0.4143
  911SOL    HW1 2732   1.861   2.889   1.502  0.9392 -1.4850 -0.5095
  911SOL    HW2 2733   1.726   2.832   1.585 -0.6026  0.2604 -0.1588
  912SOL     OW 2734   2.867   1.016   0.755  0.2724  0.2194 -0.2772
  912SOL    HW1 2735   2.913   1.003   0.848 -1.8234  0.3363  1.2706
  912SOL    HW2 2736   2.798   1.095   0.750 -0.0173 -2.1105 -1.2247
  913SOL     OW 2737   2.576   1.259   1.566  0.4964  0.2054 -0.0892
  913SOL    HW1 2738   2.611   1.160   1.583 -0.5357 -0.8362  0.1701
  913SOL    HW2 2739   2.608   1.296   1.473  0.1772  2.2343 -1.3649
  914SOL     OW 2740   2.858   0.613   1.195 -0.4252  0.4509 -0.1325
  914SOL    HW1 2741   2.876   0.508   1.205 -1.2752 -1.3021  3.1557
  914SOL    HW2 2742   2.820   0.651   1.286  2.0653  0.6908  1.2093
  915SOL     OW 2743   1.211   0.730   0.917  0.4004  0.2315 -0.4270
  915SOL    HW1 2744   1.281   0.751   0.991 -1.4657 -1.7012  1.7056
  915SOL    HW2 2745   1.112   0.737   0.954 -0.1027 -0.2795  1.2031
  916SOL     OW 2746   0.631   0.089   0.680  0.3699  0.5353 -0.0814
  916SOL    HW1 2747   0.704   0.151   0.710  0.7906 -1.5997  0.0431
  916SOL    HW2 2748   0.582   0.129   0.601  2.6286  0.9483 -1.0601
  917SOL     OW 2749   2.863   2.618   2.043  0.4569 -0.4882 -0.0894
  917SOL    HW1 2750   2.768   2.654   2.006 -1.7477  1.9689  1.4521
  917SOL    HW2 2751   2.928   2.585   1.966  3.0503  1.0923  0.8061
  918SOL     OW 2752   1.058   2.091   3.044 -0.4858 -0.0542 -0.1906
  918SOL    HW1 2753   1.087   2.183   3.083 -0.9688  1.1834 -1.2531
  918SOL    HW2 2754   1.098   2.074   2.948 -1.2110 -1.1749  0.4092
  919SOL     OW 2755   0.793   1.634   2.802  0.3457  0.2568  0.2899
  919SOL    HW1 2756   0.850   1.722   2.783  1.3921 -1.8252 -1.5072
  919SOL    HW2 2757   0.785   1.575   2.714  1.9316 -0.9875  2.0220
  920SOL     OW 2758   1.339   1.822   2.457  0.2635 -0.0821 -0.1052
  920SOL    HW1 2759   1.403   1.786   2.386 -1.0497 -0.8506 -1.5925
  920SOL    HW2 2760   1.330   1.762   2.539  0.9159  0.2972  1.1326
  921SOL     OW 2761   1.137   0.071   2.591 -0.2928 -0.5655  0.4491
  921SOL    HW1 2762   1.125   0.036   2.490  0.9919 -1.3862 -0.5320
  921SOL    HW2 2763   1.050   0.098   2.630 -0.7056 -3.5129 -1.2027
  922SOL     OW 2764   2.194   2.453   2.802  0.3247 -0.3505 -0.2882
  922SOL    HW1 2765   2.202   2.364   2.849 -2.5930  3.0049 -1.4175
  922SOL    HW2 2766   2.131   2.446   2.719 -0.9424 -0.9176 -0.8924
  923SOL     OW 2767   1.187   2.735   0.283 -0.1385  0.5023  0.0139
  923SOL    HW1 2768   1.260   2.769   0.351 -1.7550  0.5799  1.0004
  923SOL    HW2 2769   1.191   2.630   0.270 -1.1374  1.9629 -1.0732
  924SOL     OW 2770   2.945   1.696   0.155 -0.1716 -0.1080  0.2308
  924SOL    HW1 2771   2.862   1.666   0.102  1.1348 -0.2514  0.5054
  924SOL    HW2 2772   3.013   1.623   0.153 -0.7933 -1.5454  0.5581
  925SOL     OW 2773   0.036   2.859   1.546  0.2972 -0.8652 -0.5578
  925SOL    HW1 2774  -0.034   2.918   1.598  0.1249  1.1395 -2.4780
  925SOL    HW2 2775  -0.005   2.789   1.490 -0.8496 -0.6450  1.9632
  926SOL     OW 2776   1.272   2.774   1.341  0.0015  0.0014 -0.3949
  926SOL    HW1 2777   1.287   2.758   1.237  0.0360  2.4217 -0.6059
  926SOL    HW2 2778   1.319   2.861   1.383 -0.0517  0.2329  0.2140
  927SOL     OW 2779   0.361   2.596   1.790  0.4627  0.5300  0.4882
  927SOL    HW1 2780   0.315   2.539   1.716  0.5069 -1.1119  0.7575
  927SOL    HW2 2781   0.340   2.697   1.787  1.5449  0.2115  0.5172
  928SOL     OW 2782   1.653   2.094   2.233 -0.7832  0.3223  0.0544
  928SOL    HW1 2783   1.688   2.164   2.163 -0.3328  0.7569  1.6610
  928SOL    HW2 2784   1.549   2.075   2.222 -2.2199 -1.2907  0.5377
  929SOL     OW 2785   2.468   2.502   2.887  0.1509 -0.2590  0.3838
  929SOL    HW1 2786   2.386   2.466   2.841  3.0245  1.6135  1.5033
  929SOL    HW2 2787   2.533   2.530   2.809  0.7879  0.3749 -3.0802
  930SOL     OW 2788   2.140   2.081   1.080  0.5179 -0.0670  0.4033
  930SOL    HW1 2789   2.147   2.028   1.171  1.6481  0.3736  1.7211
  930SOL    HW2 2790   2.143   2.182   1.101  1.4765 -2.4099 -1.8771
  931SOL     OW 2791   0.464   1.615   2.615 -0.0328  0.4436 -0.0563
  931SOL    HW1 2792   0.484   1.664   2.708 -0.9730  1.9217  0.2786
  931SOL    HW2 2793   0.552   1.567   2.582 -0.9687 -0.3803 -3.1932
  932SOL     OW 2794   0.360   0.062   0.006  0.1973 -0.1581  0.4089
  932SOL    HW1 2795   0.410   0.147  -0.037 -2.8277  0.8232 -1.0708
  932SOL    HW2 2796   0.408  -0.027  -0.012  0.8771  1.6295  2.6052
  933SOL     OW 2797   1.023   0.823   3.027 -0.0967  0.1802  0.8998
  933SOL    HW1 2798   1.089   0.886   3.071  0.6851 -2.5737  0.1887
  933SOL    HW2 2799   0.923   0.842   3.049 -0.3353  0.2907 -1.4609
  934SOL     OW 2800   0.894   2.963   2.627 -0.1657  0.5290 -0.1536
  934SOL    HW1 2801   0.859   2.898   2.557 -0.0175  2.3710 -0.4804
  934SOL    HW2 2802   0.942   2.912   2.703  0.5545 -0.4449  2.9521
  935SOL     OW 2803   0.029   0.576   0.781  0.5388 -0.7716  0.3634
  935SOL    HW1 2804   0.008   0.526   0.700 -0.0993  0.0828  3.3996
  935SOL    HW2 2805  -0.048   0.643   0.803  1.8073  0.8411 -0.5075
  936SOL     OW 2806   1.114   2.890   0.081  0.0516  0.1163 -0.3703
  936SOL    HW1 2807   1.194   2.924   0.026 -1.4766  0.5920 -2.1659
  936SOL    HW2 2808   1.147   2.828   0.160  0.9446  0.7999  0.9573
  937SOL     OW 2809   1.954   2.596   2.081 -0.5326  0.2452  0.1262
  937SOL    HW1 2810   1.922   2.627   2.172  1.3087  0.3980 -0.7260
  937SOL    HW2 2811   1.962   2.675   2.010 -0.1851  1.4185  0.1777
  938SOL     OW 2812   2.759   2.116   1.556 -0.4367  0.2982  0.2842
  938SOL    HW1 2813   2.722   2.210   1.567  0.7375 -2.2837 -0.5846
  938SOL    HW2 2814   2.852   2.110   1.606 -0.2625  0.5078 -2.5132
  939SOL     OW 2815   2.823   1.144   2.493  0.0370 -0.6430 -0.1546
  939SOL    HW1 2816   2.915   1.150   2.445 -1.4603  0.9314 -1.1927
  939SOL    HW2 2817   2.816   1.095   2.587 -1.5272 -0.5992  0.9274
  940SOL     OW 2818   1.074   0.458   2.742  0.6136 -0.1926  0.3976
  940SOL    HW1 2819   1.162   0.404   2.714  1.9284  0.1044 -0.1752
  940SOL    HW2 2820   0.993   0.428   2.685  0.7734  2.7926  1.3007
  941SOL     OW 2821   0.081   2.817   2.283 -0.1623  0.0422 -0.0423
  941SOL    HW1 2822   0.106   2.719   2.261  2.4560  1.8411 -1.4478
  941SOL    HW2 2823   0.167   2.874   2.308  1.1032 -0.2566 -0.1425
  942SOL     OW 2824   0.105   0.073   2.440 -0.3076  0.2164  0.1794
  942SOL    HW1 2825   0.121   0.077   2.539  0.6980 -0.5621 -0.9859
  942SOL    HW2 2826   0.097   0.164   2.392  0.7830  0.9304  0.4425
  943SOL     OW 2827   2.145   1.700   2.339 -0.0175  0.2231  0.2821
  943SOL    HW1 2828   2.113   1.653   2.246 -2.8921 -2.3955 -1.9489
  943SOL    HW2 2829   2.157   1.637   2.422 -0.7883  3.4620  1.0691
  944SOL     OW 2830   2.181   2.332   1.575 -0.1835  0.9746 -0.1490
  944SOL    HW1 2831   2.228   2.348   1.665 -0.2397 -0.2145 -0.9051
  944SOL    HW2 2832   2.115   2.252   1.573 -2.6830  0.0218  0.6709
  945SOL     OW 2833   0.687   1.637   0.153  0.8486  0.1424 -0.3770
  945SOL    HW1 2834   0.628   1.611   0.071 -0.2890 -0.0445 -2.1287
  945SOL    HW2 2835   0.733   1.552   0.193 -0.9991 -0.5267 -0.6934
  946SOL     OW 2836   0.341   1.004   2.618 -0.4022  0.5997 -0.4115
  946SOL    HW1 2837   0.306   0.944   2.541  1.4940 -2.9974  2.5631
  946SOL    HW2 2838   0.402   1.083   2.592 -0.1716  0.6784 -0.1133
  947SOL     OW 2839   1.474   0.527   3.037  0.3255 -0.3774  0.1217
  947SOL    HW1 2840   1.464   0.596   2.957 -0.3629  0.6648  0.9244
  947SOL    HW2 2841   1.380   0.501   3.080 -0.5680  1.0138 -0.4556
  948SOL     OW 2842   1.949   2.932   2.169 -0.4752 -0.7069 -0.1481
  948SOL    HW1 2843   1.927   2.919   2.070 -1.3728  1.0450  3.0435
  948SOL    HW2 2844   1.936   2.845   2.230  1.7238 -2.8723 -0.5956
  949SOL     OW 2845   0.577   2.482   0.425 -0.0100 -0.1126  0.2220
  949SOL    HW1 2846   0.586   2.581   0.421  2.6922 -2.3515 -0.5572
  949SOL    HW2 2847   0.594   2.450   0.526  0.1714  3.0075  2.4035
  950SOL     OW 2848   0.178   2.249   2.924 -0.3172 -0.6915 -0.0472
  950SOL    HW1 2849   0.176   2.351   2.887 -1.5873  3.0426 -2.2564
  950SOL    HW2 2850   0.167   2.173   2.855 -2.6001  1.0513  0.9548
  951SOL     OW 2851   1.223   2.668   2.805  0.1558  0.0667 -0.3099
  951SOL    HW1 2852   1.297   2.616   2.848 -2.0019 -0.2279 -0.5536
  951SOL    HW2 2853   1.254   2.725   2.719  0.3650 -0.7376 -0.7428
  952SOL     OW 2854   0.033   1.624   0.433  0.0189  0.3033 -0.1582
  952SOL    HW1 2855   0.084   1.705   0.469 -0.9079 -0.2684  2.3046
  952SOL    HW2 2856   0.079   1.539   0.478 -0.0108 -2.6629 -0.2651
  953SOL     OW 2857   2.503   1.737   0.293  0.6647  0.0756 -0.2106
  953SOL    HW1 2858   2.499   1.634   0.303 -1.8308  0.2888  0.5093
  953SOL    HW2 2859   2.457   1.773   0.201 -1.6132  1.6367  0.0256
  954SOL     OW 2860   2.214   0.527   0.932  0.1377  0.3107  0.1960
  954SOL    HW1 2861   2.206   0.526   0.827  1.2102 -0.1237 -1.2748
  954SOL    HW2 2862   2.308   0.529   0.974  0.6223 -1.0195 -2.2023
  955SOL     OW 2863   0.181   2.596   1.388  0.1416  0.1481  0.0909
  955SOL    HW1 2864   0.077   2.607   1.382 -1.3865 -0.9053  0.7252
  955SOL    HW2 2865   0.219   2.694   1.377 -2.1031  2.6732 -0.2050
  956SOL     OW 2866   2.806   2.490   2.505  0.1748 -0.2177 -0.2410
  956SOL    HW1 2867   2.842   2.395   2.502 -0.9535  0.4427 -1.7070
  956SOL    HW2 2868   2.845   2.542   2.422 -1.8286 -0.9900 -0.5980
  957SOL     OW 2869   1.618   2.068   2.752  0.1873  0.1830  0.1370
  957SOL    HW1 2870   1.611   1.983   2.814 -2.6634  1.7747 -0.3588
  957SOL    HW2 2871   1.666   2.057   2.661  2.8032  0.5081 -0.7177
  958SOL     OW 2872   2.614   2.284   3.017  0.2638  0.5688 -0.9787
  958SOL    HW1 2873   2.529   2.340   2.984  1.4113  1.3468 -0.8424
  958SOL    HW2 2874   2.598   2.225   3.099  0.9570  0.1750 -1.9621
  959SOL     OW 2875   0.399   2.811   0.141  0.1241 -0.3817  0.3497
  959SOL    HW1 2876   0.310   2.856   0.174 -1.0407  0.6584 -0.0743
  959SOL    HW2 2877   0.395   2.711   0.153 -0.3412  2.7739  0.4575
  960SOL     OW 2878   1.909   0.501   1.930  0.3444 -0.5793 -0.2767
  960SOL    HW1 2879   1.851   0.578   1.885  0.3920  1.7121 -0.3999
  960SOL    HW2 2880   1.917   0.505   2.032  0.7040 -0.5177 -0.2846
  961SOL     OW 2881   2.522   1.889   1.062  0.3680 -0.3524 -0.4827
  961SOL    HW1 2882   2.513   1.981   1.016 -0.8937  0.6181  0.9350
  961SOL    HW2 2883   2.506   1.891   1.167  0.0188  0.2020 -0.1815
  962SOL     OW 2884   1.308   0.887   0.040 -0.0896 -0.7313  0.1450
  962SOL    HW1 2885   1.286   0.928  -0.054  0.2945 -1.1792 -2.9051
  962SOL    HW2 2886   1.296   0.954   0.124 -0.9660 -0.5525  0.5807
  963SOL     OW 2887   2.322   2.580   1.814 -0.1814 -0.0244 -0.3490
  963SOL    HW1 2888   2.280   2.487   1.832 -0.0079 -1.7640 -1.1706
  963SOL    HW2 2889   2.359   2.630   1.900 -1.0865  0.8071  0.5324
  964SOL     OW 2890   2.381   0.413   1.663 -0.3212 -0.7346  0.2390
  964SOL    HW1 2891   2.476   0.378   1.695  1.8253 -0.4666  1.9617
  964SOL    HW2 2892   2.364   0.399   1.563  0.4464 -2.0297 -2.1365
  965SOL     OW 2893   2.612   3.014   0.188 -0.8380 -0.1209  0.2873
  965SOL    HW1 2894   2.675   3.006   0.107 -0.0223  1.8860  0.6886
  965SOL    HW2 2895   2.513   3.032   0.166 -0.5146 -0.0618 -1.3297
  966SOL     OW 2896   2.468   2.497   2.254  0.2326 -0.1015  0.1299
  966SOL    HW1 2897   2.486   2.571   2.190 -0.3806 -1.0802  1.1502
  966SOL    HW2 2898   2.368   2.471   2.263 -1.0357  0.3059  1.8315
  967SOL     OW 2899   2.741   2.857   2.455  0.1978  0.8177 -0.4119
  967SOL    HW1 2900   2.788   2.766   2.438 -4.0043  0.8756  0.4095
  967SOL    HW2 2901   2.804   2.925   2.499  2.0048 -2.3456  0.1500
  968SOL     OW 2902   1.974   1.065   2.597 -0.0558  0.3115  0.4764
  968SOL    HW1 2903   1.886   1.121   2.576  0.2061  1.0025  0.2532
  968SOL    HW2 2904   1.983   0.989   2.522 -1.2587 -1.1849  2.3250
  969SOL     OW 2905   2.782   2.559   1.073  1.0143  0.2389  0.8575
  969SOL    HW1 2906   2.768   2.656   1.046 -1.4267 -0.1611  1.3757
  969SOL    HW2 2907   2.795   2.499   0.987 -1.6085 -0.5097  1.6009
  970SOL     OW 2908   1.084   2.102   1.841  0.7763 -0.3424 -0.0673
  970SOL    HW1 2909   1.117   2.004   1.866  1.8024 -0.9684  0.5342
  970SOL    HW2 2910   0.992   2.103   1.792  2.0241  0.3667 -1.6206
  971SOL     OW 2911   2.894   2.171   1.942 -0.4486  0.0236 -0.0143
  971SOL    HW1 2912   2.915   2.264   1.981  0.7430 -0.1079 -1.4467
  971SOL    HW2 2913   2.959   2.149   1.864  1.2344 -2.4997  0.6952
  972SOL     OW 2914   1.914   2.449   0.241  0.6826 -0.6188 -0.0166
  972SOL    HW1 2915   1.940   2.358   0.206  2.9856  4.9614 -3.2525
  972SOL    HW2 2916   1.922   2.464   0.345 -1.5425  0.5784  2.7438
  973SOL     OW 2917   1.139   0.908   1.886 -0.6109 -0.2365  0.0218
  973SOL    HW1 2918   1.095   0.812   1.896  0.5012 -1.4451 -1.0513
  973SOL    HW2 2919   1.085   0.976   1.831  0.5927 -0.2979 -0.1279
  974SOL     OW 2920   1.596   0.563   1.977 -0.0054 -0.2503  0.4095
  974SOL    HW1 2921   1.673   0.612   1.926  0.6216 -0.5903  2.1647
  974SOL    HW2 2922   1.508   0.620   1.964 -0.2247  1.1804  2.3277
  975SOL     OW 2923   2.375   3.030   0.028  0.1898  0.2313 -0.3643
  975SOL    HW1 2924   2.301   2.958   0.029  1.4282 -0.3777  1.3473
  975SOL    HW2 2925   2.448   3.015  -0.044  3.2913 -1.5865  0.1073
  976SOL     OW 2926   1.931   2.705   2.346  0.4568 -0.0867  0.0490
  976SOL    HW1 2927   1.837   2.663   2.364  0.9431 -2.2003  1.6862
  976SOL    HW2 2928   1.975   2.754   2.429  0.7676 -0.3086 -0.8497
  977SOL     OW 2929   0.460   0.676   1.006 -0.4139 -0.1152  0.2342
  977SOL    HW1 2930   0.384   0.660   0.932 -1.1335  0.4055  1.6195
  977SOL    HW2 2931   0.503   0.771   1.000 -0.7019 -1.1294  2.0042
   3.10000   3.10000   3.10000
