1000 SPC/Fw water molecules t=   1.34000 step= 1340
 2931
    1SOL     OW    1   2.530   0.337   2.635 -0.2126 -0.7936  0.7051
    1SOL    HW1    2   2.530   0.229   2.619 -1.5984 -1.4180  0.7247
    1SOL    HW2    3   2.593   0.369   2.711 -0.8183  1.2713  1.2941
    2SOL     OW    4   2.762   2.991   1.373  0.0621 -0.2213  0.3012
    2SOL    HW1    5   2.818   3.027   1.298 -0.9862  2.1739 -0.9997
    2SOL    HW2    6   2.732   3.065   1.439 -1.9934 -0.4382  1.9915
    3SOL     OW    7   2.638   2.578   0.431  0.7868  0.0663  0.3866
    3SOL    HW1    8   2.594   2.486   0.449 -1.5580  1.1568 -0.2370
    3SOL    HW2    9   2.697   2.614   0.510 -0.6318  0.3391 -1.0136
    4SOL     OW   10   1.226   1.499   2.416 -0.2802 -0.3806  0.1528
    4SOL    HW1   11   1.177   1.520   2.328  1.6792  0.4369 -0.1111
    4SOL    HW2   12   1.275   1.409   2.409  2.8553 -1.3243  0.1458
    5SOL     OW   13   1.173   1.565   2.904 -0.2830 -0.2874 -0.2482
    5SOL    HW1   14   1.218   1.647   2.948 -0.4226  0.7332  0.8931
    5SOL    HW2   15   1.068   1.565   2.917  0.1990 -0.3363 -0.7978
    6SOL     OW   16   0.256   1.851   3.012  0.1672 -0.0375 -0.1103
    6SOL    HW1   17   0.153   1.862   3.041 -4.3098  0.5726 -1.0763
    6SOL    HW2   18   0.307   1.819   3.096  0.1860 -2.8963 -1.7400
    7SOL     OW   19   2.512   0.882   1.051 -0.4375  1.0484 -0.0420
    7SOL    HW1   20   2.438   0.825   1.095  0.1095  0.2808 -0.7595
    7SOL    HW2   21   2.573   0.831   0.988 -0.4632  1.6814  2.0892
    8SOL     OW   22   0.405   0.619   1.495 -0.0765  0.9564 -0.1353
    8SOL    HW1   23   0.499   0.573   1.499 -2.2528 -0.5687 -0.3594
    8SOL    HW2   24   0.388   0.664   1.401 -1.6033  0.4575  1.4675
    9SOL     OW   25   1.180   0.850   2.417 -0.5731 -0.1135  0.2005
    9SOL    HW1   26   1.222   0.868   2.323 -1.2901  0.9500 -0.3224
    9SOL    HW2   27   1.124   0.761   2.423 -1.2281 -0.9906  0.1752
   10SOL     OW   28   0.679   1.385   1.299  0.1862 -0.2284 -0.2047
   10SOL    HW1   29   0.591   1.379   1.250  0.3192 -1.0416  5.1149
   10SOL    HW2   30   0.724   1.482   1.301 -0.8784 -0.9545 -0.6105
   11SOL     OW   31   2.315   2.821   0.818  0.1343 -0.1468  0.1767
   11SOL    HW1   32   2.273   2.826   0.915  0.1907 -2.6991  1.6498
   11SOL    HW2   33   2.412   2.802   0.826 -1.2686  4.1609 -3.1970
   12SOL     OW   34   1.474   0.849   0.431  0.1111  0.6706  0.1529
   12SOL    HW1   35   1.439   0.912   0.355  2.4351  1.6362  1.0269
   12SOL    HW2   36   1.529   0.767   0.396  0.4747  0.1855 -1.8152
   13SOL     OW   37   2.412   0.739   1.756 -0.0873 -0.2491 -0.0794
   13SOL    HW1   38   2.356   0.667   1.810 -0.2980  0.1983  2.1549
   13SOL    HW2   39   2.453   0.709   1.664  0.3178  2.2155  1.5468
   14SOL     OW   40   1.933   0.030   0.634  0.5591 -0.3442 -0.4700
   14SOL    HW1   41   1.836   0.041   0.596 -0.1134  0.3393 -1.2602
   14SOL    HW2   42   1.943  -0.049   0.704 -2.5450  0.7490  0.3281
   15SOL     OW   43   1.907   2.104   2.646  0.1825 -0.0217 -0.5056
   15SOL    HW1   44   1.858   2.178   2.700  0.2370  1.0538 -0.8317
   15SOL    HW2   45   1.840   2.035   2.611 -0.0565  1.2526  0.8245
   16SOL     OW   46   1.597   1.702   2.990 -0.1392  0.3338 -0.1713
   16SOL    HW1   47   1.591   1.602   3.016  0.6711  0.2756  0.1014
   16SOL    HW2   48   1.685   1.736   3.023 -0.5590 -0.7242  0.8613
   17SOL     OW   49   0.125   0.423   0.178 -0.2644 -0.4468 -0.2759
   17SOL    HW1   50   0.203   0.473   0.137 -2.9508 -1.2526  1.3629
   17SOL    HW2   51   0.041   0.445   0.123  1.4786  1.5679 -0.3652
   18SOL     OW   52   0.935   2.985   2.167 -0.1700  0.6788  0.1766
   18SOL    HW1   53   0.903   2.895   2.197  0.5040  2.1747 -0.6889
   18SOL    HW2   54   0.982   2.970   2.073 -0.4915 -2.2192  0.7376
   19SOL     OW   55   0.527   0.840   1.890  0.8461  0.3321  0.0717
   19SOL    HW1   56   0.586   0.776   1.948 -0.1024  0.6139  0.2062
   19SOL    HW2   57   0.563   0.936   1.883  0.9482 -1.1373  2.1128
   20SOL     OW   58   0.217   2.825   0.860 -0.1302  0.3328  0.0276
   20SOL    HW1   59   0.127   2.873   0.837  3.0238  2.3740 -0.1916
   20SOL    HW2   60   0.249   2.764   0.786 -0.4746 -0.6205  0.7820
   21SOL     OW   61   2.758   0.253   1.951  0.4200  0.0028  0.1224
   21SOL    HW1   62   2.691   0.196   1.900  1.2700 -0.0985  0.6574
   21SOL    HW2   63   2.840   0.197   1.988  0.4822  0.9327  1.2204
   22SOL     OW   64   2.354   0.199   0.120  0.3922 -0.0081  0.0504
   22SOL    HW1   65   2.335   0.110   0.081  0.2543  4.5993  1.0789
   22SOL    HW2   66   2.325   0.273   0.055 -0.2199 -2.8053 -0.5437
   23SOL     OW   67   2.805   0.552   0.661  0.4045  0.4722  0.2288
   23SOL    HW1   68   2.817   0.470   0.600 -0.1567  1.9817  0.3647
   23SOL    HW2   69   2.803   0.641   0.607 -3.7061 -1.6202 -3.2537
   24SOL     OW   70   0.244   1.877   0.472 -0.1676 -0.3428 -0.7520
   24SOL    HW1   71   0.199   1.920   0.394 -2.0879 -3.6954  1.9847
   24SOL    HW2   72   0.348   1.865   0.460 -0.0781  0.8999  0.3658
   25SOL     OW   73   2.216   0.633   0.206 -0.0676  0.1383  0.7119
   25SOL    HW1   74   2.186   0.639   0.105 -1.7528  1.1385  2.3700
   25SOL    HW2   75   2.259   0.540   0.234 -2.7851 -2.7257 -0.1903
   26SOL     OW   76   2.452   2.153   2.100  0.0627 -0.4101 -0.0274
   26SOL    HW1   77   2.533   2.212   2.123 -0.4908 -2.4357 -1.9218
   26SOL    HW2   78   2.478   2.074   2.038 -1.4760 -0.4337  0.5664
   27SOL     OW   79   0.632   2.952   0.258 -0.6552  0.5380 -0.2188
   27SOL    HW1   80   0.721   2.983   0.220 -0.9996  0.1477  0.4682
   27SOL    HW2   81   0.561   2.922   0.186  1.6582  2.3024 -2.4435
   28SOL     OW   82   1.572   0.116   0.333  0.0533 -0.2717  0.2092
   28SOL    HW1   83   1.620   0.072   0.248  3.8046 -1.0590  0.1356
   28SOL    HW2   84   1.597   0.217   0.348 -0.1717  0.3564 -0.3606
   29SOL     OW   85   1.951   0.563   0.272  0.2287 -0.0059 -0.4115
   29SOL    HW1   86   1.876   0.600   0.334  2.4682  1.9264 -0.3466
   29SOL    HW2   87   2.038   0.622   0.274  0.4158 -1.1697  3.6261
   30SOL     OW   88   0.182   2.087   0.870 -0.2734  0.0346 -0.0236
   30SOL    HW1   89   0.130   2.016   0.812  0.2737 -0.8521 -3.0550
   30SOL    HW2   90   0.111   2.141   0.926 -2.9279 -2.3069 -0.2842
   31SOL     OW   91   2.173   0.111   2.422  0.6849 -0.9987 -0.2769
   31SOL    HW1   92   2.155   0.095   2.525 -1.3679  0.0645  1.9362
   31SOL    HW2   93   2.103   0.061   2.364 -0.7060 -0.4539  0.1328
   32SOL     OW   94   2.959   0.017   0.259 -0.2773 -0.8118  0.3720
   32SOL    HW1   95   2.939  -0.054   0.333 -1.5058  0.6045 -1.0305
   32SOL    HW2   96   3.044   0.070   0.275 -0.4819 -0.6944 -1.7560
   33SOL     OW   97   0.895   0.277   0.607 -0.2837 -0.8024  0.0490
   33SOL    HW1   98   0.872   0.194   0.552 -2.5700  2.3249  1.6457
   33SOL    HW2   99   0.997   0.308   0.602  1.2163 -1.3451  0.1796
   34SOL     OW  100   0.308   2.737   1.090 -0.5616 -0.1338  0.2763
   34SOL    HW1  101   0.260   2.774   1.005  1.0416  0.4631  1.5460
   34SOL    HW2  102   0.404   2.776   1.100 -0.4992 -0.6418  0.0569
   35SOL     OW  103   0.049   0.112   1.878 -0.7882 -0.3164 -0.0311
   35SOL    HW1  104   0.095   0.027   1.909 -0.1954  1.8065  0.5034
   35SOL    HW2  105   0.018   0.114   1.780  0.0575  3.0104 -1.5885
   36SOL     OW  106   1.820   1.222   1.554 -0.0057 -0.8236 -0.6184
   36SOL    HW1  107   1.866   1.130   1.569  1.2223  0.6924  0.7405
   36SOL    HW2  108   1.865   1.266   1.472 -2.0303  1.1010 -2.2947
   37SOL     OW  109   1.186   0.208   0.965 -0.4111 -0.2449  0.4802
   37SOL    HW1  110   1.222   0.304   0.999 -1.8934 -0.9066 -0.6804
   37SOL    HW2  111   1.259   0.134   0.949  0.2025 -1.3300  1.7787
   38SOL     OW  112   1.141   2.888   2.359  0.1007 -0.1255  0.6886
   38SOL    HW1  113   1.088   2.827   2.426 -0.1008  4.9202  0.7260
   38SOL    HW2  114   1.099   2.982   2.350 -0.9580  1.5336  2.6263
   39SOL     OW  115   2.375   1.359   3.027  0.5835  0.0296  0.0149
   39SOL    HW1  116   2.443   1.284   3.028 -0.1555  1.6241  1.0820
   39SOL    HW2  117   2.342   1.379   3.122  3.1252  1.0917  0.5221
   40SOL     OW  118   2.013   2.470   2.612  0.3729  0.0880  0.1840
   40SOL    HW1  119   1.995   2.576   2.608 -1.1031  2.2632  0.0275
   40SOL    HW2  120   1.996   2.421   2.524  1.2254  1.8915  0.9403
   41SOL     OW  121   3.040   0.654   2.795 -0.3661  0.0704 -0.3550
   41SOL    HW1  122   2.948   0.694   2.791  2.1137 -1.5258  2.5589
   41SOL    HW2  123   3.045   0.557   2.761  0.3239  0.0629  3.1735
   42SOL     OW  124   1.766   1.782   0.543 -0.0969 -0.1919 -0.0517
   42SOL    HW1  125   1.687   1.715   0.547  1.3292 -0.2407  2.3626
   42SOL    HW2  126   1.795   1.795   0.442 -1.2557 -2.1192 -3.4220
   43SOL     OW  127   0.479   1.673   1.260  0.6660  0.4281  0.3032
   43SOL    HW1  128   0.446   1.594   1.199  0.7081 -0.4070 -0.0773
   43SOL    HW2  129   0.412   1.688   1.334 -2.0624  0.5699  0.0328
   44SOL     OW  130   1.674   2.414   3.021  0.0123  0.4397 -0.1785
   44SOL    HW1  131   1.583   2.453   2.996  1.6371 -1.2958  0.6433
   44SOL    HW2  132   1.735   2.422   2.938 -3.6730  1.7152 -0.3187
   45SOL     OW  133   0.383   1.906   2.571 -0.1814  0.3045 -0.0692
   45SOL    HW1  134   0.345   1.869   2.481  3.0040 -0.5473  0.0276
   45SOL    HW2  135   0.441   1.830   2.611  0.3891  0.4952  0.5311
   46SOL     OW  136   1.305   0.649   0.165 -0.0302  0.1807  0.9433
   46SOL    HW1  137   1.289   0.740   0.115  0.1393 -0.1296 -0.0375
   46SOL    HW2  138   1.228   0.584   0.157  0.5982 -1.0533  0.0748
   47SOL     OW  139   0.191   2.490   1.597 -0.0038 -0.2394  0.0298
   47SOL    HW1  140   0.134   2.405   1.573 -0.5187  0.1186 -1.7249
   47SOL    HW2  141   0.231   2.529   1.508  0.3975 -1.0962  2.0079
   48SOL     OW  142   2.629   0.608   0.143  0.7872 -0.1792  0.3032
   48SOL    HW1  143   2.603   0.606   0.243  0.0286 -1.6675 -1.1100
   48SOL    HW2  144   2.719   0.651   0.128 -3.0825 -1.7568 -0.4391
   49SOL     OW  145   0.314   0.759   1.727 -0.5180 -0.1754  0.5693
   49SOL    HW1  146   0.400   0.776   1.786 -2.6520  3.4584  1.4758
   49SOL    HW2  147   0.336   0.703   1.643 -1.4539 -0.6831  0.6742
   50SOL     OW  148   1.718   1.139   0.301  0.4048  0.3813 -0.6962
   50SOL    HW1  149   1.756   1.048   0.275 -0.0098 -0.3885 -1.4893
   50SOL    HW2  150   1.687   1.144   0.398 -1.1701 -1.5028 -1.5932
   51SOL     OW  151   3.021   1.750   0.263  0.3563  0.7610  0.4335
   51SOL    HW1  152   2.969   1.674   0.215  0.2479  1.1296 -0.9806
   51SOL    HW2  153   3.087   1.711   0.332 -0.2528 -1.1032 -2.6695
   52SOL     OW  154   0.820   2.150   0.641  0.0490 -0.3149  0.3177
   52SOL    HW1  155   0.718   2.156   0.640 -2.0820 -1.1919 -0.9602
   52SOL    HW2  156   0.857   2.062   0.684 -0.4577  1.7026 -1.1871
   53SOL     OW  157   0.176   0.448   1.574 -0.3215 -0.9497  0.6609
   53SOL    HW1  158   0.251   0.518   1.592  1.3160 -1.8684  0.9487
   53SOL    HW2  159   0.107   0.483   1.508 -0.3965  0.2263 -1.8340
   54SOL     OW  160   1.795   0.499   3.057 -0.4700 -0.2392  0.4473
   54SOL    HW1  161   1.857   0.440   3.113 -0.9399  0.4192 -2.2009
   54SOL    HW2  162   1.704   0.525   3.103 -0.5056  1.7590 -1.9205
   55SOL     OW  163   0.734   2.892   0.707  0.3099 -0.0098 -0.0773
   55SOL    HW1  164   0.678   2.983   0.705  0.7864 -0.3814 -0.9393
   55SOL    HW2  165   0.837   2.899   0.682 -1.0068 -0.9722 -2.0386
   56SOL     OW  166   0.575   1.620   0.018 -0.0588 -0.4452 -0.5486
   56SOL    HW1  167   0.498   1.651   0.084  1.1261  0.9061 -0.9691
   56SOL    HW2  168   0.548   1.534  -0.031  0.4655  0.5219  1.3545
   57SOL     OW  169   1.759   2.500   2.412  0.5523 -0.2442 -0.0779
   57SOL    HW1  170   1.793   2.405   2.401  0.0469  0.7949 -0.4949
   57SOL    HW2  171   1.678   2.508   2.472 -0.0158 -0.9758  1.9239
   58SOL     OW  172   0.648   0.266   1.131  0.2287  0.5568  0.0307
   58SOL    HW1  173   0.553   0.285   1.176 -1.8168 -0.8886  1.0979
   58SOL    HW2  174   0.687   0.172   1.152 -2.0270 -0.5202  0.0901
   59SOL     OW  175   0.416   2.408   2.734  0.1476 -0.0221 -0.4162
   59SOL    HW1  176   0.413   2.327   2.677  2.0924  1.7189  0.7775
   59SOL    HW2  177   0.500   2.400   2.796  1.1071  2.6677  2.0008
   60SOL     OW  178   2.301   2.132   2.339 -0.9845  0.1235 -0.0229
   60SOL    HW1  179   2.368   2.152   2.264 -3.1568 -1.7545  1.2841
   60SOL    HW2  180   2.328   2.170   2.430  1.2183 -1.7529 -1.4223
   61SOL     OW  181   1.219   0.635   0.452  0.2430  0.4155  0.7701
   61SOL    HW1  182   1.131   0.679   0.481  1.1460  0.1727 -2.3204
   61SOL    HW2  183   1.248   0.671   0.358 -2.4277 -1.4619  3.3772
   62SOL     OW  184   2.716   1.723   2.798  0.0951  0.4902 -0.7886
   62SOL    HW1  185   2.668   1.740   2.707 -1.5911 -3.0111 -1.3165
   62SOL    HW2  186   2.811   1.696   2.783 -0.5769  0.7766 -0.0565
   63SOL     OW  187   0.556   0.895   0.191 -0.1388  0.0428 -0.3004
   63SOL    HW1  188   0.620   0.956   0.137 -1.3031  2.3560  1.3982
   63SOL    HW2  189   0.598   0.868   0.280  0.8889  1.4763 -0.8022
   64SOL     OW  190   3.048   0.538   2.364  0.0500  0.5236 -0.1166
   64SOL    HW1  191   2.977   0.573   2.427  0.4817  1.4791 -3.6055
   64SOL    HW2  192   3.058   0.593   2.277 -2.3322 -1.6116  2.9966
   65SOL     OW  193   0.214   1.451   0.698 -0.3146 -0.4866  0.3852
   65SOL    HW1  194   0.215   1.521   0.773  0.5564  3.1597 -4.1964
   65SOL    HW2  195   0.280   1.483   0.620 -2.0587  3.3049 -0.7025
   66SOL     OW  196   2.533   0.387   0.529  0.5821  0.3203 -0.2231
   66SOL    HW1  197   2.637   0.365   0.523 -0.4970  1.6638 -0.5264
   66SOL    HW2  198   2.483   0.316   0.590 -0.0530 -1.7073  1.5163
   67SOL     OW  199   0.639   2.491   1.441  0.3081 -0.3101  0.6680
   67SOL    HW1  200   0.716   2.436   1.479  1.2973  0.0505 -1.8889
   67SOL    HW2  201   0.555   2.428   1.428  1.1064 -1.6068 -1.3956
   68SOL     OW  202   0.997   1.062   2.513 -0.4229  0.8279 -0.1923
   68SOL    HW1  203   1.055   0.979   2.501 -0.8364  0.4117 -1.7050
   68SOL    HW2  204   0.955   1.078   2.423  3.6906  1.3335  0.0181
   69SOL     OW  205   0.755   2.733   2.215  0.2869 -0.1304 -0.0109
   69SOL    HW1  206   0.783   2.639   2.176 -0.5135 -1.2041 -0.1457
   69SOL    HW2  207   0.652   2.747   2.234  1.2812 -0.7885  1.7359
   70SOL     OW  208   0.450   0.111   2.531 -0.1486  0.0355 -0.2419
   70SOL    HW1  209   0.365   0.123   2.595  0.7542 -2.1206 -0.7421
   70SOL    HW2  210   0.514   0.033   2.556 -1.2895  0.6771  0.2582
   71SOL     OW  211   1.132   1.792   0.328 -0.9455 -0.1060 -0.6247
   71SOL    HW1  212   1.078   1.716   0.379  0.5536  0.4733 -3.6317
   71SOL    HW2  213   1.077   1.830   0.250 -0.4032  2.7416 -1.7801
   72SOL     OW  214   1.821   0.183   2.179  0.1459 -0.4119 -0.2203
   72SOL    HW1  215   1.872   0.278   2.176 -0.4620  2.2464  0.2541
   72SOL    HW2  216   1.874   0.101   2.149 -1.5428  1.6403  3.9463
   73SOL     OW  217   2.801   2.166   2.373 -0.2771  0.0113  0.0648
   73SOL    HW1  218   2.764   2.071   2.361  2.2722  0.5044  1.1569
   73SOL    HW2  219   2.838   2.181   2.470 -0.3156 -0.6741 -0.6734
   74SOL     OW  220   2.661   2.867   2.177  0.1259  0.2048  0.1190
   74SOL    HW1  221   2.651   2.823   2.273  2.5199 -1.5707  1.4087
   74SOL    HW2  222   2.752   2.909   2.158 -2.5671 -0.9337  0.9883
   75SOL     OW  223   0.959   0.842   1.055  0.2006 -0.1126 -0.0987
   75SOL    HW1  224   0.868   0.882   1.027  1.0495  0.4679 -2.1685
   75SOL    HW2  225   0.977   0.878   1.151  1.2499 -1.1754  1.1971
   76SOL     OW  226   1.843   1.231   2.438  0.7026  0.1363 -0.1678
   76SOL    HW1  227   1.742   1.253   2.461  1.7068  4.8753 -3.2404
   76SOL    HW2  228   1.890   1.316   2.410 -0.1625  0.3930  0.3202
   77SOL     OW  229   2.928   0.930   1.033 -0.3663  0.2808 -0.0046
   77SOL    HW1  230   2.906   0.829   1.025 -1.4236  0.0292 -1.3681
   77SOL    HW2  231   2.997   0.949   1.106 -0.8915  1.9367  0.3785
   78SOL     OW  232   2.010   1.401   1.411 -0.1095 -0.7392 -0.6276
   78SOL    HW1  233   2.110   1.418   1.430 -0.0457 -0.3014 -1.2406
   78SOL    HW2  234   1.983   1.426   1.314  2.9271  2.2840 -1.6817
   79SOL     OW  235   0.659   1.421   0.792  0.1450 -0.0804 -0.2151
   79SOL    HW1  236   0.572   1.386   0.843  1.9872 -1.4668 -0.2780
   79SOL    HW2  237   0.690   1.339   0.724  1.2124 -1.4136 -2.8297
   80SOL     OW  238   0.627   0.500   1.505 -0.1293  0.1523  0.0584
   80SOL    HW1  239   0.699   0.567   1.463  0.1392 -0.4334 -0.3664
   80SOL    HW2  240   0.626   0.409   1.450 -2.3621  0.0381 -0.4450
   81SOL     OW  241   0.995   1.308   2.602 -0.0686 -0.2199 -0.3217
   81SOL    HW1  242   0.999   1.207   2.570 -0.4473  0.0972  0.3429
   81SOL    HW2  243   0.950   1.369   2.526  0.2096  0.8371 -1.7180
   82SOL     OW  244   0.996   2.857   1.535  0.4158 -0.4318  0.3612
   82SOL    HW1  245   0.978   2.758   1.503  1.6943 -2.3505  2.8535
   82SOL    HW2  246   1.005   2.923   1.453 -1.4657 -0.7302 -0.0061
   83SOL     OW  247   2.553   2.375   0.876 -0.1672  0.1491  0.2020
   83SOL    HW1  248   2.466   2.312   0.859 -1.0721  0.9312 -0.8199
   83SOL    HW2  249   2.534   2.474   0.853 -0.5571  0.1954  2.0074
   84SOL     OW  250   0.724   0.015   2.371  0.5235 -0.1563 -0.2962
   84SOL    HW1  251   0.706  -0.048   2.453  0.1402 -1.0145 -0.3415
   84SOL    HW2  252   0.792  -0.018   2.302 -1.6955  1.9062 -0.0760
   85SOL     OW  253   0.285   1.638   1.433  0.2409 -0.1687  0.0982
   85SOL    HW1  254   0.255   1.737   1.438  2.8107 -0.5079  1.8370
   85SOL    HW2  255   0.315   1.612   1.530 -0.9290  3.0518 -1.2132
   86SOL     OW  256   0.436   1.055   1.520  0.0335  0.2281  1.1846
   86SOL    HW1  257   0.381   1.000   1.448 -2.6228  0.9797 -1.7578
   86SOL    HW2  258   0.536   1.026   1.513  1.3270  1.9226 -0.5853
   87SOL     OW  259   1.655   0.670   0.270 -0.6314 -0.3319 -0.0817
   87SOL    HW1  260   1.724   0.753   0.268  3.9595  2.1288  1.0510
   87SOL    HW2  261   1.615   0.645   0.178  0.5987 -0.6118 -2.9822
   88SOL     OW  262   1.559   1.358   0.254  0.9934 -0.1006  0.1722
   88SOL    HW1  263   1.618   1.274   0.273  2.5547  1.5251  1.2162
   88SOL    HW2  264   1.455   1.340   0.259  1.4166  1.0089  1.6693
   89SOL     OW  265   3.075   0.293   0.622  0.3323  0.1948  0.4828
   89SOL    HW1  266   3.145   0.221   0.611  0.9579 -1.0505 -0.5856
   89SOL    HW2  267   2.978   0.259   0.594 -1.4707 -1.1114  0.2152
   90SOL     OW  268   0.812   1.585   0.125 -0.6591 -0.0089  0.5294
   90SOL    HW1  269   0.860   1.499   0.099  0.7422  0.6786 -0.4384
   90SOL    HW2  270   0.721   1.596   0.070  0.9816  0.0574  0.4525
   91SOL     OW  271   1.210   1.461   1.765  0.1850  0.2141  0.3103
   91SOL    HW1  272   1.179   1.520   1.844  1.9349 -1.0637  1.1232
   91SOL    HW2  273   1.307   1.425   1.786 -1.8266  2.1049 -1.3773
   92SOL     OW  274   0.013   0.953   1.232  0.1809 -0.1852 -0.0134
   92SOL    HW1  275   0.080   1.008   1.178  0.4735  0.5819 -0.2017
   92SOL    HW2  276   0.027   0.967   1.334 -2.2186 -0.2464  1.7372
   93SOL     OW  277   3.086   2.721   0.033  0.0608  0.2743  0.1548
   93SOL    HW1  278   3.028   2.714  -0.052 -1.9290  1.7154  1.0285
   93SOL    HW2  279   3.093   2.629   0.076  1.4589 -0.4969  0.4571
   94SOL     OW  280   1.493   1.424   1.762  0.2058 -0.6416 -0.2760
   94SOL    HW1  281   1.576   1.361   1.782 -1.0921 -1.7696 -0.9347
   94SOL    HW2  282   1.517   1.523   1.771 -1.4954  0.2180 -1.3047
   95SOL     OW  283   1.405   2.508   2.960 -0.5267  0.0835 -0.1449
   95SOL    HW1  284   1.319   2.551   2.985  2.4466 -1.9740 -1.7573
   95SOL    HW2  285   1.394   2.405   2.943 -0.7825 -0.5991  0.7928
   96SOL     OW  286   0.563   2.106   1.307 -0.1969  0.1295 -0.1929
   96SOL    HW1  287   0.504   2.039   1.251  0.0147  1.2361  0.0503
   96SOL    HW2  288   0.633   2.057   1.368 -0.0294  0.1390 -0.4764
   97SOL     OW  289   0.306   1.611   2.442 -0.0321 -0.0612 -0.2004
   97SOL    HW1  290   0.254   1.673   2.376 -0.1872  0.8737 -1.0085
   97SOL    HW2  291   0.259   1.607   2.533  3.5397  0.5357 -0.0675
   98SOL     OW  292   2.167   1.613   1.200  0.2502  0.0796 -0.1468
   98SOL    HW1  293   2.068   1.593   1.172 -1.1351  0.8751  0.5702
   98SOL    HW2  294   2.234   1.551   1.150  1.3166  1.6643  2.1101
   99SOL     OW  295   2.570   2.109   1.303 -0.0357  0.4022  0.4591
   99SOL    HW1  296   2.614   2.133   1.391 -1.2268  1.1830 -0.8757
   99SOL    HW2  297   2.537   2.007   1.301 -1.1052  1.1045 -0.2937
  100SOL     OW  298   2.303   0.410   2.107  0.0185 -0.0953  0.1904
  100SOL    HW1  299   2.268   0.364   2.195 -0.0229  1.3487  0.5756
  100SOL    HW2  300   2.407   0.434   2.108  1.2377  0.1926 -0.3990
  101SOL     OW  301   0.394   1.536   0.504  0.2212 -0.3746  0.0683
  101SOL    HW1  302   0.434   1.594   0.582  1.6372  3.5815  1.1041
  101SOL    HW2  303   0.466   1.526   0.432 -1.4387  2.2049 -2.1990
  102SOL     OW  304   2.301   1.072   0.821  0.0286 -0.0129 -0.2757
  102SOL    HW1  305   2.250   0.988   0.791  0.5273  0.8774  0.7865
  102SOL    HW2  306   2.396   1.078   0.792 -0.4077  2.1132  1.0721
  103SOL     OW  307   2.235   0.095   0.350  0.2227 -0.8040 -0.5752
  103SOL    HW1  308   2.281   0.147   0.276 -0.9623 -0.2984 -0.7037
  103SOL    HW2  309   2.301   0.048   0.416 -0.9436 -1.5614  0.5065
  104SOL     OW  310   0.043   1.891   2.092 -0.0987 -0.3721  0.0562
  104SOL    HW1  311   0.088   1.864   2.004 -0.0882 -0.8647  0.1696
  104SOL    HW2  312  -0.047   1.937   2.075  2.3217 -1.9891 -0.3994
  105SOL     OW  313   1.276   2.102   0.794  0.4884 -0.2782 -0.4971
  105SOL    HW1  314   1.237   2.143   0.707  2.4967 -0.5631 -1.7404
  105SOL    HW2  315   1.312   2.003   0.782  0.8600  0.2612 -0.8696
  106SOL     OW  316   2.070   0.387   1.411  0.1477  0.6581 -0.6559
  106SOL    HW1  317   2.019   0.304   1.441 -0.4282 -0.4239 -0.5395
  106SOL    HW2  318   2.090   0.446   1.494  1.4734  0.0155  1.4742
  107SOL     OW  319   1.980   2.941   1.186 -0.0598  0.1423  0.5416
  107SOL    HW1  320   1.911   3.012   1.212  0.0902 -0.4579 -1.4258
  107SOL    HW2  321   1.947   2.868   1.117  3.4285  1.3359 -0.8183
  108SOL     OW  322   0.871   2.838   1.166  0.5451 -0.1235 -0.0412
  108SOL    HW1  323   0.858   2.749   1.215 -1.2930  0.3072  0.1249
  108SOL    HW2  324   0.940   2.897   1.215 -0.7714 -0.0182  0.1291
  109SOL     OW  325   2.159   0.150   0.780 -0.2434  0.0557  0.0054
  109SOL    HW1  326   2.064   0.150   0.740  0.8272  1.0438 -0.8752
  109SOL    HW2  327   2.167   0.097   0.869 -1.8073 -0.4172 -0.8730
  110SOL     OW  328   0.471   2.796   2.771 -0.4785  0.3129  0.2662
  110SOL    HW1  329   0.451   2.786   2.669 -0.5360  0.0450  2.9701
  110SOL    HW2  330   0.545   2.723   2.807  2.7145 -2.8840 -0.8537
  111SOL     OW  331   1.295   0.500   2.335 -0.2906 -0.3195 -0.1771
  111SOL    HW1  332   1.193   0.517   2.367 -2.5342 -0.0130  1.7333
  111SOL    HW2  333   1.352   0.455   2.413  0.3509 -0.5998 -2.6330
  112SOL     OW  334   1.773   0.424   1.487  0.1534 -0.3219  0.4226
  112SOL    HW1  335   1.752   0.435   1.389  2.0045 -0.2103  2.7320
  112SOL    HW2  336   1.687   0.395   1.543 -0.7812 -1.0414 -1.7998
  113SOL     OW  337   2.391   1.699   1.719  0.4034 -0.3746 -0.1861
  113SOL    HW1  338   2.427   1.600   1.717  1.1624 -2.2803 -0.7286
  113SOL    HW2  339   2.417   1.755   1.804  0.2816 -0.1466  1.6783
  114SOL     OW  340   0.298   0.510   1.194 -0.5475 -0.4513  0.0265
  114SOL    HW1  341   0.360   0.539   1.120 -1.5545 -1.3646  2.5868
  114SOL    HW2  342   0.232   0.585   1.220 -1.0436  0.6855 -1.0995
  115SOL     OW  343   2.792   1.525   1.276  0.0373 -0.8802 -0.7437
  115SOL    HW1  344   2.749   1.432   1.297  2.9068 -0.2138 -0.0331
  115SOL    HW2  345   2.855   1.522   1.188 -1.1736  1.5963 -1.3416
  116SOL     OW  346   1.896   0.968   0.671  0.5335 -0.4312  0.1694
  116SOL    HW1  347   1.811   0.911   0.693  1.1390 -2.3284 -1.3125
  116SOL    HW2  348   1.901   1.071   0.682 -2.9475 -0.1966  1.0428
  117SOL     OW  349   1.138   0.373   0.571 -0.5165  0.3980  0.1724
  117SOL    HW1  350   1.182   0.466   0.566  0.0111 -3.5891 -2.0894
  117SOL    HW2  351   1.127   0.325   0.475  1.4348 -3.8817 -0.7121
  118SOL     OW  352   1.093   1.208   1.123  0.2563 -0.4487  0.0489
  118SOL    HW1  353   1.067   1.141   1.199 -1.0964  1.4839  1.1855
  118SOL    HW2  354   1.107   1.310   1.151  0.6200  0.2875  0.6754
  119SOL     OW  355   1.856   1.603   2.195  0.0926 -0.1333  0.6388
  119SOL    HW1  356   1.808   1.684   2.141 -0.0971 -1.2416  1.0988
  119SOL    HW2  357   1.952   1.586   2.156  0.8111  0.4280 -0.1145
  120SOL     OW  358   2.904   2.801   0.241  0.1659 -0.1569 -0.2478
  120SOL    HW1  359   2.988   2.813   0.179 -1.6226  1.3434  0.2030
  120SOL    HW2  360   2.829   2.747   0.192  0.5324 -0.0589  1.8166
  121SOL     OW  361   1.853   0.723   2.146 -0.2322  0.3911  0.1993
  121SOL    HW1  362   1.911   0.782   2.082  1.2267  0.6881  1.5053
  121SOL    HW2  363   1.891   0.628   2.153  1.1230  1.4805 -1.4581
  122SOL     OW  364   2.598   2.501   1.341 -0.3795 -0.1783 -0.3212
  122SOL    HW1  365   2.583   2.471   1.246  2.0779 -0.8113  1.7485
  122SOL    HW2  366   2.631   2.427   1.402 -0.4554  1.9166  4.0412
  123SOL     OW  367   1.725   0.119   1.710 -0.7518  0.7614  0.5120
  123SOL    HW1  368   1.727   0.014   1.675 -1.1001 -0.4922 -0.4217
  123SOL    HW2  369   1.822   0.159   1.714  1.2612  0.0829 -0.6686
  124SOL     OW  370   3.050   0.472   1.103 -0.2278 -0.1118  0.3511
  124SOL    HW1  371   2.956   0.493   1.144  1.2743  1.5756  2.0345
  124SOL    HW2  372   3.067   0.528   1.015  0.9556 -2.1209  1.1436
  125SOL     OW  373   0.900   1.916   0.762  0.1526 -0.1731  0.0983
  125SOL    HW1  374   0.966   1.839   0.772  0.8963  0.2363 -0.5210
  125SOL    HW2  375   0.833   1.924   0.844  0.7051 -1.1795 -0.9271
  126SOL     OW  376   1.959   2.270   2.420  0.2130 -0.2598  0.9858
  126SOL    HW1  377   2.001   2.236   2.334  2.0322 -2.2604  3.5164
  126SOL    HW2  378   1.930   2.198   2.485 -0.7277  1.1040 -0.3266
  127SOL     OW  379   0.896   0.977   0.196 -0.2571 -0.2103  0.0818
  127SOL    HW1  380   0.913   0.992   0.298  1.7888  3.0587  1.6771
  127SOL    HW2  381   0.903   0.880   0.169  3.8093  0.5345  1.7718
  128SOL     OW  382   0.948   0.276   1.420 -0.2230 -0.3450 -0.1023
  128SOL    HW1  383   0.917   0.330   1.336 -0.8296 -2.5379  2.0231
  128SOL    HW2  384   0.883   0.191   1.417 -0.4134  2.2411 -2.2139
  129SOL     OW  385   1.871   0.658   1.853  0.1318 -0.2534 -0.1571
  129SOL    HW1  386   1.913   0.669   1.757  1.8450 -0.1458 -1.7019
  129SOL    HW2  387   1.869   0.743   1.905  0.7742  1.5551  0.2589
  130SOL     OW  388   1.419   2.249   1.004  0.1736  0.3778 -0.1773
  130SOL    HW1  389   1.381   2.239   0.908 -0.0479  0.0479 -0.6643
  130SOL    HW2  390   1.482   2.329   1.019 -1.8729 -1.1920 -0.1295
  131SOL     OW  391   3.047   1.375   1.354  0.1476  1.1397  0.1327
  131SOL    HW1  392   2.986   1.292   1.382  1.9091 -0.0951 -0.5086
  131SOL    HW2  393   3.150   1.350   1.368 -1.9080  1.4490  2.7776
  132SOL     OW  394   2.048   2.381   0.507  0.1581 -0.0695  0.1335
  132SOL    HW1  395   1.951   2.420   0.501  1.9765  2.5576  0.1912
  132SOL    HW2  396   2.062   2.324   0.591 -0.1390 -1.1858  1.9695
  133SOL     OW  397   1.781   2.340   2.736  0.5999  0.0998 -0.6608
  133SOL    HW1  398   1.702   2.322   2.670 -1.8827  0.8097  1.0080
  133SOL    HW2  399   1.862   2.396   2.705 -0.2390  2.8641  3.0379
  134SOL     OW  400   2.679   2.373   1.592  0.2425  0.2490  0.4628
  134SOL    HW1  401   2.626   2.346   1.678 -1.4332 -0.4951  0.2861
  134SOL    HW2  402   2.755   2.440   1.618  1.1300  0.4923 -0.2730
  135SOL     OW  403   0.690   1.454   2.664  0.0156 -0.6623  0.5269
  135SOL    HW1  404   0.702   1.358   2.698  0.3291  0.6571  4.5329
  135SOL    HW2  405   0.677   1.458   2.564  0.5119 -0.2550 -1.3539
  136SOL     OW  406   1.210   2.014   0.451  0.2853 -0.1024 -0.7952
  136SOL    HW1  407   1.130   2.083   0.460 -0.4675 -1.0670 -1.4104
  136SOL    HW2  408   1.175   1.920   0.431 -0.6020 -0.0890  2.7837
  137SOL     OW  409   0.405   1.209   2.247  0.0923  0.1056 -0.4478
  137SOL    HW1  410   0.306   1.222   2.257 -0.9062 -0.1048  0.5210
  137SOL    HW2  411   0.443   1.112   2.256 -1.2777 -0.8383 -0.6082
  138SOL     OW  412   2.446   1.546   0.306 -0.0344  0.6398  0.5477
  138SOL    HW1  413   2.379   1.488   0.246 -0.4746  0.4667  0.4418
  138SOL    HW2  414   2.519   1.491   0.358 -1.9954 -1.1478  0.2066
  139SOL     OW  415   1.852   2.629   1.505 -0.4809  0.4629  0.2208
  139SOL    HW1  416   1.759   2.641   1.464 -0.3599 -1.4181  2.8371
  139SOL    HW2  417   1.892   2.544   1.467 -0.3627  2.2100 -0.9174
  140SOL     OW  418   3.006   2.990   2.597 -0.2239 -0.5693  0.5045
  140SOL    HW1  419   3.040   2.895   2.571 -0.8591 -0.2232 -2.4255
  140SOL    HW2  420   3.067   3.067   2.570  0.0735  1.5668  0.4155
  141SOL     OW  421   1.335   1.635   1.572 -0.0204  0.0116 -0.4119
  141SOL    HW1  422   1.261   1.707   1.583  0.6478 -1.0411  0.4723
  141SOL    HW2  423   1.316   1.553   1.634  2.4344  1.3985  2.1247
  142SOL     OW  424   1.511   0.610   2.238  0.2817  0.3113 -0.8436
  142SOL    HW1  425   1.536   0.606   2.135  1.1559  0.1366 -0.3658
  142SOL    HW2  426   1.411   0.583   2.256 -1.5949  1.1098 -0.3247
  143SOL     OW  427   2.769   0.805   0.555  0.2292 -0.2588  0.3853
  143SOL    HW1  428   2.818   0.864   0.479  3.0623  0.3636 -2.2704
  143SOL    HW2  429   2.758   0.855   0.644 -0.2683  0.1886  0.5853
  144SOL     OW  430   2.902   1.173   1.487  0.0134  0.3614 -0.2116
  144SOL    HW1  431   2.867   1.165   1.584  1.7823  0.6121 -1.4318
  144SOL    HW2  432   2.950   1.083   1.466 -1.6407  0.0734 -1.1785
  145SOL     OW  433   0.947   1.821   0.127 -0.0384  0.0303  0.1335
  145SOL    HW1  434   0.892   1.852   0.044 -0.4827 -1.3397 -2.3083
  145SOL    HW2  435   0.919   1.725   0.152  0.3124 -0.0376  0.5233
  146SOL     OW  436   2.445   0.668   1.486  0.4888  0.0676  0.2707
  146SOL    HW1  437   2.400   0.584   1.440 -3.9648 -1.3287  1.6090
  146SOL    HW2  438   2.401   0.754   1.448  0.4201  0.7261  0.2230
  147SOL     OW  439   1.090   2.510   0.581  0.1369  0.4037 -0.0587
  147SOL    HW1  440   1.043   2.553   0.496  0.5313  1.9623 -1.8887
  147SOL    HW2  441   1.190   2.497   0.560 -0.6625 -0.5840  1.1410
  148SOL     OW  442   1.597   1.454   0.018 -0.5855  0.2647 -0.0714
  148SOL    HW1  443   1.570   1.370  -0.040 -1.2462  0.6756 -2.2230
  148SOL    HW2  444   1.579   1.441   0.122 -0.4153 -1.3445  1.0182
  149SOL     OW  445   0.678   1.496   1.949  0.7386 -0.2418  0.0774
  149SOL    HW1  446   0.592   1.460   1.998  0.6775 -0.4733 -2.0907
  149SOL    HW2  447   0.699   1.436   1.864  0.3482 -0.0514  0.5425
  150SOL     OW  448   3.032   1.218   0.971 -0.0079 -0.2071  0.1022
  150SOL    HW1  449   3.122   1.220   1.027  2.1287  0.9725  3.3369
  150SOL    HW2  450   2.990   1.123   0.964 -0.2793 -1.3004 -0.0143
  151SOL     OW  451   0.245   0.813   2.064  1.1670  0.3796 -0.7307
  151SOL    HW1  452   0.264   0.888   1.996  2.0960  0.4215 -0.9299
  151SOL    HW2  453   0.272   0.720   2.032  0.6612 -0.6382  1.6227
  152SOL     OW  454   1.437   1.799   1.183  0.1958  1.0830 -0.6572
  152SOL    HW1  455   1.484   1.890   1.177 -1.0577  1.4467 -0.2845
  152SOL    HW2  456   1.335   1.807   1.154 -2.7280  0.6321 -1.7856
  153SOL     OW  457   0.199   1.521   0.205  0.0204 -0.1004  0.1774
  153SOL    HW1  458   0.158   1.428   0.182 -0.0216  2.3791  0.0199
  153SOL    HW2  459   0.177   1.549   0.301 -0.1675  0.5554 -2.6998
  154SOL     OW  460   2.296   1.882   2.784 -0.5916 -0.7338 -0.0407
  154SOL    HW1  461   2.325   1.778   2.778  2.1756 -1.8774 -1.4320
  154SOL    HW2  462   2.368   1.938   2.739 -0.7101 -0.4526 -1.2023
  155SOL     OW  463   2.468   1.249   0.358 -0.9894 -0.0719 -0.3628
  155SOL    HW1  464   2.555   1.236   0.299  1.4927 -2.1659  0.9868
  155SOL    HW2  465   2.391   1.185   0.344 -0.3693  0.1840 -0.4801
  156SOL     OW  466   2.463   0.829   0.742  0.1497 -0.4785 -0.1823
  156SOL    HW1  467   2.362   0.824   0.760  0.4460  3.2087  1.8637
  156SOL    HW2  468   2.492   0.877   0.652 -0.8927  1.1336 -1.3352
  157SOL     OW  469   1.237   2.974   3.009 -0.4069 -0.6925  0.6481
  157SOL    HW1  470   1.300   2.945   2.932  1.1082  0.6835 -1.7098
  157SOL    HW2  471   1.268   3.064   3.043 -0.6821 -3.4115  1.2316
  158SOL     OW  472   1.005   1.871   1.835  0.4010  0.0009 -0.3793
  158SOL    HW1  473   1.031   1.974   1.821  0.5907  0.9182 -1.5839
  158SOL    HW2  474   0.923   1.859   1.899  1.4654  0.0008  0.9725
  159SOL     OW  475   0.866   0.424   1.220  0.0756  0.1799 -0.2467
  159SOL    HW1  476   0.820   0.516   1.247 -1.9246 -1.1559 -0.1835
  159SOL    HW2  477   0.807   0.377   1.152  2.2368 -0.2478  1.6854
  160SOL     OW  478   1.365   2.440   1.524  0.2156 -0.4033 -0.2042
  160SOL    HW1  479   1.336   2.363   1.590  2.0914 -2.1153  0.6780
  160SOL    HW2  480   1.462   2.415   1.493 -1.0231 -0.2713  0.7545
  161SOL     OW  481   3.060   2.714   0.468 -0.0849 -1.0019  0.2880
  161SOL    HW1  482   3.016   2.631   0.513 -0.7189  0.9196 -1.7579
  161SOL    HW2  483   3.006   2.748   0.382 -0.8521 -3.6369  1.3088
  162SOL     OW  484   2.572   1.807   0.474  0.0575  0.2019  0.0568
  162SOL    HW1  485   2.561   1.802   0.371  1.3434  2.2833 -2.9628
  162SOL    HW2  486   2.494   1.775   0.533  0.3619 -1.6248  0.9542
  163SOL     OW  487   1.945   2.663   0.760 -0.2058  0.0356 -0.1246
  163SOL    HW1  488   1.930   2.646   0.661  1.2854  0.1913  0.0305
  163SOL    HW2  489   2.029   2.614   0.801 -1.2684 -3.8483  0.3547
  164SOL     OW  490   3.060   0.246   1.251  0.0368  0.2381 -0.6518
  164SOL    HW1  491   3.079   0.341   1.204 -4.3224  1.1775 -2.1612
  164SOL    HW2  492   3.121   0.217   1.332  0.2158 -1.9946 -0.5047
  165SOL     OW  493   1.094   1.428   0.674  0.2590 -0.5574  0.0198
  165SOL    HW1  494   1.076   1.475   0.767  0.4213  2.3805  1.8748
  165SOL    HW2  495   1.063   1.493   0.598  3.2923  1.7304  1.5181
  166SOL     OW  496   1.559   1.012   1.766 -0.2686 -0.1323 -0.0429
  166SOL    HW1  497   1.472   1.036   1.818 -1.6243  1.7307  1.7644
  166SOL    HW2  498   1.625   1.090   1.779 -1.1612  2.5091 -1.2664
  167SOL     OW  499   0.784   1.931   1.446  0.0475  0.1384  0.3545
  167SOL    HW1  500   0.796   2.005   1.517 -0.5262 -1.0246 -2.9517
  167SOL    HW2  501   0.723   1.853   1.483  0.1515  1.2968  0.9713
  168SOL     OW  502   1.572   2.346   0.159 -0.4304 -0.1595 -0.4203
  168SOL    HW1  503   1.645   2.372   0.092 -2.7752  0.6170  0.9703
  168SOL    HW2  504   1.601   2.283   0.236  0.4430  2.0774  0.1837
  169SOL     OW  505   0.081   2.576   2.218 -0.3350  0.2363 -0.1102
  169SOL    HW1  506   0.129   2.523   2.145  2.1885 -2.0334 -0.4124
  169SOL    HW2  507   0.132   2.566   2.307 -1.1283 -1.1729 -0.7988
  170SOL     OW  508   1.135   0.214   2.043  0.3590 -0.1617  0.1859
  170SOL    HW1  509   1.223   0.225   2.100  3.2448  0.1393  2.9050
  170SOL    HW2  510   1.156   0.163   1.952 -1.6816 -0.8275 -0.3340
  171SOL     OW  511   0.217   0.845   2.383  0.4872  0.3107  0.0929
  171SOL    HW1  512   0.120   0.840   2.425 -2.8672  0.6364 -0.1725
  171SOL    HW2  513   0.206   0.859   2.280  1.7645  1.5601  1.4825
  172SOL     OW  514   0.950   1.006   2.925 -0.2982  0.9241 -0.2548
  172SOL    HW1  515   0.952   1.089   2.988 -1.6132  0.2707 -2.3188
  172SOL    HW2  516   0.874   1.010   2.855 -0.6360 -2.2180  1.5551
  173SOL     OW  517   0.522   2.453   0.163 -0.2964  0.2647 -0.4751
  173SOL    HW1  518   0.507   2.372   0.108 -0.3343  3.0052  1.1876
  173SOL    HW2  519   0.437   2.477   0.213  1.6211 -1.6854 -1.1854
  174SOL     OW  520   1.492   2.857   1.082  0.3106  0.2015  0.0497
  174SOL    HW1  521   1.577   2.899   1.047  0.2252 -0.4031 -0.3991
  174SOL    HW2  522   1.462   2.782   1.012  2.9768  1.0276  0.8890
  175SOL     OW  523   0.429   3.049   1.682 -0.7745 -0.3266  0.1162
  175SOL    HW1  524   0.497   3.037   1.759 -1.5832  2.4432 -0.6423
  175SOL    HW2  525   0.401   3.147   1.671 -2.6788 -1.6416  2.5034
  176SOL     OW  526   2.606   0.359   0.022  0.2539 -0.3279  0.4158
  176SOL    HW1  527   2.616   0.450   0.077  1.5631  1.8977 -0.6944
  176SOL    HW2  528   2.575   0.283   0.087  0.3755  0.4110 -0.6375
  177SOL     OW  529   0.321   0.293   0.993  0.4292  0.2902  0.1415
  177SOL    HW1  530   0.292   0.194   0.997 -0.9904  0.0736  2.3128
  177SOL    HW2  531   0.272   0.351   1.060  0.8466 -3.0357  1.4131
  178SOL     OW  532   0.006   2.740   2.562  0.2279  0.2923 -0.2854
  178SOL    HW1  533  -0.012   2.637   2.547  2.1472 -0.6879 -1.8935
  178SOL    HW2  534   0.088   2.755   2.626 -0.0546 -1.8756 -0.3440
  179SOL     OW  535   3.029   1.554   1.110 -0.5928 -0.1588 -0.4176
  179SOL    HW1  536   3.113   1.561   1.047 -0.1756  0.5664  1.3253
  179SOL    HW2  537   3.050   1.502   1.196 -0.1242 -2.9129 -1.0206
  180SOL     OW  538   0.202   1.381   1.774 -0.4574  0.4670 -0.2804
  180SOL    HW1  539   0.280   1.322   1.812  5.0034  1.2145  0.3873
  180SOL    HW2  540   0.140   1.416   1.844  0.9021  0.5004 -0.6182
  181SOL     OW  541   2.977   1.943   2.517 -0.4899  0.6057  0.1474
  181SOL    HW1  542   3.040   2.018   2.486 -2.9063 -3.3732  2.4115
  181SOL    HW2  543   2.904   1.928   2.449 -0.6729 -1.0514  0.8162
  182SOL     OW  544   2.338   1.280   1.269 -0.0797 -0.3354 -0.0664
  182SOL    HW1  545   2.265   1.239   1.206 -1.6678  0.3574  1.0500
  182SOL    HW2  546   2.379   1.376   1.238  1.8149  3.6351  0.2808
  183SOL     OW  547   1.383   2.260   2.484 -0.1883  0.8596 -0.6873
  183SOL    HW1  548   1.326   2.171   2.488 -0.4953 -0.4830 -1.9533
  183SOL    HW2  549   1.482   2.235   2.461 -0.2093  2.6535  1.0133
  184SOL     OW  550   2.145   0.855   0.721  0.3403 -0.1472  0.4340
  184SOL    HW1  551   2.050   0.889   0.735  1.2164 -0.3529  0.8076
  184SOL    HW2  552   2.158   0.758   0.706  1.3907  2.3905  0.6712
  185SOL     OW  553   1.528   2.748   2.023 -0.0025 -0.0031  0.1975
  185SOL    HW1  554   1.437   2.800   2.006 -1.5050 -0.0542  0.1029
  185SOL    HW2  555   1.575   2.774   2.112 -0.2509  0.5063  0.6504
  186SOL     OW  556   0.054   2.192   1.647  0.5410 -0.1014  0.4341
  186SOL    HW1  557   0.041   2.235   1.740  0.3479  0.0203 -3.9402
  186SOL    HW2  558   0.151   2.158   1.640 -0.0089  0.0214  0.9934
  187SOL     OW  559   1.367   0.630   1.643 -0.2916  0.4272 -0.0832
  187SOL    HW1  560   1.460   0.673   1.653 -0.0285 -1.6198  0.1397
  187SOL    HW2  561   1.352   0.561   1.716  0.5009 -1.3465  2.7449
  188SOL     OW  562   2.805   2.722   1.414 -0.8688  0.0890  0.1186
  188SOL    HW1  563   2.798   2.826   1.396  0.0859 -0.5498 -0.6943
  188SOL    HW2  564   2.722   2.663   1.393 -2.2068 -0.0757 -3.2939
  189SOL     OW  565   0.877   1.174   1.405  0.2678  0.2566 -0.0461
  189SOL    HW1  566   0.937   1.221   1.474 -0.4207  2.6229 -1.7855
  189SOL    HW2  567   0.799   1.233   1.371 -0.9679  1.9934  0.1008
  190SOL     OW  568   1.481   1.857   1.553 -0.2538  0.1011 -0.4750
  190SOL    HW1  569   1.438   1.765   1.540 -1.4186 -0.4104  0.0581
  190SOL    HW2  570   1.487   1.879   1.654 -1.4479 -0.2817  2.8270
  191SOL     OW  571   0.916   0.833   1.528  0.3383 -0.4508  0.0102
  191SOL    HW1  572   0.957   0.775   1.604 -0.6945  0.4241  2.3177
  191SOL    HW2  573   0.979   0.849   1.446 -1.2526  0.5207 -0.6619
  192SOL     OW  574   1.849   2.472   1.099  0.2097  0.0054  0.1731
  192SOL    HW1  575   1.748   2.461   1.078  0.5597  1.5405  1.3667
  192SOL    HW2  576   1.905   2.414   1.025  0.0190 -1.2211 -0.4259
  193SOL     OW  577   0.520   0.520   0.406  0.0054 -0.0632  0.1149
  193SOL    HW1  578   0.495   0.421   0.429  3.1024  2.7574  1.2129
  193SOL    HW2  579   0.587   0.529   0.324  0.2239  2.6872 -1.6217
  194SOL     OW  580   0.313   0.914   1.323  0.0604 -0.2938 -0.1456
  194SOL    HW1  581   0.264   0.821   1.306 -0.9684  1.3778 -0.1644
  194SOL    HW2  582   0.336   0.960   1.235  0.9889 -0.4994 -0.3391
  195SOL     OW  583   0.987   2.887   0.522  0.0060  0.2977  0.4286
  195SOL    HW1  584   0.962   2.792   0.490  0.1987  2.3003  0.4132
  195SOL    HW2  585   1.085   2.923   0.508 -1.6987 -0.0117 -0.9914
  196SOL     OW  586   0.227   1.355   1.349  0.6787 -0.1757 -0.1001
  196SOL    HW1  587   0.267   1.448   1.377  2.2627  0.6835 -0.1045
  196SOL    HW2  588   0.216   1.295   1.435 -0.3745  1.6086  1.8228
  197SOL     OW  589   0.822   2.005   0.321  0.0431  0.4360  0.6197
  197SOL    HW1  590   0.805   1.953   0.412  1.4257 -0.6263  1.6319
  197SOL    HW2  591   0.870   1.947   0.244 -0.3855  0.0000  0.9897
  198SOL     OW  592   0.291   1.234   0.349 -0.6330 -0.1895  0.1519
  198SOL    HW1  593   0.192   1.237   0.306  0.8079  1.1390  0.3677
  198SOL    HW2  594   0.312   1.310   0.419 -0.3566  0.5765 -1.2194
  199SOL     OW  595   2.283   0.455   2.584 -0.0577  0.6852  0.0947
  199SOL    HW1  596   2.209   0.443   2.657 -0.0710 -0.6708 -1.4603
  199SOL    HW2  597   2.362   0.399   2.610 -1.1900  1.1131  2.6053
  200SOL     OW  598   0.010   2.970   0.809  0.0030 -0.2956  0.1786
  200SOL    HW1  599   0.039   3.064   0.836 -0.0228 -4.0620  1.5235
  200SOL    HW2  600  -0.066   2.970   0.738  2.1295 -0.6124  1.7299
  201SOL     OW  601   0.960   0.739   0.516 -0.8321  0.1754 -0.0082
  201SOL    HW1  602   0.971   0.821   0.581 -0.4133 -1.4199  2.0900
  201SOL    HW2  603   0.889   0.672   0.544  2.6415  3.0587 -1.2532
  202SOL     OW  604   0.397   1.203   1.853  0.1696  0.0694  0.0045
  202SOL    HW1  605   0.481   1.167   1.805  1.5538  1.7268  0.0534
  202SOL    HW2  606   0.426   1.271   1.925  3.2770  2.2960 -2.6673
  203SOL     OW  607   0.595   0.222   1.562  0.9699  0.3097  0.2241
  203SOL    HW1  608   0.639   0.194   1.472 -1.7130  0.8693  0.5692
  203SOL    HW2  609   0.655   0.200   1.648  1.4277  0.5915 -1.0320
  204SOL     OW  610   2.117   1.817   2.993 -0.1592 -0.1455 -0.4003
  204SOL    HW1  611   2.105   1.718   3.003  2.4601  1.8062  2.0090
  204SOL    HW2  612   2.173   1.833   2.908 -0.1885 -2.4503  4.3870
  205SOL     OW  613   1.836   1.865   3.085 -0.0795  1.0639  0.3404
  205SOL    HW1  614   1.935   1.858   3.052 -0.9162 -0.5626  0.6120
  205SOL    HW2  615   1.775   1.936   3.034 -1.2099  0.6047  2.8118
  206SOL     OW  616   2.406   2.798   0.384 -0.1749 -0.2770 -0.2171
  206SOL    HW1  617   2.407   2.711   0.442  0.6158 -2.7114  0.6121
  206SOL    HW2  618   2.487   2.799   0.323  1.7410 -0.1379 -0.0177
  207SOL     OW  619   0.705   1.751   2.892  0.6156 -0.2921 -0.3429
  207SOL    HW1  620   0.780   1.690   2.863 -2.4545 -2.0172 -0.7437
  207SOL    HW2  621   0.640   1.705   2.956 -1.4331  0.7559 -2.9069
  208SOL     OW  622   1.105   1.679   1.275 -0.6716 -0.1099 -0.6359
  208SOL    HW1  623   1.135   1.713   1.182  0.3209  0.7354 -0.7337
  208SOL    HW2  624   1.124   1.750   1.347 -2.4155  0.6656  0.0258
  209SOL     OW  625   0.202   0.985   3.096 -0.3456  0.4840 -0.0257
  209SOL    HW1  626   0.205   0.910   3.020 -0.0118 -1.4729 -1.4299
  209SOL    HW2  627   0.224   0.947   3.191  0.5040 -0.9781 -0.0824
  210SOL     OW  628   1.718   0.486   1.226 -0.5845 -0.0542  0.2867
  210SOL    HW1  629   1.665   0.571   1.191  3.1612 -0.2702  0.1737
  210SOL    HW2  630   1.816   0.493   1.207 -0.9066  0.5580  0.6441
  211SOL     OW  631   2.026   1.019   1.562  0.0527 -0.0778 -0.4081
  211SOL    HW1  632   2.039   0.956   1.644 -1.2236 -1.5168  3.9751
  211SOL    HW2  633   2.114   1.079   1.554 -0.4739  1.1218  0.7669
  212SOL     OW  634   0.021   0.980   1.507  0.9740 -0.4352  0.0295
  212SOL    HW1  635   0.089   1.053   1.533 -0.5914 -1.5309  1.2779
  212SOL    HW2  636   0.032   0.892   1.556 -0.9767 -0.1963 -0.6739
  213SOL     OW  637   2.740   0.231   0.276 -0.0326  0.2568 -0.7935
  213SOL    HW1  638   2.832   0.187   0.244  2.1050  0.9096  0.5422
  213SOL    HW2  639   2.662   0.156   0.271  2.0751  1.3121 -0.2937
  214SOL     OW  640   2.156   0.364   2.339 -0.4625  0.1163 -0.4021
  214SOL    HW1  641   2.189   0.420   2.420  1.3331 -1.3870 -1.7776
  214SOL    HW2  642   2.169   0.260   2.358  0.4056 -2.9151  1.5619
  215SOL     OW  643   1.681   2.267   2.099 -0.1684  0.3872 -0.0359
  215SOL    HW1  644   1.780   2.293   2.076  0.3820  0.3437 -0.9221
  215SOL    HW2  645   1.617   2.347   2.110  0.8201 -0.3909 -0.2934
  216SOL     OW  646   2.171   0.604   0.657 -0.3922 -0.2591 -1.2334
  216SOL    HW1  647   2.141   0.506   0.638 -0.5028  3.5631  1.4636
  216SOL    HW2  648   2.195   0.662   0.576 -1.4011 -0.0414 -0.5532
  217SOL     OW  649   0.884   2.813   2.521  0.7526  0.5583  0.7262
  217SOL    HW1  650   0.835   2.747   2.584  1.6148 -0.0409  1.1373
  217SOL    HW2  651   0.845   2.803   2.426 -2.3053  0.5620 -1.6293
  218SOL     OW  652   1.887   1.467   0.064 -0.1751 -0.4273  0.1873
  218SOL    HW1  653   1.787   1.484   0.057  1.2551 -1.9819  1.9213
  218SOL    HW2  654   1.907   1.384   0.124  1.2555  1.6118 -0.9156
  219SOL     OW  655   2.485   1.288   2.530 -0.0765 -0.0464 -0.0419
  219SOL    HW1  656   2.562   1.254   2.467  2.1357  1.1090 -0.9485
  219SOL    HW2  657   2.483   1.236   2.623  1.3612 -0.7563  2.6847
  220SOL     OW  658   1.427   1.030   1.394 -0.0507  0.1747  0.6097
  220SOL    HW1  659   1.530   1.018   1.400 -1.4776  2.9409  2.6038
  220SOL    HW2  660   1.400   1.058   1.299  0.8099 -2.8492  2.2116
  221SOL     OW  661   1.321   0.945   2.207  1.2660  0.0338 -0.2140
  221SOL    HW1  662   1.285   1.007   2.128  1.3625  1.8567 -0.4599
  221SOL    HW2  663   1.411   0.971   2.249 -2.5261 -1.2848  0.6601
  222SOL     OW  664   1.097   0.140   1.217 -0.1873  0.4031  0.2274
  222SOL    HW1  665   1.037   0.202   1.278 -0.3317  0.7360  1.1762
  222SOL    HW2  666   1.115   0.188   1.125 -3.6149 -0.4634  0.7112
  223SOL     OW  667   2.698   0.923   2.113  0.1814 -0.5863 -0.7077
  223SOL    HW1  668   2.645   1.008   2.146 -0.5925  1.5877 -0.1981
  223SOL    HW2  669   2.775   0.893   2.177  1.6229  0.9008 -1.8701
  224SOL     OW  670   1.477   1.057   2.717  0.3270 -0.3421  0.2273
  224SOL    HW1  671   1.473   0.965   2.675  2.5461 -2.6117 -3.1242
  224SOL    HW2  672   1.492   1.129   2.640  0.2791  1.6052  2.0889
  225SOL     OW  673   2.974   2.695   2.878  0.0658 -0.8395 -0.3582
  225SOL    HW1  674   2.885   2.730   2.830 -1.1367 -0.8333 -1.0852
  225SOL    HW2  675   3.062   2.716   2.823 -0.2983  0.2061  1.3813
  226SOL     OW  676   2.375   1.616   2.789  0.1892  0.3171 -0.7597
  226SOL    HW1  677   2.451   1.581   2.720  0.5742 -3.9510 -0.7713
  226SOL    HW2  678   2.361   1.547   2.861  1.9861  0.4956 -2.4771
  227SOL     OW  679   0.858   0.227   3.066  0.0425  0.3239 -0.1408
  227SOL    HW1  680   0.916   0.312   3.061 -1.1312 -1.1032  0.5658
  227SOL    HW2  681   0.799   0.214   2.983 -0.5958  4.1602  1.6386
  228SOL     OW  682   2.406   0.597   2.823 -0.3785  0.2712  0.1244
  228SOL    HW1  683   2.427   0.676   2.756  2.2381 -0.4305 -2.0424
  228SOL    HW2  684   2.478   0.522   2.829 -0.9683  2.0764 -1.9748
  229SOL     OW  685   0.568   0.460   1.786 -0.2191  0.3000  0.0707
  229SOL    HW1  686   0.603   0.387   1.848 -1.6388  0.6658 -1.4426
  229SOL    HW2  687   0.600   0.453   1.686  0.2036 -2.5753 -2.6419
  230SOL     OW  688   1.870   1.205   2.022 -0.0194  0.4419  0.6914
  230SOL    HW1  689   1.947   1.260   1.976 -1.7725  1.4047 -1.4408
  230SOL    HW2  690   1.818   1.259   2.093 -1.3966 -0.6883 -0.7658
  231SOL     OW  691   0.672   1.066   3.096  0.3754 -0.2767 -0.2620
  231SOL    HW1  692   0.764   1.103   3.095 -0.2420  2.2166 -0.3081
  231SOL    HW2  693   0.589   1.131   3.121 -1.4101 -2.6830 -1.1156
  232SOL     OW  694   2.451   2.990   2.822  0.4662  0.0115  0.0738
  232SOL    HW1  695   2.536   2.939   2.841 -0.6721  0.9132 -2.1889
  232SOL    HW2  696   2.469   3.063   2.752  1.2114 -2.8715 -0.3313
  233SOL     OW  697   1.764   1.253   1.229 -0.1066  0.3741  0.0950
  233SOL    HW1  698   1.832   1.259   1.148 -2.0198  0.1642 -3.2375
  233SOL    HW2  699   1.738   1.155   1.251 -0.1810 -1.8523 -0.4211
  234SOL     OW  700   1.606   2.525   1.843  0.2582  0.0392 -0.2376
  234SOL    HW1  701   1.580   2.598   1.917 -0.3982  0.7010  3.4052
  234SOL    HW2  702   1.550   2.439   1.841  0.7580 -0.9118  1.5458
  235SOL     OW  703   0.030   2.986   2.866 -0.2450 -0.6821  0.4996
  235SOL    HW1  704  -0.037   3.010   2.796  0.0110 -0.0335  1.5815
  235SOL    HW2  705   0.000   3.019   2.961  1.9705 -0.3618 -1.9970
  236SOL     OW  706   2.890   0.701   0.113  0.3602 -0.9482  0.0540
  236SOL    HW1  707   2.960   0.763   0.153  0.0931 -0.5877  0.2705
  236SOL    HW2  708   2.927   0.608   0.079 -1.3468 -1.5195  1.8376
  237SOL     OW  709   1.480   1.639   0.953 -0.3999 -0.0736 -0.1977
  237SOL    HW1  710   1.579   1.614   0.952 -2.6126  1.2761 -1.4473
  237SOL    HW2  711   1.448   1.673   1.047 -1.4148  0.2320  1.7710
  238SOL     OW  712   1.888   1.233   0.763  0.0540  0.2374  0.1971
  238SOL    HW1  713   1.927   1.260   0.860  0.6980 -1.1517 -0.5206
  238SOL    HW2  714   1.810   1.289   0.734  0.8607 -2.6980 -1.8833
  239SOL     OW  715   2.072   0.301   2.763 -0.8451  0.0789  0.2258
  239SOL    HW1  716   2.105   0.242   2.842  1.5892 -3.6556  0.1959
  239SOL    HW2  717   1.985   0.353   2.786 -0.9232 -2.5000 -0.8373
  240SOL     OW  718   0.926   0.676   0.222  0.1754  0.0490  0.1609
  240SOL    HW1  719   0.986   0.613   0.168 -1.4390  3.3297 -2.6458
  240SOL    HW2  720   0.946   0.688   0.322 -1.2911  1.1199 -2.7542
  241SOL     OW  721   0.589   0.087   0.398 -0.5959 -0.4897  0.2848
  241SOL    HW1  722   0.649   0.154   0.341  1.4148  1.9919 -1.3485
  241SOL    HW2  723   0.584  -0.007   0.355  1.3785  0.4178  0.1949
  242SOL     OW  724   0.624   2.568   1.167 -0.1790  0.0816  0.0520
  242SOL    HW1  725   0.648   2.554   1.269  0.4308  0.7299  1.2639
  242SOL    HW2  726   0.599   2.668   1.153  0.3642  2.5642  2.4310
  243SOL     OW  727   1.045   0.544   2.416 -0.3830 -0.1377 -0.2214
  243SOL    HW1  728   0.963   0.587   2.373  1.3588 -4.0269 -0.9915
  243SOL    HW2  729   1.030   0.513   2.511  2.2663 -0.7712 -1.8427
  244SOL     OW  730   2.767   1.870   2.347 -0.1388  0.3062  0.8865
  244SOL    HW1  731   2.779   1.874   2.244  1.1442 -0.5030 -1.2615
  244SOL    HW2  732   2.680   1.819   2.377 -0.8527  0.2322  1.1443
  245SOL     OW  733   2.178   0.912   2.182 -0.3785  0.2285 -0.0718
  245SOL    HW1  734   2.280   0.919   2.207 -0.8461  2.0710 -0.8269
  245SOL    HW2  735   2.112   0.968   2.234  1.9467 -0.1223 -0.6500
  246SOL     OW  736   0.217   2.883   1.714  0.3380  0.3630  0.4304
  246SOL    HW1  737   0.142   2.890   1.642  0.7054  0.5425 -3.2557
  246SOL    HW2  738   0.299   2.952   1.702  2.7005 -0.1012 -0.0705
  247SOL     OW  739   2.234   0.645   3.008  0.5350 -0.3418  0.0399
  247SOL    HW1  740   2.301   0.612   2.928  0.9425 -3.8856 -2.6379
  247SOL    HW2  741   2.174   0.728   2.989  0.7619  0.9781 -1.0916
  248SOL     OW  742   2.205   1.824   1.562 -0.3900 -0.0153  0.4228
  248SOL    HW1  743   2.280   1.765   1.617  0.9271  2.2629  0.5081
  248SOL    HW2  744   2.113   1.824   1.598  0.9822  0.3820  1.5495
  249SOL     OW  745   1.942   1.891   1.888 -0.1229 -0.1751 -0.9576
  249SOL    HW1  746   1.945   1.863   1.789 -0.6499  1.5181  0.2199
  249SOL    HW2  747   2.033   1.923   1.928 -0.9104 -0.6431  0.3551
  250SOL     OW  748   1.095   0.703   1.875  0.2522  0.2475  0.6380
  250SOL    HW1  749   1.110   0.626   1.946 -2.4486 -0.9967 -0.8359
  250SOL    HW2  750   1.077   0.663   1.782  1.3492  1.9103 -2.4956
  251SOL     OW  751   3.018   1.647   2.539 -0.6239 -1.3028  0.3271
  251SOL    HW1  752   3.011   1.748   2.516 -2.0871 -0.5825  0.1899
  251SOL    HW2  753   2.924   1.603   2.530 -0.8946  1.0013  3.0071
  252SOL     OW  754   1.597   0.743   1.710 -0.4290  0.0607  0.3908
  252SOL    HW1  755   1.698   0.721   1.708  0.9128  2.8099 -0.7381
  252SOL    HW2  756   1.576   0.847   1.714  0.1230  0.5920 -0.6841
  253SOL     OW  757   0.989   1.608   0.454  0.0520 -0.5440  0.0534
  253SOL    HW1  758   0.986   1.511   0.412 -0.0896 -0.6858 -0.6003
  253SOL    HW2  759   0.913   1.634   0.513  0.2839 -0.1880  1.2049
  254SOL     OW  760   2.024   2.189   1.654  0.2713  0.5343  0.6564
  254SOL    HW1  761   1.989   2.114   1.590 -0.4911  0.4245  1.1199
  254SOL    HW2  762   1.949   2.250   1.697 -0.4615  1.5752 -0.5810
  255SOL     OW  763   0.150   1.189   2.904 -0.1826  0.0165 -0.2062
  255SOL    HW1  764   0.205   1.281   2.897  2.2243 -1.0622 -0.9507
  255SOL    HW2  765   0.179   1.131   2.983  0.9861  0.2675  1.6517
  256SOL     OW  766   2.850   1.403   1.853 -0.2948 -0.8367  0.3577
  256SOL    HW1  767   2.768   1.467   1.856 -0.6908  3.8520 -0.3663
  256SOL    HW2  768   2.821   1.306   1.832 -2.8921  0.2488  2.4749
  257SOL     OW  769   0.791   0.152   1.737 -0.1897 -0.1402  0.2175
  257SOL    HW1  770   0.856   0.236   1.715  0.5853 -0.4737 -1.1141
  257SOL    HW2  771   0.839   0.058   1.727 -0.3104 -4.5197  1.6930
  258SOL     OW  772   2.986   1.223   0.497 -0.1870 -0.1245  0.8881
  258SOL    HW1  773   2.889   1.258   0.512 -0.3690 -0.3974 -3.0317
  258SOL    HW2  774   3.036   1.234   0.585 -0.6169  2.6610  0.8483
  259SOL     OW  775   0.399   2.886   3.044 -0.2890 -0.1351 -0.2730
  259SOL    HW1  776   0.348   2.820   3.108 -2.0095  0.6462 -0.6688
  259SOL    HW2  777   0.432   2.844   2.959 -1.0765  3.0306  1.8410
  260SOL     OW  778   2.711   0.719   2.802  0.0742  0.8982  0.2347
  260SOL    HW1  779   2.626   0.773   2.794  0.0175  2.3485  0.3024
  260SOL    HW2  780   2.691   0.618   2.812 -0.1670 -1.2855 -2.3127
  261SOL     OW  781   2.707   1.275   1.300 -0.4897 -0.3317 -0.8465
  261SOL    HW1  782   2.656   1.205   1.241 -1.0951  2.5135  0.0442
  261SOL    HW2  783   2.775   1.227   1.360 -0.8236  1.0409 -0.5378
  262SOL     OW  784   1.371   2.971   1.924 -0.1350  0.5505  0.1863
  262SOL    HW1  785   1.398   3.070   1.907 -0.3952  0.4458  0.2719
  262SOL    HW2  786   1.270   2.964   1.942  2.5955 -0.7759  2.8010
  263SOL     OW  787   0.847   0.694   2.290 -0.0027  0.0686 -0.0016
  263SOL    HW1  788   0.830   0.606   2.234 -1.9436 -1.4711 -1.7630
  263SOL    HW2  789   0.880   0.774   2.238 -0.0458  0.4650  1.8739
  264SOL     OW  790   2.239   0.806   0.408  0.5689 -0.2262  0.1986
  264SOL    HW1  791   2.251   0.737   0.332  0.7685  2.0063 -0.1624
  264SOL    HW2  792   2.306   0.884   0.420 -0.7204 -0.3271  4.7078
  265SOL     OW  793   0.946   2.447   2.609  0.2059  0.0260  0.0347
  265SOL    HW1  794   1.022   2.505   2.656 -3.9041 -1.6974  0.3976
  265SOL    HW2  795   0.935   2.352   2.655 -0.9180 -1.8777 -0.9225
  266SOL     OW  796   1.329   1.779   3.046  0.1868 -0.2126  0.0109
  266SOL    HW1  797   1.312   1.832   3.133  2.4618 -1.6306  1.5934
  266SOL    HW2  798   1.429   1.753   3.041 -0.6099  0.7072  2.0825
  267SOL     OW  799   1.056   0.076   2.310  0.4134 -0.1419 -0.5782
  267SOL    HW1  800   1.002   0.022   2.242  1.8996 -0.8195 -1.4258
  267SOL    HW2  801   1.074   0.173   2.290  0.5160 -2.4728  0.8700
  268SOL     OW  802   0.741   1.255   1.057  0.9083  0.6825 -0.8398
  268SOL    HW1  803   0.746   1.281   1.155  0.7437  1.8348  0.9234
  268SOL    HW2  804   0.789   1.318   0.993  0.8315 -1.0915  2.6700
  269SOL     OW  805   2.349   2.500   1.583  0.1994 -0.3208 -0.1168
  269SOL    HW1  806   2.406   2.422   1.615  1.7346 -0.6325 -2.2931
  269SOL    HW2  807   2.279   2.530   1.651  1.9835  4.8258 -0.6055
  270SOL     OW  808   0.133   2.979   1.965 -0.3043 -0.6098  0.1255
  270SOL    HW1  809   0.162   2.914   1.890  0.8724 -0.8698  0.4717
  270SOL    HW2  810   0.060   2.940   2.030 -0.1384 -2.7403  0.0450
  271SOL     OW  811   0.424   1.400   1.160  0.3998  0.1019 -0.1734
  271SOL    HW1  812   0.428   1.367   1.061  1.2054 -0.7453 -1.9327
  271SOL    HW2  813   0.330   1.377   1.205 -0.2785 -0.4105  0.7723
  272SOL     OW  814   2.009   2.974   1.933 -0.5440  0.1056  0.7656
  272SOL    HW1  815   1.907   2.969   1.914 -2.6692 -0.6552 -3.1665
  272SOL    HW2  816   2.059   3.004   1.843  0.6711  2.1935 -0.1394
  273SOL     OW  817   1.482   1.459   2.750 -0.1891  0.6301 -0.3803
  273SOL    HW1  818   1.383   1.428   2.737  1.1275  0.3727 -2.5132
  273SOL    HW2  819   1.517   1.422   2.841 -2.1616  0.3067  0.6873
  274SOL     OW  820   1.171   0.515   2.057 -0.1200  0.4294  0.1307
  274SOL    HW1  821   1.119   0.430   2.054  1.4986 -0.8797  0.3363
  274SOL    HW2  822   1.213   0.534   2.148 -0.9440 -1.2376 -0.3169
  275SOL     OW  823   0.658   2.132   1.900 -0.2124  0.2402  0.2120
  275SOL    HW1  824   0.620   2.193   1.970 -0.8053 -2.1439  0.1706
  275SOL    HW2  825   0.581   2.079   1.857 -0.4236  1.5866 -0.7631
  276SOL     OW  826   2.192   1.110   2.788 -0.0467 -0.4734  0.1589
  276SOL    HW1  827   2.126   1.143   2.716 -0.9554 -0.9250 -1.6827
  276SOL    HW2  828   2.161   1.027   2.840  1.5989  1.2699  0.8852
  277SOL     OW  829   0.016   0.801   0.256  0.6342  0.4978  0.5478
  277SOL    HW1  830   0.113   0.829   0.227  0.7889  2.1431  0.6661
  277SOL    HW2  831   0.015   0.725   0.326  1.9004 -0.9895 -0.2650
  278SOL     OW  832   0.206   0.245   2.933  0.5079 -0.6523  0.4023
  278SOL    HW1  833   0.296   0.197   2.926 -1.0314  0.6832 -0.2339
  278SOL    HW2  834   0.217   0.336   2.986 -0.3025  2.6032 -0.1729
  279SOL     OW  835   0.253   0.024   0.916  0.5451  0.3830  0.5802
  279SOL    HW1  836   0.283  -0.060   0.961  0.4033  0.7922 -1.9101
  279SOL    HW2  837   0.310   0.047   0.831  2.5306  2.7320  1.3641
  280SOL     OW  838   1.603   2.960   2.394  0.0490  0.4181  0.0204
  280SOL    HW1  839   1.672   3.012   2.449 -4.0903  2.0595 -1.2595
  280SOL    HW2  840   1.574   3.024   2.318 -1.6818  0.6106 -1.0767
  281SOL     OW  841   0.571   0.981   2.281 -0.3184 -0.1952  0.2145
  281SOL    HW1  842   0.561   0.902   2.216  3.1960 -1.4579  2.0339
  281SOL    HW2  843   0.517   0.967   2.371 -2.6694 -0.5785  1.2301
  282SOL     OW  844   1.776   2.478   0.503 -0.3322  0.0710  0.4898
  282SOL    HW1  845   1.732   2.397   0.454 -0.3967  0.7884 -0.0763
  282SOL    HW2  846   1.710   2.557   0.520  0.7759  0.3299 -1.9345
  283SOL     OW  847   1.187   0.945   0.763 -0.5809 -0.1111  0.0236
  283SOL    HW1  848   1.190   0.875   0.839  1.6844 -0.5691  0.2092
  283SOL    HW2  849   1.139   1.034   0.786 -1.4540  0.8537 -0.8538
  284SOL     OW  850   2.239   2.807   2.490 -0.5187  0.3185  0.2987
  284SOL    HW1  851   2.333   2.822   2.459  0.6378  0.9713 -1.4942
  284SOL    HW2  852   2.230   2.852   2.586  0.7530 -0.3515  2.4980
  285SOL     OW  853   1.404   3.085   2.572  0.0729  0.5493 -0.0199
  285SOL    HW1  854   1.442   3.076   2.478  1.0175 -0.5620 -1.2384
  285SOL    HW2  855   1.301   3.110   2.566 -1.0909 -0.2142  0.9553
  286SOL     OW  856   0.424   0.422   0.755  0.2831  0.2205  0.2772
  286SOL    HW1  857   0.406   0.373   0.844 -2.7875  4.5160  2.1046
  286SOL    HW2  858   0.433   0.368   0.670  1.8145  1.7248  2.8379
  287SOL     OW  859   0.071   1.294   2.560 -0.0373  0.1979  0.8117
  287SOL    HW1  860   0.052   1.204   2.598 -2.2636  0.8741 -0.7911
  287SOL    HW2  861   0.028   1.369   2.614  2.8814  0.4463 -2.1099
  288SOL     OW  862   1.598   2.732   1.641 -0.0539  0.2313 -0.1890
  288SOL    HW1  863   1.600   2.660   1.715 -0.9095  0.5718 -0.0850
  288SOL    HW2  864   1.603   2.686   1.542 -0.3317  1.0100 -3.0698
  289SOL     OW  865   0.578   2.738   0.857  0.4571 -0.0424  0.5572
  289SOL    HW1  866   0.641   2.789   0.791 -0.5334  0.8603 -1.1429
  289SOL    HW2  867   0.594   2.773   0.954 -2.8634  0.9996 -1.3260
  290SOL     OW  868   2.829   1.127   1.748 -0.6764  0.1679 -0.4382
  290SOL    HW1  869   2.750   1.056   1.752  1.6778 -2.3736  0.4281
  290SOL    HW2  870   2.917   1.101   1.790 -0.4375  0.0751 -2.7587
  291SOL     OW  871   1.980   3.090   0.045 -0.2676 -0.3381 -0.4712
  291SOL    HW1  872   1.972   3.147   0.133  0.9250  0.2742  4.0174
  291SOL    HW2  873   2.053   3.111  -0.025 -0.1823 -0.9471 -1.3357
  292SOL     OW  874   3.028   1.239   3.102 -0.0622  0.0062  0.3248
  292SOL    HW1  875   2.929   1.235   3.067 -1.0240  0.2873  0.3048
  292SOL    HW2  876   3.097   1.245   3.022  2.7497 -1.0769 -3.3628
  293SOL     OW  877   0.558   2.152   0.286  0.7044 -0.5684 -0.2161
  293SOL    HW1  878   0.539   2.242   0.338  3.0484  1.8887 -0.8502
  293SOL    HW2  879   0.658   2.133   0.269 -2.0778 -1.4671 -0.2788
  294SOL     OW  880   1.815   2.331   1.786 -0.1244  0.2469  0.3163
  294SOL    HW1  881   1.845   2.354   1.877  1.8009 -2.4018 -3.5394
  294SOL    HW2  882   1.755   2.405   1.749 -0.5351 -0.0211  0.7284
  295SOL     OW  883   0.978   1.041   0.453  0.2176  0.0726 -0.1220
  295SOL    HW1  884   1.084   1.026   0.472  1.8315 -3.6297  1.0143
  295SOL    HW2  885   0.917   1.013   0.532 -0.0659  2.3493 -1.5589
  296SOL     OW  886   1.192   2.133   2.718  0.3304 -0.2728  0.8264
  296SOL    HW1  887   1.098   2.173   2.710  0.5224  1.3715 -0.8922
  296SOL    HW2  888   1.218   2.082   2.628 -3.1699  1.8788 -3.3881
  297SOL     OW  889   1.346   0.570   1.281 -0.2103  0.1349 -0.0554
  297SOL    HW1  890   1.378   0.514   1.362 -1.5827 -3.2303 -1.0069
  297SOL    HW2  891   1.425   0.627   1.239  1.7545  2.4876 -1.6432
  298SOL     OW  892   0.519   1.375   2.992  0.1402  0.4090 -0.1158
  298SOL    HW1  893   0.467   1.321   3.062 -1.5022  0.6004 -0.3866
  298SOL    HW2  894   0.594   1.322   2.945 -2.0439  1.9683 -1.1521
  299SOL     OW  895   0.431   0.283   1.301 -0.0822 -0.5148  0.3849
  299SOL    HW1  896   0.377   0.367   1.272 -1.9402  0.0633  1.4932
  299SOL    HW2  897   0.408   0.251   1.393 -0.9854  0.2496 -1.1654
  300SOL     OW  898   1.270   1.735   2.572  0.1585 -0.0866  0.0446
  300SOL    HW1  899   1.237   1.653   2.517  1.4480  1.7785  1.2914
  300SOL    HW2  900   1.368   1.723   2.606 -0.8981 -0.4805  3.1930
  301SOL     OW  901   0.447   0.278   0.513 -0.1553 -0.2532 -0.0987
  301SOL    HW1  902   0.354   0.230   0.533 -1.4328 -0.2735 -3.0703
  301SOL    HW2  903   0.525   0.207   0.484  2.7144 -0.8270 -2.6165
  302SOL     OW  904   1.223   2.454   2.305  0.4244  0.1200 -0.4284
  302SOL    HW1  905   1.132   2.496   2.335 -0.5867  0.0693  0.1094
  302SOL    HW2  906   1.260   2.389   2.375 -0.0231  4.5201  0.6319
  303SOL     OW  907   0.929   2.436   0.819  0.6084 -0.0680 -0.2665
  303SOL    HW1  908   0.983   2.477   0.744  0.4474 -1.4911  3.4336
  303SOL    HW2  909   0.968   2.461   0.911  1.9307  2.2736 -1.1057
  304SOL     OW  910   0.065   1.910   0.677 -0.3795  0.3448  0.0105
  304SOL    HW1  911   0.145   1.906   0.603  4.1036  2.0282 -0.9446
  304SOL    HW2  912  -0.021   1.958   0.644 -0.5151 -2.1534  1.3214
  305SOL     OW  913   1.600   0.886   0.698  0.1374 -0.2639  0.1868
  305SOL    HW1  914   1.522   0.881   0.634 -0.0199 -4.4706 -0.7518
  305SOL    HW2  915   1.648   0.794   0.689 -4.6403 -0.2698 -0.6513
  306SOL     OW  916   0.429   1.953   1.876  0.0839 -0.3121  0.6409
  306SOL    HW1  917   0.503   1.876   1.865 -0.6583 -0.2611  1.2537
  306SOL    HW2  918   0.409   1.977   1.978  0.1831  0.4201 -0.3512
  307SOL     OW  919   3.020   0.875   2.497  0.5716  0.2411 -0.5507
  307SOL    HW1  920   3.039   0.928   2.584  0.5737  1.4427 -0.9189
  307SOL    HW2  921   2.958   0.795   2.510 -0.0438  2.2572 -0.1241
  308SOL     OW  922   1.579   2.675   2.833 -0.2386  0.4658  0.4560
  308SOL    HW1  923   1.588   2.623   2.743 -2.9640 -1.1596 -1.4582
  308SOL    HW2  924   1.519   2.622   2.901  2.5097 -0.3015  0.5762
  309SOL     OW  925   1.240   0.153   1.789  0.4080  0.0112  0.2411
  309SOL    HW1  926   1.339   0.143   1.810  0.2879  1.3047 -1.2366
  309SOL    HW2  927   1.224   0.172   1.689 -0.4526 -0.8732  1.1694
  310SOL     OW  928   1.512   2.568   0.675 -0.2623  0.4163  0.1511
  310SOL    HW1  929   1.484   2.605   0.770  2.8576  1.7159 -4.0275
  310SOL    HW2  930   1.577   2.638   0.631  0.4940  1.9060 -2.9396
  311SOL     OW  931   1.146   0.981   1.739  0.1980  0.4428 -0.3504
  311SOL    HW1  932   1.122   0.890   1.784  1.5716  0.7282 -0.1644
  311SOL    HW2  933   1.184   0.967   1.643 -0.3059  0.1964  1.8643
  312SOL     OW  934   1.545   0.676   1.121 -0.0125 -0.5079  0.2120
  312SOL    HW1  935   1.566   0.769   1.074  1.0091 -0.4121 -2.6171
  312SOL    HW2  936   1.500   0.607   1.053 -1.5584  0.8544 -0.4768
  313SOL     OW  937   1.606   1.350   0.725  0.5348 -0.3683  0.0079
  313SOL    HW1  938   1.561   1.355   0.812  2.3474 -1.1168 -1.3627
  313SOL    HW2  939   1.587   1.264   0.668  0.1984  0.8967 -1.1598
  314SOL     OW  940   2.988   3.086   3.092 -0.3564  0.1432  0.0384
  314SOL    HW1  941   2.974   3.098   3.198 -1.1505 -2.0493  0.5773
  314SOL    HW2  942   2.896   3.053   3.053  2.6161 -0.6105 -1.5621
  315SOL     OW  943   1.185   0.249   2.762 -0.2954 -0.1617 -0.2350
  315SOL    HW1  944   1.192   0.182   2.684  1.9638 -0.4038  0.6206
  315SOL    HW2  945   1.143   0.205   2.848 -0.3155 -1.0897  1.3254
  316SOL     OW  946   1.744   2.093   0.886 -0.4760 -0.0304  0.2428
  316SOL    HW1  947   1.670   2.096   0.954  2.5169 -0.1099 -0.1411
  316SOL    HW2  948   1.753   2.183   0.831  0.0648 -0.1163 -1.5245
  317SOL     OW  949   1.180   0.641   2.758 -0.6219 -0.4104 -0.0070
  317SOL    HW1  950   1.133   0.709   2.823 -1.2717  0.8246  0.7653
  317SOL    HW2  951   1.117   0.565   2.725  3.4579  2.4570 -2.8874
  318SOL     OW  952   1.429   0.005   2.231  0.1313  0.0408  0.1764
  318SOL    HW1  953   1.401   0.105   2.223  2.4844 -0.6434 -2.4622
  318SOL    HW2  954   1.364  -0.066   2.192 -0.3071  1.6937  1.9423
  319SOL     OW  955   0.657   2.336   2.917  0.5090  0.2671  0.2489
  319SOL    HW1  956   0.610   2.268   2.983 -1.3431  0.2678  0.4525
  319SOL    HW2  957   0.687   2.286   2.832  1.3732  2.5211 -1.7187
  320SOL     OW  958   1.663   2.257   0.402 -0.5367 -0.1419  0.2226
  320SOL    HW1  959   1.756   2.198   0.411  2.1889 -1.9550  2.1041
  320SOL    HW2  960   1.576   2.216   0.448  0.2076  2.1171 -0.1419
  321SOL     OW  961   1.676   2.766   0.581 -0.3318 -0.0528  0.0031
  321SOL    HW1  962   1.616   2.808   0.512  2.8095  0.4010 -0.9073
  321SOL    HW2  963   1.778   2.783   0.562  1.9658 -0.2516 -0.2323
  322SOL     OW  964   2.598   1.125   2.314 -0.1043  0.1727 -0.0385
  322SOL    HW1  965   2.698   1.127   2.343  1.5200 -1.8070 -1.6012
  322SOL    HW2  966   2.546   1.033   2.328  0.9849 -0.3639  0.2410
  323SOL     OW  967   1.164   2.650   0.811  0.0231  0.1949 -0.5376
  323SOL    HW1  968   1.124   2.608   0.732 -1.2227  1.9680 -1.4159
  323SOL    HW2  969   1.144   2.750   0.808 -0.7817 -0.6215  1.2957
  324SOL     OW  970   0.229   2.548   2.449 -0.8262  0.1263 -0.2225
  324SOL    HW1  971   0.169   2.507   2.525 -1.2792  0.7304 -0.0520
  324SOL    HW2  972   0.283   2.630   2.485  0.6451  1.5880  0.3835
  325SOL     OW  973   1.224   3.008   0.457 -0.7188  0.2130  0.0271
  325SOL    HW1  974   1.216   3.056   0.363  0.5022  0.2950 -2.9278
  325SOL    HW2  975   1.251   3.070   0.535  1.0345  0.0978  0.4680
  326SOL     OW  976   2.472   0.784   0.014 -0.0373  0.2226 -0.6252
  326SOL    HW1  977   2.388   0.751  -0.030 -0.7170 -1.5238 -1.2953
  326SOL    HW2  978   2.512   0.702   0.068 -1.1146  0.5309  2.6277
  327SOL     OW  979   2.793   0.315   0.545  0.0003 -0.3678 -0.0365
  327SOL    HW1  980   2.776   0.264   0.454  0.0696 -4.9626 -0.9498
  327SOL    HW2  981   2.775   0.253   0.630 -2.8624 -1.4771 -0.7856
  328SOL     OW  982   2.623   0.639   0.410 -0.3782  0.0253  0.1609
  328SOL    HW1  983   2.694   0.709   0.438  1.0184  0.4965 -1.7359
  328SOL    HW2  984   2.604   0.572   0.487 -0.3762  3.0639  0.9992
  329SOL     OW  985   2.912   2.952   2.106  0.7496  0.8653 -0.4475
  329SOL    HW1  986   2.999   2.907   2.143 -0.5777  1.0137 -1.9256
  329SOL    HW2  987   2.923   3.056   2.101 -0.6048  0.0590  0.6473
  330SOL     OW  988   0.597   0.191   1.934  0.2932  0.5132 -0.1208
  330SOL    HW1  989   0.671   0.156   1.867 -0.8362  0.0745 -3.5713
  330SOL    HW2  990   0.569   0.118   2.006 -3.3838  0.2877  1.3824
  331SOL     OW  991   3.013   1.913   1.105  0.0829 -0.5731  0.3668
  331SOL    HW1  992   2.992   1.878   1.008  0.7936  0.3617  1.0444
  331SOL    HW2  993   2.937   1.882   1.172  0.8574  2.5171  1.6056
  332SOL     OW  994   0.405   1.179   0.068  0.4928 -0.2306  0.1201
  332SOL    HW1  995   0.335   1.119   0.031  0.5921  1.0448  1.1963
  332SOL    HW2  996   0.384   1.215   0.161 -2.5283 -0.1039 -2.5778
  333SOL     OW  997   2.937   0.995   0.357 -0.8315 -0.1086  0.7821
  333SOL    HW1  998   2.955   1.079   0.415 -0.9687  0.7587  0.4634
  333SOL    HW2  999   3.020   0.934   0.332  3.1478 -4.1005  0.9363
  334SOL     OW 1000   1.708   1.271   1.825 -0.7418 -0.3010  0.0154
  334SOL    HW1 1001   1.754   1.257   1.734  0.0262 -0.4322  3.6874
  334SOL    HW2 1002   1.771   1.250   1.903 -1.5448  0.4779 -1.3012
  335SOL     OW 1003   1.972   2.744   2.595 -0.1039 -0.5120  0.3871
  335SOL    HW1 1004   1.883   2.779   2.640 -1.4098  0.2664  0.1185
  335SOL    HW2 1005   2.057   2.786   2.642  0.2524  1.8588  3.5038
  336SOL     OW 1006   0.240   0.017   2.702  0.0605 -0.0905 -0.1842
  336SOL    HW1 1007   0.305   0.037   2.779 -1.9274  0.8633 -1.3130
  336SOL    HW2 1008   0.153  -0.026   2.744 -0.1256 -1.5162  0.9203
  337SOL     OW 1009   0.935   2.928   2.957 -0.5840 -0.2117  0.2546
  337SOL    HW1 1010   0.890   2.853   3.008 -1.2378 -3.0088  2.9112
  337SOL    HW2 1011   1.038   2.917   2.951 -0.2563  0.2345  0.5613
  338SOL     OW 1012   0.046   0.972   0.673 -0.6153 -0.5768 -0.3263
  338SOL    HW1 1013  -0.043   0.926   0.691  0.6618  0.5435 -1.9791
  338SOL    HW2 1014   0.037   1.076   0.683 -0.0740  0.5847 -1.1291
  339SOL     OW 1015   1.699   1.358   2.170 -0.8083 -0.2643  0.0629
  339SOL    HW1 1016   1.598   1.389   2.143 -3.1448 -3.0059  0.7959
  339SOL    HW2 1017   1.760   1.443   2.193  2.6322  0.1250 -4.5892
  340SOL     OW 1018   2.236   0.777   1.178 -0.3077  0.5111  0.0909
  340SOL    HW1 1019   2.151   0.832   1.157 -2.3230 -0.3261 -0.0475
  340SOL    HW2 1020   2.235   0.685   1.125 -1.1623 -0.0743 -0.5355
  341SOL     OW 1021   1.915   2.107   0.340 -0.3662 -0.6247  0.1434
  341SOL    HW1 1022   1.952   2.132   0.247 -0.1782  0.9786 -0.0339
  341SOL    HW2 1023   1.992   2.080   0.408 -0.5206  2.0632  0.8151
  342SOL     OW 1024   2.168   2.132   2.756  0.2000 -0.5640 -0.0061
  342SOL    HW1 1025   2.214   2.041   2.774 -1.6519 -1.8276 -2.9342
  342SOL    HW2 1026   2.077   2.119   2.703 -0.0178  1.6061 -3.8288
  343SOL     OW 1027   0.425   0.780   2.768  0.0039 -0.2520 -0.1258
  343SOL    HW1 1028   0.432   0.820   2.672  1.9033  0.0037 -1.1313
  343SOL    HW2 1029   0.509   0.797   2.821 -2.3437  1.7657  0.1181
  344SOL     OW 1030   1.893   1.499   0.387  0.1351 -0.0517  0.1264
  344SOL    HW1 1031   1.896   1.418   0.319  0.7339  1.0385 -1.1846
  344SOL    HW2 1032   1.799   1.529   0.420  0.6090  0.2528  0.7168
  345SOL     OW 1033   1.409   2.242   2.868 -0.4425 -0.0022 -0.0548
  345SOL    HW1 1034   1.327   2.222   2.809  0.2192  0.0127  0.3233
  345SOL    HW2 1035   1.465   2.158   2.877  2.3238  1.9456 -0.1187
  346SOL     OW 1036   2.338   0.909   1.400  0.1932 -0.3524 -0.0018
  346SOL    HW1 1037   2.284   0.992   1.423  2.0181 -1.0073 -0.7013
  346SOL    HW2 1038   2.304   0.855   1.322  0.1023  0.3325  0.7000
  347SOL     OW 1039   0.717   2.719   1.611 -0.1856 -0.0440 -0.0309
  347SOL    HW1 1040   0.666   2.729   1.699 -2.1674  0.2784  0.1384
  347SOL    HW2 1041   0.658   2.746   1.529  1.0748 -2.3835  0.5632
  348SOL     OW 1042   0.164   0.788   2.884 -0.0953  0.1843 -0.5230
  348SOL    HW1 1043   0.091   0.748   2.827 -0.6473 -1.3704  1.1982
  348SOL    HW2 1044   0.257   0.778   2.838  1.7610 -0.3621 -0.0211
  349SOL     OW 1045   1.826   0.456   2.790  0.3434  0.4305  0.6791
  349SOL    HW1 1046   1.823   0.536   2.719  0.2987 -0.9878 -2.1017
  349SOL    HW2 1047   1.807   0.491   2.885  0.4459  1.2392 -1.8111
  350SOL     OW 1048   1.677   0.364   0.360  0.6044 -0.4486 -0.0027
  350SOL    HW1 1049   1.755   0.370   0.431  1.5292  0.3339 -0.0163
  350SOL    HW2 1050   1.671   0.452   0.300 -0.2476  0.8174  1.0170
  351SOL     OW 1051   0.934   0.835   2.078  0.1618  0.1850 -0.6458
  351SOL    HW1 1052   0.958   0.932   2.085 -1.2770 -2.3041  0.1455
  351SOL    HW2 1053   0.991   0.788   2.003 -1.2255  0.0009 -0.7690
  352SOL     OW 1054   2.088   1.370   0.571 -0.2066 -0.3618  0.0771
  352SOL    HW1 1055   2.027   1.404   0.494  0.6768 -2.1935  0.7905
  352SOL    HW2 1056   2.021   1.338   0.644 -0.6874  2.3860  1.7433
  353SOL     OW 1057   2.204   2.803   1.069 -0.3465 -0.1120  0.1692
  353SOL    HW1 1058   2.224   2.717   1.131 -0.0456 -0.3741  0.4642
  353SOL    HW2 1059   2.105   2.837   1.090  0.4860 -0.2413  2.6278
  354SOL     OW 1060   0.288   1.448   2.869  0.2975  0.0632  0.0445
  354SOL    HW1 1061   0.265   1.497   2.781 -0.3872 -1.9867 -1.6914
  354SOL    HW2 1062   0.388   1.431   2.887  1.9939 -0.5163  1.1436
  355SOL     OW 1063   0.740   1.593   0.605  0.0758  0.0366  0.7219
  355SOL    HW1 1064   0.740   1.511   0.667  0.2876  0.3435 -0.4591
  355SOL    HW2 1065   0.703   1.566   0.510  1.0719  2.0835 -0.5217
  356SOL     OW 1066   0.851   0.303   2.030  0.4321 -0.3370 -0.1703
  356SOL    HW1 1067   0.945   0.263   2.049 -2.9357  1.3870  0.1312
  356SOL    HW2 1068   0.801   0.259   1.951 -1.1076 -0.4810  1.3198
  357SOL     OW 1069   1.020   1.332   0.365 -0.6049  0.4251  0.0651
  357SOL    HW1 1070   1.108   1.339   0.309  1.6324  1.7847  1.6248
  357SOL    HW2 1071   1.016   1.241   0.416 -2.3792 -1.6570  2.4593
  358SOL     OW 1072   1.625   1.524   0.508 -0.2624  0.2007  0.3230
  358SOL    HW1 1073   1.615   1.450   0.585 -0.0587 -2.5996  2.7196
  358SOL    HW2 1074   1.576   1.509   0.417 -0.9297 -2.2023 -1.5086
  359SOL     OW 1075   1.595   2.593   0.284  0.5671 -0.5396  0.4012
  359SOL    HW1 1076   1.559   2.504   0.242 -0.2907 -2.7315  1.0191
  359SOL    HW2 1077   1.523   2.657   0.328  1.4222  0.1334  1.6196
  360SOL     OW 1078   0.776   0.526   0.565  0.4870 -0.4471  0.4995
  360SOL    HW1 1079   0.676   0.511   0.561 -1.2704 -0.5412 -0.2737
  360SOL    HW2 1080   0.820   0.433   0.572 -0.1226  1.5748  0.3039
  361SOL     OW 1081   1.316   1.270   0.638  0.1321 -0.3273 -0.1231
  361SOL    HW1 1082   1.375   1.307   0.713  2.5317  3.4123 -1.6969
  361SOL    HW2 1083   1.232   1.326   0.629  1.0160 -1.1460  0.1167
  362SOL     OW 1084   1.380   1.750   0.720 -0.0452  0.0972 -0.4110
  362SOL    HW1 1085   1.441   1.699   0.787 -1.7981  1.2557  2.2407
  362SOL    HW2 1086   1.424   1.834   0.680  0.3965  1.0010  0.4711
  363SOL     OW 1087   1.227   1.304   2.067  0.4117  0.4845 -0.1649
  363SOL    HW1 1088   1.307   1.368   2.054 -2.2539 -0.5763  2.0973
  363SOL    HW2 1089   1.155   1.349   2.128  0.9541 -2.6841  0.1990
  364SOL     OW 1090   0.521   2.364   2.039  0.5422  0.1319  0.1669
  364SOL    HW1 1091   0.422   2.394   2.047  0.3341 -2.4344 -0.5189
  364SOL    HW2 1092   0.567   2.409   1.957  0.9468 -0.4600 -0.2017
  365SOL     OW 1093   1.051   1.988   1.338  0.0516  0.6028 -0.1121
  365SOL    HW1 1094   0.951   1.967   1.364 -0.5005 -1.1886 -0.4846
  365SOL    HW2 1095   1.062   2.026   1.243 -1.5698 -0.1902 -0.5092
  366SOL     OW 1096   2.857   1.944   0.362  0.1815 -0.0575 -0.9038
  366SOL    HW1 1097   2.783   1.951   0.295  0.4555 -0.5454  2.7527
  366SOL    HW2 1098   2.911   1.857   0.348 -0.6835 -1.7784  2.1114
  367SOL     OW 1099   0.945   1.180   0.030 -0.5409 -0.2645 -0.3339
  367SOL    HW1 1100   0.945   1.100   0.094 -0.2775  2.4504  1.5141
  367SOL    HW2 1101   1.018   1.253   0.042 -1.5287  1.1816  1.3346
  368SOL     OW 1102   1.463   0.521   0.587  0.3828  0.3289 -0.8816
  368SOL    HW1 1103   1.399   0.565   0.521 -0.8963  2.8076 -1.2603
  368SOL    HW2 1104   1.562   0.550   0.587  1.3650  0.7612  2.2737
  369SOL     OW 1105   0.384   1.730   0.183  0.2111 -0.6448 -0.4975
  369SOL    HW1 1106   0.421   1.784   0.268  2.5339 -0.3473 -0.0997
  369SOL    HW2 1107   0.312   1.660   0.211 -3.0096  3.4324  2.2561
  370SOL     OW 1108   0.418   2.097   1.035 -0.8340  0.1184 -0.0805
  370SOL    HW1 1109   0.455   2.193   1.037  0.2361 -1.1532  0.1008
  370SOL    HW2 1110   0.321   2.086   0.999  1.9053  2.6075  1.1975
  371SOL     OW 1111   2.864   2.220   2.634  0.2026  0.0449  0.4690
  371SOL    HW1 1112   2.814   2.155   2.693  2.0544  0.5069  2.6330
  371SOL    HW2 1113   2.931   2.280   2.685 -0.9066  1.2158 -0.7155
  372SOL     OW 1114   1.060   2.090   1.053 -0.1855  0.5676  0.9734
  372SOL    HW1 1115   0.969   2.133   1.026 -0.2306 -0.4003  1.8208
  372SOL    HW2 1116   1.140   2.132   1.002 -2.0891  2.4306  1.5973
  373SOL     OW 1117   1.929   1.907   0.993 -0.0387 -0.2652  0.1718
  373SOL    HW1 1118   2.015   1.959   1.024  0.3496  0.9813 -0.9435
  373SOL    HW2 1119   1.874   1.982   0.940 -0.1309  0.8592 -0.5303
  374SOL     OW 1120   1.860   0.412   0.566  0.1711  0.0798 -0.0119
  374SOL    HW1 1121   1.832   0.370   0.656 -1.1720  1.2587  1.7233
  374SOL    HW2 1122   1.962   0.405   0.543 -3.3616  3.3721 -0.9016
  375SOL     OW 1123   2.393   2.186   1.079 -0.3389  0.4698  0.5559
  375SOL    HW1 1124   2.442   2.154   0.993 -0.5828  1.4001  1.4316
  375SOL    HW2 1125   2.452   2.163   1.165 -0.5470  1.7341  0.9761
  376SOL     OW 1126   3.051   0.540   1.416  0.1448  0.9292 -0.7484
  376SOL    HW1 1127   3.027   0.607   1.489  0.6907 -1.0893 -1.9492
  376SOL    HW2 1128   2.995   0.449   1.424  1.7039 -2.7729 -2.8969
  377SOL     OW 1129   2.169   2.928   0.310 -0.3144  0.2669  0.1108
  377SOL    HW1 1130   2.182   3.029   0.301  0.1686  0.0664 -1.6800
  377SOL    HW2 1131   2.254   2.881   0.352  1.0999 -0.9990 -0.5162
  378SOL     OW 1132   1.744   1.828   2.522  0.0052  0.0734  0.4144
  378SOL    HW1 1133   1.839   1.856   2.516  0.3742  1.7193 -2.3148
  378SOL    HW2 1134   1.732   1.731   2.485 -2.3385  2.7158 -4.1459
  379SOL     OW 1135   0.723   0.148   2.832  0.4950 -0.0083 -0.4274
  379SOL    HW1 1136   0.771   0.073   2.779  2.0333 -2.2637  0.0069
  379SOL    HW2 1137   0.681   0.217   2.763  2.0547  1.0850  0.4531
  380SOL     OW 1138   1.580   1.147   0.540 -0.2861  0.1099 -0.0770
  380SOL    HW1 1139   1.482   1.181   0.529  1.1351  0.8577 -2.5980
  380SOL    HW2 1140   1.589   1.045   0.564  0.7015 -0.6421 -0.2397
  381SOL     OW 1141   1.355   1.205   1.576  0.0252  0.1879  0.1544
  381SOL    HW1 1142   1.382   1.122   1.514  2.8686 -0.4896 -0.5485
  381SOL    HW2 1143   1.429   1.273   1.584  0.2990 -0.3436  0.7835
  382SOL     OW 1144   1.830   0.895   0.222  0.0287  0.0076  0.4207
  382SOL    HW1 1145   1.860   0.867   0.126 -1.3591  1.5986 -0.8593
  382SOL    HW2 1146   1.898   0.870   0.298 -0.1085  1.5978  0.5794
  383SOL     OW 1147   2.598   1.003   1.487  0.1336 -0.2939  0.3171
  383SOL    HW1 1148   2.499   0.963   1.462 -1.3342 -1.4274  0.0141
  383SOL    HW2 1149   2.659   1.007   1.402 -0.5778  1.8374 -0.8043
  384SOL     OW 1150   0.880   2.234   0.173 -0.4484 -0.1358 -0.4472
  384SOL    HW1 1151   0.848   2.320   0.222 -3.2939 -0.3219 -0.6454
  384SOL    HW2 1152   0.894   2.153   0.237  0.2232  0.8918 -1.4782
  385SOL     OW 1153   2.973   1.994   1.657 -0.2105 -0.0458 -0.0078
  385SOL    HW1 1154   3.044   2.062   1.650 -1.2014 -3.3405 -2.3897
  385SOL    HW2 1155   3.010   1.899   1.667  1.4634  0.9424  1.8851
  386SOL     OW 1156   0.478   1.077   0.466 -0.6389  0.3097  0.0778
  386SOL    HW1 1157   0.461   0.977   0.481 -1.1824 -3.1859 -0.9309
  386SOL    HW2 1158   0.392   1.122   0.432  1.5716 -1.5635 -1.1832
  387SOL     OW 1159   0.912   0.402   1.655 -0.0822 -0.5064 -0.2049
  387SOL    HW1 1160   0.944   0.494   1.677  0.4105 -1.7128 -0.1886
  387SOL    HW2 1161   0.949   0.371   1.562 -4.2075 -1.2598 -1.8193
  388SOL     OW 1162   1.189   2.730   1.744  0.0537  0.1481  0.6518
  388SOL    HW1 1163   1.211   2.760   1.649 -4.1184 -0.3160  0.2887
  388SOL    HW2 1164   1.253   2.659   1.780  1.9318 -1.1561 -1.7722
  389SOL     OW 1165   0.131   2.977   1.263 -0.7769 -0.4398  0.8682
  389SOL    HW1 1166   0.032   2.994   1.239  1.0866 -0.5198 -0.3683
  389SOL    HW2 1167   0.148   2.873   1.272  0.6315  0.7614  0.2718
  390SOL     OW 1168   1.062   0.969   1.300  0.2494  0.2815  0.1633
  390SOL    HW1 1169   1.129   0.971   1.377  1.3755  0.6428 -1.0111
  390SOL    HW2 1170   0.970   1.013   1.326  0.1789 -1.9282 -0.6172
  391SOL     OW 1171   2.183   1.112   1.083 -0.1526 -0.0432  0.0549
  391SOL    HW1 1172   2.147   1.035   1.139 -1.8818 -2.1783  1.2318
  391SOL    HW2 1173   2.228   1.080   0.992 -0.0578  1.2923 -1.3389
  392SOL     OW 1174   0.881   2.651   3.040  0.5507 -0.3196 -0.5080
  392SOL    HW1 1175   0.980   2.612   3.026  0.3111  1.4478 -0.8813
  392SOL    HW2 1176   0.827   2.604   3.118 -0.0297 -2.5464  2.2214
  393SOL     OW 1177   0.356   0.547   1.979 -0.7211 -0.4809  0.0698
  393SOL    HW1 1178   0.293   0.467   1.985  1.3885 -3.6904 -0.1889
  393SOL    HW2 1179   0.434   0.539   1.907 -1.7944 -0.3921  0.9887
  394SOL     OW 1180   2.979   1.927   2.795  0.5996  0.4229  0.0189
  394SOL    HW1 1181   3.062   1.966   2.835 -0.4024  2.1554 -0.4519
  394SOL    HW2 1182   2.975   1.937   2.691  1.3375 -0.0148  0.5614
  395SOL     OW 1183   1.598   1.989   0.666  0.0762 -0.2060  0.0273
  395SOL    HW1 1184   1.655   1.921   0.613 -0.5338  0.2450  0.9762
  395SOL    HW2 1185   1.638   2.020   0.757 -0.7029  0.6373 -0.6478
  396SOL     OW 1186   2.818   1.843   1.270  0.2992 -0.4953 -0.0146
  396SOL    HW1 1187   2.785   1.747   1.288 -2.3412  0.3863  1.8587
  396SOL    HW2 1188   2.792   1.905   1.348  0.2800 -1.2289 -2.3213
  397SOL     OW 1189   1.030   2.223   0.494 -0.4259  0.3008  0.2625
  397SOL    HW1 1190   0.968   2.184   0.563  1.3687  0.6422  0.9559
  397SOL    HW2 1191   1.064   2.318   0.521 -1.1940 -0.0370 -1.8095
  398SOL     OW 1192   2.164   0.008   1.008 -0.1129  0.1295 -0.1208
  398SOL    HW1 1193   2.175  -0.092   1.028  0.5455 -0.3510  1.0357
  398SOL    HW2 1194   2.077   0.050   1.046  0.7779  0.1942 -2.2208
  399SOL     OW 1195   3.083   2.442   2.565  0.3481 -0.3862  0.1540
  399SOL    HW1 1196   3.001   2.395   2.539  1.7861 -0.8201  0.8711
  399SOL    HW2 1197   3.149   2.383   2.623  0.9396  2.3701  0.7155
  400SOL     OW 1198   0.807   1.639   1.354  0.4107  0.1778  0.6355
  400SOL    HW1 1199   0.722   1.668   1.404  0.0453  1.1913  0.6037
  400SOL    HW2 1200   0.801   1.658   1.249 -0.2828 -0.8834  0.4550
  401SOL     OW 1201   1.865   0.098   1.275  0.0374  0.1381 -0.3704
  401SOL    HW1 1202   1.905   0.091   1.370 -1.1818  1.2159 -3.0832
  401SOL    HW2 1203   1.765   0.131   1.273  0.9553  0.7261 -4.2424
  402SOL     OW 1204   1.295   0.136   3.094  0.0673 -0.3198 -0.0353
  402SOL    HW1 1205   1.389   0.123   3.042  0.7637  1.3845 -1.7160
  402SOL    HW2 1206   1.267   0.239   3.091 -1.0181  1.3383  1.1005
  403SOL     OW 1207   2.282   1.768   0.967 -0.6933  0.2721 -0.4973
  403SOL    HW1 1208   2.382   1.777   0.995  2.8280  0.6604 -1.5168
  403SOL    HW2 1209   2.224   1.855   0.984 -2.0463  0.4539 -0.8872
  404SOL     OW 1210   0.165   2.474   2.796  0.1882 -0.2281  0.2993
  404SOL    HW1 1211   0.268   2.446   2.798 -0.1092  0.0789  2.4431
  404SOL    HW2 1212   0.155   2.568   2.839  0.7099 -2.1678 -0.1378
  405SOL     OW 1213   0.130   2.458   0.697  0.0498  0.9126 -0.1070
  405SOL    HW1 1214   0.120   2.391   0.620 -1.9199 -1.6492  0.5266
  405SOL    HW2 1215   0.208   2.521   0.696 -2.7480  1.6860 -1.3293
  406SOL     OW 1216   0.088   1.524   3.035 -0.3134  0.1413  0.4831
  406SOL    HW1 1217   0.153   1.479   2.962  0.7428 -1.3751 -0.8386
  406SOL    HW2 1218   0.129   1.533   3.125 -1.5763  2.0459 -1.8347
  407SOL     OW 1219   1.535   0.925   1.012  0.1906  0.4672 -0.1584
  407SOL    HW1 1220   1.502   0.915   0.911  0.5519  1.0948 -0.5434
  407SOL    HW2 1221   1.491   1.003   1.054 -0.0664 -0.4311  1.0813
  408SOL     OW 1222   1.613   2.443   0.962 -0.0596  0.1802  0.2155
  408SOL    HW1 1223   1.664   2.416   0.876 -0.6033  1.1866  1.8218
  408SOL    HW2 1224   1.532   2.508   0.944 -1.1072 -0.5695 -0.2635
  409SOL     OW 1225   0.631   0.830   0.755  0.5748  0.6477  0.0624
  409SOL    HW1 1226   0.551   0.809   0.691 -0.5836 -2.2758  2.9489
  409SOL    HW2 1227   0.657   0.743   0.809  0.6712 -2.5018 -0.6419
  410SOL     OW 1228   1.314   2.022   1.391  0.0657 -0.6765  0.0592
  410SOL    HW1 1229   1.365   1.959   1.450 -2.4267  2.1819 -1.9776
  410SOL    HW2 1230   1.208   1.998   1.383 -0.6157  0.1706 -0.7442
  411SOL     OW 1231   2.622   1.900   3.051  0.4505  0.2194 -0.4844
  411SOL    HW1 1232   2.546   1.947   2.997  1.3422 -0.3289 -3.2060
  411SOL    HW2 1233   2.686   1.845   2.987  0.0534 -1.8583  0.5772
  412SOL     OW 1234   1.483   2.477   2.173  0.2088 -0.0459  0.2556
  412SOL    HW1 1235   1.518   2.572   2.181 -1.7456  1.1957 -2.0717
  412SOL    HW2 1236   1.387   2.474   2.211  0.6857  1.7711 -1.2723
  413SOL     OW 1237   3.029   0.224   2.916 -0.4924  0.3006 -0.2208
  413SOL    HW1 1238   3.024   0.145   2.983  1.4987 -0.2851 -1.3289
  413SOL    HW2 1239   3.125   0.238   2.876 -1.7104 -0.5137  0.8778
  414SOL     OW 1240   1.906   1.543   1.201 -0.1130  0.4419  0.2788
  414SOL    HW1 1241   1.885   1.638   1.154  0.8711  1.6914 -1.1682
  414SOL    HW2 1242   1.823   1.491   1.229 -0.7684 -1.2383 -3.1397
  415SOL     OW 1243   0.340   2.237   0.717  0.5679 -0.3217  0.7449
  415SOL    HW1 1244   0.306   2.330   0.739  1.2471 -0.7535 -0.6156
  415SOL    HW2 1245   0.284   2.163   0.766 -3.9831  0.0910  4.3347
  416SOL     OW 1246   0.376   1.079   1.052 -0.4050  0.1195  0.2456
  416SOL    HW1 1247   0.369   1.021   0.967 -0.1591 -0.6273 -2.1557
  416SOL    HW2 1248   0.456   1.141   1.048  1.3360  1.0857 -1.9052
  417SOL     OW 1249   2.235   2.304   2.020 -0.0868 -0.1730 -0.0312
  417SOL    HW1 1250   2.308   2.228   2.027  0.9600  0.3767 -0.4019
  417SOL    HW2 1251   2.138   2.277   2.053  0.3215  0.3087 -3.7531
  418SOL     OW 1252   1.090   0.568   1.342 -0.0301  0.4460 -0.5612
  418SOL    HW1 1253   1.043   0.503   1.281 -1.4228 -0.3020  1.9075
  418SOL    HW2 1254   1.189   0.585   1.315 -2.2199  1.4269  2.7769
  419SOL     OW 1255   0.961   0.503   2.989  0.5504 -0.0269 -0.3042
  419SOL    HW1 1256   0.888   0.498   2.911  1.2726  0.9689 -2.0552
  419SOL    HW2 1257   0.995   0.605   3.009  2.0845  1.5094 -1.8498
  420SOL     OW 1258   0.101   2.265   0.512 -0.2235 -0.1749  0.0344
  420SOL    HW1 1259   0.176   2.218   0.458  0.6021  0.8003  1.5530
  420SOL    HW2 1260   0.029   2.200   0.550 -0.2540  0.1782  1.8703
  421SOL     OW 1261   0.314   2.999   0.645 -0.1205 -0.2363  0.0030
  421SOL    HW1 1262   0.284   2.928   0.715 -1.1403 -2.6483  0.7244
  421SOL    HW2 1263   0.416   3.017   0.640 -0.1570  0.6742 -0.4374
  422SOL     OW 1264   1.036   2.542   1.034 -0.5271  0.4453 -0.2283
  422SOL    HW1 1265   1.078   2.611   0.972 -1.5649 -0.9486 -1.3887
  422SOL    HW2 1266   1.023   2.582   1.132  3.1360  1.9853  0.1110
  423SOL     OW 1267   0.130   0.704   1.288 -0.0656  0.2586 -0.2451
  423SOL    HW1 1268   0.074   0.626   1.321  3.4920  1.0194  0.4347
  423SOL    HW2 1269   0.072   0.789   1.269  2.6963 -1.0089 -3.0734
  424SOL     OW 1270   1.015   2.235   2.037  0.6453 -0.7153 -0.1094
  424SOL    HW1 1271   1.034   2.337   2.018  1.9427 -1.3464 -1.1560
  424SOL    HW2 1272   1.021   2.211   2.137 -0.0636 -1.3358 -2.5756
  425SOL     OW 1273   1.989   1.298   1.004 -0.2813 -0.5963 -0.1730
  425SOL    HW1 1274   2.053   1.223   1.034  0.2671  1.5145 -1.0965
  425SOL    HW2 1275   2.044   1.383   0.978  2.2520  0.0732  0.5649
  426SOL     OW 1276   1.506   1.604   1.374  0.6718  0.2477  0.3161
  426SOL    HW1 1277   1.483   1.682   1.305  1.8886 -1.1156  0.9339
  426SOL    HW2 1278   1.447   1.614   1.458 -0.7094  0.8257  1.6999
  427SOL     OW 1279   1.930   2.356   2.071  0.5070 -0.3492  0.1311
  427SOL    HW1 1280   1.976   2.288   2.136 -0.2275  1.2976 -1.6918
  427SOL    HW2 1281   1.927   2.454   2.109 -1.1186  0.6294  2.1767
  428SOL     OW 1282   0.862   3.078   0.167  0.4589 -0.6481  0.0559
  428SOL    HW1 1283   0.862   3.143   0.088  3.4556 -0.6617 -1.7869
  428SOL    HW2 1284   0.946   3.012   0.165  1.9152 -3.4524  0.2415
  429SOL     OW 1285   1.310   0.075   0.258  0.6740  0.0695 -0.1100
  429SOL    HW1 1286   1.400   0.083   0.309  1.3830  1.1805 -0.7465
  429SOL    HW2 1287   1.314   0.090   0.156 -0.1998 -0.2432 -0.4500
  430SOL     OW 1288   2.805   1.418   0.315  0.5567 -0.3382 -0.2459
  430SOL    HW1 1289   2.786   1.464   0.219  1.5381 -0.4635  0.0596
  430SOL    HW2 1290   2.850   1.487   0.378  1.7087  1.1147 -0.3183
  431SOL     OW 1291   2.121   1.555   0.875 -0.0756 -0.2033  0.6827
  431SOL    HW1 1292   2.199   1.616   0.909  1.0494 -1.3275 -1.7061
  431SOL    HW2 1293   2.049   1.603   0.817 -2.6316  0.3079  0.3463
  432SOL     OW 1294   2.886   2.246   1.184  0.2129  0.2220 -0.9069
  432SOL    HW1 1295   2.918   2.153   1.147  1.4315  1.0575  1.5112
  432SOL    HW2 1296   2.923   2.258   1.283  2.3778 -0.1277 -1.7455
  433SOL     OW 1297   1.827   0.345   0.836 -0.1509 -0.9925 -0.4006
  433SOL    HW1 1298   1.728   0.353   0.886  0.8030  1.2482  2.7605
  433SOL    HW2 1299   1.881   0.268   0.876 -2.0860  1.3222  2.0873
  434SOL     OW 1300   1.514   0.289   0.697  0.5873  0.5597 -0.2092
  434SOL    HW1 1301   1.492   0.386   0.656 -0.0201  0.5314  0.6643
  434SOL    HW2 1302   1.552   0.304   0.792 -0.5224 -1.4339  2.3742
  435SOL     OW 1303   1.441   1.501   2.080 -0.4182  0.2523  0.0176
  435SOL    HW1 1304   1.438   1.564   2.163  2.9504  0.9507 -1.1148
  435SOL    HW2 1305   1.475   1.554   1.997  0.4242 -2.1851  2.9975
  436SOL     OW 1306   1.702   2.736   2.275 -0.1784 -0.1585  0.5738
  436SOL    HW1 1307   1.657   2.813   2.334 -0.3429 -0.0511  1.4459
  436SOL    HW2 1308   1.714   2.650   2.330  0.7102  1.5013  0.2031
  437SOL     OW 1309   1.096   2.944   0.950  0.1085 -0.5730 -0.1207
  437SOL    HW1 1310   1.008   2.995   0.931  0.2115 -0.6568 -2.6777
  437SOL    HW2 1311   1.123   2.962   1.049 -1.4222  1.5403  1.2018
  438SOL     OW 1312   0.993   2.599   1.320 -0.1950  0.2625  0.2613
  438SOL    HW1 1313   1.081   2.631   1.360 -0.7252  0.0750  0.2160
  438SOL    HW2 1314   0.990   2.492   1.314  1.6252  1.0941  1.3541
  439SOL     OW 1315   0.680   1.776   1.098  0.1812 -0.0469  0.1485
  439SOL    HW1 1316   0.666   1.868   1.048  0.9022  0.7142  1.4270
  439SOL    HW2 1317   0.604   1.755   1.167 -0.6196  1.4199  1.7331
  440SOL     OW 1318   1.032   2.516   1.947  0.3977  0.8314 -0.2115
  440SOL    HW1 1319   0.980   2.551   1.865  1.2157 -0.8952  0.9067
  440SOL    HW2 1320   1.128   2.544   1.943 -1.1244 -0.5265  2.8857
  441SOL     OW 1321   0.510   2.722   1.426 -0.1766 -0.0310 -0.2460
  441SOL    HW1 1322   0.555   2.629   1.455  2.0782  0.8341 -0.2751
  441SOL    HW2 1323   0.415   2.708   1.402  2.0555 -2.2368  0.5008
  442SOL     OW 1324   2.263   0.719   2.509 -0.1779  0.2003 -0.1864
  442SOL    HW1 1325   2.284   0.621   2.540 -0.7991  1.4738 -0.6834
  442SOL    HW2 1326   2.166   0.733   2.472 -0.3191  0.2305 -0.9723
  443SOL     OW 1327   1.223   2.721   2.137 -0.1129 -0.3498  0.3597
  443SOL    HW1 1328   1.225   2.787   2.219 -3.1126  0.4894  2.8150
  443SOL    HW2 1329   1.160   2.639   2.166  0.3293  1.0966  1.9810
  444SOL     OW 1330   1.092   1.265   1.586  0.2218 -0.0985 -0.2596
  444SOL    HW1 1331   1.191   1.241   1.573 -0.7576  4.6174  0.4051
  444SOL    HW2 1332   1.082   1.346   1.647  0.2073 -2.5547  1.1176
  445SOL     OW 1333   0.021   2.331   1.876  0.1575 -0.6597  0.4067
  445SOL    HW1 1334   0.025   2.434   1.854  0.8100  0.7015  0.3345
  445SOL    HW2 1335  -0.064   2.309   1.932 -1.7979 -2.0976  0.4806
  446SOL     OW 1336   0.209   1.918   2.319 -0.1997 -0.5073  0.0535
  446SOL    HW1 1337   0.166   1.993   2.372 -1.0564  0.0201 -4.9241
  446SOL    HW2 1338   0.152   1.897   2.239  1.2408  0.9314  0.7295
  447SOL     OW 1339   1.192   1.683   1.941  0.8679 -0.4183 -0.1450
  447SOL    HW1 1340   1.110   1.746   1.915  0.7962  0.6286  2.0486
  447SOL    HW2 1341   1.273   1.709   1.886  0.0186 -0.3718 -1.7865
  448SOL     OW 1342   0.169   1.550   2.049 -0.0850  0.4102 -0.2410
  448SOL    HW1 1343   0.175   1.626   1.981  1.9372 -1.8526  1.9467
  448SOL    HW2 1344   0.123   1.579   2.132  1.7531 -2.1504  1.7370
  449SOL     OW 1345   1.978   2.951   0.822 -0.0597  0.2741 -0.1997
  449SOL    HW1 1346   2.053   2.988   0.885  1.9719 -3.0604  0.8998
  449SOL    HW2 1347   1.988   2.849   0.805  3.1185  0.8624  1.6993
  450SOL     OW 1348   2.329   1.336   0.768 -0.3286 -0.2952  0.2946
  450SOL    HW1 1349   2.317   1.242   0.808 -1.1678  0.2080 -1.4935
  450SOL    HW2 1350   2.239   1.372   0.722 -0.0316  0.6510  2.4083
  451SOL     OW 1351   1.375   0.000   1.432  0.7771 -0.1871  0.1762
  451SOL    HW1 1352   1.304   0.072   1.458  1.0967  0.7836 -1.5549
  451SOL    HW2 1353   1.427  -0.039   1.517  1.3327 -0.2706  2.0868
  452SOL     OW 1354   2.655   2.297   2.178  0.0416  0.4331  0.4887
  452SOL    HW1 1355   2.588   2.367   2.220 -0.2489 -0.3978 -0.4753
  452SOL    HW2 1356   2.713   2.244   2.248 -2.4441 -0.5715  0.0303
  453SOL     OW 1357   2.440   2.674   3.055 -0.2563  0.0049  0.1441
  453SOL    HW1 1358   2.358   2.707   3.106  1.9118 -1.0152  1.7537
  453SOL    HW2 1359   2.414   2.598   2.991 -2.4215  3.3257  1.7064
  454SOL     OW 1360   1.029   1.100   2.081 -0.7257 -0.3548  0.1991
  454SOL    HW1 1361   0.990   1.122   1.985 -2.6684 -1.4423 -1.5049
  454SOL    HW2 1362   1.122   1.150   2.096  1.4232 -0.3250  1.3582
  455SOL     OW 1363   0.643   2.608   2.899  0.7988  0.1152 -0.0950
  455SOL    HW1 1364   0.692   2.660   2.971  0.5592 -1.4932 -0.0273
  455SOL    HW2 1365   0.648   2.503   2.914 -0.2396 -1.1201  0.4322
  456SOL     OW 1366   0.499   1.906   0.383 -0.5015 -0.3917  0.2535
  456SOL    HW1 1367   0.584   1.888   0.442  2.7229 -2.1445  1.6245
  456SOL    HW2 1368   0.504   2.002   0.341 -1.6672 -0.2342 -0.6194
  457SOL     OW 1369   0.354   2.620   0.722 -0.0048 -0.4774 -0.2690
  457SOL    HW1 1370   0.381   2.629   0.620 -1.3714 -0.2137  0.4555
  457SOL    HW2 1371   0.428   2.647   0.792  3.3599 -0.9810  1.2145
  458SOL     OW 1372   2.960   3.064   1.208  0.4574 -0.6946  0.2582
  458SOL    HW1 1373   3.007   3.155   1.189  2.5488  0.9658 -2.5736
  458SOL    HW2 1374   2.948   2.997   1.125  1.1165 -4.9185  2.8609
  459SOL     OW 1375   2.199   2.530   0.828 -0.5525  0.3560  0.8926
  459SOL    HW1 1376   2.223   2.601   0.897  2.0950  0.7698  0.0736
  459SOL    HW2 1377   2.260   2.535   0.748 -3.6922 -1.3968  1.6523
  460SOL     OW 1378   1.141   1.944   2.937  0.3229 -0.0341  0.0882
  460SOL    HW1 1379   1.182   2.003   2.864  0.2496 -0.3503  1.1915
  460SOL    HW2 1380   1.201   1.877   2.981 -2.5961 -1.1859 -0.9720
  461SOL     OW 1381   0.484   2.134   2.676 -0.3798  0.2360 -0.2240
  461SOL    HW1 1382   0.436   2.059   2.625  0.8604  0.2495  0.9400
  461SOL    HW2 1383   0.523   2.091   2.762  0.5797  1.2981  1.1995
  462SOL     OW 1384   0.930   1.150   1.833  0.2910  0.1694  0.4603
  462SOL    HW1 1385   1.014   1.117   1.788 -0.0697  2.0025  0.8608
  462SOL    HW2 1386   0.889   1.235   1.781  1.9222  1.8912 -1.2761
  463SOL     OW 1387   0.456   0.775   0.535  0.1277  0.2852  0.0606
  463SOL    HW1 1388   0.488   0.687   0.492 -1.9257  0.4749  1.5047
  463SOL    HW2 1389   0.355   0.784   0.563 -1.1274 -0.2035  1.8976
  464SOL     OW 1390   0.589   2.220   2.282  0.4124  0.1421 -0.1195
  464SOL    HW1 1391   0.612   2.300   2.342 -0.3914 -1.2042  1.3847
  464SOL    HW2 1392   0.545   2.256   2.191 -1.7035  0.8999  3.0191
  465SOL     OW 1393   0.283   0.913   0.828 -0.0001 -0.7794  0.0912
  465SOL    HW1 1394   0.198   0.956   0.782 -1.6794  0.0376  1.0366
  465SOL    HW2 1395   0.285   0.812   0.802 -0.7547  1.3718  1.4005
  466SOL     OW 1396   1.355   1.132   1.167  0.0437 -0.4265 -0.3236
  466SOL    HW1 1397   1.406   1.218   1.186  0.7540 -0.6321  1.6558
  466SOL    HW2 1398   1.250   1.148   1.171 -0.5292 -2.4477  1.7329
  467SOL     OW 1399   0.506   0.319   2.324  0.1741 -0.0291 -0.3526
  467SOL    HW1 1400   0.502   0.410   2.375 -0.5441 -1.7021  2.3709
  467SOL    HW2 1401   0.502   0.243   2.395 -0.7192 -0.8250 -1.5313
  468SOL     OW 1402   0.455   2.315   1.690 -0.5897  0.2431 -0.1819
  468SOL    HW1 1403   0.524   2.393   1.709  1.1326 -0.6042 -2.2589
  468SOL    HW2 1404   0.423   2.309   1.588  0.7132 -1.5825 -2.2784
  469SOL     OW 1405   1.499   1.337   1.281 -0.1846 -0.2117  0.1527
  469SOL    HW1 1406   1.592   1.291   1.300  0.9145  1.8836  0.0060
  469SOL    HW2 1407   1.508   1.436   1.304  1.3694 -3.4048  1.9435
  470SOL     OW 1408   3.029   1.690   0.763 -0.5151 -0.2264 -0.3988
  470SOL    HW1 1409   3.110   1.747   0.741 -1.6981  1.3959  0.0637
  470SOL    HW2 1410   2.977   1.739   0.839 -0.9831  0.6259  0.2650
  471SOL     OW 1411   2.636   1.367   2.141 -0.1371  0.3570 -0.1837
  471SOL    HW1 1412   2.602   1.294   2.204  0.3692 -0.6318 -1.0751
  471SOL    HW2 1413   2.736   1.400   2.158 -0.0156  0.8129 -0.5755
  472SOL     OW 1414   1.130   2.470   3.063 -0.3769 -0.6690  0.1452
  472SOL    HW1 1415   1.140   2.484   3.165  0.6231  2.6597 -1.5842
  472SOL    HW2 1416   1.079   2.381   3.035 -1.1452  0.2197 -0.2079
  473SOL     OW 1417   1.058   1.507   0.933 -0.3086 -0.5935 -0.5388
  473SOL    HW1 1418   0.966   1.510   0.988 -1.8981 -0.1115 -0.0115
  473SOL    HW2 1419   1.133   1.468   0.986 -1.2702  4.4934 -1.0258
  474SOL     OW 1420   0.741   1.237   0.625  0.5467 -0.0241 -0.1729
  474SOL    HW1 1421   0.706   1.254   0.530  2.0975  0.2178  0.9956
  474SOL    HW2 1422   0.790   1.144   0.633  1.9372  0.9128  0.2166
  475SOL     OW 1423   2.838   0.165   0.766 -0.1417 -0.5212 -0.2670
  475SOL    HW1 1424   2.926   0.187   0.825  0.0075  2.9804 -1.7330
  475SOL    HW2 1425   2.748   0.158   0.820 -0.1613  0.6171 -1.5839
  476SOL     OW 1426   0.891   2.980   1.782  0.6846  0.4685  0.0757
  476SOL    HW1 1427   0.963   2.935   1.848 -0.1575 -2.2744  2.0594
  476SOL    HW2 1428   0.897   2.937   1.684  0.1484 -1.3421  0.5505
  477SOL     OW 1429   1.432   0.335   2.503 -0.3136  0.0386 -0.5329
  477SOL    HW1 1430   1.447   0.359   2.605  0.1556 -1.7883  0.2084
  477SOL    HW2 1431   1.510   0.282   2.464 -1.0980 -1.7513  3.8663
  478SOL     OW 1432   2.247   1.839   0.254  0.2696 -0.0910 -0.4403
  478SOL    HW1 1433   2.175   1.762   0.234  0.9054 -3.2276 -0.5037
  478SOL    HW2 1434   2.341   1.809   0.222 -2.2019  0.4780 -1.5058
  479SOL     OW 1435   1.284   1.075   2.928 -0.7783 -0.3115 -1.2119
  479SOL    HW1 1436   1.348   1.083   2.848  1.8057  0.7532  2.4286
  479SOL    HW2 1437   1.187   1.060   2.892  0.2544  1.9350  1.9404
  480SOL     OW 1438   2.504   2.306   0.383  0.3731 -0.3670  0.1027
  480SOL    HW1 1439   2.456   2.216   0.379 -0.7578 -1.0911 -3.7608
  480SOL    HW2 1440   2.448   2.377   0.330 -0.6949 -1.2833  2.4854
  481SOL     OW 1441   1.036   1.170   0.830  0.3623  0.4101 -0.2888
  481SOL    HW1 1442   1.052   1.246   0.761 -0.6282  3.0336  1.6388
  481SOL    HW2 1443   1.048   1.203   0.928 -0.3055  1.6070  0.7852
  482SOL     OW 1444   1.594   0.316   2.026 -0.1682  0.6666 -0.3555
  482SOL    HW1 1445   1.610   0.415   2.003  0.5555  1.0743 -0.6154
  482SOL    HW2 1446   1.668   0.280   2.098  0.1835 -0.5906  1.5364
  483SOL     OW 1447   0.187   2.376   1.265  0.3178  0.4202  0.2873
  483SOL    HW1 1448   0.096   2.354   1.310 -0.2608  0.2123 -0.2664
  483SOL    HW2 1449   0.177   2.421   1.169  0.4464  0.5649 -1.9704
  484SOL     OW 1450   1.686   0.983   1.378 -0.0248 -0.6600  0.1356
  484SOL    HW1 1451   1.771   0.922   1.364  0.0380 -0.1431  0.9507
  484SOL    HW2 1452   1.689   1.044   1.462 -3.1372 -0.0110 -1.3626
  485SOL     OW 1453   0.652   1.076   1.812 -0.0564  0.3747  0.1017
  485SOL    HW1 1454   0.653   1.052   1.705 -0.7969  0.1010 -0.5215
  485SOL    HW2 1455   0.746   1.111   1.838 -0.3534  1.2030  1.0914
  486SOL     OW 1456   0.944   1.932   2.452  0.4826  0.0954  0.4194
  486SOL    HW1 1457   0.988   1.879   2.533 -0.5847  2.7085  2.4561
  486SOL    HW2 1458   0.875   2.007   2.482  1.2338  2.2823  2.0170
  487SOL     OW 1459   1.754   1.553   0.912 -0.1506 -0.4504 -0.0541
  487SOL    HW1 1460   1.754   1.451   0.893 -1.7423  3.0493 -1.1137
  487SOL    HW2 1461   1.799   1.607   0.836 -0.2022  0.0496 -0.0345
  488SOL     OW 1462   2.959   0.885   2.233  0.1510  0.2826 -0.2105
  488SOL    HW1 1463   3.012   0.806   2.192 -2.5102  0.7743  0.3176
  488SOL    HW2 1464   2.972   0.888   2.339  0.4955  0.0417  0.3825
  489SOL     OW 1465   2.779   0.253   1.311 -0.3208  0.3071 -0.5345
  489SOL    HW1 1466   2.735   0.199   1.388 -1.6326 -1.8858 -0.9446
  489SOL    HW2 1467   2.882   0.224   1.296 -2.3641 -3.5042  1.0010
  490SOL     OW 1468   1.447   2.932   2.787  0.3711  0.5968 -0.1405
  490SOL    HW1 1469   1.516   2.857   2.809 -2.2879 -0.7740  0.9208
  490SOL    HW2 1470   1.451   2.980   2.697 -0.7643 -1.2610  2.3493
  491SOL     OW 1471   1.790   1.474   2.663 -0.1989  0.0831  0.5377
  491SOL    HW1 1472   1.728   1.474   2.747  0.7495  1.8440  0.7262
  491SOL    HW2 1473   1.896   1.481   2.681  3.3052 -2.1866  1.7457
  492SOL     OW 1474   0.522   2.018   0.674 -0.2161  0.3425 -0.0343
  492SOL    HW1 1475   0.566   1.988   0.767  0.3880  1.8102  1.5928
  492SOL    HW2 1476   0.475   2.107   0.691  0.7610  1.7824 -0.7552
  493SOL     OW 1477   0.437   1.416   2.050  0.4399 -0.0280 -0.1582
  493SOL    HW1 1478   0.349   1.471   2.053 -1.3605  1.0002 -0.6458
  493SOL    HW2 1479   0.447   1.342   2.122 -0.5089 -0.3165 -1.1103
  494SOL     OW 1480   2.628   2.711   0.187  0.1870 -0.5774 -0.5607
  494SOL    HW1 1481   2.625   2.645   0.267 -2.1545  0.2150 -0.9575
  494SOL    HW2 1482   2.561   2.692   0.113 -1.5778  0.9902 -0.8663
  495SOL     OW 1483   2.740   2.673   2.694 -0.5616 -0.2136  0.1344
  495SOL    HW1 1484   2.665   2.604   2.684  0.7067 -0.6859 -0.7295
  495SOL    HW2 1485   2.764   2.723   2.604 -0.6138 -0.9438 -0.1726
  496SOL     OW 1486   2.037   2.179   0.710 -0.0561 -0.4039  0.0556
  496SOL    HW1 1487   2.033   2.213   0.810 -0.2187 -2.3638 -0.6583
  496SOL    HW2 1488   2.086   2.094   0.694 -0.3836  0.1647 -0.5555
  497SOL     OW 1489   0.205   2.979   2.417 -0.2277 -0.5863 -0.6664
  497SOL    HW1 1490   0.187   3.043   2.497 -2.2883 -0.8611 -1.1460
  497SOL    HW2 1491   0.243   3.029   2.330 -0.1455  2.4733  1.1767
  498SOL     OW 1492   1.216   1.444   1.187 -0.2316  0.0400 -0.4984
  498SOL    HW1 1493   1.295   1.426   1.251  1.0240  0.4258  0.7015
  498SOL    HW2 1494   1.170   1.537   1.219  1.3006  3.5365 -0.9318
  499SOL     OW 1495   0.721   1.851   0.533  0.1779 -0.0781  0.3882
  499SOL    HW1 1496   0.741   1.760   0.580  0.2673 -1.4805  2.6302
  499SOL    HW2 1497   0.717   1.927   0.605  2.6965  0.5348 -0.5901
  500SOL     OW 1498   1.469   2.969   1.643 -0.4162  0.4191  0.3874
  500SOL    HW1 1499   1.414   2.980   1.731 -0.6800 -1.6114 -0.3775
  500SOL    HW2 1500   1.534   2.886   1.641  0.3200 -0.2545 -1.3140
  501SOL     OW 1501   0.839   1.123   2.297 -0.5471  0.1620  0.0367
  501SOL    HW1 1502   0.755   1.061   2.299 -0.7144  1.0906 -0.9952
  501SOL    HW2 1503   0.895   1.112   2.211  0.6500 -4.2044  4.5877
  502SOL     OW 1504   2.622   0.946   1.758 -0.5895 -0.1871  0.0824
  502SOL    HW1 1505   2.594   0.956   1.657 -1.2579  1.3654 -1.9362
  502SOL    HW2 1506   2.548   0.905   1.812  0.8352 -0.9730 -1.3083
  503SOL     OW 1507   1.293   0.125   0.649  0.2817  0.0104 -0.8231
  503SOL    HW1 1508   1.217   0.192   0.664  1.3014 -1.0766  1.2836
  503SOL    HW2 1509   1.388   0.165   0.623 -1.6146 -1.6810 -2.7796
  504SOL     OW 1510   3.039   2.321   1.407 -0.2444 -0.3309 -0.0374
  504SOL    HW1 1511   3.020   2.416   1.428 -1.6245 -2.1332  0.2907
  504SOL    HW2 1512   3.082   2.271   1.490  0.5988  3.4817  2.5474
  505SOL     OW 1513   2.270   1.175   1.521 -0.1295  0.2500 -0.2440
  505SOL    HW1 1514   2.290   1.237   1.439 -0.2261 -0.9788  2.3057
  505SOL    HW2 1515   2.307   1.212   1.609  0.9744 -1.1945  1.4804
  506SOL     OW 1516   2.004   0.215   1.767  0.3512  0.2185 -0.3793
  506SOL    HW1 1517   2.082   0.160   1.811 -2.3275  2.4949  0.0556
  506SOL    HW2 1518   1.982   0.305   1.819 -0.6404 -0.2949  3.0153
  507SOL     OW 1519   0.536   0.685   2.173 -0.2390 -0.0020 -0.2058
  507SOL    HW1 1520   0.447   0.667   2.120  2.2201  0.4942  2.2907
  507SOL    HW2 1521   0.603   0.604   2.187  0.5887 -1.3325 -1.8026
  508SOL     OW 1522   0.255   1.621   0.897 -0.2336 -0.2157  0.5724
  508SOL    HW1 1523   0.319   1.680   0.843  1.0688 -2.4121  2.7663
  508SOL    HW2 1524   0.205   1.669   0.974 -0.4451  1.8201 -0.9737
  509SOL     OW 1525   1.348   1.250   2.352  0.1810 -0.0844  0.6327
  509SOL    HW1 1526   1.268   1.202   2.385 -1.4815  0.4053  3.1947
  509SOL    HW2 1527   1.431   1.188   2.312  1.8953 -0.1151 -0.8663
  510SOL     OW 1528   1.291   2.031   2.056 -0.1408  0.0198  0.0654
  510SOL    HW1 1529   1.247   2.120   2.044 -1.2542 -2.4613  1.3458
  510SOL    HW2 1530   1.224   1.962   2.099 -2.2771 -1.1137 -1.2861
  511SOL     OW 1531   3.089   2.692   1.348 -0.5071 -0.6780 -0.3972
  511SOL    HW1 1532   3.068   2.639   1.258  0.4268 -2.5644 -0.8138
  511SOL    HW2 1533   3.003   2.729   1.388  1.0580 -0.3756  0.8031
  512SOL     OW 1534   2.355   0.414   1.396  0.0853  0.2703 -0.2490
  512SOL    HW1 1535   2.257   0.385   1.395 -0.7596  0.2220 -1.6039
  512SOL    HW2 1536   2.416   0.360   1.328 -0.8048 -1.9212 -0.3690
  513SOL     OW 1537   2.477   2.058   0.854 -0.0856 -0.6404  0.1573
  513SOL    HW1 1538   2.420   2.125   0.795 -1.1598 -1.4206  0.0948
  513SOL    HW2 1539   2.557   2.012   0.808  0.8277 -3.0866  1.2443
  514SOL     OW 1540   0.586   2.796   0.514  0.5472  0.4730 -0.4359
  514SOL    HW1 1541   0.592   2.854   0.427 -0.7320 -0.0150 -2.4296
  514SOL    HW2 1542   0.655   2.833   0.586  1.8030  0.8476 -0.9730
  515SOL     OW 1543   2.017   1.133   2.260 -0.6924  0.6227 -0.0289
  515SOL    HW1 1544   1.989   1.178   2.174  1.3092 -2.1269  1.0558
  515SOL    HW2 1545   1.932   1.134   2.316  2.9809 -1.1310 -0.6605
  516SOL     OW 1546   0.263   0.248   1.940  0.5147  0.5242  0.6846
  516SOL    HW1 1547   0.338   0.223   1.870 -0.0486 -1.4073  2.5559
  516SOL    HW2 1548   0.169   0.203   1.914 -2.2081 -0.8509  1.2391
  517SOL     OW 1549   0.421   3.036   1.175 -0.3551 -0.2767  0.0938
  517SOL    HW1 1550   0.422   3.139   1.145  0.0360  1.1903 -0.4779
  517SOL    HW2 1551   0.332   3.019   1.231 -2.6126 -0.7161 -0.3652
  518SOL     OW 1552   2.194   3.095   1.762 -0.3199 -0.0679 -0.5571
  518SOL    HW1 1553   2.273   3.150   1.801  1.9572 -1.6391  0.1755
  518SOL    HW2 1554   2.224   3.034   1.681 -1.2096  1.2464  0.2553
  519SOL     OW 1555   2.356   2.236   2.595  0.2143  0.0843  0.0204
  519SOL    HW1 1556   2.285   2.225   2.669  0.2142  0.1311 -2.0870
  519SOL    HW2 1557   2.401   2.328   2.585  1.1185 -3.0901 -1.7400
  520SOL     OW 1558   1.743   2.876   1.875 -0.4361  0.1000 -0.0281
  520SOL    HW1 1559   1.657   2.855   1.924  1.9329 -2.3021  0.2802
  520SOL    HW2 1560   1.788   2.791   1.837  1.1993  1.8171  2.0147
  521SOL     OW 1561   0.555   3.084   2.134 -0.1605 -0.3588 -0.2987
  521SOL    HW1 1562   0.454   3.062   2.157 -1.5209 -0.4410 -1.3995
  521SOL    HW2 1563   0.605   3.111   2.222  2.0824 -0.8567 -0.0503
  522SOL     OW 1564   0.207   1.885   1.430 -0.1081 -0.0726 -0.0461
  522SOL    HW1 1565   0.268   1.933   1.499 -0.2014 -0.1024 -0.0178
  522SOL    HW2 1566   0.166   1.957   1.362 -0.7618 -0.3834  0.5066
  523SOL     OW 1567   2.259   2.939   1.548 -0.2632 -1.0793 -0.1503
  523SOL    HW1 1568   2.340   2.873   1.539  0.2002 -2.3421  2.1813
  523SOL    HW2 1569   2.171   2.900   1.519  0.4780 -0.8350 -0.3073
  524SOL     OW 1570   0.180   2.779   2.787  0.3761  0.0399 -0.5629
  524SOL    HW1 1571   0.141   2.869   2.826  0.0125 -1.7387 -0.5349
  524SOL    HW2 1572   0.286   2.788   2.788  0.6117 -2.3501 -0.4409
  525SOL     OW 1573   2.149   1.968   0.471  0.0832 -0.5024  0.4728
  525SOL    HW1 1574   2.191   1.913   0.551  0.2448 -0.7210  0.5870
  525SOL    HW2 1575   2.182   1.927   0.379  0.0757  2.5037 -0.2649
  526SOL     OW 1576   0.384   1.538   1.657  0.0529 -0.3369 -0.8372
  526SOL    HW1 1577   0.320   1.490   1.721 -0.0979 -2.2998 -1.9688
  526SOL    HW2 1578   0.466   1.473   1.638  0.9458  0.0197 -1.6164
  527SOL     OW 1579   1.098   2.976   1.252 -0.3931 -0.4313  0.3958
  527SOL    HW1 1580   1.183   2.916   1.273 -0.4280  0.0621 -1.8080
  527SOL    HW2 1581   1.117   3.079   1.249  0.2664  0.8295  0.3062
  528SOL     OW 1582   1.355   2.418   0.507  0.2476 -0.3153  0.2568
  528SOL    HW1 1583   1.399   2.325   0.496  2.3748  0.1644 -1.1300
  528SOL    HW2 1584   1.412   2.480   0.567 -0.3110 -1.1171  0.4447
  529SOL     OW 1585   1.936   1.748   0.761 -0.1216 -0.2453  1.0541
  529SOL    HW1 1586   1.867   1.770   0.684  0.0612  1.0771  1.2800
  529SOL    HW2 1587   1.939   1.810   0.839  3.1520 -1.4040 -0.5939
  530SOL     OW 1588   0.286   2.516   0.306 -0.2253 -0.8042  0.1513
  530SOL    HW1 1589   0.249   2.589   0.367 -1.6948 -0.0255 -0.3041
  530SOL    HW2 1590   0.333   2.443   0.367  0.6196 -0.2203 -1.3083
  531SOL     OW 1591   1.812   1.016   0.990  0.3118  0.0453  0.1012
  531SOL    HW1 1592   1.832   1.038   0.892  0.4827 -1.7559  2.0827
  531SOL    HW2 1593   1.710   0.995   1.012 -0.9456  2.4143  2.4050
  532SOL     OW 1594   0.507   1.100   0.789  0.0813 -0.4859  0.8146
  532SOL    HW1 1595   0.516   1.127   0.688 -0.3221 -2.4224 -0.1458
  532SOL    HW2 1596   0.450   1.017   0.797  0.9313  0.8138 -0.2020
  533SOL     OW 1597   1.755   0.028   2.591  0.2418 -0.6363 -0.0453
  533SOL    HW1 1598   1.860   0.038   2.593  2.0943  0.5950  1.6022
  533SOL    HW2 1599   1.711   0.090   2.664  0.0186  0.6969 -0.0806
  534SOL     OW 1600   0.308   0.224   1.628  0.2679  0.1749 -0.2074
  534SOL    HW1 1601   0.404   0.254   1.611 -1.6387 -2.0645 -0.7195
  534SOL    HW2 1602   0.249   0.306   1.644  3.1873 -0.9212 -0.3680
  535SOL     OW 1603   1.964   0.333   0.134  0.3065  0.1924 -0.1731
  535SOL    HW1 1604   1.971   0.415   0.198  0.4826  1.4995  1.0399
  535SOL    HW2 1605   1.934   0.248   0.188  0.7861 -3.8125  2.1692
  536SOL     OW 1606   1.405   2.626   0.938 -0.1235  0.4270  0.3331
  536SOL    HW1 1607   1.388   2.612   1.042 -3.2745  0.6233  1.0000
  536SOL    HW2 1608   1.318   2.616   0.884  2.5125  0.2012  1.3445
  537SOL     OW 1609   0.831   0.288   2.407 -0.3603  0.7096 -0.2870
  537SOL    HW1 1610   0.813   0.358   2.331  0.9765  1.4416  0.9112
  537SOL    HW2 1611   0.786   0.192   2.395 -0.6380 -0.1623 -2.0266
  538SOL     OW 1612   1.668   2.330   1.489  0.4305 -0.5304 -0.5627
  538SOL    HW1 1613   1.641   2.232   1.487  1.0877  0.7379 -0.3659
  538SOL    HW2 1614   1.766   2.347   1.456 -1.2698  2.0293  0.6896
  539SOL     OW 1615   0.164   1.644   2.690 -0.0675 -0.0315 -0.2389
  539SOL    HW1 1616   0.063   1.625   2.675  0.7637  0.7509 -0.2260
  539SOL    HW2 1617   0.167   1.718   2.762 -1.1986  1.0825 -0.2031
  540SOL     OW 1618   2.666   1.740   1.911 -0.8177 -0.2024  0.3571
  540SOL    HW1 1619   2.616   1.661   1.958  3.0334 -1.0758 -2.3748
  540SOL    HW2 1620   2.620   1.837   1.912  1.3568  1.7748  0.3358
  541SOL     OW 1621   0.514   2.197   0.012  0.5248 -0.2174  0.2003
  541SOL    HW1 1622   0.540   2.176   0.111 -0.3377 -0.6802  1.0809
  541SOL    HW2 1623   0.416   2.180  -0.014 -0.3176  1.6772 -1.3692
  542SOL     OW 1624   2.226   2.553   0.420 -0.1839 -0.1413  0.2163
  542SOL    HW1 1625   2.189   2.649   0.407  0.5740  0.5637 -0.4477
  542SOL    HW2 1626   2.154   2.485   0.463 -0.7774 -1.7674  0.3969
  543SOL     OW 1627   1.124   1.813   1.563  0.0466 -0.4239  0.0447
  543SOL    HW1 1628   1.125   1.880   1.638  2.2552 -0.0997 -1.2352
  543SOL    HW2 1629   1.096   1.857   1.470  0.6723 -0.5978 -1.5615
  544SOL     OW 1630   1.094   0.458   0.175  0.0085  0.2120  0.1227
  544SOL    HW1 1631   1.067   0.377   0.239  0.1265 -1.3181  3.5419
  544SOL    HW2 1632   1.141   0.417   0.091  1.0189 -1.7222 -0.1354
  545SOL     OW 1633   1.115   1.733   0.811  0.1485  0.7248  0.1273
  545SOL    HW1 1634   1.205   1.729   0.756 -2.4825  0.9459 -0.2345
  545SOL    HW2 1635   1.095   1.640   0.856  0.5178  0.3776 -2.6498
  546SOL     OW 1636   2.640   1.528   3.038 -0.0141 -0.1042 -0.1144
  546SOL    HW1 1637   2.638   1.596   2.955 -1.3518 -1.0905  0.2230
  546SOL    HW2 1638   2.559   1.466   3.035  0.4773  0.4014 -0.4271
  547SOL     OW 1639   0.625   3.005   2.609  0.3421  0.0508 -0.0527
  547SOL    HW1 1640   0.725   3.007   2.635 -0.6248 -1.0296  1.4252
  547SOL    HW2 1641   0.577   2.945   2.670  0.4922  0.4797 -0.7577
  548SOL     OW 1642   2.090   0.875   2.991  0.0299 -0.0851 -0.0662
  548SOL    HW1 1643   1.991   0.845   3.008 -2.2418 -2.3106 -0.6331
  548SOL    HW2 1644   2.102   0.977   3.016  0.8867  0.1353  1.9673
  549SOL     OW 1645   0.673   0.556   0.178  0.0407  0.9505  0.6241
  549SOL    HW1 1646   0.620   0.603   0.103 -0.2636  2.8485  1.0635
  549SOL    HW2 1647   0.755   0.612   0.194 -3.8293 -2.9325 -3.2977
  550SOL     OW 1648   2.620   2.802   2.893 -0.2707  0.0011  0.5632
  550SOL    HW1 1649   2.554   2.735   2.940  1.0405  0.1942  0.2178
  550SOL    HW2 1650   2.655   2.755   2.805  0.2565 -2.4803 -1.0829
  551SOL     OW 1651   0.294   0.857   0.249 -0.4195  0.2609  0.6253
  551SOL    HW1 1652   0.390   0.894   0.237 -0.8193  1.6975 -1.5307
  551SOL    HW2 1653   0.275   0.823   0.346 -1.3639 -1.4321  2.2575
  552SOL     OW 1654   0.618   2.987   1.900  0.4914  0.2202 -0.2785
  552SOL    HW1 1655   0.583   3.023   1.996 -3.1482  0.9662 -1.6491
  552SOL    HW2 1656   0.720   2.978   1.887 -1.5021 -1.3225  1.3908
  553SOL     OW 1657   2.907   2.457   0.359 -0.3994 -0.1229  0.0519
  553SOL    HW1 1658   2.891   2.353   0.389  2.8139 -1.9536  0.8518
  553SOL    HW2 1659   2.822   2.509   0.336  1.3854 -1.2038 -3.3584
  554SOL     OW 1660   2.138   0.363   0.536 -0.8357 -0.4869 -0.1507
  554SOL    HW1 1661   2.197   0.392   0.457  2.0307 -0.1415  0.7643
  554SOL    HW2 1662   2.170   0.279   0.578  2.0264  3.2395 -0.1985
  555SOL     OW 1663   0.371   2.764   2.504 -0.1830 -0.1041 -0.1282
  555SOL    HW1 1664   0.293   2.836   2.496  0.8063 -0.6112 -1.2930
  555SOL    HW2 1665   0.435   2.770   2.425 -2.3766  1.5007 -0.2163
  556SOL     OW 1666   0.862   2.373   1.557 -0.4004 -0.1693 -0.0092
  556SOL    HW1 1667   0.903   2.468   1.588 -1.5205  0.0840  0.2194
  556SOL    HW2 1668   0.910   2.329   1.478  0.6435  0.8788 -0.6416
  557SOL     OW 1669   0.149   2.040   0.224 -0.0497 -0.7038  0.4979
  557SOL    HW1 1670   0.049   2.006   0.215 -1.3422  0.0736 -1.9043
  557SOL    HW2 1671   0.194   2.055   0.129  1.8191  0.0837 -0.5307
  558SOL     OW 1672   2.784   2.211   0.420 -0.0800 -0.3914  0.2481
  558SOL    HW1 1673   2.681   2.235   0.422  0.5848 -0.2355  1.5754
  558SOL    HW2 1674   2.801   2.110   0.388  0.3001 -1.4360  0.4242
  559SOL     OW 1675   0.424   2.316   1.408  0.6339 -0.0226 -0.2149
  559SOL    HW1 1676   0.337   2.331   1.352 -1.3775  0.4726 -0.2051
  559SOL    HW2 1677   0.479   2.233   1.374 -0.1596  0.4633  0.1504
  560SOL     OW 1678   2.113   1.128   3.069 -0.1878 -0.4982  0.3701
  560SOL    HW1 1679   2.136   1.098   3.164  1.1338  0.0600 -1.0958
  560SOL    HW2 1680   2.179   1.192   3.021 -0.3425 -0.3810 -2.3943
  561SOL     OW 1681   0.011   1.863  -0.001 -0.0595  0.2273 -0.2871
  561SOL    HW1 1682  -0.020   1.805   0.081 -0.8314  2.8440  2.5199
  561SOL    HW2 1683  -0.035   1.958   0.003  1.9530  2.6419  4.0092
  562SOL     OW 1684   1.000   2.160   2.300  0.3659  0.2161  0.3367
  562SOL    HW1 1685   0.975   2.222   2.379  0.7944 -2.9775 -2.2802
  562SOL    HW2 1686   1.012   2.067   2.338  0.7106  1.8563  1.0327
  563SOL     OW 1687   0.699   2.557   2.628  0.0796 -0.6506  0.1657
  563SOL    HW1 1688   0.795   2.511   2.634  0.9995 -0.7053  1.4858
  563SOL    HW2 1689   0.657   2.561   2.724 -1.5344 -0.8973  1.5756
  564SOL     OW 1690   2.839   1.366   2.904  0.5841  0.5175  0.3435
  564SOL    HW1 1691   2.762   1.407   2.955  1.1599 -0.4778 -0.4655
  564SOL    HW2 1692   2.908   1.443   2.883 -1.0325  1.9846  0.2125
  565SOL     OW 1693   2.507   1.999   2.651 -0.3576 -0.2416  0.0783
  565SOL    HW1 1694   2.483   2.088   2.599 -2.3820 -1.5445  0.1644
  565SOL    HW2 1695   2.583   2.006   2.723 -0.7427 -1.7061 -1.6525
  566SOL     OW 1696   2.004   2.866   1.461 -0.5373  0.4242  0.3378
  566SOL    HW1 1697   1.947   2.779   1.482 -1.0667 -0.2150  1.6107
  566SOL    HW2 1698   2.005   2.888   1.358  0.8740  0.8116  2.2031
  567SOL     OW 1699   2.397   3.062   2.353 -0.0023  0.7369  0.2659
  567SOL    HW1 1700   2.301   3.095   2.374 -0.1800  0.7593 -0.7534
  567SOL    HW2 1701   2.412   3.022   2.255  0.4703  2.4653  0.7670
  568SOL     OW 1702   1.534   1.784   0.239  0.0532  0.8449  0.2082
  568SOL    HW1 1703   1.461   1.858   0.222  1.1651  1.9900  1.9788
  568SOL    HW2 1704   1.629   1.825   0.237  1.6683 -1.3593  1.8663
  569SOL     OW 1705   0.266   0.646   0.780  0.2965  0.2676  0.4001
  569SOL    HW1 1706   0.330   0.567   0.742  3.0604 -2.1667 -2.6175
  569SOL    HW2 1707   0.166   0.620   0.785 -1.2913  3.0057 -1.6057
  570SOL     OW 1708   0.644   0.837   2.927  0.0121  0.7898  0.0567
  570SOL    HW1 1709   0.700   0.859   2.839  0.5418 -0.3602 -0.2093
  570SOL    HW2 1710   0.652   0.912   2.996  1.8624 -0.9447  0.0076
  571SOL     OW 1711   0.779   3.078   1.078  0.6552  0.2522  0.5593
  571SOL    HW1 1712   0.843   3.115   1.008 -2.3267 -0.3740 -0.0225
  571SOL    HW2 1713   0.801   2.980   1.088  1.2548  1.6743 -1.8438
  572SOL     OW 1714   1.638   2.666   1.351  0.0202 -0.3374  0.6538
  572SOL    HW1 1715   1.577   2.640   1.275  2.8270 -2.4305  0.3609
  572SOL    HW2 1716   1.669   2.768   1.340  0.3451  2.4920  0.2803
  573SOL     OW 1717   2.945   0.484   2.030  0.6727  0.0870 -0.4727
  573SOL    HW1 1718   2.857   0.439   2.047  0.8743  0.0830 -0.3404
  573SOL    HW2 1719   2.989   0.456   1.935 -0.1910 -0.0913  1.5826
  574SOL     OW 1720   0.153   1.754   1.115  0.3152  0.2503 -0.1331
  574SOL    HW1 1721   0.192   1.751   1.208 -0.0979 -0.5634 -1.2745
  574SOL    HW2 1722   0.066   1.805   1.107  1.5755 -1.0377 -0.4686
  575SOL     OW 1723   0.825   2.195   0.954  0.7694 -0.3814  0.6220
  575SOL    HW1 1724   0.781   2.231   1.043  0.3452  0.4742 -1.9095
  575SOL    HW2 1725   0.857   2.275   0.900  1.6487  0.2615  1.6980
  576SOL     OW 1726   2.860   2.982   1.663  0.0086  0.0664  0.0842
  576SOL    HW1 1727   2.764   2.965   1.686  1.8939 -0.1490  0.3667
  576SOL    HW2 1728   2.883   3.080   1.646 -3.5322 -0.9405 -0.3102
  577SOL     OW 1729   2.591   1.175   3.098  0.8759  0.6944 -0.0101
  577SOL    HW1 1730   2.638   1.112   3.035  2.4371 -0.8182  3.1568
  577SOL    HW2 1731   2.637   1.177   3.189  0.8370 -0.9737 -1.2454
  578SOL     OW 1732   1.407   2.767   2.467 -0.0049  0.1612  0.2403
  578SOL    HW1 1733   1.311   2.792   2.431 -1.5054 -0.0398 -0.6048
  578SOL    HW2 1734   1.465   2.850   2.476 -1.8282  0.7384  2.0438
  579SOL     OW 1735   0.030   2.468   0.202 -0.3595  0.0398 -0.1620
  579SOL    HW1 1736  -0.051   2.456   0.269 -1.2437 -0.9083 -0.9968
  579SOL    HW2 1737   0.121   2.439   0.246 -2.0735 -2.9444 -0.3178
  580SOL     OW 1738   0.962   2.649   0.362  0.0287 -0.4515  0.4462
  580SOL    HW1 1739   1.039   2.703   0.310  2.5837  0.9403 -0.5303
  580SOL    HW2 1740   0.903   2.596   0.298 -0.7469 -1.3426  2.7613
  581SOL     OW 1741   1.223   2.653   1.452 -0.0666 -0.5045 -0.6591
  581SOL    HW1 1742   1.288   2.580   1.490  0.5451 -0.5532 -0.2309
  581SOL    HW2 1743   1.284   2.734   1.417  1.1540  0.3868  0.8572
  582SOL     OW 1744   1.487   0.113   1.881  0.2520  0.0029 -0.0187
  582SOL    HW1 1745   1.546   0.188   1.926  0.4674  0.6972 -1.9935
  582SOL    HW2 1746   1.542   0.085   1.795 -1.1632 -0.4425  0.8368
  583SOL     OW 1747   2.420   3.078   0.532  0.3890 -0.2599  0.1871
  583SOL    HW1 1748   2.511   3.029   0.529 -0.4978  2.2019  0.3344
  583SOL    HW2 1749   2.340   3.012   0.537 -1.8489  2.5755  0.9558
  584SOL     OW 1750   1.541   1.100   2.269  0.4096  0.0606  0.0178
  584SOL    HW1 1751   1.592   1.173   2.222 -1.9509  1.3714  0.2835
  584SOL    HW2 1752   1.597   1.015   2.292  0.5063 -2.5241  2.2694
  585SOL     OW 1753   2.111   2.662   2.885 -0.2168 -0.0689 -0.2217
  585SOL    HW1 1754   2.131   2.558   2.871  0.0828 -3.7374 -0.6912
  585SOL    HW2 1755   2.011   2.681   2.872  0.6980 -0.4446  0.4327
  586SOL     OW 1756   2.867   0.356   1.568  0.7977  0.6919 -0.1146
  586SOL    HW1 1757   2.858   0.448   1.611 -1.3166 -2.8540 -2.9349
  586SOL    HW2 1758   2.774   0.327   1.530 -1.0547  1.7956 -1.1167
  587SOL     OW 1759   2.065   1.496   2.639 -0.1814  0.0379 -0.0645
  587SOL    HW1 1760   2.102   1.418   2.579 -0.8709 -1.4772  1.0437
  587SOL    HW2 1761   2.113   1.509   2.731 -1.2822 -0.8477  1.8076
  588SOL     OW 1762   0.483   2.705   2.256  0.5551  0.5717  0.0268
  588SOL    HW1 1763   0.415   2.694   2.181  0.4179  1.5833  2.9993
  588SOL    HW2 1764   0.489   2.612   2.310 -0.3160 -2.0803 -0.4276
  589SOL     OW 1765   2.190   1.300   2.475  0.4440 -0.4403  0.0841
  589SOL    HW1 1766   2.164   1.247   2.391 -1.9915 -0.5748 -0.1151
  589SOL    HW2 1767   2.288   1.294   2.502 -0.7850  0.3172 -1.9524
  590SOL     OW 1768   2.307   1.756   2.032  0.4995 -0.2086  0.2204
  590SOL    HW1 1769   2.379   1.680   2.015  2.6954 -2.1627 -2.1720
  590SOL    HW2 1770   2.307   1.788   2.131 -2.1539  3.0783  2.0062
  591SOL     OW 1771   1.252   2.430   0.231 -0.5443  0.3705 -0.3535
  591SOL    HW1 1772   1.285   2.350   0.163  0.3155  0.5850  0.3862
  591SOL    HW2 1773   1.270   2.409   0.328 -0.1541 -0.1123 -1.4473
  592SOL     OW 1774   1.773   2.341   0.746  0.3716  0.2850 -0.3733
  592SOL    HW1 1775   1.775   2.395   0.660  0.7984  0.8394  0.7163
  592SOL    HW2 1776   1.859   2.279   0.757  1.0651 -1.3482 -0.0710
  593SOL     OW 1777   0.702   0.288   0.224  0.1740 -0.3304 -0.1345
  593SOL    HW1 1778   0.761   0.243   0.155  1.9941 -1.0190  2.1972
  593SOL    HW2 1779   0.677   0.388   0.209 -2.2495  1.2636 -0.1159
  594SOL     OW 1780   1.044   1.819   2.696  0.3004  0.4231  0.1527
  594SOL    HW1 1781   1.120   1.773   2.645  1.8498  0.9408 -0.4465
  594SOL    HW2 1782   1.063   1.862   2.789  2.5646  0.9816 -1.2824
  595SOL     OW 1783   1.565   0.071   1.004  0.5617 -0.3062 -0.5400
  595SOL    HW1 1784   1.631  -0.006   0.980 -0.0101 -0.3460  0.3514
  595SOL    HW2 1785   1.468   0.039   0.975  2.3650 -1.4097 -1.3074
  596SOL     OW 1786   0.035   1.559   2.292 -0.2750 -0.3709  0.2316
  596SOL    HW1 1787   0.070   1.462   2.279  0.8635  0.0693  2.4277
  596SOL    HW2 1788   0.015   1.593   2.384 -0.2714  1.1100 -1.4496
  597SOL     OW 1789   1.918   2.662   1.800 -0.0541  0.6359 -0.0419
  597SOL    HW1 1790   1.873   2.630   1.709 -3.1443  0.9457 -0.1662
  597SOL    HW2 1791   2.023   2.653   1.802  1.3005 -2.8356  0.6164
  598SOL     OW 1792   2.535   2.905   1.234  0.0205 -0.1942 -0.1344
  598SOL    HW1 1793   2.606   2.920   1.305  0.2812 -0.1682 -2.4619
  598SOL    HW2 1794   2.580   2.897   1.141  0.4755  1.1844 -1.3178
  599SOL     OW 1795   2.888   0.295   2.471 -0.2562  0.1855  0.0366
  599SOL    HW1 1796   2.980   0.326   2.427  0.7265  2.2485 -0.2591
  599SOL    HW2 1797   2.804   0.358   2.451 -2.9591 -0.8045 -1.7149
  600SOL     OW 1798   2.815   1.140   2.717  0.4459  0.6668 -0.2489
  600SOL    HW1 1799   2.791   1.059   2.776  2.1533  0.7589  3.8274
  600SOL    HW2 1800   2.819   1.227   2.774 -0.9613  0.3888 -0.7990
  601SOL     OW 1801   3.084   1.341   2.009  0.4948  0.1574  0.0462
  601SOL    HW1 1802   2.997   1.371   1.966  0.4396 -1.5223 -0.7791
  601SOL    HW2 1803   3.152   1.424   2.021 -0.7134  1.2384  2.1932
  602SOL     OW 1804   1.446   1.670   2.318 -0.0418 -0.7737 -0.3367
  602SOL    HW1 1805   1.361   1.640   2.366  0.4136 -1.8495  0.2873
  602SOL    HW2 1806   1.531   1.644   2.367 -2.4703  0.3188  0.2405
  603SOL     OW 1807   0.682   1.169   2.774  0.3311  0.1180 -0.2673
  603SOL    HW1 1808   0.582   1.159   2.747  1.1454  0.0837 -2.5109
  603SOL    HW2 1809   0.734   1.093   2.722  1.6579 -1.6065  0.4134
  604SOL     OW 1810   2.435   0.999   0.168 -0.0240  0.0633 -0.0796
  604SOL    HW1 1811   2.489   1.072   0.113 -0.0794 -1.2967 -3.8852
  604SOL    HW2 1812   2.455   0.903   0.133  0.5634 -0.0123  0.8121
  605SOL     OW 1813   2.504   1.180   1.979 -0.1218  0.4817  0.3931
  605SOL    HW1 1814   2.572   1.122   1.927  0.7975  0.0043  2.3327
  605SOL    HW2 1815   2.551   1.245   2.039 -1.1302 -1.4150  2.2408
  606SOL     OW 1816   1.525   2.525   2.558 -0.6954  1.0035 -0.4968
  606SOL    HW1 1817   1.476   2.606   2.515 -2.3213 -2.4944  1.0432
  606SOL    HW2 1818   1.459   2.452   2.587  0.0849  0.9186  0.2110
  607SOL     OW 1819   1.355   1.588   0.313  0.3205 -0.5712  0.0256
  607SOL    HW1 1820   1.272   1.647   0.332 -1.1561 -0.3520 -0.4977
  607SOL    HW2 1821   1.441   1.651   0.284  0.6181  1.3438  0.5733
  608SOL     OW 1822   1.456   2.814   0.390 -0.4251  0.4198  0.2034
  608SOL    HW1 1823   1.515   2.851   0.310 -0.5295 -0.5608 -0.2964
  608SOL    HW2 1824   1.373   2.874   0.410  0.6111 -0.1613  2.9778
  609SOL     OW 1825   1.282   1.337   0.222  0.2722  0.6014 -0.5055
  609SOL    HW1 1826   1.310   1.433   0.256  3.1253 -1.4432 -1.7995
  609SOL    HW2 1827   1.262   1.338   0.118 -0.9158 -0.6165 -3.7730
  610SOL     OW 1828   2.978   1.151   2.221  0.5371  0.5752  0.3268
  610SOL    HW1 1829   2.980   1.050   2.192 -0.5179 -0.2225 -0.6211
  610SOL    HW2 1830   3.001   1.218   2.145  1.9066  0.8429  1.9488
  611SOL     OW 1831   2.534   0.263   1.182  0.3022 -0.0336  0.2907
  611SOL    HW1 1832   2.485   0.174   1.200 -0.2780  1.0615  3.3788
  611SOL    HW2 1833   2.633   0.256   1.201 -0.1536 -2.7461 -3.8879
  612SOL     OW 1834   0.717   2.296   1.175  0.6351  0.1628 -0.0892
  612SOL    HW1 1835   0.648   2.236   1.223 -1.1930 -1.3597  1.9936
  612SOL    HW2 1836   0.687   2.392   1.187  0.2835 -1.6494 -0.4867
  613SOL     OW 1837   0.848   1.380   2.386  0.8293 -0.2810  0.6121
  613SOL    HW1 1838   0.844   1.439   2.298 -0.7139 -0.0377 -1.8328
  613SOL    HW2 1839   0.836   1.277   2.362  1.9800 -1.4233 -0.9419
  614SOL     OW 1840   1.572   1.680   1.869 -0.2987  0.1492 -0.7381
  614SOL    HW1 1841   1.532   1.777   1.855 -1.1627  0.1865  1.4438
  614SOL    HW2 1842   1.665   1.692   1.917  0.8109 -1.4724 -2.4933
  615SOL     OW 1843   0.769   1.366   1.743 -1.3064  0.1337 -0.1412
  615SOL    HW1 1844   0.718   1.308   1.678 -1.1931  2.4711  3.4096
  615SOL    HW2 1845   0.822   1.443   1.698  1.1038  0.1967  0.4224
  616SOL     OW 1846   1.119   1.576   2.176  0.2634 -0.2192 -0.1030
  616SOL    HW1 1847   1.018   1.563   2.174 -1.1599 -2.4257 -0.2905
  616SOL    HW2 1848   1.162   1.616   2.088  1.5799  0.4847 -1.3806
  617SOL     OW 1849   2.980   1.540   1.614  0.0619 -0.0499  0.0990
  617SOL    HW1 1850   2.957   1.476   1.695  0.1046  0.6225  2.1898
  617SOL    HW2 1851   2.969   1.505   1.519 -3.5140 -0.7032  1.6437
  618SOL     OW 1852   1.942   1.996   1.439  0.0424 -1.1707 -0.0636
  618SOL    HW1 1853   2.003   1.982   1.355 -1.6889 -0.0641 -0.4482
  618SOL    HW2 1854   1.892   1.908   1.464  0.2930  0.1358 -0.8921
  619SOL     OW 1855   1.708   0.460   2.393 -0.1651 -0.1525 -0.6706
  619SOL    HW1 1856   1.625   0.505   2.358 -0.5841 -2.9256  0.5022
  619SOL    HW2 1857   1.697   0.357   2.402 -2.7079 -1.0266  0.5596
  620SOL     OW 1858   2.202   2.929   0.599 -0.5049 -0.1062 -0.3724
  620SOL    HW1 1859   2.123   2.987   0.635  2.3025 -0.0320  0.7189
  620SOL    HW2 1860   2.255   2.885   0.676 -0.0263 -1.0908  0.2333
  621SOL     OW 1861   2.168   1.857   1.296  0.4479  0.4781 -0.0997
  621SOL    HW1 1862   2.194   1.849   1.399  2.5742  0.4442  2.0765
  621SOL    HW2 1863   2.154   1.764   1.253 -0.1219 -0.0059 -1.4152
  622SOL     OW 1864   2.153   0.838   1.720  0.5772  0.0703 -0.1572
  622SOL    HW1 1865   2.241   0.802   1.683 -0.1242 -1.4032 -2.2685
  622SOL    HW2 1866   2.125   0.807   1.817  0.3900  0.9865  1.6887
  623SOL     OW 1867   1.368   0.756   2.617 -0.4070 -0.1210  0.4344
  623SOL    HW1 1868   1.296   0.700   2.669  0.5591  1.4153 -0.3187
  623SOL    HW2 1869   1.316   0.804   2.545 -0.1754 -2.6166  0.5992
  624SOL     OW 1870   0.499   0.701   0.019 -0.2265  0.5055 -0.7430
  624SOL    HW1 1871   0.549   0.729  -0.068 -0.6911  1.8789 -0.2808
  624SOL    HW2 1872   0.499   0.778   0.098 -1.0219  1.4830  2.2541
  625SOL     OW 1873   2.800   1.746   0.912 -0.0022  0.1117 -0.2970
  625SOL    HW1 1874   2.706   1.772   0.949  0.4967  0.1283  0.5678
  625SOL    HW2 1875   2.834   1.654   0.949  0.0322 -1.2169 -2.5568
  626SOL     OW 1876   0.531   2.726   1.841 -0.1317  0.3445  0.1322
  626SOL    HW1 1877   0.552   2.824   1.876  0.3305  1.2144 -0.4038
  626SOL    HW2 1878   0.430   2.702   1.837 -0.3285  0.3405  4.5025
  627SOL     OW 1879   0.706   0.986   1.526 -0.2335  0.4094 -0.5242
  627SOL    HW1 1880   0.752   0.900   1.561  0.5888 -0.3280  0.2574
  627SOL    HW2 1881   0.763   1.040   1.455 -2.2069 -1.1559 -1.6266
  628SOL     OW 1882   2.408   0.187   0.686  0.4406  0.2045 -0.1149
  628SOL    HW1 1883   2.419   0.105   0.625 -1.0932 -0.9327  2.8825
  628SOL    HW2 1884   2.309   0.188   0.730 -2.3069  0.2621 -0.3172
  629SOL     OW 1885   1.971   0.910   1.983 -0.0179 -0.1638  0.2106
  629SOL    HW1 1886   2.072   0.902   2.009  1.9139 -3.3065  0.4653
  629SOL    HW2 1887   1.924   1.000   1.999  0.7376  0.8879 -2.4178
  630SOL     OW 1888   2.792   2.181   0.779  0.3674 -0.5319  0.3644
  630SOL    HW1 1889   2.717   2.239   0.818 -0.7180 -0.1671 -2.8510
  630SOL    HW2 1890   2.759   2.090   0.733 -3.3573 -1.4326 -2.8816
  631SOL     OW 1891   2.978   0.127   2.112  0.2826  0.3324  0.0082
  631SOL    HW1 1892   2.995   0.159   2.205  0.7835 -1.0828 -1.6194
  631SOL    HW2 1893   3.060   0.155   2.054  0.6734  2.5107  1.2259
  632SOL     OW 1894   2.391   2.536   0.642 -0.1687  0.4316 -0.5227
  632SOL    HW1 1895   2.448   2.618   0.678  3.8116 -1.3040  0.8658
  632SOL    HW2 1896   2.343   2.542   0.551  1.1057  1.1258 -1.2058
  633SOL     OW 1897   1.581   1.280   2.538 -0.1453 -0.2102  0.0240
  633SOL    HW1 1898   1.566   1.346   2.618  1.8509 -1.4543  0.3820
  633SOL    HW2 1899   1.499   1.266   2.473  0.1816  0.8744  0.0328
  634SOL     OW 1900   0.637   1.986   0.931 -0.3120 -0.2454  1.1244
  634SOL    HW1 1901   0.546   2.021   0.976 -1.1843 -1.2170  0.2094
  634SOL    HW2 1902   0.716   2.050   0.948 -0.4227 -1.6615  2.0782
  635SOL     OW 1903   0.016   2.316   3.057  0.0485  0.0262  0.1368
  635SOL    HW1 1904  -0.008   2.364   2.968  1.2052 -0.6725 -0.0043
  635SOL    HW2 1905   0.011   2.375   3.139 -1.0985 -2.4690 -0.1273
  636SOL     OW 1906   2.298   2.786   2.042 -0.1950  0.4818 -0.0197
  636SOL    HW1 1907   2.266   2.883   2.026  1.4989 -3.0929  0.9504
  636SOL    HW2 1908   2.238   2.736   2.109 -2.4757 -1.2751 -3.4913
  637SOL     OW 1909   2.567   0.677   2.048 -0.4552  0.2814 -0.2722
  637SOL    HW1 1910   2.511   0.652   1.966  2.2016  2.1281  0.1424
  637SOL    HW2 1911   2.606   0.772   2.043 -2.7752  0.4409  1.0874
  638SOL     OW 1912   2.471   1.852   1.297  0.3924  0.2916  0.2683
  638SOL    HW1 1913   2.371   1.837   1.268 -0.4129 -0.6222  0.9395
  638SOL    HW2 1914   2.515   1.775   1.352  2.7335 -2.4673  1.0406
  639SOL     OW 1915   1.262   2.220   1.650 -0.1131  0.1540 -0.3480
  639SOL    HW1 1916   1.285   2.176   1.557 -2.0236 -0.2551 -2.1119
  639SOL    HW2 1917   1.167   2.188   1.687 -3.7223  0.1690  0.1808
  640SOL     OW 1918   0.200   1.193   1.555 -0.4514 -0.0040  0.0035
  640SOL    HW1 1919   0.198   1.262   1.633 -0.3041 -0.2495 -1.3530
  640SOL    HW2 1920   0.285   1.134   1.561  0.1955 -0.7270 -2.2949
  641SOL     OW 1921   2.021   0.076   1.529 -0.1107  0.1169 -0.3668
  641SOL    HW1 1922   2.008   0.130   1.620 -3.0499  2.9580  0.4237
  641SOL    HW2 1923   2.087  -0.003   1.543 -3.1284 -1.2296  2.2686
  642SOL     OW 1924   1.937   0.115   0.305 -0.3167  0.4002  0.5063
  642SOL    HW1 1925   2.032   0.099   0.348  1.9670 -1.9261 -0.7266
  642SOL    HW2 1926   1.869   0.151   0.372  0.1948  1.3364  1.9744
  643SOL     OW 1927   2.863   1.910   2.065  0.2736  0.0903 -0.1689
  643SOL    HW1 1928   2.826   1.829   2.017  0.6341  1.5620 -1.0658
  643SOL    HW2 1929   2.849   1.997   2.013 -1.5180  1.2589 -1.2511
  644SOL     OW 1930   2.181   2.325   1.192  0.1030 -0.3295  0.2428
  644SOL    HW1 1931   2.266   2.273   1.158 -1.2836  1.2509 -3.6908
  644SOL    HW2 1932   2.167   2.319   1.297 -2.4877  0.7032 -1.4948
  645SOL     OW 1933   0.605   0.808   1.166 -0.0601 -0.7026 -0.2529
  645SOL    HW1 1934   0.533   0.751   1.118 -0.5920 -0.1064 -3.8644
  645SOL    HW2 1935   0.651   0.870   1.099 -0.5466  0.6204 -0.5138
  646SOL     OW 1936   1.494   1.934   1.833  1.1161 -0.1099 -0.5780
  646SOL    HW1 1937   1.588   1.986   1.827  0.4996  0.9953  0.4100
  646SOL    HW2 1938   1.434   1.967   1.910 -0.1393  0.6531 -0.2663
  647SOL     OW 1939   0.854   0.977   0.681 -0.2227 -0.6407  0.0650
  647SOL    HW1 1940   0.905   0.993   0.771 -1.9784 -1.8831  2.4478
  647SOL    HW2 1941   0.756   0.939   0.691  1.5660 -0.5211 -0.3024
  648SOL     OW 1942   0.100   0.160   0.279  1.0120  0.3100  0.4079
  648SOL    HW1 1943   0.152   0.107   0.200  1.9008  0.3830  1.9357
  648SOL    HW2 1944   0.116   0.260   0.264  1.0307 -2.7026  1.0584
  649SOL     OW 1945   3.064   0.159   0.921  0.1024  0.0251  0.1584
  649SOL    HW1 1946   3.149   0.167   0.860  1.0895 -2.0792  0.1709
  649SOL    HW2 1947   3.077   0.211   1.010 -0.6643  0.5636  0.0188
  650SOL     OW 1948   2.714   0.721   1.396 -0.3637  0.0443 -0.2436
  650SOL    HW1 1949   2.624   0.692   1.427  2.3086 -2.4159 -0.7366
  650SOL    HW2 1950   2.721   0.807   1.335 -0.7517 -0.8319 -0.2836
  651SOL     OW 1951   0.907   1.582   1.643  0.0643  0.6759 -0.2565
  651SOL    HW1 1952   0.987   1.626   1.691 -1.5290 -0.5479 -0.2340
  651SOL    HW2 1953   0.914   1.596   1.536 -2.8867  1.9225 -0.9674
  652SOL     OW 1954   2.254   2.495   2.460 -0.4091 -0.8208 -0.4413
  652SOL    HW1 1955   2.179   2.465   2.524  2.5011 -1.4203 -0.5807
  652SOL    HW2 1956   2.235   2.585   2.413 -0.3329  2.5338 -0.9758
  653SOL     OW 1957   2.732   1.170   0.241  0.2161 -0.1128  0.2317
  653SOL    HW1 1958   2.764   1.262   0.281 -2.3428  1.4418 -0.6383
  653SOL    HW2 1959   2.789   1.086   0.266 -1.3866  0.6918  0.7457
  654SOL     OW 1960   1.251   2.275   1.234  0.3039  0.2029  0.4212
  654SOL    HW1 1961   1.299   2.212   1.303  0.8204  1.4544  0.6100
  654SOL    HW2 1962   1.299   2.263   1.144 -1.0687 -0.8380  2.2227
  655SOL     OW 1963   0.222   1.018   1.845  0.4625  0.5450 -0.1125
  655SOL    HW1 1964   0.259   0.937   1.798 -3.4682  0.2485  0.0172
  655SOL    HW2 1965   0.293   1.092   1.866 -1.6746 -1.1012  3.3065
  656SOL     OW 1966   2.530   2.470   2.587  0.5933 -0.1278 -0.3780
  656SOL    HW1 1967   2.614   2.451   2.530 -0.3543 -0.0426 -0.7557
  656SOL    HW2 1968   2.469   2.534   2.538 -3.2324  0.1945 -1.4574
  657SOL     OW 1969   3.061   1.077   1.891 -0.4984  0.1261  0.2605
  657SOL    HW1 1970   3.061   1.176   1.921  0.1331 -0.4180  2.0348
  657SOL    HW2 1971   3.152   1.056   1.851 -1.0892  1.0856 -0.7658
  658SOL     OW 1972   1.641   0.193   2.389 -0.4715 -0.3500 -0.7235
  658SOL    HW1 1973   1.666   0.141   2.476  2.5093  0.4759 -0.9734
  658SOL    HW2 1974   1.698   0.181   2.301 -2.1822  1.2984  0.4724
  659SOL     OW 1975   1.399   0.627   2.901 -0.4411  0.1020 -0.2068
  659SOL    HW1 1976   1.435   0.724   2.909 -0.1233 -0.7323  0.9661
  659SOL    HW2 1977   1.317   0.630   2.835  0.7365 -1.6288 -2.7117
  660SOL     OW 1978   1.458   0.353   1.427  0.5489 -0.3324 -0.9990
  660SOL    HW1 1979   1.505   0.339   1.522  0.6582  1.2038  2.8474
  660SOL    HW2 1980   1.519   0.320   1.352 -0.7139  0.8571 -0.0611
  661SOL     OW 1981   2.524   1.168   0.640  0.4575  0.4374  0.2725
  661SOL    HW1 1982   2.509   1.153   0.541 -0.6136 -0.8561  1.8232
  661SOL    HW2 1983   2.462   1.241   0.677  0.4653 -2.9437 -0.2715
  662SOL     OW 1984   1.330   0.426   1.832 -0.2499 -0.4197 -0.0651
  662SOL    HW1 1985   1.275   0.351   1.791  0.3674 -0.7580  0.3158
  662SOL    HW2 1986   1.296   0.465   1.921 -0.5319 -1.4410 -0.5801
  663SOL     OW 1987   0.835   1.558   2.189 -0.1400 -0.0824 -0.3720
  663SOL    HW1 1988   0.811   1.649   2.233 -2.4107  0.4806 -0.2415
  663SOL    HW2 1989   0.787   1.547   2.098  0.8070  0.4769  4.0838
  664SOL     OW 1990   1.662   2.054   1.416  0.1280 -0.7855 -0.5055
  664SOL    HW1 1991   1.613   1.965   1.431  0.4319 -0.3149 -0.1955
  664SOL    HW2 1992   1.763   2.044   1.436 -1.4020 -0.8734 -1.8734
  665SOL     OW 1993   2.190   0.692   2.023 -0.2903  0.1830 -0.4833
  665SOL    HW1 1994   2.191   0.596   2.068  0.8952 -1.1043 -0.1886
  665SOL    HW2 1995   2.185   0.769   2.097 -1.8852  0.9915  0.9725
  666SOL     OW 1996   0.446   2.358   0.473  0.5047 -0.7014  0.1636
  666SOL    HW1 1997   0.537   2.413   0.495 -0.2984  1.8017  1.0701
  666SOL    HW2 1998   0.430   2.288   0.546 -1.6785 -0.9948  1.3212
  667SOL     OW 1999   1.950   0.197   1.033 -0.1943  0.0644 -0.4450
  667SOL    HW1 2000   2.022   0.272   1.049 -0.4536  0.1292 -0.7729
  667SOL    HW2 2001   1.905   0.181   1.123  1.1170  1.5693 -0.1204
  668SOL     OW 2002   1.988   0.544   1.179  0.5767  0.1445  0.3972
  668SOL    HW1 2003   2.048   0.520   1.094 -0.9047  1.8109  0.6509
  668SOL    HW2 2004   2.034   0.512   1.268  0.1976 -1.1595  2.5591
  669SOL     OW 2005   3.023   2.205   0.949  0.5114 -1.1763 -1.0907
  669SOL    HW1 2006   2.958   2.169   0.876 -3.7531  0.8215  1.0470
  669SOL    HW2 2007   2.974   2.251   1.031  0.2544 -2.7718 -0.5004
  670SOL     OW 2008   2.865   2.333   2.024 -0.4672 -0.1571  0.0733
  670SOL    HW1 2009   2.785   2.312   2.084  0.0318 -0.0748 -0.3362
  670SOL    HW2 2010   2.867   2.434   1.994 -0.7694 -0.7703  1.7289
  671SOL     OW 2011   1.756   1.749   1.428 -0.4393 -0.3650  0.2197
  671SOL    HW1 2012   1.764   1.771   1.327 -1.3185 -0.3761  0.8904
  671SOL    HW2 2013   1.668   1.710   1.452  0.5826 -0.0336 -2.2158
  672SOL     OW 2014   0.450   0.584   2.416  0.1373  0.7831  0.6233
  672SOL    HW1 2015   0.470   0.640   2.332 -1.9389  0.7404  2.6472
  672SOL    HW2 2016   0.371   0.626   2.472  1.7674 -0.4475  0.9457
  673SOL     OW 2017   0.139   1.178   1.139  0.2518  0.1356 -0.1765
  673SOL    HW1 2018   0.140   1.227   1.231  0.4665 -1.7228  0.5445
  673SOL    HW2 2019   0.233   1.150   1.108 -1.0022  2.3965 -0.8540
  674SOL     OW 2020   1.559   2.893   0.147 -0.4262  0.0222 -0.1688
  674SOL    HW1 2021   1.605   2.979   0.121  1.5619  1.5637 -2.2060
  674SOL    HW2 2022   1.610   2.810   0.108  0.5739 -0.4788 -0.2609
  675SOL     OW 2023   1.651   0.843   2.302  0.4236  0.2063 -0.4665
  675SOL    HW1 2024   1.734   0.826   2.237 -0.9951 -3.8722  1.2839
  675SOL    HW2 2025   1.592   0.755   2.294  2.1509  1.0995 -1.7355
  676SOL     OW 2026   2.488   1.559   2.012  0.1773  0.0994 -0.4990
  676SOL    HW1 2027   2.458   1.515   1.921 -1.3881  0.0150 -0.3931
  676SOL    HW2 2028   2.541   1.485   2.074  2.0547 -2.0852  0.0402
  677SOL     OW 2029   1.838   0.617   0.910 -0.4347 -0.1196  0.7274
  677SOL    HW1 2030   1.883   0.670   0.986 -1.1383  1.4025  1.6348
  677SOL    HW2 2031   1.853   0.514   0.906 -3.5671 -1.1189  0.0757
  678SOL     OW 2032   0.022   0.741   1.666  0.2834  0.2571 -0.1518
  678SOL    HW1 2033   0.125   0.754   1.685  2.3423  0.7355  1.1183
  678SOL    HW2 2034  -0.035   0.775   1.751 -0.9792  2.6874  0.2422
  679SOL     OW 2035   2.548   1.151   1.096  0.1539 -0.2976  0.1889
  679SOL    HW1 2036   2.473   1.193   1.154 -3.1402 -0.6040 -0.2069
  679SOL    HW2 2037   2.520   1.064   1.049 -0.8121 -0.2545  0.0243
  680SOL     OW 2038   2.823   0.643   1.643 -0.3741  0.1060 -0.1466
  680SOL    HW1 2039   2.808   0.674   1.544  2.3019  1.1104 -0.3639
  680SOL    HW2 2040   2.862   0.721   1.700 -1.8589  2.1416 -1.1422
  681SOL     OW 2041   2.987   0.118   1.612  0.1380 -0.2321 -0.0956
  681SOL    HW1 2042   3.054   0.081   1.539 -2.2093 -0.9833 -1.9419
  681SOL    HW2 2043   2.955   0.213   1.593  0.1103  0.2356 -1.9047
  682SOL     OW 2044   0.794   0.057   1.384  0.1994 -0.1354  0.5959
  682SOL    HW1 2045   0.736  -0.015   1.432 -1.8476  2.3154 -1.5655
  682SOL    HW2 2046   0.823   0.025   1.293  2.4306  0.7364  1.8884
  683SOL     OW 2047   1.362   0.280   2.183 -0.1174  0.2159  0.5092
  683SOL    HW1 2048   1.340   0.353   2.254  0.0986 -0.8335  3.3154
  683SOL    HW2 2049   1.459   0.282   2.146 -0.4986 -4.3816  1.7788
  684SOL     OW 2050   1.423   2.143   0.507 -0.0884 -0.5800 -0.6693
  684SOL    HW1 2051   1.486   2.079   0.558  0.2877  1.1895 -2.3154
  684SOL    HW2 2052   1.336   2.093   0.480 -0.2118  0.6053  2.3490
  685SOL     OW 2053   2.184   2.008   1.925  0.1283  0.0973  0.3380
  685SOL    HW1 2054   2.246   2.060   1.860 -2.2381 -1.7466  0.2511
  685SOL    HW2 2055   2.218   1.917   1.966 -1.1447 -1.7492  2.6542
  686SOL     OW 2056   1.527   1.744   2.658  0.4225  0.0389 -0.3361
  686SOL    HW1 2057   1.552   1.658   2.703 -0.7279  1.2623 -2.4966
  686SOL    HW2 2058   1.596   1.774   2.588 -0.4590 -3.7635  1.6041
  687SOL     OW 2059   1.301   2.526   1.897  0.0678  0.0114 -0.3329
  687SOL    HW1 2060   1.341   2.437   1.854  1.3094 -1.9942  0.6297
  687SOL    HW2 2061   1.360   2.552   1.975  0.0534  1.5707 -0.0048
  688SOL     OW 2062   2.079   1.456   1.683 -0.2488 -0.7786  0.3184
  688SOL    HW1 2063   2.168   1.488   1.636  1.4870  1.0378 -0.7686
  688SOL    HW2 2064   2.016   1.423   1.609  0.9948 -2.1351 -0.8173
  689SOL     OW 2065   2.457   1.095   2.758  0.1091  0.4392  0.3091
  689SOL    HW1 2066   2.356   1.101   2.791 -1.1051 -2.6065  2.0916
  689SOL    HW2 2067   2.513   1.047   2.830 -2.6058  3.3937 -0.7550
  690SOL     OW 2068   2.205   2.758   0.096 -0.1291  0.2608 -0.5141
  690SOL    HW1 2069   2.141   2.735   0.020  2.1041 -1.0037  1.8156
  690SOL    HW2 2070   2.150   2.797   0.176  1.6335 -1.1617 -0.0535
  691SOL     OW 2071   2.592   0.415   2.123  0.7668 -0.2255  0.8803
  691SOL    HW1 2072   2.660   0.356   2.071 -2.6918 -1.2020 -1.5510
  691SOL    HW2 2073   2.585   0.513   2.085  0.3606  0.1648 -1.4171
  692SOL     OW 2074   2.794   1.209   0.719  0.1821 -0.1122 -0.3360
  692SOL    HW1 2075   2.694   1.201   0.682 -0.5853  0.2203  0.4442
  692SOL    HW2 2076   2.808   1.302   0.763  1.1537 -0.9296  1.4836
  693SOL     OW 2077   2.868   2.997   0.675  0.5005  0.4391 -0.0104
  693SOL    HW1 2078   2.862   3.095   0.717  0.1497  1.7630  1.0103
  693SOL    HW2 2079   2.795   2.987   0.598 -0.1397  0.5025 -0.4997
  694SOL     OW 2080   2.438   2.235   0.054 -0.4483  0.0729 -0.1530
  694SOL    HW1 2081   2.411   2.324   0.096 -0.6292  2.8571 -2.8277
  694SOL    HW2 2082   2.351   2.174   0.038 -3.7723 -1.5135 -1.8503
  695SOL     OW 2083   0.607   2.982   1.480 -0.4544  0.5168  0.4969
  695SOL    HW1 2084   0.579   2.892   1.439 -0.7644  3.0517 -0.2187
  695SOL    HW2 2085   0.546   2.998   1.563 -0.2356 -0.7800 -1.7667
  696SOL     OW 2086   2.673   1.925   0.711  0.0636 -0.0840 -0.1919
  696SOL    HW1 2087   2.726   1.866   0.774 -0.2244  2.4975 -0.3415
  696SOL    HW2 2088   2.668   1.878   0.618 -0.1118 -2.6313 -0.7930
  697SOL     OW 2089   1.743   2.057   1.833  0.6257 -0.3394 -0.3264
  697SOL    HW1 2090   1.820   1.984   1.848 -0.9075 -0.2027 -1.7028
  697SOL    HW2 2091   1.775   2.154   1.807  0.7339 -0.1777 -3.2749
  698SOL     OW 2092   2.886   0.371   2.733  0.2028 -0.0868  0.1373
  698SOL    HW1 2093   2.894   0.332   2.632  0.7190 -0.7380 -0.2920
  698SOL    HW2 2094   2.950   0.327   2.799 -0.1147  3.5502 -1.3173
  699SOL     OW 2095   1.504   0.055   2.929  0.3372  0.3133  0.1798
  699SOL    HW1 2096   1.470  -0.038   2.895 -1.0736 -0.1906  0.4527
  699SOL    HW2 2097   1.566   0.114   2.868 -2.1200  1.1263 -0.3113
  700SOL     OW 2098   0.983   2.310   1.310 -0.4605  0.0584 -0.1736
  700SOL    HW1 2099   1.075   2.282   1.273 -0.8883  0.5994  0.6472
  700SOL    HW2 2100   0.902   2.310   1.243  1.8109  1.4048  0.8819
  701SOL     OW 2101   1.911   2.818  -0.001 -0.1188 -0.0111  0.2149
  701SOL    HW1 2102   1.892   2.751   0.081 -0.4406 -0.6439 -0.7157
  701SOL    HW2 2103   1.929   2.918   0.024 -2.4230  0.9354  3.0130
  702SOL     OW 2104   2.084   1.322   1.920  0.0633  0.4974 -0.5288
  702SOL    HW1 2105   2.150   1.239   1.909  1.9922 -1.2128 -0.1233
  702SOL    HW2 2106   2.094   1.389   1.839  0.5514 -0.9629  0.2672
  703SOL     OW 2107   1.910   0.839   1.408 -0.1101 -0.3542  0.1247
  703SOL    HW1 2108   1.913   0.745   1.458 -0.0039 -0.7285 -0.4360
  703SOL    HW2 2109   1.966   0.912   1.462  0.5631  1.7543  1.3526
  704SOL     OW 2110   0.311   2.096   1.663 -0.4567  0.1721 -0.4607
  704SOL    HW1 2111   0.334   2.019   1.733  0.0993 -0.3527  1.4758
  704SOL    HW2 2112   0.357   2.181   1.694 -1.7613  1.3682  1.7116
  705SOL     OW 2113   2.538   1.390   0.949 -0.0039  0.3474 -0.3402
  705SOL    HW1 2114   2.469   1.386   0.871  1.7498  0.2550 -1.0726
  705SOL    HW2 2115   2.593   1.300   0.964 -1.4520  0.4768  2.5222
  706SOL     OW 2116   0.647   1.773   1.844 -0.2999  0.1356 -0.5465
  706SOL    HW1 2117   0.648   1.673   1.862 -2.9939 -0.5128  0.1967
  706SOL    HW2 2118   0.735   1.829   1.867  0.4835  1.4951  0.7264
  707SOL     OW 2119   2.249   1.115   1.872  0.5652 -0.0750 -0.4053
  707SOL    HW1 2120   2.346   1.135   1.913 -1.8441  2.1873  0.0467
  707SOL    HW2 2121   2.240   1.022   1.835 -0.1576  1.0598 -0.1918
  708SOL     OW 2122   3.004   0.487   3.064  0.8933 -0.6338  0.0775
  708SOL    HW1 2123   3.008   0.564   2.990 -1.0224 -0.2082 -1.2556
  708SOL    HW2 2124   2.973   0.393   3.040 -0.4167  0.9465  0.3537
  709SOL     OW 2125   1.816   1.857   0.263  0.0999 -1.1298  0.3095
  709SOL    HW1 2126   1.824   1.963   0.276 -1.7347  1.0169  0.3997
  709SOL    HW2 2127   1.825   1.834   0.164  0.7462  1.0325 -0.4434
  710SOL     OW 2128   1.695   1.587   2.412  0.2691 -0.4517 -0.0807
  710SOL    HW1 2129   1.750   1.595   2.318 -0.0627 -1.2412  0.0118
  710SOL    HW2 2130   1.725   1.508   2.477  0.4721  2.0977  1.0007
  711SOL     OW 2131   2.657   2.916   0.973 -0.3504 -0.0571  0.2698
  711SOL    HW1 2132   2.623   3.013   0.947 -0.9153  0.6482 -2.5412
  711SOL    HW2 2133   2.758   2.904   0.953 -0.8607 -4.9590 -3.0229
  712SOL     OW 2134   1.473   2.288   1.828  0.9707  0.8870 -0.6307
  712SOL    HW1 2135   1.525   2.207   1.858 -1.0920  0.2103 -2.8802
  712SOL    HW2 2136   1.405   2.262   1.753  0.7300  0.3511 -2.3160
  713SOL     OW 2137   2.787   1.515   2.491 -0.2376 -0.4793 -0.4589
  713SOL    HW1 2138   2.810   1.413   2.502  1.6766  1.3792  1.2685
  713SOL    HW2 2139   2.693   1.545   2.521  0.6948 -4.4186 -0.5779
  714SOL     OW 2140   2.660   0.450   2.384 -0.1701  0.2087 -0.3783
  714SOL    HW1 2141   2.571   0.457   2.436  1.0870  2.1852 -1.6229
  714SOL    HW2 2142   2.640   0.434   2.284 -1.3600  1.8996  1.9229
  715SOL     OW 2143   1.583   2.037   1.150 -0.5097  0.0034 -0.5171
  715SOL    HW1 2144   1.518   2.115   1.124  1.1057 -1.1620  0.6780
  715SOL    HW2 2145   1.621   2.056   1.249 -1.8248 -0.0653  1.3433
  716SOL     OW 2146   1.226   0.231   1.519 -0.2883  0.2003  0.0953
  716SOL    HW1 2147   1.134   0.252   1.476  0.8221 -0.0012  0.3444
  716SOL    HW2 2148   1.302   0.283   1.472 -1.0774  0.4121 -0.6759
  717SOL     OW 2149   1.094   0.618   1.617 -0.1622  0.0010 -0.2021
  717SOL    HW1 2150   1.197   0.621   1.631  0.8911  2.5672  4.7725
  717SOL    HW2 2151   1.063   0.616   1.517  0.8444 -0.7729 -2.7780
  718SOL     OW 2152   0.729   0.988   0.983 -0.4022 -0.2793  0.7849
  718SOL    HW1 2153   0.674   0.969   0.898  0.1967 -1.5939 -1.0085
  718SOL    HW2 2154   0.742   1.086   1.012  1.1280  0.4697  0.5387
  719SOL     OW 2155   0.746   1.829   2.290  0.0453 -0.0665 -0.2556
  719SOL    HW1 2156   0.818   1.868   2.359  3.4197  3.2325 -0.5285
  719SOL    HW2 2157   0.651   1.861   2.303 -0.7481  2.5961 -0.0847
  720SOL     OW 2158   2.194   1.105   0.252  0.3248 -0.2824  0.3112
  720SOL    HW1 2159   2.277   1.056   0.217  1.2338  0.6867  0.0031
  720SOL    HW2 2160   2.182   1.097   0.357 -1.9732 -0.8939  2.3700
  721SOL     OW 2161   2.298   3.075   2.091  0.1844  0.8963 -0.3163
  721SOL    HW1 2162   2.336   3.155   2.041 -1.1153 -0.8008 -0.2939
  721SOL    HW2 2163   2.205   3.097   2.130 -1.0749  0.7415 -0.0486
  722SOL     OW 2164   2.388   1.622   0.555  0.6013 -0.1555 -0.0428
  722SOL    HW1 2165   2.360   1.604   0.455  0.0423 -0.7812 -1.2402
  722SOL    HW2 2166   2.310   1.655   0.609  0.2654  0.2111 -0.0404
  723SOL     OW 2167   2.555   2.748   1.970 -0.0149  0.1721 -0.7187
  723SOL    HW1 2168   2.606   2.797   2.049  0.6849  1.6297  1.0946
  723SOL    HW2 2169   2.453   2.764   1.979  1.9890  1.4876  2.3504
  724SOL     OW 2170   0.525   2.480   2.411 -0.1994 -0.1641  0.6601
  724SOL    HW1 2171   0.430   2.469   2.439  2.1844  1.4278 -0.4625
  724SOL    HW2 2172   0.582   2.522   2.482 -1.1252 -2.7280  0.8702
  725SOL     OW 2173   2.481   2.766   1.558  0.1015  0.2607 -0.1087
  725SOL    HW1 2174   2.554   2.771   1.486 -0.6564  0.1592 -0.2125
  725SOL    HW2 2175   2.471   2.665   1.584 -0.8548 -2.2537 -0.7024
  726SOL     OW 2176   2.355   2.223   0.674 -0.2722 -0.0429  0.0660
  726SOL    HW1 2177   2.340   2.321   0.635 -1.9121  2.2593 -2.8255
  726SOL    HW2 2178   2.389   2.158   0.604 -0.1607  1.4062  2.8145
  727SOL     OW 2179   0.215   0.008   0.081  0.4783  0.0548  0.3264
  727SOL    HW1 2180   0.297  -0.048   0.061 -0.7417  2.5137  0.1294
  727SOL    HW2 2181   0.124  -0.042   0.067 -0.0905 -0.0297  1.1578
  728SOL     OW 2182   2.847   0.664   0.964 -0.2889 -0.0873  0.0288
  728SOL    HW1 2183   2.784   0.659   0.882  2.2499 -1.6094  0.9248
  728SOL    HW2 2184   2.826   0.612   1.054  0.1062  1.3535  0.7733
  729SOL     OW 2185   2.908   2.439   0.703 -0.3355 -0.1436 -0.1742
  729SOL    HW1 2186   2.884   2.342   0.712 -1.6015 -0.0357  1.1118
  729SOL    HW2 2187   3.004   2.466   0.670  0.7133 -1.1102 -3.9870
  730SOL     OW 2188   2.609   0.587   0.831 -0.7414 -0.0346 -0.6030
  730SOL    HW1 2189   2.538   0.648   0.785  1.3057 -1.0835 -0.1003
  730SOL    HW2 2190   2.682   0.550   0.759 -0.8886  1.6212 -0.2102
  731SOL     OW 2191   0.083   2.130   2.436 -0.9508  0.2375 -0.0790
  731SOL    HW1 2192   0.128   2.179   2.515 -1.0248 -0.0467 -5.0153
  731SOL    HW2 2193   0.046   2.201   2.367 -1.2705  1.1352 -0.1046
  732SOL     OW 2194   1.111   2.861   1.950 -0.6467  0.0359 -0.2714
  732SOL    HW1 2195   1.160   2.800   2.025 -0.3319  0.0561  0.8061
  732SOL    HW2 2196   1.146   2.822   1.860 -0.4693  1.5807  1.1750
  733SOL     OW 2197   0.008   0.691   2.138  0.2572  0.8018 -1.2115
  733SOL    HW1 2198   0.097   0.740   2.105  1.1921  0.2196  1.1581
  733SOL    HW2 2199  -0.030   0.618   2.078  0.2417 -0.5052  0.4618
  734SOL     OW 2200   1.430   0.382   2.764 -0.0639 -0.3239  0.1114
  734SOL    HW1 2201   1.433   0.476   2.805 -0.3449  0.7654 -0.1234
  734SOL    HW2 2202   1.334   0.335   2.773 -0.7793  1.5563 -1.8214
  735SOL     OW 2203   2.914   2.616   2.244 -0.4806  0.4085  0.0753
  735SOL    HW1 2204   2.862   2.596   2.157  1.5071  2.1090 -2.4081
  735SOL    HW2 2205   3.016   2.607   2.227 -0.9575  0.3414  2.0911
  736SOL     OW 2206   0.721   0.437   2.609  0.6373  0.8823 -0.1449
  736SOL    HW1 2207   0.725   0.543   2.592  3.0430 -2.4603 -0.0587
  736SOL    HW2 2208   0.725   0.377   2.523  0.0348 -1.6657  3.2589
  737SOL     OW 2209   2.654   0.441   2.856 -0.6704  0.9424  0.1578
  737SOL    HW1 2210   2.623   0.410   2.950 -0.2558 -1.5917  1.3429
  737SOL    HW2 2211   2.743   0.398   2.825 -1.0569  1.5873 -3.7303
  738SOL     OW 2212   1.577   1.240   2.923 -0.0951 -0.4557  0.3640
  738SOL    HW1 2213   1.681   1.229   2.939 -1.6103  2.3333  0.7779
  738SOL    HW2 2214   1.527   1.159   2.872 -0.4347 -1.1506  1.8677
  739SOL     OW 2215   1.727   0.626   0.679  0.3785  0.0924  0.3341
  739SOL    HW1 2216   1.765   0.646   0.774  1.3540  2.5101 -0.6081
  739SOL    HW2 2217   1.786   0.552   0.632 -0.3824  1.3883 -0.5882
  740SOL     OW 2218   1.954   1.874   2.329  0.4584 -0.6884 -0.7527
  740SOL    HW1 2219   2.022   1.801   2.349  0.2829  1.3496  0.3256
  740SOL    HW2 2220   1.876   1.845   2.265  0.0257 -2.8850 -1.7437
  741SOL     OW 2221   2.542   0.045   2.597 -0.7783 -0.3298 -0.6215
  741SOL    HW1 2222   2.646   0.049   2.584  0.4225  0.5378  1.6853
  741SOL    HW2 2223   2.497   0.004   2.511  1.1978 -1.3921  0.0454
  742SOL     OW 2224   2.252   1.410   0.165 -0.2935 -0.4943 -0.3604
  742SOL    HW1 2225   2.194   1.498   0.176  3.2086 -0.3838  0.3353
  742SOL    HW2 2226   2.215   1.337   0.232 -0.0209  0.9298 -0.0388
  743SOL     OW 2227   1.804   0.630   2.589 -0.0409 -0.1361 -0.0717
  743SOL    HW1 2228   1.779   0.562   2.511 -0.9231 -0.6172 -0.1540
  743SOL    HW2 2229   1.734   0.704   2.598  0.8368 -0.7550 -3.1036
  744SOL     OW 2230   2.696   2.137   0.060  0.3895 -0.3143  0.0494
  744SOL    HW1 2231   2.603   2.187   0.083 -1.1134 -0.9344  1.7363
  744SOL    HW2 2232   2.670   2.038   0.025 -2.2002 -3.1121  0.7297
  745SOL     OW 2233   2.145   2.682   2.247  0.0964  0.0272 -0.7509
  745SOL    HW1 2234   2.053   2.654   2.210 -2.1617 -0.6431 -1.3801
  745SOL    HW2 2235   2.146   2.725   2.341  2.9959  0.3240 -0.4703
  746SOL     OW 2236   3.093   2.592   1.814  0.1053 -0.7259  0.0096
  746SOL    HW1 2237   3.195   2.610   1.792  2.0515 -1.0670  1.5568
  746SOL    HW2 2238   3.042   2.678   1.844 -1.7927 -1.5162  3.1431
  747SOL     OW 2239   0.023   1.771   1.629 -0.6025  0.0982 -0.0852
  747SOL    HW1 2240  -0.030   1.681   1.607 -0.2100 -1.3097 -1.4473
  747SOL    HW2 2241   0.073   1.814   1.551  1.8613 -0.8109  3.5681
  748SOL     OW 2242   1.836   2.781   2.849 -0.3471  0.0407  0.1013
  748SOL    HW1 2243   1.870   2.794   2.945 -2.4481 -0.3066  0.1648
  748SOL    HW2 2244   1.743   2.738   2.851  0.5977 -1.7201  2.9123
  749SOL     OW 2245   1.341   3.083   0.880  0.2243 -0.0396 -0.1664
  749SOL    HW1 2246   1.269   3.009   0.904 -2.9453 -1.7500 -1.3639
  749SOL    HW2 2247   1.313   3.134   0.795 -0.4423  0.7173 -1.2798
  750SOL     OW 2248   2.333   0.210   1.872 -0.5738 -0.7247  0.3529
  750SOL    HW1 2249   2.365   0.261   1.786  1.1962  2.7692  0.2571
  750SOL    HW2 2250   2.276   0.274   1.935 -1.9382 -1.5788 -2.5877
  751SOL     OW 2251   0.904   2.202   2.733 -1.1547  0.2449  0.0850
  751SOL    HW1 2252   0.915   2.165   2.830 -0.0343  1.0682  1.0500
  751SOL    HW2 2253   0.843   2.141   2.672 -0.7293 -0.5098  1.6173
  752SOL     OW 2254   1.271   0.850   1.520 -0.2369 -0.0043  0.2409
  752SOL    HW1 2255   1.336   0.904   1.460  0.9904 -1.2147  1.8364
  752SOL    HW2 2256   1.306   0.759   1.547 -0.1228  0.8351 -0.9989
  753SOL     OW 2257   0.943   2.588   1.679 -0.2353  0.6421 -0.2674
  753SOL    HW1 2258   1.019   2.656   1.688  0.4639  1.2250 -1.7863
  753SOL    HW2 2259   0.846   2.626   1.648 -1.6183 -3.7757 -0.5599
  754SOL     OW 2260   1.225   1.334   3.054  0.0092  0.3193 -0.9285
  754SOL    HW1 2261   1.269   1.251   3.004 -0.8098  0.0834  2.4719
  754SOL    HW2 2262   1.220   1.415   2.991  0.7761 -1.1875 -0.9421
  755SOL     OW 2263   1.925   0.435   2.206 -0.2880  0.4976  0.6269
  755SOL    HW1 2264   2.014   0.404   2.252 -1.7874  0.6469  1.9531
  755SOL    HW2 2265   1.855   0.457   2.284 -1.0802  0.1351  0.1614
  756SOL     OW 2266   2.625   0.957   2.943  0.3555  0.1421  0.5352
  756SOL    HW1 2267   2.727   0.938   2.961 -0.8023  1.4216 -0.6419
  756SOL    HW2 2268   2.565   0.890   2.984  2.9181 -1.0241  1.2176
  757SOL     OW 2269   3.081   0.444   1.796  0.7809 -0.3835 -0.0399
  757SOL    HW1 2270   3.053   0.535   1.751 -0.8656  1.0387  1.8173
  757SOL    HW2 2271   3.128   0.385   1.727 -0.9791  1.0604 -0.3287
  758SOL     OW 2272   2.405   0.080   1.453 -0.0684 -0.5589  0.6009
  758SOL    HW1 2273   2.344   0.026   1.519  1.3924  0.5384  2.0093
  758SOL    HW2 2274   2.391   0.052   1.351  2.0009  0.8114 -1.7286
  759SOL     OW 2275   1.685   0.042   0.091 -0.4683  0.0437 -0.2300
  759SOL    HW1 2276   1.642   0.112   0.034  1.9175 -1.7880  1.9485
  759SOL    HW2 2277   1.780   0.019   0.053  0.6063  0.7602  0.6621
  760SOL     OW 2278   2.725   2.056   2.820 -0.5678 -0.9384 -0.2451
  760SOL    HW1 2279   2.813   2.005   2.832 -0.2267  2.7739 -0.1396
  760SOL    HW2 2280   2.727   2.150   2.868  0.2205 -2.5714  1.7452
  761SOL     OW 2281   1.943   1.727   1.628  0.2979 -0.1986 -0.3026
  761SOL    HW1 2282   1.978   1.635   1.655 -1.4682  0.3602 -1.4405
  761SOL    HW2 2283   1.881   1.721   1.546 -2.5902  0.4103  1.2311
  762SOL     OW 2284   0.482   2.381   0.998  0.3075  1.0831  0.3085
  762SOL    HW1 2285   0.525   2.365   0.908  1.6372  2.4114 -0.8096
  762SOL    HW2 2286   0.534   2.445   1.059  0.6025  2.1139 -1.3629
  763SOL     OW 2287   2.101   1.513   2.991  0.3788 -0.0024  0.0168
  763SOL    HW1 2288   2.180   1.450   3.018  1.0944 -0.4577  1.3130
  763SOL    HW2 2289   2.008   1.485   3.040 -2.4977 -0.7249 -2.5199
  764SOL     OW 2290   0.688   0.588   0.880 -0.2930 -0.3985  0.3872
  764SOL    HW1 2291   0.678   0.491   0.842  1.6729 -2.5541  1.8449
  764SOL    HW2 2292   0.783   0.606   0.920  0.3265  0.7498 -1.7504
  765SOL     OW 2293   0.687   0.226   0.843 -0.2080  0.2533 -0.2148
  765SOL    HW1 2294   0.780   0.254   0.803  1.2732 -2.4687 -2.9787
  765SOL    HW2 2295   0.676   0.239   0.944 -1.4600  1.8234 -0.3348
  766SOL     OW 2296   2.966   2.096   3.095  0.2984 -0.3215  0.1821
  766SOL    HW1 2297   2.860   2.113   3.092 -0.5180  0.9690 -1.6156
  766SOL    HW2 2298   3.021   2.182   3.085  0.8992 -0.4714 -1.6797
  767SOL     OW 2299   2.902   1.572   0.523  0.1365 -0.0184  0.1174
  767SOL    HW1 2300   2.821   1.542   0.578 -0.8441  2.7499  0.6064
  767SOL    HW2 2301   2.957   1.646   0.574  2.6922 -1.9980  0.9988
  768SOL     OW 2302   1.086   0.226   0.331 -0.7379  0.3511 -0.1132
  768SOL    HW1 2303   1.008   0.163   0.354  2.6219  2.8536 -1.6431
  768SOL    HW2 2304   1.172   0.171   0.306 -1.4855 -0.7241 -0.6013
  769SOL     OW 2305   1.121   1.854   2.246  0.8516 -0.5897 -0.6487
  769SOL    HW1 2306   1.047   1.875   2.319  0.2969 -3.1230  0.7739
  769SOL    HW2 2307   1.130   1.761   2.210 -2.1024  1.9578  1.6742
  770SOL     OW 2308   0.144   1.302   2.295 -0.3409 -0.0476  0.9211
  770SOL    HW1 2309   0.130   1.305   2.398  0.2915 -2.1442  1.3557
  770SOL    HW2 2310   0.056   1.280   2.241  0.4207 -0.3381  2.2849
  771SOL     OW 2311   2.974   2.822   1.869  0.0408  0.2632  0.1996
  771SOL    HW1 2312   2.983   2.889   1.787 -0.1307 -2.3045 -1.0415
  771SOL    HW2 2313   2.925   2.868   1.949 -1.3642  2.2871  2.5778
  772SOL     OW 2314   2.181   0.117   2.964  0.1435 -0.2247 -0.2947
  772SOL    HW1 2315   2.273   0.081   2.929 -1.5777 -0.0563  0.6915
  772SOL    HW2 2316   2.191   0.201   3.023 -2.0257  1.7161  0.8791
  773SOL     OW 2317   0.706   2.073   2.525 -0.2855 -0.3348 -0.2212
  773SOL    HW1 2318   0.688   2.098   2.428 -0.1710  0.2551  0.3232
  773SOL    HW2 2319   0.619   2.083   2.585 -0.0147 -2.1734 -0.4447
  774SOL     OW 2320   2.042   0.025   2.651  0.1013  0.6338  0.0688
  774SOL    HW1 2321   2.035   0.116   2.701 -2.3990 -1.5448 -1.2022
  774SOL    HW2 2322   2.090  -0.056   2.693  1.5008 -2.1761 -0.5322
  775SOL     OW 2323   2.542   2.844   2.485  0.5305  0.2313 -0.5739
  775SOL    HW1 2324   2.507   2.919   2.422 -0.4480 -0.2642 -1.1610
  775SOL    HW2 2325   2.648   2.841   2.498  1.6003 -0.2683  2.3107
  776SOL     OW 2326   0.045   1.245   0.262 -0.0431  0.2024  0.1106
  776SOL    HW1 2327  -0.004   1.251   0.172 -0.6567  1.2433  0.4019
  776SOL    HW2 2328  -0.032   1.257   0.335 -0.0864 -0.7915 -1.4266
  777SOL     OW 2329   0.235   2.726   0.502  0.0273 -0.1081  0.1839
  777SOL    HW1 2330   0.135   2.716   0.469 -0.4475 -0.2812 -2.1416
  777SOL    HW2 2331   0.278   2.818   0.480 -0.5909 -0.1880  0.0147
  778SOL     OW 2332   1.345   1.997   0.186 -0.3815 -0.2470  0.1283
  778SOL    HW1 2333   1.270   1.990   0.257  1.3044 -0.3295  1.4364
  778SOL    HW2 2334   1.347   2.088   0.135 -0.0076  0.9267 -0.6799
  779SOL     OW 2335   0.171   0.784   0.510 -0.2543  0.1327 -0.1888
  779SOL    HW1 2336   0.124   0.694   0.500 -0.5647  0.7842 -0.4657
  779SOL    HW2 2337   0.114   0.852   0.567  2.1762 -1.6024  0.1619
  780SOL     OW 2338   0.023   0.298   2.317 -0.3112 -0.4920  0.4459
  780SOL    HW1 2339  -0.001   0.400   2.310 -0.9966 -1.6649 -2.3538
  780SOL    HW2 2340   0.115   0.284   2.275  0.1561 -2.1719  2.3259
  781SOL     OW 2341   0.629   1.727   1.561 -0.7029 -0.1372  0.2697
  781SOL    HW1 2342   0.666   1.764   1.652 -1.9806  1.5504 -0.8396
  781SOL    HW2 2343   0.563   1.646   1.575  1.2790  2.0159 -1.4410
  782SOL     OW 2344   2.571   0.152   0.899 -0.1500 -0.1183  0.5337
  782SOL    HW1 2345   2.505   0.161   0.818  0.2430  0.4726  1.8548
  782SOL    HW2 2346   2.534   0.200   0.986 -1.5822  2.2120  0.3060
  783SOL     OW 2347   2.814   0.660   2.516 -0.3031 -0.3650 -0.2365
  783SOL    HW1 2348   2.775   0.680   2.609  0.3627  0.3717 -3.2965
  783SOL    HW2 2349   2.762   0.583   2.472  2.7596  0.4674  1.2612
  784SOL     OW 2350   1.358   2.251   0.060 -0.2395 -0.2409 -0.1299
  784SOL    HW1 2351   1.450   2.295   0.098 -0.0560  1.3019  0.5943
  784SOL    HW2 2352   1.353   2.259  -0.044  0.1319 -4.6416  1.0778
  785SOL     OW 2353   2.180   0.371   3.066 -0.5061 -0.1438  0.1273
  785SOL    HW1 2354   2.104   0.365   3.134  1.8642 -1.5090  1.8048
  785SOL    HW2 2355   2.211   0.465   3.033  0.0357  1.8085  2.1568
  786SOL     OW 2356   2.063   2.132   2.213  0.6167  0.0296  0.2786
  786SOL    HW1 2357   2.010   2.045   2.239  0.7945  1.8112 -0.6236
  786SOL    HW2 2358   2.163   2.126   2.237 -1.0232  3.0577 -0.9192
  787SOL     OW 2359   1.405   0.593   0.872  0.2265 -0.5263 -0.1711
  787SOL    HW1 2360   1.340   0.675   0.877  1.2775  1.7377  0.0589
  787SOL    HW2 2361   1.435   0.568   0.776 -0.4517  0.9573 -0.4585
  788SOL     OW 2362   1.220   0.397   3.025 -0.3845  0.0382 -0.7455
  788SOL    HW1 2363   1.124   0.433   3.011  0.2706 -0.6318  2.3826
  788SOL    HW2 2364   1.297   0.447   2.969  1.7804  0.5826  3.3504
  789SOL     OW 2365   2.575   0.103   1.786 -0.6721  0.7088  0.2932
  789SOL    HW1 2366   2.490   0.129   1.826  2.6160 -0.9511  1.9300
  789SOL    HW2 2367   2.571   0.001   1.760  0.3758  0.0781 -0.2027
  790SOL     OW 2368   2.536   2.662   0.833  0.8088 -0.4315 -0.2709
  790SOL    HW1 2369   2.606   2.685   0.764 -2.2154 -4.9954  2.1594
  790SOL    HW2 2370   2.576   2.673   0.930 -1.4583  2.9676 -1.0337
  791SOL     OW 2371   1.941   1.268   0.236  0.1008 -0.1176 -0.4621
  791SOL    HW1 2372   1.857   1.208   0.245  3.0336  0.5276  3.0562
  791SOL    HW2 2373   2.026   1.209   0.245 -0.5055 -1.5704 -1.7090
  792SOL     OW 2374   0.431   2.009   2.175 -0.4620 -0.2418  0.1407
  792SOL    HW1 2375   0.497   2.078   2.213 -0.2629 -2.3064  1.7173
  792SOL    HW2 2376   0.355   1.982   2.240 -1.0127 -5.2454  0.3020
  793SOL     OW 2377   2.129   1.566   2.094  0.3677  0.2812  0.3584
  793SOL    HW1 2378   2.177   1.643   2.053  0.7073 -1.1155 -0.1334
  793SOL    HW2 2379   2.141   1.476   2.042  2.0218 -2.5171 -0.1947
  794SOL     OW 2380   0.455   1.384   2.482 -0.5748  0.0557  0.2446
  794SOL    HW1 2381   0.453   1.323   2.404 -0.4323  1.7800 -0.1807
  794SOL    HW2 2382   0.393   1.464   2.466  1.7082  1.3760 -0.9080
  795SOL     OW 2383   2.503   2.339   1.808  0.6000 -0.2247 -0.2659
  795SOL    HW1 2384   2.448   2.407   1.870 -0.3528  0.0135  2.7760
  795SOL    HW2 2385   2.442   2.261   1.774 -0.1659 -1.8768  1.1783
  796SOL     OW 2386   3.081   1.052   2.709 -0.6033 -0.1432  0.0338
  796SOL    HW1 2387   2.987   1.084   2.721  3.0805  0.1277  5.4006
  796SOL    HW2 2388   3.140   1.074   2.789 -2.1758 -1.2693 -0.8772
  797SOL     OW 2389   0.778   0.666   1.349  0.1232  0.5629 -0.0215
  797SOL    HW1 2390   0.819   0.732   1.415 -0.8958 -0.6839 -0.6239
  797SOL    HW2 2391   0.719   0.713   1.276 -0.6806 -3.9894  0.2769
  798SOL     OW 2392   1.288   0.426   1.072 -1.0382 -0.1777 -0.0388
  798SOL    HW1 2393   1.308   0.460   1.168  0.0379  0.1674 -1.9427
  798SOL    HW2 2394   1.331   0.484   0.997  2.4131  1.2675 -0.6010
  799SOL     OW 2395   1.911   2.724   1.020 -0.5989  0.5221 -0.1112
  799SOL    HW1 2396   1.878   2.636   1.068 -0.5160  0.6143  2.3452
  799SOL    HW2 2397   1.902   2.719   0.912  0.0862  1.5671 -2.3174
  800SOL     OW 2398   2.958   0.826   1.866  0.4663 -0.1811  0.0764
  800SOL    HW1 2399   3.000   0.910   1.912 -0.5969  2.0460 -1.4159
  800SOL    HW2 2400   2.915   0.761   1.932  2.2906 -1.5602  0.9829
  801SOL     OW 2401   1.978   2.132   0.057  0.2579 -0.4366  0.2206
  801SOL    HW1 2402   1.898   2.108  -0.005  0.1517  0.9749  3.3250
  801SOL    HW2 2403   2.069   2.092   0.029  1.2866 -0.6998 -1.4126
  802SOL     OW 2404   0.707   0.723   2.518 -0.2852 -0.1090  0.8227
  802SOL    HW1 2405   0.772   0.706   2.439  1.0725  2.2521 -0.4586
  802SOL    HW2 2406   0.610   0.712   2.497  0.6728 -1.3503  0.9145
  803SOL     OW 2407   0.960   0.079   0.888 -0.4821 -0.2517 -0.2570
  803SOL    HW1 2408   1.038   0.147   0.913 -0.7138  2.2211  1.1131
  803SOL    HW2 2409   0.902   0.117   0.810  0.3330  0.8241 -0.4298
  804SOL     OW 2410   0.291   3.072   2.172  0.0170  0.3056 -0.3363
  804SOL    HW1 2411   0.300   3.174   2.165  0.4794  0.2135  2.8290
  804SOL    HW2 2412   0.247   3.027   2.090  0.2084  0.1495  0.3909
  805SOL     OW 2413   2.332   0.411   0.302  0.1456 -0.0978 -0.3525
  805SOL    HW1 2414   2.411   0.442   0.361  0.2777 -0.3935 -0.5732
  805SOL    HW2 2415   2.352   0.320   0.255 -0.9782 -2.7054 -2.7974
  806SOL     OW 2416   0.631   2.480   1.797 -0.4225 -0.3271  0.4782
  806SOL    HW1 2417   0.588   2.573   1.813 -2.3907 -0.4793  0.4938
  806SOL    HW2 2418   0.729   2.481   1.767 -0.9600  0.1958  0.8059
  807SOL     OW 2419   2.487   0.940   0.434 -0.2660 -0.4415 -0.2162
  807SOL    HW1 2420   2.555   0.871   0.478  1.0188  0.7994  3.0637
  807SOL    HW2 2421   2.478   0.939   0.333 -0.5344  2.9614 -1.0035
  808SOL     OW 2422   0.628   2.006   2.882 -0.6230 -0.1994 -0.2132
  808SOL    HW1 2423   0.595   2.039   2.974  1.8279 -1.5253  1.2848
  808SOL    HW2 2424   0.662   1.907   2.882  0.2430 -1.7906  0.2056
  809SOL     OW 2425   2.552   2.004   1.880 -0.5383  0.3489  0.6320
  809SOL    HW1 2426   2.655   2.034   1.857  1.6279  0.6690 -0.2048
  809SOL    HW2 2427   2.484   2.017   1.803 -0.0549 -1.8058  0.2854
  810SOL     OW 2428   2.154   1.098   0.506 -0.4351 -0.2976  0.1402
  810SOL    HW1 2429   2.148   1.023   0.578  0.1265  0.0065  1.8722
  810SOL    HW2 2430   2.133   1.199   0.541  0.3477  2.6984  0.4218
  811SOL     OW 2431   1.374   2.554   1.199 -0.4074  0.2109  0.0323
  811SOL    HW1 2432   1.312   2.485   1.245  0.3495  1.0027  2.1962
  811SOL    HW2 2433   1.350   2.648   1.238 -2.7292 -0.5338  0.6250
  812SOL     OW 2434   1.407   0.781   1.952  0.1521  0.1124 -0.6964
  812SOL    HW1 2435   1.311   0.753   1.921 -1.6667  0.6217 -0.2316
  812SOL    HW2 2436   1.410   0.879   1.997 -2.7943 -0.0451 -0.0384
  813SOL     OW 2437   1.588   2.068   2.430 -0.1967 -0.1444 -0.3509
  813SOL    HW1 2438   1.640   1.981   2.454  0.7363 -1.0142  0.5320
  813SOL    HW2 2439   1.573   2.081   2.329 -0.2641 -0.3161  1.0839
  814SOL     OW 2440   2.982   1.613   2.890 -0.8482  0.5526  0.3757
  814SOL    HW1 2441   3.062   1.572   2.938 -1.1934 -2.1028  3.0321
  814SOL    HW2 2442   3.003   1.706   2.853  1.8339 -1.1054  0.7576
  815SOL     OW 2443   2.203   2.897   2.770 -0.4129  0.0280 -0.1820
  815SOL    HW1 2444   2.170   2.828   2.840 -1.1646  0.5646  0.1230
  815SOL    HW2 2445   2.299   2.931   2.792  1.1290  0.9986 -0.0599
  816SOL     OW 2446   1.574   0.351   1.683 -0.1509 -0.0024  0.3372
  816SOL    HW1 2447   1.628   0.262   1.711  2.1751 -0.0418  1.4934
  816SOL    HW2 2448   1.498   0.380   1.747 -0.4563 -0.5329 -1.3177
  817SOL     OW 2449   0.383   1.179   2.660  0.1228  0.2253 -0.2501
  817SOL    HW1 2450   0.291   1.204   2.702  0.1436  0.4886  1.4844
  817SOL    HW2 2451   0.416   1.263   2.609 -1.3463  0.4923  0.2829
  818SOL     OW 2452   1.983   0.811   0.441  0.0864 -0.2052 -0.0759
  818SOL    HW1 2453   2.086   0.829   0.434 -0.7241  0.8931  1.8751
  818SOL    HW2 2454   1.939   0.868   0.516  0.4151  1.2293  1.7305
  819SOL     OW 2455   2.730   2.977   3.060 -0.3462  0.5777  0.2608
  819SOL    HW1 2456   2.749   2.912   3.133  0.0187 -1.1186 -1.5343
  819SOL    HW2 2457   2.704   2.924   2.975  1.1802 -0.6078 -0.5961
  820SOL     OW 2458   1.244   1.030   0.525 -0.1345  0.3435  0.2127
  820SOL    HW1 2459   1.253   1.127   0.555  0.1808 -0.8488 -2.4743
  820SOL    HW2 2460   1.228   0.971   0.607  0.1491 -0.0078  0.5669
  821SOL     OW 2461   0.033   1.245   0.714  0.1315  0.0651 -0.5145
  821SOL    HW1 2462  -0.020   1.247   0.809 -0.9024 -2.5461  2.3671
  821SOL    HW2 2463   0.083   1.336   0.699 -0.0946 -2.3059 -0.2517
  822SOL     OW 2464   2.515   1.806   2.464 -0.3033 -0.1693 -0.1549
  822SOL    HW1 2465   2.515   1.882   2.537 -0.5273  0.4869  0.4803
  822SOL    HW2 2466   2.446   1.823   2.389  0.6815  0.6107 -2.0295
  823SOL     OW 2467   1.994   0.897   1.144 -0.2387  0.5688  0.2238
  823SOL    HW1 2468   1.953   0.855   1.227 -0.8386  0.8392  0.3472
  823SOL    HW2 2469   1.917   0.941   1.082 -3.0880 -1.1822 -0.4709
  824SOL     OW 2470   0.215   1.989   2.797  0.0876 -0.0360 -0.3528
  824SOL    HW1 2471   0.251   1.920   2.865  1.2422 -0.3967 -2.0443
  824SOL    HW2 2472   0.259   1.972   2.707  0.6871 -3.0232  2.8816
  825SOL     OW 2473   1.325   1.052   0.264  0.0160  0.0754  0.1023
  825SOL    HW1 2474   1.315   1.156   0.244  2.0222  1.3315 -0.3951
  825SOL    HW2 2475   1.318   1.026   0.361  0.4279  1.7620 -2.0644
  826SOL     OW 2476   1.934   0.618   1.598  0.0701 -0.0375 -0.3653
  826SOL    HW1 2477   2.019   0.563   1.627 -0.2185 -0.4246  1.8634
  826SOL    HW2 2478   1.862   0.559   1.547 -1.1033 -1.6834 -0.4710
  827SOL     OW 2479   0.672   1.228   0.304  0.5864 -0.4531  0.2112
  827SOL    HW1 2480   0.735   1.156   0.265  0.7535 -0.0420  0.7723
  827SOL    HW2 2481   0.582   1.186   0.341  1.8374 -0.0738 -0.5100
  828SOL     OW 2482   2.652   0.114   1.512  0.2797  0.1669 -0.3024
  828SOL    HW1 2483   2.554   0.088   1.474  0.8027  1.4374 -0.5202
  828SOL    HW2 2484   2.654   0.108   1.615 -0.5340 -1.8251  0.7015
  829SOL     OW 2485   2.965   2.398   2.831  0.1708  0.9083  0.6250
  829SOL    HW1 2486   2.863   2.384   2.854 -0.0422  0.4185 -1.8239
  829SOL    HW2 2487   2.981   2.498   2.808  0.1900 -1.4078 -2.1577
  830SOL     OW 2488   2.879   0.954   3.045 -0.0427 -0.3836 -0.3517
  830SOL    HW1 2489   2.943   1.010   3.100 -2.9983 -1.5642 -0.1439
  830SOL    HW2 2490   2.875   0.856   3.069 -0.9361  1.1597  0.1266
  831SOL     OW 2491   0.017   0.546   0.421 -0.4972  0.0890 -0.1097
  831SOL    HW1 2492   0.016   0.471   0.492  1.0272 -2.5297 -1.9609
  831SOL    HW2 2493   0.049   0.511   0.331 -1.1196  0.6865  0.9890
  832SOL     OW 2494   1.847   0.771   3.051 -0.1692  0.2060  0.3263
  832SOL    HW1 2495   1.755   0.811   3.031  1.4282  1.2791 -0.5164
  832SOL    HW2 2496   1.848   0.671   3.026  3.6754 -1.3962  0.2513
  833SOL     OW 2497   2.428   2.051   0.448 -0.1799  0.0456 -0.4865
  833SOL    HW1 2498   2.333   2.024   0.435  2.0048  0.6942  1.0401
  833SOL    HW2 2499   2.481   1.969   0.488  0.0514 -1.8772  0.6753
  834SOL     OW 2500   0.169   0.114   0.547  0.8016  0.1666 -0.1815
  834SOL    HW1 2501   0.193   0.023   0.583 -2.8478  0.0415  0.9241
  834SOL    HW2 2502   0.142   0.113   0.447 -0.4483  0.7517  1.4096
  835SOL     OW 2503   2.453   1.519   1.162  1.1691 -0.0146 -0.1902
  835SOL    HW1 2504   2.495   1.613   1.168  1.7814  2.7603  0.9397
  835SOL    HW2 2505   2.489   1.465   1.080 -2.1335 -1.5095  0.7047
  836SOL     OW 2506   1.620   0.834   2.573  0.6101 -0.2081  0.5640
  836SOL    HW1 2507   1.530   0.785   2.592 -0.3480 -0.6063  0.0480
  836SOL    HW2 2508   1.636   0.852   2.471 -1.2069 -0.8689 -0.2680
  837SOL     OW 2509   1.648   0.055   0.603  0.3572  0.2664  0.2424
  837SOL    HW1 2510   1.594   0.130   0.655  0.0233  0.5966  0.9304
  837SOL    HW2 2511   1.628   0.055   0.504  0.4980  1.1328  0.4523
  838SOL     OW 2512   1.236   1.358   2.726  0.0221  0.0409 -0.8379
  838SOL    HW1 2513   1.221   1.435   2.795 -0.0396 -1.6369  1.5922
  838SOL    HW2 2514   1.148   1.337   2.677  0.8386 -1.5709  0.4623
  839SOL     OW 2515   1.608   0.374   0.988 -0.1308  0.2398 -0.7485
  839SOL    HW1 2516   1.653   0.413   1.073 -0.4211 -1.0303 -1.6301
  839SOL    HW2 2517   1.564   0.282   0.994  0.8953 -0.3886 -2.1280
  840SOL     OW 2518   2.594   2.920   1.748  0.8598  0.3817 -0.5342
  840SOL    HW1 2519   2.515   2.889   1.687  1.1818 -0.0738 -2.3563
  840SOL    HW2 2520   2.605   2.858   1.834 -1.0980 -2.6615 -0.9453
  841SOL     OW 2521   1.546   0.861   2.970 -0.3734 -0.1365  0.0871
  841SOL    HW1 2522   1.510   0.926   3.038 -0.5709  1.4056 -2.4018
  841SOL    HW2 2523   1.616   0.908   2.909  1.7701 -2.6638  0.2100
  842SOL     OW 2524   0.785   1.545   0.995  0.1865  0.5431  0.1330
  842SOL    HW1 2525   0.749   1.640   1.012 -1.2644 -3.5474 -0.1809
  842SOL    HW2 2526   0.733   1.501   0.916  0.2519  0.1450  1.3377
  843SOL     OW 2527   0.113   0.133   1.439 -0.1084 -0.1541 -0.3369
  843SOL    HW1 2528   0.193   0.169   1.501 -0.4093  0.6873  0.1559
  843SOL    HW2 2529   0.131   0.038   1.398  0.3782 -1.3156  0.6418
  844SOL     OW 2530   0.770   2.474   0.240 -0.2348  0.4308 -0.1223
  844SOL    HW1 2531   0.767   2.493   0.346  1.2139 -0.7101 -0.8629
  844SOL    HW2 2532   0.672   2.451   0.207  2.4436 -3.8157 -0.9214
  845SOL     OW 2533   1.695   2.926   1.361  0.0056  0.4157 -0.3802
  845SOL    HW1 2534   1.734   2.936   1.458  1.9802 -2.2276 -2.5143
  845SOL    HW2 2535   1.648   3.014   1.333  0.0559  1.4663  0.0894
  846SOL     OW 2536   1.705   2.959   0.915  0.1425  0.1703 -0.1041
  846SOL    HW1 2537   1.673   2.966   0.819  0.2458  1.0857  0.6754
  846SOL    HW2 2538   1.810   2.951   0.918  0.7999 -2.2029  1.1371
  847SOL     OW 2539   2.087   1.606   0.218  0.6203 -0.3115 -0.3351
  847SOL    HW1 2540   2.050   1.575   0.312 -0.3395  1.4126 -0.8459
  847SOL    HW2 2541   2.013   1.591   0.149 -2.4106  1.9858  0.6685
  848SOL     OW 2542   2.470   0.815   2.670  0.2776 -0.4610  0.0591
  848SOL    HW1 2543   2.456   0.917   2.678 -0.5631 -1.0124  0.2935
  848SOL    HW2 2544   2.396   0.775   2.598 -3.3590 -0.6439 -0.0888
  849SOL     OW 2545   2.440   0.839   2.306 -0.4942 -0.0506  0.3072
  849SOL    HW1 2546   2.495   0.765   2.259  1.7589 -1.8491 -0.1626
  849SOL    HW2 2547   2.382   0.805   2.386  0.6095  1.7982  1.3597
  850SOL     OW 2548   1.560   0.102   1.277  0.3858  1.0261  0.0219
  850SOL    HW1 2549   1.543   0.087   1.178 -1.8904 -2.6702  2.1659
  850SOL    HW2 2550   1.494   0.046   1.332  0.2844  0.2208  2.0655
  851SOL     OW 2551   0.466   1.736   0.676  0.0092  0.7057  0.3036
  851SOL    HW1 2552   0.433   1.830   0.645  0.6336  1.0742 -2.1808
  851SOL    HW2 2553   0.554   1.736   0.734  0.4268  1.3988 -1.6225
  852SOL     OW 2554   0.817   2.112   1.664 -0.1507 -0.2745  0.0160
  852SOL    HW1 2555   0.825   2.208   1.626  0.4319 -1.3022 -0.2796
  852SOL    HW2 2556   0.748   2.102   1.749 -1.0288  1.7007  0.7859
  853SOL     OW 2557   2.548   1.559   2.589 -0.0443 -0.0519  0.1105
  853SOL    HW1 2558   2.508   1.461   2.582  2.9221 -0.2462 -1.4692
  853SOL    HW2 2559   2.499   1.632   2.532 -1.2385  1.7554 -0.5111
  854SOL     OW 2560   2.444   1.415   1.785 -0.8590  0.1679 -0.1366
  854SOL    HW1 2561   2.509   1.375   1.713 -0.1841 -0.7661 -0.2973
  854SOL    HW2 2562   2.409   1.346   1.852 -0.6438  0.4537  2.0528
  855SOL     OW 2563   2.046   2.334   0.951 -0.4719  0.2050  0.2841
  855SOL    HW1 2564   2.106   2.409   0.907 -2.0741  1.1002 -0.7026
  855SOL    HW2 2565   2.092   2.304   1.043  1.7015 -3.3762  1.1311
  856SOL     OW 2566   1.397   1.381   0.924  0.0003  0.1781  0.2276
  856SOL    HW1 2567   1.405   1.484   0.941 -2.4166 -1.2099  2.5162
  856SOL    HW2 2568   1.354   1.326   0.993  1.1885 -0.7514 -3.2655
  857SOL     OW 2569   2.982   2.637   1.073  0.1931  0.5540 -0.1947
  857SOL    HW1 2570   2.883   2.602   1.077 -0.9896  0.8134  0.8769
  857SOL    HW2 2571   3.052   2.574   1.032  0.5226 -0.9421 -2.7914
  858SOL     OW 2572   2.319   2.165   1.686 -0.1361 -0.4178 -0.1148
  858SOL    HW1 2573   2.216   2.154   1.677  1.9820  1.7783 -0.6596
  858SOL    HW2 2574   2.362   2.097   1.620  0.5609 -1.1185 -0.2691
  859SOL     OW 2575   2.446   0.498   1.056 -0.0595  0.3316 -0.5800
  859SOL    HW1 2576   2.491   0.535   0.974  0.0934  1.1918  0.0097
  859SOL    HW2 2577   2.502   0.418   1.095  1.5291 -2.9701  0.2333
  860SOL     OW 2578   1.949   2.777   0.465  0.5043  0.3221  0.0446
  860SOL    HW1 2579   1.924   2.730   0.375  1.7160 -3.9692 -2.3233
  860SOL    HW2 2580   2.018   2.854   0.455 -0.3864  0.4640  3.0815
  861SOL     OW 2581   1.104   2.595   2.760 -0.1602  0.1995 -0.2346
  861SOL    HW1 2582   1.126   2.696   2.735  2.2475  3.3251 -0.4425
  861SOL    HW2 2583   1.113   2.571   2.859  0.3054 -2.8417  0.1638
  862SOL     OW 2584   2.923   2.521   1.590  0.2842  0.5440 -0.5455
  862SOL    HW1 2585   2.971   2.561   1.674  2.4539 -1.2538 -2.2511
  862SOL    HW2 2586   2.869   2.593   1.526 -0.6181  1.1964 -0.4074
  863SOL     OW 2587   1.867   2.626   0.206  0.0290 -0.3866  0.1943
  863SOL    HW1 2588   1.931   2.548   0.204 -0.4469  1.7397 -0.7031
  863SOL    HW2 2589   1.769   2.598   0.241 -3.5179  1.6537 -1.7312
  864SOL     OW 2590   1.868   1.179   2.927  0.3213  0.2804  0.6001
  864SOL    HW1 2591   1.889   1.164   2.824  0.9198 -1.5521 -0.5632
  864SOL    HW2 2592   1.933   1.143   2.994 -0.5138  1.0998 -0.0061
  865SOL     OW 2593   2.191   1.791   0.695 -0.3704 -0.4728  0.2401
  865SOL    HW1 2594   2.231   1.792   0.788 -0.8641  0.9151 -2.0453
  865SOL    HW2 2595   2.096   1.760   0.684  0.8306  0.8497 -0.4323
  866SOL     OW 2596   2.956   2.889   1.010  0.2541 -0.5677  0.8154
  866SOL    HW1 2597   3.029   2.907   0.937 -0.8521 -1.1125 -0.6101
  866SOL    HW2 2598   2.950   2.791   1.038  0.9598  1.0449  0.6112
  867SOL     OW 2599   0.411   1.332   0.868  0.3496 -0.2789 -0.4741
  867SOL    HW1 2600   0.451   1.240   0.838  0.8614 -1.0457  0.5729
  867SOL    HW2 2601   0.321   1.354   0.822  1.3452 -0.2597  2.0359
  868SOL     OW 2602   0.815   1.929   2.012  0.5059  0.0775  0.3541
  868SOL    HW1 2603   0.818   1.891   2.108 -0.5224 -0.2709 -0.2818
  868SOL    HW2 2604   0.751   2.003   2.002  0.9164 -0.3658 -1.2506
  869SOL     OW 2605   2.479   1.973   1.589 -0.1013  1.3567  0.1861
  869SOL    HW1 2606   2.578   2.010   1.589  1.3030  0.0809  0.8468
  869SOL    HW2 2607   2.445   1.936   1.498 -0.7762  0.5880 -0.7005
  870SOL     OW 2608   2.259   2.613   1.229  0.3411 -0.2739  0.0274
  870SOL    HW1 2609   2.216   2.520   1.205 -2.2531  0.2730  0.1094
  870SOL    HW2 2610   2.336   2.607   1.295 -1.7292  0.1899 -2.8489
  871SOL     OW 2611   2.991   2.077   0.569 -0.1438 -0.1282 -0.3722
  871SOL    HW1 2612   2.928   2.157   0.581  0.0746  1.2773  4.4211
  871SOL    HW2 2613   2.962   2.014   0.491  1.3750 -0.3847  1.1974
  872SOL     OW 2614   2.147   0.492   1.696  0.0795  0.2336 -0.0588
  872SOL    HW1 2615   2.104   0.456   1.785  1.7511  0.7394  1.3275
  872SOL    HW2 2616   2.246   0.467   1.682 -1.7417 -0.6043 -1.7567
  873SOL     OW 2617   1.724   2.079   2.965  0.4777 -0.0308  0.2097
  873SOL    HW1 2618   1.738   2.176   2.994  1.8186  0.4130  1.7357
  873SOL    HW2 2619   1.657   2.064   2.885 -0.0114  0.3353 -0.1719
  874SOL     OW 2620   0.662   2.452   0.764  0.3123  0.1081 -0.4236
  874SOL    HW1 2621   0.640   2.551   0.797 -2.5443  0.0362  0.7856
  874SOL    HW2 2622   0.761   2.430   0.775 -1.4814  3.0162 -1.2674
  875SOL     OW 2623   2.260   1.552   1.466  0.3499  0.5687  0.6614
  875SOL    HW1 2624   2.360   1.565   1.466 -1.3453  1.9147 -0.8343
  875SOL    HW2 2625   2.219   1.599   1.384  1.2311  2.4494 -1.8173
  876SOL     OW 2626   0.146   2.234   2.689  0.2678  0.1530  0.2501
  876SOL    HW1 2627   0.189   2.153   2.733 -1.0440  0.1909  0.7563
  876SOL    HW2 2628   0.146   2.326   2.745  2.1285  0.9931  1.8752
  877SOL     OW 2629   2.764   2.671   0.656 -0.8330  0.2099 -0.1381
  877SOL    HW1 2630   2.816   2.754   0.679  0.3094  1.0257  1.0487
  877SOL    HW2 2631   2.822   2.584   0.682 -0.3683 -1.1919  0.3637
  878SOL     OW 2632   2.874   1.459   2.254  0.1688 -0.8256  0.1446
  878SOL    HW1 2633   2.971   1.495   2.257 -1.2850 -0.1322 -1.9454
  878SOL    HW2 2634   2.818   1.473   2.342  1.1309 -0.4614 -0.7971
  879SOL     OW 2635   2.392   0.035   1.176 -0.0569 -0.3330  0.0982
  879SOL    HW1 2636   2.442  -0.055   1.203  1.0677 -1.2913 -1.6024
  879SOL    HW2 2637   2.323   0.029   1.096  0.0162 -0.2092 -1.2531
  880SOL     OW 2638   0.705   0.447   2.205  0.4029 -0.4685 -0.3687
  880SOL    HW1 2639   0.622   0.385   2.239  0.6067 -0.4928 -0.5138
  880SOL    HW2 2640   0.770   0.393   2.140  0.3841 -0.3581  3.1321
  881SOL     OW 2641   0.887   0.047   0.429  0.4119 -0.2602 -0.5700
  881SOL    HW1 2642   0.898  -0.046   0.481 -1.8733  0.7952 -0.1377
  881SOL    HW2 2643   0.862   0.027   0.331  0.7355  0.9207 -0.9830
  882SOL     OW 2644   2.702   1.617   1.680  0.3553 -0.1194 -0.4694
  882SOL    HW1 2645   2.805   1.597   1.662  3.2015  1.2026 -0.5868
  882SOL    HW2 2646   2.683   1.667   1.767 -0.7904 -1.0645 -2.1202
  883SOL     OW 2647   0.952   0.598   0.966  0.5052  0.0912  0.6861
  883SOL    HW1 2648   0.969   0.692   1.008  0.7283 -2.0407 -2.4044
  883SOL    HW2 2649   1.036   0.542   0.952  1.4273  0.8788 -1.0649
  884SOL     OW 2650   1.179   1.836   1.064 -0.3033  0.3117 -0.9685
  884SOL    HW1 2651   1.151   1.795   0.973  1.5114 -1.9472  2.6019
  884SOL    HW2 2652   1.143   1.936   1.071 -0.2072  1.3343 -0.3216
  885SOL     OW 2653   2.311   1.850   2.299 -0.5906 -0.0230  0.5128
  885SOL    HW1 2654   2.228   1.795   2.316  1.6922  2.3380 -0.6856
  885SOL    HW2 2655   2.298   1.951   2.325  2.2022 -1.6674  1.7269
  886SOL     OW 2656   2.660   0.469   1.774  0.3941  0.0983 -0.0184
  886SOL    HW1 2657   2.713   0.399   1.834  0.9751 -1.8821  0.8800
  886SOL    HW2 2658   2.717   0.545   1.729 -1.1723  1.0016  1.3646
  887SOL     OW 2659   0.120   2.053   1.241 -0.2591 -0.0671  0.2340
  887SOL    HW1 2660   0.050   2.004   1.185 -1.7019  0.6175  2.3841
  887SOL    HW2 2661   0.161   2.136   1.194 -1.4333 -1.7394  0.5982
  888SOL     OW 2662   0.548   1.318   1.559 -0.0502 -0.5007  0.3387
  888SOL    HW1 2663   0.577   1.351   1.461 -2.1494  1.0179 -0.8925
  888SOL    HW2 2664   0.518   1.218   1.565  0.2959 -2.0762 -2.3455
  889SOL     OW 2665   0.835   2.474   2.149  0.3476 -0.2855 -0.4419
  889SOL    HW1 2666   0.775   2.396   2.137  0.9670  1.8748  0.1512
  889SOL    HW2 2667   0.902   2.480   2.073  0.2198  1.3149  2.6359
  890SOL     OW 2668   2.356   2.471   0.198 -0.0928  0.0905 -0.0991
  890SOL    HW1 2669   2.352   2.541   0.124  0.3472  0.2552  1.3862
  890SOL    HW2 2670   2.282   2.482   0.270  0.2735  0.2135 -1.1657
  891SOL     OW 2671   2.636   1.522   0.659 -0.5218 -0.1168 -0.5493
  891SOL    HW1 2672   2.629   1.515   0.763  0.2538 -0.5733 -1.9284
  891SOL    HW2 2673   2.550   1.544   0.608  3.6358  0.4896 -0.5563
  892SOL     OW 2674   0.276   0.246   2.203  0.0056  1.0481  0.3706
  892SOL    HW1 2675   0.282   0.256   2.099  0.7170 -1.2872 -1.4861
  892SOL    HW2 2676   0.360   0.280   2.253 -0.8562  1.3143 -0.3470
  893SOL     OW 2677   1.673   0.226   2.766  0.7214 -0.3789 -0.0729
  893SOL    HW1 2678   1.747   0.297   2.783 -0.3502 -1.3099 -1.7477
  893SOL    HW2 2679   1.582   0.272   2.779  1.5442 -2.1464  1.2460
  894SOL     OW 2680   2.237   2.015   0.047 -0.5645  0.1435  0.4939
  894SOL    HW1 2681   2.198   1.938  -0.004 -2.1325  2.2535  0.0645
  894SOL    HW2 2682   2.272   1.989   0.143 -1.0812 -3.2734 -1.4513
  895SOL     OW 2683   2.860   1.427   0.861  0.6527 -0.1238  0.2158
  895SOL    HW1 2684   2.922   1.363   0.910 -0.6167 -0.0580 -2.4536
  895SOL    HW2 2685   2.913   1.504   0.811 -0.4596 -0.2810 -2.5559
  896SOL     OW 2686   1.746   1.784   1.163 -0.8827  0.0198  0.0815
  896SOL    HW1 2687   1.824   1.832   1.110 -0.2191 -0.3735  0.7518
  896SOL    HW2 2688   1.652   1.803   1.129 -0.8375 -3.2204 -0.6343
  897SOL     OW 2689   0.276   0.559   3.042  0.0467  0.1357  0.3235
  897SOL    HW1 2690   0.228   0.611   2.964 -0.7859 -0.8361 -1.1271
  897SOL    HW2 2691   0.370   0.597   3.077  0.3325 -2.1971  2.2754
  898SOL     OW 2692   0.570   2.829   1.124 -0.3578 -0.0158  0.2443
  898SOL    HW1 2693   0.522   2.921   1.136 -0.0535 -1.5884 -0.6735
  898SOL    HW2 2694   0.670   2.844   1.123 -0.9822  1.0097 -0.0277
  899SOL     OW 2695   2.734   0.947   1.238 -0.2912  0.5272  0.2233
  899SOL    HW1 2696   2.644   0.925   1.190 -2.4530 -0.4449 -0.6284
  899SOL    HW2 2697   2.820   0.957   1.179  0.2409  0.3793 -0.3887
  900SOL     OW 2698   0.989   2.549   2.379  0.2407 -0.1163 -0.8448
  900SOL    HW1 2699   0.913   2.538   2.305 -0.6531  0.2798  1.9341
  900SOL    HW2 2700   0.965   2.504   2.474  3.8033 -4.7631  0.7182
  901SOL     OW 2701   1.921   2.400   1.369  0.9430  0.2535 -0.3757
  901SOL    HW1 2702   1.911   2.421   1.267  1.1647 -1.1492  1.3625
  901SOL    HW2 2703   2.013   2.355   1.386 -1.3548  0.6341 -3.4103
  902SOL     OW 2704   2.588   1.652   1.431 -0.3838  0.2309  0.4724
  902SOL    HW1 2705   2.609   1.637   1.532  0.3043 -0.4442 -0.7904
  902SOL    HW2 2706   2.652   1.590   1.372  0.6079 -2.5532  0.3007
  903SOL     OW 2707   0.246   2.456   2.008 -0.0543 -0.3615  0.6304
  903SOL    HW1 2708   0.200   2.371   1.970 -0.1716  0.1993  0.8306
  903SOL    HW2 2709   0.275   2.531   1.937  1.2228 -0.4059 -1.2010
  904SOL     OW 2710   1.994   0.742   2.400 -0.3419  0.4246  0.7457
  904SOL    HW1 2711   1.925   0.724   2.475  0.2374 -0.3383  4.2343
  904SOL    HW2 2712   1.954   0.746   2.304 -1.0666  0.0527  1.2863
  905SOL     OW 2713   2.805   0.075   2.587 -0.4519 -0.4771  0.1300
  905SOL    HW1 2714   2.876  -0.001   2.583 -1.2711 -0.1513 -2.0847
  905SOL    HW2 2715   2.840   0.158   2.538  0.6032 -1.9819  1.0762
  906SOL     OW 2716   0.171   1.771   1.854  0.6128  0.6009  0.0614
  906SOL    HW1 2717   0.104   1.770   1.777  2.1784 -2.0947 -0.1998
  906SOL    HW2 2718   0.251   1.836   1.837  1.0982 -0.3724 -0.3297
  907SOL     OW 2719   0.166   2.492   1.005  0.1105  0.4363  0.0944
  907SOL    HW1 2720   0.242   2.566   1.011  1.3935  0.6004 -0.3045
  907SOL    HW2 2721   0.170   2.421   0.927  2.2672 -0.8149  0.5854
  908SOL     OW 2722   2.696   2.970   0.449 -0.3675 -0.0005 -0.1257
  908SOL    HW1 2723   2.677   3.044   0.379  0.6204  0.1183 -1.3149
  908SOL    HW2 2724   2.721   2.877   0.416  0.9747  1.3590  3.0223
  909SOL     OW 2725   0.808   0.929   2.678  0.6198 -0.6891 -0.8349
  909SOL    HW1 2726   0.774   0.847   2.620 -0.9177  0.4379 -1.7557
  909SOL    HW2 2727   0.896   0.972   2.641  2.0868 -2.4119  2.7941
  910SOL     OW 2728   1.770   1.833   2.075 -0.2756 -0.0422 -0.1145
  910SOL    HW1 2729   1.848   1.861   2.014 -1.4055 -1.1310 -1.4590
  910SOL    HW2 2730   1.701   1.907   2.092  0.8834  1.2396  0.6632
  911SOL     OW 2731   1.788   2.978   1.606  0.2111  0.1317 -0.5312
  911SOL    HW1 2732   1.888   2.960   1.578 -0.2158  0.0278 -0.1924
  911SOL    HW2 2733   1.761   2.914   1.684 -0.7216  0.6969  0.8419
  912SOL     OW 2734   2.875   0.962   0.775 -0.3317 -0.5034 -0.3218
  912SOL    HW1 2735   2.900   0.958   0.878  0.9795 -0.4065 -0.8189
  912SOL    HW2 2736   2.851   1.061   0.748 -0.7482  0.5016  1.0950
  913SOL     OW 2737   2.562   1.272   1.568 -0.1285  0.1078  0.3254
  913SOL    HW1 2738   2.572   1.172   1.574  1.1595  1.7562 -0.6900
  913SOL    HW2 2739   2.598   1.313   1.475 -3.1956  1.1183 -2.1619
  914SOL     OW 2740   2.801   0.521   1.219 -0.0190 -0.1249  0.6299
  914SOL    HW1 2741   2.749   0.435   1.248  0.8549  0.3727 -0.1455
  914SOL    HW2 2742   2.804   0.587   1.303  1.1097 -0.0144 -0.8540
  915SOL     OW 2743   1.222   0.820   0.995 -0.9011  0.3170  0.0441
  915SOL    HW1 2744   1.285   0.806   1.078  0.3899 -2.5988  0.5422
  915SOL    HW2 2745   1.123   0.841   1.019 -2.3085  2.5049 -0.2815
  916SOL     OW 2746   0.596   0.012   0.673 -0.4554  0.2812 -0.1469
  916SOL    HW1 2747   0.620   0.089   0.741  0.9985  1.9315 -0.8749
  916SOL    HW2 2748   0.609   0.049   0.574 -1.5518 -0.5630 -0.6151
  917SOL     OW 2749   2.815   2.600   1.992 -0.3059  0.2633 -0.2417
  917SOL    HW1 2750   2.713   2.615   1.987  3.3232  0.7271  1.1783
  917SOL    HW2 2751   2.869   2.681   1.957 -0.9256 -0.1607 -1.1182
  918SOL     OW 2752   1.015   2.219   3.021 -0.6517 -0.1857  0.5928
  918SOL    HW1 2753   0.942   2.224   3.096 -0.1539  2.2296  0.7073
  918SOL    HW2 2754   1.068   2.129   3.022  0.4011 -0.3231 -0.2715
  919SOL     OW 2755   0.908   1.595   2.809  0.1703 -0.4075 -0.0496
  919SOL    HW1 2756   0.971   1.671   2.776 -1.8585  0.0238 -0.5422
  919SOL    HW2 2757   0.877   1.529   2.733 -0.0860 -0.1128 -0.1389
  920SOL     OW 2758   1.270   2.000   2.493 -0.2893  0.5917  0.4591
  920SOL    HW1 2759   1.267   1.986   2.390 -0.6267  1.6976 -2.1020
  920SOL    HW2 2760   1.272   1.905   2.543 -3.7594 -2.6403 -1.0749
  921SOL     OW 2761   1.100   0.055   2.574  0.0741 -0.2850 -0.2658
  921SOL    HW1 2762   1.086   0.070   2.468  0.6153  0.9925 -2.0918
  921SOL    HW2 2763   1.013   0.075   2.623  0.2346  0.6037  0.2934
  922SOL     OW 2764   2.145   2.382   2.846 -0.0170  0.0288 -1.3739
  922SOL    HW1 2765   2.159   2.279   2.829 -0.4261  0.9141  0.2735
  922SOL    HW2 2766   2.065   2.422   2.793  2.2172 -0.2952 -0.0735
  923SOL     OW 2767   1.252   2.694   0.255 -0.1421  0.5537 -0.3756
  923SOL    HW1 2768   1.342   2.732   0.286 -0.8101 -1.7682  1.2278
  923SOL    HW2 2769   1.249   2.589   0.236 -1.9634 -0.4152  0.1157
  924SOL     OW 2770   2.895   1.566   0.090  0.5276 -0.0649 -0.2404
  924SOL    HW1 2771   2.812   1.583   0.026  0.9598  0.5932  0.8038
  924SOL    HW2 2772   2.984   1.549   0.041 -0.6590 -1.0059 -1.0130
  925SOL     OW 2773   3.100   2.914   1.565  0.2653 -0.2231  1.0633
  925SOL    HW1 2774   3.003   2.954   1.581 -1.1581 -0.0396  0.7000
  925SOL    HW2 2775   3.100   2.832   1.507  0.3409  1.1727  0.0095
  926SOL     OW 2776   1.345   2.854   1.314  0.0996  1.0459 -0.0908
  926SOL    HW1 2777   1.397   2.865   1.225  1.6509  0.2073  2.6319
  926SOL    HW2 2778   1.357   2.936   1.378 -0.3701 -0.7032  2.2522
  927SOL     OW 2779   0.280   2.634   1.793 -0.0625  0.0746 -0.1505
  927SOL    HW1 2780   0.256   2.560   1.722 -0.1392 -0.8645 -0.6079
  927SOL    HW2 2781   0.266   2.726   1.744 -1.0760 -2.0990 -0.7349
  928SOL     OW 2782   1.569   2.017   2.136 -0.1357 -0.3151 -0.2754
  928SOL    HW1 2783   1.605   2.109   2.108 -0.9006 -0.2275 -2.6030
  928SOL    HW2 2784   1.475   2.014   2.102  2.2343 -0.9898  0.4682
  929SOL     OW 2785   2.413   2.485   2.859 -0.1504 -0.0998 -0.1909
  929SOL    HW1 2786   2.309   2.457   2.860  1.4779 -1.9653 -1.7732
  929SOL    HW2 2787   2.458   2.469   2.770 -0.9114  1.0918  2.1802
  930SOL     OW 2788   2.170   2.016   1.062  0.2371  0.3097  0.1725
  930SOL    HW1 2789   2.182   1.959   1.149  0.9609 -1.0829  1.4816
  930SOL    HW2 2790   2.232   2.097   1.044 -0.5936  0.7914 -1.1998
  931SOL     OW 2791   0.535   1.710   2.667 -0.2503  0.0494 -0.5349
  931SOL    HW1 2792   0.599   1.753   2.737  1.1158  3.5451  0.0348
  931SOL    HW2 2793   0.575   1.618   2.635  1.2345 -3.5021  0.1253
  932SOL     OW 2794   0.461   0.046   2.917  0.0872  0.2699 -0.2612
  932SOL    HW1 2795   0.555   0.085   2.909 -2.5071 -1.8135  1.4045
  932SOL    HW2 2796   0.453  -0.038   2.975  1.7618 -0.4428  1.1172
  933SOL     OW 2797   1.066   0.767   2.998  0.0982  0.2058 -0.2006
  933SOL    HW1 2798   1.148   0.778   3.062 -0.9995  1.4000  0.3994
  933SOL    HW2 2799   1.031   0.861   2.967 -3.1060 -1.4999  0.2324
  934SOL     OW 2800   0.883   3.023   2.710 -0.3833  0.3323  0.0295
  934SOL    HW1 2801   0.915   2.942   2.651 -0.2854  3.5302 -1.7449
  934SOL    HW2 2802   0.920   3.006   2.809  0.2065  0.0563  0.0839
  935SOL     OW 2803   3.087   0.531   0.791 -0.3766 -0.6305 -0.3891
  935SOL    HW1 2804   3.082   0.446   0.738  0.7523 -1.9950  0.6885
  935SOL    HW2 2805   2.994   0.582   0.807 -1.6113  0.6745  0.3428
  936SOL     OW 2806   1.117   2.913   0.142 -0.1889  0.0088  0.2378
  936SOL    HW1 2807   1.155   2.935   0.043  1.0556 -2.3538 -2.7170
  936SOL    HW2 2808   1.169   2.833   0.186 -0.1981  1.1064 -1.2531
  937SOL     OW 2809   1.908   2.627   2.106 -0.4709 -0.4417  0.0973
  937SOL    HW1 2810   1.816   2.656   2.138  2.8309  0.8301 -0.7662
  937SOL    HW2 2811   1.910   2.647   2.004  0.1956 -0.8069 -1.3714
  938SOL     OW 2812   2.717   2.089   1.579  0.1804  0.3835 -0.1540
  938SOL    HW1 2813   2.716   2.191   1.566 -0.7669 -1.9687 -2.3027
  938SOL    HW2 2814   2.806   2.048   1.618 -1.4154  0.7354 -0.4430
  939SOL     OW 2815   2.844   1.254   2.471 -0.8795  0.5162 -0.0520
  939SOL    HW1 2816   2.908   1.225   2.392  1.2440  0.9098  1.0693
  939SOL    HW2 2817   2.854   1.195   2.558  0.3293 -0.3275 -0.1396
  940SOL     OW 2818   0.989   0.453   2.677  0.1925  0.2687 -0.5524
  940SOL    HW1 2819   1.042   0.361   2.677 -2.0767 -3.4288 -1.0211
  940SOL    HW2 2820   0.888   0.425   2.653 -1.4144 -1.4908 -0.7810
  941SOL     OW 2821   0.043   2.866   2.204  0.0413 -0.1042  0.4549
  941SOL    HW1 2822   0.080   2.762   2.198 -1.9064  0.6694 -2.1148
  941SOL    HW2 2823   0.083   2.920   2.285  0.5070  1.6254  0.9979
  942SOL     OW 2824   0.045   0.132   2.549  0.2757 -0.1996  0.2645
  942SOL    HW1 2825   0.126   0.126   2.613 -0.9186  1.6779  0.2855
  942SOL    HW2 2826   0.052   0.202   2.472 -0.9683  1.9963  0.7270
  943SOL     OW 2827   2.111   1.676   2.430 -0.3660  0.7098  0.1817
  943SOL    HW1 2828   2.128   1.593   2.370  0.9598  2.5184 -1.2524
  943SOL    HW2 2829   2.107   1.638   2.533 -0.5180  0.5983  1.8328
  944SOL     OW 2830   2.177   2.326   1.466 -0.1949 -0.0067 -0.2902
  944SOL    HW1 2831   2.257   2.385   1.502 -1.5269  3.0571  0.1340
  944SOL    HW2 2832   2.135   2.275   1.547 -0.6203  0.6244  1.3765
  945SOL     OW 2833   0.626   1.486   0.366 -0.6426 -0.1359  0.3443
  945SOL    HW1 2834   0.659   1.533   0.279 -0.3002 -1.1385 -2.4370
  945SOL    HW2 2835   0.634   1.381   0.363 -1.2254 -2.5462  0.5854
  946SOL     OW 2836   0.444   0.930   2.525  0.2767 -0.2816 -0.5887
  946SOL    HW1 2837   0.368   0.889   2.464 -1.1891  0.2856  0.0215
  946SOL    HW2 2838   0.414   1.022   2.553 -4.1503 -1.1817 -0.9053
  947SOL     OW 2839   1.546   0.578   0.036  0.2134  0.1896 -0.7718
  947SOL    HW1 2840   1.489   0.617  -0.040  1.6482 -0.3126  0.6146
  947SOL    HW2 2841   1.488   0.545   0.120 -1.3852 -2.1904  1.9347
  948SOL     OW 2842   2.050   3.075   2.192  0.5042  0.3763 -0.0975
  948SOL    HW1 2843   2.042   3.030   2.099  1.8771  3.0300  0.5391
  948SOL    HW2 2844   2.023   3.014   2.272  0.1866  0.6478  1.4339
  949SOL     OW 2845   0.683   2.538   0.499  0.2874  0.4966  0.3017
  949SOL    HW1 2846   0.662   2.640   0.501  1.4282 -1.0470 -2.8284
  949SOL    HW2 2847   0.677   2.495   0.592  1.0106 -1.0631 -1.8775
  950SOL     OW 2848   0.235   2.146   3.048  0.4113  0.3552  0.2027
  950SOL    HW1 2849   0.157   2.213   3.031  0.7437  0.0430  0.9015
  950SOL    HW2 2850   0.219   2.065   2.984  1.0108 -0.0022 -0.3921
  951SOL     OW 2851   1.191   2.862   2.701 -0.4505 -0.0418  0.3284
  951SOL    HW1 2852   1.160   2.921   2.629 -0.1460 -1.3167  0.6017
  951SOL    HW2 2853   1.291   2.874   2.730 -0.6331  0.2217  0.9602
  952SOL     OW 2854   0.098   1.644   0.435 -0.2908  0.0393  0.2993
  952SOL    HW1 2855   0.154   1.727   0.461  0.8662  3.0144 -2.4738
  952SOL    HW2 2856   0.052   1.590   0.514 -2.7896 -0.3778 -1.5828
  953SOL     OW 2857   2.508   1.779   0.162  0.3519  0.3674  0.0581
  953SOL    HW1 2858   2.519   1.680   0.192 -0.6280 -2.4163  1.8676
  953SOL    HW2 2859   2.570   1.811   0.081  2.5224 -3.0858  1.0192
  954SOL     OW 2860   2.181   0.529   0.991  0.4137  0.0521 -0.1525
  954SOL    HW1 2861   2.171   0.549   0.892 -0.2744  0.3142 -1.4466
  954SOL    HW2 2862   2.275   0.489   1.014  0.2827 -1.7096  0.8487
  955SOL     OW 2863   0.257   2.678   1.378  0.1395  0.6008 -0.3184
  955SOL    HW1 2864   0.160   2.676   1.419  0.2249 -1.3147  0.2622
  955SOL    HW2 2865   0.254   2.670   1.276  0.4789 -0.0745 -0.6374
  956SOL     OW 2866   2.758   2.436   2.445 -0.3295  0.2157  0.4150
  956SOL    HW1 2867   2.794   2.343   2.444 -0.5344  5.2078  2.6579
  956SOL    HW2 2868   2.808   2.495   2.374 -0.2388  0.3872 -2.0342
  957SOL     OW 2869   1.546   2.026   2.751  0.1199 -0.7950 -0.2459
  957SOL    HW1 2870   1.541   1.918   2.738  1.1181 -0.7449 -0.7655
  957SOL    HW2 2871   1.511   2.072   2.664  1.7270 -0.0623 -0.7306
  958SOL     OW 2872   2.733   2.318   2.956  0.1645  0.2452  0.1208
  958SOL    HW1 2873   2.640   2.364   2.932 -0.7000  1.4567 -0.4565
  958SOL    HW2 2874   2.736   2.253   3.041 -0.4273 -0.3158  0.2037
  959SOL     OW 2875   0.245   2.748   0.129  0.0170 -0.1860  0.2528
  959SOL    HW1 2876   0.151   2.746   0.084 -0.0206 -4.2852 -0.1435
  959SOL    HW2 2877   0.262   2.666   0.189 -0.4815  3.0679 -0.6793
  960SOL     OW 2878   1.987   0.422   1.935 -0.2248  0.4721  0.1316
  960SOL    HW1 2879   1.932   0.503   1.900 -0.3481  1.8472 -2.0116
  960SOL    HW2 2880   1.985   0.409   2.040  0.0790  1.1489 -0.4887
  961SOL     OW 2881   2.555   1.827   1.040  0.6509 -0.1510 -0.3624
  961SOL    HW1 2882   2.530   1.913   0.987 -1.8276  0.1793  1.8803
  961SOL    HW2 2883   2.545   1.842   1.144  0.4486  1.3063  0.9620
  962SOL     OW 2884   1.259   0.905   0.036  0.5394 -0.2568  0.4456
  962SOL    HW1 2885   1.278   0.970  -0.047  0.3226 -0.6074 -1.6348
  962SOL    HW2 2886   1.276   0.956   0.126  0.5414  1.4733 -0.3292
  963SOL     OW 2887   2.200   2.556   1.843  0.3054 -0.0894  0.4317
  963SOL    HW1 2888   2.180   2.462   1.878  1.0267  0.0095 -0.9133
  963SOL    HW2 2889   2.250   2.616   1.909 -2.0317 -1.0503 -1.2933
  964SOL     OW 2890   2.401   0.425   1.687  0.2283  0.2686  0.1328
  964SOL    HW1 2891   2.491   0.454   1.728  0.6854  1.5974  0.6771
  964SOL    HW2 2892   2.401   0.403   1.589 -2.4342  1.4744  0.9563
  965SOL     OW 2893   2.600   3.074   0.222  0.2232 -0.1344 -0.1981
  965SOL    HW1 2894   2.653   3.082   0.129  1.4318  0.5163 -0.6585
  965SOL    HW2 2895   2.501   3.056   0.197 -2.7423 -0.7933 -0.5569
  966SOL     OW 2896   2.472   2.458   2.284 -0.0284 -0.0400  0.7148
  966SOL    HW1 2897   2.382   2.419   2.326  0.9181  1.8814  2.0711
  966SOL    HW2 2898   2.467   2.559   2.272  0.6367 -0.7456 -0.6966
  967SOL     OW 2899   2.808   2.789   2.442  0.2244 -0.3137  0.3785
  967SOL    HW1 2900   2.839   2.733   2.361 -2.6083  0.3491  1.4097
  967SOL    HW2 2901   2.872   2.870   2.453  1.4052  0.2136  0.8424
  968SOL     OW 2902   1.912   1.084   2.674 -0.3977 -0.1082 -0.1089
  968SOL    HW1 2903   1.883   1.151   2.601  2.7357 -0.1195 -2.3701
  968SOL    HW2 2904   1.935   0.993   2.633  1.6881 -3.7350 -0.6158
  969SOL     OW 2905   2.736   2.458   1.082 -0.4495 -0.2024  0.0061
  969SOL    HW1 2906   2.678   2.414   1.009 -1.7422  1.5464  1.2498
  969SOL    HW2 2907   2.789   2.388   1.135  2.3365  0.8130 -1.2177
  970SOL     OW 2908   1.045   2.140   1.795 -0.0275 -0.0414  0.1639
  970SOL    HW1 2909   0.962   2.147   1.729  0.6302 -0.8804 -2.8615
  970SOL    HW2 2910   1.023   2.173   1.892 -1.2930 -0.3537 -0.8952
  971SOL     OW 2911   2.807   2.099   1.875 -0.0543  0.1884  0.4091
  971SOL    HW1 2912   2.834   2.197   1.900  0.7373  1.1699  0.9136
  971SOL    HW2 2913   2.883   2.054   1.818  1.8507  0.5152 -0.7556
  972SOL     OW 2914   2.006   2.360   0.206  0.9482 -0.2576 -0.0129
  972SOL    HW1 2915   2.014   2.294   0.128 -0.0838 -0.6220  1.9949
  972SOL    HW2 2916   2.027   2.314   0.296 -0.2654 -1.8330 -2.4169
  973SOL     OW 2917   1.332   1.064   1.945  0.1324 -0.0216  0.1992
  973SOL    HW1 2918   1.277   1.047   1.857  1.9911 -0.1783  1.4351
  973SOL    HW2 2919   1.310   1.153   1.993  0.2642 -1.3120  0.8065
  974SOL     OW 2920   1.606   0.583   1.989 -0.2475  0.1207  0.3440
  974SOL    HW1 2921   1.698   0.579   1.942 -3.0099  0.8242 -2.2163
  974SOL    HW2 2922   1.547   0.659   1.948 -0.4212 -1.5724  2.2491
  975SOL     OW 2923   2.363   3.016   0.037 -0.1792  0.1594  0.2930
  975SOL    HW1 2924   2.303   2.937   0.074  0.8691  1.4911  0.6667
  975SOL    HW2 2925   2.420   2.992  -0.046  0.7164  0.3435 -1.6751
  976SOL     OW 2926   1.933   2.900   2.369  0.0983 -0.3765  0.1637
  976SOL    HW1 2927   1.862   2.853   2.310 -2.8288  1.0615 -2.3780
  976SOL    HW2 2928   1.966   2.836   2.442 -1.1204  1.2919  0.0410
  977SOL     OW 2929   0.449   0.649   1.015  0.1297 -0.3932 -0.4618
  977SOL    HW1 2930   0.380   0.706   0.969  1.4363 -0.6844 -0.5809
  977SOL    HW2 2931   0.535   0.626   0.953 -1.5236 -0.4405 -3.4630
   3.10000   3.10000   3.10000
