1000 SPC/Fw water molecules t=   1.32000 step= 1320
 2931
    1SOL     OW    1   2.535   0.348   2.618 -0.3958 -0.5056  0.9483
    1SOL    HW1    2   2.549   0.250   2.611  0.0272  2.4001 -1.0111
    1SOL    HW2    3   2.586   0.381   2.704  2.0912 -1.2468  0.4284
    2SOL     OW    4   2.759   2.992   1.368  0.0802  0.1861  0.1791
    2SOL    HW1    5   2.855   3.000   1.317  0.5985 -1.3545 -0.3741
    2SOL    HW2    6   2.739   3.077   1.426  1.8610 -0.4642 -0.7041
    3SOL     OW    7   2.628   2.575   0.426  0.2467  0.1817  0.1263
    3SOL    HW1    8   2.593   2.476   0.433  1.6638 -0.6484  1.3920
    3SOL    HW2    9   2.655   2.609   0.520  3.4081  1.5006  0.1592
    4SOL     OW   10   1.230   1.511   2.413 -0.1607 -0.5461  0.1082
    4SOL    HW1   11   1.172   1.533   2.329 -1.1133 -1.8129  0.3881
    4SOL    HW2   12   1.267   1.410   2.409 -1.4707 -0.0192 -0.5423
    5SOL     OW   13   1.179   1.568   2.911 -0.3292 -0.2520 -0.5479
    5SOL    HW1   14   1.235   1.647   2.954 -0.9097  0.1133 -1.1691
    5SOL    HW2   15   1.080   1.588   2.902  0.0457 -1.3270  2.4223
    6SOL     OW   16   0.262   1.848   3.020 -0.7190  0.3013 -0.5604
    6SOL    HW1   17   0.169   1.835   3.064  3.8741  1.4868 -0.8226
    6SOL    HW2   18   0.332   1.849   3.094 -2.5916 -0.2887  1.2646
    7SOL     OW   19   2.522   0.859   1.054 -0.4721  1.1856 -0.0906
    7SOL    HW1   20   2.433   0.827   1.097 -0.1241 -0.8699 -0.0382
    7SOL    HW2   21   2.532   0.829   0.954  3.2332 -2.5868 -0.6344
    8SOL     OW   22   0.398   0.609   1.496  0.4287  0.3109 -0.0247
    8SOL    HW1   23   0.484   0.554   1.520  3.0409  0.2380 -0.9766
    8SOL    HW2   24   0.400   0.633   1.399  1.3359  0.9375  0.3621
    9SOL     OW   25   1.189   0.850   2.420 -0.3619 -0.0092 -0.5531
    9SOL    HW1   26   1.239   0.895   2.337  1.0442 -1.9386 -1.2157
    9SOL    HW2   27   1.153   0.758   2.395 -1.2229  1.8511  2.1428
   10SOL     OW   28   0.674   1.388   1.301  0.2215 -0.0385 -0.0304
   10SOL    HW1   29   0.603   1.416   1.228 -1.4649 -0.5789 -4.7901
   10SOL    HW2   30   0.729   1.470   1.327  0.0238 -1.2719  0.2242
   11SOL     OW   31   2.316   2.824   0.818 -0.0524  0.1946 -0.1422
   11SOL    HW1   32   2.268   2.841   0.909  0.0355 -0.3285 -2.0870
   11SOL    HW2   33   2.388   2.744   0.829  0.5761 -4.2019  2.9105
   12SOL     OW   34   1.473   0.837   0.428 -0.0272  0.6522 -0.0557
   12SOL    HW1   35   1.416   0.874   0.352 -0.2686  0.6358  0.0407
   12SOL    HW2   36   1.537   0.760   0.401 -1.2560  0.5372  2.1183
   13SOL     OW   37   2.415   0.740   1.755 -0.1400 -0.0672  0.1438
   13SOL    HW1   38   2.346   0.680   1.799  0.7452  0.5347 -0.4822
   13SOL    HW2   39   2.428   0.707   1.660  1.6182  0.3947 -0.7357
   14SOL     OW   40   1.922   0.038   0.642  0.4449 -0.4865 -0.3358
   14SOL    HW1   41   1.819   0.052   0.635  1.1122 -1.3615 -1.1678
   14SOL    HW2   42   1.949  -0.033   0.711  2.8121 -0.7482 -1.3594
   15SOL     OW   43   1.902   2.102   2.655  0.3306  0.2337 -0.5155
   15SOL    HW1   44   1.853   2.165   2.723 -0.3334 -0.4265 -0.6231
   15SOL    HW2   45   1.842   2.029   2.615 -0.4735 -0.4452  0.0478
   16SOL     OW   46   1.600   1.696   2.993 -0.2905  0.1293 -0.3011
   16SOL    HW1   47   1.588   1.608   3.048  0.8851  0.1388 -0.7215
   16SOL    HW2   48   1.686   1.755   3.019  2.1627 -0.2966  0.9965
   17SOL     OW   49   0.129   0.434   0.181 -0.1158 -0.5059  0.1274
   17SOL    HW1   50   0.214   0.465   0.130  1.7365  0.6107 -2.0050
   17SOL    HW2   51   0.041   0.426   0.123 -0.8124 -1.0391 -1.4351
   18SOL     OW   52   0.935   2.970   2.164  0.2854  0.9983  0.1357
   18SOL    HW1   53   0.872   2.884   2.166  1.4386 -3.6405  1.2320
   18SOL    HW2   54   0.995   2.981   2.083 -1.8980  0.0918 -0.0369
   19SOL     OW   55   0.512   0.834   1.889  0.5971  0.1675  0.0744
   19SOL    HW1   56   0.573   0.781   1.951  0.2619 -0.9898 -0.6671
   19SOL    HW2   57   0.556   0.921   1.849  0.1375  2.6412 -0.6041
   20SOL     OW   58   0.220   2.818   0.854 -0.0439  0.5003  0.5246
   20SOL    HW1   59   0.126   2.857   0.834 -2.2921 -1.4594  1.4129
   20SOL    HW2   60   0.244   2.728   0.799  0.4661  0.4597 -2.2306
   21SOL     OW   61   2.749   0.253   1.948  0.5736 -0.0256  0.2287
   21SOL    HW1   62   2.686   0.193   1.887 -1.6724 -0.3665 -0.3009
   21SOL    HW2   63   2.824   0.198   1.991  0.1977 -0.0755 -1.9375
   22SOL     OW   64   2.347   0.196   0.120  0.2660  0.3653  0.1317
   22SOL    HW1   65   2.356   0.101   0.072 -0.5902 -4.1461 -2.7478
   22SOL    HW2   66   2.299   0.274   0.067  1.6177  2.2307 -1.3416
   23SOL     OW   67   2.803   0.550   0.660 -0.2036 -0.1944 -0.2003
   23SOL    HW1   68   2.800   0.458   0.609  1.3381 -1.1236 -2.0256
   23SOL    HW2   69   2.861   0.627   0.621 -0.7370  2.4461  1.9981
   24SOL     OW   70   0.247   1.886   0.478 -0.1728 -0.6329  0.0039
   24SOL    HW1   71   0.228   1.967   0.414 -0.6548  1.8397 -3.0161
   24SOL    HW2   72   0.350   1.874   0.478 -0.6395 -2.3226  0.0363
   25SOL     OW   73   2.219   0.632   0.187 -0.1320 -0.2121  0.8762
   25SOL    HW1   74   2.238   0.628   0.087 -1.5629  0.9831  0.6134
   25SOL    HW2   75   2.269   0.558   0.242  1.3598  1.8916  1.2721
   26SOL     OW   76   2.451   2.156   2.098  0.0678 -0.1167  0.3409
   26SOL    HW1   77   2.525   2.225   2.129 -0.2977  2.7911  1.5886
   26SOL    HW2   78   2.483   2.095   2.019  2.0267 -0.6987 -0.1007
   27SOL     OW   79   0.640   2.939   0.266 -0.2639  0.5948 -0.5936
   27SOL    HW1   80   0.720   2.986   0.216  1.3232  1.1700 -1.0130
   27SOL    HW2   81   0.577   2.884   0.210 -2.1350  1.8970  1.6574
   28SOL     OW   82   1.569   0.120   0.331  0.3061 -0.0832  0.0134
   28SOL    HW1   83   1.600   0.087   0.238 -3.0312 -0.0071  1.5159
   28SOL    HW2   84   1.601   0.216   0.353  0.3022 -0.5343 -0.0635
   29SOL     OW   85   1.944   0.561   0.278  0.4603  0.1949 -0.1844
   29SOL    HW1   86   1.881   0.595   0.350 -1.6683 -1.2407 -0.9861
   29SOL    HW2   87   2.018   0.621   0.242 -0.3664  1.3922 -0.0190
   30SOL     OW   88   0.187   2.086   0.877 -0.1204  0.0616 -0.4021
   30SOL    HW1   89   0.134   2.009   0.831 -1.3891  2.8984  0.9439
   30SOL    HW2   90   0.131   2.167   0.904 -0.0642 -1.2286  0.3172
   31SOL     OW   91   2.161   0.123   2.423  0.5061 -0.0264  0.1806
   31SOL    HW1   92   2.125   0.091   2.514  3.8937  0.8949 -1.2298
   31SOL    HW2   93   2.108   0.083   2.343 -0.6893 -1.0405  1.7706
   32SOL     OW   94   2.964   0.033   0.257 -0.0559 -0.7830 -0.0464
   32SOL    HW1   95   2.954  -0.055   0.306  0.0566 -0.1455  2.0960
   32SOL    HW2   96   3.055   0.083   0.288  1.4144  0.6606  1.5045
   33SOL     OW   97   0.896   0.286   0.606  0.1877 -0.3225  0.0818
   33SOL    HW1   98   0.899   0.208   0.540  1.1034 -2.1659 -1.2382
   33SOL    HW2   99   0.989   0.334   0.609 -1.5215  1.0867 -0.3641
   34SOL     OW  100   0.317   2.737   1.089 -0.4816  0.1274 -0.0789
   34SOL    HW1  101   0.276   2.772   0.999 -0.9828 -0.0065 -1.4811
   34SOL    HW2  102   0.413   2.774   1.107 -0.3569  0.7177 -1.1255
   35SOL     OW  103   0.054   0.114   1.873  0.5985  0.0689  0.4207
   35SOL    HW1  104   0.089   0.020   1.911 -0.1948 -1.4237  2.5617
   35SOL    HW2  105  -0.021   0.096   1.799  1.3298 -0.0918 -0.4329
   36SOL     OW  106   1.822   1.232   1.567 -0.5464 -0.4226 -0.6426
   36SOL    HW1  107   1.881   1.150   1.584 -0.5086 -0.2337 -1.3920
   36SOL    HW2  108   1.882   1.307   1.523  2.7202 -3.8943 -1.2493
   37SOL     OW  109   1.195   0.215   0.956 -0.3945 -0.2858  0.4696
   37SOL    HW1  110   1.246   0.291   0.997 -1.3912  0.1379  1.0236
   37SOL    HW2  111   1.259   0.147   0.911 -1.2725 -0.4326  1.0363
   38SOL     OW  112   1.144   2.882   2.349 -0.3491  0.4761  0.2404
   38SOL    HW1  113   1.087   2.806   2.378  0.4160 -0.2838  2.1829
   38SOL    HW2  114   1.101   2.968   2.307 -0.6512  1.4407  2.3765
   39SOL     OW  115   2.363   1.356   3.026  0.5825  0.2387 -0.0382
   39SOL    HW1  116   2.440   1.283   3.033  1.1994 -2.3191 -0.6124
   39SOL    HW2  117   2.321   1.382   3.120 -1.2375 -2.3205  0.4896
   40SOL     OW  118   2.004   2.464   2.608  0.4555  0.5883  0.2584
   40SOL    HW1  119   1.980   2.562   2.586  2.9399 -1.4962  1.2522
   40SOL    HW2  120   1.977   2.396   2.533 -0.5151 -0.8784 -1.1807
   41SOL     OW  121   3.040   0.651   2.798  0.1845  0.0292  0.0430
   41SOL    HW1  122   2.957   0.712   2.781 -1.6519  2.2692 -1.6698
   41SOL    HW2  123   3.044   0.574   2.727  1.3435 -0.8458 -0.7813
   42SOL     OW  124   1.763   1.786   0.544  0.2999 -0.2169  0.1767
   42SOL    HW1  125   1.713   1.703   0.511 -1.9398  1.3547 -0.4440
   42SOL    HW2  126   1.814   1.838   0.467  0.2202 -2.2392  0.9892
   43SOL     OW  127   0.471   1.666   1.247  0.1998  0.3843  0.8188
   43SOL    HW1  128   0.464   1.576   1.196 -2.0798  2.3967  1.0474
   43SOL    HW2  129   0.422   1.665   1.342  0.5655  0.0049  1.4791
   44SOL     OW  130   1.677   2.404   3.019 -0.2779  0.4743  0.4117
   44SOL    HW1  131   1.595   2.466   3.000 -2.2714  1.2915 -2.9311
   44SOL    HW2  132   1.749   2.399   2.945  0.6232  1.1916 -0.4961
   45SOL     OW  133   0.379   1.902   2.570  0.5369  0.1840  0.1047
   45SOL    HW1  134   0.317   1.887   2.490 -0.1986 -1.4263  1.3705
   45SOL    HW2  135   0.441   1.819   2.597 -0.9731 -1.4120 -0.4059
   46SOL     OW  136   1.303   0.648   0.149  0.3113  0.0061  0.4509
   46SOL    HW1  137   1.280   0.739   0.104  0.8370 -0.0810  2.0889
   46SOL    HW2  138   1.217   0.589   0.172 -1.0855 -0.2729  0.2378
   47SOL     OW  139   0.190   2.493   1.591  0.0924  0.0542  0.4857
   47SOL    HW1  140   0.152   2.398   1.598 -1.1969  1.3510 -1.7228
   47SOL    HW2  141   0.212   2.525   1.497  0.2859 -1.5395 -0.4952
   48SOL     OW  142   2.623   0.611   0.141 -0.3810  0.0173 -0.0250
   48SOL    HW1  143   2.613   0.627   0.245 -0.3785 -0.5876  1.3882
   48SOL    HW2  144   2.720   0.637   0.113  3.5324  1.1702 -0.1362
   49SOL     OW  145   0.325   0.761   1.713 -0.3749 -0.0999  0.8951
   49SOL    HW1  146   0.400   0.765   1.783  1.4045 -1.9668 -0.6541
   49SOL    HW2  147   0.368   0.723   1.624 -0.5377 -0.5040 -0.4394
   50SOL     OW  148   1.712   1.132   0.313  0.2630  0.3906 -0.4684
   50SOL    HW1  149   1.735   1.029   0.292  1.3451 -0.0341  0.2898
   50SOL    HW2  150   1.662   1.145   0.406  2.5016  1.3340  1.7414
   51SOL     OW  151   3.014   1.737   0.257  0.1837  0.4757  0.1251
   51SOL    HW1  152   2.951   1.664   0.217  1.4566 -1.0286  1.1279
   51SOL    HW2  153   3.086   1.703   0.326  1.1411  1.3874  1.9756
   52SOL     OW  154   0.821   2.153   0.637  0.1306 -0.1410  0.1678
   52SOL    HW1  155   0.719   2.172   0.661  0.1079  0.1300 -0.9815
   52SOL    HW2  156   0.857   2.067   0.680  0.0618 -0.3120  1.8283
   53SOL     OW  157   0.180   0.468   1.566 -0.1586 -0.8746  0.4085
   53SOL    HW1  158   0.260   0.525   1.528 -1.2669  1.0352  3.4241
   53SOL    HW2  159   0.092   0.479   1.504  1.1326  0.3432 -0.5884
   54SOL     OW  160   1.806   0.501   3.054 -0.5134  0.1537 -0.0867
   54SOL    HW1  161   1.856   0.439   3.121  1.1582 -0.5660  1.4772
   54SOL    HW2  162   1.708   0.505   3.085 -0.4879  0.2984  1.3006
   55SOL     OW  163   0.737   2.891   0.712 -0.3290  0.1410 -0.4283
   55SOL    HW1  164   0.684   2.979   0.700 -2.3636 -0.4886  0.5619
   55SOL    HW2  165   0.835   2.905   0.698 -0.7885  0.2940  1.1782
   56SOL     OW  166   0.573   1.625   0.025  0.2670 -0.0855 -0.0974
   56SOL    HW1  167   0.501   1.680   0.074 -1.7510 -2.7673  0.5329
   56SOL    HW2  168   0.533   1.545  -0.029 -0.6920 -0.8791 -2.0376
   57SOL     OW  169   1.749   2.505   2.411  0.4648 -0.2352  0.2275
   57SOL    HW1  170   1.804   2.417   2.399 -0.8988 -1.4136  0.8650
   57SOL    HW2  171   1.660   2.495   2.476 -0.8102  1.3801 -0.9156
   58SOL     OW  172   0.649   0.255   1.127 -0.4206  0.4736  0.4176
   58SOL    HW1  173   0.564   0.278   1.180  1.9037  2.2413 -1.7854
   58SOL    HW2  174   0.692   0.162   1.140  1.6745  1.5880  1.6579
   59SOL     OW  175   0.414   2.403   2.738  0.1161  0.6694  0.0229
   59SOL    HW1  176   0.386   2.313   2.690 -0.0468 -2.4213 -1.7831
   59SOL    HW2  177   0.492   2.382   2.804 -1.0248 -1.9608 -2.6230
   60SOL     OW  178   2.321   2.129   2.339 -0.6801  0.0583  0.0214
   60SOL    HW1  179   2.391   2.157   2.266  1.0879  2.3208 -1.3156
   60SOL    HW2  180   2.321   2.188   2.427 -2.9936  1.0031  1.5027
   61SOL     OW  181   1.216   0.628   0.438  0.1376  0.2788  0.4988
   61SOL    HW1  182   1.125   0.671   0.471 -1.8628  1.8573  2.5831
   61SOL    HW2  183   1.259   0.663   0.354 -0.0349  2.0827 -0.5582
   62SOL     OW  184   2.714   1.715   2.817 -0.0489  0.4353 -1.0106
   62SOL    HW1  185   2.695   1.776   2.736 -0.3503 -1.3305 -0.9981
   62SOL    HW2  186   2.804   1.660   2.803  3.4397  2.3153 -2.1129
   63SOL     OW  187   0.562   0.894   0.200 -0.4960  0.2743 -0.5212
   63SOL    HW1  188   0.620   0.941   0.127  1.9066 -2.2645 -0.8619
   63SOL    HW2  189   0.612   0.862   0.286 -1.3129 -1.7100  0.4573
   64SOL     OW  190   3.044   0.538   2.370  0.2782 -0.4518 -0.7937
   64SOL    HW1  191   2.971   0.578   2.434 -0.8385 -1.2574  3.4601
   64SOL    HW2  192   3.078   0.598   2.292  2.1532  1.1180 -2.7583
   65SOL     OW  193   0.219   1.452   0.692 -0.1922  0.3345  0.0037
   65SOL    HW1  194   0.214   1.523   0.775  0.8596 -1.8719  5.7644
   65SOL    HW2  195   0.280   1.477   0.613  1.7813 -2.7797  2.3821
   66SOL     OW  196   2.523   0.383   0.530  0.5384  0.1078  0.0549
   66SOL    HW1  197   2.617   0.362   0.552  0.0864 -1.1253 -0.8586
   66SOL    HW2  198   2.456   0.337   0.596  2.9466 -0.4883 -0.9772
   67SOL     OW  199   0.631   2.489   1.428  0.4866  0.2646  0.3923
   67SOL    HW1  200   0.709   2.474   1.497  0.3528 -2.2270  2.9270
   67SOL    HW2  201   0.553   2.423   1.438 -0.4627  3.8321  1.6606
   68SOL     OW  202   1.003   1.041   2.516 -0.0978  1.2111  0.2318
   68SOL    HW1  203   1.089   0.985   2.483 -1.4185 -1.1552 -1.5742
   68SOL    HW2  204   0.933   1.065   2.437 -2.0639 -1.9023 -2.4644
   69SOL     OW  205   0.752   2.740   2.216 -0.1153 -0.6413 -0.1055
   69SOL    HW1  206   0.787   2.645   2.193  1.5065  1.1452 -0.7986
   69SOL    HW2  207   0.651   2.748   2.209  0.3849  1.1777 -0.0725
   70SOL     OW  208   0.454   0.115   2.535 -0.3179 -0.2910 -0.0287
   70SOL    HW1  209   0.377   0.118   2.598 -0.1070  1.7814 -1.1400
   70SOL    HW2  210   0.518   0.034   2.547  1.1307 -0.9686 -0.6624
   71SOL     OW  211   1.148   1.791   0.340 -0.7151  0.1152 -0.3438
   71SOL    HW1  212   1.103   1.740   0.416 -1.2635 -0.5687 -0.3272
   71SOL    HW2  213   1.089   1.779   0.252 -1.8997  1.1613  0.0750
   72SOL     OW  214   1.818   0.185   2.178  0.2909  0.2298  0.2322
   72SOL    HW1  215   1.877   0.269   2.191 -1.4448 -0.4534 -0.7277
   72SOL    HW2  216   1.871   0.116   2.127  0.1130 -2.3831 -1.9577
   73SOL     OW  217   2.804   2.165   2.372  0.0451  0.1880  0.2814
   73SOL    HW1  218   2.772   2.070   2.345 -3.1773  0.0951 -0.7366
   73SOL    HW2  219   2.840   2.174   2.470 -0.2236 -0.3570  1.0354
   74SOL     OW  220   2.659   2.866   2.177  0.1196 -0.0281 -0.0012
   74SOL    HW1  221   2.644   2.856   2.277 -1.6887 -1.9325 -2.9473
   74SOL    HW2  222   2.758   2.891   2.148  3.5354  1.4990 -0.9534
   75SOL     OW  223   0.954   0.848   1.063  0.2200 -0.6287 -0.5674
   75SOL    HW1  224   0.873   0.902   1.022 -0.7481  0.1686  3.0581
   75SOL    HW2  225   0.989   0.899   1.148 -2.5777  1.4747 -2.1739
   76SOL     OW  226   1.825   1.225   2.444  0.8912  0.1441 -0.4047
   76SOL    HW1  227   1.732   1.211   2.488  1.2394  0.6965  1.7353
   76SOL    HW2  228   1.866   1.321   2.436  0.9429  1.5253 -2.2762
   77SOL     OW  229   2.936   0.923   1.038 -0.4944  0.5715 -0.3380
   77SOL    HW1  230   2.916   0.826   1.002  0.6299  0.2294  1.5039
   77SOL    HW2  231   3.015   0.915   1.111  0.4239  0.4402 -0.2607
   78SOL     OW  232   2.010   1.409   1.426  0.1353 -0.1139 -0.8119
   78SOL    HW1  233   2.109   1.441   1.438  0.1586 -1.2061 -1.1902
   78SOL    HW2  234   1.961   1.433   1.337 -1.1040 -1.8793 -0.5622
   79SOL     OW  235   0.652   1.424   0.801  0.6967 -0.3702 -0.4383
   79SOL    HW1  236   0.552   1.417   0.820  0.7819 -0.5908 -0.4253
   79SOL    HW2  237   0.689   1.345   0.751 -3.2851  0.8918  1.9146
   80SOL     OW  238   0.641   0.495   1.506 -0.9422  0.2854 -0.2172
   80SOL    HW1  239   0.687   0.552   1.434  0.8090  1.4493  2.1998
   80SOL    HW2  240   0.652   0.396   1.495 -0.6637  2.5224 -3.4208
   81SOL     OW  241   0.998   1.313   2.608 -0.1546 -0.1224 -0.2210
   81SOL    HW1  242   1.009   1.214   2.592 -1.0136  0.2456 -1.6895
   81SOL    HW2  243   0.929   1.354   2.546  1.7583 -0.6638  0.4845
   82SOL     OW  244   0.985   2.870   1.524  0.6997 -0.8809  0.5898
   82SOL    HW1  245   0.954   2.790   1.469  1.6701 -0.4378  1.1026
   82SOL    HW2  246   1.042   2.929   1.467 -2.3563 -0.5515 -0.4264
   83SOL     OW  247   2.559   2.374   0.872 -0.6881 -0.2433  0.2557
   83SOL    HW1  248   2.486   2.307   0.875  1.2711  2.4720 -1.0791
   83SOL    HW2  249   2.550   2.448   0.800 -0.2877  3.5916  1.9640
   84SOL     OW  250   0.719   0.019   2.372  0.0126 -0.0739  0.0277
   84SOL    HW1  251   0.659  -0.021   2.447  2.3996 -0.5558  0.6737
   84SOL    HW2  252   0.783  -0.053   2.336  2.5365  0.4361 -2.4656
   85SOL     OW  253   0.276   1.632   1.435  0.7219  0.5598 -0.5025
   85SOL    HW1  254   0.236   1.732   1.432 -2.9868  1.7992  1.5283
   85SOL    HW2  255   0.321   1.599   1.523 -0.9869 -0.2037  1.5653
   86SOL     OW  256   0.440   1.050   1.503 -0.3481  0.0602  0.3399
   86SOL    HW1  257   0.390   0.994   1.428  1.2194 -0.8934  3.2090
   86SOL    HW2  258   0.535   1.009   1.519 -2.0609 -0.6698  0.5814
   87SOL     OW  259   1.664   0.676   0.275 -0.1869 -0.0527 -0.5195
   87SOL    HW1  260   1.708   0.767   0.258 -2.2393 -4.4595  1.7198
   87SOL    HW2  261   1.615   0.640   0.190 -1.3837  0.4849  1.5166
   88SOL     OW  262   1.539   1.356   0.257  0.8003  0.2276 -0.2109
   88SOL    HW1  263   1.585   1.263   0.262  1.1563 -0.0471 -1.2189
   88SOL    HW2  264   1.439   1.344   0.242  1.2359 -0.0505 -1.7224
   89SOL     OW  265   3.073   0.297   0.615 -0.3200 -0.5304  0.2443
   89SOL    HW1  266   3.144   0.223   0.580  0.6281 -0.1702  0.7774
   89SOL    HW2  267   2.977   0.282   0.585  3.2484 -1.3825  1.4355
   90SOL     OW  268   0.825   1.582   0.116 -0.5321  0.4004  0.3940
   90SOL    HW1  269   0.845   1.480   0.107 -0.8180 -0.3150 -0.6653
   90SOL    HW2  270   0.731   1.606   0.087 -0.7114 -1.1659 -0.5342
   91SOL     OW  271   1.207   1.456   1.759  0.1831  0.2190  0.1147
   91SOL    HW1  272   1.179   1.526   1.832 -0.4941  0.0018  1.4571
   91SOL    HW2  273   1.299   1.414   1.774  0.6596 -0.7514  3.7811
   92SOL     OW  274   0.013   0.953   1.232 -0.1322 -0.1666 -0.1733
   92SOL    HW1  275   0.051   1.043   1.191  1.2432 -0.9961 -0.9814
   92SOL    HW2  276  -0.001   0.970   1.337  3.7169  2.4641 -0.9018
   93SOL     OW  277   3.084   2.714   0.033  0.1067  0.5594 -0.1750
   93SOL    HW1  278   3.059   2.707  -0.069  0.7219 -2.5670  0.2419
   93SOL    HW2  279   3.082   2.619   0.079 -0.3364 -0.0016 -0.9764
   94SOL     OW  280   1.493   1.437   1.768 -0.0616 -0.6671 -0.5177
   94SOL    HW1  281   1.563   1.368   1.798  0.4983  0.4059  0.6583
   94SOL    HW2  282   1.528   1.532   1.799  0.4406  0.0617 -0.3578
   95SOL     OW  283   1.412   2.508   2.964 -0.0860 -0.0670 -0.2501
   95SOL    HW1  284   1.323   2.514   3.017 -3.7081  3.3584  0.9734
   95SOL    HW2  285   1.417   2.428   2.897 -0.7992 -0.7266  1.2401
   96SOL     OW  286   0.567   2.101   1.312 -0.1873  0.3401 -0.4022
   96SOL    HW1  287   0.514   2.050   1.243 -0.6222 -1.4096  1.7057
   96SOL    HW2  288   0.640   2.043   1.356 -0.6338  0.9743  1.3235
   97SOL     OW  289   0.301   1.610   2.449  0.3688  0.0531 -0.5089
   97SOL    HW1  290   0.271   1.665   2.368 -0.8005 -0.1809  1.5268
   97SOL    HW2  291   0.240   1.632   2.532 -2.1011 -0.5824  0.2079
   98SOL     OW  292   2.163   1.605   1.201  0.1658  0.6303 -0.1670
   98SOL    HW1  293   2.072   1.556   1.190  0.4300  1.1672 -0.4778
   98SOL    HW2  294   2.232   1.563   1.140 -1.1907 -1.9123  0.0401
   99SOL     OW  295   2.570   2.100   1.296 -0.1956  0.2787  0.3064
   99SOL    HW1  296   2.636   2.120   1.375  1.0789  0.5651  2.8788
   99SOL    HW2  297   2.543   2.002   1.295  1.8990  0.7053 -0.1546
  100SOL     OW  298   2.302   0.409   2.101  0.1268  0.1624  0.3966
  100SOL    HW1  299   2.249   0.399   2.188 -0.1272 -3.5556 -0.3770
  100SOL    HW2  300   2.404   0.407   2.117 -0.9666  1.3707 -1.0667
  101SOL     OW  301   0.392   1.534   0.502 -0.0819  0.3340  0.1120
  101SOL    HW1  302   0.409   1.628   0.550  1.2500 -3.4401  2.6810
  101SOL    HW2  303   0.480   1.504   0.453  0.6242  0.6565  0.8461
  102SOL     OW  304   2.300   1.068   0.827  0.0792  0.3225 -0.2595
  102SOL    HW1  305   2.229   0.999   0.791 -0.6625 -0.1659 -0.5435
  102SOL    HW2  306   2.394   1.049   0.776  2.9203  0.1865 -0.6526
  103SOL     OW  307   2.231   0.110   0.363  0.2134 -0.7719 -0.5002
  103SOL    HW1  308   2.269   0.140   0.267  2.0695  1.3932 -0.8529
  103SOL    HW2  309   2.311   0.084   0.423 -0.1834 -0.6034 -1.0606
  104SOL     OW  310   0.045   1.902   2.092  0.1342 -0.4104  0.1637
  104SOL    HW1  311   0.080   1.856   2.003 -1.1311  0.1133 -1.5898
  104SOL    HW2  312  -0.057   1.891   2.105 -2.2541  2.2710 -3.0728
  105SOL     OW  313   1.265   2.107   0.805  0.6553 -0.3445 -0.7452
  105SOL    HW1  314   1.202   2.143   0.733  1.1026  0.3415 -0.7385
  105SOL    HW2  315   1.290   2.011   0.796  0.3946  0.8247  0.3745
  106SOL     OW  316   2.071   0.375   1.423 -0.1540  0.6082 -0.5680
  106SOL    HW1  317   2.002   0.297   1.438  0.9140  0.6442  1.9341
  106SOL    HW2  318   2.071   0.444   1.501 -0.6539  0.0550 -1.8176
  107SOL     OW  319   1.975   2.937   1.175  0.3771 -0.0597  0.1741
  107SOL    HW1  320   1.932   3.020   1.223  0.1962  1.1313  2.3373
  107SOL    HW2  321   1.909   2.861   1.161  0.8474 -0.6198  0.3223
  108SOL     OW  322   0.861   2.839   1.173  0.2665  0.1091 -0.4699
  108SOL    HW1  323   0.879   2.738   1.195  0.8593  0.1269  0.4834
  108SOL    HW2  324   0.951   2.891   1.166  1.3354 -0.2434  1.1731
  109SOL     OW  325   2.160   0.150   0.779  0.1586  0.0175  0.0379
  109SOL    HW1  326   2.072   0.113   0.738 -1.6307  1.0989  0.9185
  109SOL    HW2  327   2.179   0.111   0.875  1.6085  0.2053  0.5580
  110SOL     OW  328   0.478   2.794   2.763 -0.1696 -0.0199  0.5514
  110SOL    HW1  329   0.446   2.764   2.671  1.0106 -0.2132 -1.6120
  110SOL    HW2  330   0.518   2.720   2.822 -0.5580  3.6156 -1.6890
  111SOL     OW  331   1.295   0.501   2.340  0.3067  0.2378 -0.2285
  111SOL    HW1  332   1.199   0.525   2.372  2.3429 -0.7335 -2.5957
  111SOL    HW2  333   1.342   0.443   2.408 -0.3787  1.9131  1.6750
  112SOL     OW  334   1.769   0.432   1.481  0.2267 -0.5434  0.2023
  112SOL    HW1  335   1.724   0.442   1.385 -2.7535  0.0130 -2.2357
  112SOL    HW2  336   1.705   0.415   1.558  0.9625  0.6848 -0.4552
  113SOL     OW  337   2.380   1.703   1.722  0.6409  0.0002 -0.0995
  113SOL    HW1  338   2.422   1.612   1.744 -0.9848  0.9600 -2.5557
  113SOL    HW2  339   2.421   1.779   1.777 -0.8911 -2.0698  1.0988
  114SOL     OW  340   0.311   0.516   1.193 -0.6252 -0.2167 -0.0246
  114SOL    HW1  341   0.370   0.572   1.122  1.3035  0.2443 -3.3481
  114SOL    HW2  342   0.233   0.574   1.238  0.6124  0.3922  0.0277
  115SOL     OW  343   2.788   1.543   1.287  0.2964 -0.8622 -0.3436
  115SOL    HW1  344   2.744   1.449   1.292 -2.0850 -2.0081 -0.4322
  115SOL    HW2  345   2.880   1.534   1.252 -2.8236 -1.7230 -2.3029
  116SOL     OW  346   1.886   0.976   0.668  0.1945 -0.1224  0.2423
  116SOL    HW1  347   1.785   0.962   0.690  2.1039 -3.3743  1.0633
  116SOL    HW2  348   1.917   1.075   0.677  4.4388 -1.9070 -1.2636
  117SOL     OW  349   1.151   0.372   0.568 -0.7106 -0.1081 -0.1262
  117SOL    HW1  350   1.171   0.469   0.589 -0.0165  1.7391  2.0713
  117SOL    HW2  351   1.134   0.355   0.467 -2.4870  0.0626  2.4376
  118SOL     OW  352   1.087   1.214   1.118  0.3691 -0.1982  0.6628
  118SOL    HW1  353   1.063   1.131   1.172  0.6870 -0.2317 -0.0421
  118SOL    HW2  354   1.117   1.297   1.170 -1.5649  1.0702 -2.6487
  119SOL     OW  355   1.855   1.605   2.183 -0.2068 -0.0047  0.3447
  119SOL    HW1  356   1.823   1.693   2.141  0.2421 -0.8229 -0.3878
  119SOL    HW2  357   1.952   1.580   2.150 -0.0605  0.0893  0.7125
  120SOL     OW  358   2.904   2.803   0.243  0.0340 -0.0173  0.1149
  120SOL    HW1  359   2.972   2.779   0.171  2.1167  0.9439  0.3987
  120SOL    HW2  360   2.809   2.775   0.216  0.9708 -2.1893 -3.9973
  121SOL     OW  361   1.859   0.715   2.146 -0.3199  0.4607 -0.0719
  121SOL    HW1  362   1.913   0.772   2.076 -0.7506 -0.3399 -1.5090
  121SOL    HW2  363   1.871   0.612   2.144  0.5101 -0.3624  0.8406
  122SOL     OW  364   2.605   2.507   1.344 -0.3670 -0.3882 -0.0006
  122SOL    HW1  365   2.590   2.506   1.242 -2.5838 -1.7773 -1.2516
  122SOL    HW2  366   2.627   2.407   1.380  1.7561 -1.9131 -1.1511
  123SOL     OW  367   1.736   0.110   1.704 -0.2229 -0.2339 -0.0637
  123SOL    HW1  368   1.755   0.025   1.656 -0.7444  2.0782  2.0389
  123SOL    HW2  369   1.820   0.159   1.736 -1.5476  0.8009 -0.4942
  124SOL     OW  370   3.055   0.476   1.093 -0.2191 -0.0372  0.5227
  124SOL    HW1  371   2.958   0.479   1.131 -1.7261 -1.2142 -1.0694
  124SOL    HW2  372   3.063   0.528   1.008 -1.2865  0.9969  1.0435
  125SOL     OW  373   0.894   1.919   0.764  0.0717 -0.0473 -0.2315
  125SOL    HW1  374   0.980   1.856   0.764  0.7930 -2.4262  1.5006
  125SOL    HW2  375   0.850   1.924   0.852 -0.3869  1.2132 -1.9272
  126SOL     OW  376   1.950   2.278   2.405  0.6102 -0.4725  0.3565
  126SOL    HW1  377   1.984   2.241   2.311  0.2907  1.6568 -1.8860
  126SOL    HW2  378   1.972   2.215   2.487 -0.6036 -2.5837  1.8555
  127SOL     OW  379   0.897   0.976   0.192  0.1873  0.2450  0.2653
  127SOL    HW1  380   0.933   0.977   0.293 -2.6390 -1.0642 -0.0013
  127SOL    HW2  381   0.873   0.878   0.163 -2.2077 -0.0149 -1.5990
  128SOL     OW  382   0.957   0.278   1.421 -0.3102  0.0689 -0.0270
  128SOL    HW1  383   0.918   0.352   1.356 -3.9022  0.5260 -2.1364
  128SOL    HW2  384   0.911   0.186   1.425 -3.6521  0.5865  0.2330
  129SOL     OW  385   1.865   0.661   1.860  0.3865 -0.3811 -0.4485
  129SOL    HW1  386   1.882   0.639   1.760  1.2862  2.9371  1.6578
  129SOL    HW2  387   1.888   0.764   1.884 -2.1022 -0.1260  2.0572
  130SOL     OW  388   1.418   2.244   1.012 -0.1579  0.2694 -0.3875
  130SOL    HW1  389   1.371   2.198   0.930  0.3253  2.1878 -1.8848
  130SOL    HW2  390   1.496   2.308   0.983  2.0871  2.3235  2.3399
  131SOL     OW  391   3.044   1.356   1.351  0.3104  0.7318  0.0994
  131SOL    HW1  392   2.993   1.290   1.410  0.0692  0.0923 -0.8359
  131SOL    HW2  393   3.141   1.341   1.335  0.0060 -1.0433  0.1275
  132SOL     OW  394   2.041   2.382   0.505  0.3480  0.2367  0.2254
  132SOL    HW1  395   1.942   2.407   0.492 -0.1599 -2.9171 -1.0349
  132SOL    HW2  396   2.052   2.294   0.566  1.6771  1.2200  1.0019
  133SOL     OW  397   1.774   2.337   2.745  0.1641  0.2066 -0.5064
  133SOL    HW1  398   1.690   2.328   2.686  1.0909 -2.2782 -0.5135
  133SOL    HW2  399   1.850   2.373   2.683  3.0581 -0.7633  0.4678
  134SOL     OW  400   2.675   2.364   1.587  0.0680  0.5940 -0.0362
  134SOL    HW1  401   2.626   2.380   1.676  1.5872 -1.9263  0.4144
  134SOL    HW2  402   2.767   2.411   1.587 -1.4587  1.9913  2.6055
  135SOL     OW  403   0.692   1.464   2.652 -0.1491 -0.2429  0.7995
  135SOL    HW1  404   0.697   1.363   2.679 -0.1357 -1.4953 -2.2833
  135SOL    HW2  405   0.660   1.462   2.550  0.1521  0.4228  0.4088
  136SOL     OW  406   1.202   2.017   0.465  0.2697 -0.0854 -0.4520
  136SOL    HW1  407   1.129   2.090   0.476  0.6678 -0.7256 -0.4615
  136SOL    HW2  408   1.174   1.929   0.411  0.2853 -0.1057 -2.8804
  137SOL     OW  409   0.409   1.213   2.255 -0.3127 -0.5581 -0.3698
  137SOL    HW1  410   0.301   1.213   2.268 -1.4871  1.0470 -0.8621
  137SOL    HW2  411   0.458   1.122   2.261 -0.1133  1.4041 -0.5495
  138SOL     OW  412   2.452   1.535   0.294 -0.6817  0.3300  0.4109
  138SOL    HW1  413   2.379   1.479   0.251  0.8780  0.2537 -0.0258
  138SOL    HW2  414   2.521   1.482   0.345  0.8351  3.4314  0.8245
  139SOL     OW  415   1.863   2.621   1.501 -0.6333  0.3209  0.3276
  139SOL    HW1  416   1.791   2.655   1.432 -0.9734 -0.3649 -1.9173
  139SOL    HW2  417   1.886   2.519   1.484  1.0076 -0.9465 -1.2821
  140SOL     OW  418   3.010   2.997   2.590 -0.3801 -0.1643  0.2220
  140SOL    HW1  419   3.057   2.905   2.577 -0.6057  0.2191  2.4846
  140SOL    HW2  420   3.067   3.079   2.544  0.7904 -1.3006  0.0755
  141SOL     OW  421   1.329   1.634   1.582  0.5188  0.0527 -0.2002
  141SOL    HW1  422   1.254   1.704   1.560  0.3082  0.7207 -0.8716
  141SOL    HW2  423   1.292   1.542   1.614  0.4238 -0.6790 -2.6162
  142SOL     OW  424   1.516   0.608   2.254 -0.7811  0.0491 -0.6148
  142SOL    HW1  425   1.519   0.601   2.152  0.0367 -0.4351 -0.2115
  142SOL    HW2  426   1.431   0.563   2.293 -0.1898 -0.7163 -3.2356
  143SOL     OW  427   2.765   0.817   0.550  0.0613 -0.8525 -0.1151
  143SOL    HW1  428   2.810   0.874   0.478 -1.9351 -2.3625  3.7660
  143SOL    HW2  429   2.800   0.847   0.645 -2.2380 -0.1727  1.4685
  144SOL     OW  430   2.901   1.163   1.491 -0.0567  0.5263 -0.4036
  144SOL    HW1  431   2.853   1.164   1.583  1.1733 -0.5180  1.7496
  144SOL    HW2  432   2.987   1.103   1.492 -0.3662 -0.1534  0.7990
  145SOL     OW  433   0.947   1.822   0.128  0.0665 -0.0892 -0.2118
  145SOL    HW1  434   0.926   1.891   0.054 -3.3874 -2.3601  1.2272
  145SOL    HW2  435   0.900   1.728   0.117 -0.1424 -0.8665  2.1176
  146SOL     OW  436   2.441   0.669   1.480  0.0064 -0.2595  0.3559
  146SOL    HW1  437   2.423   0.579   1.431  0.8060  2.9368 -1.5470
  146SOL    HW2  438   2.379   0.747   1.449  0.5275 -1.5772 -0.7511
  147SOL     OW  439   1.089   2.502   0.582 -0.0878  0.5096 -0.0212
  147SOL    HW1  440   1.020   2.540   0.515  1.9844 -1.8289 -0.2605
  147SOL    HW2  441   1.182   2.479   0.538  0.5629  1.2902 -0.6564
  148SOL     OW  442   1.611   1.452   0.012 -0.8712 -0.0827  0.4882
  148SOL    HW1  443   1.599   1.366  -0.041 -0.5646  0.3835  2.4995
  148SOL    HW2  444   1.584   1.438   0.111  0.2423  2.2313 -0.2230
  149SOL     OW  445   0.665   1.505   1.951  0.5725 -0.5288 -0.2515
  149SOL    HW1  446   0.568   1.479   1.980  0.6991 -1.1730  2.1966
  149SOL    HW2  447   0.712   1.440   1.886 -1.1528 -1.1616 -1.4192
  150SOL     OW  448   3.028   1.222   0.965  0.3475 -0.2319  0.2472
  150SOL    HW1  449   3.106   1.212   1.035 -0.7435  0.4283 -2.9409
  150SOL    HW2  450   2.960   1.146   0.978  2.4587 -0.6397 -0.4758
  151SOL     OW  451   0.221   0.803   2.075  1.0760  0.5205 -0.2520
  151SOL    HW1  452   0.218   0.897   2.028  1.9811 -0.0311 -1.4140
  151SOL    HW2  453   0.291   0.741   2.023 -0.5306 -2.4611 -1.8927
  152SOL     OW  454   1.435   1.781   1.194  0.0266  0.3911 -0.3165
  152SOL    HW1  455   1.486   1.872   1.200  1.7921  0.6072 -1.6115
  152SOL    HW2  456   1.336   1.792   1.162  2.5913  1.0754  1.2102
  153SOL     OW  457   0.197   1.516   0.203  0.1924  0.3310 -0.0539
  153SOL    HW1  458   0.182   1.417   0.217 -1.3324 -0.6782 -2.1707
  153SOL    HW2  459   0.162   1.572   0.284  1.4316 -0.3387  4.2279
  154SOL     OW  460   2.306   1.897   2.788 -0.5497 -0.8084 -0.2507
  154SOL    HW1  461   2.306   1.795   2.804 -0.1758  1.8387 -1.2293
  154SOL    HW2  462   2.385   1.932   2.724  0.9355  0.4176  0.5138
  155SOL     OW  463   2.485   1.252   0.364 -0.6532 -0.1806 -0.3341
  155SOL    HW1  464   2.572   1.240   0.310 -3.4358  2.7440 -1.2547
  155SOL    HW2  465   2.422   1.169   0.358 -3.2242  0.2074 -0.6340
  156SOL     OW  466   2.460   0.832   0.745  0.0587  0.2056 -0.2505
  156SOL    HW1  467   2.369   0.789   0.719 -0.8360 -1.0041  2.6770
  156SOL    HW2  468   2.496   0.898   0.675  0.9008 -2.6555  0.8084
  157SOL     OW  469   1.242   2.989   2.997 -0.0697 -0.8217  0.6302
  157SOL    HW1  470   1.313   2.943   2.935 -1.5875  0.6055  0.7572
  157SOL    HW2  471   1.253   3.093   3.010  2.1603  1.9009 -0.0108
  158SOL     OW  472   1.000   1.869   1.840  0.0257  0.2915  0.0089
  158SOL    HW1  473   1.047   1.958   1.822 -0.9858 -0.7756  0.9688
  158SOL    HW2  474   0.926   1.882   1.913 -1.4573 -1.9284 -1.3332
  159SOL     OW  475   0.862   0.425   1.220  0.5244 -0.3488  0.1449
  159SOL    HW1  476   0.848   0.520   1.257  0.0979 -1.1970 -0.9256
  159SOL    HW2  477   0.777   0.385   1.174 -2.3555  1.3695 -2.3957
  160SOL     OW  478   1.366   2.449   1.527 -0.2415 -0.2159 -0.1276
  160SOL    HW1  479   1.303   2.375   1.567  2.0934 -0.5478  0.8360
  160SOL    HW2  480   1.464   2.424   1.514 -1.1428 -2.8860 -1.1992
  161SOL     OW  481   3.061   2.734   0.462 -0.0009 -0.9546  0.0681
  161SOL    HW1  482   3.035   2.641   0.490 -0.9065 -1.3143  3.0342
  161SOL    HW2  483   3.006   2.781   0.394  0.6722 -0.0807 -0.0574
  162SOL     OW  484   2.566   1.809   0.473  0.4501 -0.1129  0.0310
  162SOL    HW1  485   2.591   1.764   0.381 -3.3035 -0.0107  0.8720
  162SOL    HW2  486   2.533   1.731   0.535 -2.4873  1.6747  0.1543
  163SOL     OW  487   1.953   2.666   0.760 -0.4963 -0.2848  0.1797
  163SOL    HW1  488   1.898   2.655   0.672  0.6640 -1.3226 -1.6547
  163SOL    HW2  489   2.049   2.626   0.757 -0.1881  2.7000  3.8247
  164SOL     OW  490   3.058   0.242   1.263  0.2119  0.2854 -0.4649
  164SOL    HW1  491   3.099   0.324   1.219  0.8579 -1.2606 -0.6018
  164SOL    HW2  492   3.128   0.211   1.334 -0.4242 -0.3062  0.5108
  165SOL     OW  493   1.087   1.433   0.669  0.5303  0.0560  0.2117
  165SOL    HW1  494   1.074   1.472   0.766 -1.5294 -1.8644 -1.6693
  165SOL    HW2  495   1.034   1.477   0.594 -0.7093 -1.0005  0.9856
  166SOL     OW  496   1.568   1.012   1.767 -0.5930  0.1023 -0.3111
  166SOL    HW1  497   1.470   1.021   1.803  1.8008 -0.1398  1.5561
  166SOL    HW2  498   1.635   1.086   1.800 -0.4106 -1.6643  1.2526
  167SOL     OW  499   0.782   1.937   1.443 -0.0985 -0.4517 -0.1182
  167SOL    HW1  500   0.804   1.984   1.532  1.1708 -0.2789  2.7266
  167SOL    HW2  501   0.737   1.845   1.456  0.5371 -1.2287  0.5586
  168SOL     OW  502   1.583   2.348   0.168 -0.5580 -0.0639 -0.3944
  168SOL    HW1  503   1.643   2.363   0.082  1.5916  0.4556 -1.9721
  168SOL    HW2  504   1.638   2.323   0.255 -2.3157 -5.0829  1.0977
  169SOL     OW  505   0.090   2.576   2.220 -0.6411 -0.0612 -0.0686
  169SOL    HW1  506   0.133   2.530   2.133 -1.0607 -0.2727  0.6326
  169SOL    HW2  507   0.143   2.559   2.310  0.4226  0.7218  0.6245
  170SOL     OW  508   1.125   0.217   2.037  0.6203 -0.3642  0.3607
  170SOL    HW1  509   1.213   0.235   2.093 -1.5935  0.9696 -1.4948
  170SOL    HW2  510   1.150   0.198   1.940  1.8236 -0.1715  2.3655
  171SOL     OW  511   0.211   0.839   2.378  0.2451  0.2798  0.2391
  171SOL    HW1  512   0.125   0.839   2.436  2.1102 -0.6563 -1.4696
  171SOL    HW2  513   0.196   0.810   2.282 -1.9270  2.4584  0.0406
  172SOL     OW  514   0.959   0.993   2.929 -0.5439  0.3713 -0.2923
  172SOL    HW1  515   0.954   1.064   3.005  0.6767  0.8314  1.7357
  172SOL    HW2  516   0.909   1.019   2.842 -2.4186  1.8199 -0.1356
  173SOL     OW  517   0.521   2.446   0.169  0.5730  0.3311  0.2092
  173SOL    HW1  518   0.505   2.365   0.100 -1.0258 -2.6011 -2.4479
  173SOL    HW2  519   0.433   2.493   0.204 -2.2379  0.3673  0.3070
  174SOL     OW  520   1.483   2.850   1.078  0.3142  0.2675  0.3272
  174SOL    HW1  521   1.574   2.897   1.045  2.3567  0.9871 -0.8465
  174SOL    HW2  522   1.441   2.785   1.014  0.2589  1.4141 -0.3260
  175SOL     OW  523   0.447   3.055   1.681 -1.0557 -0.2758 -0.0040
  175SOL    HW1  524   0.494   3.032   1.772  1.8820 -1.1169  0.1480
  175SOL    HW2  525   0.450   3.154   1.651 -0.0601  0.8324 -1.0013
  176SOL     OW  526   2.598   0.365   0.015  0.3970 -0.3003  0.3668
  176SOL    HW1  527   2.607   0.447   0.075  0.1488 -2.5425  0.8777
  176SOL    HW2  528   2.578   0.284   0.069  0.6050  1.2881  1.4704
  177SOL     OW  529   0.315   0.288   0.986  0.2620  0.2335  0.4150
  177SOL    HW1  530   0.272   0.193   0.969  1.1948 -0.6477  1.1996
  177SOL    HW2  531   0.269   0.361   1.046 -0.6516  1.7460  0.4371
  178SOL     OW  532   0.001   2.736   2.573  0.2569  0.1739 -0.7758
  178SOL    HW1  533  -0.030   2.637   2.562 -0.9559  0.9856  1.1620
  178SOL    HW2  534   0.087   2.750   2.626 -0.5197  1.1014  0.1439
  179SOL     OW  535   3.037   1.556   1.118 -0.1585  0.0208 -0.6022
  179SOL    HW1  536   3.111   1.557   1.049 -0.0995 -1.5847  0.6650
  179SOL    HW2  537   3.066   1.526   1.215 -0.8715  0.3298  0.7531
  180SOL     OW  538   0.202   1.371   1.779  0.6029  0.4441 -0.1689
  180SOL    HW1  539   0.265   1.296   1.824 -3.5262 -0.3370 -1.8002
  180SOL    HW2  540   0.130   1.404   1.847 -0.7520  1.6542 -0.2088
  181SOL     OW  541   2.990   1.936   2.511 -0.6303  0.2521  0.6688
  181SOL    HW1  542   3.057   2.002   2.475  0.0251  2.6904 -1.9466
  181SOL    HW2  543   2.912   1.917   2.438 -1.2217  1.4048 -2.0467
  182SOL     OW  544   2.337   1.282   1.268  0.0948  0.3803  0.0370
  182SOL    HW1  545   2.293   1.231   1.191  0.2159 -0.4236  0.9824
  182SOL    HW2  546   2.374   1.371   1.236 -0.4682 -4.0170  1.0388
  183SOL     OW  547   1.389   2.244   2.496 -0.3446  0.6187 -0.5492
  183SOL    HW1  548   1.312   2.179   2.519  1.8481 -0.6564 -1.0353
  183SOL    HW2  549   1.468   2.192   2.457 -0.4399  1.6751 -1.2005
  184SOL     OW  550   2.137   0.863   0.716  0.4894 -0.6512  0.1544
  184SOL    HW1  551   2.038   0.902   0.699  0.2449  1.8210  0.7296
  184SOL    HW2  552   2.135   0.754   0.720  1.8404 -4.2540 -1.3928
  185SOL     OW  553   1.530   2.746   2.018 -0.2282  0.1614  0.3570
  185SOL    HW1  554   1.464   2.823   1.993 -0.1462 -1.5476  0.7615
  185SOL    HW2  555   1.582   2.762   2.105 -0.2522  0.5032 -0.4337
  186SOL     OW  556   0.048   2.196   1.642 -0.1162 -0.3515  0.0530
  186SOL    HW1  557   0.039   2.255   1.728  1.2515 -0.4683  3.9752
  186SOL    HW2  558   0.145   2.152   1.636  1.7038  0.5534 -0.1549
  187SOL     OW  559   1.372   0.623   1.641 -0.1385  0.2528  0.0658
  187SOL    HW1  560   1.462   0.677   1.658 -0.9064  2.1286  0.7255
  187SOL    HW2  561   1.361   0.532   1.701 -1.5304  2.1907  0.1403
  188SOL     OW  562   2.824   2.720   1.417 -1.0643  0.3345 -0.3364
  188SOL    HW1  563   2.790   2.816   1.408  1.5399  0.3867  0.1593
  188SOL    HW2  564   2.752   2.647   1.389 -0.8018 -0.4495  3.0011
  189SOL     OW  565   0.874   1.166   1.408 -0.0582  0.3914 -0.3481
  189SOL    HW1  566   0.952   1.189   1.475 -0.1081 -0.4295  1.4546
  189SOL    HW2  567   0.821   1.249   1.367 -1.8577 -0.8130  0.6045
  190SOL     OW  568   1.488   1.860   1.558 -0.4741 -0.2395 -0.1736
  190SOL    HW1  569   1.441   1.766   1.573  0.4555 -0.9059 -1.4640
  190SOL    HW2  570   1.503   1.916   1.647  0.5461 -2.9994 -1.1435
  191SOL     OW  571   0.920   0.829   1.526 -0.5066  0.6756  0.0879
  191SOL    HW1  572   0.981   0.783   1.598 -1.9721 -0.9467  0.9575
  191SOL    HW2  573   0.984   0.870   1.457  0.4692 -1.5109  0.1541
  192SOL     OW  574   1.846   2.468   1.096  0.1917  0.4445  0.0703
  192SOL    HW1  575   1.752   2.454   1.055 -0.2381 -1.3901 -1.2265
  192SOL    HW2  576   1.917   2.428   1.039 -3.0789  1.2557  0.5620
  193SOL     OW  577   0.519   0.520   0.407  0.1251 -0.2002 -0.1143
  193SOL    HW1  578   0.464   0.440   0.433 -1.3505 -1.9311 -2.0351
  193SOL    HW2  579   0.571   0.503   0.319  1.3083 -0.0894  1.7588
  194SOL     OW  580   0.310   0.917   1.323  0.1823 -0.0561  0.3617
  194SOL    HW1  581   0.262   0.830   1.310  2.3544 -0.1613 -0.5972
  194SOL    HW2  582   0.345   0.961   1.234 -1.0591  0.6983 -0.9076
  195SOL     OW  583   0.986   2.881   0.518  0.0545  0.2005  0.0609
  195SOL    HW1  584   0.961   2.799   0.459 -1.2234 -2.8081  1.7988
  195SOL    HW2  585   1.080   2.917   0.493  0.9106  2.0804  2.6612
  196SOL     OW  586   0.212   1.359   1.347  0.6183 -0.2860  0.3033
  196SOL    HW1  587   0.218   1.456   1.385  1.8345 -1.3064  0.5808
  196SOL    HW2  588   0.238   1.282   1.414  0.2138  0.0052  0.2975
  197SOL     OW  589   0.822   1.996   0.306  0.1292  0.2295  0.7253
  197SOL    HW1  590   0.777   1.953   0.388 -0.4709  1.3068 -0.2004
  197SOL    HW2  591   0.877   1.932   0.252 -1.2890  2.2843 -0.9036
  198SOL     OW  592   0.304   1.238   0.348 -0.7369 -0.0781 -0.0295
  198SOL    HW1  593   0.213   1.213   0.313 -1.0019 -1.1456  0.1709
  198SOL    HW2  594   0.303   1.321   0.406  0.9664 -2.1107  1.9943
  199SOL     OW  595   2.281   0.442   2.581 -0.0654  0.6039  0.0356
  199SOL    HW1  596   2.231   0.415   2.668  0.1587  2.5617  0.9331
  199SOL    HW2  597   2.386   0.414   2.578  1.6026 -2.7129  1.1967
  200SOL     OW  598   0.006   2.981   0.799  0.4519 -0.8110  0.7110
  200SOL    HW1  599   0.033   3.079   0.819  0.4844  2.3823  0.4067
  200SOL    HW2  600  -0.084   2.979   0.746 -1.2239 -0.2295 -0.8999
  201SOL     OW  601   0.973   0.730   0.516 -0.4081  0.7661  0.0915
  201SOL    HW1  602   0.952   0.823   0.554  1.8724  0.7210 -0.1978
  201SOL    HW2  603   0.903   0.655   0.540 -3.5364 -2.4062  0.8611
  202SOL     OW  604   0.398   1.204   1.856 -0.2263  0.0560 -0.2707
  202SOL    HW1  605   0.488   1.154   1.834 -0.7314 -1.0408 -2.1924
  202SOL    HW2  606   0.389   1.256   1.947 -0.4901 -1.2313  0.4129
  203SOL     OW  607   0.578   0.212   1.556  0.8828  0.6350  0.3782
  203SOL    HW1  608   0.624   0.163   1.480  2.0621  2.0162 -0.9301
  203SOL    HW2  609   0.629   0.199   1.643 -0.7866  0.0286  1.2672
  204SOL     OW  610   2.119   1.816   2.994  0.1580  0.2690  0.3332
  204SOL    HW1  611   2.099   1.713   2.971 -2.5182 -2.1454 -1.8701
  204SOL    HW2  612   2.157   1.869   2.916 -0.1321  0.0833 -3.6323
  205SOL     OW  613   1.839   1.843   3.073 -0.1610  1.0411  0.6763
  205SOL    HW1  614   1.941   1.842   3.060  0.5992  1.8749  0.5026
  205SOL    HW2  615   1.802   1.930   3.034 -1.4578 -0.1304 -1.2199
  206SOL     OW  616   2.409   2.806   0.387 -0.2988 -0.4226  0.0502
  206SOL    HW1  617   2.401   2.718   0.442  0.7823  1.7231 -1.2737
  206SOL    HW2  618   2.472   2.799   0.302  0.8643 -0.4945  1.0635
  207SOL     OW  619   0.693   1.753   2.903  0.3960 -0.0289 -0.7781
  207SOL    HW1  620   0.785   1.715   2.863  2.9061  0.6864 -1.0101
  207SOL    HW2  621   0.672   1.716   3.000 -0.8595 -0.5961 -0.0676
  208SOL     OW  622   1.122   1.677   1.287 -0.7770  0.1824 -0.7494
  208SOL    HW1  623   1.115   1.743   1.205 -0.2557 -0.8281 -1.3094
  208SOL    HW2  624   1.144   1.726   1.376  0.2260  1.6421 -2.2043
  209SOL     OW  625   0.211   0.979   3.097 -0.5961  0.0752 -0.0382
  209SOL    HW1  626   0.180   0.911   3.026  1.8601  2.2041  1.1789
  209SOL    HW2  627   0.226   0.939   3.192 -0.7376  1.5626 -0.1512
  210SOL     OW  628   1.724   0.488   1.217 -0.1372 -0.1520  0.5391
  210SOL    HW1  629   1.655   0.562   1.207 -1.5864 -0.8960  0.0835
  210SOL    HW2  630   1.829   0.514   1.197  2.4516 -0.4350 -0.0642
  211SOL     OW  631   2.028   1.026   1.568 -0.1527 -0.4024 -0.1229
  211SOL    HW1  632   2.078   0.946   1.618 -1.6904  1.1146 -1.8622
  211SOL    HW2  633   2.093   1.097   1.538  0.5985 -4.0027 -0.2751
  212SOL     OW  634   0.006   0.990   1.505  0.5006 -0.6604 -0.0089
  212SOL    HW1  635   0.079   1.064   1.526  0.6596  1.7407 -0.1769
  212SOL    HW2  636   0.012   0.910   1.573  2.3741 -1.3285  0.9002
  213SOL     OW  637   2.737   0.220   0.294  0.1885  0.6359 -0.9023
  213SOL    HW1  638   2.817   0.179   0.245 -1.8066  0.4566 -1.4826
  213SOL    HW2  639   2.658   0.166   0.281  1.2746  0.5028 -1.4181
  214SOL     OW  640   2.164   0.369   2.345 -0.2790 -0.7577 -0.0434
  214SOL    HW1  641   2.185   0.431   2.425 -1.9831  0.2838  0.7682
  214SOL    HW2  642   2.159   0.268   2.372  0.0223  1.5394 -2.2274
  215SOL     OW  643   1.677   2.260   2.102  0.5867  0.2209 -0.2285
  215SOL    HW1  644   1.773   2.301   2.091  0.3762 -1.0084  0.0383
  215SOL    HW2  645   1.605   2.334   2.118 -0.3212  0.8518 -0.1053
  216SOL     OW  646   2.180   0.602   0.677 -0.6333  0.2238 -0.8731
  216SOL    HW1  647   2.173   0.505   0.644 -1.4072 -2.0307  0.0470
  216SOL    HW2  648   2.221   0.659   0.598 -0.5444  2.4647 -1.0772
  217SOL     OW  649   0.868   2.802   2.509  0.9315  0.6235  0.5331
  217SOL    HW1  650   0.811   2.735   2.563  1.7215  0.3703 -0.0921
  217SOL    HW2  651   0.872   2.777   2.406 -1.1364  0.5079  2.2521
  218SOL     OW  652   1.890   1.476   0.060  0.0427 -0.4449  0.3308
  218SOL    HW1  653   1.794   1.491   0.018 -2.1935  0.6339  0.3003
  218SOL    HW2  654   1.895   1.392   0.120 -1.4193 -2.3722 -0.0362
  219SOL     OW  655   2.482   1.288   2.534  0.4110  0.0464 -0.2185
  219SOL    HW1  656   2.508   1.243   2.446  2.7909  0.2863  2.5131
  219SOL    HW2  657   2.472   1.221   2.612 -1.6885  2.2302 -1.7255
  220SOL     OW  658   1.428   1.020   1.381  0.1067  0.6656  0.7262
  220SOL    HW1  659   1.524   0.983   1.358  0.0979 -1.8009 -1.5485
  220SOL    HW2  660   1.394   1.082   1.301  0.2330  2.5697 -1.6632
  221SOL     OW  661   1.302   0.947   2.209  0.6971 -0.1642 -0.0866
  221SOL    HW1  662   1.258   0.952   2.117  0.1432  1.2190  2.3839
  221SOL    HW2  663   1.392   0.997   2.214  4.1080 -1.4380  3.3260
  222SOL     OW  664   1.103   0.135   1.212 -0.4137 -0.0130  0.2719
  222SOL    HW1  665   1.045   0.205   1.261  0.2253 -0.1736 -0.3627
  222SOL    HW2  666   1.153   0.170   1.131 -0.0550  2.4634  1.1408
  223SOL     OW  667   2.694   0.930   2.126  0.1428  0.0097 -0.5172
  223SOL    HW1  668   2.651   1.016   2.162 -0.1145 -2.6393 -1.3651
  223SOL    HW2  669   2.783   0.907   2.175 -1.6075 -2.1385  1.8882
  224SOL     OW  670   1.467   1.068   2.716  0.5393 -0.2776 -0.0293
  224SOL    HW1  671   1.458   0.960   2.704  0.4270 -0.0843 -1.5269
  224SOL    HW2  672   1.514   1.107   2.636 -2.1659 -2.8045  0.0174
  225SOL     OW  673   2.977   2.711   2.882 -0.2586 -0.5865 -0.0947
  225SOL    HW1  674   2.884   2.711   2.841  1.2668  1.8556 -0.0425
  225SOL    HW2  675   3.048   2.724   2.814 -0.0818 -1.9052  0.9352
  226SOL     OW  676   2.367   1.613   2.807  0.5599  0.2227 -1.2596
  226SOL    HW1  677   2.449   1.623   2.748 -0.4677 -0.8127  1.2726
  226SOL    HW2  678   2.358   1.533   2.873  0.1176 -1.2607  1.2286
  227SOL     OW  679   0.857   0.219   3.070  0.0634  0.4770 -0.1956
  227SOL    HW1  680   0.888   0.315   3.050  2.4055  1.0760 -0.6541
  227SOL    HW2  681   0.825   0.164   2.986  0.0571 -0.9993 -1.4081
  228SOL     OW  682   2.415   0.590   2.824 -0.4167  0.3037 -0.2777
  228SOL    HW1  683   2.421   0.675   2.766 -1.6550  0.6895  1.4273
  228SOL    HW2  684   2.490   0.522   2.821 -0.7190 -1.2972  1.9026
  229SOL     OW  685   0.570   0.456   1.791  0.0786  0.1254 -0.5736
  229SOL    HW1  686   0.605   0.369   1.832  1.2951  0.5146  2.4934
  229SOL    HW2  687   0.610   0.485   1.699 -1.5799 -0.2668  0.8207
  230SOL     OW  688   1.874   1.194   2.018 -0.1756  0.5803 -0.1885
  230SOL    HW1  689   1.961   1.243   1.984  0.1204  0.5248  0.6021
  230SOL    HW2  690   1.807   1.263   2.061  0.5264  2.2316  1.6334
  231SOL     OW  691   0.665   1.069   0.002  0.0254  0.2126 -0.2715
  231SOL    HW1  692   0.770   1.096  -0.001  3.3598 -2.0230 -0.2554
  231SOL    HW2  693   0.607   1.145   0.030  1.3251 -2.3924 -1.1527
  232SOL     OW  694   2.442   2.998   2.822  0.0008 -0.5887 -0.1024
  232SOL    HW1  695   2.498   2.910   2.842  3.9566 -0.7807  1.4924
  232SOL    HW2  696   2.486   3.062   2.750  0.8312  1.7878 -0.1715
  233SOL     OW  697   1.768   1.247   1.229 -0.1329  0.2343 -0.1981
  233SOL    HW1  698   1.855   1.259   1.177 -1.0073  0.2232  1.7745
  233SOL    HW2  699   1.749   1.149   1.259 -0.8210  1.8364 -0.5551
  234SOL     OW  700   1.602   2.528   1.843  0.0679 -0.1483  0.2561
  234SOL    HW1  701   1.564   2.594   1.912  2.4810 -0.7162 -3.0962
  234SOL    HW2  702   1.552   2.436   1.836 -0.1670 -0.3993 -1.1831
  235SOL     OW  703   0.030   3.004   2.857  0.2887 -0.8823  0.6146
  235SOL    HW1  704  -0.035   3.000   2.771 -2.3152 -0.6088 -1.3311
  235SOL    HW2  705  -0.021   3.017   2.945  0.1377 -1.1605  2.0916
  236SOL     OW  706   2.884   0.719   0.107  0.2660 -0.8955  0.4663
  236SOL    HW1  707   2.955   0.748   0.183  1.4854  2.1405  0.6385
  236SOL    HW2  708   2.923   0.639   0.054  0.8529 -0.0443  0.5193
  237SOL     OW  709   1.496   1.635   0.958 -1.1503  0.3665 -0.1844
  237SOL    HW1  710   1.599   1.614   0.954  1.1311 -0.4536  1.2434
  237SOL    HW2  711   1.475   1.705   1.034 -0.8742 -1.4971 -0.4762
  238SOL     OW  712   1.885   1.234   0.759  0.3607 -0.3886  0.1814
  238SOL    HW1  713   1.921   1.252   0.852 -1.2085 -0.0258 -0.2000
  238SOL    HW2  714   1.795   1.289   0.748 -1.4695  2.9124  0.4006
  239SOL     OW  715   2.085   0.302   2.760 -0.6255 -0.2118  0.2259
  239SOL    HW1  716   2.105   0.282   2.862  0.3130 -0.3929 -0.9861
  239SOL    HW2  717   2.014   0.376   2.754 -0.0407  1.5274  2.4922
  240SOL     OW  718   0.926   0.672   0.225  0.1862  0.2643 -0.4447
  240SOL    HW1  719   0.970   0.575   0.220  0.1266 -2.4319 -2.3894
  240SOL    HW2  720   0.928   0.700   0.326 -0.7814  0.7272  2.4678
  241SOL     OW  721   0.598   0.093   0.395 -0.2187 -0.1782  0.1077
  241SOL    HW1  722   0.638   0.171   0.336 -1.2479 -2.6231  1.8139
  241SOL    HW2  723   0.602  -0.000   0.348 -3.2752 -1.2993 -0.2850
  242SOL     OW  724   0.628   2.560   1.166 -0.0557  0.7070  0.1893
  242SOL    HW1  725   0.633   2.548   1.269 -0.5221  1.1446 -1.3619
  242SOL    HW2  726   0.586   2.648   1.127 -0.8432 -0.9787 -0.0189
  243SOL     OW  727   1.047   0.553   2.423  0.0483 -0.7764 -0.5629
  243SOL    HW1  728   0.981   0.626   2.389 -0.6808  1.9684  0.1892
  243SOL    HW2  729   1.012   0.515   2.516 -1.1816 -0.1004  2.5839
  244SOL     OW  730   2.771   1.868   2.333 -0.3241 -0.1718  0.5546
  244SOL    HW1  731   2.794   1.866   2.229 -2.2823  0.7490  1.5095
  244SOL    HW2  732   2.680   1.826   2.355  1.5730 -0.6054  0.6231
  245SOL     OW  733   2.187   0.908   2.185 -0.3276  0.1435 -0.0910
  245SOL    HW1  734   2.274   0.896   2.238  0.2975 -1.8603 -2.6822
  245SOL    HW2  735   2.126   0.988   2.218 -4.3082  0.3627  0.4280
  246SOL     OW  736   0.211   2.877   1.710  0.4819  0.2455 -0.1009
  246SOL    HW1  737   0.120   2.899   1.658 -0.5080 -1.2035  3.0071
  246SOL    HW2  738   0.285   2.942   1.687 -2.3514 -0.6403  1.9048
  247SOL     OW  739   2.222   0.651   3.014  0.5470 -0.1920 -0.6670
  247SOL    HW1  740   2.285   0.640   2.933 -0.0415  1.1315  3.5897
  247SOL    HW2  741   2.163   0.738   3.002 -1.0186 -1.9503  0.9213
  248SOL     OW  742   2.208   1.824   1.553  0.4475 -0.0707  0.5679
  248SOL    HW1  743   2.278   1.784   1.612 -1.3091 -2.0415 -2.3312
  248SOL    HW2  744   2.110   1.798   1.590 -3.7572  1.0098 -0.5139
  249SOL     OW  745   1.950   1.894   1.899 -0.2881 -0.1725 -0.1719
  249SOL    HW1  746   1.951   1.821   1.826 -1.4308  0.0603 -2.8247
  249SOL    HW2  747   2.034   1.957   1.887 -0.1331  1.1855  1.4846
  250SOL     OW  748   1.090   0.700   1.872  0.0825 -0.0656 -0.0087
  250SOL    HW1  749   1.141   0.646   1.942  1.4758  1.2286 -1.2501
  250SOL    HW2  750   1.096   0.658   1.773 -1.0350 -2.9326  1.5681
  251SOL     OW  751   3.032   1.670   2.532 -0.8405 -1.0654  0.5183
  251SOL    HW1  752   3.023   1.776   2.527  0.1497 -1.3488 -1.5338
  251SOL    HW2  753   2.948   1.616   2.505 -0.6942 -0.7746 -2.5588
  252SOL     OW  754   1.606   0.742   1.701 -0.4266  0.0712  0.4462
  252SOL    HW1  755   1.690   0.687   1.726  0.2238  0.2400 -1.5000
  252SOL    HW2  756   1.597   0.839   1.735 -1.8906 -1.0489 -0.3368
  253SOL     OW  757   0.987   1.613   0.456  0.3631 -0.0293 -0.3215
  253SOL    HW1  758   0.993   1.523   0.405 -0.0444  0.7244  1.1881
  253SOL    HW2  759   0.889   1.626   0.502 -0.6508  2.7893  1.0574
  254SOL     OW  760   2.022   2.177   1.640 -0.1448  0.5952  0.6490
  254SOL    HW1  761   1.980   2.118   1.566  1.3852 -0.6652  0.8314
  254SOL    HW2  762   1.953   2.219   1.704  1.1130  0.5808  0.3040
  255SOL     OW  763   0.148   1.191   2.906  0.3263  0.1017 -0.1311
  255SOL    HW1  764   0.200   1.278   2.917 -2.1048 -1.2079  0.6080
  255SOL    HW2  765   0.179   1.109   2.967 -0.1942 -0.0258  0.7923
  256SOL     OW  766   2.859   1.412   1.844 -0.4861 -0.1466  0.7462
  256SOL    HW1  767   2.758   1.433   1.863  1.2178 -0.7165 -1.3432
  256SOL    HW2  768   2.868   1.321   1.793 -1.5746 -0.0890 -0.3510
  257SOL     OW  769   0.795   0.162   1.736 -0.0896 -0.7000 -0.1317
  257SOL    HW1  770   0.838   0.246   1.702 -0.5504 -2.0309  1.9517
  257SOL    HW2  771   0.858   0.079   1.720 -1.1747  1.3340 -1.3149
  258SOL     OW  772   2.987   1.226   0.481 -0.2027 -0.1281  0.3924
  258SOL    HW1  773   2.906   1.259   0.535  0.8692  0.1797  1.9162
  258SOL    HW2  774   3.065   1.211   0.552 -1.2466 -0.7582  3.1873
  259SOL     OW  775   0.408   2.887   3.047 -0.5612 -0.0608  0.0349
  259SOL    HW1  776   0.357   2.832   3.120  0.8247 -1.1617  0.0875
  259SOL    HW2  777   0.423   2.829   2.962  0.6656 -2.2394 -2.9591
  260SOL     OW  778   2.714   0.698   2.794 -0.2977  1.0144  0.6468
  260SOL    HW1  779   2.625   0.747   2.768 -0.5916  0.7610  1.6144
  260SOL    HW2  780   2.695   0.616   2.857 -0.2997  1.0892 -1.3464
  261SOL     OW  781   2.715   1.274   1.319 -0.5470  0.2740 -0.8490
  261SOL    HW1  782   2.695   1.231   1.230 -0.1205 -3.4417  0.2746
  261SOL    HW2  783   2.793   1.224   1.369  0.8626 -0.9545 -1.9029
  262SOL     OW  784   1.372   2.961   1.920 -0.2308  0.2256  0.1944
  262SOL    HW1  785   1.409   3.059   1.931 -0.6404  1.3003 -0.1979
  262SOL    HW2  786   1.271   2.961   1.896 -1.7290  3.1904 -0.0361
  263SOL     OW  787   0.852   0.690   2.289 -0.3451  0.2706  0.0908
  263SOL    HW1  788   0.801   0.600   2.266  2.7374  1.0578 -0.1407
  263SOL    HW2  789   0.867   0.749   2.200 -0.2194  3.8724  0.8418
  264SOL     OW  790   2.236   0.808   0.403  0.0476  0.1895  0.3232
  264SOL    HW1  791   2.215   0.742   0.323 -1.2970 -3.3932  1.2422
  264SOL    HW2  792   2.320   0.864   0.379 -1.1571  2.2834 -0.8693
  265SOL     OW  793   0.942   2.444   2.619  0.3442  0.2583 -0.8694
  265SOL    HW1  794   1.012   2.502   2.663  3.0917  1.3893 -1.8432
  265SOL    HW2  795   0.934   2.353   2.670  0.2498  1.8320  0.3293
  266SOL     OW  796   1.325   1.784   3.044  0.0468 -0.3735  0.1547
  266SOL    HW1  797   1.324   1.839   3.134 -1.7881  1.3161 -0.5323
  266SOL    HW2  798   1.416   1.749   3.008  1.5887  0.7280  0.5594
  267SOL     OW  799   1.048   0.081   2.320  0.3874 -0.1223 -0.3259
  267SOL    HW1  800   0.993   0.014   2.257 -1.0006 -1.2704 -0.2467
  267SOL    HW2  801   1.051   0.176   2.279  2.4429  1.9117 -0.0549
  268SOL     OW  802   0.725   1.240   1.067  0.7204  0.6832 -0.3700
  268SOL    HW1  803   0.716   1.277   1.168  2.3369 -0.4066  0.0171
  268SOL    HW2  804   0.729   1.314   0.997  3.5538  0.8054 -2.6824
  269SOL     OW  805   2.345   2.504   1.592  0.1066 -0.0660 -0.7426
  269SOL    HW1  806   2.419   2.450   1.643 -0.9066 -2.5933  0.0769
  269SOL    HW2  807   2.263   2.502   1.658 -1.1673 -1.6419 -0.1226
  270SOL     OW  808   0.140   2.988   1.963 -0.1839 -0.1393 -0.0396
  270SOL    HW1  809   0.154   2.934   1.875 -1.2715 -0.9512  0.3095
  270SOL    HW2  810   0.099   2.933   2.041 -3.2264  3.5617 -0.3136
  271SOL     OW  811   0.419   1.399   1.160  0.0666 -0.2122  0.2508
  271SOL    HW1  812   0.391   1.387   1.060  1.8066 -0.1406  1.0161
  271SOL    HW2  813   0.346   1.373   1.225 -0.3906  1.3226 -3.3306
  272SOL     OW  814   2.017   2.971   1.928  0.0716  0.2689 -0.1382
  272SOL    HW1  815   1.920   2.933   1.904 -0.6477  3.1083  2.3695
  272SOL    HW2  816   2.077   3.004   1.852 -4.6709 -2.7050 -0.5086
  273SOL     OW  817   1.490   1.447   2.758 -0.5278  0.7492 -0.3281
  273SOL    HW1  818   1.393   1.413   2.741 -1.1479 -1.0548  1.5272
  273SOL    HW2  819   1.539   1.393   2.831 -0.8215  0.9745 -1.1065
  274SOL     OW  820   1.175   0.509   2.055 -0.3363  0.2580  0.0368
  274SOL    HW1  821   1.104   0.428   2.059 -0.7044 -1.3207 -0.7009
  274SOL    HW2  822   1.217   0.537   2.147  1.5863  0.7917  0.3584
  275SOL     OW  823   0.658   2.127   1.898  0.2213  0.0019  0.0289
  275SOL    HW1  824   0.640   2.231   1.912 -2.1954  1.7035  4.0105
  275SOL    HW2  825   0.572   2.070   1.883  0.0340  0.0886 -1.0722
  276SOL     OW  826   2.192   1.116   2.786 -0.0446 -0.2836  0.2117
  276SOL    HW1  827   2.123   1.173   2.730  1.3823 -0.7048 -0.6252
  276SOL    HW2  828   2.151   1.025   2.809  0.1036 -0.9381  1.2664
  277SOL     OW  829   0.003   0.791   0.245  0.6081  0.5089  0.4415
  277SOL    HW1  830   0.103   0.790   0.221 -0.6959  1.0534  0.4025
  277SOL    HW2  831  -0.019   0.723   0.321  0.4782  1.0947  0.6003
  278SOL     OW  832   0.202   0.256   2.925 -0.0034 -0.3974  0.2393
  278SOL    HW1  833   0.269   0.181   2.937  1.8481  0.0630  0.6258
  278SOL    HW2  834   0.220   0.336   2.989 -1.5343 -3.3162  1.3167
  279SOL     OW  835   0.244   0.018   0.906  0.3679  0.2545  0.2572
  279SOL    HW1  836   0.252  -0.056   0.981  1.9122 -2.9272  1.0952
  279SOL    HW2  837   0.255  -0.017   0.810  2.5177  2.3084  1.4891
  280SOL     OW  838   1.608   2.951   2.397 -0.6056  0.2566 -0.0619
  280SOL    HW1  839   1.689   2.983   2.455  1.9627  1.2848 -1.0367
  280SOL    HW2  840   1.567   3.030   2.336  3.3792  1.8761 -0.2846
  281SOL     OW  841   0.576   0.985   2.275 -0.1783 -0.0866  0.3389
  281SOL    HW1  842   0.533   0.915   2.212 -0.9393 -0.0396 -0.1034
  281SOL    HW2  843   0.583   0.949   2.372 -2.9398  0.5628 -1.2209
  282SOL     OW  844   1.783   2.476   0.498 -0.2716  0.0909  0.0880
  282SOL    HW1  845   1.731   2.404   0.442  0.3154 -1.2205 -0.6397
  282SOL    HW2  846   1.726   2.559   0.518 -1.2645 -0.6406  2.0128
  283SOL     OW  847   1.195   0.945   0.765 -0.3926  0.1553 -0.2575
  283SOL    HW1  848   1.222   0.889   0.851 -2.3817 -1.5314 -0.7892
  283SOL    HW2  849   1.143   1.031   0.795  2.0007  0.7609 -0.6013
  284SOL     OW  850   2.249   2.803   2.487 -0.7676  0.0535 -0.1074
  284SOL    HW1  851   2.356   2.788   2.480  0.2240  2.0735  0.2002
  284SOL    HW2  852   2.225   2.862   2.566  1.0921 -2.9476 -1.5891
  285SOL     OW  853   1.399   3.075   2.571  0.2649  0.3261  0.1561
  285SOL    HW1  854   1.457   3.085   2.483 -1.2091  1.6675 -1.1962
  285SOL    HW2  855   1.315   3.132   2.565  1.9077 -1.8150 -1.0515
  286SOL     OW  856   0.419   0.415   0.747  0.0053  0.2447  0.4444
  286SOL    HW1  857   0.432   0.334   0.815  1.3774 -0.5992  0.9953
  286SOL    HW2  858   0.442   0.379   0.651 -1.3451 -0.5526 -3.0934
  287SOL     OW  859   0.071   1.291   2.548  0.0035  0.4110  0.4107
  287SOL    HW1  860   0.083   1.191   2.585 -0.0485 -1.8962  2.3408
  287SOL    HW2  861   0.000   1.338   2.604  0.1750  0.3337  2.7235
  288SOL     OW  862   1.600   2.723   1.648 -0.0695  0.6578 -0.5401
  288SOL    HW1  863   1.612   2.646   1.717  0.3484  0.1647  0.0148
  288SOL    HW2  864   1.607   2.687   1.556 -0.9361  0.1910  4.1638
  289SOL     OW  865   0.571   2.733   0.850  0.1709  0.3733  0.1249
  289SOL    HW1  866   0.638   2.802   0.804  1.1664 -0.2072  0.6930
  289SOL    HW2  867   0.575   2.750   0.950  3.9312 -0.0081  0.3759
  290SOL     OW  868   2.839   1.129   1.759 -0.5175 -0.4918 -0.5005
  290SOL    HW1  869   2.755   1.071   1.751 -1.1812  2.8931 -2.5682
  290SOL    HW2  870   2.921   1.087   1.814  1.1443  0.2850  1.1016
  291SOL     OW  871   1.984   3.094   0.048 -0.0396  0.0572  0.1645
  291SOL    HW1  872   1.972   3.137   0.144 -2.4001 -0.0389 -3.7783
  291SOL    HW2  873   2.055   3.145  -0.008  0.0686 -3.1214 -1.3422
  292SOL     OW  874   3.026   1.236   3.100  0.2447  0.2918 -0.0258
  292SOL    HW1  875   2.937   1.262   3.057  0.6499 -2.5798  1.0888
  292SOL    HW2  876   3.107   1.256   3.038 -4.1637 -0.3827  0.9847
  293SOL     OW  877   0.549   2.164   0.287  0.2556 -0.5906  0.0007
  293SOL    HW1  878   0.487   2.222   0.347  1.9167 -0.7039 -0.1052
  293SOL    HW2  879   0.648   2.168   0.311  2.7399 -1.7301 -1.9637
  294SOL     OW  880   1.820   2.326   1.785 -0.1957  0.1547 -0.2911
  294SOL    HW1  881   1.830   2.374   1.879 -1.3931  0.8816  4.2174
  294SOL    HW2  882   1.749   2.378   1.726 -0.7262  2.7220  1.3942
  295SOL     OW  883   0.974   1.041   0.453  0.2914 -0.1285  0.2421
  295SOL    HW1  884   1.074   1.052   0.463 -2.9066  1.1842 -1.3478
  295SOL    HW2  885   0.926   1.028   0.544  0.1570 -3.3898  1.3631
  296SOL     OW  886   1.188   2.135   2.709  0.1372 -0.0111  0.1522
  296SOL    HW1  887   1.086   2.165   2.711 -1.0722 -1.0182 -0.0265
  296SOL    HW2  888   1.224   2.073   2.635  1.8394  0.2288  3.1701
  297SOL     OW  889   1.354   0.572   1.290 -0.5787 -0.3011 -0.7185
  297SOL    HW1  890   1.400   0.530   1.375 -0.1514  1.5478  0.3654
  297SOL    HW2  891   1.428   0.620   1.233 -1.7125 -1.1172  2.2728
  298SOL     OW  892   0.521   1.365   2.996 -0.1864  0.5454 -0.2678
  298SOL    HW1  893   0.472   1.291   3.058 -0.3808  0.9168  1.3462
  298SOL    HW2  894   0.601   1.323   2.947  0.9045 -0.8820  0.4589
  299SOL     OW  895   0.434   0.292   1.294 -0.2102 -0.3663  0.2530
  299SOL    HW1  896   0.386   0.377   1.251  0.5460 -0.5157  0.8333
  299SOL    HW2  897   0.423   0.278   1.397 -0.8762 -2.7129  2.1786
  300SOL     OW  898   1.265   1.730   2.568  0.1625  0.5323  0.1340
  300SOL    HW1  899   1.242   1.636   2.532 -0.5881 -0.4883 -1.1376
  300SOL    HW2  900   1.366   1.733   2.602  1.8089  0.4121 -2.7584
  301SOL     OW  901   0.443   0.282   0.521  0.5493 -0.1666 -0.4313
  301SOL    HW1  902   0.357   0.240   0.553  1.4387  0.1945 -0.6348
  301SOL    HW2  903   0.492   0.215   0.463 -0.6282  1.3515  3.2568
  302SOL     OW  904   1.222   2.447   2.312 -0.2266  0.6041 -0.2496
  302SOL    HW1  905   1.138   2.493   2.357 -0.4409 -0.2233 -1.1671
  302SOL    HW2  906   1.248   2.353   2.347  1.0663 -1.3939  0.4191
  303SOL     OW  907   0.916   2.433   0.819  0.4265  0.3026  0.1218
  303SOL    HW1  908   0.960   2.451   0.727  1.4956  2.6021 -2.6239
  303SOL    HW2  909   0.965   2.473   0.907  0.1379 -0.6912  1.8255
  304SOL     OW  910   0.071   1.905   0.680 -0.2371 -0.0539 -0.3890
  304SOL    HW1  911   0.136   1.881   0.603 -3.0761  0.8895  2.0436
  304SOL    HW2  912   0.020   1.989   0.648 -0.9543  0.8799 -0.7612
  305SOL     OW  913   1.603   0.891   0.693 -0.1622 -0.1023  0.5191
  305SOL    HW1  914   1.514   0.891   0.631 -1.2137  1.2905 -1.3004
  305SOL    HW2  915   1.659   0.804   0.702  1.8097 -1.7391 -1.7814
  306SOL     OW  916   0.429   1.954   1.868 -0.1054  0.1970  0.2081
  306SOL    HW1  917   0.494   1.881   1.845  0.0055  1.0647  0.2568
  306SOL    HW2  918   0.417   1.967   1.968 -1.0311  0.1859  0.3283
  307SOL     OW  919   3.009   0.866   2.508  0.4591  0.5863 -0.4939
  307SOL    HW1  920   3.047   0.916   2.593 -0.2009  0.1833  0.3399
  307SOL    HW2  921   2.943   0.789   2.530  1.3297 -2.1464 -1.1556
  308SOL     OW  922   1.585   2.669   2.823 -0.3873  0.0476  0.7185
  308SOL    HW1  923   1.618   2.613   2.740  0.0433  1.9317  0.6811
  308SOL    HW2  924   1.500   2.633   2.869 -1.1376  0.3000  0.0545
  309SOL     OW  925   1.230   0.155   1.783  0.2981 -0.2612  0.2070
  309SOL    HW1  926   1.325   0.129   1.827  2.0835  0.5579  1.1049
  309SOL    HW2  927   1.235   0.171   1.679  2.0143  0.9564 -0.3770
  310SOL     OW  928   1.514   2.560   0.679 -0.0773  0.3989 -0.3202
  310SOL    HW1  929   1.457   2.553   0.758  0.4962  1.6339  1.4505
  310SOL    HW2  930   1.575   2.646   0.674 -0.3069 -0.8233 -0.1652
  311SOL     OW  931   1.143   0.970   1.745  0.0684  0.7345 -0.2608
  311SOL    HW1  932   1.102   0.888   1.793  0.8936 -0.4832 -0.7018
  311SOL    HW2  933   1.199   0.946   1.663 -0.0628  1.3052 -2.1957
  312SOL     OW  934   1.545   0.679   1.119  0.0365  0.1315 -0.1353
  312SOL    HW1  935   1.540   0.783   1.116 -0.0928 -1.0435 -0.8833
  312SOL    HW2  936   1.547   0.635   1.029 -1.2963 -1.4659  2.4640
  313SOL     OW  937   1.599   1.355   0.730  0.4124 -0.2413 -0.4379
  313SOL    HW1  938   1.507   1.369   0.785 -1.6936  1.2593  3.5537
  313SOL    HW2  939   1.595   1.269   0.671 -0.8388 -1.1595  1.6272
  314SOL     OW  940   2.992   3.085   3.089 -0.0421 -0.1005  0.2284
  314SOL    HW1  941   3.003   3.112   3.187 -1.5367  0.7201 -0.8821
  314SOL    HW2  942   2.897   3.051   3.073 -1.8780  2.2179  1.9033
  315SOL     OW  943   1.189   0.252   2.764 -0.0372 -0.1324  0.0340
  315SOL    HW1  944   1.162   0.189   2.684  0.6324 -0.5959 -0.8978
  315SOL    HW2  945   1.160   0.213   2.854 -0.9262  0.6551 -2.1025
  316SOL     OW  946   1.747   2.093   0.884  0.2109  0.2599 -0.2462
  316SOL    HW1  947   1.684   2.080   0.967 -3.6797 -0.2637  1.0619
  316SOL    HW2  948   1.747   2.190   0.850  0.1795 -1.2045  0.2542
  317SOL     OW  949   1.179   0.642   2.762  0.4369  0.0172 -0.4415
  317SOL    HW1  950   1.136   0.714   2.827  1.8113  0.7356 -0.5091
  317SOL    HW2  951   1.105   0.575   2.742 -1.1562 -2.8370  1.8437
  318SOL     OW  952   1.425   0.002   2.229  0.1728  0.2704 -0.0545
  318SOL    HW1  953   1.388   0.097   2.239 -1.2043  0.0177  1.9569
  318SOL    HW2  954   1.385  -0.049   2.152 -0.7626 -2.3167  1.3242
  319SOL     OW  955   0.646   2.329   2.909  0.4839  0.4259  0.4660
  319SOL    HW1  956   0.610   2.299   3.000  3.4850 -3.0662 -1.5046
  319SOL    HW2  957   0.692   2.247   2.866 -0.5006  0.8392 -0.5457
  320SOL     OW  958   1.671   2.254   0.399 -0.3520  0.2279  0.1288
  320SOL    HW1  959   1.747   2.196   0.369 -2.6715  4.5860  1.0167
  320SOL    HW2  960   1.597   2.201   0.438 -0.9087  0.4445 -0.1872
  321SOL     OW  961   1.678   2.765   0.581  0.2099  0.0800 -0.0602
  321SOL    HW1  962   1.589   2.787   0.528 -1.8263  1.5625 -0.5171
  321SOL    HW2  963   1.767   2.799   0.538 -1.4288 -1.3361  1.4878
  322SOL     OW  964   2.599   1.124   2.315  0.0263 -0.1943 -0.1487
  322SOL    HW1  965   2.682   1.136   2.377  0.6351  1.1600 -1.3980
  322SOL    HW2  966   2.546   1.039   2.326 -0.2313  1.9202 -0.8245
  323SOL     OW  967   1.165   2.650   0.820 -0.0933 -0.1190 -0.0366
  323SOL    HW1  968   1.157   2.578   0.736 -0.9210 -0.0597 -3.1349
  323SOL    HW2  969   1.147   2.750   0.792  1.2322 -0.3565 -1.5618
  324SOL     OW  970   0.244   2.538   2.452 -0.7119  0.6672 -0.1652
  324SOL    HW1  971   0.166   2.509   2.510  2.1792  0.4268  1.1739
  324SOL    HW2  972   0.288   2.629   2.484 -1.5165 -0.5566  0.3219
  325SOL     OW  973   1.237   3.001   0.462 -0.5871  0.4839 -0.5479
  325SOL    HW1  974   1.250   3.049   0.369 -3.1750 -0.3100  0.8534
  325SOL    HW2  975   1.257   3.071   0.538 -1.0971  0.0497  0.0278
  326SOL     OW  976   2.470   0.783   0.019  0.5323 -0.0808  0.4855
  326SOL    HW1  977   2.377   0.732   0.002  0.6430  0.2762 -2.0582
  326SOL    HW2  978   2.544   0.716   0.053 -2.1830 -2.5268 -3.8852
  327SOL     OW  979   2.795   0.320   0.541 -0.2209  0.1046  0.5083
  327SOL    HW1  980   2.779   0.289   0.441 -0.3654  1.2434  1.5534
  327SOL    HW2  981   2.817   0.254   0.616  1.3843  1.1471 -0.4037
  328SOL     OW  982   2.625   0.634   0.409  0.1476  0.5427  0.0066
  328SOL    HW1  983   2.676   0.681   0.488  0.9280  1.3636 -1.4741
  328SOL    HW2  984   2.597   0.536   0.429  0.7845 -0.3040  2.0024
  329SOL     OW  985   2.901   2.939   2.114  0.2569  0.4449 -0.3205
  329SOL    HW1  986   2.974   2.897   2.174  1.4410  0.4450  1.0204
  329SOL    HW2  987   2.909   3.041   2.115  1.8545  0.6104 -1.3760
  330SOL     OW  988   0.594   0.181   1.934 -0.0128  0.2647  0.1623
  330SOL    HW1  989   0.664   0.140   1.872  0.9642  2.0810  1.7662
  330SOL    HW2  990   0.586   0.118   2.014  1.5684  0.3340 -2.4550
  331SOL     OW  991   3.013   1.918   1.094  0.0966 -0.1548  0.5288
  331SOL    HW1  992   2.976   1.914   1.001  0.0384 -2.6474  1.5367
  331SOL    HW2  993   2.933   1.898   1.159 -1.4885 -2.7354 -0.4455
  332SOL     OW  994   0.396   1.186   0.068  0.4041 -0.3205  0.0423
  332SOL    HW1  995   0.340   1.102   0.027 -1.7029 -1.7384 -2.4666
  332SOL    HW2  996   0.401   1.194   0.171  1.5999  1.1528  1.2676
  333SOL     OW  997   2.944   0.998   0.343  0.1527 -0.0588  0.6565
  333SOL    HW1  998   2.982   1.082   0.394 -1.6052 -0.6619  1.5623
  333SOL    HW2  999   3.019   0.949   0.285 -2.9886  1.2341  2.5940
  334SOL     OW 1000   1.720   1.276   1.815 -0.4496 -0.1484  0.7752
  334SOL    HW1 1001   1.756   1.282   1.718  0.7802 -0.1396 -1.2603
  334SOL    HW2 1002   1.786   1.236   1.888  0.9478 -0.3308  2.8208
  335SOL     OW 1003   1.973   2.752   2.588  0.0339 -0.3872  0.2368
  335SOL    HW1 1004   1.920   2.764   2.676 -2.4137  1.6490 -3.3068
  335SOL    HW2 1005   2.076   2.758   2.595 -2.4983  2.0006  2.2998
  336SOL     OW 1006   0.242   0.020   2.710 -0.3988 -0.0568 -0.5616
  336SOL    HW1 1007   0.330   0.010   2.763 -0.1472 -0.3674  2.1871
  336SOL    HW2 1008   0.157  -0.008   2.763  0.8460 -1.1712 -1.9019
  337SOL     OW 1009   0.950   2.934   2.951 -0.6990 -0.1717  0.2199
  337SOL    HW1 1010   0.910   2.841   2.991 -2.5853  1.1352 -0.2576
  337SOL    HW2 1011   1.052   2.945   2.968 -1.2069 -2.8831 -2.0794
  338SOL     OW 1012   0.055   0.981   0.681 -0.2244 -0.4209 -0.5825
  338SOL    HW1 1013  -0.033   0.949   0.727 -1.5293 -1.8289  0.4358
  338SOL    HW2 1014   0.066   1.085   0.694 -1.8608 -0.9612  0.7132
  339SOL     OW 1015   1.711   1.365   2.170 -0.3782 -0.0935  0.0108
  339SOL    HW1 1016   1.644   1.411   2.114  0.1642 -0.5891  3.3790
  339SOL    HW2 1017   1.741   1.434   2.236 -1.4182 -1.1019 -1.4127
  340SOL     OW 1018   2.246   0.768   1.175 -0.5650  0.2250  0.1858
  340SOL    HW1 1019   2.149   0.808   1.166  0.3021  2.0948 -0.2052
  340SOL    HW2 1020   2.256   0.671   1.146 -1.8510  2.8611 -0.9955
  341SOL     OW 1021   1.923   2.116   0.339 -0.2791 -0.2424  0.1827
  341SOL    HW1 1022   1.938   2.129   0.236  0.3266 -1.0708 -0.2069
  341SOL    HW2 1023   1.997   2.065   0.385 -2.7080 -2.0807  0.3326
  342SOL     OW 1024   2.164   2.139   2.762  0.0863 -0.1949 -0.5455
  342SOL    HW1 1025   2.224   2.064   2.801  0.7787  1.0586  1.0111
  342SOL    HW2 1026   2.068   2.107   2.737  1.3080 -0.2091  1.1482
  343SOL     OW 1027   0.422   0.783   2.770  0.2109 -0.1648 -0.1053
  343SOL    HW1 1028   0.428   0.848   2.688 -0.9188 -1.2312  0.7012
  343SOL    HW2 1029   0.510   0.775   2.828  3.2017  0.1568 -0.1962
  344SOL     OW 1030   1.890   1.497   0.388  0.0476  0.0243 -0.4175
  344SOL    HW1 1031   1.891   1.404   0.343 -0.3004  0.1644 -0.4440
  344SOL    HW2 1032   1.796   1.518   0.426  0.4583  2.4653 -0.3988
  345SOL     OW 1033   1.409   2.243   2.871  0.3167 -0.0629  0.0318
  345SOL    HW1 1034   1.329   2.240   2.806  0.6609 -1.2935 -0.7180
  345SOL    HW2 1035   1.465   2.153   2.858 -1.5467 -3.3312  0.4299
  346SOL     OW 1036   2.335   0.915   1.399  0.1800 -0.2445  0.1200
  346SOL    HW1 1037   2.287   0.997   1.442 -0.9449  0.7792  0.2360
  346SOL    HW2 1038   2.287   0.878   1.310  0.4846 -3.1449 -1.5533
  347SOL     OW 1039   0.723   2.723   1.615 -0.4083 -0.2925 -0.4643
  347SOL    HW1 1040   0.676   2.742   1.709  0.1631 -1.4149  0.7565
  347SOL    HW2 1041   0.664   2.749   1.536 -0.6414  1.0418 -0.5716
  348SOL     OW 1042   0.170   0.786   2.895 -0.1956  0.0149 -0.5938
  348SOL    HW1 1043   0.081   0.754   2.844 -0.5153  1.2051 -3.4397
  348SOL    HW2 1044   0.252   0.791   2.829 -1.9726  0.4571 -0.1298
  349SOL     OW 1045   1.823   0.445   2.784 -0.0343  0.5709 -0.1348
  349SOL    HW1 1046   1.816   0.528   2.724 -0.2113  1.4589  2.9278
  349SOL    HW2 1047   1.814   0.469   2.886 -1.5335  1.3662  1.8196
  350SOL     OW 1048   1.667   0.373   0.359  0.4253 -0.4163 -0.0837
  350SOL    HW1 1049   1.722   0.384   0.446  0.1779 -0.4426 -0.6860
  350SOL    HW2 1050   1.668   0.452   0.300  0.4166 -2.5831  0.6773
  351SOL     OW 1051   0.936   0.837   2.088 -0.3763 -0.5530 -0.2450
  351SOL    HW1 1052   0.975   0.936   2.094  0.5663  2.8425 -1.2218
  351SOL    HW2 1053   0.983   0.784   2.014  1.4200  0.7134  0.7178
  352SOL     OW 1054   2.088   1.374   0.568  0.4616 -0.1681  0.0316
  352SOL    HW1 1055   2.042   1.453   0.520 -4.1929 -1.7515 -0.2554
  352SOL    HW2 1056   2.023   1.325   0.632 -0.8230  1.3570 -1.8703
  353SOL     OW 1057   2.205   2.813   1.059  0.1566 -0.8011  0.5315
  353SOL    HW1 1058   2.258   2.759   1.127 -2.2230 -1.2742  0.9752
  353SOL    HW2 1059   2.106   2.816   1.077  1.3332  1.3919  0.2194
  354SOL     OW 1060   0.279   1.445   2.864  0.2942  0.1820  0.3107
  354SOL    HW1 1061   0.275   1.530   2.804 -0.8570 -0.0031  1.5150
  354SOL    HW2 1062   0.375   1.426   2.903 -0.2411  0.1081 -0.5851
  355SOL     OW 1063   0.741   1.589   0.588  0.1305  0.1456  0.6337
  355SOL    HW1 1064   0.713   1.558   0.683 -0.6306 -1.6859  0.6316
  355SOL    HW2 1065   0.689   1.540   0.514 -1.7601  1.7870  2.1185
  356SOL     OW 1066   0.852   0.306   2.033 -0.4615 -0.1712 -0.0174
  356SOL    HW1 1067   0.946   0.266   2.034  2.6666 -0.4548  0.6480
  356SOL    HW2 1068   0.804   0.284   1.945 -0.0764 -0.5312 -0.7408
  357SOL     OW 1069   1.033   1.327   0.363 -0.3967  0.2039  0.1754
  357SOL    HW1 1070   1.103   1.317   0.287 -3.1009  0.2924 -0.3156
  357SOL    HW2 1071   0.995   1.233   0.389  3.3943  0.8449 -0.0743
  358SOL     OW 1072   1.634   1.526   0.498 -0.6998 -0.4232  0.7169
  358SOL    HW1 1073   1.613   1.480   0.588  1.0452 -0.1773 -3.1754
  358SOL    HW2 1074   1.558   1.519   0.427  2.8264  1.4454 -0.3466
  359SOL     OW 1075   1.588   2.605   0.274 -0.0833 -0.4383  0.6358
  359SOL    HW1 1076   1.560   2.514   0.229  0.8489  0.9563 -0.2334
  359SOL    HW2 1077   1.512   2.648   0.325  0.3528 -0.0653 -1.4444
  360SOL     OW 1078   0.770   0.533   0.556  0.4309 -0.1859  0.3803
  360SOL    HW1 1079   0.667   0.534   0.522 -1.0320 -2.6760  3.9222
  360SOL    HW2 1080   0.806   0.437   0.572 -0.7168 -1.6680 -0.5951
  361SOL     OW 1081   1.311   1.275   0.642  0.2427 -0.1138 -0.2981
  361SOL    HW1 1082   1.328   1.260   0.747  2.6775  0.4412 -0.4507
  361SOL    HW2 1083   1.244   1.355   0.623 -1.9836  0.1299  0.0542
  362SOL     OW 1084   1.380   1.750   0.725  0.0983 -0.1030 -0.1518
  362SOL    HW1 1085   1.439   1.690   0.787  1.2480 -1.2234 -2.1591
  362SOL    HW2 1086   1.435   1.809   0.659 -1.0551  2.0510  0.5515
  363SOL     OW 1087   1.223   1.302   2.070 -0.1524 -0.2528 -0.0403
  363SOL    HW1 1088   1.319   1.336   2.056  1.5685  1.7761 -2.8069
  363SOL    HW2 1089   1.162   1.377   2.102 -0.8592 -0.4250  1.1532
  364SOL     OW 1090   0.512   2.362   2.035  0.2866 -0.0175  0.2922
  364SOL    HW1 1091   0.415   2.397   2.051  0.3579  2.7378  0.3081
  364SOL    HW2 1092   0.551   2.407   1.950  0.0975 -0.6294  0.2143
  365SOL     OW 1093   1.048   1.975   1.340  0.2104  0.6077  0.0032
  365SOL    HW1 1094   0.949   1.973   1.371  1.0551  0.1221 -0.0520
  365SOL    HW2 1095   1.064   2.035   1.256  1.4150 -0.3323 -1.5222
  366SOL     OW 1096   2.853   1.945   0.371  0.0915 -0.1481  0.0736
  366SOL    HW1 1097   2.779   1.963   0.300 -0.3348  1.8920 -3.2759
  366SOL    HW2 1098   2.927   1.880   0.329  1.4379  0.9393 -0.2162
  367SOL     OW 1099   0.956   1.184   0.032 -0.4120 -0.1303  0.0336
  367SOL    HW1 1100   0.941   1.114   0.110 -2.6194 -3.1045 -1.8501
  367SOL    HW2 1101   1.053   1.222   0.023 -1.9269  2.1748 -0.5982
  368SOL     OW 1102   1.455   0.518   0.603  0.6268  0.0072 -0.7034
  368SOL    HW1 1103   1.373   0.538   0.535  0.0251 -0.4253 -0.3408
  368SOL    HW2 1104   1.543   0.566   0.569  1.4795 -2.4663  0.2272
  369SOL     OW 1105   0.380   1.740   0.187  0.1851 -0.1534  0.0852
  369SOL    HW1 1106   0.393   1.796   0.271 -1.0070 -3.2365 -0.4923
  369SOL    HW2 1107   0.337   1.645   0.199  1.6925 -1.4719 -0.2897
  370SOL     OW 1108   0.430   2.096   1.035 -0.4280  0.1794 -0.0221
  370SOL    HW1 1109   0.427   2.203   1.033  0.7507  1.9266  1.6137
  370SOL    HW2 1110   0.353   2.055   0.985 -1.1548 -2.0607 -0.4494
  371SOL     OW 1111   2.863   2.217   2.624 -0.0996  0.3892  0.4090
  371SOL    HW1 1112   2.785   2.152   2.658 -0.6818 -1.5829 -0.1566
  371SOL    HW2 1113   2.905   2.273   2.702  3.0852 -1.3106  0.3825
  372SOL     OW 1114   1.067   2.079   1.034 -0.4180  0.5685  1.0072
  372SOL    HW1 1115   0.980   2.114   0.990 -0.2404  1.1672  0.0094
  372SOL    HW2 1116   1.148   2.081   0.971  0.7443  0.7891  1.4067
  373SOL     OW 1117   1.927   1.912   0.988  0.1816 -0.4138  0.3287
  373SOL    HW1 1118   2.024   1.944   1.008 -2.1323  2.1926  2.5050
  373SOL    HW2 1119   1.859   1.985   0.962  2.8304 -0.6780  1.2422
  374SOL     OW 1120   1.862   0.404   0.564 -0.1328  0.5534  0.0107
  374SOL    HW1 1121   1.848   0.376   0.666 -1.8513 -1.6598  0.0665
  374SOL    HW2 1122   1.962   0.394   0.547  1.6881 -1.7283  0.5561
  375SOL     OW 1123   2.401   2.175   1.074 -0.2746  0.6520 -0.0370
  375SOL    HW1 1124   2.426   2.121   0.988  0.3874  0.1167 -0.7177
  375SOL    HW2 1125   2.471   2.164   1.147 -1.2605 -1.4097 -0.1641
  376SOL     OW 1126   3.047   0.525   1.439  0.2112  0.4137 -1.2811
  376SOL    HW1 1127   3.038   0.616   1.484 -1.8020  1.2378  0.7042
  376SOL    HW2 1128   2.962   0.472   1.457  2.2237  1.8094 -1.6225
  377SOL     OW 1129   2.173   2.923   0.308 -0.0066  0.1282  0.0598
  377SOL    HW1 1130   2.157   3.023   0.335  1.1303  1.1617 -0.5295
  377SOL    HW2 1131   2.257   2.886   0.356 -2.0958  0.2218  0.0604
  378SOL     OW 1132   1.745   1.828   2.521 -0.2601 -0.1390 -0.4441
  378SOL    HW1 1133   1.850   1.845   2.501  2.0144 -0.2364  3.3687
  378SOL    HW2 1134   1.725   1.727   2.495  2.3309 -2.8394  3.3256
  379SOL     OW 1135   0.711   0.150   2.838  0.5864  0.1330 -0.1368
  379SOL    HW1 1136   0.760   0.078   2.779 -1.4886  0.4980 -0.5596
  379SOL    HW2 1137   0.656   0.210   2.780  1.2714 -2.8549 -1.0954
  380SOL     OW 1138   1.581   1.145   0.546  0.0804  0.0774 -0.6156
  380SOL    HW1 1139   1.483   1.173   0.552 -0.2534  0.4903  0.8234
  380SOL    HW2 1140   1.591   1.047   0.578  0.3617  0.8288 -1.5592
  381SOL     OW 1141   1.352   1.203   1.574  0.1865 -0.0052 -0.0524
  381SOL    HW1 1142   1.382   1.131   1.506 -2.9589  0.1590  1.3482
  381SOL    HW2 1143   1.422   1.277   1.599  1.4787  0.9802 -1.6551
  382SOL     OW 1144   1.832   0.892   0.215 -0.0395  0.3326  0.2220
  382SOL    HW1 1145   1.863   0.844   0.130 -0.4447  0.3621  0.2294
  382SOL    HW2 1146   1.887   0.858   0.296 -0.7508 -0.7006  0.1546
  383SOL     OW 1147   2.594   1.006   1.482  0.1192  0.0380  0.2077
  383SOL    HW1 1148   2.503   0.993   1.442  3.2972 -0.1908  1.9388
  383SOL    HW2 1149   2.669   0.985   1.415 -0.7926 -0.4504  0.0380
  384SOL     OW 1150   0.893   2.232   0.179 -0.7925  0.1377 -0.1585
  384SOL    HW1 1151   0.872   2.331   0.205  1.5096  0.2295  1.3797
  384SOL    HW2 1152   0.867   2.165   0.253  0.5728 -0.0737  1.4712
  385SOL     OW 1153   2.972   1.997   1.661  0.1697 -0.3683 -0.1925
  385SOL    HW1 1154   3.033   2.088   1.654  2.8190  3.0982  1.1784
  385SOL    HW2 1155   3.021   1.907   1.631 -1.0627 -1.5013 -0.9326
  386SOL     OW 1156   0.491   1.075   0.466 -0.5706  0.0963 -0.1037
  386SOL    HW1 1157   0.476   0.975   0.502 -0.7653  1.4651 -0.6960
  386SOL    HW2 1158   0.407   1.117   0.420 -3.3603  0.5357  1.3798
  387SOL     OW 1159   0.914   0.411   1.664 -0.1281 -0.3853 -0.6859
  387SOL    HW1 1160   0.951   0.509   1.676 -0.1913  2.2612  0.0121
  387SOL    HW2 1161   0.957   0.367   1.580  2.9337  1.4762  0.2102
  388SOL     OW 1162   1.190   2.726   1.730 -0.2292  0.4656  0.4764
  388SOL    HW1 1163   1.246   2.727   1.640  2.2724  2.6001  0.7602
  388SOL    HW2 1164   1.232   2.660   1.803 -0.8372 -0.1533  0.0087
  389SOL     OW 1165   0.143   2.985   1.248 -0.3491 -0.5762  0.6278
  389SOL    HW1 1166   0.044   3.012   1.240 -2.4123 -1.3592  0.9508
  389SOL    HW2 1167   0.154   2.888   1.259 -2.0472  0.1792  0.9531
  390SOL     OW 1168   1.051   0.967   1.301  0.5127 -0.0945 -0.2016
  390SOL    HW1 1169   1.137   0.941   1.357  0.4929  1.5968  3.5615
  390SOL    HW2 1170   1.002   1.047   1.343 -0.8664 -0.3413 -1.9934
  391SOL     OW 1171   2.189   1.117   1.082 -0.2552 -0.1801 -0.1609
  391SOL    HW1 1172   2.131   1.033   1.117  1.8233 -0.0988  2.2791
  391SOL    HW2 1173   2.238   1.089   0.997 -1.8271 -2.2121  2.0289
  392SOL     OW 1174   0.873   2.658   3.051  0.4895 -0.4678 -0.4387
  392SOL    HW1 1175   0.952   2.600   3.044 -0.6954  1.3470 -1.4954
  392SOL    HW2 1176   0.811   2.629   3.128  0.8835 -0.3609 -3.2309
  393SOL     OW 1177   0.372   0.561   1.977 -0.7559 -0.8637  0.0493
  393SOL    HW1 1178   0.282   0.506   1.977 -1.8415 -0.8379  1.1412
  393SOL    HW2 1179   0.442   0.528   1.912 -0.0232  1.9074  0.5821
  394SOL     OW 1180   2.967   1.917   2.794  0.4303  0.5829  0.0144
  394SOL    HW1 1181   3.062   1.934   2.839  2.4010  0.9663  0.8935
  394SOL    HW2 1182   2.967   1.924   2.690 -0.2802  0.8869  0.0937
  395SOL     OW 1183   1.597   1.989   0.665  0.0078  0.1309  0.0301
  395SOL    HW1 1184   1.655   1.929   0.604  0.3584  0.0203 -0.9513
  395SOL    HW2 1185   1.654   2.029   0.742 -1.0613 -0.7201  1.9568
  396SOL     OW 1186   2.811   1.852   1.273  0.2239 -0.1851 -0.3312
  396SOL    HW1 1187   2.825   1.747   1.266 -0.4097 -1.1886  1.3715
  396SOL    HW2 1188   2.786   1.888   1.364  0.7138  0.8047  0.6773
  397SOL     OW 1189   1.041   2.219   0.493 -0.2791 -0.0055  0.0282
  397SOL    HW1 1190   0.935   2.201   0.501 -2.8818 -0.0517  1.9560
  397SOL    HW2 1191   1.067   2.310   0.529 -0.2591 -0.1343  0.2916
  398SOL     OW 1192   2.166   3.101   1.012 -0.2703  0.5788 -0.4194
  398SOL    HW1 1193   2.184   3.007   1.060  0.8916 -0.6402 -1.7940
  398SOL    HW2 1194   2.088   3.153   1.055  0.2332  0.2637  2.3346
  399SOL     OW 1195   3.076   2.448   2.557  0.7390 -0.3419  0.6716
  399SOL    HW1 1196   2.970   2.446   2.540 -2.2975 -2.6877 -1.0408
  399SOL    HW2 1197   3.102   2.367   2.613  1.6030  0.1408 -0.0980
  400SOL     OW 1198   0.795   1.630   1.338  0.8177  0.4344  0.6163
  400SOL    HW1 1199   0.734   1.663   1.418 -2.1251  1.9486 -0.8346
  400SOL    HW2 1200   0.818   1.703   1.272 -2.0520 -2.0813 -0.7202
  401SOL     OW 1201   1.862   0.095   1.290  0.0250  0.3924 -1.0402
  401SOL    HW1 1202   1.925   0.082   1.370  1.2528 -1.7911  0.2810
  401SOL    HW2 1203   1.765   0.094   1.324 -0.2245  1.5792 -0.1448
  402SOL     OW 1204   1.299   0.141   3.093 -0.2798 -0.1650  0.2162
  402SOL    HW1 1205   1.377   0.107   3.037 -2.0569  0.0315  1.4907
  402SOL    HW2 1206   1.267   0.236   3.070  1.0930 -2.2302 -1.4028
  403SOL     OW 1207   2.291   1.764   0.973 -0.2273  0.2777 -0.1246
  403SOL    HW1 1208   2.394   1.757   0.998 -2.3289  0.0025  1.3132
  403SOL    HW2 1209   2.254   1.854   1.005 -0.3043 -1.3559 -1.6222
  404SOL     OW 1210   0.164   2.485   2.794  0.0927 -0.8902  0.1081
  404SOL    HW1 1211   0.256   2.460   2.756 -0.0927  0.6554 -1.0766
  404SOL    HW2 1212   0.149   2.584   2.810 -0.1486  0.2406  1.2853
  405SOL     OW 1213   0.133   2.444   0.704 -0.4000  0.3185 -0.7318
  405SOL    HW1 1214   0.129   2.384   0.613  0.9936  1.0951 -1.1286
  405SOL    HW2 1215   0.211   2.516   0.698  2.6811  1.0423  1.9883
  406SOL     OW 1216   0.095   1.520   3.033 -0.2003 -0.0738 -0.6215
  406SOL    HW1 1217   0.175   1.507   2.969 -3.0513  1.3669  0.6302
  406SOL    HW2 1218   0.128   1.536   3.133  0.5520  0.2483  2.6775
  407SOL     OW 1219   1.532   0.921   1.013  0.3954 -0.2742 -0.1138
  407SOL    HW1 1220   1.508   0.893   0.918 -1.3793  1.6968  2.0459
  407SOL    HW2 1221   1.472   1.004   1.047 -1.4643  1.6762  0.3645
  408SOL     OW 1222   1.614   2.437   0.955 -0.1212  0.4820  0.4572
  408SOL    HW1 1223   1.667   2.407   0.871  0.0308  0.1205 -1.0605
  408SOL    HW2 1224   1.572   2.531   0.945 -2.0518 -0.8091  0.4156
  409SOL     OW 1225   0.619   0.824   0.751  0.5515  0.0255  0.3357
  409SOL    HW1 1226   0.581   0.815   0.656  0.1572  1.2661  0.2855
  409SOL    HW2 1227   0.650   0.739   0.805 -0.8889  1.0134  0.2744
  410SOL     OW 1228   1.317   2.036   1.396 -0.4261 -0.6265 -0.4540
  410SOL    HW1 1229   1.379   1.965   1.439  1.4765 -3.9389  2.6398
  410SOL    HW2 1230   1.221   2.002   1.384  1.0791 -0.2171  0.2957
  411SOL     OW 1231   2.614   1.896   3.057  0.4518 -0.0543 -0.0499
  411SOL    HW1 1232   2.521   1.936   3.042  1.1154  0.7976 -0.8600
  411SOL    HW2 1233   2.663   1.871   2.971  0.8559  0.4114  1.2107
  412SOL     OW 1234   1.477   2.476   2.169  0.2949  0.1782  0.0169
  412SOL    HW1 1235   1.537   2.553   2.209 -0.2670  1.2883  0.8807
  412SOL    HW2 1236   1.392   2.451   2.224  0.2030  0.0154  1.0570
  413SOL     OW 1237   3.038   0.220   2.921 -0.1941  0.1255 -0.3680
  413SOL    HW1 1238   2.998   0.144   2.980 -1.1290  1.3545  1.1667
  413SOL    HW2 1239   3.140   0.233   2.921  0.5934  1.6804 -2.7671
  414SOL     OW 1240   1.902   1.536   1.196  0.3783  0.5203 -0.0162
  414SOL    HW1 1241   1.848   1.609   1.152  3.5714 -0.5303  1.8280
  414SOL    HW2 1242   1.838   1.485   1.262  0.9425 -0.1824  1.9188
  415SOL     OW 1243   0.338   2.244   0.699 -0.2079 -0.2781  0.9152
  415SOL    HW1 1244   0.290   2.334   0.718  0.2371  0.1558  2.5102
  415SOL    HW2 1245   0.288   2.158   0.738  2.7360  0.2039 -1.1617
  416SOL     OW 1246   0.380   1.075   1.056 -0.1019  0.3049 -0.4394
  416SOL    HW1 1247   0.353   1.017   0.971  1.9529  0.7701  0.6562
  416SOL    HW2 1248   0.476   1.121   1.053 -1.1871  1.4050  0.2455
  417SOL     OW 1249   2.233   2.307   2.020 -0.0095 -0.3226  0.0510
  417SOL    HW1 1250   2.322   2.265   2.051 -0.4253 -2.0641 -1.2990
  417SOL    HW2 1251   2.160   2.280   2.080 -0.0407  1.8653  0.2121
  418SOL     OW 1252   1.090   0.559   1.349  0.2211  0.4895 -0.1088
  418SOL    HW1 1253   1.033   0.518   1.269 -0.4539 -1.0813 -1.6689
  418SOL    HW2 1254   1.189   0.560   1.319  1.5356  0.5675 -2.5715
  419SOL     OW 1255   0.951   0.500   2.996  0.4514  0.5828 -0.4501
  419SOL    HW1 1256   0.870   0.489   2.940  2.4693 -1.3323  1.0311
  419SOL    HW2 1257   0.970   0.594   3.026 -0.9579 -2.0273  0.4402
  420SOL     OW 1258   0.106   2.263   0.507 -0.2207  0.2563  0.5156
  420SOL    HW1 1259   0.156   2.238   0.422  1.4021 -1.9270  2.1558
  420SOL    HW2 1260   0.021   2.203   0.517  0.3327  0.2167  1.3181
  421SOL     OW 1261   0.319   3.007   0.644 -0.3901 -0.4498  0.0053
  421SOL    HW1 1262   0.285   2.944   0.721 -0.1230  2.1559 -0.4318
  421SOL    HW2 1263   0.422   3.012   0.646 -0.9748 -0.3852 -0.9263
  422SOL     OW 1264   1.044   2.532   1.043 -0.3029  0.4724 -0.4289
  422SOL    HW1 1265   1.104   2.604   0.997 -0.5871  2.4356  0.0849
  422SOL    HW2 1266   1.001   2.560   1.131 -1.2215  0.9653 -2.8165
  423SOL     OW 1267   0.125   0.699   1.295  0.5832  0.3696 -0.3449
  423SOL    HW1 1268   0.048   0.626   1.307 -2.1359 -2.2245  0.0196
  423SOL    HW2 1269   0.079   0.788   1.275 -1.9497  0.7211  1.9268
  424SOL     OW 1270   1.006   2.251   2.042  0.4119 -0.6838 -0.4045
  424SOL    HW1 1271   1.011   2.354   2.031 -0.2943 -0.9600 -0.0154
  424SOL    HW2 1272   0.990   2.224   2.143  0.8680  0.0998  2.6104
  425SOL     OW 1273   1.994   1.307   1.007 -0.3901 -0.3495 -0.0898
  425SOL    HW1 1274   2.065   1.241   1.043 -0.0874 -1.8462  0.4293
  425SOL    HW2 1275   2.025   1.402   0.978  0.7039 -1.6894  0.0135
  426SOL     OW 1276   1.495   1.599   1.363  0.5085  0.5670  0.3898
  426SOL    HW1 1277   1.468   1.670   1.296 -1.4721  0.4603  1.9340
  426SOL    HW2 1278   1.427   1.588   1.444  0.0995  0.0706 -0.3108
  427SOL     OW 1279   1.922   2.358   2.068  0.3149 -0.0744  0.1517
  427SOL    HW1 1280   1.971   2.294   2.126 -0.2852  0.3632  2.0049
  427SOL    HW2 1281   1.953   2.459   2.076 -0.2387 -0.4760  0.6918
  428SOL     OW 1282   0.852   3.091   0.165  0.6672 -0.7058  0.2259
  428SOL    HW1 1283   0.830   3.173   0.103 -1.0349 -1.9569 -0.4520
  428SOL    HW2 1284   0.945   3.048   0.149 -2.2029  0.6280  0.9637
  429SOL     OW 1285   1.297   0.074   0.261  0.4757  0.1013 -0.1038
  429SOL    HW1 1286   1.396   0.083   0.294 -0.2040 -1.9101  2.2908
  429SOL    HW2 1287   1.288   0.094   0.158  1.0466 -0.2777 -0.4334
  430SOL     OW 1288   2.790   1.425   0.318  0.7609 -0.5002 -0.1938
  430SOL    HW1 1289   2.821   1.472   0.236 -3.6115  0.0528  0.9312
  430SOL    HW2 1290   2.836   1.463   0.407  0.6335  2.6116 -0.9263
  431SOL     OW 1291   2.123   1.558   0.866  0.1067  0.0177  0.1448
  431SOL    HW1 1292   2.174   1.622   0.927 -0.1962 -0.5906  0.7791
  431SOL    HW2 1293   2.059   1.612   0.803  0.3538 -1.1941  0.9592
  432SOL     OW 1294   2.877   2.240   1.203  0.7660  0.3080 -1.1468
  432SOL    HW1 1295   2.890   2.145   1.171  0.6569 -0.1590 -1.6687
  432SOL    HW2 1296   2.935   2.274   1.281 -2.6761 -2.5682  2.2568
  433SOL     OW 1297   1.832   0.358   0.837 -0.4521 -0.1152  0.0770
  433SOL    HW1 1298   1.751   0.374   0.892 -0.1093 -3.9539 -3.6048
  433SOL    HW2 1299   1.894   0.288   0.883  0.1322 -4.0872 -0.4759
  434SOL     OW 1300   1.507   0.275   0.703  0.1154  0.8063 -0.5318
  434SOL    HW1 1301   1.475   0.347   0.639  2.0387  1.5287  1.8479
  434SOL    HW2 1302   1.547   0.318   0.789  0.7602  1.5751 -2.2025
  435SOL     OW 1303   1.450   1.498   2.078 -0.3037  0.0555  0.1367
  435SOL    HW1 1304   1.409   1.543   2.163 -1.5420  1.2831  0.6544
  435SOL    HW2 1305   1.477   1.560   2.004 -2.0117  1.4334 -1.7366
  436SOL     OW 1306   1.704   2.735   2.262 -0.1431  0.3311  0.6169
  436SOL    HW1 1307   1.663   2.815   2.312  0.3524 -1.3864  0.7731
  436SOL    HW2 1308   1.732   2.655   2.325 -0.9568 -1.5409  1.4699
  437SOL     OW 1309   1.098   2.950   0.954 -0.2991 -0.1708 -0.2914
  437SOL    HW1 1310   1.044   3.038   0.936 -3.8324 -1.8520  2.2143
  437SOL    HW2 1311   1.110   2.928   1.054  2.1419  1.2875 -1.4773
  438SOL     OW 1312   0.997   2.592   1.312 -0.2205  0.1818  0.3718
  438SOL    HW1 1313   1.073   2.619   1.382  2.6067  0.4768  0.6222
  438SOL    HW2 1314   0.963   2.498   1.320  0.4981  0.4266 -0.9666
  439SOL     OW 1315   0.678   1.775   1.094  0.0013  0.2350  0.2301
  439SOL    HW1 1316   0.655   1.847   1.025 -0.0532 -0.2601  0.4561
  439SOL    HW2 1317   0.599   1.734   1.148  1.3253 -0.5733 -0.1480
  440SOL     OW 1318   1.022   2.503   1.949  0.3567  0.7534  0.1785
  440SOL    HW1 1319   0.974   2.524   1.860 -0.0351  0.4613 -0.8951
  440SOL    HW2 1320   1.127   2.492   1.928  3.2002  1.1160 -3.2875
  441SOL     OW 1321   0.512   2.730   1.431  0.3132 -0.6494 -0.1758
  441SOL    HW1 1322   0.557   2.638   1.423 -3.2313 -0.6587  1.4784
  441SOL    HW2 1323   0.404   2.724   1.425 -3.6871  1.0112 -3.1591
  442SOL     OW 1324   2.268   0.713   2.510 -0.3099  0.3190  0.1932
  442SOL    HW1 1325   2.273   0.616   2.543  1.6352 -0.2658  0.1919
  442SOL    HW2 1326   2.172   0.739   2.479 -0.4790  0.4909 -0.0191
  443SOL     OW 1327   1.227   2.721   2.134 -0.3301  0.2350 -0.2723
  443SOL    HW1 1328   1.238   2.784   2.218  0.6951 -0.6869 -0.6626
  443SOL    HW2 1329   1.203   2.626   2.147 -3.6040  2.4700  0.8036
  444SOL     OW 1330   1.085   1.267   1.588  0.4349  0.0305  0.0016
  444SOL    HW1 1331   1.163   1.198   1.594  2.1809 -1.5536 -0.4535
  444SOL    HW2 1332   1.105   1.360   1.631 -0.0396  2.2007 -0.3208
  445SOL     OW 1333   0.017   2.343   1.870  0.2492 -0.4719  0.2232
  445SOL    HW1 1334  -0.001   2.439   1.836  1.0622 -1.7760  0.5263
  445SOL    HW2 1335  -0.047   2.322   1.950  0.1050  0.7758 -1.4540
  446SOL     OW 1336   0.213   1.924   2.320 -0.0111 -0.0562 -0.1097
  446SOL    HW1 1337   0.177   2.003   2.384 -1.3823 -1.0000  4.2335
  446SOL    HW2 1338   0.153   1.904   2.233 -3.2635 -1.5942 -1.0980
  447SOL     OW 1339   1.174   1.691   1.939  0.5838 -0.3467  0.3761
  447SOL    HW1 1340   1.111   1.762   1.897  1.7951 -1.7571 -1.2542
  447SOL    HW2 1341   1.274   1.722   1.942  1.3893 -0.1545 -3.7346
  448SOL     OW 1342   0.168   1.548   2.045  0.2368 -0.3167  0.3956
  448SOL    HW1 1343   0.171   1.626   1.975 -0.9734  1.9237 -0.8235
  448SOL    HW2 1344   0.116   1.588   2.133 -1.7401  2.7922  0.7658
  449SOL     OW 1345   1.975   2.947   0.823  0.0555  0.2342  0.0074
  449SOL    HW1 1346   2.048   2.987   0.886  0.1708  1.3824 -1.5118
  449SOL    HW2 1347   1.965   2.845   0.806  0.9968 -0.8120 -0.6464
  450SOL     OW 1348   2.336   1.341   0.762 -0.3566 -0.0671  0.1614
  450SOL    HW1 1349   2.301   1.248   0.796  0.6811 -1.1919  2.9449
  450SOL    HW2 1350   2.280   1.382   0.690 -1.7840 -2.5445  1.1813
  451SOL     OW 1351   1.354  -0.000   1.430  1.2673  0.2895  0.0573
  451SOL    HW1 1352   1.299   0.079   1.467 -0.2648 -1.1752  0.9949
  451SOL    HW2 1353   1.402  -0.049   1.507  0.1339  0.7662 -2.0328
  452SOL     OW 1354   2.660   2.292   2.175 -0.5747  0.0298  0.0441
  452SOL    HW1 1355   2.601   2.368   2.215 -1.7266  0.2613 -0.4053
  452SOL    HW2 1356   2.725   2.251   2.245  1.8172  0.7728 -0.8252
  453SOL     OW 1357   2.443   2.670   3.053 -0.0667  0.3703  0.2473
  453SOL    HW1 1358   2.344   2.705   3.066 -2.2613  0.2110 -1.0493
  453SOL    HW2 1359   2.454   2.591   2.984 -0.5931 -1.8055 -1.6098
  454SOL     OW 1360   1.041   1.106   2.076 -0.3889 -0.2181  0.3332
  454SOL    HW1 1361   0.996   1.123   1.985  1.0295  2.0073  2.2522
  454SOL    HW2 1362   1.112   1.180   2.088 -1.1890 -2.3407  0.2269
  455SOL     OW 1363   0.626   2.608   2.900  0.6791 -0.2859 -0.0217
  455SOL    HW1 1364   0.711   2.658   2.935 -0.5623  3.2669  2.7415
  455SOL    HW2 1365   0.631   2.505   2.911  1.8626  1.2485  0.1028
  456SOL     OW 1366   0.503   1.912   0.376 -0.0764 -0.1372  0.3374
  456SOL    HW1 1367   0.589   1.881   0.431 -2.2069  1.9407  0.0924
  456SOL    HW2 1368   0.525   2.001   0.331  0.9577 -0.7963  2.1098
  457SOL     OW 1369   0.355   2.625   0.729  0.0171 -0.0286 -0.4910
  457SOL    HW1 1370   0.358   2.650   0.633  2.5568 -1.9976  0.6682
  457SOL    HW2 1371   0.436   2.668   0.783 -3.9767 -0.2975  1.4540
  458SOL     OW 1372   2.953   3.080   1.204  0.0538 -0.9383 -0.1639
  458SOL    HW1 1373   2.963   3.184   1.222  2.1189 -2.9189  0.5214
  458SOL    HW2 1374   2.952   3.061   1.103 -0.8739 -1.4959  1.4459
  459SOL     OW 1375   2.203   2.526   0.815  0.0729  0.1435  0.0297
  459SOL    HW1 1376   2.212   2.588   0.900 -0.6135  0.5134  0.6567
  459SOL    HW2 1377   2.295   2.510   0.764  3.3150  1.7581 -0.7553
  460SOL     OW 1378   1.135   1.947   2.932  0.3060 -0.3660  0.4286
  460SOL    HW1 1379   1.165   2.020   2.863 -0.8785 -0.2359 -0.9000
  460SOL    HW2 1380   1.220   1.895   2.973  2.3537 -1.0510  2.7506
  461SOL     OW 1381   0.490   2.128   2.679 -0.2763  0.5649 -0.1115
  461SOL    HW1 1382   0.441   2.055   2.621 -0.7876 -0.6971 -0.0973
  461SOL    HW2 1383   0.541   2.081   2.760 -2.0655 -1.7707 -1.2530
  462SOL     OW 1384   0.924   1.143   1.826  0.1527  0.6750  0.2492
  462SOL    HW1 1385   0.995   1.101   1.759  2.1706 -0.7817 -1.0628
  462SOL    HW2 1386   0.890   1.236   1.804  0.3567 -2.5615  0.0453
  463SOL     OW 1387   0.456   0.770   0.530 -0.3407  0.0573  0.3796
  463SOL    HW1 1388   0.496   0.684   0.486  3.6519  0.7475 -0.2867
  463SOL    HW2 1389   0.352   0.770   0.535  1.7263  2.7140  0.7618
  464SOL     OW 1390   0.584   2.222   2.278  0.0376 -0.3874  0.2156
  464SOL    HW1 1391   0.565   2.302   2.343  4.1634  2.1213  0.5379
  464SOL    HW2 1392   0.580   2.254   2.183  0.0387 -1.5073  0.1369
  465SOL     OW 1393   0.287   0.925   0.822 -0.3510 -0.3489  0.4249
  465SOL    HW1 1394   0.205   0.964   0.772  1.3004 -1.6690 -0.0947
  465SOL    HW2 1395   0.290   0.822   0.811 -0.7215 -1.9584 -1.6320
  466SOL     OW 1396   1.352   1.144   1.164 -0.0474 -0.8606  0.6084
  466SOL    HW1 1397   1.412   1.227   1.201  0.8996  1.0044 -1.7083
  466SOL    HW2 1398   1.278   1.180   1.104 -0.3078 -1.2216  3.5450
  467SOL     OW 1399   0.502   0.320   2.336  0.3825 -0.0269 -0.9042
  467SOL    HW1 1400   0.460   0.414   2.360  1.4020  0.7492  0.3149
  467SOL    HW2 1401   0.500   0.248   2.412 -0.2069  1.7189  1.1069
  468SOL     OW 1402   0.463   2.311   1.693 -0.2918  0.2499 -0.1768
  468SOL    HW1 1403   0.523   2.365   1.753 -1.7563  0.7999 -0.3874
  468SOL    HW2 1404   0.444   2.355   1.604 -1.1813 -2.2977  1.7331
  469SOL     OW 1405   1.500   1.346   1.276  0.0174 -0.6799  0.2607
  469SOL    HW1 1406   1.591   1.300   1.266 -1.0303 -1.2918  3.3957
  469SOL    HW2 1407   1.500   1.449   1.303  0.3001  3.0164 -0.5438
  470SOL     OW 1408   3.040   1.688   0.772 -0.4573 -0.0254 -0.5975
  470SOL    HW1 1409   3.105   1.765   0.737  1.6510  0.5922  0.9591
  470SOL    HW2 1410   2.949   1.722   0.809  3.3652  3.6375  2.0963
  471SOL     OW 1411   2.639   1.358   2.146  0.0287  0.4735 -0.2528
  471SOL    HW1 1412   2.606   1.289   2.219 -2.4833  1.0948  0.5762
  471SOL    HW2 1413   2.729   1.399   2.172 -0.6997  0.1504 -1.9933
  472SOL     OW 1414   1.133   2.482   3.063 -0.2168 -0.5264 -0.0106
  472SOL    HW1 1415   1.168   2.462   3.158 -0.4918 -0.7581  1.7044
  472SOL    HW2 1416   1.111   2.391   3.019  0.3724 -0.7683 -0.3036
  473SOL     OW 1417   1.066   1.510   0.949 -0.3328  0.4297 -0.9930
  473SOL    HW1 1418   0.966   1.523   0.974  2.2154 -0.9023  0.6583
  473SOL    HW2 1419   1.112   1.439   1.009  1.7763 -3.2080 -1.2143
  474SOL     OW 1420   0.728   1.234   0.623  0.7850  0.3255  0.4104
  474SOL    HW1 1421   0.705   1.238   0.523 -1.5504  0.3569 -0.8126
  474SOL    HW2 1422   0.772   1.146   0.649 -0.2501 -0.2730 -1.4591
  475SOL     OW 1423   2.837   0.170   0.774  0.3033  0.1003 -0.2171
  475SOL    HW1 1424   2.915   0.152   0.838  0.9541 -1.1562 -1.8363
  475SOL    HW2 1425   2.750   0.170   0.828 -0.4400 -0.9314 -0.4910
  476SOL     OW 1426   0.879   2.972   1.778  0.6704  0.2148  0.3610
  476SOL    HW1 1427   0.963   2.967   1.834 -0.9390 -0.1223 -1.4432
  476SOL    HW2 1428   0.892   2.934   1.685 -0.0653  2.9231  0.3403
  477SOL     OW 1429   1.436   0.337   2.504 -0.2210 -0.2257  0.4829
  477SOL    HW1 1430   1.442   0.353   2.606  1.2395  0.7727 -0.4570
  477SOL    HW2 1431   1.515   0.286   2.456  1.7267  0.9097 -3.2303
  478SOL     OW 1432   2.246   1.839   0.263 -0.1111  0.2601 -0.2581
  478SOL    HW1 1433   2.175   1.768   0.238 -0.0335  3.0094 -0.1843
  478SOL    HW2 1434   2.345   1.811   0.247  1.6617 -1.6895 -1.0930
  479SOL     OW 1435   1.294   1.081   2.940 -0.2837 -0.1993  0.0528
  479SOL    HW1 1436   1.352   1.081   2.853 -1.7961 -1.9591 -3.4558
  479SOL    HW2 1437   1.202   1.058   2.910  0.0634 -1.7732 -2.3949
  480SOL     OW 1438   2.502   2.319   0.382 -0.0654 -0.4982 -0.0033
  480SOL    HW1 1439   2.471   2.226   0.426 -1.8554 -0.3328 -0.9107
  480SOL    HW2 1440   2.452   2.353   0.299  0.0377 -0.6507 -0.4374
  481SOL     OW 1441   1.032   1.158   0.833  0.0731  0.6228 -0.0108
  481SOL    HW1 1442   1.046   1.236   0.766  1.3782 -1.5068 -1.5315
  481SOL    HW2 1443   1.043   1.179   0.934  1.8714  1.1848 -1.5050
  482SOL     OW 1444   1.598   0.303   2.036 -0.0069  0.2789 -0.3625
  482SOL    HW1 1445   1.597   0.407   2.015 -0.4103  1.4007 -0.1809
  482SOL    HW2 1446   1.687   0.272   2.069 -3.6913  3.5373 -0.5592
  483SOL     OW 1447   0.181   2.365   1.262  0.2655  0.6572  0.0866
  483SOL    HW1 1448   0.088   2.347   1.303  0.7759 -0.3275  0.0050
  483SOL    HW2 1449   0.176   2.409   1.169 -0.1668  1.0582  2.7760
  484SOL     OW 1450   1.694   1.001   1.375 -0.5837 -0.8749  0.2586
  484SOL    HW1 1451   1.746   0.913   1.368  0.2203 -0.4940 -2.1028
  484SOL    HW2 1452   1.715   1.045   1.465  0.1836 -0.7680  0.4510
  485SOL     OW 1453   0.653   1.068   1.805 -0.0764  0.5483  0.2625
  485SOL    HW1 1454   0.667   1.031   1.715  0.1502  1.2404  4.0140
  485SOL    HW2 1455   0.745   1.082   1.852  1.7265 -0.4985 -1.0072
  486SOL     OW 1456   0.934   1.926   2.448  0.3972  0.3670  0.0666
  486SOL    HW1 1457   0.988   1.877   2.519  0.9907 -1.5417 -2.6876
  486SOL    HW2 1458   0.848   1.972   2.478  1.2846 -0.3756 -2.6016
  487SOL     OW 1459   1.755   1.559   0.911 -0.1731 -0.2391  0.0519
  487SOL    HW1 1460   1.790   1.470   0.942 -0.6367 -3.0025 -3.4928
  487SOL    HW2 1461   1.818   1.611   0.847 -0.2807 -0.3655 -1.3521
  488SOL     OW 1462   2.955   0.878   2.237  0.2081  0.2606 -0.2479
  488SOL    HW1 1463   3.013   0.800   2.198  3.3879  0.3694 -0.6608
  488SOL    HW2 1464   2.972   0.889   2.339  0.3173  1.3745 -1.5622
  489SOL     OW 1465   2.785   0.250   1.316 -0.1314 -0.0519 -0.1018
  489SOL    HW1 1466   2.771   0.178   1.392 -0.8468  1.0977  1.6272
  489SOL    HW2 1467   2.879   0.276   1.297 -1.3992  0.1295 -0.2050
  490SOL     OW 1468   1.443   2.920   2.790  0.0558  0.3810 -0.1627
  490SOL    HW1 1469   1.515   2.846   2.776  2.1031  1.1803  2.4605
  490SOL    HW2 1470   1.439   2.980   2.703 -0.0442  3.6558 -1.6866
  491SOL     OW 1471   1.789   1.473   2.649  0.2551 -0.0200  0.8231
  491SOL    HW1 1472   1.751   1.439   2.736 -1.8093  1.4940 -0.1279
  491SOL    HW2 1473   1.889   1.499   2.655 -3.3097  0.9681  0.9099
  492SOL     OW 1474   0.526   2.011   0.677  0.0970  0.3832 -0.1700
  492SOL    HW1 1475   0.572   2.000   0.770 -2.8957 -2.9818 -1.7187
  492SOL    HW2 1476   0.451   2.086   0.674 -0.8215  0.2539  3.3587
  493SOL     OW 1477   0.428   1.410   2.056  0.4023  0.3733 -0.4090
  493SOL    HW1 1478   0.347   1.478   2.056  1.8943 -0.3089 -0.5676
  493SOL    HW2 1479   0.437   1.358   2.146  2.7338 -0.5768 -0.6669
  494SOL     OW 1480   2.627   2.722   0.198 -0.0680 -0.6109 -0.4589
  494SOL    HW1 1481   2.630   2.662   0.283  2.0769 -0.6908 -0.7161
  494SOL    HW2 1482   2.578   2.677   0.114 -0.2905 -0.5465 -1.0956
  495SOL     OW 1483   2.749   2.678   2.688 -0.4791 -0.0278  0.3693
  495SOL    HW1 1484   2.685   2.598   2.673 -2.4467  0.1518  1.1929
  495SOL    HW2 1485   2.795   2.710   2.602 -1.2168  0.2355  0.6880
  496SOL     OW 1486   2.036   2.191   0.713  0.0466 -0.5975 -0.0353
  496SOL    HW1 1487   2.060   2.242   0.798 -0.8427  0.3115 -0.6919
  496SOL    HW2 1488   2.092   2.103   0.697  0.4726 -3.0041 -0.9673
  497SOL     OW 1489   0.210   2.989   2.430 -0.3064 -0.4710 -0.6694
  497SOL    HW1 1490   0.251   3.055   2.499 -2.2880  0.7787  0.3735
  497SOL    HW2 1491   0.248   2.994   2.336 -1.0896  0.0651 -0.0616
  498SOL     OW 1492   1.219   1.440   1.197 -0.2066  0.7058 -0.5810
  498SOL    HW1 1493   1.309   1.417   1.246 -1.6324 -0.4074  1.1203
  498SOL    HW2 1494   1.165   1.517   1.239 -0.6539 -4.8999  0.1489
  499SOL     OW 1495   0.718   1.857   0.523  0.2963 -0.2248  0.6007
  499SOL    HW1 1496   0.733   1.754   0.543 -1.3419  0.9539  1.0256
  499SOL    HW2 1497   0.675   1.909   0.599  0.9583 -1.3423  0.0954
  500SOL     OW 1498   1.474   2.964   1.639 -0.0852  0.0937  0.1829
  500SOL    HW1 1499   1.437   2.975   1.734 -1.8099  2.2125 -0.2982
  500SOL    HW2 1500   1.519   2.870   1.630  0.4419  0.9975  0.2307
  501SOL     OW 1501   0.848   1.117   2.293 -0.0468  0.3155  0.2254
  501SOL    HW1 1502   0.761   1.061   2.283 -0.0947 -0.7169  2.3665
  501SOL    HW2 1503   0.879   1.164   2.207 -1.4446  1.7390 -2.3256
  502SOL     OW 1504   2.630   0.952   1.761 -0.0511 -0.1635 -0.2386
  502SOL    HW1 1505   2.642   0.947   1.657 -2.9599 -2.3604  1.6973
  502SOL    HW2 1506   2.560   0.882   1.796 -3.1447  0.2083  2.0008
  503SOL     OW 1507   1.286   0.127   0.663  0.5923 -0.0552 -0.4882
  503SOL    HW1 1508   1.223   0.195   0.615 -3.2071 -0.0774  1.3394
  503SOL    HW2 1509   1.364   0.179   0.702  2.3777 -2.1229 -1.3877
  504SOL     OW 1510   3.047   2.328   1.408 -0.3580 -0.5734 -0.3576
  504SOL    HW1 1511   3.017   2.411   1.470  1.1953  4.3572  0.6345
  504SOL    HW2 1512   3.055   2.236   1.452  0.2082  1.5753  1.0426
  505SOL     OW 1513   2.269   1.171   1.520  0.0520  0.1802  0.2659
  505SOL    HW1 1514   2.305   1.202   1.430  0.0152  1.2814 -0.5257
  505SOL    HW2 1515   2.303   1.235   1.598  0.7462  0.3914  1.2409
  506SOL     OW 1516   1.999   0.204   1.770  0.2069  0.7260 -0.0888
  506SOL    HW1 1517   2.061   0.131   1.795  2.4993  1.7224  0.2822
  506SOL    HW2 1518   1.991   0.282   1.839 -0.0068  2.7383 -3.0901
  507SOL     OW 1519   0.535   0.684   2.175  0.1195  0.0449  0.0021
  507SOL    HW1 1520   0.483   0.656   2.095 -2.6252  1.6920  0.1418
  507SOL    HW2 1521   0.623   0.630   2.185 -1.1452 -0.9702  2.1014
  508SOL     OW 1522   0.260   1.629   0.887 -0.2990 -0.5000  0.3058
  508SOL    HW1 1523   0.282   1.705   0.821  1.7883 -0.0648 -0.9860
  508SOL    HW2 1524   0.241   1.662   0.986 -0.6326 -1.6910  0.8883
  509SOL     OW 1525   1.341   1.253   2.347  0.8934 -0.2965 -0.1148
  509SOL    HW1 1526   1.249   1.199   2.328 -0.6450 -1.6882  2.2123
  509SOL    HW2 1527   1.412   1.204   2.298 -2.1955  1.4193  2.2591
  510SOL     OW 1528   1.298   2.032   2.054 -0.4053 -0.2658  0.0750
  510SOL    HW1 1529   1.258   2.125   2.023 -0.9740  2.9506  0.2291
  510SOL    HW2 1530   1.243   1.982   2.128  0.6829  0.5313 -1.2219
  511SOL     OW 1531   3.088   2.708   1.356  0.5930 -0.9875 -0.3988
  511SOL    HW1 1532   3.103   2.691   1.258 -2.3827 -2.0023  1.7351
  511SOL    HW2 1533   2.984   2.705   1.373 -0.8110  2.4193  0.3564
  512SOL     OW 1534   2.357   0.409   1.401 -0.2013  0.2069 -0.3606
  512SOL    HW1 1535   2.254   0.387   1.407 -0.0326 -0.7932  0.2783
  512SOL    HW2 1536   2.407   0.374   1.319  1.2132  1.0997  2.0362
  513SOL     OW 1537   2.483   2.072   0.849 -0.4728 -0.3889  0.3560
  513SOL    HW1 1538   2.414   2.112   0.783  0.2291  0.7527  1.8156
  513SOL    HW2 1539   2.546   2.009   0.789  0.2908  0.8368 -0.8394
  514SOL     OW 1540   0.574   2.786   0.519  0.6968  0.4232 -0.0234
  514SOL    HW1 1541   0.604   2.841   0.436 -0.2954  1.6074  1.7862
  514SOL    HW2 1542   0.621   2.818   0.604  0.1050  1.4738 -1.3453
  515SOL     OW 1543   2.025   1.122   2.260 -0.1638  0.0473 -0.0963
  515SOL    HW1 1544   2.001   1.169   2.170 -2.1823  5.1695  0.7213
  515SOL    HW2 1545   1.965   1.160   2.336 -4.0450  3.3333 -1.5812
  516SOL     OW 1546   0.266   0.248   1.925 -0.6460 -0.6609  0.6068
  516SOL    HW1 1547   0.329   0.253   1.848 -0.8217 -0.8748  1.1809
  516SOL    HW2 1548   0.184   0.188   1.902  0.8919  2.3780 -0.2164
  517SOL     OW 1549   0.426   3.045   1.173 -0.1320 -0.4509 -0.0826
  517SOL    HW1 1550   0.440   3.143   1.158 -2.7271 -3.0117  0.8777
  517SOL    HW2 1551   0.345   3.025   1.231  2.7450  0.7417  0.5067
  518SOL     OW 1552   2.200   3.097   1.771 -0.3608 -0.3611 -0.5167
  518SOL    HW1 1553   2.258   3.173   1.811 -0.0766 -0.2057 -0.9464
  518SOL    HW2 1554   2.249   3.033   1.710  0.0430 -0.3996 -0.0977
  519SOL     OW 1555   2.357   2.238   2.593 -0.0761 -0.0793  0.1492
  519SOL    HW1 1556   2.276   2.205   2.651 -0.1247 -0.9534  2.6178
  519SOL    HW2 1557   2.366   2.341   2.603  1.3778  2.0954 -0.0813
  520SOL     OW 1558   1.751   2.873   1.875 -0.3842  0.2756 -0.0345
  520SOL    HW1 1559   1.650   2.876   1.901 -2.3014  0.5341  1.8112
  520SOL    HW2 1560   1.785   2.777   1.853 -0.8448 -0.6124 -1.9095
  521SOL     OW 1561   0.561   3.094   2.146 -0.4158 -0.6260 -0.7247
  521SOL    HW1 1562   0.460   3.076   2.161  1.4057 -1.1358  0.8210
  521SOL    HW2 1563   0.606   3.119   2.236 -1.9285  0.2274 -1.0395
  522SOL     OW 1564   0.206   1.893   1.432  0.0493 -0.6778 -0.1745
  522SOL    HW1 1565   0.262   1.945   1.501  0.7850 -0.8489 -1.2234
  522SOL    HW2 1566   0.181   1.951   1.351  0.6124  0.2926  1.0602
  523SOL     OW 1567   2.262   2.961   1.548 -0.0272 -1.0790  0.2883
  523SOL    HW1 1568   2.343   2.896   1.529 -0.1745  0.6138 -1.4542
  523SOL    HW2 1569   2.167   2.916   1.522 -2.4661 -0.9577 -0.5118
  524SOL     OW 1570   0.174   2.779   2.798  0.2811 -0.1247 -0.5239
  524SOL    HW1 1571   0.125   2.859   2.839  2.3287  1.7565 -0.4885
  524SOL    HW2 1572   0.272   2.800   2.788 -0.7246  2.1415  1.2355
  525SOL     OW 1573   2.150   1.976   0.463  0.2952 -0.3449  0.1927
  525SOL    HW1 1574   2.141   1.933   0.554  1.2659 -0.8568 -1.2296
  525SOL    HW2 1575   2.171   1.908   0.388 -2.8673 -1.7891  0.5692
  526SOL     OW 1576   0.390   1.546   1.672 -0.2992 -0.3860 -0.6955
  526SOL    HW1 1577   0.304   1.527   1.731 -0.2902 -1.8771  0.4935
  526SOL    HW2 1578   0.442   1.461   1.651 -1.7739  0.3985  1.2464
  527SOL     OW 1579   1.104   2.975   1.245 -0.1464  0.3309  0.3938
  527SOL    HW1 1580   1.188   2.949   1.296 -1.1524 -1.4153  0.2214
  527SOL    HW2 1581   1.096   3.081   1.233  1.0650  0.1462  0.6276
  528SOL     OW 1582   1.348   2.424   0.502  0.4710 -0.2569  0.1746
  528SOL    HW1 1583   1.355   2.321   0.524  0.4451 -0.0872 -0.2150
  528SOL    HW2 1584   1.423   2.481   0.549  0.5724  0.5259  0.9680
  529SOL     OW 1585   1.935   1.750   0.742  0.1083 -0.0309  0.6145
  529SOL    HW1 1586   1.870   1.758   0.661  1.6112 -0.5887  0.5557
  529SOL    HW2 1587   1.897   1.807   0.826 -1.1416  1.3786  3.3784
  530SOL     OW 1588   0.290   2.531   0.309 -0.2301 -0.9259 -0.3334
  530SOL    HW1 1589   0.286   2.617   0.372  0.0981 -1.4057  1.4305
  530SOL    HW2 1590   0.339   2.456   0.359 -0.5467  0.2319  1.3196
  531SOL     OW 1591   1.805   1.015   0.985  0.1601  0.0166  0.3696
  531SOL    HW1 1592   1.815   1.076   0.904  1.8324 -0.8258 -2.5658
  531SOL    HW2 1593   1.725   0.952   0.972  0.8587  1.2195  1.4694
  532SOL     OW 1594   0.503   1.108   0.771  0.4288 -0.2207  0.9681
  532SOL    HW1 1595   0.549   1.131   0.681 -3.1104  0.9638  0.5012
  532SOL    HW2 1596   0.445   1.020   0.773 -1.2637 -2.1209  0.8000
  533SOL     OW 1597   1.749   0.039   2.590  0.3155 -0.3245  0.0119
  533SOL    HW1 1598   1.848   0.007   2.591 -1.1847  1.7992 -1.3195
  533SOL    HW2 1599   1.722   0.102   2.667 -0.1827 -1.7022 -0.2013
  534SOL     OW 1600   0.306   0.224   1.633 -0.0653 -0.4293 -0.0003
  534SOL    HW1 1601   0.409   0.247   1.628  2.0189  3.3655 -0.7355
  534SOL    HW2 1602   0.245   0.303   1.601 -2.4576  1.4512  0.4476
  535SOL     OW 1603   1.957   0.335   0.131  0.4411 -0.3973  0.4407
  535SOL    HW1 1604   1.956   0.422   0.193  0.4092 -1.5869 -0.3579
  535SOL    HW2 1605   1.940   0.248   0.188 -1.9497  3.2724 -1.3107
  536SOL     OW 1606   1.407   2.617   0.930  0.0290  0.4392  0.3986
  536SOL    HW1 1607   1.411   2.565   1.021  1.3144  1.2041  0.3327
  536SOL    HW2 1608   1.310   2.639   0.898 -2.3618 -0.3602 -0.4383
  537SOL     OW 1609   0.835   0.275   2.410 -0.1006  0.4722 -0.1300
  537SOL    HW1 1610   0.803   0.313   2.321 -0.0813  2.6481  0.4822
  537SOL    HW2 1611   0.805   0.176   2.419 -0.5810  2.0526  1.0675
  538SOL     OW 1612   1.660   2.338   1.500  0.5386 -0.1873 -0.4643
  538SOL    HW1 1613   1.635   2.239   1.474 -1.3475 -2.0633  0.2044
  538SOL    HW2 1614   1.740   2.366   1.442  2.6429 -2.9225 -0.9843
  539SOL     OW 1615   0.164   1.640   2.696  0.1614 -0.0865 -0.2979
  539SOL    HW1 1616   0.072   1.653   2.648 -1.7572  0.9641  3.0730
  539SOL    HW2 1617   0.190   1.716   2.763 -2.6726  0.2426 -0.2818
  540SOL     OW 1618   2.675   1.747   1.914 -0.3596 -0.4870 -0.5773
  540SOL    HW1 1619   2.604   1.701   1.971 -0.8081 -2.4475  1.6376
  540SOL    HW2 1620   2.631   1.836   1.886 -0.1938 -0.8196  0.0735
  541SOL     OW 1621   0.503   2.199   0.009  0.5693 -0.0415  0.1462
  541SOL    HW1 1622   0.532   2.170   0.105  2.3888  1.4132 -1.1702
  541SOL    HW2 1623   0.400   2.175  -0.010  0.4662 -1.0692 -0.4916
  542SOL     OW 1624   2.229   2.560   0.420 -0.1502 -0.4731 -0.0830
  542SOL    HW1 1625   2.180   2.648   0.396  0.0236 -0.2910  1.0088
  542SOL    HW2 1626   2.157   2.487   0.438  1.0816  1.3352 -0.1816
  543SOL     OW 1627   1.123   1.826   1.564  0.1946 -0.5249 -0.4260
  543SOL    HW1 1628   1.075   1.812   1.657  0.3638  3.3755  2.6864
  543SOL    HW2 1629   1.066   1.875   1.495  1.2133 -3.0844  0.6055
  544SOL     OW 1630   1.094   0.456   0.169  0.0865 -0.0022  0.2803
  544SOL    HW1 1631   1.081   0.369   0.225 -1.6625  2.2157 -2.4124
  544SOL    HW2 1632   1.145   0.439   0.080 -1.4883 -1.3728  1.2033
  545SOL     OW 1633   1.115   1.725   0.808 -0.1520 -0.0210  0.0527
  545SOL    HW1 1634   1.210   1.727   0.771  1.2005 -0.8657  1.1824
  545SOL    HW2 1635   1.093   1.639   0.864 -0.5287 -0.4762  1.7918
  546SOL     OW 1636   2.642   1.530   3.037 -0.0587  0.0136  0.2016
  546SOL    HW1 1637   2.653   1.601   2.967 -1.2924 -1.7084  0.2091
  546SOL    HW2 1638   2.548   1.489   3.047 -1.0115 -1.9940 -1.6566
  547SOL     OW 1639   0.620   3.004   2.612  0.2951  0.1164 -0.4181
  547SOL    HW1 1640   0.720   3.011   2.643  0.4978  0.9016 -0.4369
  547SOL    HW2 1641   0.557   2.940   2.675 -0.6833 -0.8647  2.9539
  548SOL     OW 1642   2.090   0.879   2.989  0.0824 -0.2450  0.2064
  548SOL    HW1 1643   1.995   0.838   3.009  1.5896  1.9578  1.6528
  548SOL    HW2 1644   2.095   0.976   3.023 -0.9458 -1.1308 -1.8865
  549SOL     OW 1645   0.680   0.541   0.171 -0.5941  0.1628  0.2288
  549SOL    HW1 1646   0.603   0.581   0.107  1.3643  1.9163 -1.7862
  549SOL    HW2 1647   0.766   0.598   0.185  1.2743  5.1631  2.3621
  550SOL     OW 1648   2.623   2.804   2.885  0.0820 -0.0925  0.2328
  550SOL    HW1 1649   2.559   2.749   2.943 -0.5922 -1.2953 -1.9928
  550SOL    HW2 1650   2.679   2.752   2.812 -2.5989  0.0272  1.3275
  551SOL     OW 1651   0.297   0.854   0.237  0.1236  0.1849  0.5662
  551SOL    HW1 1652   0.401   0.857   0.225 -0.0425  0.0473  1.5155
  551SOL    HW2 1653   0.276   0.833   0.337  1.3455 -0.5700 -1.0239
  552SOL     OW 1654   0.613   2.979   1.901  0.0664  0.5244  0.4197
  552SOL    HW1 1655   0.626   3.011   1.997 -0.4672 -0.7748  0.3990
  552SOL    HW2 1656   0.701   2.994   1.850  1.4003  1.1218 -0.9919
  553SOL     OW 1657   2.908   2.461   0.359  0.0059 -0.5368 -0.1175
  553SOL    HW1 1658   2.863   2.373   0.379  2.0232  1.2687 -0.0200
  553SOL    HW2 1659   2.848   2.533   0.402 -2.7783  1.4320 -1.7048
  554SOL     OW 1660   2.151   0.368   0.539 -0.4583  0.0513 -0.1090
  554SOL    HW1 1661   2.181   0.383   0.438 -0.4466  1.5547  0.2900
  554SOL    HW2 1662   2.139   0.268   0.572 -0.5874 -3.0774  1.4936
  555SOL     OW 1663   0.377   2.772   2.509 -0.4313 -0.4877 -0.1519
  555SOL    HW1 1664   0.312   2.847   2.494 -0.6509 -1.3616  0.9165
  555SOL    HW2 1665   0.433   2.741   2.424  2.8967  0.0832 -1.6954
  556SOL     OW 1666   0.866   2.368   1.554 -0.0074  0.6328  0.2610
  556SOL    HW1 1667   0.913   2.437   1.612 -0.5552 -0.2849 -1.0884
  556SOL    HW2 1668   0.920   2.347   1.465 -0.5155 -2.5287 -0.2690
  557SOL     OW 1669   0.150   2.052   0.219 -0.1311 -0.6151 -0.0261
  557SOL    HW1 1670   0.064   2.002   0.224  1.0957  1.8311  0.9111
  557SOL    HW2 1671   0.176   2.085   0.127 -0.9919 -2.9029  1.3829
  558SOL     OW 1672   2.783   2.222   0.415  0.1128 -0.7537  0.2740
  558SOL    HW1 1673   2.688   2.245   0.389  0.0674 -0.6428  1.0227
  558SOL    HW2 1674   2.807   2.126   0.397 -0.4798  1.4150 -1.4878
  559SOL     OW 1675   0.413   2.317   1.413  0.4852 -0.1520 -0.1818
  559SOL    HW1 1676   0.332   2.341   1.351  1.8846 -0.6728 -0.2566
  559SOL    HW2 1677   0.462   2.233   1.380  1.0477 -0.1763 -1.0158
  560SOL     OW 1678   2.116   1.137   3.068  0.0745 -0.4696 -0.2215
  560SOL    HW1 1679   2.112   1.138   3.174 -1.0382 -3.7293  1.1624
  560SOL    HW2 1680   2.186   1.207   3.032 -0.8301 -0.4803 -0.0777
  561SOL     OW 1681   0.007   1.857   0.002  0.3427  0.5270  0.0732
  561SOL    HW1 1682  -0.012   1.789   0.077  1.3003 -1.2639 -2.7258
  561SOL    HW2 1683  -0.068   1.923  -0.028  1.1771 -0.8009 -1.7588
  562SOL     OW 1684   0.993   2.161   2.297  0.4144 -0.0690 -0.2436
  562SOL    HW1 1685   0.987   2.232   2.367 -1.0501 -1.2449  2.7805
  562SOL    HW2 1686   0.981   2.061   2.332  1.7503 -2.0439  2.5235
  563SOL     OW 1687   0.698   2.573   2.621 -0.0113 -0.8917  0.4979
  563SOL    HW1 1688   0.780   2.512   2.608 -0.1669  1.1694  0.8017
  563SOL    HW2 1689   0.676   2.591   2.721  1.4527 -1.9081 -0.6924
  564SOL     OW 1690   2.828   1.355   2.898  0.6181  0.4950  0.0953
  564SOL    HW1 1691   2.749   1.399   2.953 -0.1958  2.0935  2.0557
  564SOL    HW2 1692   2.906   1.419   2.877  0.0677  0.1456  1.7550
  565SOL     OW 1693   2.520   2.009   2.654 -0.8149 -0.5389 -0.2622
  565SOL    HW1 1694   2.472   2.093   2.620  1.8703 -0.2071 -2.3264
  565SOL    HW2 1695   2.596   2.038   2.718  0.0240 -2.3895  2.3309
  566SOL     OW 1696   2.015   2.857   1.451 -0.6425  0.4444  0.4999
  566SOL    HW1 1697   1.971   2.766   1.473 -0.6815  1.4017 -0.6083
  566SOL    HW2 1698   2.004   2.876   1.353 -0.6120  0.6802 -0.2369
  567SOL     OW 1699   2.400   3.042   2.351 -0.1671  0.8327 -0.2341
  567SOL    HW1 1700   2.339   3.117   2.391 -2.8689 -0.2053  0.0471
  567SOL    HW2 1701   2.385   3.031   2.252  1.7091 -1.7614  0.6838
  568SOL     OW 1702   1.531   1.771   0.232  0.0354  0.4555  0.5387
  568SOL    HW1 1703   1.460   1.841   0.208 -0.7721 -0.8068 -1.0308
  568SOL    HW2 1704   1.625   1.816   0.236 -0.7351  2.5559 -2.0942
  569SOL     OW 1705   0.258   0.641   0.776  0.4058  0.0546 -0.1891
  569SOL    HW1 1706   0.330   0.567   0.783 -1.4977  4.5548  0.5066
  569SOL    HW2 1707   0.166   0.599   0.803  1.6406 -0.0973  1.7136
  570SOL     OW 1708   0.646   0.826   2.925 -0.0406  0.2125  0.0554
  570SOL    HW1 1709   0.716   0.848   2.856 -3.5962  1.0631 -0.6324
  570SOL    HW2 1710   0.621   0.911   2.981 -0.0316  1.7058  1.5747
  571SOL     OW 1711   0.769   3.076   1.069  0.1531 -0.1235  0.1027
  571SOL    HW1 1712   0.842   3.125   1.007  4.1693 -0.2050  1.1020
  571SOL    HW2 1713   0.800   2.983   1.112  1.2617 -1.3686  1.4269
  572SOL     OW 1714   1.634   2.670   1.337  0.3558  0.0257  0.6369
  572SOL    HW1 1715   1.551   2.640   1.282 -1.9284  2.0514 -0.4182
  572SOL    HW2 1716   1.646   2.775   1.340  0.8993 -2.7763 -0.3553
  573SOL     OW 1717   2.934   0.485   2.034  0.5477  0.0528 -0.1663
  573SOL    HW1 1718   2.858   0.414   2.050 -2.1507 -0.0630  0.1270
  573SOL    HW2 1719   2.991   0.464   1.956 -0.2941 -1.9142  0.2697
  574SOL     OW 1720   0.147   1.750   1.118  0.2503  0.1483 -0.2559
  574SOL    HW1 1721   0.203   1.762   1.206  0.2513 -1.2183  1.7204
  574SOL    HW2 1722   0.057   1.807   1.120 -2.0566  1.1752 -0.7321
  575SOL     OW 1723   0.810   2.201   0.943  0.5970 -0.3983  0.6856
  575SOL    HW1 1724   0.775   2.245   1.030  0.9017  0.2367  0.7851
  575SOL    HW2 1725   0.848   2.268   0.868 -1.0673  1.9285 -0.6358
  576SOL     OW 1726   2.860   2.983   1.663  0.1177 -0.1722 -0.2529
  576SOL    HW1 1727   2.753   2.976   1.675 -2.8779 -0.7749  1.0967
  576SOL    HW2 1728   2.899   3.081   1.653  1.6422  1.1901  1.4517
  577SOL     OW 1729   2.571   1.168   0.002  0.9415  0.1056 -0.1663
  577SOL    HW1 1730   2.577   1.099  -0.079  1.7280  0.4156 -2.4485
  577SOL    HW2 1731   2.658   1.185   0.062  0.8544  1.1159  2.6017
  578SOL     OW 1732   1.411   2.763   2.461 -0.5009  0.2276  0.4096
  578SOL    HW1 1733   1.316   2.802   2.453  1.5027 -0.4980 -2.4469
  578SOL    HW2 1734   1.486   2.828   2.425  0.2328  1.4040  0.6901
  579SOL     OW 1735   0.039   2.469   0.202 -0.4887 -0.3201  0.2675
  579SOL    HW1 1736  -0.040   2.463   0.270  0.2352  0.8439  1.1113
  579SOL    HW2 1737   0.125   2.506   0.242  0.2638 -1.3454 -0.9464
  580SOL     OW 1738   0.962   2.657   0.353  0.0226 -0.3461  0.4752
  580SOL    HW1 1739   1.048   2.689   0.306 -4.1673  1.0408  1.4481
  580SOL    HW2 1740   0.903   2.604   0.283 -0.0104 -0.2352 -2.3425
  581SOL     OW 1741   1.223   2.664   1.464  0.1272 -0.3108 -0.4511
  581SOL    HW1 1742   1.274   2.575   1.486  0.4442  0.0441 -0.9340
  581SOL    HW2 1743   1.271   2.735   1.407  0.6638 -2.9277  0.3083
  582SOL     OW 1744   1.487   0.111   1.876 -0.2530  0.1166  0.1379
  582SOL    HW1 1745   1.497   0.170   1.961  3.9319  0.3341 -0.5204
  582SOL    HW2 1746   1.574   0.097   1.826 -0.5298  1.3817  0.6358
  583SOL     OW 1747   2.418   3.075   0.521 -0.1854  0.3084  0.6778
  583SOL    HW1 1748   2.506   3.025   0.513  0.7368 -0.1594  1.4241
  583SOL    HW2 1749   2.349   3.006   0.561  0.5147 -2.7127 -1.0302
  584SOL     OW 1750   1.542   1.098   2.263 -0.4902  0.1281  0.6016
  584SOL    HW1 1751   1.617   1.163   2.226  0.1941  1.3556 -1.5903
  584SOL    HW2 1752   1.592   1.005   2.284  0.5561  1.4199 -1.2032
  585SOL     OW 1753   2.114   2.669   2.891  0.0061 -0.4573 -0.1815
  585SOL    HW1 1754   2.130   2.567   2.905 -0.5018  2.6302 -3.6921
  585SOL    HW2 1755   2.014   2.694   2.877 -0.9429 -1.9398 -1.5800
  586SOL     OW 1756   2.855   0.350   1.574  0.6261 -0.0692 -0.5626
  586SOL    HW1 1757   2.863   0.437   1.628 -1.0028  2.4981  0.9827
  586SOL    HW2 1758   2.760   0.312   1.552  1.2359  0.0358 -0.3475
  587SOL     OW 1759   2.071   1.497   2.641 -0.2782 -0.1847 -0.1427
  587SOL    HW1 1760   2.111   1.425   2.577 -0.9873  1.3934 -1.3024
  587SOL    HW2 1761   2.134   1.515   2.722 -1.1856  0.6056 -0.3528
  588SOL     OW 1762   0.471   2.695   2.251  0.6480  0.4574  0.5597
  588SOL    HW1 1763   0.430   2.677   2.159 -1.0241 -1.2647 -0.6632
  588SOL    HW2 1764   0.504   2.612   2.303 -1.6130  2.0488 -0.7405
  589SOL     OW 1765   2.185   1.310   2.475  0.0932 -0.5505 -0.0877
  589SOL    HW1 1766   2.166   1.247   2.394  0.4489  0.4966 -0.7725
  589SOL    HW2 1767   2.284   1.298   2.509  1.5021 -0.4875  2.2950
  590SOL     OW 1768   2.298   1.763   2.028  0.3168 -0.5251  0.1893
  590SOL    HW1 1769   2.365   1.683   2.022 -0.7147  1.7183  0.4996
  590SOL    HW2 1770   2.322   1.807   2.121  1.2492 -2.9934 -0.8359
  591SOL     OW 1771   1.260   2.421   0.239 -0.3168  0.3418 -0.6637
  591SOL    HW1 1772   1.291   2.348   0.180 -1.5222  1.9022 -0.3085
  591SOL    HW2 1773   1.296   2.415   0.339 -1.0262 -0.5669  2.3909
  592SOL     OW 1774   1.768   2.334   0.753  0.3130  0.2219 -0.2271
  592SOL    HW1 1775   1.732   2.386   0.669  1.5950  1.7772 -2.1187
  592SOL    HW2 1776   1.868   2.316   0.744 -2.4538 -1.1390  1.2825
  593SOL     OW 1777   0.701   0.288   0.224 -0.0218  0.5054  0.0645
  593SOL    HW1 1778   0.727   0.255   0.128  0.6686 -0.8731 -0.0650
  593SOL    HW2 1779   0.703   0.395   0.219 -0.7939 -0.6359  1.0044
  594SOL     OW 1780   1.035   1.809   2.695  0.5047  0.5360  0.2082
  594SOL    HW1 1781   1.133   1.787   2.654 -0.9889 -2.2200 -1.8062
  594SOL    HW2 1782   1.036   1.857   2.788 -2.0927 -0.5541  0.5799
  595SOL     OW 1783   1.552   0.079   1.014  0.5576 -0.5383 -0.2413
  595SOL    HW1 1784   1.634   0.024   0.982  0.0927 -2.0889 -1.5399
  595SOL    HW2 1785   1.464   0.055   0.967  0.0085  0.4287  0.2741
  596SOL     OW 1786   0.038   1.564   2.287 -0.1154 -0.1857  0.1781
  596SOL    HW1 1787   0.105   1.484   2.282 -1.8242 -1.1199 -3.6840
  596SOL    HW2 1788   0.021   1.594   2.389 -0.8758 -0.2864  2.1960
  597SOL     OW 1789   1.919   2.651   1.799  0.0692  0.3368 -0.1503
  597SOL    HW1 1790   1.907   2.620   1.703 -0.5055  0.5210  2.3270
  597SOL    HW2 1791   2.018   2.675   1.814 -1.4263  1.3464 -0.0994
  598SOL     OW 1792   2.535   2.910   1.238 -0.0674 -0.2329 -0.2462
  598SOL    HW1 1793   2.612   2.953   1.296  0.5041 -1.6337  2.9498
  598SOL    HW2 1794   2.566   2.865   1.148  1.7181  1.2660 -0.2766
  599SOL     OW 1795   2.892   0.298   2.469 -0.1487 -0.4294  0.2580
  599SOL    HW1 1796   2.970   0.272   2.407 -0.8666  2.0877  1.1547
  599SOL    HW2 1797   2.832   0.369   2.427  0.4043 -1.1200  3.3231
  600SOL     OW 1798   2.811   1.127   2.723  0.1219  0.7552 -0.3655
  600SOL    HW1 1799   2.727   1.061   2.727  2.4458 -1.7966  2.1035
  600SOL    HW2 1800   2.813   1.204   2.795  0.8976  0.5154  0.3565
  601SOL     OW 1801   3.074   1.338   2.005  0.5423  0.0911  0.4035
  601SOL    HW1 1802   2.990   1.400   1.981 -0.4418  1.3393 -0.4662
  601SOL    HW2 1803   3.152   1.393   2.041 -0.0483  0.7095 -4.2224
  602SOL     OW 1804   1.448   1.684   2.321 -0.1270 -0.6012 -0.1013
  602SOL    HW1 1805   1.367   1.644   2.375 -1.2840  0.8436 -0.1388
  602SOL    HW2 1806   1.543   1.650   2.351  1.9044 -1.6579  1.2408
  603SOL     OW 1807   0.670   1.171   2.778  0.9184 -0.1995 -0.1713
  603SOL    HW1 1808   0.569   1.164   2.795  0.9308 -2.1925 -1.8525
  603SOL    HW2 1809   0.710   1.087   2.733 -1.7708  2.1912 -1.7438
  604SOL     OW 1810   2.433   0.998   0.172  0.2829  0.0020 -0.4760
  604SOL    HW1 1811   2.492   1.078   0.148 -1.3905 -0.5661  2.1036
  604SOL    HW2 1812   2.435   0.920   0.103 -0.1705 -0.1016 -0.6644
  605SOL     OW 1813   2.507   1.171   1.966 -0.2482  0.3090  0.7988
  605SOL    HW1 1814   2.565   1.113   1.903 -0.6762  1.4231  0.4821
  605SOL    HW2 1815   2.562   1.250   2.015  1.2044  2.6957  0.3615
  606SOL     OW 1816   1.537   2.510   2.567 -0.2891  0.5454 -0.4749
  606SOL    HW1 1817   1.505   2.607   2.545  0.5021  2.5901 -2.3106
  606SOL    HW2 1818   1.465   2.434   2.554 -1.6759  0.4965  2.3761
  607SOL     OW 1819   1.346   1.597   0.312  0.7678 -0.2164 -0.0743
  607SOL    HW1 1820   1.278   1.668   0.346  0.5127 -0.6819 -0.0687
  607SOL    HW2 1821   1.430   1.639   0.277 -1.6068 -1.3771  1.0669
  608SOL     OW 1822   1.463   2.813   0.386 -0.0972 -0.3029 -0.0163
  608SOL    HW1 1823   1.502   2.852   0.298  1.6495 -0.1761  1.3047
  608SOL    HW2 1824   1.384   2.872   0.419 -2.4957 -0.8221 -2.6698
  609SOL     OW 1825   1.274   1.329   0.236  0.5901  0.3468 -0.6267
  609SOL    HW1 1826   1.276   1.419   0.282 -1.2538  0.9220 -1.0415
  609SOL    HW2 1827   1.267   1.341   0.131  0.2357  0.2791  1.3963
  610SOL     OW 1828   2.969   1.148   2.215  0.3827  0.0275  0.2285
  610SOL    HW1 1829   2.962   1.044   2.221  1.8848  0.6099 -1.0859
  610SOL    HW2 1830   2.958   1.181   2.119  1.8663  1.1223 -0.0037
  611SOL     OW 1831   2.532   0.268   1.178 -0.0923 -0.2157 -0.0687
  611SOL    HW1 1832   2.479   0.179   1.156  1.7629 -1.7465 -0.1006
  611SOL    HW2 1833   2.600   0.257   1.260  1.2578 -0.0571  1.5507
  612SOL     OW 1834   0.710   2.297   1.177  0.1794 -0.1816 -0.1252
  612SOL    HW1 1835   0.645   2.229   1.228 -0.4413  2.0416 -1.5457
  612SOL    HW2 1836   0.680   2.397   1.175 -1.2464  0.8549  1.2161
  613SOL     OW 1837   0.832   1.385   2.382  0.8772 -0.1901 -0.2078
  613SOL    HW1 1838   0.833   1.462   2.313  0.5561 -2.0188  0.4544
  613SOL    HW2 1839   0.817   1.291   2.348 -0.5962  1.5577  1.0356
  614SOL     OW 1840   1.577   1.677   1.886 -0.2156  0.0929 -0.8892
  614SOL    HW1 1841   1.546   1.763   1.840  1.0718  0.6945  0.4638
  614SOL    HW2 1842   1.645   1.698   1.958 -0.1913  1.1259 -2.8132
  615SOL     OW 1843   0.793   1.356   1.737 -0.7809  0.5193  0.5381
  615SOL    HW1 1844   0.717   1.336   1.670 -0.6239 -2.9477 -3.5164
  615SOL    HW2 1845   0.836   1.452   1.715 -3.4733  1.6540 -0.5554
  616SOL     OW 1846   1.112   1.580   2.180  0.5525 -0.1264 -0.2391
  616SOL    HW1 1847   1.004   1.574   2.185  0.8697  0.8782 -0.4588
  616SOL    HW2 1848   1.139   1.614   2.085  1.3795 -1.8112  1.6520
  617SOL     OW 1849   2.977   1.540   1.607  0.0351 -0.1492  0.6469
  617SOL    HW1 1850   2.958   1.467   1.677 -0.5645  1.2396 -0.9858
  617SOL    HW2 1851   3.032   1.507   1.525 -0.3351  2.2126 -2.7186
  618SOL     OW 1852   1.940   2.015   1.442  0.1272 -0.7056 -0.2766
  618SOL    HW1 1853   2.026   2.000   1.389 -0.3429 -1.5617 -1.0058
  618SOL    HW2 1854   1.898   1.928   1.473  0.1055 -1.2111  0.7043
  619SOL     OW 1855   1.715   0.468   2.402 -0.4639 -0.6102 -0.0577
  619SOL    HW1 1856   1.649   0.531   2.348 -1.5447  1.4405 -1.2499
  619SOL    HW2 1857   1.692   0.365   2.410  2.1131 -0.7888 -1.0741
  620SOL     OW 1858   2.209   2.933   0.605 -0.2117 -0.2046 -0.2342
  620SOL    HW1 1859   2.114   2.964   0.605  0.8465  1.6567  0.5719
  620SOL    HW2 1860   2.244   2.890   0.697  0.8539 -0.1215 -0.1595
  621SOL     OW 1861   2.160   1.854   1.295  0.3767 -0.1423  0.2179
  621SOL    HW1 1862   2.174   1.847   1.399 -1.4942  0.4979 -2.3115
  621SOL    HW2 1863   2.159   1.755   1.254  0.6448 -0.5463  1.1361
  622SOL     OW 1864   2.142   0.837   1.727  0.3288 -0.1360 -0.2900
  622SOL    HW1 1865   2.247   0.825   1.728  0.5353  0.2473 -3.1106
  622SOL    HW2 1866   2.098   0.777   1.797  0.9377  2.2029 -0.8277
  623SOL     OW 1867   1.372   0.762   2.605  0.3939 -0.4572  0.7201
  623SOL    HW1 1868   1.312   0.696   2.660 -3.0614  0.1161 -0.4752
  623SOL    HW2 1869   1.317   0.814   2.531 -1.4016  1.2260  0.6643
  624SOL     OW 1870   0.505   0.687   0.026 -0.3488  1.0337  0.0564
  624SOL    HW1 1871   0.549   0.714  -0.062  0.5622 -0.7187 -0.7296
  624SOL    HW2 1872   0.503   0.763   0.090  0.3352 -2.5456 -2.3179
  625SOL     OW 1873   2.798   1.745   0.922  0.1956 -0.0128 -0.6085
  625SOL    HW1 1874   2.705   1.775   0.958 -0.2748  0.1905 -1.2624
  625SOL    HW2 1875   2.838   1.672   0.980 -0.9472  0.1384 -1.2370
  626SOL     OW 1876   0.538   2.721   1.837 -0.6255  0.1430  0.3064
  626SOL    HW1 1877   0.543   2.817   1.875 -0.0623 -1.1565  0.5922
  626SOL    HW2 1878   0.447   2.695   1.794  0.2704  0.3329 -1.5050
  627SOL     OW 1879   0.703   0.987   1.539  0.4605 -0.2373 -1.0299
  627SOL    HW1 1880   0.769   0.904   1.534 -1.7101 -2.3049  3.1110
  627SOL    HW2 1881   0.749   1.070   1.502  1.8558 -0.9371 -0.0431
  628SOL     OW 1882   2.403   0.188   0.686 -0.0263 -0.2074  0.1987
  628SOL    HW1 1883   2.424   0.111   0.616  0.4113 -0.1774 -2.6966
  628SOL    HW2 1884   2.309   0.183   0.729  3.2179 -0.4028  0.2627
  629SOL     OW 1885   1.968   0.915   1.979  0.4316 -0.1941  0.2180
  629SOL    HW1 1886   2.059   0.935   2.026 -0.1767 -0.9537 -2.4260
  629SOL    HW2 1887   1.902   0.994   2.003 -0.9203 -1.0186  1.4781
  630SOL     OW 1888   2.789   2.193   0.776 -0.1180 -0.8551 -0.0416
  630SOL    HW1 1889   2.713   2.244   0.827  1.6441  0.5010  1.8901
  630SOL    HW2 1890   2.771   2.094   0.754  2.6072  1.9315  0.5888
  631SOL     OW 1891   2.972   0.120   2.112  0.1055  0.1619  0.0129
  631SOL    HW1 1892   3.001   0.189   2.187  1.1463  1.1318  3.0666
  631SOL    HW2 1893   3.038   0.113   2.031  1.9727  2.3666  2.0352
  632SOL     OW 1894   2.393   2.524   0.644 -0.2500  0.9182  0.4065
  632SOL    HW1 1895   2.412   2.618   0.679 -0.9776 -0.7690  0.4991
  632SOL    HW2 1896   2.332   2.529   0.557 -0.3031 -1.0540 -0.3082
  633SOL     OW 1897   1.578   1.283   2.538  0.3109 -0.0926 -0.0159
  633SOL    HW1 1898   1.554   1.365   2.597  0.4987  0.1763  1.0513
  633SOL    HW2 1899   1.513   1.277   2.459  0.0451 -1.6860  0.3117
  634SOL     OW 1900   0.646   1.994   0.910 -0.4619 -0.5188  1.0027
  634SOL    HW1 1901   0.564   2.025   0.963 -0.5854  0.4425 -0.8495
  634SOL    HW2 1902   0.713   2.074   0.901 -0.3408  0.9033  0.0002
  635SOL     OW 1903   0.016   2.320   3.056 -0.0597 -0.3399 -0.1284
  635SOL    HW1 1904  -0.033   2.362   2.975 -0.2942 -0.0440  0.0431
  635SOL    HW2 1905   0.036   2.392   3.131 -0.1198  1.6917  1.5130
  636SOL     OW 1906   2.296   2.779   2.042  0.2634  0.2849 -0.0614
  636SOL    HW1 1907   2.291   2.880   2.029 -2.1785  2.1351 -0.8065
  636SOL    HW2 1908   2.275   2.751   2.143  0.5506  0.3694  1.9978
  637SOL     OW 1909   2.575   0.672   2.051 -0.3969 -0.0864 -0.0570
  637SOL    HW1 1910   2.503   0.675   1.979 -1.2952 -2.4831 -1.0235
  637SOL    HW2 1911   2.641   0.753   2.053  0.4108  0.9781 -2.5465
  638SOL     OW 1912   2.460   1.849   1.292  0.5624  0.0564  0.1700
  638SOL    HW1 1913   2.357   1.853   1.295  2.1352 -0.4538 -3.9238
  638SOL    HW2 1914   2.502   1.772   1.354  0.4461  2.4694  0.1580
  639SOL     OW 1915   1.271   2.217   1.655 -0.6193  0.2508 -0.1470
  639SOL    HW1 1916   1.294   2.152   1.581  0.3827  2.4531  0.9574
  639SOL    HW2 1917   1.191   2.189   1.716  2.3504 -0.8171 -1.8378
  640SOL     OW 1918   0.207   1.192   1.561 -0.3478  0.1349 -0.5339
  640SOL    HW1 1919   0.198   1.261   1.638 -0.1545  0.0518 -0.0964
  640SOL    HW2 1920   0.302   1.145   1.563 -0.1862  0.7833  2.1993
  641SOL     OW 1921   2.025   0.072   1.530 -0.2701  0.2065  0.5094
  641SOL    HW1 1922   2.033   0.106   1.628  1.3522 -0.4320 -1.0797
  641SOL    HW2 1923   2.113   0.031   1.499 -1.0622 -0.8060  0.5568
  642SOL     OW 1924   1.942   0.110   0.294 -0.0689  0.1672  0.5558
  642SOL    HW1 1925   2.025   0.119   0.356 -2.0393 -0.7043 -0.7023
  642SOL    HW2 1926   1.854   0.100   0.350 -0.3673  3.6509  1.0648
  643SOL     OW 1927   2.856   1.905   2.070  0.4311  0.4035 -0.2859
  643SOL    HW1 1928   2.815   1.816   2.033  0.2043 -0.8572 -0.0254
  643SOL    HW2 1929   2.836   1.993   2.010  0.6977  0.7520  0.6613
  644SOL     OW 1930   2.184   2.330   1.193 -0.5102 -0.3018 -0.1930
  644SOL    HW1 1931   2.267   2.281   1.158  1.5054 -0.9342  1.9921
  644SOL    HW2 1932   2.191   2.321   1.294  0.5399  0.9097  1.0919
  645SOL     OW 1933   0.612   0.821   1.176 -0.5412 -0.6138 -0.6494
  645SOL    HW1 1934   0.538   0.751   1.145 -0.0025 -1.1590  0.3898
  645SOL    HW2 1935   0.647   0.887   1.102 -0.2744 -1.9325 -1.0650
  646SOL     OW 1936   1.474   1.937   1.841  0.8982 -0.0960 -0.3117
  646SOL    HW1 1937   1.566   1.979   1.845  0.1529 -1.5781 -1.8587
  646SOL    HW2 1938   1.408   1.968   1.917  1.6361  0.1582  0.3601
  647SOL     OW 1939   0.854   0.988   0.680  0.1329 -0.4842 -0.0415
  647SOL    HW1 1940   0.918   1.044   0.742  1.0572 -1.2906 -0.4836
  647SOL    HW2 1941   0.795   0.920   0.727 -3.9724  0.3650 -2.5743
  648SOL     OW 1942   0.084   0.159   0.268  0.3946 -0.4584  0.5578
  648SOL    HW1 1943   0.138   0.101   0.205 -0.8850  1.6931 -1.0558
  648SOL    HW2 1944   0.096   0.261   0.250  0.7998  2.8896  0.0039
  649SOL     OW 1945   3.065   0.159   0.918 -0.1584 -0.0768  0.0592
  649SOL    HW1 1946   3.125   0.216   0.857  1.3499 -2.5711  0.5132
  649SOL    HW2 1947   3.063   0.198   1.014  1.3642  1.1029 -0.3694
  650SOL     OW 1948   2.718   0.720   1.404 -0.0356  0.2008 -0.6352
  650SOL    HW1 1949   2.615   0.732   1.429 -3.1135 -1.1341  2.2098
  650SOL    HW2 1950   2.751   0.799   1.345  0.8391  0.3162  0.4872
  651SOL     OW 1951   0.911   1.570   1.646 -0.3987  0.3284 -0.1553
  651SOL    HW1 1952   0.975   1.635   1.690  1.6965  0.1679 -0.1447
  651SOL    HW2 1953   0.918   1.576   1.547  1.1615  0.5664  2.1136
  652SOL     OW 1954   2.259   2.509   2.473 -0.1222 -0.6255 -0.5479
  652SOL    HW1 1955   2.174   2.489   2.526 -1.1874 -0.8368 -0.8549
  652SOL    HW2 1956   2.233   2.579   2.395  0.6132 -0.3115  0.9422
  653SOL     OW 1957   2.730   1.169   0.235  0.1398  0.1007  0.4586
  653SOL    HW1 1958   2.768   1.261   0.270  0.7423  0.5904  0.3669
  653SOL    HW2 1959   2.798   1.096   0.256 -0.9168 -1.8818 -1.4656
  654SOL     OW 1960   1.248   2.269   1.224 -0.0886  0.4058  0.5538
  654SOL    HW1 1961   1.270   2.186   1.282  1.9927  0.5176 -0.4387
  654SOL    HW2 1962   1.309   2.278   1.140  1.4421 -0.6544 -0.7093
  655SOL     OW 1963   0.218   0.999   1.845 -0.0635  1.3769  0.2689
  655SOL    HW1 1964   0.266   0.918   1.793  2.8026  0.4920 -1.0040
  655SOL    HW2 1965   0.277   1.082   1.826  0.3054  2.8382 -1.2954
  656SOL     OW 1966   2.524   2.474   2.600  0.0979 -0.3643 -0.6677
  656SOL    HW1 1967   2.608   2.441   2.547  0.8478  1.2111 -0.9175
  656SOL    HW2 1968   2.461   2.534   2.534  2.4307  1.6899 -0.6120
  657SOL     OW 1969   3.072   1.078   1.887 -0.6106 -0.1247 -0.0627
  657SOL    HW1 1970   3.074   1.176   1.923  0.0637 -0.1165 -1.5731
  657SOL    HW2 1971   3.169   1.032   1.886  0.8904  0.4069  0.4213
  658SOL     OW 1972   1.652   0.200   2.401 -0.3494 -0.5751 -0.5222
  658SOL    HW1 1973   1.660   0.130   2.479 -4.9252  1.3143  1.3828
  658SOL    HW2 1974   1.711   0.174   2.322 -0.0808  0.8698 -1.3270
  659SOL     OW 1975   1.410   0.627   2.908 -0.7902 -0.1537 -0.4362
  659SOL    HW1 1976   1.471   0.711   2.905 -3.1008  2.0004 -0.8691
  659SOL    HW2 1977   1.316   0.650   2.870  0.5467  1.3114  0.0760
  660SOL     OW 1978   1.449   0.358   1.442  0.3610 -0.0006 -0.4606
  660SOL    HW1 1979   1.502   0.360   1.532 -0.6471 -3.5272 -3.1915
  660SOL    HW2 1980   1.495   0.296   1.375  2.2812  1.0574 -1.7959
  661SOL     OW 1981   2.514   1.164   0.636  0.2474 -0.0186  0.1729
  661SOL    HW1 1982   2.526   1.158   0.530  0.7005 -0.1167 -2.3016
  661SOL    HW2 1983   2.474   1.255   0.666  0.3205  2.1011  1.1533
  662SOL     OW 1984   1.334   0.436   1.832 -0.1883 -0.4120  0.0547
  662SOL    HW1 1985   1.283   0.346   1.810 -1.3375  0.0875 -1.9141
  662SOL    HW2 1986   1.307   0.477   1.923  0.9527  0.5770  0.0248
  663SOL     OW 1987   0.838   1.565   2.185  0.0291 -0.6911  0.6415
  663SOL    HW1 1988   0.801   1.653   2.231  0.9992 -0.0737  0.6484
  663SOL    HW2 1989   0.783   1.532   2.106 -1.3366  0.8967 -2.6854
  664SOL     OW 1990   1.661   2.067   1.427  0.0541 -0.5669 -0.6503
  664SOL    HW1 1991   1.609   1.994   1.479 -0.3417 -2.6810 -1.9407
  664SOL    HW2 1992   1.763   2.067   1.443  0.9541 -1.3327  1.9268
  665SOL     OW 1993   2.196   0.686   2.028 -0.3204  0.3812  0.0975
  665SOL    HW1 1994   2.209   0.596   2.071 -3.2212  2.4640 -0.2585
  665SOL    HW2 1995   2.201   0.767   2.093  1.1153 -1.3865 -0.3015
  666SOL     OW 1996   0.440   2.368   0.467  0.2977 -0.1726  0.1687
  666SOL    HW1 1997   0.527   2.416   0.469 -1.6388 -3.2091  2.3921
  666SOL    HW2 1998   0.416   2.336   0.565  3.0617 -3.6269  0.1989
  667SOL     OW 1999   1.956   0.194   1.043 -0.3357  0.2958 -0.8688
  667SOL    HW1 2000   2.009   0.277   1.069  1.0274 -2.5614  0.6261
  667SOL    HW2 2001   1.903   0.148   1.124  0.4915  0.7923  2.0948
  668SOL     OW 2002   1.978   0.538   1.169  0.4471  0.2318  0.3879
  668SOL    HW1 2003   2.057   0.545   1.107 -0.5058 -1.1160 -0.2478
  668SOL    HW2 2004   2.008   0.507   1.264  1.7066  2.4682 -0.6650
  669SOL     OW 2005   3.020   2.228   0.966 -0.2009 -1.0397 -0.4717
  669SOL    HW1 2006   2.978   2.196   0.878  1.5371 -3.0206 -0.7482
  669SOL    HW2 2007   2.969   2.286   1.031  0.0970 -0.4485 -1.7333
  670SOL     OW 2008   2.878   2.336   2.016 -0.6299  0.0146  0.5706
  670SOL    HW1 2009   2.793   2.302   2.072 -2.3084 -0.2658  1.8534
  670SOL    HW2 2010   2.869   2.436   1.995  0.7337 -0.4972 -1.4581
  671SOL     OW 2011   1.766   1.757   1.425 -0.4734 -0.2071 -0.0809
  671SOL    HW1 2012   1.770   1.759   1.320  0.1823  0.2194 -0.2703
  671SOL    HW2 2013   1.677   1.716   1.467 -2.3660 -1.9895  2.6460
  672SOL     OW 2014   0.447   0.572   2.403  0.2190  0.3599  0.8505
  672SOL    HW1 2015   0.483   0.618   2.316  0.3703  1.5515 -1.4624
  672SOL    HW2 2016   0.359   0.608   2.435  0.6095  1.3396  0.4897
  673SOL     OW 2017   0.140   1.175   1.142 -0.3491  0.1011 -0.0984
  673SOL    HW1 2018   0.162   1.263   1.192 -1.2190 -1.3118  1.6196
  673SOL    HW2 2019   0.226   1.131   1.101  2.3609 -0.1794  1.2773
  674SOL     OW 2020   1.567   2.891   0.153 -0.4738 -0.1277 -0.3272
  674SOL    HW1 2021   1.608   2.989   0.132 -0.4614 -0.4631 -0.1162
  674SOL    HW2 2022   1.608   2.813   0.102 -0.4436  1.9394  1.0877
  675SOL     OW 2023   1.643   0.841   2.306  0.4501  0.0474  0.3004
  675SOL    HW1 2024   1.726   0.841   2.249 -1.1812  1.4900 -2.5336
  675SOL    HW2 2025   1.578   0.760   2.298 -0.1784 -1.7203 -1.2061
  676SOL     OW 2026   2.485   1.558   2.019  0.1163 -0.1189 -0.1053
  676SOL    HW1 2027   2.483   1.504   1.930  0.0866  0.5172 -0.2994
  676SOL    HW2 2028   2.526   1.505   2.094 -1.2250  1.4993 -3.5249
  677SOL     OW 2029   1.851   0.622   0.903 -0.7626 -0.4481  0.0659
  677SOL    HW1 2030   1.910   0.650   0.986 -1.2537  2.2790 -0.5341
  677SOL    HW2 2031   1.876   0.524   0.879  0.0061 -0.0567  0.6311
  678SOL     OW 2032   0.019   0.735   1.667  0.0123  0.3694  0.0535
  678SOL    HW1 2033   0.120   0.725   1.688 -1.5595  2.0550 -0.3321
  678SOL    HW2 2034  -0.037   0.770   1.745  1.7316 -1.6650 -1.2244
  679SOL     OW 2035   2.549   1.153   1.094 -0.2493  0.1930 -0.0377
  679SOL    HW1 2036   2.489   1.201   1.165  0.8259  0.1698 -1.2995
  679SOL    HW2 2037   2.530   1.052   1.073 -0.0335  0.0534 -1.7589
  680SOL     OW 2038   2.831   0.637   1.645 -0.2903  0.4007 -0.2320
  680SOL    HW1 2039   2.767   0.672   1.572 -0.3053 -0.0900  0.1928
  680SOL    HW2 2040   2.888   0.706   1.701 -0.7872  0.6181  0.5169
  681SOL     OW 2041   2.990   0.119   1.617 -0.1761 -0.0363 -0.5855
  681SOL    HW1 2042   3.080   0.134   1.569 -0.4422 -2.6364  0.6338
  681SOL    HW2 2043   2.926   0.207   1.616 -0.2949  1.0820  0.5804
  682SOL     OW 2044   0.790   0.056   1.372  0.4713  0.2290  0.7480
  682SOL    HW1 2045   0.741  -0.017   1.428 -0.4176 -0.8040  0.9121
  682SOL    HW2 2046   0.774   0.037   1.269 -0.3868 -2.2513 -0.7197
  683SOL     OW 2047   1.365   0.278   2.172  0.3118  0.1166  0.6567
  683SOL    HW1 2048   1.337   0.361   2.230 -2.7851 -0.5462 -0.2715
  683SOL    HW2 2049   1.436   0.307   2.101 -0.3752  0.3992 -0.9981
  684SOL     OW 2050   1.432   2.155   0.520 -0.5538 -0.4772 -0.7094
  684SOL    HW1 2051   1.476   2.105   0.601 -1.1449 -3.4287 -0.1323
  684SOL    HW2 2052   1.351   2.098   0.482 -0.9702 -1.8794 -2.4350
  685SOL     OW 2053   2.188   2.005   1.915 -0.2734  0.0333  0.6186
  685SOL    HW1 2054   2.236   2.091   1.894  0.0046  0.1554 -3.6272
  685SOL    HW2 2055   2.255   1.930   1.943 -2.9417 -0.5713  0.4568
  686SOL     OW 2056   1.519   1.747   2.664  0.2786 -0.2846 -0.3854
  686SOL    HW1 2057   1.533   1.660   2.722  2.4419 -2.6285  1.0582
  686SOL    HW2 2058   1.604   1.790   2.621  0.3549  2.8455 -3.1909
  687SOL     OW 2059   1.299   2.526   1.903  0.1474  0.0503 -0.4361
  687SOL    HW1 2060   1.332   2.448   1.847 -1.3252  1.5111  2.2425
  687SOL    HW2 2061   1.353   2.535   1.995  1.5258 -1.4031 -0.2936
  688SOL     OW 2062   2.082   1.474   1.680  0.0513 -0.8826  0.0574
  688SOL    HW1 2063   2.171   1.500   1.633 -2.8739 -2.9210 -0.7551
  688SOL    HW2 2064   2.010   1.438   1.612 -0.4380  0.1067 -0.4836
  689SOL     OW 2065   2.462   1.086   2.749 -0.4261  0.3334  0.4422
  689SOL    HW1 2066   2.360   1.109   2.764  1.1545  1.2565  1.6699
  689SOL    HW2 2067   2.515   1.038   2.825  0.0643 -1.7377  3.0988
  690SOL     OW 2068   2.204   2.752   0.097  0.2828  0.0024  0.3196
  690SOL    HW1 2069   2.122   2.752   0.034 -0.0370  1.3071 -3.2741
  690SOL    HW2 2070   2.192   2.822   0.174 -3.8541  1.1991 -0.5670
  691SOL     OW 2071   2.579   0.418   2.109  0.5550  0.2074  0.3360
  691SOL    HW1 2072   2.649   0.359   2.059  3.2413 -0.2137  3.2800
  691SOL    HW2 2073   2.595   0.522   2.098 -0.4172 -0.2127  1.8822
  692SOL     OW 2074   2.786   1.212   0.720  0.5562 -0.1928  0.1634
  692SOL    HW1 2075   2.690   1.196   0.691  2.3685  0.4430 -0.2940
  692SOL    HW2 2076   2.799   1.304   0.768 -1.2957  1.2015 -0.9152
  693SOL     OW 2077   2.858   2.988   0.674  0.3799  0.4065  0.1017
  693SOL    HW1 2078   2.843   3.082   0.710  2.1830 -0.6083 -1.3822
  693SOL    HW2 2079   2.803   2.970   0.590  0.4207  1.6306  2.0697
  694SOL     OW 2080   2.448   2.235   0.060 -0.4707 -0.0577 -0.5071
  694SOL    HW1 2081   2.411   2.309   0.126  0.9385 -1.8746  1.9271
  694SOL    HW2 2082   2.379   2.162   0.042  2.2095  3.0044  2.2132
  695SOL     OW 2083   0.616   2.969   1.473 -0.1356  0.6014  0.2289
  695SOL    HW1 2084   0.575   2.880   1.434 -2.1897 -1.0851  0.9177
  695SOL    HW2 2085   0.552   3.014   1.541 -1.9696 -0.4563  1.4599
  696SOL     OW 2086   2.677   1.926   0.718 -0.3779  0.1648 -0.3668
  696SOL    HW1 2087   2.718   1.839   0.758  0.6525 -0.9529  0.4363
  696SOL    HW2 2088   2.645   1.914   0.618  2.3536 -1.6099  0.5747
  697SOL     OW 2089   1.728   2.064   1.840  1.0449 -0.3056 -0.4603
  697SOL    HW1 2090   1.810   2.015   1.871 -0.7006 -2.0482  0.3558
  697SOL    HW2 2091   1.746   2.167   1.842 -0.3560 -0.0751  0.5660
  698SOL     OW 2092   2.890   0.369   2.735 -0.3810  0.3501 -0.4122
  698SOL    HW1 2093   2.883   0.350   2.637 -1.2107 -0.0385  1.9810
  698SOL    HW2 2094   2.924   0.287   2.791 -0.8512 -2.1848  2.4539
  699SOL     OW 2095   1.501   0.053   2.928  0.0881 -0.0216 -0.2892
  699SOL    HW1 2096   1.484  -0.036   2.873 -2.4317 -0.4137  2.3263
  699SOL    HW2 2097   1.577   0.105   2.881  1.3001 -0.0461  1.9123
  700SOL     OW 2098   0.987   2.310   1.311 -0.1278 -0.0421 -0.1178
  700SOL    HW1 2099   1.084   2.300   1.269  1.9459 -1.5618  0.1467
  700SOL    HW2 2100   0.915   2.267   1.254 -2.2376  1.5593  0.1904
  701SOL     OW 2101   1.916   2.819  -0.003 -0.3735 -0.1691  0.1111
  701SOL    HW1 2102   1.898   2.763   0.080 -0.5815  0.9638 -0.8113
  701SOL    HW2 2103   1.959   2.912   0.014  0.3138 -0.6166 -2.5911
  702SOL     OW 2104   2.085   1.321   1.928 -0.0089 -0.2411 -0.2345
  702SOL    HW1 2105   2.148   1.238   1.910 -2.8044  0.1506 -0.5688
  702SOL    HW2 2106   2.057   1.370   1.845  0.1491  0.5558 -0.0034
  703SOL     OW 2107   1.914   0.839   1.403 -0.2280  0.2794  0.3936
  703SOL    HW1 2108   1.908   0.759   1.464  0.3230  1.1337 -0.8113
  703SOL    HW2 2109   1.950   0.921   1.455  1.0327 -2.0485 -0.4342
  704SOL     OW 2110   0.316   2.088   1.668 -0.1138  0.4990  0.1568
  704SOL    HW1 2111   0.353   2.030   1.746 -1.2162 -0.6480 -3.8663
  704SOL    HW2 2112   0.377   2.175   1.649  1.9615  0.1623  0.8187
  705SOL     OW 2113   2.538   1.387   0.949  0.0983 -0.2331  0.3505
  705SOL    HW1 2114   2.451   1.374   0.894 -0.8113 -0.1578  0.1473
  705SOL    HW2 2115   2.592   1.303   0.953  0.6546  1.2072 -2.0566
  706SOL     OW 2116   0.655   1.768   1.849 -0.3725  0.4289 -0.2230
  706SOL    HW1 2117   0.655   1.673   1.897  1.4852 -0.5833 -0.3571
  706SOL    HW2 2118   0.701   1.831   1.918  2.4974 -0.7382 -3.9097
  707SOL     OW 2119   2.244   1.113   1.880  0.2502  0.3860 -0.2402
  707SOL    HW1 2120   2.331   1.102   1.929  0.7229  0.6004 -1.3969
  707SOL    HW2 2121   2.218   1.023   1.833  0.4703 -2.3670 -0.7589
  708SOL     OW 2122   2.987   0.499   3.062  0.8103 -0.4845 -0.0216
  708SOL    HW1 2123   3.036   0.564   3.000 -2.3065  0.7038  2.2369
  708SOL    HW2 2124   2.994   0.400   3.032 -1.3990 -2.2182  1.5523
  709SOL     OW 2125   1.811   1.876   0.258  0.3336 -0.6871  0.3580
  709SOL    HW1 2126   1.863   1.958   0.288 -1.4203 -2.5573 -1.9691
  709SOL    HW2 2127   1.822   1.847   0.157  0.2237 -1.7962 -0.5506
  710SOL     OW 2128   1.690   1.590   2.412  0.3465  0.1222  0.1235
  710SOL    HW1 2129   1.762   1.604   2.344 -1.3382  1.4780 -0.2664
  710SOL    HW2 2130   1.710   1.517   2.478 -0.2685 -2.0448 -2.0367
  711SOL     OW 2131   2.668   2.921   0.970 -0.5240 -0.1777 -0.1707
  711SOL    HW1 2132   2.613   3.006   0.975  0.7554 -2.3472  0.9832
  711SOL    HW2 2133   2.764   2.938   1.008 -0.5607  0.2281  0.3285
  712SOL     OW 2134   1.453   2.273   1.844  0.8059  0.5754 -1.1260
  712SOL    HW1 2135   1.534   2.222   1.883  0.8943 -1.1140  0.4229
  712SOL    HW2 2136   1.387   2.222   1.781  0.3939  1.1430  0.9228
  713SOL     OW 2137   2.792   1.524   2.502 -0.3253 -0.5161 -0.5153
  713SOL    HW1 2138   2.800   1.419   2.498 -1.5215 -1.7552 -2.0074
  713SOL    HW2 2139   2.711   1.558   2.561 -1.8071  4.5384 -1.0945
  714SOL     OW 2140   2.663   0.447   2.392 -0.1235  0.2382 -0.3279
  714SOL    HW1 2141   2.617   0.395   2.468 -4.5081  0.8232 -1.1615
  714SOL    HW2 2142   2.640   0.420   2.294  1.6312 -1.3445 -2.7512
  715SOL     OW 2143   1.589   2.038   1.156 -0.1761 -0.1329 -0.0444
  715SOL    HW1 2144   1.520   2.104   1.122 -0.1486  1.7094  0.4595
  715SOL    HW2 2145   1.635   2.064   1.243 -0.1460  0.6494 -2.5869
  716SOL     OW 2146   1.228   0.226   1.518 -0.0160  0.1976  0.0598
  716SOL    HW1 2147   1.139   0.252   1.473 -0.4119  0.8714 -0.2521
  716SOL    HW2 2148   1.312   0.284   1.488  0.3924  0.1280 -0.9925
  717SOL     OW 2149   1.093   0.617   1.617  0.2581  0.1435  0.1116
  717SOL    HW1 2150   1.198   0.607   1.615 -1.4391 -1.8585 -1.0867
  717SOL    HW2 2151   1.061   0.590   1.518 -2.8286  1.9180  2.1399
  718SOL     OW 2152   0.735   0.991   0.969 -0.2734  0.0739  0.5482
  718SOL    HW1 2153   0.665   0.980   0.890  0.5537 -1.2674  0.6437
  718SOL    HW2 2154   0.731   1.091   1.009  0.9968 -0.8357  1.4180
  719SOL     OW 2155   0.743   1.825   2.289  0.4372  0.5866  0.6404
  719SOL    HW1 2156   0.795   1.833   2.378 -0.8442  0.0484 -2.9714
  719SOL    HW2 2157   0.638   1.816   2.300 -0.0625  1.3465 -0.9122
  720SOL     OW 2158   2.189   1.114   0.238  0.2224 -0.4842  0.9207
  720SOL    HW1 2159   2.267   1.049   0.207  0.3255 -1.3683  1.0696
  720SOL    HW2 2160   2.172   1.099   0.340  1.7126  0.2278 -1.0535
  721SOL     OW 2161   2.299   3.059   2.093 -0.1547  0.6131 -0.0140
  721SOL    HW1 2162   2.335   3.146   2.054  0.7133  1.6754 -0.0065
  721SOL    HW2 2163   2.199   3.067   2.129  0.3090  3.0731  0.5407
  722SOL     OW 2164   2.377   1.626   0.562  0.6130 -0.1309 -0.5632
  722SOL    HW1 2165   2.375   1.593   0.465 -1.8176  1.7740  0.8557
  722SOL    HW2 2166   2.284   1.668   0.596 -0.6500 -1.7730  0.5731
  723SOL     OW 2167   2.554   2.740   1.976  0.0273  0.7176  0.1103
  723SOL    HW1 2168   2.601   2.788   2.056 -0.6722 -0.5097 -1.2574
  723SOL    HW2 2169   2.451   2.730   1.982 -1.7111  0.1776 -1.8977
  724SOL     OW 2170   0.529   2.485   2.401 -0.2388 -0.1101  0.0419
  724SOL    HW1 2171   0.433   2.456   2.433 -2.2756 -1.3325  2.0266
  724SOL    HW2 2172   0.594   2.514   2.482  1.1762  2.5822  1.6333
  725SOL     OW 2173   2.477   2.762   1.557  0.1633  0.3270  0.1061
  725SOL    HW1 2174   2.551   2.759   1.487  0.4192 -0.3923  0.7845
  725SOL    HW2 2175   2.432   2.668   1.571  5.5176  0.0233  1.2568
  726SOL     OW 2176   2.362   2.220   0.672 -0.2543  0.1367  0.2654
  726SOL    HW1 2177   2.382   2.322   0.670 -2.5197 -2.6778  0.2784
  726SOL    HW2 2178   2.368   2.175   0.579  0.8273 -1.2780 -1.9159
  727SOL     OW 2179   0.205   3.101   0.075  0.4906  0.5422  0.3125
  727SOL    HW1 2180   0.288   3.045   0.050  2.0662 -1.5050  0.1184
  727SOL    HW2 2181   0.124   3.074   0.018 -0.1616 -1.5424  3.2896
  728SOL     OW 2182   2.851   0.667   0.964 -0.3949 -0.3663  0.1056
  728SOL    HW1 2183   2.764   0.665   0.908  0.2573  3.0406 -4.4104
  728SOL    HW2 2184   2.839   0.605   1.045  1.5484 -0.5609 -0.8342
  729SOL     OW 2185   2.919   2.445   0.706 -0.5894 -0.2591 -0.1324
  729SOL    HW1 2186   2.868   2.351   0.721  0.7127 -2.7584 -1.7617
  729SOL    HW2 2187   3.009   2.450   0.760 -0.5920  3.5365 -3.9457
  730SOL     OW 2188   2.614   0.590   0.844  0.1987 -0.3772 -0.6743
  730SOL    HW1 2189   2.559   0.665   0.802 -1.6066 -0.1079 -2.0810
  730SOL    HW2 2190   2.685   0.552   0.784 -0.9119 -0.4442 -0.8487
  731SOL     OW 2191   0.100   2.127   2.445 -0.4971  0.0877 -0.7710
  731SOL    HW1 2192   0.101   2.159   2.543 -1.1102  1.5070  1.9856
  731SOL    HW2 2193   0.087   2.200   2.374 -2.7639 -0.4435  0.4999
  732SOL     OW 2194   1.117   2.868   1.948  0.3188 -0.5893  0.5078
  732SOL    HW1 2195   1.159   2.819   2.028 -1.5848 -2.6615 -1.5162
  732SOL    HW2 2196   1.120   2.811   1.861  1.1218 -3.0919  0.5135
  733SOL     OW 2197   0.005   0.674   2.157  0.3223  0.9328 -0.7370
  733SOL    HW1 2198   0.085   0.709   2.103 -0.8471  2.8382  0.6416
  733SOL    HW2 2199  -0.052   0.604   2.098 -0.1186 -0.9139 -2.6302
  734SOL     OW 2200   1.435   0.386   2.767 -0.3443 -0.2614 -0.5065
  734SOL    HW1 2201   1.429   0.480   2.818  0.3490 -0.0091  0.5475
  734SOL    HW2 2202   1.348   0.334   2.768  1.4398 -0.9850  2.7257
  735SOL     OW 2203   2.920   2.607   2.249 -0.1298  0.5885 -0.4948
  735SOL    HW1 2204   2.865   2.588   2.159 -1.5418 -2.3076  0.5552
  735SOL    HW2 2205   3.022   2.586   2.242 -0.1775  0.9446 -2.8998
  736SOL     OW 2206   0.709   0.426   2.611  0.5244  0.5381 -0.2034
  736SOL    HW1 2207   0.650   0.504   2.600  2.7878  3.1096  2.0278
  736SOL    HW2 2208   0.749   0.400   2.520 -0.8030 -0.6691 -2.7186
  737SOL     OW 2209   2.662   0.425   2.858 -0.0362  0.5200 -0.3349
  737SOL    HW1 2210   2.650   0.396   2.961 -3.0298  3.2348 -0.0769
  737SOL    HW2 2211   2.761   0.408   2.825  0.2328 -1.6772  2.1775
  738SOL     OW 2212   1.585   1.245   2.917 -0.6820 -0.3163  0.2662
  738SOL    HW1 2213   1.682   1.212   2.917  0.9764  0.6370  1.1791
  738SOL    HW2 2214   1.540   1.215   2.832 -1.1504 -0.5642  1.9509
  739SOL     OW 2215   1.717   0.624   0.667  0.7504  0.1130  0.8222
  739SOL    HW1 2216   1.747   0.612   0.768 -0.9029 -1.3508  2.0532
  739SOL    HW2 2217   1.774   0.562   0.608  0.0051 -2.0095  1.7154
  740SOL     OW 2218   1.949   1.890   2.341  0.0826 -0.8035 -0.6208
  740SOL    HW1 2219   1.991   1.798   2.368  0.9053 -2.3791  0.7655
  740SOL    HW2 2220   1.862   1.883   2.283  1.2680 -0.4351  0.6211
  741SOL     OW 2221   2.549   0.053   2.607 -0.1208 -0.5048 -0.3956
  741SOL    HW1 2222   2.656   0.054   2.599 -0.2087 -0.5568 -3.9235
  741SOL    HW2 2223   2.503   0.044   2.518 -0.5559 -0.7967  0.4346
  742SOL     OW 2224   2.255   1.413   0.170  0.1603  0.2389 -0.0771
  742SOL    HW1 2225   2.189   1.488   0.199 -2.9247  0.2439 -1.6916
  742SOL    HW2 2226   2.234   1.324   0.213 -1.1973  1.5857  0.8149
  743SOL     OW 2227   1.805   0.638   2.590  0.0108 -0.7308 -0.1119
  743SOL    HW1 2228   1.771   0.561   2.530  0.7563  0.9142 -0.4964
  743SOL    HW2 2229   1.737   0.716   2.610 -1.8012 -0.1996  2.0903
  744SOL     OW 2230   2.692   2.145   0.059 -0.0511 -0.2797 -0.0489
  744SOL    HW1 2231   2.602   2.191   0.065  2.0577 -1.3201 -0.5425
  744SOL    HW2 2232   2.691   2.046   0.029 -1.0592  2.5089 -0.3930
  745SOL     OW 2233   2.145   2.680   2.264  0.0498  0.2565 -0.8074
  745SOL    HW1 2234   2.063   2.672   2.196 -0.0258 -1.0150  1.0935
  745SOL    HW2 2235   2.124   2.756   2.333 -1.5253 -2.1861  0.6720
  746SOL     OW 2236   3.093   2.605   1.810  0.0011 -0.2906  0.4908
  746SOL    HW1 2237   3.184   2.615   1.762 -1.2056 -0.4811  1.6741
  746SOL    HW2 2238   3.055   2.702   1.830 -0.8541 -0.7508 -1.5858
  747SOL     OW 2239   0.032   1.772   1.626 -0.2321 -0.1537  0.4246
  747SOL    HW1 2240  -0.022   1.684   1.638  0.8848  1.0328  0.4426
  747SOL    HW2 2241   0.054   1.790   1.526 -1.0229  2.3075 -1.3605
  748SOL     OW 2242   1.844   2.778   2.842 -0.4180  0.1516  0.5129
  748SOL    HW1 2243   1.875   2.804   2.941  1.1042  0.3277  1.8538
  748SOL    HW2 2244   1.743   2.756   2.826 -0.8471  0.7309 -0.5309
  749SOL     OW 2245   1.336   3.087   0.886  0.1963 -0.2377 -0.1774
  749SOL    HW1 2246   1.265   3.016   0.915  3.1706  0.9574 -0.9370
  749SOL    HW2 2247   1.338   3.111   0.782 -0.9155  1.1529  0.0006
  750SOL     OW 2248   2.343   0.224   1.868 -0.4728 -0.5829  0.2054
  750SOL    HW1 2249   2.333   0.288   1.785  0.5667 -3.6601 -0.8788
  750SOL    HW2 2250   2.362   0.270   1.954 -3.2962  0.3745 -0.6090
  751SOL     OW 2251   0.925   2.194   2.726 -0.9475  0.5460  0.4322
  751SOL    HW1 2252   0.918   2.176   2.828 -0.7247 -2.1925 -0.5883
  751SOL    HW2 2253   0.851   2.153   2.671  0.3324  0.4423 -0.3985
  752SOL     OW 2254   1.270   0.853   1.512  0.2002 -0.3169  0.3366
  752SOL    HW1 2255   1.340   0.920   1.468 -0.4009  0.3942 -1.7790
  752SOL    HW2 2256   1.311   0.774   1.570  0.7313 -1.6488  1.2654
  753SOL     OW 2257   0.947   2.586   1.691 -0.6572 -0.1368 -0.8379
  753SOL    HW1 2258   1.048   2.622   1.685  0.8472  0.6440  1.8909
  753SOL    HW2 2259   0.894   2.663   1.650 -0.1807 -0.8255 -0.2197
  754SOL     OW 2260   1.226   1.327   3.070  0.1588  0.1496 -0.6195
  754SOL    HW1 2261   1.256   1.264   2.997 -0.2174  1.3579 -1.5810
  754SOL    HW2 2262   1.203   1.420   3.030 -0.1068  1.0972 -2.6519
  755SOL     OW 2263   1.935   0.427   2.198 -0.7030  0.2155  0.0017
  755SOL    HW1 2264   2.031   0.424   2.239  0.0459 -0.6528  0.4711
  755SOL    HW2 2265   1.862   0.448   2.266  2.0245  0.3829  1.0391
  756SOL     OW 2266   2.617   0.953   2.931  0.6728  0.2656  0.3759
  756SOL    HW1 2267   2.714   0.950   2.968  0.4016 -1.6231  0.6607
  756SOL    HW2 2268   2.545   0.900   2.993 -3.4674 -0.0693  0.6629
  757SOL     OW 2269   3.065   0.451   1.792  0.5331 -0.3001  0.2541
  757SOL    HW1 2270   3.085   0.532   1.733 -0.6424 -1.1810  0.8940
  757SOL    HW2 2271   3.141   0.382   1.786  2.1626 -0.8203 -4.5137
  758SOL     OW 2272   2.397   0.085   1.442  0.6963 -0.2912  0.4119
  758SOL    HW1 2273   2.336   0.013   1.480 -1.0125  2.3623  2.4154
  758SOL    HW2 2274   2.376   0.087   1.341 -0.3835 -1.8962  1.4330
  759SOL     OW 2275   1.691   0.043   0.091  0.0030 -0.0312  0.3794
  759SOL    HW1 2276   1.636   0.079   0.010 -1.5141  3.5353 -1.2374
  759SOL    HW2 2277   1.785   0.007   0.065 -1.8896 -0.2944 -2.3670
  760SOL     OW 2278   2.735   2.073   2.823 -0.4858 -0.5717 -0.0131
  760SOL    HW1 2279   2.815   2.004   2.830  0.4019 -3.1473  0.9192
  760SOL    HW2 2280   2.745   2.167   2.865  0.3904  0.0432 -1.9289
  761SOL     OW 2281   1.944   1.731   1.636 -0.3456 -0.1607 -0.4908
  761SOL    HW1 2282   1.985   1.643   1.672  0.4175 -0.5842  0.0015
  761SOL    HW2 2283   1.873   1.717   1.557  1.4092 -1.3086 -2.8106
  762SOL     OW 2284   0.475   2.356   0.993  0.2905  1.1957  0.3107
  762SOL    HW1 2285   0.514   2.370   0.894  1.0546 -1.8841 -0.4473
  762SOL    HW2 2286   0.507   2.425   1.064  1.7347  0.2745  0.5859
  763SOL     OW 2287   2.095   1.517   2.990  0.0926 -0.4036  0.2591
  763SOL    HW1 2288   2.175   1.453   2.990 -0.7025  0.6082  1.0273
  763SOL    HW2 2289   2.025   1.489   3.059  2.6900  0.8387  0.0114
  764SOL     OW 2290   0.690   0.597   0.876  0.2865 -0.3154  0.0281
  764SOL    HW1 2291   0.650   0.540   0.800  0.7146 -1.7131  2.6564
  764SOL    HW2 2292   0.790   0.579   0.901 -0.3417 -0.8831  3.1992
  765SOL     OW 2293   0.693   0.220   0.849 -0.1429  0.3089 -0.3478
  765SOL    HW1 2294   0.740   0.308   0.823  1.5963 -1.7155  0.7304
  765SOL    HW2 2295   0.667   0.225   0.950  0.6511  0.4587  0.3623
  766SOL     OW 2296   2.957   2.099   3.092  0.3663 -0.0023  0.1817
  766SOL    HW1 2297   2.883   2.113   3.159 -0.3095 -1.8180 -4.0780
  766SOL    HW2 2298   3.028   2.178   3.089 -0.1075  1.8770  0.9293
  767SOL     OW 2299   2.896   1.571   0.523  0.6694  0.2494 -0.0802
  767SOL    HW1 2300   2.815   1.519   0.566  0.0076 -1.2261 -0.1239
  767SOL    HW2 2301   2.915   1.660   0.566 -0.9770 -1.3839 -0.4583
  768SOL     OW 2302   1.094   0.219   0.336 -0.0718  0.2836 -0.3564
  768SOL    HW1 2303   1.020   0.156   0.369 -2.2691 -2.3287  0.5704
  768SOL    HW2 2304   1.182   0.169   0.303  0.5399  0.4867  0.1877
  769SOL     OW 2305   1.110   1.867   2.253  0.0392 -0.6385  0.0571
  769SOL    HW1 2306   1.037   1.891   2.320  1.1466  2.2670 -2.4355
  769SOL    HW2 2307   1.137   1.767   2.243  2.5749 -3.1670 -3.6960
  770SOL     OW 2308   0.146   1.303   2.275  0.1839 -0.0150  0.8239
  770SOL    HW1 2309   0.126   1.299   2.380 -0.6457  0.8831  1.5546
  770SOL    HW2 2310   0.080   1.248   2.224 -0.5451  2.4025  1.0360
  771SOL     OW 2311   2.972   2.823   1.865  0.3414 -0.4596  0.0196
  771SOL    HW1 2312   2.933   2.883   1.792  5.4957  1.9228  0.8279
  771SOL    HW2 2313   2.950   2.865   1.960 -1.8106 -1.9742 -1.8062
  772SOL     OW 2314   2.180   0.118   2.969  0.0241 -0.0014 -0.2475
  772SOL    HW1 2315   2.260   0.073   2.926  1.1773  1.4648 -0.0872
  772SOL    HW2 2316   2.204   0.217   2.998  0.1230 -1.2620  0.9380
  773SOL     OW 2317   0.714   2.082   2.527 -0.5776 -0.6363  0.1892
  773SOL    HW1 2318   0.681   2.106   2.430  0.0160 -0.4182 -1.2749
  773SOL    HW2 2319   0.644   2.110   2.596 -0.5688  0.5257 -0.7341
  774SOL     OW 2320   2.041   0.019   2.653  0.0237  0.1620 -0.1009
  774SOL    HW1 2321   2.063   0.111   2.694 -0.1535  1.9070 -1.4167
  774SOL    HW2 2322   2.073  -0.057   2.723 -0.3610 -0.9518 -2.1346
  775SOL     OW 2323   2.528   2.840   2.492  0.8652  0.3135 -0.1741
  775SOL    HW1 2324   2.502   2.936   2.465  0.4105 -0.4605 -1.6578
  775SOL    HW2 2325   2.625   2.824   2.467 -1.1683  0.9458  0.7552
  776SOL     OW 2326   0.043   1.244   0.258  0.3032  0.0708  0.3565
  776SOL    HW1 2327  -0.006   1.219   0.167 -2.5433 -0.1857  0.8534
  776SOL    HW2 2328  -0.015   1.249   0.342 -1.6509 -0.1657 -1.6059
  777SOL     OW 2329   0.234   2.729   0.491 -0.0534 -0.3222  0.6813
  777SOL    HW1 2330   0.136   2.734   0.524  1.0835 -0.1945  0.1677
  777SOL    HW2 2331   0.286   2.817   0.499 -0.8023 -0.0144 -1.3486
  778SOL     OW 2332   1.350   1.998   0.180 -0.1987  0.1361  0.4309
  778SOL    HW1 2333   1.279   1.998   0.255 -1.7615 -0.2696 -0.7875
  778SOL    HW2 2334   1.361   2.094   0.139 -0.5420 -0.6764  0.5288
  779SOL     OW 2335   0.177   0.783   0.512 -0.2452 -0.0004  0.0406
  779SOL    HW1 2336   0.130   0.690   0.515 -1.0379 -0.6232 -0.0271
  779SOL    HW2 2337   0.127   0.855   0.565 -2.8902  0.1625 -0.7169
  780SOL     OW 2338   0.033   0.300   2.306 -0.6787  0.3646  0.5714
  780SOL    HW1 2339   0.014   0.397   2.344  1.9869  0.9568  0.4931
  780SOL    HW2 2340   0.123   0.294   2.251 -0.6099  2.5235 -0.5025
  781SOL     OW 2341   0.641   1.724   1.559 -0.5612  0.3246  0.0337
  781SOL    HW1 2342   0.681   1.737   1.653  0.8205  1.1021  0.4189
  781SOL    HW2 2343   0.554   1.679   1.569  0.5760 -2.9220  0.8197
  782SOL     OW 2344   2.579   0.150   0.888 -0.6239  0.1964  0.5522
  782SOL    HW1 2345   2.517   0.175   0.809 -1.3690 -0.1932 -0.4121
  782SOL    HW2 2346   2.554   0.188   0.980 -0.8133 -1.8725 -0.4789
  783SOL     OW 2347   2.818   0.663   2.524  0.0353 -0.0495 -0.5479
  783SOL    HW1 2348   2.780   0.673   2.620 -1.8953  0.5781  0.7279
  783SOL    HW2 2349   2.747   0.625   2.458 -3.2264 -2.3316 -0.3433
  784SOL     OW 2350   1.359   2.251   0.056  0.0748  0.0423  0.2306
  784SOL    HW1 2351   1.447   2.282   0.099 -0.7187  0.2635 -0.7236
  784SOL    HW2 2352   1.348   2.295  -0.034 -0.1760  2.1923  0.4505
  785SOL     OW 2353   2.190   0.373   3.063 -0.5564  0.2052  0.2050
  785SOL    HW1 2354   2.096   0.366   3.111 -1.5114 -1.0406  0.0016
  785SOL    HW2 2355   2.206   0.465   3.017  2.0061 -3.0222 -1.7816
  786SOL     OW 2356   2.052   2.128   2.208  0.3093  0.1991  0.0966
  786SOL    HW1 2357   2.004   2.040   2.229 -0.2637  0.2254  1.7012
  786SOL    HW2 2358   2.148   2.122   2.253  3.1115 -0.9478  1.3700
  787SOL     OW 2359   1.399   0.602   0.877  0.2609 -0.2435 -0.2207
  787SOL    HW1 2360   1.322   0.670   0.873  0.4950 -1.1527 -0.1845
  787SOL    HW2 2361   1.433   0.567   0.785  1.1971 -1.0050  0.7244
  788SOL     OW 2362   1.223   0.401   3.035  0.3148 -0.0461 -0.3305
  788SOL    HW1 2363   1.130   0.423   2.993 -2.7342 -1.4459 -0.2701
  788SOL    HW2 2364   1.291   0.420   2.965 -1.1959 -1.3100 -0.3709
  789SOL     OW 2365   2.586   0.090   1.781 -0.2046  0.3465 -0.1311
  789SOL    HW1 2366   2.490   0.136   1.806 -4.6308  0.5345  1.5877
  789SOL    HW2 2367   2.581  -0.014   1.790 -2.1495  2.2201 -0.2241
  790SOL     OW 2368   2.533   2.674   0.839 -0.3757 -0.5449 -0.2839
  790SOL    HW1 2369   2.605   2.726   0.787  3.2348  0.0207 -3.3298
  790SOL    HW2 2370   2.572   2.632   0.923  1.5409  0.8045 -0.3311
  791SOL     OW 2371   1.940   1.270   0.243  0.1823  0.2391 -0.2066
  791SOL    HW1 2372   1.846   1.223   0.248 -1.0350 -2.2954 -3.4532
  791SOL    HW2 2373   2.022   1.210   0.269  0.0015 -0.9007 -0.3902
  792SOL     OW 2374   0.442   2.017   2.169 -0.5283 -0.4892  0.4967
  792SOL    HW1 2375   0.496   2.094   2.217  1.0873  1.5321 -2.0352
  792SOL    HW2 2376   0.349   2.002   2.219 -0.0542  2.4120  1.0825
  793SOL     OW 2377   2.115   1.561   2.090  0.9448  0.1590 -0.0301
  793SOL    HW1 2378   2.182   1.641   2.062  0.9800  2.3997 -0.8229
  793SOL    HW2 2379   2.106   1.484   2.018  0.4200  1.2635  2.3985
  794SOL     OW 2380   0.464   1.378   2.477 -0.3031  0.3676  0.4239
  794SOL    HW1 2381   0.460   1.319   2.387 -0.2274 -1.2727 -0.7087
  794SOL    HW2 2382   0.410   1.471   2.468 -2.3527 -0.1142 -0.6641
  795SOL     OW 2383   2.492   2.344   1.807  0.5249 -0.2820  0.4211
  795SOL    HW1 2384   2.454   2.411   1.871  0.3826 -1.5710 -4.0008
  795SOL    HW2 2385   2.422   2.275   1.771  1.4068  0.4526 -0.1078
  796SOL     OW 2386   3.092   1.056   2.706 -0.3733 -0.3527  0.2067
  796SOL    HW1 2387   2.990   1.080   2.688 -3.2410  0.6740 -2.4371
  796SOL    HW2 2388   3.143   1.099   2.788  0.7291  0.0987  2.3522
  797SOL     OW 2389   0.775   0.663   1.347 -0.0138 -0.2344  0.1581
  797SOL    HW1 2390   0.840   0.716   1.410  0.4093  1.7854  2.2518
  797SOL    HW2 2391   0.721   0.733   1.294  0.8431  1.4257 -0.7186
  798SOL     OW 2392   1.304   0.427   1.071 -0.6574  0.1021  0.2191
  798SOL    HW1 2393   1.317   0.474   1.161 -1.5052 -1.0815  1.7951
  798SOL    HW2 2394   1.343   0.478   0.986 -3.2083 -1.0671  0.1514
  799SOL     OW 2395   1.921   2.715   1.025 -0.4444  0.4343 -0.5258
  799SOL    HW1 2396   1.895   2.629   1.076  0.0656  0.0470 -1.2218
  799SOL    HW2 2397   1.911   2.693   0.927 -1.0229  1.6928  2.4317
  800SOL     OW 2398   2.949   0.821   1.867  0.6215  0.2767 -0.2522
  800SOL    HW1 2399   2.988   0.917   1.883 -0.2332 -0.7583  4.2610
  800SOL    HW2 2400   2.859   0.812   1.920  1.5253 -1.8983  1.7379
  801SOL     OW 2401   1.972   2.138   0.051  0.0890 -0.1315  0.1572
  801SOL    HW1 2402   1.917   2.104  -0.028 -0.5173 -1.3005  0.3506
  801SOL    HW2 2403   2.072   2.099   0.046  0.2046 -0.6838  1.1845
  802SOL     OW 2404   0.710   0.723   2.508  0.1975 -0.0984  0.1164
  802SOL    HW1 2405   0.763   0.723   2.415  0.1554 -2.2470  0.8133
  802SOL    HW2 2406   0.608   0.747   2.497 -1.6958 -0.6210  0.1168
  803SOL     OW 2407   0.964   0.082   0.893 -0.0608  0.0329 -0.1652
  803SOL    HW1 2408   1.057   0.126   0.909 -0.5721 -1.8749 -2.1208
  803SOL    HW2 2409   0.912   0.117   0.812  0.7736 -1.0564 -0.2129
  804SOL     OW 2410   0.290   3.064   2.176  0.2177  0.4233 -0.2309
  804SOL    HW1 2411   0.266   3.166   2.192  0.2158  2.0868 -3.1267
  804SOL    HW2 2412   0.233   3.028   2.096 -1.4656 -1.2275  0.5131
  805SOL     OW 2413   2.333   0.417   0.315 -0.2273 -0.3803 -0.8581
  805SOL    HW1 2414   2.399   0.418   0.394  0.7592  3.2073 -2.5861
  805SOL    HW2 2415   2.357   0.338   0.248  0.5261 -0.3601  2.4196
  806SOL     OW 2416   0.644   2.485   1.792 -0.9397  0.0153  0.0066
  806SOL    HW1 2417   0.620   2.588   1.812 -0.3982  0.5439 -0.1419
  806SOL    HW2 2418   0.730   2.480   1.733  0.8572 -1.5739  2.0303
  807SOL     OW 2419   2.493   0.941   0.437 -0.2827  0.0289  0.1896
  807SOL    HW1 2420   2.560   0.865   0.438 -1.5534  1.5705  1.6750
  807SOL    HW2 2421   2.495   0.974   0.335 -1.1571 -2.1263 -2.5056
  808SOL     OW 2422   0.637   2.019   2.886 -0.3747 -1.0110 -0.0666
  808SOL    HW1 2423   0.577   2.050   2.963  0.0636  0.2442 -0.7840
  808SOL    HW2 2424   0.663   1.915   2.887  0.8309  0.5859 -0.5070
  809SOL     OW 2425   2.558   1.995   1.869  0.0516  0.6029  0.3968
  809SOL    HW1 2426   2.643   2.048   1.882 -2.1647 -2.4070  0.1829
  809SOL    HW2 2427   2.511   2.021   1.782 -3.0383  1.1464  2.0034
  810SOL     OW 2428   2.162   1.102   0.505 -0.3658  0.0211  0.2803
  810SOL    HW1 2429   2.159   1.019   0.566 -1.8676 -0.2421 -1.0545
  810SOL    HW2 2430   2.148   1.190   0.551 -1.6342 -3.1873 -2.9117
  811SOL     OW 2431   1.382   2.553   1.196 -0.2653  0.0461  0.0189
  811SOL    HW1 2432   1.328   2.465   1.210 -3.0145  1.4065  2.7745
  811SOL    HW2 2433   1.368   2.628   1.266  0.0856  0.6923 -1.4093
  812SOL     OW 2434   1.407   0.778   1.966 -0.0090  0.3174 -0.6784
  812SOL    HW1 2435   1.321   0.755   1.916  0.1299 -0.1370  1.6084
  812SOL    HW2 2436   1.429   0.873   1.980 -0.4583 -1.6340  0.9578
  813SOL     OW 2437   1.594   2.071   2.433 -0.3573 -0.0711  0.0558
  813SOL    HW1 2438   1.632   1.981   2.473 -0.3752  0.1770 -1.6989
  813SOL    HW2 2439   1.580   2.062   2.331 -1.2328  1.9396 -0.7882
  814SOL     OW 2440   2.996   1.608   2.875 -0.4919 -0.0186  0.8463
  814SOL    HW1 2441   3.080   1.586   2.942  0.7156  1.7871 -0.1774
  814SOL    HW2 2442   2.970   1.708   2.874 -0.2581  0.6277 -1.5052
  815SOL     OW 2443   2.205   2.895   2.770  0.1960  0.1847  0.3573
  815SOL    HW1 2444   2.187   2.803   2.814 -0.2831  0.8704  0.7050
  815SOL    HW2 2445   2.302   2.933   2.793 -0.0365 -1.6617 -0.4009
  816SOL     OW 2446   1.576   0.351   1.676 -0.0707 -0.1068  0.3478
  816SOL    HW1 2447   1.620   0.261   1.689 -1.6327  1.8596  0.2273
  816SOL    HW2 2448   1.529   0.384   1.762 -2.0533  1.3173  0.8171
  817SOL     OW 2449   0.385   1.176   2.662 -0.2103  0.0422  0.0495
  817SOL    HW1 2450   0.288   1.189   2.697  0.2791  1.7059 -2.4387
  817SOL    HW2 2451   0.419   1.256   2.604 -0.9892  0.7189  0.2456
  818SOL     OW 2452   1.972   0.817   0.438  0.8885 -0.3512  0.2463
  818SOL    HW1 2453   2.074   0.798   0.424  1.5215  0.1847 -0.6988
  818SOL    HW2 2454   1.944   0.859   0.529  1.0837  0.6158 -1.4886
  819SOL     OW 2455   2.738   2.969   3.061 -0.4252  0.2957 -0.5512
  819SOL    HW1 2456   2.750   2.922   3.155 -0.5003  0.1874  0.8224
  819SOL    HW2 2457   2.688   2.914   2.985 -1.3724  0.2691  0.2069
  820SOL     OW 2458   1.245   1.031   0.518 -0.1659 -0.3149  0.3103
  820SOL    HW1 2459   1.288   1.120   0.557 -0.1462  0.5370  2.6392
  820SOL    HW2 2460   1.235   0.960   0.599  0.5289 -0.7717  1.2706
  821SOL     OW 2461   0.034   1.249   0.721 -0.4187 -0.3673 -0.0706
  821SOL    HW1 2462  -0.015   1.257   0.811  1.9672  2.0882 -2.9934
  821SOL    HW2 2463   0.100   1.326   0.711 -0.5857  1.3905 -0.1802
  822SOL     OW 2464   2.522   1.806   2.467 -0.2949  0.1730 -0.0707
  822SOL    HW1 2465   2.526   1.883   2.537 -0.5757 -1.1824 -0.1076
  822SOL    HW2 2466   2.440   1.817   2.400 -1.3876 -0.6459  1.2776
  823SOL     OW 2467   2.003   0.887   1.141 -0.6413  0.4237 -0.0967
  823SOL    HW1 2468   1.961   0.851   1.232 -1.2496 -0.8483  0.5099
  823SOL    HW2 2469   1.940   0.941   1.081  1.9334  0.8176  2.5447
  824SOL     OW 2470   0.213   1.992   2.797  0.0375  0.0987  0.2410
  824SOL    HW1 2471   0.231   1.939   2.889  1.2163 -1.7020  0.7616
  824SOL    HW2 2472   0.270   1.966   2.711 -0.0946  0.3473 -2.9804
  825SOL     OW 2473   1.323   1.047   0.265  0.3928  0.6012 -0.1758
  825SOL    HW1 2474   1.308   1.144   0.235 -1.5990 -2.1443 -0.2230
  825SOL    HW2 2475   1.285   1.030   0.365 -0.4282 -3.3483  2.4253
  826SOL     OW 2476   1.930   0.622   1.598  0.3148 -0.3288  0.1963
  826SOL    HW1 2477   2.024   0.598   1.634 -0.3831 -1.6891 -0.8099
  826SOL    HW2 2478   1.880   0.540   1.558 -0.5591  1.8850  0.6604
  827SOL     OW 2479   0.656   1.232   0.302  0.7386  0.0886  0.1066
  827SOL    HW1 2480   0.735   1.185   0.256 -0.0845 -1.9423 -0.1429
  827SOL    HW2 2481   0.593   1.168   0.351 -1.6957  1.2413 -1.0498
  828SOL     OW 2482   2.654   0.112   1.519 -0.4485 -0.1139 -0.4260
  828SOL    HW1 2483   2.560   0.111   1.481 -0.0162 -0.4796  0.6257
  828SOL    HW2 2484   2.654   0.132   1.623  1.0200  2.2441 -1.0360
  829SOL     OW 2485   2.959   2.385   2.823  0.2689  0.5739 -0.0418
  829SOL    HW1 2486   2.890   2.351   2.891  1.0026  1.5967  0.6457
  829SOL    HW2 2487   2.986   2.482   2.835  0.3695  1.6923  1.2666
  830SOL     OW 2488   2.882   0.960   3.053 -0.1880 -0.1888 -0.3675
  830SOL    HW1 2489   2.963   1.022   3.066  0.8473  1.0402  1.5691
  830SOL    HW2 2490   2.893   0.863   3.096 -0.8884 -3.7857 -2.7599
  831SOL     OW 2491   0.029   0.547   0.423 -0.6684 -0.1107 -0.1455
  831SOL    HW1 2492  -0.008   0.494   0.505  0.8067  0.4517  0.8076
  831SOL    HW2 2493   0.076   0.493   0.347 -0.5321 -0.8848 -1.5703
  832SOL     OW 2494   1.843   0.770   3.044  0.4514 -0.0376  0.0508
  832SOL    HW1 2495   1.747   0.810   3.040 -0.5232 -0.8077  2.6878
  832SOL    HW2 2496   1.832   0.665   3.060 -1.4863  0.3704 -0.7534
  833SOL     OW 2497   2.426   2.053   0.458  0.4126 -0.0497 -0.3429
  833SOL    HW1 2498   2.328   2.017   0.440 -1.3276 -2.6520 -2.6593
  833SOL    HW2 2499   2.501   1.980   0.448 -2.4840 -0.1460  1.6890
  834SOL     OW 2500   0.155   0.107   0.548  0.3869  0.2293  0.1182
  834SOL    HW1 2501   0.239   0.044   0.573  1.9601 -0.2359  0.2647
  834SOL    HW2 2502   0.149   0.130   0.446  0.6201  0.4688 -0.6502
  835SOL     OW 2503   2.430   1.517   1.163  1.0229  0.1537  0.0457
  835SOL    HW1 2504   2.476   1.608   1.190  0.6780 -0.1799 -2.4740
  835SOL    HW2 2505   2.487   1.477   1.085  2.7424 -0.3786  0.0723
  836SOL     OW 2506   1.613   0.839   2.566 -0.0466 -0.3560 -0.0342
  836SOL    HW1 2507   1.515   0.802   2.586  0.3115 -0.5251  0.4411
  836SOL    HW2 2508   1.638   0.848   2.466  1.1476  1.2107  0.9832
  837SOL     OW 2509   1.642   0.050   0.596  0.2113  0.3218  0.4589
  837SOL    HW1 2510   1.601   0.131   0.645  0.0619 -1.2123 -0.1861
  837SOL    HW2 2511   1.604   0.039   0.499  0.4428 -0.2787 -1.0449
  838SOL     OW 2512   1.231   1.361   2.742  0.3150 -0.2878 -0.6456
  838SOL    HW1 2513   1.203   1.450   2.791  1.3325  0.8912 -2.2748
  838SOL    HW2 2514   1.152   1.332   2.679 -0.6792  0.4391 -2.3548
  839SOL     OW 2515   1.608   0.366   1.003  0.0644  0.4864 -0.6004
  839SOL    HW1 2516   1.660   0.414   1.081  0.4620  2.5072 -0.9195
  839SOL    HW2 2517   1.563   0.277   1.037 -1.8055 -0.3635 -1.8726
  840SOL     OW 2518   2.579   2.920   1.762  0.7387 -0.2704 -0.7826
  840SOL    HW1 2519   2.543   2.855   1.689 -3.7860  1.0443  1.3905
  840SOL    HW2 2520   2.597   2.875   1.853  1.9296  2.2288 -1.5837
  841SOL     OW 2521   1.556   0.865   2.969 -0.4151 -0.4683 -0.0595
  841SOL    HW1 2522   1.509   0.888   3.060 -0.6421  3.7251  0.4526
  841SOL    HW2 2523   1.550   0.945   2.904  2.6602 -0.3943  0.8194
  842SOL     OW 2524   0.786   1.538   0.994 -0.3275  0.0125 -0.1155
  842SOL    HW1 2525   0.757   1.628   1.039  0.5911  4.0769 -1.0277
  842SOL    HW2 2526   0.728   1.509   0.910 -0.6048  0.8556 -1.9622
  843SOL     OW 2527   0.117   0.133   1.448 -0.2839  0.2166 -0.4458
  843SOL    HW1 2528   0.194   0.150   1.511 -0.9427  0.9751 -2.7104
  843SOL    HW2 2529   0.135   0.054   1.384 -0.5052  0.2220  0.0261
  844SOL     OW 2530   0.775   2.473   0.250 -0.4273 -0.5027 -0.5846
  844SOL    HW1 2531   0.749   2.488   0.347  0.6015  1.6525 -0.9620
  844SOL    HW2 2532   0.685   2.478   0.197 -1.6546  4.0771 -0.3630
  845SOL     OW 2533   1.695   2.924   1.369  0.2091 -0.2725 -0.2083
  845SOL    HW1 2534   1.699   2.958   1.466 -0.3573  0.8926  0.3465
  845SOL    HW2 2535   1.645   2.992   1.309 -0.0134  0.4138  1.5742
  846SOL     OW 2536   1.702   2.958   0.914  0.2646 -0.0607  0.2546
  846SOL    HW1 2537   1.653   2.928   0.827  1.0488  1.9221 -2.3241
  846SOL    HW2 2538   1.803   2.965   0.896 -1.2381  0.4600  0.3231
  847SOL     OW 2539   2.074   1.613   0.224  0.8400 -0.3399 -0.1554
  847SOL    HW1 2540   2.017   1.601   0.308  2.5877 -2.7658 -0.2907
  847SOL    HW2 2541   2.018   1.587   0.136 -0.1528 -2.3693 -0.0975
  848SOL     OW 2542   2.467   0.825   2.671 -0.1627 -0.5539 -0.1758
  848SOL    HW1 2543   2.471   0.928   2.684 -0.2983  0.6607 -1.4274
  848SOL    HW2 2544   2.406   0.793   2.598  4.2797  0.5727  1.5560
  849SOL     OW 2545   2.446   0.841   2.303 -0.0601 -0.1717  0.1499
  849SOL    HW1 2546   2.493   0.792   2.222 -0.6162 -1.5510  1.8627
  849SOL    HW2 2547   2.383   0.779   2.356 -1.6861  1.9087 -0.0343
  850SOL     OW 2548   1.562   0.086   1.274 -0.3668  0.6083  0.1389
  850SOL    HW1 2549   1.573   0.089   1.167  0.0082  2.5430 -1.2625
  850SOL    HW2 2550   1.461   0.077   1.312 -0.5426 -1.0475 -0.6904
  851SOL     OW 2551   0.463   1.722   0.678  0.3462  0.5157 -0.2674
  851SOL    HW1 2552   0.461   1.825   0.666 -3.8614 -0.3255 -0.8474
  851SOL    HW2 2553   0.544   1.693   0.731 -0.1270  2.4223  0.4199
  852SOL     OW 2554   0.815   2.119   1.661  0.1439 -0.2683  0.3568
  852SOL    HW1 2555   0.813   2.214   1.618  0.1268  1.6172  0.3968
  852SOL    HW2 2556   0.761   2.110   1.744  3.0565 -3.3620 -1.7478
  853SOL     OW 2557   2.542   1.559   2.591  0.6544 -0.1108 -0.2073
  853SOL    HW1 2558   2.505   1.473   2.552 -2.5364  0.6156  2.4449
  853SOL    HW2 2559   2.534   1.638   2.523 -1.7068 -1.6940 -0.2921
  854SOL     OW 2560   2.462   1.411   1.787 -0.8514  0.1914 -0.0559
  854SOL    HW1 2561   2.499   1.394   1.691 -0.2221  0.0133  1.5218
  854SOL    HW2 2562   2.413   1.326   1.825 -0.7200  0.5129  0.7239
  855SOL     OW 2563   2.056   2.332   0.945 -0.5279 -0.0946  0.3465
  855SOL    HW1 2564   2.117   2.392   0.889  0.6316 -0.4476  2.4716
  855SOL    HW2 2565   2.086   2.337   1.043 -1.9846  1.5584 -1.5937
  856SOL     OW 2566   1.397   1.377   0.920  0.1622  0.1824  0.0191
  856SOL    HW1 2567   1.441   1.468   0.896 -0.3525  0.3687 -0.0652
  856SOL    HW2 2568   1.353   1.381   1.017 -2.0663 -2.7053  3.5952
  857SOL     OW 2569   2.978   2.624   1.079 -0.0192  0.6140 -0.3041
  857SOL    HW1 2570   2.896   2.561   1.075  0.5549  3.3022 -0.8528
  857SOL    HW2 2571   3.070   2.575   1.059 -0.0564  1.4527 -0.4995
  858SOL     OW 2572   2.317   2.171   1.690  0.2859  0.0574 -0.3035
  858SOL    HW1 2573   2.215   2.161   1.693 -0.5703 -4.0235 -0.1070
  858SOL    HW2 2574   2.363   2.087   1.649 -1.4927  0.1332 -1.0674
  859SOL     OW 2575   2.446   0.496   1.062 -0.0703 -0.1128  0.0451
  859SOL    HW1 2576   2.521   0.513   0.987  0.1363 -0.6798 -2.1731
  859SOL    HW2 2577   2.467   0.410   1.118  2.1331  3.5622 -2.1895
  860SOL     OW 2578   1.940   2.775   0.463  0.4468 -0.1171  0.1774
  860SOL    HW1 2579   1.881   2.739   0.384  0.9730  2.5366  1.1317
  860SOL    HW2 2580   2.015   2.827   0.419 -0.2645  1.3219  1.1197
  861SOL     OW 2581   1.108   2.593   2.766 -0.2616 -0.0365 -0.3617
  861SOL    HW1 2582   1.136   2.688   2.730 -3.0393 -2.0044  0.4130
  861SOL    HW2 2583   1.118   2.591   2.870 -0.8240 -0.0209 -1.0111
  862SOL     OW 2584   2.914   2.513   1.601  0.5201  0.4368 -0.6196
  862SOL    HW1 2585   2.954   2.545   1.690 -0.9478  1.9579  0.8828
  862SOL    HW2 2586   2.906   2.589   1.541 -1.7311 -3.3049  0.2678
  863SOL     OW 2587   1.871   2.631   0.207 -0.3388 -0.0368 -0.1581
  863SOL    HW1 2588   1.916   2.538   0.193  1.4559 -1.9431  0.5647
  863SOL    HW2 2589   1.776   2.611   0.242  2.7015 -2.1906  1.4783
  864SOL     OW 2590   1.858   1.175   2.920  0.6375  0.0800 -0.0481
  864SOL    HW1 2591   1.874   1.139   2.824 -1.9239  4.3076  0.4851
  864SOL    HW2 2592   1.946   1.173   2.979  1.2707 -2.3535  2.8390
  865SOL     OW 2593   2.200   1.800   0.690 -0.2939 -0.5163  0.1796
  865SOL    HW1 2594   2.259   1.786   0.777  0.2723 -0.1387  2.2460
  865SOL    HW2 2595   2.095   1.793   0.716 -3.7207 -1.9943 -2.9707
  866SOL     OW 2596   2.945   2.899   0.995  0.6672 -0.3504  0.5278
  866SOL    HW1 2597   3.011   2.936   0.923  1.6097  0.1999  2.4912
  866SOL    HW2 2598   2.968   2.800   1.026 -0.3529 -2.6382  1.8581
  867SOL     OW 2599   0.401   1.339   0.878  0.5667 -0.4002 -0.4818
  867SOL    HW1 2600   0.435   1.242   0.855  0.9345 -0.2400 -1.6900
  867SOL    HW2 2601   0.329   1.368   0.811 -0.6171 -0.6657 -0.9915
  868SOL     OW 2602   0.803   1.924   2.011  0.7506  0.0533 -0.1921
  868SOL    HW1 2603   0.801   1.909   2.113  2.1215 -0.7702 -0.7926
  868SOL    HW2 2604   0.763   2.023   1.984 -2.4569  2.4988  1.4893
  869SOL     OW 2605   2.480   1.951   1.586  0.0399  0.7549  0.0195
  869SOL    HW1 2606   2.576   1.991   1.573 -0.6090  1.1323  1.2365
  869SOL    HW2 2607   2.452   1.888   1.510  0.1975  3.2541 -0.2994
  870SOL     OW 2608   2.259   2.609   1.234 -0.3141  0.3569 -0.5009
  870SOL    HW1 2609   2.239   2.509   1.218  0.0848  0.6119 -1.1744
  870SOL    HW2 2610   2.309   2.621   1.322  3.5968 -0.1072  0.6584
  871SOL     OW 2611   2.991   2.081   0.568  0.1148 -0.3282  0.2474
  871SOL    HW1 2612   2.917   2.157   0.563 -0.0718  0.0817 -1.2682
  871SOL    HW2 2613   2.948   2.005   0.511  0.5323 -0.0424 -2.3899
  872SOL     OW 2614   2.143   0.488   1.697  0.3063  0.0371 -0.0317
  872SOL    HW1 2615   2.094   0.458   1.784 -1.8851  0.8232 -1.6746
  872SOL    HW2 2616   2.247   0.470   1.702  1.6984  1.7232  0.7238
  873SOL     OW 2617   1.716   2.082   2.959  0.1757 -0.1890  0.2198
  873SOL    HW1 2618   1.685   2.180   2.978  2.7517  0.5020 -0.0210
  873SOL    HW2 2619   1.658   2.041   2.883  0.4617  0.0920  0.5043
  874SOL     OW 2620   0.657   2.450   0.771  0.2059  0.1796 -0.3745
  874SOL    HW1 2621   0.640   2.546   0.803  3.5757 -0.8674 -0.9242
  874SOL    HW2 2622   0.756   2.420   0.793  2.2518 -2.7436  0.4625
  875SOL     OW 2623   2.255   1.535   1.457  0.0402  0.9941  0.5010
  875SOL    HW1 2624   2.359   1.538   1.469  2.3155  1.5531 -0.7978
  875SOL    HW2 2625   2.216   1.570   1.363 -0.5408  1.0269  2.1648
  876SOL     OW 2626   0.140   2.231   2.681  0.4172  0.2366  0.3990
  876SOL    HW1 2627   0.164   2.142   2.736  2.8597 -1.3608 -0.2010
  876SOL    HW2 2628   0.131   2.316   2.738 -1.4059 -0.3797 -2.9378
  877SOL     OW 2629   2.778   2.669   0.657 -0.5934 -0.2236  0.0660
  877SOL    HW1 2630   2.836   2.758   0.672  0.3731  0.3679  0.0899
  877SOL    HW2 2631   2.828   2.583   0.686 -0.9573  2.9703 -0.1709
  878SOL     OW 2632   2.872   1.475   2.246  0.1178 -0.9277  0.6830
  878SOL    HW1 2633   2.970   1.510   2.237  1.3955 -0.3970  1.6143
  878SOL    HW2 2634   2.832   1.505   2.336 -3.0727 -1.8363  0.2556
  879SOL     OW 2635   2.393   0.038   1.176 -0.0284 -0.2285  0.0169
  879SOL    HW1 2636   2.432  -0.054   1.194  0.3092  2.2385  2.1677
  879SOL    HW2 2637   2.307   0.037   1.119  1.3276  1.4703  0.4180
  880SOL     OW 2638   0.701   0.457   2.208  0.1447 -0.7650  0.0284
  880SOL    HW1 2639   0.628   0.401   2.250 -0.4377  0.3201 -1.3296
  880SOL    HW2 2640   0.735   0.419   2.121 -0.1741  0.9178 -2.0763
  881SOL     OW 2641   0.884   0.049   0.443 -0.2589 -0.0188 -0.5513
  881SOL    HW1 2642   0.930  -0.034   0.474 -0.3922  1.1853 -1.6880
  881SOL    HW2 2643   0.841   0.033   0.348  1.3322 -1.9595 -2.7556
  882SOL     OW 2644   2.694   1.617   1.686  0.4877 -0.0187 -0.0009
  882SOL    HW1 2645   2.787   1.585   1.656 -2.6157  0.3324  0.3946
  882SOL    HW2 2646   2.699   1.677   1.774 -0.2476  2.4944  1.2216
  883SOL     OW 2647   0.942   0.594   0.954  0.3823  0.3711  0.5035
  883SOL    HW1 2648   0.940   0.687   0.998  0.8166  1.6161  2.3971
  883SOL    HW2 2649   1.023   0.533   0.982  1.4140 -0.9830 -1.8473
  884SOL     OW 2650   1.183   1.830   1.075 -0.2320  0.1579 -0.1976
  884SOL    HW1 2651   1.172   1.808   0.977 -2.0939  1.8570 -2.7034
  884SOL    HW2 2652   1.137   1.921   1.090  1.5702  0.0004 -0.2354
  885SOL     OW 2653   2.314   1.849   2.289  0.1960  0.2215  0.2774
  885SOL    HW1 2654   2.250   1.798   2.354 -2.6781 -2.3822  1.3655
  885SOL    HW2 2655   2.297   1.951   2.292 -2.1676  0.6027  0.7269
  886SOL     OW 2656   2.651   0.468   1.773  0.5369  0.0878  0.1552
  886SOL    HW1 2657   2.701   0.407   1.840 -0.4973  0.6337 -1.7815
  886SOL    HW2 2658   2.716   0.535   1.733 -0.0386 -0.6493 -2.0287
  887SOL     OW 2659   0.127   2.056   1.232 -0.2779 -0.1656  0.6406
  887SOL    HW1 2660   0.053   2.030   1.160 -0.7429 -2.5165 -1.4350
  887SOL    HW2 2661   0.160   2.151   1.220  0.6628 -0.2561 -2.1520
  888SOL     OW 2662   0.552   1.328   1.554 -0.2207 -0.4568  0.0519
  888SOL    HW1 2663   0.599   1.340   1.466 -0.0810 -1.1154  2.5896
  888SOL    HW2 2664   0.483   1.250   1.554  0.7023 -0.8054  2.5323
  889SOL     OW 2665   0.829   2.479   2.154  0.2533 -0.0462 -0.0906
  889SOL    HW1 2666   0.770   2.390   2.149 -1.0679 -3.0908 -1.2807
  889SOL    HW2 2667   0.891   2.485   2.068  1.4156 -2.5688 -2.6405
  890SOL     OW 2668   2.358   2.466   0.198 -0.1083  0.3220  0.0870
  890SOL    HW1 2669   2.346   2.530   0.116  0.1405  1.1107 -1.3672
  890SOL    HW2 2670   2.321   2.507   0.287 -2.8496 -1.4253  0.7271
  891SOL     OW 2671   2.641   1.525   0.670 -0.0830 -0.1880 -0.3716
  891SOL    HW1 2672   2.653   1.509   0.770 -0.9042  1.3107  0.4348
  891SOL    HW2 2673   2.542   1.544   0.648 -2.5328  0.2834 -4.0104
  892SOL     OW 2674   0.275   0.230   2.198  0.0515  0.5773  0.2243
  892SOL    HW1 2675   0.274   0.249   2.093 -0.6645  2.7691  1.3181
  892SOL    HW2 2676   0.368   0.251   2.239  0.0993  1.0380  0.7457
  893SOL     OW 2677   1.656   0.235   2.772  0.7829 -0.4807 -0.1299
  893SOL    HW1 2678   1.736   0.302   2.769  0.9960  1.1708  0.3290
  893SOL    HW2 2679   1.568   0.284   2.741  0.7244  1.8332 -1.7110
  894SOL     OW 2680   2.250   2.017   0.038 -0.7512 -0.2247  0.5361
  894SOL    HW1 2681   2.224   1.928  -0.017  0.1463 -3.1475 -0.6797
  894SOL    HW2 2682   2.258   2.001   0.138  1.6475  3.0373  0.1215
  895SOL     OW 2683   2.854   1.432   0.860  0.1787 -0.3714 -0.3120
  895SOL    HW1 2684   2.891   1.381   0.943  1.7599 -1.3066  1.4910
  895SOL    HW2 2685   2.913   1.513   0.839 -1.1647 -0.7457  1.1457
  896SOL     OW 2686   1.766   1.786   1.157 -0.8519 -0.1415  0.3244
  896SOL    HW1 2687   1.833   1.827   1.090 -0.6096  0.2656  1.3835
  896SOL    HW2 2688   1.682   1.848   1.163 -3.7413 -1.2886 -1.3305
  897SOL     OW 2689   0.276   0.556   3.035  0.2418  0.2694  0.1525
  897SOL    HW1 2690   0.213   0.628   2.996 -0.4464 -1.8225 -0.6392
  897SOL    HW2 2691   0.354   0.608   3.072 -0.4264 -0.1039  0.0191
  898SOL     OW 2692   0.582   2.830   1.117 -0.7673  0.0064  0.1675
  898SOL    HW1 2693   0.527   2.914   1.147 -0.7993  0.9335  2.9565
  898SOL    HW2 2694   0.682   2.829   1.153  0.7884  1.0052  0.0654
  899SOL     OW 2695   2.739   0.936   1.236 -0.1584  0.4776 -0.2173
  899SOL    HW1 2696   2.654   0.938   1.174 -0.1742  0.5469  3.2211
  899SOL    HW2 2697   2.826   0.954   1.182 -0.2060  0.5698  2.0664
  900SOL     OW 2698   0.982   2.561   2.379  0.3699 -0.9062  0.7045
  900SOL    HW1 2699   0.933   2.519   2.302  0.3399  0.7467  0.4049
  900SOL    HW2 2700   0.940   2.535   2.471 -2.1643  2.0757 -1.3668
  901SOL     OW 2701   1.905   2.392   1.377  0.5399  0.4987 -0.2939
  901SOL    HW1 2702   1.890   2.423   1.280  2.6019  1.3076 -1.9807
  901SOL    HW2 2703   2.001   2.377   1.409  2.2252 -0.0148  0.3298
  902SOL     OW 2704   2.592   1.648   1.425  0.0095 -0.0628  0.0622
  902SOL    HW1 2705   2.613   1.651   1.526  0.4435  0.3658  0.6858
  902SOL    HW2 2706   2.669   1.616   1.364 -1.9507  0.7546  1.0438
  903SOL     OW 2707   0.248   2.463   1.999 -0.0679 -0.2226  0.0884
  903SOL    HW1 2708   0.188   2.387   1.961  1.1747 -2.2023  0.8786
  903SOL    HW2 2709   0.257   2.541   1.933 -0.0977 -0.7442  3.3024
  904SOL     OW 2710   2.002   0.734   2.385 -0.5797  0.3728  0.5642
  904SOL    HW1 2711   1.923   0.700   2.445 -0.4674  1.8787 -0.2221
  904SOL    HW2 2712   1.971   0.750   2.289  0.8887 -0.2975  0.6316
  905SOL     OW 2713   2.813   0.079   2.584 -0.2769 -0.0863  0.0679
  905SOL    HW1 2714   2.889   0.018   2.621  0.4743 -0.0234 -0.2040
  905SOL    HW2 2715   2.845   0.168   2.535 -0.1033  1.1369 -1.5515
  906SOL     OW 2716   0.158   1.762   1.859  0.5606  0.3126 -0.3374
  906SOL    HW1 2717   0.113   1.767   1.762 -1.8277  1.4814 -1.0734
  906SOL    HW2 2718   0.249   1.811   1.857 -0.5369  1.7777 -1.9988
  907SOL     OW 2719   0.159   2.482   1.005  0.6303  0.5169 -0.2433
  907SOL    HW1 2720   0.231   2.552   1.020 -0.8497 -0.6634  0.7696
  907SOL    HW2 2721   0.127   2.474   0.909  0.6472 -4.0345  1.7709
  908SOL     OW 2722   2.705   2.967   0.451 -0.3722  0.2044 -0.2351
  908SOL    HW1 2723   2.654   3.032   0.384 -0.2195  3.0230  2.2111
  908SOL    HW2 2724   2.715   2.873   0.408  0.5169 -1.5367 -0.1370
  909SOL     OW 2725   0.797   0.943   2.691  0.7777 -0.7110 -0.3598
  909SOL    HW1 2726   0.768   0.852   2.652 -0.0279  0.3175 -0.6431
  909SOL    HW2 2727   0.846   0.997   2.618 -1.0749  0.6407 -1.2927
  910SOL     OW 2728   1.771   1.832   2.084  0.2867  0.0184 -0.6063
  910SOL    HW1 2729   1.836   1.861   2.004  1.4302  0.8095 -0.3831
  910SOL    HW2 2730   1.683   1.892   2.095 -0.9449 -0.6209 -0.8361
  911SOL     OW 2731   1.788   2.972   1.616 -0.2576  0.5227 -0.4085
  911SOL    HW1 2732   1.876   2.953   1.571 -0.0174  1.0613  1.4970
  911SOL    HW2 2733   1.766   2.907   1.694  0.7964 -0.8942 -1.5361
  912SOL     OW 2734   2.882   0.969   0.777 -0.2675 -0.1392  0.1552
  912SOL    HW1 2735   2.879   0.946   0.877 -0.7387  1.0072 -0.2812
  912SOL    HW2 2736   2.847   1.065   0.752  0.1278 -0.3021  0.1518
  913SOL     OW 2737   2.566   1.270   1.565 -0.1565  0.2380 -0.1057
  913SOL    HW1 2738   2.546   1.168   1.549 -0.2352 -2.4674  1.8250
  913SOL    HW2 2739   2.632   1.305   1.496 -1.2333 -0.9526  1.9552
  914SOL     OW 2740   2.800   0.523   1.208  0.1106  0.0594  0.5608
  914SOL    HW1 2741   2.777   0.428   1.239 -2.8854 -0.3651  1.4150
  914SOL    HW2 2742   2.759   0.592   1.268  2.5591 -1.5221  2.7625
  915SOL     OW 2743   1.240   0.809   0.996 -0.7351  0.6301 -0.0679
  915SOL    HW1 2744   1.293   0.857   1.069 -1.3796 -2.4228 -0.5810
  915SOL    HW2 2745   1.139   0.803   1.025  0.0311  1.7320 -0.4176
  916SOL     OW 2746   0.601   0.012   0.675 -0.0321 -0.3378 -0.0764
  916SOL    HW1 2747   0.618   0.082   0.749 -1.3562 -0.4557 -1.4650
  916SOL    HW2 2748   0.627   0.045   0.582 -0.2411  1.4196  1.2125
  917SOL     OW 2749   2.813   2.597   1.993  0.3064 -0.0114  0.2304
  917SOL    HW1 2750   2.718   2.621   1.966 -2.2845 -1.1051 -0.7844
  917SOL    HW2 2751   2.885   2.664   1.957 -0.1189  2.1489  0.6816
  918SOL     OW 2752   1.025   2.219   3.011 -0.3614  0.1132  0.3149
  918SOL    HW1 2753   0.975   2.224   3.102 -2.9982 -1.7547 -0.4645
  918SOL    HW2 2754   1.077   2.131   3.009 -0.8978  0.7545  1.2567
  919SOL     OW 2755   0.909   1.603   2.811 -0.1517 -0.4160 -0.0582
  919SOL    HW1 2756   0.956   1.666   2.743  2.8838  0.2473  1.9886
  919SOL    HW2 2757   0.845   1.537   2.767  2.8895 -0.4137 -2.5940
  920SOL     OW 2758   1.278   1.990   2.486 -0.4527  0.2845  0.2982
  920SOL    HW1 2759   1.248   1.964   2.389  3.1083  0.2562  0.5976
  920SOL    HW2 2760   1.312   1.909   2.539 -0.0704  4.0130  0.5583
  921SOL     OW 2761   1.101   0.062   2.582  0.0618 -0.1255 -0.7849
  921SOL    HW1 2762   1.088   0.068   2.481 -0.2406 -2.8601  2.2188
  921SOL    HW2 2763   1.028   0.001   2.628 -3.4514  3.3121  0.3477
  922SOL     OW 2764   2.142   2.386   2.870  0.1599 -0.4916 -0.9598
  922SOL    HW1 2765   2.172   2.288   2.856  1.0124 -1.2818 -2.3342
  922SOL    HW2 2766   2.081   2.413   2.794 -2.3324  0.8099 -0.2828
  923SOL     OW 2767   1.251   2.689   0.259  0.2290 -0.1761  0.0054
  923SOL    HW1 2768   1.337   2.738   0.293  1.1833  2.6662 -1.4094
  923SOL    HW2 2769   1.263   2.587   0.256  0.6165  1.3320 -1.2813
  924SOL     OW 2770   2.884   1.568   0.092  0.5171 -0.0414  0.0047
  924SOL    HW1 2771   2.803   1.550   0.034  1.1996  1.7204 -0.7012
  924SOL    HW2 2772   2.974   1.545   0.046  2.6950  1.5079  0.5493
  925SOL     OW 2773   3.096   2.916   1.543 -0.0099  0.1150  1.0886
  925SOL    HW1 2774   3.001   2.936   1.580  1.9196  1.3030  0.4001
  925SOL    HW2 2775   3.103   2.832   1.479  0.5243 -1.8800  2.2184
  926SOL     OW 2776   1.344   2.839   1.309 -0.1947  0.5355  0.5119
  926SOL    HW1 2777   1.399   2.832   1.219 -0.2116  0.9478 -1.8808
  926SOL    HW2 2778   1.370   2.928   1.356 -0.0879  1.3533 -0.1266
  927SOL     OW 2779   0.282   2.637   1.797 -0.0133 -0.3811 -0.0677
  927SOL    HW1 2780   0.270   2.577   1.710 -1.1735  0.4017 -0.2508
  927SOL    HW2 2781   0.248   2.735   1.786  0.8038  0.6636 -2.2308
  928SOL     OW 2782   1.569   2.025   2.141  0.2549 -0.5506 -0.4275
  928SOL    HW1 2783   1.626   2.117   2.126 -1.7803  1.2653  1.6093
  928SOL    HW2 2784   1.464   2.034   2.129 -1.9897  1.5774 -0.7891
  929SOL     OW 2785   2.416   2.485   2.861 -0.3396  0.0235  0.1404
  929SOL    HW1 2786   2.323   2.452   2.876 -0.5248  2.5817  0.2190
  929SOL    HW2 2787   2.453   2.474   2.762  1.3253 -1.5912 -2.7911
  930SOL     OW 2788   2.168   2.008   1.060 -0.0616  0.5859  0.1020
  930SOL    HW1 2789   2.145   1.979   1.158  0.7775 -1.1944 -2.1733
  930SOL    HW2 2790   2.239   2.085   1.062  0.1337  0.5015 -2.1259
  931SOL     OW 2791   0.540   1.710   2.678 -0.1934  0.0083 -0.5564
  931SOL    HW1 2792   0.588   1.708   2.772 -0.4279 -0.6777 -3.1005
  931SOL    HW2 2793   0.546   1.617   2.634  1.5876  3.0396  0.7781
  932SOL     OW 2794   0.457   0.044   2.917  0.3351  0.0852  0.1567
  932SOL    HW1 2795   0.556   0.076   2.906  2.6452  1.8747 -1.2970
  932SOL    HW2 2796   0.440  -0.046   2.972 -1.4301  0.2415 -0.2210
  933SOL     OW 2797   1.067   0.761   2.998 -0.0692  0.3655  0.0744
  933SOL    HW1 2798   1.138   0.797   3.063  1.1111 -2.5809  0.3653
  933SOL    HW2 2799   1.001   0.840   2.976  2.4575  3.9568  0.4710
  934SOL     OW 2800   0.889   3.015   2.708 -0.0305  0.4651  0.2904
  934SOL    HW1 2801   0.898   2.935   2.645  0.5053 -2.6623  3.0890
  934SOL    HW2 2802   0.900   2.987   2.806 -1.6506  1.0068 -0.9722
  935SOL     OW 2803   3.095   0.544   0.798 -0.5646 -0.4498 -0.2808
  935SOL    HW1 2804   3.086   0.457   0.737 -0.0986 -0.9884 -1.8725
  935SOL    HW2 2805   3.002   0.583   0.815  2.6282 -0.5522 -0.8407
  936SOL     OW 2806   1.117   2.912   0.143  0.1608  0.0438 -0.2659
  936SOL    HW1 2807   1.166   2.959   0.067 -2.2280 -0.4036  1.7698
  936SOL    HW2 2808   1.161   2.829   0.183  1.0448 -0.2374  0.8634
  937SOL     OW 2809   1.914   2.636   2.105 -0.1284 -0.5863  0.1346
  937SOL    HW1 2810   1.829   2.661   2.158 -3.8256 -0.5013 -2.3043
  937SOL    HW2 2811   1.907   2.662   2.004 -1.5859  0.4887  1.8578
  938SOL     OW 2812   2.718   2.086   1.579 -0.1363  0.1407  0.2273
  938SOL    HW1 2813   2.714   2.184   1.612  0.2703  2.3964 -0.1736
  938SOL    HW2 2814   2.809   2.043   1.601 -0.2034 -1.8806  0.1368
  939SOL     OW 2815   2.857   1.243   2.468 -0.3100  0.4650  0.2455
  939SOL    HW1 2816   2.910   1.198   2.392 -1.9456  1.1535 -0.4716
  939SOL    HW2 2817   2.846   1.192   2.557 -0.3130  1.1443 -0.2588
  940SOL     OW 2818   0.989   0.452   2.687 -0.1651  0.0962 -0.4625
  940SOL    HW1 2819   1.062   0.380   2.710 -1.8526  0.3037 -2.1097
  940SOL    HW2 2820   0.891   0.425   2.667  2.3026 -1.2448 -0.3424
  941SOL     OW 2821   0.047   2.862   2.199 -0.2863  0.1656  0.0343
  941SOL    HW1 2822   0.052   2.767   2.216  1.7561  2.2919  0.0433
  941SOL    HW2 2823   0.073   2.909   2.287 -0.5990  0.8957 -0.3067
  942SOL     OW 2824   0.042   0.132   2.543  0.1369  0.1941  0.4215
  942SOL    HW1 2825   0.128   0.120   2.599  0.1871 -1.4742  0.6813
  942SOL    HW2 2826   0.056   0.184   2.452 -1.0841 -0.6581  0.2846
  943SOL     OW 2827   2.121   1.660   2.422 -0.3492  0.7521  0.7157
  943SOL    HW1 2828   2.112   1.581   2.358 -1.3224 -1.3675  3.6834
  943SOL    HW2 2829   2.094   1.632   2.514  0.2541  1.1858 -2.8428
  944SOL     OW 2830   2.178   2.323   1.466  0.1615  0.2799  0.1860
  944SOL    HW1 2831   2.260   2.370   1.505 -0.2517 -2.2640 -0.0149
  944SOL    HW2 2832   2.125   2.265   1.536  1.9880  0.5151  1.1856
  945SOL     OW 2833   0.639   1.493   0.361 -0.4551 -0.5538  0.0061
  945SOL    HW1 2834   0.678   1.574   0.312 -2.5379 -1.7073  0.7762
  945SOL    HW2 2835   0.661   1.399   0.319 -0.5834 -0.0791  3.5502
  946SOL     OW 2836   0.440   0.934   2.533  0.1938 -0.4487 -0.5159
  946SOL    HW1 2837   0.349   0.915   2.487  1.0090  0.5226 -0.2299
  946SOL    HW2 2838   0.448   1.021   2.598 -0.1826  2.1943 -0.9665
  947SOL     OW 2839   1.542   0.574   0.049  0.1015  0.3289 -0.4326
  947SOL    HW1 2840   1.523   0.581  -0.052 -3.0604  2.3852 -1.5937
  947SOL    HW2 2841   1.450   0.578   0.099  5.0433 -2.9577  1.1903
  948SOL     OW 2842   2.038   3.065   2.191  0.6506  0.4318  0.3403
  948SOL    HW1 2843   2.023   3.030   2.094 -0.4983 -0.6883 -0.6657
  948SOL    HW2 2844   1.982   3.002   2.257  1.2637  0.7267  0.6991
  949SOL     OW 2845   0.674   2.529   0.500  0.6377  0.4373 -0.4016
  949SOL    HW1 2846   0.627   2.622   0.500  0.1026  2.4984  1.7420
  949SOL    HW2 2847   0.681   2.501   0.601 -1.1590  0.0445  2.2252
  950SOL     OW 2848   0.228   2.140   3.046  0.4644  0.1825 -0.0759
  950SOL    HW1 2849   0.150   2.209   3.052 -1.0145 -1.2664 -2.8582
  950SOL    HW2 2850   0.214   2.073   2.970 -1.7782 -0.0705  2.0139
  951SOL     OW 2851   1.196   2.861   2.693  0.0854  0.0407  0.5964
  951SOL    HW1 2852   1.166   2.949   2.640 -1.7207  0.9935 -2.2203
  951SOL    HW2 2853   1.296   2.868   2.724  0.1386 -0.0153 -0.1415
  952SOL     OW 2854   0.103   1.642   0.436 -0.3925  0.1456 -0.0786
  952SOL    HW1 2855   0.186   1.703   0.462 -0.2005  0.0456  0.6586
  952SOL    HW2 2856   0.099   1.572   0.508 -0.7223  1.4334 -1.1012
  953SOL     OW 2857   2.498   1.778   0.165  0.6238 -0.0712 -0.3667
  953SOL    HW1 2858   2.519   1.674   0.163  1.7883  1.0912  0.0824
  953SOL    HW2 2859   2.533   1.833   0.088 -2.0855  0.3801  0.2214
  954SOL     OW 2860   2.176   0.527   0.992  0.0674 -0.0976  0.1589
  954SOL    HW1 2861   2.163   0.548   0.888  0.9520  0.9492 -0.4211
  954SOL    HW2 2862   2.277   0.522   1.014 -1.1744  0.5086 -0.0996
  955SOL     OW 2863   0.252   2.667   1.381  0.1048  0.4568  0.2173
  955SOL    HW1 2864   0.152   2.694   1.379  1.5411  1.1306  2.3492
  955SOL    HW2 2865   0.296   2.665   1.283 -1.5606  0.9081 -2.0472
  956SOL     OW 2866   2.767   2.429   2.438 -0.4100  0.3123  0.5416
  956SOL    HW1 2867   2.764   2.337   2.392  0.7652 -2.9871 -2.0514
  956SOL    HW2 2868   2.828   2.499   2.388 -0.9346 -1.2465  0.9005
  957SOL     OW 2869   1.543   2.035   2.755  0.1871 -0.2345 -0.0843
  957SOL    HW1 2870   1.520   1.939   2.759  1.1031  1.6870 -0.9636
  957SOL    HW2 2871   1.503   2.082   2.674 -1.5882 -1.5328  0.4600
  958SOL     OW 2872   2.728   2.312   2.951  0.0122  0.1636  0.3766
  958SOL    HW1 2873   2.640   2.361   2.939  1.6562 -0.8623 -0.8155
  958SOL    HW2 2874   2.736   2.271   3.044  2.1814  0.2047 -1.0514
  959SOL     OW 2875   0.247   2.750   0.125 -0.2175 -0.0810  0.2399
  959SOL    HW1 2876   0.150   2.780   0.099 -0.0191  0.9617 -0.7556
  959SOL    HW2 2877   0.257   2.656   0.160 -0.3784 -2.2258  0.7531
  960SOL     OW 2878   1.991   0.416   1.932 -0.1885  0.0873  0.3707
  960SOL    HW1 2879   1.948   0.510   1.906 -0.8696 -0.8965 -0.5044
  960SOL    HW2 2880   1.981   0.402   2.032  0.6805 -0.7929 -0.6121
  961SOL     OW 2881   2.545   1.829   1.039  0.1565 -0.0900  0.4156
  961SOL    HW1 2882   2.548   1.912   0.978  0.9100 -0.6383 -0.3443
  961SOL    HW2 2883   2.530   1.843   1.141  1.6981 -0.2713 -0.9191
  962SOL     OW 2884   1.253   0.907   0.036  0.1339  0.0640 -0.4845
  962SOL    HW1 2885   1.271   0.977  -0.038 -0.7972  0.0976  1.4842
  962SOL    HW2 2886   1.266   0.949   0.130 -0.3936 -0.7990 -0.3454
  963SOL     OW 2887   2.197   2.557   1.838  0.0407 -0.0320  0.1040
  963SOL    HW1 2888   2.170   2.473   1.897 -1.3143 -2.4966 -0.1742
  963SOL    HW2 2889   2.238   2.632   1.896  2.8192  0.2593  0.8754
  964SOL     OW 2890   2.402   0.414   1.683 -0.2049  0.6869  0.3263
  964SOL    HW1 2891   2.501   0.436   1.717 -1.0275  0.2041  2.1084
  964SOL    HW2 2892   2.403   0.415   1.575  0.9645 -1.9040 -1.9380
  965SOL     OW 2893   2.596   3.082   0.221  0.3918 -0.4917  0.1237
  965SOL    HW1 2894   2.649   3.061   0.140 -2.9257  0.4968  1.6116
  965SOL    HW2 2895   2.496   3.052   0.206  2.0333 -0.4680 -1.4252
  966SOL     OW 2896   2.470   2.459   2.269  0.1309 -0.2424  0.8420
  966SOL    HW1 2897   2.385   2.416   2.300  0.7442 -0.4154 -0.7668
  966SOL    HW2 2898   2.465   2.563   2.269 -1.1342  1.3000  0.9028
  967SOL     OW 2899   2.805   2.795   2.431 -0.1563 -0.2652  0.5066
  967SOL    HW1 2900   2.867   2.727   2.383  2.0518 -0.3714  0.2367
  967SOL    HW2 2901   2.859   2.875   2.471  1.4917 -1.3395 -1.8338
  968SOL     OW 2902   1.920   1.091   2.675 -0.2632 -0.3817  0.0556
  968SOL    HW1 2903   1.859   1.157   2.620 -1.3150 -0.7461  1.5766
  968SOL    HW2 2904   1.915   0.990   2.639  0.2095  1.9276 -0.8261
  969SOL     OW 2905   2.744   2.460   1.079 -0.4296  0.1480  0.2858
  969SOL    HW1 2906   2.692   2.425   0.997  0.9062 -2.3559 -0.4096
  969SOL    HW2 2907   2.772   2.378   1.140 -0.8411 -0.8814  0.9666
  970SOL     OW 2908   1.050   2.139   1.795 -0.5717  0.0558 -0.3262
  970SOL    HW1 2909   0.955   2.129   1.756  0.0121  1.4450  2.2840
  970SOL    HW2 2910   1.045   2.185   1.889  1.3043 -0.5582  1.2851
  971SOL     OW 2911   2.810   2.094   1.868 -0.2302  0.1115  0.2247
  971SOL    HW1 2912   2.831   2.186   1.910 -0.5140 -0.2775 -1.9922
  971SOL    HW2 2913   2.868   2.067   1.785  0.1811  0.2753  2.8681
  972SOL     OW 2914   1.990   2.373   0.207  0.7259 -0.7816  0.0069
  972SOL    HW1 2915   1.979   2.290   0.143  2.8844 -1.7901 -2.2015
  972SOL    HW2 2916   2.014   2.356   0.305  1.6797 -1.9542  0.5782
  973SOL     OW 2917   1.326   1.066   1.937  0.3552 -0.1083  0.6349
  973SOL    HW1 2918   1.252   1.038   1.874  0.6642  0.0174 -1.5552
  973SOL    HW2 2919   1.309   1.163   1.970  0.9834  1.1882  0.5505
  974SOL     OW 2920   1.614   0.581   1.979 -0.4583  0.1170  0.5501
  974SOL    HW1 2921   1.712   0.612   1.975  1.1233 -2.6181 -0.1066
  974SOL    HW2 2922   1.547   0.651   1.940  0.4303  2.4596 -2.0681
  975SOL     OW 2923   2.365   3.012   0.035 -0.2306  0.0901  0.0347
  975SOL    HW1 2924   2.300   2.940   0.058  0.2644  0.4590  0.6027
  975SOL    HW2 2925   2.414   2.989  -0.056  1.2596 -0.0647  1.3739
  976SOL     OW 2926   1.934   2.903   2.366  0.1094  0.1416 -0.0048
  976SOL    HW1 2927   1.870   2.834   2.317  0.5067  0.2618  1.7771
  976SOL    HW2 2928   1.953   2.864   2.460  1.6765 -3.3350 -0.8970
  977SOL     OW 2929   0.448   0.659   1.023  0.1504 -0.7397 -0.0848
  977SOL    HW1 2930   0.378   0.671   0.945 -2.0311  3.2000 -0.4781
  977SOL    HW2 2931   0.537   0.619   0.997 -1.1357  1.8270 -0.2816
   3.10000   3.10000   3.10000
