1000 SPC/Fw water molecules t=   0.18000 step= 180
 2931
    1SOL     OW    1   2.531   0.332   2.554  0.1538  0.2055 -0.6905
    1SOL    HW1    2   2.551   0.233   2.534 -1.9244 -0.6936  1.4972
    1SOL    HW2    3   2.583   0.374   2.632 -0.3426 -1.1068  2.8588
    2SOL     OW    4   2.715   3.018   1.418 -0.0053  0.3789 -0.2051
    2SOL    HW1    5   2.777   3.078   1.362  3.0979 -1.3875 -0.8912
    2SOL    HW2    6   2.649   3.071   1.483 -1.8627  0.1584 -0.4674
    3SOL     OW    7   2.738   2.581   0.406  0.5108  0.5029 -0.5248
    3SOL    HW1    8   2.715   2.479   0.406 -0.4067  1.2579 -3.6881
    3SOL    HW2    9   2.820   2.589   0.467 -0.8460 -0.3580 -0.6122
    4SOL     OW   10   1.336   1.463   2.338  0.3372  0.1893  0.6299
    4SOL    HW1   11   1.257   1.521   2.370  0.1142 -0.6714  1.2891
    4SOL    HW2   12   1.344   1.372   2.386  0.0434  2.0290 -0.8424
    5SOL     OW   13   1.187   1.496   3.066  0.1304  0.0934  0.0798
    5SOL    HW1   14   1.256   1.567   3.094 -0.5753 -2.2145 -2.1473
    5SOL    HW2   15   1.091   1.525   3.092  1.4048  2.8663 -0.4200
    6SOL     OW   16   0.104   1.864   2.939 -0.7395 -0.6110  0.1137
    6SOL    HW1   17   0.100   1.903   3.039  0.2551 -0.1501  0.3997
    6SOL    HW2   18   0.066   1.767   2.934 -0.9760  1.5040 -2.1528
    7SOL     OW   19   2.599   0.810   1.160 -0.0830 -0.3186 -0.3598
    7SOL    HW1   20   2.519   0.761   1.208 -1.2824  1.9005  2.9836
    7SOL    HW2   21   2.599   0.800   1.052 -0.3726  0.5925 -1.5865
    8SOL     OW   22   0.461   0.678   1.535 -0.2830 -0.4440 -0.1032
    8SOL    HW1   23   0.521   0.599   1.565  0.8925  4.8550 -1.1114
    8SOL    HW2   24   0.413   0.663   1.443  0.2852  0.4407 -0.6500
    9SOL     OW   25   1.187   0.925   2.270 -0.4522  0.4476  0.0529
    9SOL    HW1   26   1.237   1.006   2.223  1.5604  1.4435 -1.6725
    9SOL    HW2   27   1.095   0.908   2.227  3.9170 -2.8339  0.2159
   10SOL     OW   28   0.643   1.345   1.261 -0.2642 -0.0002 -0.5832
   10SOL    HW1   29   0.554   1.358   1.210  1.5529  1.2687  0.8281
   10SOL    HW2   30   0.704   1.434   1.250  0.4409 -0.0398 -0.6673
   11SOL     OW   31   2.311   2.579   0.934  0.5770  0.0737  0.3526
   11SOL    HW1   32   2.334   2.630   1.026  1.1247  1.6163  0.8838
   11SOL    HW2   33   2.351   2.488   0.933 -1.6468  1.2201 -1.9534
   12SOL     OW   34   1.464   0.906   0.482  0.5347  0.1969  0.0705
   12SOL    HW1   35   1.372   0.950   0.465  0.2246  0.1110 -0.7406
   12SOL    HW2   36   1.475   0.808   0.453  1.5757 -1.8642  1.7425
   13SOL     OW   37   2.475   0.653   1.805  0.0776 -0.2920  0.2288
   13SOL    HW1   38   2.387   0.679   1.851  0.9093  0.5425  0.1490
   13SOL    HW2   39   2.465   0.592   1.721  0.8083 -1.1953 -0.4658
   14SOL     OW   40   1.862   3.074   0.568  0.4679  0.0200  0.7587
   14SOL    HW1   41   1.771   3.124   0.549  0.8707 -0.0677  2.7422
   14SOL    HW2   42   1.866   3.032   0.663  1.0344 -1.0464 -1.8209
   15SOL     OW   43   1.957   2.052   2.841 -0.1711 -0.6512  0.3523
   15SOL    HW1   44   1.891   2.127   2.869 -0.7754 -0.2013  1.5126
   15SOL    HW2   45   1.931   1.998   2.754 -0.2447 -1.2354  0.3189
   16SOL     OW   46   1.581   1.712   0.068  0.6208 -0.0810 -0.1350
   16SOL    HW1   47   1.584   1.616   0.032 -0.3236  0.5588 -0.2203
   16SOL    HW2   48   1.641   1.724   0.152 -2.1743 -1.3588  0.8546
   17SOL     OW   49   0.134   0.418   0.170  0.0304  0.5663 -0.1147
   17SOL    HW1   50   0.192   0.464   0.097  0.2034 -1.5250 -2.2261
   17SOL    HW2   51   0.033   0.396   0.149 -0.6964  0.0139  0.6716
   18SOL     OW   52   1.109   2.867   2.143  0.0168  0.0145  0.1970
   18SOL    HW1   53   1.042   2.934   2.092 -1.5364 -1.4130 -0.2981
   18SOL    HW2   54   1.184   2.830   2.081  1.0184 -0.2826 -1.7136
   19SOL     OW   55   0.515   1.006   1.930 -0.6147 -0.4003 -0.0632
   19SOL    HW1   56   0.475   1.035   2.018  0.6535 -0.7336 -0.1821
   19SOL    HW2   57   0.615   0.988   1.942 -0.0177 -0.4057 -1.6333
   20SOL     OW   58   0.260   2.755   0.870 -0.6047 -0.2185  0.2129
   20SOL    HW1   59   0.181   2.810   0.841  1.9668  1.1211  0.1596
   20SOL    HW2   60   0.312   2.723   0.785  0.1661  2.0769  2.4444
   21SOL     OW   61   2.793   0.226   2.154  0.0818 -0.9529 -0.0292
   21SOL    HW1   62   2.842   0.161   2.094 -0.2636  3.1866 -0.0865
   21SOL    HW2   63   2.737   0.178   2.223  0.4765 -0.4959 -1.7030
   22SOL     OW   64   2.380   0.206   0.013  0.1492 -0.1579 -0.0388
   22SOL    HW1   65   2.411   0.106   0.011  1.5783 -0.9825  0.6450
   22SOL    HW2   66   2.275   0.213   0.011 -4.0184  1.2973  0.9411
   23SOL     OW   67   2.780   0.662   0.710  0.1479 -0.3181 -0.3413
   23SOL    HW1   68   2.779   0.573   0.654  2.0532  1.2053 -0.2028
   23SOL    HW2   69   2.802   0.739   0.642  0.1038  1.8813  0.3899
   24SOL     OW   70   0.173   1.893   0.477  0.2401 -0.1839  0.7534
   24SOL    HW1   71   0.077   1.904   0.437  2.5005  1.5371 -2.1424
   24SOL    HW2   72   0.243   1.911   0.401 -1.5381  1.1297 -1.0092
   25SOL     OW   73   2.253   0.520   0.191  0.0645  0.0179 -0.2364
   25SOL    HW1   74   2.340   0.477   0.215 -4.6789  0.8079  3.9129
   25SOL    HW2   75   2.227   0.513   0.089  2.0116  1.8686  3.3838
   26SOL     OW   76   2.547   2.185   2.086 -0.3274  0.0073  0.0795
   26SOL    HW1   77   2.620   2.234   2.142 -0.1969 -0.1802 -0.2113
   26SOL    HW2   78   2.589   2.138   2.005 -2.3765 -0.7600 -1.6167
   27SOL     OW   79   0.677   2.979   0.101  0.2733  0.2660  0.5726
   27SOL    HW1   80   0.772   3.020   0.084 -0.2488  0.6927  1.1744
   27SOL    HW2   81   0.629   2.972   0.008  0.6796  0.2048 -2.1679
   28SOL     OW   82   1.496   0.226   0.207  0.3629 -0.0586  0.4715
   28SOL    HW1   83   1.557   0.195   0.127 -2.1554  0.3546  1.9593
   28SOL    HW2   84   1.540   0.306   0.261  2.9731  1.7474  0.9772
   29SOL     OW   85   2.007   0.618   0.241  0.0487  0.3986 -0.3886
   29SOL    HW1   86   2.019   0.710   0.285 -0.2885  0.8096 -0.6622
   29SOL    HW2   87   2.099   0.576   0.210  2.2202  1.3379 -2.7897
   30SOL     OW   88   0.193   2.041   0.943 -0.6922  0.7446 -0.1090
   30SOL    HW1   89   0.194   2.050   0.842  1.2620  0.4368  3.7089
   30SOL    HW2   90   0.123   2.103   0.984  1.0861 -1.4670 -0.7137
   31SOL     OW   91   2.025   0.048   2.325  0.0818  0.0969 -0.3256
   31SOL    HW1   92   2.074   0.020   2.413 -1.8825  0.1749 -1.2085
   31SOL    HW2   93   1.977  -0.036   2.287 -0.5567  1.0337  1.1292
   32SOL     OW   94   2.967   0.106   0.209 -0.2813  0.0535 -1.0075
   32SOL    HW1   95   2.911   0.039   0.263  1.3622 -1.0735 -0.3469
   32SOL    HW2   96   3.068   0.093   0.214 -2.4253  3.5531  1.5620
   33SOL     OW   97   0.975   0.320   0.423  0.0059  0.0306 -0.1495
   33SOL    HW1   98   0.932   0.228   0.423 -0.6864  0.1488  0.9579
   33SOL    HW2   99   1.046   0.338   0.504  0.6183 -4.2563 -0.2308
   34SOL     OW  100   0.411   2.920   1.063 -0.1181  0.1421 -0.0567
   34SOL    HW1  101   0.364   2.861   0.991  1.1534  0.5605  1.6047
   34SOL    HW2  102   0.513   2.897   1.083  0.6862  2.0340 -2.1162
   35SOL     OW  103   0.068   3.101   1.803  0.4960  0.4561  0.2083
   35SOL    HW1  104   0.093   2.999   1.800  0.8942 -3.3769  0.5107
   35SOL    HW2  105   0.004   3.126   1.727 -3.0626  1.5476  0.3844
   36SOL     OW  106   1.901   1.166   1.831 -0.0243  0.3161  0.3318
   36SOL    HW1  107   1.964   1.118   1.761  3.2946 -0.7614 -2.0011
   36SOL    HW2  108   1.912   1.269   1.841  1.2189  0.7839  1.1126
   37SOL     OW  109   1.130   0.317   0.984  0.0376 -0.3819 -0.5169
   37SOL    HW1  110   1.177   0.403   1.019 -1.2542 -0.3246  1.0352
   37SOL    HW2  111   1.159   0.233   1.033 -2.5810  0.5309 -1.0298
   38SOL     OW  112   1.141   2.689   2.401 -0.3627  0.1353  0.0354
   38SOL    HW1  113   1.079   2.612   2.433 -0.5029 -1.4916  1.5619
   38SOL    HW2  114   1.093   2.768   2.353  3.5664 -1.1400  1.9277
   39SOL     OW  115   2.354   1.459   3.051 -0.2141 -0.6068 -0.0811
   39SOL    HW1  116   2.416   1.379   3.040  0.9086  0.8884 -1.1337
   39SOL    HW2  117   2.292   1.450   3.127  0.7982 -2.4778 -1.4480
   40SOL     OW  118   2.073   2.530   2.547 -0.3071 -0.3983 -0.2781
   40SOL    HW1  119   2.047   2.614   2.596 -1.6606  1.5427 -1.0207
   40SOL    HW2  120   1.999   2.480   2.496 -1.5502 -2.0879 -0.7941
   41SOL     OW  121   2.912   0.672   2.761  0.2980 -0.0715  0.1026
   41SOL    HW1  122   2.833   0.723   2.723  3.2801 -0.9475 -1.1066
   41SOL    HW2  123   2.905   0.573   2.734 -1.6672  2.4961  0.3814
   42SOL     OW  124   1.762   1.749   0.583  0.9112 -0.0538  0.1369
   42SOL    HW1  125   1.722   1.656   0.573  3.4185  1.7910  0.9391
   42SOL    HW2  126   1.777   1.801   0.494  0.3007 -0.6010 -0.2918
   43SOL     OW  127   0.444   1.740   1.201 -0.1127  0.2502 -0.5837
   43SOL    HW1  128   0.435   1.664   1.269 -2.3075 -0.2786 -0.4736
   43SOL    HW2  129   0.357   1.746   1.138 -0.8300  1.2739  0.3784
   44SOL     OW  130   1.719   2.517   0.014  0.0621  0.0776  0.1488
   44SOL    HW1  131   1.767   2.558  -0.071  0.3544 -1.9012 -0.6675
   44SOL    HW2  132   1.773   2.478   0.095 -1.3955 -0.4993  3.3020
   45SOL     OW  133   0.372   1.910   2.493 -0.5026  0.5008 -0.0957
   45SOL    HW1  134   0.287   1.907   2.431 -2.9970  0.2632  0.3597
   45SOL    HW2  135   0.407   1.815   2.517 -0.0022 -1.6283 -0.1325
   46SOL     OW  136   1.149   0.649   0.175  0.1422 -0.2389 -0.3358
   46SOL    HW1  137   1.225   0.722   0.164  1.0780  1.4377  0.4992
   46SOL    HW2  138   1.050   0.679   0.156 -1.5568 -1.3397  1.6662
   47SOL     OW  139   0.242   2.461   1.620 -0.1467  0.4482  0.4990
   47SOL    HW1  140   0.325   2.397   1.596 -2.6670  0.5906  0.2497
   47SOL    HW2  141   0.220   2.523   1.541 -0.3932  0.8280 -1.2788
   48SOL     OW  142   2.601   0.560   0.129 -0.5220 -0.1911  0.2589
   48SOL    HW1  143   2.557   0.603   0.212 -3.2658 -3.7149  1.8564
   48SOL    HW2  144   2.688   0.615   0.092  1.5040 -1.4008 -1.6149
   49SOL     OW  145   0.351   0.850   1.756 -0.5304  0.6143 -0.2973
   49SOL    HW1  146   0.433   0.887   1.807 -1.1986  1.0687  0.7681
   49SOL    HW2  147   0.369   0.763   1.700  0.0638 -1.2211 -1.2726
   50SOL     OW  148   1.753   1.062   0.351 -0.0593  0.1400  0.4463
   50SOL    HW1  149   1.760   0.966   0.330 -3.1903  1.5507  0.7564
   50SOL    HW2  150   1.739   1.073   0.452 -1.2174 -0.0930 -1.2018
   51SOL     OW  151   3.006   1.900   0.387 -0.4329  0.3984  0.4291
   51SOL    HW1  152   3.013   1.942   0.290  2.7208  0.6507 -0.0662
   51SOL    HW2  153   2.974   1.800   0.385  0.8074 -1.3354 -0.5716
   52SOL     OW  154   0.821   1.963   0.482 -0.5096  0.2763  0.7523
   52SOL    HW1  155   0.740   2.015   0.518 -0.2710  1.0659  1.4255
   52SOL    HW2  156   0.856   1.892   0.552 -1.2050  0.1271  1.9071
   53SOL     OW  157   3.083   0.351   1.508 -0.3530 -0.2832 -0.0194
   53SOL    HW1  158   2.980   0.363   1.514  1.1287 -0.9315 -3.6373
   53SOL    HW2  159   3.128   0.441   1.497 -0.7549 -0.5493  1.1228
   54SOL     OW  160   1.743   0.485   3.010 -0.2663 -0.1917  0.1019
   54SOL    HW1  161   1.787   0.458   3.100  0.8110  1.8735  1.3266
   54SOL    HW2  162   1.637   0.484   3.016 -4.2743  0.8050 -1.0221
   55SOL     OW  163   0.714   2.929   0.633 -0.1830  0.1110 -0.2345
   55SOL    HW1  164   0.684   3.019   0.675 -0.2149 -3.5970 -1.8783
   55SOL    HW2  165   0.809   2.947   0.587  0.5410 -0.1781  0.2434
   56SOL     OW  166   0.494   1.538   3.061  0.0407  0.3003 -0.8055
   56SOL    HW1  167   0.419   1.598   3.104  0.3713  1.0237  3.2298
   56SOL    HW2  168   0.452   1.465   3.002 -0.1734  2.4304  2.9145
   57SOL     OW  169   1.768   2.376   2.626  0.4263 -0.0420 -0.4073
   57SOL    HW1  170   1.813   2.369   2.534  0.3140  1.1012  1.5272
   57SOL    HW2  171   1.706   2.460   2.629 -1.3430 -0.7437  1.3842
   58SOL     OW  172   0.602   0.468   1.107 -0.8637 -0.4949 -0.3370
   58SOL    HW1  173   0.551   0.547   1.077  3.8809 -2.6254  1.2690
   58SOL    HW2  174   0.546   0.383   1.118  4.9634  0.7683  1.5409
   59SOL     OW  175   0.473   2.412   2.646 -0.2798  0.4878  0.4679
   59SOL    HW1  176   0.477   2.320   2.688 -0.3758 -2.2913  1.3452
   59SOL    HW2  177   0.568   2.456   2.649  1.5281  0.4048 -0.7343
   60SOL     OW  178   2.333   2.196   2.252  0.1781  0.0399  0.1583
   60SOL    HW1  179   2.409   2.191   2.183 -0.3950 -2.3264  0.2056
   60SOL    HW2  180   2.354   2.212   2.352 -1.6969  1.4273  1.3747
   61SOL     OW  181   1.373   0.583   0.429  0.1392 -0.2947 -0.0008
   61SOL    HW1  182   1.274   0.611   0.446 -1.8261  0.1770  0.1120
   61SOL    HW2  183   1.389   0.563   0.329  1.0940 -0.1419 -0.0091
   62SOL     OW  184   2.657   1.880   3.101  0.0512 -0.3704 -0.2131
   62SOL    HW1  185   2.689   1.792   3.143  1.0124 -0.3354 -2.0565
   62SOL    HW2  186   2.684   1.881   3.001 -0.1265 -2.5419 -2.2177
   63SOL     OW  187   0.520   0.799   0.157  0.1630 -0.0722  0.7328
   63SOL    HW1  188   0.505   0.898   0.131 -0.5764 -1.1027 -1.8480
   63SOL    HW2  189   0.605   0.778   0.209  0.0269  0.5062 -1.3458
   64SOL     OW  190   0.086   0.522   2.522  0.3880 -0.7428 -0.0108
   64SOL    HW1  191   0.090   0.580   2.609 -1.9106 -0.2163  1.9357
   64SOL    HW2  192   0.051   0.561   2.432 -0.0007 -4.2870  0.8529
   65SOL     OW  193   0.182   1.445   0.637 -0.0031  0.4727 -0.0657
   65SOL    HW1  194   0.168   1.518   0.709 -0.3999  1.5766 -1.4963
   65SOL    HW2  195   0.281   1.452   0.595  0.5925  0.5518  0.8059
   66SOL     OW  196   2.478   0.371   0.688 -0.2794  0.6838  0.3168
   66SOL    HW1  197   2.393   0.425   0.663  2.6750 -1.4589  1.7285
   66SOL    HW2  198   2.457   0.279   0.732  0.5408  0.0299  0.0076
   67SOL     OW  199   0.488   2.542   1.335  0.2029 -0.5857  0.1682
   67SOL    HW1  200   0.588   2.572   1.330  0.4220 -1.2207 -1.1734
   67SOL    HW2  201   0.474   2.440   1.304  1.5516  0.2357  1.2806
   68SOL     OW  202   1.012   1.098   2.454 -0.0967 -0.0083  0.2770
   68SOL    HW1  203   1.062   1.024   2.396  1.3590 -1.1496 -0.4367
   68SOL    HW2  204   0.968   1.174   2.393  0.9802  0.8832 -2.6185
   69SOL     OW  205   0.785   2.699   2.161 -0.0701  0.2437 -0.1249
   69SOL    HW1  206   0.829   2.609   2.179  1.4357 -0.7035  0.6559
   69SOL    HW2  207   0.678   2.690   2.165 -0.1207 -1.4605 -0.6522
   70SOL     OW  208   0.608   0.248   2.714  0.1533  0.4577  0.1204
   70SOL    HW1  209   0.559   0.274   2.801 -2.7775  1.3378 -2.0147
   70SOL    HW2  210   0.567   0.167   2.668 -0.5452 -0.4174  0.9435
   71SOL     OW  211   1.081   1.795   0.378 -0.3368 -0.5721 -0.1257
   71SOL    HW1  212   1.037   1.703   0.402 -0.3550 -1.2851 -1.7485
   71SOL    HW2  213   1.092   1.812   0.275 -0.2589 -0.0049  2.2894
   72SOL     OW  214   1.796   0.067   2.085  0.7821 -0.0254 -0.3774
   72SOL    HW1  215   1.838   0.091   1.999  0.7701  0.4497  2.4416
   72SOL    HW2  216   1.833  -0.021   2.127 -1.0247  0.1252  0.6021
   73SOL     OW  217   2.830   2.217   2.520 -0.2391  0.1590 -0.2015
   73SOL    HW1  218   2.835   2.122   2.471 -1.4724 -0.5319  2.0707
   73SOL    HW2  219   2.864   2.222   2.621  0.7431  1.4232  2.8750
   74SOL     OW  220   2.725   3.019   2.053  0.9825 -0.1684 -0.4347
   74SOL    HW1  221   2.659   2.975   2.121 -0.9731  0.2514  0.9925
   74SOL    HW2  222   2.827   3.005   2.079  2.1236  2.5723  0.6819
   75SOL     OW  223   0.913   0.747   0.989  0.1359  0.4204  0.6149
   75SOL    HW1  224   0.820   0.781   0.974  0.6403 -2.5846 -1.8363
   75SOL    HW2  225   0.962   0.784   1.077 -2.5548  0.3400 -1.0327
   76SOL     OW  226   1.757   1.219   2.560 -0.2293  0.2538 -0.1131
   76SOL    HW1  227   1.660   1.221   2.536  1.3290  1.1450  0.1063
   76SOL    HW2  228   1.784   1.299   2.622 -0.1122  0.0100 -1.7902
   77SOL     OW  229   2.992   0.978   0.974 -0.2875 -0.3366 -0.1629
   77SOL    HW1  230   2.959   0.878   0.964  1.1336  0.6965 -0.3335
   77SOL    HW2  231   3.072   1.000   1.038  0.7769  1.1346  0.2420
   78SOL     OW  232   1.971   1.397   1.478  0.0505 -0.1077  0.0473
   78SOL    HW1  233   2.061   1.406   1.423  1.6395  1.0363 -3.0438
   78SOL    HW2  234   1.891   1.354   1.422 -3.2997  1.3786  2.7421
   79SOL     OW  235   0.631   1.329   0.859 -0.8577 -0.2904 -0.2199
   79SOL    HW1  236   0.541   1.375   0.853  0.0714 -0.4343  0.6106
   79SOL    HW2  237   0.635   1.243   0.801 -0.4968  2.8041  0.4205
   80SOL     OW  238   0.649   0.489   1.603  0.2524 -0.1136  0.1384
   80SOL    HW1  239   0.723   0.553   1.566 -0.6560 -0.3851  1.6820
   80SOL    HW2  240   0.659   0.390   1.577  0.3903 -0.4668 -0.6955
   81SOL     OW  241   1.081   1.402   2.622 -0.3479 -0.5941  0.3937
   81SOL    HW1  242   1.046   1.383   2.717 -0.6303  0.5587 -0.9717
   81SOL    HW2  243   1.010   1.394   2.549 -3.2743  1.2845  2.0785
   82SOL     OW  244   0.900   3.019   1.516 -0.1900 -0.9102  0.0948
   82SOL    HW1  245   0.992   3.013   1.476 -1.1626  3.9128 -1.5231
   82SOL    HW2  246   0.838   2.948   1.480  0.0757 -0.4442 -2.1974
   83SOL     OW  247   2.764   2.431   0.801  0.0957  0.2655 -0.0950
   83SOL    HW1  248   2.675   2.389   0.771 -1.5665  1.3904 -1.4251
   83SOL    HW2  249   2.778   2.521   0.749 -2.3596 -0.5796 -0.7064
   84SOL     OW  250   0.673   0.011   2.411  0.4421 -0.0558 -0.0608
   84SOL    HW1  251   0.637  -0.082   2.446  0.9141 -0.6778 -2.6682
   84SOL    HW2  252   0.774   0.022   2.420 -0.2271  0.2042 -1.5086
   85SOL     OW  253   0.411   1.646   1.478 -0.1152 -0.0798 -0.1470
   85SOL    HW1  254   0.353   1.734   1.465 -3.1506  0.2137  1.7660
   85SOL    HW2  255   0.392   1.606   1.578  1.1599  0.3277 -0.0036
   86SOL     OW  256   0.353   1.025   1.480 -0.2644 -0.6203 -0.0225
   86SOL    HW1  257   0.309   0.983   1.396 -0.1922  0.0018 -0.7203
   86SOL    HW2  258   0.425   0.965   1.524  1.3740  0.2961  0.3934
   87SOL     OW  259   1.587   0.582   0.208  0.2995  0.3368  0.0838
   87SOL    HW1  260   1.632   0.675   0.197 -0.6665  0.6997 -2.6918
   87SOL    HW2  261   1.547   0.544   0.119  2.0636 -0.2007 -0.3173
   88SOL     OW  262   1.586   1.253   0.185 -0.0739 -0.4502  0.3266
   88SOL    HW1  263   1.639   1.197   0.253 -2.5321 -1.0498  0.9745
   88SOL    HW2  264   1.485   1.242   0.201  1.5009 -1.3116 -2.2141
   89SOL     OW  265   3.004   0.457   0.572  0.2244  0.3777 -0.0899
   89SOL    HW1  266   3.057   0.370   0.605  4.3523 -0.3798 -1.9319
   89SOL    HW2  267   2.903   0.434   0.539  0.3148  2.3898  1.1326
   90SOL     OW  268   0.955   1.656   3.067  0.0530  0.0433  0.3476
   90SOL    HW1  269   0.868   1.645   3.126  0.9458  0.9100  0.8809
   90SOL    HW2  270   0.928   1.643   2.969 -0.0461 -0.6396  0.6144
   91SOL     OW  271   1.280   1.431   1.779  0.0285 -0.0272  0.0841
   91SOL    HW1  272   1.298   1.520   1.829  1.6726  2.6303 -2.3348
   91SOL    HW2  273   1.368   1.382   1.750 -0.1886  2.5860 -2.0302
   92SOL     OW  274   0.083   1.057   1.175  0.4145 -0.1426 -0.1460
   92SOL    HW1  275   0.184   1.069   1.145  2.3102  0.8326 -1.1567
   92SOL    HW2  276   0.067   1.043   1.281  0.5362 -1.4094  1.9421
   93SOL     OW  277   0.063   2.835   0.029 -0.4967  0.3993  0.1358
   93SOL    HW1  278  -0.011   2.828  -0.041 -0.8086  1.4414  1.4100
   93SOL    HW2  279   0.104   2.746   0.054 -3.8020 -0.5888  2.1129
   94SOL     OW  280   1.498   1.322   1.676  0.1552  0.7084  0.4555
   94SOL    HW1  281   1.499   1.223   1.704  1.8543 -0.2682 -0.1378
   94SOL    HW2  282   1.578   1.373   1.711  1.5058 -1.8053  1.3242
   95SOL     OW  283   1.380   2.485   2.903 -0.6873 -0.2956  0.4165
   95SOL    HW1  284   1.320   2.467   2.986 -0.0437 -1.5666  4.7515
   95SOL    HW2  285   1.412   2.396   2.859  1.2675 -1.4764  1.4770
   96SOL     OW  286   0.514   2.027   1.229  0.1343  0.0281  0.3819
   96SOL    HW1  287   0.519   2.051   1.128  1.1967 -1.2109 -1.2976
   96SOL    HW2  288   0.481   1.929   1.237  1.2500 -1.7876 -1.4660
   97SOL     OW  289   0.309   1.455   2.479  0.1174 -0.1692  0.1677
   97SOL    HW1  290   0.218   1.409   2.515 -0.5944 -2.6139  1.5251
   97SOL    HW2  291   0.336   1.535   2.542  2.3416  1.0650 -0.3136
   98SOL     OW  292   2.061   1.701   1.292 -0.5588  0.4980  0.4122
   98SOL    HW1  293   2.023   1.635   1.227 -0.5265  2.1000  1.6653
   98SOL    HW2  294   2.117   1.646   1.364 -2.7547 -1.4243  0.9451
   99SOL     OW  295   2.471   2.160   1.323 -0.0611 -0.3098 -0.2489
   99SOL    HW1  296   2.435   2.185   1.416  1.3231 -1.3802  0.6481
   99SOL    HW2  297   2.467   2.056   1.304 -3.0606 -0.8708 -0.0158
  100SOL     OW  298   2.294   0.405   2.035 -0.2270 -0.4039 -0.5418
  100SOL    HW1  299   2.253   0.414   2.133 -1.7802 -0.8709  2.8306
  100SOL    HW2  300   2.396   0.382   2.044 -0.4103  1.4797 -1.5916
  101SOL     OW  301   0.424   1.432   0.282 -0.2092  0.3383 -0.0584
  101SOL    HW1  302   0.448   1.500   0.358  0.7654  1.0263  0.3677
  101SOL    HW2  303   0.472   1.448   0.193 -1.1128 -2.9164  0.3965
  102SOL     OW  304   2.272   1.071   0.809  0.2051  0.0064 -0.3726
  102SOL    HW1  305   2.215   0.995   0.766 -0.3681 -2.8468 -0.3113
  102SOL    HW2  306   2.329   1.130   0.741 -0.5146 -1.4191 -0.8204
  103SOL     OW  307   2.289   0.078   0.404  0.1262  0.5908 -0.0492
  103SOL    HW1  308   2.351   0.156   0.368  1.9950  0.2295  1.4262
  103SOL    HW2  309   2.331   0.024   0.485  3.8542 -0.8850  0.0145
  104SOL     OW  310   0.069   1.878   2.157 -0.1071 -0.0913 -0.3836
  104SOL    HW1  311   0.112   1.827   2.076  3.6245  2.8843 -3.1132
  104SOL    HW2  312  -0.035   1.900   2.151  1.1202  2.1394  1.2508
  105SOL     OW  313   1.115   1.971   0.844 -0.1113  0.0176  0.0812
  105SOL    HW1  314   1.051   2.032   0.786  2.3440  2.0597 -0.3794
  105SOL    HW2  315   1.172   1.908   0.781 -0.0981 -1.2150  1.0927
  106SOL     OW  316   2.048   0.462   1.344  0.0823 -0.3743 -0.3854
  106SOL    HW1  317   2.045   0.380   1.408  0.5160  1.0459  0.7150
  106SOL    HW2  318   2.006   0.540   1.398 -1.5721 -0.9709 -1.1048
  107SOL     OW  319   1.807   3.023   1.103  0.1690 -0.2430 -0.2514
  107SOL    HW1  320   1.849   3.097   1.164 -0.4925 -0.3895  0.3967
  107SOL    HW2  321   1.781   2.937   1.153  3.5307  1.4634 -0.2146
  108SOL     OW  322   0.751   2.640   1.306  0.1975  0.1512 -0.0571
  108SOL    HW1  323   0.725   2.715   1.375 -0.7644  0.0436  2.7518
  108SOL    HW2  324   0.847   2.602   1.328 -0.0247  0.6548  0.8450
  109SOL     OW  325   2.093   0.104   0.695  0.4789 -0.3305  0.2996
  109SOL    HW1  326   2.042   0.034   0.637 -0.4584  1.8818  0.5241
  109SOL    HW2  327   2.074   0.092   0.797 -2.2723 -1.9933  0.7419
  110SOL     OW  328   0.495   2.755   2.745  0.0730  0.7508 -0.4157
  110SOL    HW1  329   0.496   2.781   2.645 -0.1452 -1.3551  2.0866
  110SOL    HW2  330   0.585   2.706   2.778  0.5762 -0.1483 -0.1958
  111SOL     OW  331   1.289   0.524   2.309  0.2515 -0.3267 -0.3981
  111SOL    HW1  332   1.209   0.561   2.362  2.2456 -1.1010  0.5244
  111SOL    HW2  333   1.343   0.459   2.360 -1.0109  0.7216 -1.6712
  112SOL     OW  334   1.710   0.493   1.456  0.3561 -0.3560 -0.5970
  112SOL    HW1  335   1.717   0.473   1.354 -1.2567  1.5591 -1.9972
  112SOL    HW2  336   1.701   0.411   1.522 -0.3838 -0.4524  2.5274
  113SOL     OW  337   2.308   1.667   1.750  0.1953 -0.1859  0.2058
  113SOL    HW1  338   2.391   1.600   1.733 -0.1610 -1.1145 -2.0344
  113SOL    HW2  339   2.308   1.716   1.839  0.5370 -0.1523 -0.5188
  114SOL     OW  340   0.383   0.572   1.281 -0.4038  0.4322 -0.0755
  114SOL    HW1  341   0.346   0.666   1.256 -0.7279  0.5320  1.8881
  114SOL    HW2  342   0.375   0.503   1.206 -1.8418 -1.1700 -0.2762
  115SOL     OW  343   2.666   1.587   1.243 -0.4741  0.3384 -0.0781
  115SOL    HW1  344   2.665   1.483   1.238 -0.4266 -1.9856 -0.7430
  115SOL    HW2  345   2.690   1.632   1.150 -1.7160 -0.0716 -1.2951
  116SOL     OW  346   1.824   1.060   0.760  0.4864 -0.3201  0.1225
  116SOL    HW1  347   1.742   0.991   0.756 -1.7957  0.1752  2.3311
  116SOL    HW2  348   1.795   1.160   0.766 -1.4812 -1.5716 -1.3947
  117SOL     OW  349   1.138   0.378   0.649  0.3217 -0.3983 -0.0817
  117SOL    HW1  350   1.099   0.372   0.743  1.6095 -1.1182  0.3295
  117SOL    HW2  351   1.208   0.455   0.638 -0.3705  0.1099  0.3932
  118SOL     OW  352   1.051   1.088   1.070  0.2637 -0.3212  1.5000
  118SOL    HW1  353   1.065   1.005   1.122 -0.8428  1.8161 -0.0230
  118SOL    HW2  354   1.094   1.172   1.111 -0.4619 -1.2236 -2.2455
  119SOL     OW  355   1.826   1.601   2.013 -0.4182  0.1888  0.1532
  119SOL    HW1  356   1.762   1.672   2.042  3.1918 -1.4968 -2.3419
  119SOL    HW2  357   1.924   1.619   2.041  0.4609  0.7643  2.3593
  120SOL     OW  358   2.944   2.782   0.309  0.0756  0.4335  0.8238
  120SOL    HW1  359   2.894   2.728   0.234  0.5455 -0.0039  0.4958
  120SOL    HW2  360   2.998   2.714   0.362  0.4242 -2.1860 -1.8779
  121SOL     OW  361   2.030   0.754   2.184 -0.6475  0.0032 -0.3278
  121SOL    HW1  362   2.111   0.773   2.121 -0.2805  3.0794 -2.1964
  121SOL    HW2  363   2.002   0.656   2.186  0.9735  2.3133 -1.6454
  122SOL     OW  364   2.720   2.542   1.358  0.2361  0.3843  0.1842
  122SOL    HW1  365   2.745   2.552   1.259  0.4549 -0.6538  1.6227
  122SOL    HW2  366   2.715   2.438   1.386  2.0411 -3.4285  2.9005
  123SOL     OW  367   1.732   0.030   1.680 -0.3957  0.3045  0.3940
  123SOL    HW1  368   1.741  -0.045   1.605 -0.7321 -0.7662 -1.1118
  123SOL    HW2  369   1.818   0.084   1.692 -0.7526 -1.8676  0.5328
  124SOL     OW  370   0.174   0.505   1.035  0.1543 -0.4850  0.5231
  124SOL    HW1  371   0.156   0.588   1.092  1.0118  1.1954  1.3217
  124SOL    HW2  372   0.142   0.506   0.937  0.0460 -2.1639 -3.6525
  125SOL     OW  373   0.873   1.756   0.681 -0.0105  0.3098  0.1384
  125SOL    HW1  374   0.973   1.765   0.665 -3.0337 -0.2898 -0.5764
  125SOL    HW2  375   0.849   1.668   0.735 -1.6513 -0.0222  0.7374
  126SOL     OW  376   1.889   2.372   2.386  0.7150 -0.0824  0.2386
  126SOL    HW1  377   1.954   2.300   2.350  1.0837 -1.4291  2.0981
  126SOL    HW2  378   1.809   2.392   2.324  1.5159  0.5351 -0.3565
  127SOL     OW  379   0.904   0.978   0.184 -0.8246  0.1148  0.0233
  127SOL    HW1  380   0.965   1.019   0.257 -1.7378  2.5137  0.3822
  127SOL    HW2  381   0.881   0.880   0.204 -0.6790  0.9137 -1.5807
  128SOL     OW  382   0.996   0.168   1.474  0.1782 -0.4432  0.0424
  128SOL    HW1  383   0.948   0.244   1.416 -3.4681 -0.0574  0.3091
  128SOL    HW2  384   0.940   0.085   1.498 -0.7263 -0.8934  1.2721
  129SOL     OW  385   1.797   0.715   1.847  0.2837 -0.5931  0.8671
  129SOL    HW1  386   1.761   0.766   1.759  1.0513  1.6301 -0.4005
  129SOL    HW2  387   1.820   0.792   1.918 -0.8874 -1.1258 -2.3142
  130SOL     OW  388   1.306   2.089   0.994  0.3470 -0.3702 -0.0160
  130SOL    HW1  389   1.222   2.053   0.949  1.7689 -1.0750 -0.5371
  130SOL    HW2  390   1.355   2.172   0.948  3.2069  0.1676 -2.4313
  131SOL     OW  391   3.091   1.511   1.341  0.8045  0.0310  0.5994
  131SOL    HW1  392   3.043   1.415   1.342  0.3500  0.5124  2.1449
  131SOL    HW2  393   3.192   1.505   1.368  1.2167 -1.2298 -0.3477
  132SOL     OW  394   1.918   2.505   0.531  0.0596  0.0794  0.0609
  132SOL    HW1  395   1.817   2.489   0.532  1.3014  2.0333 -1.4969
  132SOL    HW2  396   1.967   2.487   0.618  0.6876 -0.5210 -0.6464
  133SOL     OW  397   1.819   2.290   2.912  0.0690 -0.0791 -0.0654
  133SOL    HW1  398   1.791   2.348   2.988 -0.0358 -2.7458  0.8491
  133SOL    HW2  399   1.767   2.305   2.822 -1.1959  1.9754  2.0620
  134SOL     OW  400   2.639   2.363   1.612  0.2253 -0.1231 -0.0518
  134SOL    HW1  401   2.593   2.315   1.693  1.0586 -3.0197 -0.5129
  134SOL    HW2  402   2.712   2.428   1.647  0.0548 -2.9402 -1.6347
  135SOL     OW  403   0.731   1.524   2.553 -0.2376  0.6889 -0.1465
  135SOL    HW1  404   0.718   1.425   2.587 -0.5901 -2.9476  1.7126
  135SOL    HW2  405   0.806   1.523   2.487 -3.3256 -2.7537  2.9890
  136SOL     OW  406   1.172   2.067   0.462  0.3509 -0.4218  0.4083
  136SOL    HW1  407   1.131   2.118   0.542  1.4905 -0.2869 -0.4781
  136SOL    HW2  408   1.109   1.991   0.434  0.5368  2.3695 -1.2431
  137SOL     OW  409   0.386   1.039   2.201 -0.0400  0.5686  0.5951
  137SOL    HW1  410   0.303   1.069   2.254 -1.5680 -1.2641 -0.3240
  137SOL    HW2  411   0.402   0.936   2.202  0.1405  2.4453  0.7629
  138SOL     OW  412   2.457   1.485   0.285 -0.1950 -0.4086 -0.4973
  138SOL    HW1  413   2.366   1.486   0.240  1.4066 -0.8201  0.4668
  138SOL    HW2  414   2.480   1.403   0.340 -0.4786  0.1448 -2.2649
  139SOL     OW  415   1.772   2.564   1.232  0.1055  0.5273  0.0158
  139SOL    HW1  416   1.673   2.536   1.232 -1.5570  1.2551  0.0510
  139SOL    HW2  417   1.827   2.524   1.311  0.6694  0.5458 -1.5719
  140SOL     OW  418   3.000   2.988   2.544  0.3215 -0.5967  0.3071
  140SOL    HW1  419   3.052   2.919   2.597 -1.1876 -0.8912 -0.1618
  140SOL    HW2  420   3.062   3.060   2.497 -2.0633  1.3983 -1.8778
  141SOL     OW  421   1.141   1.599   1.587  0.4582  0.6324 -0.4312
  141SOL    HW1  422   1.126   1.683   1.646 -1.3146 -2.5692 -0.7322
  141SOL    HW2  423   1.222   1.541   1.615 -0.5626  2.8725 -2.6574
  142SOL     OW  424   1.557   0.613   2.263  0.0690  0.2292  0.6029
  142SOL    HW1  425   1.576   0.614   2.162 -1.6325 -1.8725  2.6006
  142SOL    HW2  426   1.458   0.598   2.280  0.2175  0.2887 -2.2625
  143SOL     OW  427   2.793   0.879   0.527 -0.0666 -0.2152 -0.3408
  143SOL    HW1  428   2.828   0.928   0.444 -1.3791 -0.9253 -2.5347
  143SOL    HW2  429   2.826   0.915   0.621 -0.2934 -1.7887 -0.4711
  144SOL     OW  430   3.004   1.268   1.367  0.0409 -0.4557 -0.2046
  144SOL    HW1  431   3.002   1.222   1.461  0.5279  3.1987  0.8388
  144SOL    HW2  432   3.016   1.204   1.288 -2.6392  1.3240 -0.6636
  145SOL     OW  433   1.066   1.871   0.081  0.5391  0.3889 -0.0421
  145SOL    HW1  434   1.071   1.961   0.025 -1.8478  0.3241 -0.6641
  145SOL    HW2  435   1.029   1.791   0.023  0.1588  1.1277 -1.9453
  146SOL     OW  436   2.546   0.663   1.466 -0.3150  0.0369 -0.2877
  146SOL    HW1  437   2.496   0.587   1.420  0.3951  1.2885  1.0608
  146SOL    HW2  438   2.511   0.752   1.435  3.0721 -0.3834 -0.1210
  147SOL     OW  439   1.054   2.584   0.606  0.0750 -0.7210 -0.1705
  147SOL    HW1  440   1.022   2.619   0.513  0.9881  0.8832 -0.1679
  147SOL    HW2  441   1.142   2.528   0.604 -1.4871  2.1290 -0.2184
  148SOL     OW  442   1.632   1.437   3.043 -0.0729 -0.0164  0.2600
  148SOL    HW1  443   1.681   1.358   2.995 -0.8262  2.3103  0.4672
  148SOL    HW2  444   1.596   1.403   3.136 -0.5306  0.7042  1.6121
  149SOL     OW  445   0.648   1.401   1.965  0.5096  0.1911  0.1507
  149SOL    HW1  446   0.560   1.374   2.014  1.0687 -0.7179 -0.7446
  149SOL    HW2  447   0.677   1.337   1.889  0.5288  0.8685 -0.1742
  150SOL     OW  448   2.967   1.289   0.939  0.4544 -0.1105 -0.3527
  150SOL    HW1  449   3.037   1.342   0.998  1.4963 -1.8599  3.4484
  150SOL    HW2  450   2.960   1.191   0.973 -2.8797  1.1235 -2.1308
  151SOL     OW  451   0.173   0.758   2.083 -0.3305  0.7114  0.1850
  151SOL    HW1  452   0.176   0.853   2.032  0.8034 -0.7721 -0.5302
  151SOL    HW2  453   0.241   0.685   2.047  0.1772 -3.1368  1.4424
  152SOL     OW  454   1.408   1.754   1.281 -0.3257 -0.0688 -0.1768
  152SOL    HW1  455   1.413   1.838   1.341 -0.1731  0.3666  0.0382
  152SOL    HW2  456   1.325   1.761   1.220  0.9867 -0.2866  0.9009
  153SOL     OW  457   0.066   1.512   0.178  0.5180  0.6337  0.7749
  153SOL    HW1  458   0.060   1.406   0.170 -1.5673 -1.6599 -1.3606
  153SOL    HW2  459   0.039   1.538   0.276  3.2988  1.6215 -0.9192
  154SOL     OW  460   2.400   1.958   2.826  0.2582 -0.4328 -0.1113
  154SOL    HW1  461   2.413   1.860   2.848  0.5529 -0.0002 -0.4768
  154SOL    HW2  462   2.431   1.969   2.729 -1.2790  1.1655 -0.5915
  155SOL     OW  463   2.516   1.223   0.409  0.0854 -0.5558 -0.3296
  155SOL    HW1  464   2.597   1.250   0.345  2.3317 -0.7153 -0.7487
  155SOL    HW2  465   2.494   1.118   0.410 -3.0240  0.0802  0.3363
  156SOL     OW  466   2.541   0.980   0.883  0.1269 -1.1378  0.0286
  156SOL    HW1  467   2.448   0.969   0.845 -0.0854  0.0152  1.0865
  156SOL    HW2  468   2.598   1.056   0.840  1.6313  2.4965  0.1632
  157SOL     OW  469   1.342   3.002   3.085 -0.3554  0.5614 -0.5555
  157SOL    HW1  470   1.406   2.967   3.010 -1.8173  1.2673 -2.8941
  157SOL    HW2  471   1.334   3.103   3.065 -4.0735 -0.1317  1.2216
  158SOL     OW  472   1.060   1.872   2.011 -0.3507  1.0958 -0.3532
  158SOL    HW1  473   1.094   1.850   2.108  2.1387 -1.0508 -0.7296
  158SOL    HW2  474   0.955   1.859   1.998 -1.7662  0.0739  0.6273
  159SOL     OW  475   0.879   0.359   1.326 -0.1524 -0.1257 -0.1454
  159SOL    HW1  476   0.835   0.435   1.378 -0.1326  1.5850 -0.9648
  159SOL    HW2  477   0.839   0.346   1.235  0.6155 -2.1897 -0.1461
  160SOL     OW  478   1.455   2.387   1.658  0.2621  0.0213  0.7761
  160SOL    HW1  479   1.454   2.464   1.586  0.7234  0.1619 -1.9768
  160SOL    HW2  480   1.549   2.342   1.665 -1.2798  1.4661 -0.9516
  161SOL     OW  481   0.111   2.946   0.348  0.0069 -0.3263 -0.1803
  161SOL    HW1  482   0.025   2.902   0.366  2.1986  1.2877 -0.4774
  161SOL    HW2  483   0.111   2.991   0.254 -1.9687 -0.3754  3.7954
  162SOL     OW  484   2.600   1.891   0.505  0.2948  0.3445  0.0892
  162SOL    HW1  485   2.569   1.839   0.417  1.0209 -1.9093  0.7078
  162SOL    HW2  486   2.592   1.830   0.591 -2.0301  2.6633  3.5333
  163SOL     OW  487   1.983   2.742   0.764  0.1327 -0.5941 -0.1955
  163SOL    HW1  488   1.940   2.773   0.673  0.6331 -0.0742  0.6562
  163SOL    HW2  489   2.037   2.651   0.756 -0.7178 -1.2773  1.1025
  164SOL     OW  490   3.088   0.258   1.260 -0.1455  0.7980  0.4089
  164SOL    HW1  491   3.146   0.299   1.184 -0.8807  0.8001  0.1859
  164SOL    HW2  492   3.120   0.291   1.355 -0.5564  2.3486 -1.8659
  165SOL     OW  493   0.987   1.409   0.649 -0.2923  1.0613  0.5043
  165SOL    HW1  494   0.948   1.473   0.722  0.4160  0.5164  2.3294
  165SOL    HW2  495   0.972   1.431   0.552 -0.2605  1.7873  1.9037
  166SOL     OW  496   1.409   1.046   1.773  0.6366  0.0623 -0.0588
  166SOL    HW1  497   1.311   1.028   1.814  0.2388  0.6407  0.2174
  166SOL    HW2  498   1.481   1.087   1.835  0.7352 -1.4432 -4.4052
  167SOL     OW  499   0.887   1.872   1.557 -0.1750  0.8085 -0.0883
  167SOL    HW1  500   0.852   1.961   1.593 -0.1606 -1.1908  0.5332
  167SOL    HW2  501   0.813   1.811   1.521  0.1663 -0.3705  0.4800
  168SOL     OW  502   1.507   2.368   0.141 -0.4479 -0.2006 -0.3534
  168SOL    HW1  503   1.563   2.417   0.070  0.2631  1.1083  0.1340
  168SOL    HW2  504   1.567   2.317   0.209 -0.6564 -0.7314 -0.0454
  169SOL     OW  505   0.172   2.564   2.164  0.0112  0.3293  0.2023
  169SOL    HW1  506   0.229   2.486   2.129  1.4775  0.1283  0.5702
  169SOL    HW2  507   0.136   2.543   2.259 -0.3141  0.7864 -0.8497
  170SOL     OW  508   1.269   0.284   1.886 -0.1545  0.4767 -0.7938
  170SOL    HW1  509   1.313   0.279   1.981 -3.3126 -1.0957  1.6108
  170SOL    HW2  510   1.247   0.189   1.843  0.7280  1.4790 -0.7945
  171SOL     OW  511   0.262   0.827   2.419 -0.0569 -0.3291  0.1624
  171SOL    HW1  512   0.161   0.817   2.448  3.9554  2.0283  0.8839
  171SOL    HW2  513   0.289   0.787   2.331 -0.5648 -2.4910  1.1541
  172SOL     OW  514   0.908   1.118   2.919  0.2392 -0.0032 -0.1580
  172SOL    HW1  515   1.000   1.134   2.955 -0.0160 -1.5568 -2.0397
  172SOL    HW2  516   0.906   1.082   2.823  0.3324  1.0518  2.0329
  173SOL     OW  517   0.663   2.708   0.158  0.2971 -0.0631 -0.4322
  173SOL    HW1  518   0.674   2.807   0.127 -1.0338  0.8013 -1.0597
  173SOL    HW2  519   0.570   2.670   0.136 -1.1425  0.3709  2.1190
  174SOL     OW  520   1.325   2.746   1.048  0.4122  0.2196  0.0362
  174SOL    HW1  521   1.341   2.812   0.968  0.2927  1.3027 -0.0223
  174SOL    HW2  522   1.265   2.665   1.020  0.1783 -2.6772 -1.0964
  175SOL     OW  523   0.379   0.010   1.710 -0.5471  0.1847  0.0667
  175SOL    HW1  524   0.432   0.070   1.773  1.6387 -2.6499 -1.0624
  175SOL    HW2  525   0.297   0.058   1.664 -2.1402  0.0768  1.6709
  176SOL     OW  526   2.597   0.361   3.041 -0.6396  0.2299  0.8807
  176SOL    HW1  527   2.618   0.435   3.108  0.1791 -0.4307  0.2840
  176SOL    HW2  528   2.518   0.296   3.061 -0.8020 -0.1061 -2.5125
  177SOL     OW  529   0.382   0.368   0.872  0.0015  0.7510  0.3579
  177SOL    HW1  530   0.449   0.301   0.914  0.9749  1.0130 -0.4483
  177SOL    HW2  531   0.325   0.414   0.944 -1.5863 -0.6977  0.2171
  178SOL     OW  532   3.088   2.696   2.619 -0.8755  0.3034 -0.4318
  178SOL    HW1  533   3.019   2.676   2.693 -1.1148 -2.6005  0.1967
  178SOL    HW2  534   3.173   2.741   2.664 -0.5876  1.2324  3.0078
  179SOL     OW  535   0.020   1.724   1.168  0.1869  0.0514 -0.3906
  179SOL    HW1  536  -0.067   1.766   1.142  1.9756 -2.3566 -0.5581
  179SOL    HW2  537   0.006   1.648   1.239 -3.1833 -3.3932 -0.5893
  180SOL     OW  538   0.187   1.253   1.840  0.0664  0.0363  0.3390
  180SOL    HW1  539   0.289   1.231   1.826  4.5555 -1.0833 -3.9812
  180SOL    HW2  540   0.165   1.340   1.888  0.1105  0.3547 -2.2561
  181SOL     OW  541   2.989   1.819   2.521  0.2722  0.0920  0.3289
  181SOL    HW1  542   3.058   1.883   2.479 -1.9571 -1.5898  1.3065
  181SOL    HW2  543   2.886   1.829   2.487 -4.9503  0.2330 -4.0931
  182SOL     OW  544   2.298   1.218   1.251  0.5088  0.0943  0.3280
  182SOL    HW1  545   2.245   1.201   1.164 -2.6920  1.0821  0.4397
  182SOL    HW2  546   2.345   1.313   1.249  0.6320  2.2571 -1.3972
  183SOL     OW  547   1.529   2.245   2.501 -0.6569  0.1379 -0.3559
  183SOL    HW1  548   1.455   2.176   2.510  2.2406 -0.6743 -0.2182
  183SOL    HW2  549   1.618   2.208   2.545 -1.4276 -0.6019  1.7801
  184SOL     OW  550   2.047   0.909   0.747  0.1588  0.3617  0.3418
  184SOL    HW1  551   1.960   0.971   0.756 -2.0625 -0.4079 -0.9797
  184SOL    HW2  552   2.049   0.823   0.813  0.5613 -0.0181  1.2357
  185SOL     OW  553   1.674   2.739   2.116  0.2630 -0.1627 -0.5837
  185SOL    HW1  554   1.647   2.837   2.099  1.0124 -1.7941 -1.0144
  185SOL    HW2  555   1.657   2.711   2.217 -0.1649 -0.8931  0.7890
  186SOL     OW  556   0.119   2.250   1.728  0.5259 -0.0230  0.4717
  186SOL    HW1  557   0.169   2.341   1.719 -0.6236  1.3148  0.3757
  186SOL    HW2  558   0.184   2.171   1.739 -0.3369  2.4496 -1.4410
  187SOL     OW  559   1.411   0.659   1.710 -0.2692  0.0850 -0.1941
  187SOL    HW1  560   1.459   0.724   1.639 -0.7273  0.9662 -0.6930
  187SOL    HW2  561   1.401   0.705   1.804  0.5019 -0.7983  0.7195
  188SOL     OW  562   2.762   2.754   1.530 -0.0646  0.0397  0.1975
  188SOL    HW1  563   2.755   2.849   1.492 -1.5073 -1.3737  0.6945
  188SOL    HW2  564   2.746   2.683   1.455  3.4985  0.6936  0.0739
  189SOL     OW  565   0.754   1.010   1.477  0.5567 -0.0869  0.0630
  189SOL    HW1  566   0.819   1.089   1.473 -1.4642 -0.8413 -0.3347
  189SOL    HW2  567   0.761   0.942   1.395  0.0922 -0.3734 -0.7177
  190SOL     OW  568   1.468   1.742   1.657 -0.5612 -0.7998 -0.3884
  190SOL    HW1  569   1.411   1.802   1.599 -0.1847  0.3212 -0.5710
  190SOL    HW2  570   1.546   1.789   1.703 -0.3767 -1.7000 -2.4320
  191SOL     OW  571   1.022   0.798   1.544 -0.3811  0.2348 -0.0744
  191SOL    HW1  572   1.075   0.718   1.586  1.4168  0.4621  1.1314
  191SOL    HW2  573   1.090   0.872   1.509  1.9037 -0.5062  1.0259
  192SOL     OW  574   1.893   2.250   1.219 -0.3722  0.4425  0.2288
  192SOL    HW1  575   1.806   2.231   1.175 -0.2088  0.4041  2.7041
  192SOL    HW2  576   1.961   2.297   1.157  0.0134  1.9451 -0.0770
  193SOL     OW  577   0.516   0.551   0.329  0.5019  0.4893 -0.4065
  193SOL    HW1  578   0.508   0.459   0.372 -1.3958  1.1332 -1.7043
  193SOL    HW2  579   0.530   0.544   0.223 -1.0277 -0.1346 -3.9185
  194SOL     OW  580   0.303   0.844   1.261 -0.3925 -0.1043  0.3503
  194SOL    HW1  581   0.208   0.813   1.240  1.1126  0.2228  2.3561
  194SOL    HW2  582   0.338   0.903   1.182 -0.3668  1.0111  1.6575
  195SOL     OW  583   0.944   2.936   0.486 -0.0084 -0.2347 -0.3118
  195SOL    HW1  584   0.937   2.844   0.441  2.0549 -0.0117 -1.4129
  195SOL    HW2  585   1.041   2.968   0.490  1.2161  0.6511  1.2797
  196SOL     OW  586   0.246   1.437   1.369  0.4099 -0.2057  0.8121
  196SOL    HW1  587   0.321   1.499   1.407 -1.9519 -0.1919 -0.0729
  196SOL    HW2  588   0.219   1.363   1.440 -3.9177  0.5907  2.1778
  197SOL     OW  589   0.824   2.004   0.200  0.3540  0.0782 -0.5629
  197SOL    HW1  590   0.834   1.995   0.302 -0.2854  1.5028 -1.2387
  197SOL    HW2  591   0.904   1.956   0.150  1.0944  0.3238 -0.1060
  198SOL     OW  592   0.292   1.199   0.252 -0.6883  0.7935 -0.2020
  198SOL    HW1  593   0.190   1.188   0.220 -2.0998  0.9203 -0.9857
  198SOL    HW2  594   0.325   1.298   0.254  0.1245  1.3199  0.6211
  199SOL     OW  595   2.280   0.391   2.508 -0.0277 -0.3500  0.6054
  199SOL    HW1  596   2.227   0.369   2.592  1.6899  0.1042  1.9579
  199SOL    HW2  597   2.380   0.367   2.528 -0.7869 -0.1847 -2.4227
  200SOL     OW  598   3.095   2.882   0.798 -0.3805 -0.1289 -0.3765
  200SOL    HW1  599   3.029   2.880   0.720  1.5458 -0.9550  1.9888
  200SOL    HW2  600   3.125   2.976   0.819  0.5493 -0.8489  2.0719
  201SOL     OW  601   1.145   0.686   0.539 -0.0390  0.1314 -0.1922
  201SOL    HW1  602   1.137   0.768   0.609 -0.7188 -1.0278  0.2699
  201SOL    HW2  603   1.051   0.656   0.509  0.7072  0.6563 -0.4995
  202SOL     OW  604   0.447   1.204   1.774 -0.2308  0.1389 -0.0947
  202SOL    HW1  605   0.493   1.223   1.680 -0.9776  0.9692 -1.6275
  202SOL    HW2  606   0.469   1.112   1.819  0.2549  4.7941  1.3619
  203SOL     OW  607   0.611   0.219   1.513  0.3643  0.7275  0.0210
  203SOL    HW1  608   0.650   0.168   1.431 -0.8491 -1.4728  1.6552
  203SOL    HW2  609   0.597   0.162   1.594  1.9379 -0.4849 -2.8058
  204SOL     OW  610   2.072   1.864   3.024 -0.0059 -0.0674 -0.3085
  204SOL    HW1  611   2.092   1.766   2.996  0.9900 -0.2079  1.7032
  204SOL    HW2  612   2.032   1.926   2.950  1.1280  2.1435  3.0777
  205SOL     OW  613   1.859   1.866   0.109 -0.7136 -0.1454 -0.4189
  205SOL    HW1  614   1.952   1.869   0.055 -0.1561 -0.5392  0.2890
  205SOL    HW2  615   1.783   1.912   0.057  2.5768 -2.4766 -0.1344
  206SOL     OW  616   2.502   2.818   0.387  0.2110  0.5253 -0.2545
  206SOL    HW1  617   2.568   2.740   0.396 -0.1077  1.2618  0.3797
  206SOL    HW2  618   2.529   2.892   0.318 -0.1883 -2.3139 -0.2411
  207SOL     OW  619   0.559   1.729   2.853  0.2193 -0.2397  0.3742
  207SOL    HW1  620   0.659   1.736   2.831 -1.2920 -1.8418  1.3143
  207SOL    HW2  621   0.543   1.660   2.926  0.2435  0.9133  0.7860
  208SOL     OW  622   1.028   1.467   1.389 -0.0956  0.0434  0.8308
  208SOL    HW1  623   0.946   1.514   1.339 -0.6354  2.1847 -0.0527
  208SOL    HW2  624   1.074   1.533   1.456 -0.3861 -0.2761  0.7782
  209SOL     OW  625   0.143   0.935   3.083  0.2464 -0.0968 -0.1894
  209SOL    HW1  626   0.212   0.896   3.012 -1.9208 -0.7653 -1.4219
  209SOL    HW2  627   0.150   0.885   3.173 -0.2090 -0.1517  1.7439
  210SOL     OW  628   1.710   0.468   1.152 -0.3536  0.5502 -0.2525
  210SOL    HW1  629   1.651   0.544   1.116  1.6925 -0.6302 -0.6278
  210SOL    HW2  630   1.808   0.475   1.120  2.9429 -0.8859 -0.3827
  211SOL     OW  631   2.115   1.040   1.679  0.2173 -0.2907  0.2810
  211SOL    HW1  632   2.155   0.989   1.761 -0.1459 -0.7610  1.3843
  211SOL    HW2  633   2.183   1.090   1.626 -4.9333 -2.7256 -1.3511
  212SOL     OW  634   0.031   1.006   1.446 -0.1781  0.4518  0.1127
  212SOL    HW1  635   0.081   1.091   1.468  0.0524 -0.8079 -0.2131
  212SOL    HW2  636   0.042   0.942   1.529  2.8853  0.2997  1.4649
  213SOL     OW  637   2.712   0.301   0.258 -0.6320  0.4807 -0.2601
  213SOL    HW1  638   2.796   0.245   0.232  2.7829  0.1635 -1.5127
  213SOL    HW2  639   2.727   0.398   0.234 -1.6893 -0.3431  0.4090
  214SOL     OW  640   2.181   0.283   2.284  0.3046 -0.4232  0.4320
  214SOL    HW1  641   2.207   0.331   2.372 -1.2268 -0.5497 -2.6701
  214SOL    HW2  642   2.122   0.199   2.300  0.4838 -0.1502  2.0278
  215SOL     OW  643   1.669   2.298   2.047 -0.5854 -0.2259 -0.2429
  215SOL    HW1  644   1.771   2.317   2.054  0.6876  1.7986 -1.2181
  215SOL    HW2  645   1.629   2.341   2.132  2.7382  0.1505  0.4256
  216SOL     OW  646   2.241   0.522   0.648 -0.0907 -0.1727 -0.2774
  216SOL    HW1  647   2.183   0.459   0.598  0.2180 -0.2038 -1.5869
  216SOL    HW2  648   2.253   0.616   0.605  0.7401 -1.4841  0.4114
  217SOL     OW  649   0.761   2.800   2.415 -0.2000  0.5220 -0.1079
  217SOL    HW1  650   0.737   2.707   2.449 -0.0644  3.7286 -1.0297
  217SOL    HW2  651   0.802   2.788   2.322 -1.5146 -0.4140 -0.0507
  218SOL     OW  652   1.923   1.447   0.035  0.1604  0.2125  0.7788
  218SOL    HW1  653   1.842   1.482  -0.024 -2.0157 -0.2255 -1.0578
  218SOL    HW2  654   1.907   1.344   0.055 -2.1839 -2.4006  1.3188
  219SOL     OW  655   2.388   1.315   2.571 -0.0265  0.1099 -0.0859
  219SOL    HW1  656   2.404   1.261   2.479  3.7316  0.1528 -2.7930
  219SOL    HW2  657   2.405   1.253   2.651 -2.2007  1.0323 -1.9452
  220SOL     OW  658   1.415   1.040   1.251 -0.3983 -0.4303  0.3562
  220SOL    HW1  659   1.506   1.025   1.301  3.9920  0.7027 -1.0629
  220SOL    HW2  660   1.380   1.139   1.252 -0.8318  1.3352 -0.1988
  221SOL     OW  661   1.306   1.136   2.140 -0.0956  0.9184 -0.2427
  221SOL    HW1  662   1.256   1.222   2.109  0.8069  1.7725 -0.1028
  221SOL    HW2  663   1.408   1.134   2.112  0.5764 -0.0766  0.2803
  222SOL     OW  664   1.284   0.120   1.145 -0.4827 -1.0113  0.2369
  222SOL    HW1  665   1.350   0.094   1.071 -1.3290 -1.1511 -1.2561
  222SOL    HW2  666   1.326   0.110   1.237 -0.6725  1.0465 -0.8455
  223SOL     OW  667   2.893   0.820   1.975  0.3999 -0.0873  0.2740
  223SOL    HW1  668   2.903   0.802   2.077  0.4747 -2.9208 -0.8339
  223SOL    HW2  669   2.914   0.918   1.946 -0.2662 -0.2253  1.3364
  224SOL     OW  670   1.572   1.024   2.783  0.0679 -0.3253  0.0918
  224SOL    HW1  671   1.610   0.955   2.712  2.7109 -2.2787 -2.8633
  224SOL    HW2  672   1.549   1.120   2.742 -2.6891 -2.6423  0.2418
  225SOL     OW  673   2.985   2.795   2.933  0.6611 -0.0742 -0.0043
  225SOL    HW1  674   2.957   2.716   2.871 -0.1855  0.8819  1.4757
  225SOL    HW2  675   3.037   2.869   2.875  1.4154  2.1501  0.4130
  226SOL     OW  676   2.454   1.682   2.850 -0.1348 -0.7208  0.4391
  226SOL    HW1  677   2.496   1.638   2.768  1.0637  0.7504 -1.2430
  226SOL    HW2  678   2.403   1.610   2.901  1.3035 -2.1311 -0.8222
  227SOL     OW  679   0.791   0.133   2.976  0.4431 -0.1362 -0.2218
  227SOL    HW1  680   0.842   0.086   3.053  0.5591  0.7946  0.2168
  227SOL    HW2  681   0.845   0.120   2.885  1.9037  1.6956  0.1128
  228SOL     OW  682   2.358   0.561   2.787 -0.1228  0.0339 -0.1157
  228SOL    HW1  683   2.321   0.620   2.710  0.4654  3.0645  3.1865
  228SOL    HW2  684   2.462   0.542   2.777  1.2150  1.5417  1.4494
  229SOL     OW  685   0.596   0.498   1.885 -0.1771 -0.3589 -0.2290
  229SOL    HW1  686   0.621   0.497   1.789 -0.2979  0.3788 -0.5881
  229SOL    HW2  687   0.655   0.577   1.924 -1.4538  3.1577  0.1015
  230SOL     OW  688   1.931   1.230   2.139 -0.1425  0.4189 -0.1217
  230SOL    HW1  689   1.990   1.263   2.062  0.5570 -1.4445  0.8097
  230SOL    HW2  690   1.839   1.281   2.136 -1.7763 -0.6930  0.0451
  231SOL     OW  691   0.625   1.050   2.952 -0.3736 -0.3668  0.4198
  231SOL    HW1  692   0.713   1.112   2.953  1.1978 -1.3269 -0.6398
  231SOL    HW2  693   0.562   1.072   3.034 -1.0960  0.3443 -2.4956
  232SOL     OW  694   2.549   0.036   2.741 -0.0426  0.2290  0.3114
  232SOL    HW1  695   2.563  -0.052   2.789 -0.3035  0.8650 -0.8627
  232SOL    HW2  696   2.545   0.030   2.638  1.3184 -0.6878  0.2962
  233SOL     OW  697   1.738   1.276   1.044 -0.1184  0.0350  0.0985
  233SOL    HW1  698   1.763   1.311   0.952 -0.0674 -2.2797  1.0911
  233SOL    HW2  699   1.797   1.194   1.068  3.1115  0.0296 -0.3935
  234SOL     OW  700   1.630   2.631   1.871 -0.1210  0.5904 -0.7682
  234SOL    HW1  701   1.651   2.681   1.958 -0.2249  0.3566 -2.2875
  234SOL    HW2  702   1.572   2.548   1.890  1.8579  0.4901 -1.0824
  235SOL     OW  703   0.029   3.003   2.815  0.3346 -0.1400  0.2414
  235SOL    HW1  704   0.111   3.057   2.781 -0.5879  2.3876 -3.6748
  235SOL    HW2  705  -0.037   3.059   2.872  0.1686 -2.0040  0.0507
  236SOL     OW  706   2.820   0.685   0.031 -0.4214  0.3876 -0.0889
  236SOL    HW1  707   2.861   0.734   0.115  0.8384  2.1843  0.0450
  236SOL    HW2  708   2.894   0.623  -0.014  1.1065  1.2270  0.9864
  237SOL     OW  709   1.502   1.658   1.024 -0.0330 -0.1295  0.1870
  237SOL    HW1  710   1.607   1.654   1.034  0.9507  0.1120 -1.4457
  237SOL    HW2  711   1.456   1.697   1.104 -0.1915 -0.3817  0.4556
  238SOL     OW  712   1.769   1.349   0.773 -0.1380  0.4683 -0.0537
  238SOL    HW1  713   1.860   1.356   0.724 -1.1946 -0.4403 -2.3220
  238SOL    HW2  714   1.697   1.363   0.706  1.6147 -0.2094  0.4328
  239SOL     OW  715   2.125   0.278   2.712 -0.3475 -0.0692  0.3668
  239SOL    HW1  716   2.206   0.273   2.778 -1.4393 -3.9612  1.3378
  239SOL    HW2  717   2.049   0.336   2.743  0.8981 -1.6198 -0.2668
  240SOL     OW  718   0.865   0.698   0.210 -0.1794 -0.1755 -0.8110
  240SOL    HW1  719   0.851   0.605   0.172 -0.6474  0.1562  0.9779
  240SOL    HW2  720   0.871   0.679   0.316 -2.0194 -0.7614  2.6224
  241SOL     OW  721   0.560   0.040   0.329  0.5711 -0.5150 -0.1561
  241SOL    HW1  722   0.575   0.011   0.228 -1.5939 -0.2861 -4.7815
  241SOL    HW2  723   0.483  -0.005   0.376  2.1485  4.2698 -1.5739
  242SOL     OW  724   0.699   2.395   1.108 -0.1883  0.0937 -0.4498
  242SOL    HW1  725   0.685   2.475   1.175  1.5741  0.0268 -0.6053
  242SOL    HW2  726   0.793   2.398   1.070 -1.8903  0.4231  1.1528
  243SOL     OW  727   1.083   0.610   2.473 -0.0478 -0.2063 -0.3186
  243SOL    HW1  728   1.017   0.678   2.425 -0.0754 -1.1583 -0.0758
  243SOL    HW2  729   1.031   0.535   2.526 -0.6863 -0.9245 -0.6654
  244SOL     OW  730   2.809   1.973   2.384 -0.3723 -0.7396 -0.2632
  244SOL    HW1  731   2.849   1.960   2.292 -0.7869 -2.1351  1.3387
  244SOL    HW2  732   2.706   1.951   2.387  2.0549 -2.7401  0.1493
  245SOL     OW  733   2.456   0.722   2.163 -0.1264  0.4111  0.1090
  245SOL    HW1  734   2.481   0.767   2.252 -1.7882  1.0192 -0.2604
  245SOL    HW2  735   2.534   0.670   2.123  2.9668  2.2316  0.2635
  246SOL     OW  736   0.210   2.870   1.740 -0.1351  0.1618 -0.2780
  246SOL    HW1  737   0.150   2.844   1.656 -0.5232 -0.5772 -1.3444
  246SOL    HW2  738   0.282   2.936   1.708 -0.4880 -0.4664  1.7178
  247SOL     OW  739   2.196   0.528   3.004 -0.0344 -0.0114 -0.1762
  247SOL    HW1  740   2.273   0.547   2.933 -0.8474  0.9026 -0.3461
  247SOL    HW2  741   2.126   0.601   3.010 -0.1197  0.2663 -0.4854
  248SOL     OW  742   2.173   1.896   1.613  0.0220  0.6499  0.0834
  248SOL    HW1  743   2.228   1.824   1.663  1.2245  0.7750 -0.7340
  248SOL    HW2  744   2.071   1.887   1.632 -0.1993 -1.9143 -0.3539
  249SOL     OW  745   2.006   1.921   1.948 -0.2442 -0.3263  0.0519
  249SOL    HW1  746   1.975   1.884   1.853  1.5949  0.8903 -1.4115
  249SOL    HW2  747   2.086   1.986   1.945  0.7972  0.6630 -0.2098
  250SOL     OW  748   1.005   0.652   1.869 -0.2573 -0.1459 -0.3123
  250SOL    HW1  749   1.080   0.620   1.931  0.3089 -3.1266 -0.1596
  250SOL    HW2  750   1.012   0.605   1.777 -0.8188 -2.7891  2.4484
  251SOL     OW  751   3.022   1.543   2.571 -0.3908  0.1590 -0.1979
  251SOL    HW1  752   3.022   1.647   2.557 -2.8465  1.4941  0.4956
  251SOL    HW2  753   2.927   1.501   2.561 -0.2190 -1.8429 -1.8018
  252SOL     OW  754   1.548   0.862   1.589  0.2447  0.3773 -0.0917
  252SOL    HW1  755   1.613   0.933   1.547 -1.5236  2.0510  1.3692
  252SOL    HW2  756   1.502   0.905   1.670  0.0779  0.1682 -0.8303
  253SOL     OW  757   1.001   1.530   0.388  0.3640 -0.2633 -0.2534
  253SOL    HW1  758   1.092   1.519   0.343 -4.8506  1.9661  2.7792
  253SOL    HW2  759   0.922   1.478   0.342 -3.4803  1.2157  1.1463
  254SOL     OW  760   1.983   2.146   1.598  0.0325  0.1758  0.0704
  254SOL    HW1  761   1.944   2.084   1.524 -0.2345 -1.2981 -1.3860
  254SOL    HW2  762   1.911   2.185   1.660  0.4357 -2.5146 -0.1830
  255SOL     OW  763   0.124   1.145   2.908 -0.1798  0.6302 -0.7027
  255SOL    HW1  764   0.182   1.227   2.938 -2.9888  0.3301 -2.2580
  255SOL    HW2  765   0.134   1.071   2.976 -0.6743  0.2494 -0.2282
  256SOL     OW  766   2.736   1.324   1.846 -0.0732 -0.0210  0.7051
  256SOL    HW1  767   2.690   1.372   1.771  0.7019 -0.9992  0.1852
  256SOL    HW2  768   2.680   1.252   1.895  0.8379 -0.2387 -0.8156
  257SOL     OW  769   0.843   0.245   1.873 -0.2742 -0.0737  0.6297
  257SOL    HW1  770   0.899   0.306   1.808 -0.6630  0.0744  0.3596
  257SOL    HW2  771   0.877   0.146   1.871 -0.6028  0.2388 -3.0212
  258SOL     OW  772   2.944   1.263   0.423  0.3466 -0.6057  0.3087
  258SOL    HW1  773   2.880   1.339   0.405  0.5622 -0.9468 -1.4860
  258SOL    HW2  774   2.993   1.271   0.514 -2.0726  0.1027 -2.4453
  259SOL     OW  775   0.518   2.876   2.992 -0.2287  0.2401 -0.2692
  259SOL    HW1  776   0.477   2.821   3.071 -0.5464 -1.3784 -1.5946
  259SOL    HW2  777   0.474   2.837   2.903 -1.0936  0.2681  0.2284
  260SOL     OW  778   2.645   0.736   2.700 -0.0194 -0.4196  0.8667
  260SOL    HW1  779   2.565   0.796   2.675  0.1533 -1.8351  1.4786
  260SOL    HW2  780   2.612   0.651   2.748 -1.5412 -0.8102 -0.7064
  261SOL     OW  781   2.707   1.315   1.305 -0.0935  0.1986 -0.2632
  261SOL    HW1  782   2.664   1.232   1.262 -0.0700 -0.2533  0.3356
  261SOL    HW2  783   2.809   1.307   1.311 -0.8209  0.1450  0.9599
  262SOL     OW  784   1.491   2.941   2.038 -0.5198 -0.2972 -0.1602
  262SOL    HW1  785   1.488   3.021   1.969 -2.0563  1.2073 -0.4999
  262SOL    HW2  786   1.434   2.862   2.006  0.6289  0.5470  1.3109
  263SOL     OW  787   0.872   0.750   2.348 -0.6503 -0.0695 -0.0297
  263SOL    HW1  788   0.795   0.689   2.313  1.3216  0.5880  2.2024
  263SOL    HW2  789   0.881   0.838   2.291 -3.3694 -1.6903 -0.8172
  264SOL     OW  790   2.275   0.775   0.513 -0.2519  0.0514  0.0891
  264SOL    HW1  791   2.183   0.794   0.472  0.8836 -0.9106  0.6854
  264SOL    HW2  792   2.346   0.847   0.508  0.6501  1.5402  1.8235
  265SOL     OW  793   0.873   2.327   2.689 -0.5574  0.4116  0.1421
  265SOL    HW1  794   0.922   2.392   2.757  0.9179 -0.6772 -0.7048
  265SOL    HW2  795   0.826   2.254   2.740 -2.0702 -1.9494 -0.2052
  266SOL     OW  796   1.305   1.742   0.019  0.6243 -0.3461 -0.0894
  266SOL    HW1  797   1.225   1.804   0.055  0.7151 -1.5100  1.5330
  266SOL    HW2  798   1.397   1.762   0.068 -1.5599 -0.5989  2.9245
  267SOL     OW  799   1.096   0.029   2.322 -0.0636  0.1371  0.4985
  267SOL    HW1  800   1.126  -0.055   2.273 -2.7729  1.3870 -1.5080
  267SOL    HW2  801   1.034   0.090   2.267 -1.7862 -0.7483  1.4038
  268SOL     OW  802   0.588   1.127   1.083 -0.2429 -0.1488 -0.1712
  268SOL    HW1  803   0.616   1.159   1.176  1.1423 -1.5281 -3.2758
  268SOL    HW2  804   0.607   1.190   1.007 -1.8932  1.4096  0.6786
  269SOL     OW  805   2.458   2.578   1.568  0.2841 -0.6049  0.4066
  269SOL    HW1  806   2.522   2.497   1.566  0.1235 -1.6195  0.0992
  269SOL    HW2  807   2.402   2.576   1.653 -0.2370  0.0498 -0.5261
  270SOL     OW  808   0.307   2.774   2.022 -0.7286  0.4032 -0.3051
  270SOL    HW1  809   0.232   2.830   1.976 -1.9773  0.7472  2.1476
  270SOL    HW2  810   0.278   2.677   2.043 -2.3363  0.0098  1.5869
  271SOL     OW  811   0.413   1.372   1.145  0.8129  0.1576  0.8296
  271SOL    HW1  812   0.360   1.371   1.055 -2.0757 -1.6301  0.8514
  271SOL    HW2  813   0.345   1.405   1.218  0.8592 -1.5547 -1.7121
  272SOL     OW  814   1.986   2.842   1.907 -0.0384  0.5682  0.2764
  272SOL    HW1  815   1.914   2.834   1.834  1.4832 -1.1036  3.0622
  272SOL    HW2  816   2.067   2.899   1.883 -0.4634 -0.2037 -1.1758
  273SOL     OW  817   1.403   1.447   2.889  0.1052  0.2487 -0.4847
  273SOL    HW1  818   1.489   1.429   2.945 -1.4453  0.3679  0.3783
  273SOL    HW2  819   1.322   1.441   2.951  1.0566  0.9578 -1.1802
  274SOL     OW  820   1.141   0.490   2.060  0.4745  0.2436 -0.1709
  274SOL    HW1  821   1.177   0.405   2.008  0.8268 -4.1262 -1.6889
  274SOL    HW2  822   1.192   0.506   2.148  1.1684 -0.5880 -2.3826
  275SOL     OW  823   0.649   2.065   1.924 -0.1970  0.5949 -0.1307
  275SOL    HW1  824   0.616   2.151   1.977 -0.8834 -0.4901  0.6259
  275SOL    HW2  825   0.565   2.015   1.885  1.3592  1.3510  1.9502
  276SOL     OW  826   2.145   0.970   2.783  0.0831  0.7306  0.2307
  276SOL    HW1  827   2.069   0.984   2.711 -2.1291  2.1970  0.9113
  276SOL    HW2  828   2.107   0.981   2.875  2.2849  2.1027 -0.8434
  277SOL     OW  829   2.997   0.817   0.215 -0.1815  0.1202  0.0244
  277SOL    HW1  830   3.069   0.848   0.146 -2.1639  3.0659 -4.1356
  277SOL    HW2  831   3.013   0.746   0.288 -0.2949 -1.1897  0.3871
  278SOL     OW  832   0.206   0.289   2.928 -0.2936 -0.4101 -0.1997
  278SOL    HW1  833   0.258   0.213   2.977 -1.5603  2.8341  0.5244
  278SOL    HW2  834   0.228   0.383   2.971  2.0579 -0.1208  1.1356
  279SOL     OW  835   0.134   0.001   0.878  0.0853 -0.5516 -0.0542
  279SOL    HW1  836   0.160   0.036   0.972  0.4714  2.2698 -0.1673
  279SOL    HW2  837   0.204   0.029   0.806 -1.5514  1.8081  0.6843
  280SOL     OW  838   1.655   2.932   2.502 -0.5971 -0.1642  0.2085
  280SOL    HW1  839   1.734   2.998   2.522  1.1308 -2.6033 -3.3323
  280SOL    HW2  840   1.556   2.968   2.517  2.4016  0.0575  0.5804
  281SOL     OW  841   0.637   0.979   2.319 -0.1950 -0.5688  0.1381
  281SOL    HW1  842   0.585   0.895   2.297  0.7547  0.0043  1.6407
  281SOL    HW2  843   0.672   0.978   2.416  1.1883 -1.7763 -0.9076
  282SOL     OW  844   1.639   2.491   0.554 -0.1452 -0.2801 -0.3248
  282SOL    HW1  845   1.636   2.423   0.476  0.2385 -1.4211  0.6548
  282SOL    HW2  846   1.643   2.592   0.531 -2.2235 -1.8683  0.4012
  283SOL     OW  847   1.104   0.936   0.693  0.8420 -0.0492  0.2390
  283SOL    HW1  848   1.151   0.889   0.774 -0.8655 -1.2979 -1.2273
  283SOL    HW2  849   1.040   1.007   0.719  2.1898 -0.0849 -0.1121
  284SOL     OW  850   2.251   2.830   2.408  0.4626 -0.1869 -0.0366
  284SOL    HW1  851   2.276   2.871   2.503  1.2543  1.1280 -0.1725
  284SOL    HW2  852   2.261   2.894   2.331  2.0567 -4.7387  1.2921
  285SOL     OW  853   1.399   3.050   2.547  0.1961 -0.0305 -0.1393
  285SOL    HW1  854   1.409   3.059   2.444  2.1654 -0.1639  2.6341
  285SOL    HW2  855   1.312   3.094   2.581 -1.6478  1.6470 -0.5868
  286SOL     OW  856   0.418   0.494   0.632  0.2402  0.3632  0.0391
  286SOL    HW1  857   0.405   0.453   0.733  0.6359 -0.2768  1.3288
  286SOL    HW2  858   0.410   0.423   0.554 -0.2437 -1.9359  0.5767
  287SOL     OW  859   0.062   1.324   2.524  0.5955  0.5707 -0.6816
  287SOL    HW1  860   0.025   1.244   2.587  2.8041 -0.1553 -0.9779
  287SOL    HW2  861   0.000   1.409   2.528  0.3677  0.4445  1.1432
  288SOL     OW  862   1.589   2.589   1.464  0.0805  0.5237 -0.4203
  288SOL    HW1  863   1.688   2.577   1.486  1.4154  1.2782 -1.3692
  288SOL    HW2  864   1.570   2.600   1.355 -1.6387  2.0456 -2.6355
  289SOL     OW  865   0.643   2.724   0.820  0.4087  0.1981  0.2307
  289SOL    HW1  866   0.669   2.814   0.771  3.6824  1.1497  1.5617
  289SOL    HW2  867   0.679   2.729   0.917 -0.7601  0.1899 -1.1412
  290SOL     OW  868   2.957   1.236   1.687  0.4563 -0.1937 -0.2503
  290SOL    HW1  869   2.872   1.250   1.742  0.1823 -1.4456 -2.4883
  290SOL    HW2  870   3.019   1.166   1.727 -0.8455 -1.6005  1.4360
  291SOL     OW  871   1.970   0.043   0.064 -0.4895  0.5489 -0.4550
  291SOL    HW1  872   2.006   0.025   0.162 -0.7266 -2.4925 -0.0138
  291SOL    HW2  873   2.032   0.112   0.018  1.9927 -0.7217 -1.5039
  292SOL     OW  874   2.971   1.162   3.069 -0.3031 -0.1606 -0.0245
  292SOL    HW1  875   2.901   1.223   3.021 -0.3175 -1.9037 -1.2693
  292SOL    HW2  876   3.060   1.160   3.015  1.2043  2.0078  0.8231
  293SOL     OW  877   0.566   2.059   0.166  0.6852 -0.2745 -0.0769
  293SOL    HW1  878   0.542   2.114   0.253  0.6571  0.6313  0.9026
  293SOL    HW2  879   0.670   2.031   0.173  2.1051 -0.3543  2.1284
  294SOL     OW  880   1.671   2.128   1.850  0.4253  0.3828  0.2899
  294SOL    HW1  881   1.666   2.198   1.929  2.2543  0.5196 -1.3161
  294SOL    HW2  882   1.693   2.182   1.761 -0.5044  2.7789 -1.4650
  295SOL     OW  883   0.958   1.189   0.423 -0.2009 -0.3501 -0.0579
  295SOL    HW1  884   1.049   1.182   0.461 -1.9568  1.7383 -0.6502
  295SOL    HW2  885   0.880   1.198   0.489  1.2455  0.7389 -1.4142
  296SOL     OW  886   1.277   2.083   2.530  0.0155 -0.1185  0.0773
  296SOL    HW1  887   1.241   2.158   2.465 -0.5654  0.4608 -2.9892
  296SOL    HW2  888   1.320   1.997   2.497 -0.3168  0.8064  3.8218
  297SOL     OW  889   1.526   0.709   1.343  0.0009 -0.1465 -0.4645
  297SOL    HW1  890   1.592   0.640   1.386 -1.9358  0.0796  2.5967
  297SOL    HW2  891   1.511   0.790   1.409 -2.2657  2.3287 -1.7280
  298SOL     OW  892   0.523   1.292   2.837 -0.5728 -0.4897  0.1931
  298SOL    HW1  893   0.551   1.199   2.878  2.2645  1.4559  1.5481
  298SOL    HW2  894   0.588   1.319   2.762  1.0557  1.1081 -0.3279
  299SOL     OW  895   0.378   0.360   1.470  0.3397 -0.5405 -0.3507
  299SOL    HW1  896   0.388   0.436   1.402  2.1428 -1.1419  0.8153
  299SOL    HW2  897   0.467   0.310   1.489  0.6090  0.5006 -0.8285
  300SOL     OW  898   1.232   1.786   2.866 -0.3948 -0.2937  0.0012
  300SOL    HW1  899   1.246   1.714   2.790 -0.3518 -1.4774 -1.0445
  300SOL    HW2  900   1.251   1.753   2.961 -0.5280  2.0792 -0.6456
  301SOL     OW  901   0.459   0.271   0.421  0.2223 -0.3622  0.3560
  301SOL    HW1  902   0.361   0.254   0.408  0.2785  0.2767  3.4819
  301SOL    HW2  903   0.515   0.206   0.362 -1.1287  1.7238 -1.8499
  302SOL     OW  904   1.192   2.291   2.352  0.3906  0.3189  0.0944
  302SOL    HW1  905   1.143   2.370   2.398  1.8537 -2.4371 -3.5481
  302SOL    HW2  906   1.130   2.224   2.303  1.8557 -2.4383 -0.6605
  303SOL     OW  907   0.927   2.391   0.793 -0.2173 -0.2245  0.3505
  303SOL    HW1  908   0.970   2.453   0.720 -3.1963 -1.2330 -1.0149
  303SOL    HW2  909   0.942   2.426   0.888  0.5934 -0.6383 -0.5187
  304SOL     OW  910   0.073   2.038   0.680  0.2623  0.4845  0.0420
  304SOL    HW1  911   0.110   1.963   0.613  2.0221 -2.9450 -0.8609
  304SOL    HW2  912   0.038   2.123   0.639  1.4539  0.3190  0.2540
  305SOL     OW  913   1.631   0.883   0.700 -0.1480 -0.0346 -0.3719
  305SOL    HW1  914   1.557   0.901   0.631 -1.3039  1.4680  2.0592
  305SOL    HW2  915   1.706   0.821   0.661  0.7664  0.6823  1.6557
  306SOL     OW  916   0.418   1.879   1.928 -0.2609 -0.9244  0.1049
  306SOL    HW1  917   0.493   1.824   1.877  1.5519 -1.5896  0.6865
  306SOL    HW2  918   0.423   1.851   2.028  2.3696  0.4866 -1.5429
  307SOL     OW  919   0.007   0.859   2.530  0.4152  0.0208  0.0139
  307SOL    HW1  920   0.026   0.958   2.562  1.1489  0.9279  0.7673
  307SOL    HW2  921  -0.086   0.816   2.552  1.0659  0.3212  2.2913
  308SOL     OW  922   1.570   2.688   2.821 -0.1715  0.6388  0.1298
  308SOL    HW1  923   1.591   2.632   2.733 -0.0451  0.5008 -2.6317
  308SOL    HW2  924   1.490   2.650   2.867 -0.6856  1.0364 -1.3764
  309SOL     OW  925   1.246   0.031   1.804  0.1200 -0.0176 -0.4632
  309SOL    HW1  926   1.339   0.033   1.849 -1.5276 -2.7979  0.5432
  309SOL    HW2  927   1.258   0.041   1.707 -1.1877 -1.9095  3.1712
  310SOL     OW  928   1.323   2.684   0.734 -0.6887 -0.0295  0.2339
  310SOL    HW1  929   1.266   2.769   0.764 -0.0654  2.5842  2.3598
  310SOL    HW2  930   1.360   2.703   0.639  0.7668  0.5198 -2.2081
  311SOL     OW  931   1.223   0.960   1.437 -0.5676 -0.7215  0.0195
  311SOL    HW1  932   1.292   0.954   1.356  2.6985  0.8996 -1.6529
  311SOL    HW2  933   1.239   1.049   1.483  0.9875  0.2247 -0.8034
  312SOL     OW  934   1.562   0.687   1.029 -0.2635  0.1097 -0.3270
  312SOL    HW1  935   1.527   0.781   1.050 -0.7963  0.2507 -1.1119
  312SOL    HW2  936   1.499   0.632   0.972  0.4161 -0.3546  1.6045
  313SOL     OW  937   1.595   1.459   0.532 -0.5738 -0.0483  0.9077
  313SOL    HW1  938   1.508   1.487   0.486 -1.2319 -0.0095 -0.0515
  313SOL    HW2  939   1.593   1.356   0.539 -0.1292  0.9103  1.5720
  314SOL     OW  940   2.923   0.072   3.005 -0.3040 -0.8037 -0.1604
  314SOL    HW1  941   2.949   0.096   3.105  2.8803  0.0081  0.8616
  314SOL    HW2  942   2.868  -0.017   3.003  1.4922 -2.5636  1.0418
  315SOL     OW  943   1.247   0.235   2.773 -0.0956 -0.4899 -0.1715
  315SOL    HW1  944   1.202   0.175   2.700  0.7070  0.3999  0.9939
  315SOL    HW2  945   1.247   0.193   2.867  1.4699 -0.8561  0.2752
  316SOL     OW  946   1.683   2.063   0.917 -0.5699 -0.0414  0.1355
  316SOL    HW1  947   1.633   2.071   1.005  0.7889 -0.5682 -2.9119
  316SOL    HW2  948   1.702   2.149   0.864  1.7640  1.4316 -1.7735
  317SOL     OW  949   1.151   0.718   2.822 -0.4493 -0.3944  0.2472
  317SOL    HW1  950   1.099   0.755   2.905  1.5206  2.2293  1.3691
  317SOL    HW2  951   1.119   0.624   2.790 -0.1305  0.4651  0.6820
  318SOL     OW  952   1.402   3.078   2.262  0.1964 -0.1356  0.1907
  318SOL    HW1  953   1.318   3.127   2.221 -1.7621 -1.2877 -2.0204
  318SOL    HW2  954   1.451   3.029   2.183 -0.6872  2.3346  1.0288
  319SOL     OW  955   0.636   2.386   2.931 -0.3949 -0.5650  0.2766
  319SOL    HW1  956   0.545   2.354   2.965  1.1345  0.7374 -2.1142
  319SOL    HW2  957   0.704   2.307   2.929 -0.7633  2.0984  0.1578
  320SOL     OW  958   1.595   2.266   0.393  0.0605 -0.0081 -0.2476
  320SOL    HW1  959   1.690   2.241   0.433  0.8036  1.7987 -0.0981
  320SOL    HW2  960   1.514   2.239   0.456 -2.5651  1.7510  2.3280
  321SOL     OW  961   1.602   2.762   0.534 -0.2173 -0.3680 -0.0054
  321SOL    HW1  962   1.521   2.808   0.497 -0.6163 -1.2613 -1.1995
  321SOL    HW2  963   1.693   2.793   0.493  0.7575  4.1342  0.7329
  322SOL     OW  964   2.688   1.079   2.247 -0.0125  0.3291  0.2848
  322SOL    HW1  965   2.746   1.098   2.327 -0.1851 -2.2283  0.9805
  322SOL    HW2  966   2.618   1.010   2.281 -2.1065 -0.1600 -1.5130
  323SOL     OW  967   1.029   2.700   0.860  0.1220  0.0081  0.0123
  323SOL    HW1  968   1.042   2.669   0.763  1.5004 -0.8042 -0.1797
  323SOL    HW2  969   1.004   2.800   0.875  1.4358 -1.8191 -0.7375
  324SOL     OW  970   0.090   2.511   2.452  0.2462 -0.2462  0.1117
  324SOL    HW1  971   0.073   2.429   2.512  1.0925 -1.3940 -1.9993
  324SOL    HW2  972   0.039   2.590   2.495 -0.8917  0.2252  0.8020
  325SOL     OW  973   1.189   3.073   0.478  0.3759 -0.1042 -0.2896
  325SOL    HW1  974   1.221   3.126   0.393  1.5778  2.0016  1.7355
  325SOL    HW2  975   1.218   3.123   0.568  2.5331 -0.3808 -3.6499
  326SOL     OW  976   2.345   0.769   0.036  0.5288 -0.4634 -0.6230
  326SOL    HW1  977   2.248   0.771  -0.004 -1.3550 -2.5368  0.6231
  326SOL    HW2  978   2.371   0.674   0.074  2.3263 -0.6042 -0.0412
  327SOL     OW  979   2.687   0.399   0.535  0.1873 -0.0879  0.0118
  327SOL    HW1  980   2.681   0.335   0.453 -0.6037  0.3476 -0.4753
  327SOL    HW2  981   2.607   0.381   0.601 -0.6949 -0.9644  0.2001
  328SOL     OW  982   2.498   0.636   0.377 -0.4890 -0.2384  0.3922
  328SOL    HW1  983   2.417   0.693   0.420 -2.4582 -1.5769  2.9262
  328SOL    HW2  984   2.527   0.553   0.436 -0.1743  0.6214  3.4896
  329SOL     OW  985   2.971   2.956   2.156  0.5160  0.3569 -0.0467
  329SOL    HW1  986   3.045   2.907   2.216 -1.0130 -0.8343  2.2750
  329SOL    HW2  987   2.987   3.058   2.141 -0.8579  3.0015 -0.5661
  330SOL     OW  988   0.552   0.196   1.845  0.5574 -0.2901  0.5916
  330SOL    HW1  989   0.534   0.294   1.873  0.7239 -0.4364  0.4622
  330SOL    HW2  990   0.648   0.170   1.871 -0.5884 -1.1751 -2.0885
  331SOL     OW  991   2.926   1.902   1.100  0.3784 -0.1463  0.4081
  331SOL    HW1  992   2.979   1.983   1.055 -1.1614 -1.1200  0.7020
  331SOL    HW2  993   2.864   1.935   1.178 -0.7896  0.1273  0.3084
  332SOL     OW  994   0.446   1.042   0.050  0.2353  0.0469 -0.1310
  332SOL    HW1  995   0.370   1.032  -0.017  1.4337 -0.4455  1.5375
  332SOL    HW2  996   0.418   1.115   0.125 -1.4222  0.9646 -1.5267
  333SOL     OW  997   2.857   1.056   0.257  0.1969  0.1308  0.0468
  333SOL    HW1  998   2.909   1.110   0.324 -0.5419 -1.0558  0.6751
  333SOL    HW2  999   2.900   0.965   0.237  0.1949  0.4585 -1.9235
  334SOL     OW 1000   1.634   1.156   1.911 -0.5604 -0.2636  0.0492
  334SOL    HW1 1001   1.723   1.131   1.854  2.0607 -2.3235 -3.6726
  334SOL    HW2 1002   1.657   1.243   1.964  0.5611  0.3472 -0.1186
  335SOL     OW 1003   1.988   2.797   2.614 -0.5134  0.3498  0.2587
  335SOL    HW1 1004   1.944   2.798   2.704 -0.6238  1.6847 -0.1284
  335SOL    HW2 1005   2.045   2.879   2.605  2.1320 -1.0756  0.2789
  336SOL     OW 1006   0.227   0.077   2.721  0.0226  0.3136  0.2814
  336SOL    HW1 1007   0.328   0.043   2.724  1.8663  1.7858  0.4050
  336SOL    HW2 1008   0.220   0.154   2.789  0.9834 -2.1061  1.2027
  337SOL     OW 1009   0.954   2.815   2.853 -0.4436  0.6159 -0.5239
  337SOL    HW1 1010   0.925   2.776   2.948  0.0271 -1.1823  0.4086
  337SOL    HW2 1011   1.050   2.778   2.823 -0.2796 -0.7666 -1.6264
  338SOL     OW 1012   0.026   1.004   0.603  0.7389 -0.0217  0.0343
  338SOL    HW1 1013  -0.063   0.984   0.647  1.2730 -1.6738 -0.6027
  338SOL    HW2 1014   0.042   1.106   0.618 -0.0126  1.6621 -0.7631
  339SOL     OW 1015   1.680   1.371   2.076  0.1727 -0.3878  0.1401
  339SOL    HW1 1016   1.582   1.407   2.078  0.6958  0.4771  0.0078
  339SOL    HW2 1017   1.741   1.447   2.051 -0.7600 -1.5500  2.2462
  340SOL     OW 1018   2.324   0.728   1.218  0.5255  0.0626 -0.2726
  340SOL    HW1 1019   2.230   0.761   1.187  1.2832  0.5120 -2.2014
  340SOL    HW2 1020   2.356   0.651   1.153  2.4049 -0.9724 -1.1127
  341SOL     OW 1021   1.884   2.187   0.441 -0.1044 -0.7219  0.2710
  341SOL    HW1 1022   1.896   2.193   0.337  0.9260  0.8326  3.0004
  341SOL    HW2 1023   1.978   2.182   0.494  0.6472  0.4767  1.5549
  342SOL     OW 1024   2.210   2.149   2.806 -0.3811  0.3709 -0.6466
  342SOL    HW1 1025   2.282   2.077   2.821  1.4093 -1.1299  0.8094
  342SOL    HW2 1026   2.115   2.110   2.826  1.4158  3.3633 -0.8636
  343SOL     OW 1027   0.336   0.890   2.864  0.0297 -0.0110 -0.4374
  343SOL    HW1 1028   0.316   0.942   2.779  1.9598 -0.0944 -0.5399
  343SOL    HW2 1029   0.433   0.852   2.873  3.6652  0.7458  0.8486
  344SOL     OW 1030   1.858   1.497   0.351  1.0773  0.3584  0.1699
  344SOL    HW1 1031   1.834   1.411   0.300 -0.4449  1.0077  1.3146
  344SOL    HW2 1032   1.811   1.581   0.311 -0.3709  0.0820 -1.7735
  345SOL     OW 1033   1.403   2.197   2.860 -0.0639 -0.1882 -0.1580
  345SOL    HW1 1034   1.315   2.177   2.811 -0.1384 -0.1214 -0.7366
  345SOL    HW2 1035   1.488   2.154   2.816 -0.1420  0.5785 -1.1616
  346SOL     OW 1036   2.433   0.901   1.406 -0.4412 -0.6214 -0.1956
  346SOL    HW1 1037   2.388   0.988   1.446  0.7771  1.6873 -0.8624
  346SOL    HW2 1038   2.382   0.861   1.326 -0.5651  0.7052  0.1521
  347SOL     OW 1039   0.688   2.814   1.503  0.7831  0.0151  0.3392
  347SOL    HW1 1040   0.673   2.766   1.597  2.7361  0.5443  0.5488
  347SOL    HW2 1041   0.622   2.896   1.494 -0.3942 -0.1874 -2.4961
  348SOL     OW 1042   0.074   0.692   2.826 -0.0172 -0.0551  0.4688
  348SOL    HW1 1043  -0.027   0.701   2.808  1.7482  0.5750  0.2782
  348SOL    HW2 1044   0.121   0.781   2.810  0.4623 -0.1064  2.0994
  349SOL     OW 1045   1.921   0.439   2.794 -0.0597 -0.4797  0.3602
  349SOL    HW1 1046   1.915   0.525   2.736  1.8031 -2.3678 -0.1855
  349SOL    HW2 1047   1.864   0.446   2.882  0.1601 -0.6893  0.7350
  350SOL     OW 1048   1.643   0.386   0.373 -0.1297 -0.2609 -0.0433
  350SOL    HW1 1049   1.711   0.391   0.450 -0.5006  2.8405  2.8994
  350SOL    HW2 1050   1.623   0.480   0.329 -0.0383  0.7983  3.6830
  351SOL     OW 1051   0.911   0.938   2.146 -0.3384  0.0403  0.0808
  351SOL    HW1 1052   0.920   1.032   2.100 -0.3923 -0.3680 -3.0017
  351SOL    HW2 1053   0.858   0.874   2.086 -0.2719  2.8445  0.5560
  352SOL     OW 1054   1.982   1.383   0.576 -0.1502 -0.1568  0.2420
  352SOL    HW1 1055   1.941   1.438   0.490  0.4902 -1.7300  0.9213
  352SOL    HW2 1056   2.082   1.408   0.593  1.4723 -2.5604  0.2343
  353SOL     OW 1057   2.127   2.831   1.174  0.0837  0.1566 -0.0480
  353SOL    HW1 1058   2.224   2.798   1.159  1.2067  0.5348 -2.7480
  353SOL    HW2 1059   2.060   2.783   1.112  0.2220  0.4384  2.1701
  354SOL     OW 1060   0.285   1.357   2.911 -0.0905 -0.0454 -0.2242
  354SOL    HW1 1061   0.255   1.432   2.846  1.4104  0.9285 -0.9868
  354SOL    HW2 1062   0.372   1.313   2.883 -0.7008 -0.9240  0.3408
  355SOL     OW 1063   0.462   1.486   0.572  0.4410 -0.0843  0.0268
  355SOL    HW1 1064   0.508   1.575   0.607 -2.2998  2.7951  0.7361
  355SOL    HW2 1065   0.531   1.407   0.557  1.7344 -0.6395  0.8145
  356SOL     OW 1066   0.874   0.444   2.083  0.3882  0.2579 -0.0782
  356SOL    HW1 1067   0.976   0.467   2.070  0.8664 -1.6602 -0.2794
  356SOL    HW2 1068   0.841   0.381   2.009  0.7785  1.6139  2.3169
  357SOL     OW 1069   1.064   1.281   0.174  0.1441  0.0377  0.7457
  357SOL    HW1 1070   1.036   1.253   0.076  0.5433 -1.8319 -0.4593
  357SOL    HW2 1071   1.010   1.239   0.254  0.8817  2.8873 -0.2694
  358SOL     OW 1072   1.634   1.654   0.323  0.6560 -0.2685  0.2729
  358SOL    HW1 1073   1.620   1.564   0.376 -1.0180 -1.5648  1.2198
  358SOL    HW2 1074   1.563   1.725   0.355 -1.6872 -0.8801  0.7337
  359SOL     OW 1075   1.565   2.709   0.158 -0.1979  0.0847  0.3648
  359SOL    HW1 1076   1.616   2.665   0.079  0.8495 -1.7624  0.2163
  359SOL    HW2 1077   1.471   2.674   0.164  2.6461  3.8576  2.4339
  360SOL     OW 1078   0.889   0.595   0.470  0.4230  0.1134  0.6108
  360SOL    HW1 1079   0.797   0.598   0.514  0.6441  2.9185  0.6076
  360SOL    HW2 1080   0.931   0.497   0.457 -0.9884  2.1379  0.9923
  361SOL     OW 1081   1.252   1.370   0.643 -0.1483  0.5344 -0.0481
  361SOL    HW1 1082   1.311   1.403   0.726 -0.9817  1.7140  2.3597
  361SOL    HW2 1083   1.154   1.404   0.655  0.9126 -1.0529  0.2178
  362SOL     OW 1084   1.394   1.759   0.770  0.1387  0.2181  0.1226
  362SOL    HW1 1085   1.396   1.710   0.859 -1.3217  1.6556  1.2926
  362SOL    HW2 1086   1.481   1.808   0.748  0.0143  1.2777  1.2462
  363SOL     OW 1087   1.139   1.351   2.023  0.2256  0.4128 -0.4601
  363SOL    HW1 1088   1.110   1.434   2.078 -0.7276  1.8951 -0.7755
  363SOL    HW2 1089   1.173   1.373   1.926  0.3505  0.9057 -1.0236
  364SOL     OW 1090   0.589   2.333   1.990  0.0250  0.0558 -0.6945
  364SOL    HW1 1091   0.485   2.345   1.985  1.3975 -2.5735 -0.4405
  364SOL    HW2 1092   0.635   2.373   1.908  1.9831  0.4021  1.2646
  365SOL     OW 1093   1.132   1.869   1.428 -0.0369  0.6733 -0.5937
  365SOL    HW1 1094   1.038   1.893   1.464 -0.5898  0.2914  1.7932
  365SOL    HW2 1095   1.143   1.766   1.421 -0.5257  0.7205 -1.2068
  366SOL     OW 1096   2.793   2.054   0.460 -0.3073 -0.3739  0.2005
  366SOL    HW1 1097   2.715   1.980   0.463 -0.1348  0.8007  0.1348
  366SOL    HW2 1098   2.884   2.011   0.445 -0.8579 -1.8271  0.4976
  367SOL     OW 1099   0.785   1.208   0.054 -0.1638  0.2083  0.2817
  367SOL    HW1 1100   0.760   1.125   0.114 -0.6572 -0.7110  1.7666
  367SOL    HW2 1101   0.839   1.196  -0.034 -1.4402 -0.0277 -2.6235
  368SOL     OW 1102   1.538   0.523   0.653  0.4959 -0.0260  0.9196
  368SOL    HW1 1103   1.474   0.556   0.578  2.3555  0.4785  0.4164
  368SOL    HW2 1104   1.636   0.515   0.617  0.9364 -0.2777  0.3362
  369SOL     OW 1105   0.305   1.683   0.092  0.0903 -0.0269  0.1194
  369SOL    HW1 1106   0.310   1.778   0.130 -3.2719 -1.7729 -2.5708
  369SOL    HW2 1107   0.221   1.630   0.112 -2.1846 -0.2812 -0.1979
  370SOL     OW 1108   0.466   2.133   0.976 -0.4545 -0.1742 -0.1585
  370SOL    HW1 1109   0.481   2.232   0.946  0.8699  0.3965 -0.6702
  370SOL    HW2 1110   0.366   2.105   0.980 -0.1420 -0.4227 -0.4691
  371SOL     OW 1111   2.922   2.226   2.786 -0.2522  0.0558  0.4340
  371SOL    HW1 1112   2.917   2.213   2.891  1.6975 -0.1397 -2.6200
  371SOL    HW2 1113   3.018   2.240   2.751 -0.0119  0.7284 -3.1988
  372SOL     OW 1114   0.899   1.890   0.997  0.1058 -0.0516 -0.2836
  372SOL    HW1 1115   0.835   1.969   1.017 -0.8441  1.3913 -0.8097
  372SOL    HW2 1116   0.977   1.914   0.932  1.1763 -2.0008  0.8239
  373SOL     OW 1117   1.941   1.969   0.936  0.1802  0.5996  0.0926
  373SOL    HW1 1118   1.990   2.002   1.019  0.3108  0.6107 -1.1019
  373SOL    HW2 1119   1.844   2.006   0.924  0.1384  0.0963  1.7782
  374SOL     OW 1120   1.829   0.404   0.578 -0.3467  0.0874 -0.0938
  374SOL    HW1 1121   1.823   0.352   0.671 -3.1059 -2.0378  0.6575
  374SOL    HW2 1122   1.915   0.398   0.529  0.0039 -0.6252 -1.1674
  375SOL     OW 1123   2.469   2.283   1.078 -0.1356 -0.1670 -0.1246
  375SOL    HW1 1124   2.496   2.218   1.004 -0.3544  3.4953 -0.2988
  375SOL    HW2 1125   2.466   2.232   1.169 -0.4708 -0.6181 -0.9553
  376SOL     OW 1126   3.080   0.636   1.431  0.4491  0.0435 -0.5104
  376SOL    HW1 1127   3.138   0.694   1.492 -1.4427  0.1279 -1.0851
  376SOL    HW2 1128   2.977   0.646   1.451 -2.3774 -1.1075  0.1065
  377SOL     OW 1129   2.234   2.833   0.345  0.5457  0.0794  0.4833
  377SOL    HW1 1130   2.198   2.924   0.303  0.7094 -1.1668 -4.5772
  377SOL    HW2 1131   2.334   2.825   0.363 -0.5221  0.1111  1.8935
  378SOL     OW 1132   1.890   1.857   2.662  0.3454 -0.0452  0.1972
  378SOL    HW1 1133   1.933   1.781   2.713 -1.2080  0.1267  2.2384
  378SOL    HW2 1134   1.855   1.835   2.569  2.1558  1.6495  0.3302
  379SOL     OW 1135   0.881   0.124   2.722 -0.1883 -0.2969  0.4687
  379SOL    HW1 1136   0.862   0.021   2.709 -2.0548 -0.2752  2.9951
  379SOL    HW2 1137   0.799   0.181   2.697  1.1728 -0.4495  0.0508
  380SOL     OW 1138   1.553   1.164   0.542 -0.3325 -0.0850 -0.0323
  380SOL    HW1 1139   1.537   1.096   0.469 -0.0013  2.7907  0.0274
  380SOL    HW2 1140   1.482   1.166   0.619 -0.2238  0.8277  0.4685
  381SOL     OW 1141   1.286   1.218   1.495 -0.1440 -0.2746 -0.1409
  381SOL    HW1 1142   1.309   1.283   1.415  0.0110  0.7627 -1.0408
  381SOL    HW2 1143   1.291   1.259   1.586 -0.1393  0.1638 -1.4197
  382SOL     OW 1144   1.781   0.806   0.261  0.4687 -0.0699  0.5673
  382SOL    HW1 1145   1.807   0.830   0.166 -0.8968 -2.3821  2.0543
  382SOL    HW2 1146   1.842   0.726   0.292  2.3928  0.9340  0.7834
  383SOL     OW 1147   2.683   0.997   1.564 -0.8064 -0.1077 -0.0499
  383SOL    HW1 1148   2.604   0.977   1.507  1.0253  1.4192  1.2315
  383SOL    HW2 1149   2.775   0.992   1.515  2.6724  0.5655 -0.3560
  384SOL     OW 1150   1.026   2.293   0.160 -0.1091 -0.1534  0.2569
  384SOL    HW1 1151   0.955   2.375   0.151 -2.2137 -0.6089 -1.2363
  384SOL    HW2 1152   1.001   2.229   0.233  1.6759 -1.4923 -0.2542
  385SOL     OW 1153   3.016   2.056   1.711 -0.5790 -0.3592  0.0595
  385SOL    HW1 1154   3.079   2.140   1.709  2.4220  1.5398 -1.3753
  385SOL    HW2 1155   3.065   1.964   1.710  4.3512  3.5712 -4.1270
  386SOL     OW 1156   0.450   1.080   0.429  0.5315 -0.1025 -0.2489
  386SOL    HW1 1157   0.461   0.973   0.430  0.2123 -1.3846 -1.0656
  386SOL    HW2 1158   0.388   1.113   0.350  0.4647  1.1189  3.0456
  387SOL     OW 1159   0.981   0.376   1.674 -0.3232  0.0988  0.0043
  387SOL    HW1 1160   1.057   0.439   1.687 -2.1245 -2.7368  0.2627
  387SOL    HW2 1161   0.984   0.314   1.588 -0.3263 -1.1659 -1.2509
  388SOL     OW 1162   1.256   2.588   1.771  0.2148  0.5484  0.5915
  388SOL    HW1 1163   1.289   2.587   1.672 -1.7552  0.5670 -0.8650
  388SOL    HW2 1164   1.305   2.512   1.827 -1.1671 -1.3305  2.7477
  389SOL     OW 1165   0.269   0.038   1.137  0.5095  0.2275  0.5108
  389SOL    HW1 1166   0.241   0.027   1.238 -0.0173  1.5517 -1.8764
  389SOL    HW2 1167   0.324  -0.047   1.105  0.6373 -0.1332 -0.2984
  390SOL     OW 1168   1.073   0.835   1.195 -0.2450 -0.3206  0.1215
  390SOL    HW1 1169   1.166   0.789   1.191 -1.7612 -0.0716  3.1051
  390SOL    HW2 1170   1.023   0.831   1.289 -2.0628  2.2059  3.3337
  391SOL     OW 1171   2.131   1.170   1.023  0.4610  0.2220 -0.8486
  391SOL    HW1 1172   2.062   1.100   1.058  1.3932  1.7784  1.0880
  391SOL    HW2 1173   2.197   1.132   0.954 -0.7120 -0.5854  1.0076
  392SOL     OW 1174   0.918   2.693   0.017 -0.1952 -0.3083  0.1928
  392SOL    HW1 1175   0.831   2.717   0.066 -0.7437 -0.1708  2.4505
  392SOL    HW2 1176   0.990   2.769   0.018  2.6903  0.3627  0.4209
  393SOL     OW 1177   0.342   0.571   1.980 -0.1679 -0.2928  0.0241
  393SOL    HW1 1178   0.269   0.520   1.928  1.4756 -0.2395 -0.8605
  393SOL    HW2 1179   0.437   0.557   1.946  0.7680  1.0018  2.8248
  394SOL     OW 1180   2.834   1.770   2.747  0.3671 -0.4816  0.0080
  394SOL    HW1 1181   2.916   1.782   2.682 -2.0736 -1.4733  1.8209
  394SOL    HW2 1182   2.801   1.859   2.783  0.7405 -3.4413 -0.3282
  395SOL     OW 1183   1.564   1.940   0.691  0.3667 -0.1551 -0.2237
  395SOL    HW1 1184   1.631   1.880   0.651 -2.8857 -1.5763 -1.7728
  395SOL    HW2 1185   1.599   1.998   0.769  2.1406 -0.8592  0.1133
  396SOL     OW 1186   2.770   2.022   1.308  0.2404  0.3066 -0.1645
  396SOL    HW1 1187   2.790   2.044   1.412 -0.8971  2.9707  0.1371
  396SOL    HW2 1188   2.681   1.972   1.295  0.3373 -0.6973  0.1047
  397SOL     OW 1189   0.984   2.138   0.679  0.0409 -0.5212  0.1423
  397SOL    HW1 1190   0.898   2.105   0.627  0.8021 -0.0206 -1.7564
  397SOL    HW2 1191   0.984   2.237   0.705  0.5224  1.2238  0.3473
  398SOL     OW 1192   2.211   3.099   1.078 -0.0860  0.7449  0.1673
  398SOL    HW1 1193   2.158   3.010   1.083 -1.1177 -1.0392  2.4836
  398SOL    HW2 1194   2.157   3.183   1.105  1.2846 -1.2056 -1.2623
  399SOL     OW 1195   2.871   2.599   2.759  0.1741  0.0553 -0.7173
  399SOL    HW1 1196   2.813   2.568   2.678  0.6818  1.6856 -0.4660
  399SOL    HW2 1197   2.876   2.534   2.839  0.6021  1.7525 -2.8279
  400SOL     OW 1198   0.812   1.583   1.289 -0.3167  0.1724 -0.0336
  400SOL    HW1 1199   0.768   1.621   1.375  2.8158 -1.1276 -0.6734
  400SOL    HW2 1200   0.801   1.636   1.202 -2.0665 -0.2426  0.3740
  401SOL     OW 1201   1.863   0.113   1.300  0.1419 -0.4971 -0.2716
  401SOL    HW1 1202   1.928   0.151   1.372  1.5893 -1.3660  0.1443
  401SOL    HW2 1203   1.769   0.086   1.331  1.4864 -1.3323 -0.3916
  402SOL     OW 1204   1.346   0.185   3.035  0.1141  0.1204 -0.0239
  402SOL    HW1 1205   1.440   0.177   2.996  3.7665  2.0765  1.6625
  402SOL    HW2 1206   1.316   0.271   3.090  1.2157  4.3619 -1.0119
  403SOL     OW 1207   2.266   1.810   0.999  0.1739 -0.8926  0.2025
  403SOL    HW1 1208   2.363   1.842   1.009 -1.8364 -1.5742  2.1934
  403SOL    HW2 1209   2.196   1.880   1.028 -0.6630  0.3554 -0.6784
  404SOL     OW 1210   0.218   2.454   2.757  0.3531 -0.4860 -0.2298
  404SOL    HW1 1211   0.307   2.422   2.723 -0.0462  2.0770 -0.7914
  404SOL    HW2 1212   0.204   2.553   2.736  0.2011 -1.2621 -0.0570
  405SOL     OW 1213   0.196   2.526   0.566  0.2873 -0.1899  0.2726
  405SOL    HW1 1214   0.223   2.424   0.553  1.9541 -1.7121 -0.7730
  405SOL    HW2 1215   0.280   2.586   0.585  0.8989  0.7128  1.5666
  406SOL     OW 1216   0.018   1.587   3.000  0.1141 -0.2735 -0.1743
  406SOL    HW1 1217   0.085   1.560   2.925 -0.9552 -3.0168 -1.6784
  406SOL    HW2 1218   0.043   1.542   3.090 -2.9565  0.3198 -2.2059
  407SOL     OW 1219   1.559   0.976   0.956 -0.0791  0.0581 -0.2704
  407SOL    HW1 1220   1.551   0.949   0.854  0.7564 -0.2286 -0.8460
  407SOL    HW2 1221   1.481   1.038   0.991 -1.0478  0.1371  0.7200
  408SOL     OW 1222   1.449   2.306   0.945 -0.8357  0.7035  0.0530
  408SOL    HW1 1223   1.535   2.320   0.881  0.9949  1.0467 -0.2278
  408SOL    HW2 1224   1.424   2.393   0.993  1.4096  0.9193  1.4416
  409SOL     OW 1225   0.625   0.871   0.673  0.2226  0.5328  0.0535
  409SOL    HW1 1226   0.541   0.853   0.616 -0.6680  0.9116 -0.8849
  409SOL    HW2 1227   0.670   0.782   0.696  1.6603 -1.3842 -0.3159
  410SOL     OW 1228   1.368   1.992   1.503 -0.4598  0.0227  0.1349
  410SOL    HW1 1229   1.360   2.085   1.550 -0.1705  2.0084 -1.5405
  410SOL    HW2 1230   1.280   1.946   1.484  2.2775  2.2756 -0.9953
  411SOL     OW 1231   2.396   1.844   0.063 -0.6368 -0.0190 -0.0125
  411SOL    HW1 1232   2.336   1.868  -0.015  0.1633  1.9174  1.6906
  411SOL    HW2 1233   2.497   1.833   0.028 -0.4971  0.8248 -2.4992
  412SOL     OW 1234   1.587   2.413   2.299 -1.0080 -0.2690  0.3664
  412SOL    HW1 1235   1.584   2.514   2.319 -0.4319 -0.5345 -0.2870
  412SOL    HW2 1236   1.539   2.367   2.377  0.3233  0.1669  1.8645
  413SOL     OW 1237   3.032   0.292   2.854  0.0752  0.1817  0.0075
  413SOL    HW1 1238   2.978   0.218   2.896 -0.0526  3.1054 -2.1361
  413SOL    HW2 1239   3.131   0.272   2.859 -0.7398  0.2769  0.7012
  414SOL     OW 1240   1.752   1.317   1.322  0.7304 -0.5551 -0.4692
  414SOL    HW1 1241   1.671   1.388   1.334 -0.1304  1.1110 -2.0567
  414SOL    HW2 1242   1.769   1.303   1.224 -0.3936 -1.8718  3.1643
  415SOL     OW 1243   0.270   2.256   0.711  0.4776 -0.0083  0.5130
  415SOL    HW1 1244   0.236   2.343   0.762 -0.9674 -0.0959 -4.5731
  415SOL    HW2 1245   0.192   2.201   0.680  2.2095  4.0960  0.9621
  416SOL     OW 1246   0.343   1.022   1.049  0.0014  0.1810 -0.6469
  416SOL    HW1 1247   0.308   1.016   0.951 -1.5828 -2.3819 -1.6578
  416SOL    HW2 1248   0.414   1.101   1.070  0.5284  0.8596 -2.0333
  417SOL     OW 1249   2.170   2.344   1.885  0.0634 -0.1535  0.2079
  417SOL    HW1 1250   2.216   2.256   1.903  0.7577  0.3943 -1.9295
  417SOL    HW2 1251   2.072   2.354   1.920 -1.7709  0.9721 -1.7860
  418SOL     OW 1252   1.121   0.505   1.376 -0.1577 -0.4100  0.3179
  418SOL    HW1 1253   1.035   0.453   1.345 -2.5749 -4.1732 -0.7825
  418SOL    HW2 1254   1.192   0.499   1.308 -0.9615  0.9452 -0.8050
  419SOL     OW 1255   0.952   0.370   2.986 -0.1792 -0.1909 -0.0308
  419SOL    HW1 1256   1.013   0.386   2.904  2.8131 -0.2926  2.3905
  419SOL    HW2 1257   0.906   0.276   2.985  2.8293 -0.9854 -1.2412
  420SOL     OW 1258   0.182   2.274   0.362  0.0180 -0.0592 -0.1629
  420SOL    HW1 1259   0.161   2.243   0.263  0.4865  1.0571 -1.4812
  420SOL    HW2 1260   0.100   2.293   0.424  3.0687  0.4573 -0.9723
  421SOL     OW 1261   0.332   0.066   0.689  0.0059  0.3000 -0.0959
  421SOL    HW1 1262   0.345  -0.021   0.635 -0.5062 -1.5889 -0.1289
  421SOL    HW2 1263   0.416   0.125   0.692  0.9027 -0.3052  0.4645
  422SOL     OW 1264   0.940   2.524   1.046 -0.1055  0.1722  0.3168
  422SOL    HW1 1265   0.943   2.616   1.001  0.2422 -0.2665  2.6418
  422SOL    HW2 1266   0.980   2.533   1.140  1.4699  0.5359  0.8935
  423SOL     OW 1267   0.049   0.710   1.158 -0.1920  0.5546  0.2542
  423SOL    HW1 1268   0.004   0.674   1.246 -1.6102 -4.5169 -0.0935
  423SOL    HW2 1269  -0.017   0.736   1.089  1.3730  3.4618  1.2449
  424SOL     OW 1270   0.973   2.133   2.234 -0.2293 -0.1258 -0.2529
  424SOL    HW1 1271   0.959   2.189   2.151 -1.3307 -0.0819  2.6909
  424SOL    HW2 1272   0.914   2.164   2.315 -0.0606 -1.6755  0.0660
  425SOL     OW 1273   2.001   1.438   1.102 -0.3803 -0.3326 -0.3107
  425SOL    HW1 1274   2.050   1.354   1.070 -1.3821  0.3119  1.7483
  425SOL    HW2 1275   2.034   1.516   1.037 -0.7088  2.8048 -0.1029
  426SOL     OW 1276   1.540   1.542   1.384  0.4738  0.2233  0.0309
  426SOL    HW1 1277   1.486   1.617   1.339  3.1343 -0.4149  1.1307
  426SOL    HW2 1278   1.548   1.558   1.487  0.6175 -1.4826  0.0279
  427SOL     OW 1279   1.951   2.349   2.039 -0.4685  0.3802 -0.2394
  427SOL    HW1 1280   1.996   2.296   2.117 -0.7071 -0.5793  0.4972
  427SOL    HW2 1281   1.961   2.449   2.039  0.1316  1.3243 -0.3462
  428SOL     OW 1282   0.920   3.088   0.057 -0.3480  0.1098  0.2783
  428SOL    HW1 1283   0.950   3.162   0.122 -0.8571 -2.1009 -0.9531
  428SOL    HW2 1284   0.991   3.010   0.052 -3.0242 -1.7326  1.4258
  429SOL     OW 1285   1.271   0.055   0.228  0.3830 -0.0157  0.3902
  429SOL    HW1 1286   1.347   0.131   0.234  1.5223  1.8014 -0.3988
  429SOL    HW2 1287   1.299  -0.025   0.173 -3.6378 -0.5972  1.3977
  430SOL     OW 1288   2.779   1.489   0.332  0.1648  0.1426  0.3246
  430SOL    HW1 1289   2.707   1.547   0.279 -0.6957  1.1454 -0.2139
  430SOL    HW2 1290   2.804   1.522   0.426 -0.5987  0.2031 -0.6409
  431SOL     OW 1291   2.102   1.615   0.911  0.8352 -0.0214 -0.8401
  431SOL    HW1 1292   2.176   1.680   0.942  0.9850 -1.4144  1.6299
  431SOL    HW2 1293   2.011   1.665   0.891 -0.2389 -0.0446 -0.6567
  432SOL     OW 1294   2.899   2.260   1.223 -0.3839  0.5811 -0.8732
  432SOL    HW1 1295   2.833   2.182   1.257  0.5232 -3.3243  1.0824
  432SOL    HW2 1296   2.941   2.308   1.306 -0.6452  0.7621  1.8654
  433SOL     OW 1297   1.849   0.258   0.809  0.4825 -0.0989  0.0484
  433SOL    HW1 1298   1.758   0.250   0.861 -2.1812 -1.0497  2.0030
  433SOL    HW2 1299   1.931   0.270   0.869  1.6669  0.9627 -1.6085
  434SOL     OW 1300   1.496   0.237   0.724  0.2003  0.0625 -0.1427
  434SOL    HW1 1301   1.510   0.339   0.700  1.6320  3.2301  0.5201
  434SOL    HW2 1302   1.529   0.220   0.820 -1.2865  1.6397 -3.9491
  435SOL     OW 1303   1.424   1.463   2.088 -0.0755  0.1364  0.2978
  435SOL    HW1 1304   1.385   1.452   2.186 -1.2271  0.1253  1.6476
  435SOL    HW2 1305   1.362   1.527   2.028 -1.9018  1.6900 -0.7150
  436SOL     OW 1306   1.651   2.688   2.396 -0.2588  0.4430 -0.1008
  436SOL    HW1 1307   1.649   2.789   2.422 -0.2986 -1.8602 -0.7718
  436SOL    HW2 1308   1.620   2.624   2.470 -0.8765  2.4958 -0.6523
  437SOL     OW 1309   0.984   2.960   0.893 -0.1408  0.0452 -0.0282
  437SOL    HW1 1310   0.925   3.037   0.858  1.0490 -0.0963 -1.2333
  437SOL    HW2 1311   1.055   2.992   0.967  1.4208 -1.3912  2.9363
  438SOL     OW 1312   0.992   2.519   1.316  0.1137 -0.1834 -0.0069
  438SOL    HW1 1313   1.070   2.565   1.367  0.1634  2.4822 -1.3306
  438SOL    HW2 1314   0.981   2.415   1.321  0.6552  1.5427  1.4242
  439SOL     OW 1315   0.704   1.680   1.045  0.2783  0.2217 -0.3559
  439SOL    HW1 1316   0.766   1.762   1.030  0.3087 -0.1680  1.1561
  439SOL    HW2 1317   0.609   1.709   1.078 -0.8859  0.7827  0.5494
  440SOL     OW 1318   0.954   2.371   1.991 -0.0982  0.4797  0.4977
  440SOL    HW1 1319   0.927   2.458   1.937 -2.9719 -2.1065 -0.1150
  440SOL    HW2 1320   1.010   2.306   1.933  0.9746 -0.5397 -0.3621
  441SOL     OW 1321   0.348   2.795   1.323  0.7620 -0.0858 -0.2144
  441SOL    HW1 1322   0.396   2.702   1.345  0.0276 -1.8272  0.3455
  441SOL    HW2 1323   0.353   2.824   1.226 -0.2985  0.1844 -0.7714
  442SOL     OW 1324   2.237   0.690   2.557 -0.0413 -0.3175  0.0808
  442SOL    HW1 1325   2.250   0.593   2.529  0.4532  0.8679  0.0278
  442SOL    HW2 1326   2.138   0.728   2.554 -0.7798 -1.5761 -2.7733
  443SOL     OW 1327   1.266   2.565   2.196 -0.4016  0.2847 -0.5752
  443SOL    HW1 1328   1.245   2.467   2.223 -0.6820 -1.2655  0.6739
  443SOL    HW2 1329   1.249   2.631   2.273 -0.5898 -0.4185 -0.0362
  444SOL     OW 1330   0.949   1.184   1.485  0.2819  0.1692  0.2694
  444SOL    HW1 1331   1.044   1.151   1.480 -0.5796  0.7503 -0.8800
  444SOL    HW2 1332   0.943   1.276   1.446 -1.0371 -0.8938  0.4379
  445SOL     OW 1333   0.147   2.218   2.098 -0.1944  0.6992  0.4121
  445SOL    HW1 1334   0.166   2.117   2.102  1.6759  0.8007  0.1251
  445SOL    HW2 1335   0.075   2.237   2.169  4.4580 -0.8687  0.5295
  446SOL     OW 1336   0.112   1.945   2.410  0.3938 -0.2095 -0.2731
  446SOL    HW1 1337   0.102   2.048   2.395  0.9213  0.0148 -0.4837
  446SOL    HW2 1338   0.102   1.898   2.316 -0.1059  0.7802  2.4385
  447SOL     OW 1339   1.300   1.662   1.916  0.1365  0.8181 -0.4111
  447SOL    HW1 1340   1.249   1.711   1.841 -1.0675  3.0558  1.2029
  447SOL    HW2 1341   1.385   1.718   1.944  1.1460 -0.3006 -1.2289
  448SOL     OW 1342   0.162   1.475   1.996  0.4334 -0.2848 -0.0998
  448SOL    HW1 1343   0.169   1.570   1.955 -0.8346 -1.5770  0.5558
  448SOL    HW2 1344   0.096   1.474   2.075 -1.6663  0.7542  2.8394
  449SOL     OW 1345   1.853   2.975   0.833 -0.3971 -0.9026 -0.5561
  449SOL    HW1 1346   1.832   3.011   0.928 -0.0073  3.1017  0.8569
  449SOL    HW2 1347   1.909   2.895   0.826 -0.8682  1.6642 -0.6803
  450SOL     OW 1348   2.238   1.492   0.685  0.5621  0.1417  0.1475
  450SOL    HW1 1349   2.172   1.513   0.761 -0.3927 -0.3319 -0.2715
  450SOL    HW2 1350   2.278   1.574   0.639  0.3508  0.3931 -0.9583
  451SOL     OW 1351   1.411   2.975   1.481  0.4248  0.0605 -0.3381
  451SOL    HW1 1352   1.372   3.062   1.515 -0.2774 -1.6485  0.2796
  451SOL    HW2 1353   1.445   2.921   1.563 -0.0070  0.4958 -3.0979
  452SOL     OW 1354   2.707   2.307   2.278 -0.4721  0.1851 -0.1910
  452SOL    HW1 1355   2.626   2.372   2.270  1.9236 -0.1610 -3.0481
  452SOL    HW2 1356   2.725   2.268   2.374 -1.9699  0.2630  0.0762
  453SOL     OW 1357   2.453   2.656   0.010  0.2142 -0.1227  0.1634
  453SOL    HW1 1358   2.355   2.694   0.025 -2.4268  0.6398 -0.1034
  453SOL    HW2 1359   2.458   2.562  -0.040 -2.1404 -2.1363  0.2013
  454SOL     OW 1360   0.908   1.183   2.006  0.4578  0.4626 -0.5996
  454SOL    HW1 1361   0.881   1.166   1.907  0.8064 -0.7634 -0.2649
  454SOL    HW2 1362   0.997   1.235   2.013 -0.9274  0.8759  1.7928
  455SOL     OW 1363   0.702   2.619   2.818 -0.2783  0.1433  0.3260
  455SOL    HW1 1364   0.786   2.653   2.860  1.0428  1.1895 -4.5922
  455SOL    HW2 1365   0.665   2.533   2.861  0.0217  0.6886 -2.9179
  456SOL     OW 1366   0.305   1.928   0.218 -0.2143 -0.1065 -0.0644
  456SOL    HW1 1367   0.405   1.954   0.210  0.8198 -1.5489 -1.3764
  456SOL    HW2 1368   0.248   2.012   0.202  0.0882  0.3214  0.4786
  457SOL     OW 1369   0.422   2.663   0.657 -0.3936  1.0220  0.3410
  457SOL    HW1 1370   0.477   2.696   0.572  0.2830  1.3243 -1.9914
  457SOL    HW2 1371   0.484   2.651   0.740 -0.4973 -4.2069 -1.5279
  458SOL     OW 1372   2.931   0.020   1.274 -0.4981 -0.0441  0.5327
  458SOL    HW1 1373   2.985   0.110   1.258 -0.1472 -1.8246 -1.6830
  458SOL    HW2 1374   2.937  -0.038   1.185  1.0348 -1.3224  0.5649
  459SOL     OW 1375   2.141   2.527   0.724  0.5084  0.4409 -0.3699
  459SOL    HW1 1376   2.200   2.525   0.809  2.3346 -2.4214 -0.5153
  459SOL    HW2 1377   2.184   2.556   0.636 -2.5189  2.4080  0.5999
  460SOL     OW 1378   1.157   2.042   2.788 -0.3611 -0.1075 -0.5588
  460SOL    HW1 1379   1.185   2.065   2.691 -1.4997 -1.1619  0.1541
  460SOL    HW2 1380   1.186   1.948   2.820 -0.4494 -1.4811 -2.3026
  461SOL     OW 1381   0.466   2.138   2.737  0.0552 -0.2496 -0.5726
  461SOL    HW1 1382   0.432   2.075   2.670 -0.8536  2.0994 -0.1749
  461SOL    HW2 1383   0.527   2.096   2.806  0.9511 -0.6494  0.5653
  462SOL     OW 1384   0.938   1.028   1.730  0.0651 -0.1392  0.4042
  462SOL    HW1 1385   0.918   0.956   1.660 -1.1945 -0.1514 -0.9835
  462SOL    HW2 1386   0.880   1.111   1.717 -0.1211  0.7743  1.1890
  463SOL     OW 1387   0.425   0.797   0.478 -0.2924  0.1550 -0.1568
  463SOL    HW1 1388   0.462   0.713   0.430  0.6754 -0.0902 -0.1423
  463SOL    HW2 1389   0.319   0.802   0.484 -2.1280  2.7876  0.4790
  464SOL     OW 1390   0.569   2.361   2.284  0.6697  0.2406 -0.0783
  464SOL    HW1 1391   0.506   2.404   2.354  3.5170  1.7399 -0.0422
  464SOL    HW2 1392   0.542   2.378   2.186  2.6018  2.2011  1.8426
  465SOL     OW 1393   0.239   0.976   0.788 -0.1934 -0.2747  0.0063
  465SOL    HW1 1394   0.172   1.000   0.711  0.0488 -2.7098 -1.7038
  465SOL    HW2 1395   0.246   0.872   0.799 -1.3221 -1.1917 -0.4793
  466SOL     OW 1396   1.328   1.136   0.943  0.0230  0.0209  0.9910
  466SOL    HW1 1397   1.328   1.240   0.953  0.8577  1.1174  1.3278
  466SOL    HW2 1398   1.245   1.088   0.985  0.2294 -1.4666  0.2661
  467SOL     OW 1399   0.642   0.482   2.557 -0.0810 -0.1145 -0.1899
  467SOL    HW1 1400   0.560   0.541   2.575 -3.6979 -2.2197 -1.2158
  467SOL    HW2 1401   0.626   0.385   2.594 -0.7447 -1.4821 -1.3839
  468SOL     OW 1402   0.440   2.272   1.564  0.3865 -0.5495  0.0604
  468SOL    HW1 1403   0.525   2.313   1.607 -0.4174  2.3739 -0.3130
  468SOL    HW2 1404   0.439   2.275   1.460 -0.4222 -0.3269 -0.0511
  469SOL     OW 1405   1.443   1.338   1.254  0.2372  0.6530 -0.3327
  469SOL    HW1 1406   1.510   1.278   1.205  1.2357  0.2844 -1.8491
  469SOL    HW2 1407   1.497   1.417   1.300  0.1043 -1.4023  0.2707
  470SOL     OW 1408   2.993   1.814   0.816  0.2076 -0.2755 -0.1068
  470SOL    HW1 1409   3.043   1.860   0.739 -0.0885  0.8723 -0.9005
  470SOL    HW2 1410   3.047   1.826   0.906 -0.7652 -0.3428  0.8313
  471SOL     OW 1411   2.671   1.379   2.197 -0.3930  0.1398  0.0501
  471SOL    HW1 1412   2.666   1.274   2.212 -2.1820 -2.2451 -1.6731
  471SOL    HW2 1413   2.756   1.420   2.240 -0.1668 -0.7465 -0.4652
  472SOL     OW 1414   1.224   2.435   0.039 -0.7706  0.4412 -0.3098
  472SOL    HW1 1415   1.293   2.450   0.112 -0.4003  2.7333 -1.4401
  472SOL    HW2 1416   1.140   2.379   0.072  0.5642 -0.2083 -0.5453
  473SOL     OW 1417   1.074   1.515   1.001  0.2988  0.1337 -0.1075
  473SOL    HW1 1418   0.985   1.528   0.946  1.0900 -0.1685 -0.9438
  473SOL    HW2 1419   1.067   1.447   1.077 -1.3419  1.8552 -0.4276
  474SOL     OW 1420   0.631   1.273   0.489 -0.3937  0.4718  0.0131
  474SOL    HW1 1421   0.543   1.237   0.446 -1.4246 -0.6507  1.3082
  474SOL    HW2 1422   0.693   1.200   0.536  2.4431  2.3116  0.0024
  475SOL     OW 1423   2.837   0.054   0.822 -0.4886  0.4080  0.1305
  475SOL    HW1 1424   2.886   0.145   0.809 -1.8632  1.2433 -0.7912
  475SOL    HW2 1425   2.740   0.072   0.859 -0.4930  1.3450  1.8493
  476SOL     OW 1426   0.948   3.047   1.821 -0.0737  0.3463  0.2162
  476SOL    HW1 1427   1.047   3.046   1.841 -1.8774  0.4634  0.0093
  476SOL    HW2 1428   0.934   3.047   1.719  0.4703  0.4955  0.4796
  477SOL     OW 1429   1.436   0.327   2.445  0.1813  0.1873 -0.5123
  477SOL    HW1 1430   1.438   0.352   2.546 -1.3198 -2.0893  0.6900
  477SOL    HW2 1431   1.508   0.258   2.416 -0.0667 -0.2788  0.9546
  478SOL     OW 1432   2.239   1.917   0.299 -0.6979 -0.6456 -0.2171
  478SOL    HW1 1433   2.180   1.844   0.336 -0.4706  2.9357  0.2475
  478SOL    HW2 1434   2.286   1.884   0.209  0.0274 -2.5040 -1.7091
  479SOL     OW 1435   1.297   0.948   2.870  0.4010  0.0221  0.4578
  479SOL    HW1 1436   1.382   0.973   2.813  1.1821 -0.3484  3.4161
  479SOL    HW2 1437   1.237   0.872   2.822 -1.1368 -0.2969 -0.0189
  480SOL     OW 1438   2.702   2.312   0.421 -0.0467 -0.3764 -0.0097
  480SOL    HW1 1439   2.756   2.223   0.444 -1.1865 -1.8387 -3.4373
  480SOL    HW2 1440   2.601   2.296   0.403  2.0309  0.5187  1.0648
  481SOL     OW 1441   0.958   1.144   0.807  0.3505  0.3166  0.7470
  481SOL    HW1 1442   0.974   1.244   0.777 -2.8186  0.0511 -0.3066
  481SOL    HW2 1443   0.970   1.127   0.909  0.3245  0.2703  3.0100
  482SOL     OW 1444   1.613   0.297   2.039  0.2148  0.2934 -0.1382
  482SOL    HW1 1445   1.627   0.398   2.011 -0.0156  0.7825 -1.0622
  482SOL    HW2 1446   1.699   0.245   2.064 -0.4820 -1.1031  2.3872
  483SOL     OW 1447   0.112   2.370   1.207  0.3640 -0.5996 -0.1472
  483SOL    HW1 1448   0.103   2.442   1.280  0.6765 -1.9520 -0.6053
  483SOL    HW2 1449   0.133   2.421   1.116  1.1269  2.8669 -2.5072
  484SOL     OW 1450   1.711   1.066   1.480 -0.0234 -0.1760 -0.4617
  484SOL    HW1 1451   1.796   1.012   1.500  1.5915  1.0866  1.4858
  484SOL    HW2 1452   1.731   1.150   1.428 -2.0443 -0.8257  1.4919
  485SOL     OW 1453   0.746   0.745   1.953  0.0246  0.2399 -0.6265
  485SOL    HW1 1454   0.727   0.775   1.855  1.0445  2.1285 -3.2991
  485SOL    HW2 1455   0.840   0.700   1.962  1.1207  0.4185  0.3617
  486SOL     OW 1456   0.888   1.886   2.443 -0.1919  0.4012 -0.1125
  486SOL    HW1 1457   0.857   1.877   2.542 -0.2498 -0.5413  1.9919
  486SOL    HW2 1458   0.873   1.980   2.398 -1.1677 -0.7417  1.6906
  487SOL     OW 1459   1.763   1.587   1.055  0.3020 -0.0270 -0.2771
  487SOL    HW1 1460   1.811   1.501   1.085  1.0972  2.2223  1.7683
  487SOL    HW2 1461   1.797   1.635   0.967  1.2959 -1.3592  0.2004
  488SOL     OW 1462   2.938   0.791   2.250  0.2699  0.0465 -1.2381
  488SOL    HW1 1463   3.014   0.721   2.255  1.0036  2.5264  1.6495
  488SOL    HW2 1464   2.869   0.774   2.326 -0.3748 -0.5233 -0.9860
  489SOL     OW 1465   2.796   0.356   1.304 -0.5211 -0.0228  0.3159
  489SOL    HW1 1466   2.771   0.309   1.395 -2.2603 -0.9055  1.0502
  489SOL    HW2 1467   2.891   0.329   1.274 -1.9031 -0.1938 -1.1296
  490SOL     OW 1468   1.483   2.957   2.820  0.1609 -0.9891 -0.0852
  490SOL    HW1 1469   1.510   2.857   2.810  1.7885  0.1893 -0.9789
  490SOL    HW2 1470   1.450   2.997   2.729 -0.3654 -0.0552  1.0620
  491SOL     OW 1471   1.809   1.443   2.725 -0.1076  0.0398 -0.0151
  491SOL    HW1 1472   1.742   1.447   2.803  3.1837 -0.3947  0.3928
  491SOL    HW2 1473   1.894   1.503   2.741 -1.8266  0.7968  2.1616
  492SOL     OW 1474   0.618   2.088   0.587 -0.6253 -0.1166 -0.4667
  492SOL    HW1 1475   0.654   2.096   0.687  1.3357  0.9923 -0.4663
  492SOL    HW2 1476   0.516   2.110   0.575  4.0143 -1.3724  0.1640
  493SOL     OW 1477   0.411   1.329   2.076 -0.0503 -0.2512  0.2219
  493SOL    HW1 1478   0.337   1.391   2.041 -0.4286  0.4231 -1.9693
  493SOL    HW2 1479   0.378   1.241   2.119 -2.7421  2.1004  1.4453
  494SOL     OW 1480   2.698   2.643   0.149 -0.1336 -0.0676  0.4284
  494SOL    HW1 1481   2.714   2.617   0.250 -0.6645  1.6356 -0.2660
  494SOL    HW2 1482   2.597   2.632   0.113 -0.5091  0.0375  0.3802
  495SOL     OW 1483   2.518   2.802   2.637 -0.2212  0.0043 -0.1555
  495SOL    HW1 1484   2.532   2.698   2.639  1.8513 -1.2323  0.0103
  495SOL    HW2 1485   2.584   2.847   2.568  3.9573  0.6435 -2.6623
  496SOL     OW 1486   1.948   2.313   0.804 -0.2640  0.1491  0.4934
  496SOL    HW1 1487   2.002   2.321   0.893  0.4295  1.3539 -0.2495
  496SOL    HW2 1488   1.998   2.346   0.727  0.0906 -1.6721 -0.3939
  497SOL     OW 1489   0.273   2.995   2.361 -0.2281 -0.3535 -0.1453
  497SOL    HW1 1490   0.205   3.066   2.404 -0.7400  2.6202  2.6078
  497SOL    HW2 1491   0.324   3.037   2.276  2.3920  1.3065 -1.8388
  498SOL     OW 1492   1.166   1.331   1.206 -0.1519  0.3519  0.4813
  498SOL    HW1 1493   1.265   1.356   1.208 -3.9257  2.2446  1.5070
  498SOL    HW2 1494   1.104   1.364   1.285 -0.8533  0.1624 -0.3049
  499SOL     OW 1495   0.596   1.799   0.385 -0.0405  0.8265 -0.6970
  499SOL    HW1 1496   0.600   1.820   0.282  0.8441  0.6859 -1.5517
  499SOL    HW2 1497   0.682   1.829   0.432 -2.1516 -1.1303  1.1384
  500SOL     OW 1498   1.508   2.803   1.659  0.5085  0.7878  0.5175
  500SOL    HW1 1499   1.528   2.774   1.754  1.1574 -1.5269 -0.5093
  500SOL    HW2 1500   1.538   2.726   1.592  0.7322 -2.8354 -3.0373
  501SOL     OW 1501   0.783   1.200   2.276  0.0796 -1.0607 -0.1428
  501SOL    HW1 1502   0.710   1.128   2.269 -1.3864 -0.6699  1.7053
  501SOL    HW2 1503   0.822   1.209   2.179 -0.9114 -0.6517 -1.4241
  502SOL     OW 1504   2.565   0.920   1.800  0.4445  0.2899 -0.3734
  502SOL    HW1 1505   2.632   0.943   1.721 -0.3974 -1.9549  2.7958
  502SOL    HW2 1506   2.557   0.821   1.818 -0.6787  0.8647  0.1628
  503SOL     OW 1507   1.248   0.121   0.689  0.2124  0.0266 -0.1423
  503SOL    HW1 1508   1.197   0.205   0.652  0.3118 -0.8478 -2.0084
  503SOL    HW2 1509   1.348   0.141   0.697  0.2175 -3.6136  0.4334
  504SOL     OW 1510   2.983   2.366   1.487  0.3025  0.3492  0.2498
  504SOL    HW1 1511   2.932   2.423   1.555 -1.0230 -0.7924 -0.8933
  504SOL    HW2 1512   3.062   2.315   1.536  1.2807 -2.4369  1.8819
  505SOL     OW 1513   2.319   1.141   1.502 -0.1655  0.3811 -0.5732
  505SOL    HW1 1514   2.277   1.165   1.409 -0.3092 -1.7999 -2.6380
  505SOL    HW2 1515   2.378   1.213   1.545  0.1518 -2.0295  2.9836
  506SOL     OW 1516   1.949   0.194   1.872  0.0278 -0.7917  0.1775
  506SOL    HW1 1517   2.039   0.149   1.883  1.1946 -0.2819  1.9773
  506SOL    HW2 1518   1.952   0.296   1.874 -0.7493 -1.6557 -0.9046
  507SOL     OW 1519   0.498   0.747   2.188  0.1314 -0.0700  0.7718
  507SOL    HW1 1520   0.458   0.744   2.093 -0.3540  1.1885 -2.1105
  507SOL    HW2 1521   0.566   0.667   2.203  0.4012 -0.1255  0.6727
  508SOL     OW 1522   0.291   1.667   0.815 -0.4203  0.1496  0.2387
  508SOL    HW1 1523   0.371   1.715   0.768 -3.1440 -1.8378 -1.6419
  508SOL    HW2 1524   0.262   1.709   0.910 -1.5671  0.8515  2.3321
  509SOL     OW 1525   1.291   1.216   2.470  0.3877  0.4406 -0.4035
  509SOL    HW1 1526   1.301   1.113   2.464  0.5405 -1.3719  0.1072
  509SOL    HW2 1527   1.189   1.243   2.463 -3.7057 -3.9951  2.9878
  510SOL     OW 1528   1.336   2.042   2.235 -0.9724 -0.3580  0.3656
  510SOL    HW1 1529   1.344   2.058   2.132 -1.9582 -0.9919 -1.0209
  510SOL    HW2 1530   1.260   1.982   2.259  0.5166  0.9362 -0.8028
  511SOL     OW 1531   3.002   2.654   1.351 -0.2092  0.3338 -0.3343
  511SOL    HW1 1532   2.976   2.675   1.254 -1.4854 -0.0791  0.3468
  511SOL    HW2 1533   2.923   2.602   1.395 -1.1981  1.4876 -0.2656
  512SOL     OW 1534   2.320   0.442   1.408 -0.0316  0.2239  0.4696
  512SOL    HW1 1535   2.230   0.470   1.367  0.4553 -0.7179 -0.9670
  512SOL    HW2 1536   2.386   0.398   1.340 -1.9023 -0.2761 -0.9983
  513SOL     OW 1537   2.523   2.095   0.879 -0.2702 -0.5446 -0.1690
  513SOL    HW1 1538   2.484   2.147   0.796  1.1781 -0.0639 -0.3795
  513SOL    HW2 1539   2.616   2.050   0.860  1.7702 -1.9873 -1.2112
  514SOL     OW 1540   0.600   2.751   0.452  0.4305 -0.4107  0.5368
  514SOL    HW1 1541   0.629   2.785   0.359  0.7753 -1.6903 -1.4875
  514SOL    HW2 1542   0.651   2.799   0.535 -0.0488  0.9011  1.6557
  515SOL     OW 1543   1.945   1.335   2.408 -0.1560  0.0730  0.4679
  515SOL    HW1 1544   1.964   1.282   2.316  0.6505  1.5170 -2.8737
  515SOL    HW2 1545   1.861   1.293   2.454 -1.6523  0.7125 -0.1992
  516SOL     OW 1546   0.268   0.161   1.947  0.0852 -0.4555 -0.5865
  516SOL    HW1 1547   0.369   0.157   1.944  0.4964 -1.4452 -0.2008
  516SOL    HW2 1548   0.227   0.086   1.888 -0.1369  0.2118  0.8946
  517SOL     OW 1549   0.466   0.228   1.116 -0.6275 -0.4913  0.5515
  517SOL    HW1 1550   0.527   0.185   1.190  1.8642 -3.4506  0.7989
  517SOL    HW2 1551   0.382   0.167   1.101 -1.8978 -3.0846  1.3315
  518SOL     OW 1552   2.171   3.028   1.834 -0.1233 -0.0880 -0.0494
  518SOL    HW1 1553   2.192   3.132   1.829 -1.6449  1.8326 -1.2824
  518SOL    HW2 1554   2.186   2.983   1.739 -2.1753 -2.5244  0.3949
  519SOL     OW 1555   2.321   2.249   2.541  0.0551 -0.0205 -0.0349
  519SOL    HW1 1556   2.270   2.224   2.627  0.6901  0.0592 -1.3470
  519SOL    HW2 1557   2.328   2.352   2.531  0.1082 -0.3286  1.3492
  520SOL     OW 1558   1.790   2.665   1.657  0.7058  0.4765  0.0438
  520SOL    HW1 1559   1.732   2.637   1.739  0.4243 -2.2220  0.2051
  520SOL    HW2 1560   1.889   2.625   1.655 -0.5955  1.1920  0.4745
  521SOL     OW 1561   0.648   0.070   2.130 -0.1593 -0.1652  0.2840
  521SOL    HW1 1562   0.578   0.006   2.097 -0.7320  0.1151  0.9435
  521SOL    HW2 1563   0.676   0.038   2.228  2.3788  1.2418  1.9303
  522SOL     OW 1564   0.232   1.931   1.486 -0.1108  0.4702 -0.0703
  522SOL    HW1 1565   0.244   1.979   1.578 -0.7020  0.6620 -0.9981
  522SOL    HW2 1566   0.227   1.992   1.401  0.5504  0.5579 -2.0058
  523SOL     OW 1567   2.225   2.912   1.560 -0.7861 -0.1656 -0.1973
  523SOL    HW1 1568   2.323   2.877   1.534  3.2810 -0.2390  1.9588
  523SOL    HW2 1569   2.144   2.882   1.502  0.4919  1.2052  2.8421
  524SOL     OW 1570   0.215   2.752   2.767 -0.0548  0.3632  0.6874
  524SOL    HW1 1571   0.182   2.837   2.805  1.2667 -1.2606 -1.4772
  524SOL    HW2 1572   0.320   2.738   2.755  0.7151 -0.6195 -0.0731
  525SOL     OW 1573   2.199   2.097   0.512  0.4200 -0.1501 -0.2228
  525SOL    HW1 1574   2.168   2.042   0.599 -0.1281  0.1699 -1.2577
  525SOL    HW2 1575   2.224   2.033   0.433  2.4649 -1.0969 -1.7905
  526SOL     OW 1576   0.388   1.536   1.720  0.1948 -0.2515  0.2062
  526SOL    HW1 1577   0.425   1.611   1.786  1.6319  2.7149  3.7422
  526SOL    HW2 1578   0.394   1.438   1.752 -0.9753  0.9521  0.3453
  527SOL     OW 1579   1.142   2.992   1.114 -0.9216 -0.0803  0.0417
  527SOL    HW1 1580   1.205   2.907   1.117  1.6223 -2.6908  0.7491
  527SOL    HW2 1581   1.191   3.078   1.146  3.1564 -0.7416  0.6231
  528SOL     OW 1582   1.281   2.423   0.629 -0.1464 -0.0940  0.0778
  528SOL    HW1 1583   1.351   2.349   0.629  0.4903 -2.8562 -0.8010
  528SOL    HW2 1584   1.306   2.507   0.687 -0.3417 -3.4815  0.4472
  529SOL     OW 1585   1.843   1.723   0.848  0.0376  0.1085  0.7203
  529SOL    HW1 1586   1.801   1.720   0.751 -2.8293 -1.9669 -0.4954
  529SOL    HW2 1587   1.867   1.822   0.878 -0.7082  1.6605 -2.4307
  530SOL     OW 1588   0.390   2.493   0.187  0.3089 -0.7294  0.4384
  530SOL    HW1 1589   0.414   2.467   0.283 -1.0575  0.4486 -0.9046
  530SOL    HW2 1590   0.404   2.418   0.115  0.6143 -2.6867  0.0016
  531SOL     OW 1591   1.851   1.025   1.053 -0.2021  0.1276 -0.4935
  531SOL    HW1 1592   1.866   1.035   0.950 -0.3041  1.3769 -0.8076
  531SOL    HW2 1593   1.755   0.996   1.078  0.0367 -1.7165  2.2282
  532SOL     OW 1594   0.394   1.196   0.699 -0.3032  0.1529  0.8956
  532SOL    HW1 1595   0.413   1.171   0.599  0.5111 -2.9845 -1.3228
  532SOL    HW2 1596   0.342   1.114   0.740  1.8917 -1.3058  1.3584
  533SOL     OW 1597   1.820   0.038   2.586  0.0296  0.6398 -0.5813
  533SOL    HW1 1598   1.925   0.035   2.584 -0.4340  2.1914 -2.8248
  533SOL    HW2 1599   1.777   0.104   2.651 -1.1775 -0.0532 -0.8566
  534SOL     OW 1600   0.198   0.181   1.560  0.2314 -0.0939  0.2838
  534SOL    HW1 1601   0.271   0.243   1.530 -0.2948  1.9230 -0.8592
  534SOL    HW2 1602   0.107   0.227   1.564  0.3742 -1.1160  3.4472
  535SOL     OW 1603   1.871   0.409   0.137  0.0653  0.4588  0.2194
  535SOL    HW1 1604   1.915   0.485   0.190  0.4646 -4.5213 -2.0362
  535SOL    HW2 1605   1.799   0.359   0.190 -2.6018 -2.9739 -2.6014
  536SOL     OW 1606   1.210   2.500   0.983 -0.0667  0.2051 -0.0665
  536SOL    HW1 1607   1.253   2.462   0.899 -0.7821  1.1186  0.6137
  536SOL    HW2 1608   1.105   2.510   0.971 -1.9123 -1.5486  1.1559
  537SOL     OW 1609   0.875   0.259   2.284 -0.1711  0.0204 -0.3635
  537SOL    HW1 1610   0.880   0.331   2.206  2.4818  0.9014  3.2424
  537SOL    HW2 1611   0.780   0.218   2.285 -0.6661  3.3412  0.0501
  538SOL     OW 1612   1.721   2.249   1.616 -0.3401  0.5080 -0.2796
  538SOL    HW1 1613   1.667   2.195   1.546 -0.9839 -0.7495  0.1833
  538SOL    HW2 1614   1.782   2.322   1.574  3.8669  1.9148  0.2824
  539SOL     OW 1615   0.162   1.553   2.753  0.1855  0.0557 -0.4460
  539SOL    HW1 1616   0.083   1.539   2.691  1.1207  0.9167  0.0697
  539SOL    HW2 1617   0.216   1.628   2.711 -0.2837  0.7699 -1.9530
  540SOL     OW 1618   2.657   1.788   2.150  0.2506  0.0487  0.2280
  540SOL    HW1 1619   2.629   1.697   2.111  0.3002 -3.1598  0.5606
  540SOL    HW2 1620   2.620   1.865   2.097  2.2284  1.0708 -1.0672
  541SOL     OW 1621   0.407   2.285   3.073 -0.1583 -0.2216  0.1032
  541SOL    HW1 1622   0.445   2.213   3.136  0.0818  0.9925  1.0816
  541SOL    HW2 1623   0.332   2.260   3.006  1.7892 -1.2833  1.8439
  542SOL     OW 1624   2.195   2.594   0.452 -0.1626  0.6074 -0.2832
  542SOL    HW1 1625   2.218   2.687   0.419 -0.1838  0.4217 -0.9779
  542SOL    HW2 1626   2.097   2.591   0.485  1.1140 -0.6372  0.7327
  543SOL     OW 1627   1.091   1.813   1.746 -0.2881 -0.1022 -0.3869
  543SOL    HW1 1628   1.089   1.845   1.843 -2.1746 -1.8506  1.1532
  543SOL    HW2 1629   1.022   1.860   1.678  0.1624  2.7740  0.5904
  544SOL     OW 1630   0.833   0.437   0.106 -0.0385 -0.4163 -0.0460
  544SOL    HW1 1631   0.891   0.383   0.174  1.3548 -0.8835 -2.2583
  544SOL    HW2 1632   0.880   0.436   0.014 -0.1166  0.2451  0.0651
  545SOL     OW 1633   1.155   1.759   0.636  0.3447  0.2838 -0.4791
  545SOL    HW1 1634   1.252   1.759   0.670  1.9167  2.3005 -0.0873
  545SOL    HW2 1635   1.146   1.776   0.533 -0.1605 -2.1212 -0.4138
  546SOL     OW 1636   2.713   1.592   0.034 -0.5916  0.4221  0.2340
  546SOL    HW1 1637   2.770   1.579  -0.050 -2.4911  1.3315  4.5635
  546SOL    HW2 1638   2.621   1.546   0.040 -1.0423 -0.5499 -0.7764
  547SOL     OW 1639   0.478   3.062   2.735 -0.2270  0.6309  0.2641
  547SOL    HW1 1640   0.505   2.995   2.665  1.6665 -1.3439  2.2039
  547SOL    HW2 1641   0.536   3.041   2.822  1.0342 -0.2862 -0.2429
  548SOL     OW 1642   2.070   0.778   3.068 -0.1840  0.4631  0.7450
  548SOL    HW1 1643   1.980   0.738   3.098  0.5249 -0.9577  1.2969
  548SOL    HW2 1644   2.061   0.874   3.021  3.5836 -1.6903 -0.7509
  549SOL     OW 1645   0.580   0.449   0.069  0.2215 -0.3797  0.2145
  549SOL    HW1 1646   0.550   0.514  -0.004 -1.4625 -0.8216 -0.8053
  549SOL    HW2 1647   0.680   0.437   0.083  0.3363  0.5439  2.5175
  550SOL     OW 1648   2.521   2.867   2.902  0.0408  0.0306  0.1458
  550SOL    HW1 1649   2.501   2.791   2.968 -0.7667 -0.1596  2.2773
  550SOL    HW2 1650   2.522   2.837   2.802 -0.9970  2.2520 -0.4159
  551SOL     OW 1651   0.244   0.810   0.198 -0.4223 -0.7159  0.1605
  551SOL    HW1 1652   0.349   0.788   0.204  1.0881  0.6070 -0.8416
  551SOL    HW2 1653   0.194   0.801   0.287 -0.0923  1.6276 -0.3271
  552SOL     OW 1654   0.844   2.798   1.904 -0.1573 -0.1075 -0.0365
  552SOL    HW1 1655   0.821   2.773   2.006 -0.9908  1.0627  3.3450
  552SOL    HW2 1656   0.869   2.902   1.890  1.0379 -0.4918  0.8287
  553SOL     OW 1657   3.090   2.544   0.364 -0.1833 -0.2435 -0.1022
  553SOL    HW1 1658   3.006   2.482   0.359 -1.9102  1.2404 -1.3730
  553SOL    HW2 1659   3.133   2.556   0.458  1.2924 -2.0122 -1.9342
  554SOL     OW 1660   2.119   0.319   0.503  0.8321  0.0122  0.3077
  554SOL    HW1 1661   2.198   0.314   0.433  1.8944 -1.2977 -2.7621
  554SOL    HW2 1662   2.104   0.223   0.544  0.1943  1.3177 -1.2520
  555SOL     OW 1663   0.495   2.884   2.478 -0.2992  0.9078 -0.6735
  555SOL    HW1 1664   0.415   2.919   2.421  0.3811 -1.7936  1.2574
  555SOL    HW2 1665   0.563   2.824   2.427 -2.6677 -2.2510 -0.4635
  556SOL     OW 1666   0.969   2.344   1.629 -0.5471 -0.5857 -0.2090
  556SOL    HW1 1667   0.960   2.433   1.687 -0.3639  0.5381 -0.1272
  556SOL    HW2 1668   1.059   2.339   1.577 -2.3174 -3.2884 -1.9636
  557SOL     OW 1669   0.169   2.149   0.104 -0.0367  0.3041  0.3009
  557SOL    HW1 1670   0.100   2.074   0.126  1.7318  1.2147 -0.4069
  557SOL    HW2 1671   0.149   2.208   0.016  1.2636 -1.2368 -1.2146
  558SOL     OW 1672   2.918   2.338   0.257 -0.3283  0.3814  0.6288
  558SOL    HW1 1673   2.814   2.333   0.256 -0.3554  1.7080  1.0308
  558SOL    HW2 1674   2.967   2.338   0.162 -1.1091 -1.2218 -2.7138
  559SOL     OW 1675   0.431   2.280   1.288  0.2328 -0.1668 -0.3521
  559SOL    HW1 1676   0.335   2.313   1.274  0.3732  1.1686  1.6739
  559SOL    HW2 1677   0.446   2.177   1.268 -0.4357 -0.9636 -2.1192
  560SOL     OW 1678   2.030   1.051   3.012 -0.2657  0.3767  0.1618
  560SOL    HW1 1679   2.030   1.145   2.964  0.3921  1.3500 -1.3552
  560SOL    HW2 1680   1.997   1.064   3.112 -1.1289  1.4114  1.6186
  561SOL     OW 1681   3.033   1.955   0.115  0.0471 -0.1664 -0.1977
  561SOL    HW1 1682   3.001   1.856   0.134  1.4697 -1.0368  2.5440
  561SOL    HW2 1683   2.972   2.004   0.049 -0.2367 -1.2129 -0.7818
  562SOL     OW 1684   0.818   2.182   2.453  0.0779  0.3276 -0.3933
  562SOL    HW1 1685   0.723   2.137   2.437 -2.1881 -0.9282  0.3325
  562SOL    HW2 1686   0.845   2.222   2.549 -1.7652 -2.4485  1.1076
  563SOL     OW 1687   0.720   2.541   2.533  1.0200 -0.6516  0.0383
  563SOL    HW1 1688   0.701   2.449   2.496  1.3500 -0.4895 -1.0320
  563SOL    HW2 1689   0.737   2.540   2.633  0.4079  2.1586 -1.9364
  564SOL     OW 1690   2.755   1.293   2.880 -0.0268 -0.2339 -0.2282
  564SOL    HW1 1691   2.665   1.277   2.930  0.3727  0.1463 -1.1243
  564SOL    HW2 1692   2.786   1.394   2.887  0.3218 -1.1073  0.0675
  565SOL     OW 1693   2.531   2.021   2.601 -0.0480  0.0713  0.0237
  565SOL    HW1 1694   2.487   2.111   2.573 -1.3668 -0.4882  1.0130
  565SOL    HW2 1695   2.605   2.029   2.669 -0.9275 -1.4564 -0.5066
  566SOL     OW 1696   2.016   2.818   1.430  0.1556 -0.2351 -0.6263
  566SOL    HW1 1697   2.034   2.737   1.493  2.1725 -0.8901  1.3959
  566SOL    HW2 1698   2.047   2.803   1.333  0.7041  0.4159  0.6245
  567SOL     OW 1699   2.438   0.135   2.215  0.8072  0.4747  0.1215
  567SOL    HW1 1700   2.469   0.134   2.119 -0.1141 -0.8547  0.2504
  567SOL    HW2 1701   2.383   0.219   2.239 -1.3555 -0.0160  1.1340
  568SOL     OW 1702   1.428   1.799   0.465 -0.7310 -0.1588 -0.6248
  568SOL    HW1 1703   1.416   1.885   0.408  0.0653 -3.7577 -0.0904
  568SOL    HW2 1704   1.475   1.821   0.553  0.8203  2.0288  1.2583
  569SOL     OW 1705   0.283   0.723   0.786  0.0090  0.6053  0.4169
  569SOL    HW1 1706   0.341   0.711   0.696 -0.7368 -2.9570 -2.0136
  569SOL    HW2 1707   0.208   0.642   0.796 -2.4455 -4.0990  2.0823
  570SOL     OW 1708   0.619   0.802   2.829  0.2910 -0.6664 -0.4602
  570SOL    HW1 1709   0.667   0.802   2.736 -1.0070 -1.2259 -0.5903
  570SOL    HW2 1710   0.628   0.893   2.882  3.4634  0.7203  1.9317
  571SOL     OW 1711   0.860   3.042   1.135 -0.0303 -0.2436 -0.3129
  571SOL    HW1 1712   0.848   3.129   1.079  1.2898 -1.6878  0.0669
  571SOL    HW2 1713   0.955   3.001   1.135  1.2588  1.1643  1.6429
  572SOL     OW 1714   1.505   2.568   1.193  0.2987 -0.3807  0.0738
  572SOL    HW1 1715   1.426   2.507   1.225  2.7251 -0.5277  0.1540
  572SOL    HW2 1716   1.469   2.660   1.146  3.0592  1.7573  0.4923
  573SOL     OW 1717   2.944   0.443   2.096  0.0809 -0.4059  0.2328
  573SOL    HW1 1718   2.891   0.354   2.121 -0.5426 -2.7625  1.4945
  573SOL    HW2 1719   2.883   0.500   2.032  1.2364 -0.9784  0.6247
  574SOL     OW 1720   0.236   1.799   1.042  0.6899  0.0071  0.7433
  574SOL    HW1 1721   0.236   1.903   1.018 -0.6067 -1.4467 -1.0050
  574SOL    HW2 1722   0.144   1.771   1.091  1.3842  0.1223 -1.1070
  575SOL     OW 1723   0.909   2.189   1.020  0.1858 -0.7587 -0.3438
  575SOL    HW1 1724   0.897   2.143   1.113  0.8804 -2.2311  0.1380
  575SOL    HW2 1725   1.006   2.182   0.983 -0.3710  0.1913  0.1381
  576SOL     OW 1726   2.890   2.899   1.706  0.0861 -0.5294 -0.3314
  576SOL    HW1 1727   2.814   2.841   1.669  0.4733  0.6798 -2.4133
  576SOL    HW2 1728   2.923   2.970   1.636  1.9319  3.6421  0.7134
  577SOL     OW 1729   2.536   1.246   3.068  0.4723  0.2499 -0.4869
  577SOL    HW1 1730   2.528   1.149   3.027 -1.5766  3.3530 -2.5507
  577SOL    HW2 1731   2.593   1.251   3.155 -0.6206  0.7579  0.9051
  578SOL     OW 1732   1.335   2.791   2.583  0.0456 -0.1544 -0.4217
  578SOL    HW1 1733   1.268   2.761   2.512  0.9680  1.4631  0.7707
  578SOL    HW2 1734   1.371   2.883   2.566  2.7918 -1.1566 -0.5003
  579SOL     OW 1735   0.143   2.584   0.146 -0.6891 -0.4609  0.5618
  579SOL    HW1 1736   0.085   2.577   0.231 -0.2791 -1.4300 -0.3920
  579SOL    HW2 1737   0.233   2.530   0.152  0.7514 -2.5228  0.0870
  580SOL     OW 1738   0.960   2.692   0.371  0.5771  0.6418 -0.0487
  580SOL    HW1 1739   1.049   2.700   0.318 -1.6269 -0.3712  0.4233
  580SOL    HW2 1740   0.892   2.631   0.320  0.7066 -1.2501  0.1121
  581SOL     OW 1741   1.291   2.567   1.478 -0.0005  0.2281 -0.0688
  581SOL    HW1 1742   1.288   2.496   1.402 -1.5835  1.7236 -0.8005
  581SOL    HW2 1743   1.294   2.668   1.449 -2.9991  2.9620  2.2547
  582SOL     OW 1744   1.521   0.068   1.874  0.2618  0.0298 -0.2516
  582SOL    HW1 1745   1.538   0.147   1.936 -1.8622 -3.3197 -0.8124
  582SOL    HW2 1746   1.588   0.066   1.802  0.4940 -0.4573  2.4505
  583SOL     OW 1747   2.387   2.993   0.596  0.3648 -0.1355  0.2829
  583SOL    HW1 1748   2.446   2.948   0.525 -1.4115 -0.4363 -0.2100
  583SOL    HW2 1749   2.338   2.928   0.660  2.6001  0.7379  0.7923
  584SOL     OW 1750   1.539   0.984   2.087  0.4457 -0.1416  0.2456
  584SOL    HW1 1751   1.597   1.052   2.029 -1.0634  1.1480  0.0769
  584SOL    HW2 1752   1.572   0.974   2.187 -1.0308  0.5444 -0.3172
  585SOL     OW 1753   2.098   2.681   2.898  0.4607 -0.6268  0.6363
  585SOL    HW1 1754   2.132   2.588   2.874 -0.2666  4.3400 -0.5123
  585SOL    HW2 1755   1.992   2.685   2.908  0.0865 -1.5165 -2.8336
  586SOL     OW 1756   2.781   0.224   1.548  0.0362 -0.1785 -0.2221
  586SOL    HW1 1757   2.788   0.303   1.616  2.8363 -0.0929  0.2897
  586SOL    HW2 1758   2.701   0.166   1.571 -0.3060 -1.3694 -1.7631
  587SOL     OW 1759   2.016   1.613   2.737 -0.0129  0.0197 -0.5752
  587SOL    HW1 1760   2.065   1.569   2.659 -0.9064 -3.8727 -1.2557
  587SOL    HW2 1761   2.059   1.612   2.834 -1.0169  1.0363  3.5683
  588SOL     OW 1762   0.479   2.697   2.227 -0.1319  0.0443 -0.0427
  588SOL    HW1 1763   0.395   2.728   2.176 -0.5024 -0.6978  1.5383
  588SOL    HW2 1764   0.461   2.622   2.299 -0.5643 -1.8167 -1.0493
  589SOL     OW 1765   2.134   1.468   2.542 -0.8490  0.0728  0.1403
  589SOL    HW1 1766   2.063   1.419   2.485 -0.1303  0.0300 -0.0637
  589SOL    HW2 1767   2.223   1.418   2.560  0.7179  1.0947  1.9743
  590SOL     OW 1768   2.354   1.754   1.997 -0.2464 -0.1565  0.5003
  590SOL    HW1 1769   2.430   1.683   1.984 -0.6689  2.8199 -0.6788
  590SOL    HW2 1770   2.352   1.792   2.092 -0.4592 -1.2771  0.0365
  591SOL     OW 1771   1.318   2.484   0.313  0.0578  0.6327 -0.2822
  591SOL    HW1 1772   1.397   2.442   0.265  0.2754  0.6047  2.2228
  591SOL    HW2 1773   1.308   2.446   0.410  1.3880 -0.2750 -0.9689
  592SOL     OW 1774   1.672   2.318   0.782  0.7725 -0.1373 -0.3656
  592SOL    HW1 1775   1.645   2.387   0.707 -3.5518  0.8938  0.2986
  592SOL    HW2 1776   1.776   2.306   0.788 -2.7685  2.4125  0.3708
  593SOL     OW 1777   0.525   0.233   3.004  0.2745 -0.4160  0.0362
  593SOL    HW1 1778   0.623   0.200   3.001 -0.0285  0.0937  1.0944
  593SOL    HW2 1779   0.521   0.292   3.089  0.2345 -1.5491 -1.4278
  594SOL     OW 1780   0.911   1.896   2.756 -0.1760  0.4541 -0.2144
  594SOL    HW1 1781   1.008   1.910   2.725  0.1112  3.0165  1.3663
  594SOL    HW2 1782   0.879   1.979   2.810 -0.3081  0.3100 -3.0100
  595SOL     OW 1783   1.560   3.081   1.004 -0.1658  0.2816  0.0939
  595SOL    HW1 1784   1.644   3.044   1.053 -2.6866  2.3307  1.3448
  595SOL    HW2 1785   1.552   3.037   0.907 -0.6644 -0.4829  0.4327
  596SOL     OW 1786   3.072   1.456   2.207 -0.2982  0.1899 -0.2589
  596SOL    HW1 1787   3.012   1.543   2.218 -0.1054  1.7073 -0.6100
  596SOL    HW2 1788   3.127   1.421   2.295  0.7400 -2.4591  3.7828
  597SOL     OW 1789   2.068   2.610   1.612  0.0109  0.7697  0.3666
  597SOL    HW1 1790   2.107   2.518   1.621  0.7712  1.4714 -1.2948
  597SOL    HW2 1791   2.125   2.668   1.672  0.4567  1.9876  1.9202
  598SOL     OW 1792   2.594   2.891   1.203 -0.1787  0.4103 -0.6610
  598SOL    HW1 1793   2.667   2.938   1.264 -0.2281  0.2188  0.3046
  598SOL    HW2 1794   2.638   2.868   1.108 -0.0474 -0.1442 -0.6600
  599SOL     OW 1795   2.917   0.325   2.404 -0.0239  0.1557 -0.0089
  599SOL    HW1 1796   3.014   0.344   2.369  0.0595  0.5464  1.8815
  599SOL    HW2 1797   2.849   0.399   2.395  0.3919 -0.7833  0.1672
  600SOL     OW 1798   2.820   1.051   2.769 -0.0349 -0.1544  0.2061
  600SOL    HW1 1799   2.807   0.969   2.830 -0.6934 -2.0192  1.9421
  600SOL    HW2 1800   2.797   1.140   2.821 -2.5067 -0.9387  0.2821
  601SOL     OW 1801   2.932   1.293   2.052  0.0521 -0.1542  0.2882
  601SOL    HW1 1802   2.854   1.334   2.002  0.6213 -2.3095  2.6085
  601SOL    HW2 1803   2.991   1.363   2.108 -2.2697  0.2783  0.3393
  602SOL     OW 1804   1.546   1.673   2.359 -0.2162  0.0998  0.2848
  602SOL    HW1 1805   1.485   1.584   2.338 -1.0722 -2.8845  0.2016
  602SOL    HW2 1806   1.641   1.644   2.398  1.8595 -2.1986  2.6948
  603SOL     OW 1807   0.713   1.253   2.602 -0.0436  0.3030 -0.2096
  603SOL    HW1 1808   0.645   1.246   2.524 -2.3855  0.3954 -2.4586
  603SOL    HW2 1809   0.764   1.167   2.622 -1.5498  0.7728 -1.2036
  604SOL     OW 1810   2.372   1.005   0.172  0.1466 -0.0321  0.4138
  604SOL    HW1 1811   2.441   1.063   0.123 -2.7875  0.2640  0.6113
  604SOL    HW2 1812   2.347   0.918   0.117 -1.0695 -1.9828  1.8730
  605SOL     OW 1813   2.592   1.120   1.983  0.2502  0.4903 -0.4437
  605SOL    HW1 1814   2.585   1.036   1.922  1.1612  1.4417  1.6656
  605SOL    HW2 1815   2.619   1.092   2.080  3.2816 -0.0468  0.1127
  606SOL     OW 1816   1.519   2.510   2.587  0.4616 -0.0596  0.0803
  606SOL    HW1 1817   1.418   2.535   2.600  0.0824  1.2246  0.6339
  606SOL    HW2 1818   1.533   2.416   2.555  2.2082  1.8316 -0.2265
  607SOL     OW 1819   1.340   1.539   0.408  0.2679 -0.0210  0.4147
  607SOL    HW1 1820   1.316   1.484   0.490 -0.0059  0.5518 -2.0313
  607SOL    HW2 1821   1.324   1.637   0.422 -0.1444 -0.2055 -1.8354
  608SOL     OW 1822   1.391   2.898   0.420 -0.1467  0.4235  0.1785
  608SOL    HW1 1823   1.470   2.939   0.371  1.5466 -0.6667  2.9559
  608SOL    HW2 1824   1.329   2.965   0.466  0.6490 -1.0358 -1.2938
  609SOL     OW 1825   1.313   1.332   0.249 -0.6353  0.3666  0.3355
  609SOL    HW1 1826   1.319   1.416   0.309  1.5881 -0.4212  1.9620
  609SOL    HW2 1827   1.228   1.331   0.194 -0.7055 -0.5099  2.2871
  610SOL     OW 1828   2.998   1.062   2.268 -0.5437 -0.4312 -0.5876
  610SOL    HW1 1829   2.983   0.960   2.255  0.5975  0.1798  1.3188
  610SOL    HW2 1830   2.964   1.125   2.193 -0.5720 -0.4154 -0.6277
  611SOL     OW 1831   2.523   0.325   1.242 -0.2380  0.5413 -0.0670
  611SOL    HW1 1832   2.506   0.232   1.196  0.9275  1.3241 -0.3886
  611SOL    HW2 1833   2.624   0.333   1.263  0.7454  0.4062  0.9665
  612SOL     OW 1834   0.759   2.139   1.253 -0.3429 -0.3911  0.1934
  612SOL    HW1 1835   0.665   2.106   1.283 -2.7078 -3.2808 -0.3236
  612SOL    HW2 1836   0.747   2.219   1.191 -1.2164 -3.1279  0.6077
  613SOL     OW 1837   0.940   1.397   2.372 -0.5569  0.0702  0.5529
  613SOL    HW1 1838   0.971   1.454   2.291 -0.6892  2.3709  2.4257
  613SOL    HW2 1839   0.860   1.334   2.341 -1.2179 -3.6069  1.3395
  614SOL     OW 1840   1.665   1.545   1.768  0.0188 -0.2253  0.3675
  614SOL    HW1 1841   1.591   1.608   1.732  1.1340  0.1770 -0.6796
  614SOL    HW2 1842   1.699   1.574   1.863 -0.7010  1.5613  1.7982
  615SOL     OW 1843   0.783   1.263   1.738  0.1924  0.0003  0.6645
  615SOL    HW1 1844   0.730   1.235   1.657  1.1801 -1.4919  0.8433
  615SOL    HW2 1845   0.820   1.359   1.728  0.5650  4.6967 -0.7105
  616SOL     OW 1846   1.010   1.583   2.155 -0.0337 -0.3670  0.5400
  616SOL    HW1 1847   0.974   1.621   2.065 -0.2214  0.6574 -2.4491
  616SOL    HW2 1848   1.057   1.654   2.215 -0.7011  1.4552 -0.4178
  617SOL     OW 1849   2.963   1.517   1.593 -0.0084 -0.2692  0.2848
  617SOL    HW1 1850   2.978   1.427   1.639 -2.2025 -2.7349  0.3180
  617SOL    HW2 1851   2.987   1.516   1.491 -0.0254  2.6060 -1.5370
  618SOL     OW 1852   1.872   2.019   1.388 -0.3000  0.6920  0.1205
  618SOL    HW1 1853   1.924   2.094   1.336  0.3639 -1.4638 -0.6332
  618SOL    HW2 1854   1.849   1.940   1.325 -1.0830 -0.2407 -1.4119
  619SOL     OW 1855   1.733   0.438   2.380  0.2995 -0.3566 -0.0536
  619SOL    HW1 1856   1.664   0.496   2.325 -0.6705 -1.8345  0.0880
  619SOL    HW2 1857   1.698   0.344   2.379 -0.8152  2.6091 -1.6291
  620SOL     OW 1858   2.260   2.815   0.749 -0.0846  0.1153 -0.1248
  620SOL    HW1 1859   2.158   2.810   0.753  1.5391 -0.0907  0.4426
  620SOL    HW2 1860   2.307   2.730   0.793  1.7538 -1.1991 -0.6664
  621SOL     OW 1861   2.188   1.930   1.350  0.1933 -0.1668 -0.2327
  621SOL    HW1 1862   2.187   1.931   1.454  0.8987 -0.6761  0.7600
  621SOL    HW2 1863   2.130   1.850   1.316  2.0950 -1.3306  1.0195
  622SOL     OW 1864   2.296   0.947   1.857  0.7488  0.6522 -0.2850
  622SOL    HW1 1865   2.390   0.948   1.818 -0.7152 -1.4517  2.8044
  622SOL    HW2 1866   2.273   0.854   1.899 -0.0593 -3.0150 -2.1350
  623SOL     OW 1867   1.249   0.831   2.529 -0.1497 -0.1287  0.4315
  623SOL    HW1 1868   1.204   0.747   2.561 -1.4645 -0.5348 -0.1266
  623SOL    HW2 1869   1.232   0.861   2.431  1.2440  2.4272 -2.0572
  624SOL     OW 1870   0.497   0.654   3.017 -0.0025  0.5048  0.1107
  624SOL    HW1 1871   0.570   0.697   2.954  0.4692 -1.0932  0.8390
  624SOL    HW2 1872   0.488   0.708   3.105  0.8086  0.0534 -0.5548
  625SOL     OW 1873   2.727   1.708   0.997  0.5137  0.3088 -0.1523
  625SOL    HW1 1874   2.643   1.772   1.006  0.0493 -1.1889 -0.0634
  625SOL    HW2 1875   2.819   1.762   1.006  0.3110 -0.6986  0.5640
  626SOL     OW 1876   0.640   2.687   1.768  0.3586 -0.4447 -0.6467
  626SOL    HW1 1877   0.707   2.723   1.841 -1.6165  0.9133 -2.8288
  626SOL    HW2 1878   0.540   2.698   1.794  1.9225  0.0330  0.7259
  627SOL     OW 1879   0.662   0.822   1.681  0.7073  0.2390 -0.2101
  627SOL    HW1 1880   0.595   0.756   1.630  0.1037 -3.0608 -1.9793
  627SOL    HW2 1881   0.714   0.882   1.612  0.5277  2.3595  1.0512
  628SOL     OW 1882   2.358   0.110   0.756  0.5096  0.2559 -0.0547
  628SOL    HW1 1883   2.391   0.041   0.686  1.6250  0.8810 -0.2145
  628SOL    HW2 1884   2.252   0.125   0.740 -1.6518  2.5635 -1.3664
  629SOL     OW 1885   1.906   0.931   1.987  0.3677  0.0446  0.2339
  629SOL    HW1 1886   1.892   1.017   1.926 -1.8745  0.0567 -1.4280
  629SOL    HW2 1887   1.964   0.942   2.073  2.7790 -1.6281  0.5715
  630SOL     OW 1888   2.908   2.205   0.789 -0.5493 -0.1545  0.3557
  630SOL    HW1 1889   2.849   2.286   0.814 -0.7885  0.3497  1.8385
  630SOL    HW2 1890   2.863   2.114   0.807 -1.1966  2.1531  0.2478
  631SOL     OW 1891   3.043   0.109   2.072  0.1056 -0.2624  0.4819
  631SOL    HW1 1892   3.120   0.161   2.122  2.1460  1.6645  0.4616
  631SOL    HW2 1893   3.075   0.074   1.979  0.0924 -1.0033  0.7527
  632SOL     OW 1894   2.416   2.580   0.638 -1.0997 -0.2437  0.4080
  632SOL    HW1 1895   2.471   2.661   0.677 -2.0952  2.2180  1.5339
  632SOL    HW2 1896   2.360   2.595   0.554 -0.8655  0.0321  3.9799
  633SOL     OW 1897   1.495   1.254   2.657  0.5911 -0.1235  0.2272
  633SOL    HW1 1898   1.479   1.319   2.737 -1.2174  1.5569  1.5370
  633SOL    HW2 1899   1.422   1.265   2.586  1.0345  3.0936 -0.0272
  634SOL     OW 1900   0.710   2.095   0.847 -0.2726 -0.5099  0.0317
  634SOL    HW1 1901   0.626   2.080   0.906 -1.4578 -1.5185 -2.1957
  634SOL    HW2 1902   0.779   2.157   0.892  1.4426 -2.7257 -0.1357
  635SOL     OW 1903   3.073   2.385   0.021  0.2575 -0.1267  0.2970
  635SOL    HW1 1904   2.991   2.440  -0.014  1.1622  1.4393 -1.0996
  635SOL    HW2 1905   3.147   2.448   0.054  1.1910 -0.4923 -0.2751
  636SOL     OW 1906   2.370   2.707   2.067  0.1310 -0.6071 -0.1579
  636SOL    HW1 1907   2.363   2.807   2.092 -3.0056  1.2244  0.2323
  636SOL    HW2 1908   2.293   2.650   2.116 -0.3656 -0.5158  2.5182
  637SOL     OW 1909   2.694   0.582   1.975  0.6274  0.4470  0.2831
  637SOL    HW1 1910   2.614   0.586   1.902 -1.9825  0.3650  0.2641
  637SOL    HW2 1911   2.774   0.646   1.952  2.2092  0.7471  1.9442
  638SOL     OW 1912   2.463   1.865   1.324 -0.4595 -0.2304 -0.5712
  638SOL    HW1 1913   2.360   1.886   1.323  0.6175  4.4650  0.3084
  638SOL    HW2 1914   2.489   1.792   1.394  0.2477 -0.0704 -0.0198
  639SOL     OW 1915   1.249   2.202   1.628 -0.3889 -0.1566  0.7222
  639SOL    HW1 1916   1.296   2.295   1.623 -0.0193 -0.5884  0.1830
  639SOL    HW2 1917   1.229   2.177   1.731  3.4307 -0.2734  0.3015
  640SOL     OW 1918   0.179   1.244   1.546  0.0355 -0.1131 -0.2608
  640SOL    HW1 1919   0.149   1.272   1.640  0.4043 -0.7968 -0.8898
  640SOL    HW2 1920   0.254   1.172   1.544  0.1884 -1.5173 -1.5928
  641SOL     OW 1921   1.979   0.248   1.521  0.0116 -0.2738  0.2290
  641SOL    HW1 1922   1.906   0.301   1.577 -1.0061  0.2089  2.7062
  641SOL    HW2 1923   2.054   0.213   1.581 -2.3190 -0.0159 -0.7428
  642SOL     OW 1924   2.050   3.088   0.345 -0.0095  0.5073 -0.0176
  642SOL    HW1 1925   2.149   3.109   0.380 -0.8405 -0.5765  0.0831
  642SOL    HW2 1926   1.973   3.095   0.417  1.2621 -2.3091 -0.6483
  643SOL     OW 1927   2.915   1.934   2.118 -0.2576 -0.1312  1.0058
  643SOL    HW1 1928   2.820   1.894   2.104 -2.6229  1.3114  2.0811
  643SOL    HW2 1929   2.932   2.011   2.049  0.0727  1.2527  1.1443
  644SOL     OW 1930   2.295   2.404   1.251  0.1408  0.3498 -0.3625
  644SOL    HW1 1931   2.387   2.377   1.204  0.4667 -0.0335 -1.0385
  644SOL    HW2 1932   2.285   2.373   1.351 -2.8636  0.2796 -1.7844
  645SOL     OW 1933   0.693   0.843   1.259 -0.0333  0.1527 -0.5574
  645SOL    HW1 1934   0.600   0.807   1.293 -1.3075  1.5616  2.1832
  645SOL    HW2 1935   0.697   0.876   1.161  0.9505  1.1849  0.9150
  646SOL     OW 1936   1.524   1.786   2.032  0.1677  0.6884  0.2692
  646SOL    HW1 1937   1.582   1.836   1.962 -1.8053  0.9407  0.0124
  646SOL    HW2 1938   1.564   1.795   2.128 -0.3974 -1.4197  0.1960
  647SOL     OW 1939   0.767   1.092   0.626  0.0248 -0.6725  0.5722
  647SOL    HW1 1940   0.840   1.093   0.697 -0.5949  0.7647 -0.7370
  647SOL    HW2 1941   0.711   1.005   0.627  0.2090 -0.8380  1.6412
  648SOL     OW 1942   0.177   0.225   0.383  0.0945 -0.4837 -0.1651
  648SOL    HW1 1943   0.171   0.133   0.340 -0.8601 -2.3255 -0.6865
  648SOL    HW2 1944   0.172   0.306   0.318  1.2066  2.3072 -0.0455
  649SOL     OW 1945   2.999   0.273   0.910 -0.1625 -0.1693 -0.4026
  649SOL    HW1 1946   3.073   0.292   0.844 -1.0480 -0.3221 -0.8661
  649SOL    HW2 1947   3.008   0.329   0.995  0.6389  0.7569 -1.4922
  650SOL     OW 1948   2.804   0.721   1.482  0.3612  0.0741  0.9380
  650SOL    HW1 1949   2.702   0.689   1.485 -1.2552  2.0782 -2.4493
  650SOL    HW2 1950   2.813   0.808   1.421 -0.6383 -1.2751 -0.5933
  651SOL     OW 1951   0.886   1.526   1.671 -0.2138 -0.5536 -0.0742
  651SOL    HW1 1952   0.885   1.594   1.751  0.4743 -0.6305  0.1355
  651SOL    HW2 1953   0.981   1.519   1.627 -1.7940 -0.7609 -0.7869
  652SOL     OW 1954   2.341   2.528   2.503  0.6994 -0.3510 -0.1151
  652SOL    HW1 1955   2.244   2.552   2.517  2.0575 -0.5524  2.4824
  652SOL    HW2 1956   2.382   2.559   2.414  0.6875 -2.4005 -2.0615
  653SOL     OW 1957   2.695   1.273   0.185 -0.0811  0.5246  0.2167
  653SOL    HW1 1958   2.733   1.366   0.207 -0.6445 -1.5661 -1.4764
  653SOL    HW2 1959   2.769   1.199   0.175 -1.2964 -0.4434  0.6658
  654SOL     OW 1960   1.222   2.102   1.241  0.4238  0.2863  0.5474
  654SOL    HW1 1961   1.282   2.062   1.317 -1.4869  3.1747 -0.4927
  654SOL    HW2 1962   1.265   2.087   1.146  0.8732  1.1148  1.4629
  655SOL     OW 1963   0.196   0.990   1.933 -0.2164 -0.0152  0.0682
  655SOL    HW1 1964   0.248   0.942   1.855 -0.4072  1.4027  0.4647
  655SOL    HW2 1965   0.211   1.092   1.920  0.9061 -1.1175  1.7687
  656SOL     OW 1966   2.581   2.528   2.634 -0.3642  0.0126 -0.0631
  656SOL    HW1 1967   2.666   2.516   2.577  0.0460  0.7666 -0.0527
  656SOL    HW2 1968   2.494   2.507   2.583 -0.1963  1.9514  2.1977
  657SOL     OW 1969   3.020   1.054   1.910  0.1437  0.0204 -0.9556
  657SOL    HW1 1970   2.984   1.124   1.981 -0.0636 -1.0564 -2.4124
  657SOL    HW2 1971   3.122   1.030   1.918  1.3501 -0.7907  1.2241
  658SOL     OW 1972   1.650   0.178   2.361 -0.0198  0.5195  0.5933
  658SOL    HW1 1973   1.691   0.120   2.438 -0.7345 -0.8581  2.2842
  658SOL    HW2 1974   1.688   0.144   2.275  0.6684 -0.1200  0.3086
  659SOL     OW 1975   1.450   0.667   2.808  0.2847 -0.4645 -0.0562
  659SOL    HW1 1976   1.493   0.697   2.720  0.2481  0.2525 -3.9564
  659SOL    HW2 1977   1.353   0.701   2.817 -0.4387 -2.6140 -0.6689
  660SOL     OW 1978   1.432   0.305   1.412  0.0966  0.0369 -0.2403
  660SOL    HW1 1979   1.445   0.317   1.516  1.0553 -0.8222  1.2281
  660SOL    HW2 1980   1.507   0.256   1.359  0.7638  1.2840  2.2619
  661SOL     OW 1981   2.396   1.266   0.650 -0.2424  0.5192 -0.2277
  661SOL    HW1 1982   2.433   1.254   0.551  4.1836 -0.6567  0.7303
  661SOL    HW2 1983   2.334   1.352   0.655  1.1918 -2.5281 -2.1304
  662SOL     OW 1984   1.464   0.368   1.701 -0.1320 -0.4764  0.5021
  662SOL    HW1 1985   1.390   0.328   1.758  0.4712  2.6255 -0.9694
  662SOL    HW2 1986   1.468   0.470   1.717  0.2232  1.6610  1.4646
  663SOL     OW 1987   0.843   1.604   1.951  0.3689 -0.0803  0.3915
  663SOL    HW1 1988   0.816   1.674   2.025  3.6112 -1.4016 -2.1027
  663SOL    HW2 1989   0.790   1.512   1.960 -1.6063 -0.4611 -0.5641
  664SOL     OW 1990   1.606   2.113   1.417 -0.2781  0.0047 -0.4436
  664SOL    HW1 1991   1.536   2.063   1.471 -1.3990  1.0973  0.2314
  664SOL    HW2 1992   1.683   2.051   1.376 -0.2950 -2.4111 -0.0868
  665SOL     OW 1993   2.259   0.678   1.996  0.0429  0.0931 -0.3788
  665SOL    HW1 1994   2.252   0.575   1.997  0.1476  0.1350  2.4892
  665SOL    HW2 1995   2.335   0.708   2.066 -0.7487 -0.9680  0.4986
  666SOL     OW 1996   0.457   2.224   0.356 -0.2609  0.1301 -0.2465
  666SOL    HW1 1997   0.503   2.309   0.395 -2.9724  2.6488  1.7092
  666SOL    HW2 1998   0.352   2.241   0.354 -0.4576 -1.7752  2.3583
  667SOL     OW 1999   2.008   0.222   1.089 -0.6074  0.0021 -0.3706
  667SOL    HW1 2000   2.028   0.322   1.095  1.7027 -0.5695 -0.7985
  667SOL    HW2 2001   1.931   0.190   1.149 -1.9911 -0.0943  1.0217
  668SOL     OW 2002   1.989   0.499   1.077  0.4119  0.0952  0.5028
  668SOL    HW1 2003   2.078   0.509   1.024 -3.6275 -0.7456  1.8601
  668SOL    HW2 2004   2.009   0.498   1.178 -1.4087  1.1217  1.3521
  669SOL     OW 2005   3.060   2.148   1.031  0.4538  0.0668  0.2842
  669SOL    HW1 2006   3.013   2.173   0.938 -3.6398 -0.9910 -1.0429
  669SOL    HW2 2007   3.023   2.207   1.109  2.2543  2.0941 -0.7382
  670SOL     OW 2008   2.920   2.327   2.121 -0.0361 -0.4120 -0.5270
  670SOL    HW1 2009   2.832   2.328   2.177 -1.7037  0.4064 -0.8471
  670SOL    HW2 2010   2.917   2.414   2.066  1.1027  1.1865 -0.5148
  671SOL     OW 2011   1.762   1.681   1.506  0.3599  0.6080 -0.2048
  671SOL    HW1 2012   1.696   1.702   1.425 -0.6753  3.6511 -0.9693
  671SOL    HW2 2013   1.808   1.587   1.510 -0.0892 -1.0753 -2.3896
  672SOL     OW 2014   0.440   0.669   2.597 -0.6406 -0.2416 -0.0953
  672SOL    HW1 2015   0.395   0.710   2.510  0.6355 -0.5543  0.2200
  672SOL    HW2 2016   0.387   0.687   2.678  1.8380 -0.5092 -2.2103
  673SOL     OW 2017   0.084   1.390   1.075  0.2281 -0.1662  0.0457
  673SOL    HW1 2018   0.121   1.414   1.169  2.1155 -0.2369  1.0202
  673SOL    HW2 2019   0.159   1.378   0.999 -0.8370  0.9453 -1.0679
  674SOL     OW 2020   1.586   2.998   0.247  0.4000 -0.5464  0.6298
  674SOL    HW1 2021   1.631   3.062   0.182  0.0594 -1.0270 -2.1772
  674SOL    HW2 2022   1.559   2.912   0.197 -0.6752  0.7887  0.3675
  675SOL     OW 2023   1.648   0.852   2.332  0.3637  0.2510  0.0107
  675SOL    HW1 2024   1.749   0.859   2.340  3.0669 -1.1726  0.5852
  675SOL    HW2 2025   1.617   0.757   2.303  0.1972  0.8775 -1.6052
  676SOL     OW 2026   2.557   1.556   2.000 -0.2249 -0.1336 -0.3385
  676SOL    HW1 2027   2.511   1.508   1.920  0.3145 -0.4504  3.1094
  676SOL    HW2 2028   2.562   1.501   2.091  1.5892 -2.0320  2.0083
  677SOL     OW 2029   1.856   0.727   0.883 -0.0798 -0.2140  0.0697
  677SOL    HW1 2030   1.772   0.764   0.927  2.8600  2.4702  1.7744
  677SOL    HW2 2031   1.902   0.648   0.933  0.2969 -0.9889 -0.8537
  678SOL     OW 2032   0.076   0.833   1.645  0.3155 -0.5006  0.1261
  678SOL    HW1 2033   0.168   0.854   1.686 -1.4306  2.2740  0.6444
  678SOL    HW2 2034   0.016   0.767   1.698  0.5178 -1.6110 -1.7176
  679SOL     OW 2035   2.555   1.076   1.209  0.2654  0.5055 -0.4008
  679SOL    HW1 2036   2.457   1.096   1.226  0.0073 -0.5432  1.0843
  679SOL    HW2 2037   2.576   0.971   1.195  0.9433  0.5319  1.9992
  680SOL     OW 2038   2.825   0.538   1.689  0.2612 -0.5436  0.1521
  680SOL    HW1 2039   2.811   0.622   1.626  1.2098 -0.8001 -2.5927
  680SOL    HW2 2040   2.909   0.557   1.744  1.2352 -1.4580 -3.1899
  681SOL     OW 2041   2.990   0.019   1.551 -0.0287 -0.1095 -0.1013
  681SOL    HW1 2042   3.040   0.038   1.466 -0.4783 -1.6828 -0.0960
  681SOL    HW2 2043   2.900   0.067   1.539 -0.5534  1.9777 -1.3295
  682SOL     OW 2044   0.627   0.074   1.281  0.4917 -0.3842 -0.1553
  682SOL    HW1 2045   0.559   0.009   1.329  0.2309 -2.2492 -1.2087
  682SOL    HW2 2046   0.712   0.022   1.245 -0.8048 -0.4893  0.6547
  683SOL     OW 2047   1.375   0.258   2.148  0.7905 -0.5900 -0.0028
  683SOL    HW1 2048   1.376   0.273   2.253 -0.0393 -0.0689 -2.8001
  683SOL    HW2 2049   1.469   0.265   2.104 -1.1924 -1.4089 -0.2769
  684SOL     OW 2050   1.427   2.172   0.577  0.3408  0.3168 -0.0119
  684SOL    HW1 2051   1.470   2.104   0.643 -0.6390 -0.6763 -1.5637
  684SOL    HW2 2052   1.344   2.135   0.526 -0.6003  1.0666 -1.1603
  685SOL     OW 2053   2.258   2.071   1.982  0.3196  0.0055  0.1193
  685SOL    HW1 2054   2.313   1.986   1.966  2.1778  1.6100 -1.3413
  685SOL    HW2 2055   2.261   2.111   2.076 -1.7570 -0.2979 -0.3680
  686SOL     OW 2056   1.559   1.882   2.948 -0.1799  0.1607  0.1628
  686SOL    HW1 2057   1.571   1.835   3.042 -0.4212 -2.5567  0.9359
  686SOL    HW2 2058   1.476   1.845   2.899 -0.5396  1.0019  0.8992
  687SOL     OW 2059   1.373   2.403   1.956 -0.2699 -0.7736 -0.3289
  687SOL    HW1 2060   1.377   2.302   1.947 -1.5953  2.5977  0.3734
  687SOL    HW2 2061   1.356   2.434   2.053  1.7111  2.0109  0.3870
  688SOL     OW 2062   2.075   1.484   1.720  0.5156  0.0014  0.5792
  688SOL    HW1 2063   2.156   1.544   1.701 -1.2428  1.0546 -1.8479
  688SOL    HW2 2064   2.034   1.445   1.632  0.4413  0.5870  0.0752
  689SOL     OW 2065   2.371   1.124   2.780  0.2048  0.1323 -0.3643
  689SOL    HW1 2066   2.274   1.092   2.785 -0.9923  0.1181  2.0054
  689SOL    HW2 2067   2.419   1.110   2.871  1.1696 -0.9715  1.4071
  690SOL     OW 2068   2.207   2.745   0.069  0.1055  0.2020  0.3065
  690SOL    HW1 2069   2.157   2.738  -0.023 -1.1930 -1.6314 -0.3824
  690SOL    HW2 2070   2.140   2.709   0.148 -3.5415 -0.1175  2.7676
  691SOL     OW 2071   2.565   0.398   2.129 -0.0250  0.2382  0.2864
  691SOL    HW1 2072   2.635   0.320   2.138 -0.2361 -1.1431 -1.2593
  691SOL    HW2 2073   2.604   0.473   2.062  0.5621  0.6781  0.8779
  692SOL     OW 2074   2.666   1.209   0.763 -0.0158  0.6135  0.4121
  692SOL    HW1 2075   2.577   1.239   0.714  1.4952  0.1006 -0.6467
  692SOL    HW2 2076   2.712   1.288   0.810 -1.8490  0.6371 -0.4274
  693SOL     OW 2077   2.875   2.928   0.610 -0.1909  0.0812 -0.6309
  693SOL    HW1 2078   2.889   2.997   0.687 -3.5235 -0.6196  0.0336
  693SOL    HW2 2079   2.871   2.973   0.518 -0.5286 -1.2156 -0.1613
  694SOL     OW 2080   2.382   2.222   0.139  0.4129  0.6564  0.6196
  694SOL    HW1 2081   2.384   2.315   0.177 -0.1652 -3.0183 -2.3494
  694SOL    HW2 2082   2.289   2.186   0.119  0.2856 -0.0022  2.9554
  695SOL     OW 2083   0.491   2.996   1.472 -0.6976  0.0320 -0.4030
  695SOL    HW1 2084   0.423   2.923   1.435 -2.3979 -1.0869  1.6387
  695SOL    HW2 2085   0.448   3.050   1.555  2.1569  0.9419  0.6314
  696SOL     OW 2086   2.758   1.975   0.764  0.7140 -0.0885 -0.3880
  696SOL    HW1 2087   2.825   1.898   0.781 -1.8006  1.4579 -0.5307
  696SOL    HW2 2088   2.754   2.003   0.666 -1.9639  0.6838  0.5980
  697SOL     OW 2089   1.676   1.861   1.810  0.0379  0.3748  0.2513
  697SOL    HW1 2090   1.763   1.822   1.768  2.8126 -0.9112  0.1005
  697SOL    HW2 2091   1.680   1.965   1.818 -0.3949  0.3292  0.0693
  698SOL     OW 2092   2.917   0.427   2.662  0.2241  0.1611 -0.5603
  698SOL    HW1 2093   2.957   0.413   2.569 -0.9326 -0.4956  1.8232
  698SOL    HW2 2094   2.960   0.362   2.732 -0.1895  0.1511 -1.9211
  699SOL     OW 2095   1.600   0.080   2.924 -1.1318  0.0535  0.1323
  699SOL    HW1 2096   1.561  -0.007   2.881  1.5601 -1.0286  2.8115
  699SOL    HW2 2097   1.645   0.142   2.852 -0.5562 -0.5073  0.2377
  700SOL     OW 2098   0.994   2.240   1.345  0.0527 -0.0976  0.0503
  700SOL    HW1 2099   1.075   2.185   1.318 -4.5504  0.0064  2.4738
  700SOL    HW2 2100   0.903   2.190   1.347  0.8646 -2.9586 -0.1752
  701SOL     OW 2101   1.913   2.866   0.041  0.1420 -0.4453  0.4972
  701SOL    HW1 2102   1.906   2.833   0.142 -1.7052 -1.1938  0.9665
  701SOL    HW2 2103   1.934   2.966   0.052 -0.3805 -0.9524  0.0518
  702SOL     OW 2104   2.095   1.348   1.964  0.1316  0.0153 -0.0034
  702SOL    HW1 2105   2.186   1.299   1.983 -0.5764  1.5349  0.0508
  702SOL    HW2 2106   2.095   1.391   1.868  0.3200 -1.3530  1.1180
  703SOL     OW 2107   1.948   0.885   1.485 -0.5554  0.2029  0.8718
  703SOL    HW1 2108   1.955   0.781   1.494  1.0772  0.0191 -0.0605
  703SOL    HW2 2109   2.000   0.934   1.560 -0.3497 -0.6419 -1.3201
  704SOL     OW 2110   0.323   2.069   1.729 -0.3463 -0.2066 -0.6590
  704SOL    HW1 2111   0.360   2.017   1.815 -0.5550 -1.2886  0.6298
  704SOL    HW2 2112   0.395   2.103   1.665 -0.2204  1.0091  0.7061
  705SOL     OW 2113   2.449   1.428   0.905 -0.6876  0.4126  0.4568
  705SOL    HW1 2114   2.423   1.382   0.817 -0.7990  0.1604  1.1798
  705SOL    HW2 2115   2.550   1.412   0.930  0.8307  1.1379  0.1087
  706SOL     OW 2116   0.610   1.708   1.809  0.4571 -0.2384  0.1578
  706SOL    HW1 2117   0.642   1.687   1.714  0.2813  2.3560  0.4202
  706SOL    HW2 2118   0.682   1.675   1.886  2.4907 -1.8635  1.2183
  707SOL     OW 2119   2.339   1.217   1.978 -0.1357  0.1856  0.6481
  707SOL    HW1 2120   2.443   1.215   1.977 -1.8931  2.3023 -1.5641
  707SOL    HW2 2121   2.302   1.122   1.999  0.9348 -1.3605 -1.2807
  708SOL     OW 2122   3.008   0.503   3.069  0.2452 -0.6204  0.2188
  708SOL    HW1 2123   3.106   0.536   3.058 -2.4401 -1.6087  1.2901
  708SOL    HW2 2124   2.974   0.446   2.986  1.1366 -1.3699  1.5406
  709SOL     OW 2125   1.871   1.899   0.383  0.1178  0.0850  0.0226
  709SOL    HW1 2126   1.851   1.997   0.393  2.7849 -0.2366  0.0975
  709SOL    HW2 2127   1.860   1.867   0.284  1.6114  1.1810 -1.6373
  710SOL     OW 2128   1.762   1.566   2.451  0.7470  0.3501 -0.3261
  710SOL    HW1 2129   1.825   1.516   2.391 -1.4855  0.8198  0.5974
  710SOL    HW2 2130   1.746   1.528   2.546 -0.1940 -1.1120  0.9807
  711SOL     OW 2131   2.697   2.868   0.958 -0.0235  0.5814 -0.5549
  711SOL    HW1 2132   2.633   2.942   0.916 -0.5903 -1.2767  0.0765
  711SOL    HW2 2133   2.796   2.901   0.967 -0.8320 -1.3113  0.8724
  712SOL     OW 2134   1.386   2.115   1.958  0.3074  0.0567  0.2472
  712SOL    HW1 2135   1.465   2.053   1.937  0.0155  0.5460 -1.3025
  712SOL    HW2 2136   1.315   2.110   1.888  2.2698  1.7768  3.8802
  713SOL     OW 2137   2.792   1.416   2.513  0.0126 -0.1983  0.0249
  713SOL    HW1 2138   2.797   1.312   2.507 -0.5804 -0.5630  0.4478
  713SOL    HW2 2139   2.709   1.439   2.568  0.0393 -0.1796 -2.2640
  714SOL     OW 2140   2.678   0.481   2.362  0.1368  0.7212  0.2530
  714SOL    HW1 2141   2.659   0.401   2.426  3.0099 -2.1065  1.1219
  714SOL    HW2 2142   2.634   0.459   2.275  0.1831  2.5728  1.2868
  715SOL     OW 2143   1.581   2.159   1.155 -0.0709 -0.1814  0.4814
  715SOL    HW1 2144   1.499   2.193   1.099 -1.2370  3.6646 -1.0880
  715SOL    HW2 2145   1.560   2.162   1.256 -1.4354 -1.5342 -0.5037
  716SOL     OW 2146   1.271   0.119   1.528  0.2001  0.1826 -0.2014
  716SOL    HW1 2147   1.169   0.123   1.513  3.8307  3.4213 -2.8077
  716SOL    HW2 2148   1.317   0.196   1.475 -2.2444 -0.8756  0.7822
  717SOL     OW 2149   1.169   0.576   1.636  0.2058  0.3589  0.0135
  717SOL    HW1 2150   1.269   0.608   1.648 -0.3121 -0.0987  2.4726
  717SOL    HW2 2151   1.158   0.538   1.539 -0.1668 -1.3858 -1.6677
  718SOL     OW 2152   0.657   0.881   0.957  0.1074 -0.3247  0.2975
  718SOL    HW1 2153   0.643   0.895   0.856  1.9657 -2.3677 -0.1211
  718SOL    HW2 2154   0.637   0.969   1.007  0.3792 -3.5448 -1.1590
  719SOL     OW 2155   0.698   1.722   2.260 -0.4070  0.3425 -0.0005
  719SOL    HW1 2156   0.744   1.777   2.329 -2.5321  0.0039 -0.7327
  719SOL    HW2 2157   0.636   1.646   2.303 -1.7322 -0.5295  0.5439
  720SOL     OW 2158   2.190   1.155   0.264  0.4787  0.5244 -0.0444
  720SOL    HW1 2159   2.261   1.088   0.219  1.7328 -2.2746  0.7032
  720SOL    HW2 2160   2.172   1.130   0.364 -0.2384  0.0210 -1.0583
  721SOL     OW 2161   2.253   3.000   2.138 -0.0370  0.6207 -0.3837
  721SOL    HW1 2162   2.268   3.023   2.037 -1.7462  0.7324  1.4617
  721SOL    HW2 2163   2.163   3.045   2.174 -1.1603  3.7193 -1.8377
  722SOL     OW 2164   2.359   1.686   0.543 -0.2459 -0.6044  0.3196
  722SOL    HW1 2165   2.404   1.693   0.454 -0.9355  1.0414  0.4801
  722SOL    HW2 2166   2.265   1.726   0.536  0.9997  0.9805  1.2979
  723SOL     OW 2167   2.648   2.775   1.946 -0.0125  0.2656  0.0739
  723SOL    HW1 2168   2.697   2.858   1.978  1.2395 -0.6840 -0.5997
  723SOL    HW2 2169   2.565   2.750   2.001 -1.2004 -0.0716  0.4681
  724SOL     OW 2170   0.379   2.510   2.418  0.0577  0.0553 -0.0561
  724SOL    HW1 2171   0.282   2.512   2.384 -0.7478 -0.1175 -1.9496
  724SOL    HW2 2172   0.393   2.478   2.516 -1.5518  1.9292 -1.9789
  725SOL     OW 2173   2.469   2.842   1.439 -0.5238  0.7606  0.4014
  725SOL    HW1 2174   2.500   2.885   1.349  2.1480  0.5286  2.7737
  725SOL    HW2 2175   2.502   2.741   1.445  0.5810 -2.6049 -1.5472
  726SOL     OW 2176   2.526   2.333   0.690  0.3159 -0.1852 -0.4192
  726SOL    HW1 2177   2.489   2.432   0.672  0.6501 -1.3026 -0.1885
  726SOL    HW2 2178   2.501   2.268   0.618  1.8115  2.5497 -0.5551
  727SOL     OW 2179   0.109   3.097   0.103 -0.3317  0.1037 -0.4035
  727SOL    HW1 2180   0.207   3.131   0.082  0.8896  1.2530 -2.1398
  727SOL    HW2 2181   0.082   3.010   0.061 -0.2186  1.9838 -0.0164
  728SOL     OW 2182   2.894   0.727   0.954 -0.0661 -0.7477 -0.3760
  728SOL    HW1 2183   2.835   0.715   0.865 -0.1616  0.3113 -1.1032
  728SOL    HW2 2184   2.857   0.678   1.039  1.1185  0.8311  0.6709
  729SOL     OW 2185   0.029   2.565   0.774  0.3706 -0.3075  0.0575
  729SOL    HW1 2186   0.055   2.532   0.867  0.0709  0.1054  0.7048
  729SOL    HW2 2187   0.101   2.567   0.705 -0.2110 -1.1337 -1.4576
  730SOL     OW 2188   2.570   0.705   0.884  0.1210  0.0243  0.3942
  730SOL    HW1 2189   2.564   0.807   0.875 -2.7039 -1.5005 -2.2188
  730SOL    HW2 2190   2.627   0.668   0.808 -0.2772 -1.1206  1.4150
  731SOL     OW 2191   3.089   2.207   2.327  0.0735 -0.4835  0.1370
  731SOL    HW1 2192   3.064   2.229   2.425  1.1612  1.3350 -0.7006
  731SOL    HW2 2193   3.024   2.254   2.258 -3.2327 -0.9917 -0.7588
  732SOL     OW 2194   1.278   2.748   1.979 -0.3429 -0.3901  0.4368
  732SOL    HW1 2195   1.279   2.680   2.056 -0.7655  1.0630 -0.5508
  732SOL    HW2 2196   1.262   2.704   1.885  0.4435  0.2564 -0.5423
  733SOL     OW 2197   0.026   0.608   2.252 -0.1512 -0.1095  0.0330
  733SOL    HW1 2198   0.078   0.675   2.188  1.1072 -0.1197 -0.8287
  733SOL    HW2 2199  -0.037   0.545   2.198  0.6159 -1.2858 -0.9254
  734SOL     OW 2200   1.468   0.407   2.718 -0.3623  0.2504  0.1371
  734SOL    HW1 2201   1.499   0.491   2.771  1.2999  1.3704 -0.2548
  734SOL    HW2 2202   1.369   0.377   2.735 -0.6801 -1.8304  1.4482
  735SOL     OW 2203   2.959   2.633   2.301  0.1107  0.2884  0.0760
  735SOL    HW1 2204   2.954   2.599   2.205  0.0410  0.6082 -1.3232
  735SOL    HW2 2205   3.024   2.710   2.303  0.8150 -3.1592  0.9450
  736SOL     OW 2206   0.915   0.407   2.555  0.5931  0.4007  0.1836
  736SOL    HW1 2207   0.816   0.420   2.572  1.7411  0.1204 -1.9561
  736SOL    HW2 2208   0.936   0.355   2.467 -1.3548 -1.9895  1.1744
  737SOL     OW 2209   2.651   0.453   2.775 -0.7675 -0.2572  0.0100
  737SOL    HW1 2210   2.627   0.427   2.872 -1.1425 -0.6226 -3.1301
  737SOL    HW2 2211   2.752   0.441   2.743  1.3462 -2.5417 -0.0293
  738SOL     OW 2212   1.746   1.222   2.937 -0.2166  0.0863  0.3947
  738SOL    HW1 2213   1.842   1.206   2.898 -0.2887 -0.6224 -1.4935
  738SOL    HW2 2214   1.690   1.141   2.967  0.0216  1.2242  1.4246
  739SOL     OW 2215   1.836   0.711   0.597 -0.1439 -0.7865 -0.3194
  739SOL    HW1 2216   1.867   0.731   0.696  3.0623  2.2563  1.1257
  739SOL    HW2 2217   1.843   0.611   0.575  1.2409  2.7422  2.8207
  740SOL     OW 2218   1.971   1.939   2.344  0.0009  0.1931 -0.3155
  740SOL    HW1 2219   2.036   1.858   2.377  0.5302 -3.4079  0.8173
  740SOL    HW2 2220   1.908   1.904   2.268  1.7428  1.0177  1.7083
  741SOL     OW 2221   2.540   0.058   2.464 -0.4261 -1.0906  0.0736
  741SOL    HW1 2222   2.645   0.056   2.461 -0.6714 -5.4330 -0.6962
  741SOL    HW2 2223   2.505   0.090   2.371  1.2179 -1.1767 -1.3506
  742SOL     OW 2224   2.192   1.420   0.191 -0.4916 -1.0473  0.0625
  742SOL    HW1 2225   2.092   1.436   0.173 -1.6628 -0.9913  1.9104
  742SOL    HW2 2226   2.213   1.324   0.218  2.0258  2.4834 -0.1022
  743SOL     OW 2227   1.834   0.620   2.606  0.2476 -0.2841  0.8222
  743SOL    HW1 2228   1.810   0.553   2.528 -1.8649  1.2771 -0.2861
  743SOL    HW2 2229   1.750   0.651   2.662 -1.2549  1.7808 -0.1572
  744SOL     OW 2230   2.633   2.161   0.122  0.1959  0.5505 -0.8269
  744SOL    HW1 2231   2.547   2.182   0.175 -1.8028 -0.7782 -1.4821
  744SOL    HW2 2232   2.658   2.059   0.107  0.4679 -0.6576  1.0224
  745SOL     OW 2233   2.181   2.525   2.220  0.2997  0.6294 -0.2166
  745SOL    HW1 2234   2.102   2.564   2.162  0.1599  0.5606  0.7148
  745SOL    HW2 2235   2.158   2.508   2.319  2.7433 -0.2374  2.8645
  746SOL     OW 2236   0.009   2.575   1.760  0.6868  0.1759 -0.2730
  746SOL    HW1 2237   0.104   2.556   1.724 -1.0145  1.8171 -1.3465
  746SOL    HW2 2238   0.003   2.640   1.840  0.9177  0.2867 -0.8451
  747SOL     OW 2239   0.012   1.794   1.651  0.4256  0.0332 -0.3469
  747SOL    HW1 2240  -0.035   1.703   1.647  1.0200  1.1214  1.5581
  747SOL    HW2 2241   0.073   1.795   1.571  1.4960 -0.6281 -0.3815
  748SOL     OW 2242   1.836   2.707   2.921  0.3671  0.2723 -0.3920
  748SOL    HW1 2243   1.865   2.782   2.989  0.7622  2.9857  3.0292
  748SOL    HW2 2244   1.731   2.718   2.899 -2.0602  0.0656 -3.4240
  749SOL     OW 2245   1.303   2.934   0.831  0.1569  0.8909  0.3792
  749SOL    HW1 2246   1.225   2.992   0.811  2.2992 -3.6854  0.4958
  749SOL    HW2 2247   1.393   2.980   0.794  1.9931  1.8080 -0.3839
  750SOL     OW 2248   2.243   0.185   1.856 -0.4592 -0.5596 -0.1434
  750SOL    HW1 2249   2.287   0.240   1.781 -3.0851  0.5254  1.8414
  750SOL    HW2 2250   2.261   0.236   1.944 -0.6586 -0.4432 -4.0307
  751SOL     OW 2251   0.782   2.148   2.901 -0.4770 -0.4054 -0.1655
  751SOL    HW1 2252   0.865   2.115   2.956 -0.0085 -2.2804  0.2837
  751SOL    HW2 2253   0.698   2.091   2.917  0.1428  0.7541 -2.2201
  752SOL     OW 2254   1.342   0.803   1.165 -0.4909  0.0345  0.4367
  752SOL    HW1 2255   1.368   0.904   1.181 -2.6611  2.4375 -0.4024
  752SOL    HW2 2256   1.395   0.740   1.227 -0.3391  0.9262 -0.9395
  753SOL     OW 2257   0.976   2.564   1.782 -0.5019 -0.1774  0.0208
  753SOL    HW1 2258   1.080   2.577   1.764 -3.8572 -0.0861 -0.0652
  753SOL    HW2 2259   0.932   2.655   1.813  1.5271 -2.0699  0.1972
  754SOL     OW 2260   1.174   1.153   2.991  0.3638 -0.3797 -0.1626
  754SOL    HW1 2261   1.224   1.077   2.938  1.0542 -1.4042 -1.3574
  754SOL    HW2 2262   1.221   1.246   2.987  0.4085  0.7950 -0.9172
  755SOL     OW 2263   1.967   0.472   2.213 -0.4515  0.0616  0.0930
  755SOL    HW1 2264   2.045   0.401   2.218  2.1703 -4.1017  0.6152
  755SOL    HW2 2265   1.888   0.451   2.275  2.0607  0.3188  0.0652
  756SOL     OW 2266   2.497   0.971   2.999 -0.4940 -0.2051  0.2131
  756SOL    HW1 2267   2.598   0.944   3.016  1.6567  0.0624  0.0513
  756SOL    HW2 2268   2.442   0.885   3.014  1.3448 -0.8439 -0.0896
  757SOL     OW 2269   0.097   0.428   1.968 -0.0254 -0.1396 -0.0204
  757SOL    HW1 2270   0.174   0.367   1.985 -3.9607  1.3087 -2.7604
  757SOL    HW2 2271   0.007   0.408   2.024 -0.7006  0.3689  2.3336
  758SOL     OW 2272   2.289   0.071   1.486 -0.8835 -0.0279  0.3540
  758SOL    HW1 2273   2.258  -0.024   1.510 -2.3806  3.5162  2.5361
  758SOL    HW2 2274   2.280   0.093   1.384  0.2825 -0.5763  0.1563
  759SOL     OW 2275   1.702   0.093   0.072  0.0925 -0.6553 -0.8145
  759SOL    HW1 2276   1.658   0.091  -0.019 -0.0081 -2.2977 -0.9637
  759SOL    HW2 2277   1.802   0.070   0.062  0.4398 -0.8371  1.4899
  760SOL     OW 2278   2.704   2.011   2.850  0.1065 -0.0782  0.2797
  760SOL    HW1 2279   2.613   2.057   2.878 -2.9174  0.5392 -1.3366
  760SOL    HW2 2280   2.782   2.076   2.830 -2.8405  1.6967 -2.1467
  761SOL     OW 2281   1.918   1.767   1.706 -0.3411 -0.5857  0.0201
  761SOL    HW1 2282   1.934   1.684   1.768  0.1907  1.0879  2.1911
  761SOL    HW2 2283   1.869   1.747   1.613  0.8627 -0.4999 -1.9892
  762SOL     OW 2284   0.490   2.421   0.932 -0.2828  0.2684 -0.0519
  762SOL    HW1 2285   0.544   2.430   0.841  0.4295 -0.2728  0.9243
  762SOL    HW2 2286   0.554   2.411   1.014  0.2822 -0.4231 -1.7599
  763SOL     OW 2287   2.131   1.605   2.988 -0.3555 -0.2895 -0.3350
  763SOL    HW1 2288   2.225   1.574   3.008  0.7829  0.9061  0.0982
  763SOL    HW2 2289   2.058   1.559   3.045  1.5396  1.1050 -0.2382
  764SOL     OW 2290   0.666   0.599   0.668 -0.1662  0.1103 -0.1236
  764SOL    HW1 2291   0.571   0.568   0.645 -0.9395  0.2588  1.2487
  764SOL    HW2 2292   0.701   0.571   0.763  0.6126 -1.0698  2.5538
  765SOL     OW 2293   0.816   0.320   0.718 -0.1180  0.5698 -0.7618
  765SOL    HW1 2294   0.836   0.365   0.632  0.4727 -1.7967  2.0931
  765SOL    HW2 2295   0.818   0.392   0.800  2.7780  2.9132  2.1315
  766SOL     OW 2296   2.915   2.169   3.053  0.0732 -0.2467  0.2822
  766SOL    HW1 2297   2.811   2.184   3.073 -1.2267  1.0848 -2.0042
  766SOL    HW2 2298   2.981   2.240   3.085 -1.3129 -0.5294  0.6575
  767SOL     OW 2299   2.834   1.601   0.569  0.0181 -0.2377  0.4069
  767SOL    HW1 2300   2.755   1.625   0.631 -0.7272  0.2965 -1.2629
  767SOL    HW2 2301   2.924   1.639   0.601  0.3931  1.0411  0.4631
  768SOL     OW 2302   1.041   0.197   0.177  0.7769 -0.2156 -0.0029
  768SOL    HW1 2303   1.017   0.264   0.251  0.4523 -0.5587  0.6685
  768SOL    HW2 2304   1.130   0.148   0.206  1.0594 -0.1809  0.7065
  769SOL     OW 2305   1.131   1.813   2.285  0.1080  0.2662 -0.0695
  769SOL    HW1 2306   1.047   1.866   2.327 -0.1673 -1.2283 -0.9620
  769SOL    HW2 2307   1.216   1.805   2.350  1.9648  0.1027  2.0602
  770SOL     OW 2308   0.179   1.156   2.331  0.0076 -0.0586  0.2033
  770SOL    HW1 2309   0.177   1.209   2.421  1.5827  0.4014  2.4171
  770SOL    HW2 2310   0.084   1.124   2.305 -0.5009  1.6974  3.1387
  771SOL     OW 2311   3.055   2.811   1.914 -0.5256  0.3437  0.4546
  771SOL    HW1 2312   2.987   2.833   1.842 -0.5880 -0.6205  2.0596
  771SOL    HW2 2313   3.036   2.870   1.994  2.3229  3.1757 -0.2356
  772SOL     OW 2314   2.352   0.229   2.853 -0.2080  0.8327 -0.5476
  772SOL    HW1 2315   2.406   0.162   2.793 -0.0001 -2.4395  1.7701
  772SOL    HW2 2316   2.399   0.253   2.936 -1.2364 -1.8855 -0.5327
  773SOL     OW 2317   0.580   2.066   2.417  0.0396 -0.5145  0.0999
  773SOL    HW1 2318   0.537   2.138   2.355 -0.3379 -0.6937  1.8162
  773SOL    HW2 2319   0.510   2.012   2.467  4.4894  1.5185  1.9173
  774SOL     OW 2320   2.126   0.013   2.590  0.4634 -0.0700  0.1594
  774SOL    HW1 2321   2.142   0.115   2.612  0.0991  2.6006 -2.0974
  774SOL    HW2 2322   2.157  -0.055   2.663 -1.0354 -0.9475 -0.8354
  775SOL     OW 2323   2.563   2.909   2.235 -0.6649  0.5706  0.1989
  775SOL    HW1 2324   2.476   2.953   2.244  2.8331  0.3427 -1.2891
  775SOL    HW2 2325   2.616   2.904   2.326 -0.6897 -0.3724  0.2494
  776SOL     OW 2326   0.021   1.240   0.201  0.0186  0.0517 -0.0577
  776SOL    HW1 2327  -0.026   1.180   0.132  1.8031 -0.3923  0.5467
  776SOL    HW2 2328  -0.038   1.256   0.280  3.6111  0.5586  0.5064
  777SOL     OW 2329   0.397   2.977   0.493  0.0646 -0.4644 -0.2956
  777SOL    HW1 2330   0.310   2.939   0.461 -1.1420 -0.1845  0.7748
  777SOL    HW2 2331   0.459   2.906   0.533  3.5431 -0.8599 -2.9473
  778SOL     OW 2332   1.390   2.007   0.267 -0.0398  0.3067 -0.3540
  778SOL    HW1 2333   1.314   2.053   0.313  0.1977  1.2085 -1.6155
  778SOL    HW2 2334   1.424   2.056   0.182 -0.8972  2.1872  0.5349
  779SOL     OW 2335   0.146   0.806   0.466  0.0814  0.1228  0.2375
  779SOL    HW1 2336   0.084   0.724   0.433 -0.6784 -2.5870  3.8308
  779SOL    HW2 2337   0.090   0.883   0.505  2.2068 -2.0281 -1.5979
  780SOL     OW 2338   0.122   0.323   2.335  0.1021 -0.1473  0.1081
  780SOL    HW1 2339   0.117   0.396   2.408  1.7421  0.8106 -1.0017
  780SOL    HW2 2340   0.203   0.338   2.271 -0.7283 -0.9695 -3.8110
  781SOL     OW 2341   0.681   1.657   1.527  0.5005  0.3893 -0.5515
  781SOL    HW1 2342   0.739   1.588   1.581  0.8402  1.4658  0.1655
  781SOL    HW2 2343   0.579   1.641   1.519  0.8398  0.0406 -0.0304
  782SOL     OW 2344   2.578   0.039   0.918 -0.3990  0.4529  0.1951
  782SOL    HW1 2345   2.498   0.056   0.856  1.4731  0.6602  0.0432
  782SOL    HW2 2346   2.571   0.103   0.999  0.7071  1.1061 -1.6699
  783SOL     OW 2347   2.754   0.735   2.453 -0.1640 -0.4409  0.6196
  783SOL    HW1 2348   2.711   0.744   2.549  2.0193 -0.3462 -0.3773
  783SOL    HW2 2349   2.723   0.645   2.413  1.8287  1.2687 -0.1818
  784SOL     OW 2350   1.427   2.115   0.025  0.0895  0.5761 -0.0118
  784SOL    HW1 2351   1.405   2.207   0.067  0.0826  2.8310 -0.2348
  784SOL    HW2 2352   1.418   2.121  -0.082 -0.4164 -2.9373  2.1289
  785SOL     OW 2353   2.085   0.288   3.088 -0.3782  0.5308 -0.0695
  785SOL    HW1 2354   2.005   0.330   3.137  2.7639 -1.9166 -1.0858
  785SOL    HW2 2355   2.134   0.357   3.029  1.0277  1.3941  0.9999
  786SOL     OW 2356   2.059   2.195   2.271 -0.2328 -0.3523  0.0978
  786SOL    HW1 2357   2.035   2.098   2.280  1.7987  3.6242 -0.2300
  786SOL    HW2 2358   2.165   2.204   2.278  2.1867 -1.6572  0.2721
  787SOL     OW 2359   1.383   0.543   0.869 -0.3972  0.3962 -0.2063
  787SOL    HW1 2360   1.308   0.608   0.850  1.4068 -2.7715 -0.4794
  787SOL    HW2 2361   1.449   0.527   0.792  1.0307 -1.6021  0.2823
  788SOL     OW 2362   1.214   0.426   0.016  0.5524 -0.3864 -0.0174
  788SOL    HW1 2363   1.148   0.389  -0.051  2.7806 -0.2931 -2.2433
  788SOL    HW2 2364   1.165   0.495   0.075 -1.3990 -0.0605 -0.4766
  789SOL     OW 2365   2.544   0.120   1.966 -0.5611  0.0385 -0.1231
  789SOL    HW1 2366   2.503   0.092   1.877 -0.3659  0.9044 -0.9874
  789SOL    HW2 2367   2.616   0.058   1.996 -3.0942  2.7246 -1.7560
  790SOL     OW 2368   2.627   2.766   0.703 -0.2549  0.1700 -0.3344
  790SOL    HW1 2369   2.685   2.831   0.654 -0.7183 -1.9044  0.1556
  790SOL    HW2 2370   2.641   2.764   0.809  1.7759 -2.2457  2.5808
  791SOL     OW 2371   1.922   1.195   0.166  0.1559  0.3015  0.3128
  791SOL    HW1 2372   1.843   1.145   0.213 -1.5755 -2.7952  1.1223
  791SOL    HW2 2373   2.019   1.194   0.211  2.4525  0.4992  2.3483
  792SOL     OW 2374   0.430   1.782   2.190 -0.0006 -0.6392 -0.3205
  792SOL    HW1 2375   0.504   1.844   2.218 -1.1988  1.6145 -1.8318
  792SOL    HW2 2376   0.444   1.684   2.222 -0.0436 -2.4845 -1.8033
  793SOL     OW 2377   2.121   1.613   2.068  0.6130 -0.0233  0.0407
  793SOL    HW1 2378   2.199   1.659   2.023 -0.4517 -0.1225 -0.3157
  793SOL    HW2 2379   2.109   1.514   2.030 -0.3580 -1.8340  0.0462
  794SOL     OW 2380   0.491   1.505   2.286  0.2587 -1.0177  0.3229
  794SOL    HW1 2381   0.495   1.442   2.203 -0.1224  2.9554 -0.5899
  794SOL    HW2 2382   0.420   1.482   2.357 -0.5476 -0.0366 -2.2705
  795SOL     OW 2383   2.492   2.240   1.810  0.2586  0.4022  0.0541
  795SOL    HW1 2384   2.469   2.222   1.913 -2.7989 -1.0573  2.8205
  795SOL    HW2 2385   2.451   2.170   1.743  3.1763 -0.2835 -1.3569
  796SOL     OW 2386   3.073   1.101   2.677  0.2702 -0.2366 -1.0405
  796SOL    HW1 2387   2.978   1.102   2.725 -2.2527 -1.5309 -0.0967
  796SOL    HW2 2388   3.151   1.086   2.746 -0.1487 -0.4073 -0.3972
  797SOL     OW 2389   0.812   0.641   1.431  0.4262 -0.1155 -0.5025
  797SOL    HW1 2390   0.895   0.697   1.460 -1.1555  0.3269 -2.1495
  797SOL    HW2 2391   0.755   0.686   1.358 -0.1745 -0.0140  2.7424
  798SOL     OW 2392   1.319   0.437   1.186 -0.0040  0.0204  0.0452
  798SOL    HW1 2393   1.363   0.389   1.268  0.8583 -1.2576  1.4035
  798SOL    HW2 2394   1.369   0.429   1.099 -1.1002  1.1535 -0.8690
  799SOL     OW 2395   1.964   2.649   1.043  0.2848 -0.0396 -0.5452
  799SOL    HW1 2396   1.883   2.627   1.108  0.3797  0.0764  0.8977
  799SOL    HW2 2397   1.935   2.669   0.944 -3.2226 -3.3074  1.2307
  800SOL     OW 2398   3.049   0.624   1.824 -0.4007  0.2211  1.2045
  800SOL    HW1 2399   3.001   0.689   1.887 -2.8842 -1.1843 -1.7104
  800SOL    HW2 2400   3.105   0.549   1.873 -0.6048 -0.8564 -0.1439
  801SOL     OW 2401   1.903   2.184   0.169  0.0153  0.7960 -0.9666
  801SOL    HW1 2402   1.827   2.149   0.108 -0.7771  1.8089  0.9870
  801SOL    HW2 2403   1.993   2.142   0.139  1.2554 -1.5773  0.6955
  802SOL     OW 2404   0.749   0.789   2.592 -0.2725 -0.2589  0.2860
  802SOL    HW1 2405   0.806   0.760   2.510 -0.6325 -1.3538 -2.8086
  802SOL    HW2 2406   0.650   0.750   2.581  0.2869 -0.9869  0.7726
  803SOL     OW 2407   0.892   0.169   0.932  0.3307 -0.0711 -0.2114
  803SOL    HW1 2408   0.958   0.237   0.976 -1.3206 -1.7933 -0.6003
  803SOL    HW2 2409   0.841   0.210   0.853 -0.0121  0.7803  1.7894
  804SOL     OW 2410   0.418   3.014   2.105 -0.3535  0.7036  0.4343
  804SOL    HW1 2411   0.336   3.066   2.072  0.5026 -1.4089 -0.1462
  804SOL    HW2 2412   0.413   2.912   2.081  0.6339  1.5658  1.5568
  805SOL     OW 2413   2.434   0.275   0.281 -0.2264 -0.7726 -0.3647
  805SOL    HW1 2414   2.539   0.297   0.294  2.3760 -0.8701  0.8959
  805SOL    HW2 2415   2.410   0.256   0.181 -2.5959 -2.1276 -2.8460
  806SOL     OW 2416   0.677   2.404   1.677 -0.3780  0.3886  0.2747
  806SOL    HW1 2417   0.670   2.499   1.716  0.7311  2.3781 -2.3883
  806SOL    HW2 2418   0.772   2.385   1.643  0.4599  0.5184  0.8259
  807SOL     OW 2419   2.482   0.928   0.427 -0.9236  0.8036  0.0690
  807SOL    HW1 2420   2.579   0.905   0.459 -0.1486 -0.5211 -0.7198
  807SOL    HW2 2421   2.460   0.903   0.325  0.3079 -0.9133 -2.1008
  808SOL     OW 2422   0.573   2.009   2.987  0.3256  0.3757 -0.3121
  808SOL    HW1 2423   0.591   2.017   3.089 -0.0879  2.0547 -0.5981
  808SOL    HW2 2424   0.525   1.919   2.967 -1.0513 -1.7312  0.5799
  809SOL     OW 2425   2.661   1.985   1.939 -0.7149 -0.0390  0.7933
  809SOL    HW1 2426   2.748   2.042   1.929 -1.3121 -2.4034  0.6689
  809SOL    HW2 2427   2.640   1.933   1.854 -1.4251  2.6790 -0.1198
  810SOL     OW 2428   2.074   1.133   0.527 -0.5679 -0.2542 -0.3020
  810SOL    HW1 2429   2.074   1.067   0.609  1.8027  1.5359 -1.8018
  810SOL    HW2 2430   2.026   1.227   0.550 -1.6343  0.7446  0.4252
  811SOL     OW 2431   1.272   2.405   1.226  0.0234  0.4017  0.6675
  811SOL    HW1 2432   1.253   2.306   1.243 -1.3019  1.5761  0.3239
  811SOL    HW2 2433   1.227   2.443   1.140  0.5097 -1.8630  0.4297
  812SOL     OW 2434   1.375   0.781   1.962  0.3048  0.1411 -0.2659
  812SOL    HW1 2435   1.419   0.833   2.039 -1.2574 -1.2527 -1.0007
  812SOL    HW2 2436   1.283   0.823   1.938  1.0574 -0.6219 -1.9994
  813SOL     OW 2437   1.739   2.061   2.482  0.3994  0.6679 -0.3168
  813SOL    HW1 2438   1.831   2.009   2.458 -1.1545  0.8387  0.3124
  813SOL    HW2 2439   1.689   2.088   2.394 -1.1358  0.1181 -1.4571
  814SOL     OW 2440   2.854   1.540   2.905 -0.3720 -0.2033 -0.2118
  814SOL    HW1 2441   2.954   1.559   2.938  0.3750 -0.9950  0.9507
  814SOL    HW2 2442   2.821   1.606   2.830 -0.7442 -1.3113 -3.0035
  815SOL     OW 2443   2.239   2.898   2.730  0.0881  0.4869  0.0202
  815SOL    HW1 2444   2.186   2.811   2.734  1.6990  0.1172 -1.4341
  815SOL    HW2 2445   2.343   2.883   2.717  0.0713 -0.5558  0.2177
  816SOL     OW 2446   1.750   0.357   1.695  0.1086 -0.0310  0.0529
  816SOL    HW1 2447   1.650   0.368   1.727 -1.4314  0.3014  1.3367
  816SOL    HW2 2448   1.819   0.363   1.769 -1.7765  0.8770 -0.7434
  817SOL     OW 2449   0.467   1.213   2.465  0.5722 -0.3974 -0.1513
  817SOL    HW1 2450   0.394   1.283   2.441 -2.7345 -1.0362 -1.2184
  817SOL    HW2 2451   0.495   1.159   2.381 -3.4472  1.0571 -0.4295
  818SOL     OW 2452   2.021   0.865   0.420  0.0597 -0.2157  0.0365
  818SOL    HW1 2453   2.025   0.971   0.408  1.6758  0.7622 -1.9365
  818SOL    HW2 2454   1.967   0.827   0.500  1.9281  2.5168  2.9099
  819SOL     OW 2455   2.766   2.947   3.042  0.2026  0.2145  0.0846
  819SOL    HW1 2456   2.841   2.883   3.003  1.0511  3.1334  0.8716
  819SOL    HW2 2457   2.678   2.934   2.989 -0.9595  0.1224 -0.6636
  820SOL     OW 2458   1.204   1.123   0.527  0.4723 -0.4032 -0.1717
  820SOL    HW1 2459   1.214   1.212   0.584 -0.9136  2.2069 -1.0146
  820SOL    HW2 2460   1.187   1.039   0.587 -1.1703  1.2286 -3.5335
  821SOL     OW 2461   3.069   1.282   0.656 -0.2245  0.1033  0.0934
  821SOL    HW1 2462   3.012   1.285   0.745 -2.8004  0.4901 -0.6529
  821SOL    HW2 2463   3.148   1.350   0.650 -1.6061 -3.2915 -0.5161
  822SOL     OW 2464   2.531   1.765   2.424 -0.3184  0.3482 -0.2753
  822SOL    HW1 2465   2.507   1.848   2.483  0.2608 -1.9690 -0.7431
  822SOL    HW2 2466   2.517   1.785   2.325 -1.0476  1.5295  0.0282
  823SOL     OW 2467   2.035   0.895   1.199  0.0365 -0.1079  0.2567
  823SOL    HW1 2468   2.032   0.923   1.301 -2.7486  0.9692  1.5121
  823SOL    HW2 2469   1.960   0.941   1.141 -0.5091 -0.9421 -0.2111
  824SOL     OW 2470   0.170   2.014   2.727 -0.2812  0.1978  0.1580
  824SOL    HW1 2471   0.158   1.939   2.800  1.3363  0.7595 -0.0382
  824SOL    HW2 2472   0.195   1.968   2.639 -1.8480 -2.3911  0.1786
  825SOL     OW 2473   1.240   1.049   0.254 -0.2036 -0.2991 -0.3670
  825SOL    HW1 2474   1.220   1.079   0.353  1.3422  0.1265 -2.6398
  825SOL    HW2 2475   1.220   1.134   0.199 -0.0001  0.5936  0.1343
  826SOL     OW 2476   1.931   0.621   1.533  0.2973 -0.0326 -0.3263
  826SOL    HW1 2477   2.006   0.592   1.601  1.4723 -1.6990 -0.1918
  826SOL    HW2 2478   1.845   0.560   1.531 -0.6773 -2.0261 -1.0570
  827SOL     OW 2479   0.753   1.411   0.287  0.1035  0.5075  0.5487
  827SOL    HW1 2480   0.749   1.345   0.207 -0.2121  1.4344  1.4044
  827SOL    HW2 2481   0.706   1.368   0.372 -0.2658 -1.1179  1.0224
  828SOL     OW 2482   2.551   0.091   1.577  0.4849 -0.2817 -0.1585
  828SOL    HW1 2483   2.453   0.101   1.541 -2.6669  2.0594  1.0858
  828SOL    HW2 2484   2.567   0.010   1.642  1.1270 -1.4491  0.9468
  829SOL     OW 2485   2.823   2.485   3.027  0.7001 -0.3485  0.2898
  829SOL    HW1 2486   2.759   2.418   2.979 -0.0801 -2.0583 -1.0443
  829SOL    HW2 2487   2.780   2.549   3.102  0.8524  2.5780  0.9229
  830SOL     OW 2488   2.780   0.964   3.032  0.2868  0.3288  0.2789
  830SOL    HW1 2489   2.866   1.019   3.039 -0.7236  2.7298  0.7662
  830SOL    HW2 2490   2.791   0.874   3.084  1.2556 -1.2626  0.1811
  831SOL     OW 2491   3.096   0.591   0.367  0.1653 -0.7106  0.0730
  831SOL    HW1 2492   3.058   0.543   0.451  2.2279  1.8843 -0.9472
  831SOL    HW2 2493   3.151   0.525   0.305  2.1805  0.1224 -1.5744
  832SOL     OW 2494   1.787   0.741   3.097 -0.7422 -0.2765 -0.3148
  832SOL    HW1 2495   1.710   0.813   3.075 -0.2990  0.1641 -1.2966
  832SOL    HW2 2496   1.756   0.646   3.063  0.4087 -0.8543 -1.4753
  833SOL     OW 2497   2.463   2.151   0.500  0.0384  0.4647 -0.1013
  833SOL    HW1 2498   2.362   2.133   0.495  0.6801 -0.3445 -0.5628
  833SOL    HW2 2499   2.515   2.066   0.516 -0.1677 -1.5187 -0.8099
  834SOL     OW 2500   0.075   0.249   0.635 -0.1331  0.1984  0.4303
  834SOL    HW1 2501   0.118   0.200   0.711 -0.3858  0.7769 -2.6163
  834SOL    HW2 2502   0.127   0.223   0.550 -0.7060  0.7032 -2.3663
  835SOL     OW 2503   2.384   1.504   1.175 -0.6251 -0.2263 -0.3070
  835SOL    HW1 2504   2.471   1.557   1.189 -1.0571 -0.6879  2.3200
  835SOL    HW2 2505   2.363   1.481   1.075 -2.3298 -1.4357 -3.1510
  836SOL     OW 2506   1.513   0.820   2.568 -0.0068 -0.4705  0.2832
  836SOL    HW1 2507   1.412   0.825   2.544  0.5180 -1.5595  0.9698
  836SOL    HW2 2508   1.571   0.853   2.487 -1.1455 -0.5778  0.0455
  837SOL     OW 2509   1.566   0.037   0.507  1.0603  0.3968 -0.1225
  837SOL    HW1 2510   1.547   0.123   0.559 -0.1277 -2.2778  1.6326
  837SOL    HW2 2511   1.544   0.038   0.405 -0.1652  0.9556  1.7508
  838SOL     OW 2512   1.294   1.593   2.666 -0.1411  0.2633  0.2780
  838SOL    HW1 2513   1.369   1.546   2.727  0.4628 -0.7291 -0.2582
  838SOL    HW2 2514   1.206   1.536   2.646  0.1844  0.0654 -1.9831
  839SOL     OW 2515   1.632   0.260   0.982  0.3334  0.8175  0.4242
  839SOL    HW1 2516   1.642   0.343   1.041  0.3109  0.1721 -1.5787
  839SOL    HW2 2517   1.613   0.168   1.026 -0.0535 -0.6318 -0.8414
  840SOL     OW 2518   2.540   2.965   1.723 -0.2354  0.3813 -0.2317
  840SOL    HW1 2519   2.491   2.896   1.661  2.7499 -0.9254  1.7703
  840SOL    HW2 2520   2.608   2.910   1.783 -0.0722 -2.5809 -0.3460
  841SOL     OW 2521   1.569   0.913   3.056 -0.0282 -0.4450  0.0445
  841SOL    HW1 2522   1.475   0.892   3.095  0.4703 -0.7255 -1.3431
  841SOL    HW2 2523   1.561   0.931   2.959 -1.8971  1.4468 -0.1798
  842SOL     OW 2524   0.825   1.533   0.841  0.4624  0.3718  0.0198
  842SOL    HW1 2525   0.779   1.594   0.917  0.7861  0.3906 -0.6162
  842SOL    HW2 2526   0.768   1.445   0.821 -0.9774  1.3423 -1.5105
  843SOL     OW 2527   0.198   3.051   1.399  0.0043  0.0324 -0.2566
  843SOL    HW1 2528   0.197   3.133   1.460  0.8258  2.0329  0.6483
  843SOL    HW2 2529   0.156   2.963   1.435  0.3211 -1.1023 -2.0278
  844SOL     OW 2530   0.827   2.474   0.258 -0.1055 -0.4790 -0.0661
  844SOL    HW1 2531   0.770   2.430   0.333 -1.9131  0.1532 -0.9024
  844SOL    HW2 2532   0.772   2.512   0.180 -0.1330 -1.6210 -1.2733
  845SOL     OW 2533   1.647   2.829   1.245  0.0976  0.2687 -0.0963
  845SOL    HW1 2534   1.690   2.736   1.229  2.5393  2.9831  1.6385
  845SOL    HW2 2535   1.665   2.865   1.345  1.4130 -1.6711  1.7447
  846SOL     OW 2536   1.570   2.985   0.765  0.2836 -0.4600 -0.4810
  846SOL    HW1 2537   1.567   3.019   0.668 -1.4727 -0.1023 -0.6102
  846SOL    HW2 2538   1.633   2.905   0.781  0.3572 -2.2439  1.3129
  847SOL     OW 2539   2.092   1.729   0.457  0.3525 -0.4782 -0.4580
  847SOL    HW1 2540   2.054   1.635   0.455  2.7232 -0.4251 -1.7155
  847SOL    HW2 2541   2.008   1.795   0.437 -4.8957  1.6552  0.5082
  848SOL     OW 2542   2.409   0.884   2.628 -0.3189  0.1588 -0.5133
  848SOL    HW1 2543   2.378   0.961   2.689 -0.6736  2.2178 -1.7848
  848SOL    HW2 2544   2.335   0.812   2.613  0.8397 -0.0525 -0.5860
  849SOL     OW 2545   2.525   0.901   2.383  0.4384 -0.5994 -0.4017
  849SOL    HW1 2546   2.606   0.846   2.406 -3.1346  1.9682  0.0243
  849SOL    HW2 2547   2.461   0.918   2.463 -0.2611 -0.1167  0.0767
  850SOL     OW 2548   1.577   0.044   1.291 -0.4514 -0.2179  0.8297
  850SOL    HW1 2549   1.562   0.007   1.191  0.7920  1.4324 -0.6238
  850SOL    HW2 2550   1.538  -0.012   1.372 -4.1631  1.2164  2.2938
  851SOL     OW 2551   0.534   1.743   0.653 -0.4101  0.6576 -0.5093
  851SOL    HW1 2552   0.583   1.795   0.730 -0.3158 -0.4962 -2.3574
  851SOL    HW2 2553   0.544   1.789   0.560 -1.8849 -3.0858  1.0125
  852SOL     OW 2554   0.851   2.104   1.725  0.0219 -0.4536  0.4831
  852SOL    HW1 2555   0.881   2.198   1.690  1.8937  0.5548  2.5684
  852SOL    HW2 2556   0.766   2.112   1.786 -2.5647  0.9070  1.2074
  853SOL     OW 2557   2.541   1.553   2.609  0.1750  0.2917  0.1009
  853SOL    HW1 2558   2.501   1.458   2.588 -1.0219 -0.6267 -1.1731
  853SOL    HW2 2559   2.517   1.625   2.536  0.9885 -0.9930 -0.1509
  854SOL     OW 2560   2.472   1.403   1.768 -0.0257 -0.3221  0.0600
  854SOL    HW1 2561   2.517   1.382   1.672  0.4634  0.0450 -2.0831
  854SOL    HW2 2562   2.413   1.323   1.800  1.5200 -1.4549 -0.5489
  855SOL     OW 2563   2.085   2.398   1.075 -0.0240  0.0438 -0.6197
  855SOL    HW1 2564   2.042   2.491   1.065 -0.4688 -1.8576 -0.9268
  855SOL    HW2 2565   2.164   2.396   1.145 -0.2392  1.5146 -0.5065
  856SOL     OW 2566   1.339   1.435   0.915 -0.1672 -0.2075  0.2849
  856SOL    HW1 2567   1.416   1.498   0.941  0.8398 -1.2125 -1.6209
  856SOL    HW2 2568   1.247   1.484   0.921 -2.0674  2.1027  0.2200
  857SOL     OW 2569   3.094   2.747   1.082 -0.3629  0.0722 -0.4421
  857SOL    HW1 2570   3.055   2.711   0.996  2.6939  0.4173  0.4550
  857SOL    HW2 2571   3.199   2.759   1.074  2.0772  3.2588 -0.7585
  858SOL     OW 2572   2.404   2.071   1.604  0.1715 -0.0834  0.7587
  858SOL    HW1 2573   2.312   2.028   1.596 -0.1495  3.1109  3.5780
  858SOL    HW2 2574   2.481   2.011   1.642 -3.4288  2.3151  1.2575
  859SOL     OW 2575   2.431   0.536   1.077  0.0729 -0.2649 -0.4490
  859SOL    HW1 2576   2.500   0.580   1.017  1.0491 -0.6270 -1.3582
  859SOL    HW2 2577   2.461   0.456   1.133  0.6539  2.0978  2.0343
  860SOL     OW 2578   1.899   2.803   0.515 -0.1159 -0.4925  0.4837
  860SOL    HW1 2579   1.879   2.760   0.423  1.7743 -0.0539  1.4083
  860SOL    HW2 2580   1.881   2.906   0.512 -0.5899  1.6751 -2.6144
  861SOL     OW 2581   0.992   2.505   2.871 -0.2104  0.2137  0.3229
  861SOL    HW1 2582   1.078   2.543   2.825 -0.9111 -1.8225 -0.5303
  861SOL    HW2 2583   0.970   2.550   2.961 -0.3101 -0.2025 -0.5414
  862SOL     OW 2584   2.848   2.530   1.689  0.0689 -0.1015 -0.6789
  862SOL    HW1 2585   2.949   2.548   1.717  2.9754 -0.6590  0.9897
  862SOL    HW2 2586   2.789   2.608   1.654  0.5835 -0.6160 -0.5899
  863SOL     OW 2587   1.825   2.710   0.273  0.0675 -0.2061  0.0805
  863SOL    HW1 2588   1.871   2.617   0.267 -0.4954  0.6732 -1.9327
  863SOL    HW2 2589   1.727   2.716   0.227 -0.8770  0.1184  1.5608
  864SOL     OW 2590   2.030   1.250   2.807  0.0403 -0.0646  0.6298
  864SOL    HW1 2591   1.994   1.204   2.720  1.5358  1.9856 -2.2875
  864SOL    HW2 2592   2.085   1.334   2.791 -0.8481 -1.9634 -0.1594
  865SOL     OW 2593   2.143   1.943   0.739  0.1886 -0.1040  0.2598
  865SOL    HW1 2594   2.212   1.888   0.791  1.5454 -0.7081 -1.0152
  865SOL    HW2 2595   2.061   1.957   0.798 -1.5186 -0.4501 -0.8679
  866SOL     OW 2596   2.949   2.987   1.039  0.4647 -0.0933 -0.3957
  866SOL    HW1 2597   2.931   3.047   0.954 -2.2124  0.8345 -3.3226
  866SOL    HW2 2598   3.039   2.939   1.036 -1.8351  1.1276 -0.6936
  867SOL     OW 2599   0.325   1.398   0.879  0.3953 -0.2348  0.0004
  867SOL    HW1 2600   0.324   1.320   0.809 -0.6813 -0.1862 -1.5618
  867SOL    HW2 2601   0.313   1.494   0.832  1.6422  2.8654  0.1697
  868SOL     OW 2602   0.775   1.854   2.048  0.3905 -0.6666  0.1748
  868SOL    HW1 2603   0.713   1.797   2.117  0.2182 -0.4945  1.2356
  868SOL    HW2 2604   0.731   1.942   2.014 -2.6075 -2.2977 -0.8070
  869SOL     OW 2605   2.621   1.895   1.661 -0.0315 -0.2527  0.0682
  869SOL    HW1 2606   2.682   1.975   1.626  3.2078  2.6435 -0.0565
  869SOL    HW2 2607   2.643   1.801   1.630 -2.0575  1.0476 -0.7583
  870SOL     OW 2608   2.377   2.680   1.170 -0.5153 -0.0774  0.5754
  870SOL    HW1 2609   2.366   2.607   1.243  1.6360  0.2673  1.0510
  870SOL    HW2 2610   2.455   2.738   1.181 -2.9485 -2.8565  3.4307
  871SOL     OW 2611   3.042   2.239   0.533  0.5813 -0.1869 -0.8952
  871SOL    HW1 2612   2.992   2.242   0.624  0.2932  0.7327  0.9792
  871SOL    HW2 2613   2.981   2.257   0.447 -2.1387 -0.0172 -0.9859
  872SOL     OW 2614   2.106   0.488   1.690  0.1366  0.3638  0.1168
  872SOL    HW1 2615   2.057   0.510   1.780 -1.6677 -0.6601  2.5151
  872SOL    HW2 2616   2.207   0.457   1.694 -1.0898 -2.3376 -1.9117
  873SOL     OW 2617   1.716   2.067   3.103 -0.3577  0.1879 -0.1083
  873SOL    HW1 2618   1.614   2.046   3.090 -0.3856  1.4502  0.3694
  873SOL    HW2 2619   1.758   2.113   3.018  1.8240  0.5847 -0.7069
  874SOL     OW 2620   0.673   2.461   0.722  0.3322 -0.8518  0.0856
  874SOL    HW1 2621   0.671   2.562   0.755 -2.1094  2.0363  0.5703
  874SOL    HW2 2622   0.759   2.411   0.750 -2.4583 -0.1321  0.9845
  875SOL     OW 2623   2.265   1.530   1.440 -0.7290 -1.0687 -0.2178
  875SOL    HW1 2624   2.333   1.571   1.509  1.9356  0.6250  0.2372
  875SOL    HW2 2625   2.301   1.520   1.343 -2.1701 -0.2847 -0.7856
  876SOL     OW 2626   0.070   2.263   2.639 -0.5818 -0.5097 -0.1653
  876SOL    HW1 2627   0.106   2.168   2.653  0.3993  0.6976  0.6027
  876SOL    HW2 2628   0.131   2.333   2.698  0.1262  1.8423  3.0912
  877SOL     OW 2629   2.890   2.626   0.650  0.4655  0.1874 -0.6991
  877SOL    HW1 2630   2.866   2.720   0.627  0.4051 -1.0366  0.8127
  877SOL    HW2 2631   2.979   2.612   0.700 -1.1807  3.7926  1.4823
  878SOL     OW 2632   2.843   1.620   2.311  0.3161 -0.4937 -0.4207
  878SOL    HW1 2633   2.785   1.701   2.275 -2.3968  0.0707 -0.2524
  878SOL    HW2 2634   2.794   1.572   2.390 -1.0677 -0.4637  0.4397
  879SOL     OW 2635   2.449   0.047   1.167 -0.5925 -0.3196 -0.0157
  879SOL    HW1 2636   2.490  -0.039   1.208 -1.6236  1.1868  0.5011
  879SOL    HW2 2637   2.350   0.033   1.133  0.7218 -1.9753  0.6351
  880SOL     OW 2638   0.679   0.554   2.280  0.9276  0.2357  0.3854
  880SOL    HW1 2639   0.659   0.494   2.362  2.0002  1.3421  0.4612
  880SOL    HW2 2640   0.767   0.528   2.233 -0.7281  1.2172  0.1375
  881SOL     OW 2641   0.836   0.074   0.382 -0.2853 -0.0639  0.0765
  881SOL    HW1 2642   0.883  -0.015   0.417 -4.2514 -1.7063 -1.3599
  881SOL    HW2 2643   0.733   0.056   0.359 -1.4147 -0.8653 -0.7481
  882SOL     OW 2644   2.692   1.608   1.711  0.1465  0.3581 -0.5291
  882SOL    HW1 2645   2.788   1.571   1.690 -0.0465  1.9542  1.0943
  882SOL    HW2 2646   2.666   1.599   1.811  0.3629  2.8664  2.7823
  883SOL     OW 2647   0.786   0.516   0.911 -0.1605  0.1841  1.3445
  883SOL    HW1 2648   0.839   0.602   0.936 -1.7035  2.5100 -1.9077
  883SOL    HW2 2649   0.731   0.477   0.987  2.2965  0.6985  0.1239
  884SOL     OW 2650   1.199   1.742   1.118 -0.3366  0.9439  0.0539
  884SOL    HW1 2651   1.155   1.652   1.088  0.8884 -1.0294  1.9389
  884SOL    HW2 2652   1.160   1.820   1.075  0.4817 -2.2204  1.9369
  885SOL     OW 2653   2.346   1.901   2.231  0.4690 -0.3050 -1.0329
  885SOL    HW1 2654   2.297   1.850   2.307  0.7287 -0.7000 -0.4744
  885SOL    HW2 2655   2.337   2.007   2.235  2.1993  0.5604 -2.9810
  886SOL     OW 2656   2.617   0.355   1.783 -0.0462  0.2563 -0.0140
  886SOL    HW1 2657   2.639   0.287   1.855  2.6092  1.7527 -3.1243
  886SOL    HW2 2658   2.688   0.430   1.766  0.5503  2.2037  0.2416
  887SOL     OW 2659   0.158   2.080   1.256  0.0836  0.3547 -0.3950
  887SOL    HW1 2660   0.080   2.020   1.283 -1.0737 -0.0609  0.2814
  887SOL    HW2 2661   0.137   2.161   1.200  0.3059  0.1057  0.1984
  888SOL     OW 2662   0.590   1.250   1.534  0.0150 -0.0734 -0.7360
  888SOL    HW1 2663   0.617   1.296   1.444  1.9541  2.9014 -4.2758
  888SOL    HW2 2664   0.587   1.147   1.531 -0.4483  1.2940 -1.0866
  889SOL     OW 2665   0.844   2.431   2.241  0.2352 -0.4418 -0.2949
  889SOL    HW1 2666   0.756   2.377   2.259  0.4661 -1.4731 -1.0872
  889SOL    HW2 2667   0.875   2.416   2.144 -0.8795  1.6351  1.0076
  890SOL     OW 2668   2.369   2.506   0.234 -0.1490 -0.2826 -0.7958
  890SOL    HW1 2669   2.404   2.578   0.168 -0.9494 -3.8666 -1.9841
  890SOL    HW2 2670   2.289   2.529   0.298 -0.7197 -0.1417 -1.3310
  891SOL     OW 2671   2.589   1.687   0.706 -0.3185  0.1895 -0.0490
  891SOL    HW1 2672   2.598   1.680   0.810 -3.0978 -2.9056  0.3655
  891SOL    HW2 2673   2.503   1.641   0.668  0.9022  1.2872  1.3801
  892SOL     OW 2674   0.354   0.353   2.204 -0.2323  0.8993 -0.1222
  892SOL    HW1 2675   0.379   0.416   2.124 -0.1159  0.0591 -0.8387
  892SOL    HW2 2676   0.436   0.309   2.246  1.3092 -0.2593  1.1427
  893SOL     OW 2677   1.710   0.259   2.734 -0.5756  0.0134  0.6131
  893SOL    HW1 2678   1.793   0.317   2.728 -1.9187  0.2121  2.2802
  893SOL    HW2 2679   1.630   0.319   2.716  4.4169  1.7796  0.4088
  894SOL     OW 2680   2.144   2.094   0.096  0.1346 -0.1384 -0.2149
  894SOL    HW1 2681   2.155   2.036   0.012  1.0303 -1.9718  0.0170
  894SOL    HW2 2682   2.175   2.047   0.181  0.6898  2.2804  0.1286
  895SOL     OW 2683   2.738   1.449   0.917 -0.1992 -0.6118  0.2027
  895SOL    HW1 2684   2.833   1.408   0.907 -2.8324 -1.8934  1.1560
  895SOL    HW2 2685   2.735   1.547   0.952 -0.2134  1.3549  0.8397
  896SOL     OW 2686   1.786   1.807   1.243 -0.3441  0.6788  0.1696
  896SOL    HW1 2687   1.881   1.791   1.286  0.5957  1.0555 -0.0498
  896SOL    HW2 2688   1.758   1.734   1.176  1.4631  0.1221  1.2973
  897SOL     OW 2689   0.243   0.560   3.009 -0.3170 -0.0902 -0.6811
  897SOL    HW1 2690   0.196   0.617   2.941  1.4898  2.8183  2.7487
  897SOL    HW2 2691   0.343   0.582   3.006 -2.8545 -2.1068  2.2712
  898SOL     OW 2692   0.696   2.814   1.086  0.4082 -0.1288 -0.5476
  898SOL    HW1 2693   0.753   2.903   1.073 -0.9979  1.1782  0.1805
  898SOL    HW2 2694   0.701   2.773   1.182 -2.4343  0.2479  2.0047
  899SOL     OW 2695   2.861   0.947   1.347 -0.1190  0.0367  0.2458
  899SOL    HW1 2696   2.851   0.915   1.253  0.8124 -1.1950  3.3124
  899SOL    HW2 2697   2.952   0.975   1.375 -0.8265  2.1605 -2.0260
  900SOL     OW 2698   1.010   2.457   2.466 -0.0361 -0.3797 -0.0739
  900SOL    HW1 2699   0.946   2.434   2.383 -0.0023  0.1635 -1.4563
  900SOL    HW2 2700   0.970   2.421   2.556  0.2949 -0.2587  1.8630
  901SOL     OW 2701   1.872   2.405   1.450  0.2592  0.7674 -0.2468
  901SOL    HW1 2702   1.884   2.327   1.386 -2.2461  1.0810  2.9939
  901SOL    HW2 2703   1.964   2.427   1.498 -1.6350 -1.2771 -1.2175
  902SOL     OW 2704   2.538   1.640   1.499  0.0791  0.2951 -0.2727
  902SOL    HW1 2705   2.598   1.622   1.583 -2.7967  1.4729 -0.7639
  902SOL    HW2 2706   2.590   1.640   1.409  1.1958  1.1810 -0.5705
  903SOL     OW 2707   0.329   2.404   1.992  0.0153  0.3393  0.3878
  903SOL    HW1 2708   0.253   2.333   2.005 -2.7489  1.0017  2.3601
  903SOL    HW2 2709   0.309   2.466   1.912  1.9088 -1.1242 -1.0099
  904SOL     OW 2710   1.996   0.829   2.474  0.3681  0.0464 -0.0278
  904SOL    HW1 2711   1.927   0.762   2.513  1.8123 -0.7846 -2.8823
  904SOL    HW2 2712   2.021   0.807   2.375  1.7349 -0.0926  1.4059
  905SOL     OW 2713   2.800   0.089   2.414  0.2550  0.4562 -0.2001
  905SOL    HW1 2714   2.871   0.010   2.415  0.5037 -1.4161 -0.0020
  905SOL    HW2 2715   2.842   0.187   2.413 -1.4202  1.2123  0.2761
  906SOL     OW 2716   0.187   1.738   1.897  0.3242 -0.0046  0.1792
  906SOL    HW1 2717   0.132   1.746   1.806  1.4202 -1.0465  1.0016
  906SOL    HW2 2718   0.272   1.803   1.896 -1.1429  2.1494  1.5038
  907SOL     OW 2719   0.233   2.494   0.973  0.3558  0.4118  0.3920
  907SOL    HW1 2720   0.329   2.452   0.971 -1.3881 -1.6642  0.0788
  907SOL    HW2 2721   0.238   2.591   0.943  0.3567  0.5236 -0.4387
  908SOL     OW 2722   2.816   3.016   0.354 -0.5166 -0.1199 -0.2078
  908SOL    HW1 2723   2.716   3.019   0.324 -0.5977 -0.9152 -2.0129
  908SOL    HW2 2724   2.860   2.921   0.341 -3.0676  1.4497 -1.0823
  909SOL     OW 2725   0.875   1.037   2.663 -0.0596 -0.0576  0.1335
  909SOL    HW1 2726   0.825   0.949   2.650 -2.9372 -0.0519  1.4303
  909SOL    HW2 2727   0.933   1.058   2.578 -2.7406  0.4340 -0.8085
  910SOL     OW 2728   1.793   1.897   2.125 -0.7213 -0.0630  0.7271
  910SOL    HW1 2729   1.867   1.927   2.052  0.5348  1.3317 -1.9133
  910SOL    HW2 2730   1.732   1.982   2.140 -1.6461  2.2720 -1.6338
  911SOL     OW 2731   1.764   2.917   1.494 -0.3453  0.0317 -0.7344
  911SOL    HW1 2732   1.848   2.888   1.443 -0.8093  1.0636  2.2386
  911SOL    HW2 2733   1.727   2.836   1.545  1.5532 -0.9254 -2.4545
  912SOL     OW 2734   2.877   1.002   0.739  0.0245  0.3673  0.7015
  912SOL    HW1 2735   2.916   0.995   0.836 -0.0949  1.7956  1.6027
  912SOL    HW2 2736   2.798   1.074   0.726  0.8607  1.0796 -1.8288
  913SOL     OW 2737   2.610   1.270   1.573  0.5623  0.0444 -0.0272
  913SOL    HW1 2738   2.658   1.191   1.616 -0.9209  0.8038  2.5885
  913SOL    HW2 2739   2.647   1.295   1.481  0.3551 -0.5689 -0.4235
  914SOL     OW 2740   2.838   0.604   1.192 -0.5220  0.1001 -0.4146
  914SOL    HW1 2741   2.842   0.513   1.239 -0.8401 -1.5093  0.8004
  914SOL    HW2 2742   2.749   0.653   1.202 -1.7975 -1.5912 -0.4383
  915SOL     OW 2743   1.208   0.752   0.894 -0.3901  0.9274 -0.3065
  915SOL    HW1 2744   1.275   0.751   0.969 -1.8817 -1.6201 -0.4333
  915SOL    HW2 2745   1.107   0.744   0.925 -1.4109 -1.0502  0.7351
  916SOL     OW 2746   0.631   0.098   0.656 -0.0047  0.1391 -0.6409
  916SOL    HW1 2747   0.697   0.172   0.691 -1.0178 -2.7395 -0.5438
  916SOL    HW2 2748   0.601   0.116   0.556  0.3290  2.2319  0.5028
  917SOL     OW 2749   2.890   2.603   2.022  0.6045 -0.2396 -0.5135
  917SOL    HW1 2750   2.809   2.634   1.972 -2.2207 -0.7484 -0.3788
  917SOL    HW2 2751   2.969   2.662   1.999  0.8201 -0.3050  0.2273
  918SOL     OW 2752   1.024   2.102   3.030 -0.6809  0.5464 -0.0759
  918SOL    HW1 2753   1.076   2.165   3.093 -0.3014 -0.0897  1.2628
  918SOL    HW2 2754   1.066   2.097   2.933  2.0249 -2.2191  0.0607
  919SOL     OW 2755   0.828   1.644   2.810  0.8026  0.1063  0.0201
  919SOL    HW1 2756   0.878   1.732   2.780 -0.4063  2.9149 -3.5679
  919SOL    HW2 2757   0.789   1.586   2.732 -0.2170 -2.4337 -0.9296
  920SOL     OW 2758   1.345   1.810   2.476 -0.2970 -0.5894  0.5275
  920SOL    HW1 2759   1.429   1.777   2.427 -1.9417  1.1970 -0.0530
  920SOL    HW2 2760   1.324   1.755   2.561  0.4521  2.0553  0.7547
  921SOL     OW 2761   1.138   0.046   2.601  0.2830 -0.0630  0.3903
  921SOL    HW1 2762   1.122   0.011   2.501  0.4203 -1.1125 -0.9885
  921SOL    HW2 2763   1.049   0.073   2.642  2.6485 -0.1497 -3.1453
  922SOL     OW 2764   2.209   2.434   2.792  0.2541 -0.7394  0.2350
  922SOL    HW1 2765   2.189   2.341   2.840 -2.0739  1.7585 -1.4945
  922SOL    HW2 2766   2.161   2.443   2.699  0.8703 -0.8816 -2.7378
  923SOL     OW 2767   1.217   2.736   0.281  0.7640 -0.2779 -0.1387
  923SOL    HW1 2768   1.295   2.780   0.336  0.7084  1.4268  1.3323
  923SOL    HW2 2769   1.235   2.631   0.271  2.4835 -1.3890 -2.0390
  924SOL     OW 2770   2.943   1.705   0.156 -0.0475  0.1191 -0.3371
  924SOL    HW1 2771   2.849   1.655   0.145  0.8593  0.9933  0.7765
  924SOL    HW2 2772   3.019   1.639   0.170 -1.6278 -0.0919 -0.0154
  925SOL     OW 2773   0.043   2.832   1.526 -0.1008 -0.1285 -0.3563
  925SOL    HW1 2774  -0.026   2.912   1.540 -1.4256 -0.3258  0.0070
  925SOL    HW2 2775   0.008   2.762   1.462  0.6724  3.8673 -0.1100
  926SOL     OW 2776   1.273   2.784   1.310  0.1260  0.3257 -0.3366
  926SOL    HW1 2777   1.291   2.771   1.209 -0.3510  2.3365 -0.9764
  926SOL    HW2 2778   1.332   2.853   1.359  1.9011 -0.0990  0.4228
  927SOL     OW 2779   0.364   2.626   1.791 -0.5056  0.3712 -0.5866
  927SOL    HW1 2780   0.319   2.576   1.711 -0.8859 -0.7837 -0.0088
  927SOL    HW2 2781   0.329   2.723   1.809  2.9033  0.8773 -0.4115
  928SOL     OW 2782   1.606   2.090   2.233 -0.2813 -0.2485 -0.1511
  928SOL    HW1 2783   1.625   2.179   2.188 -1.5050 -1.1007  0.1383
  928SOL    HW2 2784   1.506   2.083   2.260 -0.6283 -0.3152  1.4411
  929SOL     OW 2785   2.462   2.484   2.882 -0.5657 -0.2428 -0.3716
  929SOL    HW1 2786   2.372   2.459   2.833  1.2965  2.4946 -0.6902
  929SOL    HW2 2787   2.515   2.549   2.823 -0.3551  1.7993 -1.8162
  930SOL     OW 2788   2.173   2.072   1.109  0.3093 -0.0597  0.3394
  930SOL    HW1 2789   2.201   2.026   1.199  2.8481 -3.5297  0.0421
  930SOL    HW2 2790   2.211   2.171   1.106  1.3621 -1.4431  1.9931
  931SOL     OW 2791   0.472   1.655   2.594  0.4130  0.8662 -0.1541
  931SOL    HW1 2792   0.500   1.687   2.687  1.1782  1.2879 -0.8681
  931SOL    HW2 2793   0.551   1.601   2.558 -1.0949  0.1877 -0.8378
  932SOL     OW 2794   0.370   0.043   0.038  0.2206 -0.6307  0.4943
  932SOL    HW1 2795   0.420   0.118  -0.016 -0.1290  3.5980  0.7216
  932SOL    HW2 2796   0.418  -0.048   0.030  1.1369  0.1810 -1.0797
  933SOL     OW 2797   1.021   0.822   3.047  0.0151  0.0185  0.0359
  933SOL    HW1 2798   1.107   0.822   3.103  0.2365 -2.3224 -2.3300
  933SOL    HW2 2799   0.955   0.896   3.083  0.1539  0.4724  1.5098
  934SOL     OW 2800   0.867   2.957   2.631 -0.8987 -0.6643 -0.1137
  934SOL    HW1 2801   0.817   2.898   2.563 -0.4177  2.9631  2.6208
  934SOL    HW2 2802   0.903   2.900   2.708 -0.2385  0.1098 -0.5485
  935SOL     OW 2803   0.038   0.551   0.801 -0.1361 -0.1279 -0.0489
  935SOL    HW1 2804   0.028   0.538   0.700  0.6041 -0.2228  3.5143
  935SOL    HW2 2805  -0.039   0.615   0.838 -1.9003  0.6454 -0.9966
  936SOL     OW 2806   1.121   2.879   0.057  0.2621 -0.5509 -0.1091
  936SOL    HW1 2807   1.195   2.937   0.010 -0.1252 -1.7213 -0.4328
  936SOL    HW2 2808   1.166   2.825   0.130 -0.2262  0.4410  0.2478
  937SOL     OW 2809   1.945   2.607   2.067  0.2201 -0.0648 -0.3678
  937SOL    HW1 2810   1.935   2.632   2.167  0.0550  0.1068 -2.1386
  937SOL    HW2 2811   1.939   2.691   2.004  1.3149  1.5010 -1.0597
  938SOL     OW 2812   2.759   2.125   1.559  0.2672 -0.0962  0.2269
  938SOL    HW1 2813   2.714   2.221   1.575  0.3935 -0.0796  1.0471
  938SOL    HW2 2814   2.853   2.121   1.609  2.2574 -0.7800  1.9142
  939SOL     OW 2815   2.819   1.132   2.467  0.4143  0.0957 -0.1524
  939SOL    HW1 2816   2.905   1.108   2.412 -0.1960  0.6477 -1.0416
  939SOL    HW2 2817   2.806   1.079   2.555 -1.9210  1.0926  1.7858
  940SOL     OW 2818   1.090   0.459   2.763 -0.4225  0.2924 -0.2071
  940SOL    HW1 2819   1.157   0.377   2.762  1.2458 -2.1481  1.3294
  940SOL    HW2 2820   1.012   0.440   2.699  0.7115  2.5268 -0.1353
  941SOL     OW 2821   0.084   2.813   2.266 -0.5434 -0.2909 -0.6442
  941SOL    HW1 2822   0.119   2.727   2.223 -0.2136 -1.1064  1.5653
  941SOL    HW2 2823   0.156   2.871   2.314  3.0601  1.1410 -2.0053
  942SOL     OW 2824   0.099   0.078   2.469  0.1222  0.1660  0.9526
  942SOL    HW1 2825   0.127   0.087   2.570 -2.6326 -1.0656 -0.1352
  942SOL    HW2 2826   0.118   0.165   2.413 -1.6165  0.8544  1.3805
  943SOL     OW 2827   2.120   1.713   2.360 -0.2362  0.0607  0.2932
  943SOL    HW1 2828   2.104   1.688   2.262 -0.8321 -2.5428 -3.1766
  943SOL    HW2 2829   2.116   1.637   2.429  0.5871  3.1924  2.6901
  944SOL     OW 2830   2.171   2.351   1.561  0.1289 -0.1712 -0.1180
  944SOL    HW1 2831   2.253   2.369   1.622 -1.5137 -0.6291 -0.9660
  944SOL    HW2 2832   2.122   2.262   1.573  0.0357  0.2893 -4.5775
  945SOL     OW 2833   0.737   1.625   0.113  0.6164 -0.3669 -0.9678
  945SOL    HW1 2834   0.665   1.594   0.049 -0.3614 -0.9010  0.4264
  945SOL    HW2 2835   0.744   1.562   0.197  1.0272  0.2153 -0.4598
  946SOL     OW 2836   0.323   1.029   2.609 -0.3030  0.1120  0.0855
  946SOL    HW1 2837   0.286   0.948   2.551 -1.9838 -1.3226  2.8997
  946SOL    HW2 2838   0.378   1.097   2.551 -0.1452  1.2321 -0.1968
  947SOL     OW 2839   1.478   0.512   3.041 -0.2018 -0.2011  0.1444
  947SOL    HW1 2840   1.479   0.590   2.975 -1.1254  1.2681  0.8568
  947SOL    HW2 2841   1.384   0.478   3.067 -0.8006 -0.1259 -0.1608
  948SOL     OW 2842   1.934   2.918   2.168 -0.0231  0.9708 -0.2970
  948SOL    HW1 2843   1.943   2.908   2.063 -2.5651  1.0764  0.5111
  948SOL    HW2 2844   1.927   2.827   2.220  1.3446 -1.7645  1.5361
  949SOL     OW 2845   0.587   2.458   0.453  0.2549 -0.4746  0.1068
  949SOL    HW1 2846   0.601   2.559   0.460  0.6104 -2.9878  0.6122
  949SOL    HW2 2847   0.620   2.406   0.539  1.5550  1.0877  3.6455
  950SOL     OW 2848   0.176   2.219   2.933  0.3946 -0.6558 -0.0906
  950SOL    HW1 2849   0.117   2.297   2.902 -1.1569  0.6497  1.6204
  950SOL    HW2 2850   0.193   2.138   2.870 -0.8628  0.4156  2.1959
  951SOL     OW 2851   1.204   2.678   2.790 -0.9312 -0.1458  0.4852
  951SOL    HW1 2852   1.273   2.621   2.841 -2.5192  1.2538  0.5893
  951SOL    HW2 2853   1.246   2.726   2.704 -0.7674  0.4661 -2.1309
  952SOL     OW 2854   0.061   1.609   0.420  0.6581 -0.2866 -0.2543
  952SOL    HW1 2855   0.117   1.694   0.403  0.6970 -1.8917  2.8396
  952SOL    HW2 2856   0.107   1.562   0.502  2.4409 -0.7944  1.1070
  953SOL     OW 2857   2.538   1.739   0.285  0.4861  0.0792 -0.2480
  953SOL    HW1 2858   2.525   1.638   0.277  1.0642  2.0370 -1.1146
  953SOL    HW2 2859   2.472   1.796   0.223 -0.5283  3.7877 -1.5918
  954SOL     OW 2860   2.209   0.544   0.923 -0.5318  0.2270 -0.2720
  954SOL    HW1 2861   2.210   0.539   0.818  0.3384  0.6605  0.0764
  954SOL    HW2 2862   2.299   0.549   0.974 -3.6731  1.1611 -1.3799
  955SOL     OW 2863   0.173   2.585   1.400 -0.8893 -0.8515  0.1445
  955SOL    HW1 2864   0.073   2.588   1.389  0.9146  1.2867 -0.0112
  955SOL    HW2 2865   0.209   2.682   1.390 -2.7008 -0.4427 -1.0037
  956SOL     OW 2866   2.824   2.506   2.497  0.5938  0.1100 -0.0923
  956SOL    HW1 2867   2.853   2.406   2.494  1.8179  1.4225  0.4753
  956SOL    HW2 2868   2.876   2.556   2.418  1.9588  0.5778  0.8010
  957SOL     OW 2869   1.641   2.085   2.744  0.1995 -0.0983  0.1441
  957SOL    HW1 2870   1.621   2.008   2.814 -1.6158  0.2153  0.6327
  957SOL    HW2 2871   1.691   2.059   2.658  3.0930  1.5008  0.1270
  958SOL     OW 2872   2.645   2.294   2.960  0.3627 -0.4391 -0.4526
  958SOL    HW1 2873   2.572   2.366   2.926 -2.6097 -0.2745 -2.3854
  958SOL    HW2 2874   2.618   2.246   3.045  2.7071 -1.3160 -1.3814
  959SOL     OW 2875   0.375   2.789   0.154 -0.7289 -0.4909 -0.2456
  959SOL    HW1 2876   0.287   2.828   0.197 -2.7326 -0.7013  3.0783
  959SOL    HW2 2877   0.375   2.684   0.168  1.8277  1.4194  0.9066
  960SOL     OW 2878   1.940   0.482   1.924  0.5801 -0.1911  0.2720
  960SOL    HW1 2879   1.889   0.567   1.891  2.2796  1.1687 -0.2253
  960SOL    HW2 2880   1.970   0.484   2.020  0.7742 -0.6324 -2.5336
  961SOL     OW 2881   2.526   1.876   1.052 -0.2936  0.0745 -0.0922
  961SOL    HW1 2882   2.526   1.971   1.016  0.7506  0.4967  0.4809
  961SOL    HW2 2883   2.504   1.865   1.154  2.6415  0.4690  1.6128
  962SOL     OW 2884   1.285   0.855   0.046 -0.4235 -0.1590  0.2961
  962SOL    HW1 2885   1.284   0.886  -0.050  0.9864 -0.4295 -0.9717
  962SOL    HW2 2886   1.283   0.934   0.114  0.0175  0.7793  1.6513
  963SOL     OW 2887   2.299   2.580   1.792 -0.5540 -0.1845 -0.2178
  963SOL    HW1 2888   2.247   2.497   1.814 -0.4311  2.3220 -0.1769
  963SOL    HW2 2889   2.351   2.618   1.874  0.4870  0.5919  0.2013
  964SOL     OW 2890   2.345   0.357   1.678 -0.3043 -0.7541 -0.1653
  964SOL    HW1 2891   2.443   0.357   1.713 -1.7469 -1.9276 -1.4093
  964SOL    HW2 2892   2.338   0.367   1.579 -0.5295 -0.9297  3.4954
  965SOL     OW 2893   2.592   2.989   0.206 -0.0648 -0.7882  0.0221
  965SOL    HW1 2894   2.667   2.949   0.146  0.9168  1.1366  1.1434
  965SOL    HW2 2895   2.515   3.033   0.152  0.7364 -1.0650  0.6520
  966SOL     OW 2896   2.497   2.479   2.256  0.5355 -0.1259 -0.3233
  966SOL    HW1 2897   2.519   2.559   2.195 -0.1202 -1.5813  1.3652
  966SOL    HW2 2898   2.410   2.430   2.228  0.5618 -1.5960  0.6252
  967SOL     OW 2899   2.761   2.877   2.457  0.1998 -0.1605  0.1064
  967SOL    HW1 2900   2.796   2.778   2.446  1.9932  0.3789  0.5673
  967SOL    HW2 2901   2.825   2.937   2.512 -0.1396  0.3454 -0.7408
  968SOL     OW 2902   1.957   1.049   2.611 -0.1647 -0.3940  0.4422
  968SOL    HW1 2903   1.867   1.087   2.581  0.8933 -0.3242 -3.0835
  968SOL    HW2 2904   1.966   0.954   2.564  1.7286 -1.6110 -0.8539
  969SOL     OW 2905   2.816   2.574   1.105  0.4573  0.4962  0.1550
  969SOL    HW1 2906   2.789   2.641   1.032 -0.9407 -1.8239 -0.6356
  969SOL    HW2 2907   2.849   2.483   1.060  0.2719 -0.8493  1.0339
  970SOL     OW 2908   1.140   2.089   1.851  0.1761 -0.0710  0.1748
  970SOL    HW1 2909   1.138   2.026   1.936  2.1316 -1.9939  2.2561
  970SOL    HW2 2910   1.083   2.050   1.776  0.1254  0.1739  0.4180
  971SOL     OW 2911   2.872   2.153   1.923 -0.4847 -0.4998 -0.1487
  971SOL    HW1 2912   2.879   2.241   1.977  0.1264 -0.0465 -3.8276
  971SOL    HW2 2913   2.942   2.151   1.846 -1.1078 -1.4023 -0.0139
  972SOL     OW 2914   1.937   2.459   0.231  0.0293  0.0646 -0.0732
  972SOL    HW1 2915   1.924   2.358   0.214 -3.4620  3.3981 -0.0167
  972SOL    HW2 2916   1.975   2.473   0.326  3.1468  3.5600  0.7157
  973SOL     OW 2917   1.125   0.896   1.881  0.0393  0.3385 -0.1924
  973SOL    HW1 2918   1.083   0.799   1.870  1.1192 -1.9787  0.2141
  973SOL    HW2 2919   1.076   0.973   1.832  1.2946  0.2511  0.5948
  974SOL     OW 2920   1.596   0.572   1.983  0.0577  0.4711 -0.1789
  974SOL    HW1 2921   1.670   0.635   1.943  0.4724  1.0052 -1.2488
  974SOL    HW2 2922   1.502   0.605   1.951 -1.5031 -0.1367 -2.2093
  975SOL     OW 2923   2.397   3.033   3.097 -0.1037 -0.0848 -0.6605
  975SOL    HW1 2924   2.317   2.983   3.140  1.7356  0.3043  0.3006
  975SOL    HW2 2925   2.436   2.987   3.014  3.2842 -0.3195  0.7610
  976SOL     OW 2926   1.945   2.694   2.327 -0.1043 -0.3084 -0.1245
  976SOL    HW1 2927   1.860   2.661   2.375 -1.0076 -0.2874 -0.0613
  976SOL    HW2 2928   2.025   2.722   2.389  0.1955  1.6979  0.0209
  977SOL     OW 2929   0.446   0.699   1.012  0.4252  0.5017  0.1175
  977SOL    HW1 2930   0.367   0.704   0.939 -2.8393 -0.1477 -2.1857
  977SOL    HW2 2931   0.522   0.766   0.990  0.9746  0.6648  0.5514
   3.10000   3.10000   3.10000
