1000 SPC/Fw water molecules t=   1.77000 step= 1770
 2931
    1SOL     OW    1   2.512   0.366   2.666  0.5295 -0.3954 -0.1195
    1SOL    HW1    2   2.500   0.264   2.667 -1.0861 -0.0023 -1.8342
    1SOL    HW2    3   2.590   0.403   2.730 -0.2039  0.0032  1.6553
    2SOL     OW    4   2.726   2.916   1.375 -0.3325 -0.9903  0.0888
    2SOL    HW1    5   2.823   2.929   1.346 -2.7582  1.9253  0.9128
    2SOL    HW2    6   2.716   2.926   1.475  0.0579  2.0970 -1.3003
    3SOL     OW    7   2.716   2.458   0.387  0.5744 -0.5321  0.4573
    3SOL    HW1    8   2.617   2.422   0.377 -1.0595  0.6407 -0.6828
    3SOL    HW2    9   2.723   2.523   0.467 -1.7647 -2.0712  3.5315
    4SOL     OW   10   1.295   1.539   2.446 -0.6167 -0.4443 -0.1984
    4SOL    HW1   11   1.241   1.498   2.370 -2.1432  0.2321  1.6329
    4SOL    HW2   12   1.252   1.529   2.542  3.8053  1.6846  0.7400
    5SOL     OW   13   1.119   1.583   2.986  0.0235 -0.3797 -0.5975
    5SOL    HW1   14   1.178   1.656   3.036  1.2487  1.8937 -1.6876
    5SOL    HW2   15   1.047   1.627   2.925 -1.0692  1.3060 -2.7392
    6SOL     OW   16   0.238   1.829  -0.001 -0.7045  0.7489  0.3238
    6SOL    HW1   17   0.154   1.854   0.049  0.6455  0.2299  1.4977
    6SOL    HW2   18   0.299   1.753   0.034  0.8246  0.4269  1.1817
    7SOL     OW   19   2.508   0.917   1.079  0.3070  0.4605 -0.0401
    7SOL    HW1   20   2.414   0.878   1.094  1.4325  0.0780 -1.5753
    7SOL    HW2   21   2.533   0.902   0.979 -0.7764  0.2626 -0.1933
    8SOL     OW   22   0.404   0.671   1.534  0.1629  0.5205 -0.4969
    8SOL    HW1   23   0.495   0.620   1.538  0.4207 -0.2273 -3.2932
    8SOL    HW2   24   0.395   0.717   1.441 -0.9116  0.1788 -0.7364
    9SOL     OW   25   1.128   0.893   2.348 -0.5730  0.0281  0.0366
    9SOL    HW1   26   1.200   0.911   2.265  0.7932  1.9619 -3.8918
    9SOL    HW2   27   1.108   0.789   2.355  1.9883 -0.2046  0.7579
   10SOL     OW   28   0.662   1.398   1.264  0.2181  0.2249  0.4190
   10SOL    HW1   29   0.573   1.394   1.206 -1.1415 -1.5800  1.2126
   10SOL    HW2   30   0.672   1.489   1.303 -2.2570 -1.6371 -1.0172
   11SOL     OW   31   2.321   2.863   0.921 -0.8872 -0.2841 -0.5389
   11SOL    HW1   32   2.272   2.805   0.989  1.5040 -1.4141  0.4447
   11SOL    HW2   33   2.425   2.880   0.945  3.2979  0.8183 -1.4085
   12SOL     OW   34   1.485   0.852   0.482 -0.2848  0.0378  0.4408
   12SOL    HW1   35   1.402   0.846   0.421  1.6307  0.5757 -0.2222
   12SOL    HW2   36   1.557   0.778   0.465 -2.6615  0.0755 -1.1689
   13SOL     OW   37   2.462   0.742   1.786 -0.3194 -0.2450  0.1574
   13SOL    HW1   38   2.416   0.684   1.856  1.0621  1.6464  0.1487
   13SOL    HW2   39   2.448   0.703   1.687 -0.8900  0.5153 -0.5623
   14SOL     OW   40   1.955   3.070   0.592 -0.6869 -0.4356  0.0806
   14SOL    HW1   41   1.861   3.118   0.583 -0.2193 -1.5245 -0.6458
   14SOL    HW2   42   1.961   3.036   0.687 -0.4947  1.0388 -1.3811
   15SOL     OW   43   1.931   2.143   2.672 -0.0661  0.3574  0.0551
   15SOL    HW1   44   1.868   2.151   2.753 -0.2530 -1.4593 -1.6251
   15SOL    HW2   45   1.910   2.060   2.618  0.9653  2.4476 -1.2080
   16SOL     OW   46   1.564   1.769   3.056 -0.2529  0.0266 -0.5764
   16SOL    HW1   47   1.539   1.732   3.148 -2.4952  4.6348  2.6406
   16SOL    HW2   48   1.658   1.812   3.053 -0.4470  2.2795 -1.9494
   17SOL     OW   49   0.115   0.475   0.170 -0.1881 -0.1331  0.1827
   17SOL    HW1   50   0.201   0.461   0.111  1.8922  0.8817 -1.0385
   17SOL    HW2   51   0.034   0.516   0.121 -0.3102  0.0742 -2.1159
   18SOL     OW   52   0.906   2.879   2.160 -0.5380 -0.3808  0.3873
   18SOL    HW1   53   0.844   2.792   2.158  1.7994 -2.3681 -0.0277
   18SOL    HW2   54   0.981   2.871   2.087 -0.2780 -0.0634  0.2848
   19SOL     OW   55   0.537   0.942   1.904 -0.6624  0.6177  0.0056
   19SOL    HW1   56   0.576   0.868   1.961 -0.4252  1.1675 -0.9535
   19SOL    HW2   57   0.610   1.002   1.859 -1.3370  2.5162 -0.2379
   20SOL     OW   58   0.238   2.803   0.763  0.5264 -0.1856 -0.8702
   20SOL    HW1   59   0.139   2.821   0.773  0.8688  2.1909 -0.0544
   20SOL    HW2   60   0.266   2.707   0.720 -0.1726 -0.3092 -1.8361
   21SOL     OW   61   2.772   0.279   2.017  0.7935 -0.0931  0.1541
   21SOL    HW1   62   2.707   0.230   1.953  1.3068 -2.2059  0.1962
   21SOL    HW2   63   2.847   0.220   2.056  0.4761  0.4677  1.1392
   22SOL     OW   64   2.377   0.177   0.141  0.2229  0.0122 -0.1870
   22SOL    HW1   65   2.403   0.096   0.075  3.1380 -3.6414 -1.2494
   22SOL    HW2   66   2.287   0.225   0.115 -0.0285  1.6043  2.5107
   23SOL     OW   67   2.821   0.526   0.685  0.1676 -0.1876 -0.0502
   23SOL    HW1   68   2.853   0.453   0.621 -0.0717  0.8593 -2.9167
   23SOL    HW2   69   2.826   0.619   0.650 -0.7666 -1.0796 -0.2326
   24SOL     OW   70   0.316   1.876   0.464  0.0602 -0.0469 -0.4974
   24SOL    HW1   71   0.313   1.974   0.421  0.5608  2.0836 -1.5529
   24SOL    HW2   72   0.400   1.821   0.440  0.9210 -1.2387  0.3372
   25SOL     OW   73   2.301   0.607   0.221  0.3599 -0.2656 -0.1147
   25SOL    HW1   74   2.287   0.610   0.119 -0.3675  1.2038  0.4844
   25SOL    HW2   75   2.345   0.517   0.255 -1.3572 -1.6566  0.0796
   26SOL     OW   76   2.451   2.157   2.093 -0.4647  0.3225 -0.6638
   26SOL    HW1   77   2.512   2.205   2.163 -0.5484  0.1333  0.6991
   26SOL    HW2   78   2.501   2.097   2.025 -0.4520  0.9717 -2.7252
   27SOL     OW   79   0.641   3.030   0.121  0.3914  0.0337 -0.1023
   27SOL    HW1   80   0.728   3.081   0.103 -3.3266 -1.7348 -0.9233
   27SOL    HW2   81   0.588   3.009   0.039  0.3304  0.9275  2.2773
   28SOL     OW   82   1.579   0.162   0.309  0.2223 -0.0965  0.2596
   28SOL    HW1   83   1.607   0.130   0.211 -3.4148  0.8792  0.7645
   28SOL    HW2   84   1.634   0.244   0.346  0.3469  3.4335 -1.5028
   29SOL     OW   85   2.013   0.551   0.314 -0.0858 -0.0219  0.1395
   29SOL    HW1   86   1.982   0.590   0.407 -1.3978 -0.6176  1.7599
   29SOL    HW2   87   2.105   0.586   0.285  0.4613 -2.9298  0.5819
   30SOL     OW   88   0.200   2.092   0.929  0.4625  0.7000 -0.1201
   30SOL    HW1   89   0.190   2.017   0.862 -0.6062  2.0453 -0.5757
   30SOL    HW2   90   0.112   2.143   0.942  1.2930  2.2459  0.3784
   31SOL     OW   91   2.092   0.085   2.422 -0.4153 -0.1950  0.1834
   31SOL    HW1   92   2.069   0.057   2.519 -1.2381  0.1895 -0.3855
   31SOL    HW2   93   2.018   0.072   2.348  0.2594  1.3379 -2.7080
   32SOL     OW   94   3.082   3.058   0.254 -0.0931 -0.1449  0.1378
   32SOL    HW1   95   3.054   2.970   0.299  0.5391 -2.7734 -0.0678
   32SOL    HW2   96   3.187   3.061   0.242  1.0300 -0.5732  0.2575
   33SOL     OW   97   0.897   0.246   0.644 -0.2270  0.9417 -0.1614
   33SOL    HW1   98   0.867   0.195   0.560 -1.8236  0.5539 -0.9320
   33SOL    HW2   99   0.988   0.286   0.626 -2.0496 -0.2220  0.6680
   34SOL     OW  100   0.330   2.676   1.019 -0.3778 -0.4373  0.5627
   34SOL    HW1  101   0.287   2.708   0.930  0.9784  0.0752  0.1258
   34SOL    HW2  102   0.432   2.699   1.016 -1.7581 -1.0745 -0.1158
   35SOL     OW  103   0.060   0.150   1.916  0.4241  0.5870 -0.4956
   35SOL    HW1  104   0.088   0.048   1.935  1.8702 -0.4579 -0.0475
   35SOL    HW2  105   0.029   0.174   1.820 -0.8986  2.6556  0.8028
   36SOL     OW  106   1.899   1.215   1.496 -0.5333  0.5960 -0.0057
   36SOL    HW1  107   1.993   1.179   1.489 -0.9632 -0.5693 -0.0123
   36SOL    HW2  108   1.883   1.292   1.425  0.1954  0.2189  0.2193
   37SOL     OW  109   1.137   0.256   1.010  0.1707  0.3214 -0.2868
   37SOL    HW1  110   1.158   0.350   0.987  1.0142 -1.5297  0.6797
   37SOL    HW2  111   1.215   0.193   0.981  1.9236  0.2146 -0.1178
   38SOL     OW  112   1.164   2.850   2.460 -0.0836 -0.3419  0.1712
   38SOL    HW1  113   1.075   2.803   2.478 -2.5114 -0.6026 -0.8563
   38SOL    HW2  114   1.153   2.941   2.413 -1.8556 -3.4533 -1.1927
   39SOL     OW  115   2.483   1.416   2.986  0.1774  0.1040 -0.3847
   39SOL    HW1  116   2.537   1.327   2.996 -2.7660 -3.1687  0.6287
   39SOL    HW2  117   2.398   1.413   3.048 -1.8600  2.5574 -2.4478
   40SOL     OW  118   2.038   2.522   2.511  0.2933  0.4192  0.0421
   40SOL    HW1  119   2.009   2.619   2.528 -0.2978 -0.6171  0.7324
   40SOL    HW2  120   1.967   2.454   2.478 -1.8011 -3.0881  0.6953
   41SOL     OW  121   3.029   0.712   2.803  0.1872 -0.4275  0.5176
   41SOL    HW1  122   2.992   0.789   2.869 -1.7627  1.0606  0.5839
   41SOL    HW2  123   2.951   0.676   2.747 -0.2391  2.4588  1.4272
   42SOL     OW  124   1.722   1.749   0.496 -0.4099  0.6190 -0.6285
   42SOL    HW1  125   1.710   1.649   0.472 -0.2515  0.1576  1.2110
   42SOL    HW2  126   1.740   1.806   0.410 -1.5815 -0.1560  0.6541
   43SOL     OW  127   0.478   1.685   1.130  0.8970  0.2169 -0.1647
   43SOL    HW1  128   0.457   1.589   1.109 -0.8945  0.1118 -0.2984
   43SOL    HW2  129   0.428   1.714   1.216 -2.9909 -0.8366 -1.6985
   44SOL     OW  130   1.679   2.332   2.923  0.0201  0.4630  0.2105
   44SOL    HW1  131   1.575   2.333   2.930  0.4742  2.0653  1.2731
   44SOL    HW2  132   1.712   2.395   2.848 -1.6047 -0.3418 -0.6738
   45SOL     OW  133   0.364   1.904   2.642 -0.0686  0.2635  0.1424
   45SOL    HW1  134   0.296   1.875   2.567  0.4871 -4.5362 -0.6859
   45SOL    HW2  135   0.440   1.832   2.662 -0.0506 -0.8639 -0.4970
   46SOL     OW  136   1.335   0.729   0.244  0.0087  0.1537 -0.1883
   46SOL    HW1  137   1.312   0.787   0.164 -0.8888 -0.2859 -1.5670
   46SOL    HW2  138   1.304   0.633   0.222  0.6771 -2.5319  1.0202
   47SOL     OW  139   0.123   2.375   1.607  0.2178 -0.2352  0.0776
   47SOL    HW1  140   0.090   2.296   1.669  2.0306  1.7124  1.6197
   47SOL    HW2  141   0.114   2.357   1.505  1.5537  0.9236  0.6882
   48SOL     OW  142   2.634   0.744   0.128 -0.1537  0.4421  0.4269
   48SOL    HW1  143   2.609   0.695   0.219 -1.0103  1.3837 -1.1749
   48SOL    HW2  144   2.730   0.721   0.092 -0.3037  0.6910 -0.4288
   49SOL     OW  145   0.345   0.846   1.742 -0.0653  0.3871  0.6043
   49SOL    HW1  146   0.412   0.878   1.813  1.3060 -0.0909 -0.7193
   49SOL    HW2  147   0.390   0.799   1.660 -0.7150  1.0586 -1.9457
   50SOL     OW  148   1.708   1.092   0.313 -0.1254  0.3356 -0.0476
   50SOL    HW1  149   1.750   0.996   0.296 -3.3721 -0.7595 -1.7345
   50SOL    HW2  150   1.664   1.101   0.408 -1.7992 -0.0658  0.8438
   51SOL     OW  151   2.973   1.742   0.304  0.2808  0.1328 -0.1599
   51SOL    HW1  152   2.898   1.691   0.350  1.3519 -1.1781 -0.9833
   51SOL    HW2  153   3.066   1.720   0.347  0.6563 -0.7551  0.8838
   52SOL     OW  154   0.767   2.157   0.567 -0.1405 -0.1226  0.1690
   52SOL    HW1  155   0.668   2.181   0.571  0.9398  1.6446  1.5922
   52SOL    HW2  156   0.805   2.104   0.651  2.2860 -0.6834  0.2169
   53SOL     OW  157   0.312   0.429   1.437 -0.2371  0.4812 -0.0698
   53SOL    HW1  158   0.341   0.519   1.478 -0.2043  0.7272 -0.3913
   53SOL    HW2  159   0.294   0.429   1.335  0.9320  1.0899  0.2073
   54SOL     OW  160   1.745   0.433   0.001 -0.2396 -0.6443 -0.0720
   54SOL    HW1  161   1.829   0.389   0.047  2.1039  0.6230 -1.2906
   54SOL    HW2  162   1.657   0.423   0.055  0.2219  0.2670 -0.4533
   55SOL     OW  163   0.795   2.954   0.623  0.3933  0.1001 -0.0836
   55SOL    HW1  164   0.740   3.043   0.619 -2.3889 -0.5180 -0.4629
   55SOL    HW2  165   0.897   2.961   0.623  1.1900  0.9024  0.3219
   56SOL     OW  166   0.547   1.537   3.052 -0.5636 -0.0962 -0.5595
   56SOL    HW1  167   0.477   1.595   3.113 -1.0160  1.1937  0.8087
   56SOL    HW2  168   0.499   1.456   3.008  0.2820  0.3704 -0.6977
   57SOL     OW  169   1.667   2.468   2.352 -0.1095  0.3803  0.2505
   57SOL    HW1  170   1.747   2.403   2.360 -0.5632  0.6515 -2.1343
   57SOL    HW2  171   1.602   2.465   2.436  1.7862 -0.6442  1.7931
   58SOL     OW  172   0.643   0.210   1.104 -0.0433 -0.1694 -0.1482
   58SOL    HW1  173   0.560   0.233   1.164  1.4645  0.5816  3.4438
   58SOL    HW2  174   0.653   0.105   1.096 -3.8624 -0.7625  1.7371
   59SOL     OW  175   0.468   2.362   2.593  0.1572  0.3559 -1.0386
   59SOL    HW1  176   0.485   2.277   2.655 -0.8723 -0.8421  1.8631
   59SOL    HW2  177   0.536   2.437   2.605 -0.7080 -0.8877 -2.2411
   60SOL     OW  178   2.297   2.035   2.286 -0.5485  0.5467  0.1116
   60SOL    HW1  179   2.339   2.074   2.199  0.2332  0.7810  0.1995
   60SOL    HW2  180   2.340   2.084   2.372  1.0015  0.3334  1.8206
   61SOL     OW  181   1.193   0.657   0.469 -0.0230 -0.2664  0.0347
   61SOL    HW1  182   1.090   0.679   0.488 -0.5696  1.8222 -2.2160
   61SOL    HW2  183   1.226   0.690   0.378 -0.0331  1.5652 -0.1345
   62SOL     OW  184   2.800   1.695   2.694 -0.0827 -0.2142  0.3681
   62SOL    HW1  185   2.735   1.622   2.712 -0.8482  0.4802 -0.1508
   62SOL    HW2  186   2.896   1.676   2.731  0.8272 -1.7427  0.8134
   63SOL     OW  187   0.536   0.888   0.178 -0.0693 -0.1569 -0.4430
   63SOL    HW1  188   0.591   0.946   0.114 -1.8139 -0.7506  0.6629
   63SOL    HW2  189   0.573   0.895   0.274  2.7044 -0.5015 -0.2125
   64SOL     OW  190   2.998   0.556   2.351  0.0184 -0.3083  0.8223
   64SOL    HW1  191   2.932   0.600   2.420 -1.6124  0.1156  2.4768
   64SOL    HW2  192   3.002   0.607   2.257  1.6787  1.4104 -3.4148
   65SOL     OW  193   0.225   1.431   0.675 -0.1436 -0.0948 -0.7113
   65SOL    HW1  194   0.232   1.522   0.728 -0.2257 -2.9520  1.6892
   65SOL    HW2  195   0.266   1.433   0.585 -1.0537  0.5438  2.4771
   66SOL     OW  196   2.586   0.332   0.530  0.4378 -0.4826 -0.1724
   66SOL    HW1  197   2.683   0.303   0.535  1.4855 -1.3017  1.0772
   66SOL    HW2  198   2.519   0.265   0.564  1.2388  2.1705 -0.7803
   67SOL     OW  199   0.587   2.511   1.473 -0.2494 -0.7728  0.9837
   67SOL    HW1  200   0.683   2.483   1.512  0.7322  0.1102  3.1561
   67SOL    HW2  201   0.522   2.432   1.464  1.5916 -1.2806  1.3996
   68SOL     OW  202   0.914   1.056   2.490  0.2711  0.6057  0.8756
   68SOL    HW1  203   0.989   0.991   2.464 -0.0796  0.1877  1.4821
   68SOL    HW2  204   0.854   1.074   2.407 -1.3957  0.8022  0.6902
   69SOL     OW  205   0.798   2.600   2.357 -0.1079 -0.2067  0.1571
   69SOL    HW1  206   0.838   2.549   2.272 -1.2822 -4.6075 -1.6177
   69SOL    HW2  207   0.707   2.560   2.384 -0.1259 -0.5080 -0.7330
   70SOL     OW  208   0.482   0.159   2.576  0.3760 -0.0998  0.2342
   70SOL    HW1  209   0.393   0.157   2.632 -1.3565  0.5700  0.2776
   70SOL    HW2  210   0.550   0.080   2.588 -0.0279 -1.3214  1.4101
   71SOL     OW  211   1.062   1.762   0.307  0.0052 -0.0498 -0.4075
   71SOL    HW1  212   1.000   1.755   0.385 -0.3684  0.8133 -0.8951
   71SOL    HW2  213   1.013   1.771   0.218 -1.1789 -0.7797  1.5342
   72SOL     OW  214   1.876   0.267   2.149  0.0519 -0.0363 -0.4115
   72SOL    HW1  215   1.923   0.330   2.079  0.1123  0.0628  3.0065
   72SOL    HW2  216   1.922   0.170   2.157 -2.7646  0.0094 -1.0805
   73SOL     OW  217   2.750   2.207   2.496 -0.3430  0.2681 -0.1806
   73SOL    HW1  218   2.746   2.118   2.443  1.9721 -0.4845  1.2549
   73SOL    HW2  219   2.773   2.191   2.597 -0.7322 -1.6608 -0.4566
   74SOL     OW  220   2.719   2.946   2.123 -0.2381  0.6485  0.5423
   74SOL    HW1  221   2.645   2.945   2.191  1.0872 -0.3700  0.0474
   74SOL    HW2  222   2.813   2.977   2.160  2.1601 -1.1306  2.4291
   75SOL     OW  223   0.940   0.803   1.168 -0.6646 -0.2429  0.3887
   75SOL    HW1  224   0.835   0.806   1.158  0.5384  0.2261 -1.8956
   75SOL    HW2  225   0.970   0.874   1.241  0.4494 -1.1426 -1.6476
   76SOL     OW  226   1.872   1.258   2.633 -0.2795 -0.4079  0.0798
   76SOL    HW1  227   1.765   1.254   2.636 -0.3579 -1.7101  1.5143
   76SOL    HW2  228   1.906   1.351   2.672 -3.6621  1.1071 -2.2748
   77SOL     OW  229   2.916   0.926   1.045  0.2989 -0.2454 -0.1917
   77SOL    HW1  230   2.914   0.822   1.032 -0.7317  0.3869  0.6230
   77SOL    HW2  231   2.990   0.961   1.109  0.8888 -0.4672 -1.8898
   78SOL     OW  232   1.953   1.423   1.342 -0.7669 -0.2321 -0.1887
   78SOL    HW1  233   2.042   1.426   1.284  0.7963  1.5478 -2.8978
   78SOL    HW2  234   1.871   1.452   1.286 -0.4752 -1.6603  0.5113
   79SOL     OW  235   0.706   1.462   0.843 -0.1645 -0.0396  0.0243
   79SOL    HW1  236   0.605   1.469   0.878 -0.9685  0.0952  3.3801
   79SOL    HW2  237   0.727   1.367   0.800 -1.0578  1.8440 -1.2677
   80SOL     OW  238   0.664   0.465   1.596  0.3541  0.3602  0.6104
   80SOL    HW1  239   0.681   0.522   1.511  0.4085  2.4318 -0.1374
   80SOL    HW2  240   0.662   0.364   1.564  2.4265  0.1629  0.9892
   81SOL     OW  241   1.078   1.267   2.502 -0.4048  0.3456  0.0539
   81SOL    HW1  242   1.032   1.176   2.484  1.5142  1.2947 -0.6390
   81SOL    HW2  243   1.010   1.341   2.524 -0.1823 -1.3744 -3.0965
   82SOL     OW  244   0.925   2.954   1.594  0.3565  0.2158  1.1119
   82SOL    HW1  245   1.021   2.920   1.607 -0.0114 -1.6105  0.5456
   82SOL    HW2  246   0.901   2.969   1.492  1.4169  1.0806 -2.3858
   83SOL     OW  247   2.649   2.355   0.873 -0.0229 -0.9592  0.7153
   83SOL    HW1  248   2.553   2.339   0.852  0.7694 -1.2033 -2.3540
   83SOL    HW2  249   2.662   2.456   0.907 -1.6930  2.2049 -3.1868
   84SOL     OW  250   0.769   3.091   2.290 -0.4234 -0.2104  0.6985
   84SOL    HW1  251   0.722   3.066   2.380 -1.7071 -0.5612 -1.2979
   84SOL    HW2  252   0.820   3.009   2.248 -0.2269 -2.9893 -2.9503
   85SOL     OW  253   0.322   1.709   1.350 -0.1105  0.0331 -0.1544
   85SOL    HW1  254   0.283   1.799   1.382 -1.7353 -3.1673 -0.9889
   85SOL    HW2  255   0.358   1.656   1.429  0.8143  2.0361 -0.6917
   86SOL     OW  256   0.446   1.045   1.430 -0.4720 -0.1519 -1.1266
   86SOL    HW1  257   0.408   0.966   1.367 -0.5031 -1.0167 -1.1160
   86SOL    HW2  258   0.548   1.032   1.436  1.7980 -0.4205  0.1810
   87SOL     OW  259   1.641   0.633   0.289  0.5856  0.0230  0.1606
   87SOL    HW1  260   1.706   0.708   0.267  1.3568 -2.0494  2.5255
   87SOL    HW2  261   1.599   0.600   0.200  2.1134  0.1837  0.8126
   88SOL     OW  262   1.569   1.329   0.251  0.2771  0.0929  0.1921
   88SOL    HW1  263   1.618   1.239   0.265  0.0210  0.8578  1.3493
   88SOL    HW2  264   1.473   1.318   0.252  1.8392 -1.0029 -2.2288
   89SOL     OW  265   0.003   0.390   0.685 -0.1521  0.0450  0.3752
   89SOL    HW1  266   0.104   0.366   0.691 -1.0986 -1.1137 -3.5042
   89SOL    HW2  267  -0.051   0.304   0.688  0.0110 -0.9185  1.7285
   90SOL     OW  268   0.744   1.525   0.136  0.2737  0.4317 -0.8272
   90SOL    HW1  269   0.839   1.485   0.125 -0.0164 -0.4605  0.5342
   90SOL    HW2  270   0.686   1.517   0.051  0.1643 -2.6274 -0.1431
   91SOL     OW  271   1.307   1.513   1.694 -0.2615 -0.1628  0.0323
   91SOL    HW1  272   1.262   1.567   1.776  0.9942  1.6483  2.0517
   91SOL    HW2  273   1.355   1.423   1.726  2.9847 -1.4884 -1.1615
   92SOL     OW  274   0.029   1.006   1.205  0.5851 -0.1159 -0.4028
   92SOL    HW1  275   0.086   1.089   1.170 -1.2343  2.0520  0.7996
   92SOL    HW2  276   0.044   0.991   1.312  0.2902 -0.3362 -1.5962
   93SOL     OW  277   3.043   2.645   0.066 -0.2029  0.2888 -0.0737
   93SOL    HW1  278   2.975   2.621  -0.012 -2.9624 -1.8531 -2.1264
   93SOL    HW2  279   3.093   2.560   0.102  2.5302 -0.7904  0.9438
   94SOL     OW  280   1.522   1.315   1.681  0.4901  0.2987 -0.0476
   94SOL    HW1  281   1.587   1.235   1.672  0.9551 -0.1969  2.0664
   94SOL    HW2  282   1.551   1.399   1.626 -0.0252  1.1986 -0.9170
   95SOL     OW  283   1.357   2.456   2.926  0.1334 -0.2584 -0.0472
   95SOL    HW1  284   1.275   2.459   2.994 -1.1158 -0.7205  1.2260
   95SOL    HW2  285   1.373   2.365   2.883  0.6378  0.5109  4.7312
   96SOL     OW  286   0.568   2.166   1.303  0.0793  0.0815 -0.3369
   96SOL    HW1  287   0.521   2.127   1.220 -0.6449 -1.6926  0.2875
   96SOL    HW2  288   0.628   2.093   1.347 -1.3804 -0.3175  0.1496
   97SOL     OW  289   0.244   1.599   2.386  0.2062 -0.8672 -0.2671
   97SOL    HW1  290   0.253   1.700   2.367  0.5135  1.1096  2.4414
   97SOL    HW2  291   0.259   1.576   2.489 -1.0251  2.9982  1.8504
   98SOL     OW  292   2.206   1.674   1.182  0.7433 -0.1938 -0.4174
   98SOL    HW1  293   2.166   1.581   1.178  1.0665  1.4471  0.6551
   98SOL    HW2  294   2.307   1.671   1.159  2.2967  2.6638 -0.6084
   99SOL     OW  295   2.620   2.044   1.296  0.1765  0.2547  0.2228
   99SOL    HW1  296   2.683   2.089   1.372 -0.1497  3.3002  1.8211
   99SOL    HW2  297   2.539   1.990   1.334 -0.1685  1.8703 -0.1377
  100SOL     OW  298   2.337   0.352   2.126 -0.0835 -0.2175  0.0893
  100SOL    HW1  299   2.275   0.354   2.211 -0.8216  0.5071  1.5961
  100SOL    HW2  300   2.432   0.386   2.147 -0.3132 -0.5175 -0.2407
  101SOL     OW  301   0.360   1.462   0.423 -0.2922  0.7249  0.2673
  101SOL    HW1  302   0.362   1.537   0.490  0.5410 -0.9773  0.0157
  101SOL    HW2  303   0.459   1.456   0.393 -0.3926  2.6552 -1.1515
  102SOL     OW  304   2.256   1.072   0.863  0.3541 -0.1942  0.7341
  102SOL    HW1  305   2.207   0.984   0.854  0.4539  3.0824  3.6728
  102SOL    HW2  306   2.355   1.072   0.820  1.0343 -0.1988 -1.7139
  103SOL     OW  307   2.280   0.088   0.373 -0.4228  0.2845 -0.1226
  103SOL    HW1  308   2.339   0.132   0.301  3.7877 -0.4093  0.6645
  103SOL    HW2  309   2.322  -0.003   0.414 -1.6017 -2.1123  0.5670
  104SOL     OW  310   3.054   1.803   2.211  0.1947  0.2234  0.5154
  104SOL    HW1  311   3.118   1.807   2.126  4.3818  0.0762 -0.2844
  104SOL    HW2  312   2.961   1.781   2.184  1.7788  1.9409  2.6061
  105SOL     OW  313   1.315   2.095   0.756 -0.5488 -0.0482 -0.2240
  105SOL    HW1  314   1.279   2.151   0.677 -0.3507  1.1273  0.6512
  105SOL    HW2  315   1.302   1.995   0.745 -0.8694 -1.8058  0.9778
  106SOL     OW  316   2.135   0.409   1.433  0.0513  0.1069  0.3325
  106SOL    HW1  317   2.052   0.349   1.404 -2.2413 -0.1847  2.5445
  106SOL    HW2  318   2.131   0.420   1.535  0.1211 -3.2122  0.2493
  107SOL     OW  319   1.924   2.902   1.153 -0.3220  0.1933  0.2841
  107SOL    HW1  320   1.859   2.959   1.213 -0.9960  0.2246  0.6647
  107SOL    HW2  321   1.887   2.819   1.107  2.0757 -1.7231  0.9636
  108SOL     OW  322   0.857   2.812   1.119  0.4070 -0.3922 -0.3809
  108SOL    HW1  323   0.884   2.722   1.074 -1.5732  0.8102 -0.6717
  108SOL    HW2  324   0.935   2.855   1.171 -0.7273 -0.6107 -1.1128
  109SOL     OW  325   2.174   0.163   0.731  0.0329 -0.2249  0.1853
  109SOL    HW1  326   2.126   0.106   0.660  0.9215  0.0931  0.4057
  109SOL    HW2  327   2.141   0.144   0.826  2.4050  0.2240 -0.0755
  110SOL     OW  328   0.507   2.834   2.754  0.0495 -0.3211  0.0075
  110SOL    HW1  329   0.494   2.836   2.653  1.3831  1.2933 -1.6749
  110SOL    HW2  330   0.568   2.754   2.780 -0.6500 -0.3384 -0.5909
  111SOL     OW  331   1.327   0.585   2.288 -0.2661  0.1750  0.5492
  111SOL    HW1  332   1.234   0.596   2.336 -1.1339  0.7925  2.5227
  111SOL    HW2  333   1.378   0.505   2.324  2.8507  2.9660  0.1974
  112SOL     OW  334   1.737   0.479   1.541 -0.0157  0.9625  0.1823
  112SOL    HW1  335   1.716   0.524   1.447 -1.6012  0.1810 -2.2408
  112SOL    HW2  336   1.657   0.454   1.593  0.2996 -0.1435 -3.6285
  113SOL     OW  337   2.298   1.678   1.797 -1.1016  0.4254  0.3183
  113SOL    HW1  338   2.364   1.598   1.770 -0.4713  0.3002 -2.4728
  113SOL    HW2  339   2.300   1.695   1.899  0.1596  2.3798 -1.4402
  114SOL     OW  340   0.229   0.395   1.153 -0.4330 -0.2077  0.0488
  114SOL    HW1  341   0.126   0.406   1.187 -2.6581  1.0166  1.8274
  114SOL    HW2  342   0.249   0.445   1.067  1.0052  0.7550 -1.0521
  115SOL     OW  343   2.682   1.535   1.255 -0.4086  0.5679 -0.1029
  115SOL    HW1  344   2.686   1.437   1.291  2.5722 -0.8374  2.2129
  115SOL    HW2  345   2.774   1.577   1.233 -1.7554 -0.0976 -3.8717
  116SOL     OW  346   1.935   0.913   0.728 -0.2639 -0.2096 -0.5267
  116SOL    HW1  347   1.838   0.893   0.698 -0.8297 -1.7822 -1.3346
  116SOL    HW2  348   1.946   1.014   0.736 -1.4142  0.7720 -0.9986
  117SOL     OW  349   1.132   0.355   0.557 -0.0118 -0.2373  0.4215
  117SOL    HW1  350   1.165   0.453   0.584  2.5393  2.1774  3.4414
  117SOL    HW2  351   1.110   0.356   0.453 -1.0307  0.9640  0.3611
  118SOL     OW  352   1.150   1.224   1.092  0.0173  0.1303 -0.0507
  118SOL    HW1  353   1.049   1.203   1.091 -2.0534 -0.6163 -1.0018
  118SOL    HW2  354   1.170   1.322   1.111 -0.8488 -1.5330 -0.2719
  119SOL     OW  355   1.875   1.588   2.198  0.4996  0.2624 -0.3998
  119SOL    HW1  356   1.813   1.650   2.143 -3.7387  0.2697  0.8020
  119SOL    HW2  357   1.966   1.576   2.149 -1.1827  0.8172 -0.7794
  120SOL     OW  358   2.973   2.808   0.268 -0.3924  0.4730 -0.0504
  120SOL    HW1  359   2.986   2.759   0.178 -0.9082 -1.7421 -0.0464
  120SOL    HW2  360   2.876   2.844   0.276  1.6354  0.3405  0.5785
  121SOL     OW  361   2.002   0.780   2.323 -0.4435  0.0975  0.2833
  121SOL    HW1  362   2.059   0.857   2.279  0.3553 -1.2221  1.3651
  121SOL    HW2  363   2.022   0.686   2.278 -1.0495 -1.9942 -0.6795
  122SOL     OW  364   2.638   2.495   1.360 -0.1002 -0.2444  0.3794
  122SOL    HW1  365   2.690   2.442   1.286 -1.4156 -0.5406 -2.0213
  122SOL    HW2  366   2.639   2.447   1.447  0.8928  0.9606 -1.5092
  123SOL     OW  367   1.651   0.182   1.664  0.1931 -0.1649 -0.4407
  123SOL    HW1  368   1.653   0.092   1.615 -0.5349 -0.2765 -2.0791
  123SOL    HW2  369   1.745   0.215   1.697  0.7723 -0.0172  0.5289
  124SOL     OW  370   3.083   0.405   1.167  0.6492 -0.4478  0.1559
  124SOL    HW1  371   3.027   0.441   1.242 -0.1393 -0.4581 -1.6488
  124SOL    HW2  372   3.080   0.469   1.086  3.2056 -2.8258  1.6268
  125SOL     OW  373   0.892   1.990   0.758 -0.0431 -0.1230  0.2635
  125SOL    HW1  374   0.978   1.927   0.773  1.4551  1.6226  0.1615
  125SOL    HW2  375   0.831   2.001   0.839 -1.0239  2.5171  1.0110
  126SOL     OW  376   1.895   2.291   2.451  0.0130 -0.4768 -0.2974
  126SOL    HW1  377   1.973   2.283   2.382 -0.8757 -1.1162  0.5542
  126SOL    HW2  378   1.909   2.255   2.546  0.7601 -0.6980 -0.6629
  127SOL     OW  379   0.902   0.968   0.167  0.1972  0.0659  0.0695
  127SOL    HW1  380   0.886   1.014   0.257 -1.1447  0.8247 -2.1700
  127SOL    HW2  381   0.889   0.865   0.169  1.5530 -2.0320  1.7182
  128SOL     OW  382   0.931   0.182   1.388  0.2135  0.1168 -0.4318
  128SOL    HW1  383   0.879   0.268   1.344 -1.3316 -0.1938 -2.3608
  128SOL    HW2  384   0.882   0.088   1.367 -1.0278 -1.8598 -0.1593
  129SOL     OW  385   1.888   0.722   1.849  0.2202 -0.2260  0.4637
  129SOL    HW1  386   1.914   0.730   1.752 -0.9402  0.0434 -1.0337
  129SOL    HW2  387   1.918   0.802   1.912 -0.0804  0.2952 -1.8035
  130SOL     OW  388   1.394   2.165   1.026  0.3409 -0.3829 -0.0295
  130SOL    HW1  389   1.360   2.129   0.934 -0.1516  1.0324 -0.0630
  130SOL    HW2  390   1.436   2.260   1.018 -0.3942  0.5449  0.8180
  131SOL     OW  391   3.020   1.392   1.428 -0.2321  0.1707  0.5331
  131SOL    HW1  392   2.962   1.306   1.434 -2.8196 -0.5730  3.9068
  131SOL    HW2  393   3.123   1.373   1.398  3.0191  0.1778 -0.9098
  132SOL     OW  394   2.056   2.424   0.548  0.1550  0.2082 -0.2220
  132SOL    HW1  395   1.962   2.463   0.540  2.0901 -0.5149 -1.2635
  132SOL    HW2  396   2.056   2.334   0.605 -0.0503 -0.9197 -0.3207
  133SOL     OW  397   1.774   2.507   2.727  0.5433 -0.5428 -0.4385
  133SOL    HW1  398   1.695   2.486   2.664 -2.3978  2.1215  1.0621
  133SOL    HW2  399   1.768   2.610   2.760  1.5775  0.4121  0.0874
  134SOL     OW  400   2.619   2.413   1.627  0.0197  0.1283  0.6180
  134SOL    HW1  401   2.554   2.376   1.697 -0.6469  3.1986 -0.7535
  134SOL    HW2  402   2.664   2.501   1.654 -0.4757 -0.5679  0.2320
  135SOL     OW  403   0.802   1.343   2.660  0.1244 -0.5237  0.3746
  135SOL    HW1  404   0.727   1.280   2.689 -2.3751 -0.0736  2.0898
  135SOL    HW2  405   0.810   1.337   2.558  1.3848 -1.4759  1.9867
  136SOL     OW  406   1.197   1.996   0.406  0.8512  0.3491  0.5092
  136SOL    HW1  407   1.141   2.073   0.449  2.1420 -0.8386  0.1226
  136SOL    HW2  408   1.138   1.912   0.381  1.3157  0.9685  1.4369
  137SOL     OW  409   0.442   1.184   2.304  1.0198 -0.7830 -0.1046
  137SOL    HW1  410   0.336   1.181   2.309 -1.4051  1.1720 -0.5132
  137SOL    HW2  411   0.485   1.096   2.334 -0.2439 -1.8879  1.5481
  138SOL     OW  412   2.445   1.479   0.261 -0.2918 -0.1202  0.2156
  138SOL    HW1  413   2.382   1.429   0.202 -1.0133  1.2526  1.7310
  138SOL    HW2  414   2.505   1.421   0.325 -0.3719  1.5178  2.5094
  139SOL     OW  415   1.894   2.645   1.578  0.4215 -0.0200 -0.3687
  139SOL    HW1  416   1.795   2.679   1.560 -0.7810 -0.4783 -0.6486
  139SOL    HW2  417   1.930   2.571   1.511  0.3174  1.2903  1.1372
  140SOL     OW  418   2.995   2.960   2.593  0.1243 -0.0902  0.5581
  140SOL    HW1  419   3.039   2.869   2.619 -1.5938  0.1369 -0.8107
  140SOL    HW2  420   3.056   3.043   2.573 -0.9899 -2.6377 -0.0303
  141SOL     OW  421   1.310   1.639   1.453 -0.4577 -0.4267 -1.0809
  141SOL    HW1  422   1.226   1.696   1.477 -1.7738 -0.1278  1.1770
  141SOL    HW2  423   1.333   1.585   1.541  0.4773  1.1386 -0.4750
  142SOL     OW  424   1.594   0.673   2.230  0.0624  0.1556  0.2274
  142SOL    HW1  425   1.612   0.682   2.130  2.2547 -2.2617 -0.8897
  142SOL    HW2  426   1.492   0.649   2.245 -1.3745 -0.9123  0.7155
  143SOL     OW  427   2.751   0.785   0.530  0.4972 -0.5820 -0.2478
  143SOL    HW1  428   2.815   0.829   0.465  0.1753 -0.3007  1.8834
  143SOL    HW2  429   2.762   0.831   0.625  2.3933 -0.9706  2.7284
  144SOL     OW  430   2.914   1.150   1.429 -0.1292 -0.2410 -0.2008
  144SOL    HW1  431   2.866   1.147   1.525 -0.5017 -0.3431  1.2892
  144SOL    HW2  432   2.992   1.079   1.432  0.6740  1.8003  1.3030
  145SOL     OW  433   0.909   1.766   0.047  0.4102  0.1790  0.1902
  145SOL    HW1  434   0.909   1.808  -0.047  0.8435  1.9557  0.2807
  145SOL    HW2  435   0.826   1.701   0.065  0.1718 -0.1485 -0.6670
  146SOL     OW  436   2.467   0.665   1.522 -0.1878  0.0486 -0.2508
  146SOL    HW1  437   2.450   0.575   1.465 -0.2941  2.1079 -1.9282
  146SOL    HW2  438   2.415   0.747   1.489 -0.0076  2.8189 -0.2098
  147SOL     OW  439   1.105   2.513   0.555  0.5165  0.3660 -0.4420
  147SOL    HW1  440   1.045   2.555   0.481  0.9078  1.2668 -0.6495
  147SOL    HW2  441   1.198   2.485   0.515 -0.4145  0.7746 -1.3147
  148SOL     OW  442   1.608   1.424   3.094  0.1683 -0.6740  0.1230
  148SOL    HW1  443   1.618   1.330   3.052  0.7103 -0.9028 -0.5604
  148SOL    HW2  444   1.597   1.410   3.196  2.8351 -0.3030  0.2250
  149SOL     OW  445   0.668   1.499   1.994  0.4067  0.1031 -0.6593
  149SOL    HW1  446   0.575   1.477   2.041  0.4201 -0.1866  2.9744
  149SOL    HW2  447   0.682   1.450   1.906 -1.1674  0.5705 -1.9015
  150SOL     OW  448   2.986   1.216   0.980 -0.4548  0.0051  0.8098
  150SOL    HW1  449   3.076   1.237   1.031 -1.3148 -1.2729 -1.4089
  150SOL    HW2  450   2.946   1.120   1.007 -2.6665 -2.4044  0.9822
  151SOL     OW  451   0.148   0.874   2.095 -0.0867 -0.3017  0.2827
  151SOL    HW1  452   0.168   0.957   2.037 -0.5627  0.2862  1.5162
  151SOL    HW2  453   0.214   0.799   2.061 -0.3104 -0.3577  0.3768
  152SOL     OW  454   1.459   1.869   1.110 -0.6148  0.0433 -0.2247
  152SOL    HW1  455   1.496   1.964   1.093  0.3310  1.4423 -0.4254
  152SOL    HW2  456   1.358   1.862   1.127 -0.9055 -1.1842  0.5018
  153SOL     OW  457   0.083   1.484   0.257 -0.9424  0.0340 -0.3798
  153SOL    HW1  458  -0.006   1.440   0.278  1.1630 -1.1235  2.6715
  153SOL    HW2  459   0.134   1.512   0.342 -0.9322  0.7152  0.1352
  154SOL     OW  460   2.287   1.852   2.771 -0.5291  0.1511  0.1002
  154SOL    HW1  461   2.312   1.753   2.786 -2.8970  0.5670  1.5932
  154SOL    HW2  462   2.361   1.897   2.708  0.8947  1.5121 -0.8708
  155SOL     OW  463   2.570   1.296   0.432  1.1472  0.0023 -0.4599
  155SOL    HW1  464   2.626   1.302   0.517  2.8476 -2.7425 -2.4845
  155SOL    HW2  465   2.612   1.229   0.367  0.0190  1.6449 -1.9862
  156SOL     OW  466   2.467   0.794   0.772  0.0718  0.4085 -0.0885
  156SOL    HW1  467   2.364   0.814   0.773 -1.1318  0.2153  0.3197
  156SOL    HW2  468   2.500   0.814   0.680  1.4409 -1.4251 -0.6897
  157SOL     OW  469   1.252   3.089   3.038 -0.5881 -0.2448 -0.2343
  157SOL    HW1  470   1.316   3.029   2.986 -0.9227  3.8180 -1.8694
  157SOL    HW2  471   1.284   3.184   3.065 -0.0294 -0.4442 -2.8154
  158SOL     OW  472   1.088   1.880   1.857  0.5470  0.0006  0.1550
  158SOL    HW1  473   1.122   1.971   1.830 -0.4252 -2.8238  3.7063
  158SOL    HW2  474   0.986   1.874   1.872  0.3365 -1.5105  2.6739
  159SOL     OW  475   0.795   0.385   1.235  0.2238 -0.1695 -0.1764
  159SOL    HW1  476   0.745   0.473   1.255 -0.3098 -0.7911  1.9855
  159SOL    HW2  477   0.737   0.308   1.184 -1.2398 -3.2559  0.4367
  160SOL     OW  478   1.388   2.465   1.407 -0.2878 -0.3311 -0.1151
  160SOL    HW1  479   1.341   2.410   1.479  1.4253 -0.1173  1.2790
  160SOL    HW2  480   1.486   2.433   1.398 -0.0691  1.4789  0.6481
  161SOL     OW  481   0.055   2.643   0.430  0.3125 -0.0200  0.0197
  161SOL    HW1  482   0.014   2.545   0.422 -1.1278 -4.3731  0.2900
  161SOL    HW2  483  -0.008   2.712   0.384  0.0989  1.3434 -0.6936
  162SOL     OW  484   2.521   1.925   0.444  0.1454  0.1633 -0.8480
  162SOL    HW1  485   2.590   1.935   0.365 -0.0564  0.0458 -0.4714
  162SOL    HW2  486   2.451   1.843   0.444 -0.8500  0.2398  0.5043
  163SOL     OW  487   1.969   2.749   0.774 -0.3282 -0.1292  0.3530
  163SOL    HW1  488   1.929   2.751   0.680 -1.0180  0.4095 -0.8822
  163SOL    HW2  489   2.040   2.678   0.792  0.5453  1.3240 -0.8500
  164SOL     OW  490   3.074   0.133   1.238 -0.7209  0.4129  0.0307
  164SOL    HW1  491   3.068   0.227   1.192 -0.2187  1.1294 -1.5552
  164SOL    HW2  492   3.142   0.117   1.315 -0.7692 -1.1054  1.3135
  165SOL     OW  493   1.103   1.412   0.643 -0.4262 -0.1963  0.6916
  165SOL    HW1  494   1.068   1.472   0.717  1.2447 -0.1480  0.0726
  165SOL    HW2  495   1.049   1.422   0.555  1.6431 -2.9712 -1.3326
  166SOL     OW  496   1.541   0.985   1.834  0.7888  0.3424 -0.6075
  166SOL    HW1  497   1.446   1.019   1.849 -0.3569  1.0012 -1.4340
  166SOL    HW2  498   1.607   1.054   1.794 -0.8926  0.7106 -2.5809
  167SOL     OW  499   0.670   2.016   1.515  0.3208  0.3833 -0.1174
  167SOL    HW1  500   0.655   2.100   1.577 -2.8046  0.8006 -0.9650
  167SOL    HW2  501   0.639   1.929   1.565 -0.0843  0.3582 -0.9415
  168SOL     OW  502   1.631   2.293   0.138  0.3778  0.0583  0.3695
  168SOL    HW1  503   1.701   2.290   0.062  0.9069  1.1099 -1.5130
  168SOL    HW2  504   1.675   2.288   0.229 -0.0134 -0.3744  0.3664
  169SOL     OW  505   3.062   2.614   2.186 -0.2253  0.1936 -0.0332
  169SOL    HW1  506   3.072   2.548   2.110 -0.7456  0.4865  2.3978
  169SOL    HW2  507   3.117   2.596   2.273  1.2208  1.0625 -0.0534
  170SOL     OW  508   1.181   0.134   2.108  0.4257  0.0803 -0.0502
  170SOL    HW1  509   1.265   0.189   2.147 -0.2722  0.3337  0.7905
  170SOL    HW2  510   1.185   0.127   2.006 -2.3867  1.3341  0.6976
  171SOL     OW  511   0.195   0.854   2.436 -0.5042 -0.0754  0.3294
  171SOL    HW1  512   0.101   0.835   2.470  0.6594 -0.4281 -0.9848
  171SOL    HW2  513   0.189   0.921   2.352  3.1630  0.8428  1.1148
  172SOL     OW  514   0.957   0.956   2.787 -0.6654 -0.3767 -0.5891
  172SOL    HW1  515   0.927   1.016   2.867  0.8564 -0.6082 -1.2887
  172SOL    HW2  516   0.914   0.974   2.691 -0.6999 -1.0224 -2.2630
  173SOL     OW  517   0.349   2.573   3.092  0.1904  0.1128 -0.9940
  173SOL    HW1  518   0.423   2.548   3.019 -1.6312  0.1304 -2.5771
  173SOL    HW2  519   0.367   2.525   3.187 -0.7215 -0.9948  0.0503
  174SOL     OW  520   1.478   2.871   1.021  0.0252 -0.1284  0.0562
  174SOL    HW1  521   1.531   2.938   0.964  0.5872 -1.3584  1.4795
  174SOL    HW2  522   1.459   2.782   0.972 -1.8496 -0.6133 -1.4444
  175SOL     OW  523   0.502   3.024   1.714 -0.0574  0.2286  0.0269
  175SOL    HW1  524   0.555   3.019   1.803 -1.6907  1.0887 -1.3575
  175SOL    HW2  525   0.461   3.116   1.697  0.8508 -1.1192  1.3893
  176SOL     OW  526   2.588   0.466   3.077 -0.7175  0.1833  0.2145
  176SOL    HW1  527   2.606   0.547   3.136 -3.2717 -0.1510  0.5718
  176SOL    HW2  528   2.502   0.415   3.101 -1.4960  1.7544  0.9227
  177SOL     OW  529   0.373   0.183   0.826 -0.0086 -0.2401 -0.6534
  177SOL    HW1  530   0.323   0.091   0.837  1.9369 -1.6552  1.8252
  177SOL    HW2  531   0.472   0.171   0.867  0.8953 -3.3466  0.1690
  178SOL     OW  532   0.011   2.728   2.660  0.3854  0.4037 -0.4580
  178SOL    HW1  533   0.008   2.622   2.660 -1.8799 -1.3345  1.5162
  178SOL    HW2  534   0.095   2.758   2.713  0.3705 -0.4767  0.6663
  179SOL     OW  535   2.961   1.578   1.247 -0.1020  0.3073  0.4432
  179SOL    HW1  536   3.039   1.594   1.183  0.9666 -1.4731 -1.6235
  179SOL    HW2  537   2.983   1.499   1.314  0.6133 -1.9529 -1.8389
  180SOL     OW  538   0.296   1.405   1.738  0.2419  0.0358 -0.1364
  180SOL    HW1  539   0.369   1.352   1.795  1.6413  1.9612 -0.7192
  180SOL    HW2  540   0.229   1.459   1.794 -4.1212 -0.9568 -0.6085
  181SOL     OW  541   3.008   1.750   2.479  0.2371 -0.3742  0.2567
  181SOL    HW1  542   3.048   1.762   2.381 -1.8963  0.6499 -3.3375
  181SOL    HW2  543   2.905   1.769   2.487  0.6703  0.8736  0.0729
  182SOL     OW  544   2.169   1.394   1.186 -0.5780  0.4771 -0.4604
  182SOL    HW1  545   2.169   1.297   1.223 -0.8444 -0.0546  2.4539
  182SOL    HW2  546   2.222   1.406   1.099 -0.6135  0.0216  1.2884
  183SOL     OW  547   1.452   2.238   2.433 -0.3936  0.2452  0.2822
  183SOL    HW1  548   1.380   2.185   2.485  0.3755 -1.1733 -1.1361
  183SOL    HW2  549   1.531   2.180   2.405 -1.4018  1.8941  2.7600
  184SOL     OW  550   2.180   0.779   0.745  0.2543 -0.2881  0.5933
  184SOL    HW1  551   2.079   0.808   0.735  1.4896  0.4583 -1.2099
  184SOL    HW2  552   2.196   0.674   0.759  1.6701  1.9676  1.3964
  185SOL     OW  553   1.588   2.753   2.011 -0.3074 -0.8184 -0.1415
  185SOL    HW1  554   1.534   2.842   2.005  1.1323 -0.2466  0.9847
  185SOL    HW2  555   1.632   2.741   2.104  0.4121  0.5441 -0.5823
  186SOL     OW  556   0.017   2.189   1.770 -0.2404 -0.3864  0.0870
  186SOL    HW1  557  -0.001   2.237   1.863 -0.7829 -1.2328 -0.2509
  186SOL    HW2  558   0.109   2.135   1.780 -0.3767  2.6393 -2.1459
  187SOL     OW  559   1.314   0.669   1.626 -0.2054 -0.9032  0.1508
  187SOL    HW1  560   1.396   0.713   1.581  0.5524  1.0839  1.4729
  187SOL    HW2  561   1.332   0.640   1.719 -0.0859 -0.0779 -2.4027
  188SOL     OW  562   2.700   2.684   1.591  0.3638 -0.7833 -0.2408
  188SOL    HW1  563   2.676   2.787   1.593 -0.5785  3.0831  2.3591
  188SOL    HW2  564   2.664   2.634   1.510  0.6492  1.5091 -0.6541
  189SOL     OW  565   0.885   1.205   1.364 -1.2126  0.0414  0.0784
  189SOL    HW1  566   0.905   1.283   1.430 -0.6551 -1.4401  0.4991
  189SOL    HW2  567   0.880   1.244   1.268 -0.7475  1.6848  1.3575
  190SOL     OW  568   1.444   1.875   1.531  0.0229  0.1580  0.0669
  190SOL    HW1  569   1.399   1.791   1.494  0.1285  1.2245 -2.5619
  190SOL    HW2  570   1.416   1.894   1.630 -1.2137  0.3309  2.2794
  191SOL     OW  571   0.855   0.789   1.501  0.3313  0.3356  0.3595
  191SOL    HW1  572   0.898   0.724   1.570 -2.3758  0.0506 -1.1347
  191SOL    HW2  573   0.934   0.834   1.446  1.3057  0.7123 -3.6414
  192SOL     OW  574   1.828   2.450   1.136 -0.0263  0.3152  0.3262
  192SOL    HW1  575   1.745   2.392   1.133  0.5029 -0.1785 -2.5240
  192SOL    HW2  576   1.896   2.415   1.073  1.1784 -2.4453 -2.1341
  193SOL     OW  577   0.508   0.512   0.395 -0.1755 -0.5535 -0.0967
  193SOL    HW1  578   0.444   0.434   0.380 -1.7422 -1.0202 -0.6046
  193SOL    HW2  579   0.572   0.527   0.314  1.7574  0.4700  0.0378
  194SOL     OW  580   0.395   0.831   1.274  0.3312 -0.2639 -0.1103
  194SOL    HW1  581   0.300   0.791   1.252 -1.2141 -0.3048  0.8553
  194SOL    HW2  582   0.466   0.804   1.199 -0.6143  0.0408  0.1302
  195SOL     OW  583   1.057   2.935   0.527  0.1684 -0.3971 -0.2405
  195SOL    HW1  584   1.039   2.840   0.492  1.7899 -1.0615 -0.3986
  195SOL    HW2  585   1.152   2.974   0.508  0.6410 -0.1010  2.0085
  196SOL     OW  586   0.227   1.397   1.296 -0.0539 -0.4215 -0.0066
  196SOL    HW1  587   0.266   1.481   1.344 -2.3112 -1.2990  1.8718
  196SOL    HW2  588   0.256   1.307   1.340 -0.2354 -0.3664  0.6907
  197SOL     OW  589   0.794   1.940   0.245 -0.1305  0.1851 -0.5339
  197SOL    HW1  590   0.828   1.899   0.337  0.2145 -0.0582  0.1766
  197SOL    HW2  591   0.816   1.880   0.166  3.2713  1.9149 -0.5548
  198SOL     OW  592   0.265   1.215   0.349 -0.0544  0.0347  0.1188
  198SOL    HW1  593   0.174   1.209   0.301 -0.1233 -1.7310 -0.9679
  198SOL    HW2  594   0.293   1.309   0.377  0.1318  0.8566 -1.8556
  199SOL     OW  595   2.211   0.408   2.635  0.0594 -0.2192  0.2702
  199SOL    HW1  596   2.148   0.372   2.705 -0.2774  1.4354 -0.6780
  199SOL    HW2  597   2.309   0.384   2.648 -2.8391 -0.8458  0.9349
  200SOL     OW  598   3.071   2.880   0.809  0.0630 -0.3643 -0.0583
  200SOL    HW1  599   3.083   2.963   0.871 -0.1019  0.2894  0.4993
  200SOL    HW2  600   3.055   2.909   0.711  0.1170  0.5702  1.7180
  201SOL     OW  601   0.935   0.687   0.545  0.6417 -0.0275 -0.1733
  201SOL    HW1  602   0.910   0.777   0.597 -1.0335  0.1759  0.0526
  201SOL    HW2  603   0.861   0.613   0.548 -1.5244 -2.2446 -0.5712
  202SOL     OW  604   0.439   1.255   1.896 -0.0127 -0.5294 -0.0927
  202SOL    HW1  605   0.506   1.186   1.858 -0.2005  2.5233 -1.1726
  202SOL    HW2  606   0.469   1.299   1.984  0.0441 -0.1963 -0.7174
  203SOL     OW  607   0.669   0.168   1.550 -0.1090 -0.1543 -0.0563
  203SOL    HW1  608   0.688   0.116   1.462 -0.0114 -0.3630 -0.2819
  203SOL    HW2  609   0.733   0.149   1.626 -2.0073 -0.9663 -1.3688
  204SOL     OW  610   2.083   1.843   2.954  0.1833 -0.0268  0.3621
  204SOL    HW1  611   2.048   1.744   2.954 -0.0329  2.4278 -0.0647
  204SOL    HW2  612   2.141   1.857   2.868 -3.5155 -3.0055 -0.2249
  205SOL     OW  613   1.819   1.882   3.044 -0.3901 -0.4748  0.4442
  205SOL    HW1  614   1.922   1.867   3.033  0.1175 -2.2841  1.9774
  205SOL    HW2  615   1.781   1.948   2.972 -0.7522 -0.0544 -3.8237
  206SOL     OW  616   2.358   2.711   0.274 -0.3139  0.1324  0.3772
  206SOL    HW1  617   2.350   2.680   0.370  1.6373 -0.2884  1.2127
  206SOL    HW2  618   2.457   2.724   0.251 -0.2084 -0.6253  0.5939
  207SOL     OW  619   0.723   1.742   2.918  0.3125 -0.2463 -0.2890
  207SOL    HW1  620   0.795   1.677   2.880 -0.3210 -0.9844 -3.2739
  207SOL    HW2  621   0.645   1.683   2.953  0.3286  1.1119  0.1377
  208SOL     OW  622   0.995   1.562   1.222  0.0789  0.0073 -0.5639
  208SOL    HW1  623   0.923   1.586   1.151  1.3858  1.5456  1.4102
  208SOL    HW2  624   0.964   1.556   1.320  0.1766 -1.0702  0.2921
  209SOL     OW  625   0.224   0.986   3.058  0.5488  0.0369 -0.0257
  209SOL    HW1  626   0.259   0.922   2.984 -3.0688 -1.4166  2.6340
  209SOL    HW2  627   0.210   0.941   3.155 -3.7351 -0.1437 -1.2890
  210SOL     OW  628   1.693   0.584   1.282  0.5382  0.2711 -0.0563
  210SOL    HW1  629   1.630   0.574   1.204  1.2700  1.3834 -0.5469
  210SOL    HW2  630   1.738   0.677   1.288 -0.3703 -0.6528  0.1744
  211SOL     OW  631   2.168   1.060   1.581 -0.6676  0.6105  0.0028
  211SOL    HW1  632   2.199   1.041   1.680 -2.6315  0.7805 -1.5197
  211SOL    HW2  633   2.216   1.132   1.522 -0.8494  1.8921 -2.2948
  212SOL     OW  634   0.048   1.007   1.488  0.8429 -0.9245 -0.3354
  212SOL    HW1  635   0.131   1.062   1.520 -1.2683 -0.3438  0.6647
  212SOL    HW2  636   0.034   0.925   1.550 -0.7656  1.3132 -0.9960
  213SOL     OW  637   2.808   0.027   0.355 -0.2850 -0.0681 -0.4219
  213SOL    HW1  638   2.890   0.034   0.301 -1.1584 -1.0375 -2.5016
  213SOL    HW2  639   2.735  -0.021   0.301 -1.3140 -1.1219 -1.7293
  214SOL     OW  640   2.177   0.337   2.357  0.9426  0.0797  0.1537
  214SOL    HW1  641   2.189   0.381   2.448 -0.7478 -2.6510  3.1192
  214SOL    HW2  642   2.150   0.238   2.381 -1.3602  1.6272 -2.4273
  215SOL     OW  643   1.685   2.272   2.081  0.1670 -0.1444 -0.1827
  215SOL    HW1  644   1.783   2.310   2.062  0.9502  2.0159  1.4244
  215SOL    HW2  645   1.611   2.347   2.089 -0.3268  2.4087 -0.6176
  216SOL     OW  646   2.292   0.514   0.759  0.4358 -0.3090  0.0637
  216SOL    HW1  647   2.292   0.491   0.655  1.2357  1.6026 -1.8026
  216SOL    HW2  648   2.343   0.448   0.819  0.4447  3.8356 -1.8996
  217SOL     OW  649   0.908   2.742   2.576 -0.0540 -0.2820 -0.3769
  217SOL    HW1  650   0.939   2.653   2.621 -2.0144 -3.1397  2.2691
  217SOL    HW2  651   0.848   2.721   2.500  0.2037  0.3384  3.1517
  218SOL     OW  652   1.874   1.412   0.027 -0.4047  0.3792  0.1107
  218SOL    HW1  653   1.773   1.436   0.014 -0.5305 -0.6647  0.8739
  218SOL    HW2  654   1.897   1.326   0.078  0.3770  1.9205  0.7671
  219SOL     OW  655   2.429   1.260   2.516 -0.3942  0.0546  0.3794
  219SOL    HW1  656   2.460   1.197   2.441  1.1517 -1.3513  1.3779
  219SOL    HW2  657   2.428   1.214   2.610  0.4347  1.2000 -0.3381
  220SOL     OW  658   1.440   1.024   1.337  0.5681  0.1152  0.4726
  220SOL    HW1  659   1.541   1.021   1.368  0.3513 -0.6690 -1.2339
  220SOL    HW2  660   1.435   1.014   1.233  0.4862  0.7143  1.2611
  221SOL     OW  661   1.330   0.959   2.174 -0.8520  0.1832 -0.8003
  221SOL    HW1  662   1.320   0.987   2.075 -0.5876 -2.5375  1.2431
  221SOL    HW2  663   1.405   1.014   2.221  0.6174  1.6521 -1.2264
  222SOL     OW  664   1.153   0.061   1.210 -0.0327  0.2530  0.4414
  222SOL    HW1  665   1.206   0.114   1.282 -0.9359  0.1671  0.5910
  222SOL    HW2  666   1.118   0.127   1.139  3.2213  0.4695 -1.2408
  223SOL     OW  667   2.720   0.979   2.117 -0.3556  0.3353 -0.2978
  223SOL    HW1  668   2.646   1.017   2.178  0.4562 -2.5127  0.7331
  223SOL    HW2  669   2.815   0.990   2.160 -0.2638 -0.7182 -2.0681
  224SOL     OW  670   1.492   0.986   2.834  0.0948  0.2437  0.6065
  224SOL    HW1  671   1.535   0.999   2.740  0.7465 -2.6171  2.0881
  224SOL    HW2  672   1.519   1.064   2.895 -0.0230  2.2089  2.6708
  225SOL     OW  673   2.942   2.679   2.893 -0.2964  0.1618 -0.1125
  225SOL    HW1  674   2.875   2.672   2.815  4.2069  0.4692 -0.8624
  225SOL    HW2  675   3.041   2.690   2.860  1.4264  1.6423 -0.2801
  226SOL     OW  676   2.419   1.594   2.806  0.2386  0.6203  0.3601
  226SOL    HW1  677   2.496   1.586   2.738 -0.7245  0.6751 -1.0811
  226SOL    HW2  678   2.441   1.530   2.884  0.2992 -0.7005 -1.2018
  227SOL     OW  679   0.911   0.228   3.030  0.3145  0.2187 -0.4231
  227SOL    HW1  680   0.917   0.327   3.016  0.9645 -1.4213 -3.4336
  227SOL    HW2  681   0.866   0.186   2.948 -1.3117  0.1969  1.4546
  228SOL     OW  682   2.441   0.654   2.880  0.0765 -0.3193  0.3803
  228SOL    HW1  683   2.453   0.721   2.796 -0.0303  3.4500 -0.2553
  228SOL    HW2  684   2.516   0.584   2.891  0.5667 -1.8300  0.5589
  229SOL     OW  685   0.614   0.623   1.834  0.8974 -0.0399 -0.3273
  229SOL    HW1  686   0.696   0.689   1.822  2.9999  2.1525 -1.0384
  229SOL    HW2  687   0.622   0.550   1.763  2.2909  0.7691  0.9678
  230SOL     OW  688   1.869   1.211   1.911 -0.4079  0.1990 -0.3861
  230SOL    HW1  689   1.937   1.280   1.881  1.1781  0.3240  0.5021
  230SOL    HW2  690   1.812   1.249   1.988  0.4496 -0.8051 -0.1117
  231SOL     OW  691   0.649   1.070   3.085  0.4151 -0.4424  0.4423
  231SOL    HW1  692   0.754   1.094   3.098 -0.2802 -1.2786  1.7468
  231SOL    HW2  693   0.583   1.139   3.120 -1.2107 -2.0135 -1.5652
  232SOL     OW  694   2.413   2.977   2.796 -0.1321 -0.6590  0.0563
  232SOL    HW1  695   2.475   2.897   2.824  1.1808 -1.6200 -2.3213
  232SOL    HW2  696   2.452   3.036   2.723  1.4118  2.3348  1.8724
  233SOL     OW  697   1.810   1.146   1.119 -0.0462 -0.7953  0.5764
  233SOL    HW1  698   1.844   1.236   1.077  0.6503 -0.4213  0.4820
  233SOL    HW2  699   1.888   1.078   1.117 -1.0026 -1.2365  2.3065
  234SOL     OW  700   1.670   2.520   1.829  0.3099  0.5320  0.2271
  234SOL    HW1  701   1.640   2.574   1.909 -0.8709 -0.3243 -2.9426
  234SOL    HW2  702   1.595   2.445   1.817 -1.0020  0.5420  0.5374
  235SOL     OW  703   0.069   3.015   2.844  0.5223 -0.3620 -0.0280
  235SOL    HW1  704   0.029   3.017   2.749  1.9650 -0.5889 -0.5883
  235SOL    HW2  705   0.001   3.030   2.921  0.1956 -0.1864  0.5243
  236SOL     OW  706   2.900   0.715   0.065  0.2347  0.0208 -0.2487
  236SOL    HW1  707   2.968   0.751   0.140  2.4258  2.4521 -0.8489
  236SOL    HW2  708   2.945   0.638   0.007  1.3865  0.1757 -0.1606
  237SOL     OW  709   1.536   1.701   0.899 -0.2822 -0.0507  0.5068
  237SOL    HW1  710   1.622   1.651   0.916  1.8277  1.6477  0.6356
  237SOL    HW2  711   1.522   1.776   0.973  0.8634  0.0920 -0.0685
  238SOL     OW  712   1.909   1.197   0.756  0.3476  0.5260 -0.0441
  238SOL    HW1  713   1.949   1.224   0.853 -1.8275  0.5886 -0.8139
  238SOL    HW2  714   1.810   1.232   0.742 -1.4553  1.9467 -3.2130
  239SOL     OW  715   2.015   0.283   2.801  0.6927  1.0028  0.5412
  239SOL    HW1  716   2.045   0.236   2.889  1.8647  0.1268 -2.3554
  239SOL    HW2  717   1.920   0.319   2.814 -1.5414 -0.9830  0.9375
  240SOL     OW  718   0.944   0.696   0.250 -0.0181 -0.1010  0.2148
  240SOL    HW1  719   1.031   0.658   0.207  0.1937 -0.3479  1.5102
  240SOL    HW2  720   0.947   0.701   0.355  3.7755 -0.0963  1.3987
  241SOL     OW  721   0.588   0.108   0.322 -0.2512  0.5186 -0.3543
  241SOL    HW1  722   0.646   0.182   0.275 -2.7257  0.7998 -2.7751
  241SOL    HW2  723   0.567   0.029   0.255 -1.8545 -1.1123 -1.2673
  242SOL     OW  724   0.589   2.612   1.194  0.2409  0.3540  0.4613
  242SOL    HW1  725   0.593   2.605   1.297  0.3621 -0.2844 -1.1522
  242SOL    HW2  726   0.617   2.707   1.159  0.4234 -3.2597  4.3527
  243SOL     OW  727   1.077   0.628   2.410 -0.3345 -0.3440 -0.3227
  243SOL    HW1  728   0.989   0.639   2.368  1.0389  1.2129 -1.4566
  243SOL    HW2  729   1.071   0.592   2.508 -0.9997 -0.6236 -0.7968
  244SOL     OW  730   2.721   1.948   2.378  0.5704 -0.1143  0.1486
  244SOL    HW1  731   2.753   1.933   2.279  2.0015 -1.1599 -2.1680
  244SOL    HW2  732   2.654   1.876   2.408  1.3628 -2.4026 -0.9650
  245SOL     OW  733   2.088   1.008   2.197  0.0265  0.1531 -0.2301
  245SOL    HW1  734   2.193   0.997   2.200  0.9335 -0.2583 -1.0817
  245SOL    HW2  735   2.054   1.091   2.252 -0.3417  0.6414  0.3841
  246SOL     OW  736   0.279   2.867   1.817 -0.2016  0.5091  0.3399
  246SOL    HW1  737   0.195   2.837   1.759 -1.8582  1.2038  0.6452
  246SOL    HW2  738   0.344   2.920   1.760 -2.2116  0.0126 -3.2034
  247SOL     OW  739   2.243   0.584   3.056  0.2224  0.5168  0.5700
  247SOL    HW1  740   2.326   0.604   2.994 -1.5396  2.4955  3.4536
  247SOL    HW2  741   2.167   0.657   3.040 -0.8659 -0.7379 -0.9841
  248SOL     OW  742   2.169   1.845   1.631 -0.8834  0.3270  0.2862
  248SOL    HW1  743   2.223   1.790   1.698 -3.8879  0.5134 -0.5475
  248SOL    HW2  744   2.064   1.827   1.638 -2.8429  0.7210  0.3038
  249SOL     OW  745   1.891   1.904   1.841  0.2252 -0.4184 -0.3726
  249SOL    HW1  746   1.905   1.839   1.760  1.4414 -1.3345  0.8980
  249SOL    HW2  747   1.983   1.944   1.875  0.8607  0.7184  0.7723
  250SOL     OW  748   0.982   0.678   1.866  0.7255 -0.4357 -0.6913
  250SOL    HW1  749   1.050   0.642   1.939 -0.1423 -0.3709  1.3108
  250SOL    HW2  750   0.988   0.617   1.779  2.9049 -0.2406  2.1354
  251SOL     OW  751   3.036   1.506   2.614 -0.5632 -0.4268 -0.0714
  251SOL    HW1  752   3.030   1.592   2.558 -0.1132 -0.3271  2.3276
  251SOL    HW2  753   2.956   1.445   2.589  1.2247 -1.5551 -1.4027
  252SOL     OW  754   1.544   0.834   1.610 -0.0181  0.0966  0.0793
  252SOL    HW1  755   1.612   0.871   1.543  0.0527 -0.4412  1.0570
  252SOL    HW2  756   1.539   0.889   1.700  2.1268  0.8207 -0.2766
  253SOL     OW  757   0.938   1.493   0.448 -0.1561 -0.3280  0.4654
  253SOL    HW1  758   0.936   1.440   0.361 -1.2607  2.9289  2.6325
  253SOL    HW2  759   0.848   1.537   0.479  2.4390 -0.3864 -0.6221
  254SOL     OW  760   2.025   2.181   1.665 -0.2447  0.0633  0.6066
  254SOL    HW1  761   1.985   2.101   1.610 -0.1996  0.7774 -1.5011
  254SOL    HW2  762   1.952   2.236   1.715  1.3963 -1.3682 -0.2824
  255SOL     OW  763   0.086   1.193   2.918 -0.4141  0.1032  0.5767
  255SOL    HW1  764   0.140   1.277   2.905  3.8897 -0.5844 -1.6231
  255SOL    HW2  765   0.135   1.117   2.973 -0.4664  0.6428  0.1740
  256SOL     OW  766   2.760   1.414   1.747 -0.7857  0.2573 -0.1484
  256SOL    HW1  767   2.665   1.424   1.786  1.7269  1.0604 -0.3521
  256SOL    HW2  768   2.777   1.312   1.722 -2.2489 -3.3961 -0.0100
  257SOL     OW  769   0.816   0.246   1.869 -0.6183  0.0907  0.0534
  257SOL    HW1  770   0.869   0.281   1.794 -1.8574 -2.0496 -0.0193
  257SOL    HW2  771   0.839   0.142   1.879 -1.0844 -2.6153  0.2032
  258SOL     OW  772   2.965   1.167   0.497  0.0442  0.5387  0.3807
  258SOL    HW1  773   2.878   1.194   0.537  3.0360 -1.8425  0.6082
  258SOL    HW2  774   3.044   1.195   0.557  0.6554 -0.5527 -2.9753
  259SOL     OW  775   0.489   2.942   2.993 -0.3296 -0.4246  0.3646
  259SOL    HW1  776   0.421   2.893   3.059  0.7000  0.5422 -0.9367
  259SOL    HW2  777   0.503   2.895   2.898 -0.1217 -0.7184 -1.8930
  260SOL     OW  778   2.738   0.755   2.785 -0.6431  0.4505 -0.0811
  260SOL    HW1  779   2.662   0.795   2.725 -0.3521  0.7253 -1.2915
  260SOL    HW2  780   2.717   0.658   2.818 -1.0219 -1.4483 -1.7861
  261SOL     OW  781   2.662   1.250   1.305  0.3020 -0.2479 -0.2668
  261SOL    HW1  782   2.579   1.224   1.248 -1.1614 -0.1969 -0.5441
  261SOL    HW2  783   2.729   1.173   1.312  0.8578  1.1788  0.1209
  262SOL     OW  784   1.392   2.977   2.071  0.0880 -0.2202 -0.2484
  262SOL    HW1  785   1.437   3.029   1.990 -0.7920 -0.5750  0.9804
  262SOL    HW2  786   1.305   2.931   2.040  0.2741 -1.6423 -0.4967
  263SOL     OW  787   0.806   0.622   2.317 -0.2297  0.0185  0.2279
  263SOL    HW1  788   0.755   0.544   2.279  0.7824  1.9571  2.3317
  263SOL    HW2  789   0.846   0.686   2.242 -0.6330 -0.3135  0.0272
  264SOL     OW  790   2.283   0.797   0.411  0.3621  0.0209  0.0562
  264SOL    HW1  791   2.284   0.710   0.352  0.0274 -1.0614  0.8385
  264SOL    HW2  792   2.371   0.829   0.455 -0.3594  0.2752  0.2868
  265SOL     OW  793   0.880   2.348   2.615 -0.4737 -0.5075  0.1268
  265SOL    HW1  794   0.932   2.387   2.695  0.5776  1.6924  2.4511
  265SOL    HW2  795   0.859   2.249   2.626 -0.2089  1.4930 -1.1247
  266SOL     OW  796   1.281   1.806   3.051  0.4297  0.2282  0.0799
  266SOL    HW1  797   1.286   1.857   3.141 -1.3883 -1.8133 -2.6203
  266SOL    HW2  798   1.376   1.782   3.016 -0.0440 -0.0051  0.6264
  267SOL     OW  799   1.072   3.076   2.328 -0.8067 -0.1522 -0.0792
  267SOL    HW1  800   0.971   3.081   2.304  2.5402 -1.6723  4.0406
  267SOL    HW2  801   1.141   3.113   2.254 -1.1914 -2.1863 -0.1334
  268SOL     OW  802   0.859   1.313   1.086 -0.4447  0.5246  1.0288
  268SOL    HW1  803   0.776   1.347   1.139  1.6725 -0.5154  0.4711
  268SOL    HW2  804   0.901   1.385   1.022  0.1407  0.9192 -0.7767
  269SOL     OW  805   2.344   2.545   1.610 -0.6133 -0.2413 -0.1393
  269SOL    HW1  806   2.427   2.493   1.586 -0.6176  1.5961  0.6834
  269SOL    HW2  807   2.355   2.587   1.702 -2.5083 -0.7446 -1.2028
  270SOL     OW  808   0.137   3.010   1.991 -0.4047  0.7026  0.2660
  270SOL    HW1  809   0.197   2.957   1.919  2.8516  1.2006  0.7522
  270SOL    HW2  810   0.091   2.952   2.063  2.0658 -0.1176  0.0915
  271SOL     OW  811   0.442   1.404   1.096 -0.5069  1.1197 -0.2361
  271SOL    HW1  812   0.438   1.376   0.992 -1.5034 -1.5024 -0.2675
  271SOL    HW2  813   0.362   1.367   1.150 -0.3789  0.1114  1.3519
  272SOL     OW  814   1.874   3.088   1.937  0.0705  0.4650  0.1467
  272SOL    HW1  815   1.822   3.002   1.910 -0.8247  1.5764 -2.5150
  272SOL    HW2  816   1.868   3.158   1.862 -0.6343 -0.0847 -0.9752
  273SOL     OW  817   1.450   1.468   2.862 -0.5766 -0.1651  0.3692
  273SOL    HW1  818   1.349   1.491   2.871 -0.1831  0.5513 -0.3113
  273SOL    HW2  819   1.509   1.472   2.948  0.1984  1.0022  0.8108
  274SOL     OW  820   1.164   0.606   2.058  0.8515  0.2488 -0.1434
  274SOL    HW1  821   1.106   0.527   2.091  2.3409  2.0085  1.7736
  274SOL    HW2  822   1.238   0.630   2.121  0.3115 -0.1803 -1.4023
  275SOL     OW  823   0.662   2.098   1.946 -0.2862  0.0981  0.2439
  275SOL    HW1  824   0.600   2.135   1.873  0.9869 -1.6074  0.1163
  275SOL    HW2  825   0.616   2.089   2.036 -0.1068  3.1483  1.5884
  276SOL     OW  826   2.248   0.955   2.857 -0.3617  0.0670 -0.2544
  276SOL    HW1  827   2.169   0.995   2.809 -0.6011  0.3396  1.4586
  276SOL    HW2  828   2.253   0.853   2.840  0.4858  1.0056 -2.4475
  277SOL     OW  829  -0.000   0.774   0.247  0.0474  0.3200  0.0241
  277SOL    HW1  830   0.096   0.778   0.206  0.7019  0.1315 -1.9123
  277SOL    HW2  831  -0.006   0.697   0.316  0.8871  0.7306  0.5977
  278SOL     OW  832   0.294   0.238   3.052 -0.2266  0.7033  1.0269
  278SOL    HW1  833   0.361   0.172   3.008 -0.4421 -1.6532 -0.5922
  278SOL    HW2  834   0.330   0.337   3.049  0.3890  0.2961  0.1634
  279SOL     OW  835   0.267   3.048   0.892  0.1479 -0.8586 -0.0162
  279SOL    HW1  836   0.308   3.036   0.988 -3.0045 -3.3970  0.4245
  279SOL    HW2  837   0.271   2.959   0.844 -1.5516 -1.3885  1.4814
  280SOL     OW  838   1.571   2.898   2.439 -0.0873 -0.1000  0.2169
  280SOL    HW1  839   1.654   2.952   2.477  1.1097  3.9235  0.9744
  280SOL    HW2  840   1.507   2.968   2.393 -0.8455 -2.8307  0.2850
  281SOL     OW  841   0.560   0.926   2.356 -0.4184 -0.0148  0.1951
  281SOL    HW1  842   0.542   0.862   2.277  0.7258  0.8729  3.8394
  281SOL    HW2  843   0.525   0.891   2.443  0.5645 -1.1278 -2.0815
  282SOL     OW  844   1.785   2.481   0.565  0.0225  0.2185  0.2663
  282SOL    HW1  845   1.742   2.400   0.517  0.4451 -0.3915 -1.3051
  282SOL    HW2  846   1.744   2.570   0.544  0.1216  0.3779 -0.5118
  283SOL     OW  847   1.186   0.943   0.805 -0.1206  0.5315  0.3340
  283SOL    HW1  848   1.189   0.891   0.894  1.8041  2.0243 -0.4432
  283SOL    HW2  849   1.152   1.039   0.816  1.0630  0.1877  0.1359
  284SOL     OW  850   2.241   2.813   2.447  0.2586 -0.0363 -0.2815
  284SOL    HW1  851   2.337   2.832   2.414  0.1091 -1.0267  1.9961
  284SOL    HW2  852   2.228   2.816   2.547  0.3060 -0.2008 -1.0092
  285SOL     OW  853   1.298   3.055   2.616 -0.2034  0.5898 -0.0824
  285SOL    HW1  854   1.326   3.039   2.521 -1.1111 -0.2949  0.0391
  285SOL    HW2  855   1.209   3.111   2.625 -2.0995  0.9174 -0.8619
  286SOL     OW  856   0.269   0.375   0.647 -0.4787 -0.5489  0.2232
  286SOL    HW1  857   0.300   0.303   0.715  0.4147 -0.0440 -2.8574
  286SOL    HW2  858   0.292   0.358   0.542  0.9790 -0.5193 -1.3297
  287SOL     OW  859   0.076   1.280   2.547 -0.0186  0.0145 -0.1519
  287SOL    HW1  860   0.028   1.207   2.600  2.7096  0.0557  0.1534
  287SOL    HW2  861   0.019   1.369   2.559  0.1082  2.6584  0.2889
  288SOL     OW  862   1.517   2.700   1.661 -0.3882 -0.0768 -0.4813
  288SOL    HW1  863   1.561   2.627   1.720  2.1795  1.8587  1.7049
  288SOL    HW2  864   1.556   2.703   1.567 -1.0563  0.2919  1.7773
  289SOL     OW  865   0.646   2.791   0.804  0.2041  0.2292  0.3591
  289SOL    HW1  866   0.715   2.850   0.756 -3.5431  2.1856 -1.0727
  289SOL    HW2  867   0.620   2.824   0.896 -2.1254 -2.7624  2.4025
  290SOL     OW  868   2.849   1.135   1.691 -0.1188 -0.5382 -0.0559
  290SOL    HW1  869   2.777   1.064   1.695  2.4929 -0.3449  2.2043
  290SOL    HW2  870   2.910   1.123   1.777  1.5364 -1.8366 -1.5488
  291SOL     OW  871   1.930   0.005   0.093  0.1941  0.3360  0.3272
  291SOL    HW1  872   1.953   0.053   0.187 -1.0827  0.0911  0.4599
  291SOL    HW2  873   1.997   0.016   0.012 -0.1299 -0.2677  0.2319
  292SOL     OW  874   2.973   1.249   3.101 -0.0769  0.7725  0.5421
  292SOL    HW1  875   2.932   1.344   3.070  0.2104  2.1388 -1.6020
  292SOL    HW2  876   3.056   1.218   3.046 -1.8462  0.5635  0.0552
  293SOL     OW  877   0.559   2.081   0.294 -0.7601  0.1283  0.1566
  293SOL    HW1  878   0.524   2.160   0.351  1.4125 -1.3473 -2.7622
  293SOL    HW2  879   0.662   2.070   0.294 -2.5471  0.0317 -1.0492
  294SOL     OW  880   1.886   2.337   1.813 -0.0068 -0.2765 -0.2467
  294SOL    HW1  881   1.934   2.349   1.904  0.6955 -0.6644  1.6142
  294SOL    HW2  882   1.810   2.407   1.806 -0.7664 -0.9884 -0.1498
  295SOL     OW  883   0.945   1.049   0.447  0.4533 -0.5640 -0.5852
  295SOL    HW1  884   1.050   1.052   0.435 -2.1094  1.5490  0.6142
  295SOL    HW2  885   0.915   1.008   0.538  0.2126  0.2228 -1.2382
  296SOL     OW  886   1.131   2.150   2.755  0.4380 -0.4748  0.4913
  296SOL    HW1  887   1.052   2.211   2.770  3.0716  0.3986 -1.9797
  296SOL    HW2  888   1.161   2.149   2.655  0.3251 -0.8689 -0.2152
  297SOL     OW  889   1.271   0.580   1.179  0.2985  0.2404  0.9263
  297SOL    HW1  890   1.316   0.518   1.244 -0.8150 -0.0512 -0.7789
  297SOL    HW2  891   1.337   0.644   1.136 -0.1701  1.1224  1.5730
  298SOL     OW  892   0.470   1.292   2.922  0.1340 -0.2624 -0.1774
  298SOL    HW1  893   0.444   1.238   3.007 -0.4778  1.8975  2.7573
  298SOL    HW2  894   0.519   1.238   2.851 -1.2803  0.3332  1.9640
  299SOL     OW  895   0.406   0.205   1.275 -0.7489 -0.2112 -0.3511
  299SOL    HW1  896   0.338   0.252   1.217  1.9700  0.8882  1.7781
  299SOL    HW2  897   0.396   0.224   1.376  0.2205  0.1415 -1.2026
  300SOL     OW  898   1.359   1.820   2.574 -0.0788  0.0592 -0.1179
  300SOL    HW1  899   1.347   1.770   2.487 -1.5517  1.2773  0.1194
  300SOL    HW2  900   1.414   1.766   2.645 -1.7074  3.2745 -0.3611
  301SOL     OW  901   0.336   0.292   0.378 -0.7193 -0.2524  0.1784
  301SOL    HW1  902   0.233   0.273   0.375 -2.5874 -1.2185 -0.7757
  301SOL    HW2  903   0.391   0.205   0.383  0.0294 -0.6594  0.5409
  302SOL     OW  904   1.249   2.392   2.296  0.1958 -0.2301 -0.2369
  302SOL    HW1  905   1.150   2.376   2.330 -1.2749 -2.5439  0.1466
  302SOL    HW2  906   1.315   2.321   2.331  1.8966  0.6064 -0.2287
  303SOL     OW  907   0.899   2.447   0.794 -0.4945  0.5581 -0.1127
  303SOL    HW1  908   0.969   2.449   0.719  2.5428 -2.2997  0.8641
  303SOL    HW2  909   0.944   2.466   0.887 -0.0950  1.0754 -0.7067
  304SOL     OW  910   0.137   1.909   0.711 -0.1414  0.5285  0.2923
  304SOL    HW1  911   0.212   1.916   0.643 -3.0842  0.2055  1.5351
  304SOL    HW2  912   0.049   1.953   0.674 -0.9660  2.3374 -1.2683
  305SOL     OW  913   1.664   0.807   0.699 -0.3098 -0.4605  0.0656
  305SOL    HW1  914   1.588   0.829   0.632  0.1712 -1.4005  1.9304
  305SOL    HW2  915   1.703   0.709   0.692  3.3949  0.0689  1.9846
  306SOL     OW  916   0.395   1.863   1.975  0.2467  0.9753  0.3274
  306SOL    HW1  917   0.473   1.800   1.946 -0.7041 -2.0310 -0.6098
  306SOL    HW2  918   0.423   1.918   2.060  2.6596  1.2639 -0.4996
  307SOL     OW  919   3.038   0.890   2.559  0.9659  0.1655  0.1733
  307SOL    HW1  920   3.039   0.978   2.614  1.0230  0.2890  1.8023
  307SOL    HW2  921   3.021   0.806   2.618  0.1504 -0.2832  0.7874
  308SOL     OW  922   1.456   2.701   2.813  0.3905  0.0492 -0.3160
  308SOL    HW1  923   1.444   2.704   2.707  1.2703 -0.6921 -0.1267
  308SOL    HW2  924   1.407   2.618   2.856 -2.2205  0.2484  1.1958
  309SOL     OW  925   1.199   0.171   1.813 -0.5271 -0.1652  0.1185
  309SOL    HW1  926   1.287   0.138   1.772 -0.9154  0.9060 -0.1829
  309SOL    HW2  927   1.124   0.181   1.744  0.3218  0.2635  0.1474
  310SOL     OW  928   1.488   2.500   0.659 -0.3702  0.7342 -0.4553
  310SOL    HW1  929   1.434   2.541   0.737 -0.5450  0.6519  1.4401
  310SOL    HW2  930   1.543   2.570   0.601 -2.3945  0.4011  0.0251
  311SOL     OW  931   1.107   0.960   1.783  0.5672 -0.1719 -0.0713
  311SOL    HW1  932   1.059   0.867   1.789  1.1543 -1.3992 -1.2555
  311SOL    HW2  933   1.155   0.969   1.692 -1.4138  0.1323 -0.6636
  312SOL     OW  934   1.501   0.637   1.023  0.0281  0.1509 -0.0961
  312SOL    HW1  935   1.536   0.734   1.030 -5.0789 -0.1926 -0.4101
  312SOL    HW2  936   1.478   0.615   0.924 -0.0877  1.4279  0.8045
  313SOL     OW  937   1.653   1.272   0.738  0.5597  0.1473 -0.5760
  313SOL    HW1  938   1.572   1.296   0.802 -1.8227 -1.1202 -1.5415
  313SOL    HW2  939   1.630   1.187   0.681  0.0762 -1.3588 -0.4729
  314SOL     OW  940   2.995   3.074   3.062 -0.0185  0.4707  0.3670
  314SOL    HW1  941   3.021   3.074   3.161  0.5280 -0.8207  0.1675
  314SOL    HW2  942   2.893   3.048   3.044 -2.1334 -0.0323  0.0715
  315SOL     OW  943   1.197   0.196   2.803  0.0887 -0.1659  0.0737
  315SOL    HW1  944   1.178   0.158   2.707  1.4867 -2.9604  0.6470
  315SOL    HW2  945   1.152   0.142   2.876  0.6258  0.7621 -1.7363
  316SOL     OW  946   1.783   2.077   0.868 -0.5090 -0.5127 -0.2372
  316SOL    HW1  947   1.749   2.087   0.969 -0.6830 -0.4492  2.6479
  316SOL    HW2  948   1.798   2.164   0.821  2.4523 -1.2531 -1.0807
  317SOL     OW  949   1.170   0.724   2.712  0.1155 -0.2324 -0.0775
  317SOL    HW1  950   1.101   0.772   2.772 -0.0244  1.2929 -1.9879
  317SOL    HW2  951   1.154   0.621   2.715 -2.0207 -0.2831  4.4546
  318SOL     OW  952   1.375   3.060   2.323  0.2850  0.2705 -0.3503
  318SOL    HW1  953   1.352   3.161   2.316 -0.5081 -0.0895  1.6017
  318SOL    HW2  954   1.393   3.015   2.228  0.3784 -2.7472 -0.2049
  319SOL     OW  955   0.626   2.388   3.023 -0.1796  0.0844  0.1033
  319SOL    HW1  956   0.576   2.301   3.056 -0.0277 -1.1608  2.3219
  319SOL    HW2  957   0.689   2.366   2.946 -1.2147 -2.1013 -1.0944
  320SOL     OW  958   1.686   2.266   0.403  0.1854 -0.0881 -0.4604
  320SOL    HW1  959   1.748   2.184   0.391 -0.0482 -2.5923 -1.3161
  320SOL    HW2  960   1.586   2.241   0.424 -3.2663  3.0453 -1.8729
  321SOL     OW  961   1.629   2.697   0.520 -0.3950 -0.1052 -0.4352
  321SOL    HW1  962   1.551   2.714   0.452  0.5070 -0.5057 -0.3069
  321SOL    HW2  963   1.711   2.756   0.512 -2.3421  2.9191  1.8100
  322SOL     OW  964   2.545   1.077   2.316 -0.1463 -0.9243 -0.1472
  322SOL    HW1  965   2.615   1.043   2.390 -2.1819  1.5457  2.0473
  322SOL    HW2  966   2.461   1.022   2.307 -1.3343  0.0555  1.2001
  323SOL     OW  967   1.140   2.698   0.760 -0.5507  0.2657 -0.1933
  323SOL    HW1  968   1.103   2.647   0.672  3.2204 -0.2612  0.2554
  323SOL    HW2  969   1.118   2.800   0.770  0.4907  1.5573  0.5628
  324SOL     OW  970   0.063   2.564   2.433  0.1050 -0.2295 -0.2583
  324SOL    HW1  971  -0.010   2.505   2.481 -2.4460  1.8186 -0.8662
  324SOL    HW2  972   0.094   2.638   2.497  0.8517 -2.0103  0.0815
  325SOL     OW  973   1.311   3.038   0.458 -0.1173 -0.1682 -0.3471
  325SOL    HW1  974   1.303   3.084   0.366 -1.9464 -2.2005 -2.3670
  325SOL    HW2  975   1.328   3.105   0.539 -2.1429 -0.2218  1.3355
  326SOL     OW  976   2.440   0.902   0.034 -0.2779  0.4340  0.4146
  326SOL    HW1  977   2.372   0.862  -0.035  0.9426 -0.2430 -1.7995
  326SOL    HW2  978   2.504   0.830   0.075 -0.9823 -1.3550 -1.2847
  327SOL     OW  979   2.839   0.236   0.545 -0.3877 -0.8009  0.8152
  327SOL    HW1  980   2.841   0.175   0.459 -1.3669 -0.9017 -0.1859
  327SOL    HW2  981   2.857   0.179   0.629 -0.2877 -2.9867 -0.3176
  328SOL     OW  982   2.637   0.599   0.370  0.3632  0.3919  0.0185
  328SOL    HW1  983   2.672   0.680   0.425 -0.4194  1.9466  0.1706
  328SOL    HW2  984   2.612   0.517   0.428  2.2055  0.7867  1.5938
  329SOL     OW  985   2.936   3.039   2.242  0.6743 -0.6532  0.1621
  329SOL    HW1  986   3.026   2.986   2.254  0.8782 -0.3751 -1.8194
  329SOL    HW2  987   2.953   3.136   2.210 -1.0670 -0.1837 -1.2053
  330SOL     OW  988   0.547   0.288   1.918  0.2053  0.3180  0.6649
  330SOL    HW1  989   0.647   0.297   1.901  1.9190 -1.2207  1.2468
  330SOL    HW2  990   0.531   0.221   1.992 -0.1740  0.8857  0.2440
  331SOL     OW  991   0.033   1.921   1.108  0.0643  0.2220 -0.1567
  331SOL    HW1  992   0.012   2.003   1.050  2.8500 -0.8737 -3.2123
  331SOL    HW2  993  -0.047   1.889   1.165  0.6973 -0.1506  1.9193
  332SOL     OW  994   0.390   1.172   0.095  0.7737 -0.4335 -0.3439
  332SOL    HW1  995   0.333   1.107   0.041  0.7581  1.5776  0.7798
  332SOL    HW2  996   0.354   1.188   0.194 -0.2505  0.7062  0.3638
  333SOL     OW  997   2.915   0.932   0.381  0.3691 -0.1498 -0.0494
  333SOL    HW1  998   2.952   1.009   0.437 -0.5474 -0.2963  0.4660
  333SOL    HW2  999   2.980   0.873   0.334 -2.5258  3.3442  2.7868
  334SOL     OW 1000   1.725   1.149   1.703 -0.0997  0.3625  0.0659
  334SOL    HW1 1001   1.787   1.167   1.621 -0.4176  0.2866  1.3035
  334SOL    HW2 1002   1.776   1.169   1.793  0.6348  0.0305 -3.3669
  335SOL     OW 1003   1.930   2.776   2.570 -0.1382 -0.5835  0.0931
  335SOL    HW1 1004   1.847   2.815   2.619  1.5172 -1.0651 -0.0211
  335SOL    HW2 1005   2.017   2.801   2.621  1.0699 -0.5295 -0.7942
  336SOL     OW 1006   0.248   0.075   2.758  0.4784  0.4911 -0.6196
  336SOL    HW1 1007   0.329   0.114   2.809 -1.0565 -0.7520  0.3095
  336SOL    HW2 1008   0.198   0.011   2.818  3.0138  0.8912 -2.4322
  337SOL     OW 1009   0.821   2.852   3.035 -0.4392 -0.0927  0.0963
  337SOL    HW1 1010   0.852   2.760   3.081 -1.0671 -0.7823  0.0130
  337SOL    HW2 1011   0.817   2.937   3.088 -5.0446  1.3265  1.9394
  338SOL     OW 1012   0.014   0.974   0.707  0.0876  0.1293  0.0399
  338SOL    HW1 1013  -0.091   0.956   0.713 -0.0765 -2.3731 -0.2943
  338SOL    HW2 1014   0.032   1.078   0.716 -0.4547 -0.3722  1.4346
  339SOL     OW 1015   1.771   1.330   2.159 -0.0015  0.0958 -0.3597
  339SOL    HW1 1016   1.682   1.348   2.111 -1.6343  1.5978  1.0638
  339SOL    HW2 1017   1.822   1.414   2.185  1.4229  1.2515 -1.9367
  340SOL     OW 1018   2.266   0.794   1.102 -0.3628 -0.2651  0.4821
  340SOL    HW1 1019   2.170   0.831   1.123  1.6791 -4.6886 -1.6910
  340SOL    HW2 1020   2.265   0.693   1.076  0.3477 -1.9081  1.2512
  341SOL     OW 1021   1.892   2.050   0.353 -0.3182 -0.1558  0.0448
  341SOL    HW1 1022   1.904   2.118   0.276 -0.9013 -0.1998 -0.8470
  341SOL    HW2 1023   1.984   2.016   0.387  1.2609 -0.2101  0.5651
  342SOL     OW 1024   2.172   2.160   2.771 -0.4121  0.0566  0.0001
  342SOL    HW1 1025   2.226   2.089   2.830  2.2816 -0.3980  2.3909
  342SOL    HW2 1026   2.075   2.129   2.742 -1.2935  0.0791  0.8443
  343SOL     OW 1027   0.360   0.861   2.846 -0.4272  0.1555  0.3507
  343SOL    HW1 1028   0.353   0.934   2.769 -2.0479  2.0090  0.8647
  343SOL    HW2 1029   0.461   0.828   2.849 -0.0919  2.7151  0.1132
  344SOL     OW 1030   1.958   1.436   0.353  0.0708 -0.3768 -0.3543
  344SOL    HW1 1031   1.976   1.350   0.302 -1.6019  0.3895  0.5790
  344SOL    HW2 1032   1.863   1.435   0.400 -1.4873 -0.1114 -2.9927
  345SOL     OW 1033   1.389   2.198   2.845  0.2930 -0.1547 -0.3432
  345SOL    HW1 1034   1.296   2.194   2.808  0.3208  1.9252  1.7100
  345SOL    HW2 1035   1.447   2.122   2.808 -0.0918  2.2151  0.8022
  346SOL     OW 1036   2.312   0.815   1.358  0.3608 -0.7479  0.3089
  346SOL    HW1 1037   2.216   0.832   1.391 -1.6550 -1.0049 -0.9110
  346SOL    HW2 1038   2.313   0.789   1.256  0.2541  1.4753 -2.6163
  347SOL     OW 1039   0.713   2.801   1.703 -0.3885  0.0168  0.2634
  347SOL    HW1 1040   0.786   2.862   1.666 -2.6001 -0.0359  0.1724
  347SOL    HW2 1041   0.624   2.815   1.658 -1.5553  0.7011 -0.3369
  348SOL     OW 1042   0.208   0.630   2.842 -0.3599 -0.5155 -0.3395
  348SOL    HW1 1043   0.109   0.660   2.832 -0.9553  0.8113  2.8966
  348SOL    HW2 1044   0.276   0.704   2.822  0.4417 -2.4946  0.0789
  349SOL     OW 1045   1.768   0.429   2.827 -0.3584  0.1644 -0.0723
  349SOL    HW1 1046   1.761   0.515   2.767 -0.0852  0.8621  2.1875
  349SOL    HW2 1047   1.760   0.449   2.932  0.5008  0.1223  0.2650
  350SOL     OW 1048   1.705   0.380   0.391  0.9517  0.3278  0.1618
  350SOL    HW1 1049   1.792   0.352   0.440  0.8759 -4.0626 -2.5258
  350SOL    HW2 1050   1.686   0.479   0.370 -2.1505  1.4101 -0.6165
  351SOL     OW 1051   0.843   0.808   2.090  0.0542 -0.1713 -0.3282
  351SOL    HW1 1052   0.885   0.902   2.075 -0.3929 -1.4096  1.6207
  351SOL    HW2 1053   0.862   0.744   2.016 -2.1764 -0.2480 -0.7999
  352SOL     OW 1054   2.062   1.360   0.598 -0.0108  0.2456  0.1623
  352SOL    HW1 1055   2.023   1.398   0.511  0.1122 -0.8882 -1.3817
  352SOL    HW2 1056   1.988   1.330   0.662  2.2649 -1.5180 -0.0426
  353SOL     OW 1057   2.182   2.701   1.131 -0.4353 -0.4445  0.3788
  353SOL    HW1 1058   2.249   2.663   1.203  1.3291  1.0663 -1.9759
  353SOL    HW2 1059   2.105   2.759   1.170  1.0284  0.7961 -2.4627
  354SOL     OW 1060   0.242   1.435   2.902  0.4351 -0.1376 -0.2374
  354SOL    HW1 1061   0.216   1.499   2.824 -0.9312  0.7208  1.6520
  354SOL    HW2 1062   0.337   1.391   2.895  0.3866 -1.7212  0.7346
  355SOL     OW 1063   0.728   1.617   0.584 -0.4596 -0.1884  0.0758
  355SOL    HW1 1064   0.767   1.567   0.662  0.3337  0.3525 -0.5918
  355SOL    HW2 1065   0.668   1.561   0.521  0.1041  2.1822 -0.5594
  356SOL     OW 1066   0.989   0.334   2.099  0.1845  0.1416 -0.3606
  356SOL    HW1 1067   1.044   0.249   2.090 -1.2610 -0.5094 -1.3277
  356SOL    HW2 1068   0.902   0.324   2.048  1.5331  0.6178  1.0541
  357SOL     OW 1069   0.996   1.430   0.152  0.5475  0.6201 -0.4395
  357SOL    HW1 1070   1.022   1.363   0.079  1.5139  0.2711 -0.2704
  357SOL    HW2 1071   1.068   1.496   0.182 -0.3412  0.3503  0.6113
  358SOL     OW 1072   1.676   1.464   0.459 -0.1140  0.1016 -0.5277
  358SOL    HW1 1073   1.617   1.436   0.537  0.9052 -1.9749 -0.5052
  358SOL    HW2 1074   1.648   1.415   0.369  0.5766 -1.0260 -2.5988
  359SOL     OW 1075   1.598   2.562   0.208  0.2378 -0.0901 -0.2028
  359SOL    HW1 1076   1.617   2.464   0.181 -0.1790  0.0617 -0.4954
  359SOL    HW2 1077   1.496   2.583   0.210 -0.7809 -1.2722  2.0474
  360SOL     OW 1078   0.713   0.511   0.585 -0.4189  0.3112 -0.6379
  360SOL    HW1 1079   0.625   0.503   0.531  1.4403 -0.2038 -2.4318
  360SOL    HW2 1080   0.748   0.416   0.593  1.0086 -0.8691  1.2807
  361SOL     OW 1081   1.369   1.313   0.617  0.5372 -0.2701  0.1285
  361SOL    HW1 1082   1.412   1.349   0.707  0.9771 -0.5833 -1.2765
  361SOL    HW2 1083   1.270   1.346   0.600 -0.4844  0.7989 -0.8388
  362SOL     OW 1084   1.378   1.815   0.702  0.5874  0.0416  0.5848
  362SOL    HW1 1085   1.437   1.761   0.769  0.3582  0.0727  0.4420
  362SOL    HW2 1086   1.443   1.858   0.635 -1.5118 -1.7560 -1.5003
  363SOL     OW 1087   1.270   1.333   1.944 -0.2985 -0.3331 -0.7046
  363SOL    HW1 1088   1.367   1.346   1.974 -2.2684 -2.7062  1.2969
  363SOL    HW2 1089   1.206   1.395   1.995 -0.0614  1.1898 -2.3823
  364SOL     OW 1090   0.557   2.380   1.954  0.0776  0.2368  0.0938
  364SOL    HW1 1091   0.457   2.392   1.985  0.2589  0.9642 -0.8521
  364SOL    HW2 1092   0.605   2.469   1.928  0.4778 -2.2631 -0.9404
  365SOL     OW 1093   0.940   1.953   1.442  0.6162 -0.6982 -0.0528
  365SOL    HW1 1094   0.847   1.976   1.483 -0.6951  0.0033 -2.0843
  365SOL    HW2 1095   0.945   1.985   1.342 -0.9841 -0.0732 -2.2457
  366SOL     OW 1096   2.742   1.894   0.252 -0.0446 -0.9909  0.4156
  366SOL    HW1 1097   2.676   1.826   0.213 -1.7365 -2.0110  0.1586
  366SOL    HW2 1098   2.832   1.855   0.272  0.9558  0.7643 -3.2464
  367SOL     OW 1099   0.959   1.100   3.031  0.1284 -0.1360  0.1409
  367SOL    HW1 1100   0.960   1.022   3.099  2.3014 -1.2491 -0.1665
  367SOL    HW2 1101   1.034   1.169   3.041 -0.9761 -1.9346 -1.5153
  368SOL     OW 1102   1.443   0.526   0.494 -0.3682 -0.4634 -0.2594
  368SOL    HW1 1103   1.350   0.566   0.490  3.5352 -0.3677  1.4686
  368SOL    HW2 1104   1.512   0.566   0.431 -1.3522  0.5360 -0.1617
  369SOL     OW 1105   0.375   1.655   0.145 -0.6078  0.4739  0.2858
  369SOL    HW1 1106   0.424   1.714   0.211 -2.1580  3.0649 -0.0433
  369SOL    HW2 1107   0.316   1.582   0.193  2.2111 -0.1556  0.4494
  370SOL     OW 1108   0.423   2.150   1.034  0.1495 -0.6069 -0.7111
  370SOL    HW1 1109   0.453   2.252   1.039 -1.5809 -1.2454 -1.2382
  370SOL    HW2 1110   0.327   2.135   0.997  0.6305 -1.3651  0.0211
  371SOL     OW 1111   2.911   2.164   2.706  0.1622 -0.2129 -0.3647
  371SOL    HW1 1112   2.992   2.100   2.721  1.2405 -1.2090 -1.0306
  371SOL    HW2 1113   2.907   2.239   2.777 -0.5192  0.0340  2.8970
  372SOL     OW 1114   0.969   2.051   1.168 -0.3742  0.0328  0.5033
  372SOL    HW1 1115   0.929   2.071   1.073 -0.2285 -0.4746 -1.2754
  372SOL    HW2 1116   1.042   2.120   1.190 -1.1955  0.2427 -0.7567
  373SOL     OW 1117   1.936   1.908   1.043 -0.3491  0.2092 -0.3248
  373SOL    HW1 1118   2.038   1.926   1.061 -0.6384 -3.2446  1.6746
  373SOL    HW2 1119   1.897   1.978   0.982 -0.0448 -1.0505 -0.2632
  374SOL     OW 1120   1.920   0.372   0.547 -0.0449 -1.1010  0.1808
  374SOL    HW1 1121   1.895   0.319   0.632  2.3597  0.8645 -1.2197
  374SOL    HW2 1122   2.022   0.384   0.529  2.0294 -1.3835  0.4504
  375SOL     OW 1123   2.439   2.189   1.136  0.3553 -0.1982 -0.1275
  375SOL    HW1 1124   2.468   2.181   1.033  0.0402  0.0793 -1.2749
  375SOL    HW2 1125   2.505   2.137   1.199  1.3224  0.0833 -1.4122
  376SOL     OW 1126   3.072   0.630   1.437 -0.5071 -0.0091  0.0346
  376SOL    HW1 1127   3.117   0.667   1.525  1.1437  0.5706 -1.2863
  376SOL    HW2 1128   3.001   0.563   1.469 -0.1535 -1.2356 -1.4086
  377SOL     OW 1129   2.249   2.931   0.175  0.4708  0.1356 -0.6494
  377SOL    HW1 1130   2.180   2.970   0.245  2.0222  3.5918  0.6538
  377SOL    HW2 1131   2.306   2.849   0.207 -0.4171 -0.4763 -0.6877
  378SOL     OW 1132   1.900   1.912   2.523  0.2721  0.0552  0.4776
  378SOL    HW1 1133   1.995   1.898   2.491 -0.2257  1.9567 -1.2430
  378SOL    HW2 1134   1.844   1.827   2.511 -0.6403  1.3997 -2.2322
  379SOL     OW 1135   0.766   0.152   2.825  0.3402  0.1175 -0.5583
  379SOL    HW1 1136   0.754   0.053   2.787  2.7602 -1.7240  3.1375
  379SOL    HW2 1137   0.739   0.227   2.760 -1.1012  2.6765  0.8292
  380SOL     OW 1138   1.542   1.118   0.545  0.3927 -0.5243  0.4108
  380SOL    HW1 1139   1.477   1.204   0.551 -1.0784  0.0584  2.4621
  380SOL    HW2 1140   1.493   1.031   0.524 -0.2082  3.1371 -0.8267
  381SOL     OW 1141   1.262   1.310   1.480  0.0201 -0.1938 -0.7222
  381SOL    HW1 1142   1.295   1.219   1.448  0.4335  0.9604 -1.1524
  381SOL    HW2 1143   1.323   1.341   1.562  1.7741 -0.6325  0.5552
  382SOL     OW 1144   1.811   0.840   0.265 -0.3581  0.2887  0.5599
  382SOL    HW1 1145   1.814   0.802   0.167  0.3416 -0.6554  1.5728
  382SOL    HW2 1146   1.904   0.819   0.313  0.5309  0.7560 -0.9872
  383SOL     OW 1147   2.519   1.000   1.472 -0.2780  0.5143  0.3817
  383SOL    HW1 1148   2.431   0.963   1.434  0.8095  3.9507  2.6086
  383SOL    HW2 1149   2.596   1.013   1.399  1.3016 -0.9798  0.0768
  384SOL     OW 1150   0.947   2.311   0.226  0.5985  0.1579 -0.6280
  384SOL    HW1 1151   0.865   2.370   0.213 -1.0039 -2.9006 -1.6634
  384SOL    HW2 1152   0.953   2.272   0.321 -1.4046  0.2410  1.5175
  385SOL     OW 1153   2.939   2.031   1.664 -0.2340 -0.2947 -0.5315
  385SOL    HW1 1154   3.018   2.096   1.698  0.3822 -1.6646  1.8206
  385SOL    HW2 1155   2.969   1.934   1.676 -1.0026  1.5857 -3.1139
  386SOL     OW 1156   0.474   1.072   0.471  0.3078 -0.0733  0.3460
  386SOL    HW1 1157   0.468   0.972   0.468 -1.6039  4.4235  0.1849
  386SOL    HW2 1158   0.400   1.115   0.412 -2.7120 -3.1093  0.1585
  387SOL     OW 1159   0.965   0.317   1.641 -0.0353 -0.7395 -0.3484
  387SOL    HW1 1160   1.005   0.408   1.623 -2.0662 -0.9675  0.0745
  387SOL    HW2 1161   0.957   0.263   1.552 -3.4375 -1.0236 -0.6360
  388SOL     OW 1162   1.198   2.710   1.746  0.2137  0.1514 -0.1534
  388SOL    HW1 1163   1.195   2.755   1.652  1.3362  0.1491 -1.4810
  388SOL    HW2 1164   1.282   2.656   1.765 -0.1322  0.5871  0.4068
  389SOL     OW 1165   0.149   2.910   1.316  0.4861  0.4492 -0.3518
  389SOL    HW1 1166   0.047   2.912   1.308  0.0218 -0.9757 -0.2383
  389SOL    HW2 1167   0.184   2.814   1.318  0.8675 -0.6181  2.4769
  390SOL     OW 1168   1.020   0.968   1.376  0.1617 -0.4917 -0.3304
  390SOL    HW1 1169   1.097   0.970   1.445 -0.0020 -0.1357  1.1837
  390SOL    HW2 1170   0.982   1.064   1.363 -2.1569  1.3913  1.8430
  391SOL     OW 1171   2.171   1.127   1.120 -0.1678  0.9851 -0.4311
  391SOL    HW1 1172   2.097   1.057   1.137  0.1868  1.1595 -0.9218
  391SOL    HW2 1173   2.226   1.096   1.041 -2.8044  1.2434 -2.3267
  392SOL     OW 1174   0.881   2.624   0.074 -0.0076 -0.3700 -0.1819
  392SOL    HW1 1175   0.975   2.583   0.055  2.0373 -1.5475  0.2009
  392SOL    HW2 1176   0.812   2.559   0.116  1.7009  1.0599  0.4363
  393SOL     OW 1177   0.290   0.664   1.965  0.2584 -0.5658 -0.6982
  393SOL    HW1 1178   0.278   0.562   1.965  1.0278  1.4308  1.3132
  393SOL    HW2 1179   0.336   0.704   1.882  0.5782 -0.3322 -2.1165
  394SOL     OW 1180   3.073   1.944   2.692  0.2963 -0.4069  0.3610
  394SOL    HW1 1181   3.159   1.918   2.749  2.8350 -1.6632  0.1242
  394SOL    HW2 1182   3.057   1.882   2.614  1.8208  0.3153  0.4101
  395SOL     OW 1183   1.618   1.975   0.641  0.0768  0.3146  0.4634
  395SOL    HW1 1184   1.666   1.903   0.586  0.4857 -0.2883  1.2321
  395SOL    HW2 1185   1.669   1.989   0.731  0.4259  1.4328 -1.3993
  396SOL     OW 1186   2.909   1.874   1.276 -0.2910 -0.2824  0.0982
  396SOL    HW1 1187   2.907   1.773   1.276  0.6724  1.1317  1.8095
  396SOL    HW2 1188   2.847   1.920   1.347  1.2894 -0.9433  1.9629
  397SOL     OW 1189   1.038   2.206   0.510 -0.0415 -0.1132  0.3301
  397SOL    HW1 1190   0.936   2.201   0.536 -0.6225  1.3422 -0.0361
  397SOL    HW2 1191   1.087   2.294   0.522  0.1833 -1.1538 -0.1600
  398SOL     OW 1192   2.148   3.071   1.131 -0.0898 -0.4261  0.2991
  398SOL    HW1 1193   2.074   2.995   1.133  0.8770 -2.3678  1.3978
  398SOL    HW2 1194   2.125   3.162   1.088 -0.6604 -1.3396 -0.1510
  399SOL     OW 1195   3.054   2.446   2.657 -0.1243 -0.2527  0.0796
  399SOL    HW1 1196   2.971   2.386   2.654  1.1329  2.0079  0.6536
  399SOL    HW2 1197   3.114   2.435   2.743  2.8837 -0.8220  1.3442
  400SOL     OW 1198   0.668   1.681   1.365 -0.5636  0.5216 -0.0977
  400SOL    HW1 1199   0.642   1.722   1.458 -3.7786  1.6269 -2.1752
  400SOL    HW2 1200   0.674   1.756   1.294  1.8397  1.3263 -0.6171
  401SOL     OW 1201   1.854   0.275   1.138  0.3402  0.1380 -0.0838
  401SOL    HW1 1202   1.873   0.288   1.239  4.7914  1.5766  0.1529
  401SOL    HW2 1203   1.754   0.294   1.115  1.6355  0.0018 -0.9718
  402SOL     OW 1204   1.350   0.264   3.089  0.3928  0.0546  0.1992
  402SOL    HW1 1205   1.418   0.231   3.016  0.0370 -1.1192  0.5998
  402SOL    HW2 1206   1.290   0.339   3.049  0.6548 -1.0102  1.0027
  403SOL     OW 1207   2.224   1.866   0.842  0.3612  0.5002 -0.2926
  403SOL    HW1 1208   2.325   1.880   0.809 -1.2119  2.2845  1.6768
  403SOL    HW2 1209   2.205   1.912   0.937  1.2694  3.7519 -0.8161
  404SOL     OW 1210   0.248   2.482   2.756  0.3922  0.2382 -0.0466
  404SOL    HW1 1211   0.338   2.455   2.715 -1.3346  0.5598  0.0157
  404SOL    HW2 1212   0.250   2.582   2.784  0.4350 -0.6276  2.4472
  405SOL     OW 1213   0.124   2.380   0.744  0.8463  0.1156 -0.1316
  405SOL    HW1 1214   0.124   2.317   0.662  3.3759  2.2356  0.9051
  405SOL    HW2 1215   0.211   2.437   0.738 -1.7072 -2.6001 -2.3736
  406SOL     OW 1216   0.045   1.541   3.096 -0.2158  0.2468 -0.4294
  406SOL    HW1 1217   0.107   1.477   3.046 -1.0526 -2.2529  2.2744
  406SOL    HW2 1218   0.053   1.524   3.199  2.0897 -0.0789 -0.4675
  407SOL     OW 1219   1.589   0.886   0.972 -0.1597 -0.2851 -0.1590
  407SOL    HW1 1220   1.599   0.876   0.872 -3.0503  0.0865 -0.1376
  407SOL    HW2 1221   1.512   0.950   1.006  0.0756  2.0742  0.0340
  408SOL     OW 1222   1.537   2.384   0.963  0.2461 -0.6956  0.0529
  408SOL    HW1 1223   1.617   2.366   0.906  0.5383  0.9755  0.3049
  408SOL    HW2 1224   1.482   2.466   0.930 -0.4763 -0.3193  0.5667
  409SOL     OW 1225   0.618   0.829   0.755 -0.0334 -0.3811 -0.3246
  409SOL    HW1 1226   0.557   0.811   0.677  1.1223 -0.3219  2.0987
  409SOL    HW2 1227   0.664   0.739   0.781 -1.6562 -0.7270  0.3381
  410SOL     OW 1228   1.251   2.003   1.382 -0.1448 -0.1986 -0.0017
  410SOL    HW1 1229   1.335   1.951   1.414 -1.5878  1.3850 -2.0111
  410SOL    HW2 1230   1.172   1.940   1.376 -1.2995  0.4722  0.7915
  411SOL     OW 1231   2.527   1.848   3.014 -0.1629  0.2600 -0.0191
  411SOL    HW1 1232   2.584   1.932   3.031 -3.3387  0.3952 -0.7171
  411SOL    HW2 1233   2.432   1.868   2.978  0.5671  0.3221 -3.1515
  412SOL     OW 1234   1.472   2.470   2.154  0.2141 -0.0077  0.3318
  412SOL    HW1 1235   1.539   2.474   2.234 -0.9485 -1.5734  0.0522
  412SOL    HW2 1236   1.381   2.437   2.189 -0.0809  2.5796 -0.5806
  413SOL     OW 1237   0.001   0.235   3.002  0.4670  0.5213  0.4775
  413SOL    HW1 1238  -0.055   0.170   3.063 -0.3913 -0.4775  2.1435
  413SOL    HW2 1239   0.103   0.235   3.023  2.0026  3.4029  2.4793
  414SOL     OW 1240   1.778   1.498   1.162  0.5447  0.5283 -0.1814
  414SOL    HW1 1241   1.758   1.593   1.194 -0.8688 -0.9828  2.0491
  414SOL    HW2 1242   1.754   1.477   1.061 -2.2598  0.8135 -0.0459
  415SOL     OW 1243   0.334   2.161   0.675  0.4683 -0.6109 -0.6818
  415SOL    HW1 1244   0.317   2.168   0.776 -0.1548 -1.4250 -0.9276
  415SOL    HW2 1245   0.243   2.170   0.629  1.4796 -2.9818  5.1189
  416SOL     OW 1246   0.376   1.107   1.059 -0.2248 -0.2249 -0.2451
  416SOL    HW1 1247   0.323   1.018   1.041 -1.4089  0.7951  1.2415
  416SOL    HW2 1248   0.480   1.092   1.060  0.0498  0.2355  2.7411
  417SOL     OW 1249   2.352   2.422   2.109  0.4631 -0.5919 -0.2007
  417SOL    HW1 1250   2.369   2.321   2.084 -0.8314 -2.3361  1.2192
  417SOL    HW2 1251   2.316   2.430   2.210 -0.8532 -1.7778  2.1149
  418SOL     OW 1252   1.022   0.494   1.342  0.1038  0.3602 -0.2005
  418SOL    HW1 1253   0.937   0.449   1.300  1.0428 -0.5919  2.5989
  418SOL    HW2 1254   1.080   0.550   1.274  1.7141  2.8859  1.3778
  419SOL     OW 1255   0.925   0.547   2.975 -0.8424 -0.1384 -0.0809
  419SOL    HW1 1256   0.830   0.566   2.935 -2.1394 -0.4718 -0.4452
  419SOL    HW2 1257   0.970   0.637   2.982 -0.1410 -0.5021  1.1196
  420SOL     OW 1258   0.121   2.206   0.502 -0.1798 -0.2807  0.0302
  420SOL    HW1 1259   0.163   2.239   0.409  0.2407 -1.1346 -0.0927
  420SOL    HW2 1260   0.072   2.111   0.487  1.0147 -0.9517 -0.4535
  421SOL     OW 1261   0.326   2.988   0.543 -0.4334 -0.0296 -0.0920
  421SOL    HW1 1262   0.313   2.920   0.620 -0.9595 -0.8894 -1.7293
  421SOL    HW2 1263   0.409   3.047   0.562 -1.7777 -0.8431  0.6472
  422SOL     OW 1264   1.044   2.578   0.998  0.5717 -0.5117 -0.8569
  422SOL    HW1 1265   1.075   2.656   0.931  0.3513 -3.5959 -3.2869
  422SOL    HW2 1266   1.110   2.563   1.073 -2.2770 -0.7065  1.7305
  423SOL     OW 1267   0.145   0.733   1.251  0.3164  0.0077  0.2780
  423SOL    HW1 1268   0.088   0.664   1.308 -0.0133  0.5813 -0.0883
  423SOL    HW2 1269   0.085   0.811   1.222 -1.0611 -1.3644  1.4470
  424SOL     OW 1270   1.173   2.221   2.047 -0.2349 -0.1554  0.1810
  424SOL    HW1 1271   1.160   2.324   2.061 -0.1074  1.1605  0.3281
  424SOL    HW2 1272   1.117   2.156   2.109 -0.7401 -1.6255 -0.1211
  425SOL     OW 1273   1.991   1.303   0.982 -0.3776  0.0483  0.1757
  425SOL    HW1 1274   2.076   1.261   1.028  1.3458 -1.2119  1.7441
  425SOL    HW2 1275   2.012   1.404   0.975  0.8645  0.7120  2.4283
  426SOL     OW 1276   1.437   1.605   1.198  0.0533 -0.1331  0.1318
  426SOL    HW1 1277   1.449   1.697   1.157  3.3198  0.5830 -3.1014
  426SOL    HW2 1278   1.407   1.596   1.298  0.5434 -0.2056 -0.9331
  427SOL     OW 1279   1.946   2.374   2.068  0.2463  1.1488  0.4549
  427SOL    HW1 1280   2.014   2.313   2.119  3.1429  0.9453  2.1444
  427SOL    HW2 1281   1.952   2.472   2.099 -0.3180 -1.0971  0.6322
  428SOL     OW 1282   0.878   0.043   0.112  0.1217  0.2358  0.0405
  428SOL    HW1 1283   0.908   0.104   0.035  1.3604 -2.6355  0.9644
  428SOL    HW2 1284   0.952  -0.023   0.139  1.8329 -0.1563 -1.7290
  429SOL     OW 1285   1.307   0.170   0.249  0.0703  0.1209 -0.1935
  429SOL    HW1 1286   1.405   0.154   0.274 -2.3026  0.0140 -0.6263
  429SOL    HW2 1287   1.304   0.201   0.150 -0.4355 -0.7214 -1.1280
  430SOL     OW 1288   2.905   1.423   0.304  0.1228 -0.0673 -0.6023
  430SOL    HW1 1289   2.877   1.473   0.220  1.7275 -2.3809 -3.4258
  430SOL    HW2 1290   2.859   1.476   0.384 -1.1028  1.4914  1.3554
  431SOL     OW 1291   2.058   1.580   0.912 -0.0766 -0.1001 -0.2207
  431SOL    HW1 1292   2.128   1.653   0.938  1.9902 -0.3001 -1.4294
  431SOL    HW2 1293   1.963   1.619   0.912  0.8044  2.1267 -1.8411
  432SOL     OW 1294   2.916   2.156   1.220 -0.0523  0.1853 -0.4438
  432SOL    HW1 1295   2.924   2.055   1.225 -0.3146  0.1368  1.6277
  432SOL    HW2 1296   2.944   2.209   1.305 -1.3476  2.6725 -2.7348
  433SOL     OW 1297   1.858   0.206   0.819 -0.2089  0.4926 -0.1725
  433SOL    HW1 1298   1.814   0.273   0.880 -0.5067  2.3990 -1.2796
  433SOL    HW2 1299   1.900   0.130   0.881  1.8804  1.7771 -0.9533
  434SOL     OW 1300   1.548   0.315   0.659 -0.0029 -0.1763  0.3268
  434SOL    HW1 1301   1.537   0.366   0.571 -1.2851 -4.3273  0.4551
  434SOL    HW2 1302   1.584   0.378   0.736  0.8958 -1.4079 -2.9937
  435SOL     OW 1303   1.516   1.420   2.075 -0.4072  0.0402  0.1698
  435SOL    HW1 1304   1.506   1.452   2.175 -0.8480  1.7177 -0.7771
  435SOL    HW2 1305   1.498   1.499   2.012 -0.3696 -1.1006  1.8779
  436SOL     OW 1306   1.706   2.725   2.250  0.2352 -0.0383  0.2699
  436SOL    HW1 1307   1.650   2.780   2.323  1.7618 -1.6993  0.4488
  436SOL    HW2 1308   1.692   2.622   2.261  3.2126 -2.4894  0.1725
  437SOL     OW 1309   1.102   2.960   0.925  0.2894 -0.1463  0.2398
  437SOL    HW1 1310   1.024   3.022   0.901 -0.2240 -0.0141  0.2692
  437SOL    HW2 1311   1.110   2.924   1.020  0.2003 -0.8245 -1.0879
  438SOL     OW 1312   1.016   2.679   1.473 -0.1099  0.3681  0.6189
  438SOL    HW1 1313   1.119   2.708   1.463  0.9346  1.3829  1.8192
  438SOL    HW2 1314   1.009   2.577   1.450  6.5958 -0.9438 -0.9806
  439SOL     OW 1315   0.688   1.841   1.060 -0.0865 -0.1957  0.0348
  439SOL    HW1 1316   0.679   1.924   0.996 -0.9558 -2.1951 -2.7882
  439SOL    HW2 1317   0.601   1.783   1.064  1.4325 -1.8609  0.8365
  440SOL     OW 1318   1.069   2.484   1.984 -0.7081  0.2415 -0.0386
  440SOL    HW1 1319   1.011   2.563   1.949 -1.9541  1.5502 -1.1442
  440SOL    HW2 1320   1.169   2.493   1.950 -0.8014  1.6824 -1.9852
  441SOL     OW 1321   0.377   2.665   1.541  0.1016  0.3272 -0.4165
  441SOL    HW1 1322   0.460   2.606   1.521 -1.4834  1.2165 -4.0490
  441SOL    HW2 1323   0.297   2.636   1.481 -2.1269  0.8474 -0.4519
  442SOL     OW 1324   2.269   0.683   2.556  0.2881 -0.2986 -0.0317
  442SOL    HW1 1325   2.273   0.582   2.590  1.2752 -1.9750  0.3114
  442SOL    HW2 1326   2.173   0.726   2.559  0.0635 -0.6954  0.4756
  443SOL     OW 1327   1.207   2.662   2.200 -0.1163 -0.1283 -0.1555
  443SOL    HW1 1328   1.194   2.726   2.279  0.6341  1.2210 -0.4700
  443SOL    HW2 1329   1.232   2.565   2.229  1.4042 -1.6665  2.3823
  444SOL     OW 1330   0.992   1.370   1.557  0.0646  0.4676 -0.0872
  444SOL    HW1 1331   1.089   1.345   1.523 -0.1648  0.7334 -0.4420
  444SOL    HW2 1332   0.969   1.469   1.545 -1.9076 -0.0070 -0.3566
  445SOL     OW 1333   3.064   2.362   1.967  0.4662 -0.0326 -0.0048
  445SOL    HW1 1334   3.080   2.456   1.925  1.0850  2.1229  1.6908
  445SOL    HW2 1335   2.964   2.336   1.980 -1.1474  0.3572  1.6534
  446SOL     OW 1336   0.193   1.881   2.343 -0.1562 -0.3343 -0.4927
  446SOL    HW1 1337   0.175   1.980   2.377 -1.4830  0.8650  1.8679
  446SOL    HW2 1338   0.117   1.857   2.277 -0.0235 -1.6412  0.4841
  447SOL     OW 1339   1.231   1.663   1.936  0.1184  0.2503 -0.1640
  447SOL    HW1 1340   1.193   1.756   1.912  0.1615 -0.3443  2.2751
  447SOL    HW2 1341   1.336   1.663   1.944  0.6484 -1.4917  2.7289
  448SOL     OW 1342   0.110   1.528   1.956  0.0842  0.6265 -0.0399
  448SOL    HW1 1343   0.123   1.627   1.944 -1.4002 -0.8210 -1.5298
  448SOL    HW2 1344   0.147   1.488   2.045  0.3755  0.5672 -1.7871
  449SOL     OW 1345   2.003   3.008   0.845  0.2641 -0.0059  0.0143
  449SOL    HW1 1346   2.035   3.048   0.934 -0.8873 -4.3813  1.0622
  449SOL    HW2 1347   1.991   2.902   0.850 -1.1140 -1.8585  1.2514
  450SOL     OW 1348   2.272   1.371   0.896  0.1257  0.0335  0.5525
  450SOL    HW1 1349   2.249   1.267   0.884 -3.2924 -1.8392 -1.1341
  450SOL    HW2 1350   2.203   1.427   0.843 -1.0395  0.4590 -4.8506
  451SOL     OW 1351   1.419   0.033   1.433  0.0135 -0.4100 -0.1194
  451SOL    HW1 1352   1.326   0.081   1.436  0.2700  2.9073  0.2224
  451SOL    HW2 1353   1.439  -0.024   1.521 -0.7699 -1.3237 -0.5878
  452SOL     OW 1354   2.653   2.321   2.251  0.4969  0.5346 -0.0485
  452SOL    HW1 1355   2.607   2.407   2.280  0.5239  1.4792 -0.9356
  452SOL    HW2 1356   2.702   2.268   2.332  0.5205  2.7987  0.8013
  453SOL     OW 1357   2.435   2.588   3.033 -0.2544  0.0478 -0.0968
  453SOL    HW1 1358   2.372   2.670   3.060  0.3001  0.0056  0.9721
  453SOL    HW2 1359   2.397   2.546   2.946 -1.1626  0.7258 -0.7125
  454SOL     OW 1360   0.961   1.090   2.082 -0.5645  0.2018  0.0933
  454SOL    HW1 1361   0.946   1.128   1.988  4.0787  0.1412  0.6085
  454SOL    HW2 1362   1.058   1.074   2.106 -0.2851 -2.0236 -1.8097
  455SOL     OW 1363   0.675   2.660   2.916 -0.7803  0.7088 -0.0636
  455SOL    HW1 1364   0.727   2.744   2.955 -2.3851  0.7632 -0.7890
  455SOL    HW2 1365   0.676   2.578   2.975 -0.9404  0.4220  0.5083
  456SOL     OW 1366   0.534   1.792   0.299 -0.8794 -0.4492  0.5892
  456SOL    HW1 1367   0.600   1.726   0.336 -2.9733  0.5873  0.1662
  456SOL    HW2 1368   0.569   1.887   0.276  1.1047  1.3647 -0.2272
  457SOL     OW 1369   0.331   2.531   0.669  0.0027 -0.4165 -0.0799
  457SOL    HW1 1370   0.333   2.571   0.575  1.1749 -0.2578 -0.3824
  457SOL    HW2 1371   0.426   2.506   0.696 -2.0817 -0.9538  0.6262
  458SOL     OW 1372   2.976   2.952   1.275  0.4099  0.6207 -0.2646
  458SOL    HW1 1373   3.009   3.049   1.275  2.4606  0.1416 -2.0685
  458SOL    HW2 1374   2.970   2.913   1.183  0.0207 -0.3475  0.8161
  459SOL     OW 1375   2.158   2.532   0.895  0.8270  0.3959 -0.0339
  459SOL    HW1 1376   2.152   2.576   0.985  3.1722 -1.1827 -1.5728
  459SOL    HW2 1377   2.260   2.533   0.865 -0.6739 -0.3854 -2.3712
  460SOL     OW 1378   1.070   1.916   2.924 -0.0311  0.0022 -0.0487
  460SOL    HW1 1379   1.109   1.998   2.872 -0.0683  3.4576  1.0171
  460SOL    HW2 1380   1.139   1.871   2.986 -0.1215  1.4622 -2.1202
  461SOL     OW 1381   0.549   2.115   2.711  0.5884 -0.0285 -0.1860
  461SOL    HW1 1382   0.462   2.057   2.697 -0.0132  0.8929  1.9753
  461SOL    HW2 1383   0.602   2.082   2.793  0.9990  0.4044 -1.3832
  462SOL     OW 1384   0.957   1.190   1.798 -0.3353 -0.3892 -0.3577
  462SOL    HW1 1385   1.010   1.096   1.790 -0.1024 -3.7502 -0.3415
  462SOL    HW2 1386   0.968   1.248   1.717  2.2408  2.3637 -0.3672
  463SOL     OW 1387   0.440   0.802   0.534 -0.4380 -0.4016 -0.4073
  463SOL    HW1 1388   0.453   0.706   0.497  0.0650 -1.7659 -0.9784
  463SOL    HW2 1389   0.339   0.830   0.545  0.5595 -1.8206 -1.6234
  464SOL     OW 1390   0.496   2.242   2.227  0.2681 -0.2112  0.1183
  464SOL    HW1 1391   0.417   2.295   2.274  0.7708  0.0636 -0.0296
  464SOL    HW2 1392   0.530   2.296   2.146 -1.6973  0.9033  0.5030
  465SOL     OW 1393   0.280   0.881   0.892  0.5986  0.7008  0.3090
  465SOL    HW1 1394   0.193   0.895   0.840  1.9127 -1.2339 -2.1069
  465SOL    HW2 1395   0.294   0.780   0.893  1.3421  1.9564 -1.8711
  466SOL     OW 1396   1.388   1.053   1.053  0.1116 -0.0702  0.4387
  466SOL    HW1 1397   1.452   1.133   1.080  0.6524 -0.5308  1.2942
  466SOL    HW2 1398   1.293   1.085   1.040 -0.8066 -1.5388  1.3415
  467SOL     OW 1399   0.452   0.387   2.435  0.4165 -0.3705  0.4084
  467SOL    HW1 1400   0.415   0.468   2.490  2.3583  1.4654  2.8536
  467SOL    HW2 1401   0.468   0.306   2.494 -1.0224 -0.2940  1.6284
  468SOL     OW 1402   0.500   2.232   1.705 -0.2103 -0.2519  0.3901
  468SOL    HW1 1403   0.506   2.299   1.782 -0.7353 -1.7735  0.9553
  468SOL    HW2 1404   0.460   2.266   1.616 -0.3149 -0.6031  0.4147
  469SOL     OW 1405   1.564   1.265   1.099  0.4461  0.0367  0.1454
  469SOL    HW1 1406   1.651   1.210   1.085  1.7025  0.8626  0.2054
  469SOL    HW2 1407   1.590   1.360   1.137  1.5346  2.2933 -0.8178
  470SOL     OW 1408   3.026   1.639   0.718  0.3005  0.1311  0.7670
  470SOL    HW1 1409   3.123   1.641   0.760  2.6688 -2.5390  0.1052
  470SOL    HW2 1410   2.964   1.691   0.778  1.1902  1.2834  0.3951
  471SOL     OW 1411   2.662   1.293   2.152 -0.3327  0.2643  0.6230
  471SOL    HW1 1412   2.634   1.222   2.224  1.8636  0.2055  0.8605
  471SOL    HW2 1413   2.716   1.372   2.190 -1.8060 -2.1843 -0.8109
  472SOL     OW 1414   1.122   2.465   0.028 -0.0341  0.0175 -0.2242
  472SOL    HW1 1415   1.191   2.466   0.106 -0.8209 -0.6280  1.6787
  472SOL    HW2 1416   1.090   2.369   0.009  3.8676 -0.1452 -1.0929
  473SOL     OW 1417   1.053   1.582   0.848 -0.2782 -0.5580  0.5548
  473SOL    HW1 1418   0.967   1.628   0.880  0.8641  1.3142 -0.9297
  473SOL    HW2 1419   1.122   1.574   0.927  0.1431  0.0070  3.6107
  474SOL     OW 1420   0.809   1.211   0.767  0.0980  0.5311  0.4125
  474SOL    HW1 1421   0.782   1.179   0.668 -1.4675 -1.9494  0.3615
  474SOL    HW2 1422   0.906   1.184   0.795  0.7447 -1.2969  3.0742
  475SOL     OW 1423   2.892   0.081   0.773  0.3149 -0.1410  0.4911
  475SOL    HW1 1424   2.974   0.068   0.832 -1.2804 -0.0100 -0.8906
  475SOL    HW2 1425   2.807   0.112   0.817 -0.0138 -0.9066  0.6996
  476SOL     OW 1426   0.879   3.042   1.842  0.6236 -0.1533  0.2961
  476SOL    HW1 1427   0.917   2.990   1.921 -0.5155  1.1142  1.7717
  476SOL    HW2 1428   0.910   3.009   1.747  0.2300 -1.4261  0.7572
  477SOL     OW 1429   1.444   0.380   2.430  0.1588  0.3007  0.1877
  477SOL    HW1 1430   1.422   0.411   2.526  0.7105  2.6886 -2.2021
  477SOL    HW2 1431   1.538   0.338   2.422  0.4917  0.8371 -1.0146
  478SOL     OW 1432   2.261   1.803   0.276 -0.5154 -0.2856 -0.1637
  478SOL    HW1 1433   2.191   1.729   0.259 -0.8759 -0.2437  0.6293
  478SOL    HW2 1434   2.351   1.781   0.225  1.6003 -2.3044 -0.0086
  479SOL     OW 1435   1.216   1.100   2.847 -0.4500  0.4917  0.3718
  479SOL    HW1 1436   1.288   1.121   2.772 -2.5165 -0.4009 -0.0606
  479SOL    HW2 1437   1.131   1.049   2.809 -3.0536  1.3044  1.2794
  480SOL     OW 1438   2.469   2.347   0.361  0.0535  0.0839 -0.2922
  480SOL    HW1 1439   2.415   2.294   0.436  0.4391 -0.7574  1.7258
  480SOL    HW2 1440   2.428   2.340   0.267  1.4727  0.4413  0.1563
  481SOL     OW 1441   1.080   1.207   0.806 -0.5060 -0.0496 -0.0753
  481SOL    HW1 1442   1.098   1.282   0.733 -0.8644  1.6986  0.5219
  481SOL    HW2 1443   1.119   1.241   0.896  1.1043  1.7789  0.3866
  482SOL     OW 1444   1.617   0.289   2.032  0.0583 -0.4286 -0.0319
  482SOL    HW1 1445   1.630   0.377   1.970  1.6679  0.6647 -1.1931
  482SOL    HW2 1446   1.704   0.267   2.085  0.5452 -0.7528  0.4662
  483SOL     OW 1447   0.134   2.349   1.316 -0.0731 -0.2765 -0.1529
  483SOL    HW1 1448   0.034   2.365   1.317 -1.0504 -0.7250  0.3417
  483SOL    HW2 1449   0.186   2.376   1.230  1.2775 -0.6819 -0.3904
  484SOL     OW 1450   1.724   0.959   1.387 -0.0228 -0.4491  0.3141
  484SOL    HW1 1451   1.804   0.919   1.439 -1.2994  2.2616 -0.1185
  484SOL    HW2 1452   1.753   1.046   1.339  1.2438 -1.7107  0.4664
  485SOL     OW 1453   0.696   1.112   1.778  0.1034  0.0767  0.1476
  485SOL    HW1 1454   0.703   1.091   1.678  2.2524 -2.1602  0.1237
  485SOL    HW2 1455   0.787   1.160   1.811  0.2712  1.4429  0.3207
  486SOL     OW 1456   0.879   1.910   2.421 -0.1058  0.0161 -0.4401
  486SOL    HW1 1457   0.957   1.895   2.491  2.8569  0.4877 -0.7559
  486SOL    HW2 1458   0.824   1.998   2.443  2.1800  3.1220  0.6441
  487SOL     OW 1459   1.739   1.496   0.888  0.0674  0.1211 -0.1649
  487SOL    HW1 1460   1.705   1.409   0.839 -1.9895  0.5472 -3.0647
  487SOL    HW2 1461   1.783   1.567   0.822  0.5259 -1.3946 -3.7763
  488SOL     OW 1462   2.958   0.957   2.287  0.1442 -0.3885 -0.1953
  488SOL    HW1 1463   3.030   0.907   2.225  1.7239 -0.6915 -0.2475
  488SOL    HW2 1464   2.959   0.934   2.385  0.8197  3.3746  0.1713
  489SOL     OW 1465   2.793   0.200   1.307 -0.2675 -0.3179  0.1175
  489SOL    HW1 1466   2.780   0.158   1.401 -1.0947 -0.2354 -1.5652
  489SOL    HW2 1467   2.879   0.170   1.266 -2.2768 -0.4890 -1.3861
  490SOL     OW 1468   1.424   2.972   2.842 -0.1138 -0.3264 -0.2274
  490SOL    HW1 1469   1.446   2.866   2.848  0.6724 -3.4339 -2.4517
  490SOL    HW2 1470   1.377   3.009   2.752 -1.8777  1.8925 -2.2025
  491SOL     OW 1471   1.914   1.556   2.657 -0.0410  0.3281  0.1296
  491SOL    HW1 1472   1.905   1.574   2.758  1.6110  0.8957 -1.1036
  491SOL    HW2 1473   1.999   1.597   2.628 -2.0267 -1.2114 -1.7181
  492SOL     OW 1474   0.468   1.930   0.720 -0.3162 -0.4167 -0.5607
  492SOL    HW1 1475   0.551   1.951   0.782  1.9066 -1.8544  2.0271
  492SOL    HW2 1476   0.415   2.015   0.696  1.3084  0.2188  1.3446
  493SOL     OW 1477   0.456   1.407   2.132  0.2181  0.4457  0.7502
  493SOL    HW1 1478   0.360   1.444   2.145 -0.4756 -1.5317 -0.8989
  493SOL    HW2 1479   0.476   1.324   2.194  1.8379  0.1490  0.5490
  494SOL     OW 1480   2.617   2.664   0.179 -0.2639 -0.3640 -0.2254
  494SOL    HW1 1481   2.665   2.591   0.235 -1.8904  1.1558  0.1514
  494SOL    HW2 1482   2.618   2.643   0.076  1.4187 -1.6211 -1.8095
  495SOL     OW 1483   2.769   2.695   2.692 -0.5005 -0.3400 -0.0630
  495SOL    HW1 1484   2.768   2.600   2.641 -1.3178 -0.2174 -0.8466
  495SOL    HW2 1485   2.748   2.770   2.627 -0.5675  0.3413 -2.1569
  496SOL     OW 1486   2.034   2.190   0.707 -0.4783 -0.1615 -0.4766
  496SOL    HW1 1487   2.037   2.209   0.807  0.0089  1.9830 -1.2421
  496SOL    HW2 1488   2.065   2.097   0.689 -1.0814  5.8747  3.7495
  497SOL     OW 1489   0.229   2.987   2.399  0.0347 -0.0740 -0.3179
  497SOL    HW1 1490   0.168   3.048   2.464 -2.4482 -1.0526  1.5627
  497SOL    HW2 1491   0.273   3.035   2.315  0.9209  2.4573 -1.1023
  498SOL     OW 1492   1.212   1.494   1.072  0.4205  0.1607 -0.5441
  498SOL    HW1 1493   1.306   1.527   1.098 -1.8375  0.8669 -2.4923
  498SOL    HW2 1494   1.139   1.519   1.139 -2.8660 -0.7800 -0.5334
  499SOL     OW 1495   0.851   1.829   0.496  0.4055 -0.0841 -0.6094
  499SOL    HW1 1496   0.798   1.749   0.527 -0.3364  0.4442 -2.0839
  499SOL    HW2 1497   0.852   1.907   0.563 -2.9171  1.1717  1.0972
  500SOL     OW 1498   1.457   2.973   1.660  0.1240 -0.5278 -0.1818
  500SOL    HW1 1499   1.495   3.019   1.741  1.3342 -1.1804 -0.8633
  500SOL    HW2 1500   1.476   2.870   1.654  1.6178  0.6834 -0.5273
  501SOL     OW 1501   0.754   1.125   2.264  0.6632 -0.5003 -0.6411
  501SOL    HW1 1502   0.683   1.053   2.274  0.5087  0.1715 -2.8336
  501SOL    HW2 1503   0.822   1.111   2.189  0.7693  1.2799  2.4936
  502SOL     OW 1504   2.612   0.965   1.732  0.2741  0.7698  0.1042
  502SOL    HW1 1505   2.551   0.983   1.648  0.6516  0.4203 -2.2203
  502SOL    HW2 1506   2.578   0.874   1.773 -1.3176 -1.9754  0.8477
  503SOL     OW 1507   1.318   0.149   0.640 -0.2681  0.0889  0.2903
  503SOL    HW1 1508   1.236   0.205   0.612 -0.0176  0.3059  1.3807
  503SOL    HW2 1509   1.406   0.201   0.643 -2.6629  0.3616  0.8162
  504SOL     OW 1510   2.971   2.344   1.413  0.0591 -0.8634  0.3926
  504SOL    HW1 1511   2.995   2.434   1.465  0.5912  0.3794  0.7479
  504SOL    HW2 1512   2.877   2.313   1.434 -2.3507  1.5281  1.7519
  505SOL     OW 1513   2.314   1.254   1.424 -0.0392  0.1547  0.2480
  505SOL    HW1 1514   2.293   1.353   1.434  1.9433  1.9530  0.2557
  505SOL    HW2 1515   2.408   1.236   1.456 -2.7029  0.9536  0.8637
  506SOL     OW 1516   1.904   0.237   1.765 -0.6578  0.3426  0.0198
  506SOL    HW1 1517   1.994   0.205   1.718  0.4390  0.9379  1.7280
  506SOL    HW2 1518   1.910   0.324   1.812 -1.0324 -0.8760 -0.3200
  507SOL     OW 1519   0.472   0.743   2.176  0.0364  0.5138  0.1904
  507SOL    HW1 1520   0.396   0.728   2.107 -0.1176 -0.2579  0.6396
  507SOL    HW2 1521   0.528   0.657   2.197  1.8843  0.0479  0.7330
  508SOL     OW 1522   0.180   1.663   0.815  0.0932 -0.6740  0.2577
  508SOL    HW1 1523   0.196   1.762   0.785 -0.2038  0.1301  0.9086
  508SOL    HW2 1524   0.183   1.646   0.916  1.6566 -3.5714 -2.9721
  509SOL     OW 1525   1.352   1.190   2.585 -0.5185 -0.0084 -0.0982
  509SOL    HW1 1526   1.276   1.237   2.536  3.4873 -0.3419  2.0686
  509SOL    HW2 1527   1.348   1.087   2.582  1.4265 -0.7789 -0.5233
  510SOL     OW 1528   1.324   1.993   2.034 -0.0140 -0.3880  0.1174
  510SOL    HW1 1529   1.271   2.085   2.024 -2.1126  0.9498  0.2707
  510SOL    HW2 1530   1.261   1.922   2.063  1.6171  2.5144  1.3291
  511SOL     OW 1531   3.064   2.629   1.281 -0.6127 -0.2375 -0.2204
  511SOL    HW1 1532   3.010   2.588   1.203 -0.9702 -0.7985 -2.7921
  511SOL    HW2 1533   3.006   2.659   1.362 -0.7857 -0.6364 -0.2812
  512SOL     OW 1534   2.416   0.402   1.392  0.1668 -0.4510  1.0982
  512SOL    HW1 1535   2.314   0.390   1.393  2.4465 -0.2862 -1.9160
  512SOL    HW2 1536   2.463   0.351   1.315 -0.6965  1.2413 -2.5077
  513SOL     OW 1537   2.508   1.972   0.810 -0.3241 -0.2399 -0.1453
  513SOL    HW1 1538   2.448   2.055   0.794  0.2492 -0.1866 -1.6824
  513SOL    HW2 1539   2.589   1.973   0.744  1.1225  1.6304  1.6581
  514SOL     OW 1540   0.672   2.792   0.418 -0.0515 -0.4892  0.0620
  514SOL    HW1 1541   0.648   2.839   0.331  1.0842  0.9766 -0.0250
  514SOL    HW2 1542   0.692   2.857   0.495  0.7045  0.5577  0.9715
  515SOL     OW 1543   1.953   1.234   2.378 -0.2944 -0.0425 -0.3749
  515SOL    HW1 1544   1.893   1.242   2.292 -0.3429  0.2494 -0.2167
  515SOL    HW2 1545   1.906   1.230   2.478  0.0349  1.8652  2.1355
  516SOL     OW 1546   0.273   0.356   1.968 -0.0635  0.9436 -0.0289
  516SOL    HW1 1547   0.367   0.333   1.925  0.1971 -0.3639 -0.4803
  516SOL    HW2 1548   0.197   0.301   1.928  2.0164  2.0495  1.9435
  517SOL     OW 1549   0.364   3.023   1.208  0.3324 -0.4460  0.3510
  517SOL    HW1 1550   0.381   3.122   1.236 -1.8043  2.4040  1.0630
  517SOL    HW2 1551   0.278   2.980   1.252  0.3884 -0.0745  0.8108
  518SOL     OW 1552   2.121   0.177   1.631  0.0043  0.5706 -0.5149
  518SOL    HW1 1553   2.189   0.210   1.703  0.2039 -1.2460 -2.5272
  518SOL    HW2 1554   2.144   0.082   1.595 -0.9514 -1.9442  1.6558
  519SOL     OW 1555   2.350   2.171   2.531 -0.0142 -0.1760  0.1423
  519SOL    HW1 1556   2.293   2.147   2.618 -2.1956  1.2518  2.0464
  519SOL    HW2 1557   2.397   2.263   2.555 -1.3770  1.3059  0.0745
  520SOL     OW 1558   1.769   2.861   1.828  0.0956  0.3430  0.0478
  520SOL    HW1 1559   1.704   2.827   1.902 -0.4249  1.2302  0.6606
  520SOL    HW2 1560   1.846   2.790   1.824 -0.8613 -2.3291  0.0729
  521SOL     OW 1561   0.567   0.137   2.172 -0.1913 -0.2831 -0.2595
  521SOL    HW1 1562   0.473   0.118   2.212  0.2503 -1.1468 -0.9375
  521SOL    HW2 1563   0.640   0.084   2.224  0.3618  0.9473  0.9371
  522SOL     OW 1564   0.239   1.919   1.551  0.0340  0.4029 -0.5603
  522SOL    HW1 1565   0.254   1.986   1.628 -1.5920  1.8690 -0.4364
  522SOL    HW2 1566   0.225   1.966   1.458 -0.3287 -0.6405 -0.8055
  523SOL     OW 1567   2.225   3.029   1.591  0.2229  0.0132 -0.5159
  523SOL    HW1 1568   2.241   2.948   1.529  3.3080 -0.0555  1.4396
  523SOL    HW2 1569   2.195   3.002   1.688  2.6514  0.9994  1.6127
  524SOL     OW 1570   0.228   2.776   2.806  0.1099  0.4935 -0.4734
  524SOL    HW1 1571   0.176   2.851   2.853  0.8093  2.3141  1.0624
  524SOL    HW2 1572   0.329   2.788   2.794  1.0405  2.2901  1.5230
  525SOL     OW 1573   2.133   1.971   0.443 -0.2467  0.5373  0.1429
  525SOL    HW1 1574   2.108   1.900   0.515  0.0761  4.0387 -0.0171
  525SOL    HW2 1575   2.192   1.927   0.370  1.6983  0.8072 -0.3413
  526SOL     OW 1576   0.435   1.543   1.557  0.4171 -0.6233  0.2739
  526SOL    HW1 1577   0.384   1.515   1.643 -1.7561 -0.1280  0.9099
  526SOL    HW2 1578   0.485   1.465   1.510  0.1679 -3.0945  1.7732
  527SOL     OW 1579   1.106   2.884   1.194  0.0878 -0.2087 -0.3302
  527SOL    HW1 1580   1.180   2.815   1.201  1.2814 -0.3063  1.0185
  527SOL    HW2 1581   1.134   2.982   1.224  0.0102 -1.7328  2.9317
  528SOL     OW 1582   1.336   2.392   0.447 -0.1353 -0.0429  0.2757
  528SOL    HW1 1583   1.359   2.291   0.438  0.1243  0.2189  0.8912
  528SOL    HW2 1584   1.387   2.435   0.528  0.1017 -0.5443  3.8834
  529SOL     OW 1585   1.847   1.714   0.775  0.2935 -0.4410 -0.5712
  529SOL    HW1 1586   1.824   1.725   0.677 -0.1315  0.7503  0.6383
  529SOL    HW2 1587   1.811   1.793   0.836  2.0592 -0.2839  1.7622
  530SOL     OW 1588   0.357   2.442   0.256  0.3220 -0.2410 -0.4283
  530SOL    HW1 1589   0.362   2.537   0.301  0.6970  0.9343  0.5260
  530SOL    HW2 1590   0.418   2.373   0.298 -1.6021 -5.1072  3.9115
  531SOL     OW 1591   1.858   0.834   0.980  0.5129 -0.3142 -0.4630
  531SOL    HW1 1592   1.881   0.876   0.884 -0.6224 -0.0893 -1.4956
  531SOL    HW2 1593   1.758   0.856   0.999  2.7300  1.1302 -3.7580
  532SOL     OW 1594   0.461   1.108   0.771 -0.7607  0.0186  0.0731
  532SOL    HW1 1595   0.502   1.111   0.676 -0.6326  2.9450  1.8562
  532SOL    HW2 1596   0.424   1.013   0.799  0.5392  0.4588 -0.3813
  533SOL     OW 1597   1.738   0.001   2.557 -0.2805 -0.8291 -0.2050
  533SOL    HW1 1598   1.837   0.014   2.595 -0.7615 -0.5182  0.7190
  533SOL    HW2 1599   1.672   0.066   2.608 -1.6715  1.0561  0.5039
  534SOL     OW 1600   0.398   0.206   1.555 -0.0739 -0.3260  0.0751
  534SOL    HW1 1601   0.503   0.208   1.563 -0.5972  1.7369  0.6308
  534SOL    HW2 1602   0.364   0.303   1.525 -0.9033 -0.6188 -0.0499
  535SOL     OW 1603   1.940   0.334   0.160 -0.0800 -0.3828  0.4816
  535SOL    HW1 1604   1.955   0.418   0.220 -0.4014  2.1839 -2.7902
  535SOL    HW2 1605   1.929   0.250   0.213  1.1032  0.6748 -1.6725
  536SOL     OW 1606   1.361   2.603   0.898  0.4472 -0.2165  0.0064
  536SOL    HW1 1607   1.330   2.559   0.990 -2.5869 -3.0007  1.7811
  536SOL    HW2 1608   1.281   2.626   0.835 -0.7307  0.9664 -0.2316
  537SOL     OW 1609   0.847   0.248   2.360  0.0434  0.3905  0.1836
  537SOL    HW1 1610   0.892   0.301   2.275  1.6275  0.4035 -1.3002
  537SOL    HW2 1611   0.816   0.151   2.333  2.6649  1.1723 -0.9261
  538SOL     OW 1612   1.665   2.391   1.401 -0.0156  0.4194  0.2835
  538SOL    HW1 1613   1.675   2.288   1.383 -0.3653  0.7954 -1.0619
  538SOL    HW2 1614   1.758   2.437   1.419  0.5808 -0.5542  1.1073
  539SOL     OW 1615   0.197   1.623   2.665  0.7571  0.1323 -0.4052
  539SOL    HW1 1616   0.109   1.569   2.650  0.1284 -1.2367 -0.4910
  539SOL    HW2 1617   0.185   1.707   2.725 -1.1434 -2.0891  0.5807
  540SOL     OW 1618   2.679   1.730   1.930 -0.1535  0.7540  0.4941
  540SOL    HW1 1619   2.629   1.650   1.976  3.2418 -1.4569 -1.9409
  540SOL    HW2 1620   2.631   1.819   1.940  1.0727 -1.1715  0.9923
  541SOL     OW 1621   0.533   2.132   0.034 -0.3651 -0.1012 -0.1959
  541SOL    HW1 1622   0.532   2.100   0.132  0.7662  2.4002 -1.1154
  541SOL    HW2 1623   0.439   2.118  -0.012 -0.2499 -0.6960  0.6604
  542SOL     OW 1624   2.267   2.657   0.564  0.2543 -0.6932 -0.1534
  542SOL    HW1 1625   2.220   2.744   0.600  1.3171 -0.0834 -1.3927
  542SOL    HW2 1626   2.199   2.579   0.544 -0.9887  1.5698 -1.4415
  543SOL     OW 1627   1.077   1.785   1.598 -0.7337  0.0883 -0.6600
  543SOL    HW1 1628   1.096   1.791   1.703  2.7474  0.0681 -0.6209
  543SOL    HW2 1629   1.037   1.867   1.553  1.3445 -0.3472  0.1221
  544SOL     OW 1630   1.172   0.514   0.158 -0.3930  0.1730 -0.0627
  544SOL    HW1 1631   1.124   0.434   0.201 -2.8087  1.8583  0.6046
  544SOL    HW2 1632   1.174   0.503   0.052  1.0159 -2.4580 -1.6638
  545SOL     OW 1633   1.117   1.840   0.800  0.4698 -0.4327  0.4491
  545SOL    HW1 1634   1.206   1.843   0.743  0.4424 -0.5392  0.0745
  545SOL    HW2 1635   1.087   1.742   0.806  0.4795 -0.7845  0.2309
  546SOL     OW 1636   2.669   1.604   2.990  0.0124 -0.7153 -0.1442
  546SOL    HW1 1637   2.628   1.700   2.971 -1.1475  2.0027 -1.4855
  546SOL    HW2 1638   2.593   1.530   2.981 -1.0559  1.6025 -0.6964
  547SOL     OW 1639   0.677   3.042   2.568  0.4885 -0.0625  0.9196
  547SOL    HW1 1640   0.731   3.005   2.642 -2.8142  0.5424 -0.8631
  547SOL    HW2 1641   0.600   2.972   2.542 -0.7533  0.1185  1.4771
  548SOL     OW 1642   2.042   0.762   3.027  0.0560  0.1358 -0.2499
  548SOL    HW1 1643   1.950   0.734   3.066 -0.1725 -0.1987 -0.0787
  548SOL    HW2 1644   2.063   0.863   3.048  1.7545 -1.1115 -0.5227
  549SOL     OW 1645   0.701   0.584   0.183 -0.3250 -0.3540 -0.0875
  549SOL    HW1 1646   0.669   0.616   0.091  0.6041  0.2587  1.0506
  549SOL    HW2 1647   0.784   0.641   0.214  1.1044  2.1273  1.0545
  550SOL     OW 1648   2.579   2.758   2.880 -0.0022 -0.4962  0.1527
  550SOL    HW1 1649   2.532   2.679   2.936 -0.7030 -1.2026  1.6951
  550SOL    HW2 1650   2.658   2.720   2.822  0.5559 -0.3099  0.8079
  551SOL     OW 1651   0.268   0.873   0.225  0.0152  0.0542 -0.8092
  551SOL    HW1 1652   0.364   0.915   0.222  2.0177  2.2707 -1.6915
  551SOL    HW2 1653   0.212   0.901   0.306 -0.8389 -1.7138 -1.4694
  552SOL     OW 1654   0.640   3.040   1.958  0.1606  0.0999 -0.0660
  552SOL    HW1 1655   0.624   3.116   2.023 -0.2480 -0.3263 -1.0467
  552SOL    HW2 1656   0.736   3.046   1.909  1.6125 -0.5350 -0.6387
  553SOL     OW 1657   2.999   2.405   0.366  0.0646  0.1476 -0.4062
  553SOL    HW1 1658   2.985   2.328   0.428  0.6819  0.7271  1.3149
  553SOL    HW2 1659   2.907   2.454   0.339  0.1313  2.2613 -1.8363
  554SOL     OW 1660   2.191   0.365   0.541 -0.1256  0.1428  0.0690
  554SOL    HW1 1661   2.259   0.355   0.465 -1.7858 -1.3702  1.9836
  554SOL    HW2 1662   2.198   0.292   0.616  0.3744  0.2448 -0.5518
  555SOL     OW 1663   0.473   2.852   2.480 -0.0205 -0.0036  0.1990
  555SOL    HW1 1664   0.390   2.905   2.465  2.6007 -1.7174  0.0067
  555SOL    HW2 1665   0.471   2.765   2.422 -3.4096 -1.2719 -0.8886
  556SOL     OW 1666   0.818   2.430   1.614 -0.0642 -0.0035 -0.0447
  556SOL    HW1 1667   0.843   2.491   1.689  0.0256 -0.4145  0.4795
  556SOL    HW2 1668   0.894   2.427   1.542  1.2745  1.2305  0.3682
  557SOL     OW 1669   0.260   2.091   0.255 -0.4727 -0.2946 -0.3585
  557SOL    HW1 1670   0.170   2.047   0.236  2.1682 -2.9313 -1.1679
  557SOL    HW2 1671   0.342   2.032   0.242 -4.5379 -0.6641  2.1741
  558SOL     OW 1672   2.842   2.154   0.394 -0.1828  0.6004 -0.1615
  558SOL    HW1 1673   2.757   2.212   0.415  1.9136  2.8254  0.6192
  558SOL    HW2 1674   2.804   2.070   0.355  0.8932  2.0368 -0.4949
  559SOL     OW 1675   0.398   2.310   1.454  0.3952 -0.0177  0.0462
  559SOL    HW1 1676   0.313   2.362   1.416 -1.1928 -0.3648  0.9799
  559SOL    HW2 1677   0.440   2.240   1.392 -0.6099 -1.3728 -1.9831
  560SOL     OW 1678   2.146   1.006   0.016  0.1337 -0.0598  0.1649
  560SOL    HW1 1679   2.208   1.016   0.104 -1.2397  1.3653  0.3778
  560SOL    HW2 1680   2.204   1.012  -0.072 -0.8723 -0.5308  2.2076
  561SOL     OW 1681   0.009   1.974   0.197 -0.3556  0.6731 -0.2084
  561SOL    HW1 1682  -0.041   1.890   0.234  1.1028 -2.4784 -1.2506
  561SOL    HW2 1683  -0.031   1.987   0.101 -1.6059  0.5947 -0.7044
  562SOL     OW 1684   1.051   2.084   2.240 -0.5325 -0.3576 -0.2622
  562SOL    HW1 1685   1.018   2.169   2.286 -0.9506 -0.6045  0.6909
  562SOL    HW2 1686   0.999   1.999   2.274 -0.6410  1.1709  1.9286
  563SOL     OW 1687   0.668   2.544   2.664  0.1269 -0.3054 -0.2964
  563SOL    HW1 1688   0.747   2.481   2.640  1.5819  0.3065  1.1578
  563SOL    HW2 1689   0.688   2.590   2.754 -1.1945  1.9638 -1.7929
  564SOL     OW 1690   2.852   1.422   2.859 -0.0864  0.4142 -0.5890
  564SOL    HW1 1691   2.787   1.477   2.922  1.4358 -0.0206  0.7763
  564SOL    HW2 1692   2.926   1.480   2.825  0.4788  1.9292  0.3099
  565SOL     OW 1693   2.503   1.966   2.640 -0.6344 -0.1130  0.3568
  565SOL    HW1 1694   2.470   2.049   2.593  0.2158 -1.4724 -0.6368
  565SOL    HW2 1695   2.586   1.977   2.700 -1.1716 -0.6639 -1.6161
  566SOL     OW 1696   1.922   2.901   1.439 -0.6006 -0.2261  0.0630
  566SOL    HW1 1697   1.941   2.808   1.483  2.0841 -0.0096 -3.0937
  566SOL    HW2 1698   1.985   2.914   1.358  1.1104  1.5215  0.9103
  567SOL     OW 1699   2.346   0.034   2.309 -0.2088 -0.0243 -0.2295
  567SOL    HW1 1700   2.250   0.056   2.343 -0.5038  2.9057 -0.7749
  567SOL    HW2 1701   2.357   0.014   2.207  0.4657 -0.1204 -2.5803
  568SOL     OW 1702   1.508   1.740   0.230 -0.0272  0.2323 -0.1163
  568SOL    HW1 1703   1.445   1.820   0.224 -0.5479  1.3222 -0.2366
  568SOL    HW2 1704   1.605   1.766   0.216 -0.1942  0.1051  0.5617
  569SOL     OW 1705   0.255   0.580   0.890  0.3426 -0.1978 -0.4934
  569SOL    HW1 1706   0.262   0.540   0.796 -2.1461  0.7553  1.5553
  569SOL    HW2 1707   0.156   0.586   0.922 -0.9370 -2.3427 -0.2088
  570SOL     OW 1708   0.658   0.859   2.895  0.6873  0.0586 -0.2014
  570SOL    HW1 1709   0.670   0.892   2.799 -0.4533  0.1839 -0.6664
  570SOL    HW2 1710   0.657   0.944   2.961 -0.8022  1.6094  0.9767
  571SOL     OW 1711   0.789   3.071   1.071  0.7092 -0.0343  0.0150
  571SOL    HW1 1712   0.837   3.132   1.002 -0.2130  0.7375  1.2946
  571SOL    HW2 1713   0.829   2.977   1.069  1.6418  1.3863 -1.2174
  572SOL     OW 1714   1.649   2.731   1.426  0.0155  0.1212  0.1944
  572SOL    HW1 1715   1.580   2.681   1.364  2.4626 -0.2301 -0.6793
  572SOL    HW2 1716   1.670   2.825   1.398  1.3537  1.8668  2.5783
  573SOL     OW 1717   3.028   0.484   1.932 -0.5277 -0.4092  0.0191
  573SOL    HW1 1718   2.974   0.395   1.914  1.1717 -0.5050 -1.5531
  573SOL    HW2 1719   3.093   0.504   1.856 -0.4070 -1.1469  3.5461
  574SOL     OW 1720   0.117   1.662   1.104 -0.3770  0.2353 -0.1184
  574SOL    HW1 1721   0.211   1.663   1.146  0.2465 -0.2553 -0.0349
  574SOL    HW2 1722   0.077   1.758   1.102 -1.1053 -0.1757  3.3960
  575SOL     OW 1723   0.865   2.252   0.996 -0.7969  0.1630 -0.1008
  575SOL    HW1 1724   0.834   2.309   1.075  0.1228 -0.2451  2.1731
  575SOL    HW2 1725   0.872   2.298   0.904 -1.5357  0.4885  1.6181
  576SOL     OW 1726   2.932   2.993   1.700  0.0024  0.1821 -0.2252
  576SOL    HW1 1727   2.829   2.983   1.684 -0.7495 -0.5302 -1.7218
  576SOL    HW2 1728   2.965   3.088   1.695 -1.8720 -4.2745  2.4850
  577SOL     OW 1729   2.668   1.221   3.044 -0.0201 -0.2188 -0.3210
  577SOL    HW1 1730   2.654   1.123   3.019  2.5091 -0.5663  2.5038
  577SOL    HW2 1731   2.725   1.228   3.133  0.4283 -1.2011  1.8978
  578SOL     OW 1732   1.400   2.700   2.544 -0.0695 -0.3923  0.2166
  578SOL    HW1 1733   1.303   2.725   2.516  1.3854 -0.7394  0.7519
  578SOL    HW2 1734   1.469   2.774   2.511 -0.2372  2.9021  0.9107
  579SOL     OW 1735   0.098   2.398   0.167 -0.2527  0.0662  0.5027
  579SOL    HW1 1736   0.034   2.396   0.250  1.5000  2.7759  0.0541
  579SOL    HW2 1737   0.195   2.387   0.193 -1.5122 -1.4730 -0.7682
  580SOL     OW 1738   0.941   2.668   0.409  0.2388  0.0112 -0.2794
  580SOL    HW1 1739   0.989   2.676   0.317 -0.0386 -1.4521 -1.2951
  580SOL    HW2 1740   0.850   2.723   0.416 -0.1239  2.6893  2.5068
  581SOL     OW 1741   1.276   2.751   1.478  0.0052  0.4989  0.0671
  581SOL    HW1 1742   1.314   2.655   1.463 -1.8393 -0.6205 -0.3921
  581SOL    HW2 1743   1.336   2.817   1.431  3.5767 -0.2479  0.6605
  582SOL     OW 1744   1.507   0.055   1.867 -0.2070  0.1718 -0.3002
  582SOL    HW1 1745   1.524   0.111   1.951  2.2265  0.0240 -2.4846
  582SOL    HW2 1746   1.547   0.100   1.785 -0.6114  0.1608 -2.8321
  583SOL     OW 1747   2.429   2.985   0.492 -0.3204 -0.4956 -0.0252
  583SOL    HW1 1748   2.514   2.936   0.458  0.1373 -0.4512  2.2023
  583SOL    HW2 1749   2.365   2.923   0.547  3.1538 -0.9741 -1.1200
  584SOL     OW 1750   1.552   1.083   2.249  0.2861  0.0492  0.2820
  584SOL    HW1 1751   1.601   1.159   2.201 -2.7901 -0.1246  0.0842
  584SOL    HW2 1752   1.608   1.011   2.292 -2.6121 -0.3250 -3.4910
  585SOL     OW 1753   2.034   2.660   2.887  0.0050 -0.1491  0.3362
  585SOL    HW1 1754   2.039   2.565   2.855 -0.7222  2.0306 -1.6384
  585SOL    HW2 1755   1.940   2.697   2.907  1.4141 -1.3896 -0.7362
  586SOL     OW 1756   2.917   0.391   1.591 -0.4456 -0.6231 -0.5418
  586SOL    HW1 1757   2.891   0.481   1.645 -2.1158  3.5420  1.4388
  586SOL    HW2 1758   2.835   0.338   1.564  0.3351 -0.3966  0.8497
  587SOL     OW 1759   2.176   1.475   2.773 -0.0957  0.2150  0.2901
  587SOL    HW1 1760   2.170   1.426   2.683 -2.8903  3.2981  1.3143
  587SOL    HW2 1761   2.263   1.527   2.784  0.6742 -1.1308 -0.8547
  588SOL     OW 1762   0.483   2.633   2.275 -0.2842  0.0730 -0.1482
  588SOL    HW1 1763   0.471   2.689   2.184 -2.5415  1.5363 -2.1168
  588SOL    HW2 1764   0.420   2.552   2.278  0.9445  4.1302 -1.0185
  589SOL     OW 1765   2.174   1.373   2.516 -0.2580  0.4658 -0.1886
  589SOL    HW1 1766   2.108   1.311   2.474  1.3409 -1.3784  4.5840
  589SOL    HW2 1767   2.273   1.341   2.507  1.3851  0.3606  1.4989
  590SOL     OW 1768   2.303   1.700   2.073  0.2652 -0.1044 -0.0099
  590SOL    HW1 1769   2.383   1.634   2.064  2.6303  1.3479  2.3540
  590SOL    HW2 1770   2.283   1.726   2.171  0.6662 -1.1766 -1.9120
  591SOL     OW 1771   1.343   2.450   0.179  0.0815  0.1278  0.2355
  591SOL    HW1 1772   1.382   2.370   0.131 -2.4668 -0.9491  0.5282
  591SOL    HW2 1773   1.349   2.435   0.287 -0.6268 -2.0031  0.8449
  592SOL     OW 1774   1.793   2.353   0.809  0.4169  0.3138 -0.1594
  592SOL    HW1 1775   1.769   2.394   0.717 -1.4649  1.1780  3.3776
  592SOL    HW2 1776   1.892   2.359   0.830 -1.1033 -1.6648 -0.1896
  593SOL     OW 1777   0.743   0.293   0.192  0.0988  0.2640 -0.3254
  593SOL    HW1 1778   0.801   0.247   0.117 -0.9417 -1.6490 -0.2047
  593SOL    HW2 1779   0.730   0.394   0.181  2.5261  1.0725 -0.3136
  594SOL     OW 1780   1.083   1.785   2.660 -0.4287  0.1077  0.1960
  594SOL    HW1 1781   1.183   1.777   2.621 -1.7063 -1.1995  0.8992
  594SOL    HW2 1782   1.074   1.845   2.745 -0.6091  0.6882 -1.8730
  595SOL     OW 1783   1.529   0.151   0.995 -0.1407 -0.4051 -0.1274
  595SOL    HW1 1784   1.596   0.075   0.971  0.1098  1.8023  2.6412
  595SOL    HW2 1785   1.435   0.129   0.953  0.5894  2.7303 -1.8971
  596SOL     OW 1786   0.173   1.417   2.189  0.2548  0.8198 -0.2075
  596SOL    HW1 1787   0.084   1.365   2.194 -0.9416 -2.0656 -1.1357
  596SOL    HW2 1788   0.189   1.488   2.263 -2.7476  1.4482 -1.2318
  597SOL     OW 1789   1.988   2.693   1.819 -0.1379 -0.2185 -0.0315
  597SOL    HW1 1790   1.948   2.668   1.726  1.1413  1.5795 -0.3423
  597SOL    HW2 1791   2.094   2.675   1.822 -0.1577  1.1855  1.1746
  598SOL     OW 1792   2.482   2.814   1.288  0.0429 -0.4142 -0.5076
  598SOL    HW1 1793   2.577   2.840   1.317 -0.9982 -2.4002  3.1765
  598SOL    HW2 1794   2.481   2.747   1.212  1.9961 -0.7515  1.2782
  599SOL     OW 1795   2.907   0.265   2.512  0.1432 -0.0644 -0.0094
  599SOL    HW1 1796   2.995   0.273   2.458  1.5557 -1.6376  0.3706
  599SOL    HW2 1797   2.835   0.332   2.480 -3.4066  0.6559  1.0917
  600SOL     OW 1798   2.772   1.162   2.758 -0.0406  0.1603 -0.2114
  600SOL    HW1 1799   2.737   1.099   2.833 -0.0519  2.2599  0.3849
  600SOL    HW2 1800   2.785   1.256   2.800  2.3416  1.4968  0.2188
  601SOL     OW 1801   2.984   1.368   1.933  0.7575  0.1902 -0.6157
  601SOL    HW1 1802   2.922   1.405   1.853 -1.2367  1.2530 -0.4313
  601SOL    HW2 1803   3.076   1.412   1.945  0.5649 -0.1373  0.4344
  602SOL     OW 1804   1.537   1.551   2.332 -0.7549 -0.1233  0.3700
  602SOL    HW1 1805   1.450   1.537   2.384 -0.2717  1.0544 -0.4293
  602SOL    HW2 1806   1.604   1.620   2.372 -0.6938  1.7809  1.0238
  603SOL     OW 1807   0.596   1.169   2.704 -0.2879  0.1372  0.5118
  603SOL    HW1 1808   0.522   1.221   2.654 -2.0408 -1.7675  2.2145
  603SOL    HW2 1809   0.590   1.068   2.688  0.1488 -0.8059 -0.5855
  604SOL     OW 1810   2.534   1.061   0.229  0.0970 -0.2596 -0.1234
  604SOL    HW1 1811   2.627   1.095   0.201  0.3874  0.2848 -1.2965
  604SOL    HW2 1812   2.503   0.993   0.156 -2.8335  0.4832 -0.3895
  605SOL     OW 1813   2.598   1.196   1.902  0.2462 -0.1633 -0.2498
  605SOL    HW1 1814   2.623   1.103   1.866  0.9053  0.7907  1.8641
  605SOL    HW2 1815   2.636   1.212   1.996 -2.7631 -1.4616 -0.9519
  606SOL     OW 1816   1.532   2.475   2.574 -0.7224 -0.1360 -0.3639
  606SOL    HW1 1817   1.487   2.566   2.561 -1.1769 -0.1528 -1.3770
  606SOL    HW2 1818   1.471   2.399   2.534  2.9933 -1.3329 -0.4829
  607SOL     OW 1819   1.285   1.565   0.283  0.5360  0.1288  0.6082
  607SOL    HW1 1820   1.213   1.637   0.301  1.4213 -0.3146 -1.6005
  607SOL    HW2 1821   1.379   1.605   0.281 -2.5352  3.1329 -0.4238
  608SOL     OW 1822   1.407   2.784   0.326  1.1181  0.2780 -0.1759
  608SOL    HW1 1823   1.473   2.823   0.257 -1.7089  0.2484 -0.2670
  608SOL    HW2 1824   1.371   2.853   0.394  0.3939 -2.2672  1.6532
  609SOL     OW 1825   1.294   1.320   0.191 -0.4018 -0.6432 -0.1249
  609SOL    HW1 1826   1.292   1.420   0.223 -1.9802  1.3338  0.4941
  609SOL    HW2 1827   1.270   1.319   0.086  2.9835 -0.5343 -0.9192
  610SOL     OW 1828   3.052   1.241   2.175  0.4572  0.3503 -0.2319
  610SOL    HW1 1829   3.002   1.159   2.221  2.0204 -1.1677  0.2324
  610SOL    HW2 1830   3.010   1.262   2.079  1.1732  2.1230 -3.6866
  611SOL     OW 1831   2.555   0.182   1.163 -0.2497 -0.2803  0.7985
  611SOL    HW1 1832   2.498   0.106   1.200  0.7756  0.5013 -1.7501
  611SOL    HW2 1833   2.650   0.182   1.204 -1.5480  0.3774  0.5822
  612SOL     OW 1834   0.764   2.361   1.247 -0.1192  0.0658 -0.4023
  612SOL    HW1 1835   0.698   2.288   1.289 -0.2226  0.1328  0.7245
  612SOL    HW2 1836   0.730   2.460   1.242 -2.6935  0.0612 -1.4132
  613SOL     OW 1837   0.775   1.374   2.397 -0.0608  0.2953 -0.3752
  613SOL    HW1 1838   0.818   1.449   2.339  1.5105  0.5188 -0.7189
  613SOL    HW2 1839   0.768   1.286   2.340 -0.7613 -1.9650  0.1734
  614SOL     OW 1840   1.492   1.651   1.942 -0.5496 -0.1326  0.5431
  614SOL    HW1 1841   1.470   1.721   1.868  4.0416  0.3448 -2.1170
  614SOL    HW2 1842   1.588   1.665   1.985  3.2595 -2.2102  2.3328
  615SOL     OW 1843   0.699   1.470   1.703 -0.2275 -0.0359  0.1126
  615SOL    HW1 1844   0.663   1.409   1.625  0.3188 -1.7927 -3.3792
  615SOL    HW2 1845   0.779   1.524   1.676 -2.5668 -0.3191  1.0552
  616SOL     OW 1846   1.141   1.601   2.203 -0.3017  0.2624 -0.2795
  616SOL    HW1 1847   1.042   1.572   2.221  0.3634 -0.6027  2.2056
  616SOL    HW2 1848   1.160   1.622   2.105 -0.0131 -1.1148  0.5723
  617SOL     OW 1849   2.948   1.581   1.631 -1.1613 -0.5844 -0.4468
  617SOL    HW1 1850   2.891   1.520   1.693 -0.0453  0.9740 -1.2971
  617SOL    HW2 1851   2.977   1.530   1.544  1.2864  0.5095 -0.2906
  618SOL     OW 1852   1.919   2.001   1.458 -0.5354 -0.1479  0.4604
  618SOL    HW1 1853   2.004   1.994   1.398 -0.6158  0.0077 -1.5762
  618SOL    HW2 1854   1.903   1.920   1.517  0.3483  2.7361 -0.8918
  619SOL     OW 1855   1.785   0.534   2.372  0.3071 -0.5836  0.4143
  619SOL    HW1 1856   1.715   0.597   2.329 -1.0832  0.6785  1.3278
  619SOL    HW2 1857   1.764   0.434   2.365 -2.3302  0.9687  0.7390
  620SOL     OW 1858   2.226   2.907   0.677  0.3067  0.3394  0.2576
  620SOL    HW1 1859   2.145   2.965   0.690  0.5144  1.6717  0.9330
  620SOL    HW2 1860   2.279   2.901   0.766  1.5541 -0.0222 -1.6637
  621SOL     OW 1861   2.136   1.878   1.358 -0.3162 -0.7923  0.1429
  621SOL    HW1 1862   2.134   1.856   1.464  0.6686  2.3222 -0.9251
  621SOL    HW2 1863   2.145   1.792   1.295  1.3370  0.0757 -0.7888
  622SOL     OW 1864   2.241   0.977   1.847  0.2400 -0.3660  0.0206
  622SOL    HW1 1865   2.308   0.900   1.868  3.1335  1.0785 -1.0058
  622SOL    HW2 1866   2.147   0.963   1.882 -2.3971 -2.0784 -1.7253
  623SOL     OW 1867   1.262   0.926   2.576 -0.0212  0.2282  0.3675
  623SOL    HW1 1868   1.228   0.853   2.641 -3.4390  2.1807  0.7926
  623SOL    HW2 1869   1.191   0.928   2.499  1.2174 -2.2082 -0.2784
  624SOL     OW 1870   0.535   0.690   3.077 -0.2839  0.0368 -0.7183
  624SOL    HW1 1871   0.590   0.744   3.010  0.3700 -0.4140 -4.2778
  624SOL    HW2 1872   0.505   0.753   3.149  2.9412  1.0146  3.9188
  625SOL     OW 1873   2.787   1.750   0.813 -0.2405  0.3251  0.1212
  625SOL    HW1 1874   2.744   1.768   0.908  3.4510  3.7527  2.6888
  625SOL    HW2 1875   2.730   1.687   0.751  0.2386 -1.1608  1.7041
  626SOL     OW 1876   0.387   2.801   2.077  0.2338  0.1730  0.2759
  626SOL    HW1 1877   0.459   2.876   2.080  1.0421  1.3010  2.1815
  626SOL    HW2 1878   0.325   2.802   1.991 -0.1121  0.4918 -1.8455
  627SOL     OW 1879   0.721   1.021   1.506  0.3331 -0.3928  0.3295
  627SOL    HW1 1880   0.764   0.931   1.515  2.5772  1.5466  0.2725
  627SOL    HW2 1881   0.776   1.090   1.447  2.7293  3.3428  0.3272
  628SOL     OW 1882   2.456   0.126   0.670  0.2427 -0.1955 -0.3674
  628SOL    HW1 1883   2.474   0.040   0.613 -1.2116 -2.2714 -2.6698
  628SOL    HW2 1884   2.353   0.135   0.676  0.2324  0.7252 -0.1289
  629SOL     OW 1885   1.985   0.977   1.955  0.4078  0.0894  0.1802
  629SOL    HW1 1886   2.012   0.988   2.054  1.3654  1.2460 -1.2959
  629SOL    HW2 1887   1.933   1.062   1.914  0.1172 -1.3117 -1.2054
  630SOL     OW 1888   2.838   2.209   0.771 -0.2129  0.1725 -0.3081
  630SOL    HW1 1889   2.758   2.265   0.812 -1.6603 -0.3010  0.5077
  630SOL    HW2 1890   2.805   2.128   0.723  1.7996  2.3855  2.5271
  631SOL     OW 1891   2.999   0.168   2.124 -0.1384  0.4137 -0.3962
  631SOL    HW1 1892   3.054   0.229   2.194  1.4435 -1.8984  0.3757
  631SOL    HW2 1893   3.052   0.154   2.033 -0.2931 -0.0494 -0.2285
  632SOL     OW 1894   2.383   2.532   0.776  0.5322  0.4521  0.3439
  632SOL    HW1 1895   2.469   2.583   0.803 -1.2116 -1.9082  1.2637
  632SOL    HW2 1896   2.349   2.540   0.674  3.4069 -1.7135 -1.9005
  633SOL     OW 1897   1.591   1.261   2.700 -0.0009 -0.3439  0.0387
  633SOL    HW1 1898   1.545   1.318   2.775  1.5030  0.5628  0.8333
  633SOL    HW2 1899   1.521   1.222   2.635  1.3647  1.2691 -1.3055
  634SOL     OW 1900   0.654   2.075   0.899  0.2611  0.1602  0.2478
  634SOL    HW1 1901   0.555   2.092   0.918  1.1253  0.0019 -0.8280
  634SOL    HW2 1902   0.720   2.142   0.955  2.7222 -0.2010  1.1879
  635SOL     OW 1903   0.051   2.243   3.051 -0.5893 -0.2594 -0.0133
  635SOL    HW1 1904   0.065   2.300   2.967  0.6341  1.1884  2.2666
  635SOL    HW2 1905   0.058   2.303   3.135 -1.5513 -3.4182 -1.9345
  636SOL     OW 1906   2.333   2.856   2.016 -0.1831 -0.5599 -0.0285
  636SOL    HW1 1907   2.290   2.951   2.034 -0.3528 -0.1976  0.7690
  636SOL    HW2 1908   2.286   2.788   2.079  1.7398  3.5152 -0.3737
  637SOL     OW 1909   2.579   0.723   2.082 -0.0340  0.1471  0.7187
  637SOL    HW1 1910   2.548   0.717   1.982 -2.9693  2.5234 -0.3419
  637SOL    HW2 1911   2.645   0.802   2.093  2.8131  1.6432 -0.5733
  638SOL     OW 1912   2.405   1.901   1.426  0.0933  0.3543 -0.4139
  638SOL    HW1 1913   2.306   1.893   1.412  2.7178  2.9021 -0.7996
  638SOL    HW2 1914   2.446   1.803   1.425 -2.0935  0.5041 -0.4351
  639SOL     OW 1915   1.289   2.236   1.573 -0.0178  0.1463  0.3328
  639SOL    HW1 1916   1.273   2.165   1.502 -0.8202 -0.3183  0.3362
  639SOL    HW2 1917   1.216   2.229   1.649  2.3374 -1.7787  1.8093
  640SOL     OW 1918   0.266   1.200   1.555  0.4273 -0.4567  0.6089
  640SOL    HW1 1919   0.284   1.262   1.635 -0.0485  2.4301 -2.1913
  640SOL    HW2 1920   0.334   1.123   1.535 -0.3827  1.4553  0.6907
  641SOL     OW 1921   1.875   0.264   1.430  0.0023  0.2376 -0.2951
  641SOL    HW1 1922   1.841   0.343   1.488  0.5809 -0.8514  1.2301
  641SOL    HW2 1923   1.891   0.171   1.486 -1.8946 -2.8752  0.3378
  642SOL     OW 1924   1.997   0.112   0.318 -0.0129  0.0496  0.0615
  642SOL    HW1 1925   2.098   0.112   0.349  1.3825 -0.1073  1.3514
  642SOL    HW2 1926   1.938   0.074   0.397 -1.5778  1.5683 -2.6174
  643SOL     OW 1927   2.792   1.879   2.116 -0.5384 -0.4192 -0.1396
  643SOL    HW1 1928   2.760   1.795   2.065  1.4734 -0.8031 -1.3686
  643SOL    HW2 1929   2.834   1.948   2.053  1.4419 -2.5265  0.2051
  644SOL     OW 1930   2.198   2.281   1.238 -0.0505  0.3389  0.0386
  644SOL    HW1 1931   2.295   2.250   1.216  1.2213  0.5995  0.6054
  644SOL    HW2 1932   2.186   2.300   1.336  0.6879 -0.2944  1.2696
  645SOL     OW 1933   0.675   0.828   1.088 -0.0745 -0.0176 -0.2826
  645SOL    HW1 1934   0.608   0.766   1.036 -2.7122  0.2324  3.1571
  645SOL    HW2 1935   0.686   0.929   1.062  2.5684  0.0052  1.3889
  646SOL     OW 1936   1.454   1.895   1.804  0.0945  0.0054  0.1511
  646SOL    HW1 1937   1.541   1.941   1.777 -0.3708  2.1996  1.4756
  646SOL    HW2 1938   1.403   1.934   1.887 -0.0724  2.6811  0.6959
  647SOL     OW 1939   0.894   0.921   0.689 -0.1441 -0.5972 -0.1767
  647SOL    HW1 1940   0.972   0.934   0.754 -2.3091  0.0018 -0.5692
  647SOL    HW2 1941   0.800   0.914   0.731 -0.2920  1.0176  2.1393
  648SOL     OW 1942   0.070   0.239   0.332 -0.7029 -0.7583  0.2783
  648SOL    HW1 1943   0.034   0.163   0.274 -0.7370  1.0670 -1.5786
  648SOL    HW2 1944   0.068   0.334   0.279 -1.5093  3.4856 -1.8281
  649SOL     OW 1945   0.002   0.022   0.946  0.1528  0.3657 -0.1851
  649SOL    HW1 1946   0.095   0.018   0.905 -1.9394  1.0235  1.7444
  649SOL    HW2 1947   0.010   0.038   1.048 -2.9250 -0.0691  0.8062
  650SOL     OW 1948   2.743   0.714   1.455  0.0802  0.1362  0.1470
  650SOL    HW1 1949   2.659   0.694   1.511  2.6124 -0.9615  1.1405
  650SOL    HW2 1950   2.743   0.801   1.398  3.0182 -0.9059  1.2653
  651SOL     OW 1951   0.890   1.618   1.503  0.0549  0.1530 -0.0330
  651SOL    HW1 1952   0.969   1.678   1.537 -0.3389  1.3719 -1.3720
  651SOL    HW2 1953   0.832   1.670   1.437 -1.0665 -0.6284 -5.0005
  652SOL     OW 1954   2.309   2.509   2.365 -0.3792  0.6554 -0.6794
  652SOL    HW1 1955   2.225   2.486   2.422 -1.8875 -0.6068 -0.0179
  652SOL    HW2 1956   2.311   2.600   2.324  0.2861 -4.0986 -0.8832
  653SOL     OW 1957   2.794   1.153   0.236 -0.2248 -0.1393 -0.5065
  653SOL    HW1 1958   2.810   1.250   0.276 -1.3210 -1.8376 -0.2096
  653SOL    HW2 1959   2.869   1.091   0.261 -1.1141 -0.8956 -3.1815
  654SOL     OW 1960   1.183   2.228   1.233 -0.0708  0.0831  0.1881
  654SOL    HW1 1961   1.200   2.153   1.304 -0.1664  1.1071  0.3877
  654SOL    HW2 1962   1.251   2.229   1.152  2.3665 -1.2214  1.5578
  655SOL     OW 1963   0.228   1.063   1.914  0.4234 -0.1909  0.0902
  655SOL    HW1 1964   0.280   0.986   1.857 -0.3587  1.1164  0.3147
  655SOL    HW2 1965   0.284   1.148   1.930 -0.3176 -1.9757  2.1414
  656SOL     OW 1966   2.470   2.405   2.571  0.5675 -0.3031  0.5752
  656SOL    HW1 1967   2.571   2.406   2.564  2.5409 -1.9808 -0.4565
  656SOL    HW2 1968   2.426   2.455   2.491  1.2956  1.6694  0.1011
  657SOL     OW 1969   3.059   1.107   1.882 -0.6571  0.2112 -0.0394
  657SOL    HW1 1970   3.044   1.208   1.895  0.8755  0.3696 -0.8452
  657SOL    HW2 1971   3.160   1.078   1.892 -0.5430 -1.5375  1.7924
  658SOL     OW 1972   1.695   0.245   2.372  0.1438  0.5472  0.1929
  658SOL    HW1 1973   1.705   0.164   2.438  0.0991  1.0594 -2.3582
  658SOL    HW2 1974   1.744   0.239   2.285 -0.4839 -1.9433 -0.0823
  659SOL     OW 1975   1.412   0.624   2.828  0.0340 -0.2395 -0.1492
  659SOL    HW1 1976   1.482   0.682   2.878  0.0110  1.5568 -0.1266
  659SOL    HW2 1977   1.346   0.678   2.769  0.1714 -0.0706  0.3562
  660SOL     OW 1978   1.378   0.430   1.406 -0.1173 -0.2269  0.7572
  660SOL    HW1 1979   1.429   0.457   1.489 -1.2573 -1.5233 -0.2123
  660SOL    HW2 1980   1.434   0.364   1.345 -1.1184  0.4093 -0.5212
  661SOL     OW 1981   2.456   1.123   0.676 -0.4925 -0.1773  0.2021
  661SOL    HW1 1982   2.479   1.037   0.623 -0.4995 -1.5640  0.7330
  661SOL    HW2 1983   2.422   1.195   0.613  2.2658  0.1662 -1.0725
  662SOL     OW 1984   1.266   0.453   1.841 -0.0573  0.4336  0.2489
  662SOL    HW1 1985   1.218   0.362   1.861  1.0957  1.9702  2.5293
  662SOL    HW2 1986   1.243   0.520   1.917 -0.9392 -5.2557  1.2932
  663SOL     OW 1987   0.857   1.578   2.214  0.3493 -0.3529  0.0182
  663SOL    HW1 1988   0.805   1.666   2.231  0.9851 -1.1540 -0.0286
  663SOL    HW2 1989   0.806   1.532   2.139  2.7704  3.2666  2.7133
  664SOL     OW 1990   1.652   2.066   1.383  0.0261 -0.2095 -0.1725
  664SOL    HW1 1991   1.568   2.021   1.419  0.4945 -0.0147 -0.9666
  664SOL    HW2 1992   1.741   2.018   1.413  0.6548 -0.5400  1.6523
  665SOL     OW 1993   2.307   0.620   1.991 -0.3693  0.2997 -0.5986
  665SOL    HW1 1994   2.319   0.529   2.036 -0.5090 -1.8457  1.6630
  665SOL    HW2 1995   2.240   0.678   2.041 -0.6293 -0.9634  2.2559
  666SOL     OW 1996   0.465   2.269   0.463  0.5750  0.1592  0.0092
  666SOL    HW1 1997   0.472   2.368   0.486 -0.4986  0.4620 -2.5621
  666SOL    HW2 1998   0.424   2.214   0.544 -0.3833  1.4048  2.5228
  667SOL     OW 1999   2.087   0.193   1.023 -0.3186  0.2818  0.1999
  667SOL    HW1 2000   2.148   0.271   0.991 -0.3671  2.7922  0.2300
  667SOL    HW2 2001   2.000   0.226   1.067  1.1417 -0.5183 -2.6579
  668SOL     OW 2002   2.034   0.650   1.275  0.4854  0.1918  0.3602
  668SOL    HW1 2003   2.081   0.603   1.195  0.5723  0.4636 -0.7670
  668SOL    HW2 2004   2.060   0.610   1.366 -1.4884 -1.3796 -2.5345
  669SOL     OW 2005   3.010   2.138   0.963  0.4118  0.8236  0.2845
  669SOL    HW1 2006   2.952   2.158   0.881 -1.6725  1.2366  0.7108
  669SOL    HW2 2007   2.972   2.161   1.059  0.3653  0.9948  4.1031
  670SOL     OW 2008   2.797   2.339   2.002 -0.1079  0.5077 -0.0799
  670SOL    HW1 2009   2.750   2.342   2.095 -0.9060  0.7781  0.3691
  670SOL    HW2 2010   2.784   2.427   1.951 -0.4355 -1.2485  0.1293
  671SOL     OW 2011   1.675   1.722   1.477  0.8472  0.5908 -0.0153
  671SOL    HW1 2012   1.677   1.709   1.371 -0.6353 -1.2097  0.0124
  671SOL    HW2 2013   1.591   1.774   1.513  2.6952 -2.5134 -1.6824
  672SOL     OW 2014   0.389   0.672   2.453  0.3872  0.4089  0.2906
  672SOL    HW1 2015   0.416   0.659   2.352 -0.1568  1.5623  0.2604
  672SOL    HW2 2016   0.308   0.733   2.455  0.0405 -2.4964  0.0533
  673SOL     OW 2017   0.148   1.252   1.070  0.2090  0.1564  0.0230
  673SOL    HW1 2018   0.169   1.339   1.121 -0.1941 -0.0849 -0.8341
  673SOL    HW2 2019   0.228   1.192   1.060 -0.1589  0.6309  1.5149
  674SOL     OW 2020   1.582   2.905   0.147  0.4102  0.1619 -0.0073
  674SOL    HW1 2021   1.597   3.003   0.118  0.8199  0.0920  3.1709
  674SOL    HW2 2022   1.638   2.839   0.089  3.0990 -0.1955 -1.8438
  675SOL     OW 2023   1.721   0.894   2.338  0.1858 -0.3004 -0.1615
  675SOL    HW1 2024   1.823   0.873   2.335 -0.1290 -3.1721 -2.3727
  675SOL    HW2 2025   1.660   0.810   2.310  0.6027  0.7893 -0.9676
  676SOL     OW 2026   2.527   1.524   2.028  0.4039  0.0943 -0.0598
  676SOL    HW1 2027   2.512   1.504   1.927  0.7640 -1.0996 -0.7740
  676SOL    HW2 2028   2.551   1.436   2.073 -1.9476  1.7289  0.8252
  677SOL     OW 2029   1.931   0.547   0.904  0.6803  0.2134  0.2102
  677SOL    HW1 2030   1.924   0.650   0.921  2.8276 -0.0584 -0.5813
  677SOL    HW2 2031   1.865   0.494   0.971 -0.0298 -1.5321  2.1072
  678SOL     OW 2032   0.081   0.780   1.643 -0.1935 -0.7428  0.0283
  678SOL    HW1 2033   0.179   0.810   1.656  0.2301 -0.6040 -1.2646
  678SOL    HW2 2034   0.017   0.810   1.717  0.4453  2.3893 -1.6653
  679SOL     OW 2035   2.445   1.189   1.152 -0.3131 -0.6320 -0.5444
  679SOL    HW1 2036   2.348   1.210   1.186 -0.8532 -1.1934  1.6748
  679SOL    HW2 2037   2.461   1.091   1.120 -0.4607 -2.9295 -1.2436
  680SOL     OW 2038   2.875   0.644   1.700 -0.3201  0.2663 -0.1865
  680SOL    HW1 2039   2.817   0.698   1.635 -1.6043 -0.0537 -0.4775
  680SOL    HW2 2040   2.929   0.705   1.769  1.0498 -0.1594  2.2778
  681SOL     OW 2041   3.068   0.144   1.652 -0.1642  0.0562 -0.0792
  681SOL    HW1 2042   3.136   0.130   1.577 -0.2329  1.1107  1.9771
  681SOL    HW2 2043   3.012   0.232   1.636 -1.5656  1.0807  1.0939
  682SOL     OW 2044   0.716   3.087   1.333  0.1226  0.1889 -0.1401
  682SOL    HW1 2045   0.634   3.026   1.362 -2.3669 -2.8098  0.1978
  682SOL    HW2 2046   0.739   3.069   1.231 -0.8680 -0.3243 -2.4329
  683SOL     OW 2047   1.418   0.232   2.189  0.5704  0.0023  0.7210
  683SOL    HW1 2048   1.425   0.292   2.274  1.3885  0.0801  2.0142
  683SOL    HW2 2049   1.491   0.252   2.120 -0.6538  0.3602  0.8276
  684SOL     OW 2050   1.441   2.130   0.479 -0.5651  0.0746  0.0205
  684SOL    HW1 2051   1.502   2.097   0.556  0.6676 -1.3281 -0.9265
  684SOL    HW2 2052   1.363   2.063   0.461 -0.0556 -0.1749 -0.0162
  685SOL     OW 2053   2.159   1.926   1.978 -0.1176 -0.5519  0.6745
  685SOL    HW1 2054   2.208   2.009   1.937 -0.1912 -1.4515 -0.8123
  685SOL    HW2 2055   2.220   1.859   2.032 -0.3548 -0.8859 -0.2346
  686SOL     OW 2056   1.537   1.708   2.775  0.0296 -0.1611  0.1192
  686SOL    HW1 2057   1.485   1.618   2.800  2.8605  0.6318 -0.7422
  686SOL    HW2 2058   1.591   1.747   2.855  0.7056  0.8830 -0.0664
  687SOL     OW 2059   1.353   2.495   1.898  0.1763 -0.2533  0.1836
  687SOL    HW1 2060   1.372   2.404   1.864 -1.6970  1.7974  0.7716
  687SOL    HW2 2061   1.404   2.516   1.986 -0.7402  0.8068 -0.0857
  688SOL     OW 2062   2.087   1.514   1.583 -0.1773  0.2086 -0.2756
  688SOL    HW1 2063   2.179   1.544   1.544 -0.3913 -1.4030 -0.5110
  688SOL    HW2 2064   2.015   1.478   1.515 -0.1996  2.0466  0.8097
  689SOL     OW 2065   2.448   1.059   2.705  0.6472  0.1546  0.0414
  689SOL    HW1 2066   2.362   1.044   2.761  2.0021  2.8370 -1.8453
  689SOL    HW2 2067   2.523   1.108   2.757 -0.8845 -0.2704  2.9652
  690SOL     OW 2068   2.235   2.774   3.046  0.3759  0.0340 -0.3795
  690SOL    HW1 2069   2.143   2.742   3.001  1.5431  1.9901 -2.3294
  690SOL    HW2 2070   2.216   2.814   3.139  1.3477  1.4820 -1.5656
  691SOL     OW 2071   2.587   0.452   2.176  0.4454 -0.1709 -0.3119
  691SOL    HW1 2072   2.653   0.396   2.118  1.4445 -0.0679 -1.0166
  691SOL    HW2 2073   2.592   0.554   2.155 -0.8070  0.2112 -3.7755
  692SOL     OW 2074   2.716   1.256   0.655 -0.4835 -0.1568 -0.5111
  692SOL    HW1 2075   2.617   1.245   0.686  0.8982 -0.8752  0.3751
  692SOL    HW2 2076   2.768   1.321   0.724 -0.3469  4.0931  0.2386
  693SOL     OW 2077   2.821   2.946   0.621 -0.5118  0.2957  0.2323
  693SOL    HW1 2078   2.846   3.034   0.677  0.9015  2.1374  0.8942
  693SOL    HW2 2079   2.796   2.965   0.522  0.6518  2.1112 -0.4410
  694SOL     OW 2080   2.399   2.149   0.069  0.3130  0.1747 -0.3735
  694SOL    HW1 2081   2.377   2.248   0.100  1.7047  3.3798  1.7531
  694SOL    HW2 2082   2.319   2.096   0.047  3.1301  0.1473 -0.0206
  695SOL     OW 2083   0.553   2.901   1.484 -0.0187 -0.0032 -0.0601
  695SOL    HW1 2084   0.472   2.832   1.466 -1.1320 -1.6523  0.3734
  695SOL    HW2 2085   0.533   2.958   1.569 -0.2068 -1.5004  2.3974
  696SOL     OW 2086   2.730   1.984   0.649  0.2326  0.4117  0.2615
  696SOL    HW1 2087   2.759   1.896   0.696  0.9071 -1.3580 -0.6522
  696SOL    HW2 2088   2.688   1.966   0.559 -0.8014 -0.8388  1.1480
  697SOL     OW 2089   1.667   2.039   1.720 -0.1946 -0.4174  0.0789
  697SOL    HW1 2090   1.748   2.005   1.778  0.4200  0.7626  1.8205
  697SOL    HW2 2091   1.696   2.117   1.656  2.2926 -0.2738  1.3735
  698SOL     OW 2092   2.920   0.330   2.809  0.0205  0.3754 -0.0585
  698SOL    HW1 2093   2.933   0.317   2.710 -1.2068  1.7490  3.1077
  698SOL    HW2 2094   2.981   0.266   2.868 -2.2093  0.8940  1.6163
  699SOL     OW 2095   1.526   0.115   2.928  0.3045  0.7037 -0.0081
  699SOL    HW1 2096   1.487   0.021   2.900 -0.4446 -0.5795 -0.0070
  699SOL    HW2 2097   1.572   0.165   2.848  0.1566  0.4269  0.2528
  700SOL     OW 2098   1.001   2.409   1.382  0.4313  0.2718 -0.3330
  700SOL    HW1 2099   1.073   2.339   1.360  0.2513  3.6055 -0.5681
  700SOL    HW2 2100   0.907   2.392   1.337 -1.4978  0.8319 -1.9519
  701SOL     OW 2101   1.849   2.813   0.029 -0.6506  0.4543 -0.0167
  701SOL    HW1 2102   1.836   2.760   0.116  0.1198  2.7429  1.5158
  701SOL    HW2 2103   1.876   2.914   0.045  0.1487  1.0004 -2.7318
  702SOL     OW 2104   2.089   1.364   1.819  0.3340 -0.3283 -0.0722
  702SOL    HW1 2105   2.177   1.310   1.824 -2.6881 -0.8247  2.3644
  702SOL    HW2 2106   2.086   1.418   1.726  1.1441  2.0659 -1.5859
  703SOL     OW 2107   1.981   0.881   1.477 -0.4716  0.4328  0.2682
  703SOL    HW1 2108   1.962   0.803   1.539 -0.5854 -0.1758 -2.1708
  703SOL    HW2 2109   2.038   0.955   1.526  0.7330 -0.4309  0.0079
  704SOL     OW 2110   0.271   2.070   1.788  0.1351  0.0895  0.1414
  704SOL    HW1 2111   0.306   1.995   1.847 -0.7049  0.0152  2.0021
  704SOL    HW2 2112   0.353   2.134   1.774  2.3465 -0.4975  0.5788
  705SOL     OW 2113   2.552   1.409   0.854  0.0528  0.3079  0.0501
  705SOL    HW1 2114   2.450   1.380   0.866 -0.3296 -0.1798  2.1784
  705SOL    HW2 2115   2.612   1.406   0.938  1.0885  0.0874 -0.4085
  706SOL     OW 2116   0.632   1.746   1.882  0.2313 -0.0311  0.2437
  706SOL    HW1 2117   0.650   1.647   1.926  0.8013 -2.7019  1.3395
  706SOL    HW2 2118   0.715   1.804   1.906 -0.0162  0.0614  0.1642
  707SOL     OW 2119   2.324   1.244   1.899  0.3242 -0.5080 -1.3624
  707SOL    HW1 2120   2.425   1.242   1.921 -2.3709  0.5939 -1.2453
  707SOL    HW2 2121   2.285   1.145   1.894  0.6468 -0.6588  0.7426
  708SOL     OW 2122   3.056   0.530   3.025 -0.3021  0.1019  0.0522
  708SOL    HW1 2123   3.031   0.568   2.928 -2.4053  1.7246 -3.4898
  708SOL    HW2 2124   3.088   0.426   3.017  2.2073 -3.2848 -0.0645
  709SOL     OW 2125   1.753   1.849   0.217 -0.2696 -0.5150 -0.8348
  709SOL    HW1 2126   1.821   1.908   0.263  2.3319 -2.0107 -0.7536
  709SOL    HW2 2127   1.760   1.854   0.110  0.1158  0.9019 -0.2380
  710SOL     OW 2128   1.769   1.660   2.440 -0.0220 -0.0071  0.3257
  710SOL    HW1 2129   1.797   1.637   2.340 -1.9714  0.7324  2.6220
  710SOL    HW2 2130   1.797   1.589   2.512  3.3186 -1.0459 -2.8892
  711SOL     OW 2131   2.623   2.900   0.969  0.5620 -0.2430  0.0992
  711SOL    HW1 2132   2.590   2.985   0.918  0.0593 -0.6351  0.1139
  711SOL    HW2 2133   2.727   2.904   0.997 -0.7696 -1.0162  0.7641
  712SOL     OW 2134   1.494   2.291   1.758 -0.1698 -0.1683 -0.8309
  712SOL    HW1 2135   1.535   2.202   1.796  0.0126  0.4497  0.3445
  712SOL    HW2 2136   1.436   2.284   1.673  0.5593 -1.3948  0.8674
  713SOL     OW 2137   2.860   1.340   2.494  0.2676 -0.2791  0.5462
  713SOL    HW1 2138   2.908   1.250   2.482  1.4422  0.3802  0.4170
  713SOL    HW2 2139   2.770   1.335   2.552 -1.7500 -0.3953  2.5879
  714SOL     OW 2140   2.674   0.433   2.426 -0.3434 -0.0185  0.1082
  714SOL    HW1 2141   2.608   0.423   2.507  0.9417 -0.4736  2.2801
  714SOL    HW2 2142   2.625   0.432   2.331 -3.6428  0.1643  0.1426
  715SOL     OW 2143   1.647   2.120   1.107  0.4401 -0.8836  0.2788
  715SOL    HW1 2144   1.547   2.141   1.077 -1.4670 -1.3602  2.1211
  715SOL    HW2 2145   1.652   2.112   1.209 -0.7990  1.2087  0.2688
  716SOL     OW 2146   1.206   0.207   1.448 -0.7325 -0.0003 -0.2206
  716SOL    HW1 2147   1.108   0.208   1.419 -2.0678 -0.9276  0.0833
  716SOL    HW2 2148   1.251   0.301   1.437 -1.0348  1.7156 -1.9216
  717SOL     OW 2149   1.057   0.606   1.590 -0.0503 -0.5227  0.0397
  717SOL    HW1 2150   1.160   0.604   1.612 -0.9652 -0.7170  1.3281
  717SOL    HW2 2151   1.046   0.576   1.491  3.0551 -0.1186  0.4359
  718SOL     OW 2152   0.662   1.095   1.005  0.1414  0.6117 -0.2056
  718SOL    HW1 2153   0.611   1.080   0.920  2.4774 -0.9116  1.1222
  718SOL    HW2 2154   0.715   1.182   1.001 -1.0928 -0.1720 -0.7599
  719SOL     OW 2155   0.719   1.816   2.238 -0.8857  0.1745  0.4189
  719SOL    HW1 2156   0.782   1.834   2.316 -0.7148 -0.7834  1.5321
  719SOL    HW2 2157   0.618   1.843   2.244  2.2805  1.7327 -2.7807
  720SOL     OW 2158   2.267   1.140   0.223  0.2450  0.3072  0.0602
  720SOL    HW1 2159   2.366   1.108   0.212  1.6413 -0.6355  0.1674
  720SOL    HW2 2160   2.241   1.129   0.326 -0.2134 -3.6257  1.6618
  721SOL     OW 2161   2.238   0.016   2.002 -0.0924 -0.0966  0.0784
  721SOL    HW1 2162   2.266   0.099   1.944  1.9041 -0.8663 -1.5013
  721SOL    HW2 2163   2.147   0.027   2.050 -1.0260 -0.6351 -1.4963
  722SOL     OW 2164   2.391   1.645   0.494 -0.0131 -0.0236 -0.6133
  722SOL    HW1 2165   2.398   1.605   0.402  1.4961  1.5272  1.4780
  722SOL    HW2 2166   2.294   1.651   0.530  1.3502 -0.6402 -0.6484
  723SOL     OW 2167   2.590   2.854   1.902  1.0982  0.0966  0.0752
  723SOL    HW1 2168   2.659   2.870   1.980  0.9469 -2.1374 -0.6257
  723SOL    HW2 2169   2.489   2.856   1.933 -2.5566 -1.3193 -1.6239
  724SOL     OW 2170   0.300   2.422   2.356 -0.5604 -0.2357 -0.1229
  724SOL    HW1 2171   0.206   2.469   2.376 -0.3795 -0.1109  1.6962
  724SOL    HW2 2172   0.355   2.400   2.440 -2.5533  1.9221  0.4555
  725SOL     OW 2173   2.278   2.786   1.475  0.3215  0.0639  0.1346
  725SOL    HW1 2174   2.350   2.780   1.397 -0.1654 -0.6459  1.8110
  725SOL    HW2 2175   2.302   2.711   1.541  1.9429  1.9537 -3.0070
  726SOL     OW 2176   2.390   2.252   0.810  0.2251  0.0308  0.3160
  726SOL    HW1 2177   2.387   2.355   0.789  0.7627 -0.9768 -2.1527
  726SOL    HW2 2178   2.360   2.193   0.730  0.3113 -1.4606 -1.4648
  727SOL     OW 2179   0.231   3.063   0.166  0.1658  0.5456  0.0867
  727SOL    HW1 2180   0.253   2.969   0.127  0.1223 -0.7130 -2.0672
  727SOL    HW2 2181   0.284   3.137   0.119  0.9035  0.6770 -0.2535
  728SOL     OW 2182   2.846   0.647   1.019 -0.8191 -0.1930  0.9664
  728SOL    HW1 2183   2.764   0.628   0.952  0.4963 -2.5525  0.2683
  728SOL    HW2 2184   2.837   0.591   1.106  1.2474 -0.0037  1.1115
  729SOL     OW 2185   2.955   2.483   0.731  0.4562 -0.0286  0.0479
  729SOL    HW1 2186   2.891   2.400   0.731  0.7083  1.9688 -1.8165
  729SOL    HW2 2187   3.054   2.456   0.735 -1.3784  0.3448 -2.6988
  730SOL     OW 2188   2.633   0.582   0.878 -0.1560 -0.5796 -0.3582
  730SOL    HW1 2189   2.572   0.648   0.821  0.3746  2.1913  3.3290
  730SOL    HW2 2190   2.674   0.503   0.825  1.2995 -1.4520  1.2614
  731SOL     OW 2191   0.090   2.124   2.459  0.3678  0.3821  0.1580
  731SOL    HW1 2192   0.109   2.156   2.562  2.0374  0.7234  2.1249
  731SOL    HW2 2193   0.001   2.152   2.423  0.9677 -0.1979 -1.2604
  732SOL     OW 2194   1.125   2.840   1.986  0.5007  0.2134  0.7559
  732SOL    HW1 2195   1.155   2.767   2.055  1.4906  0.6814  1.9905
  732SOL    HW2 2196   1.152   2.820   1.889 -0.5681 -0.8460  0.7607
  733SOL     OW 2197   3.033   0.681   2.105  0.1633  0.3444 -0.0095
  733SOL    HW1 2198   3.118   0.737   2.112  1.5102 -1.4991 -2.6887
  733SOL    HW2 2199   3.037   0.613   2.025 -0.5244 -0.7646  0.0334
  734SOL     OW 2200   1.388   0.377   2.702 -0.1464 -0.0592 -0.1147
  734SOL    HW1 2201   1.414   0.461   2.764  2.0609  2.0679  0.6803
  734SOL    HW2 2202   1.330   0.311   2.753  0.4732  1.5069 -2.0809
  735SOL     OW 2203   2.805   2.640   2.292 -0.0197  0.1774  0.1547
  735SOL    HW1 2204   2.713   2.615   2.256  1.6096  0.4941  3.9202
  735SOL    HW2 2205   2.883   2.631   2.223 -1.4174 -1.0590 -0.8156
  736SOL     OW 2206   0.797   0.399   2.614  0.0971 -0.1959 -0.8745
  736SOL    HW1 2207   0.726   0.472   2.617 -0.8347 -1.8554 -1.1407
  736SOL    HW2 2208   0.814   0.352   2.523  1.9821  0.5312  2.7344
  737SOL     OW 2209   2.707   0.481   2.835 -0.0815 -0.7020  0.4485
  737SOL    HW1 2210   2.664   0.468   2.928  1.7700 -2.5557  0.4688
  737SOL    HW2 2211   2.788   0.420   2.831  0.0333  1.8800  0.7825
  738SOL     OW 2212   1.651   1.171   3.006 -0.3076 -0.3970  0.2853
  738SOL    HW1 2213   1.736   1.165   2.941  0.0784  1.3822 -0.7308
  738SOL    HW2 2214   1.642   1.099   3.079 -1.8615 -0.0355  0.3289
  739SOL     OW 2215   1.766   0.562   0.676  0.2263 -0.6376 -0.0854
  739SOL    HW1 2216   1.838   0.549   0.751  1.9620  0.5002  1.1942
  739SOL    HW2 2217   1.778   0.496   0.595  0.6241  1.7170 -1.2682
  740SOL     OW 2218   1.894   2.008   2.143 -0.0770  0.2688 -0.1458
  740SOL    HW1 2219   1.944   1.941   2.078  0.4324 -0.1584 -0.4079
  740SOL    HW2 2220   1.811   2.051   2.104 -0.7896  1.4065  0.0288
  741SOL     OW 2221   2.512   0.098   2.564 -0.3943 -0.4899  0.5363
  741SOL    HW1 2222   2.613   0.070   2.548  2.4829  1.8807 -0.8543
  741SOL    HW2 2223   2.452   0.086   2.480  0.4530 -2.2207  0.6892
  742SOL     OW 2224   2.246   1.388   0.041  0.0637 -0.2177  0.1094
  742SOL    HW1 2225   2.181   1.464   0.068 -0.1843  2.4602  1.1261
  742SOL    HW2 2226   2.204   1.298   0.047 -4.2240  1.3575  1.6075
  743SOL     OW 2227   1.741   0.640   2.651 -0.1410 -0.0030  0.1432
  743SOL    HW1 2228   1.767   0.622   2.555 -0.0506 -0.5471  0.5134
  743SOL    HW2 2229   1.677   0.722   2.658  0.9634 -0.2029 -3.2326
  744SOL     OW 2230   2.657   2.059   0.030  0.0130  0.7533  0.7246
  744SOL    HW1 2231   2.568   2.099   0.055  1.1369  1.5747 -1.2540
  744SOL    HW2 2232   2.704   2.000   0.102  0.0296 -1.4101 -2.7429
  745SOL     OW 2233   2.200   2.713   2.204 -0.3147  0.1859  0.1019
  745SOL    HW1 2234   2.108   2.688   2.167  1.1429  2.2789  1.1987
  745SOL    HW2 2235   2.193   2.763   2.297  2.3233 -0.5448  0.4525
  746SOL     OW 2236   3.083   2.600   1.839 -0.4916 -0.2287 -0.2090
  746SOL    HW1 2237   3.183   2.591   1.817 -1.1640 -0.8025 -0.2519
  746SOL    HW2 2238   3.060   2.698   1.866 -1.5317  0.4086  0.5282
  747SOL     OW 2239   0.015   1.796   1.707  0.0038 -0.0975 -0.2596
  747SOL    HW1 2240  -0.035   1.711   1.676  1.7394 -1.8915 -0.0630
  747SOL    HW2 2241   0.083   1.830   1.634  1.0875  0.1403 -0.9575
  748SOL     OW 2242   1.742   2.754   2.874 -0.5202  0.0618  0.1485
  748SOL    HW1 2243   1.775   2.782   2.966 -0.3999  0.7480 -2.4091
  748SOL    HW2 2244   1.643   2.757   2.869 -0.0378  0.3922 -1.3607
  749SOL     OW 2245   1.296   0.074   0.896  0.2525  0.4713  0.2379
  749SOL    HW1 2246   1.237  -0.006   0.932  1.2299 -1.9878  0.8926
  749SOL    HW2 2247   1.304   0.077   0.792  0.8809 -1.3588  1.7233
  750SOL     OW 2248   2.277   0.265   1.858 -0.2481 -0.1130 -0.2355
  750SOL    HW1 2249   2.359   0.291   1.791 -1.8171  1.4026 -0.6562
  750SOL    HW2 2250   2.296   0.292   1.958 -1.7155  1.7959  1.3871
  751SOL     OW 2251   0.842   2.251   2.888  0.4318 -0.0637  0.4751
  751SOL    HW1 2252   0.927   2.244   2.951  1.8834  1.2832  1.0625
  751SOL    HW2 2253   0.778   2.172   2.902  0.5514 -0.0743  3.1667
  752SOL     OW 2254   1.244   0.946   1.543  0.3276  0.0338 -0.3340
  752SOL    HW1 2255   1.316   0.975   1.471  1.2984 -0.9169  1.5396
  752SOL    HW2 2256   1.254   0.846   1.567  0.0004  0.5269 -0.9671
  753SOL     OW 2257   0.936   2.637   1.762 -0.2239 -0.6206 -0.1594
  753SOL    HW1 2258   1.038   2.657   1.734  0.9004  0.5622 -0.9953
  753SOL    HW2 2259   0.875   2.707   1.717  0.0249 -0.7172 -1.6290
  754SOL     OW 2260   1.147   1.314   3.036 -0.2696  0.3058 -0.7631
  754SOL    HW1 2261   1.182   1.254   2.961  0.1955  0.7838  0.0156
  754SOL    HW2 2262   1.132   1.416   3.006  1.3382  1.0883  0.7569
  755SOL     OW 2263   2.023   0.519   2.212 -0.3035  0.2629 -0.2464
  755SOL    HW1 2264   2.087   0.454   2.267  0.9835  0.5987  1.1111
  755SOL    HW2 2265   1.930   0.516   2.254  1.8279 -0.0216  1.3473
  756SOL     OW 2266   2.638   0.984   2.938  0.0261 -0.5970 -0.0315
  756SOL    HW1 2267   2.700   0.907   2.916 -1.9367 -1.0145  2.3993
  756SOL    HW2 2268   2.578   0.963   3.021  3.3891  4.7163  1.9413
  757SOL     OW 2269   0.122   0.502   1.711  0.6688 -0.3458  0.1129
  757SOL    HW1 2270   0.126   0.602   1.689  0.1229 -1.3588  0.8241
  757SOL    HW2 2271   0.197   0.446   1.658  3.8273 -0.9305 -0.9293
  758SOL     OW 2272   2.489   0.035   1.520  0.2025  0.8471 -0.0405
  758SOL    HW1 2273   2.404  -0.015   1.559 -1.1774 -0.7038 -0.2641
  758SOL    HW2 2274   2.487   0.036   1.416  1.2771 -2.4110  1.0663
  759SOL     OW 2275   1.656   0.088   0.074  0.2236  0.1314  0.3774
  759SOL    HW1 2276   1.621   0.113  -0.023 -1.3211  3.0149  2.0158
  759SOL    HW2 2277   1.751   0.044   0.067 -1.7593  1.8668 -0.4750
  760SOL     OW 2278   2.743   1.957   2.796  0.4422 -0.8490 -0.6074
  760SOL    HW1 2279   2.749   1.852   2.803 -2.4739  0.3717  1.8426
  760SOL    HW2 2280   2.829   1.994   2.755  0.7501 -0.4255 -0.5276
  761SOL     OW 2281   1.899   1.758   1.614 -0.1998  1.0481  0.1969
  761SOL    HW1 2282   1.947   1.664   1.621  1.3129 -0.9111  2.7313
  761SOL    HW2 2283   1.803   1.748   1.570 -0.2173 -0.5467  3.0296
  762SOL     OW 2284   0.527   2.422   1.000 -0.2614 -0.5483 -0.4271
  762SOL    HW1 2285   0.567   2.457   0.915  0.9494  0.3517  2.6129
  762SOL    HW2 2286   0.546   2.483   1.083 -0.4798 -1.6814  2.4108
  763SOL     OW 2287   2.010   1.579   2.968  0.5917  0.5955 -0.0186
  763SOL    HW1 2288   2.086   1.525   2.916  2.2132 -2.5902 -0.7910
  763SOL    HW2 2289   1.949   1.508   3.020 -2.2286 -1.6520 -2.3004
  764SOL     OW 2290   0.686   0.581   0.851  0.3419  0.7717 -0.1746
  764SOL    HW1 2291   0.675   0.536   0.761  0.6883 -1.3369  1.7247
  764SOL    HW2 2292   0.782   0.578   0.892  0.6776 -1.3168 -1.0515
  765SOL     OW 2293   0.663   0.211   0.803 -0.4576  0.2132 -0.0675
  765SOL    HW1 2294   0.751   0.230   0.749  0.0173  1.3827 -1.0855
  765SOL    HW2 2295   0.672   0.247   0.899  0.8801  2.2773 -0.7161
  766SOL     OW 2296   2.990   1.995   3.039  1.0383 -0.2796 -0.0653
  766SOL    HW1 2297   2.900   1.999   2.992 -1.5854 -2.2555  1.2590
  766SOL    HW2 2298   3.031   2.091   3.049  0.4074  0.5732  0.6811
  767SOL     OW 2299   2.823   1.565   0.508 -1.1373 -0.1263 -0.9647
  767SOL    HW1 2300   2.730   1.593   0.546 -1.9230 -0.1709 -1.0096
  767SOL    HW2 2301   2.900   1.580   0.573 -1.2084 -1.2464  1.1670
  768SOL     OW 2302   1.050   0.318   0.281  0.3011  0.1442 -0.8481
  768SOL    HW1 2303   0.949   0.297   0.274 -1.1278  0.8385 -0.7835
  768SOL    HW2 2304   1.107   0.240   0.263 -0.9705  0.7681  1.6584
  769SOL     OW 2305   1.254   1.829   2.275  0.5446  0.5128 -0.5439
  769SOL    HW1 2306   1.349   1.830   2.247  0.8351 -1.6703 -2.7737
  769SOL    HW2 2307   1.201   1.735   2.266 -0.3560  0.4050  0.0901
  770SOL     OW 2308   0.168   1.107   2.325 -0.0931 -0.4709 -0.4515
  770SOL    HW1 2309   0.143   1.182   2.396  2.5535 -2.3544 -2.2748
  770SOL    HW2 2310   0.111   1.110   2.240 -0.0068 -1.5596 -0.5958
  771SOL     OW 2311   2.957   2.828   1.935  0.2053  0.4943 -0.3128
  771SOL    HW1 2312   2.957   2.888   1.849  0.1735  2.3226 -4.6985
  771SOL    HW2 2313   2.949   2.882   2.022 -0.7984 -2.4741 -0.0426
  772SOL     OW 2314   2.124   0.079   2.997 -0.3026 -0.5403  0.2405
  772SOL    HW1 2315   2.206   0.019   2.972  2.1156  0.0357 -0.5380
  772SOL    HW2 2316   2.151   0.166   3.046  0.0438 -0.9317 -0.0734
  773SOL     OW 2317   0.731   2.137   2.467  0.5309  0.1269  0.0856
  773SOL    HW1 2318   0.679   2.177   2.385 -0.8405  2.2019 -1.1509
  773SOL    HW2 2319   0.670   2.114   2.549 -2.3499 -1.9881 -1.8242
  774SOL     OW 2320   2.013   0.032   2.663 -0.3445  0.1824 -0.3219
  774SOL    HW1 2321   2.023   0.122   2.707  1.1302 -2.6253  1.9168
  774SOL    HW2 2322   2.044  -0.050   2.722 -1.9316  0.1206 -0.5230
  775SOL     OW 2323   2.520   2.886   2.384  0.3974  0.4258 -0.1193
  775SOL    HW1 2324   2.489   2.979   2.353 -0.3926 -0.2123  0.3505
  775SOL    HW2 2325   2.609   2.883   2.433 -2.2726 -1.0193  0.8061
  776SOL     OW 2326   0.010   1.183   0.263  0.0895 -0.5287  0.3443
  776SOL    HW1 2327  -0.047   1.231   0.190 -0.3391 -1.7394 -1.5108
  776SOL    HW2 2328  -0.045   1.187   0.350 -1.9134 -3.2450 -1.2651
  777SOL     OW 2329   0.328   2.684   0.405  0.5214  0.4168 -0.1895
  777SOL    HW1 2330   0.229   2.667   0.424  0.7926  1.0085  1.2328
  777SOL    HW2 2331   0.341   2.786   0.398 -1.7225  1.3057 -0.5163
  778SOL     OW 2332   1.327   1.949   0.169  0.2305  0.6733 -0.4436
  778SOL    HW1 2333   1.262   1.963   0.250 -0.3917  0.0212 -0.7185
  778SOL    HW2 2334   1.352   2.042   0.128  2.5279  2.1644 -1.3470
  779SOL     OW 2335   0.173   0.830   0.525 -0.0081 -0.3246 -0.4371
  779SOL    HW1 2336   0.151   0.732   0.496  3.4440 -0.2300  0.8472
  779SOL    HW2 2337   0.106   0.876   0.592  0.3586  2.0100 -0.8844
  780SOL     OW 2338   0.033   0.289   2.369  0.6850  0.4298 -0.0539
  780SOL    HW1 2339  -0.010   0.381   2.381 -0.3214 -0.1652 -0.0407
  780SOL    HW2 2340   0.126   0.294   2.322  1.5074  0.4438 -0.9067
  781SOL     OW 2341   0.564   1.782   1.620 -0.3973  0.2617 -0.2545
  781SOL    HW1 2342   0.588   1.787   1.721  2.5523 -1.1358 -1.7564
  781SOL    HW2 2343   0.513   1.691   1.604 -2.7247 -2.0765 -1.3872
  782SOL     OW 2344   2.645   0.126   0.890  0.3839 -0.4640 -0.2053
  782SOL    HW1 2345   2.565   0.123   0.820 -0.0648 -3.2867  1.7565
  782SOL    HW2 2346   2.610   0.144   0.988 -1.6471 -0.5760 -1.5057
  783SOL     OW 2347   2.816   0.666   2.530 -0.1830 -0.4352  0.2801
  783SOL    HW1 2348   2.785   0.702   2.622  1.1617  1.6283  3.4243
  783SOL    HW2 2349   2.755   0.595   2.486  2.6317 -1.1164 -0.8452
  784SOL     OW 2350   1.377   2.213   0.042  0.2115 -0.1808  0.3333
  784SOL    HW1 2351   1.476   2.219   0.079 -0.1512 -0.8798 -0.1647
  784SOL    HW2 2352   1.365   2.200  -0.059 -1.5025 -0.6527 -2.0730
  785SOL     OW 2353   2.182   0.319   0.024  0.3562 -0.0548  0.0013
  785SOL    HW1 2354   2.090   0.323   0.079  1.7598 -3.5650  1.7544
  785SOL    HW2 2355   2.212   0.409  -0.021  0.4187 -2.2266  0.4351
  786SOL     OW 2356   2.072   2.200   2.249  0.4925  0.0886 -0.2344
  786SOL    HW1 2357   1.998   2.129   2.213  0.8269 -0.7280 -0.7089
  786SOL    HW2 2358   2.160   2.148   2.283  2.8646 -1.8090 -1.4636
  787SOL     OW 2359   1.409   0.630   0.764 -0.3703  0.3941 -0.6741
  787SOL    HW1 2360   1.418   0.730   0.768 -3.2324 -2.9563  0.2112
  787SOL    HW2 2361   1.424   0.574   0.674  2.5887  0.7363 -0.0368
  788SOL     OW 2362   1.211   0.477   2.971  0.4423  0.4078 -0.2807
  788SOL    HW1 2363   1.141   0.436   2.905 -0.2505  0.2934  0.6111
  788SOL    HW2 2364   1.266   0.544   2.925 -0.8365 -2.3585 -2.2179
  789SOL     OW 2365   2.643   0.060   1.861 -0.3108 -0.1044 -0.1416
  789SOL    HW1 2366   2.559   0.002   1.834 -0.4364 -1.5073  0.5983
  789SOL    HW2 2367   2.703   0.011   1.923 -1.1435 -0.8060  0.6648
  790SOL     OW 2368   2.605   2.671   0.829 -0.3260  0.0779  0.1769
  790SOL    HW1 2369   2.681   2.667   0.753  2.9936  0.1621  1.3099
  790SOL    HW2 2370   2.611   2.761   0.883 -0.7818  2.0491 -2.2319
  791SOL     OW 2371   1.943   1.207   0.194  0.0360 -0.5464  0.3829
  791SOL    HW1 2372   1.865   1.149   0.234 -2.0501 -2.5651 -1.9588
  791SOL    HW2 2373   2.008   1.146   0.141 -2.3734  1.5155  1.0745
  792SOL     OW 2374   0.455   1.977   2.211  0.1850 -0.1135  0.1509
  792SOL    HW1 2375   0.466   2.082   2.219  0.6942  0.2467  1.1070
  792SOL    HW2 2376   0.387   1.940   2.281 -2.1147 -1.4340  1.6926
  793SOL     OW 2377   2.101   1.501   2.064  0.1751  0.1238 -1.0082
  793SOL    HW1 2378   2.179   1.568   2.055  0.2560 -1.4886  0.4238
  793SOL    HW2 2379   2.108   1.431   1.997 -3.3777  0.6367  4.1773
  794SOL     OW 2380   0.548   1.543   2.470  0.0060  0.5353  0.2915
  794SOL    HW1 2381   0.633   1.480   2.459 -1.8315 -1.4153  0.6967
  794SOL    HW2 2382   0.491   1.542   2.384  3.5019 -0.0050 -0.6528
  795SOL     OW 2383   2.473   2.319   1.832 -0.3846  0.5704  0.5597
  795SOL    HW1 2384   2.503   2.326   1.929  0.2075 -1.5426  2.1643
  795SOL    HW2 2385   2.383   2.264   1.817  1.6867  0.8516  1.4879
  796SOL     OW 2386   3.034   1.104   2.710 -0.8669  0.2400  0.1510
  796SOL    HW1 2387   2.930   1.112   2.734 -1.4355  0.6085 -0.5624
  796SOL    HW2 2388   3.099   1.130   2.791  0.0962  0.9014  2.1589
  797SOL     OW 2389   0.665   0.631   1.358 -0.0323 -0.3176 -0.5199
  797SOL    HW1 2390   0.737   0.674   1.418  1.6412  1.3780 -2.5048
  797SOL    HW2 2391   0.645   0.672   1.266  0.3530 -2.6999  0.0259
  798SOL     OW 2392   1.177   0.514   0.920  0.3927 -0.4100 -0.3753
  798SOL    HW1 2393   1.189   0.578   1.002 -1.4930  2.7711 -1.4151
  798SOL    HW2 2394   1.246   0.539   0.850 -1.8685 -1.5845  1.0691
  799SOL     OW 2395   1.811   2.708   1.013 -0.5509 -0.0331  0.5704
  799SOL    HW1 2396   1.807   2.612   1.054 -1.4079 -0.6872  0.7334
  799SOL    HW2 2397   1.836   2.721   0.914  1.3109  3.6283  2.9184
  800SOL     OW 2398   3.009   0.819   1.864 -0.2190 -0.2346  0.2134
  800SOL    HW1 2399   3.021   0.919   1.880 -1.0164  0.1264 -0.7662
  800SOL    HW2 2400   2.975   0.778   1.951 -0.4200 -0.3838 -0.2554
  801SOL     OW 2401   1.956   2.181   0.099  0.0698  0.8565 -0.0614
  801SOL    HW1 2402   1.943   2.242   0.015 -0.4281  0.7677 -0.7918
  801SOL    HW2 2403   2.024   2.105   0.082 -0.6529  1.4634 -1.2426
  802SOL     OW 2404   0.644   0.644   2.568 -0.5354  0.2740 -0.5549
  802SOL    HW1 2405   0.712   0.655   2.491 -0.0970 -1.4290 -1.7196
  802SOL    HW2 2406   0.547   0.641   2.535 -1.3505  1.2443  0.2406
  803SOL     OW 2407   0.947   0.108   0.897  0.3096  0.3679  0.1364
  803SOL    HW1 2408   1.018   0.175   0.941 -0.6197  1.0838 -1.8871
  803SOL    HW2 2409   0.935   0.136   0.796  0.8301 -0.1524 -0.4373
  804SOL     OW 2410   0.306   0.034   2.204  0.6442 -0.2268 -0.0252
  804SOL    HW1 2411   0.268   0.126   2.222  1.8120 -1.2085  0.0820
  804SOL    HW2 2412   0.248  -0.014   2.135 -0.2614  0.3485  1.7184
  805SOL     OW 2413   2.407   0.372   0.321 -0.7223  0.1566 -0.3514
  805SOL    HW1 2414   2.475   0.360   0.397  1.5555 -0.4709  1.8013
  805SOL    HW2 2415   2.399   0.291   0.253  0.9396 -1.8813 -0.9848
  806SOL     OW 2416   0.595   2.642   1.900  0.4667  0.3853  0.9892
  806SOL    HW1 2417   0.522   2.699   1.943 -0.0282 -0.5154 -0.8906
  806SOL    HW2 2418   0.643   2.692   1.823  0.7646  1.1384 -1.8405
  807SOL     OW 2419   2.521   0.917   0.484 -0.1641 -0.4523  0.2216
  807SOL    HW1 2420   2.610   0.866   0.495 -0.2417 -1.4944  1.8077
  807SOL    HW2 2421   2.515   0.975   0.394 -1.1411  1.0374  1.9890
  808SOL     OW 2422   0.681   2.026   2.938  0.3392  0.2053 -0.0043
  808SOL    HW1 2423   0.643   2.044   3.035 -0.2725 -0.2488  0.7965
  808SOL    HW2 2424   0.695   1.919   2.924 -0.5110 -0.7492  1.4622
  809SOL     OW 2425   2.584   1.986   1.918  0.1035  0.3879 -0.0402
  809SOL    HW1 2426   2.671   2.032   1.947  0.2923  0.9084  0.9257
  809SOL    HW2 2427   2.549   1.999   1.820 -1.7690 -1.2176 -2.3024
  810SOL     OW 2428   2.187   1.134   0.483 -0.1090  0.8669 -0.1473
  810SOL    HW1 2429   2.158   1.038   0.503  1.5144 -0.7580 -2.6135
  810SOL    HW2 2430   2.146   1.206   0.541 -1.0837  1.5246  0.0354
  811SOL     OW 2431   1.265   2.492   1.145 -0.6060  0.3151 -0.7133
  811SOL    HW1 2432   1.202   2.427   1.192 -0.6228 -0.3141  3.3113
  811SOL    HW2 2433   1.350   2.505   1.198 -1.5801  4.3536  2.4610
  812SOL     OW 2434   1.486   0.744   1.979 -0.6875 -0.2237  0.7070
  812SOL    HW1 2435   1.440   0.778   2.061  0.9265 -1.1681  1.2498
  812SOL    HW2 2436   1.507   0.819   1.911 -1.2419 -0.3810 -2.7178
  813SOL     OW 2437   1.687   2.048   2.392 -0.5438  0.0660  0.1686
  813SOL    HW1 2438   1.779   2.018   2.435  0.6511 -0.5395 -0.6561
  813SOL    HW2 2439   1.676   2.007   2.297  0.8594 -1.2208 -1.5549
  814SOL     OW 2440   3.021   1.689   2.913  0.5694  0.3869  0.3438
  814SOL    HW1 2441   3.077   1.642   2.989 -0.0581  1.1606  0.4707
  814SOL    HW2 2442   3.028   1.789   2.906 -0.6835  1.2341 -2.0556
  815SOL     OW 2443   2.168   2.841   2.734  0.1050  0.2334  0.0269
  815SOL    HW1 2444   2.135   2.778   2.812  2.9742 -2.1186 -0.2971
  815SOL    HW2 2445   2.256   2.890   2.755 -1.3010 -0.0820 -1.7274
  816SOL     OW 2446   1.478   0.402   1.659 -0.4025  0.4061  0.4144
  816SOL    HW1 2447   1.520   0.306   1.662  0.9817 -2.0708 -1.8937
  816SOL    HW2 2448   1.419   0.427   1.738 -0.2678  1.2823 -0.1186
  817SOL     OW 2449   0.362   1.291   2.579  0.0903 -0.5847 -0.5299
  817SOL    HW1 2450   0.260   1.317   2.590  0.5527  1.6400 -2.4658
  817SOL    HW2 2451   0.399   1.334   2.491 -0.2749 -0.8702  1.3047
  818SOL     OW 2452   2.013   0.833   0.459 -0.2910 -0.5253  0.0196
  818SOL    HW1 2453   2.120   0.829   0.467 -1.2213 -0.1160  0.3335
  818SOL    HW2 2454   1.967   0.897   0.527 -0.2323 -1.2580 -2.0690
  819SOL     OW 2455   2.790   2.913   2.964  0.0631  0.2561  0.4260
  819SOL    HW1 2456   2.866   2.843   2.941 -0.5091 -0.7258 -2.4351
  819SOL    HW2 2457   2.699   2.889   2.930  0.6285 -2.5883 -0.4275
  820SOL     OW 2458   1.222   1.047   0.553 -0.2660  0.5236  0.0397
  820SOL    HW1 2459   1.275   1.133   0.589 -2.0334 -0.0554  1.1152
  820SOL    HW2 2460   1.187   0.988   0.636  2.7106  1.8141 -0.7093
  821SOL     OW 2461   0.035   1.241   0.724 -0.7880 -0.3303  0.2776
  821SOL    HW1 2462  -0.005   1.261   0.818  2.8553 -0.6327 -0.6013
  821SOL    HW2 2463   0.100   1.312   0.683 -0.2533  2.0262 -0.8328
  822SOL     OW 2464   2.548   1.753   2.472  0.0178  0.1109 -0.0308
  822SOL    HW1 2465   2.548   1.821   2.551  0.8786 -0.3261  0.8884
  822SOL    HW2 2466   2.468   1.768   2.408  0.4538 -0.2851 -0.2238
  823SOL     OW 2467   2.013   0.920   1.177 -0.8391  0.0412  0.0219
  823SOL    HW1 2468   2.013   0.866   1.268 -1.0967 -0.1629  0.3537
  823SOL    HW2 2469   1.955   0.870   1.109  1.2936  3.1690  2.2361
  824SOL     OW 2470   0.167   1.835   2.836 -0.6035 -0.1392 -0.1532
  824SOL    HW1 2471   0.183   1.811   2.935 -0.5485  3.0448  1.8587
  824SOL    HW2 2472   0.259   1.862   2.789  2.5618  0.0623 -0.1021
  825SOL     OW 2473   1.288   1.054   0.285 -0.4446 -0.4319  0.4632
  825SOL    HW1 2474   1.287   1.158   0.272  1.0135 -1.7381  1.5467
  825SOL    HW2 2475   1.281   1.034   0.384  2.1634  0.9865  0.5269
  826SOL     OW 2476   1.965   0.631   1.611  0.5325  0.3194  0.0434
  826SOL    HW1 2477   2.043   0.569   1.642  0.7777  2.9832 -1.3291
  826SOL    HW2 2478   1.880   0.577   1.584  0.8637  2.9971  0.3988
  827SOL     OW 2479   0.716   1.187   0.497  0.5432 -0.2041  0.3148
  827SOL    HW1 2480   0.809   1.153   0.461 -0.7150  1.2695  1.2333
  827SOL    HW2 2481   0.634   1.125   0.475  0.1761 -0.6335  0.5050
  828SOL     OW 2482   2.711   0.210   1.583  0.8691  0.0498  0.6531
  828SOL    HW1 2483   2.619   0.188   1.546 -0.3998 -0.6034  0.3864
  828SOL    HW2 2484   2.708   0.215   1.686  0.3938  0.6824 -0.1742
  829SOL     OW 2485   2.912   2.395   2.906 -0.2482 -0.5944 -0.7857
  829SOL    HW1 2486   2.832   2.347   2.959  0.3812 -1.5591  0.2711
  829SOL    HW2 2487   2.901   2.495   2.882 -1.0198  0.5998  0.2501
  830SOL     OW 2488   2.935   0.914   2.985  0.0997  0.2973 -0.3489
  830SOL    HW1 2489   2.964   1.005   3.024  2.6038 -1.0299 -1.1074
  830SOL    HW2 2490   2.915   0.837   3.053  0.4087 -0.2325 -0.2463
  831SOL     OW 2491   0.051   0.556   0.462 -0.6111  0.2186  0.4228
  831SOL    HW1 2492   0.034   0.500   0.549 -1.0475 -1.7912 -1.2644
  831SOL    HW2 2493   0.090   0.499   0.386 -2.6038 -0.4709  0.1525
  832SOL     OW 2494   1.795   0.698   0.030 -0.4725  0.3808  0.4283
  832SOL    HW1 2495   1.711   0.743  -0.012 -0.0157  4.3786 -0.9517
  832SOL    HW2 2496   1.789   0.593   0.031  0.1730  1.4864  1.6138
  833SOL     OW 2497   2.341   2.119   0.568 -0.0684  0.1376  0.0134
  833SOL    HW1 2498   2.246   2.096   0.532 -1.8012  0.1771 -0.2197
  833SOL    HW2 2499   2.420   2.069   0.523 -0.8555 -3.2261  1.9321
  834SOL     OW 2500   0.104   0.059   0.564 -0.1859  0.2423  0.0404
  834SOL    HW1 2501   0.187  -0.001   0.546  0.5152  0.2726 -3.0017
  834SOL    HW2 2502   0.075   0.115   0.485 -3.0147 -0.9500  2.3978
  835SOL     OW 2503   2.463   1.682   1.143  0.2149  0.3709 -0.4630
  835SOL    HW1 2504   2.531   1.615   1.179  1.1655  1.3460  0.9918
  835SOL    HW2 2505   2.504   1.764   1.088 -0.2891  2.6036 -1.7752
  836SOL     OW 2506   1.534   0.831   2.606 -0.0077  0.0962  0.5216
  836SOL    HW1 2507   1.432   0.859   2.619 -1.3301 -1.6475  1.5751
  836SOL    HW2 2508   1.579   0.878   2.526 -0.0989  2.8160 -2.4151
  837SOL     OW 2509   1.720   0.077   0.541 -0.2129 -0.2850  0.4099
  837SOL    HW1 2510   1.717   0.166   0.585  1.2720 -0.8029  0.1501
  837SOL    HW2 2511   1.663   0.080   0.454  0.5798  1.0920 -1.5292
  838SOL     OW 2512   1.159   1.479   2.683 -0.5790 -0.3464 -0.1033
  838SOL    HW1 2513   1.104   1.490   2.771  1.9507 -1.5094  0.7599
  838SOL    HW2 2514   1.154   1.387   2.634 -0.4138 -2.0043  2.5506
  839SOL     OW 2515   1.650   0.406   0.961 -0.1183  0.3914 -0.3341
  839SOL    HW1 2516   1.592   0.480   0.999 -2.9000 -2.3477  2.8522
  839SOL    HW2 2517   1.611   0.312   0.957  1.5324  3.6852 -0.1478
  840SOL     OW 2518   2.654   2.950   1.650  0.8009 -0.1481 -0.6174
  840SOL    HW1 2519   2.603   3.040   1.620  2.4368  0.6042 -3.0102
  840SOL    HW2 2520   2.618   2.904   1.737 -3.9409  0.4994 -0.9870
  841SOL     OW 2521   1.541   0.845   3.072 -0.3251  0.1549  0.1582
  841SOL    HW1 2522   1.456   0.825   3.123  2.5746 -1.4308 -1.6464
  841SOL    HW2 2523   1.533   0.883   2.982  2.5093 -1.0446  1.5672
  842SOL     OW 2524   0.829   1.624   1.025 -0.3024  0.1582  0.1491
  842SOL    HW1 2525   0.770   1.707   1.031  0.1430  2.4315 -1.1022
  842SOL    HW2 2526   0.783   1.549   0.968  1.4922  1.4313 -0.6212
  843SOL     OW 2527   0.170   0.069   1.433  0.1132  0.1017 -0.4347
  843SOL    HW1 2528   0.241   0.118   1.494  1.6182  1.0098  2.1525
  843SOL    HW2 2529   0.176  -0.035   1.429 -0.1311  0.1579 -2.0349
  844SOL     OW 2530   0.715   2.441   0.199  0.0755 -0.1427  0.1008
  844SOL    HW1 2531   0.659   2.457   0.285 -0.4599 -0.2938  0.0473
  844SOL    HW2 2532   0.654   2.425   0.116 -1.4628 -1.4977  0.9160
  845SOL     OW 2533   1.750   0.012   1.266  0.2459 -0.2186 -0.0296
  845SOL    HW1 2534   1.682  -0.016   1.339  0.7880 -1.7879  2.7006
  845SOL    HW2 2535   1.772   0.110   1.271 -0.1184 -0.7426 -0.0414
  846SOL     OW 2536   1.676   3.029   0.907 -0.2008 -0.1600 -0.3328
  846SOL    HW1 2537   1.689   3.032   0.803  0.6954  0.4123  1.1202
  846SOL    HW2 2538   1.725   2.947   0.957 -0.0936 -2.1763 -1.0328
  847SOL     OW 2539   2.079   1.612   0.145 -0.3323 -0.5829 -0.3564
  847SOL    HW1 2540   2.018   1.572   0.222 -4.1331 -0.3997  1.1571
  847SOL    HW2 2541   2.039   1.595   0.050 -1.6085  1.7581  1.8550
  848SOL     OW 2542   2.513   0.791   2.649  0.2608 -0.4414  0.2050
  848SOL    HW1 2543   2.486   0.892   2.637 -1.3564  0.3000  0.7092
  848SOL    HW2 2544   2.441   0.741   2.594 -3.0198  0.4665 -0.1796
  849SOL     OW 2545   2.379   0.846   2.298  0.2673  0.3414 -0.2704
  849SOL    HW1 2546   2.441   0.806   2.227 -1.8850  3.8672  0.5328
  849SOL    HW2 2547   2.350   0.780   2.375 -0.0153 -0.9156  1.2159
  850SOL     OW 2548   1.506   0.220   1.267 -0.2884  0.6324 -0.1512
  850SOL    HW1 2549   1.505   0.195   1.168 -0.6779 -1.9187  1.1966
  850SOL    HW2 2550   1.473   0.144   1.332  0.7855  0.1688  1.1802
  851SOL     OW 2551   0.445   1.671   0.626  0.0603  0.0915 -0.0544
  851SOL    HW1 2552   0.437   1.769   0.657  2.5173 -0.1433 -2.5263
  851SOL    HW2 2553   0.539   1.637   0.631 -2.0630 -0.6175 -3.2301
  852SOL     OW 2554   0.839   2.195   1.756 -0.3272 -0.4603  0.9602
  852SOL    HW1 2555   0.811   2.284   1.701 -1.8580  0.1042 -2.5481
  852SOL    HW2 2556   0.774   2.160   1.824  0.9079  1.0931 -1.3872
  853SOL     OW 2557   2.582   1.511   2.564 -0.9532  0.1773 -0.0495
  853SOL    HW1 2558   2.533   1.433   2.530  0.7149  0.0040 -1.8022
  853SOL    HW2 2559   2.577   1.599   2.511 -2.0658 -0.0087  0.3953
  854SOL     OW 2560   2.465   1.449   1.769  0.2256  0.0654 -0.4694
  854SOL    HW1 2561   2.508   1.416   1.681  0.5465 -1.1321 -1.3754
  854SOL    HW2 2562   2.405   1.373   1.801  0.2882  1.2283  0.7789
  855SOL     OW 2563   2.039   2.299   0.988  0.1823  0.6066 -0.2373
  855SOL    HW1 2564   2.083   2.380   0.945 -1.6028 -0.2307 -1.4212
  855SOL    HW2 2565   2.093   2.259   1.065 -0.0912 -0.0726 -3.4509
  856SOL     OW 2566   1.429   1.447   0.877 -0.0840  0.4971 -0.5574
  856SOL    HW1 2567   1.468   1.541   0.879  1.1105 -0.4018  0.7490
  856SOL    HW2 2568   1.348   1.425   0.938 -0.9652 -1.4412 -3.4301
  857SOL     OW 2569   2.908   2.522   1.076  0.4264 -0.0670  0.4013
  857SOL    HW1 2570   2.837   2.456   1.118  0.2671 -3.6654  1.2870
  857SOL    HW2 2571   2.930   2.505   0.977  3.3006 -0.2567  0.4122
  858SOL     OW 2572   2.262   2.130   1.788 -0.5570  0.4771 -0.6129
  858SOL    HW1 2573   2.170   2.148   1.743 -2.5519  2.2733 -0.2312
  858SOL    HW2 2574   2.313   2.058   1.730  1.1662 -2.2037  0.7884
  859SOL     OW 2575   2.448   0.384   0.983  0.1996  0.7089  0.4116
  859SOL    HW1 2576   2.526   0.439   0.938  1.6917 -0.1462  0.0306
  859SOL    HW2 2577   2.490   0.311   1.036  2.7678  2.3572 -1.0390
  860SOL     OW 2578   1.904   2.808   0.505 -0.7326 -0.5625  0.5256
  860SOL    HW1 2579   1.886   2.780   0.405 -0.1991  0.1115 -1.1445
  860SOL    HW2 2580   1.926   2.911   0.512 -1.2602  2.2390  0.5882
  861SOL     OW 2581   1.008   2.567   2.808 -0.0225  0.1491 -0.0951
  861SOL    HW1 2582   1.070   2.649   2.812  0.0841  1.8465 -0.4093
  861SOL    HW2 2583   0.993   2.518   2.896 -0.5783 -0.1954 -0.4586
  862SOL     OW 2584   2.969   2.625   1.562 -0.5543 -0.1509 -0.2770
  862SOL    HW1 2585   3.006   2.582   1.649  1.0189  1.6499  0.8346
  862SOL    HW2 2586   2.870   2.651   1.566 -1.8446 -0.3216 -0.1654
  863SOL     OW 2587   1.861   2.694   0.273 -0.0145 -0.5223 -0.6436
  863SOL    HW1 2588   1.947   2.641   0.240  3.6162 -0.3188 -1.5747
  863SOL    HW2 2589   1.771   2.651   0.247 -1.8612  2.7835 -1.7763
  864SOL     OW 2590   1.912   1.136   2.950  0.2241 -0.1278  0.3443
  864SOL    HW1 2591   1.939   1.113   2.856  0.4492 -0.5603  2.0176
  864SOL    HW2 2592   1.978   1.110   3.024 -1.0349  0.7162  3.1104
  865SOL     OW 2593   2.135   1.711   0.611  0.4324 -0.1961 -0.3894
  865SOL    HW1 2594   2.148   1.737   0.710 -0.8376 -2.9268  1.1430
  865SOL    HW2 2595   2.085   1.622   0.608 -1.2878 -2.5302 -1.5738
  866SOL     OW 2596   2.880   2.819   1.004 -0.0545  0.6859 -0.3438
  866SOL    HW1 2597   2.938   2.817   0.917 -2.3933  0.2992  1.1528
  866SOL    HW2 2598   2.880   2.728   1.058  1.1454 -0.7073 -0.2653
  867SOL     OW 2599   0.429   1.361   0.831 -0.3879 -0.0105 -0.2107
  867SOL    HW1 2600   0.434   1.258   0.816  1.7423  1.0772 -0.0887
  867SOL    HW2 2601   0.342   1.400   0.784 -1.9903  0.1707 -4.7069
  868SOL     OW 2602   0.845   1.898   2.015 -0.1846 -0.4777  0.2300
  868SOL    HW1 2603   0.804   1.851   2.096 -0.5582  0.5731 -4.0968
  868SOL    HW2 2604   0.791   1.986   2.001  0.0057 -1.3453  0.6657
  869SOL     OW 2605   2.525   2.005   1.652  0.2099  0.0347  0.1480
  869SOL    HW1 2606   2.618   1.959   1.651 -3.4450 -3.0566 -0.5207
  869SOL    HW2 2607   2.465   1.967   1.572  1.8330 -0.5892 -0.4058
  870SOL     OW 2608   2.394   2.515   1.197 -0.1575  0.1578  0.4847
  870SOL    HW1 2609   2.343   2.427   1.180  0.5690  2.2379  0.8338
  870SOL    HW2 2610   2.480   2.511   1.258  1.3285  0.0515 -1.3909
  871SOL     OW 2611   3.044   1.992   0.528  0.0150  0.0584  0.5120
  871SOL    HW1 2612   2.952   2.038   0.508  0.9448  0.0977 -0.6137
  871SOL    HW2 2613   3.080   1.944   0.441  1.4400 -1.0798 -1.2315
  872SOL     OW 2614   2.172   0.485   1.704  0.1855  0.6673 -0.2649
  872SOL    HW1 2615   2.126   0.463   1.795  1.0592 -0.9436 -2.2158
  872SOL    HW2 2616   2.271   0.463   1.706 -4.1310 -0.3460 -1.3976
  873SOL     OW 2617   1.731   2.074   2.863 -0.0119 -0.0480 -0.1508
  873SOL    HW1 2618   1.704   2.167   2.897  1.2536  0.9824  1.1528
  873SOL    HW2 2619   1.667   2.054   2.784 -0.5291 -1.7502  0.2280
  874SOL     OW 2620   0.618   2.530   0.738 -0.6134  0.1797 -0.0061
  874SOL    HW1 2621   0.607   2.630   0.755 -2.7341 -2.4991  0.1965
  874SOL    HW2 2622   0.721   2.505   0.749 -0.4108 -3.5299 -1.5416
  875SOL     OW 2623   2.306   1.572   1.460  0.2703 -0.3802  0.2470
  875SOL    HW1 2624   2.388   1.610   1.510 -0.6553  2.4628  0.6031
  875SOL    HW2 2625   2.303   1.610   1.365  0.3901  1.0660  3.6071
  876SOL     OW 2626   0.123   2.236   2.725 -0.4374 -0.1407  0.1666
  876SOL    HW1 2627   0.147   2.150   2.782 -0.7569 -1.8318  2.3500
  876SOL    HW2 2628   0.179   2.321   2.753  1.0675  2.9124  1.5349
  877SOL     OW 2629   2.777   2.647   0.604  0.2119 -0.0978  0.0590
  877SOL    HW1 2630   2.801   2.748   0.614 -0.9912  2.3028  0.1106
  877SOL    HW2 2631   2.847   2.589   0.648 -2.3779 -2.5472  0.9976
  878SOL     OW 2632   2.753   1.531   2.273 -0.1583 -0.0299  0.0279
  878SOL    HW1 2633   2.724   1.627   2.279 -1.1792 -1.3173 -0.9242
  878SOL    HW2 2634   2.804   1.498   2.353  0.3685 -1.1857 -1.2928
  879SOL     OW 2635   2.395   3.074   1.251  1.0405 -0.3433  0.4209
  879SOL    HW1 2636   2.423   2.975   1.272 -1.2666  0.8252 -0.1397
  879SOL    HW2 2637   2.299   3.084   1.211  1.0701 -0.3396  0.1177
  880SOL     OW 2638   0.590   0.484   2.220 -0.0286  0.9404  0.4202
  880SOL    HW1 2639   0.543   0.437   2.302 -1.7600 -2.1938  3.3984
  880SOL    HW2 2640   0.572   0.423   2.134 -3.4594  0.7679 -2.4745
  881SOL     OW 2641   0.859   0.079   0.418 -0.0923  0.0251  0.5246
  881SOL    HW1 2642   0.921   0.010   0.372 -0.3821 -0.9372  1.1696
  881SOL    HW2 2643   0.790   0.120   0.353 -1.4100 -3.5628  1.4387
  882SOL     OW 2644   2.772   1.781   1.674  0.4105  0.2923  0.6000
  882SOL    HW1 2645   2.848   1.720   1.661 -1.2741  2.0797 -0.3950
  882SOL    HW2 2646   2.723   1.762   1.765 -0.9410  1.3324  0.4531
  883SOL     OW 2647   0.932   0.598   0.962 -0.1722 -0.0180  0.3114
  883SOL    HW1 2648   0.940   0.687   1.011  2.4507  0.3522 -1.1071
  883SOL    HW2 2649   1.024   0.555   0.936 -1.2341  0.8230  0.1859
  884SOL     OW 2650   1.172   1.871   1.073  0.5789  0.5338 -0.2061
  884SOL    HW1 2651   1.155   1.847   0.973 -1.6976  2.2989 -1.5955
  884SOL    HW2 2652   1.089   1.922   1.112 -1.3346  1.0171  1.3568
  885SOL     OW 2653   2.304   1.757   2.349  0.6004  0.1637 -0.5877
  885SOL    HW1 2654   2.237   1.700   2.412  3.0541 -0.2754  0.8253
  885SOL    HW2 2655   2.273   1.855   2.340  3.1449 -1.9167  0.1811
  886SOL     OW 2656   2.698   0.461   1.806  0.0893  0.0403 -0.1632
  886SOL    HW1 2657   2.752   0.422   1.886  0.2893  0.0169  0.9644
  886SOL    HW2 2658   2.740   0.556   1.770  1.4455  3.2492 -2.7150
  887SOL     OW 2659   0.178   2.042   1.307  0.0094  0.5669  0.4330
  887SOL    HW1 2660   0.148   1.969   1.238  1.0035  1.1181 -0.7832
  887SOL    HW2 2661   0.194   2.137   1.268  1.7501  3.2056  1.0015
  888SOL     OW 2662   0.592   1.306   1.516 -0.2487  0.2684  0.3225
  888SOL    HW1 2663   0.630   1.295   1.420  1.3847  0.9030 -0.7327
  888SOL    HW2 2664   0.534   1.224   1.543 -1.5561  3.1284  1.2769
  889SOL     OW 2665   0.837   2.448   2.141  0.0331 -0.4291  0.1206
  889SOL    HW1 2666   0.762   2.412   2.076 -0.3273 -4.3643  2.0505
  889SOL    HW2 2667   0.927   2.444   2.088  1.6618 -0.3102  0.0320
  890SOL     OW 2668   2.320   2.402   0.128  0.7559  0.4651  0.3214
  890SOL    HW1 2669   2.333   2.478   0.058  0.9374 -0.8643 -0.4253
  890SOL    HW2 2670   2.235   2.413   0.191 -1.1718  0.2356  1.0210
  891SOL     OW 2671   2.591   1.626   0.667 -0.1590  0.4524  1.3500
  891SOL    HW1 2672   2.579   1.536   0.723  0.7000 -0.9092 -1.0568
  891SOL    HW2 2673   2.505   1.642   0.607  1.1718  0.4954  0.3858
  892SOL     OW 2674   0.262   0.310   2.245  0.2488 -0.2564 -0.2573
  892SOL    HW1 2675   0.264   0.373   2.157 -0.8470 -0.0608  1.9128
  892SOL    HW2 2676   0.332   0.348   2.312 -1.7098 -0.7269  0.4317
  893SOL     OW 2677   1.625   0.223   2.698 -0.5579  0.4946  0.0667
  893SOL    HW1 2678   1.694   0.301   2.721  1.3354  1.1618 -0.0353
  893SOL    HW2 2679   1.530   0.249   2.672  0.7816 -0.2170 -3.2079
  894SOL     OW 2680   2.157   1.993   0.080  0.4350  0.1389 -0.1309
  894SOL    HW1 2681   2.116   1.921   0.015 -0.6664  2.2261  1.1445
  894SOL    HW2 2682   2.202   1.944   0.158 -1.5293 -2.8554 -1.0708
  895SOL     OW 2683   2.875   1.404   0.829 -0.1113  0.1369 -0.0608
  895SOL    HW1 2684   2.919   1.328   0.881 -0.6086  0.0557  0.6833
  895SOL    HW2 2685   2.933   1.487   0.812 -0.7533 -0.8063  0.4548
  896SOL     OW 2686   1.736   1.757   1.190 -0.7660 -0.1325  0.1812
  896SOL    HW1 2687   1.815   1.812   1.152 -0.6053 -1.7951  1.7281
  896SOL    HW2 2688   1.644   1.805   1.177 -1.8416 -0.4841 -3.3319
  897SOL     OW 2689   0.332   0.518   3.068  0.3364 -0.0025 -0.3359
  897SOL    HW1 2690   0.270   0.557   2.992 -0.0759 -0.2539 -0.6626
  897SOL    HW2 2691   0.413   0.579   3.087  1.1431 -1.7929 -1.0234
  898SOL     OW 2692   0.552   2.872   1.073 -0.4540  0.3550 -0.8092
  898SOL    HW1 2693   0.481   2.919   1.135 -0.8881  1.4789 -3.1042
  898SOL    HW2 2694   0.644   2.923   1.067 -1.6006  2.2671 -1.1197
  899SOL     OW 2695   2.704   0.948   1.287  0.2617  0.0427  0.1476
  899SOL    HW1 2696   2.627   0.938   1.220  0.1991 -0.7045  1.8579
  899SOL    HW2 2697   2.795   0.938   1.236  3.7405 -2.6780  1.8425
  900SOL     OW 2698   0.969   2.316   2.356 -0.6224  0.1944  0.4397
  900SOL    HW1 2699   0.917   2.361   2.274 -1.3088  0.8126 -1.6846
  900SOL    HW2 2700   0.918   2.343   2.447  0.1042  2.3445  0.7038
  901SOL     OW 2701   1.959   2.483   1.373  0.7320  0.2080 -0.2857
  901SOL    HW1 2702   1.924   2.483   1.272  0.2443  0.7424  0.7056
  901SOL    HW2 2703   2.034   2.412   1.387  2.2295  0.1939  1.1126
  902SOL     OW 2704   2.575   1.691   1.460  0.0205 -0.1086  0.0576
  902SOL    HW1 2705   2.658   1.730   1.512  2.1436 -1.3341 -0.3653
  902SOL    HW2 2706   2.610   1.640   1.375  0.8825  2.2510 -0.1318
  903SOL     OW 2707   0.290   2.395   1.994  0.1193  0.6967  0.1262
  903SOL    HW1 2708   0.204   2.360   2.046 -3.0890 -0.9394  1.9439
  903SOL    HW2 2709   0.263   2.457   1.913  0.3971  0.3635 -0.6058
  904SOL     OW 2710   2.014   0.782   2.603  0.0038 -0.1203  0.2338
  904SOL    HW1 2711   1.933   0.738   2.645  3.3610  3.7112 -0.3878
  904SOL    HW2 2712   2.018   0.784   2.501  0.3768  1.6497  0.6199
  905SOL     OW 2713   2.778   0.029   2.567  0.8000 -0.7771 -0.7793
  905SOL    HW1 2714   2.839  -0.048   2.585 -1.9911  2.2081  0.2264
  905SOL    HW2 2715   2.828   0.119   2.567  0.7598  0.9435 -0.5266
  906SOL     OW 2716   0.118   1.796   1.965  0.3198  0.2749 -0.5286
  906SOL    HW1 2717   0.087   1.806   1.863 -0.6169  1.0569 -3.0883
  906SOL    HW2 2718   0.220   1.815   1.972  1.6559  0.1624 -0.1623
  907SOL     OW 2719   0.204   2.424   1.047  0.1909 -0.3460  0.3082
  907SOL    HW1 2720   0.273   2.494   1.018 -0.8691 -0.4568 -0.3516
  907SOL    HW2 2721   0.151   2.386   0.967  0.1443 -1.5092 -1.7553
  908SOL     OW 2722   2.665   2.860   0.380  0.8228  0.4364  0.2265
  908SOL    HW1 2723   2.642   2.859   0.278 -0.0724 -1.8240 -0.4075
  908SOL    HW2 2724   2.663   2.764   0.416  0.5698 -0.2913 -1.5206
  909SOL     OW 2725   0.692   0.938   2.629  0.3982 -0.2144  0.5937
  909SOL    HW1 2726   0.671   0.837   2.612 -0.0134 -2.3035  0.3426
  909SOL    HW2 2727   0.760   0.989   2.565  1.0675  3.3853  2.6068
  910SOL     OW 2728   1.716   1.797   2.008  0.0575  0.0318  0.4546
  910SOL    HW1 2729   1.791   1.824   1.941  0.4372 -0.4148 -0.0773
  910SOL    HW2 2730   1.660   1.876   2.046  0.2405 -0.0390  1.4495
  911SOL     OW 2731   1.738   3.030   1.576 -0.0428  0.4349  0.3555
  911SOL    HW1 2732   1.818   2.994   1.522  0.7509  0.5233  1.4514
  911SOL    HW2 2733   1.725   2.968   1.654 -2.1767  1.0230 -0.0148
  912SOL     OW 2734   2.849   0.939   0.755  0.4947  0.1492  0.0929
  912SOL    HW1 2735   2.858   0.909   0.854  0.2995  0.4539 -0.5416
  912SOL    HW2 2736   2.774   1.009   0.739 -0.3295 -0.1321 -0.7018
  913SOL     OW 2737   2.579   1.272   1.558 -0.0478 -0.0420  0.4084
  913SOL    HW1 2738   2.617   1.194   1.619  2.8117 -0.8557  0.4334
  913SOL    HW2 2739   2.618   1.272   1.463  0.9979 -0.1204  2.2123
  914SOL     OW 2740   2.837   0.505   1.285  0.1364 -0.0663 -0.1009
  914SOL    HW1 2741   2.806   0.416   1.332  0.4223 -2.5350  0.7445
  914SOL    HW2 2742   2.818   0.592   1.338 -0.7652  0.7624  3.4931
  915SOL     OW 2743   1.199   0.819   1.052  0.3928 -0.4052  0.1013
  915SOL    HW1 2744   1.276   0.851   1.109  0.7746 -1.1376 -0.5624
  915SOL    HW2 2745   1.112   0.789   1.108 -1.6114 -1.4020  1.1926
  916SOL     OW 2746   0.541   0.047   0.587  0.5438 -0.2486  0.4052
  916SOL    HW1 2747   0.563   0.127   0.648  1.4960 -0.5692  1.3632
  916SOL    HW2 2748   0.564   0.068   0.489  0.1978  1.0956  1.0060
  917SOL     OW 2749   2.745   2.585   1.891  0.0467 -0.3903 -0.0962
  917SOL    HW1 2750   2.672   2.663   1.880 -4.4335  0.7335  0.1131
  917SOL    HW2 2751   2.840   2.623   1.917 -2.3842 -1.7935  2.2789
  918SOL     OW 2752   1.016   2.186   3.082 -0.1255 -0.3493 -0.2781
  918SOL    HW1 2753   0.976   2.227   3.167  0.4819  0.4377 -0.0632
  918SOL    HW2 2754   1.003   2.085   3.074  2.9962 -1.4887 -0.2525
  919SOL     OW 2755   0.908   1.607   2.791  0.3494 -0.5851 -0.3430
  919SOL    HW1 2756   0.976   1.678   2.749 -2.2041  0.8972 -0.5816
  919SOL    HW2 2757   0.884   1.524   2.731 -0.0733  0.5550 -0.7319
  920SOL     OW 2758   1.224   2.086   2.497  0.1099 -0.0441 -0.6281
  920SOL    HW1 2759   1.167   2.092   2.408 -0.3226  2.8296 -1.0386
  920SOL    HW2 2760   1.259   1.993   2.521 -0.3184 -1.8726  0.7737
  921SOL     OW 2761   1.057   0.111   2.576  0.2930 -0.8465 -0.2393
  921SOL    HW1 2762   1.047   0.065   2.486 -1.7932 -1.0522 -2.1050
  921SOL    HW2 2763   0.964   0.137   2.614  0.8355  1.7573 -1.3189
  922SOL     OW 2764   2.078   2.419   2.782  0.1087  0.0306  0.0866
  922SOL    HW1 2765   2.091   2.318   2.786 -2.3352 -0.5920 -0.9913
  922SOL    HW2 2766   2.051   2.462   2.689 -1.9564  1.2482  0.6612
  923SOL     OW 2767   1.169   2.716   0.195 -0.1298  0.7681 -0.0547
  923SOL    HW1 2768   1.261   2.745   0.239  2.0925  1.2762  2.2092
  923SOL    HW2 2769   1.169   2.617   0.170 -0.4557  1.2598 -0.2418
  924SOL     OW 2770   2.851   1.574   0.086 -0.0704  0.0546  0.4124
  924SOL    HW1 2771   2.771   1.584   0.020 -0.4014  1.9174 -0.5909
  924SOL    HW2 2772   2.932   1.634   0.057  0.7299 -2.8410 -1.9977
  925SOL     OW 2773   0.095   2.882   1.603 -0.1335  0.3565 -0.2077
  925SOL    HW1 2774   0.005   2.919   1.639 -0.8631 -2.9845 -0.7631
  925SOL    HW2 2775   0.107   2.904   1.506 -0.5578  1.3289  2.7335
  926SOL     OW 2776   1.458   2.896   1.302 -0.4187  0.3703 -0.6263
  926SOL    HW1 2777   1.471   2.879   1.200  0.2730  0.2371 -1.8208
  926SOL    HW2 2778   1.437   2.993   1.333 -0.1278 -1.4991  1.6445
  927SOL     OW 2779   0.261   2.551   1.779 -0.1730 -0.3745  0.2386
  927SOL    HW1 2780   0.217   2.479   1.715  0.7368 -0.9050 -1.3387
  927SOL    HW2 2781   0.318   2.618   1.721 -0.5275  1.3276 -2.8680
  928SOL     OW 2782   1.589   2.026   2.088 -0.2762  0.3193  0.0666
  928SOL    HW1 2783   1.622   2.128   2.104  0.7469  1.9974  0.6119
  928SOL    HW2 2784   1.492   2.011   2.055 -1.1483 -0.3910  2.2118
  929SOL     OW 2785   2.355   2.438   2.831  0.4090  0.0266  0.3524
  929SOL    HW1 2786   2.251   2.440   2.833  0.4862 -0.8215  0.2217
  929SOL    HW2 2787   2.395   2.434   2.731  1.3467 -0.6533 -2.3068
  930SOL     OW 2788   2.205   1.975   1.093  0.1694 -0.3139  0.3880
  930SOL    HW1 2789   2.199   1.933   1.186 -2.8754 -0.8506 -0.0375
  930SOL    HW2 2790   2.250   2.065   1.088 -0.3574 -1.2664  0.2709
  931SOL     OW 2791   0.582   1.743   2.658 -0.4316  0.3916  0.0918
  931SOL    HW1 2792   0.662   1.713   2.714  1.0026 -0.8146  0.7097
  931SOL    HW2 2793   0.545   1.663   2.609  1.3839 -3.6675  1.3793
  932SOL     OW 2794   0.495   0.096   2.896  0.1207  0.0891 -0.2639
  932SOL    HW1 2795   0.591   0.129   2.897  0.7246 -1.2791 -1.8028
  932SOL    HW2 2796   0.490   0.011   2.957  1.2786  1.2490  1.3369
  933SOL     OW 2797   1.074   0.793   2.977  0.4432  0.6850 -0.6775
  933SOL    HW1 2798   1.136   0.828   3.056 -0.3062  1.1464  0.0763
  933SOL    HW2 2799   1.035   0.875   2.922  0.1316  0.5956 -1.5930
  934SOL     OW 2800   0.840   2.947   2.750  0.2764  0.4774  0.1696
  934SOL    HW1 2801   0.884   2.886   2.676  0.1330  0.4083 -2.0136
  934SOL    HW2 2802   0.836   2.905   2.843 -2.1165  3.9212 -2.1228
  935SOL     OW 2803   3.092   0.560   0.918  0.0615 -0.3334 -0.1475
  935SOL    HW1 2804   3.094   0.511   0.828  0.7192  0.9895  0.7521
  935SOL    HW2 2805   2.999   0.591   0.936  3.4176 -0.5268 -3.4100
  936SOL     OW 2806   1.107   2.967   0.147  0.0449 -0.1048  0.3370
  936SOL    HW1 2807   1.170   3.013   0.075  1.4029 -2.7435  1.4772
  936SOL    HW2 2808   1.126   2.866   0.162  0.7188 -1.3373  0.3430
  937SOL     OW 2809   1.952   2.641   2.100  0.1890 -0.1210  0.3512
  937SOL    HW1 2810   1.869   2.678   2.147 -2.6982  0.6508 -0.1151
  937SOL    HW2 2811   1.959   2.663   1.996  0.1077 -1.2200 -2.1882
  938SOL     OW 2812   2.759   2.178   1.523 -0.3558  0.2938  0.0056
  938SOL    HW1 2813   2.695   2.233   1.584 -1.8423 -2.7460  0.8558
  938SOL    HW2 2814   2.821   2.115   1.578 -3.3459 -2.6021 -3.7502
  939SOL     OW 2815   2.724   1.025   2.516 -0.0647 -0.4106 -0.1350
  939SOL    HW1 2816   2.764   0.931   2.539  1.8987 -2.7629 -0.0305
  939SOL    HW2 2817   2.748   1.097   2.587 -0.8550 -0.5354 -1.7094
  940SOL     OW 2818   1.059   0.464   2.649  0.0374  0.4853  0.3254
  940SOL    HW1 2819   1.134   0.393   2.621  3.3839 -3.2673  1.0805
  940SOL    HW2 2820   0.957   0.430   2.642 -2.2841 -1.0997 -0.7754
  941SOL     OW 2821   0.056   2.880   2.224 -0.7983  0.2084  0.4469
  941SOL    HW1 2822   0.042   2.776   2.211 -1.6189  0.4341 -1.9677
  941SOL    HW2 2823   0.123   2.901   2.305  0.1435  0.2542  1.1548
  942SOL     OW 2824   0.095   0.072   2.530  0.4705  0.4933 -0.1523
  942SOL    HW1 2825   0.156   0.089   2.615  2.1447  0.4385 -0.3096
  942SOL    HW2 2826   0.070   0.154   2.472  0.1200 -3.0437 -2.7140
  943SOL     OW 2827   2.090   1.645   2.456  0.2310  0.6170  0.9118
  943SOL    HW1 2828   2.115   1.545   2.480 -0.5495 -1.2375 -0.9868
  943SOL    HW2 2829   2.020   1.635   2.379  1.2661 -0.7397 -3.9063
  944SOL     OW 2830   2.189   2.344   1.501  0.3961 -0.2029 -0.2811
  944SOL    HW1 2831   2.223   2.429   1.542  2.3303 -0.3633  2.8468
  944SOL    HW2 2832   2.157   2.273   1.575 -0.4836 -3.0302  1.1387
  945SOL     OW 2833   0.627   1.479   0.384  0.0965  0.3888  0.5345
  945SOL    HW1 2834   0.656   1.520   0.295 -0.3967 -0.8478  0.4500
  945SOL    HW2 2835   0.665   1.383   0.397  0.8091  1.7901 -0.9922
  946SOL     OW 2836   0.337   1.019   2.617  0.0333 -0.2082  0.8364
  946SOL    HW1 2837   0.279   0.977   2.542  0.8143 -1.9773  0.1543
  946SOL    HW2 2838   0.348   1.125   2.601 -1.3351 -0.9518  0.2231
  947SOL     OW 2839   1.473   0.453   0.149  0.2066 -0.3377  0.1549
  947SOL    HW1 2840   1.451   0.409   0.244  1.8744 -2.3130  1.7238
  947SOL    HW2 2841   1.434   0.399   0.073  1.2829 -0.2007  0.2877
  948SOL     OW 2842   1.969   0.016   2.184  0.4926 -0.2624 -0.2910
  948SOL    HW1 2843   1.932   0.002   2.091  1.1182  0.2381 -0.2514
  948SOL    HW2 2844   1.952  -0.074   2.240 -1.4916  0.7562 -1.4402
  949SOL     OW 2845   0.579   2.535   0.461 -0.0751  0.4711 -0.1106
  949SOL    HW1 2846   0.604   2.634   0.439 -0.6082  1.6292 -1.8407
  949SOL    HW2 2847   0.606   2.512   0.558  0.6509 -1.7075 -0.7557
  950SOL     OW 2848   0.287   2.085   3.009 -0.4846 -0.5367  0.2538
  950SOL    HW1 2849   0.204   2.144   3.028 -1.0100 -2.6733 -1.9497
  950SOL    HW2 2850   0.267   1.986   3.037 -0.4677 -0.9644 -1.5953
  951SOL     OW 2851   1.153   2.783   2.779 -0.0586  0.2585  0.2678
  951SOL    HW1 2852   1.110   2.845   2.708  0.7404  0.4641  0.0297
  951SOL    HW2 2853   1.256   2.794   2.789  3.0882  1.4488 -0.2117
  952SOL     OW 2854   0.101   1.710   0.465  0.6555  0.8186  0.0135
  952SOL    HW1 2855   0.179   1.773   0.461 -1.7022  0.9148 -4.8381
  952SOL    HW2 2856   0.054   1.709   0.560 -1.5806 -0.6079 -0.2275
  953SOL     OW 2857   2.520   1.756   0.184 -0.4576  0.2443  0.5369
  953SOL    HW1 2858   2.534   1.657   0.206 -0.4845  3.4874  2.8523
  953SOL    HW2 2859   2.530   1.772   0.084 -0.6093  0.6050  0.8452
  954SOL     OW 2860   2.167   0.516   1.062 -0.2404 -0.8730  0.0174
  954SOL    HW1 2861   2.092   0.513   0.987  1.2530 -1.9322  1.9499
  954SOL    HW2 2862   2.252   0.472   1.031  0.2294 -2.2996 -0.1634
  955SOL     OW 2863   0.234   2.654   1.299 -0.3520 -0.3352 -0.3564
  955SOL    HW1 2864   0.139   2.612   1.287 -2.1488  1.6738 -0.0084
  955SOL    HW2 2865   0.280   2.665   1.205  0.5899  0.8878 -2.4260
  956SOL     OW 2866   2.756   2.482   2.520 -0.8709  0.3993 -0.2598
  956SOL    HW1 2867   2.760   2.381   2.495  0.2634 -1.4771  1.6275
  956SOL    HW2 2868   2.759   2.547   2.438 -0.9681 -1.2453  1.8779
  957SOL     OW 2869   1.536   2.038   2.655 -0.3080 -1.0781 -0.1111
  957SOL    HW1 2870   1.485   1.957   2.613  0.2215 -1.2376 -1.7632
  957SOL    HW2 2871   1.578   2.096   2.573  0.0594 -1.8177 -0.9812
  958SOL     OW 2872   2.654   2.319   3.018 -0.0209 -0.2330 -0.0457
  958SOL    HW1 2873   2.570   2.364   2.985  2.4512 -0.6173 -0.5466
  958SOL    HW2 2874   2.653   2.218   3.041 -0.1714 -0.7291  1.6768
  959SOL     OW 2875   0.235   2.821   0.026 -0.1561 -0.4237  0.2053
  959SOL    HW1 2876   0.133   2.822   0.040 -1.2111 -0.4242 -0.5300
  959SOL    HW2 2877   0.272   2.727  -0.007  0.6154 -1.6211 -1.5384
  960SOL     OW 2878   1.994   0.477   1.943 -0.6215 -0.5566  0.4859
  960SOL    HW1 2879   1.972   0.559   1.879 -1.5625 -0.9459  1.0788
  960SOL    HW2 2880   2.011   0.501   2.040 -1.8735 -2.4246 -0.4860
  961SOL     OW 2881   2.635   1.862   1.039  0.4107 -0.3552 -0.2147
  961SOL    HW1 2882   2.605   1.918   0.955  0.8554  1.3866  2.9329
  961SOL    HW2 2883   2.678   1.922   1.111 -2.5047  1.0722 -0.1846
  962SOL     OW 2884   1.274   0.912   0.051  0.3970 -0.1983 -0.5336
  962SOL    HW1 2885   1.288   0.970  -0.032  1.9900 -1.5284  0.4138
  962SOL    HW2 2886   1.270   0.970   0.136 -0.7931 -2.2640  2.1820
  963SOL     OW 2887   2.300   2.626   1.845 -0.4598 -0.6397  0.1888
  963SOL    HW1 2888   2.300   2.535   1.894 -2.7784 -0.6457 -0.9231
  963SOL    HW2 2889   2.332   2.708   1.904 -0.5497  0.3474 -1.1113
  964SOL     OW 2890   2.451   0.383   1.701  0.0100  0.0905  0.2159
  964SOL    HW1 2891   2.548   0.402   1.737  0.4346 -1.3319  1.7929
  964SOL    HW2 2892   2.439   0.385   1.597  0.5984 -2.3341 -1.5767
  965SOL     OW 2893   2.653   3.017   0.120  0.1603 -0.1455  0.3622
  965SOL    HW1 2894   2.689   2.987   0.027 -0.3959 -0.9166 -3.2699
  965SOL    HW2 2895   2.559   3.051   0.096  4.2931  2.6762 -1.8160
  966SOL     OW 2896   2.566   2.625   2.158  0.1093  0.5676 -0.1234
  966SOL    HW1 2897   2.496   2.558   2.118 -1.8338 -0.0979  2.3884
  966SOL    HW2 2898   2.545   2.726   2.142 -0.9424 -0.5684  0.6898
  967SOL     OW 2899   2.774   2.838   2.455 -0.0430  0.2921  0.3870
  967SOL    HW1 2900   2.791   2.765   2.382  0.6907  0.9885 -2.6461
  967SOL    HW2 2901   2.861   2.894   2.469 -1.7196  0.3229 -0.6012
  968SOL     OW 2902   2.001   1.043   2.706  0.4732 -0.8348  0.0948
  968SOL    HW1 2903   1.970   1.137   2.665 -1.3640  1.0553  0.5784
  968SOL    HW2 2904   1.985   0.956   2.657  1.9808  0.2441 -0.1991
  969SOL     OW 2905   2.721   2.328   1.150 -0.3577  0.0948  0.3031
  969SOL    HW1 2906   2.680   2.318   1.055  1.0303  0.8764 -0.1133
  969SOL    HW2 2907   2.763   2.241   1.186 -0.4740 -0.2609  0.2785
  970SOL     OW 2908   1.109   2.206   1.779  0.3508 -0.5711  0.1580
  970SOL    HW1 2909   1.017   2.192   1.739 -0.5967 -0.2319 -0.0764
  970SOL    HW2 2910   1.113   2.229   1.880 -0.1097 -2.8323  0.9647
  971SOL     OW 2911   2.839   2.072   1.941 -0.4000  0.4760  0.3203
  971SOL    HW1 2912   2.828   2.168   1.967 -0.9329 -0.2940  0.2571
  971SOL    HW2 2913   2.856   2.062   1.841 -3.0349  3.0184  0.1860
  972SOL     OW 2914   2.060   2.431   0.264 -0.5354  0.2695  0.6157
  972SOL    HW1 2915   2.008   2.355   0.226  2.8708  2.6277 -0.1805
  972SOL    HW2 2916   2.058   2.437   0.369  3.3368 -2.1081  0.6943
  973SOL     OW 2917   1.289   1.071   1.942  0.7600 -0.1177 -0.0937
  973SOL    HW1 2918   1.222   1.016   1.885 -1.6994  0.4885  0.6505
  973SOL    HW2 2919   1.269   1.178   1.946  1.3961  4.6715 -0.3721
  974SOL     OW 2920   1.655   0.535   1.893  0.2423 -0.0641 -0.1033
  974SOL    HW1 2921   1.743   0.566   1.857 -1.9199  2.4890  1.6034
  974SOL    HW2 2922   1.591   0.615   1.886  1.6280  0.4319 -1.9906
  975SOL     OW 2923   2.401   3.068   3.083  0.1923 -0.3596  0.2112
  975SOL    HW1 2924   2.346   3.020   3.158  0.6755 -1.3319  1.3774
  975SOL    HW2 2925   2.393   3.014   2.991  2.2667  1.6867  0.4455
  976SOL     OW 2926   1.923   2.891   2.322  0.1092  0.3804 -0.4283
  976SOL    HW1 2927   1.838   2.840   2.285 -0.7855  0.7883  2.0367
  976SOL    HW2 2928   1.952   2.858   2.417  3.5668 -3.2611  2.1579
  977SOL     OW 2929   0.474   0.657   1.007 -0.3763 -0.9235 -0.1963
  977SOL    HW1 2930   0.369   0.638   0.999 -1.9838 -1.5213  1.6485
  977SOL    HW2 2931   0.532   0.602   0.944  1.1086  2.1160  3.2633
   3.10000   3.10000   3.10000
