977 TIP4P/2005f water molecules t=   1.27000 step= 1270
 3908
    1SOL     OW    1   0.389   0.817   0.029 -0.8492  0.6682  0.5916
    1SOL    HW1    2   0.366   0.840  -0.061 -3.2611  0.6441  0.1544
    1SOL    HW2    3   0.321   0.753   0.056 -1.2988 -2.5882  1.0681
    1SOL     MW    4   0.377   0.811   0.021 -1.2268  0.2354  0.5968
    2SOL     OW    5   0.349   3.042   1.189 -0.2557  0.1889 -0.0974
    2SOL    HW1    6   0.392   3.098   1.125 -1.4000 -0.0223 -0.2097
    2SOL    HW2    7   0.260   3.081   1.193  1.1441 -0.4033 -1.3982
    2SOL     MW    8   0.343   3.055   1.181 -0.2220  0.0829 -0.2839
    3SOL     OW    9   2.587   0.329   0.969  0.5865 -0.1917  0.0491
    3SOL    HW1   10   2.631   0.374   0.903 -0.3617  1.5367 -1.1407
    3SOL    HW2   11   2.596   0.395   1.054 -0.7473 -1.0254 -0.1334
    3SOL     MW   12   2.594   0.343   0.972  0.2854 -0.0736 -0.1320
    4SOL     OW   13   3.062   1.740   0.558  0.1268  0.2351  0.4357
    4SOL    HW1   14   3.025   1.821   0.528  1.2560 -0.4744  1.1056
    4SOL    HW2   15   3.107   1.690   0.488 -1.4032 -0.6486 -1.6193
    4SOL     MW   16   3.063   1.744   0.544  0.0739  0.0249  0.2530
    5SOL     OW   17   1.657   1.513   0.559 -0.1591 -0.0663  0.2366
    5SOL    HW1   18   1.694   1.471   0.640 -3.3140  1.4294  0.9991
    5SOL    HW2   19   1.562   1.489   0.582 -0.7169 -2.0108  2.7450
    5SOL     MW   20   1.649   1.504   0.573 -0.6489 -0.1255  0.6682
    6SOL     OW   21   0.839   1.378   0.568  0.2558 -0.3118  0.0215
    6SOL    HW1   22   0.746   1.389   0.560  2.0007  1.1348 -1.4660
    6SOL    HW2   23   0.827   1.297   0.617 -1.7063  0.8443 -0.7782
    6SOL     MW   24   0.825   1.369   0.573  0.2271  0.0316 -0.2803
    7SOL     OW   25   2.057   1.061   0.009 -0.3718  0.5609  0.0959
    7SOL    HW1   26   2.107   1.140  -0.007 -1.9292  0.2030  1.5544
    7SOL    HW2   27   2.043   1.052   0.103 -2.4066 -0.2658  1.5273
    7SOL     MW   28   2.062   1.070   0.019 -0.8458  0.4046  0.4772
    8SOL     OW   29   0.866   1.524   1.197 -0.4934  0.6892  0.0710
    8SOL    HW1   30   0.963   1.527   1.199 -2.2357 -1.0137 -3.3887
    8SOL    HW2   31   0.854   1.431   1.212  1.0443  2.7116 -0.1230
    8SOL     MW   32   0.877   1.512   1.200 -0.5204  0.7314 -0.4111
    9SOL     OW   33   1.015   0.515   1.372  0.4294  0.1850 -1.0462
    9SOL    HW1   34   0.971   0.439   1.328 -0.6179  1.6769  0.5020
    9SOL    HW2   35   1.058   0.475   1.449 -3.3563  1.6313  4.0074
    9SOL     MW   36   1.015   0.500   1.376 -0.2082  0.5727 -0.1751
   10SOL     OW   37   0.250   0.806   0.521  0.4467 -0.3963 -0.0162
   10SOL    HW1   38   0.331   0.844   0.482 -0.6632  0.9270  0.3002
   10SOL    HW2   39   0.237   0.854   0.600 -0.3303 -2.2477 -0.2066
   10SOL     MW   40   0.259   0.818   0.527  0.1977 -0.4660  0.0004
   11SOL     OW   41   0.762   1.110   1.607 -0.4479  0.4838 -0.3189
   11SOL    HW1   42   0.809   1.096   1.692 -2.7547 -0.5565  1.6842
   11SOL    HW2   43   0.738   1.018   1.584  1.0810 -2.3385 -1.0093
   11SOL     MW   44   0.765   1.096   1.615 -0.5505 -0.0259 -0.1457
   12SOL     OW   45   3.076   1.091   0.871 -0.2036  0.4563 -0.0076
   12SOL    HW1   46   3.127   1.165   0.906  0.2571  1.2549  1.4878
   12SOL    HW2   47   3.041   1.129   0.789 -2.4665 -0.6037  3.1817
   12SOL     MW   48   3.078   1.106   0.865 -0.4414  0.4218  0.6105
   13SOL     OW   49   1.853   1.415   1.332  0.3307  0.3978  0.0460
   13SOL    HW1   50   1.879   1.352   1.260  0.2744 -2.3502 -1.3848
   13SOL    HW2   51   1.875   1.504   1.306  1.5836 -0.3337 -0.2425
   13SOL     MW   52   1.859   1.419   1.319  0.4886 -0.0613 -0.1808
   14SOL     OW   53   0.553   0.318   1.871 -0.3344 -0.1585  0.3022
   14SOL    HW1   54   0.499   0.244   1.889  1.5956  2.1016 -0.6007
   14SOL    HW2   55   0.591   0.288   1.788  1.4435  0.0841  0.1462
   14SOL     MW   56   0.551   0.304   1.863  0.1548  0.1717  0.1625
   15SOL     OW   57   1.978   0.336   1.053  0.1950  0.3657  0.2330
   15SOL    HW1   58   1.935   0.409   1.105 -1.0870 -0.1571 -0.6364
   15SOL    HW2   59   2.022   0.373   0.977  2.9761  0.2174  0.8232
   15SOL     MW   60   1.978   0.351   1.050  0.3928  0.2771  0.1962
   16SOL     OW   61   0.220   1.836   0.314 -0.0014  0.4177  0.0027
   16SOL    HW1   62   0.306   1.803   0.284 -0.9240 -2.0821  0.1134
   16SOL    HW2   63   0.225   1.934   0.317  0.2444  0.0699  0.5926
   16SOL     MW   64   0.232   1.844   0.310 -0.0907  0.0420  0.0951
   17SOL     OW   65   1.022   0.917   1.427  0.3216 -0.7874 -0.6288
   17SOL    HW1   66   1.054   0.913   1.520  1.8773  0.7872  0.2119
   17SOL    HW2   67   0.927   0.897   1.427  0.0885  1.3917 -1.1512
   17SOL     MW   68   1.014   0.914   1.439  0.4961 -0.2921 -0.5868
   18SOL     OW   69   0.083   1.596   0.360 -0.1036 -0.2292 -0.3371
   18SOL    HW1   70   0.139   1.677   0.340  1.9777  0.2426  3.3407
   18SOL    HW2   71   0.048   1.563   0.279  2.2125 -0.7306  1.2130
   18SOL     MW   72   0.086   1.602   0.347  0.4766 -0.2331  0.3527
   19SOL     OW   73   0.090   1.322   0.981 -0.0128  0.5610 -0.4494
   19SOL    HW1   74   0.111   1.367   0.900 -2.2292 -0.9573  0.4259
   19SOL    HW2   75   0.002   1.357   1.001 -0.9629 -0.5363 -0.2004
   19SOL     MW   76   0.081   1.333   0.973 -0.4306  0.2159 -0.3011
   20SOL     OW   77   0.428   2.173   1.177 -0.3749  0.4342  0.2624
   20SOL    HW1   78   0.380   2.113   1.122  0.2138 -1.5840  1.6969
   20SOL    HW2   79   0.385   2.176   1.268 -0.1110 -0.7101  0.6882
   20SOL     MW   80   0.416   2.166   1.182 -0.2624  0.0170  0.5078
   21SOL     OW   81   0.505   0.849   0.412  0.3373 -0.2993  0.2034
   21SOL    HW1   82   0.575   0.825   0.476  1.6632  0.9752 -0.4384
   21SOL    HW2   83   0.562   0.859   0.330 -0.4338 -1.6065 -1.4688
   21SOL     MW   84   0.522   0.847   0.410  0.4105 -0.3036 -0.1019
   22SOL     OW   85   1.535   0.712   0.991 -0.0093  0.2299 -0.6446
   22SOL    HW1   86   1.502   0.678   0.910  2.9998  2.0313  0.3400
   22SOL    HW2   87   1.457   0.733   1.042 -1.2920 -3.3081  1.5389
   22SOL     MW   88   1.520   0.710   0.987  0.2185  0.0008 -0.2266
   23SOL     OW   89   3.081   0.658   0.699  0.3051 -0.0343 -0.1729
   23SOL    HW1   90   3.151   0.613   0.748  2.1828 -0.6416 -0.4407
   23SOL    HW2   91   3.119   0.743   0.699 -0.0015 -0.1197  0.6005
   23SOL     MW   92   3.095   0.663   0.705  0.5124 -0.1257 -0.1062
   24SOL     OW   93   2.047   2.221   0.045  0.4023  0.1818  0.2089
   24SOL    HW1   94   2.021   2.226   0.142  2.2878  1.3018  2.0381
   24SOL    HW2   95   2.047   2.132   0.011 -0.3452  1.1612  1.4854
   24SOL     MW   96   2.043   2.210   0.053  0.5525  0.4588  0.6186
   25SOL     OW   97   0.210   1.383   0.511  0.3327 -0.6800 -0.4850
   25SOL    HW1   98   0.155   1.455   0.474 -0.4964  0.5127 -3.1875
   25SOL    HW2   99   0.287   1.388   0.449  2.9978 -1.3353 -1.6255
   25SOL     MW  100   0.213   1.393   0.498  0.5750 -0.6091 -0.9921
   26SOL     OW  101   2.051   1.059   0.280 -0.0772 -0.4652  0.0091
   26SOL    HW1  102   1.995   1.120   0.334 -2.0677 -4.3979  0.3135
   26SOL    HW2  103   2.142   1.105   0.259  0.7447  0.4286 -1.1627
   26SOL     MW  104   2.056   1.073   0.284 -0.2314 -0.8662 -0.1054
   27SOL     OW  105   1.965   1.462   0.210 -0.2259 -0.1156  0.6487
   27SOL    HW1  106   1.885   1.516   0.207 -0.8706  0.2845 -1.2104
   27SOL    HW2  107   2.001   1.477   0.298  1.3512  1.4997  0.1664
   27SOL     MW  108   1.959   1.471   0.221 -0.1028  0.1503  0.3398
   28SOL     OW  109   0.443   1.010   1.979  0.2290 -0.0984  0.4365
   28SOL    HW1  110   0.497   1.016   2.052 -0.6459 -1.5488 -0.9770
   28SOL    HW2  111   0.369   0.945   2.001 -1.4829  0.1451 -1.3875
   28SOL     MW  112   0.440   1.002   1.992 -0.1123 -0.2577  0.0093
   29SOL     OW  113   0.248   1.427   0.776  0.3135 -0.0285 -0.6804
   29SOL    HW1  114   0.258   1.524   0.789  2.2142 -0.7243  0.0284
   29SOL    HW2  115   0.225   1.413   0.685  2.1729  0.3613  2.1301
   29SOL     MW  116   0.246   1.438   0.766  0.8096 -0.0689 -0.2161
   30SOL     OW  117   0.828   1.249   1.243  0.3792  0.2463  0.0237
   30SOL    HW1  118   0.739   1.242   1.286 -0.2735 -0.0116  3.7725
   30SOL    HW2  119   0.903   1.230   1.308  1.9767  0.3695 -0.3852
   30SOL     MW  120   0.826   1.245   1.257  0.5039  0.2285  0.4644
   31SOL     OW  121   0.407   0.260   0.190  0.2915 -0.4255  0.3887
   31SOL    HW1  122   0.449   0.190   0.244 -0.9481 -0.6624 -0.3191
   31SOL    HW2  123   0.425   0.233   0.098 -0.8102  0.3354  0.7760
   31SOL     MW  124   0.415   0.248   0.185 -0.0174 -0.3563  0.3464
   32SOL     OW  125   2.738   0.974   1.165 -1.0336 -0.0940 -0.3556
   32SOL    HW1  126   2.666   0.908   1.143  0.9457  0.7919 -0.6185
   32SOL    HW2  127   2.824   0.946   1.124  0.7708 -0.6157  1.7656
   32SOL     MW  128   2.740   0.962   1.157 -0.5343 -0.0460 -0.1104
   33SOL     OW  129   1.639   1.312   0.362 -0.5163  0.6289  0.4176
   33SOL    HW1  130   1.709   1.249   0.372  0.7309  0.6795  0.3548
   33SOL    HW2  131   1.658   1.388   0.420 -0.1577 -1.2972  0.7342
   33SOL     MW  132   1.651   1.314   0.371 -0.3044  0.3815  0.4511
   34SOL     OW  133   1.240   1.905   1.103 -0.1203  0.0193 -0.5801
   34SOL    HW1  134   1.158   1.932   1.142  1.9737  1.8208  0.6999
   34SOL    HW2  135   1.316   1.927   1.156 -0.5399 -2.5326 -1.3017
   34SOL     MW  136   1.240   1.912   1.115  0.1006 -0.0797 -0.5064
   35SOL     OW  137   0.357   0.111   1.837  0.3212  0.0995 -0.4202
   35SOL    HW1  138   0.357   0.052   1.915  1.2462 -1.3524 -2.2808
   35SOL    HW2  139   0.381   0.059   1.759  1.1415  0.2196 -2.2943
   35SOL     MW  140   0.360   0.096   1.837  0.5515 -0.0762 -0.9130
   36SOL     OW  141   1.977   1.916   0.574 -0.4284 -0.3455  0.2550
   36SOL    HW1  142   1.968   1.920   0.478  0.7145 -0.1816 -0.5434
   36SOL    HW2  143   1.954   1.828   0.602 -0.8132 -1.3070 -2.2537
   36SOL     MW  144   1.972   1.905   0.565 -0.3284 -0.4507 -0.1814
   37SOL     OW  145   1.789   2.008   0.961 -0.0492 -0.3716  0.2866
   37SOL    HW1  146   1.738   1.954   0.904 -1.2374  0.0604 -1.9533
   37SOL    HW2  147   1.724   2.040   1.018  0.4525 -1.5333  0.5752
   37SOL     MW  148   1.774   2.005   0.961 -0.1398 -0.4679  0.0292
   38SOL     OW  149   2.828   0.958   0.131  0.3365 -0.2204  0.1651
   38SOL    HW1  150   2.832   0.929   0.224 -0.4494  2.3434  0.1793
   38SOL    HW2  151   2.899   0.915   0.083 -2.2831  0.5702  0.0462
   38SOL     MW  152   2.838   0.949   0.137 -0.1128  0.2222  0.1513
   39SOL     OW  153   1.451   0.573   0.763  0.1660 -0.3380 -0.1244
   39SOL    HW1  154   1.399   0.501   0.796 -0.6800 -0.7076 -0.9816
   39SOL    HW2  155   1.383   0.635   0.734 -1.5966 -0.0901 -0.9251
   39SOL     MW  156   1.436   0.572   0.764 -0.1782 -0.3541 -0.3432
   40SOL     OW  157   1.186   1.890   0.246  0.5371 -0.4631 -0.4523
   40SOL    HW1  158   1.234   1.842   0.312  0.0796  1.4362 -0.9397
   40SOL    HW2  159   1.155   1.959   0.303 -0.7410  1.1279 -2.4880
   40SOL     MW  160   1.188   1.892   0.262  0.3081 -0.0026 -0.7852
   41SOL     OW  161   0.564   0.472   1.580 -0.0711 -0.1449  0.0680
   41SOL    HW1  162   0.655   0.492   1.578  0.3502 -0.4657 -0.8147
   41SOL    HW2  163   0.520   0.558   1.587  2.5499 -3.7193 -1.2140
   41SOL     MW  164   0.570   0.486   1.581  0.3303 -0.6588 -0.2176
   42SOL     OW  165   1.313   3.002   1.997  0.2069 -0.1203 -0.3380
   42SOL    HW1  166   1.223   2.991   2.036  0.7550 -2.4844  2.4401
   42SOL    HW2  167   1.370   2.923   2.019  1.9269  0.6572  0.8032
   42SOL     MW  168   1.308   2.990   2.005  0.5062 -0.3297  0.1791
   43SOL     OW  169   1.485   0.156   1.632 -0.0798  0.0605 -0.4043
   43SOL    HW1  170   1.555   0.107   1.595  1.6646 -0.9407 -0.2563
   43SOL    HW2  171   1.415   0.087   1.627 -1.2267 -2.0975 -0.7788
   43SOL     MW  172   1.485   0.141   1.626 -0.0010 -0.3563 -0.4341
   44SOL     OW  173   1.222   0.761   1.026  0.6943 -0.7524  0.3481
   44SOL    HW1  174   1.179   0.847   1.018  0.2944 -0.2148  1.0660
   44SOL    HW2  175   1.207   0.743   1.123  1.7694 -0.9268 -0.2876
   44SOL     MW  176   1.215   0.770   1.037  0.7834 -0.7045  0.3590
   45SOL     OW  177   1.223   0.756   0.712  0.4566 -0.0865  0.6504
   45SOL    HW1  178   1.188   0.777   0.797 -0.1136  1.0517  0.5534
   45SOL    HW2  179   1.166   0.712   0.650  1.3760  1.3293  0.7554
   45SOL     MW  180   1.211   0.753   0.715  0.5027  0.2504  0.6514
   46SOL     OW  181   0.556   1.092   0.579  0.5459 -0.4663  0.1711
   46SOL    HW1  182   0.523   1.042   0.504  0.4445 -1.9053 -2.3031
   46SOL    HW2  183   0.651   1.094   0.581  1.2110 -0.0331  2.0479
   46SOL     MW  184   0.564   1.086   0.569  0.6203 -0.5990  0.0923
   47SOL     OW  185   0.218   1.941   1.975 -0.0474 -0.3619 -0.2792
   47SOL    HW1  186   0.300   1.903   2.011  0.7815 -0.2602  2.3113
   47SOL    HW2  187   0.152   1.926   2.044  3.4569 -0.0396  0.7922
   47SOL     MW  188   0.220   1.934   1.989  0.5243 -0.3060  0.2040
   48SOL     OW  189   1.077   0.520   1.037 -0.0715  0.2386 -0.2910
   48SOL    HW1  190   0.985   0.499   1.046  1.2952 -0.8384 -2.4050
   48SOL    HW2  191   1.095   0.618   1.042  3.1022  0.2886  3.2172
   48SOL     MW  192   1.067   0.530   1.039  0.5276  0.1031 -0.1071
   49SOL     OW  193   1.741   0.645   1.516 -0.4781  0.4247 -0.1693
   49SOL    HW1  194   1.711   0.601   1.595 -0.2653 -1.0147  0.1411
   49SOL    HW2  195   1.817   0.596   1.492 -1.2754  0.7933 -1.0351
   49SOL     MW  196   1.747   0.633   1.523 -0.5552  0.2834 -0.2426
   50SOL     OW  197   1.249   1.137   0.550 -0.6895  0.6015  0.5484
   50SOL    HW1  198   1.196   1.155   0.627  0.0770 -2.3164 -0.2585
   50SOL    HW2  199   1.332   1.099   0.585  0.0112 -0.1937  3.0587
   50SOL     MW  200   1.253   1.135   0.565 -0.4959  0.1116  0.7731
   51SOL     OW  201   0.333   2.930   0.913  0.0193  0.0094  0.0937
   51SOL    HW1  202   0.419   2.885   0.923 -0.7998 -0.3225 -0.7177
   51SOL    HW2  203   0.327   2.957   1.003 -0.0931 -0.6941 -0.5547
   51SOL     MW  204   0.343   2.927   0.926 -0.1036 -0.1272 -0.0989
   52SOL     OW  205   0.800   1.790   0.454 -0.0594 -0.0033  0.3811
   52SOL    HW1  206   0.748   1.874   0.448 -0.3267  0.2656 -0.1404
   52SOL    HW2  207   0.788   1.733   0.377 -1.5139  0.8324  0.5160
   52SOL     MW  208   0.791   1.793   0.443 -0.2866  0.1424  0.3301
   53SOL     OW  209   0.444   2.143   0.464  0.2704 -0.4306  0.4790
   53SOL    HW1  210   0.363   2.123   0.422 -0.8576 -0.3317 -0.3790
   53SOL    HW2  211   0.413   2.219   0.516 -0.5805  0.2423  0.4779
   53SOL     MW  212   0.429   2.150   0.465  0.0093 -0.3287  0.3656
   54SOL     OW  213   2.059   0.929   0.777  0.7464  0.1682 -0.2284
   54SOL    HW1  214   2.084   0.942   0.683  0.0387 -0.7853 -0.8148
   54SOL    HW2  215   2.055   0.836   0.785 -0.6341  1.4887 -0.1656
   54SOL     MW  216   2.062   0.919   0.766  0.4709  0.2166 -0.2975
   55SOL     OW  217   0.525   1.581   1.651 -0.3662  0.3324  0.1009
   55SOL    HW1  218   0.471   1.629   1.582  1.8330 -1.7790 -6.8316
   55SOL    HW2  219   0.599   1.542   1.602 -0.0453 -2.5730 -0.9347
   55SOL     MW  220   0.528   1.582   1.635 -0.0337 -0.3295 -0.9504
   56SOL     OW  221   0.631   0.850   0.173 -0.0293  0.2886 -0.4402
   56SOL    HW1  222   0.661   0.942   0.162  1.3388 -1.0198  2.3041
   56SOL    HW2  223   0.560   0.838   0.114  1.6690  1.6910  0.0479
   56SOL     MW  224   0.625   0.860   0.164  0.3752  0.3010 -0.0137
   57SOL     OW  225   1.204   1.244   1.160  0.4337 -0.4410  0.1888
   57SOL    HW1  226   1.298   1.251   1.159  0.9344  0.3558  1.8791
   57SOL    HW2  227   1.174   1.215   1.253  0.1950 -1.5591  2.6773
   57SOL     MW  228   1.213   1.241   1.172  0.4683 -0.4834  0.7402
   58SOL     OW  229   0.525   1.218   1.291  0.0187 -0.4584 -0.1880
   58SOL    HW1  230   0.507   1.309   1.267  1.6952  0.0474 -1.2840
   58SOL    HW2  231   0.502   1.223   1.388 -2.2317 -1.6889 -0.8304
   58SOL     MW  232   0.519   1.230   1.301 -0.0571 -0.5540 -0.4174
   59SOL     OW  233   1.512   1.704   0.324  0.0423 -0.4820 -0.4432
   59SOL    HW1  234   1.559   1.742   0.398  0.3637  0.3638 -2.5000
   59SOL    HW2  235   1.424   1.698   0.365 -1.2188 -0.8002 -3.3879
   59SOL     MW  236   1.507   1.708   0.339 -0.0817 -0.4124 -1.1031
   60SOL     OW  237   3.099   0.215   1.675 -0.8240  0.0520 -0.3338
   60SOL    HW1  238   3.003   0.251   1.703  2.3291  1.6994  0.3056
   60SOL    HW2  239   3.125   0.143   1.737  1.2618  0.8252  1.2882
   60SOL     MW  240   3.090   0.210   1.687 -0.1328  0.3714 -0.0355
   61SOL     OW  241   2.000   1.362   3.062 -0.4689 -0.0942 -0.0144
   61SOL    HW1  242   2.017   1.374   3.154 -0.4722  0.5993 -3.4802
   61SOL    HW2  243   2.085   1.345   3.025  2.4633 -0.4571  0.6082
   61SOL     MW  244   2.013   1.362   3.070 -0.0824 -0.0506 -0.3895
   62SOL     OW  245   0.555   1.689   0.511 -0.4266 -0.2318  0.1832
   62SOL    HW1  246   0.655   1.707   0.507  3.6642  2.1685  0.1003
   62SOL    HW2  247   0.538   1.594   0.507 -2.2121  3.9369  0.4185
   62SOL     MW  248   0.566   1.679   0.510 -0.1224  0.6349  0.2033
   63SOL     OW  249   1.726   0.620   0.718 -0.0690  0.1368 -0.0925
   63SOL    HW1  250   1.748   0.709   0.686  1.8797  0.0968  0.8757
   63SOL    HW2  251   1.630   0.618   0.713  0.7353 -0.1149 -0.8129
   63SOL     MW  252   1.716   0.632   0.713  0.2942  0.0983 -0.0598
   64SOL     OW  253   0.287   1.694   0.815  0.5474 -0.0888 -0.6047
   64SOL    HW1  254   0.342   1.747   0.759  1.1886 -0.3197 -2.3571
   64SOL    HW2  255   0.204   1.738   0.794  1.4472 -1.1920 -1.2606
   64SOL     MW  256   0.283   1.707   0.805  0.7507 -0.2648 -0.9225
   65SOL     OW  257   1.578   2.302   0.436  0.0240 -0.1807 -0.2838
   65SOL    HW1  258   1.669   2.317   0.460 -0.0600  2.5441 -2.5678
   65SOL    HW2  259   1.521   2.330   0.510 -2.8832 -1.6711 -1.3209
   65SOL     MW  260   1.582   2.307   0.449 -0.3707 -0.0178 -0.7220
   66SOL     OW  261   0.325   0.543   0.465  0.0263  0.2231 -0.5107
   66SOL    HW1  262   0.372   0.545   0.383  1.0839 -2.9667  0.6852
   66SOL    HW2  263   0.300   0.634   0.493 -0.8686 -1.1707  0.7207
   66SOL     MW  264   0.328   0.555   0.457  0.0478 -0.3816 -0.1905
   67SOL     OW  265   1.459   0.122   1.994  0.0629 -0.0603 -0.0414
   67SOL    HW1  266   1.488   0.144   1.903 -0.1000  1.7932 -0.4335
   67SOL    HW2  267   1.423   0.033   1.985  1.8583  0.0835  1.6740
   67SOL     MW  268   1.458   0.113   1.981  0.2783  0.2032  0.1332
   68SOL     OW  269   0.734   0.065   2.958  0.8371 -0.6011 -0.5855
   68SOL    HW1  270   0.738   0.117   2.878 -0.1526  1.1531  0.3237
   68SOL    HW2  271   0.816   0.081   2.990 -1.2602 -0.7011  1.9324
   68SOL     MW  272   0.746   0.074   2.952  0.4298 -0.3828 -0.1333
   69SOL     OW  273   0.953   0.191   1.985 -0.5558  0.1123 -0.6357
   69SOL    HW1  274   1.050   0.187   1.997 -0.6973  0.4126 -0.0339
   69SOL    HW2  275   0.923   0.104   1.998  2.1842  0.8516 -0.3468
   69SOL     MW  276   0.962   0.179   1.989 -0.2129  0.2494 -0.5182
   70SOL     OW  277   0.548   1.731   1.127 -0.0868 -0.3067  0.0310
   70SOL    HW1  278   0.594   1.704   1.210 -3.0178  0.0366  0.2403
   70SOL    HW2  279   0.625   1.755   1.075 -0.6316 -1.9881 -1.3547
   70SOL     MW  280   0.564   1.731   1.131 -0.5454 -0.4833 -0.1242
   71SOL     OW  281   1.575   0.512   1.191 -0.9010  0.2347  0.0667
   71SOL    HW1  282   1.547   0.574   1.256 -0.2309  3.5262 -2.2012
   71SOL    HW2  283   1.559   0.556   1.108  0.3629 -3.2134  0.1073
   71SOL     MW  284   1.569   0.526   1.188 -0.6459  0.2141 -0.2272
   72SOL     OW  285   0.816   1.845   1.023  0.1721  0.1610 -0.1038
   72SOL    HW1  286   0.764   1.899   0.961 -0.8973  2.0917  0.7551
   72SOL    HW2  287   0.829   1.757   0.984 -1.8402  2.0431 -3.2191
   72SOL     MW  288   0.811   1.840   1.009 -0.2345  0.6641 -0.4015
   73SOL     OW  289   1.192   0.726   1.298 -0.1431 -0.0001  0.6137
   73SOL    HW1  290   1.141   0.651   1.323 -0.4931  0.6484 -3.5955
   73SOL    HW2  291   1.144   0.790   1.351  0.2671  1.1561  1.7495
   73SOL     MW  292   1.179   0.724   1.308 -0.1351  0.2380  0.2082
   74SOL     OW  293   2.805   0.266   1.131  0.9476  0.6436 -0.1243
   74SOL    HW1  294   2.875   0.318   1.094 -2.5711 -0.9911 -2.6303
   74SOL    HW2  295   2.736   0.265   1.065  0.6102  0.2898  1.7010
   74SOL     MW  296   2.805   0.273   1.118  0.4388  0.3812 -0.2141
   75SOL     OW  297   1.587   1.391   0.111  0.4428 -0.4826 -0.2125
   75SOL    HW1  298   1.656   1.334   0.069  1.1616 -0.1465  1.2898
   75SOL    HW2  299   1.613   1.382   0.204 -0.1823 -0.7118 -1.4866
   75SOL     MW  300   1.599   1.382   0.118  0.4552 -0.4685 -0.1824
   76SOL     OW  301   2.970   0.575   0.446 -0.4029  0.3352 -0.4174
   76SOL    HW1  302   3.005   0.621   0.526 -1.7334 -0.3861  1.2510
   76SOL    HW2  303   3.049   0.524   0.418 -0.4783 -0.3679 -1.2133
   76SOL     MW  304   2.985   0.574   0.453 -0.5884  0.1472 -0.3023
   77SOL     OW  305   0.813   0.542   0.473  0.5364 -0.5054 -0.1330
   77SOL    HW1  306   0.813   0.565   0.377  0.8313  2.3274  0.0135
   77SOL    HW2  307   0.822   0.444   0.486 -1.7629 -0.6099 -0.3808
   77SOL     MW  308   0.814   0.532   0.462  0.2719 -0.1454 -0.1464
   78SOL     OW  309   0.742   0.843   1.178 -0.1660 -0.0534 -0.4385
   78SOL    HW1  310   0.778   0.900   1.109 -2.1575 -0.6890  2.1596
   78SOL    HW2  311   0.646   0.852   1.161 -2.2433 -0.4214  1.8925
   78SOL     MW  312   0.734   0.852   1.166 -0.7028 -0.1858  0.2118
   79SOL     OW  313   1.910   1.648   0.635 -0.1930 -0.4002 -0.1831
   79SOL    HW1  314   1.816   1.640   0.606 -0.6255  1.4014 -0.0792
   79SOL    HW2  315   1.914   1.629   0.730 -1.1101  0.1036  2.1157
   79SOL     MW  316   1.898   1.644   0.643 -0.3711 -0.0961  0.1339
   80SOL     OW  317   0.068   0.928   0.363  0.3592 -0.2163  0.0432
   80SOL    HW1  318  -0.016   0.895   0.337 -0.7381  2.3255  1.5362
   80SOL    HW2  319   0.113   0.862   0.420 -3.5337  0.1228  2.0744
   80SOL     MW  320   0.063   0.915   0.367 -0.2992  0.1638  0.5082
   81SOL     OW  321   1.872   1.902   0.308  0.1534  0.3923 -0.2705
   81SOL    HW1  322   1.849   1.804   0.284 -0.8579  0.1806  0.3753
   81SOL    HW2  323   1.812   1.957   0.265  3.2817  0.8906  2.5175
   81SOL     MW  324   1.861   1.896   0.299  0.4327  0.4301  0.1826
   82SOL     OW  325   0.830   1.010   0.510 -0.5173  0.6222 -0.4700
   82SOL    HW1  326   0.827   1.032   0.417 -1.2818 -1.1638  0.5259
   82SOL    HW2  327   0.799   0.919   0.501  0.2729 -1.9468 -1.7505
   82SOL     MW  328   0.825   1.001   0.497 -0.5139  0.0476 -0.5075
   83SOL     OW  329   0.047   0.741   1.484  0.0184  0.0807  0.0406
   83SOL    HW1  330   0.065   0.817   1.426 -1.4469  0.1053  0.8802
   83SOL    HW2  331   0.130   0.701   1.500 -2.3364 -1.9535 -0.0780
   83SOL     MW  332   0.060   0.746   1.478 -0.4856 -0.1845  0.1357
   84SOL     OW  333   0.047   0.179   0.913 -0.2900  0.1227 -0.3975
   84SOL    HW1  334   0.041   0.248   0.984 -3.5997 -1.4909 -0.8284
   84SOL    HW2  335   0.075   0.102   0.959  0.6895  1.9674 -1.3141
   84SOL     MW  336   0.050   0.178   0.929 -0.5974  0.1532 -0.5753
   85SOL     OW  337   0.442   0.454   0.727 -0.1257  0.3547 -0.5629
   85SOL    HW1  338   0.414   0.472   0.642  0.4644 -0.9880  1.1599
   85SOL    HW2  339   0.433   0.360   0.741  0.9040 -2.1604  0.5552
   85SOL     MW  340   0.437   0.444   0.718  0.0880 -0.1543 -0.1881
   86SOL     OW  341   1.199   0.253   1.127  0.5554 -0.2556 -0.1783
   86SOL    HW1  342   1.141   0.332   1.139  1.6327  0.5106  3.2512
   86SOL    HW2  343   1.291   0.269   1.152  0.7781 -1.0152  0.1114
   86SOL     MW  344   1.203   0.266   1.132  0.7269 -0.2547  0.3124
   87SOL     OW  345   1.154   1.504   1.220 -0.2898 -0.7088 -0.3306
   87SOL    HW1  346   1.196   1.571   1.162 -0.1438  1.5506 -0.6128
   87SOL    HW2  347   1.170   1.416   1.184  1.5098  2.6782  1.3652
   87SOL     MW  348   1.161   1.501   1.208 -0.0331  0.0361 -0.1441
   88SOL     OW  349   1.181   1.035   0.966 -0.0801  0.3100 -0.0948
   88SOL    HW1  350   1.274   1.038   0.957 -0.9171  0.2885  2.9764
   88SOL    HW2  351   1.174   1.089   1.047  1.6454 -0.5956 -1.0206
   88SOL     MW  352   1.193   1.042   0.976  0.0371  0.1876  0.1883
   89SOL     OW  353   1.753   0.753   0.344 -1.0762 -0.1020 -0.0689
   89SOL    HW1  354   1.711   0.667   0.354 -0.3029 -0.5095  0.4659
   89SOL    HW2  355   1.849   0.734   0.327  1.4351  0.3067  0.8986
   89SOL     MW  356   1.760   0.739   0.343 -0.6428 -0.1018  0.1293
   90SOL     OW  357   0.834   1.164   2.825  0.0138  0.3293  0.5522
   90SOL    HW1  358   0.847   1.069   2.814 -1.0856  1.5372 -1.2901
   90SOL    HW2  359   0.826   1.187   2.921  0.7927  1.1884  1.0488
   90SOL     MW  360   0.835   1.154   2.836 -0.0285  0.6020  0.3747
   91SOL     OW  361   2.159   0.696   0.511  0.3079  0.0017  0.4259
   91SOL    HW1  362   2.228   0.745   0.470 -2.9073  1.9127  1.2730
   91SOL    HW2  363   2.168   0.603   0.464  0.2249 -1.0204 -0.2712
   91SOL     MW  364   2.170   0.690   0.499 -0.1273  0.1189  0.4457
   92SOL     OW  365   1.752   0.888   0.565 -0.2290 -0.0366  0.1782
   92SOL    HW1  366   1.662   0.915   0.573 -0.1572 -2.4592 -2.0331
   92SOL    HW2  367   1.758   0.836   0.479  0.8151 -1.1352  0.6254
   92SOL     MW  368   1.741   0.885   0.555 -0.0817 -0.5012 -0.0546
   93SOL     OW  369   1.090   0.183   0.428  1.2407 -0.0560 -0.1667
   93SOL    HW1  370   1.006   0.228   0.439  1.6213  0.9936 -2.2013
   93SOL    HW2  371   1.114   0.216   0.340  4.3374 -0.0278  0.5531
   93SOL     MW  372   1.082   0.193   0.418  1.6995  0.0862 -0.3401
   94SOL     OW  373   1.845   1.369   1.633  0.8303  0.3957 -0.9683
   94SOL    HW1  374   1.855   1.370   1.538  1.0441  0.2269  2.6354
   94SOL    HW2  375   1.812   1.279   1.655 -0.0904  0.4873  0.8419
   94SOL     MW  376   1.842   1.357   1.624  0.7370  0.3855 -0.2540
   95SOL     OW  377   0.730   1.585   0.955 -0.8605 -0.0761 -0.6056
   95SOL    HW1  378   0.770   1.556   1.036 -0.2731 -0.1963 -2.1133
   95SOL    HW2  379   0.656   1.525   0.947  0.2555 -0.8371 -1.3866
   95SOL     MW  380   0.726   1.573   0.965 -0.6357 -0.1924 -0.9076
   96SOL     OW  381   1.328   1.895   1.718  0.2274  0.3978  0.0516
   96SOL    HW1  382   1.245   1.907   1.759  3.2834  0.0619  0.6781
   96SOL    HW2  383   1.325   1.800   1.683  1.5615  1.9397  1.1499
   96SOL     MW  384   1.317   1.884   1.719  0.8066  0.5569  0.2792
   97SOL     OW  385   1.139   1.452   0.881 -0.2639  0.0219 -0.3282
   97SOL    HW1  386   1.170   1.529   0.932  0.2780  0.8544 -1.6937
   97SOL    HW2  387   1.062   1.481   0.831  1.8333  0.2126  3.7223
   97SOL     MW  388   1.133   1.466   0.881  0.0843  0.1569  0.0260
   98SOL     OW  389   1.469   1.278   1.123 -0.4522  0.1851  0.7827
   98SOL    HW1  390   1.499   1.343   1.190 -2.3000  1.3012  0.3174
   98SOL    HW2  391   1.462   1.322   1.035 -0.3040 -1.6495  2.7794
   98SOL     MW  392   1.472   1.293   1.120 -0.6764  0.0903  0.9847
   99SOL     OW  393   1.439   0.274   1.276  0.5542  0.2360 -0.6495
   99SOL    HW1  394   1.494   0.340   1.232  1.4564  0.2259 -1.4539
   99SOL    HW2  395   1.437   0.299   1.365 -2.8490  0.8431 -3.2637
   99SOL     MW  396   1.446   0.286   1.282  0.2242  0.3148 -1.1005
  100SOL     OW  397   1.053   1.178   1.383  0.1338 -0.4033  0.3290
  100SOL    HW1  398   1.084   1.204   1.470 -0.2091  0.5262  1.1318
  100SOL    HW2  399   1.027   1.083   1.383  0.1777 -1.3760 -0.3733
  100SOL     MW  400   1.054   1.169   1.394  0.0943 -0.4090  0.3423
  101SOL     OW  401   0.468   1.213   0.333  0.1650  0.5789  0.2717
  101SOL    HW1  402   0.392   1.161   0.321 -0.7510  0.2405 -2.4079
  101SOL    HW2  403   0.530   1.180   0.262 -0.6102  2.9938 -1.6084
  101SOL     MW  404   0.466   1.202   0.322 -0.0582  0.8529 -0.3299
  102SOL     OW  405   2.893   0.626   0.984 -0.1478 -0.4088  0.1771
  102SOL    HW1  406   2.925   0.711   1.007 -0.5067 -4.0234  0.9086
  102SOL    HW2  407   2.868   0.597   1.076 -1.6454  1.0274  1.2685
  102SOL     MW  408   2.894   0.633   0.999 -0.3927 -0.6962  0.4176
  103SOL     OW  409   1.764   0.267   1.877  0.8705  0.6364  0.1976
  103SOL    HW1  410   1.763   0.172   1.853  1.3346  1.8656 -0.0344
  103SOL    HW2  411   1.771   0.268   1.972  2.5885  0.7196 -3.5295
  103SOL     MW  412   1.765   0.255   1.886  1.1584  0.8095 -0.3248
  104SOL     OW  413   0.132   1.513   1.566 -0.7287 -0.3661  0.0897
  104SOL    HW1  414   0.183   1.451   1.609 -0.5675  1.2429  0.9450
  104SOL    HW2  415   0.040   1.491   1.591 -0.8484  0.9878 -0.1016
  104SOL     MW  416   0.126   1.502   1.575 -0.7232  0.0248  0.1773
  105SOL     OW  417   0.027   1.196   0.417 -0.5806  0.8476  0.1619
  105SOL    HW1  418   0.044   1.096   0.415  0.8844 -3.7378 -1.9544
  105SOL    HW2  419   0.113   1.243   0.430  0.2287 -0.6308 -1.0607
  105SOL     MW  420   0.041   1.189   0.419 -0.2805  0.0476 -0.2786
  106SOL     OW  421   0.841   0.405   1.008 -0.3627  0.5403 -0.5546
  106SOL    HW1  422   0.784   0.467   0.961 -0.9393 -0.4986 -0.3524
  106SOL    HW2  423   0.895   0.381   0.928 -1.0745 -4.0286 -0.7961
  106SOL     MW  424   0.840   0.410   0.991 -0.5327 -0.1996 -0.5598
  107SOL     OW  425   0.806   2.138   2.916 -0.0516 -0.0825  0.0667
  107SOL    HW1  426   0.721   2.129   2.878  1.8098  0.8363 -0.3239
  107SOL    HW2  427   0.794   2.099   3.006  2.9402 -2.1162 -0.9950
  107SOL     MW  428   0.793   2.132   2.923  0.5887 -0.2296 -0.1249
  108SOL     OW  429   1.324   1.632   1.636  0.2819 -0.4117  0.1540
  108SOL    HW1  430   1.249   1.601   1.567 -0.6698 -0.5250 -2.5371
  108SOL    HW2  431   1.412   1.627   1.591  0.9238 -1.2778 -3.3436
  108SOL     MW  432   1.326   1.627   1.621  0.2410 -0.5410 -0.6626
  109SOL     OW  433   2.018   0.764   0.267 -0.1267  0.6510 -0.0158
  109SOL    HW1  434   2.027   0.859   0.261 -0.8617 -0.4061 -0.5119
  109SOL    HW2  435   2.083   0.739   0.331  1.0845 -1.7210 -2.5067
  109SOL     MW  436   2.028   0.773   0.274 -0.0638  0.1986 -0.4099
  110SOL     OW  437   0.410   1.919   0.635  0.4166 -0.3666 -0.0560
  110SOL    HW1  438   0.491   1.863   0.619 -0.3905  0.1323  1.8240
  110SOL    HW2  439   0.413   1.997   0.583 -1.4524 -1.8030  0.7844
  110SOL     MW  440   0.421   1.922   0.626  0.0635 -0.4903  0.3029
  111SOL     OW  441   0.759   0.873   1.450  0.0172 -0.0900 -0.3359
  111SOL    HW1  442   0.736   0.879   1.358  1.1422 -1.4206  0.4959
  111SOL    HW2  443   0.769   0.783   1.474  1.3453 -0.2955 -0.0931
  111SOL     MW  444   0.758   0.862   1.441  0.3409 -0.2926 -0.1941
  112SOL     OW  445   1.330   1.079   1.622  1.0217 -0.2435 -0.0721
  112SOL    HW1  446   1.272   1.153   1.633  0.4096 -1.7605 -2.0208
  112SOL    HW2  447   1.271   1.001   1.629 -0.9573  0.2514 -2.5196
  112SOL     MW  448   1.314   1.079   1.624  0.6798 -0.3784 -0.6522
  113SOL     OW  449   1.240   3.048   1.719 -0.2290 -0.0223 -0.6966
  113SOL    HW1  450   1.247   3.025   1.812  1.0705 -0.1405  1.0216
  113SOL    HW2  451   1.268   2.970   1.664 -0.0761 -0.6815 -0.1183
  113SOL     MW  452   1.244   3.034   1.724 -0.0374 -0.1249 -0.3936
  114SOL     OW  453   0.247   2.877   1.877  0.5940  0.1520  0.5944
  114SOL    HW1  454   0.298   2.931   1.932  1.0043  0.2925  0.7189
  114SOL    HW2  455   0.173   2.933   1.840 -2.8320  1.6651 -1.6451
  114SOL     MW  456   0.244   2.891   1.880  0.1961  0.3702  0.3154
  115SOL     OW  457   0.468   0.849   1.132 -0.1261 -0.7460  0.6186
  115SOL    HW1  458   0.482   0.762   1.155 -4.1837  1.1287  0.4251
  115SOL    HW2  459   0.417   0.898   1.200 -1.8993 -1.4908 -0.7877
  115SOL     MW  460   0.463   0.844   1.144 -0.8954 -0.5969  0.4075
  116SOL     OW  461   0.784   1.048   1.012  0.1917 -0.7027 -0.1607
  116SOL    HW1  462   0.808   1.071   0.922  0.9552 -2.4421 -0.4510
  116SOL    HW2  463   0.821   1.123   1.064  1.5230  1.6040  0.8682
  116SOL     MW  464   0.793   1.061   1.007  0.4681 -0.6278 -0.0632
  117SOL     OW  465   1.131   1.209   0.777 -0.3715 -0.1582  0.3050
  117SOL    HW1  466   1.143   1.139   0.845 -0.7138  2.9601 -0.0384
  117SOL    HW2  467   1.143   1.291   0.818 -1.2885 -0.7031  0.1756
  117SOL     MW  468   1.135   1.211   0.791 -0.5377  0.1814  0.2426
  118SOL     OW  469   3.055   2.959   1.651  0.5381 -0.3844  0.2830
  118SOL    HW1  470   3.093   3.037   1.688  0.8831 -0.4997 -3.4556
  118SOL    HW2  471   2.970   2.950   1.697  2.7373 -0.5309  0.7366
  118SOL     MW  472   3.049   2.968   1.662  0.8738 -0.4189 -0.1504
  119SOL     OW  473   0.443   1.468   1.231 -0.0520  0.2861  0.4634
  119SOL    HW1  474   0.470   1.535   1.162  1.6802  0.6757  0.7967
  119SOL    HW2  475   0.347   1.476   1.228  0.4536 -0.8014 -0.4912
  119SOL     MW  476   0.434   1.478   1.221  0.2432  0.1940  0.3814
  120SOL     OW  477   0.264   0.721   1.008  0.0039  0.6934  1.1390
  120SOL    HW1  478   0.261   0.686   1.095  0.9203  0.0646 -0.3899
  120SOL    HW2  479   0.340   0.783   1.003 -0.7967 -0.0111  0.6155
  120SOL     MW  480   0.274   0.725   1.019  0.0192  0.5175  0.8682
  121SOL     OW  481   1.769   1.116   1.681 -0.7643 -0.7709  0.2348
  121SOL    HW1  482   1.674   1.117   1.718 -2.6069  1.2242 -2.1212
  121SOL    HW2  483   1.773   1.036   1.636 -3.9070  0.3665  0.9336
  121SOL     MW  484   1.757   1.106   1.680 -1.4220 -0.3576  0.0161
  122SOL     OW  485   0.180   0.528   0.817  0.1327  0.1677 -0.3309
  122SOL    HW1  486   0.250   0.485   0.772 -0.7593 -0.4214 -0.9939
  122SOL    HW2  487   0.224   0.580   0.887 -1.5670 -1.0573 -1.7780
  122SOL     MW  488   0.195   0.529   0.821 -0.2093 -0.0716 -0.6093
  123SOL     OW  489   1.851   1.153   0.463 -0.1399 -0.3287 -0.1834
  123SOL    HW1  490   1.827   1.060   0.492  0.0167  0.0129 -1.0983
  123SOL    HW2  491   1.866   1.204   0.538  1.9599 -0.6392 -0.4646
  123SOL     MW  492   1.849   1.147   0.477  0.1578 -0.3246 -0.3412
  124SOL     OW  493   0.608   0.550   0.932 -0.4341 -0.3249  0.2387
  124SOL    HW1  494   0.547   0.530   0.861 -2.2649  0.5494  0.4582
  124SOL    HW2  495   0.627   0.647   0.926 -0.4609 -0.6116 -2.7736
  124SOL     MW  496   0.603   0.560   0.922 -0.6792 -0.2474 -0.1298
  125SOL     OW  497   0.715   1.782   1.744  0.3357  0.1737  0.2083
  125SOL    HW1  498   0.633   1.732   1.739 -0.0808  1.8957  0.9151
  125SOL    HW2  499   0.686   1.868   1.728 -0.5701  0.5942 -2.4465
  125SOL     MW  500   0.701   1.787   1.741  0.1613  0.4564 -0.0487
  126SOL     OW  501   2.143   1.577   1.989  0.7297 -0.4130 -0.1734
  126SOL    HW1  502   2.193   1.661   1.990  1.8642 -2.1865  1.5417
  126SOL    HW2  503   2.206   1.504   1.983  0.5354 -3.0946 -0.4560
  126SOL     MW  504   2.158   1.578   1.988  0.8538 -1.0008  0.0156
  127SOL     OW  505   0.565   0.803   1.819 -0.1659  0.2316  0.2419
  127SOL    HW1  506   0.657   0.779   1.844 -0.1530 -1.4698 -2.2464
  127SOL    HW2  507   0.536   0.882   1.871 -1.6941  0.3073  1.8713
  127SOL     MW  508   0.573   0.810   1.829 -0.3658  0.0171  0.1286
  128SOL     OW  509   1.730   0.710   2.916 -0.5066 -0.1710  0.0238
  128SOL    HW1  510   1.758   0.694   2.825  0.6736  0.4032  1.0667
  128SOL    HW2  511   1.715   0.806   2.925 -0.6120 -0.1599  3.5564
  128SOL     MW  512   1.732   0.721   2.905 -0.3648 -0.0938  0.6275
  129SOL     OW  513   1.645   0.920   0.135  0.1315  0.0407  0.1856
  129SOL    HW1  514   1.571   0.863   0.119 -0.3124  3.5229  0.8160
  129SOL    HW2  515   1.679   0.868   0.207  0.3304 -1.3495  0.6666
  129SOL     MW  516   1.639   0.905   0.142  0.0992  0.3167  0.3322
  130SOL     OW  517   0.806   1.374   0.278  0.1525 -0.0145  0.0450
  130SOL    HW1  518   0.847   1.360   0.366  1.2685  2.8431  1.4844
  130SOL    HW2  519   0.830   1.461   0.256  0.0795 -2.4961 -1.9193
  130SOL     MW  520   0.815   1.383   0.287  0.2901  0.0351 -0.0243
  131SOL     OW  521   3.034   0.848   3.098 -0.5022  0.0778 -0.3214
  131SOL    HW1  522   3.042   0.865   3.003  2.8080 -0.1719 -1.9535
  131SOL    HW2  523   3.119   0.807   3.123  2.0106 -2.4516  1.3837
  131SOL     MW  524   3.046   0.845   3.089  0.2661 -0.2889 -0.3118
  132SOL     OW  525   2.705   0.137   1.348  0.0093 -0.0312 -0.4166
  132SOL    HW1  526   2.748   0.179   1.275 -0.8869 -1.9015 -1.3230
  132SOL    HW2  527   2.615   0.108   1.324  1.1737 -0.1711  2.0947
  132SOL     MW  528   2.699   0.139   1.335  0.0447 -0.2965 -0.2048
  133SOL     OW  529   1.047   0.155   1.706 -0.2133 -0.3945  0.2548
  133SOL    HW1  530   1.095   0.069   1.695 -1.2334 -1.4118 -0.6060
  133SOL    HW2  531   1.017   0.166   1.795  0.0861  0.0019  0.2619
  133SOL     MW  532   1.049   0.145   1.716 -0.3084 -0.4764  0.1422
  134SOL     OW  533   1.411   2.518   1.403 -0.2379  0.0429  0.3842
  134SOL    HW1  534   1.325   2.555   1.380  1.8606 -0.3008  0.5973
  134SOL    HW2  535   1.443   2.547   1.488  0.0712 -0.4343  3.6092
  134SOL     MW  536   1.404   2.526   1.411  0.0798 -0.0654  0.8378
  135SOL     OW  537   3.010   0.960   2.859  0.2240 -0.3059 -0.3470
  135SOL    HW1  538   3.096   1.017   2.868 -0.1389  1.4324 -0.2128
  135SOL    HW2  539   2.939   1.022   2.866  2.5425  0.5105 -0.8679
  135SOL     MW  540   3.012   0.976   2.861  0.4820  0.0312 -0.3980
  136SOL     OW  541   0.212   2.041   0.788 -0.4890  0.3993  0.3935
  136SOL    HW1  542   0.149   1.968   0.808  0.9901  0.7368  1.9585
  136SOL    HW2  543   0.280   2.001   0.724  3.7764  1.7468 -0.4980
  136SOL     MW  544   0.212   2.026   0.782  0.2690  0.6216  0.4824
  137SOL     OW  545   0.694   2.034   0.502 -0.0618  0.5431  0.2186
  137SOL    HW1  546   0.664   2.034   0.594 -0.8588  0.9259  1.4733
  137SOL    HW2  547   0.612   2.070   0.464 -0.0012 -1.6519 -0.1037
  137SOL     MW  548   0.679   2.039   0.509 -0.1590  0.3040  0.3416
  138SOL     OW  549   0.491   0.579   1.187  0.2146 -0.4017  0.0852
  138SOL    HW1  550   0.394   0.560   1.187 -0.8469  0.3544  2.4138
  138SOL    HW2  551   0.527   0.557   1.102  0.8464 -0.9262 -0.3149
  138SOL     MW  552   0.483   0.574   1.176  0.1579 -0.3711  0.3396
  139SOL     OW  553   2.868   0.546   1.233  0.3441 -0.6538 -0.0192
  139SOL    HW1  554   2.933   0.493   1.282  0.9444  2.6995 -1.6103
  139SOL    HW2  555   2.866   0.630   1.284 -0.6559  0.5883 -1.4986
  139SOL     MW  556   2.877   0.550   1.246  0.2914 -0.0475 -0.4244
  140SOL     OW  557   0.969   0.509   2.019  0.0367 -0.2591 -0.2465
  140SOL    HW1  558   0.954   0.427   1.981  0.6307  0.9806 -1.0479
  140SOL    HW2  559   0.995   0.489   2.115 -1.0750 -0.9296  2.6984
  140SOL     MW  560   0.971   0.496   2.027 -0.0316 -0.1840  0.0363
  141SOL     OW  561   1.004   0.642   1.699 -0.3387  0.0735  0.0955
  141SOL    HW1  562   1.060   0.565   1.680  1.2125 -0.1266 -0.6504
  141SOL    HW2  563   1.058   0.716   1.692  0.1105 -1.2880 -0.3036
  141SOL     MW  564   1.018   0.642   1.695 -0.0748 -0.1325 -0.0556
  142SOL     OW  565   0.867   1.130   0.749 -0.2518  0.6483 -0.4578
  142SOL    HW1  566   0.869   1.074   0.663  0.6554 -1.1662  0.3501
  142SOL    HW2  567   0.952   1.180   0.754  2.1225  0.4680 -0.9119
  142SOL     MW  568   0.879   1.130   0.739  0.1811  0.3851 -0.4111
  143SOL     OW  569   1.804   0.709   1.096  0.1028 -0.7026  0.6605
  143SOL    HW1  570   1.843   0.718   1.008 -1.0339  3.7077 -0.2392
  143SOL    HW2  571   1.712   0.715   1.070  0.0038  0.2745 -0.9277
  143SOL     MW  572   1.797   0.711   1.081 -0.0602  0.0082  0.3322
  144SOL     OW  573   0.276   1.327   1.702  0.5317  0.6244  0.3977
  144SOL    HW1  574   0.353   1.285   1.659  0.1477  0.5358 -0.7410
  144SOL    HW2  575   0.307   1.334   1.798 -1.7948  0.8958  2.0200
  144SOL     MW  576   0.290   1.322   1.709  0.1741  0.6485  0.4615
  145SOL     OW  577   0.239   0.509   1.185 -0.4009 -0.4661  0.5028
  145SOL    HW1  578   0.259   0.427   1.231  0.8979  0.8438  1.4944
  145SOL    HW2  579   0.162   0.503   1.142  1.7645  2.3696 -0.1198
  145SOL     MW  580   0.232   0.497   1.186  0.0562  0.0809  0.5515
  146SOL     OW  581   0.846   1.991   1.407 -0.1802 -0.0979  0.0572
  146SOL    HW1  582   0.904   1.977   1.335  0.5487 -2.3269 -1.2813
  146SOL    HW2  583   0.765   1.963   1.368  0.2875 -0.2397  1.1551
  146SOL     MW  584   0.843   1.985   1.392 -0.0223 -0.4107  0.0255
  147SOL     OW  585   0.375   0.502   2.981  0.5152  0.4104 -0.4375
  147SOL    HW1  586   0.324   0.452   3.045 -0.7925 -0.9120  0.8828
  147SOL    HW2  587   0.313   0.559   2.931  0.8494  1.6045  1.2964
  147SOL     MW  588   0.360   0.503   2.983  0.3868  0.3935 -0.0345
  148SOL     OW  589   0.081   0.960   1.306 -0.5780 -0.1470 -0.2873
  148SOL    HW1  590   0.159   1.002   1.276  4.7263 -0.5893 -0.6310
  148SOL    HW2  591   0.030   1.040   1.333 -0.9766 -2.2281 -0.2879
  148SOL     MW  592   0.084   0.976   1.305  0.0692 -0.4799 -0.3328
  149SOL     OW  593   1.480   1.108   1.402  0.6041  0.5802  0.3554
  149SOL    HW1  594   1.437   1.094   1.489 -1.7793  2.6013  1.0756
  149SOL    HW2  595   1.492   1.200   1.394 -0.8457  0.1304  2.2600
  149SOL     MW  596   1.476   1.118   1.412  0.0984  0.7875  0.7017
  150SOL     OW  597   1.720   1.384   0.779 -0.1260  0.4069  0.2913
  150SOL    HW1  598   1.775   1.308   0.783 -1.2908  1.4376  0.5308
  150SOL    HW2  599   1.769   1.445   0.830  0.5978 -2.1660  2.7743
  150SOL     MW  600   1.734   1.382   0.786 -0.1842  0.2034  0.6505
  151SOL     OW  601   1.662   1.830   0.793  0.1547  0.1250 -0.0524
  151SOL    HW1  602   1.662   1.846   0.695 -0.2380  1.2287 -0.3844
  151SOL    HW2  603   1.580   1.794   0.811 -0.0172  2.6995  1.0805
  151SOL     MW  604   1.652   1.828   0.782  0.0802  0.6103  0.0533
  152SOL     OW  605   0.788   1.442   1.644 -0.2455 -0.2232  0.5103
  152SOL    HW1  606   0.821   1.447   1.733  2.5561 -1.5392 -0.4646
  152SOL    HW2  607   0.779   1.350   1.630 -2.4043  2.5217  2.1276
  152SOL     MW  608   0.792   1.431   1.654 -0.1607 -0.0347  0.5951
  153SOL     OW  609   2.589   1.217   0.790 -0.1481 -0.1943 -0.5701
  153SOL    HW1  610   2.655   1.182   0.728  1.0784  1.4792 -1.3787
  153SOL    HW2  611   2.512   1.161   0.789 -1.4731  1.5878 -1.3216
  153SOL     MW  612   2.588   1.205   0.782 -0.1611  0.2616 -0.7760
  154SOL     OW  613   0.149   1.750   1.715 -0.3091  0.1532  0.0635
  154SOL    HW1  614   0.134   1.669   1.671  0.8426 -2.3854 -0.1166
  154SOL    HW2  615   0.226   1.735   1.770 -1.6974 -1.6382 -0.9247
  154SOL     MW  616   0.157   1.738   1.716 -0.3403 -0.4181 -0.0906
  155SOL     OW  617   1.162   0.700   0.278  0.3293  0.8925  0.3409
  155SOL    HW1  618   1.150   0.648   0.356 -0.8137  0.7515  2.8653
  155SOL    HW2  619   1.153   0.792   0.311  0.0500  0.6649  0.0183
  155SOL     MW  620   1.160   0.706   0.292  0.1416  0.8439  0.6314
  156SOL     OW  621   1.559   2.998   1.058  0.2081 -0.0271 -0.3445
  156SOL    HW1  622   1.646   3.012   1.090  0.3554  1.2103 -0.3424
  156SOL    HW2  623   1.521   2.929   1.107 -0.4251 -0.8009 -0.3749
  156SOL     MW  624   1.565   2.991   1.069  0.1440  0.0341 -0.3483
  157SOL     OW  625   1.402   1.157   0.103 -0.6133 -0.3281  0.0733
  157SOL    HW1  626   1.436   1.074   0.132  1.7539 -4.2748  1.3961
  157SOL    HW2  627   1.469   1.224   0.136  3.1372 -2.5257  1.3849
  157SOL     MW  628   1.415   1.155   0.112  0.1939 -1.1388  0.4209
  158SOL     OW  629   0.389   1.631   2.273 -0.3262  0.7995  0.4947
  158SOL    HW1  630   0.385   1.697   2.203 -0.7302  1.4927  0.9424
  158SOL    HW2  631   0.351   1.675   2.347  0.0128 -1.6676 -0.1413
  158SOL     MW  632   0.383   1.646   2.273 -0.3348  0.5655  0.4699
  159SOL     OW  633   1.258   1.711   0.479 -0.6858 -0.0575  0.2199
  159SOL    HW1  634   1.222   1.659   0.407 -1.2884  2.3810 -0.4425
  159SOL    HW2  635   1.183   1.740   0.532  0.2465 -1.2699 -1.5621
  159SOL     MW  636   1.243   1.708   0.476 -0.6423  0.1042 -0.1026
  160SOL     OW  637   0.505   1.184   1.565 -0.2129  1.2568 -0.2747
  160SOL    HW1  638   0.458   1.097   1.566 -1.7214  1.4877 -0.0240
  160SOL    HW2  639   0.593   1.165   1.594  0.4529 -0.4419  0.3159
  160SOL     MW  640   0.510   1.170   1.569 -0.3241  1.0631 -0.1637
  161SOL     OW  641   0.472   2.233   2.525 -0.2162 -0.1729  0.0667
  161SOL    HW1  642   0.373   2.247   2.520  0.7968 -0.6107  0.1694
  161SOL    HW2  643   0.490   2.153   2.480  1.2173 -1.3364 -0.4764
  161SOL     MW  644   0.461   2.224   2.518  0.1066 -0.3842  0.0086
  162SOL     OW  645   1.076   1.776   1.852 -0.3624 -0.3387 -0.2661
  162SOL    HW1  646   1.081   1.868   1.889 -0.0156  1.6855  2.6226
  162SOL    HW2  647   0.994   1.731   1.875 -0.5629 -1.0101 -0.8971
  162SOL     MW  648   1.066   1.782   1.860 -0.3431 -0.1602  0.0318
  163SOL     OW  649   2.060   3.045   0.895 -0.9003  0.9062  0.2074
  163SOL    HW1  650   2.070   3.113   0.834  0.0587 -1.2550  2.2266
  163SOL    HW2  651   2.078   2.961   0.850  0.9338 -0.6476 -1.7565
  163SOL     MW  652   2.064   3.043   0.881 -0.5318  0.4161  0.2147
  164SOL     OW  653   0.303   0.209   0.812  0.1639 -0.5135  0.0275
  164SOL    HW1  654   0.204   0.207   0.835 -0.2780  0.2648 -1.1979
  164SOL    HW2  655   0.313   0.137   0.751 -2.9331  1.6138  0.3776
  164SOL     MW  656   0.291   0.199   0.807 -0.3030 -0.1301 -0.0880
  165SOL     OW  657   1.281   1.306   0.337 -0.6869  0.2943 -0.2260
  165SOL    HW1  658   1.236   1.243   0.403 -1.9612 -0.2368  1.4341
  165SOL    HW2  659   1.319   1.247   0.271 -1.6268  1.7987 -1.4895
  165SOL     MW  660   1.280   1.290   0.337 -0.9790  0.4227 -0.1737
  166SOL     OW  661   0.538   1.188   1.008  0.1036 -0.5208  0.7480
  166SOL    HW1  662   0.515   1.202   1.096 -4.7630 -1.3064 -1.4281
  166SOL    HW2  663   0.629   1.155   1.015  1.1483 -2.8593  3.0422
  166SOL     MW  664   0.547   1.186   1.020 -0.4007 -0.9330  0.7636
  167SOL     OW  665   0.817   1.102   0.251  0.0072  0.2487 -0.1090
  167SOL    HW1  666   0.797   1.199   0.246 -0.7504 -2.2856  0.9567
  167SOL    HW2  667   0.887   1.111   0.180 -0.3551  0.3601 -1.1192
  167SOL     MW  668   0.824   1.116   0.241 -0.1405 -0.0710 -0.1017
  168SOL     OW  669   1.728   1.647   3.029 -0.0614  0.3521  0.3554
  168SOL    HW1  670   1.655   1.708   3.022  1.0501 -5.9881 -0.6416
  168SOL    HW2  671   1.682   1.565   3.005 -0.2251 -0.2618  0.9568
  168SOL     MW  672   1.713   1.645   3.025  0.0636 -0.5654  0.3032
  169SOL     OW  673   0.357   0.993   1.327 -0.2013 -0.1468 -0.7644
  169SOL    HW1  674   0.388   0.946   1.407  1.0851  1.5631 -0.3891
  169SOL    HW2  675   0.423   1.059   1.311 -0.8524 -0.5721 -0.8542
  169SOL     MW  676   0.370   0.995   1.335 -0.1175  0.0227 -0.7267
  170SOL     OW  677   1.104   1.551   1.503  0.4822 -0.0530  0.2026
  170SOL    HW1  678   1.033   1.616   1.510  0.3932  3.1102 -1.3342
  170SOL    HW2  679   1.121   1.531   1.407 -3.2583 -2.6838 -2.8129
  170SOL     MW  680   1.097   1.557   1.491 -0.0231  0.0172 -0.3980
  171SOL     OW  681   0.560   1.400   0.577 -0.1533  0.5993 -1.0694
  171SOL    HW1  682   0.528   1.407   0.669 -0.8153  1.6018 -0.2749
  171SOL    HW2  683   0.534   1.308   0.565  0.3378  1.7205  3.2043
  171SOL     MW  684   0.552   1.389   0.588 -0.1758  0.8795 -0.4007
  172SOL     OW  685   0.865   0.305   1.266 -0.1952 -0.2322  0.2120
  172SOL    HW1  686   0.793   0.337   1.216 -0.9580 -1.1183 -0.1650
  172SOL    HW2  687   0.813   0.242   1.321  2.2938 -0.4727 -1.5567
  172SOL     MW  688   0.849   0.301   1.267  0.0326 -0.3808 -0.0711
  173SOL     OW  689   0.484   1.777   0.245  0.6652  0.3979 -0.4849
  173SOL    HW1  690   0.494   1.681   0.228  0.0427 -0.8947  0.1597
  173SOL    HW2  691   0.500   1.782   0.344 -1.8743  3.9801  1.0477
  173SOL     MW  692   0.488   1.765   0.256  0.2480  0.7000 -0.1977
  174SOL     OW  693   1.848   0.895   1.493  0.3779 -0.4026  0.4853
  174SOL    HW1  694   1.805   0.811   1.506  0.2138 -0.6685 -0.6740
  174SOL    HW2  695   1.831   0.925   1.405  1.5171  0.9455  0.7074
  174SOL     MW  696   1.840   0.888   1.483  0.5065 -0.2598  0.3616
  175SOL     OW  697   0.475   1.498   0.233  0.2201 -0.8642  0.8031
  175SOL    HW1  698   0.406   1.446   0.189  0.9880 -0.7412  2.5975
  175SOL    HW2  699   0.518   1.436   0.293 -1.2065  3.4088  0.6369
  175SOL     MW  700   0.472   1.483   0.235  0.1332 -0.2842  1.0180
  176SOL     OW  701   0.183   1.471   1.200 -0.5525  0.3427  0.1789
  176SOL    HW1  702   0.151   1.416   1.135 -1.9410 -2.7346 -1.3838
  176SOL    HW2  703   0.113   1.467   1.265 -2.0303 -1.4945 -1.7892
  176SOL     MW  704   0.170   1.464   1.200 -0.9307 -0.3058 -0.2869
  177SOL     OW  705   0.572   0.352   1.337 -0.3305  0.5444  0.4959
  177SOL    HW1  706   0.574   0.442   1.301  0.7294 -1.7970  4.0427
  177SOL    HW2  707   0.562   0.372   1.434 -0.0244  0.1765  1.6219
  177SOL     MW  708   0.571   0.366   1.345 -0.1502  0.1869  1.1124
  178SOL     OW  709   3.067   0.526   2.977  0.5812 -0.1317  0.2326
  178SOL    HW1  710   2.997   0.550   3.039 -0.2897 -2.2577 -4.4454
  178SOL    HW2  711   3.016   0.472   2.910 -0.3870 -1.4377 -1.1150
  178SOL     MW  712   3.051   0.522   2.976  0.3386 -0.5845 -0.5624
  179SOL     OW  713   1.571   1.421   1.343 -0.2587  0.3769  0.7655
  179SOL    HW1  714   1.555   1.420   1.433 -5.4855  0.3279 -3.0597
  179SOL    HW2  715   1.665   1.420   1.332 -0.7552 -0.3695  1.5791
  179SOL     MW  716   1.581   1.421   1.353 -1.0139  0.2719  0.3681
  180SOL     OW  717   2.986   0.216   0.462  0.4543  0.2964  0.4962
  180SOL    HW1  718   2.928   0.261   0.396 -1.1491 -3.6865  0.6598
  180SOL    HW2  719   3.059   0.280   0.480 -1.5400  0.0102  0.8046
  180SOL     MW  720   2.988   0.230   0.456 -0.0204 -0.2668  0.5585
  181SOL     OW  721   1.118   1.345   3.060 -0.1464  0.1734  0.0216
  181SOL    HW1  722   1.185   1.405   3.094  1.5717  0.1928  0.0180
  181SOL    HW2  723   1.169   1.288   3.008  1.1515  0.0973  1.0187
  181SOL     MW  724   1.133   1.345   3.058  0.2516  0.1659  0.1527
  182SOL     OW  725   0.436   0.909   1.577 -0.5353  0.6310  0.2171
  182SOL    HW1  726   0.340   0.896   1.581  0.2422 -0.8610  0.7254
  182SOL    HW2  727   0.475   0.871   1.658 -3.0658 -0.7289 -1.2416
  182SOL     MW  728   0.429   0.902   1.589 -0.7666  0.2548  0.0917
  183SOL     OW  729   1.596   1.731   1.227 -0.1418  0.3253 -0.0211
  183SOL    HW1  730   1.684   1.703   1.256 -0.4964 -0.7270  2.9334
  183SOL    HW2  731   1.541   1.671   1.273  1.9451  0.0787  2.3051
  183SOL     MW  732   1.600   1.719   1.237  0.0867  0.1539  0.6757
  184SOL     OW  733   0.812   0.731   1.925 -0.1501  0.0194 -0.8082
  184SOL    HW1  734   0.871   0.729   1.848 -0.8561  1.1853  1.3210
  184SOL    HW2  735   0.840   0.651   1.968  3.2285  1.4534 -1.2630
  184SOL     MW  736   0.824   0.720   1.920  0.2025  0.3624 -0.5873
  185SOL     OW  737   1.116   0.973   1.923 -0.1762 -0.5902 -0.1270
  185SOL    HW1  738   1.127   0.883   1.962  1.5731 -1.6410 -0.0371
  185SOL    HW2  739   1.167   1.022   1.980 -2.7561 -0.1878  0.1657
  185SOL     MW  740   1.124   0.967   1.935 -0.2858 -0.6758 -0.0765
  186SOL     OW  741   0.366   1.671   1.454  0.2282  0.5458  0.2981
  186SOL    HW1  742   0.420   1.622   1.391  2.8195  1.0015  0.3576
  186SOL    HW2  743   0.278   1.625   1.468  1.4255  1.8279  0.4979
  186SOL     MW  744   0.361   1.658   1.447  0.7281  0.7751  0.3323
  187SOL     OW  745   1.510   0.729   1.350  0.2067 -0.7333  0.1620
  187SOL    HW1  746   1.544   0.686   1.426  0.1654  0.5800  0.7235
  187SOL    HW2  747   1.418   0.736   1.378  0.1834 -0.7067 -1.9927
  187SOL     MW  748   1.502   0.724   1.364  0.1982 -0.5565 -0.0482
  188SOL     OW  749   1.902   1.165   0.837  0.3601 -0.0668 -0.5056
  188SOL    HW1  750   1.898   1.182   0.928 -0.0320  0.2999 -0.5014
  188SOL    HW2  751   1.956   1.087   0.830  0.7322 -1.2957  0.0764
  188SOL     MW  752   1.908   1.157   0.848  0.3574 -0.1806 -0.4283
  189SOL     OW  753   0.693   0.807   0.845  0.1415 -0.2060 -0.0486
  189SOL    HW1  754   0.635   0.890   0.852 -2.4752  2.6202 -2.0229
  189SOL    HW2  755   0.760   0.826   0.913  2.9748 -1.8303  0.4460
  189SOL     MW  756   0.694   0.820   0.855  0.1701 -0.0474 -0.2438
  190SOL     OW  757   1.865   0.242   2.190 -0.7206  0.7937  0.1260
  190SOL    HW1  758   1.899   0.244   2.280  2.1489 -1.2552  0.0554
  190SOL    HW2  759   1.918   0.300   2.139 -0.7478 -0.9366  2.8094
  190SOL     MW  760   1.877   0.250   2.195 -0.3456  0.2951  0.4707
  191SOL     OW  761   1.553   0.941   1.182 -0.3563 -0.1755 -0.2225
  191SOL    HW1  762   1.528   1.011   1.239  0.6081 -1.0234 -1.9443
  191SOL    HW2  763   1.525   0.864   1.228 -1.6689  3.3068  0.5049
  191SOL     MW  764   1.546   0.940   1.195 -0.4022  0.1721 -0.3537
  192SOL     OW  765   0.567   2.119   2.773 -0.2920  0.0718  0.2922
  192SOL    HW1  766   0.541   2.167   2.694 -1.4060 -0.3904 -0.3428
  192SOL    HW2  767   0.533   2.027   2.764  2.0020 -1.5673 -0.1521
  192SOL     MW  768   0.559   2.113   2.762 -0.1363 -0.2055  0.1498
  193SOL     OW  769   0.907   1.590   0.758 -0.4686  0.3787  0.1198
  193SOL    HW1  770   0.847   1.587   0.833  1.2655  0.8450 -1.8830
  193SOL    HW2  771   0.886   1.523   0.683  0.7107  0.1149 -1.3370
  193SOL     MW  772   0.896   1.581   0.758 -0.0842  0.4054 -0.3367
  194SOL     OW  773   0.490   1.448   0.897 -0.0876  0.2304 -0.3305
  194SOL    HW1  774   0.502   1.366   0.946 -1.5441 -3.6898 -2.0670
  194SOL    HW2  775   0.408   1.436   0.849 -0.6372  0.5317  2.5530
  194SOL     MW  776   0.481   1.435   0.897 -0.3523 -0.2471 -0.1792
  195SOL     OW  777   1.295   1.149   2.943 -0.3548 -0.5571 -0.2289
  195SOL    HW1  778   1.338   1.170   3.029 -1.3891  0.7708  0.6924
  195SOL    HW2  779   1.232   1.080   2.950  3.0235  0.4295 -1.4088
  195SOL     MW  780   1.292   1.143   2.956 -0.0456 -0.2517 -0.2630
  196SOL     OW  781   2.205   0.999   0.528 -0.3089  0.4620 -0.3185
  196SOL    HW1  782   2.156   0.992   0.451  1.6452  2.1385  1.3578
  196SOL    HW2  783   2.197   1.094   0.544 -2.2097 -0.6824 -0.0649
  196SOL     MW  784   2.197   1.011   0.520 -0.3019  0.5322 -0.0639
  197SOL     OW  785   0.637   1.353   2.162 -1.1110 -0.0002  0.4638
  197SOL    HW1  786   0.679   1.265   2.126  0.3337 -3.0725  0.2988
  197SOL    HW2  787   0.636   1.405   2.082 -0.9976  2.2800  0.3895
  197SOL     MW  788   0.642   1.348   2.147 -0.9055 -0.1047  0.4322
  198SOL     OW  789   2.930   1.400   1.019  0.4927 -0.0782 -0.7193
  198SOL    HW1  790   2.899   1.469   0.959 -1.7273  2.4374  0.2046
  198SOL    HW2  791   2.855   1.342   1.023  1.0087  1.4074  0.5997
  198SOL     MW  792   2.916   1.401   1.012  0.2679  0.4497 -0.4234
  199SOL     OW  793   0.629   1.381   1.872  1.3016 -0.4347  0.4707
  199SOL    HW1  794   0.536   1.365   1.902  0.3973  2.3022 -0.5966
  199SOL    HW2  795   0.610   1.439   1.794  1.0115 -1.5918 -1.9696
  199SOL     MW  796   0.614   1.386   1.866  1.1440 -0.2263  0.0079
  200SOL     OW  797   1.869   2.924   1.376  0.5136  0.0339  0.1816
  200SOL    HW1  798   1.919   2.964   1.301 -1.9260  0.4521 -1.2122
  200SOL    HW2  799   1.778   2.965   1.382 -2.1627  1.1340 -1.5839
  200SOL     MW  800   1.863   2.934   1.367 -0.1614  0.2342 -0.2352
  201SOL     OW  801   0.978   0.361   0.768 -0.1369 -0.7702 -0.9327
  201SOL    HW1  802   0.968   0.270   0.742  1.1038  1.8779 -0.1076
  201SOL    HW2  803   1.072   0.366   0.790  3.2423  0.5610 -0.0346
  201SOL     MW  804   0.989   0.349   0.768  0.4727 -0.2452 -0.7053
  202SOL     OW  805   1.486   1.645   0.920 -0.5742  1.4427  0.6016
  202SOL    HW1  806   1.480   1.558   0.887  1.7121  1.7257 -0.3999
  202SOL    HW2  807   1.534   1.646   1.001 -1.5420  0.5593  0.5542
  202SOL     MW  808   1.492   1.634   0.926 -0.4002  1.3635  0.4632
  203SOL     OW  809   3.027   0.451   1.445 -0.0356 -0.5614  0.4216
  203SOL    HW1  810   3.076   0.366   1.446 -1.1128  0.8284  2.7689
  203SOL    HW2  811   3.085   0.526   1.455  1.7402 -1.0043  3.0563
  203SOL     MW  812   3.041   0.449   1.446  0.0565 -0.4364  1.0789
  204SOL     OW  813   1.029   1.797   0.608 -0.0226  0.5898  0.4086
  204SOL    HW1  814   1.010   1.722   0.668  1.0057 -2.7523 -0.9335
  204SOL    HW2  815   0.953   1.793   0.546  0.1110 -0.7835 -0.2226
  204SOL     MW  816   1.016   1.786   0.608  0.1307 -0.0324  0.1483
  205SOL     OW  817   1.414   3.094   1.301  0.0433  0.0469  0.3629
  205SOL    HW1  818   1.435   3.082   1.206  1.7185 -0.1274 -0.3765
  205SOL    HW2  819   1.354   3.169   1.299 -0.5891 -0.6913 -0.3637
  205SOL     MW  820   1.409   3.102   1.288  0.1809 -0.0735  0.1695
  206SOL     OW  821   0.503   3.101   1.417  0.1075 -0.1785 -0.3782
  206SOL    HW1  822   0.452   3.086   1.337  1.7088  0.7465 -0.0057
  206SOL    HW2  823   0.551   3.018   1.425  2.5566  0.5238 -0.1951
  206SOL     MW  824   0.503   3.088   1.408  0.6419  0.0362 -0.3049
  207SOL     OW  825   0.908   1.626   0.228 -0.2535  0.4423 -0.0772
  207SOL    HW1  826   0.927   1.714   0.201 -0.2065  3.2632 -0.7311
  207SOL    HW2  827   0.994   1.580   0.241 -0.2114  0.4025 -0.1440
  207SOL     MW  828   0.922   1.631   0.226 -0.2417  0.8092 -0.1723
  208SOL     OW  829   0.706   1.694   1.355 -0.9115  0.3827  0.4775
  208SOL    HW1  830   0.748   1.723   1.440  0.3158  1.4206  0.2307
  208SOL    HW2  831   0.767   1.633   1.317 -2.5023  2.6445  3.2637
  208SOL     MW  832   0.720   1.690   1.361 -0.9595  0.8181  0.8125
  209SOL     OW  833   1.551   0.531   2.823 -0.4149  0.6232 -0.9771
  209SOL    HW1  834   1.605   0.601   2.864 -2.6403  0.6307 -1.6321
  209SOL    HW2  835   1.606   0.453   2.800  2.9795  1.5022  1.6882
  209SOL     MW  836   1.566   0.530   2.826 -0.2607  0.7402 -0.7118
  210SOL     OW  837   1.464   1.372   0.862  0.0191  0.5578  1.0401
  210SOL    HW1  838   1.555   1.341   0.832 -1.6542  0.3586  0.1189
  210SOL    HW2  839   1.414   1.383   0.777  0.5746  2.4492 -0.8499
  210SOL     MW  840   1.469   1.369   0.847 -0.1284  0.7811  0.6692
  211SOL     OW  841   1.717   0.272   1.011 -0.3864  0.1431  0.1316
  211SOL    HW1  842   1.702   0.306   0.922 -1.3571  1.6524 -0.5226
  211SOL    HW2  843   1.808   0.298   1.021 -0.0564  0.4219  1.9914
  211SOL     MW  844   1.727   0.280   1.001 -0.4709  0.3790  0.2907
  212SOL     OW  845   0.294   1.055   0.176  0.6511  0.0632 -0.2350
  212SOL    HW1  846   0.237   1.001   0.227  1.3692 -2.7421 -2.9512
  212SOL    HW2  847   0.340   0.994   0.117  0.5164 -1.1717 -0.2401
  212SOL     MW  848   0.293   1.040   0.175  0.7280 -0.4699 -0.5940
  213SOL     OW  849   0.492   1.741   2.991 -0.4942  0.1560 -0.4417
  213SOL    HW1  850   0.521   1.816   3.044  0.6254  1.1866 -0.9047
  213SOL    HW2  851   0.540   1.754   2.910  0.0593 -2.3626  2.1574
  213SOL     MW  852   0.502   1.753   2.987 -0.2735 -0.0403 -0.1599
  214SOL     OW  853   0.641   0.365   2.165 -0.0292  0.1559 -0.5146
  214SOL    HW1  854   0.569   0.431   2.166 -0.2714 -1.5528  3.6159
  214SOL    HW2  855   0.655   0.369   2.072 -2.3584 -2.6482 -3.3718
  214SOL     MW  856   0.634   0.374   2.153 -0.3685 -0.4396 -0.3466
  215SOL     OW  857   0.490   0.674   2.634 -0.6219 -0.5902 -0.1199
  215SOL    HW1  858   0.466   0.682   2.544  2.8126 -0.0720 -0.0212
  215SOL    HW2  859   0.412   0.650   2.681  1.6251 -1.5529  1.7304
  215SOL     MW  860   0.477   0.672   2.628  0.1277 -0.6489  0.1373
  216SOL     OW  861   2.992   3.017   2.747  0.0122  0.8417 -0.0556
  216SOL    HW1  862   2.915   3.039   2.792 -1.4659  1.6787 -1.3116
  216SOL    HW2  863   3.011   3.096   2.704  0.5545 -0.8951  1.1085
  216SOL     MW  864   2.985   3.030   2.748 -0.1112  0.7230 -0.0677
  217SOL     OW  865   1.045   1.126   0.109 -0.2936 -0.0862 -0.4880
  217SOL    HW1  866   1.080   1.053   0.061  1.4927  1.7122 -0.8386
  217SOL    HW2  867   1.103   1.195   0.074  0.3400  1.7360 -1.5242
  217SOL     MW  868   1.057   1.125   0.098  0.0257  0.3915 -0.6710
  218SOL     OW  869   0.892   1.341   2.656 -0.7321  0.4920  0.4296
  218SOL    HW1  870   0.893   1.270   2.727  0.1942 -0.2617  0.6823
  218SOL    HW2  871   0.980   1.380   2.646  0.3834 -2.8863 -1.5351
  218SOL     MW  872   0.904   1.337   2.664 -0.4627 -0.0532  0.2037
  219SOL     OW  873   1.130   0.345   2.603 -0.0098 -0.0865  0.0212
  219SOL    HW1  874   1.208   0.407   2.631  0.1024  0.9079  2.0960
  219SOL    HW2  875   1.058   0.401   2.595  1.5392 -1.7021  1.6483
  219SOL     MW  876   1.131   0.360   2.606  0.2094 -0.1684  0.5097
  220SOL     OW  877   1.677   0.462   2.217 -0.4988 -0.1003  0.2925
  220SOL    HW1  878   1.604   0.484   2.161  1.4742  1.3478  0.4511
  220SOL    HW2  879   1.719   0.384   2.182 -0.6769 -0.1866  0.1692
  220SOL     MW  880   1.673   0.455   2.205 -0.2620  0.0794  0.2971
  221SOL     OW  881   0.340   1.326   2.916 -0.1276 -0.0906  0.2665
  221SOL    HW1  882   0.414   1.269   2.904 -0.7838 -1.3005  0.9354
  221SOL    HW2  883   0.360   1.399   2.856 -0.8183  0.4827 -2.7012
  221SOL     MW  884   0.353   1.328   2.907 -0.3053 -0.1746 -0.0368
  222SOL     OW  885   0.466   0.956   2.628  0.4079 -0.1275 -0.1321
  222SOL    HW1  886   0.401   0.947   2.558 -0.2709 -1.8974  1.8777
  222SOL    HW2  887   0.488   0.872   2.663 -1.9583  0.6959 -2.2927
  222SOL     MW  888   0.460   0.944   2.623  0.0062 -0.2524 -0.1520
  223SOL     OW  889   0.093   2.006   2.523  0.0502 -0.3714  0.0543
  223SOL    HW1  890   0.054   1.982   2.609 -0.3437  1.0051 -1.1743
  223SOL    HW2  891   0.089   2.103   2.521  0.2569 -2.6834 -1.3394
  223SOL     MW  892   0.088   2.015   2.534  0.0255 -0.4948 -0.2917
  224SOL     OW  893   1.549   0.737   2.519 -0.5089  0.6063 -0.1511
  224SOL    HW1  894   1.537   0.739   2.614  1.6963 -0.8155  1.7242
  224SOL    HW2  895   1.507   0.821   2.492  1.7823  1.8160  0.9159
  224SOL     MW  896   1.542   0.748   2.528  0.0843  0.5783  0.2371
  225SOL     OW  897   2.915   1.472   2.289 -0.2315 -0.5196 -0.6294
  225SOL    HW1  898   2.950   1.545   2.240  0.8082 -1.8600 -1.9494
  225SOL    HW2  899   2.855   1.503   2.362  1.0286  3.1607  1.0546
  225SOL     MW  900   2.912   1.486   2.292  0.0720 -0.2109 -0.5814
  226SOL     OW  901   0.412   1.514   2.745 -0.3318 -0.3605 -0.4704
  226SOL    HW1  902   0.511   1.502   2.733  0.4306  0.4560 -2.0809
  226SOL    HW2  903   0.399   1.609   2.735  3.3468 -1.0723 -2.4692
  226SOL     MW  904   0.424   1.525   2.742  0.2542 -0.3467 -0.9466
  227SOL     OW  905   0.544   1.129   2.834  0.0906 -0.1939 -0.3553
  227SOL    HW1  906   0.621   1.179   2.807  1.6129 -1.7406  2.9111
  227SOL    HW2  907   0.506   1.080   2.764 -2.2939  1.6031  0.6299
  227SOL     MW  908   0.549   1.129   2.822 -0.0232 -0.1609  0.2056
  228SOL     OW  909   0.748   1.129   2.069  0.4170 -0.2008  0.2581
  228SOL    HW1  910   0.765   1.158   1.981 -0.0293 -0.1477  0.7490
  228SOL    HW2  911   0.835   1.091   2.092  1.8240  0.6107  0.5018
  228SOL     MW  912   0.762   1.128   2.061  0.5437 -0.0867  0.3550
  229SOL     OW  913   0.144   0.667   0.051  0.2930  0.0567 -0.4593
  229SOL    HW1  914   0.112   0.634  -0.033  1.0292  0.8022 -1.5099
  229SOL    HW2  915   0.166   0.589   0.098  0.9443  1.3425 -2.2145
  229SOL     MW  916   0.143   0.652   0.046  0.4761  0.3247 -0.8295
  230SOL     OW  917   1.783   1.335   2.015  0.6743  0.2518 -0.0638
  230SOL    HW1  918   1.724   1.315   2.084  2.7440  0.4762 -0.5037
  230SOL    HW2  919   1.818   1.254   1.977  1.8237 -0.2871  1.7042
  230SOL     MW  920   1.780   1.322   2.019  1.0990  0.2103  0.1114
  231SOL     OW  921   2.753   1.261   2.181 -0.5049 -0.0892  0.4832
  231SOL    HW1  922   2.819   1.325   2.195 -2.4737  3.3378 -0.7017
  231SOL    HW2  923   2.698   1.309   2.118  3.2240 -0.3563 -1.3092
  231SOL     MW  924   2.754   1.276   2.175 -0.2726  0.3277  0.0904
  232SOL     OW  925   2.247   0.848   2.024  0.0093 -0.2973 -0.8136
  232SOL    HW1  926   2.177   0.853   1.960  0.7596 -1.1178 -1.4507
  232SOL    HW2  927   2.211   0.850   2.114 -1.9817 -3.4168  1.4799
  232SOL     MW  928   2.233   0.849   2.027 -0.1544 -0.8171 -0.5951
  233SOL     OW  929   2.061   0.404   2.053 -0.0861 -0.1829  0.1277
  233SOL    HW1  930   2.114   0.319   2.045  5.1099 -0.6167 -2.9034
  233SOL    HW2  931   2.123   0.459   2.106 -2.0580  0.8775  1.4674
  233SOL     MW  932   2.076   0.400   2.059  0.3393 -0.1003 -0.0954
  234SOL     OW  933   0.192   1.046   2.537  0.0546  0.4730  0.6114
  234SOL    HW1  934   0.102   1.059   2.498  0.6578 -0.3408  0.7422
  234SOL    HW2  935   0.231   1.135   2.547  2.1861  0.1623 -1.3069
  234SOL     MW  936   0.185   1.059   2.534  0.4154  0.3246  0.3756
  235SOL     OW  937   1.124   3.041   2.797 -0.6212  0.3602 -0.0421
  235SOL    HW1  938   1.129   3.017   2.887 -1.6315 -1.8065 -0.9430
  235SOL    HW2  939   1.095   3.135   2.796 -0.2696 -1.2732 -1.1699
  235SOL     MW  940   1.121   3.050   2.809 -0.7081 -0.1412 -0.3097
  236SOL     OW  941   2.930   0.589   0.093  0.7200  0.1997  0.5971
  236SOL    HW1  942   2.845   0.640   0.095  0.6085  1.6133  3.7831
  236SOL    HW2  943   2.999   0.655   0.088  1.2235  2.3507 -0.4681
  236SOL     MW  944   2.928   0.604   0.093  0.7717  0.6700  0.8769
  237SOL     OW  945   1.995   1.141   2.223 -0.3983  0.1947 -0.5616
  237SOL    HW1  946   1.927   1.115   2.161 -0.8889 -2.5685 -1.1259
  237SOL    HW2  947   2.041   1.056   2.235 -1.2825  2.7138  0.2075
  237SOL     MW  948   1.992   1.127   2.216 -0.5797  0.1625 -0.5346
  238SOL     OW  949   1.078   1.768   2.945 -0.0780  0.0003 -0.4981
  238SOL    HW1  950   1.017   1.696   2.954 -0.5251  0.6427  0.6807
  238SOL    HW2  951   1.162   1.727   2.928 -1.5158 -2.1990  1.2128
  238SOL     MW  952   1.081   1.753   2.944 -0.3267 -0.2051 -0.1168
  239SOL     OW  953   1.240   1.422   2.376 -0.5647 -0.6005  0.0414
  239SOL    HW1  954   1.195   1.472   2.448 -2.2837 -0.1615 -0.0216
  239SOL    HW2  955   1.242   1.334   2.414  1.1047 -3.6683 -0.2566
  239SOL     MW  956   1.235   1.417   2.391 -0.5712 -0.9474 -0.0062
  240SOL     OW  957   0.627   0.923   2.307  0.1904  0.3276 -0.2914
  240SOL    HW1  958   0.691   0.929   2.383  3.6412  0.1285  1.4188
  240SOL    HW2  959   0.683   0.867   2.253 -1.1036 -2.0298  2.0559
  240SOL     MW  960   0.643   0.916   2.310  0.4750 -0.0097  0.2439
  241SOL     OW  961   0.682   0.410   0.016 -0.0072 -0.3628 -0.0720
  241SOL    HW1  962   0.689   0.469   0.098 -1.2992 -0.7767  2.0607
  241SOL    HW2  963   0.593   0.419  -0.016 -2.1318  4.5189 -1.2494
  241SOL     MW  964   0.671   0.419   0.022 -0.4580  0.2267  0.0541
  242SOL     OW  965   1.489   1.716   2.300  0.3391 -0.0270  0.2755
  242SOL    HW1  966   1.425   1.783   2.326 -1.1753  0.9284 -3.8954
  242SOL    HW2  967   1.437   1.664   2.236 -1.7051 -2.1333  0.2676
  242SOL     MW  968   1.474   1.718   2.295 -0.1304 -0.1789 -0.2759
  243SOL     OW  969   0.974   0.176   2.427 -0.0015  0.1210 -0.6498
  243SOL    HW1  970   1.042   0.134   2.374  0.1559  1.1938 -2.0074
  243SOL    HW2  971   1.031   0.224   2.493 -3.9633 -0.0239  1.8647
  243SOL     MW  972   0.991   0.177   2.429 -0.5035  0.2435 -0.4972
  244SOL     OW  973   0.157   0.816   2.340 -0.3243 -0.2856  0.2431
  244SOL    HW1  974   0.138   0.890   2.401 -1.1444  0.3138 -2.6675
  244SOL    HW2  975   0.254   0.814   2.337  0.6920  0.3539  0.9511
  244SOL     MW  976   0.167   0.826   2.348 -0.2984 -0.1221 -0.0475
  245SOL     OW  977   1.228   0.194   2.308 -0.2810  0.3340 -0.0401
  245SOL    HW1  978   1.293   0.135   2.275  1.2565 -0.3242 -0.3527
  245SOL    HW2  979   1.280   0.232   2.380  1.1525  0.7219  1.2839
  245SOL     MW  980   1.244   0.191   2.313  0.1110  0.2983  0.0933
  246SOL     OW  981   1.202   1.154   2.113 -0.4219  0.1498  0.2211
  246SOL    HW1  982   1.121   1.149   2.171 -0.4542 -1.8071 -1.0014
  246SOL    HW2  983   1.273   1.099   2.153  1.7819 -2.1830 -0.4876
  246SOL     MW  984   1.200   1.146   2.126 -0.1354 -0.4162 -0.0337
  247SOL     OW  985   0.761   0.610   0.212 -0.3864  0.4643  0.1634
  247SOL    HW1  986   0.712   0.689   0.202 -1.1355 -0.2369  1.2220
  247SOL    HW2  987   0.834   0.620   0.149 -0.6368  2.3775 -2.0790
  247SOL     MW  988   0.764   0.622   0.202 -0.5183  0.6242  0.0072
  248SOL     OW  989   0.320   1.292   2.576  0.1037  0.1883  0.0898
  248SOL    HW1  990   0.352   1.299   2.484 -1.3890  1.1391  0.6854
  248SOL    HW2  991   0.365   1.362   2.624 -2.0189 -2.1712  0.9290
  248SOL     MW  992   0.330   1.302   2.570 -0.3733  0.0024  0.2791
  249SOL     OW  993   0.058   1.865   2.753 -1.0599  0.6918  0.1408
  249SOL    HW1  994   0.053   1.780   2.710 -0.6840 -0.9583  2.4710
  249SOL    HW2  995   0.092   1.841   2.837  0.8140 -0.2359  0.1070
  249SOL     MW  996   0.062   1.850   2.758 -0.7631  0.3517  0.4438
  250SOL     OW  997   2.135   0.898   2.261 -0.3916 -0.1677  0.2986
  250SOL    HW1  998   2.123   0.804   2.288  2.4404 -1.7894 -0.7220
  250SOL    HW2  999   2.216   0.939   2.295  0.4742 -2.0617  0.4511
  250SOL     MW 1000   2.144   0.891   2.269  0.0963 -0.6316  0.1840
  251SOL     OW 1001   0.159   0.890   1.951  0.5169 -0.1586 -0.4113
  251SOL    HW1 1002   0.167   0.794   1.964 -2.2388 -3.1825  0.6047
  251SOL    HW2 1003   0.175   0.894   1.860 -0.2718 -0.7587  2.2272
  251SOL     MW 1004   0.162   0.878   1.941  0.0492 -0.6367  0.0709
  252SOL     OW 1005   1.704   0.974   2.930 -0.5168  0.3030 -0.6560
  252SOL    HW1 1006   1.710   1.022   3.010 -1.2641  0.0945 -1.5341
  252SOL    HW2 1007   1.791   0.989   2.893  0.7768 -0.6364 -1.1132
  252SOL     MW 1008   1.716   0.982   2.936 -0.4447  0.1516 -0.8322
  253SOL     OW 1009   1.125   1.731   2.490 -0.0085  0.0224 -0.3869
  253SOL    HW1 1010   1.128   1.735   2.386 -1.0068 -2.1396 -1.2933
  253SOL    HW2 1011   1.036   1.776   2.503  0.1931  1.2660 -1.2632
  253SOL     MW 1012   1.114   1.738   2.478 -0.1136 -0.0987 -0.6221
  254SOL     OW 1013   0.966   1.105   2.241 -1.0192  0.2136  0.4308
  254SOL    HW1 1014   0.898   1.037   2.251 -2.3011  1.6489 -1.3220
  254SOL    HW2 1015   0.941   1.167   2.312  0.3201 -0.5809 -2.0388
  254SOL     MW 1016   0.953   1.105   2.252 -1.0117  0.2981 -0.1263
  255SOL     OW 1017   0.839   2.509   2.155  0.4808  0.0349  1.0054
  255SOL    HW1 1018   0.753   2.458   2.149 -0.2590 -3.3318  0.8339
  255SOL    HW2 1019   0.903   2.439   2.140 -2.0392 -2.0860  1.3078
  255SOL     MW 1020   0.836   2.493   2.152  0.0507 -0.6891  1.0227
  256SOL     OW 1021   1.268   2.729   2.966 -0.5033 -0.0584  0.1229
  256SOL    HW1 1022   1.231   2.689   2.893  0.3779 -0.0920  0.3584
  256SOL    HW2 1023   1.354   2.761   2.934  0.8449  1.8654 -1.5413
  256SOL     MW 1024   1.275   2.728   2.952 -0.2092  0.1910 -0.0656
  257SOL     OW 1025   0.119   1.944   0.013 -1.3486 -0.4030 -0.2700
  257SOL    HW1 1026   0.179   1.919   0.089  1.8238 -0.9267  0.7521
  257SOL    HW2 1027   0.138   1.878  -0.050 -1.5735 -1.5563 -1.2789
  257SOL     MW 1028   0.129   1.932   0.015 -0.9597 -0.6243 -0.2682
  258SOL     OW 1029   0.803   1.001   2.511 -0.3224 -0.0193 -0.4801
  258SOL    HW1 1030   0.814   1.094   2.474 -1.5452 -0.4701 -0.0657
  258SOL    HW2 1031   0.737   1.000   2.577 -1.0628  1.3978  2.4966
  258SOL     MW 1032   0.795   1.013   2.515 -0.5814  0.1082 -0.0327
  259SOL     OW 1033   0.885   0.406   2.284 -0.3229  0.2156 -0.2656
  259SOL    HW1 1034   0.799   0.404   2.237 -1.0206 -1.8121  1.0430
  259SOL    HW2 1035   0.916   0.313   2.300  0.1913  0.9711  0.1367
  259SOL     MW 1036   0.878   0.393   2.280 -0.3471  0.0478 -0.0398
  260SOL     OW 1037   0.623   0.139   1.614  0.5221 -0.4072  0.0579
  260SOL    HW1 1038   0.580   0.105   1.538 -0.9114  1.9642  1.2827
  260SOL    HW2 1039   0.711   0.144   1.572  2.1492 -1.1142 -0.1519
  260SOL     MW 1040   0.629   0.135   1.598  0.5476 -0.1876  0.1919
  261SOL     OW 1041   1.147   0.715   2.034 -0.5711 -0.0906  0.1450
  261SOL    HW1 1042   1.156   0.714   2.137 -0.4064 -0.2194  0.8366
  261SOL    HW2 1043   1.113   0.631   2.007 -1.5449  1.3757 -0.9137
  261SOL     MW 1044   1.144   0.704   2.044 -0.6779  0.0859  0.0966
  262SOL     OW 1045   1.068   0.326   0.186  0.1045 -0.0927  0.4828
  262SOL    HW1 1046   1.159   0.340   0.161 -2.7621  2.7817 -0.8870
  262SOL    HW2 1047   1.025   0.262   0.129  1.1208  2.4256 -0.8213
  262SOL     MW 1048   1.074   0.319   0.175 -0.1397  0.6188  0.1300
  263SOL     OW 1049   0.452   0.040   2.476 -0.8055 -0.1039  0.1619
  263SOL    HW1 1050   0.369   0.085   2.470  0.2915  0.5997  0.4919
  263SOL    HW2 1051   0.493   0.057   2.390  1.2042 -0.4474  0.0460
  263SOL     MW 1052   0.446   0.048   2.464 -0.3956 -0.0564  0.1902
  264SOL     OW 1053   1.545   1.332   1.872  0.2590 -0.0598  0.5298
  264SOL    HW1 1054   1.513   1.242   1.868 -1.0451 -0.0762 -1.0657
  264SOL    HW2 1055   1.621   1.330   1.927  1.8587 -0.1122  0.7916
  264SOL     MW 1056   1.551   1.320   1.879  0.2980 -0.0689  0.3538
  265SOL     OW 1057   0.782   2.776   2.236 -0.4115 -0.4418 -0.3693
  265SOL    HW1 1058   0.805   2.687   2.206 -2.3547 -1.8377  2.9686
  265SOL    HW2 1059   0.763   2.761   2.328 -0.6055 -2.5008  0.1228
  265SOL     MW 1060   0.783   2.762   2.245 -0.6935 -0.8976  0.1360
  266SOL     OW 1061   0.866   0.819   2.206  0.6045  0.6129 -0.3168
  266SOL    HW1 1062   0.845   0.790   2.113 -0.4849  0.1912 -0.6669
  266SOL    HW2 1063   0.941   0.764   2.233  2.7117  1.6705  1.5891
  266SOL     MW 1064   0.873   0.808   2.197  0.7388  0.6968 -0.1115
  267SOL     OW 1065   1.340   1.776   2.653 -0.3420 -0.3791 -0.0509
  267SOL    HW1 1066   1.412   1.720   2.618 -2.0865 -1.4598 -0.7143
  267SOL    HW2 1067   1.282   1.761   2.579  2.4238  0.9086  2.5035
  267SOL     MW 1068   1.342   1.766   2.639 -0.2072 -0.3518  0.1986
  268SOL     OW 1069   0.183   0.909   1.670 -0.2527  0.6017  0.6100
  268SOL    HW1 1070   0.133   0.994   1.671  1.3673  0.7023 -0.1479
  268SOL    HW2 1071   0.112   0.852   1.631 -0.8156  0.2962  4.4514
  268SOL     MW 1072   0.167   0.912   1.665 -0.1132  0.5746  1.0168
  269SOL     OW 1073   1.333   1.987   2.320 -0.1704 -0.1382  0.1373
  269SOL    HW1 1074   1.391   2.057   2.339  0.5670 -1.4280  0.7591
  269SOL    HW2 1075   1.255   2.015   2.368 -2.9404  0.7667  2.5071
  269SOL     MW 1076   1.330   2.000   2.329 -0.4386 -0.1890  0.5320
  270SOL     OW 1077   1.157   0.409   1.587  0.3573  0.3479  0.0043
  270SOL    HW1 1078   1.133   0.328   1.630  0.1665  3.2029  1.1826
  270SOL    HW2 1079   1.254   0.398   1.573  0.4238 -2.3615  1.7534
  270SOL     MW 1080   1.167   0.397   1.591  0.3409  0.3671  0.3906
  271SOL     OW 1081   0.774   0.050   2.513  0.7612  0.5735 -0.4759
  271SOL    HW1 1082   0.801  -0.036   2.542 -1.1448  2.4157 -1.6266
  271SOL    HW2 1083   0.860   0.103   2.483  3.0492  3.8143 -0.0935
  271SOL     MW 1084   0.789   0.046   2.512  0.8116  1.2442 -0.5773
  272SOL     OW 1085   1.494   2.814   2.837 -0.3049  0.4075  0.2680
  272SOL    HW1 1086   1.469   2.801   2.741  3.2882 -1.9198  0.2127
  272SOL    HW2 1087   1.515   2.903   2.855 -1.7566  1.2979  0.9610
  272SOL     MW 1088   1.494   2.824   2.827 -0.0224  0.2179  0.3521
  273SOL     OW 1089   1.474   0.909   2.803 -0.2893 -0.1018  0.2679
  273SOL    HW1 1090   1.545   0.957   2.839 -0.4780 -0.7579 -1.2153
  273SOL    HW2 1091   1.437   0.982   2.754 -0.4779 -0.4309 -0.6427
  273SOL     MW 1092   1.478   0.925   2.801 -0.3391 -0.2318 -0.0479
  274SOL     OW 1093   1.407   0.749   0.126 -0.3340  0.3019  0.2083
  274SOL    HW1 1094   1.450   0.681   0.181  1.0970 -0.4743 -1.8757
  274SOL    HW2 1095   1.333   0.773   0.178 -1.1544  0.2125  1.2223
  274SOL     MW 1096   1.403   0.743   0.140 -0.2535  0.1877  0.0671
  275SOL     OW 1097   1.696   0.529   1.766  0.1220 -0.3484 -0.2086
  275SOL    HW1 1098   1.750   0.580   1.829  0.4301 -0.2509  0.2563
  275SOL    HW2 1099   1.710   0.439   1.800  0.4037 -1.6614  0.2852
  275SOL     MW 1100   1.705   0.524   1.779  0.1998 -0.5088 -0.0821
  276SOL     OW 1101   0.394   1.298   1.948  0.9696  0.4152 -0.3653
  276SOL    HW1 1102   0.394   1.203   1.956 -1.4784  0.1726  0.6286
  276SOL    HW2 1103   0.325   1.307   2.011  1.0516 -0.2550 -1.8958
  276SOL     MW 1104   0.385   1.287   1.957  0.6575  0.2947 -0.4361
  277SOL     OW 1105   1.957   1.155   2.486  0.1991  0.1912 -0.0898
  277SOL    HW1 1106   2.010   1.237   2.491 -0.2261  2.2250  0.0748
  277SOL    HW2 1107   1.962   1.133   2.391 -2.7280  0.5034  0.5249
  277SOL     MW 1108   1.965   1.163   2.474 -0.2432  0.5007  0.0130
  278SOL     OW 1109   1.364   0.667   1.665 -0.1621  0.4221  0.1054
  278SOL    HW1 1110   1.351   0.601   1.735 -1.0211 -3.2031 -0.0166
  278SOL    HW2 1111   1.438   0.716   1.686  0.0310 -0.0792  0.5683
  278SOL     MW 1112   1.372   0.665   1.677 -0.2499 -0.1224  0.1504
  279SOL     OW 1113   0.544   0.121   2.211 -0.6144 -0.3965 -0.1864
  279SOL    HW1 1114   0.613   0.053   2.199 -0.0123  0.9631 -1.4767
  279SOL    HW2 1115   0.574   0.209   2.179 -1.8161 -0.1740 -1.6251
  279SOL     MW 1116   0.557   0.123   2.206 -0.6935 -0.1878 -0.5465
  280SOL     OW 1117   1.421   0.985   2.157  0.1973  0.0888  0.3359
  280SOL    HW1 1118   1.474   0.915   2.112 -2.8705  1.2817 -1.9366
  280SOL    HW2 1119   1.439   0.987   2.254 -0.7573  3.3770 -0.1992
  280SOL     MW 1120   1.431   0.976   2.164 -0.3334  0.6800 -0.0346
  281SOL     OW 1121   1.364   1.244   2.702 -0.1599 -1.0387 -0.3411
  281SOL    HW1 1122   1.459   1.272   2.702  0.7917 -0.2100  0.6667
  281SOL    HW2 1123   1.345   1.202   2.789  2.6735  0.0142 -0.3195
  281SOL     MW 1124   1.374   1.242   2.714  0.3395 -0.7905 -0.2053
  282SOL     OW 1125   1.126   1.250   1.636 -0.1949 -0.1423  0.2943
  282SOL    HW1 1126   1.089   1.335   1.618  1.0676  0.7231 -2.8323
  282SOL    HW2 1127   1.065   1.223   1.707  0.1804  0.5786 -0.5607
  282SOL     MW 1128   1.113   1.258   1.643  0.0212  0.0670 -0.2310
  283SOL     OW 1129   0.828   1.281   3.067  0.0954  0.9875  0.5212
  283SOL    HW1 1130   0.925   1.292   3.094  2.4256 -1.8489  3.4228
  283SOL    HW2 1131   0.794   1.371   3.084  0.1214  1.5764 -0.1853
  283SOL     MW 1132   0.836   1.294   3.073  0.4063  0.6909  0.8109
  284SOL     OW 1133   0.427   0.757   2.377 -0.1635  0.3033  0.1329
  284SOL    HW1 1134   0.506   0.815   2.353 -0.7927  0.8944  1.9601
  284SOL    HW2 1135   0.440   0.678   2.316  2.1329 -0.5363  2.2272
  284SOL     MW 1136   0.439   0.754   2.366  0.0565  0.2705  0.6503
  285SOL     OW 1137   0.898   0.880   2.815 -0.3222  0.0949 -0.4721
  285SOL    HW1 1138   0.966   0.872   2.750 -1.7991  1.5536  1.3514
  285SOL    HW2 1139   0.842   0.803   2.810  0.5296  2.2573  1.0182
  285SOL     MW 1140   0.899   0.869   2.806 -0.4047  0.5726 -0.0349
  286SOL     OW 1141   1.125   1.468   2.612 -0.4174 -0.5550 -0.4196
  286SOL    HW1 1142   1.190   1.468   2.682 -0.7282  1.0095  2.1432
  286SOL    HW2 1143   1.109   1.559   2.586 -0.0721 -2.3445  0.0842
  286SOL     MW 1144   1.131   1.480   2.618 -0.4129 -0.5847 -0.0150
  287SOL     OW 1145   1.187   0.987   0.334  0.5552 -0.2510 -0.1674
  287SOL    HW1 1146   1.207   1.030   0.421  0.4025 -1.3733  1.4157
  287SOL    HW2 1147   1.119   1.042   0.285 -0.1772 -1.5885  2.6914
  287SOL     MW 1148   1.181   1.000   0.339  0.4384 -0.5756  0.4186
  288SOL     OW 1149   1.493   0.582   2.052  0.1022  0.4606 -0.0542
  288SOL    HW1 1150   1.436   0.580   2.127 -1.2820 -0.2068 -0.2476
  288SOL    HW2 1151   1.541   0.660   2.033 -2.1320 -1.2781  0.7480
  288SOL     MW 1152   1.492   0.592   2.059 -0.3752  0.1431  0.0261
  289SOL     OW 1153   1.080   0.978   2.555 -0.5969  0.3586 -0.2838
  289SOL    HW1 1154   1.087   0.879   2.555  0.0632 -0.9438 -0.8235
  289SOL    HW2 1155   0.991   1.001   2.541  1.3849  0.0658 -1.4741
  289SOL     MW 1156   1.070   0.968   2.553 -0.2483  0.1482 -0.5120
  290SOL     OW 1157   0.791   0.599   1.537  0.0253  0.0141 -0.4843
  290SOL    HW1 1158   0.861   0.572   1.476 -0.0175 -0.4402 -1.4701
  290SOL    HW2 1159   0.852   0.645   1.597 -0.0359  0.3395  0.3026
  290SOL     MW 1160   0.808   0.602   1.537  0.0115 -0.0029 -0.5106
  291SOL     OW 1161   0.164   0.405   0.137  0.0086 -0.1604  0.2940
  291SOL    HW1 1162   0.251   0.374   0.169  0.9579  1.2971  2.6861
  291SOL    HW2 1163   0.125   0.342   0.077 -1.9608  1.5477  1.3419
  291SOL     MW 1164   0.171   0.392   0.134 -0.1260  0.2572  0.7479
  292SOL     OW 1165   1.007   0.588   0.089  0.5845 -0.1281 -0.4511
  292SOL    HW1 1166   1.055   0.651   0.139  0.2463  1.6965  0.3118
  292SOL    HW2 1167   1.017   0.509   0.142  2.9483  4.6182  2.7575
  292SOL     MW 1168   1.015   0.586   0.103  0.8518  0.7389  0.0729
  293SOL     OW 1169   0.146   0.152   2.463 -0.5224  0.5846  0.6402
  293SOL    HW1 1170   0.086   0.110   2.400 -2.7744 -0.6410  0.1877
  293SOL    HW2 1171   0.093   0.174   2.539  1.0081  0.8830 -0.1721
  293SOL     MW 1172   0.131   0.150   2.465 -0.6176  0.4623  0.4733
  294SOL     OW 1173   1.409   0.566   2.333 -0.2462 -0.5004 -0.2480
  294SOL    HW1 1174   1.440   0.623   2.407 -0.9882 -0.8277  1.7270
  294SOL    HW2 1175   1.401   0.483   2.378  1.4714 -2.6501 -2.3982
  294SOL     MW 1176   1.412   0.563   2.349 -0.1175 -0.8272 -0.2711
  295SOL     OW 1177   0.952   0.529   2.531  0.5076 -0.0644  0.1414
  295SOL    HW1 1178   0.905   0.491   2.454 -1.0656 -0.6496  0.7283
  295SOL    HW2 1179   0.886   0.557   2.601  1.2585  1.1820  2.4807
  295SOL     MW 1180   0.937   0.528   2.530  0.3991  0.0228  0.5275
  296SOL     OW 1181   1.224   0.272   2.044 -0.3805 -0.1859  0.5550
  296SOL    HW1 1182   1.297   0.214   2.022  0.2606  0.5211  0.7874
  296SOL    HW2 1183   1.222   0.277   2.138 -0.0705 -1.2371 -2.4290
  296SOL     MW 1184   1.233   0.265   2.053 -0.2550 -0.2313  0.1920
  297SOL     OW 1185   1.442   0.405   1.552 -0.5489 -0.0018  0.1321
  297SOL    HW1 1186   1.464   0.483   1.605  3.4301  1.3430  2.1371
  297SOL    HW2 1187   1.450   0.325   1.604  3.2558  0.0496  0.4620
  297SOL     MW 1188   1.446   0.405   1.566  0.4781  0.1824  0.4402
  298SOL     OW 1189   1.636   0.849   2.022 -0.4184  0.1645  0.3032
  298SOL    HW1 1190   1.688   0.918   1.979  1.6281 -0.5210 -0.7291
  298SOL    HW2 1191   1.696   0.803   2.079  0.9566 -1.0051  4.0137
  298SOL     MW 1192   1.651   0.852   2.024  0.0330 -0.0802  0.6565
  299SOL     OW 1193   0.616   1.109   0.033  0.3680 -0.3701 -0.0775
  299SOL    HW1 1194   0.581   1.104  -0.053  2.6312  2.5028  0.8704
  299SOL    HW2 1195   0.683   1.176   0.028 -2.3746  2.7345 -2.0535
  299SOL     MW 1196   0.620   1.117   0.021  0.3047  0.4186 -0.2131
  300SOL     OW 1197   1.236   1.179   2.478 -0.3593 -0.6381 -0.2640
  300SOL    HW1 1198   1.171   1.114   2.511  0.1618  2.7662  2.9583
  300SOL    HW2 1199   1.261   1.213   2.563 -1.9695 -1.5154 -0.0786
  300SOL     MW 1200   1.230   1.175   2.493 -0.5030 -0.3047  0.1856
  301SOL     OW 1201   1.454   0.973   0.661 -0.4312 -0.3842 -0.0909
  301SOL    HW1 1202   1.471   1.006   0.747 -1.1436 -0.2246 -0.2614
  301SOL    HW2 1203   1.372   0.928   0.656  2.7158  0.0826  2.3518
  301SOL     MW 1204   1.446   0.971   0.672 -0.1100 -0.3015  0.2089
  302SOL     OW 1205   0.188   1.565   2.003  0.7817 -0.6267  0.6192
  302SOL    HW1 1206   0.195   1.495   2.069 -1.0827 -0.7342  0.3197
  302SOL    HW2 1207   0.100   1.604   2.022  2.1680 -0.7403  3.7125
  302SOL     MW 1208   0.177   1.561   2.014  0.7186 -0.6559  0.9878
  303SOL     OW 1209   0.387   1.795   2.698 -0.0782  0.4343  0.4488
  303SOL    HW1 1210   0.353   1.801   2.606 -4.2319  0.6249  0.8389
  303SOL    HW2 1211   0.311   1.800   2.752 -0.6414 -0.5270 -1.9703
  303SOL     MW 1212   0.372   1.796   2.693 -0.7005  0.3326  0.1811
  304SOL     OW 1213   0.495   2.048   2.343 -0.3307 -0.4895 -0.0839
  304SOL    HW1 1214   0.563   2.112   2.306  1.5877  1.0896 -1.3830
  304SOL    HW2 1215   0.556   1.976   2.346  0.2673  1.7324 -1.6823
  304SOL     MW 1216   0.512   2.047   2.339  0.0013  0.0120 -0.4662
  305SOL     OW 1217   1.084   0.580   0.532  0.0053  0.4421  0.5671
  305SOL    HW1 1218   0.993   0.559   0.547  1.2110  2.2896  0.6348
  305SOL    HW2 1219   1.138   0.501   0.546 -0.9303  0.1243 -0.0961
  305SOL     MW 1220   1.079   0.567   0.536  0.0409  0.6439  0.4885
  306SOL     OW 1221   1.192   1.561   0.271  0.0812 -0.0801 -0.5836
  306SOL    HW1 1222   1.201   1.461   0.280  0.5726  1.5514 -1.2805
  306SOL    HW2 1223   1.247   1.571   0.195  1.8048  0.0465 -0.5608
  306SOL     MW 1224   1.200   1.549   0.262  0.3734  0.1519 -0.6726
  307SOL     OW 1225   1.342   0.463   1.862 -0.3207 -0.4210  0.1890
  307SOL    HW1 1226   1.276   0.398   1.896  1.6434 -3.3693  1.1869
  307SOL    HW2 1227   1.404   0.488   1.930  0.5107 -0.2995  1.6335
  307SOL     MW 1228   1.342   0.458   1.875  0.0481 -0.7939  0.5112
  308SOL     OW 1229   2.202   0.518   2.707  0.3859  0.0167 -0.4566
  308SOL    HW1 1230   2.298   0.490   2.710  1.0376  0.7931  0.0351
  308SOL    HW2 1231   2.189   0.616   2.707 -1.6133  0.0637 -1.7636
  308SOL     MW 1232   2.213   0.527   2.707  0.2081  0.1254 -0.5642
  309SOL     OW 1233   0.468   0.518   0.237  0.0345  0.6797 -0.3223
  309SOL    HW1 1234   0.544   0.515   0.297 -1.4194  1.3205  1.3010
  309SOL    HW2 1235   0.455   0.426   0.208  1.9277  0.5291 -1.6499
  309SOL     MW 1236   0.477   0.505   0.241  0.0924  0.7444 -0.2833
  310SOL     OW 1237   0.432   0.581   1.900  0.6502 -0.0220 -0.6547
  310SOL    HW1 1238   0.474   0.500   1.873 -2.6643  0.6392  4.1208
  310SOL    HW2 1239   0.491   0.651   1.868  1.9260  0.0875 -2.4975
  310SOL     MW 1240   0.445   0.579   1.893  0.3812  0.0797 -0.2678
  311SOL     OW 1241   1.888   0.632   1.929 -0.3689  0.5659  0.4910
  311SOL    HW1 1242   1.867   0.667   2.013  2.5261 -0.6133 -0.4864
  311SOL    HW2 1243   1.956   0.564   1.953 -1.3230 -0.0398  1.8625
  311SOL     MW 1244   1.894   0.628   1.943 -0.1128  0.3304  0.5430
  312SOL     OW 1245   1.826   2.476   0.204 -0.0045  0.0043  0.7257
  312SOL    HW1 1246   1.909   2.485   0.252  0.7262 -2.5000 -0.7272
  312SOL    HW2 1247   1.750   2.518   0.246 -0.1990 -1.8587 -0.3660
  312SOL     MW 1248   1.827   2.482   0.216  0.0662 -0.5720  0.3900
  313SOL     OW 1249   0.125   1.116   2.969 -0.3163 -0.7595  0.5628
  313SOL    HW1 1250   0.102   1.125   3.067 -0.2094  0.0563  0.0642
  313SOL    HW2 1251   0.204   1.169   2.970  2.2318 -1.9181 -0.6180
  313SOL     MW 1252   0.133   1.124   2.982  0.0340 -0.8047  0.3412
  314SOL     OW 1253   2.162   3.009   2.953 -0.7924  0.0042  0.5458
  314SOL    HW1 1254   2.073   3.045   2.934  1.1721 -0.7102 -1.5370
  314SOL    HW2 1255   2.214   3.062   3.020  0.9534  1.2481 -1.8702
  314SOL     MW 1256   2.157   3.021   2.959 -0.3029  0.0741 -0.0478
  315SOL     OW 1257   1.526   1.838   3.008  0.5117  0.0601  0.0328
  315SOL    HW1 1258   1.514   1.880   3.096 -1.9543 -1.6654  3.5193
  315SOL    HW2 1259   1.544   1.913   2.943 -1.4507  0.2312  1.8283
  315SOL     MW 1260   1.527   1.853   3.011 -0.0726 -0.1450  0.7297
  316SOL     OW 1261   1.295   0.538   2.721 -0.7646  0.5570 -0.1979
  316SOL    HW1 1262   1.384   0.558   2.746  0.8047  1.6874  1.4903
  316SOL    HW2 1263   1.235   0.536   2.800 -0.0938 -1.8747 -1.5187
  316SOL     MW 1264   1.299   0.540   2.735 -0.4690  0.3853 -0.1494
  317SOL     OW 1265   0.675   1.509   2.644  0.6260  0.3964  0.1883
  317SOL    HW1 1266   0.748   1.435   2.640  2.7343  0.6480 -1.5267
  317SOL    HW2 1267   0.683   1.531   2.549 -0.8951 -0.7618  0.5370
  317SOL     MW 1268   0.686   1.502   2.631  0.7035  0.2768  0.0081
  318SOL     OW 1269   1.363   0.329   2.967 -0.0103 -0.5838 -0.1481
  318SOL    HW1 1270   1.268   0.353   2.946  1.3621  0.8874 -1.5578
  318SOL    HW2 1271   1.413   0.407   2.936 -1.3237  2.4097 -1.5787
  318SOL     MW 1272   1.357   0.342   2.960 -0.0025  0.0053 -0.5229
  319SOL     OW 1273   0.861   0.390   2.913 -0.2388 -0.9379  0.3630
  319SOL    HW1 1274   0.788   0.349   2.863  1.0762  2.2933 -0.2360
  319SOL    HW2 1275   0.828   0.411   2.999  1.1506 -0.7611  1.3490
  319SOL     MW 1276   0.847   0.387   2.918  0.1180 -0.4883  0.4141
  320SOL     OW 1277   1.070   1.353   1.983 -0.3651  0.2059 -0.1238
  320SOL    HW1 1278   1.128   1.298   2.044  0.3550 -1.0787 -0.6335
  320SOL    HW2 1279   1.133   1.423   1.955 -0.3476  3.3404  2.5823
  320SOL     MW 1280   1.086   1.355   1.987 -0.2678  0.4500  0.1660
  321SOL     OW 1281   1.132   0.922   3.025  0.1082 -0.3059 -0.1117
  321SOL    HW1 1282   1.043   0.902   2.992  1.5769 -1.5420 -1.1001
  321SOL    HW2 1283   1.177   0.846   2.982 -0.3040 -3.8660  1.8018
  321SOL     MW 1284   1.126   0.909   3.015  0.2476 -0.9387  0.0103
  322SOL     OW 1285   1.170   0.868   1.675 -0.1971 -0.2131 -0.1813
  322SOL    HW1 1286   1.245   0.799   1.686  0.4018 -1.7417  2.5900
  322SOL    HW2 1287   1.151   0.895   1.768 -0.4443 -0.2294  0.4510
  322SOL     MW 1288   1.177   0.862   1.689 -0.1507 -0.4169  0.2678
  323SOL     OW 1289   1.238   1.552   1.886 -0.1856  0.6949  0.1386
  323SOL    HW1 1290   1.289   1.545   1.801 -1.4379  1.3564 -1.3539
  323SOL    HW2 1291   1.165   1.614   1.861  0.8244 -1.4774 -0.0721
  323SOL     MW 1292   1.235   1.559   1.871 -0.2176  0.4956 -0.0861
  324SOL     OW 1293   1.490   1.021   2.416 -0.1097  0.3447 -0.2385
  324SOL    HW1 1294   1.418   1.076   2.444  0.1352  4.8514  1.9260
  324SOL    HW2 1295   1.566   1.068   2.445 -0.1183  0.3152 -0.5604
  324SOL     MW 1296   1.490   1.034   2.423 -0.0785  0.9354  0.0046
  325SOL     OW 1297   1.111   0.513   2.931  0.1444  0.1509  0.4525
  325SOL    HW1 1298   1.117   0.570   3.006 -1.4689 -0.2950 -1.6089
  325SOL    HW2 1299   1.023   0.484   2.929 -0.7539 -0.9576  1.6726
  325SOL     MW 1300   1.100   0.517   2.941 -0.1870 -0.0542  0.3415
  326SOL     OW 1301   0.415   1.373   2.314 -0.3067  0.0948 -0.5742
  326SOL    HW1 1302   0.474   1.341   2.239  0.0324 -2.5976 -1.3837
  326SOL    HW2 1303   0.408   1.469   2.303 -3.4813 -3.6249 -2.9944
  326SOL     MW 1304   0.422   1.381   2.303 -0.6808 -0.7512 -1.0003
  327SOL     OW 1305   1.922   0.779   2.436  0.0214  0.4747 -0.0083
  327SOL    HW1 1306   1.890   0.722   2.511  2.7916 -0.8278 -0.5039
  327SOL    HW2 1307   1.968   0.856   2.471  1.1378 -2.7056 -1.0501
  327SOL     MW 1308   1.924   0.781   2.451  0.5342 -0.1167 -0.2112
  328SOL     OW 1309   0.193   1.326   2.154  0.3781 -0.4291 -0.0713
  328SOL    HW1 1310   0.144   1.245   2.139  0.4830 -0.2299  0.0973
  328SOL    HW2 1311   0.235   1.323   2.239  2.0657  0.7701  0.3853
  328SOL     MW 1312   0.192   1.315   2.163  0.6146 -0.2446  0.0112
  329SOL     OW 1313   0.037   0.209   1.408 -0.6552 -0.4094 -0.0477
  329SOL    HW1 1314   0.017   0.189   1.508 -3.9881  1.4185  1.4962
  329SOL    HW2 1315   0.130   0.199   1.412 -0.9487 -0.8765  0.3136
  329SOL     MW 1316   0.047   0.205   1.421 -1.1337 -0.2298  0.2037
  330SOL     OW 1317   0.377   3.042   2.047  0.0683 -0.4161 -0.1733
  330SOL    HW1 1318   0.447   3.086   2.094  0.7770  2.1903 -4.3071
  330SOL    HW2 1319   0.324   2.989   2.112  0.9848 -0.2890  0.0492
  330SOL     MW 1320   0.379   3.041   2.061  0.2828 -0.0554 -0.6894
  331SOL     OW 1321   0.828   1.243   2.417  0.0208 -0.2226  0.3415
  331SOL    HW1 1322   0.762   1.299   2.379 -0.0474 -1.5377  1.0007
  331SOL    HW2 1323   0.849   1.277   2.506  0.6353 -0.3137  2.1037
  331SOL     MW 1324   0.822   1.255   2.424  0.0929 -0.4082  0.6610
  332SOL     OW 1325   1.354   1.658   2.904 -0.0046 -0.5640 -0.4119
  332SOL    HW1 1326   1.348   1.681   2.811  1.9413 -0.8263  0.2530
  332SOL    HW2 1327   1.413   1.729   2.939 -1.8382 -1.1757  0.4611
  332SOL     MW 1328   1.361   1.670   2.897  0.0102 -0.6793 -0.2090
  333SOL     OW 1329   1.739   1.380   2.932  0.1365  0.2625 -0.1417
  333SOL    HW1 1330   1.825   1.393   2.981  3.5199  0.7955  0.2915
  333SOL    HW2 1331   1.733   1.282   2.937 -0.3495 -2.1706 -0.2479
  333SOL     MW 1332   1.750   1.369   2.939  0.5188  0.0118 -0.0986
  334SOL     OW 1333   1.264   3.084   2.554  0.1367 -0.8556 -0.1321
  334SOL    HW1 1334   1.204   3.090   2.626 -0.0420  1.3502  1.2328
  334SOL    HW2 1335   1.321   3.157   2.570 -2.6227 -1.4543 -1.7925
  334SOL     MW 1336   1.264   3.094   2.566 -0.2509 -0.6435 -0.1711
  335SOL     OW 1337   1.317   0.740   2.950 -0.3257  0.2458 -0.1674
  335SOL    HW1 1338   1.348   0.747   3.042  1.4007  1.2572 -0.7839
  335SOL    HW2 1339   1.386   0.799   2.900 -0.0628 -0.0764  2.4129
  335SOL     MW 1340   1.330   0.749   2.956 -0.0633  0.3367  0.0917
  336SOL     OW 1341   0.947   1.174   1.840  0.8022 -0.1034  0.0103
  336SOL    HW1 1342   0.997   1.251   1.890 -1.8016  0.9290  1.2450
  336SOL    HW2 1343   1.000   1.096   1.867 -1.2619 -1.3574  0.8780
  336SOL     MW 1344   0.961   1.174   1.850  0.1863 -0.1326  0.2877
  337SOL     OW 1345   0.660   1.825   2.762 -0.5597  0.1346 -0.1706
  337SOL    HW1 1346   0.603   1.829   2.687 -0.8542  1.8968 -0.6219
  337SOL    HW2 1347   0.731   1.760   2.753 -0.5927 -1.6793  0.3814
  337SOL     MW 1348   0.662   1.817   2.751 -0.6029  0.1278 -0.1573
  338SOL     OW 1349   1.144   0.721   2.577  0.3175 -0.0072 -0.2490
  338SOL    HW1 1350   1.070   0.658   2.560 -0.3064  1.0009 -1.6508
  338SOL    HW2 1351   1.206   0.662   2.616 -3.6122 -0.4046 -0.3632
  338SOL     MW 1352   1.142   0.705   2.580 -0.2833  0.0733 -0.4490
  339SOL     OW 1353   1.507   1.061   1.830  0.5016 -0.0059 -0.3790
  339SOL    HW1 1354   1.429   1.069   1.772 -0.5804 -1.5818  0.2156
  339SOL    HW2 1355   1.476   1.035   1.917 -1.3015  1.9094 -0.6392
  339SOL     MW 1356   1.492   1.059   1.834  0.1210  0.0389 -0.3348
  340SOL     OW 1357   1.332   1.523   0.032  0.2092  0.0780 -0.0418
  340SOL    HW1 1358   1.335   1.555  -0.056 -0.5696 -1.3401 -0.2602
  340SOL    HW2 1359   1.415   1.478   0.049 -3.4233 -0.5081  0.7615
  340SOL     MW 1360   1.343   1.521   0.022 -0.3728 -0.1864  0.0354
  341SOL     OW 1361   0.085   1.356   2.741  0.8260  0.5855 -0.0495
  341SOL    HW1 1362   0.154   1.290   2.765  1.8883  0.4593 -0.9380
  341SOL    HW2 1363   0.044   1.322   2.656  1.5657 -1.8501 -0.4875
  341SOL     MW 1364   0.088   1.342   2.733  1.0638  0.2475 -0.2245
  342SOL     OW 1365   1.343   0.356   0.143  0.6783  0.1255  0.2333
  342SOL    HW1 1366   1.387   0.418   0.197  0.3734  1.4089  3.2105
  342SOL    HW2 1367   1.366   0.364   0.049  0.7911 -0.5653 -1.5132
  342SOL     MW 1368   1.352   0.365   0.138  0.6529  0.2037  0.3957
  343SOL     OW 1369   0.275   0.304   2.171  0.3764 -0.2628  0.7786
  343SOL    HW1 1370   0.331   0.243   2.222 -0.6081  3.9481  3.8838
  343SOL    HW2 1371   0.229   0.242   2.113 -0.3020 -0.3890  0.7389
  343SOL     MW 1372   0.276   0.287   2.170  0.1570  0.2761  1.1831
  344SOL     OW 1373   1.661   2.061   0.184 -0.7480 -0.0338  0.2819
  344SOL    HW1 1374   1.689   2.141   0.140  0.9546 -1.6059 -0.2194
  344SOL    HW2 1375   1.580   2.040   0.127 -0.1276 -3.5023 -0.2306
  344SOL     MW 1376   1.654   2.069   0.171 -0.4415 -0.6988  0.1482
  345SOL     OW 1377   0.712   1.563   2.381 -0.1869 -0.2309  0.7135
  345SOL    HW1 1378   0.628   1.520   2.354  1.6570 -1.4294  0.7649
  345SOL    HW2 1379   0.782   1.542   2.314 -0.9980 -0.8175 -1.2881
  345SOL     MW 1380   0.710   1.554   2.369 -0.0506 -0.4664  0.4562
  346SOL     OW 1381   1.750   1.156   0.045 -0.2314 -0.0101 -0.1589
  346SOL    HW1 1382   1.846   1.133   0.044  1.4860  3.2752  0.0737
  346SOL    HW2 1383   1.709   1.073   0.083  2.1699 -0.9910  2.0261
  346SOL     MW 1384   1.757   1.142   0.050  0.3120  0.2939  0.1601
  347SOL     OW 1385   1.152   0.673   2.312 -0.5319  0.9488 -0.0691
  347SOL    HW1 1386   1.229   0.623   2.326 -1.0577 -0.1234 -2.7018
  347SOL    HW2 1387   1.137   0.696   2.397  1.1767 -0.4763 -0.5194
  347SOL     MW 1388   1.161   0.670   2.325 -0.3758  0.6193 -0.4759
  348SOL     OW 1389   1.294   2.620   1.879  0.0974 -0.2085  0.1145
  348SOL    HW1 1390   1.323   2.541   1.933 -1.7463 -2.0674 -0.2816
  348SOL    HW2 1391   1.349   2.694   1.919  2.0255  0.6789 -0.3973
  348SOL     MW 1392   1.305   2.619   1.891  0.1085 -0.3367 -0.0053
  349SOL     OW 1393   1.427   0.216   2.694 -0.5155 -0.0201 -0.0550
  349SOL    HW1 1394   1.390   0.264   2.766 -0.8180 -0.4444  1.5327
  349SOL    HW2 1395   1.473   0.146   2.744  0.2866 -1.6746  2.1979
  349SOL     MW 1396   1.428   0.213   2.710 -0.4496 -0.2944  0.4517
  350SOL     OW 1397   1.822   0.632   2.665 -0.1370 -0.3239  0.4596
  350SOL    HW1 1398   1.768   0.562   2.619  0.3284 -1.7031 -0.5232
  350SOL    HW2 1399   1.897   0.581   2.703 -4.1351  0.2590 -1.9119
  350SOL     MW 1400   1.825   0.616   2.664 -0.6031 -0.4290  0.0170
  351SOL     OW 1401   0.078   1.152   1.608 -0.4428  0.1503 -0.1191
  351SOL    HW1 1402   0.003   1.156   1.666  1.4041  2.0887 -3.0332
  351SOL    HW2 1403   0.131   1.219   1.660  0.9280  0.5532  1.9729
  351SOL     MW 1404   0.075   1.161   1.623 -0.0182  0.4592 -0.2276
  352SOL     OW 1405   0.873   1.660   2.744 -0.2693  0.6744  0.2377
  352SOL    HW1 1406   0.880   1.610   2.829 -1.6412 -2.7936  3.1549
  352SOL    HW2 1407   0.809   1.605   2.698  2.6610  0.7677 -1.8655
  352SOL     MW 1408   0.865   1.646   2.749 -0.0637  0.2291  0.3451
  353SOL     OW 1409   0.031   2.511   2.743  0.2381  0.3682  0.0881
  353SOL    HW1 1410   0.120   2.494   2.714  2.3816  0.8126  0.3044
  353SOL    HW2 1411   0.019   2.601   2.711 -1.4612 -1.8119 -1.0895
  353SOL     MW 1412   0.041   2.520   2.735  0.2967  0.1392 -0.0387
  354SOL     OW 1413   0.292   2.466   0.798  0.2571 -0.3339 -0.0889
  354SOL    HW1 1414   0.330   2.450   0.883 -0.4469 -2.3262  1.2148
  354SOL    HW2 1415   0.207   2.426   0.797  4.1659 -0.9872  0.8403
  354SOL     MW 1416   0.286   2.459   0.809  0.6799 -0.6830  0.2057
  355SOL     OW 1417   3.087   2.234   0.364 -0.0307  0.2339 -0.1621
  355SOL    HW1 1418   2.994   2.208   0.360 -0.4026 -2.1257 -2.9080
  355SOL    HW2 1419   3.095   2.280   0.445  1.6614 -0.0887 -1.8285
  355SOL     MW 1420   3.076   2.236   0.374  0.1435 -0.1200 -0.7443
  356SOL     OW 1421   0.842   2.793   0.974  0.1023 -0.2210 -0.5775
  356SOL    HW1 1422   0.896   2.835   0.909 -1.9190  0.8719  0.1377
  356SOL    HW2 1423   0.754   2.836   0.957 -2.3914  0.5724 -1.3656
  356SOL     MW 1424   0.837   2.805   0.963 -0.4934  0.0278 -0.5871
  357SOL     OW 1425   1.785   2.874   0.393 -0.1575 -0.3101  0.4917
  357SOL    HW1 1426   1.765   2.860   0.485  0.7907  0.1586  1.5303
  357SOL    HW2 1427   1.879   2.859   0.387 -0.4067 -3.1047 -2.8223
  357SOL     MW 1428   1.794   2.870   0.404 -0.0653 -0.6170  0.1915
  358SOL     OW 1429   0.463   0.139   1.024 -0.1777 -0.1423 -0.1059
  358SOL    HW1 1430   0.553   0.146   1.001 -2.4178  0.2797 -0.2987
  358SOL    HW2 1431   0.422   0.181   0.950  2.2853  0.4862  0.7878
  358SOL     MW 1432   0.469   0.146   1.011 -0.1483 -0.0037 -0.0134
  359SOL     OW 1433   0.820   2.863   1.873 -0.4316  0.0697  0.3407
  359SOL    HW1 1434   0.802   2.777   1.908 -1.5928  1.2768  2.4301
  359SOL    HW2 1435   0.860   2.849   1.788  0.4982  0.7667 -0.0465
  359SOL     MW 1436   0.823   2.849   1.866 -0.4621  0.3209  0.5653
  360SOL     OW 1437   0.570   2.804   0.900 -0.2321  0.1217 -0.1771
  360SOL    HW1 1438   0.592   2.786   0.806 -0.1722  1.4468 -0.3667
  360SOL    HW2 1439   0.564   2.716   0.944  0.7171  1.1139 -1.0993
  360SOL     MW 1440   0.572   2.790   0.893 -0.0990  0.4274 -0.3238
  361SOL     OW 1441   0.208   2.621   1.336 -0.1114 -0.2450  0.0027
  361SOL    HW1 1442   0.192   2.694   1.396 -0.0088  1.6322 -1.4064
  361SOL    HW2 1443   0.305   2.630   1.319 -1.5197 -0.8514  2.4387
  361SOL     MW 1444   0.219   2.632   1.342 -0.2837 -0.0774  0.1382
  362SOL     OW 1445   1.446   2.401   0.667  0.0632 -0.4009  0.1003
  362SOL    HW1 1446   1.457   2.360   0.758 -0.5765  1.0728 -0.4048
  362SOL    HW2 1447   1.487   2.492   0.683 -1.5862 -0.7455  0.2916
  362SOL     MW 1448   1.453   2.408   0.681 -0.2388 -0.2519  0.0589
  363SOL     OW 1449   0.311   3.097   0.632 -0.2034  0.0641  0.0046
  363SOL    HW1 1450   0.290   3.044   0.703 -0.9364  1.4920 -2.2612
  363SOL    HW2 1451   0.229   3.103   0.577 -0.4783 -0.6230  0.1698
  363SOL     MW 1452   0.298   3.091   0.634 -0.3364  0.1619 -0.2726
  364SOL     OW 1453   0.731   0.219   0.228 -0.6208  0.2897 -0.3447
  364SOL    HW1 1454   0.655   0.156   0.245  0.1018 -2.3072  0.4617
  364SOL    HW2 1455   0.706   0.270   0.149  0.4978  2.0692 -0.3083
  364SOL     MW 1456   0.718   0.218   0.220 -0.3779  0.1818 -0.2335
  365SOL     OW 1457   0.979   1.977   1.176  0.3620 -0.5470 -0.5631
  365SOL    HW1 1458   0.958   2.071   1.153 -2.2733  1.5079 -1.0844
  365SOL    HW2 1459   0.924   1.928   1.109 -0.7831  0.9987  0.2992
  365SOL     MW 1460   0.969   1.983   1.164 -0.1368 -0.0719 -0.5181
  366SOL     OW 1461   2.924   2.658   0.981  1.0706  0.2833 -0.3447
  366SOL    HW1 1462   2.998   2.681   1.032 -0.7482 -0.3267 -1.4457
  366SOL    HW2 1463   2.943   2.685   0.891  1.9519  1.3873  1.5813
  366SOL     MW 1464   2.936   2.664   0.976  0.9469  0.3485 -0.2359
  367SOL     OW 1465   1.250   2.928   0.856  0.1918 -0.2360 -0.0739
  367SOL    HW1 1466   1.274   3.007   0.804 -0.1647 -0.1996 -1.9678
  367SOL    HW2 1467   1.208   2.865   0.797 -1.9638  0.1011 -1.4513
  367SOL     MW 1468   1.248   2.930   0.841 -0.1397 -0.1867 -0.5055
  368SOL     OW 1469   1.660   0.355   0.741  0.2014 -0.5000 -0.0172
  368SOL    HW1 1470   1.736   0.348   0.681 -1.6324  1.5666 -0.9676
  368SOL    HW2 1471   1.651   0.449   0.753  3.3777 -0.5124  0.2164
  368SOL     MW 1472   1.669   0.367   0.735  0.3785 -0.2290 -0.1118
  369SOL     OW 1473   0.132   2.417   1.789 -0.1101 -0.1147 -0.2712
  369SOL    HW1 1474   0.231   2.417   1.801  2.3823 -0.7648 -0.9421
  369SOL    HW2 1475   0.120   2.517   1.801  0.5931  0.7158 -2.0103
  369SOL     MW 1476   0.143   2.430   1.792  0.3115 -0.0909 -0.5892
  370SOL     OW 1477   0.752   0.161   0.919  0.3268 -0.0308 -0.4312
  370SOL    HW1 1478   0.760   0.246   0.958 -1.2589  1.5354 -2.3580
  370SOL    HW2 1479   0.818   0.105   0.959 -0.4828  2.7298 -4.0839
  370SOL     MW 1480   0.762   0.164   0.930  0.0108  0.5400 -1.1673
  371SOL     OW 1481   1.320   2.862   1.521 -0.7175 -0.0557 -0.0856
  371SOL    HW1 1482   1.252   2.792   1.515  0.7347  0.7909 -3.5107
  371SOL    HW2 1483   1.299   2.919   1.449 -1.9065  1.0203  0.0821
  371SOL     MW 1484   1.308   2.860   1.510 -0.6827  0.1980 -0.5154
  372SOL     OW 1485   0.798   2.281   0.478 -0.0333  0.5996 -0.5845
  372SOL    HW1 1486   0.786   2.185   0.479 -0.5296  1.0126  1.4294
  372SOL    HW2 1487   0.824   2.286   0.378  0.3618 -4.5964 -2.2827
  372SOL     MW 1488   0.800   2.269   0.465 -0.0466 -0.0314 -0.5429
  373SOL     OW 1489   2.821   3.020   1.453  0.0113  0.4746  0.0122
  373SOL    HW1 1490   2.919   3.010   1.438  0.7135  1.4674 -0.1223
  373SOL    HW2 1491   2.796   3.116   1.438  1.2565 -0.5561  0.3658
  373SOL     MW 1492   2.831   3.032   1.449  0.2683  0.4696  0.0411
  374SOL     OW 1493   1.496   0.540   0.295  0.0610  0.6014  0.5608
  374SOL    HW1 1494   1.571   0.478   0.292 -1.0974 -0.2597 -0.8843
  374SOL    HW2 1495   1.466   0.530   0.385 -1.3197 -1.3481 -1.5773
  374SOL     MW 1496   1.502   0.530   0.306 -0.2740  0.2306  0.0880
  375SOL     OW 1497   0.980   2.094   2.241  0.0510  0.2064  0.1226
  375SOL    HW1 1498   1.013   2.066   2.329  1.1937  1.1327 -0.1644
  375SOL    HW2 1499   0.991   2.031   2.164  1.3996 -0.4182 -0.4375
  375SOL     MW 1500   0.986   2.082   2.242  0.3797  0.2462  0.0108
  376SOL     OW 1501   0.766   2.550   0.047 -0.6913 -0.3525 -0.0521
  376SOL    HW1 1502   0.764   2.473   0.105 -0.8112  1.5802 -1.4457
  376SOL    HW2 1503   0.738   2.491  -0.021  0.5881 -3.7672  1.1259
  376SOL     MW 1504   0.762   2.532   0.046 -0.5383 -0.5480 -0.0805
  377SOL     OW 1505   1.258   2.025   0.843 -0.3492  0.5391  0.2268
  377SOL    HW1 1506   1.172   2.015   0.795  1.9442  0.9823  1.6113
  377SOL    HW2 1507   1.237   1.986   0.930  0.0775 -0.8059  1.3773
  377SOL     MW 1508   1.244   2.018   0.848  0.0097  0.4202  0.5613
  378SOL     OW 1509   0.903   2.843   1.586  0.3721 -0.1218  0.2882
  378SOL    HW1 1510   0.907   2.747   1.581  1.0219 -0.7535 -0.0924
  378SOL    HW2 1511   0.896   2.883   1.495 -0.9664  1.0078 -1.2114
  378SOL     MW 1512   0.903   2.836   1.573  0.2813 -0.0561  0.0401
  379SOL     OW 1513   1.108   1.696   2.224  0.3506  0.2347 -0.8542
  379SOL    HW1 1514   1.042   1.634   2.194 -0.9967 -0.7477  1.3375
  379SOL    HW2 1515   1.184   1.664   2.177 -0.2157  1.4670  0.6557
  379SOL     MW 1516   1.109   1.684   2.214  0.0982  0.2677 -0.3658
  380SOL     OW 1517   0.876   0.118   1.501  0.2081  0.4607 -0.6685
  380SOL    HW1 1518   0.870   0.027   1.457  0.4336 -1.1077  0.5211
  380SOL    HW2 1519   0.942   0.116   1.575  0.5809 -1.3833  3.5217
  380SOL     MW 1520   0.884   0.106   1.505  0.2870  0.0105  0.0413
  381SOL     OW 1521   0.746   2.044   0.840 -0.6418  0.5332  0.4100
  381SOL    HW1 1522   0.835   2.025   0.809 -0.0149 -0.9144  0.1207
  381SOL    HW2 1523   0.751   2.117   0.899 -0.7318 -1.2532 -2.8238
  381SOL     MW 1524   0.758   2.051   0.843 -0.5710  0.1065 -0.0549
  382SOL     OW 1525   0.709   0.104   0.643 -0.1957  0.4999 -0.0149
  382SOL    HW1 1526   0.701   0.116   0.739  0.8707  0.9933 -0.5084
  382SOL    HW2 1527   0.692   0.007   0.614 -0.1608  1.5357  1.7643
  382SOL     MW 1528   0.705   0.093   0.652 -0.0504  0.7016  0.1547
  383SOL     OW 1529   0.561   0.033   0.283  0.3596  0.0643 -0.1206
  383SOL    HW1 1530   0.598  -0.042   0.231  1.5594 -1.8837  0.8530
  383SOL    HW2 1531   0.510  -0.020   0.351 -1.2717  0.1598 -0.1122
  383SOL     MW 1532   0.559   0.016   0.285  0.3027 -0.1801  0.0090
  384SOL     OW 1533   0.720   2.938   0.576  0.2813  0.6352 -0.4402
  384SOL    HW1 1534   0.799   2.918   0.633  0.5030  0.3525  2.4833
  384SOL    HW2 1535   0.654   2.862   0.584 -0.5642 -1.2362 -0.5199
  384SOL     MW 1536   0.722   2.925   0.585  0.1990  0.3510 -0.0650
  385SOL     OW 1537   1.405   2.068   1.509 -0.2169 -0.2811  0.2986
  385SOL    HW1 1538   1.489   2.092   1.552 -0.0599 -0.7040  2.8884
  385SOL    HW2 1539   1.374   2.007   1.582  0.3666 -3.0688  0.1151
  385SOL     MW 1540   1.412   2.063   1.524 -0.1192 -0.7047  0.6161
  386SOL     OW 1541   1.243   0.391   0.862 -0.0577  0.0246 -0.4541
  386SOL    HW1 1542   1.181   0.434   0.926  1.3894  0.4426 -0.2616
  386SOL    HW2 1543   1.261   0.309   0.910  2.9815  1.0769 -1.3516
  386SOL     MW 1544   1.237   0.386   0.877  0.5342  0.2186 -0.5472
  387SOL     OW 1545   0.819   2.224   1.540 -0.0293  0.2348 -0.4099
  387SOL    HW1 1546   0.895   2.284   1.511 -1.1252 -1.3371  0.4619
  387SOL    HW2 1547   0.814   2.155   1.473 -0.3762 -0.7600  0.0672
  387SOL     MW 1548   0.829   2.223   1.528 -0.2197 -0.1039 -0.2319
  388SOL     OW 1549   1.487   2.805   1.261 -0.4926  0.0623  0.2248
  388SOL    HW1 1550   1.415   2.830   1.212  0.8435  0.4840  2.8273
  388SOL    HW2 1551   1.519   2.723   1.222  1.7034  1.5321  1.5746
  388SOL     MW 1552   1.482   2.797   1.250 -0.0265  0.3118  0.7463
  389SOL     OW 1553   0.458   0.154   3.028  0.4775  0.6248 -0.0091
  389SOL    HW1 1554   0.546   0.120   3.026  0.5821  2.3042 -3.9856
  389SOL    HW2 1555   0.453   0.204   2.953  1.9858 -0.9742 -0.6515
  389SOL     MW 1556   0.469   0.156   3.018  0.6903  0.6354 -0.6185
  390SOL     OW 1557   1.345   0.044   0.743  0.1338 -0.1862 -0.0263
  390SOL    HW1 1558   1.391   0.055   0.665 -0.8006 -1.8310  0.2939
  390SOL    HW2 1559   1.395   0.094   0.812 -3.0867 -0.4230  1.7518
  390SOL     MW 1560   1.358   0.052   0.742 -0.4144 -0.4345  0.2506
  391SOL     OW 1561   0.369   2.205   1.445  0.0767 -0.3415  0.3709
  391SOL    HW1 1562   0.339   2.115   1.456  1.6721  0.9858  2.1836
  391SOL    HW2 1563   0.290   2.261   1.462 -1.6949  0.9019 -1.5099
  391SOL     MW 1564   0.354   2.201   1.449  0.0534 -0.0023  0.3619
  392SOL     OW 1565   2.051   2.218   0.320  0.4194  0.1391 -1.5223
  392SOL    HW1 1566   2.116   2.182   0.379  0.7493 -2.8328 -3.0478
  392SOL    HW2 1567   1.988   2.263   0.380 -0.0804 -0.0363  2.3419
  392SOL     MW 1568   2.051   2.219   0.335  0.3970 -0.2762 -1.2138
  393SOL     OW 1569   0.288   2.918   2.771  0.1731  0.1217 -0.2709
  393SOL    HW1 1570   0.378   2.920   2.746 -2.4965  0.5976  0.6423
  393SOL    HW2 1571   0.271   3.008   2.804 -2.4820 -2.1427  2.5234
  393SOL     MW 1572   0.297   2.930   2.772 -0.5294 -0.1143  0.2182
  394SOL     OW 1573   0.903   1.744   1.526  0.6051 -0.1985 -0.0152
  394SOL    HW1 1574   0.866   1.746   1.620  2.0764 -2.5426  1.5028
  394SOL    HW2 1575   0.912   1.836   1.493 -2.7071  0.1222  0.5510
  394SOL     MW 1576   0.899   1.757   1.534  0.3622 -0.4655  0.2598
  395SOL     OW 1577   0.951   2.930   2.593 -0.1887  0.4628 -0.7649
  395SOL    HW1 1578   0.999   2.973   2.661 -1.1795  0.5643 -0.7318
  395SOL    HW2 1579   1.019   2.872   2.563  2.0217  3.0263 -1.2377
  395SOL     MW 1580   0.967   2.928   2.598 -0.0278  0.8145 -0.8229
  396SOL     OW 1581   0.683   1.856   2.393 -0.1362 -0.2165  0.5062
  396SOL    HW1 1582   0.755   1.896   2.450 -0.1053  0.8301 -0.5510
  396SOL    HW2 1583   0.700   1.766   2.399  2.0937  1.6747  1.0943
  396SOL     MW 1584   0.695   1.850   2.402  0.1621  0.1711  0.4443
  397SOL     OW 1585   1.043   2.370   1.420 -0.1727 -0.2421  0.4514
  397SOL    HW1 1586   1.057   2.393   1.326  1.6000  0.2671 -1.2184
  397SOL    HW2 1587   1.131   2.354   1.448  0.7041  1.3511  0.0607
  397SOL     MW 1588   1.056   2.371   1.411  0.1769  0.0353  0.1795
  398SOL     OW 1589   0.604   2.706   0.656  0.3360 -0.6395 -0.3757
  398SOL    HW1 1590   0.522   2.673   0.625  1.3198  3.5045  0.1144
  398SOL    HW2 1591   0.663   2.636   0.643  0.4511  0.3024  0.2905
  398SOL     MW 1592   0.601   2.692   0.650  0.4810  0.0315 -0.2232
  399SOL     OW 1593   0.220   2.106   0.287 -0.4630  0.3336  0.3535
  399SOL    HW1 1594   0.136   2.148   0.305  1.7977  2.8326 -1.7097
  399SOL    HW2 1595   0.243   2.129   0.202  0.1321 -0.7004  0.7893
  399SOL     MW 1596   0.212   2.114   0.278 -0.0862  0.5269  0.1388
  400SOL     OW 1597   0.552   1.950   0.063  0.2080  0.3254 -0.2846
  400SOL    HW1 1598   0.492   2.019   0.047 -0.0457  0.6224  0.7250
  400SOL    HW2 1599   0.530   1.907   0.144  1.8686  1.7754  0.5983
  400SOL     MW 1600   0.541   1.953   0.072  0.3936  0.5559 -0.0349
  401SOL     OW 1601   0.796   2.064   0.080  0.0365  0.7997  0.3492
  401SOL    HW1 1602   0.863   1.993   0.077 -2.3760  0.6472 -1.5282
  401SOL    HW2 1603   0.710   2.019   0.077  0.4085 -1.4139 -0.1135
  401SOL     MW 1604   0.793   2.048   0.079 -0.2327  0.4875  0.0404
  402SOL     OW 1605   0.566   2.975   1.754 -0.4602  0.4912 -0.1231
  402SOL    HW1 1606   0.637   2.953   1.817  2.7152  0.1104  1.2019
  402SOL    HW2 1607   0.599   3.050   1.708 -2.3382 -0.8680 -0.7422
  402SOL     MW 1608   0.580   2.982   1.756 -0.2891  0.2616 -0.0300
  403SOL     OW 1609   0.090   0.418   0.392  0.8694 -0.3926 -0.1470
  403SOL    HW1 1610   0.169   0.450   0.433 -1.1278 -1.1275  1.4462
  403SOL    HW2 1611   0.117   0.409   0.297  0.7763  2.0749 -1.6242
  403SOL     MW 1612   0.104   0.421   0.385  0.5936 -0.1640 -0.1317
  404SOL     OW 1613   0.948   2.926   0.724 -0.2245  0.4227  0.4169
  404SOL    HW1 1614   1.027   2.872   0.697  0.4240  1.2316 -3.0560
  404SOL    HW2 1615   0.986   3.019   0.728  0.5329  0.6718 -2.4698
  404SOL     MW 1616   0.964   2.932   0.721 -0.0390  0.5623 -0.4222
  405SOL     OW 1617   0.547   2.403   1.525 -0.4936 -0.1967 -0.3252
  405SOL    HW1 1618   0.559   2.434   1.435 -1.3545 -1.6150 -0.2637
  405SOL    HW2 1619   0.480   2.334   1.526 -2.9567 -0.4207  2.4710
  405SOL     MW 1620   0.539   2.398   1.513 -0.9322 -0.4134  0.0518
  406SOL     OW 1621   0.339   2.408   1.089  0.5534 -0.0254 -0.0638
  406SOL    HW1 1622   0.257   2.410   1.142 -0.4497  0.2791  0.9794
  406SOL    HW2 1623   0.370   2.317   1.098 -0.4382 -0.8047 -0.4263
  406SOL     MW 1624   0.333   2.396   1.097  0.2902 -0.0880  0.0260
  407SOL     OW 1625   0.041   2.705   1.155  0.1537 -0.4226  0.3075
  407SOL    HW1 1626   0.108   2.686   1.229  3.1816  0.0101  1.1979
  407SOL    HW2 1627   0.098   2.699   1.076 -2.5188  1.7199 -1.4788
  407SOL     MW 1628   0.057   2.702   1.154  0.2006 -0.0828  0.1893
  408SOL     OW 1629   2.136   2.129   0.594  0.0502 -0.1702 -0.0643
  408SOL    HW1 1630   2.068   2.190   0.628  1.2342  1.3612  3.8167
  408SOL    HW2 1631   2.091   2.045   0.567 -1.2850 -1.6383  1.8530
  408SOL     MW 1632   2.121   2.126   0.595  0.0302 -0.1619  0.7007
  409SOL     OW 1633   1.453   0.147   0.957 -0.6146 -0.1390  0.2658
  409SOL    HW1 1634   1.522   0.210   0.982  2.3455 -0.1259  0.0166
  409SOL    HW2 1635   1.502   0.063   0.969  1.8339  1.4966 -1.6847
  409SOL     MW 1636   1.468   0.144   0.962  0.0990  0.0785 -0.0244
  410SOL     OW 1637   1.103   2.424   1.149 -0.1298 -0.0309  0.1002
  410SOL    HW1 1638   1.018   2.440   1.115  1.9514 -2.6229  1.6165
  410SOL    HW2 1639   1.153   2.384   1.080 -0.1294 -0.1644  0.8732
  410SOL     MW 1640   1.099   2.421   1.136  0.1448 -0.3905  0.4023
  411SOL     OW 1641   1.920   0.025   2.886 -0.0247 -0.8727  0.1777
  411SOL    HW1 1642   1.878  -0.014   2.809 -1.2780  1.9111 -1.3572
  411SOL    HW2 1643   1.852   0.029   2.955  0.3906  2.9709  1.8689
  411SOL     MW 1644   1.905   0.020   2.885 -0.1353  0.0017  0.1984
  412SOL     OW 1645   1.067   2.229   0.571  0.1063  0.6136  0.7932
  412SOL    HW1 1646   1.105   2.311   0.610  0.9433 -1.2436 -0.3898
  412SOL    HW2 1647   0.997   2.261   0.518  3.0292 -1.9089  2.9390
  412SOL     MW 1648   1.062   2.244   0.569  0.6024  0.0357  0.9202
  413SOL     OW 1649   0.541   2.728   3.095  0.2960 -0.2046  1.0449
  413SOL    HW1 1650   0.614   2.685   3.137 -2.8709 -0.4297 -1.4824
  413SOL    HW2 1651   0.560   2.778   3.021 -1.7949 -0.4713  3.0824
  413SOL     MW 1652   0.553   2.729   3.091 -0.3977 -0.2695  0.9803
  414SOL     OW 1653   1.989   3.009   1.152  0.4111  0.3719  0.3408
  414SOL    HW1 1654   1.932   3.093   1.174 -2.4479  1.6219 -0.3525
  414SOL    HW2 1655   2.012   3.027   1.059  0.6091 -0.3421  0.0598
  414SOL     MW 1656   1.984   3.023   1.143  0.0600  0.4426  0.2123
  415SOL     OW 1657   1.797   2.749   1.098 -0.2836  0.7968 -0.2041
  415SOL    HW1 1658   1.777   2.709   1.182  0.3646  1.8474  0.7502
  415SOL    HW2 1659   1.858   2.822   1.107 -2.2999  2.0517 -2.2449
  415SOL     MW 1660   1.802   2.753   1.110 -0.4641  1.1009 -0.3475
  416SOL     OW 1661   0.552   1.986   1.336  0.4560 -0.6131  0.2500
  416SOL    HW1 1662   0.502   2.020   1.258  0.7748 -2.0676 -1.9454
  416SOL    HW2 1663   0.538   1.887   1.323 -0.2687 -0.5466  0.7797
  416SOL     MW 1664   0.543   1.977   1.324  0.4025 -0.7962  0.0303
  417SOL     OW 1665   1.000   2.998   2.053  0.0341  0.0245  0.1370
  417SOL    HW1 1666   0.946   3.033   2.120  2.9050 -2.4332 -0.8722
  417SOL    HW2 1667   0.934   2.940   2.015 -0.4238  0.0274 -3.0887
  417SOL     MW 1668   0.984   2.995   2.057  0.3524 -0.2994 -0.4217
  418SOL     OW 1669   0.683   2.916   0.153  0.4384 -0.1081  0.2910
  418SOL    HW1 1670   0.749   2.897   0.084  0.2922  1.7340 -1.4944
  418SOL    HW2 1671   0.601   2.877   0.118  0.3555 -0.6778  1.7813
  418SOL     MW 1672   0.681   2.908   0.139  0.4082  0.0597  0.2520
  419SOL     OW 1673   0.500   2.633   1.310  0.0727 -0.1536 -0.1793
  419SOL    HW1 1674   0.540   2.710   1.356  2.8663  1.7774 -0.5509
  419SOL    HW2 1675   0.557   2.610   1.236  3.6992  1.1189  1.3998
  419SOL     MW 1676   0.513   2.640   1.307  0.9197  0.2690 -0.0200
  420SOL     OW 1677   0.804   2.216   1.050 -0.2967  0.0429  0.1821
  420SOL    HW1 1678   0.756   2.238   1.131 -2.6948 -3.2961 -0.2346
  420SOL    HW2 1679   0.842   2.293   1.008  0.4347  3.7945  0.9566
  420SOL     MW 1680   0.802   2.229   1.055 -0.5166  0.0974  0.2293
  421SOL     OW 1681   2.987   0.200   3.059 -0.3271  0.0916  0.5455
  421SOL    HW1 1682   2.902   0.163   3.031  2.6125  0.1703  0.3578
  421SOL    HW2 1683   3.033   0.119   3.083 -1.9497  0.0943 -0.3792
  421SOL     MW 1684   2.981   0.184   3.058 -0.1533  0.1023  0.3987
  422SOL     OW 1685   0.872   2.476   0.957 -0.3966 -0.4380  0.3442
  422SOL    HW1 1686   0.852   2.568   0.988  0.3964 -0.8746 -0.5440
  422SOL    HW2 1687   0.854   2.477   0.864 -1.8431 -0.1533  0.9007
  422SOL     MW 1688   0.867   2.489   0.949 -0.4828 -0.4581  0.3004
  423SOL     OW 1689   1.464   0.069   0.487  0.3435  0.0060  0.0553
  423SOL    HW1 1690   1.470   0.048   0.393  4.9756 -0.5572  0.8832
  423SOL    HW2 1691   1.474   0.160   0.484  1.5313 -3.2105  0.7979
  423SOL     MW 1692   1.466   0.078   0.474  1.1113 -0.4927  0.2625
  424SOL     OW 1693   0.666   2.285   1.274 -0.1556 -0.2629  0.4531
  424SOL    HW1 1694   0.576   2.273   1.253  2.5832  0.0379  2.6449
  424SOL    HW2 1695   0.668   2.263   1.366  0.4981 -1.8911 -0.0423
  424SOL     MW 1696   0.654   2.280   1.283  0.2920 -0.4380  0.6770
  425SOL     OW 1697   1.709   2.763   2.069  0.0828 -0.2791  0.4116
  425SOL    HW1 1698   1.736   2.796   1.977 -1.2709  0.5587  0.9438
  425SOL    HW2 1699   1.752   2.673   2.081  0.9546 -0.9585  1.3363
  425SOL     MW 1700   1.718   2.756   2.058  0.0192 -0.2582  0.6038
  426SOL     OW 1701   0.854   1.683   1.957 -0.0003  0.5983 -0.6045
  426SOL    HW1 1702   0.800   1.725   1.893  3.0269  0.0993  2.0488
  426SOL    HW2 1703   0.835   1.747   2.031  1.5809  1.4966 -2.2559
  426SOL     MW 1704   0.845   1.697   1.959  0.6078  0.6510 -0.4723
  427SOL     OW 1705   0.372   1.698   1.860 -0.0811  0.8504 -0.0131
  427SOL    HW1 1706   0.404   1.638   1.797 -0.1464  2.3806  1.1598
  427SOL    HW2 1707   0.313   1.645   1.920 -2.0703 -0.6788  0.8185
  427SOL     MW 1708   0.369   1.683   1.859 -0.3522  0.8505  0.2514
  428SOL     OW 1709   0.545   2.563   1.013 -0.2323  0.1109  0.4578
  428SOL    HW1 1710   0.603   2.487   1.005  1.2097 -1.5940 -1.7931
  428SOL    HW2 1711   0.454   2.530   1.045 -1.3007 -0.1651 -0.0633
  428SOL     MW 1712   0.541   2.549   1.016 -0.1830 -0.1504  0.0920
  429SOL     OW 1713   1.244   2.819   1.139 -0.3402  0.3106  0.0033
  429SOL    HW1 1714   1.162   2.779   1.172 -0.4426 -2.6021  0.6825
  429SOL    HW2 1715   1.212   2.874   1.068  0.8231 -1.2213 -1.5674
  429SOL     MW 1716   1.229   2.821   1.134 -0.2002 -0.2758 -0.1143
  430SOL     OW 1717   1.156   2.733   0.703  0.0393 -0.1526 -0.5042
  430SOL    HW1 1718   1.162   2.643   0.736  0.3180 -1.7177 -0.8728
  430SOL    HW2 1719   1.101   2.704   0.625 -3.6248 -3.1851 -1.1605
  430SOL     MW 1720   1.150   2.717   0.697 -0.4073 -0.7592 -0.6394
  431SOL     OW 1721   0.314   1.973   1.039 -0.4203 -0.0002  0.2457
  431SOL    HW1 1722   0.347   1.880   1.038  2.2904 -0.7882  2.2493
  431SOL    HW2 1723   0.284   1.998   0.949  1.2819 -0.4498  2.0277
  431SOL     MW 1724   0.314   1.964   1.027  0.1619 -0.1635  0.7451
  432SOL     OW 1725   0.087   0.051   1.187  0.4443 -0.3381 -0.2089
  432SOL    HW1 1726   0.070   0.121   1.249 -1.9149  0.7676 -3.5699
  432SOL    HW2 1727   0.010  -0.003   1.197  0.9884  2.2162  1.0333
  432SOL     MW 1728   0.075   0.053   1.197  0.2048  0.1448 -0.4884
  433SOL     OW 1729   0.614   2.830   1.479  0.2283  0.7058 -0.3450
  433SOL    HW1 1730   0.584   2.859   1.562 -1.3201  0.6359 -0.0570
  433SOL    HW2 1731   0.700   2.796   1.505 -3.4533 -1.5139 -0.1337
  433SOL     MW 1732   0.622   2.830   1.493 -0.4618  0.4037 -0.2791
  434SOL     OW 1733   1.567   2.757   1.537  0.1610  0.1867  0.4156
  434SOL    HW1 1734   1.479   2.790   1.510 -0.6035 -1.7346  1.0079
  434SOL    HW2 1735   1.610   2.723   1.459  0.1257  1.8847  0.1128
  434SOL     MW 1736   1.561   2.757   1.523  0.0555  0.1572  0.4538
  435SOL     OW 1737   2.810   1.805   0.193 -0.4139 -0.3888 -0.3829
  435SOL    HW1 1738   2.889   1.858   0.166 -1.5599  1.2617 -0.4554
  435SOL    HW2 1739   2.762   1.781   0.112  1.9236  1.2162  2.9505
  435SOL     MW 1740   2.814   1.809   0.179 -0.2567  0.0407  0.0474
  436SOL     OW 1741   1.387   2.661   0.417  0.3674 -0.0740  0.0870
  436SOL    HW1 1742   1.435   2.659   0.503 -1.4677  0.1799  0.5961
  436SOL    HW2 1743   1.363   2.751   0.395  0.8623 -4.1040  2.6139
  436SOL     MW 1744   1.390   2.672   0.426  0.1905 -0.5722  0.4876
  437SOL     OW 1745   0.901   2.996   1.333  0.0012 -0.3675  0.0923
  437SOL    HW1 1746   0.985   3.034   1.306 -1.2677  1.0971  0.4898
  437SOL    HW2 1747   0.905   2.928   1.265  0.2610  0.0065  0.9531
  437SOL     MW 1748   0.913   2.992   1.320 -0.1320 -0.1249  0.2583
  438SOL     OW 1749   0.806   2.590   1.912 -0.0846  0.0909 -0.2266
  438SOL    HW1 1750   0.823   2.558   2.007  0.2837  1.4754  1.0436
  438SOL    HW2 1751   0.765   2.520   1.863 -1.2394  3.7607  0.1320
  438SOL     MW 1752   0.803   2.577   1.918 -0.1884  0.7577 -0.0117
  439SOL     OW 1753   1.227   2.110   0.408 -0.4761 -0.0079 -0.5414
  439SOL    HW1 1754   1.165   2.153   0.472  0.9579 -1.9834 -0.1187
  439SOL    HW2 1755   1.221   2.167   0.329 -0.1236  0.7313 -1.6403
  439SOL     MW 1756   1.218   2.123   0.406 -0.2404 -0.1710 -0.6306
  440SOL     OW 1757   1.729   2.991   3.059 -0.3545 -0.2017 -0.3649
  440SOL    HW1 1758   1.676   2.928   3.113  0.3058 -0.8823  1.0932
  440SOL    HW2 1759   1.814   2.958   3.083  0.1661  0.2205  1.2448
  440SOL     MW 1760   1.733   2.979   3.070 -0.1987 -0.2358  0.0398
  441SOL     OW 1761   0.372   2.680   0.499  0.3657  0.7476  0.0250
  441SOL    HW1 1762   0.356   2.652   0.406 -1.6070 -0.2676 -1.3324
  441SOL    HW2 1763   0.392   2.771   0.487  2.5563 -0.8849 -2.5137
  441SOL     MW 1764   0.372   2.688   0.485  0.3945  0.3982 -0.4891
  442SOL     OW 1765   3.057   2.356   0.584 -0.0668 -0.2552 -0.5993
  442SOL    HW1 1766   3.055   2.452   0.553 -1.6295 -1.1563  1.0059
  442SOL    HW2 1767   2.971   2.347   0.623  0.6571 -1.0037  0.9532
  442SOL     MW 1768   3.045   2.368   0.585 -0.1775 -0.4728 -0.1827
  443SOL     OW 1769   1.476   1.759   1.957  0.2504  0.5004 -0.3078
  443SOL    HW1 1770   1.416   1.757   1.884 -2.0489 -1.9164  2.5338
  443SOL    HW2 1771   1.462   1.666   1.984  4.7377 -0.7835  2.7501
  443SOL     MW 1772   1.466   1.747   1.951  0.5391  0.0121  0.4706
  444SOL     OW 1773   0.881   2.569   1.576  0.1251  0.1807  0.0030
  444SOL    HW1 1774   0.970   2.539   1.575  1.3721  1.1489 -2.6481
  444SOL    HW2 1775   0.843   2.524   1.651  0.1421 -0.0784 -0.1063
  444SOL     MW 1776   0.888   2.559   1.586  0.2919  0.2742 -0.3612
  445SOL     OW 1777   1.115   0.072   1.327  0.2726  0.4186  0.4735
  445SOL    HW1 1778   1.064   0.118   1.394  1.2168 -0.0294  0.0514
  445SOL    HW2 1779   1.124   0.121   1.246  0.5859  3.3480 -0.4353
  445SOL     MW 1780   1.110   0.085   1.326  0.4385  0.7460  0.2979
  446SOL     OW 1781   2.770   2.868   1.083  0.2579 -0.2058 -0.5625
  446SOL    HW1 1782   2.733   2.913   1.010 -1.7322 -0.6541  0.3608
  446SOL    HW2 1783   2.824   2.797   1.047  1.4383  0.1703 -1.3465
  446SOL     MW 1784   2.772   2.865   1.069  0.1511 -0.2153 -0.5441
  447SOL     OW 1785   0.040   1.992   1.644  0.3813  0.0355  0.1881
  447SOL    HW1 1786   0.068   1.916   1.699  0.7973 -0.4541 -0.4409
  447SOL    HW2 1787  -0.038   1.963   1.588  0.6055 -1.4340 -0.6650
  447SOL     MW 1788   0.034   1.978   1.644  0.4658 -0.2230 -0.0074
  448SOL     OW 1789   1.746   2.411   1.675  0.5376  0.2353  0.0637
  448SOL    HW1 1790   1.709   2.325   1.641 -1.7197  1.8943 -1.1142
  448SOL    HW2 1791   1.670   2.462   1.685  0.1494 -0.5111 -1.5319
  448SOL     MW 1792   1.731   2.406   1.672  0.1886  0.3557 -0.3022
  449SOL     OW 1793   0.867   2.884   0.348  1.1063 -0.3240 -0.2583
  449SOL    HW1 1794   0.815   2.872   0.265 -0.9100 -1.4069 -1.1375
  449SOL    HW2 1795   0.813   2.923   0.418  1.1110 -1.5470 -2.3665
  449SOL     MW 1796   0.853   2.887   0.347  0.8409 -0.6283 -0.6524
  450SOL     OW 1797   1.173   2.439   0.709 -0.3816 -0.0259 -0.2193
  450SOL    HW1 1798   1.175   2.396   0.798  1.2740  2.1359  1.2123
  450SOL    HW2 1799   1.263   2.448   0.682  0.7942  1.6681 -1.1597
  450SOL     MW 1800   1.185   2.434   0.717 -0.0080  0.4828 -0.1545
  451SOL     OW 1801   0.563   2.003   1.653  0.3316 -0.6661  0.1896
  451SOL    HW1 1802   0.624   2.059   1.608  2.1439 -0.8343  0.7543
  451SOL    HW2 1803   0.505   1.973   1.589 -0.8722  1.3092  2.0699
  451SOL     MW 1804   0.564   2.006   1.639  0.4119 -0.4277  0.5122
  452SOL     OW 1805   0.273   2.667   0.053 -0.0571  0.0088  0.0714
  452SOL    HW1 1806   0.352   2.684   0.008  2.0280 -0.6590  1.9447
  452SOL    HW2 1807   0.207   2.713  -0.001 -1.4600 -0.5552 -3.0581
  452SOL     MW 1808   0.275   2.676   0.040  0.0329 -0.1537 -0.0943
  453SOL     OW 1809   0.337   2.999   1.612 -0.0406  0.4864  0.4255
  453SOL    HW1 1810   0.411   2.976   1.669 -1.2335  0.2264 -1.9134
  453SOL    HW2 1811   0.389   3.031   1.532  0.3506 -0.9784 -0.1571
  453SOL     MW 1812   0.354   3.000   1.609 -0.1464  0.2589  0.0400
  454SOL     OW 1813   0.982   2.786   1.207  0.1534 -0.5323 -0.1478
  454SOL    HW1 1814   0.943   2.707   1.243 -0.1527  1.6811  1.6853
  454SOL    HW2 1815   0.952   2.768   1.119  0.9027 -2.2412 -1.6424
  454SOL     MW 1816   0.973   2.773   1.200  0.2119 -0.4657 -0.1031
  455SOL     OW 1817   1.601   2.856   0.175 -0.1546 -0.2113  0.8182
  455SOL    HW1 1818   1.663   2.864   0.251  0.1075 -0.0951  0.5695
  455SOL    HW2 1819   1.575   2.765   0.162  0.8074 -1.3441  0.2579
  455SOL     MW 1820   1.606   2.845   0.183  0.0069 -0.3454  0.7114
  456SOL     OW 1821   2.731   0.318   1.530 -0.0955 -0.6572  0.3861
  456SOL    HW1 1822   2.728   0.244   1.468  0.5827 -2.9070 -0.6955
  456SOL    HW2 1823   2.794   0.382   1.503  1.7927  1.7185 -0.9048
  456SOL     MW 1824   2.739   0.317   1.518  0.2431 -0.6406  0.0731
  457SOL     OW 1825   0.900   1.592   3.046 -0.2410  0.2292  0.4926
  457SOL    HW1 1826   0.804   1.607   3.051  0.4672 -1.2327  3.0334
  457SOL    HW2 1827   0.924   1.570   3.136  1.0433 -1.0464  1.7655
  457SOL     MW 1828   0.890   1.591   3.058  0.0219 -0.1320  0.9958
  458SOL     OW 1829   1.383   1.458   0.577  0.5699 -0.4651  0.2416
  458SOL    HW1 1830   1.352   1.547   0.564 -1.8593 -2.5216  2.0962
  458SOL    HW2 1831   1.357   1.409   0.496  1.3141  0.9700 -0.2246
  458SOL     MW 1832   1.375   1.464   0.564  0.3476 -0.5471  0.4248
  459SOL     OW 1833   1.494   0.026   0.227  0.4960 -0.0300  0.0118
  459SOL    HW1 1834   1.500  -0.068   0.207 -0.9375  0.5610  0.6174
  459SOL    HW2 1835   1.446   0.062   0.153  1.1064  0.6255 -1.5859
  459SOL     MW 1836   1.489   0.018   0.215  0.3874  0.1344 -0.1191
  460SOL     OW 1837   1.786   2.145   0.624  0.1416  0.2850  0.1407
  460SOL    HW1 1838   1.704   2.160   0.678  0.7809  0.9765  1.3967
  460SOL    HW2 1839   1.793   2.052   0.613  1.1043  0.9326 -0.1611
  460SOL     MW 1840   1.776   2.135   0.630  0.3530  0.4617  0.2666
  461SOL     OW 1841   0.412   2.394   0.558  0.6277  0.0661  0.3452
  461SOL    HW1 1842   0.405   2.464   0.489 -0.5207 -0.0929 -2.9918
  461SOL    HW2 1843   0.369   2.428   0.642 -1.7543  2.9234 -0.2148
  461SOL     MW 1844   0.406   2.408   0.560  0.1619  0.4221 -0.1690
  462SOL     OW 1845   0.325   0.254   1.266 -0.0225  0.2770 -0.7125
  462SOL    HW1 1846   0.323   0.215   1.182  0.4163 -1.1700 -0.2847
  462SOL    HW2 1847   0.421   0.279   1.276  0.8772 -1.4304  0.3503
  462SOL     MW 1848   0.337   0.252   1.256  0.1541 -0.1392 -0.5158
  463SOL     OW 1849   0.979   0.100   0.678 -0.0595  0.1891  0.3966
  463SOL    HW1 1850   1.016   0.105   0.588 -0.7178  0.4024 -1.4421
  463SOL    HW2 1851   0.879   0.096   0.661  0.7313  0.5192  0.4905
  463SOL     MW 1852   0.971   0.100   0.664 -0.0420  0.2608  0.1664
  464SOL     OW 1853   0.771   3.052   2.249 -0.1054 -0.6285 -0.6812
  464SOL    HW1 1854   0.768   2.957   2.245  0.0173 -0.4095  1.6184
  464SOL    HW2 1855   0.772   3.072   2.342 -0.0886 -1.1227 -1.8600
  464SOL     MW 1856   0.771   3.042   2.261 -0.0870 -0.6648 -0.5333
  465SOL     OW 1857   0.848   0.277   0.474  0.0893 -0.1195  0.0142
  465SOL    HW1 1858   0.800   0.223   0.543 -0.7980  1.4178 -0.5099
  465SOL    HW2 1859   0.797   0.268   0.389 -1.7807  0.6739  0.2760
  465SOL     MW 1860   0.835   0.269   0.472 -0.2745  0.1880 -0.0204
  466SOL     OW 1861   0.991   2.022   0.741  0.1699 -0.4139  0.8083
  466SOL    HW1 1862   0.999   1.944   0.687 -0.8387 -0.6225  0.2175
  466SOL    HW2 1863   1.021   2.095   0.682 -1.8639 -0.3398  0.7486
  466SOL     MW 1864   0.996   2.022   0.726 -0.2315 -0.4317  0.7225
  467SOL     OW 1865   1.237   2.287   0.950  0.4817 -0.1257  0.0149
  467SOL    HW1 1866   1.321   2.330   0.967  0.3819  0.5646  2.3835
  467SOL    HW2 1867   1.260   2.191   0.944 -0.9838 -1.6326  1.3282
  467SOL     MW 1868   1.251   2.280   0.952  0.2752 -0.2335  0.5007
  468SOL     OW 1869   0.422   2.643   1.983  0.5356 -0.0055 -0.4250
  468SOL    HW1 1870   0.416   2.569   1.923 -1.8087  1.4532 -1.5662
  468SOL    HW2 1871   0.416   2.720   1.924  1.6652  0.4557 -3.4273
  468SOL     MW 1872   0.420   2.643   1.967  0.3753  0.2478 -0.9717
  469SOL     OW 1873   0.374   2.140   1.859 -0.0442 -0.5810  0.0218
  469SOL    HW1 1874   0.310   2.074   1.894  0.5416 -1.8354  0.6818
  469SOL    HW2 1875   0.436   2.093   1.812 -1.1803  0.9628 -0.6033
  469SOL     MW 1876   0.373   2.125   1.857 -0.1168 -0.5428  0.0264
  470SOL     OW 1877   3.025   2.600   0.141  0.1027 -0.3237  0.4593
  470SOL    HW1 1878   2.948   2.581   0.203 -0.2533 -1.0310  1.8639
  470SOL    HW2 1879   2.997   2.602   0.048  1.0035  0.8069  0.6028
  470SOL     MW 1880   3.011   2.598   0.137  0.1746 -0.2679  0.6636
  471SOL     OW 1881   1.176   2.652   1.430 -0.5492 -0.3194 -0.4292
  471SOL    HW1 1882   1.169   2.604   1.511  2.8654 -0.3823  0.6782
  471SOL    HW2 1883   1.092   2.680   1.398  1.4668  0.8033 -0.2833
  471SOL     MW 1884   1.164   2.650   1.437  0.1673 -0.1796 -0.2638
  472SOL     OW 1885   2.825   2.120   0.335  0.0421 -0.5599  0.1819
  472SOL    HW1 1886   2.866   2.073   0.260 -1.0655  0.6790  1.4585
  472SOL    HW2 1887   2.798   2.041   0.394  0.4639 -3.9556 -1.3923
  472SOL     MW 1888   2.827   2.103   0.333 -0.0484 -0.8445  0.1427
  473SOL     OW 1889   0.811   2.535   1.293 -0.1913  0.5370  0.4412
  473SOL    HW1 1890   0.796   2.452   1.253  2.0373 -0.6241  2.4918
  473SOL    HW2 1891   0.791   2.524   1.387 -0.3859 -0.0934  0.2598
  473SOL     MW 1892   0.806   2.522   1.300  0.0770  0.3006  0.6878
  474SOL     OW 1893   0.847   2.088   1.809 -0.4217  0.3903 -0.0462
  474SOL    HW1 1894   0.926   2.135   1.845 -0.2952  2.5514  3.7043
  474SOL    HW2 1895   0.865   2.081   1.715 -1.0155  0.0093 -1.0220
  474SOL     MW 1896   0.860   2.094   1.802 -0.4834  0.6252  0.3199
  475SOL     OW 1897   1.633   3.073   1.459 -0.5958 -0.1048  0.2208
  475SOL    HW1 1898   1.557   3.090   1.403 -2.6714 -0.2167  0.3111
  475SOL    HW2 1899   1.607   2.993   1.505 -2.1940  2.6593  2.8127
  475SOL     MW 1900   1.619   3.065   1.458 -1.0806  0.2452  0.5747
  476SOL     OW 1901   1.420   2.623   1.027 -0.5029  0.6516 -0.1523
  476SOL    HW1 1902   1.339   2.663   1.053 -0.5320 -2.9904 -1.3471
  476SOL    HW2 1903   1.460   2.686   0.969  1.4783 -0.7602 -1.0900
  476SOL     MW 1904   1.414   2.637   1.023 -0.2453 -0.0152 -0.4337
  477SOL     OW 1905   0.799   2.482   0.663 -0.3043 -0.1675  0.0521
  477SOL    HW1 1906   0.877   2.531   0.634  1.5243 -1.4755 -2.8934
  477SOL    HW2 1907   0.779   2.421   0.591  0.4254  0.9032 -1.0523
  477SOL     MW 1908   0.807   2.481   0.649  0.0333 -0.1988 -0.4822
  478SOL     OW 1909   0.169   2.674   0.925 -0.0726  0.0228  0.0736
  478SOL    HW1 1910   0.202   2.761   0.911 -1.5359  4.4199 -2.1291
  478SOL    HW2 1911   0.220   2.608   0.883 -0.6838  0.2206  1.1613
  478SOL     MW 1912   0.180   2.676   0.917 -0.3463  0.6291 -0.0735
  479SOL     OW 1913   1.475   1.973   1.243  0.3982  0.1390  0.2216
  479SOL    HW1 1914   1.459   1.986   1.336  0.8957 -2.2844  1.6920
  479SOL    HW2 1915   1.534   1.894   1.243 -2.2142 -0.0761 -0.3747
  479SOL     MW 1916   1.481   1.965   1.256  0.1192 -0.2091  0.3369
  480SOL     OW 1917   1.925   2.403   1.269  0.9604  0.2659  0.0646
  480SOL    HW1 1918   1.890   2.313   1.295 -2.0128  1.1018  3.8031
  480SOL    HW2 1919   1.946   2.392   1.173  0.9730 -4.6818  1.0628
  480SOL     MW 1920   1.923   2.390   1.259  0.5698 -0.2766  0.6896
  481SOL     OW 1921   1.029   0.001   1.021  0.3938 -0.2662  0.7563
  481SOL    HW1 1922   1.099  -0.018   0.959 -0.4754  0.8921  0.3913
  481SOL    HW2 1923   1.072   0.068   1.074  0.6407  0.0184  2.8561
  481SOL     MW 1924   1.044   0.007   1.020  0.3117 -0.0758  0.9852
  482SOL     OW 1925   1.082   3.029   0.279 -0.1019 -0.8594  0.0806
  482SOL    HW1 1926   1.006   2.970   0.282 -1.9718 -1.3053  0.9045
  482SOL    HW2 1927   1.050   3.109   0.323 -0.2188  2.5909 -2.6330
  482SOL     MW 1928   1.068   3.032   0.285 -0.3641 -0.4630 -0.1687
  483SOL     OW 1929   0.415   2.961   0.447  0.3703 -0.3351  0.3297
  483SOL    HW1 1930   0.338   2.957   0.387 -0.2598 -2.1240 -0.5101
  483SOL    HW2 1931   0.396   3.020   0.525 -1.0756  0.7940  1.1452
  483SOL     MW 1932   0.402   2.968   0.449  0.0964 -0.4221  0.3265
  484SOL     OW 1933   1.788   1.895   1.464  0.6216 -0.1061 -0.1872
  484SOL    HW1 1934   1.807   1.980   1.421  0.8116  1.9814  2.3972
  484SOL    HW2 1935   1.810   1.914   1.555  1.2329 -0.1831 -0.3041
  484SOL     MW 1936   1.794   1.909   1.470  0.7274  0.1592  0.1384
  485SOL     OW 1937   0.470   2.282   0.244  0.0808  0.2121 -0.5681
  485SOL    HW1 1938   0.477   2.230   0.333 -1.9247  0.2711  2.8581
  485SOL    HW2 1939   0.428   2.362   0.272  0.4271  0.7367 -0.5916
  485SOL     MW 1940   0.465   2.286   0.260 -0.1381  0.2891 -0.1192
  486SOL     OW 1941   0.197   2.409   1.496  0.8270 -0.2391 -0.6630
  486SOL    HW1 1942   0.185   2.485   1.442 -0.9093  0.2436 -0.4115
  486SOL    HW2 1943   0.175   2.436   1.589 -0.0064  1.7515 -1.9905
  486SOL     MW 1944   0.192   2.423   1.501  0.4880  0.0873 -0.8050
  487SOL     OW 1945   1.221   1.662   1.016  0.0148  0.0897 -0.1793
  487SOL    HW1 1946   1.210   1.751   1.052 -0.8227  3.1735 -0.7874
  487SOL    HW2 1947   1.311   1.664   0.967  0.1884 -0.5182 -2.5281
  487SOL     MW 1948   1.231   1.674   1.014 -0.0728  0.4164 -0.5694
  488SOL     OW 1949   1.658   1.860   0.505 -0.2528  0.5444  0.9265
  488SOL    HW1 1950   1.732   1.873   0.441  2.3101  2.8619 -1.0508
  488SOL    HW2 1951   1.587   1.929   0.482  0.3478 -0.0300  0.3808
  488SOL     MW 1952   1.658   1.871   0.494  0.1646  0.7744  0.5936
  489SOL     OW 1953   0.685   0.774   0.580  0.1045  0.4617 -0.5008
  489SOL    HW1 1954   0.741   0.695   0.555  1.2336  0.3818 -2.1744
  489SOL    HW2 1955   0.690   0.801   0.671 -1.0199  1.8436 -1.7013
  489SOL     MW 1956   0.693   0.767   0.588  0.1051  0.6335 -0.8800
  490SOL     OW 1957   1.487   2.062   0.460  0.0180  0.2021  0.0752
  490SOL    HW1 1958   1.535   2.146   0.444  4.1284  0.2396 -1.4610
  490SOL    HW2 1959   1.392   2.086   0.437  1.3568 -0.6068 -0.9069
  490SOL     MW 1960   1.481   2.077   0.455  0.7370  0.1003 -0.2571
  491SOL     OW 1961   1.317   2.939   0.368  0.5603  0.5574 -0.6517
  491SOL    HW1 1962   1.359   2.999   0.432  0.0021 -0.6479  1.4146
  491SOL    HW2 1963   1.241   2.986   0.325 -1.0110 -1.6757 -1.9659
  491SOL     MW 1964   1.313   2.953   0.370  0.2794  0.1037 -0.5524
  492SOL     OW 1965   1.505   2.075   0.746 -0.2673 -0.0888  0.2639
  492SOL    HW1 1966   1.470   2.080   0.653 -0.7357  1.5128  0.3852
  492SOL    HW2 1967   1.425   2.064   0.793  1.7343  1.5660  1.5738
  492SOL     MW 1968   1.490   2.074   0.740 -0.0650  0.3408  0.4527
  493SOL     OW 1969   0.214   3.004   0.274 -0.2416  0.3915 -0.0850
  493SOL    HW1 1970   0.164   3.048   0.343 -1.7904 -1.1650  0.1467
  493SOL    HW2 1971   0.223   3.064   0.200  0.0264 -0.8406 -2.0242
  493SOL     MW 1972   0.208   3.018   0.273 -0.4106  0.0236 -0.3103
  494SOL     OW 1973   0.402   2.440   1.785  0.1260 -0.3604 -0.5476
  494SOL    HW1 1974   0.443   2.357   1.820 -0.6425 -0.9306 -0.2252
  494SOL    HW2 1975   0.443   2.467   1.699 -0.7694 -0.0656  1.7448
  494SOL     MW 1976   0.413   2.433   1.778 -0.0935 -0.3968 -0.2026
  495SOL     OW 1977   2.939   1.664   2.601  0.6459 -0.2223  0.7428
  495SOL    HW1 1978   2.925   1.754   2.561  0.5969  1.8025 -1.2636
  495SOL    HW2 1979   2.890   1.661   2.680  0.8008 -2.1005 -2.4716
  495SOL     MW 1980   2.931   1.675   2.606  0.6599 -0.2030  0.0539
  496SOL     OW 1981   2.925   2.310   2.682  0.2170  0.4103  0.3712
  496SOL    HW1 1982   2.962   2.247   2.739  3.6524  0.8556 -0.7645
  496SOL    HW2 1983   2.993   2.370   2.661  2.6260 -0.2719 -3.3037
  496SOL     MW 1984   2.939   2.310   2.687  0.9881  0.3790 -0.2635
  497SOL     OW 1985   1.506   2.274   2.645  0.4447  0.4844  0.1227
  497SOL    HW1 1986   1.494   2.227   2.564  1.5680  1.8706 -0.1932
  497SOL    HW2 1987   1.487   2.200   2.701 -0.9965  1.5510  0.2355
  497SOL     MW 1988   1.502   2.258   2.642  0.4028  0.8080  0.0959
  498SOL     OW 1989   1.528   2.745   2.359 -0.4750  0.3559 -0.2159
  498SOL    HW1 1990   1.549   2.655   2.331 -1.5455 -2.9221 -1.8991
  498SOL    HW2 1991   1.595   2.769   2.425  0.5929 -0.8612 -1.5422
  498SOL     MW 1992   1.540   2.737   2.364 -0.4754 -0.2372 -0.6130
  499SOL     OW 1993   0.926   0.087   0.083 -0.1426  0.0085  0.3470
  499SOL    HW1 1994   0.857   0.098   0.153 -0.1690 -1.2064 -1.1813
  499SOL    HW2 1995   0.984   0.034   0.140  1.4708  0.2583  0.9392
  499SOL     MW 1996   0.925   0.081   0.100  0.0668 -0.1189  0.2235
  500SOL     OW 1997   1.108   2.561   2.791 -0.4979 -0.3863  0.8526
  500SOL    HW1 1998   1.143   2.527   2.873  2.7970 -1.4745 -1.2682
  500SOL    HW2 1999   1.038   2.615   2.823  0.1787 -2.2397  0.9867
  500SOL     MW 2000   1.103   2.563   2.806  0.0261 -0.7744  0.5905
  501SOL     OW 2001   1.750   2.263   0.003  0.0459  0.2769 -0.6187
  501SOL    HW1 2002   1.736   2.330   0.061 -1.1167 -1.4900 -0.5371
  501SOL    HW2 2003   1.850   2.254   0.004  2.3418  0.3406  3.6372
  501SOL     MW 2004   1.762   2.271   0.011  0.1954  0.0522 -0.0464
  502SOL     OW 2005   0.113   2.837   2.988  0.4763 -0.7242  0.5809
  502SOL    HW1 2006   0.046   2.766   2.985  0.5320  2.4920  0.5419
  502SOL    HW2 2007   0.156   2.832   2.904 -1.9633  0.2466  0.9302
  502SOL     MW 2008   0.110   2.827   2.977  0.1618 -0.1717  0.6218
  503SOL     OW 2009   1.136   2.724   2.129 -0.0773  0.3676  0.2926
  503SOL    HW1 2010   1.106   2.684   2.050 -1.4025 -1.5427  0.6383
  503SOL    HW2 2011   1.104   2.816   2.126  3.1525  1.0688 -1.7625
  503SOL     MW 2012   1.128   2.731   2.118  0.1740  0.2081  0.0670
  504SOL     OW 2013   0.051   2.705   2.113  0.6706 -0.2180 -0.1918
  504SOL    HW1 2014   0.086   2.617   2.125  2.4066  0.8774 -0.7634
  504SOL    HW2 2015  -0.024   2.700   2.060  0.3028  0.1236  1.1202
  504SOL     MW 2016   0.046   2.693   2.108  0.8511 -0.0284 -0.0941
  505SOL     OW 2017   1.762   2.700   2.840 -0.1597  0.6214 -0.2844
  505SOL    HW1 2018   1.799   2.709   2.750  0.8181  2.2981  0.0349
  505SOL    HW2 2019   1.680   2.760   2.845 -2.1248  2.1003 -1.9964
  505SOL     MW 2020   1.756   2.709   2.829 -0.2900  1.0377 -0.4682
  506SOL     OW 2021   1.585   3.077   2.849 -0.3931 -0.1558  0.1871
  506SOL    HW1 2022   1.638   3.051   2.926 -0.8302  0.8484 -0.5069
  506SOL    HW2 2023   1.641   3.064   2.768  1.3873  1.4875  0.3365
  506SOL     MW 2024   1.599   3.072   2.848 -0.2158  0.1935  0.1153
  507SOL     OW 2025   0.906   2.761   2.849  0.0854  0.3601  0.6584
  507SOL    HW1 2026   0.897   2.858   2.826 -0.4933  1.5368  1.1403
  507SOL    HW2 2027   0.818   2.739   2.841  3.8981  1.3742 -1.0198
  507SOL     MW 2028   0.893   2.771   2.845  0.5121  0.6492  0.5006
  508SOL     OW 2029   1.150   2.100   2.490 -0.1584  0.0826  0.2211
  508SOL    HW1 2030   1.220   2.084   2.554  1.8349  2.7151 -0.1613
  508SOL    HW2 2031   1.108   2.173   2.523  3.0719 -3.5370 -2.3417
  508SOL     MW 2032   1.154   2.108   2.503  0.5308 -0.0477 -0.1675
  509SOL     OW 2033   0.699   2.577   2.717  0.1545 -0.3026 -0.0677
  509SOL    HW1 2034   0.653   2.520   2.659  0.9374 -0.6862 -1.6325
  509SOL    HW2 2035   0.640   2.578   2.796  0.2384 -2.1236  1.8293
  509SOL     MW 2036   0.685   2.570   2.720  0.2689 -0.5935 -0.0238
  510SOL     OW 2037   1.484   2.541   1.674 -0.2160 -0.7722 -0.0252
  510SOL    HW1 2038   1.523   2.622   1.650  0.5491  0.4092 -0.0708
  510SOL    HW2 2039   1.429   2.568   1.749 -1.3943  2.7148  1.8232
  510SOL     MW 2040   1.482   2.555   1.681 -0.2705 -0.1562  0.2127
  511SOL     OW 2041   0.421   2.649   2.449 -0.1025  0.1918 -0.2608
  511SOL    HW1 2042   0.495   2.577   2.448 -1.1506 -0.7362 -1.5998
  511SOL    HW2 2043   0.439   2.697   2.363  0.0572  1.9380 -3.2633
  511SOL     MW 2044   0.433   2.646   2.438 -0.2197  0.2997 -0.8336
  512SOL     OW 2045   1.051   2.023   2.828  0.5225  0.4191  0.2612
  512SOL    HW1 2046   0.962   2.050   2.854  1.5764  1.6440 -0.0496
  512SOL    HW2 2047   1.054   1.927   2.838 -0.2137  0.3069 -1.6394
  512SOL     MW 2048   1.039   2.014   2.833  0.5644  0.5659 -0.0306
  513SOL     OW 2049   1.560   2.475   2.303 -0.7465 -0.5397  0.3345
  513SOL    HW1 2050   1.641   2.488   2.251 -0.4490  1.8875 -2.7202
  513SOL    HW2 2051   1.602   2.456   2.385 -0.7964  0.1750  0.7583
  513SOL     MW 2052   1.576   2.474   2.307 -0.7138 -0.1252 -0.0126
  514SOL     OW 2053   0.291   2.450   2.645  0.0488  0.3122  0.3796
  514SOL    HW1 2054   0.321   2.524   2.594 -1.7029 -0.1421 -0.6539
  514SOL    HW2 2055   0.345   2.461   2.729  2.0729 -1.7237  0.2349
  514SOL     MW 2056   0.302   2.461   2.649  0.0847 -0.0164  0.2241
  515SOL     OW 2057   1.128   2.053   1.968 -0.1112  0.4622 -0.7132
  515SOL    HW1 2058   1.139   2.134   1.921 -0.9222  0.7191 -1.3410
  515SOL    HW2 2059   1.208   2.045   2.022 -0.0000  1.0439 -1.6764
  515SOL     MW 2060   1.140   2.063   1.969 -0.2035  0.5729 -0.9231
  516SOL     OW 2061   1.451   2.500   3.100 -0.0841 -0.2945 -1.2343
  516SOL    HW1 2062   1.505   2.464   3.030 -1.9469 -0.0429 -1.0532
  516SOL    HW2 2063   1.381   2.535   3.050  0.2181  0.6652 -2.6474
  516SOL     MW 2064   1.449   2.499   3.084 -0.2900 -0.1347 -1.3968
  517SOL     OW 2065   0.579   2.433   2.123 -0.3968  0.1446  0.1688
  517SOL    HW1 2066   0.546   2.516   2.085  0.8231  0.3420 -0.8328
  517SOL    HW2 2067   0.507   2.365   2.095  1.7876  3.1876 -2.0153
  517SOL     MW 2068   0.565   2.435   2.114  0.0524  0.5721 -0.2515
  518SOL     OW 2069   1.791   0.221   3.071  0.4205  0.4847  0.6408
  518SOL    HW1 2070   1.768   0.266   2.993 -0.6773 -2.4913 -1.5490
  518SOL    HW2 2071   1.746   0.252   3.150 -1.0138  0.2132 -1.7225
  518SOL     MW 2072   1.782   0.231   3.071  0.0864  0.0562  0.0401
  519SOL     OW 2073   0.716   2.380   1.760 -0.2713  0.4611 -0.0195
  519SOL    HW1 2074   0.756   2.298   1.743 -1.2724  0.2597 -1.1668
  519SOL    HW2 2075   0.660   2.373   1.680 -2.1974  1.5595 -0.0057
  519SOL     MW 2076   0.714   2.368   1.747 -0.6575  0.5795 -0.1691
  520SOL     OW 2077   1.277   2.108   2.944 -0.5713  0.1496 -0.2135
  520SOL    HW1 2078   1.197   2.061   2.905  0.7693 -1.0297 -1.2205
  520SOL    HW2 2079   1.308   2.069   3.030  1.8015  0.5825 -1.3676
  520SOL     MW 2080   1.271   2.097   2.950 -0.0814  0.0511 -0.4986
  521SOL     OW 2081   1.717   2.002   2.203  0.3755  0.0685  0.1693
  521SOL    HW1 2082   1.745   2.002   2.113  0.4495  1.3902  2.3699
  521SOL    HW2 2083   1.705   1.909   2.228 -3.3771  1.6804  2.1420
  521SOL     MW 2084   1.719   1.989   2.194 -0.1099  0.4556  0.7199
  522SOL     OW 2085   2.875   2.568   2.228 -0.1638  0.4179  0.3469
  522SOL    HW1 2086   2.963   2.534   2.249  2.2985  2.1416  0.7123
  522SOL    HW2 2087   2.840   2.614   2.308 -0.4551 -2.2692 -0.7017
  522SOL     MW 2088   2.882   2.570   2.241  0.1227  0.2908  0.2567
  523SOL     OW 2089   0.910   1.527   2.165 -0.6069 -1.0596 -0.3139
  523SOL    HW1 2090   0.878   1.564   2.081  0.6959 -0.5562  0.2868
  523SOL    HW2 2091   0.947   1.447   2.137 -2.0713  1.2069 -1.5405
  523SOL     MW 2092   0.911   1.522   2.150 -0.6282 -0.6941 -0.3964
  524SOL     OW 2093   0.676   2.398   2.943  0.0123 -0.4548 -0.7480
  524SOL    HW1 2094   0.689   2.423   2.855 -1.9017 -1.0763  2.2180
  524SOL    HW2 2095   0.720   2.312   2.947  2.3095  1.3869 -2.8905
  524SOL     MW 2096   0.684   2.390   2.932  0.0629 -0.2938 -0.6394
  525SOL     OW 2097   0.346   2.295   2.067  0.4585 -0.2635  0.5394
  525SOL    HW1 2098   0.324   2.246   2.144  0.6349  0.4279 -1.4478
  525SOL    HW2 2099   0.361   2.231   1.998  0.4487  3.0381  1.8132
  525SOL     MW 2100   0.345   2.280   2.068  0.4805  0.2634  0.4453
  526SOL     OW 2101   0.666   2.104   2.010  0.5364 -0.3057 -0.0725
  526SOL    HW1 2102   0.716   2.104   1.929 -2.3175  1.7979  0.0288
  526SOL    HW2 2103   0.699   2.168   2.071 -1.0230  0.1815  2.5445
  526SOL     MW 2104   0.677   2.113   2.007 -0.0459  0.0361  0.2862
  527SOL     OW 2105   1.435   2.031   2.062 -0.0197 -0.2060 -0.6128
  527SOL    HW1 2106   1.431   2.021   2.154 -1.1370 -0.5492 -2.0443
  527SOL    HW2 2107   1.438   1.938   2.033  1.0946 -0.4401  0.3018
  527SOL     MW 2108   1.435   2.017   2.070 -0.0201 -0.2822 -0.6810
  528SOL     OW 2109   0.640   2.911   2.897 -0.2639  0.5975 -0.1285
  528SOL    HW1 2110   0.666   2.999   2.923  3.2227 -1.4332 -1.5510
  528SOL    HW2 2111   0.608   2.921   2.808 -1.4353  2.5234  0.1261
  528SOL     MW 2112   0.639   2.924   2.889  0.0416  0.5837 -0.2826
  529SOL     OW 2113   1.059   2.301   1.845 -0.1507  0.9799  0.0420
  529SOL    HW1 2114   1.047   2.312   1.938 -2.8651 -1.0185  1.0369
  529SOL    HW2 2115   1.070   2.386   1.793 -1.6946 -1.3921 -1.8485
  529SOL     MW 2116   1.059   2.314   1.851 -0.7126  0.4033 -0.0762
  530SOL     OW 2117   1.192   2.405   3.015  0.1654  0.1578 -0.3144
  530SOL    HW1 2118   1.139   2.414   3.091  2.2720 -0.9224 -1.8858
  530SOL    HW2 2119   1.205   2.312   2.998 -0.3534 -0.2407 -0.6054
  530SOL     MW 2120   1.187   2.394   3.023  0.3749 -0.0373 -0.5601
  531SOL     OW 2121   0.906   1.873   2.574  0.2156  0.0019 -0.1310
  531SOL    HW1 2122   0.948   1.941   2.629  1.4621  1.6132  3.7406
  531SOL    HW2 2123   0.905   1.791   2.631  0.9601 -1.2756 -1.3129
  531SOL     MW 2124   0.911   1.871   2.589  0.4783  0.0459  0.2239
  532SOL     OW 2125   1.739   0.298   2.814  0.8759 -0.2558  0.0534
  532SOL    HW1 2126   1.764   0.214   2.776 -1.1578 -0.1853 -0.4042
  532SOL    HW2 2127   1.816   0.352   2.793  0.3433  1.4485 -1.3249
  532SOL     MW 2128   1.752   0.294   2.806  0.5373 -0.0216 -0.1889
  533SOL     OW 2129   1.881   2.628   3.068 -0.0420  0.3419 -0.0777
  533SOL    HW1 2130   1.839   2.563   3.134 -2.9225  1.5883  1.7109
  533SOL    HW2 2131   1.826   2.630   2.991  1.4285 -0.2402  1.9171
  533SOL     MW 2132   1.868   2.620   3.067 -0.2280  0.4295  0.4215
  534SOL     OW 2133   1.728   2.403   2.548  0.0216 -0.1767  0.2447
  534SOL    HW1 2134   1.655   2.356   2.593 -0.5757  0.1928  1.5357
  534SOL    HW2 2135   1.808   2.383   2.601 -0.1162 -2.0776 -0.0388
  534SOL     MW 2136   1.729   2.394   2.561 -0.0754 -0.3787  0.3776
  535SOL     OW 2137   1.913   2.392   1.870  0.0894 -0.6757  0.6545
  535SOL    HW1 2138   1.853   2.394   1.790 -1.9383  0.6062  0.2990
  535SOL    HW2 2139   1.989   2.442   1.844 -1.5277  1.4863  0.4585
  535SOL     MW 2140   1.915   2.399   1.856 -0.3915 -0.2213  0.5818
  536SOL     OW 2141   0.436   1.839   2.095 -0.1357 -0.3149  0.2895
  536SOL    HW1 2142   0.450   1.781   2.012 -1.9737 -0.2591 -1.8988
  536SOL    HW2 2143   0.504   1.905   2.095 -2.2806 -0.4685 -0.7012
  536SOL     MW 2144   0.447   1.840   2.084 -0.6612 -0.3278 -0.1300
  537SOL     OW 2145   1.094   0.226   2.844  0.1666 -0.1456 -0.1077
  537SOL    HW1 2146   1.023   0.268   2.894  2.7105 -1.7525 -0.0356
  537SOL    HW2 2147   1.116   0.271   2.765 -2.6560 -1.1666 -1.2510
  537SOL     MW 2148   1.088   0.238   2.840  0.1298 -0.4923 -0.2490
  538SOL     OW 2149   1.338   0.070   3.086  0.2736 -0.4927 -0.0869
  538SOL    HW1 2150   1.318   0.159   3.059 -1.7432  1.3419 -1.2266
  538SOL    HW2 2151   1.409   0.041   3.024  1.9798 -0.1968  2.1311
  538SOL     MW 2152   1.345   0.078   3.075  0.2326 -0.2116  0.0554
  539SOL     OW 2153   0.708   2.781   2.497  0.8042 -0.4234  0.9102
  539SOL    HW1 2154   0.787   2.812   2.546 -0.6784 -1.1372  1.7361
  539SOL    HW2 2155   0.688   2.699   2.542  1.6010 -0.2986  0.4663
  539SOL     MW 2156   0.716   2.775   2.509  0.7138 -0.5011  0.9606
  540SOL     OW 2157   0.400   2.496   2.892 -0.4658 -0.1811 -0.2401
  540SOL    HW1 2158   0.466   2.524   2.956 -0.4766  1.1069 -0.8293
  540SOL    HW2 2159   0.343   2.447   2.950  2.3985  0.4148 -0.8021
  540SOL     MW 2160   0.401   2.493   2.908 -0.0893  0.0675 -0.3920
  541SOL     OW 2161   0.196   2.922   2.201 -0.2412  0.3517  0.4769
  541SOL    HW1 2162   0.169   2.848   2.153  0.1116  0.8957  0.3213
  541SOL    HW2 2163   0.216   2.899   2.291  0.3551  0.6196  2.6567
  541SOL     MW 2164   0.195   2.909   2.207 -0.1160  0.4589  0.7440
  542SOL     OW 2165   1.046   2.304   2.658  0.4128  0.2532  0.0687
  542SOL    HW1 2166   1.065   2.243   2.726 -1.7632  0.2395 -0.5866
  542SOL    HW2 2167   1.060   2.392   2.701  1.2728  0.7345  1.3703
  542SOL     MW 2168   1.050   2.307   2.673  0.2391  0.3149  0.1540
  543SOL     OW 2169   1.616   2.438   2.900  0.5021 -0.0209  0.5714
  543SOL    HW1 2170   1.574   2.392   2.827  0.1747  2.0947 -2.9747
  543SOL    HW2 2171   1.664   2.515   2.872  0.2397 -1.1259  0.0569
  543SOL     MW 2172   1.617   2.442   2.887  0.4243  0.1124  0.0356
  544SOL     OW 2173   0.711   0.231   2.720 -0.1540 -0.0181  0.0058
  544SOL    HW1 2174   0.619   0.261   2.720 -1.1290  1.1360 -2.2974
  544SOL    HW2 2175   0.731   0.177   2.642 -1.1006  1.0990 -3.0187
  544SOL     MW 2176   0.701   0.228   2.710 -0.4076  0.2816 -0.6971
  545SOL     OW 2177   1.547   2.169   2.358 -0.3067 -0.1129 -0.3102
  545SOL    HW1 2178   1.518   2.253   2.319 -2.8787 -2.0687  2.7317
  545SOL    HW2 2179   1.613   2.117   2.299  1.5573  0.5661  1.8347
  545SOL     MW 2180   1.552   2.173   2.345 -0.4001 -0.2814  0.3741
  546SOL     OW 2181   2.975   1.996   0.123 -0.4612 -0.2650 -0.0417
  546SOL    HW1 2182   2.956   2.080   0.075 -1.4953  0.0189 -2.6149
  546SOL    HW2 2183   3.062   1.975   0.086 -0.5605  0.3102  0.2967
  546SOL     MW 2184   2.984   2.005   0.112 -0.6108 -0.1517 -0.3365
  547SOL     OW 2185   0.222   0.050   0.049 -1.2212  0.3614  0.1867
  547SOL    HW1 2186   0.298   0.057  -0.019  2.0474  1.1797 -1.0692
  547SOL    HW2 2187   0.143   0.002   0.016 -0.6202  0.4621 -2.5413
  547SOL     MW 2188   0.222   0.045   0.036 -0.7106  0.4826 -0.3389
  548SOL     OW 2189   0.302   2.515   0.278  0.2189  0.7367  0.0953
  548SOL    HW1 2190   0.324   2.552   0.197 -1.4713 -1.4132  3.2710
  548SOL    HW2 2191   0.209   2.488   0.276 -0.2638 -1.2476  1.2738
  548SOL     MW 2192   0.293   2.517   0.267 -0.0678  0.1913  0.6698
  549SOL     OW 2193   0.796   1.875   2.121 -0.1553  0.2487 -0.0414
  549SOL    HW1 2194   0.740   1.950   2.084  0.4033  2.4955 -0.9544
  549SOL    HW2 2195   0.777   1.873   2.215 -1.1462 -0.0919 -0.4923
  549SOL     MW 2196   0.787   1.885   2.128 -0.2123  0.5002 -0.2213
  550SOL     OW 2197   1.784   1.738   2.547 -0.0734  0.0668 -0.0216
  550SOL    HW1 2198   1.814   1.736   2.455  0.8879  1.1763  0.5862
  550SOL    HW2 2199   1.783   1.831   2.581  0.2992 -0.2962 -1.9368
  550SOL     MW 2200   1.788   1.750   2.539  0.1026  0.1653 -0.1941
  551SOL     OW 2201   0.902   2.281   0.215  0.7395  0.1766  0.5200
  551SOL    HW1 2202   0.997   2.284   0.200  1.4009  1.9115  2.2801
  551SOL    HW2 2203   0.860   2.194   0.196  0.5699  1.5110  2.3879
  551SOL     MW 2204   0.909   2.270   0.211  0.8044  0.5815  0.9987
  552SOL     OW 2205   1.763   1.758   2.261  0.0618  0.4764 -0.3707
  552SOL    HW1 2206   1.666   1.753   2.271 -2.8699  1.0761  2.5009
  552SOL    HW2 2207   1.791   1.685   2.197  2.4149  4.3043 -0.6573
  552SOL     MW 2208   1.754   1.747   2.254 -0.0145  1.0606 -0.0296
  553SOL     OW 2209   1.279   2.322   1.566 -0.2885 -0.5013  0.2739
  553SOL    HW1 2210   1.304   2.232   1.561  2.5414  1.4101  2.0649
  553SOL    HW2 2211   1.348   2.371   1.518 -0.3650  1.1537  3.9481
  553SOL     MW 2212   1.292   2.316   1.559  0.0748 -0.0307  0.9950
  554SOL     OW 2213   0.538   2.936   2.642  0.0849  0.1673  0.4702
  554SOL    HW1 2214   0.516   3.023   2.592  2.1451  0.0949 -1.2753
  554SOL    HW2 2215   0.568   2.870   2.577  0.0070  2.2060  0.4478
  554SOL     MW 2216   0.539   2.939   2.627  0.3464  0.4268  0.2369
  555SOL     OW 2217   0.611   2.453   2.480  0.1118 -0.2102  0.3278
  555SOL    HW1 2218   0.572   2.364   2.502 -0.2924 -1.6032  2.3008
  555SOL    HW2 2219   0.702   2.453   2.487 -3.6059 -1.1679  2.6052
  555SOL     MW 2220   0.618   2.442   2.484 -0.4321 -0.5204  0.8886
  556SOL     OW 2221   0.963   1.850   0.082 -0.2508 -0.4821  0.3144
  556SOL    HW1 2222   1.005   1.823   0.004  1.2862  0.3659  0.3266
  556SOL    HW2 2223   1.031   1.852   0.148  1.7627 -2.0238 -0.5474
  556SOL     MW 2224   0.977   1.847   0.081  0.2176 -0.5736  0.2023
  557SOL     OW 2225   0.974   2.657   0.489  0.4311  0.4412 -0.4988
  557SOL    HW1 2226   1.045   2.609   0.451  0.2041  3.2867  0.7119
  557SOL    HW2 2227   0.958   2.729   0.436  1.7466 -0.6063  4.0128
  557SOL     MW 2228   0.981   2.660   0.477  0.5748  0.6784  0.2562
  558SOL     OW 2229   0.214   2.327   3.005  0.4245 -0.0953  0.1164
  558SOL    HW1 2230   0.144   2.296   2.949 -0.6794  0.4963  2.2057
  558SOL    HW2 2231   0.177   2.359   3.086 -3.8619 -2.4393 -0.4419
  558SOL     MW 2232   0.200   2.328   3.009 -0.2867 -0.3266  0.3184
  559SOL     OW 2233   1.073   2.335   2.125  0.0735 -0.7360  0.0276
  559SOL    HW1 2234   1.125   2.370   2.199  1.3094  1.9215  0.3286
  559SOL    HW2 2235   1.042   2.248   2.149  0.0040 -0.0054  2.3065
  559SOL     MW 2236   1.076   2.328   2.138  0.2274 -0.2890  0.3680
  560SOL     OW 2237   1.976   2.891   0.015  0.0160  0.0383  0.0143
  560SOL    HW1 2238   2.043   2.920  -0.044 -1.6160 -3.4879  0.3504
  560SOL    HW2 2239   1.956   2.796  -0.002 -1.4490 -1.1095 -1.5870
  560SOL     MW 2240   1.982   2.882   0.005 -0.3926 -0.5784 -0.1526
  561SOL     OW 2241   0.355   2.126   0.047 -0.4349 -0.1200  0.0057
  561SOL    HW1 2242   0.319   2.164  -0.033 -0.3839 -1.3363 -1.6543
  561SOL    HW2 2243   0.396   2.198   0.100 -1.5201  1.3138  1.1329
  561SOL     MW 2244   0.356   2.141   0.043 -0.5713 -0.0913 -0.0646
  562SOL     OW 2245   0.697   2.235   2.281  0.4324  0.2747  0.5452
  562SOL    HW1 2246   0.673   2.326   2.301 -1.5143  1.5699 -0.1500
  562SOL    HW2 2247   0.792   2.232   2.272 -2.4810  0.1197  2.3152
  562SOL     MW 2248   0.706   2.246   2.282 -0.2089  0.4252  0.6870
  563SOL     OW 2249   1.250   0.332   0.574 -0.4051  0.6278  0.7990
  563SOL    HW1 2250   1.200   0.267   0.523  0.6138  1.6428 -1.1139
  563SOL    HW2 2251   1.225   0.328   0.666  1.8973  0.3212 -1.4165
  563SOL     MW 2252   1.240   0.323   0.579  0.0331  0.7213  0.2543
  564SOL     OW 2253   1.165   2.572   2.356 -0.2983  0.8521  0.3264
  564SOL    HW1 2254   1.149   2.630   2.283  0.9295  0.3985  2.4440
  564SOL    HW2 2255   1.165   2.630   2.428  0.1933  1.9706  2.8745
  564SOL     MW 2256   1.163   2.587   2.356 -0.0714  0.9398  0.9420
  565SOL     OW 2257   2.794   2.766   2.651 -0.5573 -0.3549  0.2256
  565SOL    HW1 2258   2.794   2.856   2.622 -1.9787  0.4892 -0.5306
  565SOL    HW2 2259   2.761   2.712   2.575 -2.3649 -1.0331 -1.3677
  565SOL     MW 2260   2.790   2.771   2.637 -0.9833 -0.3330 -0.0844
  566SOL     OW 2261   2.124   1.822   2.418  0.0432  0.0237  0.3117
  566SOL    HW1 2262   2.146   1.764   2.344  1.3865  2.0631 -0.9255
  566SOL    HW2 2263   2.190   1.900   2.406  1.2163 -0.3771  2.1297
  566SOL     MW 2264   2.136   1.825   2.406  0.3752  0.2399  0.3884
  567SOL     OW 2265   1.124   2.964   3.054 -0.6536  0.8675  0.4507
  567SOL    HW1 2266   1.187   3.014   3.110  0.5770 -1.1824  1.9909
  567SOL    HW2 2267   1.163   2.879   3.044 -1.2954 -1.8423  3.3562
  567SOL     MW 2268   1.137   2.959   3.060 -0.5759  0.2395  1.0373
  568SOL     OW 2269   1.624   2.074   2.871  0.0478  0.0115 -0.1935
  568SOL    HW1 2270   1.667   2.147   2.919 -1.5907 -0.0725  0.3051
  568SOL    HW2 2271   1.691   2.027   2.827 -0.8732 -0.7208  0.5808
  568SOL     MW 2272   1.639   2.077   2.871 -0.2899 -0.0962 -0.0255
  569SOL     OW 2273   0.166   2.287   2.485 -0.0946 -0.0017  0.5951
  569SOL    HW1 2274   0.088   2.315   2.434 -0.1734 -0.4468  0.9624
  569SOL    HW2 2275   0.195   2.356   2.543  0.5113 -0.1949  1.5657
  569SOL     MW 2276   0.160   2.300   2.486 -0.0251 -0.0859  0.7716
  570SOL     OW 2277   1.499   0.360   0.501  0.2168 -0.3659 -0.0429
  570SOL    HW1 2278   1.399   0.352   0.519 -0.6423 -0.1582  1.2471
  570SOL    HW2 2279   1.542   0.356   0.590 -2.2129  1.5587  2.3800
  570SOL     MW 2280   1.492   0.358   0.515 -0.2171 -0.0846  0.4470
  571SOL     OW 2281   1.383   2.416   2.028 -0.8586 -0.1453  0.6777
  571SOL    HW1 2282   1.427   2.432   2.110  0.0532  0.1913 -0.1675
  571SOL    HW2 2283   1.446   2.354   1.987  0.5499 -3.0292 -1.2494
  571SOL     MW 2284   1.397   2.410   2.034 -0.5524 -0.4814  0.3119
  572SOL     OW 2285   1.059   2.598   0.109  0.2513  0.6153 -0.3087
  572SOL    HW1 2286   1.061   2.685   0.075  0.6990  0.4245 -1.1312
  572SOL    HW2 2287   0.964   2.575   0.119 -3.5522 -0.7204  1.2217
  572SOL     MW 2288   1.047   2.606   0.106 -0.1914  0.4139 -0.2153
  573SOL     OW 2289   1.186   2.293   0.213 -0.2060 -0.1716  0.3908
  573SOL    HW1 2290   1.279   2.298   0.186  0.7346 -0.6592  1.0708
  573SOL    HW2 2291   1.179   2.375   0.263 -1.7059  1.8267  0.3941
  573SOL     MW 2292   1.197   2.304   0.216 -0.2798  0.0277  0.4810
  574SOL     OW 2293   1.173   2.533   0.351  0.2928  0.2354 -0.0464
  574SOL    HW1 2294   1.258   2.578   0.372  0.0289 -0.8841 -1.6713
  574SOL    HW2 2295   1.139   2.578   0.272 -2.4286 -2.5943 -3.8759
  574SOL     MW 2296   1.179   2.545   0.343 -0.1011 -0.2857 -0.7661
  575SOL     OW 2297   3.046   2.197   1.810 -0.3892  0.6196 -0.0906
  575SOL    HW1 2298   3.068   2.123   1.752 -1.9049 -1.2467 -0.7572
  575SOL    HW2 2299   3.125   2.248   1.835 -2.2138 -1.3185  1.5502
  575SOL     MW 2300   3.059   2.194   1.805 -0.8299  0.1176  0.0379
  576SOL     OW 2301   2.807   1.811   2.042  0.0621 -0.0254 -0.6153
  576SOL    HW1 2302   2.824   1.897   2.004 -1.3807  1.2998 -0.5569
  576SOL    HW2 2303   2.706   1.793   2.046  0.0289  2.1232  0.2573
  576SOL     MW 2304   2.796   1.820   2.037 -0.1327  0.4329 -0.4925
  577SOL     OW 2305   2.051   0.192   0.067  0.0643  0.3119  0.4562
  577SOL    HW1 2306   1.959   0.200   0.025 -0.7168 -0.8484 -0.1547
  577SOL    HW2 2307   2.020   0.141   0.148  0.4836 -1.4957  1.3566
  577SOL     MW 2308   2.035   0.186   0.072  0.0166 -0.0797  0.4944
  578SOL     OW 2309   1.932   2.041   2.352 -0.5791  0.4820  0.0233
  578SOL    HW1 2310   1.876   2.023   2.274  0.7577 -0.7717  2.3000
  578SOL    HW2 2311   1.965   1.947   2.358 -2.4601 -1.9626  1.0182
  578SOL     MW 2312   1.929   2.026   2.343 -0.6509 -0.0059  0.4550
  579SOL     OW 2313   0.940   2.431   2.436  0.7837  0.5968  0.0057
  579SOL    HW1 2314   0.969   2.388   2.514 -1.3788 -1.8655  1.5766
  579SOL    HW2 2315   1.016   2.472   2.399 -0.9785 -0.9611 -0.9371
  579SOL     MW 2316   0.954   2.431   2.442  0.2659  0.0664  0.0886
  580SOL     OW 2317   0.908   2.832   0.031 -0.1632 -0.6556  0.3334
  580SOL    HW1 2318   0.980   2.894   0.009 -1.2109  0.9448 -0.0275
  580SOL    HW2 2319   0.901   2.783  -0.050 -1.9542  0.2329 -1.9067
  580SOL     MW 2320   0.916   2.834   0.017 -0.5377 -0.3272 -0.0098
  581SOL     OW 2321   1.131   2.531   1.681  0.1598 -0.1660  0.2364
  581SOL    HW1 2322   1.185   2.573   1.747 -2.5065 -2.6053 -0.8271
  581SOL    HW2 2323   1.197   2.463   1.642  5.2905 -0.4910 -1.4033
  581SOL     MW 2324   1.147   2.527   1.685  0.4849 -0.5307 -0.1203
  582SOL     OW 2325   0.044   2.783   2.668  0.4441 -0.3970  0.9010
  582SOL    HW1 2326  -0.032   2.833   2.700 -3.0853 -1.2565 -0.0943
  582SOL    HW2 2327   0.117   2.848   2.664 -1.6075  1.5443  1.4433
  582SOL     MW 2328   0.043   2.798   2.671 -0.2922 -0.2542  0.8413
  583SOL     OW 2329   1.989   2.410   2.661  0.0469  0.3178 -0.1016
  583SOL    HW1 2330   2.045   2.443   2.594 -0.5246 -1.0656 -0.2877
  583SOL    HW2 2331   2.004   2.318   2.658  0.3155  2.0516  3.5506
  583SOL     MW 2332   1.998   2.402   2.652  0.0070  0.3640  0.3558
  584SOL     OW 2333   0.117   1.901   2.213  0.0549  0.4187 -0.6540
  584SOL    HW1 2334   0.151   1.856   2.295 -2.3769  2.3578  1.4736
  584SOL    HW2 2335   0.146   1.993   2.223 -1.5804  0.8941 -0.7399
  584SOL     MW 2336   0.125   1.907   2.226 -0.4817  0.7373 -0.3847
  585SOL     OW 2337   1.571   2.557   0.228  0.1653 -0.4575  0.2427
  585SOL    HW1 2338   1.530   2.536   0.142  1.0791 -2.3263 -2.8151
  585SOL    HW2 2339   1.500   2.578   0.296 -0.7064  1.3962  0.5721
  585SOL     MW 2340   1.557   2.557   0.226  0.1708 -0.4595 -0.1173
  586SOL     OW 2341   1.392   2.858   2.578  0.5771 -0.3256  0.2136
  586SOL    HW1 2342   1.416   2.822   2.493 -2.4566 -0.9422  0.4600
  586SOL    HW2 2343   1.346   2.946   2.562  0.1739  3.2983  0.7395
  586SOL     MW 2344   1.389   2.865   2.565  0.1236  0.0712  0.3155
  587SOL     OW 2345   1.365   1.527   2.156  0.2521 -0.3244 -0.2814
  587SOL    HW1 2346   1.309   1.484   2.229  1.2248 -1.4485  0.9064
  587SOL    HW2 2347   1.368   1.464   2.081  0.7978 -1.1746 -0.8458
  587SOL     MW 2348   1.358   1.513   2.155  0.4525 -0.5849 -0.1992
  588SOL     OW 2349   1.348   2.056   2.683  0.0699  0.0817  0.4979
  588SOL    HW1 2350   1.360   1.958   2.673  0.0756  1.5755 -0.7895
  588SOL    HW2 2351   1.331   2.073   2.775  2.8995 -2.6661  0.2339
  588SOL     MW 2352   1.348   2.045   2.694  0.4440 -0.0837  0.2932
  589SOL     OW 2353   1.395   2.022   0.107  0.3417  0.0325 -0.9034
  589SOL    HW1 2354   1.393   2.113   0.120 -0.1002 -0.1382  0.2629
  589SOL    HW2 2355   1.323   1.975   0.150  1.3489  0.6833 -1.2863
  589SOL     MW 2356   1.386   2.027   0.114  0.4163  0.0958 -0.8000
  590SOL     OW 2357   0.511   2.784   2.209  0.7503 -0.2758 -0.0576
  590SOL    HW1 2358   0.484   2.732   2.132 -2.3167  3.4967  0.5317
  590SOL    HW2 2359   0.607   2.787   2.213 -1.1660  1.2592  0.9757
  590SOL     MW 2360   0.520   2.778   2.200  0.0928  0.4245  0.1565
  591SOL     OW 2361   2.242   0.683   0.028  0.4059  0.2842  0.3752
  591SOL    HW1 2362   2.170   0.739  -0.018  2.4345 -1.3162 -1.4166
  591SOL    HW2 2363   2.300   0.668  -0.049 -1.7385  2.3838  1.5800
  591SOL     MW 2364   2.240   0.689   0.012  0.3906  0.3500  0.2978
  592SOL     OW 2365   1.734   2.936   0.777  0.1799  0.1317 -0.1519
  592SOL    HW1 2366   1.750   3.021   0.730 -1.7002 -1.0300 -0.5226
  592SOL    HW2 2367   1.813   2.885   0.788  0.5483 -0.6027  0.1574
  592SOL     MW 2368   1.746   2.940   0.772 -0.0196 -0.1184 -0.1600
  593SOL     OW 2369   1.958   0.629   0.860 -0.4583  0.4330 -0.3528
  593SOL    HW1 2370   1.884   0.616   0.802 -0.7644  0.3099  0.5544
  593SOL    HW2 2371   2.021   0.568   0.822  0.0501 -0.9647  1.1607
  593SOL     MW 2372   1.957   0.620   0.847 -0.4316  0.2324 -0.0334
  594SOL     OW 2373   2.778   1.150   1.371  0.1192 -0.4299 -0.1042
  594SOL    HW1 2374   2.878   1.151   1.378  3.4836 -0.9304  0.1586
  594SOL    HW2 2375   2.763   1.088   1.299 -1.7429  0.9970 -1.3386
  594SOL     MW 2376   2.789   1.142   1.363  0.3174 -0.3076 -0.2324
  595SOL     OW 2377   0.483   0.979   0.808  0.1003 -0.4703  0.1520
  595SOL    HW1 2378   0.514   1.046   0.739  0.7267  1.2014 -0.3608
  595SOL    HW2 2379   0.484   1.017   0.893 -1.6455  0.8829  1.2602
  595SOL     MW 2380   0.487   0.993   0.810 -0.0474 -0.0712  0.2305
  596SOL     OW 2381   2.463   1.325   0.569 -0.7377  0.2691 -0.0667
  596SOL    HW1 2382   2.522   1.390   0.531 -0.7633 -1.1356  1.2212
  596SOL    HW2 2383   2.511   1.299   0.652 -4.4575  1.2450 -0.8636
  596SOL     MW 2384   2.477   1.330   0.575 -1.2319  0.2125 -0.0019
  597SOL     OW 2385   2.184   0.682   1.632  0.2779 -0.2114  0.2468
  597SOL    HW1 2386   2.191   0.608   1.690  0.7445 -1.5152 -2.5902
  597SOL    HW2 2387   2.131   0.646   1.560  0.2700 -3.0089 -1.2886
  597SOL     MW 2388   2.178   0.667   1.630  0.3384 -0.7525 -0.3301
  598SOL     OW 2389   2.547   1.026   2.797 -0.0600 -0.0920  0.7871
  598SOL    HW1 2390   2.583   1.010   2.711  1.9937  0.2754  0.2973
  598SOL    HW2 2391   2.625   1.046   2.849  0.8542  0.9563  1.6153
  598SOL     MW 2392   2.562   1.026   2.792  0.3316  0.0948  0.8318
  599SOL     OW 2393   2.982   0.406   2.085 -0.0565 -0.1366 -0.2142
  599SOL    HW1 2394   3.024   0.455   2.159 -0.8192  3.6872 -1.4227
  599SOL    HW2 2395   2.987   0.472   2.013  0.4303 -0.3690  0.8672
  599SOL     MW 2396   2.988   0.421   2.085 -0.0929  0.3372 -0.2310
  600SOL     OW 2397   1.834   1.636   0.906 -0.1661  0.1807 -0.1561
  600SOL    HW1 2398   1.881   1.684   0.977 -0.6435  1.3572  0.6094
  600SOL    HW2 2399   1.761   1.699   0.893 -2.5007 -0.2542  0.6082
  600SOL     MW 2400   1.831   1.651   0.913 -0.5371  0.2785  0.0457
  601SOL     OW 2401   2.533   0.778   0.823  0.3988 -0.1608 -0.0742
  601SOL    HW1 2402   2.525   0.774   0.920 -0.5978 -0.8932 -2.1809
  601SOL    HW2 2403   2.457   0.730   0.797  0.1526 -1.0885  0.6222
  601SOL     MW 2404   2.522   0.771   0.832  0.2348 -0.3798 -0.2603
  602SOL     OW 2405   2.279   1.954   0.746  0.4493 -0.7558 -0.1971
  602SOL    HW1 2406   2.262   1.858   0.726 -1.8363 -1.2156  0.4192
  602SOL    HW2 2407   2.225   2.009   0.688  2.6218  0.5402 -0.4422
  602SOL     MW 2408   2.270   1.949   0.735  0.4344 -0.6455 -0.1481
  603SOL     OW 2409   3.080   1.398   1.944 -0.9380  0.1195  0.4203
  603SOL    HW1 2410   3.159   1.448   1.973  1.8824 -0.8253  1.6783
  603SOL    HW2 2411   3.086   1.306   1.981 -1.5670  0.2063  3.0924
  603SOL     MW 2412   3.091   1.393   1.953 -0.6489  0.0063  0.9389
  604SOL     OW 2413   2.080   1.478   0.474 -0.2519 -0.4846 -0.0271
  604SOL    HW1 2414   2.130   1.403   0.521 -1.8317 -2.5149  0.8246
  604SOL    HW2 2415   2.012   1.510   0.534  3.6162 -0.3229 -1.1788
  604SOL     MW 2416   2.078   1.473   0.488  0.0500 -0.7311 -0.0667
  605SOL     OW 2417   2.527   1.492   0.898  0.6384 -0.2559  0.0395
  605SOL    HW1 2418   2.506   1.552   0.828 -3.5444 -4.6819  1.8358
  605SOL    HW2 2419   2.556   1.412   0.853 -2.0165  0.3393  0.4092
  605SOL     MW 2420   2.528   1.489   0.883 -0.2638 -0.7613  0.3253
  606SOL     OW 2421   2.542   1.750   2.035 -0.1630  0.5485 -0.2291
  606SOL    HW1 2422   2.454   1.771   2.011  0.8898  0.0927 -1.2294
  606SOL    HW2 2423   2.569   1.688   1.969  0.4971  1.1573  1.9091
  606SOL     MW 2424   2.534   1.745   2.023  0.0630  0.5687 -0.0790
  607SOL     OW 2425   2.392   1.033   3.026  0.0916 -0.9085  0.4192
  607SOL    HW1 2426   2.451   1.015   2.953 -2.4955  0.0150 -1.6935
  607SOL    HW2 2427   2.434   1.003   3.111 -0.6779  0.9110  1.9748
  607SOL     MW 2428   2.406   1.027   3.027 -0.3513 -0.5466  0.3457
  608SOL     OW 2429   1.850   0.286   0.560  0.3434  0.0126  0.1173
  608SOL    HW1 2430   1.885   0.330   0.480 -0.7461 -1.3373  0.5600
  608SOL    HW2 2431   1.794   0.210   0.529 -2.1924 -3.1224 -0.3992
  608SOL     MW 2432   1.847   0.282   0.546 -0.1349 -0.5792  0.1076
  609SOL     OW 2433   2.113   1.959   3.069  0.3416 -0.3390 -0.1251
  609SOL    HW1 2434   2.054   1.892   3.037 -0.7084 -1.9858 -2.5789
  609SOL    HW2 2435   2.129   1.936   3.165  1.1266  0.0262  1.6622
  609SOL     MW 2436   2.108   1.947   3.078  0.3067 -0.5081 -0.2130
  610SOL     OW 2437   1.833   0.939   1.228 -0.1264 -0.5577 -0.0999
  610SOL    HW1 2438   1.848   0.857   1.186  1.6098  1.9684 -0.3934
  610SOL    HW2 2439   1.736   0.944   1.220  0.7995 -0.9495  1.7136
  610SOL     MW 2440   1.822   0.929   1.221  0.2248 -0.2761  0.1007
  611SOL     OW 2441   2.510   1.649   0.679 -0.6527  0.0646  0.1716
  611SOL    HW1 2442   2.559   1.721   0.639 -0.0291  1.6977 -0.8769
  611SOL    HW2 2443   2.423   1.661   0.647  1.1801 -1.8272 -1.0823
  611SOL     MW 2444   2.505   1.660   0.669 -0.3286  0.0305 -0.1322
  612SOL     OW 2445   2.826   2.894   0.376 -0.3512  0.0738  0.2363
  612SOL    HW1 2446   2.868   2.930   0.453  1.5462  0.6221  0.0572
  612SOL    HW2 2447   2.906   2.889   0.322  1.6532  1.1251 -0.7068
  612SOL     MW 2448   2.842   2.898   0.379  0.1636  0.2849  0.0883
  613SOL     OW 2449   1.446   1.055   0.929  0.3103 -0.0948  0.1958
  613SOL    HW1 2450   1.438   1.151   0.929 -0.4883  0.8912  0.4510
  613SOL    HW2 2451   1.505   1.033   1.002 -0.2771 -1.6283 -2.0454
  613SOL     MW 2452   1.453   1.065   0.939  0.1274 -0.1671 -0.0662
  614SOL     OW 2453   1.985   0.510   1.505  0.3595 -1.0675 -0.1183
  614SOL    HW1 2454   1.956   0.441   1.571  2.8895  2.5334  0.7173
  614SOL    HW2 2455   1.949   0.496   1.414 -2.6518  0.0602 -0.8711
  614SOL     MW 2456   1.976   0.499   1.502  0.2960 -0.4436 -0.1074
  615SOL     OW 2457   2.326   0.746   0.287  0.4574 -0.6730  0.2094
  615SOL    HW1 2458   2.397   0.680   0.287  1.9775  1.4797 -1.0237
  615SOL    HW2 2459   2.285   0.736   0.194 -0.9792 -2.3915 -1.8999
  615SOL     MW 2460   2.330   0.736   0.275  0.4685 -0.6157 -0.2316
  616SOL     OW 2461   2.518   0.449   1.671 -0.0623  0.2425 -0.3614
  616SOL    HW1 2462   2.568   0.374   1.633 -3.0763 -0.6319  0.4421
  616SOL    HW2 2463   2.478   0.487   1.591  1.8171  0.6087  0.0889
  616SOL     MW 2464   2.519   0.444   1.655 -0.2120  0.1755 -0.1960
  617SOL     OW 2465   2.840   0.598   1.683  0.5957  0.1835  0.6088
  617SOL    HW1 2466   2.755   0.614   1.715  0.5515 -1.6778 -0.0874
  617SOL    HW2 2467   2.853   0.509   1.703  1.1178  3.6838  0.7791
  617SOL     MW 2468   2.831   0.589   1.690  0.6587  0.3998  0.5394
  618SOL     OW 2469   2.706   0.382   1.985  0.2836  0.5863  0.4774
  618SOL    HW1 2470   2.698   0.474   1.972  1.0454 -0.7109  2.1036
  618SOL    HW2 2471   2.775   0.379   2.049  1.6831 -3.2808 -0.0414
  618SOL     MW 2472   2.714   0.393   1.992  0.5687 -0.0951  0.6235
  619SOL     OW 2473   2.693   0.713   0.050 -0.6265 -0.0590 -0.3123
  619SOL    HW1 2474   2.706   0.805   0.052  0.0036 -1.5379  1.9120
  619SOL    HW2 2475   2.635   0.689   0.127 -0.3069 -0.1153  2.6572
  619SOL     MW 2476   2.687   0.722   0.061 -0.5012 -0.2615  0.3730
  620SOL     OW 2477   2.252   1.067   0.914  0.1893  0.3437  0.2373
  620SOL    HW1 2478   2.323   1.044   0.857 -1.4695 -0.9264  0.0564
  620SOL    HW2 2479   2.169   1.033   0.877 -0.5248  1.5121  3.9041
  620SOL     MW 2480   2.251   1.060   0.902 -0.1238  0.3303  0.6972
  621SOL     OW 2481   1.563   2.235   1.935 -0.2429  0.2130 -0.0810
  621SOL    HW1 2482   1.500   2.165   1.962 -1.4520 -0.2725  3.1229
  621SOL    HW2 2483   1.650   2.200   1.960  1.5287  0.2520 -0.3054
  621SOL     MW 2484   1.566   2.221   1.941 -0.1687  0.1541  0.3121
  622SOL     OW 2485   2.656   0.222   0.251 -0.0430  0.3642  0.0697
  622SOL    HW1 2486   2.746   0.260   0.266  1.5614  0.7275  0.4756
  622SOL    HW2 2487   2.652   0.135   0.288 -0.8158  0.2603 -0.8388
  622SOL     MW 2488   2.667   0.216   0.258  0.0667  0.3985  0.0034
  623SOL     OW 2489   2.437   2.738   0.869 -0.4921 -0.0081 -0.3182
  623SOL    HW1 2490   2.487   2.813   0.849 -0.8052 -2.3653  2.4524
  623SOL    HW2 2491   2.394   2.748   0.958  2.0932 -0.9342 -1.2856
  623SOL     MW 2492   2.438   2.749   0.878 -0.1923 -0.4413 -0.0803
  624SOL     OW 2493   2.126   1.616   3.030  0.6943 -0.3701 -0.2193
  624SOL    HW1 2494   2.063   1.556   3.073 -2.9291 -0.3849  1.6784
  624SOL    HW2 2495   2.075   1.640   2.957  4.0408 -1.7383  2.1049
  624SOL     MW 2496   2.111   1.611   3.026  0.6578 -0.5526  0.3378
  625SOL     OW 2497   2.215   1.925   1.090 -0.3823  0.5524  0.3886
  625SOL    HW1 2498   2.296   1.898   1.132  0.3783 -1.0839 -0.3373
  625SOL    HW2 2499   2.245   1.952   1.005 -1.5050 -0.1986  0.7970
  625SOL     MW 2500   2.230   1.925   1.084 -0.4301  0.2374  0.3467
  626SOL     OW 2501   0.239   1.771   2.449 -0.0527  0.5595  0.1134
  626SOL    HW1 2502   0.194   1.702   2.501  1.1667 -0.1199  1.2037
  626SOL    HW2 2503   0.199   1.851   2.479  1.7325 -0.2609 -1.9594
  626SOL     MW 2504   0.228   1.772   2.460  0.3437  0.3616 -0.0162
  627SOL     OW 2505   2.533   0.759   2.557 -0.0769  0.3638 -0.1022
  627SOL    HW1 2506   2.461   0.820   2.554  0.4488  0.3935 -2.2649
  627SOL    HW2 2507   2.517   0.716   2.472  1.6962  0.3955  1.6123
  627SOL     MW 2508   2.522   0.761   2.545  0.2264  0.3719 -0.1613
  628SOL     OW 2509   2.239   1.364   1.310 -0.4147 -0.5749  0.2590
  628SOL    HW1 2510   2.195   1.283   1.287 -0.6434 -1.1820  1.9922
  628SOL    HW2 2511   2.326   1.356   1.266  3.1524 -2.8448 -0.3054
  628SOL     MW 2512   2.244   1.352   1.301  0.0257 -0.9545  0.4132
  629SOL     OW 2513   1.865   0.487   1.250 -0.0717 -0.4676  0.1749
  629SOL    HW1 2514   1.856   0.577   1.208 -0.7644  2.3512  0.3309
  629SOL    HW2 2515   1.780   0.443   1.240  2.2093 -2.8673 -0.3832
  629SOL     MW 2516   1.852   0.493   1.243  0.1379 -0.4123  0.1218
  630SOL     OW 2517   2.398   1.870   3.019  0.3746 -0.4560 -0.2614
  630SOL    HW1 2518   2.415   1.956   2.982 -1.1977 -0.8918  2.6085
  630SOL    HW2 2519   2.307   1.869   3.040 -0.2627  2.1087 -0.5172
  630SOL     MW 2520   2.388   1.881   3.017  0.0831 -0.1751  0.0835
  631SOL     OW 2521   2.003   1.683   1.558 -0.2628 -0.0008 -0.1553
  631SOL    HW1 2522   2.011   1.600   1.599 -0.8075 -2.6450  1.0735
  631SOL    HW2 2523   1.924   1.683   1.499  0.3507  0.6922  0.5032
  631SOL     MW 2524   1.994   1.672   1.555 -0.2537 -0.2582  0.0937
  632SOL     OW 2525   0.257   1.950   1.443  0.1580 -0.1966  0.3666
  632SOL    HW1 2526   0.183   1.958   1.513  3.2179  1.0372  0.6133
  632SOL    HW2 2527   0.305   1.879   1.478 -0.6197  1.6718 -2.2832
  632SOL     MW 2528   0.253   1.942   1.457  0.4591  0.2127  0.0496
  633SOL     OW 2529   2.522   0.547   0.281  0.5224 -0.4917  0.3976
  633SOL    HW1 2530   2.593   0.531   0.349  1.9201 -3.9757 -0.8954
  633SOL    HW2 2531   2.493   0.459   0.249  1.6650 -0.0745  0.4017
  633SOL     MW 2532   2.528   0.533   0.286  0.8576 -0.8963  0.2275
  634SOL     OW 2533   2.699   3.086   0.653  0.3427 -0.3063 -0.2872
  634SOL    HW1 2534   2.725   3.176   0.652  2.3648  0.5670 -0.2639
  634SOL    HW2 2535   2.654   3.070   0.573  0.1872 -0.2820 -0.2517
  634SOL     MW 2536   2.697   3.095   0.643  0.5890 -0.1879 -0.2794
  635SOL     OW 2537   2.582   0.151   1.822 -0.1241 -0.4147 -0.0018
  635SOL    HW1 2538   2.643   0.086   1.785  0.1053 -2.0709  0.7022
  635SOL    HW2 2539   2.629   0.236   1.852  2.0671  1.4072 -0.5576
  635SOL     MW 2540   2.596   0.154   1.821  0.1953 -0.3928  0.0177
  636SOL     OW 2541   2.782   1.583   0.862 -0.3642  0.0351  0.0370
  636SOL    HW1 2542   2.695   1.549   0.889 -0.1187  0.0203 -0.6546
  636SOL    HW2 2543   2.801   1.659   0.919  0.8441 -1.1416 -0.6172
  636SOL     MW 2544   2.773   1.589   0.873 -0.1724 -0.1221 -0.1405
  637SOL     OW 2545   2.894   1.512   0.604 -0.0956  0.2815  0.3263
  637SOL    HW1 2546   2.921   1.593   0.564  2.5012  1.1525  1.1120
  637SOL    HW2 2547   2.863   1.545   0.689 -0.1234 -1.1764 -0.9080
  637SOL     MW 2548   2.894   1.527   0.610  0.2433  0.2040  0.2671
  638SOL     OW 2549   2.714   0.523   0.512  0.2800  0.2081  0.2178
  638SOL    HW1 2550   2.800   0.535   0.466 -0.8100  1.2616 -0.9053
  638SOL    HW2 2551   2.735   0.511   0.604  0.3477 -0.8156  1.8474
  638SOL     MW 2552   2.728   0.523   0.518  0.1451  0.2121  0.2847
  639SOL     OW 2553   1.729   0.035   0.517 -0.0453 -0.0417 -0.2479
  639SOL    HW1 2554   1.635   0.045   0.521  2.4989 -2.3376 -2.4703
  639SOL    HW2 2555   1.736  -0.041   0.460 -0.3362 -1.3568 -1.6251
  639SOL     MW 2556   1.718   0.026   0.510  0.2520 -0.5181 -0.7228
  640SOL     OW 2557   0.304   1.343   0.083  0.2567 -0.5318 -0.6625
  640SOL    HW1 2558   0.347   1.310   0.003 -1.4242 -0.2601 -2.0414
  640SOL    HW2 2559   0.299   1.262   0.139 -0.5466  1.7374  2.6368
  640SOL     MW 2560   0.309   1.328   0.080 -0.0710 -0.1965 -0.4092
  641SOL     OW 2561   2.221   0.446   0.415 -0.1781 -0.4748 -0.1444
  641SOL    HW1 2562   2.244   0.405   0.326 -0.9491 -0.9529 -1.7964
  641SOL    HW2 2563   2.302   0.411   0.462  1.5410 -0.7431 -1.0104
  641SOL     MW 2564   2.235   0.436   0.409 -0.0530 -0.5733 -0.4766
  642SOL     OW 2565   0.077   0.001   0.485  0.2856 -0.2477  0.3745
  642SOL    HW1 2566   0.027   0.074   0.438  0.3538  0.6512 -0.7816
  642SOL    HW2 2567   0.003  -0.033   0.531 -3.3001  0.7032 -1.1264
  642SOL     MW 2568   0.061   0.006   0.485 -0.1785 -0.0037  0.0239
  643SOL     OW 2569   1.998   0.336   1.736 -0.0602 -0.2137  0.0045
  643SOL    HW1 2570   1.932   0.317   1.803  2.4846  0.3279 -1.2833
  643SOL    HW2 2571   1.989   0.259   1.678 -1.7010  1.3750 -1.6486
  643SOL     MW 2572   1.988   0.323   1.738  0.0590  0.0674 -0.3835
  644SOL     OW 2573   2.678   1.852   1.006  0.1061  0.0642 -0.3853
  644SOL    HW1 2574   2.640   1.786   1.070  3.3245 -1.1021  1.2104
  644SOL    HW2 2575   2.603   1.898   0.976 -0.0027 -1.1038 -1.5285
  644SOL     MW 2576   2.663   1.849   1.011  0.5164 -0.2438 -0.3256
  645SOL     OW 2577   2.814   0.823   0.725 -0.2057  0.2478  0.4555
  645SOL    HW1 2578   2.896   0.767   0.731  3.0701  1.0994 -1.2921
  645SOL    HW2 2579   2.736   0.771   0.738  1.6682  0.8608  1.2388
  645SOL     MW 2580   2.815   0.809   0.728  0.4738  0.4411  0.3282
  646SOL     OW 2581   0.086   2.286   0.871 -0.0503  0.2348  0.2396
  646SOL    HW1 2582   0.138   2.208   0.845 -0.7072  0.2681 -2.3848
  646SOL    HW2 2583   0.007   2.282   0.823 -0.0347  2.1398 -0.2189
  646SOL     MW 2584   0.082   2.275   0.862 -0.1349  0.4906 -0.1671
  647SOL     OW 2585   2.720   0.480   2.984 -0.1304 -0.0027 -0.1770
  647SOL    HW1 2586   2.662   0.451   3.054  2.4898  0.5909 -0.0364
  647SOL    HW2 2587   2.748   0.564   3.016 -1.0114  0.1443 -0.0266
  647SOL     MW 2588   2.716   0.487   2.997  0.0991  0.0950 -0.1386
  648SOL     OW 2589   2.242   0.737   1.090  0.8592  0.1701  0.4842
  648SOL    HW1 2590   2.203   0.650   1.107 -2.9130 -0.2663 -0.7429
  648SOL    HW2 2591   2.215   0.789   1.165 -0.0461 -0.5230 -2.5543
  648SOL     MW 2592   2.233   0.733   1.102  0.2421  0.0211 -0.0786
  649SOL     OW 2593   2.419   2.708   1.322  0.1435  0.1242 -0.4791
  649SOL    HW1 2594   2.510   2.744   1.326 -1.1230  0.2358  0.6025
  649SOL    HW2 2595   2.426   2.611   1.303 -2.2151  1.7645 -1.5651
  649SOL     MW 2596   2.432   2.700   1.320 -0.3348  0.3553 -0.4797
  650SOL     OW 2597   2.787   0.236   0.682 -0.5362 -0.2085 -0.6097
  650SOL    HW1 2598   2.810   0.228   0.773 -0.1141 -2.8879 -0.9466
  650SOL    HW2 2599   2.868   0.244   0.637 -0.1322 -0.9655 -1.0411
  650SOL     MW 2600   2.801   0.236   0.688 -0.4272 -0.6619 -0.7111
  651SOL     OW 2601   0.012   0.440   1.042 -0.4842  0.1980 -0.1036
  651SOL    HW1 2602   0.047   0.456   0.953  1.2031  2.3783 -0.1365
  651SOL    HW2 2603  -0.053   0.508   1.040  0.8318 -0.2200  1.5155
  651SOL     MW 2604   0.008   0.451   1.030 -0.0879  0.4305  0.1057
  652SOL     OW 2605   2.388   1.486   3.019 -0.2758  0.4899 -0.3069
  652SOL    HW1 2606   2.456   1.536   2.967  0.2041 -0.2109  1.9384
  652SOL    HW2 2607   2.322   1.548   3.023 -0.3292 -0.7135 -1.6707
  652SOL     MW 2608   2.388   1.501   3.013 -0.2195  0.2387 -0.1906
  653SOL     OW 2609   1.834   0.460   0.334 -0.0748 -0.3730 -0.1117
  653SOL    HW1 2610   1.821   0.394   0.270  1.4328  2.9935 -2.2022
  653SOL    HW2 2611   1.896   0.521   0.295  0.3495 -1.7546  0.2678
  653SOL     MW 2612   1.840   0.459   0.320  0.1801 -0.1111 -0.3374
  654SOL     OW 2613   2.420   1.004   0.724  0.2935 -0.2435  0.6278
  654SOL    HW1 2614   2.368   0.992   0.643  2.1156 -0.2283  1.6334
  654SOL    HW2 2615   2.459   0.912   0.746  0.4058  3.4180 -0.9601
  654SOL     MW 2616   2.418   0.990   0.716  0.5487  0.2416  0.5509
  655SOL     OW 2617   2.890   0.851   0.370 -0.4992 -0.0736 -0.1452
  655SOL    HW1 2618   2.873   0.884   0.456  2.7843  1.4994 -1.3296
  655SOL    HW2 2619   2.881   0.755   0.373 -1.0969  1.8317 -0.0471
  655SOL     MW 2620   2.887   0.843   0.382 -0.1448  0.3853 -0.2885
  656SOL     OW 2621   1.780   2.644   1.351 -0.0067 -0.1207  0.6395
  656SOL    HW1 2622   1.831   2.723   1.356 -1.8554 -1.2268  0.9419
  656SOL    HW2 2623   1.847   2.574   1.337  1.4633  1.1392 -0.7912
  656SOL     MW 2624   1.796   2.645   1.349 -0.0566 -0.1004  0.4906
  657SOL     OW 2625   0.144   1.778   1.142  0.1655 -0.4670 -0.1048
  657SOL    HW1 2626   0.197   1.850   1.101  0.4552  0.3364 -3.4485
  657SOL    HW2 2627   0.196   1.702   1.137 -0.7305  1.9864 -1.3996
  657SOL     MW 2628   0.158   1.777   1.136  0.0855 -0.0373 -0.7168
  658SOL     OW 2629   2.632   1.309   0.239  0.1903  0.1288  0.2100
  658SOL    HW1 2630   2.634   1.219   0.283 -1.8054  0.0779  0.1508
  658SOL    HW2 2631   2.649   1.364   0.318  0.0102 -0.0723  1.5390
  658SOL     MW 2632   2.635   1.305   0.255 -0.0967  0.0955  0.3775
  659SOL     OW 2633   2.205   1.547   0.976 -0.1148  0.1571  0.1201
  659SOL    HW1 2634   2.290   1.541   0.930  0.6661  2.9331  1.4697
  659SOL    HW2 2635   2.199   1.630   1.013  0.7379  1.6414  2.3363
  659SOL     MW 2636   2.216   1.557   0.975  0.1008  0.7192  0.5906
  660SOL     OW 2637   2.096   1.463   1.727  0.2963 -0.2659 -0.0385
  660SOL    HW1 2638   2.095   1.525   1.798 -1.6643 -1.0864 -0.5892
  660SOL    HW2 2639   2.009   1.418   1.726 -1.0008 -0.3512  0.8474
  660SOL     MW 2640   2.084   1.465   1.736 -0.1335 -0.3854  0.0057
  661SOL     OW 2641   2.491   0.958   0.194 -0.2643  0.7765 -0.6720
  661SOL    HW1 2642   2.552   0.973   0.268  1.8915 -2.0505  2.2970
  661SOL    HW2 2643   2.425   0.901   0.229  2.6312  1.3462  1.3398
  661SOL     MW 2644   2.490   0.952   0.209  0.4021  0.4787 -0.0148
  662SOL     OW 2645   2.594   2.979   0.894  0.1222 -0.2978  0.1592
  662SOL    HW1 2646   2.522   3.040   0.918  0.8622  0.0306 -2.0388
  662SOL    HW2 2647   2.626   3.018   0.810 -1.2202  1.6191 -0.1607
  662SOL     MW 2648   2.589   2.992   0.886  0.0427 -0.0016 -0.1730
  663SOL     OW 2649   2.651   1.485   0.450  0.1483 -0.4764 -0.2227
  663SOL    HW1 2650   2.603   1.564   0.422  3.3700 -0.4011  0.6975
  663SOL    HW2 2651   2.713   1.510   0.518  0.2649  2.7722  0.9243
  663SOL     MW 2652   2.653   1.499   0.455  0.5888 -0.0379  0.0501
  664SOL     OW 2653   2.596   1.537   1.604  0.2444 -0.9968 -0.2372
  664SOL    HW1 2654   2.588   1.632   1.577 -0.0333  1.2906  0.0863
  664SOL    HW2 2655   2.519   1.498   1.571  2.9280  2.2619 -0.0328
  664SOL     MW 2656   2.585   1.544   1.596  0.5618 -0.2651 -0.1676
  665SOL     OW 2657   2.777   0.773   2.096  0.0497 -0.5271  0.0507
  665SOL    HW1 2658   2.791   0.837   2.022  0.8468  1.0486  0.9561
  665SOL    HW2 2659   2.853   0.717   2.102  0.0731 -0.2504  4.6007
  665SOL     MW 2660   2.789   0.774   2.087  0.1580 -0.2827  0.7705
  666SOL     OW 2661   2.754   3.050   1.734 -0.1439  0.0685  0.3038
  666SOL    HW1 2662   2.768   3.036   1.635 -0.6274  0.5838  0.1494
  666SOL    HW2 2663   2.712   2.965   1.761 -0.1045 -1.7229 -2.9605
  666SOL     MW 2664   2.750   3.037   1.724 -0.2025 -0.0999 -0.1472
  667SOL     OW 2665   1.980   2.702   1.710  0.0049  0.1083 -0.2726
  667SOL    HW1 2666   2.007   2.660   1.790 -0.7211  0.1510 -0.1823
  667SOL    HW2 2667   2.056   2.754   1.686  1.6621  1.7897 -1.0307
  667SOL     MW 2668   1.993   2.704   1.717  0.1278  0.3358 -0.3607
  668SOL     OW 2669   2.687   0.523   0.814  0.1678  0.2453 -0.1000
  668SOL    HW1 2670   2.774   0.560   0.840  3.2247 -0.6771 -0.4142
  668SOL    HW2 2671   2.625   0.590   0.852  1.4327  0.2887  1.9010
  668SOL     MW 2672   2.691   0.537   0.823  0.7380  0.1293  0.1226
  669SOL     OW 2673   0.115   0.903   0.757 -0.1577  0.4530  0.3708
  669SOL    HW1 2674   0.058   0.968   0.801  2.5758  0.1548  2.4256
  669SOL    HW2 2675   0.186   0.874   0.811  0.2042  0.5886  0.1271
  669SOL     MW 2676   0.117   0.907   0.770  0.2507  0.4315  0.6098
  670SOL     OW 2677   2.916   0.334   0.211 -0.1935 -0.4347 -0.0788
  670SOL    HW1 2678   2.937   0.292   0.123 -1.2538  1.3483 -0.4741
  670SOL    HW2 2679   2.911   0.429   0.188 -0.5792 -1.0471  2.1512
  670SOL     MW 2680   2.918   0.341   0.196 -0.3843 -0.2803  0.1633
  671SOL     OW 2681   1.992   3.042   1.581 -0.0808 -0.3291 -0.0080
  671SOL    HW1 2682   1.939   3.003   1.508  0.7708 -0.5845 -1.9138
  671SOL    HW2 2683   1.941   3.057   1.664 -0.2943 -1.1259 -0.6111
  671SOL     MW 2684   1.978   3.039   1.583  0.0034 -0.4679 -0.3390
  672SOL     OW 2685   1.851   1.686   1.293 -0.8797  0.4269 -0.1761
  672SOL    HW1 2686   1.828   1.763   1.343 -0.7073 -1.4417  0.5940
  672SOL    HW2 2687   1.908   1.733   1.234  1.9696  1.1925  0.8966
  672SOL     MW 2688   1.855   1.702   1.292 -0.4810  0.2814  0.0670
  673SOL     OW 2689   2.772   1.095   0.635 -0.3776 -0.5563  0.6580
  673SOL    HW1 2690   2.796   1.010   0.667  1.7211 -2.5496  0.7321
  673SOL    HW2 2691   2.849   1.151   0.645 -0.6143  2.3145 -1.3957
  673SOL     MW 2692   2.785   1.091   0.640 -0.1319 -0.4405  0.3968
  674SOL     OW 2693   2.459   0.007   1.273  0.5346  0.0934  0.3300
  674SOL    HW1 2694   2.432   0.023   1.186  1.2320 -2.0272  3.4408
  674SOL    HW2 2695   2.510  -0.073   1.262 -0.5368  0.8320  2.3127
  674SOL     MW 2696   2.462  -0.002   1.260  0.4853 -0.0889  1.0020
  675SOL     OW 2697   2.987   0.900   1.073 -0.4864  0.3926 -0.9756
  675SOL    HW1 2698   3.050   0.922   1.138 -1.8909 -2.7790  0.2823
  675SOL    HW2 2699   2.996   0.971   1.005  1.8402  4.1759 -1.5897
  675SOL     MW 2700   2.997   0.912   1.072 -0.3648  0.4733 -0.8907
  676SOL     OW 2701   2.976   1.444   1.696 -0.3302 -0.2373  0.0766
  676SOL    HW1 2702   2.896   1.394   1.674 -2.1110 -1.5597 -2.7160
  676SOL    HW2 2703   2.989   1.441   1.788  2.6114 -0.7919 -3.8215
  676SOL     MW 2704   2.968   1.437   1.705 -0.1771 -0.4849 -0.8062
  677SOL     OW 2705   2.355   0.596   2.035 -0.0746 -0.0719  0.6662
  677SOL    HW1 2706   2.317   0.544   1.967 -3.1254 -0.8383 -0.9605
  677SOL    HW2 2707   2.328   0.690   2.019  5.5861 -0.9181 -0.6747
  677SOL     MW 2708   2.346   0.602   2.024  0.2698 -0.2846  0.2747
  678SOL     OW 2709   2.479   1.686   0.353 -0.0699 -0.4311 -0.0587
  678SOL    HW1 2710   2.397   1.716   0.389  0.7084 -1.6276 -0.8555
  678SOL    HW2 2711   2.449   1.620   0.295 -3.6855  0.1391  0.4518
  678SOL     MW 2712   2.464   1.681   0.350 -0.4442 -0.5138 -0.0965
  679SOL     OW 2713   2.184   0.456   1.320 -0.2640 -0.3110 -0.6608
  679SOL    HW1 2714   2.178   0.362   1.294  0.8104 -0.2372 -0.1252
  679SOL    HW2 2715   2.135   0.471   1.402  1.9894 -1.3423 -0.7923
  679SOL     MW 2716   2.176   0.446   1.327  0.1751 -0.4374 -0.6075
  680SOL     OW 2717   2.360   0.176   1.492 -0.8139 -0.1562  0.6820
  680SOL    HW1 2718   2.272   0.192   1.473  0.9057  2.1577 -1.3243
  680SOL    HW2 2719   2.410   0.117   1.427 -0.5637 -1.7582 -0.7885
  680SOL     MW 2720   2.355   0.171   1.481 -0.5540 -0.0623  0.2232
  681SOL     OW 2721   0.281   0.616   1.579 -0.1311 -0.0348  0.0007
  681SOL    HW1 2722   0.255   0.565   1.663 -3.0155 -0.0378  0.8247
  681SOL    HW2 2723   0.298   0.551   1.511 -0.2806 -0.4829 -0.9711
  681SOL     MW 2724   0.280   0.601   1.581 -0.5314 -0.0943 -0.0188
  682SOL     OW 2725   0.142   2.807   1.523 -0.1883  0.1929 -0.1917
  682SOL    HW1 2726   0.222   2.858   1.548 -0.6220 -0.8320  3.0135
  682SOL    HW2 2727   0.073   2.874   1.536 -2.2855  1.7412 -0.9711
  682SOL     MW 2728   0.144   2.823   1.528 -0.5222  0.2619  0.1283
  683SOL     OW 2729   2.059   0.821   2.962 -0.1785 -0.1812 -0.0400
  683SOL    HW1 2730   1.991   0.767   3.007  2.5182  0.5687  1.8511
  683SOL    HW2 2731   2.051   0.918   2.996 -1.2051  2.9508  0.1471
  683SOL     MW 2732   2.049   0.826   2.973  0.0419  0.3310  0.2342
  684SOL     OW 2733   2.244   1.662   0.692 -0.2523  0.0490 -0.0655
  684SOL    HW1 2734   2.199   1.680   0.606  2.8863  2.5846  0.8877
  684SOL    HW2 2735   2.181   1.636   0.755 -0.3952  1.6203 -0.8559
  684SOL     MW 2736   2.230   1.661   0.689  0.1430  0.5908 -0.0440
  685SOL     OW 2737   2.690   1.690   1.256 -0.2485 -0.5568 -0.7154
  685SOL    HW1 2738   2.732   1.724   1.331  0.9133  1.8024 -1.5987
  685SOL    HW2 2739   2.696   1.593   1.264 -0.0390  1.4386  0.6510
  685SOL     MW 2740   2.696   1.682   1.267 -0.0676  0.0178 -0.6517
  686SOL     OW 2741   2.866   0.718   1.435 -0.1113 -0.1486 -0.1826
  686SOL    HW1 2742   2.833   0.641   1.489  0.2496 -1.1548  1.7644
  686SOL    HW2 2743   2.959   0.724   1.451 -3.1916  0.5851 -0.3830
  686SOL     MW 2744   2.874   0.709   1.445 -0.4701 -0.1846  0.0478
  687SOL     OW 2745   2.147   0.211   1.213 -0.1197 -0.0947  0.2889
  687SOL    HW1 2746   2.215   0.170   1.160  2.8377  1.2403  1.3857
  687SOL    HW2 2747   2.087   0.264   1.148  0.0006 -0.8500  0.9522
  687SOL     MW 2748   2.148   0.213   1.197  0.2864 -0.0182  0.5211
  688SOL     OW 2749   2.394   0.599   1.470 -0.4778  0.7146  0.2488
  688SOL    HW1 2750   2.330   0.533   1.433  0.0084 -0.3907  1.9979
  688SOL    HW2 2751   2.349   0.645   1.541  3.7286 -0.8595  1.1240
  688SOL     MW 2752   2.380   0.597   1.474  0.1413  0.3611  0.5950
  689SOL     OW 2753   2.430   0.712   2.896 -0.3251  0.0805  0.1274
  689SOL    HW1 2754   2.397   0.801   2.887 -0.5802 -1.1571  0.0978
  689SOL    HW2 2755   2.522   0.726   2.913  2.4292  2.2723 -1.3694
  689SOL     MW 2756   2.438   0.726   2.897  0.0047  0.2064 -0.0740
  690SOL     OW 2757   2.015   0.875   1.880  0.7861  1.0093 -0.4632
  690SOL    HW1 2758   1.960   0.794   1.864  3.1167 -0.9542 -0.0977
  690SOL    HW2 2759   2.053   0.898   1.796 -0.1153  0.0626 -2.9952
  690SOL     MW 2760   2.013   0.867   1.867  0.9747  0.6253 -0.7491
  691SOL     OW 2761   2.373   0.242   0.838 -0.0894 -0.1197 -0.1620
  691SOL    HW1 2762   2.439   0.286   0.891 -3.4058  0.8084 -0.4172
  691SOL    HW2 2763   2.299   0.304   0.825 -0.8727  0.8418  1.2746
  691SOL     MW 2764   2.372   0.256   0.843 -0.6303  0.1296 -0.0061
  692SOL     OW 2765   2.880   1.639   1.483  0.6836 -0.0876  0.8189
  692SOL    HW1 2766   2.876   1.604   1.576  2.1660  0.4278  1.5157
  692SOL    HW2 2767   2.901   1.731   1.492  0.6720  0.9427 -0.6488
  692SOL     MW 2768   2.882   1.647   1.496  0.8776  0.1164  0.7172
  693SOL     OW 2769   2.275   0.402   0.075  0.1643 -0.2576 -0.3506
  693SOL    HW1 2770   2.199   0.344   0.081  0.5503  0.8182 -0.7414
  693SOL    HW2 2771   2.247   0.487   0.048  2.0084 -1.0249  0.6468
  693SOL     MW 2772   2.261   0.406   0.072  0.4585 -0.2169 -0.2706
  694SOL     OW 2773   1.918   1.188   1.103  0.7017 -0.0166 -1.3917
  694SOL    HW1 2774   2.001   1.148   1.142 -0.3044 -1.3243  2.6309
  694SOL    HW2 2775   1.852   1.122   1.136  0.8898 -2.9195 -2.0514
  694SOL     MW 2776   1.920   1.174   1.113  0.5938 -0.5722 -0.9480
  695SOL     OW 2777   3.024   1.446   1.320 -0.3591 -0.4341  0.1566
  695SOL    HW1 2778   2.985   1.455   1.232  1.3262  1.5454  0.1425
  695SOL    HW2 2779   2.963   1.498   1.382  0.0727 -1.5962  1.9153
  695SOL     MW 2780   3.011   1.454   1.316 -0.0798 -0.3263  0.3868
  696SOL     OW 2781   2.087   1.360   0.786  0.1153 -0.0784 -0.5472
  696SOL    HW1 2782   2.130   1.382   0.873  0.0933  0.8302 -1.0327
  696SOL    HW2 2783   2.026   1.285   0.803 -3.9590 -2.4878  1.7204
  696SOL     MW 2784   2.085   1.353   0.800 -0.4252 -0.2764 -0.3121
  697SOL     OW 2785   2.875   1.010   2.218 -0.2716 -0.1536 -0.2187
  697SOL    HW1 2786   2.813   1.062   2.176 -0.3170 -2.8466  1.4225
  697SOL    HW2 2787   2.843   0.921   2.204 -0.9058  1.5455  0.7526
  697SOL     MW 2788   2.862   1.005   2.210 -0.3613 -0.2847  0.1260
  698SOL     OW 2789   2.530   0.349   0.039 -0.5645 -0.1379 -0.1175
  698SOL    HW1 2790   2.431   0.354   0.059 -1.0997 -0.7730 -0.0100
  698SOL    HW2 2791   2.553   0.290   0.107  1.6742  0.5832  1.7111
  698SOL     MW 2792   2.520   0.342   0.051 -0.3397 -0.1265  0.1380
  699SOL     OW 2793   1.862   1.584   2.049  0.0787  0.2159 -0.2078
  699SOL    HW1 2794   1.842   1.491   2.025 -0.7227  1.7237 -0.2012
  699SOL    HW2 2795   1.960   1.570   2.035  1.8105 -1.7390  2.2128
  699SOL     MW 2796   1.872   1.570   2.044  0.2015  0.1569  0.1125
  700SOL     OW 2797   2.741   0.915   1.562 -0.1416 -0.2222  1.0078
  700SOL    HW1 2798   2.748   0.977   1.484  0.7479 -0.0534 -1.7929
  700SOL    HW2 2799   2.785   0.842   1.521  0.0896  1.0027  0.2522
  700SOL     MW 2800   2.747   0.914   1.546  0.0063 -0.0383  0.5386
  701SOL     OW 2801   1.698   1.180   2.476  0.1907 -0.4279  0.3875
  701SOL    HW1 2802   1.792   1.176   2.491  1.2839  0.3355  0.8260
  701SOL    HW2 2803   1.677   1.259   2.536 -0.4127  0.1639 -1.9935
  701SOL     MW 2804   1.707   1.190   2.486  0.2554 -0.2491  0.1312
  702SOL     OW 2805   2.142   0.396   0.832  0.5331 -0.3836 -0.5178
  702SOL    HW1 2806   2.113   0.329   0.771 -0.8907 -1.4247 -0.1168
  702SOL    HW2 2807   2.195   0.465   0.779 -0.7819  0.1331 -3.0280
  702SOL     MW 2808   2.145   0.397   0.817  0.1718 -0.4528 -0.7961
  703SOL     OW 2809   2.690   1.259   1.040 -0.2538  0.1880  0.0037
  703SOL    HW1 2810   2.634   1.239   0.962 -1.7958 -1.8442  1.0515
  703SOL    HW2 2811   2.702   1.178   1.079  0.3458  1.2853 -0.6703
  703SOL     MW 2812   2.684   1.246   1.035 -0.3781  0.0646  0.0530
  704SOL     OW 2813   3.100   1.204   0.139 -0.1766  0.2436  0.7467
  704SOL    HW1 2814   3.009   1.198   0.099  1.5206  0.3099 -1.9757
  704SOL    HW2 2815   3.098   1.220   0.231 -0.3943  0.4492  1.6637
  704SOL     MW 2816   3.088   1.205   0.146  0.0186  0.2795  0.5085
  705SOL     OW 2817   2.191   1.637   1.270  0.1606  0.4770  0.2529
  705SOL    HW1 2818   2.122   1.654   1.336  0.1912 -0.7352  0.0421
  705SOL    HW2 2819   2.188   1.542   1.249 -0.4081 -0.2031 -0.2178
  705SOL     MW 2820   2.182   1.627   1.276  0.0896  0.2273  0.1630
  706SOL     OW 2821   2.996   1.248   0.651 -0.7338  0.1398 -0.2703
  706SOL    HW1 2822   3.047   1.231   0.567  1.9812 -0.2603 -3.4077
  706SOL    HW2 2823   2.963   1.341   0.644 -2.8601  1.5668  1.1152
  706SOL     MW 2824   2.998   1.258   0.639 -0.6561  0.2753 -0.5014
  707SOL     OW 2825   2.293   0.041   1.034  0.3392 -0.1518 -0.2877
  707SOL    HW1 2826   2.310   0.121   0.980 -1.2537 -0.1863  2.7489
  707SOL    HW2 2827   2.216  -0.003   0.997  2.1933 -0.4585  0.2083
  707SOL     MW 2828   2.285   0.045   1.022  0.3737 -0.1968  0.1784
  708SOL     OW 2829   2.400   1.455   0.199  0.2275  0.0343  0.1918
  708SOL    HW1 2830   2.461   1.383   0.225  0.2982 -1.7657 -4.4684
  708SOL    HW2 2831   2.397   1.452   0.102 -0.7221  0.4360 -0.7507
  708SOL     MW 2832   2.408   1.445   0.190  0.1116 -0.1502 -0.5474
  709SOL     OW 2833   1.774   1.657   0.246  0.0762 -0.5041 -0.4397
  709SOL    HW1 2834   1.743   1.655   0.154 -0.3791 -0.0656 -0.7500
  709SOL    HW2 2835   1.696   1.656   0.302 -1.0257  0.2156 -1.0018
  709SOL     MW 2836   1.760   1.657   0.241 -0.1292 -0.3513 -0.5548
  710SOL     OW 2837   2.162   1.087   1.185  0.1073  0.0438 -0.0164
  710SOL    HW1 2838   2.201   1.070   1.096 -2.2333 -0.2947  0.7363
  710SOL    HW2 2839   2.188   1.016   1.241 -0.1545  1.8298 -0.0176
  710SOL     MW 2840   2.171   1.075   1.180 -0.2361  0.2348  0.0828
  711SOL     OW 2841   2.316   0.114   1.747  0.2121 -0.2384 -0.3506
  711SOL    HW1 2842   2.404   0.120   1.790  0.2608 -0.3614  1.9834
  711SOL    HW2 2843   2.335   0.129   1.651 -0.6544 -1.5514  1.2478
  711SOL     MW 2844   2.330   0.116   1.740  0.1042 -0.4279  0.1683
  712SOL     OW 2845   1.894   0.639   0.007  0.3051 -0.0461 -0.3618
  712SOL    HW1 2846   1.828   0.647  -0.068  0.3416  0.6286 -2.1567
  712SOL    HW2 2847   1.871   0.716   0.065 -1.2448  0.5194  0.3395
  712SOL     MW 2848   1.882   0.651   0.005  0.1054  0.1175 -0.5061
  713SOL     OW 2849   2.543   0.762   1.091 -0.1435 -0.7973  0.4406
  713SOL    HW1 2850   2.564   0.673   1.118  0.1333 -2.7676  1.1665
  713SOL    HW2 2851   2.446   0.783   1.102 -4.7586  0.2833 -2.4321
  713SOL     MW 2852   2.533   0.753   1.096 -0.7159 -0.9147  0.1573
  714SOL     OW 2853   2.167   0.167   1.991  0.4711  0.0786  0.0410
  714SOL    HW1 2854   2.225   0.111   2.051  0.5133 -2.2853 -1.7280
  714SOL    HW2 2855   2.199   0.155   1.898 -2.0587 -0.7584  2.0219
  714SOL     MW 2856   2.179   0.158   1.987  0.1429 -0.3437  0.0689
  715SOL     OW 2857   1.811   1.982   1.713  0.5765  0.8001  0.2302
  715SOL    HW1 2858   1.900   2.031   1.715  0.5837  2.0907 -1.1426
  715SOL    HW2 2859   1.808   1.910   1.781  1.9996  2.9285  2.8620
  715SOL     MW 2860   1.823   1.979   1.722  0.7652  1.2512  0.3963
  716SOL     OW 2861   2.306   0.571   0.715 -0.0629 -0.5545 -0.3915
  716SOL    HW1 2862   2.356   0.506   0.667  1.6534 -0.4427 -0.8450
  716SOL    HW2 2863   2.252   0.622   0.648 -1.5041  1.5984  1.3711
  716SOL     MW 2864   2.306   0.569   0.700 -0.0266 -0.2557 -0.2187
  717SOL     OW 2865   2.834   1.579   2.875  0.1928 -0.0832  0.2726
  717SOL    HW1 2866   2.932   1.582   2.887 -1.5356  2.4407  1.6173
  717SOL    HW2 2867   2.807   1.661   2.919  1.1206  1.2432 -1.1610
  717SOL     MW 2868   2.843   1.590   2.882  0.0872  0.4248  0.2608
  718SOL     OW 2869   2.690   1.408   1.376 -0.6764  0.6304  0.0722
  718SOL    HW1 2870   2.642   1.441   1.450 -0.3177  0.5432  0.5824
  718SOL    HW2 2871   2.709   1.313   1.392 -0.8750 -1.0666 -0.4030
  718SOL     MW 2872   2.686   1.399   1.388 -0.6553  0.3950  0.0768
  719SOL     OW 2873   2.187   1.269   0.561  0.3518  0.0483 -0.5975
  719SOL    HW1 2874   2.279   1.299   0.556 -2.1105 -1.0830 -1.6796
  719SOL    HW2 2875   2.152   1.289   0.651  0.2129  0.5690 -2.1276
  719SOL     MW 2876   2.194   1.276   0.572  0.0086 -0.0322 -0.9421
  720SOL     OW 2877   2.851   1.218   0.041 -0.7283  0.0615 -0.0548
  720SOL    HW1 2878   2.822   1.135   0.080 -0.1173 -2.0143  1.1390
  720SOL    HW2 2879   2.805   1.283   0.090  0.3640  2.1726 -0.9574
  720SOL     MW 2880   2.841   1.216   0.052 -0.5036  0.0661 -0.0164
  721SOL     OW 2881   2.495   0.890   1.398 -0.1209  0.1886 -0.2913
  721SOL    HW1 2882   2.523   0.808   1.442  0.5332 -1.2606 -0.0147
  721SOL    HW2 2883   2.535   0.960   1.442 -0.8955 -1.1876  2.8606
  721SOL     MW 2884   2.504   0.888   1.409 -0.1368 -0.1841  0.1610
  722SOL     OW 2885   2.581   1.083   0.450  0.5170  0.1970 -0.6609
  722SOL    HW1 2886   2.526   1.148   0.486 -3.0892  1.2387  1.8336
  722SOL    HW2 2887   2.647   1.074   0.522  0.8870 -4.6681  0.4964
  722SOL     MW 2888   2.583   1.090   0.464  0.0900 -0.3075 -0.1790
  723SOL     OW 2889   2.317   1.392   1.569 -0.1988  0.0667 -0.1278
  723SOL    HW1 2890   2.294   1.386   1.473  2.7524  0.7739 -2.3476
  723SOL    HW2 2891   2.238   1.423   1.623 -2.5810 -0.6593  0.0892
  723SOL     MW 2892   2.304   1.396   1.563 -0.1237  0.0642 -0.3920
  724SOL     OW 2893   2.465   0.365   0.568  0.0645 -0.0848 -0.3728
  724SOL    HW1 2894   2.493   0.303   0.633 -1.3138  1.3264  1.7523
  724SOL    HW2 2895   2.547   0.408   0.548  1.1328  0.4881 -0.4848
  724SOL     MW 2896   2.480   0.363   0.574  0.0236  0.1770 -0.1072
  725SOL     OW 2897   2.610   0.525   1.186 -0.3974 -0.3230 -0.2282
  725SOL    HW1 2898   2.704   0.533   1.207 -1.3214 -1.2644  2.2982
  725SOL    HW2 2899   2.566   0.519   1.270  1.6271  0.7233 -0.5075
  725SOL     MW 2900   2.617   0.525   1.200 -0.2522 -0.3092  0.0683
  726SOL     OW 2901   2.581   2.496   0.552 -0.2857  0.6219  0.1238
  726SOL    HW1 2902   2.537   2.571   0.505  2.3482  0.2225 -0.9829
  726SOL    HW2 2903   2.542   2.481   0.635  0.3611 -0.4792 -1.3918
  726SOL     MW 2904   2.570   2.504   0.557  0.1471  0.4239 -0.2222
  727SOL     OW 2905   2.876   0.323   1.756  0.0372 -0.1159 -0.0884
  727SOL    HW1 2906   2.816   0.329   1.681  0.7970  0.9559  4.0999
  727SOL    HW2 2907   2.822   0.349   1.832  0.1633  0.7726  0.3529
  727SOL     MW 2908   2.861   0.327   1.756  0.1541  0.1428  0.5225
  728SOL     OW 2909   2.795   1.131   2.880  0.1703  0.2226 -0.2636
  728SOL    HW1 2910   2.804   1.204   2.817  1.5894 -1.3509 -2.0121
  728SOL    HW2 2911   2.809   1.166   2.965  0.2791 -1.0273  0.0684
  728SOL     MW 2912   2.798   1.145   2.883  0.3719 -0.1500 -0.4505
  729SOL     OW 2913   2.498   1.449   1.179 -0.0860  0.1708  0.0191
  729SOL    HW1 2914   2.559   1.420   1.251 -0.8039  1.3266 -0.1211
  729SOL    HW2 2915   2.548   1.425   1.100  1.2522 -1.6480  1.5306
  729SOL     MW 2916   2.513   1.442   1.178 -0.0041  0.0833  0.2000
  730SOL     OW 2917   2.302   1.165   0.225  0.5287  0.0057  0.5359
  730SOL    HW1 2918   2.395   1.145   0.210 -1.8514 -0.5396  1.7285
  730SOL    HW2 2919   2.296   1.260   0.209 -2.6053 -1.0697  0.8970
  730SOL     MW 2920   2.313   1.175   0.221 -0.1989 -0.2081  0.7409
  731SOL     OW 2921   2.793   2.035   2.912  0.3425  0.5031  0.0540
  731SOL    HW1 2922   2.736   2.030   2.838  0.0026  0.9856  0.9039
  731SOL    HW2 2923   2.870   2.075   2.875 -0.4932 -0.0489  2.1837
  731SOL     MW 2924   2.795   2.040   2.897  0.1874  0.4939  0.4471
  732SOL     OW 2925   2.215   0.889   1.343 -0.0514 -0.2708  0.0064
  732SOL    HW1 2926   2.180   0.893   1.432 -2.8553  1.7068 -1.4636
  732SOL    HW2 2927   2.314   0.884   1.344 -1.3473  2.1319 -0.9981
  732SOL     MW 2928   2.224   0.889   1.355 -0.5923  0.3072 -0.3201
  733SOL     OW 2929   2.362   2.817   3.011  0.4740  0.2735  0.6740
  733SOL    HW1 2930   2.279   2.853   2.981  0.6754  0.9568  3.0583
  733SOL    HW2 2931   2.349   2.721   2.992  0.9650  0.3952 -1.0040
  733SOL     MW 2932   2.349   2.809   3.004  0.5654  0.3797  0.7672
  734SOL     OW 2933   1.435   0.317   2.444 -0.0102 -0.0908  0.1639
  734SOL    HW1 2934   1.430   0.300   2.539  1.0992 -2.2295 -0.2593
  734SOL    HW2 2935   1.485   0.247   2.401  0.1459 -0.5347 -1.1778
  734SOL     MW 2936   1.441   0.306   2.451  0.1568 -0.4316 -0.0689
  735SOL     OW 2937   2.924   0.868   2.604 -0.2747  0.0526  0.3010
  735SOL    HW1 2938   2.926   0.770   2.596  2.0407  0.4397 -1.1269
  735SOL    HW2 2939   2.963   0.888   2.686  3.4558 -3.1185 -1.7417
  735SOL     MW 2940   2.929   0.858   2.614  0.5230 -0.3147 -0.1569
  736SOL     OW 2941   0.089   0.618   2.532  0.3909  0.4497  0.2215
  736SOL    HW1 2942   0.119   0.688   2.476 -1.5937  2.7138  2.5691
  736SOL    HW2 2943   0.098   0.540   2.472  1.1837  0.7488  1.1178
  736SOL     MW 2944   0.094   0.617   2.517  0.2337  0.7879  0.6495
  737SOL     OW 2945   2.911   0.602   2.601 -0.2164 -0.4520  0.7285
  737SOL    HW1 2946   2.843   0.574   2.536 -1.1017 -0.3812 -0.3094
  737SOL    HW2 2947   2.994   0.592   2.553  0.1186  3.4570 -0.3580
  737SOL     MW 2948   2.913   0.597   2.586 -0.2890  0.0731  0.4482
  738SOL     OW 2949   0.175   0.627   1.968  0.8362 -0.0084 -0.0665
  738SOL    HW1 2950   0.268   0.611   1.957  0.8257  1.7967  1.9453
  738SOL    HW2 2951   0.145   0.542   1.938  0.9800 -0.6587  0.3940
  738SOL     MW 2952   0.183   0.614   1.963  0.8538  0.1440  0.2597
  739SOL     OW 2953   2.491   0.981   2.038  0.2812  0.1065 -0.3738
  739SOL    HW1 2954   2.413   0.936   2.017  2.3154 -0.4727 -2.3412
  739SOL    HW2 2955   2.500   1.059   1.978  0.1034  3.3199  2.7548
  739SOL     MW 2956   2.482   0.985   2.027  0.5261  0.4540 -0.2206
  740SOL     OW 2957   0.212   1.748   2.942  0.3612 -0.1008  0.4141
  740SOL    HW1 2958   0.170   1.663   2.931  0.9620  1.4973 -1.5443
  740SOL    HW2 2959   0.306   1.731   2.969  1.4596 -1.0768  0.2990
  740SOL     MW 2960   0.219   1.734   2.944  0.5854 -0.0187  0.1405
  741SOL     OW 2961   2.209   1.152   2.741  0.0837  0.6840 -1.0306
  741SOL    HW1 2962   2.117   1.154   2.719 -0.6628 -1.2175 -1.4670
  741SOL    HW2 2963   2.217   1.144   2.836  1.5226 -1.2705 -0.0977
  741SOL     MW 2964   2.198   1.151   2.751  0.1751  0.1752 -0.9651
  742SOL     OW 2965   1.589   1.236   2.202  0.1778  0.0928  0.0322
  742SOL    HW1 2966   1.531   1.159   2.203  0.6964  1.5308 -0.7753
  742SOL    HW2 2967   1.611   1.243   2.293  2.4282  1.5202  0.1416
  742SOL     MW 2968   1.584   1.227   2.214  0.5431  0.4708 -0.0599
  743SOL     OW 2969   2.476   1.322   2.716 -0.6445  0.2251 -0.0923
  743SOL    HW1 2970   2.392   1.302   2.683  1.9315  1.4261  1.9580
  743SOL    HW2 2971   2.497   1.234   2.762 -0.8813 -1.8963  2.9250
  743SOL     MW 2972   2.468   1.308   2.718 -0.3359  0.1037  0.5764
  744SOL     OW 2973   2.765   0.935   1.853 -0.5526  0.0750  0.2991
  744SOL    HW1 2974   2.678   0.958   1.877 -0.9453  0.3086  3.9311
  744SOL    HW2 2975   2.762   0.937   1.757  0.9773  1.0426 -0.1206
  744SOL     MW 2976   2.753   0.939   1.844 -0.4025  0.2335  0.7229
  745SOL     OW 2977   1.714   0.429   2.502  0.5221 -0.0188 -0.1478
  745SOL    HW1 2978   1.697   0.412   2.407  0.7509 -1.3275  0.7302
  745SOL    HW2 2979   1.632   0.395   2.538  0.9451  1.7152  1.2263
  745SOL     MW 2980   1.701   0.422   2.494  0.6081  0.0373  0.1494
  746SOL     OW 2981   1.603   1.493   1.637 -0.3839  0.4484  0.0443
  746SOL    HW1 2982   1.699   1.465   1.634 -1.0017 -1.6161  0.4935
  746SOL    HW2 2983   1.562   1.445   1.709 -0.0368  2.0392  0.8731
  746SOL     MW 2984   1.610   1.483   1.646 -0.4196  0.3859  0.2129
  747SOL     OW 2985   2.569   1.141   1.826 -0.0859 -0.1998 -0.0120
  747SOL    HW1 2986   2.489   1.137   1.774 -0.1156 -1.7657  1.1172
  747SOL    HW2 2987   2.563   1.222   1.887 -0.9232 -0.2581  0.2715
  747SOL     MW 2988   2.557   1.151   1.827 -0.2003 -0.4141  0.1744
  748SOL     OW 2989   0.098   0.037   1.829 -0.0900  0.1700  0.1691
  748SOL    HW1 2990   0.190   0.073   1.830 -0.4380  3.1031  0.4173
  748SOL    HW2 2991   0.067   0.057   1.920 -3.3890 -0.7807  1.1542
  748SOL     MW 2992   0.106   0.045   1.841 -0.5712  0.4316  0.3318
  749SOL     OW 2993   2.512   0.506   2.699  0.0283  0.4067  0.0941
  749SOL    HW1 2994   2.525   0.582   2.643  3.5364 -0.5294  0.3939
  749SOL    HW2 2995   2.505   0.553   2.783 -1.9214  1.9155  1.5744
  749SOL     MW 2996   2.513   0.522   2.703  0.2339  0.4823  0.3289
  750SOL     OW 2997   2.015   3.049   1.998  0.1024 -0.5120  0.0150
  750SOL    HW1 2998   2.046   3.140   2.021 -1.1745 -1.5391  0.4181
  750SOL    HW2 2999   2.093   3.000   1.985 -0.9412 -1.3678  1.1393
  750SOL     MW 3000   2.029   3.055   1.999 -0.2038 -0.7605  0.2165
  751SOL     OW 3001   0.077   0.431   2.329  0.1630 -0.4810  0.0824
  751SOL    HW1 3002   0.033   0.356   2.372  3.5893  0.8728 -0.3170
  751SOL    HW2 3003   0.144   0.394   2.272  1.1494  0.8158 -2.0125
  751SOL     MW 3004   0.080   0.416   2.327  0.7452 -0.1312 -0.2467
  752SOL     OW 3005   2.146   0.796   2.687  0.1250 -0.4514  0.1552
  752SOL    HW1 3006   2.217   0.848   2.649  0.4441 -0.7674  1.9487
  752SOL    HW2 3007   2.137   0.817   2.781 -1.1098 -2.2901  0.3767
  752SOL     MW 3008   2.154   0.806   2.695  0.0042 -0.7357  0.4211
  753SOL     OW 3009   2.923   0.283   2.423  0.1684 -0.6067  0.4372
  753SOL    HW1 3010   2.876   0.213   2.380 -4.1721 -1.1564 -0.1419
  753SOL    HW2 3011   2.900   0.367   2.387 -1.4577 -0.6108 -1.0000
  753SOL     MW 3012   2.914   0.285   2.412 -0.6188 -0.6798  0.1711
  754SOL     OW 3013   2.247   2.964   2.611  0.2376 -0.3641 -0.2346
  754SOL    HW1 3014   2.253   2.949   2.516  2.7479 -1.7425  2.1372
  754SOL    HW2 3015   2.322   2.918   2.652  3.0098 -1.9173 -2.3667
  754SOL     MW 3016   2.257   2.956   2.604  0.9346 -0.7509 -0.2030
  755SOL     OW 3017   2.738   1.510   2.483 -0.6675 -0.5428  0.0145
  755SOL    HW1 3018   2.707   1.435   2.538  1.8677 -0.6394 -1.5278
  755SOL    HW2 3019   2.799   1.565   2.534 -0.8442  1.1616 -0.3430
  755SOL     MW 3020   2.742   1.508   2.497 -0.3563 -0.3307 -0.2362
  756SOL     OW 3021   2.252   1.242   3.009 -0.6240 -0.8126  0.2956
  756SOL    HW1 3022   2.305   1.315   2.976 -1.0353 -0.0673 -0.4302
  756SOL    HW2 3023   2.317   1.167   3.032  2.3126 -0.4401  0.0721
  756SOL     MW 3024   2.268   1.241   3.008 -0.2908 -0.6651  0.1704
  757SOL     OW 3025   2.104   0.933   1.614 -0.1171  0.0074 -0.1221
  757SOL    HW1 3026   2.135   0.841   1.623 -1.6374 -0.5894 -0.4236
  757SOL    HW2 3027   2.017   0.924   1.570  0.0462 -0.6041  0.1363
  757SOL     MW 3028   2.096   0.920   1.610 -0.2962 -0.1520 -0.1278
  758SOL     OW 3029   2.190   1.720   2.664  0.1139 -0.7885  0.0868
  758SOL    HW1 3030   2.159   1.747   2.573 -3.0492  0.5203 -2.5250
  758SOL    HW2 3031   2.282   1.694   2.663  0.1809 -0.5521  0.1484
  758SOL     MW 3032   2.198   1.720   2.652 -0.2946 -0.5846 -0.2496
  759SOL     OW 3033   1.627   1.357   2.668  0.3548  0.5875 -0.8507
  759SOL    HW1 3034   1.620   1.447   2.638 -1.7053 -0.5503  0.3134
  759SOL    HW2 3035   1.682   1.367   2.746 -0.9972  0.8480 -1.2603
  759SOL     MW 3036   1.633   1.370   2.674 -0.0954  0.4718 -0.7511
  760SOL     OW 3037   2.627   1.992   2.698  0.4303 -0.1185  0.4537
  760SOL    HW1 3038   2.586   1.904   2.689 -2.4672  1.9688 -1.8994
  760SOL    HW2 3039   2.588   2.048   2.624 -2.6735  0.1734 -2.1975
  760SOL     MW 3040   2.617   1.988   2.687 -0.3615  0.1954 -0.2065
  761SOL     OW 3041   2.190   0.400   2.448  0.3531 -0.2602 -0.2242
  761SOL    HW1 3042   2.108   0.355   2.463  0.6208 -1.7361  0.9608
  761SOL    HW2 3043   2.193   0.453   2.529  2.4617  1.3768  1.4612
  761SOL     MW 3044   2.179   0.401   2.461  0.6666 -0.2389  0.1545
  762SOL     OW 3045   0.039   0.155   2.070 -0.1409  0.5073  0.5315
  762SOL    HW1 3046   0.030   0.104   2.151 -2.4653 -1.6302  0.1663
  762SOL    HW2 3047  -0.019   0.228   2.073 -3.8420 -1.4503  2.3933
  762SOL     MW 3048   0.030   0.158   2.081 -0.9359 -0.0330  0.7290
  763SOL     OW 3049   2.393   1.062   2.296 -0.7386  0.1225  0.4594
  763SOL    HW1 3050   2.437   1.029   2.217  1.7813 -1.9408  0.5644
  763SOL    HW2 3051   2.463   1.123   2.332 -1.3259 -0.4657 -0.3383
  763SOL     MW 3052   2.408   1.066   2.290 -0.4836 -0.2274  0.3680
  764SOL     OW 3053   0.436   0.317   2.794 -0.0691 -0.2390  0.0947
  764SOL    HW1 3054   0.360   0.256   2.774  2.4454 -0.3919  1.2490
  764SOL    HW2 3055   0.399   0.384   2.855 -1.9116  0.3022 -1.0462
  764SOL     MW 3056   0.421   0.318   2.800  0.0196 -0.1878  0.0965
  765SOL     OW 3057   2.757   0.095   2.315  0.3567  0.0663 -0.0892
  765SOL    HW1 3058   2.718   0.074   2.228  0.9984  1.0739 -1.5800
  765SOL    HW2 3059   2.789   0.013   2.355 -0.4934  1.3653  0.7826
  765SOL     MW 3060   2.756   0.081   2.309  0.3292  0.3706 -0.1709
  766SOL     OW 3061   1.837   2.987   2.188 -0.7545 -0.2509 -0.6805
  766SOL    HW1 3062   1.885   3.019   2.109 -2.2120 -0.9371 -0.5762
  766SOL    HW2 3063   1.778   2.911   2.154 -3.3129  0.8294 -0.6153
  766SOL     MW 3064   1.836   2.981   2.173 -1.2844 -0.1989 -0.6582
  767SOL     OW 3065   2.637   0.636   1.890  0.3402  0.3340  0.3108
  767SOL    HW1 3066   2.683   0.682   1.958 -0.9294 -0.9881 -0.0514
  767SOL    HW2 3067   2.548   0.622   1.923 -0.2079  0.8209 -2.4708
  767SOL     MW 3068   2.631   0.640   1.903  0.1004  0.2238 -0.1040
  768SOL     OW 3069   0.025   1.533   2.930 -0.6820  0.0849 -0.2980
  768SOL    HW1 3070   0.023   1.496   3.025  0.3811 -0.0782  2.8130
  768SOL    HW2 3071   0.018   1.448   2.873 -1.8106 -0.3926  0.0679
  768SOL     MW 3072   0.024   1.517   2.935 -0.6907  0.0004  0.1608
  769SOL     OW 3073   2.402   0.677   2.339  0.6548 -0.1771  0.4172
  769SOL    HW1 3074   2.302   0.677   2.338 -1.7657 -0.4964  1.5812
  769SOL    HW2 3075   2.437   0.611   2.273  0.9594  0.1944 -1.3991
  769SOL     MW 3076   2.393   0.668   2.330  0.3756 -0.1702  0.3312
  770SOL     OW 3077   0.104   1.593   2.609 -0.4946 -0.6730  0.4504
  770SOL    HW1 3078   0.007   1.591   2.582 -0.2492  0.8521 -0.8206
  770SOL    HW2 3079   0.109   1.510   2.665 -0.3124 -1.7045 -2.5661
  770SOL     MW 3080   0.091   1.582   2.613 -0.4382 -0.6079 -0.1153
  771SOL     OW 3081   2.958   0.622   1.925  0.0900 -0.1593  0.2069
  771SOL    HW1 3082   2.911   0.624   1.838 -0.2957  1.1956  0.4597
  771SOL    HW2 3083   3.018   0.692   1.908 -0.1652  0.4194 -1.0799
  771SOL     MW 3084   2.960   0.631   1.912  0.0055  0.0958  0.0705
  772SOL     OW 3085   0.004   3.095   2.300  0.1849 -0.0276  0.0858
  772SOL    HW1 3086  -0.070   3.038   2.292 -0.5030  0.6125 -0.5473
  772SOL    HW2 3087   0.078   3.037   2.266  1.6894 -1.3501 -0.3780
  772SOL     MW 3088   0.004   3.080   2.294  0.2927 -0.1177 -0.0589
  773SOL     OW 3089   2.479   2.849   2.734 -0.3558  0.2000 -0.3143
  773SOL    HW1 3090   2.449   2.765   2.691 -0.1157  0.2676 -2.2162
  773SOL    HW2 3091   2.456   2.837   2.827  1.1296 -1.7446 -0.6725
  773SOL     MW 3092   2.472   2.836   2.740 -0.1282 -0.0476 -0.6125
  774SOL     OW 3093   2.265   1.148   1.704  0.3695 -0.7428 -0.2399
  774SOL    HW1 3094   2.286   1.206   1.629 -1.8954  0.5255  0.2388
  774SOL    HW2 3095   2.223   1.064   1.672 -1.3673 -3.9993  0.3842
  774SOL     MW 3096   2.262   1.145   1.690 -0.1585 -1.0051 -0.0944
  775SOL     OW 3097   2.295   2.909   2.319 -0.2147  0.4615  0.2038
  775SOL    HW1 3098   2.319   2.993   2.278 -1.3905  2.2226  1.7533
  775SOL    HW2 3099   2.363   2.846   2.287 -0.3234 -4.2322  1.0800
  775SOL     MW 3100   2.307   2.912   2.310 -0.3842  0.0745  0.5239
  776SOL     OW 3101   0.060   1.467   0.112  0.6742  0.4925 -0.0841
  776SOL    HW1 3102   0.149   1.430   0.099  0.4288  3.6572 -0.1220
  776SOL    HW2 3103   0.023   1.376   0.113 -2.7935 -0.2384  0.1630
  776SOL     MW 3104   0.067   1.450   0.110  0.1843  0.8136 -0.0565
  777SOL     OW 3105   2.975   1.072   1.762 -0.3842 -0.1668  0.4686
  777SOL    HW1 3106   2.909   1.139   1.745 -0.2366 -0.3683 -2.2593
  777SOL    HW2 3107   2.928   1.012   1.821 -0.8592  2.2705 -1.3682
  777SOL     MW 3108   2.960   1.073   1.768 -0.4274  0.1282 -0.1337
  778SOL     OW 3109   2.899   0.418   2.794 -0.0725  0.0449  0.2414
  778SOL    HW1 3110   2.829   0.451   2.862  1.1599 -0.4794  3.2337
  778SOL    HW2 3111   2.902   0.488   2.726  2.1427  0.3878  1.7187
  778SOL     MW 3112   2.890   0.432   2.794  0.3824  0.0209  0.8311
  779SOL     OW 3113   2.121   0.640   2.312  0.7173  0.4028  0.0458
  779SOL    HW1 3114   2.031   0.672   2.361  0.1100 -1.9368  1.2547
  779SOL    HW2 3115   2.103   0.550   2.312 -2.6531  0.4449  2.6700
  779SOL     MW 3116   2.106   0.633   2.318  0.1925  0.0997  0.5516
  780SOL     OW 3117   0.226   0.090   2.808  0.2882 -0.3676 -0.3329
  780SOL    HW1 3118   0.197   0.152   2.875  4.3437  0.1099  0.7326
  780SOL    HW2 3119   0.163   0.092   2.738 -2.1016 -1.8748  0.3309
  780SOL     MW 3120   0.214   0.099   2.808  0.5080 -0.5034 -0.1047
  781SOL     OW 3121   3.007   1.298   2.497 -0.2797  0.0159 -0.2431
  781SOL    HW1 3122   2.982   1.362   2.434  0.2021 -0.9043  1.4618
  781SOL    HW2 3123   3.029   1.218   2.451  0.8505  3.9120 -1.2063
  781SOL     MW 3124   3.007   1.296   2.483 -0.0670  0.4085 -0.1452
  782SOL     OW 3125   0.626   1.530   3.088 -0.4526 -0.5647 -0.8392
  782SOL    HW1 3126   0.565   1.588   3.050 -2.0178 -1.3109  0.0647
  782SOL    HW2 3127   0.586   1.509   3.176 -2.7812 -0.5550  2.2436
  782SOL     MW 3128   0.612   1.534   3.095 -0.9664 -0.6619 -0.3132
  783SOL     OW 3129   2.715   0.509   2.462 -0.1891 -0.0347  0.0365
  783SOL    HW1 3130   2.658   0.485   2.384  0.7862 -0.7402 -0.6027
  783SOL    HW2 3131   2.708   0.436   2.527  1.0554  0.9490  0.4847
  783SOL     MW 3132   2.707   0.496   2.460  0.1038  0.0020  0.0113
  784SOL     OW 3133   0.264   0.901   2.877  0.0843  0.3416  0.0134
  784SOL    HW1 3134   0.195   0.963   2.912 -0.2649 -2.3214 -0.4707
  784SOL    HW2 3135   0.306   0.948   2.811 -1.9537 -4.8994  1.4500
  784SOL     MW 3136   0.260   0.916   2.873 -0.2306 -0.7013  0.1391
  785SOL     OW 3137   0.447   0.557   2.175 -0.2026  0.0219 -0.3652
  785SOL    HW1 3138   0.469   0.579   2.083  3.0515  2.6179 -0.0131
  785SOL    HW2 3139   0.372   0.499   2.182  0.9327 -0.7997  1.4361
  785SOL     MW 3140   0.440   0.552   2.163  0.3765  0.2560 -0.0811
  786SOL     OW 3141   1.943   0.485   2.862  0.1345 -0.4518 -0.8339
  786SOL    HW1 3142   1.936   0.522   2.946 -1.5584 -0.5031  1.9592
  786SOL    HW2 3143   2.031   0.470   2.854 -4.3995  1.3976 -2.0536
  786SOL     MW 3144   1.954   0.488   2.872 -0.6871 -0.2145 -0.6263
  787SOL     OW 3145   2.428   0.136   2.972 -0.3534  0.2680  0.2709
  787SOL    HW1 3146   2.492   0.098   2.911  1.8621  2.9195  2.3659
  787SOL    HW2 3147   2.473   0.205   3.016  1.1482 -2.7539  0.0256
  787SOL     MW 3148   2.442   0.140   2.970  0.1370  0.2191  0.5150
  788SOL     OW 3149   2.853   2.939   2.387 -0.2837  0.0220 -0.0457
  788SOL    HW1 3150   2.789   2.893   2.335  2.9921  0.2238  1.6417
  788SOL    HW2 3151   2.912   2.877   2.428 -0.1155 -3.4936  0.7263
  788SOL     MW 3152   2.852   2.925   2.386  0.1707 -0.4152  0.2788
  789SOL     OW 3153   0.115   0.310   2.957  0.1009 -0.4442 -0.3340
  789SOL    HW1 3154   0.026   0.267   2.966 -0.0410  0.3019  2.3095
  789SOL    HW2 3155   0.085   0.405   2.955 -2.1070  1.6025 -1.7599
  789SOL     MW 3156   0.099   0.317   2.958 -0.2091 -0.0757 -0.1733
  790SOL     OW 3157   3.058   1.020   2.428  0.6114 -0.4933  0.2428
  790SOL    HW1 3158   3.019   0.977   2.503 -0.0809  0.5299  2.0749
  790SOL    HW2 3159   2.985   1.019   2.361  3.6226  1.2975 -0.4394
  790SOL     MW 3160   3.043   1.014   2.429  0.9174 -0.1220  0.3945
  791SOL     OW 3161   2.684   0.310   2.654  0.6199  0.2141 -0.0093
  791SOL    HW1 3162   2.617   0.388   2.673  1.0895  0.4323 -0.2921
  791SOL    HW2 3163   2.763   0.334   2.703  0.7862  1.1053  0.6896
  791SOL     MW 3164   2.685   0.324   2.663  0.7038  0.3605  0.0456
  792SOL     OW 3165   2.390   0.224   2.364  0.2694 -0.0010  0.2412
  792SOL    HW1 3166   2.332   0.278   2.417  1.5617  0.8995  0.3554
  792SOL    HW2 3167   2.456   0.187   2.425  1.2797 -1.3478  1.3511
  792SOL     MW 3168   2.391   0.226   2.379  0.5732 -0.0599  0.4027
  793SOL     OW 3169   1.852   1.093   1.954 -0.1623 -0.3702 -0.2872
  793SOL    HW1 3170   1.860   1.114   1.866  2.7178  0.5193  2.3413
  793SOL    HW2 3171   1.905   1.013   1.961 -0.7314  3.1155  2.0726
  793SOL     MW 3172   1.860   1.085   1.943  0.1426  0.2071  0.3709
  794SOL     OW 3173   1.441   2.289   0.161  0.7320 -0.2590  0.6502
  794SOL    HW1 3174   1.439   2.360   0.095 -0.0302  0.0318 -2.4373
  794SOL    HW2 3175   1.501   2.305   0.235  0.5144 -2.3746  1.5786
  794SOL     MW 3176   1.449   2.301   0.162  0.6027 -0.4998  0.3653
  795SOL     OW 3177   2.345   0.967   2.560 -0.4332 -0.0263 -0.0189
  795SOL    HW1 3178   2.309   1.034   2.616 -0.0829 -1.5731  2.6012
  795SOL    HW2 3179   2.402   1.001   2.487  1.4701  2.0497  3.9060
  795SOL     MW 3180   2.348   0.981   2.558 -0.1358  0.0435  0.8447
  796SOL     OW 3181   0.229   0.656   2.798  0.3356  0.6623 -0.2723
  796SOL    HW1 3182   0.218   0.740   2.838 -2.1073  0.7611 -1.7251
  796SOL    HW2 3183   0.157   0.641   2.739 -0.7178  1.4270  0.5039
  796SOL     MW 3184   0.218   0.665   2.795 -0.1257  0.7763 -0.3616
  797SOL     OW 3185   2.576   0.110   2.508 -0.3775  0.0793  0.2350
  797SOL    HW1 3186   2.602   0.193   2.573  0.6446  0.6044  0.5921
  797SOL    HW2 3187   2.647   0.106   2.434  0.4601 -0.3033 -0.0378
  797SOL     MW 3188   2.589   0.120   2.507 -0.1321  0.0981  0.2461
  798SOL     OW 3189   2.359   0.032   2.159  0.0147 -0.3990 -0.1911
  798SOL    HW1 3190   2.354   0.113   2.222  0.2023 -0.6191  1.2405
  798SOL    HW2 3191   2.443   0.049   2.124 -0.5888  0.6780 -1.1604
  798SOL     MW 3192   2.369   0.045   2.163 -0.0401 -0.2859 -0.1301
  799SOL     OW 3193   2.452   2.913   0.143 -0.1297 -0.0071  0.0272
  799SOL    HW1 3194   2.433   2.858   0.067 -0.1101  0.6235  1.0558
  799SOL    HW2 3195   2.376   2.972   0.148  0.8755 -0.5240  0.1558
  799SOL     MW 3196   2.439   2.913   0.133  0.0055  0.0079  0.1799
  800SOL     OW 3197   1.841   3.097   1.800  0.0548 -0.8173 -0.5272
  800SOL    HW1 3198   1.817   3.007   1.776 -0.4456  0.6083 -1.2355
  800SOL    HW2 3199   1.903   3.085   1.876  0.8992 -0.6699 -1.6806
  800SOL     MW 3200   1.846   3.083   1.807  0.1002 -0.6097 -0.7728
  801SOL     OW 3201   2.778   1.284   2.662  0.0941  0.8691  0.0610
  801SOL    HW1 3202   2.754   1.191   2.633  1.1563 -1.7348 -0.8035
  801SOL    HW2 3203   2.857   1.301   2.614 -1.8454 -2.3950  3.6754
  801SOL     MW 3204   2.785   1.274   2.652 -0.0217  0.0949  0.4238
  802SOL     OW 3205   2.570   1.571   2.829 -0.5100 -0.2481  0.1081
  802SOL    HW1 3206   2.552   1.483   2.784  1.2799 -0.3850 -2.0680
  802SOL    HW2 3207   2.670   1.569   2.838  2.9405 -0.6484  0.4388
  802SOL     MW 3208   2.581   1.559   2.824  0.1814 -0.3190 -0.1354
  803SOL     OW 3209   2.312   1.341   1.968  0.3904  0.5269 -0.0950
  803SOL    HW1 3210   2.270   1.315   2.048  0.1867 -0.2025  1.6856
  803SOL    HW2 3211   2.259   1.309   1.897  0.0028 -2.7010  1.5471
  803SOL     MW 3212   2.299   1.333   1.969  0.3124  0.0048  0.3566
  804SOL     OW 3213   2.262   0.049   0.074  0.4366 -0.0361 -0.2485
  804SOL    HW1 3214   2.177   0.102   0.077  1.4865  0.3109 -0.9067
  804SOL    HW2 3215   2.320   0.096   0.014 -1.1625  0.9770  0.6045
  804SOL     MW 3216   2.259   0.063   0.066  0.3641  0.1434 -0.2228
  805SOL     OW 3217   2.716   1.033   2.516 -0.0568 -0.5211 -0.1350
  805SOL    HW1 3218   2.695   1.004   2.427 -0.4313 -0.4327 -0.7299
  805SOL    HW2 3219   2.765   0.963   2.557 -0.9635 -0.5141  2.9121
  805SOL     MW 3220   2.720   1.020   2.510 -0.2258 -0.5085  0.1885
  806SOL     OW 3221   2.588   0.404   2.252  0.3343  0.2246  0.1352
  806SOL    HW1 3222   2.498   0.373   2.287 -1.0848 -1.4987  1.5229
  806SOL    HW2 3223   2.587   0.393   2.156 -1.8593  1.4860  0.8667
  806SOL     MW 3224   2.576   0.399   2.244 -0.1423  0.1637  0.4148
  807SOL     OW 3225   0.019   1.127   2.027 -0.5571 -0.0395  0.0673
  807SOL    HW1 3226   0.084   1.050   2.005 -0.9489 -1.0903  0.3866
  807SOL    HW2 3227  -0.052   1.082   2.075 -2.9497 -2.2685  1.8055
  807SOL     MW 3228   0.018   1.111   2.030 -0.9244 -0.4722  0.3388
  808SOL     OW 3229   2.569   3.101   2.771  0.3636  0.1359  0.0323
  808SOL    HW1 3230   2.543   3.009   2.759  0.5988  1.0525  0.2428
  808SOL    HW2 3231   2.588   3.125   2.676  0.9175  1.0584 -2.5778
  808SOL     MW 3232   2.568   3.092   2.757  0.4677  0.3786 -0.2843
  809SOL     OW 3233   2.566   1.257   2.393  0.5149 -0.1119 -0.6730
  809SOL    HW1 3234   2.621   1.211   2.462  1.2627 -0.5935  1.7308
  809SOL    HW2 3235   2.639   1.277   2.329  0.6766  2.2551 -1.4477
  809SOL     MW 3236   2.583   1.254   2.394  0.6349  0.1368 -0.4580
  810SOL     OW 3237   2.238   1.302   2.215 -0.3421 -0.7150  0.3855
  810SOL    HW1 3238   2.279   1.224   2.253 -1.9376 -0.0701 -0.3398
  810SOL    HW2 3239   2.145   1.271   2.200 -0.3387  0.0021 -1.2854
  810SOL     MW 3240   2.231   1.288   2.218 -0.5522 -0.5353  0.0693
  811SOL     OW 3241   1.553   0.082   2.276  0.1043 -0.1329 -0.1479
  811SOL    HW1 3242   1.637   0.051   2.305 -4.7982  0.5957  1.9727
  811SOL    HW2 3243   1.548   0.093   2.184 -2.1309 -2.3846  3.4374
  811SOL     MW 3244   1.563   0.079   2.268 -0.8374 -0.3338  0.6049
  812SOL     OW 3245   1.437   2.776   2.052  0.4555  0.1812 -0.6002
  812SOL    HW1 3246   1.533   2.771   2.038 -0.7988 -0.3155 -0.1376
  812SOL    HW2 3247   1.424   2.732   2.137 -1.5762 -0.8971 -0.0830
  812SOL     MW 3248   1.448   2.770   2.062  0.0219 -0.0266 -0.4709
  813SOL     OW 3249   1.777   0.709   2.203  0.2493 -0.2234 -0.4071
  813SOL    HW1 3250   1.745   0.623   2.235 -0.8623  0.6139 -0.6743
  813SOL    HW2 3251   1.836   0.739   2.274 -0.5449  0.9293 -1.2424
  813SOL     MW 3252   1.780   0.701   2.217 -0.0021  0.0392 -0.5526
  814SOL     OW 3253   2.787   1.224   1.653 -0.0848  0.1756 -0.0784
  814SOL    HW1 3254   2.712   1.190   1.703 -2.4888  1.3888  0.0948
  814SOL    HW2 3255   2.758   1.225   1.563 -0.6501  1.0970 -0.9613
  814SOL     MW 3256   2.774   1.220   1.648 -0.4766  0.4572 -0.1720
  815SOL     OW 3257   2.515   1.638   2.404 -0.1619 -0.3013 -0.6285
  815SOL    HW1 3258   2.440   1.576   2.390 -0.1652 -0.7951  0.9949
  815SOL    HW2 3259   2.594   1.590   2.432  2.8118  0.6177  3.3319
  815SOL     MW 3260   2.515   1.623   2.406  0.2300 -0.2452  0.1082
  816SOL     OW 3261   0.751   0.622   2.769 -0.3274  0.2807  0.1782
  816SOL    HW1 3262   0.766   0.546   2.821 -0.5481 -0.7520 -0.3138
  816SOL    HW2 3263   0.667   0.607   2.729  2.3027 -0.9886  1.3831
  816SOL     MW 3264   0.742   0.610   2.771 -0.0095 -0.0230  0.2723
  817SOL     OW 3265   3.052   1.174   1.362  0.8987 -0.5889 -0.0540
  817SOL    HW1 3266   3.101   1.166   1.445 -2.4951 -0.8150  1.2543
  817SOL    HW2 3267   3.035   1.271   1.351 -1.3115 -1.7900  1.4841
  817SOL     MW 3268   3.056   1.186   1.371  0.1593 -0.7772  0.3216
  818SOL     OW 3269   1.922   0.991   2.775 -0.3866  0.0252  0.1181
  818SOL    HW1 3270   1.856   1.014   2.708  0.2521  1.2201 -1.9194
  818SOL    HW2 3271   1.957   0.909   2.748 -0.6640  1.5399  1.8464
  818SOL     MW 3272   1.918   0.983   2.763 -0.3389  0.3827  0.0773
  819SOL     OW 3273   1.944   0.266   2.490 -0.5961 -0.7736 -0.2894
  819SOL    HW1 3274   1.868   0.318   2.508  2.3166 -0.4977 -1.8623
  819SOL    HW2 3275   1.984   0.253   2.577  0.1324 -1.6643  0.4312
  819SOL     MW 3276   1.940   0.271   2.504 -0.1157 -0.8547 -0.4019
  820SOL     OW 3277   2.479   1.766   2.652  0.2076  0.1069 -0.2529
  820SOL    HW1 3278   2.504   1.703   2.724  0.1076 -0.4790  0.2684
  820SOL    HW2 3279   2.504   1.731   2.566 -1.4386 -2.7854  3.7412
  820SOL     MW 3280   2.485   1.753   2.650 -0.0228 -0.3520  0.3429
  821SOL     OW 3281   2.572   1.362   1.991 -0.0440  0.0851 -0.2818
  821SOL    HW1 3282   2.608   1.448   1.957  0.2642  0.3946  1.7678
  821SOL    HW2 3283   2.478   1.374   2.002  1.4726  1.6132 -3.6156
  821SOL     MW 3284   2.565   1.375   1.988  0.1968  0.3275 -0.4512
  822SOL     OW 3285   2.825   2.669   1.474  0.4480  0.5321  0.2076
  822SOL    HW1 3286   2.787   2.669   1.559 -1.2329 -1.1175 -0.3726
  822SOL    HW2 3287   2.776   2.738   1.425 -1.0192  2.1726 -1.6769
  822SOL     MW 3288   2.814   2.678   1.478  0.0326  0.5309 -0.1176
  823SOL     OW 3289   2.241   0.466   1.777 -0.2157  0.0385 -0.9151
  823SOL    HW1 3290   2.320   0.426   1.740  0.0658  1.0652 -0.9041
  823SOL    HW2 3291   2.163   0.402   1.771 -2.2417  0.1008  0.3653
  823SOL     MW 3292   2.241   0.452   1.771 -0.4459  0.1822 -0.7448
  824SOL     OW 3293   2.064   1.420   2.508  0.2320  0.3131 -0.0879
  824SOL    HW1 3294   2.147   1.435   2.540 -3.3226 -3.3729 -0.3171
  824SOL    HW2 3295   2.014   1.458   2.579  0.7712 -6.2068  1.7058
  824SOL     MW 3296   2.068   1.427   2.521 -0.1659 -1.0334  0.1185
  825SOL     OW 3297   2.061   2.535   0.299 -0.1953  0.1825  0.5380
  825SOL    HW1 3298   2.066   2.489   0.384 -2.3491 -0.6043  1.3986
  825SOL    HW2 3299   2.129   2.485   0.247 -1.4315 -0.1456  4.1393
  825SOL     MW 3300   2.071   2.522   0.303 -0.6426  0.0354  1.1267
  826SOL     OW 3301   1.919   2.355   0.518 -0.6741 -0.1234 -0.2853
  826SOL    HW1 3302   1.858   2.285   0.534 -0.9780  2.0812 -0.5911
  826SOL    HW2 3303   1.910   2.432   0.585  2.9741  0.0722 -1.0456
  826SOL     MW 3304   1.910   2.356   0.529 -0.2328  0.1933 -0.4259
  827SOL     OW 3305   1.965   2.193   0.819 -0.1276  0.1501  0.1949
  827SOL    HW1 3306   1.902   2.188   0.744 -1.2673  2.9299  0.1453
  827SOL    HW2 3307   1.919   2.149   0.894 -0.4893  0.1848  0.4592
  827SOL     MW 3308   1.951   2.186   0.819 -0.3257  0.5214  0.2232
  828SOL     OW 3309   0.070   2.621   0.502 -0.4801 -0.4060 -0.1615
  828SOL    HW1 3310   0.168   2.634   0.510  1.8281 -0.2186  2.6119
  828SOL    HW2 3311   0.050   2.673   0.424 -0.1402  0.8358  0.8890
  828SOL     MW 3312   0.081   2.629   0.493 -0.1307 -0.2174  0.3431
  829SOL     OW 3313   3.000   2.955   1.218 -0.1639  0.0014 -0.3242
  829SOL    HW1 3314   2.920   2.930   1.170  0.2055 -0.6476  1.2343
  829SOL    HW2 3315   3.051   2.878   1.214  1.1361 -1.0631  0.2406
  829SOL     MW 3316   2.996   2.942   1.211  0.0563 -0.2247 -0.0441
  830SOL     OW 3317   2.533   2.871   2.032  0.3477 -0.2224  0.0829
  830SOL    HW1 3318   2.437   2.879   2.007 -0.8386 -1.6317  1.3557
  830SOL    HW2 3319   2.573   2.846   1.949 -3.6879  0.0570  0.7709
  830SOL     MW 3320   2.525   2.869   2.017 -0.3412 -0.3715  0.3416
  831SOL     OW 3321   2.375   2.447   1.231  0.1109 -0.1873  0.1424
  831SOL    HW1 3322   2.346   2.395   1.308  1.7939  0.7074  0.1696
  831SOL    HW2 3323   2.469   2.417   1.226  0.5537  0.1264  0.5447
  831SOL     MW 3324   2.384   2.436   1.240  0.3914 -0.0278  0.1991
  832SOL     OW 3325   2.395   2.154   1.839 -0.5575 -0.6640  0.0824
  832SOL    HW1 3326   2.392   2.248   1.838  3.6546 -0.6457  0.0114
  832SOL    HW2 3327   2.488   2.123   1.821  0.8894 -1.9926 -1.2057
  832SOL     MW 3328   2.407   2.162   1.836  0.1892 -0.8369 -0.0969
  833SOL     OW 3329   1.805   2.485   0.917 -0.2304  0.0364  0.4132
  833SOL    HW1 3330   1.722   2.434   0.915 -1.2615 -2.0338 -4.4212
  833SOL    HW2 3331   1.815   2.568   0.977  3.7003 -0.5057 -0.0644
  833SOL     MW 3332   1.795   2.489   0.925  0.1521 -0.3082 -0.2877
  834SOL     OW 3333   2.239   2.441   0.526 -0.3615  0.3709  1.0693
  834SOL    HW1 3334   2.225   2.351   0.552  4.2371  0.6124  2.5381
  834SOL    HW2 3335   2.279   2.431   0.437  0.3473  2.7849 -2.7572
  834SOL     MW 3336   2.242   2.428   0.517  0.3388  0.7213  0.7582
  835SOL     OW 3337   1.878   2.600   0.674 -0.4665 -0.0556  0.0814
  835SOL    HW1 3338   1.867   2.562   0.763  0.0436 -1.8962 -3.1127
  835SOL    HW2 3339   1.958   2.654   0.671  1.5258  1.1642  1.8996
  835SOL     MW 3340   1.887   2.602   0.685 -0.1363 -0.1375 -0.1002
  836SOL     OW 3341   2.004   2.172   1.640  0.3858  0.1934 -0.0226
  836SOL    HW1 3342   2.094   2.142   1.618  0.2018  0.9995 -2.2369
  836SOL    HW2 3343   2.011   2.210   1.728  0.6062  0.1225 -0.9380
  836SOL     MW 3344   2.017   2.173   1.649  0.3906  0.2904 -0.4355
  837SOL     OW 3345   2.057   0.173   0.702 -0.3728 -0.3650  0.4957
  837SOL    HW1 3346   1.974   0.210   0.655 -0.1913  1.8565 -0.6601
  837SOL    HW2 3347   2.082   0.109   0.633  2.0663  3.5725 -0.4062
  837SOL     MW 3348   2.049   0.169   0.687 -0.0270  0.4476  0.2242
  838SOL     OW 3349   2.869   2.050   0.914 -0.3477  0.2486  0.0462
  838SOL    HW1 3350   2.791   1.991   0.927  0.8068 -1.3930 -1.0365
  838SOL    HW2 3351   2.933   2.025   0.976 -0.9317  2.0188 -0.0830
  838SOL     MW 3352   2.867   2.039   0.924 -0.2724  0.2656 -0.1137
  839SOL     OW 3353   1.500   2.351   0.918  0.1656  0.4950  0.5885
  839SOL    HW1 3354   1.486   2.436   0.960  1.0270  1.5719 -2.6355
  839SOL    HW2 3355   1.545   2.294   0.983  0.3991  1.1517 -0.2936
  839SOL     MW 3356   1.504   2.355   0.932  0.3100  0.7237  0.0467
  840SOL     OW 3357   2.289   2.060   2.394 -0.7262  0.1556  0.3549
  840SOL    HW1 3358   2.235   2.109   2.343  1.1018  1.3809 -1.9767
  840SOL    HW2 3359   2.317   2.122   2.461  0.0921  1.9438  0.3380
  840SOL     MW 3360   2.286   2.074   2.396 -0.3770  0.5532  0.0450
  841SOL     OW 3361   2.223   2.439   0.065  0.0634 -0.2579 -0.6040
  841SOL    HW1 3362   2.227   2.472  -0.029 -0.4134 -0.6992 -1.4406
  841SOL    HW2 3363   2.196   2.348   0.065  0.4564  0.1421  0.6209
  841SOL     MW 3364   2.220   2.431   0.053  0.0523 -0.2633 -0.5527
  842SOL     OW 3365   2.662   1.995   1.520 -0.2798  0.5335 -1.3553
  842SOL    HW1 3366   2.598   1.932   1.529  0.2390  1.1123 -2.2970
  842SOL    HW2 3367   2.640   2.027   1.427  2.4484  1.4353  0.4872
  842SOL     MW 3368   2.651   1.991   1.509  0.1486  0.7288 -1.2365
  843SOL     OW 3369   2.636   2.812   1.791  0.1677  0.0720 -0.1972
  843SOL    HW1 3370   2.726   2.778   1.775  1.8668  0.0667  2.8820
  843SOL    HW2 3371   2.582   2.747   1.748  4.5530 -1.3017  0.4324
  843SOL     MW 3372   2.641   2.799   1.784  0.9705 -0.1100  0.2922
  844SOL     OW 3373   2.642   2.358   1.193  0.0033  0.2308  0.3040
  844SOL    HW1 3374   2.667   2.387   1.104 -1.4329 -2.8225 -0.3561
  844SOL    HW2 3375   2.723   2.372   1.249  0.8089 -3.6699 -0.4345
  844SOL     MW 3376   2.656   2.363   1.188 -0.0799 -0.6867  0.1195
  845SOL     OW 3377   2.832   2.548   0.356  0.0285  0.1260  0.2075
  845SOL    HW1 3378   2.777   2.467   0.352 -1.0058 -2.3004  0.3352
  845SOL    HW2 3379   2.797   2.596   0.435 -0.2658 -0.2447 -0.3837
  845SOL     MW 3380   2.820   2.543   0.366 -0.1468 -0.2430  0.1463
  846SOL     OW 3381   1.496   2.805   0.843 -0.1212 -0.4249 -0.1064
  846SOL    HW1 3382   1.572   2.863   0.852  2.4565 -1.6087 -0.3022
  846SOL    HW2 3383   1.417   2.861   0.857 -2.4982 -2.2051  0.8530
  846SOL     MW 3384   1.496   2.820   0.846 -0.0948 -0.8160 -0.0057
  847SOL     OW 3385   2.468   1.919   0.176 -0.1482 -0.1408 -0.4083
  847SOL    HW1 3386   2.495   1.838   0.225  1.4225 -2.0866  1.9053
  847SOL    HW2 3387   2.435   1.897   0.087 -0.8607 -0.0303 -1.5794
  847SOL     MW 3388   2.467   1.905   0.171 -0.0350 -0.3829 -0.2576
  848SOL     OW 3389   2.588   2.089   1.273 -0.3281 -0.1438 -0.3773
  848SOL    HW1 3390   2.613   2.173   1.247 -0.1705  0.5087  1.7213
  848SOL    HW2 3391   2.615   2.036   1.198  1.5422 -1.4225  0.4825
  848SOL     MW 3392   2.595   2.093   1.260 -0.0605 -0.2264  0.0131
  849SOL     OW 3393   2.062   2.774   0.775  0.8516 -0.6879  0.3579
  849SOL    HW1 3394   2.081   2.712   0.844 -0.4892  2.5835  0.6602
  849SOL    HW2 3395   2.142   2.762   0.717  1.6790  1.0736 -0.0779
  849SOL     MW 3396   2.075   2.764   0.776  0.7839 -0.0238  0.3403
  850SOL     OW 3397   2.264   1.811   1.640 -0.0658 -0.1672  0.2206
  850SOL    HW1 3398   2.183   1.772   1.611  2.9555 -2.8249  2.0954
  850SOL    HW2 3399   2.265   1.908   1.613  1.7165  1.3876 -2.0586
  850SOL     MW 3400   2.254   1.819   1.633  0.5680 -0.3127  0.1673
  851SOL     OW 3401   2.387   2.383   0.297  0.9123 -0.2793  0.1927
  851SOL    HW1 3402   2.362   2.405   0.204  0.7937 -2.8735 -0.3752
  851SOL    HW2 3403   2.479   2.347   0.296  0.8044 -2.1052  1.6091
  851SOL     MW 3404   2.396   2.381   0.285  0.8824 -0.8625  0.3047
  852SOL     OW 3405   2.335   2.097   0.348 -0.2673  0.0528  0.4185
  852SOL    HW1 3406   2.361   2.188   0.321 -0.4927  2.7230  0.3697
  852SOL    HW2 3407   2.377   2.048   0.275 -0.0135  1.1231 -0.3711
  852SOL     MW 3408   2.344   2.103   0.335 -0.2636  0.5463  0.3079
  853SOL     OW 3409   2.450   2.424   1.905 -0.4320 -0.1270 -0.4406
  853SOL    HW1 3410   2.490   2.489   1.847  0.0116 -0.2885  1.7622
  853SOL    HW2 3411   2.530   2.408   1.961  1.2876 -0.8385 -0.2917
  853SOL     MW 3412   2.466   2.430   1.905 -0.1466 -0.2422 -0.1303
  854SOL     OW 3413   2.846   2.277   0.761 -0.1086 -0.2548  0.2242
  854SOL    HW1 3414   2.772   2.253   0.697  1.8560 -3.0731 -1.8324
  854SOL    HW2 3415   2.859   2.193   0.811  0.4048  2.7401  0.8522
  854SOL     MW 3416   2.838   2.263   0.759  0.2183 -0.2315  0.0357
  855SOL     OW 3417   2.659   2.323   0.324  0.1667  0.7223 -0.4273
  855SOL    HW1 3418   2.627   2.352   0.415  1.0300  2.8900  1.5299
  855SOL    HW2 3419   2.707   2.236   0.343 -0.3590  0.7371  2.2280
  855SOL     MW 3420   2.661   2.315   0.339  0.2113  1.0103  0.1813
  856SOL     OW 3421   2.121   1.917   0.219  0.2935  0.3519  0.0331
  856SOL    HW1 3422   2.030   1.899   0.249 -0.1059 -1.2100  1.0889
  856SOL    HW2 3423   2.148   2.011   0.233  0.6068 -0.7790  0.2565
  856SOL     MW 3424   2.113   1.927   0.225  0.2821 -0.0034  0.2019
  857SOL     OW 3425   2.464   1.966   0.547 -0.0331  0.3863  0.2089
  857SOL    HW1 3426   2.420   2.024   0.475  0.8653 -1.5473 -1.3802
  857SOL    HW2 3427   2.404   1.975   0.631  0.8416 -0.9375  0.2841
  857SOL     MW 3428   2.450   1.975   0.549  0.2008 -0.0435  0.0091
  858SOL     OW 3429   2.886   2.699   1.770 -0.4084 -0.1395  0.0488
  858SOL    HW1 3430   2.970   2.710   1.734 -0.5621  0.7740 -0.0882
  858SOL    HW2 3431   2.874   2.602   1.781 -0.3883 -0.6444  1.7379
  858SOL     MW 3432   2.896   2.687   1.766 -0.4260 -0.0855  0.2536
  859SOL     OW 3433   2.129   2.602   0.966 -0.5741  0.8148  0.6566
  859SOL    HW1 3434   2.110   2.511   0.991 -0.6399  2.5430  1.7495
  859SOL    HW2 3435   2.157   2.640   1.047  0.3943 -0.1014 -0.0952
  859SOL     MW 3436   2.130   2.595   0.980 -0.4550  0.9219  0.7016
  860SOL     OW 3437   2.701   2.623   0.132 -0.1356 -0.2447  0.0999
  860SOL    HW1 3438   2.745   2.592   0.215  2.3376 -1.4007  2.5499
  860SOL    HW2 3439   2.744   2.713   0.109 -0.3190  3.7769 -2.8998
  860SOL     MW 3440   2.713   2.631   0.140  0.1665  0.1334  0.0274
  861SOL     OW 3441   1.615   2.194   1.106  0.4245 -0.1971 -0.3904
  861SOL    HW1 3442   1.606   2.283   1.144  0.2538 -0.1624 -0.9431
  861SOL    HW2 3443   1.560   2.137   1.157 -0.3467 -0.1131 -0.4270
  861SOL     MW 3444   1.606   2.198   1.118  0.3003 -0.1815 -0.4682
  862SOL     OW 3445   2.500   1.774   1.516  0.2631 -0.3367 -0.1981
  862SOL    HW1 3446   2.417   1.777   1.561  0.0978 -0.5348  0.2319
  862SOL    HW2 3447   2.475   1.749   1.428 -1.9303 -0.7132  0.5933
  862SOL     MW 3448   2.486   1.771   1.511 -0.0481 -0.4125 -0.0370
  863SOL     OW 3449   2.979   1.772   1.054 -0.4644  0.4113  0.0996
  863SOL    HW1 3450   3.061   1.777   1.099 -0.9638 -2.2518 -1.9487
  863SOL    HW2 3451   2.906   1.784   1.112  1.5621 -1.3619 -0.1107
  863SOL     MW 3452   2.980   1.774   1.067 -0.2629 -0.1740 -0.1984
  864SOL     OW 3453   0.040   1.838   0.815  0.7526 -0.0507  0.3756
  864SOL    HW1 3454   0.003   1.817   0.903 -0.7499  1.6987  0.2007
  864SOL    HW2 3455  -0.015   1.813   0.737  0.4045  3.0207  0.2879
  864SOL     MW 3456   0.028   1.832   0.816  0.5085  0.5854  0.3409
  865SOL     OW 3457   2.514   2.176   0.059  0.4957 -0.4377 -0.3156
  865SOL    HW1 3458   2.557   2.094   0.093  2.4827 -1.3857 -2.3984
  865SOL    HW2 3459   2.510   2.182  -0.033 -0.2256 -2.5673 -0.0277
  865SOL     MW 3460   2.519   2.166   0.052  0.6627 -0.8437 -0.5525
  866SOL     OW 3461   2.662   2.357   1.616  0.1164 -0.0367 -0.3364
  866SOL    HW1 3462   2.640   2.264   1.632  1.6472 -0.4354  0.9279
  866SOL    HW2 3463   2.713   2.352   1.532 -2.3012  2.4687 -2.4257
  866SOL     MW 3464   2.666   2.344   1.607 -0.0006  0.2413 -0.4453
  867SOL     OW 3465   0.093   2.669   1.793  0.3001  0.1924  0.2503
  867SOL    HW1 3466   0.141   2.740   1.848  0.5694 -0.1094 -0.0622
  867SOL    HW2 3467   0.126   2.695   1.707 -0.8505 -3.0561 -2.2001
  867SOL     MW 3468   0.104   2.682   1.789  0.1838 -0.2760 -0.1143
  868SOL     OW 3469   2.751   2.719   0.567  0.0328 -0.2135  0.0748
  868SOL    HW1 3470   2.686   2.646   0.588  0.4844 -2.8300 -0.6713
  868SOL    HW2 3471   2.701   2.787   0.517 -2.4268  2.1978  1.5021
  868SOL     MW 3472   2.736   2.719   0.564 -0.2322 -0.2406  0.1647
  869SOL     OW 3473   2.073   2.325   1.027 -0.4045  0.0078 -0.5525
  869SOL    HW1 3474   2.169   2.328   1.004  1.7526  2.4475 -0.2447
  869SOL    HW2 3475   2.037   2.307   0.936  3.2454 -2.8935 -1.7418
  869SOL     MW 3476   2.081   2.323   1.012  0.3617 -0.0531 -0.6688
  870SOL     OW 3477   2.145   0.022   0.492 -0.4255  0.4438 -0.2755
  870SOL    HW1 3478   2.215   0.076   0.448  2.0496  1.1068  0.3323
  870SOL    HW2 3479   2.182  -0.063   0.497  0.5606  2.8305  0.3523
  870SOL     MW 3480   2.159   0.018   0.487  0.0312  0.8462 -0.1125
  871SOL     OW 3481   2.455   2.090   0.932  0.2046  0.0119  0.1455
  871SOL    HW1 3482   2.394   2.044   0.877  0.7524  2.3508 -2.6579
  871SOL    HW2 3483   2.409   2.174   0.957  0.2639  0.7483 -0.7159
  871SOL     MW 3484   2.441   2.095   0.928  0.2847  0.4176 -0.3381
  872SOL     OW 3485   2.046   2.495   1.508  0.0599 -0.0468 -0.1758
  872SOL    HW1 3486   1.978   2.524   1.572  0.7805  0.8558 -0.1254
  872SOL    HW2 3487   2.004   2.454   1.427  0.6703  4.8605 -2.1731
  872SOL     MW 3488   2.032   2.493   1.506  0.2355  0.7198 -0.4327
  873SOL     OW 3489   2.894   2.071   1.970 -0.0803  0.9003 -0.1575
  873SOL    HW1 3490   2.901   2.121   2.055 -1.1725 -0.2204  1.2759
  873SOL    HW2 3491   2.968   2.117   1.924  2.7076 -3.2195  0.3239
  873SOL     MW 3492   2.905   2.084   1.975  0.1434  0.2088  0.0951
  874SOL     OW 3493   2.340   1.432   2.437  0.1774  0.4319 -0.6300
  874SOL    HW1 3494   2.287   1.403   2.365 -1.2428 -0.4357  0.1749
  874SOL    HW2 3495   2.414   1.379   2.426 -2.1850  0.9899 -1.2556
  874SOL     MW 3496   2.343   1.421   2.426 -0.3216  0.3911 -0.6063
  875SOL     OW 3497   2.349   2.337   0.985 -0.0854  0.1001  0.0238
  875SOL    HW1 3498   2.388   2.402   0.931 -1.6744 -0.9633  0.1465
  875SOL    HW2 3499   2.364   2.367   1.075  0.9893 -0.3137  1.3527
  875SOL     MW 3500   2.356   2.350   0.990 -0.1532 -0.0948  0.2153
  876SOL     OW 3501   3.066   2.267   1.369 -0.6271  0.4111 -0.4857
  876SOL    HW1 3502   3.086   2.300   1.281 -0.6582  2.1564  1.1160
  876SOL    HW2 3503   3.123   2.307   1.438  2.7330  1.6257 -3.7740
  876SOL     MW 3504   3.076   2.276   1.367 -0.1879  0.8016 -0.7082
  877SOL     OW 3505   3.084   2.843   0.312 -0.0946 -0.6043  0.0727
  877SOL    HW1 3506   3.162   2.896   0.295 -2.6199  0.7323  0.2655
  877SOL    HW2 3507   3.075   2.796   0.232 -1.1141  0.3633 -0.3466
  877SOL     MW 3508   3.093   2.844   0.299 -0.5623 -0.3003  0.0428
  878SOL     OW 3509   2.424   1.791   1.237  0.1521 -0.3139 -0.5164
  878SOL    HW1 3510   2.358   1.722   1.247  3.5146 -0.3427  3.5316
  878SOL    HW2 3511   2.509   1.742   1.242  0.6326 -1.5465 -0.1046
  878SOL     MW 3512   2.426   1.775   1.239  0.6592 -0.4803  0.0720
  879SOL     OW 3513   2.771   2.436   0.970  0.4182 -0.3715 -0.0674
  879SOL    HW1 3514   2.826   2.514   0.973  2.7294 -2.7687 -3.2489
  879SOL    HW2 3515   2.803   2.385   0.891  1.9508 -2.5611 -1.2136
  879SOL     MW 3516   2.783   2.440   0.960  0.9254 -0.9767 -0.6384
  880SOL     OW 3517   2.612   2.159   0.713 -0.4420  0.0270 -0.7756
  880SOL    HW1 3518   2.596   2.135   0.807  0.9323 -0.7099  0.4648
  880SOL    HW2 3519   2.563   2.099   0.665  0.1602 -1.8579 -1.4745
  880SOL     MW 3520   2.603   2.148   0.719 -0.1812 -0.3190 -0.7042
  881SOL     OW 3521   2.988   2.724   0.703 -0.3112  0.0085 -0.4364
  881SOL    HW1 3522   2.917   2.721   0.640  2.6400  0.3464  0.7876
  881SOL    HW2 3523   3.067   2.698   0.649  2.1972  2.1418 -1.3092
  881SOL     MW 3524   2.989   2.720   0.687  0.4091  0.3346 -0.3901
  882SOL     OW 3525   2.246   2.887   1.948  0.2394 -0.3185 -0.6049
  882SOL    HW1 3526   2.239   2.902   1.851 -0.6392  0.9164  2.4737
  882SOL    HW2 3527   2.221   2.792   1.960 -1.3243 -1.5720 -0.2118
  882SOL     MW 3528   2.241   2.877   1.937 -0.0828 -0.3209 -0.1468
  883SOL     OW 3529   2.342   2.205   1.360  0.4358 -0.1415 -0.2080
  883SOL    HW1 3530   2.412   2.155   1.318 -1.7652  2.7873 -0.7579
  883SOL    HW2 3531   2.263   2.181   1.323  2.1210  1.3653 -2.1625
  883SOL     MW 3532   2.341   2.195   1.350  0.3677  0.4437 -0.5385
  884SOL     OW 3533   1.958   1.820   1.074  0.2567 -0.1327  0.0842
  884SOL    HW1 3534   1.917   1.894   1.020 -1.6986  0.7864 -2.7573
  884SOL    HW2 3535   2.052   1.850   1.089  0.2793  0.7726 -1.0354
  884SOL     MW 3536   1.965   1.833   1.069  0.0017  0.1080 -0.4384
  885SOL     OW 3537   2.852   2.435   1.801 -0.4462 -0.2217 -0.3954
  885SOL    HW1 3538   2.930   2.380   1.785 -0.2540 -2.1622 -0.1125
  885SOL    HW2 3539   2.782   2.405   1.746  0.5134  2.2756  1.1057
  885SOL     MW 3540   2.853   2.424   1.791 -0.2942 -0.1482 -0.1600
  886SOL     OW 3541   2.830   2.395   1.390  0.0641 -0.0801 -0.1179
  886SOL    HW1 3542   2.917   2.357   1.374  4.1215 -0.6431 -0.6225
  886SOL    HW2 3543   2.841   2.477   1.432 -0.1518 -1.8505  0.1151
  886SOL     MW 3544   2.843   2.401   1.393  0.5710 -0.3879 -0.1537
  887SOL     OW 3545   2.269   2.657   1.545 -0.4227  0.1217 -0.2561
  887SOL    HW1 3546   2.310   2.687   1.461 -1.0834  4.4138 -0.6455
  887SOL    HW2 3547   2.183   2.628   1.517 -0.2754  0.2764 -1.0664
  887SOL     MW 3548   2.263   2.657   1.530 -0.4904  0.7084 -0.4144
  888SOL     OW 3549   1.873   2.163   1.390  0.8214 -0.2533 -0.4502
  888SOL    HW1 3550   1.953   2.144   1.336 -0.2965 -1.0896 -0.4983
  888SOL    HW2 3551   1.902   2.179   1.484 -2.1585 -0.1171  1.1874
  888SOL     MW 3552   1.887   2.162   1.395  0.2807 -0.3457 -0.2405
  889SOL     OW 3553   2.355   2.025   2.083  0.0659  0.1849 -0.3488
  889SOL    HW1 3554   2.427   1.985   2.134 -0.4013 -3.6707 -1.1928
  889SOL    HW2 3555   2.389   2.055   2.000  0.8665  0.3715 -0.1582
  889SOL     MW 3556   2.369   2.024   2.078  0.1099 -0.2992 -0.4350
  890SOL     OW 3557   0.072   2.380   0.142 -0.3107 -0.1873  0.1115
  890SOL    HW1 3558   0.021   2.458   0.145 -0.5340 -0.5852 -1.1291
  890SOL    HW2 3559   0.049   2.327   0.220 -0.0721 -0.3757 -2.4804
  890SOL     MW 3560   0.062   2.383   0.153 -0.3087 -0.2647 -0.3941
  891SOL     OW 3561   3.084   1.984   1.264 -0.3395 -0.1149 -0.0493
  891SOL    HW1 3562   3.151   1.912   1.255 -0.8445 -2.9332 -3.1276
  891SOL    HW2 3563   3.116   2.064   1.306 -0.9896  0.6362 -0.3234
  891SOL     MW 3564   3.097   1.985   1.269 -0.4919 -0.3877 -0.4917
  892SOL     OW 3565   2.463   2.367   2.765  0.0549  0.5956  0.2023
  892SOL    HW1 3566   2.420   2.285   2.803 -0.4138  2.9145 -1.2465
  892SOL    HW2 3567   2.560   2.353   2.799  0.4890  0.5438  0.1301
  892SOL     MW 3568   2.470   2.354   2.774  0.0504  0.8947  0.0016
  893SOL     OW 3569   1.600   2.454   1.208  0.5574  0.0031  0.0158
  893SOL    HW1 3570   1.528   2.475   1.264  0.6558 -0.8400  1.6063
  893SOL    HW2 3571   1.675   2.465   1.268  1.5898 -1.0328 -1.2135
  893SOL     MW 3572   1.601   2.458   1.224  0.7066 -0.2448  0.0634
  894SOL     OW 3573   2.721   1.884   0.438 -0.1214  0.3116  0.3925
  894SOL    HW1 3574   2.631   1.867   0.441  1.1229  1.6243  1.6633
  894SOL    HW2 3575   2.752   1.822   0.367 -0.1869  1.6316  0.2128
  894SOL     MW 3576   2.714   1.874   0.429  0.0341  0.6590  0.5365
  895SOL     OW 3577   2.093   2.148   1.256 -0.6278  0.5693  0.0254
  895SOL    HW1 3578   2.104   2.217   1.189  1.7651 -0.4413 -0.0217
  895SOL    HW2 3579   2.125   2.067   1.209  0.7677 -1.7346  1.4236
  895SOL     MW 3580   2.099   2.147   1.241 -0.1280  0.1320  0.2036
  896SOL     OW 3581   2.324   2.808   1.096 -0.3163 -0.0440  0.4668
  896SOL    HW1 3582   2.326   2.776   1.184  1.2131 -1.2948 -2.2367
  896SOL    HW2 3583   2.260   2.878   1.080 -2.9064  3.5912 -1.2722
  896SOL     MW 3584   2.316   2.813   1.105 -0.4563  0.2706 -0.1193
  897SOL     OW 3585   3.055   3.044   3.049  0.3109  0.0382  0.1202
  897SOL    HW1 3586   3.126   2.977   3.031 -1.3219  2.2501  0.8394
  897SOL    HW2 3587   2.989   3.058   2.988  1.5766 -0.6781 -0.0414
  897SOL     MW 3588   3.056   3.037   3.039  0.2624  0.2355  0.1938
  898SOL     OW 3589   2.075   0.183   1.485 -0.3809 -0.1749  0.0696
  898SOL    HW1 3590   2.051   0.092   1.509 -0.1783  1.4191  0.7514
  898SOL    HW2 3591   2.075   0.186   1.391  0.5435 -0.3633  2.0034
  898SOL     MW 3592   2.072   0.171   1.476 -0.2322  0.0106  0.4147
  899SOL     OW 3593   2.972   2.978   0.621  0.9412  0.3044 -0.1402
  899SOL    HW1 3594   2.977   2.885   0.661  0.3970  2.2739  0.7708
  899SOL    HW2 3595   2.886   3.010   0.650 -0.4098 -0.6608 -2.0552
  899SOL     MW 3596   2.961   2.970   0.630  0.6912  0.4369 -0.2726
  900SOL     OW 3597   0.036   2.395   1.144 -0.6194  0.0096  0.3498
  900SOL    HW1 3598   0.027   2.491   1.144 -1.5347 -2.1139 -1.6541
  900SOL    HW2 3599   0.036   2.377   1.049 -0.5295 -1.0441 -0.7335
  900SOL     MW 3600   0.035   2.405   1.131 -0.7283 -0.4096 -0.0575
  901SOL     OW 3601   1.752   2.837   1.784  0.4245 -0.2656  0.2140
  901SOL    HW1 3602   1.836   2.789   1.753  2.9290 -1.9612 -3.1887
  901SOL    HW2 3603   1.686   2.825   1.718 -1.6903  1.1943  2.4551
  901SOL     MW 3604   1.754   2.829   1.771  0.4759 -0.2967  0.0608
  902SOL     OW 3605   2.646   2.074   1.808 -0.0743 -0.0801 -0.3692
  902SOL    HW1 3606   2.666   2.029   1.732 -1.1392  3.2904 -1.2244
  902SOL    HW2 3607   2.732   2.081   1.850  1.1755 -1.1927 -0.2541
  902SOL     MW 3608   2.660   2.069   1.803 -0.0499  0.2178 -0.4668
  903SOL     OW 3609   1.588   2.656   0.645 -1.1363 -0.0379 -0.3700
  903SOL    HW1 3610   1.676   2.634   0.675 -2.2472  1.9391 -1.6578
  903SOL    HW2 3611   1.566   2.724   0.717 -0.3132 -0.4204  1.5346
  903SOL     MW 3612   1.597   2.662   0.658 -1.1743  0.1725 -0.2886
  904SOL     OW 3613   2.532   2.583   1.662 -0.3933 -0.5434  0.1192
  904SOL    HW1 3614   2.449   2.596   1.621 -0.9481 -2.4695 -0.2379
  904SOL    HW2 3615   2.559   2.492   1.628  0.8148  0.3404 -0.8196
  904SOL     MW 3616   2.524   2.573   1.652 -0.3071 -0.6809 -0.0518
  905SOL     OW 3617   2.292   2.502   2.121  0.8088 -0.3350 -0.3232
  905SOL    HW1 3618   2.343   2.466   2.053  2.5634  1.2505  2.5669
  905SOL    HW2 3619   2.255   2.429   2.177  1.1638 -1.4591  0.8712
  905SOL     MW 3620   2.294   2.487   2.120  1.0872 -0.2741  0.2157
  906SOL     OW 3621   2.511   2.493   0.817  0.1867  0.2827 -0.6772
  906SOL    HW1 3622   2.594   2.491   0.869  0.3198 -0.7197 -0.6143
  906SOL    HW2 3623   2.473   2.579   0.839  0.3969 -2.5590 -2.8226
  906SOL     MW 3624   2.517   2.504   0.827  0.2320 -0.2245 -0.9520
  907SOL     OW 3625   2.639   2.843   1.318 -0.2322  0.2268 -0.7723
  907SOL    HW1 3626   2.688   2.913   1.365  0.3055 -0.6630 -0.9491
  907SOL    HW2 3627   2.675   2.843   1.224 -1.7547 -0.4415  0.8178
  907SOL     MW 3628   2.650   2.852   1.312 -0.3621  0.0212 -0.5858
  908SOL     OW 3629   2.715   2.361   0.019  0.6068  0.5803 -0.1991
  908SOL    HW1 3630   2.663   2.292   0.056 -0.7187  0.6634  0.3994
  908SOL    HW2 3631   2.673   2.446   0.053 -1.8762  0.3748 -0.1450
  908SOL     MW 3632   2.703   2.363   0.029  0.1043  0.5642 -0.1130
  909SOL     OW 3633   1.767   0.054   1.186  1.1407  0.1492 -0.1362
  909SOL    HW1 3634   1.741   0.132   1.133  2.6428  2.0710 -1.7342
  909SOL    HW2 3635   1.717   0.067   1.264  2.2011 -1.1447 -2.1260
  909SOL     MW 3636   1.757   0.066   1.189  1.4788  0.2321 -0.6096
  910SOL     OW 3637   2.220   1.744   0.401 -0.3241 -0.8898  0.1109
  910SOL    HW1 3638   2.181   1.659   0.381  1.4332  0.6934  0.9214
  910SOL    HW2 3639   2.189   1.804   0.332 -2.4848 -0.8859  1.0133
  910SOL     MW 3640   2.210   1.740   0.390 -0.3773 -0.6804  0.3369
  911SOL     OW 3641   2.254   2.080   1.601 -0.4150 -0.3077 -0.8699
  911SOL    HW1 3642   2.296   2.114   1.679  0.7996 -0.1151  0.6741
  911SOL    HW2 3643   2.288   2.134   1.532 -0.5356 -1.5380 -0.7210
  911SOL     MW 3644   2.264   2.091   1.602 -0.2707 -0.4446 -0.6465
  912SOL     OW 3645   2.936   1.915   1.484 -0.0648 -0.4269 -0.6627
  912SOL    HW1 3646   2.999   1.931   1.412 -4.1873 -1.9856  2.5728
  912SOL    HW2 3647   2.845   1.943   1.460 -1.9419 -0.3942  2.8018
  912SOL     MW 3648   2.933   1.921   1.471 -0.8564 -0.6282  0.2213
  913SOL     OW 3649   2.615   3.053   0.352 -0.5756  0.3269  0.0363
  913SOL    HW1 3650   2.709   3.015   0.344  2.3747  0.5509 -1.9783
  913SOL    HW2 3651   2.559   2.995   0.312  0.2672  0.5850  2.2988
  913SOL     MW 3652   2.620   3.040   0.346 -0.0751  0.3905  0.0690
  914SOL     OW 3653   2.706   1.785   3.013 -0.2623  0.7670 -0.2002
  914SOL    HW1 3654   2.741   1.872   3.005  1.1429  0.0631  0.6414
  914SOL    HW2 3655   2.612   1.790   3.029 -2.7715  1.1952  0.7140
  914SOL     MW 3656   2.698   1.797   3.014 -0.4080  0.7306  0.0315
  915SOL     OW 3657   1.711   0.211   0.240  0.5193 -0.3956 -0.3333
  915SOL    HW1 3658   1.783   0.147   0.275  0.6467 -0.5020 -1.3740
  915SOL    HW2 3659   1.626   0.169   0.245 -0.1724  0.0043  0.5487
  915SOL     MW 3660   1.710   0.197   0.245  0.4449 -0.3569 -0.3542
  916SOL     OW 3661   1.832   2.130   1.975 -0.3159  0.0857  0.3940
  916SOL    HW1 3662   1.857   2.222   1.952  1.0987  0.2740 -0.6870
  916SOL    HW2 3663   1.826   2.086   1.891 -1.0168  0.6793 -0.8693
  916SOL     MW 3664   1.835   2.137   1.961 -0.2217  0.1889  0.0847
  917SOL     OW 3665   2.483   2.182   2.550  0.1342 -0.2031  0.6807
  917SOL    HW1 3666   2.451   2.246   2.612  0.9772 -1.4957 -0.4658
  917SOL    HW2 3667   2.550   2.227   2.501 -1.9304 -0.8883 -0.8033
  917SOL     MW 3668   2.487   2.196   2.552 -0.0270 -0.4640  0.3336
  918SOL     OW 3669   1.957   1.589   2.685  0.1220 -0.4747 -0.0913
  918SOL    HW1 3670   1.893   1.623   2.616  1.4026  3.4595  0.2482
  918SOL    HW2 3671   2.047   1.639   2.676 -0.1263  0.8221  0.3566
  918SOL     MW 3672   1.960   1.600   2.675  0.2582  0.2155  0.0126
  919SOL     OW 3673   3.075   2.360   2.303 -0.0437  0.5464  0.6593
  919SOL    HW1 3674   3.010   2.298   2.277 -0.8352 -1.7067  2.3026
  919SOL    HW2 3675   3.129   2.381   2.223  3.8400 -0.1020 -2.2769
  919SOL     MW 3676   3.074   2.355   2.289  0.3643  0.1636  0.4887
  920SOL     OW 3677   2.712   2.871   3.087  0.3180  0.3937 -0.1749
  920SOL    HW1 3678   2.639   2.899   3.149 -1.1462  1.3927 -0.5555
  920SOL    HW2 3679   2.680   2.795   3.036 -0.2719  0.2540 -0.9000
  920SOL     MW 3680   2.698   2.865   3.089  0.0470  0.5071 -0.3208
  921SOL     OW 3681   2.425   2.622   2.602  0.4093 -0.6128 -0.3527
  921SOL    HW1 3682   2.499   2.613   2.544 -1.6244 -0.5923 -0.7959
  921SOL    HW2 3683   2.426   2.543   2.655 -0.7137  2.1594 -1.9266
  921SOL     MW 3684   2.435   2.610   2.601 -0.0072 -0.2443 -0.6188
  922SOL     OW 3685   2.032   2.822   0.279  0.0245 -0.1994  0.1958
  922SOL    HW1 3686   2.016   2.850   0.186  0.0092  0.7106 -0.1290
  922SOL    HW2 3687   2.018   2.723   0.276 -3.1063 -0.7485 -1.7928
  922SOL     MW 3688   2.028   2.813   0.266 -0.3906 -0.1518 -0.1094
  923SOL     OW 3689   2.194   2.893   1.689 -0.0782  0.1266 -0.1929
  923SOL    HW1 3690   2.259   2.872   1.621  1.3302  0.4616 -0.1594
  923SOL    HW2 3691   2.142   2.969   1.659  1.8763  0.8952  1.0047
  923SOL     MW 3692   2.196   2.900   1.676  0.3655  0.2722 -0.0305
  924SOL     OW 3693   1.145   2.734   2.568 -0.1121  0.0370  0.0849
  924SOL    HW1 3694   1.239   2.759   2.593  3.5482  0.2209  1.1437
  924SOL    HW2 3695   1.124   2.666   2.637  0.5143  0.8203  2.2576
  924SOL     MW 3696   1.154   2.728   2.581  0.4535  0.1646  0.5112
  925SOL     OW 3697   3.045   0.193   2.651 -0.3272 -0.1196  0.4057
  925SOL    HW1 3698   3.005   0.222   2.567 -0.8410  2.6258  1.2208
  925SOL    HW2 3699   3.003   0.256   2.707  0.6138  1.8483  1.2779
  925SOL     MW 3700   3.034   0.205   2.647 -0.2709  0.5022  0.6283
  926SOL     OW 3701   2.703   2.419   2.037 -0.0368 -0.6725 -0.5463
  926SOL    HW1 3702   2.751   2.463   2.105  1.1547  0.0725  1.4953
  926SOL    HW2 3703   2.766   2.426   1.959  1.2361  0.1874  1.0743
  926SOL     MW 3704   2.717   2.426   2.036  0.2884 -0.4608 -0.0631
  927SOL     OW 3705   2.337   0.150   0.340  0.3570  0.6339 -0.1272
  927SOL    HW1 3706   2.431   0.145   0.347  2.8721 -1.7889  0.6437
  927SOL    HW2 3707   2.312   0.111   0.258 -0.8148  0.9152 -0.4860
  927SOL     MW 3708   2.346   0.144   0.330  0.5342  0.3514 -0.0728
  928SOL     OW 3709   2.175   2.400   1.752 -0.4902  0.7202 -0.3966
  928SOL    HW1 3710   2.138   2.399   1.662  0.0843  2.2050  1.7708
  928SOL    HW2 3711   2.237   2.470   1.739  0.0771 -0.5480  0.0893
  928SOL     MW 3712   2.179   2.409   1.739 -0.3396  0.7488 -0.0465
  929SOL     OW 3713   2.732   2.303   2.450 -0.3925  0.4428  0.4539
  929SOL    HW1 3714   2.796   2.276   2.380  2.9508  0.3552 -0.1073
  929SOL    HW2 3715   2.782   2.292   2.529  0.8638 -0.6821 -0.9196
  929SOL     MW 3716   2.747   2.298   2.451  0.2143  0.2828  0.1987
  930SOL     OW 3717   2.014   2.844   2.706 -0.2721 -0.0690 -0.8662
  930SOL    HW1 3718   2.054   2.765   2.756 -0.3977 -1.2327 -0.4743
  930SOL    HW2 3719   2.090   2.900   2.688  0.1899 -1.4017 -3.1609
  930SOL     MW 3720   2.029   2.841   2.710 -0.2277 -0.3983 -1.1172
  931SOL     OW 3721   3.026   2.710   2.421 -0.2080  0.0427  0.5192
  931SOL    HW1 3722   3.082   2.718   2.496  0.7119 -0.7921 -0.0086
  931SOL    HW2 3723   3.074   2.769   2.353  1.4087 -1.0627  0.2249
  931SOL     MW 3724   3.040   2.719   2.422  0.1267 -0.2133  0.4107
  932SOL     OW 3725   2.948   1.908   2.486 -0.0665 -0.4293 -0.1066
  932SOL    HW1 3726   3.034   1.952   2.485  0.5600 -0.5374  1.0935
  932SOL    HW2 3727   2.898   1.952   2.420  0.6097  0.5581  1.1001
  932SOL     MW 3728   2.953   1.919   2.477  0.1054 -0.3133  0.2110
  933SOL     OW 3729   2.056   2.797   2.209  0.0901 -0.1069  0.1825
  933SOL    HW1 3730   2.138   2.835   2.230 -0.3686 -0.6863  0.8767
  933SOL    HW2 3731   1.996   2.866   2.199 -0.5312 -4.6130  0.0057
  933SOL     MW 3732   2.059   2.811   2.210 -0.0524 -0.7779  0.2507
  934SOL     OW 3733   2.007   2.707   2.458 -0.3639  0.1090 -0.6017
  934SOL    HW1 3734   2.005   2.774   2.533 -1.7796 -2.4049  1.4352
  934SOL    HW2 3735   2.035   2.747   2.376  0.6791 -1.1991  0.1254
  934SOL     MW 3736   2.011   2.721   2.457 -0.4131 -0.3953 -0.2371
  935SOL     OW 3737   2.680   1.566   1.862 -0.2223  0.1544 -0.0446
  935SOL    HW1 3738   2.771   1.576   1.833  2.5061  0.3147  2.1521
  935SOL    HW2 3739   2.629   1.553   1.780 -4.8279 -1.4590 -0.3025
  935SOL     MW 3740   2.685   1.566   1.848 -0.4700 -0.0373  0.2112
  936SOL     OW 3741   2.992   2.250   0.001  0.0094  0.8213 -0.1193
  936SOL    HW1 3742   3.069   2.289   0.051  1.1203 -0.0609  1.4692
  936SOL    HW2 3743   2.918   2.301   0.033  2.2906  2.0264  0.2803
  936SOL     MW 3744   2.993   2.262   0.012  0.4569  0.8639  0.1430
  937SOL     OW 3745   1.968   2.143   2.650  0.3101  0.0538  0.1628
  937SOL    HW1 3746   2.046   2.105   2.685 -0.1510  0.4737 -0.3954
  937SOL    HW2 3747   1.969   2.110   2.560 -1.8516 -1.5550 -3.4742
  937SOL     MW 3748   1.979   2.133   2.643 -0.0359 -0.1031 -0.3907
  938SOL     OW 3749   2.282   1.801   1.925 -0.0432 -0.5002 -0.5336
  938SOL    HW1 3750   2.288   1.812   1.832 -1.6732  0.9120  0.8927
  938SOL    HW2 3751   2.280   1.889   1.959 -0.7354 -1.5214  0.1133
  938SOL     MW 3752   2.282   1.814   1.917 -0.3496 -0.4486 -0.2601
  939SOL     OW 3753   2.766   1.975   2.274  0.3093 -0.3924 -0.0762
  939SOL    HW1 3754   2.783   1.898   2.224 -1.9391 -0.2132 -0.9142
  939SOL    HW2 3755   2.675   1.956   2.301 -3.5710 -0.4939 -0.4021
  939SOL     MW 3756   2.756   1.963   2.271 -0.4993 -0.3821 -0.2298
  940SOL     OW 3757   2.308   0.157   2.684  0.3468  0.0939  0.2973
  940SOL    HW1 3758   2.311   0.070   2.656  0.5477  0.8307 -0.0526
  940SOL    HW2 3759   2.355   0.144   2.769  0.9914 -2.6369  1.8791
  940SOL     MW 3760   2.314   0.143   2.692  0.4584 -0.1692  0.4599
  941SOL     OW 3761   0.113   2.444   2.087  0.5283 -0.2532  0.2451
  941SOL    HW1 3762   0.194   2.397   2.087 -2.8350  2.0103  1.5544
  941SOL    HW2 3763   0.088   2.445   1.994  0.5104 -0.1401  1.3133
  941SOL     MW 3764   0.121   2.438   2.075  0.0822  0.0604  0.5588
  942SOL     OW 3765   2.840   2.223   2.215 -0.4595  0.3843 -0.5332
  942SOL    HW1 3766   2.783   2.258   2.152 -0.7413 -0.0837 -1.0261
  942SOL    HW2 3767   2.804   2.130   2.224  1.0291 -0.7376  0.3457
  942SOL     MW 3768   2.828   2.216   2.208 -0.3003  0.1745 -0.4823
  943SOL     OW 3769   0.249   2.124   2.262 -0.4630  0.3097 -0.9994
  943SOL    HW1 3770   0.226   2.167   2.350 -0.0581  1.4144  1.3067
  943SOL    HW2 3771   0.330   2.068   2.280  0.6698  2.0916  0.2477
  943SOL     MW 3772   0.257   2.123   2.276 -0.2601  0.6906 -0.5306
  944SOL     OW 3773   2.077   2.637   1.982 -0.3598 -0.1508  0.1877
  944SOL    HW1 3774   2.132   2.565   2.012  5.0691  0.2207 -1.4387
  944SOL    HW2 3775   2.057   2.678   2.063  2.0457  1.1982 -1.9826
  944SOL     MW 3776   2.081   2.633   1.997  0.6739  0.0762 -0.3132
  945SOL     OW 3777   2.730   2.659   2.896  0.2217  0.0496 -0.1112
  945SOL    HW1 3778   2.710   2.568   2.860  2.7887 -0.5131  1.1451
  945SOL    HW2 3779   2.751   2.711   2.817  1.1565  0.2010 -2.3145
  945SOL     MW 3780   2.730   2.654   2.881  0.6838 -0.0047 -0.2361
  946SOL     OW 3781   2.465   2.695   2.249 -0.1020  0.1156 -0.0079
  946SOL    HW1 3782   2.481   2.739   2.167 -1.4610  0.3245 -0.8197
  946SOL    HW2 3783   2.390   2.624   2.218 -2.0380 -1.3293  0.6759
  946SOL     MW 3784   2.457   2.691   2.234 -0.5367 -0.0475 -0.0248
  947SOL     OW 3785   1.949   0.052   0.300  0.8853  0.1663 -0.4330
  947SOL    HW1 3786   1.915  -0.037   0.274 -1.8025 -3.5315  1.1029
  947SOL    HW2 3787   2.000   0.030   0.382 -1.6306  0.3975  0.5329
  947SOL     MW 3788   1.951   0.037   0.308  0.1987 -0.2911 -0.1029
  948SOL     OW 3789   1.792   3.014   2.680  0.3294 -0.5396 -0.0509
  948SOL    HW1 3790   1.865   2.955   2.690  0.5238  1.0974 -0.9913
  948SOL    HW2 3791   1.771   3.034   2.583  1.8528 -1.4848 -1.6947
  948SOL     MW 3792   1.799   3.009   2.668  0.5561 -0.4484 -0.3919
  949SOL     OW 3793   2.514   1.927   2.324  0.5282  0.1192  0.4036
  949SOL    HW1 3794   2.495   1.835   2.322 -2.2596  0.7617 -0.7237
  949SOL    HW2 3795   2.436   1.980   2.351  0.8168  0.0481  0.2068
  949SOL     MW 3796   2.501   1.922   2.327  0.1985  0.1946  0.2289
  950SOL     OW 3797   2.340   2.569   2.913 -0.2062 -0.0878 -0.3639
  950SOL    HW1 3798   2.391   2.496   2.876  2.2800  0.6846  0.9027
  950SOL    HW2 3799   2.255   2.561   2.878  0.9798 -0.8018 -0.2624
  950SOL     MW 3800   2.336   2.558   2.904  0.2783 -0.0801 -0.1834
  951SOL     OW 3801   3.059   2.129   2.868 -0.0898  0.2828  0.2939
  951SOL    HW1 3802   3.028   2.150   2.955 -0.0875  0.5579 -1.0086
  951SOL    HW2 3803   3.094   2.042   2.873 -0.2091  1.5619  0.0895
  951SOL     MW 3804   3.060   2.120   2.881 -0.1053  0.4878  0.0951
  952SOL     OW 3805   3.032   1.685   2.138  0.2662 -0.5285 -0.3470
  952SOL    HW1 3806   2.956   1.730   2.100  3.3463  3.1565  0.7321
  952SOL    HW2 3807   3.099   1.749   2.152 -0.1342 -1.5786 -1.5755
  952SOL     MW 3808   3.031   1.699   2.135  0.6198 -0.1809 -0.3667
  953SOL     OW 3809   1.933   1.750   2.886  0.3489 -0.4138  0.3392
  953SOL    HW1 3810   1.849   1.724   2.941 -0.9270  0.4203  0.4020
  953SOL    HW2 3811   1.928   1.695   2.801  2.1943 -0.6327 -0.5371
  953SOL     MW 3812   1.921   1.739   2.882  0.4241 -0.3326  0.2319
  954SOL     OW 3813   2.412   2.113   2.852  0.8472  0.6054  0.1098
  954SOL    HW1 3814   2.332   2.072   2.807  4.7088  0.2823  0.8712
  954SOL    HW2 3815   2.480   2.074   2.801  0.8880  1.2714 -0.7032
  954SOL     MW 3816   2.410   2.102   2.839  1.3621  0.6507  0.1030
  955SOL     OW 3817   1.549   1.625   2.561  0.1020 -0.5279 -0.1018
  955SOL    HW1 3818   1.559   1.600   2.465  2.1580  0.3642 -1.4088
  955SOL    HW2 3819   1.631   1.686   2.565  1.6909  2.0640 -3.1729
  955SOL     MW 3820   1.561   1.630   2.549  0.5829 -0.0682 -0.6795
  956SOL     OW 3821   2.715   2.390   2.841 -0.6571 -0.2172  0.0237
  956SOL    HW1 3822   2.726   2.379   2.938  0.2815  1.1654 -0.9598
  956SOL    HW2 3823   2.790   2.361   2.779  3.6446 -0.0260  1.1154
  956SOL     MW 3824   2.726   2.385   2.846  0.0343 -0.0095  0.0380
  957SOL     OW 3825   2.238   2.858   0.454 -0.4056  0.0921  0.1399
  957SOL    HW1 3826   2.170   2.840   0.396  1.0349  2.4350  0.3448
  957SOL    HW2 3827   2.230   2.788   0.515  1.8554  0.3830 -0.8463
  957SOL     MW 3828   2.228   2.846   0.454  0.0827  0.4396  0.0368
  958SOL     OW 3829   2.071   2.600   2.845 -0.2164  0.5890  0.4059
  958SOL    HW1 3830   2.026   2.550   2.786 -1.4779  1.7474  1.3584
  958SOL    HW2 3831   2.005   2.610   2.916  1.2538  0.1578  1.6437
  958SOL     MW 3832   2.056   2.595   2.846 -0.1889  0.6850  0.6949
  959SOL     OW 3833   2.465   2.734   0.392  0.0117  0.5283  0.0796
  959SOL    HW1 3834   2.509   2.770   0.310  2.3475  1.3577 -1.5411
  959SOL    HW2 3835   2.381   2.781   0.410 -0.0945 -0.3574  0.7287
  959SOL     MW 3836   2.460   2.745   0.383  0.3059  0.5209 -0.0486
  960SOL     OW 3837   1.878   2.326   2.312  0.1405 -0.4235  0.1093
  960SOL    HW1 3838   1.871   2.230   2.313 -0.5696 -1.0263 -0.4659
  960SOL    HW2 3839   1.838   2.369   2.386  0.1329  0.8423 -2.4735
  960SOL     MW 3840   1.872   2.319   2.322  0.0458 -0.3360 -0.3074
  961SOL     OW 3841   2.167   2.326   2.310 -0.0844  0.0778 -0.5117
  961SOL    HW1 3842   2.071   2.334   2.299 -1.3353  1.5684 -1.7051
  961SOL    HW2 3843   2.194   2.393   2.378 -1.1139 -3.4951  1.1547
  961SOL     MW 3844   2.158   2.336   2.317 -0.3853 -0.1969 -0.4493
  962SOL     OW 3845   2.175   1.996   2.769  0.0951  0.6802 -0.0115
  962SOL    HW1 3846   2.138   1.981   2.859  0.9246  1.5146  0.5470
  962SOL    HW2 3847   2.179   1.907   2.731  1.3270 -2.6825  0.3819
  962SOL     MW 3848   2.171   1.982   2.776  0.3671  0.3466  0.1141
  963SOL     OW 3849   1.790   2.486   2.089  0.3729  0.1872 -0.2785
  963SOL    HW1 3850   1.830   2.437   2.163 -3.2599  1.3087  0.7448
  963SOL    HW2 3851   1.836   2.448   2.011  4.6097 -0.3246  0.6851
  963SOL     MW 3852   1.801   2.474   2.089  0.4526  0.2676 -0.0163
  964SOL     OW 3853   1.816   1.949   2.729 -0.1482  0.2009 -0.7656
  964SOL    HW1 3854   1.872   2.029   2.715  1.0590 -2.2656  1.3206
  964SOL    HW2 3855   1.877   1.898   2.785  1.5196 -0.0753  0.3630
  964SOL     MW 3856   1.831   1.953   2.734  0.2311 -0.1610 -0.3414
  965SOL     OW 3857   2.274   2.680   0.656  0.1575 -0.3466  0.3182
  965SOL    HW1 3858   2.280   2.595   0.608 -1.7555 -0.9222 -0.2551
  965SOL    HW2 3859   2.317   2.684   0.742 -0.8653  0.0217  1.3674
  965SOL     MW 3860   2.281   2.669   0.661 -0.2299 -0.3739  0.3810
  966SOL     OW 3861   2.658   2.598   2.427 -0.2172  0.0677 -0.4925
  966SOL    HW1 3862   2.593   2.642   2.359  0.3707 -2.5013  0.2437
  966SOL    HW2 3863   2.670   2.503   2.402  1.8100  0.1665 -0.8093
  966SOL     MW 3864   2.651   2.591   2.415  0.1278 -0.2582 -0.4372
  967SOL     OW 3865   2.788   3.089   2.949  0.2669 -0.5387 -0.3967
  967SOL    HW1 3866   2.758   3.011   3.004 -3.9083  0.5506 -3.1468
  967SOL    HW2 3867   2.719   3.096   2.889  0.4490  0.7619  1.8406
  967SOL     MW 3868   2.775   3.080   2.948 -0.2599 -0.2234 -0.4644
  968SOL     OW 3869   3.023   2.634   2.961  0.8544  0.1730  0.3570
  968SOL    HW1 3870   2.933   2.645   2.926  0.8639  1.7744  0.9321
  968SOL    HW2 3871   3.079   2.576   2.897  0.8299 -1.9746 -1.0584
  968SOL     MW 3872   3.018   2.628   2.948  0.8524  0.1009  0.2461
  969SOL     OW 3873   1.611   2.159   1.665  0.2962 -0.4073  0.1810
  969SOL    HW1 3874   1.669   2.083   1.676 -0.2494  0.5524 -0.0662
  969SOL    HW2 3875   1.589   2.191   1.756 -1.1213  0.4968  2.4703
  969SOL     MW 3876   1.615   2.153   1.679  0.0372 -0.1614  0.4504
  970SOL     OW 3877   1.743   1.814   1.920 -0.0775 -0.0764  0.0118
  970SOL    HW1 3878   1.776   1.732   1.945  1.6210  4.7752 -1.4260
  970SOL    HW2 3879   1.651   1.813   1.937  2.5274  1.9476 -1.3363
  970SOL     MW 3880   1.735   1.803   1.926  0.4903  0.8308 -0.3557
  971SOL     OW 3881   1.789   0.045   2.409  0.5287  0.1953 -0.0807
  971SOL    HW1 3882   1.818  -0.007   2.333 -0.2691 -0.4018 -0.9983
  971SOL    HW2 3883   1.860   0.107   2.438  0.5026 -0.1444  0.2962
  971SOL     MW 3884   1.802   0.046   2.403  0.4200  0.0717 -0.1521
  972SOL     OW 3885   0.258   2.897   2.473 -0.2719  0.6277 -0.0425
  972SOL    HW1 3886   0.298   2.809   2.487  0.6701 -1.3028  1.0810
  972SOL    HW2 3887   0.318   2.959   2.505 -1.1181 -1.4940  2.3214
  972SOL     MW 3888   0.271   2.894   2.479 -0.2592  0.0931  0.4177
  973SOL     OW 3889   2.630   0.020   2.094 -0.0060 -0.1923 -0.0139
  973SOL    HW1 3890   2.613  -0.074   2.077  1.7607  1.7983  0.2971
  973SOL    HW2 3891   2.630   0.055   2.007 -0.0600 -1.7445  1.4667
  973SOL     MW 3892   2.628   0.012   2.081  0.2200 -0.1345  0.2225
  974SOL     OW 3893   2.046   0.236   2.738 -0.0824 -0.8548  0.4019
  974SOL    HW1 3894   2.141   0.234   2.724 -0.8326 -1.9503 -1.4083
  974SOL    HW2 3895   2.026   0.157   2.780 -2.2618 -1.0375 -0.8139
  974SOL     MW 3896   2.056   0.225   2.741 -0.4690 -1.0235  0.0027
  975SOL     OW 3897   2.190   2.523   2.493  0.5270  0.1025  0.2238
  975SOL    HW1 3898   2.275   2.554   2.521  2.1316 -2.6755  0.0621
  975SOL    HW2 3899   2.133   2.593   2.458 -0.0929  0.1733  1.2228
  975SOL     MW 3900   2.194   2.536   2.492  0.6570 -0.2547  0.3342
  976SOL     OW 3901   0.230   0.380   1.789 -0.3426 -0.0616  0.0024
  976SOL    HW1 3902   0.303   0.321   1.803 -1.9533  2.0579 -2.6245
  976SOL    HW2 3903   0.155   0.331   1.747 -2.8108 -1.0539 -1.2708
  976SOL     MW 3904   0.230   0.366   1.786 -0.8808  0.0871 -0.5122
  977SOL     OW 3905   1.746   2.685   2.526 -0.0899  0.5315 -0.1760
  977SOL    HW1 3906   1.724   2.596   2.539 -0.3088 -0.6449 -0.7708
  977SOL    HW2 3907   1.839   2.678   2.498  0.9722 -2.5971  0.5710
  977SOL     MW 3908   1.756   2.672   2.524  0.0213 -0.0365 -0.1559
   3.10000   3.10000   3.10000
