977 TIP4P/2005f water molecules t=   0.53000 step= 530
 3908
    1SOL     OW    1   0.233   0.815   0.024 -0.7485  0.6303 -0.2855
    1SOL    HW1    2   0.209   0.848  -0.060 -1.8632 -0.2733  0.4271
    1SOL    HW2    3   0.224   0.720   0.007 -0.3685  2.4350  0.3863
    1SOL     MW    4   0.228   0.807   0.011 -0.8454  0.7492 -0.1028
    2SOL     OW    5   0.268   3.030   1.153 -0.1199 -0.6530 -0.1515
    2SOL    HW1    6   0.327   3.100   1.121  3.7595 -0.6467 -1.1643
    2SOL    HW2    7   0.187   3.080   1.167 -1.7093 -0.5663  1.0803
    2SOL     MW    8   0.265   3.046   1.151  0.1823 -0.6408 -0.1226
    3SOL     OW    9   2.700   0.385   0.928  0.0266 -0.4770 -0.2076
    3SOL    HW1   10   2.717   0.455   0.869  0.2592  2.5968  2.6828
    3SOL    HW2   11   2.662   0.427   1.013  0.7239  1.8013 -0.9755
    3SOL     MW   12   2.697   0.400   0.932  0.1493  0.2292  0.0724
    4SOL     OW   13   3.055   1.757   0.588  0.1473 -0.1299 -0.4644
    4SOL    HW1   14   2.982   1.799   0.542 -0.6267 -0.6676  1.0961
    4SOL    HW2   15   3.104   1.686   0.545  0.4767  1.3041 -0.1546
    4SOL     MW   16   3.052   1.753   0.576  0.0886 -0.0117 -0.2177
    5SOL     OW   17   1.730   1.496   0.588 -0.4415 -0.0755 -0.5586
    5SOL    HW1   18   1.779   1.443   0.656 -0.3296 -0.4971 -3.0083
    5SOL    HW2   19   1.640   1.457   0.598 -0.5577  1.0270  0.8264
    5SOL     MW   20   1.724   1.484   0.599 -0.4421  0.0144 -0.6990
    6SOL     OW   21   0.866   1.388   0.680 -0.0480  0.2035 -0.0916
    6SOL    HW1   22   0.786   1.421   0.710  0.5564 -0.0831 -1.2691
    6SOL    HW2   23   0.881   1.306   0.725 -1.4983 -1.4904  0.1793
    6SOL     MW   24   0.857   1.381   0.690 -0.1596 -0.0578 -0.2112
    7SOL     OW   25   2.002   1.103   0.045  0.1335  1.1294 -0.5097
    7SOL    HW1   26   2.034   1.167  -0.017  0.2948  2.1562 -1.3523
    7SOL    HW2   27   2.039   1.126   0.131  3.3089 -1.2281  0.3937
    7SOL     MW   28   2.011   1.114   0.048  0.5737  0.9538 -0.5017
    8SOL     OW   29   0.952   1.366   1.017 -0.6262  0.1569 -0.0748
    8SOL    HW1   30   0.951   1.361   0.919 -0.4678  1.6976  0.5094
    8SOL    HW2   31   0.930   1.280   1.052  1.9392  2.2463  0.1666
    8SOL     MW   32   0.949   1.354   1.009 -0.2668  0.6359  0.0341
    9SOL     OW   33   1.072   0.477   1.369 -0.1388 -0.3086  0.3258
    9SOL    HW1   34   1.009   0.415   1.331  0.8762 -1.6680 -0.3917
    9SOL    HW2   35   1.115   0.427   1.437 -2.8622 -1.2260 -1.5238
    9SOL     MW   36   1.070   0.462   1.373 -0.3642 -0.6090 -0.0129
   10SOL     OW   37   0.259   0.782   0.438 -0.4852  0.2737 -0.3591
   10SOL    HW1   38   0.352   0.810   0.435  3.4452 -0.2038 -2.3957
   10SOL    HW2   39   0.220   0.836   0.510 -1.3594  2.0745  0.4101
   10SOL     MW   40   0.266   0.793   0.447 -0.0820  0.4483 -0.5263
   11SOL     OW   41   0.786   1.112   1.649 -0.5023  0.6822  0.7011
   11SOL    HW1   42   0.830   1.075   1.727  1.2471 -0.8800 -0.1761
   11SOL    HW2   43   0.756   1.031   1.602  0.0401  4.2003  1.9725
   11SOL     MW   44   0.788   1.096   1.653 -0.1999  0.9403  0.7531
   12SOL     OW   45   0.036   1.065   0.855 -0.5866 -0.0494 -0.0745
   12SOL    HW1   46   0.063   1.156   0.884  3.4368 -4.6184 -0.6356
   12SOL    HW2   47  -0.046   1.059   0.810  1.1671 -1.0754  1.5153
   12SOL     MW   48   0.028   1.076   0.853  0.1756 -0.7876  0.0612
   13SOL     OW   49   1.861   1.422   1.321 -0.5080  0.1396 -0.1233
   13SOL    HW1   50   1.872   1.397   1.232 -1.3064  0.4767  1.8978
   13SOL    HW2   51   1.865   1.524   1.323  2.0968  1.0371 -0.7445
   13SOL     MW   52   1.863   1.432   1.309 -0.2697  0.3025  0.0614
   14SOL     OW   53   0.584   0.320   1.809 -0.3366  0.5020  0.3473
   14SOL    HW1   54   0.561   0.241   1.752  1.6545 -1.3151  1.6964
   14SOL    HW2   55   0.650   0.290   1.867 -0.9915  1.8379  0.3687
   14SOL     MW   56   0.590   0.305   1.809 -0.1603  0.4385  0.5281
   15SOL     OW   57   1.958   0.519   0.964 -0.6962  0.1070 -0.0295
   15SOL    HW1   58   1.984   0.543   1.058 -2.8038 -0.4667  1.5659
   15SOL    HW2   59   2.039   0.476   0.930  1.1706  2.4124  2.1248
   15SOL     MW   60   1.972   0.517   0.972 -0.7280  0.3355  0.4652
   16SOL     OW   61   0.233   1.777   0.327  0.6334  0.2355  0.1212
   16SOL    HW1   62   0.315   1.728   0.349 -0.0240 -0.5719 -2.3239
   16SOL    HW2   63   0.226   1.853   0.387  0.5515 -1.5220 -0.9860
   16SOL     MW   64   0.243   1.781   0.338  0.5358 -0.1030 -0.3475
   17SOL     OW   65   1.002   0.839   1.493 -0.1091  0.3018 -0.1442
   17SOL    HW1   66   1.032   0.824   1.581 -2.0398  2.5345  0.8086
   17SOL    HW2   67   0.908   0.823   1.486  0.4828  1.7019  0.5001
   17SOL     MW   68   0.994   0.835   1.503 -0.2858  0.7811  0.0665
   18SOL     OW   69   0.085   1.581   0.444  0.1683  0.3727 -0.2515
   18SOL    HW1   70   0.128   1.655   0.396  0.9819 -1.1733 -1.9830
   18SOL    HW2   71   0.037   1.527   0.380 -1.2121 -0.5583 -0.6781
   18SOL     MW   72   0.084   1.583   0.429  0.0935  0.0459 -0.5363
   19SOL     OW   73   0.084   1.300   0.994 -0.2686 -0.3376  0.6092
   19SOL    HW1   74   0.147   1.340   0.930 -0.5774 -1.2586 -1.2898
   19SOL    HW2   75   0.010   1.358   0.991  1.3141  1.2329 -1.2719
   19SOL     MW   76   0.082   1.313   0.985 -0.1005 -0.2519  0.1105
   20SOL     OW   77   0.429   2.133   1.302 -0.2367 -0.3410 -0.3969
   20SOL    HW1   78   0.372   2.076   1.246 -0.9314  0.0204  3.6319
   20SOL    HW2   79   0.368   2.156   1.374  0.8823  0.6552 -1.4560
   20SOL     MW   80   0.413   2.128   1.304 -0.1807 -0.1618 -0.0051
   21SOL     OW   81   0.521   0.834   0.369 -0.1664 -0.2367  0.5082
   21SOL    HW1   82   0.590   0.808   0.426  1.0414 -1.5646  0.0914
   21SOL    HW2   83   0.538   0.780   0.292  1.8321  0.2200  1.2032
   21SOL     MW   84   0.532   0.823   0.366  0.2567 -0.3516  0.5449
   22SOL     OW   85   1.543   0.573   1.110 -0.6715 -0.3853  0.0707
   22SOL    HW1   86   1.575   0.514   1.033 -2.1489  0.5815  1.0959
   22SOL    HW2   87   1.486   0.639   1.074 -2.6406 -2.4822 -0.5674
   22SOL     MW   88   1.540   0.574   1.095 -1.1262 -0.5344  0.1218
   23SOL     OW   89   3.082   0.757   0.692  0.3414  0.3705 -0.5663
   23SOL    HW1   90   3.129   0.680   0.723 -1.4662  0.1987 -0.2578
   23SOL    HW2   91   3.154   0.825   0.677  0.6018  0.9961 -1.1308
   23SOL     MW   92   3.098   0.756   0.694  0.1373  0.4303 -0.6001
   24SOL     OW   93   1.995   2.193   0.075 -0.5363  0.7533  0.3416
   24SOL    HW1   94   1.991   2.169   0.169  1.1095  0.7451 -0.6838
   24SOL    HW2   95   2.046   2.127   0.035 -1.2331  1.2450  0.4099
   24SOL     MW   96   2.001   2.181   0.082 -0.4111  0.8171  0.2153
   25SOL     OW   97   0.294   1.418   0.529 -0.7100 -0.3806  0.1898
   25SOL    HW1   98   0.209   1.471   0.507 -2.1248  0.5750  0.2852
   25SOL    HW2   99   0.343   1.422   0.453 -4.4180 -4.1344  2.3179
   25SOL     MW  100   0.289   1.425   0.516 -1.3859 -0.7498  0.4832
   26SOL     OW  101   2.032   0.906   0.460 -0.3006  0.3910 -0.3594
   26SOL    HW1  102   1.967   0.972   0.457 -0.4931 -3.6507 -0.3098
   26SOL    HW2  103   2.064   0.919   0.370 -4.1032  0.5832 -0.2208
   26SOL     MW  104   2.028   0.917   0.448 -0.8277 -0.1169 -0.3346
   27SOL     OW  105   2.041   1.385   0.272  0.4729  0.1650 -0.0961
   27SOL    HW1  106   1.945   1.373   0.290 -0.1587  1.0570  0.0815
   27SOL    HW2  107   2.058   1.466   0.323 -0.5056 -0.6859  0.5434
   27SOL     MW  108   2.030   1.394   0.281  0.2605  0.1704  0.0117
   28SOL     OW  109   0.364   1.072   1.965  1.1607  0.7808 -0.0564
   28SOL    HW1  110   0.442   1.122   1.976 -0.3864  2.2478 -3.9993
   28SOL    HW2  111   0.358   0.989   2.010  0.4211  0.3953  1.1408
   28SOL     MW  112   0.373   1.068   1.972  0.8590  0.9235 -0.4186
   29SOL     OW  113   0.265   1.428   0.810  0.2386  0.4657 -0.1629
   29SOL    HW1  114   0.263   1.524   0.818 -1.1785 -0.7600  0.7520
   29SOL    HW2  115   0.270   1.423   0.716 -1.5966 -0.7433  1.0142
   29SOL     MW  116   0.266   1.440   0.799 -0.1905  0.1444  0.1131
   30SOL     OW  117   0.872   1.114   1.233 -0.2455  0.7784  0.2020
   30SOL    HW1  118   0.781   1.146   1.254 -1.7912  0.4313  1.2917
   30SOL    HW2  119   0.918   1.119   1.320  1.0501  1.8233  1.5972
   30SOL     MW  120   0.866   1.119   1.247 -0.2785  0.8705  0.5298
   31SOL     OW  121   0.389   0.247   0.184 -0.2596  0.0217 -0.5240
   31SOL    HW1  122   0.379   0.183   0.258 -0.6143 -2.2859  0.3926
   31SOL    HW2  123   0.375   0.196   0.110  0.5387 -0.6457  0.2055
   31SOL     MW  124   0.386   0.232   0.184 -0.2011 -0.3708 -0.3068
   32SOL     OW  125   2.763   1.033   1.121  0.0157 -0.6517  0.4038
   32SOL    HW1  126   2.701   0.964   1.101  1.5778  1.0269 -1.2915
   32SOL    HW2  127   2.847   0.986   1.132  0.6610  0.4456  1.7711
   32SOL     MW  128   2.766   1.018   1.120  0.3070 -0.2854  0.3605
   33SOL     OW  129   1.795   1.360   0.344  0.0847 -0.3566 -0.0958
   33SOL    HW1  130   1.801   1.276   0.392 -1.5416 -0.3297  0.0261
   33SOL    HW2  131   1.759   1.420   0.409  2.6020 -0.0824  1.9263
   33SOL     MW  132   1.791   1.357   0.359  0.2022 -0.3169  0.1870
   34SOL     OW  133   1.221   1.892   1.103  0.1923 -0.0955  0.1322
   34SOL    HW1  134   1.124   1.918   1.117 -0.6734 -1.6306  0.7660
   34SOL    HW2  135   1.275   1.917   1.183 -0.8826  1.5669 -2.6474
   34SOL     MW  136   1.216   1.899   1.115 -0.0637 -0.0787 -0.1509
   35SOL     OW  137   0.335   0.129   1.812  0.6702 -0.1316  0.0741
   35SOL    HW1  138   0.332   0.104   1.906 -0.7304 -1.8040  1.5798
   35SOL    HW2  139   0.356   0.046   1.761 -0.7902  0.9110 -0.0153
   35SOL     MW  140   0.337   0.115   1.817  0.2927 -0.2147  0.2610
   36SOL     OW  141   1.850   1.927   0.482 -0.1664 -0.2812 -0.9347
   36SOL    HW1  142   1.854   1.890   0.392 -0.0848 -0.1775  1.5878
   36SOL    HW2  143   1.867   1.849   0.529 -1.6514 -2.1923  0.8738
   36SOL     MW  144   1.852   1.912   0.476 -0.3515 -0.5197 -0.3633
   37SOL     OW  145   1.758   2.051   1.037  0.6492 -0.4968  0.7143
   37SOL    HW1  146   1.703   2.006   0.972  0.6322 -3.1352 -0.8722
   37SOL    HW2  147   1.686   2.111   1.077 -0.4620  1.1836 -0.9237
   37SOL     MW  148   1.742   2.053   1.034  0.5003 -0.6232  0.2889
   38SOL     OW  149   2.824   0.928   0.172 -0.2957 -0.0825 -0.2417
   38SOL    HW1  150   2.861   0.910   0.258  0.6393  2.0635  1.8499
   38SOL    HW2  151   2.880   0.892   0.109 -3.5957 -0.1029 -0.7092
   38SOL     MW  152   2.837   0.921   0.175 -0.6077  0.1979 -0.0274
   39SOL     OW  153   1.419   0.616   0.800 -0.5357  0.0232  0.0874
   39SOL    HW1  154   1.398   0.530   0.836  0.4421 -0.3686 -0.2833
   39SOL    HW2  155   1.344   0.670   0.826 -1.6194 -0.7484  0.0591
   39SOL     MW  156   1.407   0.611   0.808 -0.5497 -0.1303  0.0347
   40SOL     OW  157   1.215   1.875   0.248 -0.3685  0.0850 -0.0418
   40SOL    HW1  158   1.272   1.829   0.309 -3.0854  0.4341  0.3496
   40SOL    HW2  159   1.203   1.959   0.291 -3.7680 -0.0293 -1.1333
   40SOL     MW  160   1.221   1.880   0.261 -1.1755  0.1160 -0.1341
   41SOL     OW  161   0.602   0.490   1.571  0.3884  0.0628 -0.3076
   41SOL    HW1  162   0.694   0.514   1.569 -0.3975  1.6156  1.8735
   41SOL    HW2  163   0.599   0.424   1.638  0.1780 -0.4485  1.1011
   41SOL     MW  164   0.614   0.485   1.579  0.2570  0.2002  0.1660
   42SOL     OW  165   1.274   2.988   1.988 -0.5409 -0.3241 -0.1441
   42SOL    HW1  166   1.183   2.987   2.004  1.5472 -0.1455  0.4943
   42SOL    HW2  167   1.298   2.897   2.007 -0.1546  0.5397  3.5861
   42SOL     MW  168   1.265   2.976   1.992 -0.2144 -0.1866  0.4323
   43SOL     OW  169   1.515   0.161   1.724  0.0239 -0.0027  0.3587
   43SOL    HW1  170   1.567   0.096   1.678 -1.3566  0.4626 -0.8648
   43SOL    HW2  171   1.440   0.098   1.729 -0.5402 -3.7515  2.1844
   43SOL     MW  172   1.512   0.144   1.718 -0.2327 -0.4360  0.4382
   44SOL     OW  173   1.257   0.738   1.087 -0.3764  0.3662  0.1270
   44SOL    HW1  174   1.260   0.830   1.048  0.0185  0.9370 -1.3128
   44SOL    HW2  175   1.254   0.745   1.184  0.7347 -0.3735  0.3413
   44SOL     MW  176   1.257   0.751   1.095 -0.1777  0.3439 -0.0347
   45SOL     OW  177   1.149   0.729   0.794 -0.3750 -0.1881  0.1299
   45SOL    HW1  178   1.092   0.705   0.869 -2.0735  2.8307 -4.5317
   45SOL    HW2  179   1.118   0.669   0.727  1.2072  1.1751  2.6969
   45SOL     MW  180   1.137   0.718   0.795 -0.3903  0.3900 -0.1465
   46SOL     OW  181   0.542   1.167   0.542 -0.2087  0.4087  0.1941
   46SOL    HW1  182   0.540   1.155   0.441 -1.5716  0.9505  0.2677
   46SOL    HW2  183   0.635   1.159   0.561 -0.9799  1.5563 -2.1692
   46SOL     MW  184   0.554   1.164   0.531 -0.4903  0.6316 -0.1080
   47SOL     OW  185   0.207   1.919   1.796 -0.1389  0.5065 -0.3760
   47SOL    HW1  186   0.245   1.850   1.734 -1.5568  1.0292 -0.0028
   47SOL    HW2  187   0.220   1.876   1.885  1.4441  0.0289 -1.5435
   47SOL     MW  188   0.214   1.904   1.799 -0.1171  0.5124 -0.4808
   48SOL     OW  189   1.035   0.604   1.019  0.0075 -0.5431 -0.1375
   48SOL    HW1  190   0.949   0.627   1.049  2.8654  2.2403  1.1637
   48SOL    HW2  191   1.099   0.660   1.062 -0.9122 -1.6334 -1.7193
   48SOL     MW  192   1.032   0.615   1.029  0.2632 -0.3198 -0.1746
   49SOL     OW  193   1.809   0.746   1.550 -0.4029 -0.1144 -0.6935
   49SOL    HW1  194   1.760   0.730   1.633 -1.8013 -0.5210  2.0180
   49SOL    HW2  195   1.878   0.673   1.535  0.6478 -1.2172 -2.8787
   49SOL     MW  196   1.812   0.734   1.559 -0.4488 -0.3135 -0.6241
   50SOL     OW  197   1.168   1.054   0.506 -0.0695  0.2514 -0.3527
   50SOL    HW1  198   1.175   1.080   0.596 -1.1593 -1.4463  0.6311
   50SOL    HW2  199   1.231   0.983   0.484  0.2653  1.0202  0.7199
   50SOL     MW  200   1.177   1.048   0.515 -0.1691  0.1289 -0.0813
   51SOL     OW  201   0.352   2.875   0.962  0.6693 -0.2021  0.0031
   51SOL    HW1  202   0.436   2.836   0.989  0.1416  1.0612  1.7901
   51SOL    HW2  203   0.320   2.922   1.041 -1.2953 -2.3279  0.2406
   51SOL     MW  204   0.359   2.876   0.976  0.3405 -0.3159  0.2702
   52SOL     OW  205   0.803   1.792   0.387  0.6524  0.4371  0.0661
   52SOL    HW1  206   0.791   1.878   0.428 -0.6969 -2.3718  1.0965
   52SOL    HW2  207   0.836   1.808   0.298 -0.1919 -1.0729  0.9105
   52SOL     MW  208   0.806   1.806   0.381  0.3630 -0.1327  0.3135
   53SOL     OW  209   0.505   2.139   0.596 -0.1104  0.4171  0.1611
   53SOL    HW1  210   0.426   2.121   0.546  0.6489  1.0355  0.8948
   53SOL    HW2  211   0.509   2.229   0.558  2.7129  2.9212 -1.2956
   53SOL     MW  212   0.495   2.149   0.585  0.3623  0.8291  0.0657
   54SOL     OW  213   2.185   0.817   0.859  0.4471  0.3122  0.5269
   54SOL    HW1  214   2.230   0.851   0.784 -3.2328  2.1758 -0.2918
   54SOL    HW2  215   2.096   0.800   0.825 -1.4960 -0.9623 -0.4726
   54SOL     MW  216   2.179   0.819   0.844 -0.2948  0.3899  0.2870
   55SOL     OW  217   0.566   1.489   1.577  0.5647 -0.1361  0.1832
   55SOL    HW1  218   0.511   1.530   1.510 -1.6522 -0.5036  0.9133
   55SOL    HW2  219   0.648   1.464   1.532  2.9834 -1.9715 -1.0401
   55SOL     MW  220   0.570   1.491   1.562  0.5914 -0.4268  0.1181
   56SOL     OW  221   0.559   0.761   0.087 -0.0316 -0.4614  0.0565
   56SOL    HW1  222   0.565   0.853   0.072 -0.8008 -3.1261 -0.6454
   56SOL    HW2  223   0.470   0.738   0.077 -0.7185 -0.1272 -1.8648
   56SOL     MW  224   0.548   0.770   0.084 -0.2237 -0.7689 -0.2896
   57SOL     OW  225   1.255   1.224   1.205  0.2038  0.0176 -0.3850
   57SOL    HW1  226   1.327   1.258   1.149 -1.8836 -0.8006 -1.0811
   57SOL    HW2  227   1.291   1.231   1.292  0.3167 -2.7116 -0.2281
   57SOL     MW  228   1.269   1.230   1.209 -0.0567 -0.4505 -0.4562
   58SOL     OW  229   0.577   1.142   1.281 -0.5351  0.7705 -0.1987
   58SOL    HW1  230   0.555   1.231   1.254  0.3051  1.2368  0.4763
   58SOL    HW2  231   0.565   1.136   1.375  0.3300 -0.3734  0.7667
   58SOL     MW  232   0.572   1.153   1.290 -0.3101  0.6811  0.0177
   59SOL     OW  233   1.584   1.632   0.375 -0.2434  0.3811  0.2379
   59SOL    HW1  234   1.604   1.678   0.457 -0.7993 -0.4033 -2.1286
   59SOL    HW2  235   1.489   1.630   0.379  0.3234 -0.2359 -1.1823
   59SOL     MW  236   1.574   1.638   0.386 -0.2419  0.1962 -0.2617
   60SOL     OW  237   0.057   0.213   1.701  0.7696  0.0780  0.1349
   60SOL    HW1  238  -0.034   0.235   1.698 -1.0765 -2.4648  0.1115
   60SOL    HW2  239   0.066   0.149   1.773  0.7091  0.3114  1.5599
   60SOL     MW  240   0.046   0.207   1.710  0.5180 -0.2267  0.3198
   61SOL     OW  241   2.038   1.447   3.097 -0.1237  0.4944 -0.2818
   61SOL    HW1  242   2.053   1.426   3.193  0.8906  0.4403  0.4464
   61SOL    HW2  243   2.111   1.412   3.045  2.5252  0.4643 -1.0182
   61SOL     MW  244   2.050   1.440   3.103  0.3596  0.4833 -0.2829
   62SOL     OW  245   0.656   1.679   0.624 -0.3575  0.6180 -0.2769
   62SOL    HW1  246   0.702   1.692   0.547 -2.6464 -1.0060  3.8142
   62SOL    HW2  247   0.634   1.582   0.639 -0.4921  0.4604  1.3257
   62SOL     MW  248   0.659   1.668   0.616 -0.6772  0.3829  0.4743
   63SOL     OW  249   1.659   0.745   0.714 -0.1122  0.0292 -0.1669
   63SOL    HW1  250   1.634   0.791   0.635 -0.5914 -2.0137  0.7531
   63SOL    HW2  251   1.580   0.700   0.745 -0.6959  0.1365  0.2936
   63SOL     MW  252   1.645   0.745   0.707 -0.2524 -0.2262  0.0152
   64SOL     OW  253   0.263   1.697   0.738 -0.0985  0.1317 -0.3277
   64SOL    HW1  254   0.322   1.770   0.722  2.0500  0.2262 -0.6945
   64SOL    HW2  255   0.192   1.733   0.783  0.6993 -1.7408 -5.3057
   64SOL     MW  256   0.262   1.711   0.742  0.2903 -0.1029 -1.0329
   65SOL     OW  257   1.538   2.326   0.372 -0.4080  0.5623  0.1048
   65SOL    HW1  258   1.619   2.276   0.381  0.4649 -0.0572  0.5594
   65SOL    HW2  259   1.516   2.377   0.458  1.4674 -1.2787 -1.4718
   65SOL     MW  260   1.545   2.326   0.385 -0.0454  0.2377 -0.0432
   66SOL     OW  261   0.304   0.510   0.523 -0.7406 -0.2162  0.1168
   66SOL    HW1  262   0.366   0.452   0.482 -0.5959  2.8297 -0.3515
   66SOL    HW2  263   0.290   0.592   0.471 -1.1276  0.3503 -2.3787
   66SOL     MW  264   0.310   0.513   0.511 -0.7726  0.2604 -0.2743
   67SOL     OW  265   1.465   0.107   2.047 -0.0780 -0.0163 -0.0528
   67SOL    HW1  266   1.506   0.128   1.964  0.4997 -3.1750  0.5180
   67SOL    HW2  267   1.412   0.030   2.025  0.9101  1.7355  2.8824
   67SOL     MW  268   1.463   0.100   2.033  0.1286 -0.2020  0.4098
   68SOL     OW  269   0.621   0.086   2.987 -0.4021  0.1106  0.5869
   68SOL    HW1  270   0.607   0.132   2.901 -1.7622  0.7127  0.1033
   68SOL    HW2  271   0.672   0.158   3.028  0.7066 -1.2687  1.1102
   68SOL     MW  272   0.626   0.102   2.981 -0.4352  0.0081  0.5921
   69SOL     OW  273   0.990   0.201   1.962 -0.1558 -0.0548  0.2750
   69SOL    HW1  274   1.086   0.215   1.975 -0.7681  0.3653  1.1629
   69SOL    HW2  275   0.977   0.104   1.991 -0.1294  0.7884 -0.6506
   69SOL     MW  276   1.001   0.190   1.967 -0.2331  0.1119  0.2700
   70SOL     OW  277   0.571   1.776   1.123 -0.3226 -0.6521 -0.0281
   70SOL    HW1  278   0.595   1.687   1.152 -0.0932  0.1137 -1.3031
   70SOL    HW2  279   0.642   1.785   1.058  4.7902 -1.2123  0.2840
   70SOL     MW  280   0.583   1.766   1.118  0.3822 -0.6250 -0.1551
   71SOL     OW  281   1.716   0.608   1.330  0.1680 -0.5247  0.3355
   71SOL    HW1  282   1.716   0.686   1.392  1.5358  0.8183  1.6113
   71SOL    HW2  283   1.629   0.616   1.287  1.0073  1.4729  0.5361
   71SOL     MW  284   1.704   0.619   1.332  0.4592 -0.0839  0.5303
   72SOL     OW  285   0.801   1.761   0.974 -0.9221 -0.3084  0.1202
   72SOL    HW1  286   0.776   1.792   0.882 -0.3514  0.8552 -2.0859
   72SOL    HW2  287   0.773   1.668   0.967  0.8436 -0.4179 -0.3575
   72SOL     MW  288   0.794   1.753   0.961 -0.6139 -0.1693 -0.2339
   73SOL     OW  289   1.211   0.707   1.350  0.2865 -0.0695  0.1912
   73SOL    HW1  290   1.177   0.617   1.356  0.9636  0.0030  0.2217
   73SOL    HW2  291   1.139   0.762   1.384 -0.8323 -1.9688  1.6298
   73SOL     MW  292   1.197   0.703   1.356  0.2282 -0.3105  0.3850
   74SOL     OW  293   2.885   0.197   0.981 -0.1513  0.1653 -0.6457
   74SOL    HW1  294   2.890   0.180   0.890 -0.1055  0.5477  1.0781
   74SOL    HW2  295   2.838   0.280   0.981  2.3401  1.1345 -2.7893
   74SOL     MW  296   2.879   0.206   0.969  0.1834  0.3436 -0.7011
   75SOL     OW  297   1.611   1.378   0.138  0.4628  0.9788  0.2151
   75SOL    HW1  298   1.679   1.401   0.200 -1.5312  2.3967 -0.0915
   75SOL    HW2  299   1.638   1.287   0.110  0.2376 -1.1037  0.2504
   75SOL     MW  300   1.624   1.369   0.142  0.1700  0.8911  0.1793
   76SOL     OW  301   3.019   0.637   0.438  0.2362 -0.2013 -0.4756
   76SOL    HW1  302   3.044   0.664   0.525  0.8654 -1.1594 -0.3458
   76SOL    HW2  303   3.060   0.551   0.430  0.6329  1.1963  1.2689
   76SOL     MW  304   3.027   0.629   0.449  0.3716 -0.1433 -0.2283
   77SOL     OW  305   0.829   0.526   0.428 -0.1898  0.3187 -0.8219
   77SOL    HW1  306   0.798   0.546   0.339  0.1220  1.1406  0.0509
   77SOL    HW2  307   0.765   0.467   0.467  0.4798  1.2071 -2.0744
   77SOL     MW  308   0.816   0.521   0.422 -0.0604  0.5443 -0.8720
   78SOL     OW  309   0.741   0.808   1.235  0.1630  0.5418  0.0590
   78SOL    HW1  310   0.655   0.800   1.190  2.7753 -2.2090  1.7829
   78SOL    HW2  311   0.786   0.877   1.187  0.6184  0.9290 -0.7006
   78SOL     MW  312   0.735   0.816   1.223  0.5678  0.2300  0.1862
   79SOL     OW  313   1.930   1.707   0.616  0.5262 -0.0258  0.1615
   79SOL    HW1  314   1.863   1.641   0.601 -1.6579 -1.6804  1.6634
   79SOL    HW2  315   1.940   1.713   0.708 -1.8861  0.2798 -2.3052
   79SOL     MW  316   1.923   1.699   0.626 -0.0803 -0.2038  0.0342
   80SOL     OW  317   0.140   1.014   0.317 -0.5296 -0.4516  0.2690
   80SOL    HW1  318   0.046   0.987   0.320 -1.9384 -0.4565 -1.0143
   80SOL    HW2  319   0.195   0.930   0.314  1.5596 -1.4086 -1.5694
   80SOL     MW  320   0.135   0.999   0.317 -0.4398 -0.5785 -0.1429
   81SOL     OW  321   1.918   1.929   0.202  0.0935  0.2430  0.1755
   81SOL    HW1  322   1.885   1.845   0.165  1.4751 -2.3619 -0.6167
   81SOL    HW2  323   1.841   1.985   0.230  1.0638 -0.2928 -0.0499
   81SOL     MW  324   1.904   1.926   0.201  0.4038 -0.1714  0.0413
   82SOL     OW  325   0.817   1.051   0.533  0.2978  0.0148  0.1191
   82SOL    HW1  326   0.832   1.084   0.450 -0.8779  0.9298 -1.4297
   82SOL    HW2  327   0.800   0.962   0.521  0.3514 -0.0890 -1.4622
   82SOL     MW  328   0.816   1.043   0.520  0.1497  0.1219 -0.2939
   83SOL     OW  329   0.210   0.597   1.302  0.0246  0.0505 -0.4193
   83SOL    HW1  330   0.162   0.670   1.337 -0.7051  2.4394  1.7289
   83SOL    HW2  331   0.261   0.573   1.382  2.1669 -1.6394 -0.7884
   83SOL     MW  332   0.210   0.603   1.318  0.2110  0.1428 -0.1846
   84SOL     OW  333   0.070   0.205   0.895 -0.3527 -0.1386  0.1290
   84SOL    HW1  334  -0.022   0.232   0.871 -0.0784 -1.7327 -1.8889
   84SOL    HW2  335   0.056   0.160   0.981  1.3549 -1.3643  0.8688
   84SOL     MW  336   0.056   0.203   0.903 -0.0912 -0.5107 -0.0396
   85SOL     OW  337   0.465   0.456   0.757  0.8767  0.2852  0.2656
   85SOL    HW1  338   0.445   0.498   0.673 -1.1182 -1.3389  2.8854
   85SOL    HW2  339   0.392   0.391   0.754 -1.2419 -1.7150  2.3922
   85SOL     MW  340   0.453   0.453   0.746  0.3340 -0.1930  0.8919
   86SOL     OW  341   1.235   0.385   1.054  0.1006  0.0137  0.1098
   86SOL    HW1  342   1.181   0.466   1.051 -1.0208 -0.9818  0.0307
   86SOL    HW2  343   1.305   0.404   1.121  0.3178  0.5125  0.3869
   86SOL     MW  344   1.237   0.399   1.063 -0.0187 -0.0518  0.1359
   87SOL     OW  345   1.179   1.480   1.238 -0.5024 -0.2496  0.6505
   87SOL    HW1  346   1.163   1.518   1.153 -0.2131  0.2278 -0.0130
   87SOL    HW2  347   1.182   1.382   1.221 -1.4547  0.9231  1.6294
   87SOL     MW  348   1.177   1.472   1.225 -0.5899 -0.0319  0.6921
   88SOL     OW  349   1.230   1.012   1.044 -0.3306 -0.0548 -0.4622
   88SOL    HW1  350   1.323   0.998   1.020 -0.0640  0.4243 -0.1572
   88SOL    HW2  351   1.221   1.086   1.112 -0.8784 -0.5421  0.5381
   88SOL     MW  352   1.241   1.020   1.050 -0.3677 -0.0559 -0.2900
   89SOL     OW  353   1.772   0.667   0.313 -0.0350  0.0671 -0.7136
   89SOL    HW1  354   1.837   0.592   0.322  1.9316 -2.0097 -1.4588
   89SOL    HW2  355   1.830   0.742   0.296 -1.9615  1.6528  0.5351
   89SOL     MW  356   1.788   0.667   0.312 -0.0297  0.0023 -0.6472
   90SOL     OW  357   0.676   1.176   2.820  0.2064 -0.3745  0.7995
   90SOL    HW1  358   0.723   1.112   2.870 -3.3967  1.7640  0.6345
   90SOL    HW2  359   0.653   1.250   2.869 -3.0307  0.8037 -0.4492
   90SOL     MW  360   0.679   1.178   2.834 -0.6961  0.0631  0.6130
   91SOL     OW  361   2.218   0.695   0.555  0.4722 -0.5614 -0.4539
   91SOL    HW1  362   2.162   0.755   0.512  1.5598  0.5901  0.3971
   91SOL    HW2  363   2.219   0.613   0.504  1.6367 -0.3197 -1.2363
   91SOL     MW  364   2.211   0.692   0.543  0.7694 -0.3776 -0.4448
   92SOL     OW  365   1.634   0.877   0.445 -0.4429  0.6691  0.3050
   92SOL    HW1  366   1.542   0.866   0.477  1.6894  0.8809  0.1064
   92SOL    HW2  367   1.670   0.791   0.411  0.0568  0.8305 -0.2921
   92SOL     MW  368   1.627   0.864   0.445 -0.0956  0.7183  0.2000
   93SOL     OW  369   1.039   0.308   0.354 -0.0781 -0.1669  0.3716
   93SOL    HW1  370   0.958   0.359   0.361  0.7360  0.7455  0.5005
   93SOL    HW2  371   1.075   0.328   0.266 -0.7990 -1.0871 -2.1124
   93SOL     MW  372   1.033   0.318   0.344 -0.0658 -0.1679  0.0609
   94SOL     OW  373   1.919   1.343   1.581 -0.0889  0.2856  0.1495
   94SOL    HW1  374   1.902   1.348   1.485 -0.4665 -1.1766 -0.1862
   94SOL    HW2  375   1.901   1.252   1.618 -0.9032  1.8371 -2.1754
   94SOL     MW  376   1.914   1.332   1.573 -0.2461  0.2974 -0.2015
   95SOL     OW  377   0.720   1.508   0.957  0.0250 -0.2651  0.4895
   95SOL    HW1  378   0.771   1.459   1.025 -1.9528  0.0746  1.7227
   95SOL    HW2  379   0.638   1.454   0.953  1.6264 -0.4071  0.2342
   95SOL     MW  380   0.716   1.495   0.966 -0.0247 -0.2390  0.6186
   96SOL     OW  381   1.216   1.821   1.572  0.3987  0.1705 -0.5912
   96SOL    HW1  382   1.135   1.781   1.618 -2.5959 -0.6327  2.0233
   96SOL    HW2  383   1.242   1.750   1.519 -1.2494 -1.7758  1.2275
   96SOL     MW  384   1.209   1.806   1.571 -0.2139 -0.1923 -0.0062
   97SOL     OW  385   1.210   1.433   0.757  0.3145  0.2117 -0.1383
   97SOL    HW1  386   1.211   1.470   0.848 -0.5428  1.3701 -0.0472
   97SOL    HW2  387   1.157   1.493   0.713  2.0553  0.8476  0.6720
   97SOL     MW  388   1.203   1.446   0.763  0.4311  0.4484 -0.0193
   98SOL     OW  389   1.494   1.291   1.063 -0.0988  0.0506  0.0096
   98SOL    HW1  390   1.508   1.370   1.114 -1.4622 -2.1817 -1.0355
   98SOL    HW2  391   1.538   1.325   0.988 -1.1392 -0.0587 -0.6294
   98SOL     MW  392   1.501   1.306   1.060 -0.4159 -0.2584 -0.2126
   99SOL     OW  393   1.445   0.359   1.295 -0.5488 -0.0243 -0.0519
   99SOL    HW1  394   1.484   0.436   1.252 -1.9244  0.3594 -0.9733
   99SOL    HW2  395   1.487   0.369   1.378 -0.2634  2.4637  1.3736
   99SOL     MW  396   1.456   0.370   1.300 -0.6926  0.3546  0.0146
  100SOL     OW  397   1.024   1.105   1.468  0.6929  0.2824 -0.1175
  100SOL    HW1  398   0.957   1.141   1.527 -0.7672  0.4266 -4.1812
  100SOL    HW2  399   1.020   1.011   1.481  3.9617  0.9471  0.2782
  100SOL     MW  400   1.015   1.098   1.477  0.9316  0.3891 -0.6015
  101SOL     OW  401   0.564   1.078   0.254 -0.3826 -0.4910  0.2571
  101SOL    HW1  402   0.544   0.992   0.298 -0.5888  0.5159  0.0186
  101SOL    HW2  403   0.527   1.070   0.164 -1.2263  0.0985 -2.1266
  101SOL     MW  404   0.557   1.066   0.248 -0.5212 -0.2803 -0.0889
  102SOL     OW  405   2.987   0.655   0.972  0.2222 -0.2046 -0.6663
  102SOL    HW1  406   2.992   0.742   1.013 -0.3377  1.3821  3.4057
  102SOL    HW2  407   3.035   0.605   1.038  1.8272  2.5430  0.5967
  102SOL     MW  408   2.994   0.660   0.986  0.3601  0.3673  0.0376
  103SOL     OW  409   1.684   0.370   1.847  0.7227  0.0777 -0.1288
  103SOL    HW1  410   1.619   0.306   1.817 -3.3322 -0.4286 -3.2924
  103SOL    HW2  411   1.751   0.319   1.887  0.9686 -0.2478  2.0358
  103SOL     MW  412   1.684   0.355   1.848  0.2201 -0.0320 -0.2606
  104SOL     OW  413   0.169   1.809   1.476  0.1890 -0.4305  0.8994
  104SOL    HW1  414   0.166   1.757   1.552  0.1619 -5.3200  1.2224
  104SOL    HW2  415   0.194   1.753   1.399  2.4128 -0.0751  1.7852
  104SOL     MW  416   0.172   1.795   1.476  0.4788 -1.0287  1.0589
  105SOL     OW  417   0.097   1.237   0.499 -0.5598  0.0781 -0.2189
  105SOL    HW1  418   0.139   1.157   0.455  1.5907 -0.3249  0.6288
  105SOL    HW2  419   0.174   1.293   0.516 -1.0257 -1.7333 -0.9026
  105SOL     MW  420   0.113   1.234   0.496 -0.3375 -0.2141 -0.1972
  106SOL     OW  421   0.844   0.316   0.986  0.2906  0.7043  0.2423
  106SOL    HW1  422   0.791   0.396   0.981 -0.3709  1.4938 -0.7458
  106SOL    HW2  423   0.920   0.333   0.930 -1.3212  3.2221  1.0981
  106SOL     MW  424   0.847   0.329   0.978 -0.0093  1.1407  0.2248
  107SOL     OW  425   0.817   2.171   2.974 -0.1090 -0.0544  0.0474
  107SOL    HW1  426   0.760   2.102   2.945 -4.2113  1.7339  2.6824
  107SOL    HW2  427   0.804   2.180   3.068  0.3885 -0.8440  0.1037
  107SOL     MW  428   0.808   2.163   2.983 -0.5846  0.0773  0.4025
  108SOL     OW  429   1.327   1.593   1.425  0.2299 -0.6013  0.0549
  108SOL    HW1  430   1.268   1.564   1.345 -0.6915  0.2972 -0.2588
  108SOL    HW2  431   1.342   1.522   1.482 -1.4730  3.1716  1.8321
  108SOL     MW  432   1.321   1.580   1.422 -0.1164  0.0151  0.2480
  109SOL     OW  433   1.992   0.774   0.184  0.0710 -0.3524  0.8123
  109SOL    HW1  434   2.014   0.809   0.092  1.3057 -0.7942 -1.7394
  109SOL    HW2  435   2.060   0.780   0.250 -0.4545 -0.9206  1.7706
  109SOL     MW  436   2.004   0.780   0.181  0.1645 -0.4857  0.6020
  110SOL     OW  437   0.477   1.899   0.771 -0.0688  0.1477  0.5421
  110SOL    HW1  438   0.536   1.823   0.740  0.4756 -0.4965  0.9173
  110SOL    HW2  439   0.528   1.972   0.747  2.1029  0.4361 -0.3993
  110SOL     MW  440   0.491   1.899   0.763  0.2895  0.1007  0.4674
  111SOL     OW  441   0.715   0.882   1.504 -0.0612  0.4858  0.5986
  111SOL    HW1  442   0.730   0.862   1.413 -0.2397  0.0179  0.4255
  111SOL    HW2  443   0.625   0.851   1.517 -0.9002 -0.6366 -0.2972
  111SOL     MW  444   0.705   0.875   1.494 -0.1954  0.2760  0.4576
  112SOL     OW  445   1.311   1.075   1.714 -0.1924 -0.6676  0.1798
  112SOL    HW1  446   1.242   1.133   1.735 -0.2017  0.8639 -0.3621
  112SOL    HW2  447   1.268   0.988   1.695 -0.8738 -1.4322 -3.0626
  112SOL     MW  448   1.296   1.071   1.714 -0.2835 -0.5664 -0.3195
  113SOL     OW  449   1.310   3.088   1.742 -0.0663 -0.2558  0.4817
  113SOL    HW1  450   1.307   3.023   1.812 -1.4221  0.6140  0.7819
  113SOL    HW2  451   1.305   3.042   1.653 -0.9303 -1.1493 -0.9828
  113SOL     MW  452   1.309   3.073   1.739 -0.3592 -0.2589  0.3281
  114SOL     OW  453   0.474   2.817   1.930 -0.3364  0.2757  0.3318
  114SOL    HW1  454   0.452   2.881   1.995  1.2681 -0.8712  0.2642
  114SOL    HW2  455   0.440   2.871   1.856  2.7661  1.0340  2.4142
  114SOL     MW  456   0.466   2.832   1.929  0.2846  0.2245  0.5976
  115SOL     OW  457   0.490   0.817   1.116  0.0194 -0.4780 -0.1514
  115SOL    HW1  458   0.476   0.729   1.149 -1.5592  0.1849  3.9993
  115SOL    HW2  459   0.449   0.867   1.184  1.5409 -1.4221 -1.0579
  115SOL     MW  460   0.483   0.812   1.129  0.0118 -0.5151  0.2766
  116SOL     OW  461   0.788   1.038   0.965 -0.0196 -0.4388  0.0662
  116SOL    HW1  462   0.855   1.054   0.894  4.0744 -1.6048  1.0620
  116SOL    HW2  463   0.828   1.049   1.051 -2.1226 -4.0053  0.7571
  116SOL     MW  464   0.802   1.042   0.967  0.2431 -1.0632  0.2887
  117SOL     OW  465   1.218   1.145   0.777 -0.1755  0.6567  0.6023
  117SOL    HW1  466   1.236   1.124   0.867 -0.2033 -1.2413 -2.0452
  117SOL    HW2  467   1.196   1.235   0.776 -0.6415 -1.3077 -0.3671
  117SOL     MW  468   1.218   1.154   0.788 -0.2407  0.1471  0.1251
  118SOL     OW  469   3.055   2.927   1.700 -0.2913 -1.0776  0.0877
  118SOL    HW1  470   3.079   2.982   1.776 -1.6030  1.8441 -3.9309
  118SOL    HW2  471   2.964   2.949   1.673 -3.4742  0.2431  0.3824
  118SOL     MW  472   3.046   2.937   1.706 -0.8843 -0.5178 -0.4036
  119SOL     OW  473   0.478   1.371   1.198 -0.6872  0.1873  0.2494
  119SOL    HW1  474   0.488   1.357   1.106  0.7953 -0.9172  2.3613
  119SOL    HW2  475   0.394   1.345   1.226  0.9871  1.4027 -0.4252
  119SOL     MW  476   0.468   1.366   1.190 -0.2707  0.2019  0.4391
  120SOL     OW  477   0.167   0.698   0.988  0.4991 -0.3931  0.6709
  120SOL    HW1  478   0.205   0.656   1.062 -0.9179 -0.6696  0.5023
  120SOL    HW2  479   0.228   0.762   0.964  0.6973  1.5202  2.8745
  120SOL     MW  480   0.180   0.701   0.995  0.3383 -0.1771  0.9394
  121SOL     OW  481   1.842   1.109   1.706 -0.3349 -0.3983 -0.1239
  121SOL    HW1  482   1.754   1.067   1.708 -1.5666  0.3135 -0.5693
  121SOL    HW2  483   1.902   1.047   1.670 -0.6162 -1.0828 -1.3071
  121SOL     MW  484   1.838   1.095   1.701 -0.5345 -0.3947 -0.3388
  122SOL     OW  485   0.154   0.553   0.741 -0.1854  0.2174  0.1607
  122SOL    HW1  486   0.229   0.555   0.683  0.4524  1.4411  1.3229
  122SOL    HW2  487   0.178   0.577   0.831 -0.1984  0.1939 -0.3940
  122SOL     MW  488   0.167   0.556   0.746 -0.1030  0.3758  0.2409
  123SOL     OW  489   1.821   1.093   0.484  0.0987  0.0094  0.1776
  123SOL    HW1  490   1.741   1.035   0.474 -0.1678  0.8347  0.0691
  123SOL    HW2  491   1.838   1.082   0.583 -1.7548  2.5517  0.1911
  123SOL     MW  492   1.813   1.084   0.496 -0.1810  0.4537  0.1651
  124SOL     OW  493   0.653   0.562   0.921 -0.1699 -0.0657  0.3116
  124SOL    HW1  494   0.594   0.504   0.865 -0.3289 -0.3663 -1.4321
  124SOL    HW2  495   0.658   0.645   0.872  0.7427  2.6925 -0.2790
  124SOL     MW  496   0.646   0.565   0.907 -0.0704  0.2586  0.0036
  125SOL     OW  497   0.663   1.740   1.695  0.3591  0.1008  0.1091
  125SOL    HW1  498   0.588   1.683   1.691  1.6971  1.5543 -0.5388
  125SOL    HW2  499   0.629   1.816   1.640  0.2288  2.3515  2.2131
  125SOL     MW  500   0.649   1.743   1.687  0.5184  0.5895  0.3012
  126SOL     OW  501   2.093   1.607   1.956  0.2687  0.3150  0.2120
  126SOL    HW1  502   2.166   1.670   1.960  1.3289 -0.1123  3.0121
  126SOL    HW2  503   2.145   1.534   1.988  0.7752 -2.2082  0.7556
  126SOL     MW  504   2.109   1.606   1.961  0.4754 -0.0743  0.6532
  127SOL     OW  505   0.630   0.749   1.881  0.3407  0.3311  0.0274
  127SOL    HW1  506   0.714   0.705   1.910  3.1134 -0.3332  0.4765
  127SOL    HW2  507   0.621   0.835   1.921 -0.5007 -1.3402  1.2474
  127SOL     MW  508   0.640   0.755   1.890  0.5955  0.0229  0.2476
  128SOL     OW  509   1.835   0.790   2.867 -0.1487  0.4416 -0.3104
  128SOL    HW1  510   1.829   0.741   2.786  1.3529 -0.8903  0.1181
  128SOL    HW2  511   1.780   0.875   2.855  0.1278  1.5352 -4.3269
  128SOL     MW  512   1.827   0.795   2.855  0.0859  0.4102 -0.7838
  129SOL     OW  513   1.556   0.982   0.191  0.5267 -0.0857  0.5360
  129SOL    HW1  514   1.514   0.904   0.176 -0.4630  1.3653 -1.4603
  129SOL    HW2  515   1.580   0.974   0.283 -2.6474 -1.9670 -0.3304
  129SOL     MW  516   1.554   0.971   0.201 -0.0227 -0.1425  0.1583
  130SOL     OW  517   0.760   1.416   0.410  0.6850 -0.0328  0.1092
  130SOL    HW1  518   0.774   1.397   0.506  1.5713 -0.9602  3.4374
  130SOL    HW2  519   0.842   1.381   0.371  2.3975  0.0479  2.2808
  130SOL     MW  520   0.772   1.409   0.417  1.0279 -0.1445  0.8349
  131SOL     OW  521   3.018   0.821   3.098 -0.0879 -0.2456 -0.6828
  131SOL    HW1  522   3.015   0.888   3.024 -0.1897 -1.2067 -2.7743
  131SOL    HW2  523   3.110   0.799   3.124  4.4802  2.5299  2.5014
  131SOL     MW  524   3.029   0.827   3.091  0.5014 -0.0063 -0.5386
  132SOL     OW  525   2.787   0.137   1.235  0.5407 -0.1779 -0.2500
  132SOL    HW1  526   2.837   0.130   1.156  0.8451  0.4308  0.5964
  132SOL    HW2  527   2.693   0.120   1.216  1.3176 -1.4517  0.2169
  132SOL     MW  528   2.781   0.134   1.222  0.6833 -0.2657 -0.0767
  133SOL     OW  529   1.086   0.130   1.715 -0.7582  0.5365 -0.0107
  133SOL    HW1  530   1.154   0.064   1.735 -2.8935 -0.9686 -2.2516
  133SOL    HW2  531   1.040   0.161   1.797  1.2883  1.6869  0.6405
  133SOL     MW  532   1.089   0.126   1.729 -0.7699  0.4897 -0.2204
  134SOL     OW  533   1.409   2.521   1.430  0.3040  0.0218  0.1190
  134SOL    HW1  534   1.346   2.594   1.427 -0.7592  0.8601  0.6661
  134SOL    HW2  535   1.445   2.532   1.521  0.9550  0.0521 -2.6675
  134SOL     MW  536   1.405   2.532   1.442  0.2496  0.1364 -0.1765
  135SOL     OW  537   3.035   1.013   2.889 -0.5952  0.6155 -0.2607
  135SOL    HW1  538   3.106   1.077   2.915  1.4230 -1.1181  0.7569
  135SOL    HW2  539   2.952   1.051   2.918 -0.6756 -4.4556 -3.0733
  135SOL     MW  540   3.033   1.026   2.896 -0.3395 -0.2823 -0.4975
  136SOL     OW  541   0.256   2.013   0.842  0.5518  0.0615  0.5118
  136SOL    HW1  542   0.182   1.960   0.809  3.6878 -0.6895 -0.4116
  136SOL    HW2  543   0.328   1.969   0.800 -0.3217 -0.6375  1.3378
  136SOL     MW  544   0.256   2.000   0.832  0.8503 -0.1298  0.4989
  137SOL     OW  545   0.760   2.031   0.510 -0.3901  0.5684  0.2334
  137SOL    HW1  546   0.786   2.001   0.596 -2.6863  1.0158 -0.1741
  137SOL    HW2  547   0.670   2.060   0.531  0.5849  0.2994  0.8237
  137SOL     MW  548   0.752   2.031   0.524 -0.5645  0.5920  0.2575
  138SOL     OW  549   0.519   0.552   1.173 -0.2781 -0.4219  0.1414
  138SOL    HW1  550   0.444   0.501   1.126  0.4089 -0.8926 -1.0585
  138SOL    HW2  551   0.584   0.561   1.106 -2.5636  1.6476  1.3243
  138SOL     MW  552   0.518   0.546   1.158 -0.4890 -0.2109  0.1392
  139SOL     OW  553   2.672   0.519   1.407 -0.3024 -0.1504  0.4329
  139SOL    HW1  554   2.749   0.468   1.382 -0.2634  2.4189 -1.0864
  139SOL    HW2  555   2.723   0.588   1.455 -1.3109  2.6801  0.3009
  139SOL     MW  556   2.689   0.521   1.410 -0.4303  0.5620  0.2151
  140SOL     OW  557   0.848   0.392   2.082 -0.1224 -0.6430  0.4806
  140SOL    HW1  558   0.901   0.335   2.020 -0.3894 -0.3210  1.4516
  140SOL    HW2  559   0.910   0.406   2.153 -0.3348  0.5546 -1.1991
  140SOL     MW  560   0.863   0.387   2.083 -0.1856 -0.4425  0.3871
  141SOL     OW  561   1.075   0.582   1.752  0.9542 -0.3236  0.0781
  141SOL    HW1  562   1.134   0.545   1.694 -1.2096  1.0583  1.2799
  141SOL    HW2  563   1.095   0.677   1.751  0.5474  2.3960  0.7320
  141SOL     MW  564   1.086   0.590   1.745  0.6151  0.2176  0.3229
  142SOL     OW  565   0.940   1.097   0.770 -0.4999  0.0553  0.2897
  142SOL    HW1  566   0.893   1.076   0.683  0.3295 -1.7654 -0.6800
  142SOL    HW2  567   1.035   1.078   0.760  2.1143 -0.2498  0.5898
  142SOL     MW  568   0.947   1.092   0.757 -0.0455 -0.2252  0.2013
  143SOL     OW  569   1.784   0.784   1.108 -0.0265 -0.1666 -0.0606
  143SOL    HW1  570   1.808   0.786   1.016  1.6304 -0.3375  0.9322
  143SOL    HW2  571   1.727   0.705   1.126  0.3252  0.2537 -1.3758
  143SOL     MW  572   1.780   0.774   1.098  0.2385 -0.1337 -0.1032
  144SOL     OW  573   0.204   1.230   1.537 -0.6036  0.1450 -0.0583
  144SOL    HW1  574   0.292   1.191   1.530 -0.4142 -1.0035  1.9213
  144SOL    HW2  575   0.197   1.253   1.631 -3.6979  1.0101  0.9308
  144SOL     MW  576   0.214   1.228   1.549 -0.9869  0.1076  0.3334
  145SOL     OW  577   0.309   0.436   1.071  0.2789 -0.0212  0.1229
  145SOL    HW1  578   0.322   0.367   1.141 -0.1736  2.0685 -1.3838
  145SOL    HW2  579   0.254   0.389   0.996  0.3022 -1.2939  1.1250
  145SOL     MW  580   0.303   0.421   1.070  0.2223  0.0866  0.0563
  146SOL     OW  581   0.863   1.956   1.387  0.1871 -0.3245 -0.1627
  146SOL    HW1  582   0.893   1.940   1.294  0.0643 -1.4641  0.7141
  146SOL    HW2  583   0.775   1.954   1.368  2.6288 -2.0168 -0.0831
  146SOL     MW  584   0.856   1.954   1.372  0.4931 -0.6981 -0.0365
  147SOL     OW  585   0.374   0.420   2.953 -0.1954 -1.0348 -0.1334
  147SOL    HW1  586   0.305   0.467   3.003 -1.4377 -0.6528  0.5379
  147SOL    HW2  587   0.374   0.471   2.870  0.4319  2.2440 -0.9718
  147SOL     MW  588   0.365   0.433   2.949 -0.2766 -0.5518 -0.1554
  148SOL     OW  589   0.089   0.871   1.369  0.7540  0.1371 -0.3478
  148SOL    HW1  590   0.172   0.908   1.330 -2.3034  1.2114 -1.0599
  148SOL    HW2  591   0.101   0.898   1.456  1.6996 -2.6595 -0.2873
  148SOL     MW  592   0.101   0.879   1.376  0.4754 -0.0901 -0.4338
  149SOL     OW  593   1.390   1.166   1.448  0.2739  0.7755 -0.6849
  149SOL    HW1  594   1.354   1.142   1.532  0.9591 -2.1482 -0.6391
  149SOL    HW2  595   1.472   1.201   1.473 -2.0062  1.8483  0.1648
  149SOL     MW  596   1.396   1.167   1.462  0.0635  0.5313 -0.5667
  150SOL     OW  597   1.862   1.351   0.759 -0.0023  0.4859 -0.7294
  150SOL    HW1  598   1.873   1.256   0.765 -0.1141  0.6358 -0.3424
  150SOL    HW2  599   1.941   1.386   0.797 -0.0344 -1.1438  0.1584
  150SOL     MW  600   1.874   1.343   0.765 -0.0213  0.2907 -0.5612
  151SOL     OW  601   1.657   1.873   0.851 -0.3983 -0.3815 -0.1021
  151SOL    HW1  602   1.621   1.851   0.765  1.1772  0.1261 -0.7118
  151SOL    HW2  603   1.625   1.802   0.905  3.2009  3.6604  1.7391
  151SOL     MW  604   1.648   1.861   0.847  0.2844  0.2188  0.0604
  152SOL     OW  605   0.777   1.346   1.470 -0.3712  0.1553  0.0146
  152SOL    HW1  606   0.767   1.280   1.531  1.8011 -0.1425 -0.4792
  152SOL    HW2  607   0.873   1.361   1.465 -0.1829  0.9688  0.6020
  152SOL     MW  608   0.789   1.339   1.478 -0.0597  0.2233  0.0269
  153SOL     OW  609   2.618   1.272   0.754  0.5488 -0.0681  0.1363
  153SOL    HW1  610   2.686   1.260   0.687 -1.7093  3.1417  0.1538
  153SOL    HW2  611   2.554   1.203   0.721  0.0844  2.3079  2.2132
  153SOL     MW  612   2.618   1.261   0.741  0.1896  0.6689  0.4127
  154SOL     OW  613   0.372   1.727   1.696 -0.2657 -0.3091  0.3748
  154SOL    HW1  614   0.388   1.694   1.605  0.8638  1.8076 -0.4235
  154SOL    HW2  615   0.349   1.652   1.751 -2.5883  2.8449 -4.0359
  154SOL     MW  616   0.371   1.712   1.692 -0.4231  0.3863 -0.3125
  155SOL     OW  617   1.093   0.644   0.293  0.2549  0.2738 -0.1581
  155SOL    HW1  618   1.094   0.609   0.384 -2.0679 -1.5962  0.1616
  155SOL    HW2  619   1.059   0.738   0.298 -0.9294  0.3715  0.9598
  155SOL     MW  620   1.089   0.652   0.305 -0.2078  0.0399  0.0315
  156SOL     OW  621   1.541   3.018   1.064  0.6652  0.3076  0.2932
  156SOL    HW1  622   1.573   3.107   1.093  2.1990  0.4220  2.3126
  156SOL    HW2  623   1.543   2.959   1.145  2.2456 -1.3541  0.5013
  156SOL     MW  624   1.545   3.022   1.078  1.0761  0.1034  0.5871
  157SOL     OW  625   1.391   1.187   0.132  0.5982 -1.3207  0.0314
  157SOL    HW1  626   1.453   1.113   0.137 -1.8176 -0.9886  0.2587
  157SOL    HW2  627   1.439   1.266   0.147  1.5749 -2.8237  0.4274
  157SOL     MW  628   1.405   1.187   0.135  0.4083 -1.4751  0.1136
  158SOL     OW  629   0.465   1.631   2.232 -0.2359  0.9806  0.1904
  158SOL    HW1  630   0.473   1.688   2.156  0.0437  1.1804 -0.9968
  158SOL    HW2  631   0.377   1.643   2.265 -1.1471  0.8008 -1.5565
  158SOL     MW  632   0.454   1.640   2.226 -0.3193  0.9832 -0.1967
  159SOL     OW  633   1.313   1.703   0.466 -0.6452  0.2913 -0.1953
  159SOL    HW1  634   1.274   1.640   0.408 -1.5544  0.5540  2.9289
  159SOL    HW2  635   1.236   1.753   0.504  2.0764 -0.1502 -1.8825
  159SOL     MW  636   1.298   1.701   0.463 -0.4061  0.2677 -0.0057
  160SOL     OW  637   0.475   1.122   1.569  0.0510 -0.5267  0.2069
  160SOL    HW1  638   0.485   1.029   1.594 -0.6649  1.7966 -0.2502
  160SOL    HW2  639   0.500   1.180   1.647  1.1992  1.3895 -1.7965
  160SOL     MW  640   0.479   1.117   1.582  0.1081  0.0326 -0.1177
  161SOL     OW  641   0.541   2.156   2.634  0.0436  0.1553 -0.5250
  161SOL    HW1  642   0.449   2.146   2.620  0.8940  1.8584 -0.4847
  161SOL    HW2  643   0.590   2.107   2.570 -0.0055 -2.3868  0.7659
  161SOL     MW  644   0.536   2.148   2.624  0.1493  0.0446 -0.3494
  162SOL     OW  645   0.995   1.713   1.743  0.5060  0.7813  0.1647
  162SOL    HW1  646   1.019   1.809   1.769 -0.1285  2.6089 -1.2561
  162SOL    HW2  647   0.939   1.686   1.821 -3.0825  1.8036  2.4492
  162SOL     MW  648   0.991   1.722   1.757 -0.0512  1.1573  0.2787
  163SOL     OW  649   2.111   0.108   0.981 -0.5543 -0.6924  0.0005
  163SOL    HW1  650   2.070   0.143   0.906 -0.3625 -2.0630  3.3237
  163SOL    HW2  651   2.067   0.024   1.005  2.5905 -2.1564  0.6888
  163SOL     MW  652   2.100   0.102   0.974 -0.1141 -1.0664  0.5298
  164SOL     OW  653   0.301   0.207   0.749  0.7030 -0.5173  0.6606
  164SOL    HW1  654   0.210   0.212   0.781 -1.0213 -0.1722  1.3275
  164SOL    HW2  655   0.323   0.115   0.735 -0.0716  1.0745 -2.6633
  164SOL     MW  656   0.292   0.196   0.751  0.3733 -0.2617  0.3101
  165SOL     OW  657   1.355   1.260   0.411 -0.6555 -0.4696 -0.2717
  165SOL    HW1  658   1.282   1.197   0.440 -0.3948 -0.6777 -1.3075
  165SOL    HW2  659   1.355   1.228   0.322  4.7770  1.0327  1.6412
  165SOL     MW  660   1.345   1.248   0.403  0.0957 -0.2988 -0.1560
  166SOL     OW  661   0.514   1.038   0.934 -0.2045  0.7209  0.1985
  166SOL    HW1  662   0.496   0.957   0.990 -1.6630  1.0611  0.5257
  166SOL    HW2  663   0.605   1.063   0.956 -1.4854  1.2597 -0.5870
  166SOL     MW  664   0.524   1.031   0.944 -0.5659  0.8369  0.1380
  167SOL     OW  665   0.839   1.158   0.245  0.1348 -0.4891 -0.1228
  167SOL    HW1  666   0.743   1.155   0.230  2.1181 -0.2417  1.9041
  167SOL    HW2  667   0.867   1.207   0.173 -2.1432 -4.2351 -0.1903
  167SOL     MW  668   0.830   1.164   0.234  0.0959 -0.9507  0.1357
  168SOL     OW  669   1.686   1.709   2.920 -0.0316 -0.2765  0.2797
  168SOL    HW1  670   1.597   1.726   2.895 -0.1622 -0.1758  0.3634
  168SOL    HW2  671   1.689   1.621   2.944  0.7617  3.5396 -2.0297
  168SOL     MW  672   1.675   1.700   2.920  0.0559  0.2403 -0.0139
  169SOL     OW  673   0.354   0.974   1.303 -0.1239  0.1066 -0.1797
  169SOL    HW1  674   0.375   0.936   1.389 -1.3834 -1.7301  0.8728
  169SOL    HW2  675   0.411   1.053   1.284  1.7963 -2.4691 -2.2460
  169SOL     MW  676   0.364   0.979   1.312 -0.0368 -0.4756 -0.3135
  170SOL     OW  677   1.030   1.462   1.489 -0.7432 -0.1230 -1.0205
  170SOL    HW1  678   0.985   1.548   1.480  0.1396 -0.8789  1.7724
  170SOL    HW2  679   1.073   1.462   1.399 -0.7608  0.5532  3.8057
  170SOL     MW  680   1.030   1.473   1.476 -0.6290 -0.1336 -0.0152
  171SOL     OW  681   0.575   1.417   0.692 -0.2351  0.5239  0.0270
  171SOL    HW1  682   0.543   1.373   0.769  0.5940  0.2861  2.3405
  171SOL    HW2  683   0.541   1.367   0.619  2.7223  0.0404  0.3753
  171SOL     MW  684   0.566   1.404   0.693  0.2645  0.4287  0.3782
  172SOL     OW  685   0.871   0.322   1.264  0.2591  0.4303  0.6948
  172SOL    HW1  686   0.866   0.330   1.164  0.1047 -1.0092 -0.4219
  172SOL    HW2  687   0.774   0.332   1.290 -1.4684  1.3457 -0.3757
  172SOL     MW  688   0.858   0.324   1.254  0.0108  0.3612  0.4063
  173SOL     OW  689   0.478   1.667   0.393 -0.0210 -0.1994  0.3895
  173SOL    HW1  690   0.476   1.578   0.354 -0.5529 -3.4786 -0.5153
  173SOL    HW2  691   0.514   1.657   0.483  3.6207 -1.3093  0.2867
  173SOL     MW  692   0.482   1.654   0.400  0.3893 -0.7785  0.2566
  174SOL     OW  693   1.976   0.937   1.450 -0.1233  0.8409  0.2300
  174SOL    HW1  694   1.919   0.855   1.465  0.1337 -1.0783 -0.1709
  174SOL    HW2  695   1.941   0.990   1.380 -1.0687  2.2592  1.2468
  174SOL     MW  696   1.963   0.933   1.443 -0.2141  0.7748  0.3112
  175SOL     OW  697   0.487   1.412   0.325 -0.0761 -0.4598  0.2459
  175SOL    HW1  698   0.475   1.376   0.239 -1.1522  1.6188 -0.7393
  175SOL    HW2  699   0.581   1.421   0.339 -4.3627  2.1001 -1.5936
  175SOL     MW  700   0.498   1.408   0.315 -0.7836  0.1522 -0.1268
  176SOL     OW  701   0.240   1.294   1.279 -0.1831  0.8534 -0.1591
  176SOL    HW1  702   0.175   1.269   1.208  1.0230  1.5484 -1.7936
  176SOL    HW2  703   0.188   1.276   1.364  1.4110 -1.0536 -0.0957
  176SOL     MW  704   0.224   1.289   1.281  0.1863  0.6935 -0.3664
  177SOL     OW  705   0.582   0.329   1.303 -0.0727  0.1424 -0.3435
  177SOL    HW1  706   0.553   0.411   1.260  0.7376  2.4217  0.9369
  177SOL    HW2  707   0.588   0.361   1.390 -0.6913 -6.0449 -1.0675
  177SOL     MW  708   0.579   0.344   1.309 -0.0474 -0.3732 -0.2701
  178SOL     OW  709   3.048   0.400   2.901 -0.5745 -0.0820 -0.5605
  178SOL    HW1  710   3.010   0.446   2.981  0.3320  1.1345 -0.4196
  178SOL    HW2  711   2.993   0.419   2.829  2.1498 -0.3622  1.5334
  178SOL     MW  712   3.036   0.409   2.902 -0.0955  0.0416 -0.2656
  179SOL     OW  713   1.634   1.322   1.441 -0.5805  0.2723  0.1564
  179SOL    HW1  714   1.651   1.384   1.514 -1.6524 -3.5808  1.7310
  179SOL    HW2  715   1.722   1.306   1.398  2.0779  0.5805 -0.5087
  179SOL     MW  716   1.648   1.328   1.445 -0.3712 -0.1954  0.2764
  180SOL     OW  717   2.985   0.182   0.434 -0.3812  0.1889 -0.0146
  180SOL    HW1  718   2.945   0.218   0.355  0.0263 -0.4733  0.9879
  180SOL    HW2  719   3.065   0.239   0.449  3.2215 -0.5761  0.2662
  180SOL     MW  720   2.990   0.194   0.426  0.1479  0.0006  0.1547
  181SOL     OW  721   1.152   1.444   3.031 -0.1279 -0.6263  0.2396
  181SOL    HW1  722   1.224   1.490   3.073 -1.8291 -0.9270  1.2634
  181SOL    HW2  723   1.187   1.399   2.952 -1.0462  1.3882 -0.8697
  181SOL     MW  724   1.166   1.444   3.026 -0.4735 -0.4002  0.2283
  182SOL     OW  725   0.487   0.856   1.655  0.6500  0.3001 -0.4460
  182SOL    HW1  726   0.409   0.816   1.689  1.1003  1.3404  1.2594
  182SOL    HW2  727   0.559   0.827   1.715  0.0336  2.0617  1.3193
  182SOL     MW  728   0.486   0.847   1.667  0.6281  0.6698  0.0119
  183SOL     OW  729   1.527   1.486   1.241 -0.9840  0.4070  0.1126
  183SOL    HW1  730   1.460   1.528   1.299  1.7554  0.9378  1.0278
  183SOL    HW2  731   1.581   1.438   1.300  0.6031  0.3018  0.0798
  183SOL     MW  732   1.525   1.486   1.256 -0.4132  0.4632  0.2290
  184SOL     OW  733   0.861   0.630   1.955 -0.0075  0.4223  0.3442
  184SOL    HW1  734   0.917   0.595   1.885  0.5113 -1.9612  2.1433
  184SOL    HW2  735   0.842   0.550   1.999  3.8514  1.1226 -1.4605
  184SOL     MW  736   0.866   0.615   1.951  0.5701  0.2002  0.3435
  185SOL     OW  737   1.203   0.936   1.967  0.1625 -0.1083 -0.2960
  185SOL    HW1  738   1.211   0.855   2.013 -0.8974  1.3547 -0.5111
  185SOL    HW2  739   1.204   1.008   2.032 -1.5256  2.6127  1.6567
  185SOL     MW  740   1.204   0.935   1.982 -0.2001  0.4437 -0.0668
  186SOL     OW  741   0.411   1.656   1.407 -0.1359  0.1676  0.1694
  186SOL    HW1  742   0.482   1.718   1.382  2.9403 -2.4257  0.5669
  186SOL    HW2  743   0.367   1.628   1.331  2.3783  1.8594 -1.3180
  186SOL     MW  744   0.415   1.661   1.393  0.6017  0.0487  0.0256
  187SOL     OW  745   1.455   0.755   1.460 -0.6098  0.3222 -0.5611
  187SOL    HW1  746   1.442   0.725   1.548  0.6438  1.4983 -0.8827
  187SOL    HW2  747   1.367   0.756   1.422  1.0258 -0.0093 -1.4001
  187SOL     MW  748   1.442   0.752   1.467 -0.2286  0.4336 -0.7142
  188SOL     OW  749   1.892   1.059   0.754  0.2797  0.4165  0.9081
  188SOL    HW1  750   1.838   0.991   0.781 -0.3381  2.2312  2.1714
  188SOL    HW2  751   1.985   1.034   0.769  0.7507 -3.3509  0.5889
  188SOL     MW  752   1.897   1.047   0.759  0.2604  0.1588  1.0327
  189SOL     OW  753   0.715   0.822   0.785  0.6796 -0.7823 -0.7232
  189SOL    HW1  754   0.629   0.854   0.752  0.4365 -1.6487  0.5215
  189SOL    HW2  755   0.760   0.893   0.838  3.1085  0.9824  0.8118
  189SOL     MW  756   0.710   0.836   0.787  0.9680 -0.6638 -0.3564
  190SOL     OW  757   1.876   0.215   2.025  0.0973 -0.1504  0.3146
  190SOL    HW1  758   1.867   0.121   2.059 -3.7697 -1.9689  1.3593
  190SOL    HW2  759   1.969   0.240   2.010  2.7213 -2.9685 -1.8146
  190SOL     MW  760   1.887   0.206   2.027 -0.0667 -0.7621  0.1715
  191SOL     OW  761   1.513   0.966   1.279 -0.3395 -0.6452 -0.5750
  191SOL    HW1  762   1.453   1.029   1.320 -1.5322 -0.5436 -2.5665
  191SOL    HW2  763   1.517   0.888   1.336 -0.5902  0.8119  1.3633
  191SOL     MW  764   1.505   0.964   1.292 -0.5299 -0.4395 -0.5821
  192SOL     OW  765   0.661   2.001   2.830 -0.5416  0.9631 -0.4774
  192SOL    HW1  766   0.631   2.069   2.772 -0.2399 -1.3864  2.9456
  192SOL    HW2  767   0.595   1.929   2.812  0.2055  1.5850  1.1584
  192SOL     MW  768   0.648   2.001   2.820 -0.4032  0.7352  0.1900
  193SOL     OW  769   0.980   1.632   0.738  0.6561 -0.4293 -1.0009
  193SOL    HW1  770   0.983   1.640   0.836 -0.1621  0.2790  2.2950
  193SOL    HW2  771   0.935   1.549   0.725  1.9993  0.4079  0.6862
  193SOL     MW  772   0.975   1.622   0.749  0.7254 -0.2254 -0.3434
  194SOL     OW  773   0.511   1.314   0.946  0.5243 -0.0086 -0.5558
  194SOL    HW1  774   0.498   1.220   0.949  0.1538  4.2354  0.0131
  194SOL    HW2  775   0.431   1.350   0.915  2.6500 -0.4205 -0.5904
  194SOL     MW  776   0.499   1.307   0.942  0.7559  0.4970 -0.4853
  195SOL     OW  777   1.296   1.090   2.960 -0.1382  0.0415 -0.1010
  195SOL    HW1  778   1.322   1.122   3.051 -0.0615  0.5172  0.4165
  195SOL    HW2  779   1.204   1.067   2.972 -1.1867 -3.1389  0.6819
  195SOL     MW  780   1.287   1.091   2.973 -0.2664 -0.3154  0.0706
  196SOL     OW  781   2.195   1.075   0.622 -0.2515 -0.5652  0.1543
  196SOL    HW1  782   2.150   1.021   0.557  0.3905 -1.2524  1.8482
  196SOL    HW2  783   2.168   1.164   0.594  1.5356 -0.6214 -4.2421
  196SOL     MW  784   2.186   1.079   0.610  0.0690 -0.6633 -0.2022
  197SOL     OW  785   0.634   1.276   2.023  0.7643  0.4458 -0.5674
  197SOL    HW1  786   0.653   1.182   2.010 -2.2836  2.7531  0.1562
  197SOL    HW2  787   0.583   1.301   1.947 -1.3235 -0.0557 -0.8349
  197SOL     MW  788   0.630   1.267   2.011  0.0867  0.6841 -0.5072
  198SOL     OW  789   2.942   1.480   1.040  0.0345 -0.1803  0.6604
  198SOL    HW1  790   2.917   1.575   1.019 -0.2912  1.3638  0.6040
  198SOL    HW2  791   2.869   1.426   1.016  0.1965 -1.4741 -0.8837
  198SOL     MW  792   2.929   1.485   1.034  0.0129 -0.1473  0.4493
  199SOL     OW  793   0.505   1.305   1.790  0.0175  0.2548  0.8053
  199SOL    HW1  794   0.411   1.309   1.799 -0.8295 -1.3173  0.9555
  199SOL    HW2  795   0.523   1.381   1.728 -0.9049  1.1244  1.9802
  199SOL     MW  796   0.495   1.315   1.783 -0.2160  0.1621  0.9801
  200SOL     OW  797   1.908   3.097   1.356  0.2384 -0.3378  0.5643
  200SOL    HW1  798   1.926   3.095   1.263 -0.7929 -0.8355  1.2362
  200SOL    HW2  799   1.813   3.089   1.356  2.0938  1.6289 -2.3849
  200SOL     MW  800   1.898   3.096   1.344  0.3471 -0.1440  0.2638
  201SOL     OW  801   1.064   0.270   0.801 -0.5799 -0.5111  0.0557
  201SOL    HW1  802   1.029   0.189   0.764  0.5374 -1.7931 -3.2179
  201SOL    HW2  803   1.121   0.307   0.727 -0.0289 -0.0975  0.1916
  201SOL     MW  804   1.067   0.264   0.787 -0.3598 -0.6257 -0.3583
  202SOL     OW  805   1.543   1.673   1.034  0.0974 -0.0881 -0.6304
  202SOL    HW1  806   1.561   1.595   0.976  0.7844  0.8248 -1.0505
  202SOL    HW2  807   1.550   1.635   1.122  0.3148  1.1490 -0.5752
  202SOL     MW  808   1.547   1.658   1.038  0.2167  0.1956 -0.6785
  203SOL     OW  809   3.092   0.475   1.158 -0.0777 -0.2118 -0.2920
  203SOL    HW1  810   3.120   0.388   1.123  0.3316 -2.6281  1.2962
  203SOL    HW2  811   3.172   0.515   1.199 -0.4461 -0.2261 -0.5481
  203SOL     MW  812   3.106   0.469   1.159 -0.0723 -0.5325 -0.1162
  204SOL     OW  813   1.048   1.785   0.532 -0.1811 -0.1347  0.3727
  204SOL    HW1  814   1.029   1.722   0.604  1.6944 -0.5052 -1.7124
  204SOL    HW2  815   0.978   1.774   0.466 -1.6297 -0.3897  1.0344
  204SOL     MW  816   1.036   1.775   0.533 -0.1248 -0.2173  0.1849
  205SOL     OW  817   1.360   0.096   1.344  0.1230  0.3082 -0.3203
  205SOL    HW1  818   1.302   0.103   1.270 -0.4357 -1.5707  0.2052
  205SOL    HW2  819   1.378   0.182   1.375  0.0604 -1.8370  3.6425
  205SOL     MW  820   1.354   0.108   1.339  0.0410 -0.2227  0.2719
  206SOL     OW  821   0.414   3.087   1.428  0.0005 -0.1620  0.3286
  206SOL    HW1  822   0.352   3.047   1.373  0.8085 -2.4244 -0.4166
  206SOL    HW2  823   0.483   3.026   1.397 -0.0880  2.6973 -0.4630
  206SOL     MW  824   0.415   3.074   1.417  0.0954 -0.0832  0.1258
  207SOL     OW  825   0.964   1.510   0.202  0.6145  0.4956 -0.0368
  207SOL    HW1  826   0.972   1.602   0.195 -0.3959 -0.4286 -0.7726
  207SOL    HW2  827   1.048   1.484   0.225 -1.3670  0.1774 -0.8381
  207SOL     MW  828   0.976   1.519   0.204  0.2197  0.3316 -0.2396
  208SOL     OW  829   0.696   1.583   1.296 -0.1562  0.0704  0.3474
  208SOL    HW1  830   0.776   1.603   1.351  1.9908 -0.3796  1.4295
  208SOL    HW2  831   0.678   1.493   1.327  0.4165 -1.4360  1.1453
  208SOL     MW  832   0.705   1.573   1.307  0.2027 -0.1877  0.5954
  209SOL     OW  833   1.563   0.542   2.839  0.3844  0.2574  0.2875
  209SOL    HW1  834   1.625   0.607   2.867  0.5694 -1.3028  0.2151
  209SOL    HW2  835   1.613   0.452   2.832 -1.6298  1.6693 -0.3488
  209SOL     MW  836   1.578   0.539   2.842  0.1431  0.2378  0.1940
  210SOL     OW  837   1.624   1.445   0.871  0.1889 -0.1317 -0.2706
  210SOL    HW1  838   1.711   1.429   0.841  1.4431  0.4718  1.3761
  210SOL    HW2  839   1.571   1.435   0.787 -1.7183  0.0246 -0.7446
  210SOL     MW  840   1.628   1.441   0.856  0.1027 -0.0314 -0.1159
  211SOL     OW  841   1.698   0.385   0.944 -0.7155 -0.8961  0.3414
  211SOL    HW1  842   1.671   0.420   0.862 -1.7187 -1.0209  3.3540
  211SOL    HW2  843   1.788   0.420   0.960  2.0603 -0.6271  0.1686
  211SOL     MW  844   1.706   0.394   0.935 -0.4816 -0.8771  0.7161
  212SOL     OW  845   0.239   1.125   0.085  0.4191 -0.3278 -0.1254
  212SOL    HW1  846   0.213   1.091   0.173  0.3032  0.0579 -0.9145
  212SOL    HW2  847   0.314   1.074   0.055  0.1950  0.8684 -0.7794
  212SOL     MW  848   0.246   1.114   0.093  0.3743 -0.1191 -0.3158
  213SOL     OW  849   0.398   1.766   3.034 -0.3407  0.1376  0.1965
  213SOL    HW1  850   0.454   1.805   3.100 -1.3489  2.0904 -0.5093
  213SOL    HW2  851   0.441   1.783   2.950 -1.9619 -0.0033 -1.1809
  213SOL     MW  852   0.411   1.774   3.032 -0.6876  0.3766 -0.0783
  214SOL     OW  853   0.623   0.288   2.237  0.0710  0.1366  0.0913
  214SOL    HW1  854   0.562   0.357   2.201 -0.2109  1.7648 -1.8378
  214SOL    HW2  855   0.692   0.269   2.173  1.4843  0.2987 -3.6238
  214SOL     MW  856   0.624   0.295   2.224  0.2203  0.3728 -0.6534
  215SOL     OW  857   0.459   0.693   2.625 -0.1075 -0.1032  0.6371
  215SOL    HW1  858   0.507   0.671   2.545  1.1699  0.6487 -0.0258
  215SOL    HW2  859   0.392   0.626   2.655 -0.5121 -3.5851 -0.4396
  215SOL     MW  860   0.457   0.681   2.618  0.0076 -0.4634  0.4076
  216SOL     OW  861   3.039   3.034   2.653 -0.3084 -0.0868 -0.4852
  216SOL    HW1  862   2.998   2.994   2.737  2.8362 -3.2974 -1.5675
  216SOL    HW2  863   3.030   3.131   2.662  1.2592  0.3670 -0.8365
  216SOL     MW  864   3.032   3.042   2.665  0.3133 -0.4505 -0.6744
  217SOL     OW  865   0.960   1.264   0.028 -0.2021 -0.6159 -0.3259
  217SOL    HW1  866   0.989   1.176   0.001  3.0373  1.8946  2.2794
  217SOL    HW2  867   1.028   1.319  -0.001 -0.2654  0.0128 -0.2028
  217SOL     MW  868   0.973   1.260   0.020  0.2170 -0.2017  0.0341
  218SOL     OW  869   0.903   1.325   2.529  0.0298 -0.4858 -0.7268
  218SOL    HW1  870   0.915   1.241   2.566  0.6193  3.2034  1.1262
  218SOL    HW2  871   0.975   1.375   2.555 -1.1188 -1.4046  0.9049
  218SOL     MW  872   0.914   1.321   2.537 -0.0439 -0.1203 -0.2670
  219SOL     OW  873   1.065   0.460   2.521  0.3421 -0.3393  0.3144
  219SOL    HW1  874   1.126   0.475   2.594  1.3678  2.1922 -2.5417
  219SOL    HW2  875   1.004   0.536   2.525  1.7676 -1.0854  0.1227
  219SOL     MW  876   1.065   0.472   2.531  0.6655 -0.1037 -0.0877
  220SOL     OW  877   1.784   0.424   2.185 -0.8043 -0.3473 -0.5563
  220SOL    HW1  878   1.716   0.470   2.137  1.4130 -0.1261  1.3736
  220SOL    HW2  879   1.809   0.343   2.142  1.8119 -0.3041  0.7812
  220SOL     MW  880   1.778   0.419   2.173 -0.1666 -0.3124 -0.1252
  221SOL     OW  881   0.354   1.324   2.880 -0.2486 -0.3779 -0.6175
  221SOL    HW1  882   0.396   1.239   2.862 -0.2806  0.0035  0.9805
  221SOL    HW2  883   0.358   1.387   2.807  1.8381  3.2812  0.2866
  221SOL     MW  884   0.360   1.321   2.868  0.0225  0.1552 -0.2874
  222SOL     OW  885   0.279   0.898   2.640  0.4010 -0.6675  1.1548
  222SOL    HW1  886   0.287   0.927   2.551 -1.4029  1.2935 -0.2333
  222SOL    HW2  887   0.352   0.839   2.649  0.0282  0.3196 -0.5721
  222SOL     MW  888   0.290   0.894   2.629  0.1138 -0.2785  0.7438
  223SOL     OW  889   0.040   2.061   2.609  0.0404  0.1178  0.0516
  223SOL    HW1  890   0.109   1.997   2.619  5.8171  0.5747  2.1335
  223SOL    HW2  891   0.091   2.129   2.561 -1.8608  0.6605 -1.0983
  223SOL     MW  892   0.056   2.061   2.604  0.5517  0.2497  0.1745
  224SOL     OW  893   1.484   0.806   2.597  0.2796 -0.0192  0.4624
  224SOL    HW1  894   1.466   0.811   2.685  0.3556 -0.0409  0.6833
  224SOL    HW2  895   1.503   0.895   2.575  1.2582  1.0039 -0.6168
  224SOL     MW  896   1.484   0.818   2.605  0.4187  0.1129  0.3492
  225SOL     OW  897   2.968   1.521   2.290  0.2090  0.0640  0.0071
  225SOL    HW1  898   2.986   1.602   2.240  0.3551 -1.3775 -2.7813
  225SOL    HW2  899   2.916   1.544   2.369 -1.5344  0.9661 -0.6741
  225SOL     MW  900   2.963   1.535   2.294 -0.0018 -0.0071 -0.4507
  226SOL     OW  901   0.407   1.422   2.613  0.0589 -0.1902  0.1984
  226SOL    HW1  902   0.506   1.429   2.616  1.6109 -2.5596 -0.1222
  226SOL    HW2  903   0.380   1.514   2.600  0.6655 -1.0514  0.7771
  226SOL     MW  904   0.417   1.435   2.611  0.3437 -0.6164  0.2324
  227SOL     OW  905   0.444   1.062   2.801 -0.2952  0.0311  0.0266
  227SOL    HW1  906   0.533   1.096   2.802 -2.0508  1.2476 -1.6310
  227SOL    HW2  907   0.414   1.024   2.723  1.9477  0.1840  3.4251
  227SOL     MW  908   0.452   1.061   2.791 -0.2309  0.2118  0.2563
  228SOL     OW  909   0.644   0.999   2.002  0.0450 -0.1824  0.0372
  228SOL    HW1  910   0.740   0.993   1.977  2.1178  0.4797 -1.6090
  228SOL    HW2  911   0.649   0.956   2.094 -0.2613 -2.9537  1.1997
  228SOL     MW  912   0.657   0.992   2.011  0.2780 -0.4607 -0.0266
  229SOL     OW  913   0.177   0.555   3.085 -0.8050 -0.0500  0.0544
  229SOL    HW1  914   0.113   0.559   3.011  0.2836  0.2546  0.4383
  229SOL    HW2  915   0.145   0.491   3.149  2.2664  1.9579 -1.5587
  229SOL     MW  916   0.164   0.547   3.083 -0.2562  0.2551 -0.1078
  230SOL     OW  917   1.758   1.398   2.033 -0.3035 -0.1884  0.0748
  230SOL    HW1  918   1.736   1.389   2.128 -0.8443  0.4641  0.2545
  230SOL    HW2  919   1.819   1.332   1.996  2.0956  0.9796  0.4885
  230SOL     MW  920   1.763   1.388   2.040 -0.0583  0.0518  0.1531
  231SOL     OW  921   2.779   1.343   2.228 -0.0988  0.5215  0.8173
  231SOL    HW1  922   2.851   1.408   2.236  0.4219 -1.4479  1.8394
  231SOL    HW2  923   2.724   1.367   2.147 -3.4069 -2.3590  0.8346
  231SOL     MW  924   2.781   1.355   2.218 -0.4666 -0.1184  0.9544
  232SOL     OW  925   2.256   0.875   2.133 -1.0762  0.0361 -0.3285
  232SOL    HW1  926   2.197   0.909   2.061  0.0518  0.0623  0.0573
  232SOL    HW2  927   2.213   0.865   2.216  0.0970  1.8132 -0.1072
  232SOL     MW  928   2.243   0.878   2.134 -0.7726  0.2740 -0.2484
  233SOL     OW  929   2.044   0.529   1.963  0.0243  0.1070  0.2646
  233SOL    HW1  930   2.027   0.463   1.894 -3.1807 -1.2073 -1.9065
  233SOL    HW2  931   2.124   0.489   1.999  1.8014 -0.2090  0.7951
  233SOL     MW  932   2.052   0.515   1.959 -0.1641 -0.1081  0.0482
  234SOL     OW  933   0.293   1.002   2.381 -0.0465 -0.1293 -0.4998
  234SOL    HW1  934   0.204   1.026   2.357  1.8897  1.4192 -0.8573
  234SOL    HW2  935   0.340   1.086   2.394  1.0042  0.9522 -0.2474
  234SOL     MW  936   0.287   1.016   2.379  0.3476  0.2177 -0.5137
  235SOL     OW  937   1.088   3.077   2.747  0.1839  0.4035  0.1253
  235SOL    HW1  938   1.129   3.012   2.805 -1.0543 -0.1439  0.5275
  235SOL    HW2  939   1.103   3.162   2.779 -0.2260 -0.1555 -0.8781
  235SOL     MW  940   1.095   3.080   2.759 -0.0336  0.2575  0.0460
  236SOL     OW  941   2.960   0.544   0.026 -0.2338 -0.2056  0.3335
  236SOL    HW1  942   2.869   0.543  -0.010 -1.1747  0.9566  2.9315
  236SOL    HW2  943   2.992   0.635   0.039  0.2091 -0.6679 -2.7439
  236SOL     MW  944   2.952   0.556   0.023 -0.2995 -0.1133  0.2703
  237SOL     OW  945   1.823   0.970   2.157  0.1912 -0.1774 -0.1919
  237SOL    HW1  946   1.880   1.042   2.122  2.2818  1.9265  0.2071
  237SOL    HW2  947   1.795   0.991   2.251  3.1371  1.5142  1.8744
  237SOL     MW  948   1.827   0.982   2.165  0.8557  0.3234  0.1334
  238SOL     OW  949   1.065   1.764   2.990  0.0364 -0.4018  0.5139
  238SOL    HW1  950   1.000   1.689   2.995  0.8109  0.9932  4.0630
  238SOL    HW2  951   1.152   1.725   3.008  0.2481  1.3008  0.9483
  238SOL     MW  952   1.068   1.749   2.993  0.1665  0.0069  1.0395
  239SOL     OW  953   1.220   1.430   2.352  0.7219 -0.1527 -0.4459
  239SOL    HW1  954   1.174   1.464   2.431  2.1528 -1.0871  2.6609
  239SOL    HW2  955   1.242   1.348   2.394 -0.7789  1.1910  2.1226
  239SOL     MW  956   1.217   1.423   2.368  0.7127 -0.0987  0.3029
  240SOL     OW  957   0.692   0.871   2.229 -0.1188 -0.8689 -0.5439
  240SOL    HW1  958   0.714   0.914   2.314 -0.7880 -0.4296  2.5683
  240SOL    HW2  959   0.775   0.832   2.192  2.5630 -1.1619 -1.5207
  240SOL     MW  960   0.706   0.871   2.235  0.1467 -0.8496 -0.2621
  241SOL     OW  961   0.631   0.347   3.066  0.2864  0.3894  0.4264
  241SOL    HW1  962   0.675   0.407   3.131  1.9172  1.1359  1.5168
  241SOL    HW2  963   0.535   0.357   3.060  0.5944 -0.1957  1.0142
  241SOL     MW  964   0.624   0.356   3.074  0.5422  0.4107  0.6479
  242SOL     OW  965   1.524   1.735   2.259 -0.5300 -0.7040 -0.0409
  242SOL    HW1  966   1.474   1.798   2.306  0.8429 -3.2208 -1.1777
  242SOL    HW2  967   1.452   1.677   2.233 -2.6346  0.5037 -0.7725
  242SOL     MW  968   1.508   1.735   2.262 -0.6266 -0.8767 -0.2874
  243SOL     OW  969   0.985   0.226   2.389  0.8722  0.3438  0.7560
  243SOL    HW1  970   1.080   0.232   2.369 -1.9006 -0.2483  0.8944
  243SOL    HW2  971   0.980   0.301   2.443 -0.3742  0.5934 -1.3432
  243SOL     MW  972   0.997   0.237   2.394  0.3419  0.2986  0.4973
  244SOL     OW  973   0.228   0.722   2.367  0.1222  0.5220  0.6161
  244SOL    HW1  974   0.243   0.815   2.332 -0.2831  1.7519  0.1579
  244SOL    HW2  975   0.312   0.680   2.375  2.6794 -1.2319  0.1326
  244SOL     MW  976   0.241   0.729   2.363  0.4061  0.4529  0.4919
  245SOL     OW  977   1.262   0.228   2.330 -0.2520  0.0153 -0.5185
  245SOL    HW1  978   1.348   0.182   2.326  0.6115 -1.8368 -0.1750
  245SOL    HW2  979   1.265   0.295   2.401  2.0287  1.0363  1.0175
  245SOL     MW  980   1.273   0.231   2.338  0.1628 -0.0943 -0.2705
  246SOL     OW  981   1.232   1.202   2.124 -0.3544  0.5362  0.2986
  246SOL    HW1  982   1.156   1.185   2.182 -1.5477 -1.0990 -1.8794
  246SOL    HW2  983   1.310   1.186   2.178 -5.8104  2.1225  1.4634
  246SOL     MW  984   1.232   1.197   2.139 -1.2317  0.5297  0.1649
  247SOL     OW  985   0.729   0.550   0.118  0.6923  0.4412 -0.0228
  247SOL    HW1  986   0.680   0.628   0.091  2.2593  1.5424  3.6550
  247SOL    HW2  987   0.823   0.556   0.100  0.0948  2.5412 -1.2171
  247SOL     MW  988   0.735   0.561   0.112  0.8202  0.8636  0.3049
  248SOL     OW  989   0.480   1.189   2.463 -0.2862 -0.6622  0.5452
  248SOL    HW1  990   0.504   1.227   2.377  0.7522 -0.0157 -2.0250
  248SOL    HW2  991   0.443   1.267   2.510  0.5056  2.6887  1.0384
  248SOL     MW  992   0.479   1.204   2.458 -0.0447 -0.1348  0.2712
  249SOL     OW  993   0.195   1.842   2.683 -0.3592  0.7327  0.1108
  249SOL    HW1  994   0.143   1.765   2.641  0.1741  2.9272  0.0116
  249SOL    HW2  995   0.175   1.825   2.773 -0.0133 -0.4278 -0.1230
  249SOL     MW  996   0.185   1.830   2.690 -0.2432  0.8692  0.0669
  250SOL     OW  997   2.133   0.841   2.407 -0.0212  0.0674  0.4249
  250SOL    HW1  998   2.148   0.745   2.405  1.2248  2.6947  2.3501
  250SOL    HW2  999   2.204   0.874   2.460  0.0062 -1.3801  0.7682
  250SOL     MW 1000   2.144   0.833   2.414  0.1468  0.2230  0.7242
  251SOL     OW 1001   0.212   0.831   2.074 -0.3350  0.1565 -0.0826
  251SOL    HW1 1002   0.161   0.765   2.124 -1.6589 -0.9279  0.5333
  251SOL    HW2 1003   0.201   0.800   1.985 -0.1647 -0.5508  3.5067
  251SOL     MW 1004   0.204   0.818   2.069 -0.4872 -0.0799  0.4722
  252SOL     OW 1005   1.678   1.021   2.870 -0.0978 -0.2029  0.0312
  252SOL    HW1 1006   1.692   1.061   2.956  1.7152 -2.4622  0.9381
  252SOL    HW2 1007   1.747   1.059   2.809  0.5814 -0.3613  1.6906
  252SOL     MW 1008   1.689   1.031   2.873  0.2310 -0.5219  0.3698
  253SOL     OW 1009   1.137   1.734   2.549 -0.3526  0.3795  0.1432
  253SOL    HW1 1010   1.155   1.771   2.459  1.6248 -0.5164  2.1450
  253SOL    HW2 1011   1.053   1.784   2.581 -2.2018  3.3740 -1.0994
  253SOL     MW 1012   1.128   1.746   2.541 -0.3357  0.6564  0.2434
  254SOL     OW 1013   1.021   1.078   2.227 -0.2778  0.1310  0.4236
  254SOL    HW1 1014   1.000   0.992   2.186  1.8599 -0.3900 -1.3526
  254SOL    HW2 1015   0.934   1.123   2.247 -2.3426  0.8036 -0.3752
  254SOL     MW 1016   1.007   1.073   2.224 -0.2682  0.1510  0.0838
  255SOL     OW 1017   0.837   2.478   2.150 -0.0458  0.5110  0.0465
  255SOL    HW1 1018   0.754   2.448   2.179  2.3869  1.0953  2.1788
  255SOL    HW2 1019   0.881   2.490   2.234 -0.8033  1.0865  1.1832
  255SOL     MW 1020   0.832   2.476   2.165  0.1752  0.6641  0.4778
  256SOL     OW 1021   1.174   2.843   2.854  0.5174  0.0714 -0.5086
  256SOL    HW1 1022   1.144   2.765   2.807 -2.1165 -1.0126 -1.9290
  256SOL    HW2 1023   1.267   2.865   2.824  1.5871  1.0771  0.9939
  256SOL     MW 1024   1.182   2.836   2.844  0.3110  0.0611 -0.4977
  257SOL     OW 1025   0.160   1.930   0.106 -0.4660  0.8690 -0.4112
  257SOL    HW1 1026   0.177   1.863   0.173  3.3941 -0.1481 -0.6164
  257SOL    HW2 1027   0.163   1.876   0.026 -0.3646 -0.3531  3.4594
  257SOL     MW 1028   0.163   1.914   0.104  0.0567  0.5736  0.0724
  258SOL     OW 1029   0.703   1.037   2.493  0.3426 -0.3102  0.4986
  258SOL    HW1 1030   0.721   1.106   2.433  1.3996  2.5830 -0.2212
  258SOL    HW2 1031   0.626   1.071   2.530 -0.2677  1.1382  0.1219
  258SOL     MW 1032   0.695   1.051   2.490  0.4015  0.2626  0.3539
  259SOL     OW 1033   0.758   0.516   2.351  0.0233 -0.1572 -0.4200
  259SOL    HW1 1034   0.674   0.565   2.340 -1.0497  0.5695 -3.3606
  259SOL    HW2 1035   0.742   0.440   2.298 -3.2585  1.8726 -0.6950
  259SOL     MW 1036   0.745   0.512   2.342 -0.5513  0.2065 -0.8443
  260SOL     OW 1037   0.591   0.145   1.597  0.1243  0.0580 -0.2530
  260SOL    HW1 1038   0.528   0.118   1.531 -1.5155 -0.1644  2.3565
  260SOL    HW2 1039   0.675   0.156   1.552 -0.9082 -1.7040 -0.3277
  260SOL     MW 1040   0.594   0.143   1.582 -0.2283 -0.2038  0.0814
  261SOL     OW 1041   1.203   0.669   2.043  0.1750 -0.3005 -1.0228
  261SOL    HW1 1042   1.217   0.681   2.139  0.7361 -0.0648 -0.5695
  261SOL    HW2 1043   1.277   0.613   2.018  0.2203  0.1899  2.7655
  261SOL     MW 1044   1.215   0.663   2.052  0.2550 -0.2047 -0.4631
  262SOL     OW 1045   1.173   0.316   0.109 -0.0993  0.2867  0.6154
  262SOL    HW1 1046   1.269   0.304   0.122 -1.0164  1.7306  0.5732
  262SOL    HW2 1047   1.146   0.241   0.055 -0.5484 -2.7521 -2.4419
  262SOL     MW 1048   1.182   0.305   0.104 -0.2795  0.0763  0.2065
  263SOL     OW 1049   0.433   3.046   2.512 -0.3523  0.1105  0.2655
  263SOL    HW1 1050   0.370   3.117   2.522  0.3309  0.2628  1.3340
  263SOL    HW2 1051   0.497   3.092   2.457 -0.4643  0.2458 -0.0162
  263SOL     MW 1052   0.433   3.061   2.506 -0.2769  0.1485  0.3693
  264SOL     OW 1053   1.524   1.305   1.924 -0.0735 -0.1582 -0.2008
  264SOL    HW1 1054   1.498   1.248   1.997  1.0479 -1.5447  0.4012
  264SOL    HW2 1055   1.605   1.345   1.963 -2.0564 -1.0399 -0.3448
  264SOL     MW 1056   1.531   1.302   1.939 -0.1872 -0.4575 -0.1404
  265SOL     OW 1057   0.636   2.715   2.251  0.1849  0.4151  0.2539
  265SOL    HW1 1058   0.675   2.662   2.180  3.3743  0.1426  0.0768
  265SOL    HW2 1059   0.662   2.678   2.332 -1.3607 -1.3722 -2.8468
  265SOL     MW 1060   0.645   2.703   2.252  0.4018  0.1433 -0.1786
  266SOL     OW 1061   0.954   0.815   2.175  0.6010 -0.2863 -0.5249
  266SOL    HW1 1062   0.964   0.764   2.097  0.8904 -1.6837 -1.3032
  266SOL    HW2 1063   1.003   0.762   2.234  4.4566 -0.0473 -0.1875
  266SOL     MW 1064   0.962   0.801   2.173  1.1479 -0.4391 -0.5831
  267SOL     OW 1065   1.373   1.675   2.699  0.3575 -0.5822 -0.0176
  267SOL    HW1 1066   1.438   1.681   2.632  1.0495  1.6514  1.9920
  267SOL    HW2 1067   1.303   1.709   2.648 -2.5018 -0.8530  2.1686
  267SOL     MW 1068   1.373   1.680   2.684  0.0716 -0.3232  0.5360
  268SOL     OW 1069   0.244   0.769   1.780 -0.0267  0.0532  0.3365
  268SOL    HW1 1070   0.187   0.838   1.734 -0.5741  3.0573 -1.2820
  268SOL    HW2 1071   0.271   0.709   1.713 -2.0670  0.9687 -1.8970
  268SOL     MW 1072   0.240   0.770   1.765 -0.3681  0.5704 -0.1717
  269SOL     OW 1073   1.381   1.920   2.407  0.3083  0.3453 -0.6416
  269SOL    HW1 1074   1.440   1.993   2.383  1.7116 -1.1176 -0.2545
  269SOL    HW2 1075   1.315   1.954   2.458  1.3660 -0.2017 -2.9869
  269SOL     MW 1076   1.380   1.935   2.411  0.6330  0.0801 -0.8999
  270SOL     OW 1077   1.180   0.360   1.609  0.3194  0.1349 -0.0186
  270SOL    HW1 1078   1.143   0.286   1.656 -0.4082  1.1427  0.7496
  270SOL    HW2 1079   1.273   0.372   1.641  2.4049  0.4283 -0.8804
  270SOL     MW 1080   1.187   0.352   1.620  0.4986  0.3066 -0.0309
  271SOL     OW 1081   0.864   3.075   2.408  0.3358  0.6377  0.2183
  271SOL    HW1 1082   0.923   3.027   2.460  0.4113 -2.3100 -2.2941
  271SOL    HW2 1083   0.918   3.158   2.397  1.9594  1.1587 -0.2660
  271SOL     MW 1084   0.879   3.080   2.413  0.5600  0.3175 -0.1771
  272SOL     OW 1085   1.456   2.850   2.791  0.0285 -0.4787 -0.5680
  272SOL    HW1 1086   1.468   2.905   2.708  2.0560  3.4248 -2.9691
  272SOL    HW2 1087   1.483   2.907   2.862  1.3237 -2.4271  2.9693
  272SOL     MW 1088   1.461   2.865   2.789  0.4669 -0.2207 -0.4181
  273SOL     OW 1089   1.426   0.862   2.867 -0.0149 -0.3050 -0.1283
  273SOL    HW1 1090   1.517   0.883   2.899  2.2999  1.2644  2.3186
  273SOL    HW2 1091   1.387   0.946   2.892  0.0983 -0.4852 -0.7744
  273SOL     MW 1092   1.433   0.876   2.875  0.3054 -0.1217  0.1093
  274SOL     OW 1093   1.390   0.742   0.215  0.3502 -0.2400 -0.3522
  274SOL    HW1 1094   1.434   0.658   0.236  1.4292 -0.5929 -1.3532
  274SOL    HW2 1095   1.299   0.725   0.239 -1.5658 -1.6093 -0.7366
  274SOL     MW 1096   1.384   0.729   0.221  0.2398 -0.4672 -0.5350
  275SOL     OW 1097   1.700   0.687   1.790 -0.7782 -0.1328 -0.0113
  275SOL    HW1 1098   1.770   0.725   1.849 -2.6306 -0.5672  0.9411
  275SOL    HW2 1099   1.710   0.595   1.800 -0.8696 -0.2106 -0.4434
  275SOL     MW 1100   1.711   0.680   1.799 -1.0347 -0.2004  0.0573
  276SOL     OW 1101   0.229   1.258   1.806  0.8541 -0.0459  0.3432
  276SOL    HW1 1102   0.230   1.195   1.879  1.1311 -0.1103 -1.5529
  276SOL    HW2 1103   0.147   1.313   1.821  2.8982  0.0619  2.1223
  276SOL     MW 1104   0.218   1.257   1.818  1.1603 -0.0402  0.3278
  277SOL     OW 1105   1.904   1.341   2.568 -0.2419 -0.5477 -0.3306
  277SOL    HW1 1106   1.984   1.390   2.531  3.0618 -1.5579  0.4372
  277SOL    HW2 1107   1.943   1.271   2.622 -1.7814  0.0902 -0.0917
  277SOL     MW 1108   1.919   1.338   2.570 -0.0092 -0.5968 -0.1978
  278SOL     OW 1109   1.427   0.691   1.750  0.5249 -0.3187 -0.0835
  278SOL    HW1 1110   1.396   0.611   1.796 -4.2506 -2.1056 -1.2634
  278SOL    HW2 1111   1.521   0.699   1.774  1.4709 -1.1135 -1.4270
  278SOL     MW 1112   1.435   0.681   1.759  0.0196 -0.6593 -0.4164
  279SOL     OW 1113   0.535   0.016   2.236 -0.3519  0.4891  0.1033
  279SOL    HW1 1114   0.622  -0.017   2.218  0.5480  2.1157  0.2595
  279SOL    HW2 1115   0.549   0.111   2.247 -0.8829  1.8297 -4.2120
  279SOL     MW 1116   0.548   0.024   2.235 -0.3033  0.8806 -0.4455
  280SOL     OW 1117   1.507   1.124   2.210  0.0584 -0.2675  0.2750
  280SOL    HW1 1118   1.493   1.044   2.161  0.0488  0.3245 -0.0265
  280SOL    HW2 1119   1.518   1.094   2.298 -0.7976 -1.6371 -1.9945
  280SOL     MW 1120   1.507   1.109   2.215 -0.0558 -0.3701 -0.0642
  281SOL     OW 1121   1.295   1.295   2.776  0.3290 -0.4364 -0.3946
  281SOL    HW1 1122   1.387   1.327   2.786  1.7260 -3.4585  1.1099
  281SOL    HW2 1123   1.300   1.215   2.830  1.4152 -0.8515 -1.2928
  281SOL     MW 1124   1.308   1.289   2.785  0.6567 -0.8899 -0.3146
  282SOL     OW 1125   1.126   1.302   1.705 -0.2142 -0.4012  0.0839
  282SOL    HW1 1126   1.089   1.341   1.619  2.6174  0.4198  1.1770
  282SOL    HW2 1127   1.052   1.308   1.765 -0.3076 -1.6901 -1.4230
  282SOL     MW 1128   1.112   1.308   1.702  0.1471 -0.4629  0.0293
  283SOL     OW 1129   0.686   1.269   3.093 -0.1103  0.1275 -0.3885
  283SOL    HW1 1130   0.780   1.284   3.107 -0.5458  0.9187  1.1137
  283SOL    HW2 1131   0.652   1.360   3.111 -0.8216  1.7873 -2.0117
  283SOL     MW 1132   0.694   1.283   3.097 -0.2616  0.4509 -0.4044
  284SOL     OW 1133   0.521   0.646   2.347  0.5413 -0.0222 -0.3323
  284SOL    HW1 1134   0.543   0.727   2.301  0.5252  1.3522  1.1091
  284SOL    HW2 1135   0.487   0.580   2.285 -2.2344 -3.1015 -0.2707
  284SOL     MW 1136   0.520   0.648   2.333  0.1730 -0.2472 -0.1340
  285SOL     OW 1137   0.842   0.957   2.881  0.5417  0.3607  0.4595
  285SOL    HW1 1138   0.891   0.980   2.796  1.8001 -0.2168  0.4497
  285SOL    HW2 1139   0.789   0.878   2.871 -0.8365 -2.7442 -0.4014
  285SOL     MW 1140   0.842   0.950   2.869  0.5259 -0.1252  0.3446
  286SOL     OW 1141   1.126   1.457   2.604 -0.8194 -0.0531 -0.2825
  286SOL    HW1 1142   1.184   1.429   2.679  0.1960 -0.8454 -0.4657
  286SOL    HW2 1143   1.135   1.552   2.606 -0.2880 -1.1747 -0.5125
  286SOL     MW 1144   1.135   1.466   2.614 -0.6153 -0.3057 -0.3370
  287SOL     OW 1145   0.991   0.909   0.311  0.1994  0.3890 -0.2848
  287SOL    HW1 1146   1.028   0.968   0.374 -1.9724  1.3279  0.5429
  287SOL    HW2 1147   0.925   0.965   0.266 -2.9755  0.1377  0.3322
  287SOL     MW 1148   0.987   0.924   0.313 -0.5060  0.4797 -0.0942
  288SOL     OW 1149   1.584   0.614   2.103  0.4090 -0.9394  0.0847
  288SOL    HW1 1150   1.569   0.615   2.200  0.7147  1.8535 -0.7675
  288SOL    HW2 1151   1.570   0.705   2.078  1.5822  0.1985  2.3143
  288SOL     MW 1152   1.580   0.626   2.112  0.6042 -0.4208  0.2664
  289SOL     OW 1153   0.940   1.051   2.636  0.1089 -0.2156 -0.3028
  289SOL    HW1 1154   0.995   0.996   2.586 -0.1125  0.8513  4.6494
  289SOL    HW2 1155   0.850   1.043   2.599 -2.6966  0.7533 -1.4355
  289SOL     MW 1156   0.935   1.043   2.625 -0.2905  0.0530  0.2011
  290SOL     OW 1157   0.863   0.538   1.563  0.0214 -0.4672  0.2953
  290SOL    HW1 1158   0.928   0.514   1.496  0.6831  2.2897 -0.7577
  290SOL    HW2 1159   0.911   0.547   1.645 -0.2379  2.2248 -1.6503
  290SOL     MW 1160   0.878   0.536   1.565  0.0745  0.2517 -0.1004
  291SOL     OW 1161   0.132   0.328   0.168 -0.1524  0.0454 -0.0417
  291SOL    HW1 1162   0.227   0.301   0.171  4.2727 -1.1631  0.5472
  291SOL    HW2 1163   0.102   0.263   0.109  0.2854 -0.2981  1.4599
  291SOL     MW 1164   0.141   0.316   0.161  0.4892 -0.1594  0.2341
  292SOL     OW 1165   0.988   0.527   0.068  0.3014 -0.0190 -0.0971
  292SOL    HW1 1166   1.019   0.599   0.127  1.7207  0.4612  1.6858
  292SOL    HW2 1167   1.052   0.459   0.094  0.6213 -0.7676  3.9578
  292SOL     MW 1168   1.000   0.527   0.079  0.5309 -0.0544  0.6732
  293SOL     OW 1169   0.224   0.139   2.466  0.1021  0.6775 -0.2904
  293SOL    HW1 1170   0.154   0.083   2.430  1.7522 -2.4545 -0.1813
  293SOL    HW2 1171   0.180   0.196   2.534 -2.3268 -0.5483 -0.6678
  293SOL     MW 1172   0.209   0.139   2.470 -0.0007  0.1026 -0.3258
  294SOL     OW 1173   1.515   0.627   2.390  0.3525 -0.2662  0.2402
  294SOL    HW1 1174   1.511   0.683   2.463  1.3409 -0.1229 -2.1283
  294SOL    HW2 1175   1.497   0.535   2.419 -1.9024  2.0612 -1.6413
  294SOL     MW 1176   1.512   0.623   2.404  0.1854  0.0598 -0.3205
  295SOL     OW 1177   0.906   0.678   2.512  0.1213 -0.2256 -0.5073
  295SOL    HW1 1178   0.838   0.634   2.471  4.0553  1.4660  0.3881
  295SOL    HW2 1179   0.861   0.728   2.578  0.3647  1.8465 -1.5181
  295SOL     MW 1180   0.891   0.679   2.515  0.6724  0.2710 -0.5225
  296SOL     OW 1181   1.276   0.309   2.070 -0.4603  0.1559  0.2209
  296SOL    HW1 1182   1.340   0.230   2.052 -1.7901 -1.6023  0.2066
  296SOL    HW2 1183   1.262   0.308   2.171 -0.5525  1.2598 -0.3662
  296SOL     MW 1184   1.283   0.299   2.081 -0.6479  0.0696  0.1416
  297SOL     OW 1185   1.478   0.407   1.600 -0.3084 -0.6088  0.5801
  297SOL    HW1 1186   1.527   0.458   1.660 -0.2691  0.8099  0.4976
  297SOL    HW2 1187   1.500   0.321   1.634  2.7411 -0.4038  1.7221
  297SOL     MW 1188   1.487   0.402   1.612  0.0992 -0.3946  0.7199
  298SOL     OW 1189   1.577   0.885   2.043  1.3450  0.1677 -0.1871
  298SOL    HW1 1190   1.579   0.926   1.957  0.7523 -1.0203 -0.4085
  298SOL    HW2 1191   1.653   0.916   2.090  1.1902  0.7528  0.3649
  298SOL     MW 1192   1.587   0.895   2.038  1.2463  0.0881 -0.1435
  299SOL     OW 1193   0.508   1.043   3.075  0.0829  0.3370 -0.6559
  299SOL    HW1 1194   0.568   1.115   3.064 -0.1508 -0.6828 -1.2734
  299SOL    HW2 1195   0.477   1.027   2.990 -1.4952  1.6314  1.5615
  299SOL     MW 1196   0.512   1.050   3.062 -0.1561  0.3732 -0.4448
  300SOL     OW 1197   1.244   1.182   2.505 -0.3701  0.2359  0.0639
  300SOL    HW1 1198   1.154   1.155   2.483 -2.8654  0.3535  0.4288
  300SOL    HW2 1199   1.245   1.181   2.597  0.6555  0.6253 -3.7072
  300SOL     MW 1200   1.232   1.178   2.514 -0.5640  0.3028 -0.3855
  301SOL     OW 1201   1.372   0.863   0.573  0.3478  0.7005 -0.0683
  301SOL    HW1 1202   1.356   0.902   0.661  2.0505 -0.8158  1.4141
  301SOL    HW2 1203   1.359   0.766   0.593  1.2325  0.9997  0.5590
  301SOL     MW 1204   1.368   0.855   0.587  0.6892  0.5399  0.2100
  302SOL     OW 1205   0.085   1.491   2.010 -0.6227  0.1550  0.3505
  302SOL    HW1 1206   0.095   1.443   2.090  0.5038 -0.6725 -1.7146
  302SOL    HW2 1207   0.026   1.560   2.036 -1.3858  1.3902  1.1031
  302SOL     MW 1208   0.078   1.494   2.024 -0.5748  0.2088  0.1773
  303SOL     OW 1209   0.386   1.698   2.550 -0.4883 -0.3738 -0.6806
  303SOL    HW1 1210   0.326   1.681   2.476 -0.4351 -1.6752 -0.5243
  303SOL    HW2 1211   0.331   1.760   2.597 -0.2043 -0.8373 -2.3440
  303SOL     MW 1212   0.370   1.704   2.546 -0.4438 -0.6066 -0.8794
  304SOL     OW 1213   0.650   2.054   2.400  0.1497 -0.2084  0.2525
  304SOL    HW1 1214   0.674   2.140   2.374  0.4457 -0.3996  0.7340
  304SOL    HW2 1215   0.720   1.987   2.389 -1.1694  0.5285 -2.3767
  304SOL     MW 1216   0.663   2.056   2.395  0.0147 -0.1364 -0.0309
  305SOL     OW 1217   1.067   0.555   0.557  0.2277 -0.2300 -0.4966
  305SOL    HW1 1218   0.974   0.556   0.510 -3.8922  1.8858  1.0240
  305SOL    HW2 1219   1.100   0.463   0.553 -0.7475 -0.1727 -0.0068
  305SOL     MW 1220   1.059   0.543   0.550 -0.4446  0.0568 -0.2314
  306SOL     OW 1221   1.215   1.478   0.296 -0.1707  0.0061 -0.6988
  306SOL    HW1 1222   1.255   1.416   0.354 -2.5941  0.6250 -1.3145
  306SOL    HW2 1223   1.276   1.490   0.218  1.9897  3.6445  0.5353
  306SOL     MW 1224   1.228   1.471   0.293 -0.2054  0.5678 -0.6172
  307SOL     OW 1225   1.395   0.494   1.922  0.5130  0.0134  0.3845
  307SOL    HW1 1226   1.340   0.420   1.973 -2.0810  0.0877  1.1838
  307SOL    HW2 1227   1.467   0.524   1.982 -0.6615 -0.0888  0.8689
  307SOL     MW 1228   1.397   0.488   1.937  0.0158  0.0097  0.5539
  308SOL     OW 1229   2.133   0.635   2.662  0.0136 -0.0593  0.4027
  308SOL    HW1 1230   2.219   0.605   2.694 -1.6224  1.5704 -2.7278
  308SOL    HW2 1231   2.144   0.732   2.678 -0.0302 -1.3569  0.7123
  308SOL     MW 1232   2.146   0.644   2.668 -0.2080 -0.0155  0.0305
  309SOL     OW 1233   0.515   0.382   0.385 -1.0620 -0.8019  0.0415
  309SOL    HW1 1234   0.569   0.324   0.441 -0.1198  1.0670 -1.2060
  309SOL    HW2 1235   0.488   0.328   0.310  0.0247 -0.8570 -0.3121
  309SOL     MW 1236   0.519   0.367   0.383 -0.7943 -0.5626 -0.1697
  310SOL     OW 1237   0.465   0.534   1.911 -0.3644 -0.0762 -0.8612
  310SOL    HW1 1238   0.515   0.463   1.868  1.4619 -1.8442 -0.8171
  310SOL    HW2 1239   0.513   0.618   1.913 -0.9040 -0.4905 -0.3900
  310SOL     MW 1240   0.478   0.535   1.906 -0.1946 -0.3642 -0.7932
  311SOL     OW 1241   1.905   0.783   1.957  0.1851  0.1969  0.3071
  311SOL    HW1 1242   1.881   0.819   2.040  0.7653 -1.8007 -1.2934
  311SOL    HW2 1243   1.963   0.703   1.975 -0.5416  0.0429 -0.6751
  311SOL     MW 1244   1.909   0.777   1.970  0.1657 -0.0870 -0.0337
  312SOL     OW 1245   1.694   2.500   0.056 -0.5768 -0.1398  0.5439
  312SOL    HW1 1246   1.734   2.480   0.144 -2.5745  0.3930  1.5990
  312SOL    HW2 1247   1.617   2.559   0.083 -1.1148  0.4069  0.2079
  312SOL     MW 1248   1.689   2.505   0.071 -0.9114  0.0026  0.6388
  313SOL     OW 1249   0.123   1.189   2.952  0.1998  0.8818  0.0613
  313SOL    HW1 1250   0.172   1.177   3.038 -1.1089 -1.7652  1.5486
  313SOL    HW2 1251   0.183   1.247   2.891  4.0746  1.7017  2.1034
  313SOL     MW 1252   0.137   1.195   2.955  0.5384  0.6408  0.5270
  314SOL     OW 1253   2.144   2.991   3.003  0.0140 -0.0621  0.1765
  314SOL    HW1 1254   2.091   3.040   2.940 -1.0290  1.8674 -0.2160
  314SOL    HW2 1255   2.196   3.055   3.048  0.7336 -2.3337 -2.1115
  314SOL     MW 1256   2.144   3.006   3.000 -0.0287 -0.1072 -0.1771
  315SOL     OW 1257   1.507   1.876   3.067 -0.1357  0.0377  0.1916
  315SOL    HW1 1258   1.459   1.951   3.107  0.5407  1.8929  2.1090
  315SOL    HW2 1259   1.551   1.930   2.994 -0.1727 -1.7903  1.9994
  315SOL     MW 1260   1.506   1.893   3.062 -0.0514  0.0413  0.6831
  316SOL     OW 1261   1.252   0.611   2.704 -0.2017 -0.3152 -0.3488
  316SOL    HW1 1262   1.338   0.597   2.743 -0.3561  0.7232  1.0784
  316SOL    HW2 1263   1.200   0.611   2.780 -1.0921  0.1829  1.1018
  316SOL     MW 1264   1.257   0.609   2.719 -0.3395 -0.1125  0.0309
  317SOL     OW 1265   0.671   1.449   2.598 -0.8028  0.1995 -0.2625
  317SOL    HW1 1266   0.737   1.382   2.569  2.0772  1.5686  0.9017
  317SOL    HW2 1267   0.688   1.516   2.517  0.4448  4.0719  0.8641
  317SOL     MW 1268   0.682   1.449   2.583 -0.2582  0.8911  0.0398
  318SOL     OW 1269   1.362   0.392   2.917 -0.0210 -0.1253  0.3655
  318SOL    HW1 1270   1.276   0.421   2.895  2.5083  0.6560 -1.0691
  318SOL    HW2 1271   1.416   0.472   2.918  0.0132  1.4088  0.0835
  318SOL     MW 1272   1.358   0.407   2.914  0.3172  0.1802  0.1390
  319SOL     OW 1273   0.832   0.464   2.816 -0.3381 -0.8021  0.2080
  319SOL    HW1 1274   0.804   0.378   2.791 -0.3151  0.0972  0.7681
  319SOL    HW2 1275   0.772   0.476   2.889 -0.4849 -2.2742 -0.5749
  319SOL     MW 1276   0.820   0.454   2.822 -0.3544 -0.8776  0.1786
  320SOL     OW 1277   1.033   1.344   1.960  0.0393 -0.0777 -0.5303
  320SOL    HW1 1278   1.099   1.295   2.005 -0.6119 -1.1909  0.2189
  320SOL    HW2 1279   1.082   1.414   1.923 -1.2781 -0.6300  1.2729
  320SOL     MW 1280   1.048   1.346   1.961 -0.2204 -0.2974 -0.1936
  321SOL     OW 1281   1.029   1.009   3.059 -0.2882  0.2159 -0.3026
  321SOL    HW1 1282   0.977   0.977   2.985 -0.5687  1.9036 -0.7762
  321SOL    HW2 1283   1.092   0.938   3.083  1.7068  1.3180 -0.1611
  321SOL     MW 1284   1.030   0.996   3.052 -0.0620  0.5840 -0.3464
  322SOL     OW 1285   1.175   0.831   1.727 -0.2907 -0.2999 -0.4397
  322SOL    HW1 1286   1.264   0.793   1.720  1.1767 -0.5557  2.2739
  322SOL    HW2 1287   1.176   0.878   1.815 -1.7500  2.5186 -0.7794
  322SOL     MW 1288   1.187   0.832   1.738 -0.2896  0.0382 -0.1265
  323SOL     OW 1289   1.208   1.528   1.826  0.5166 -0.2778  0.1467
  323SOL    HW1 1290   1.195   1.454   1.766 -0.9005  0.5236  3.3544
  323SOL    HW2 1291   1.137   1.586   1.805  0.1420 -0.5925 -1.7540
  323SOL     MW 1292   1.197   1.526   1.815  0.2802 -0.2136  0.3192
  324SOL     OW 1293   1.507   1.060   2.472 -0.3904 -0.4736 -0.6369
  324SOL    HW1 1294   1.419   1.105   2.479 -2.7478 -1.6341  0.9976
  324SOL    HW2 1295   1.573   1.130   2.497 -1.7781 -2.6579 -2.1655
  324SOL     MW 1296   1.504   1.075   2.476 -0.8845 -0.9149 -0.6229
  325SOL     OW 1297   1.094   0.486   2.907  0.2850  0.4718  0.2803
  325SOL    HW1 1298   1.086   0.526   2.999  0.0507 -0.3126  1.1176
  325SOL    HW2 1299   1.007   0.458   2.888  0.5426  1.2899 -3.1183
  325SOL     MW 1300   1.081   0.488   2.917  0.2880  0.4762 -0.0576
  326SOL     OW 1301   0.477   1.346   2.219 -0.3052 -0.0990 -0.3651
  326SOL    HW1 1302   0.540   1.317   2.148 -1.4373  0.8995 -2.1333
  326SOL    HW2 1303   0.474   1.442   2.217 -2.7286 -0.5650  0.8080
  326SOL     MW 1304   0.485   1.355   2.209 -0.7743 -0.0287 -0.4436
  327SOL     OW 1305   1.856   0.899   2.477  0.3496 -0.3159 -0.0354
  327SOL    HW1 1306   1.844   0.808   2.524  1.8158  2.6258  1.0659
  327SOL    HW2 1307   1.941   0.885   2.439  0.2330 -1.1195  0.6120
  327SOL     MW 1308   1.866   0.885   2.478  0.5277 -0.0338  0.1954
  328SOL     OW 1309   0.211   1.306   2.227  0.6255 -0.1627  0.3459
  328SOL    HW1 1310   0.174   1.226   2.184 -1.9829 -1.6124  1.2395
  328SOL    HW2 1311   0.307   1.312   2.228 -1.7534  0.0797  0.8121
  328SOL     MW 1312   0.219   1.296   2.222 -0.0325 -0.3220  0.5253
  329SOL     OW 1313   0.106   0.124   1.439 -0.0668 -0.3315 -0.5597
  329SOL    HW1 1314   0.094   0.152   1.535 -0.4316  0.5020  2.8210
  329SOL    HW2 1315   0.196   0.157   1.403  3.2214  1.3108 -0.3453
  329SOL     MW 1316   0.116   0.132   1.447  0.3189 -0.0048 -0.0854
  330SOL     OW 1317   0.345   3.019   2.074 -0.3954  0.5905  0.2743
  330SOL    HW1 1318   0.416   3.043   2.135  2.5897 -2.5002  2.6178
  330SOL    HW2 1319   0.295   2.951   2.122 -0.7201  3.0303 -2.3641
  330SOL     MW 1320   0.348   3.013   2.088 -0.0444  0.5046  0.2354
  331SOL     OW 1321   0.767   1.221   2.293  0.2469  0.1872  0.5723
  331SOL    HW1 1322   0.754   1.264   2.211  2.6335 -1.2542  0.4640
  331SOL    HW2 1323   0.794   1.297   2.347  1.4998  0.0278 -2.4146
  331SOL     MW 1324   0.769   1.236   2.289  0.7271 -0.0240  0.1639
  332SOL     OW 1325   1.332   1.684   2.979 -0.4027 -0.1567 -0.3469
  332SOL    HW1 1326   1.341   1.669   2.885  0.3657 -0.8100 -0.4502
  332SOL    HW2 1327   1.404   1.754   3.001  1.6530 -0.1803  1.4089
  332SOL     MW 1328   1.342   1.692   2.969 -0.0301 -0.2460 -0.1289
  333SOL     OW 1329   1.731   1.458   3.010  0.2462 -0.2458  0.0872
  333SOL    HW1 1330   1.815   1.492   3.039  0.5159 -2.1514 -1.1164
  333SOL    HW2 1331   1.673   1.424   3.083  0.2987  1.3113 -0.5442
  333SOL     MW 1332   1.734   1.458   3.023  0.2887 -0.2918 -0.1549
  334SOL     OW 1333   1.351   3.068   2.622  0.2671  0.0806 -0.0536
  334SOL    HW1 1334   1.258   3.081   2.639  1.6803 -0.1493 -2.1363
  334SOL    HW2 1335   1.401   3.152   2.639  2.6565 -0.8477 -0.8395
  334SOL     MW 1336   1.345   3.080   2.626  0.7688 -0.0722 -0.4321
  335SOL     OW 1337   1.209   0.795   3.063 -0.3855  0.2719  0.3114
  335SOL    HW1 1338   1.280   0.782   3.129  1.1181  0.6267 -0.8120
  335SOL    HW2 1339   1.265   0.801   2.989 -0.2430  1.1798  2.4086
  335SOL     MW 1340   1.226   0.794   3.062 -0.1683  0.4385  0.4399
  336SOL     OW 1341   0.892   1.098   1.923  0.3897 -0.3171  0.1207
  336SOL    HW1 1342   0.889   1.190   1.941 -1.3736 -3.8586 -0.4488
  336SOL    HW2 1343   0.980   1.069   1.942 -1.3232  0.3883 -0.0900
  336SOL     MW 1344   0.903   1.106   1.928 -0.0690 -0.6913  0.0178
  337SOL     OW 1345   0.517   1.777   2.792  0.3608 -0.6163 -0.6507
  337SOL    HW1 1346   0.461   1.732   2.736  2.5385 -2.8306 -1.0161
  337SOL    HW2 1347   0.606   1.730   2.787 -0.5128 -1.5516  1.1250
  337SOL     MW 1348   0.522   1.765   2.784  0.5328 -1.0319 -0.4647
  338SOL     OW 1349   1.118   0.851   2.535 -0.3365 -0.0636  0.0736
  338SOL    HW1 1350   1.037   0.797   2.532 -0.7089  0.3697  2.0670
  338SOL    HW2 1351   1.174   0.788   2.586  1.8993  0.2623 -1.6830
  338SOL     MW 1352   1.115   0.835   2.542 -0.0906  0.0366  0.1049
  339SOL     OW 1353   1.568   1.036   1.808 -0.5372 -0.0004 -0.3988
  339SOL    HW1 1354   1.478   1.033   1.779 -2.2849  0.8071  1.1432
  339SOL    HW2 1355   1.583   1.131   1.827 -0.5100  2.7701 -0.1083
  339SOL     MW 1356   1.558   1.048   1.807 -0.7642  0.4717 -0.1570
  340SOL     OW 1357   1.369   1.509   0.083  0.5831 -0.5767  0.0457
  340SOL    HW1 1358   1.377   1.583   0.020  0.7359 -2.3568  1.1445
  340SOL    HW2 1359   1.455   1.484   0.124  2.0865  0.9626  2.1870
  340SOL     MW 1360   1.382   1.516   0.080  0.8016 -0.6085  0.4732
  341SOL     OW 1361   0.142   1.354   2.657  0.1029 -0.2394 -0.0401
  341SOL    HW1 1362   0.234   1.353   2.629 -0.4571  1.1971 -0.3648
  341SOL    HW2 1363   0.082   1.321   2.591  0.8653  0.9517 -0.0341
  341SOL     MW 1364   0.146   1.350   2.644  0.1296  0.1073 -0.0822
  342SOL     OW 1365   1.447   0.313   0.063  0.0005  0.0635 -0.3523
  342SOL    HW1 1366   1.471   0.396   0.112 -3.0487 -0.7344  1.4133
  342SOL    HW2 1367   1.429   0.334  -0.027  1.0950  0.7606  0.1855
  342SOL     MW 1368   1.448   0.327   0.058 -0.2574  0.0502 -0.0484
  343SOL     OW 1369   0.222   0.290   2.234  0.0992  0.6252  0.2560
  343SOL    HW1 1370   0.240   0.230   2.306  3.3138 -0.9952  0.6563
  343SOL    HW2 1371   0.186   0.240   2.158 -1.9582 -0.9931  0.4399
  343SOL     MW 1372   0.220   0.275   2.234  0.2519  0.1979  0.3330
  344SOL     OW 1373   1.676   2.067   0.244  0.0308 -0.1920 -0.3159
  344SOL    HW1 1374   1.691   2.109   0.160 -0.3195 -1.4901 -0.7014
  344SOL    HW2 1375   1.645   1.982   0.226  0.0605  3.9297 -0.7915
  344SOL     MW 1376   1.674   2.061   0.230 -0.0115  0.1806 -0.4295
  345SOL     OW 1377   0.725   1.592   2.381 -0.1048  0.3151 -0.6337
  345SOL    HW1 1378   0.637   1.620   2.352 -0.8993  2.8932 -0.5937
  345SOL    HW2 1379   0.768   1.552   2.296  1.3515  3.0758 -1.4845
  345SOL     MW 1380   0.719   1.590   2.366 -0.0175  1.0195 -0.7406
  346SOL     OW 1381   1.731   1.144   0.031  0.0184  0.3530 -0.0208
  346SOL    HW1 1382   1.826   1.123   0.050 -0.0222  0.6785  1.7213
  346SOL    HW2 1383   1.682   1.077   0.084  0.7501 -0.7127  0.1119
  346SOL     MW 1384   1.737   1.133   0.040  0.1096  0.2553  0.2266
  347SOL     OW 1385   1.250   0.720   2.310  0.4426  0.2735  0.0896
  347SOL    HW1 1386   1.334   0.689   2.337 -2.1106 -1.3531 -2.5765
  347SOL    HW2 1387   1.217   0.782   2.373  2.6650 -0.1075 -2.2307
  347SOL     MW 1388   1.257   0.724   2.322  0.3989  0.0086 -0.5683
  348SOL     OW 1389   1.310   2.588   1.886  0.2798 -0.2531 -0.2640
  348SOL    HW1 1390   1.349   2.498   1.917 -2.2055  0.8729  0.7025
  348SOL    HW2 1391   1.366   2.651   1.938  1.0988 -0.7928  0.5380
  348SOL     MW 1392   1.323   2.585   1.897  0.0599 -0.1758 -0.0307
  349SOL     OW 1393   1.448   0.248   2.697 -0.0599  0.5037  0.0340
  349SOL    HW1 1394   1.401   0.301   2.758 -0.9422 -1.0358  0.3244
  349SOL    HW2 1395   1.517   0.203   2.748  0.2563 -0.1981  2.2458
  349SOL     MW 1396   1.451   0.249   2.712 -0.1346  0.2080  0.3641
  350SOL     OW 1397   1.874   0.659   2.599  0.0531 -0.3520 -0.1149
  350SOL    HW1 1398   1.849   0.578   2.552 -1.4175 -1.0431 -2.7710
  350SOL    HW2 1399   1.974   0.653   2.596 -0.9489 -2.4512  0.5217
  350SOL     MW 1400   1.884   0.647   2.592 -0.2731 -0.7201 -0.3813
  351SOL     OW 1401   0.114   0.948   1.635  0.6658 -0.1288  0.1081
  351SOL    HW1 1402   0.028   0.967   1.676 -0.3396  1.4965  0.9465
  351SOL    HW2 1403   0.162   1.029   1.648  1.3499  0.7888  0.2019
  351SOL     MW 1404   0.109   0.961   1.642  0.6234  0.2067  0.2311
  352SOL     OW 1405   0.764   1.633   2.777  0.7934  0.1507 -0.4738
  352SOL    HW1 1406   0.805   1.596   2.858  1.9904  0.3833  1.7923
  352SOL    HW2 1407   0.752   1.570   2.702 -0.9787  1.2892  0.0954
  352SOL     MW 1408   0.768   1.620   2.777  0.7175  0.3316 -0.0997
  353SOL     OW 1409   3.011   2.431   2.701 -0.0436 -0.2907 -0.6398
  353SOL    HW1 1410   3.092   2.383   2.674  0.8260 -2.0835 -0.3954
  353SOL    HW2 1411   3.010   2.513   2.647  0.6156  1.7997  0.3111
  353SOL     MW 1412   3.021   2.436   2.690  0.1581 -0.2514 -0.4821
  354SOL     OW 1413   0.415   2.435   0.845 -0.4294  0.4700 -0.1775
  354SOL    HW1 1414   0.432   2.388   0.927 -0.5181 -2.1802  0.2815
  354SOL    HW2 1415   0.346   2.400   0.791  2.5604  0.7771 -1.0249
  354SOL     MW 1416   0.408   2.425   0.849 -0.0466  0.1609 -0.2287
  355SOL     OW 1417   0.049   2.182   0.415 -0.4827  0.2217  0.1556
  355SOL    HW1 1418  -0.039   2.139   0.389 -1.3585  0.3054  1.2951
  355SOL    HW2 1419   0.020   2.194   0.505 -1.1536 -3.1603  2.0026
  355SOL     MW 1420   0.033   2.178   0.423 -0.6868 -0.2135  0.5497
  356SOL     OW 1421   0.838   2.915   1.028 -0.7153 -0.8267  0.4720
  356SOL    HW1 1422   0.875   2.891   0.940 -0.0441 -2.3449 -1.2376
  356SOL    HW2 1423   0.756   2.872   1.032  2.1864  2.3872  0.3235
  356SOL     MW 1424   0.832   2.906   1.017 -0.2439 -0.6029  0.2268
  357SOL     OW 1425   1.764   2.934   0.384  0.8660 -0.2030  0.0221
  357SOL    HW1 1426   1.701   2.868   0.424 -2.6865  2.9795 -2.1789
  357SOL    HW2 1427   1.851   2.900   0.378 -0.5302  2.4102 -1.1220
  357SOL     MW 1428   1.767   2.921   0.389  0.2130  0.5617 -0.4193
  358SOL     OW 1429   0.416   0.119   1.036 -0.9273 -0.1486 -0.4938
  358SOL    HW1 1430   0.505   0.085   1.039 -0.0671  0.0962  0.7706
  358SOL    HW2 1431   0.404   0.149   0.944  1.1810  1.8411 -1.3530
  358SOL     MW 1432   0.426   0.119   1.024 -0.5356  0.1462 -0.4403
  359SOL     OW 1433   0.955   2.879   1.830 -0.5527  0.2174 -0.1331
  359SOL    HW1 1434   0.944   2.787   1.878  2.0437  1.4687  0.7946
  359SOL    HW2 1435   1.000   2.872   1.748 -0.8453  1.1109  3.0747
  359SOL     MW 1436   0.960   2.866   1.825 -0.2487  0.5004  0.4125
  360SOL     OW 1437   0.594   2.776   1.011 -0.3841  0.5174 -0.1506
  360SOL    HW1 1438   0.600   2.761   0.918 -2.8210  0.0517 -1.3480
  360SOL    HW2 1439   0.585   2.691   1.059  0.1007 -1.4708  0.6068
  360SOL     MW 1440   0.593   2.763   1.005 -0.6416  0.1936 -0.2087
  361SOL     OW 1441   0.183   2.700   1.329  0.3143 -0.2726 -0.7366
  361SOL    HW1 1442   0.178   2.790   1.364  0.0389  1.9858  1.2946
  361SOL    HW2 1443   0.270   2.683   1.356 -1.6923 -1.6719 -0.8740
  361SOL     MW 1444   0.194   2.710   1.337  0.0132 -0.1592 -0.4867
  362SOL     OW 1445   1.483   2.434   0.605 -0.2136 -0.2212  0.3406
  362SOL    HW1 1446   1.505   2.352   0.656 -1.5667  2.0065 -1.3355
  362SOL    HW2 1447   1.468   2.506   0.668  1.2999  0.0562 -0.8348
  362SOL     MW 1448   1.484   2.432   0.620 -0.1925  0.1093 -0.0357
  363SOL     OW 1449   0.292   3.023   0.732  0.1960  0.2569 -0.3313
  363SOL    HW1 1450   0.312   2.969   0.809  2.9088 -0.2988  0.0332
  363SOL    HW2 1451   0.203   3.053   0.725  0.2229  1.5115 -0.5368
  363SOL     MW 1452   0.283   3.020   0.741  0.5575  0.3491 -0.3103
  364SOL     OW 1453   0.738   0.169   0.256  0.2522  0.0557  0.0171
  364SOL    HW1 1454   0.718   0.074   0.262  1.6166  2.0755  1.6324
  364SOL    HW2 1455   0.660   0.211   0.237  2.4339 -0.4047 -2.5499
  364SOL     MW 1456   0.725   0.162   0.254  0.7200  0.2614 -0.1085
  365SOL     OW 1457   0.924   1.940   1.126  0.1783 -0.0073 -0.0749
  365SOL    HW1 1458   0.899   2.003   1.062  1.9011 -1.6629 -0.3724
  365SOL    HW2 1459   0.883   1.861   1.086  1.5188  0.1491 -0.2808
  365SOL     MW 1460   0.915   1.938   1.112  0.5825 -0.2051 -0.1414
  366SOL     OW 1461   2.892   2.613   1.013  0.1129  0.3470  0.4964
  366SOL    HW1 1462   2.968   2.638   1.071  0.1774 -2.2257 -1.9733
  366SOL    HW2 1463   2.933   2.644   0.923 -1.5566 -0.7831 -2.0522
  366SOL     MW 1464   2.908   2.620   1.009 -0.0989 -0.1415 -0.1657
  367SOL     OW 1465   1.257   2.799   0.879 -0.5266  0.2930  0.2398
  367SOL    HW1 1466   1.177   2.853   0.885  1.6693 -1.0843 -2.0494
  367SOL    HW2 1467   1.239   2.747   0.805  0.7217  0.0334  0.7175
  367SOL     MW 1468   1.244   2.800   0.870 -0.0721  0.0770  0.0008
  368SOL     OW 1469   1.668   0.467   0.660  0.1296 -0.1305  0.1305
  368SOL    HW1 1470   1.746   0.410   0.630 -2.0021 -1.3298 -1.6341
  368SOL    HW2 1471   1.682   0.557   0.641 -0.6380 -1.7924  0.5600
  368SOL     MW 1472   1.680   0.471   0.654 -0.2530 -0.5080 -0.0457
  369SOL     OW 1473   0.147   2.458   1.709  0.0782 -0.3586  0.2107
  369SOL    HW1 1474   0.240   2.433   1.726  2.1480 -0.5050  1.6569
  369SOL    HW2 1475   0.150   2.551   1.735 -0.2809  0.7678 -1.0156
  369SOL     MW 1476   0.160   2.467   1.715  0.3039 -0.2293  0.2397
  370SOL     OW 1477   0.733   0.079   0.996  0.5587  0.0544  0.0450
  370SOL    HW1 1478   0.774   0.165   0.991  1.2247 -1.5008  1.1168
  370SOL    HW2 1479   0.795   0.020   1.034  1.8406  1.6078 -2.1520
  370SOL     MW 1480   0.746   0.083   1.000  0.8157  0.0542 -0.1035
  371SOL     OW 1481   1.319   2.988   1.500  0.4157 -0.0537  0.0769
  371SOL    HW1 1482   1.262   2.927   1.458  1.8916 -0.6650  0.2498
  371SOL    HW2 1483   1.324   3.065   1.439 -2.1802 -1.0648  2.3909
  371SOL     MW 1484   1.312   2.990   1.486  0.2679 -0.2677  0.4050
  372SOL     OW 1485   0.830   2.294   0.472  0.0414 -0.0112 -0.1940
  372SOL    HW1 1486   0.803   2.200   0.470 -0.2068  1.0654 -0.8875
  372SOL    HW2 1487   0.856   2.313   0.379 -1.8801 -0.0585 -1.0126
  372SOL     MW 1488   0.830   2.284   0.459 -0.2449  0.1246 -0.3935
  373SOL     OW 1489   2.821   2.996   1.395 -0.4350 -0.0187 -0.0370
  373SOL    HW1 1490   2.896   2.958   1.345  0.8656 -0.9781  0.0819
  373SOL    HW2 1491   2.811   3.081   1.345 -3.0954 -0.0373  0.1744
  373SOL     MW 1492   2.829   3.002   1.382 -0.6144 -0.1478  0.0066
  374SOL     OW 1493   1.526   0.501   0.253  0.0267  0.0807 -0.1003
  374SOL    HW1 1494   1.604   0.549   0.232 -2.3682 -1.5867  1.6564
  374SOL    HW2 1495   1.513   0.491   0.346  1.4358  3.1704 -0.4412
  374SOL     MW 1496   1.535   0.506   0.263 -0.1033  0.2684  0.0865
  375SOL     OW 1497   1.127   2.116   2.312  0.2464 -0.3473 -0.1156
  375SOL    HW1 1498   1.133   2.108   2.408  0.4445  0.0884 -2.5875
  375SOL    HW2 1499   1.144   2.029   2.275  1.1779  0.7968 -1.5279
  375SOL     MW 1500   1.130   2.104   2.320  0.3955 -0.1389 -0.6281
  376SOL     OW 1501   0.693   2.506   0.058  0.3256 -0.8181 -0.0974
  376SOL    HW1 1502   0.745   2.440   0.102  0.8728  0.2430 -4.2341
  376SOL    HW2 1503   0.644   2.454  -0.012 -1.4259 -1.5499 -2.4451
  376SOL     MW 1504   0.693   2.491   0.055  0.1667 -0.7747 -0.9530
  377SOL     OW 1505   1.306   1.959   0.858  0.2855 -0.0463  0.5410
  377SOL    HW1 1506   1.230   1.939   0.803  1.0285  1.6338 -0.8407
  377SOL    HW2 1507   1.284   1.928   0.947 -2.7959 -1.2218 -1.1901
  377SOL     MW 1508   1.293   1.953   0.863 -0.0230  0.0202  0.1303
  378SOL     OW 1509   1.048   2.798   1.560  0.3139  0.6995  0.0889
  378SOL    HW1 1510   0.983   2.723   1.564  3.2291 -2.8763 -3.0614
  378SOL    HW2 1511   0.994   2.862   1.505 -0.5584  1.1013 -0.0452
  378SOL     MW 1512   1.032   2.797   1.553  0.5834  0.2807 -0.3444
  379SOL     OW 1513   1.116   1.803   2.255  0.1099  0.0969  0.1348
  379SOL    HW1 1514   1.022   1.795   2.287 -2.9450  0.6305  1.3270
  379SOL    HW2 1515   1.130   1.714   2.216  0.7227  0.0061 -1.3802
  379SOL     MW 1516   1.105   1.790   2.254 -0.2123  0.1553  0.0922
  380SOL     OW 1517   0.865   0.060   1.552 -0.5397 -1.1002  0.4778
  380SOL    HW1 1518   0.898   0.063   1.462 -3.2287 -0.0016  0.8029
  380SOL    HW2 1519   0.941   0.093   1.599  3.6476  0.9074 -2.0203
  380SOL     MW 1520   0.880   0.065   1.546 -0.3420 -0.6904  0.1911
  381SOL     OW 1521   0.787   1.958   0.775  0.1357  0.0309  0.0599
  381SOL    HW1 1522   0.885   1.955   0.778  1.0154  0.8149  1.5800
  381SOL    HW2 1523   0.764   2.020   0.839 -0.2749 -0.8338  1.4651
  381SOL     MW 1524   0.797   1.966   0.784  0.1976  0.0203  0.4458
  382SOL     OW 1525   0.726   0.072   0.719 -0.4237  0.0833 -0.0424
  382SOL    HW1 1526   0.737   0.066   0.818  3.6382 -0.1216  2.2598
  382SOL    HW2 1527   0.682  -0.014   0.691 -0.4401 -2.6041  1.2282
  382SOL     MW 1528   0.721   0.060   0.728  0.1101 -0.2983  0.4290
  383SOL     OW 1529   0.447   0.044   0.365  0.7086 -0.1206 -0.0778
  383SOL    HW1 1530   0.497  -0.016   0.318 -0.9242  2.9435 -0.2248
  383SOL    HW2 1531   0.372   0.007   0.408  0.2203 -3.3415 -1.0295
  383SOL     MW 1532   0.444   0.031   0.364  0.4288 -0.1413 -0.2227
  384SOL     OW 1533   0.639   2.911   0.659  0.1087 -0.0682  0.2290
  384SOL    HW1 1534   0.669   2.829   0.690  0.8827 -3.0760  0.0479
  384SOL    HW2 1535   0.552   2.897   0.615  1.7920 -0.8300  0.4233
  384SOL     MW 1536   0.631   2.899   0.657  0.4329 -0.5655  0.2307
  385SOL     OW 1537   1.309   2.060   1.515 -0.0499 -0.2085  0.0372
  385SOL    HW1 1538   1.371   2.079   1.582 -0.8389 -1.0610 -0.0428
  385SOL    HW2 1539   1.270   1.972   1.539  2.3777  1.4644 -3.1906
  385SOL     MW 1540   1.312   2.051   1.527  0.1663 -0.1003 -0.3993
  386SOL     OW 1541   1.375   0.332   0.827  0.5936  0.0292  0.4530
  386SOL    HW1 1542   1.340   0.303   0.746 -0.5531  1.7457 -3.3399
  386SOL    HW2 1543   1.313   0.312   0.900 -2.0459 -2.0636 -2.3375
  386SOL     MW 1544   1.362   0.325   0.826  0.0941 -0.0205 -0.4156
  387SOL     OW 1545   0.820   2.202   1.468 -0.3036  0.2861 -0.1115
  387SOL    HW1 1546   0.890   2.251   1.420  1.2437  1.6826  0.3741
  387SOL    HW2 1547   0.841   2.111   1.443  1.8773 -1.1393 -0.8343
  387SOL     MW 1548   0.832   2.197   1.458  0.1883  0.2823 -0.1428
  388SOL     OW 1549   1.563   2.774   1.269  0.3413 -0.0502 -0.4854
  388SOL    HW1 1550   1.473   2.752   1.245  0.2232  0.6752  0.2197
  388SOL    HW2 1551   1.623   2.737   1.199 -0.0063  0.9935 -1.0820
  388SOL     MW 1552   1.559   2.766   1.256  0.2799  0.1833 -0.4711
  389SOL     OW 1553   0.364   0.053   3.068 -0.0167 -0.8199 -0.9514
  389SOL    HW1 1554   0.452   0.056   3.027  0.8652  0.8032  0.8701
  389SOL    HW2 1555   0.298   0.095   3.005  1.2165 -1.5013  0.4711
  389SOL     MW 1556   0.367   0.059   3.055  0.2623 -0.6957 -0.5234
  390SOL     OW 1557   1.299   0.012   0.615 -0.8157  0.1215 -0.3545
  390SOL    HW1 1558   1.390   0.027   0.600  0.5155 -1.7707  0.0741
  390SOL    HW2 1559   1.301  -0.037   0.694  0.2837  0.4612 -1.0793
  390SOL     MW 1560   1.311   0.007   0.623 -0.4950 -0.0833 -0.3936
  391SOL     OW 1561   0.288   2.275   1.504 -0.2674  0.3115 -0.3897
  391SOL    HW1 1562   0.225   2.206   1.520  0.0359  0.7878 -0.7591
  391SOL    HW2 1563   0.232   2.348   1.468  0.2142 -1.1870 -1.6255
  391SOL     MW 1564   0.272   2.275   1.501 -0.1639  0.1767 -0.6015
  392SOL     OW 1565   2.023   2.173   0.376  0.5266 -0.7846 -0.2664
  392SOL    HW1 1566   1.952   2.222   0.421  3.7104  1.7530 -0.1772
  392SOL    HW2 1567   2.105   2.194   0.426  0.4021 -1.4792  1.5035
  392SOL     MW 1568   2.025   2.183   0.389  0.9303 -0.5415 -0.0211
  393SOL     OW 1569   0.230   2.994   2.810 -0.5196 -0.0313 -0.0482
  393SOL    HW1 1570   0.281   3.068   2.776 -0.1320  1.7858 -1.0751
  393SOL    HW2 1571   0.150   2.999   2.769  1.8199  2.6009  1.0041
  393SOL     MW 1572   0.227   3.005   2.800 -0.1598  0.5557 -0.0449
  394SOL     OW 1573   0.875   1.682   1.478  0.1981 -0.0028  0.2700
  394SOL    HW1 1574   0.853   1.692   1.571 -0.3550  2.7908  0.8135
  394SOL    HW2 1575   0.869   1.771   1.443  1.7699  1.1239 -0.7758
  394SOL     MW 1576   0.871   1.695   1.486  0.3325  0.5144  0.2037
  395SOL     OW 1577   0.964   2.850   2.622 -0.4661  0.0207  0.0315
  395SOL    HW1 1578   0.983   2.938   2.658 -1.3470  1.4807  1.1088
  395SOL    HW2 1579   1.060   2.810   2.608  2.5757  0.9778  1.0217
  395SOL     MW 1580   0.979   2.856   2.625 -0.1810  0.3396  0.3043
  396SOL     OW 1581   0.852   1.841   2.376  0.6580 -0.1078  0.2285
  396SOL    HW1 1582   0.880   1.857   2.469  1.8967 -2.0943  1.4711
  396SOL    HW2 1583   0.797   1.765   2.380  0.1879  2.7694  1.2854
  396SOL     MW 1584   0.848   1.833   2.389  0.7594  0.0097  0.5319
  397SOL     OW 1585   1.024   2.363   1.374  0.0515  0.4463  0.1464
  397SOL    HW1 1586   1.065   2.407   1.298 -2.4072  0.1937 -1.1659
  397SOL    HW2 1587   1.096   2.322   1.428 -0.3307 -2.2233  0.9673
  397SOL     MW 1588   1.039   2.364   1.371 -0.3233  0.0607  0.0816
  398SOL     OW 1589   0.658   2.637   0.787  0.2426  0.6296  0.2255
  398SOL    HW1 1590   0.581   2.605   0.736 -4.2753  1.9392  0.2209
  398SOL    HW2 1591   0.738   2.578   0.772  0.1097  0.7917  1.0442
  398SOL     MW 1592   0.658   2.625   0.778 -0.3710  0.8238  0.3329
  399SOL     OW 1593   0.282   2.025   0.442  0.0125  0.8092  0.3733
  399SOL    HW1 1594   0.204   2.084   0.416 -0.2864  4.1163 -0.7749
  399SOL    HW2 1595   0.336   2.017   0.360  1.0624 -1.4704  0.2091
  399SOL     MW 1596   0.279   2.031   0.428  0.1116  0.9447  0.2002
  400SOL     OW 1597   0.563   1.830   0.183 -0.4187 -0.1187  0.8186
  400SOL    HW1 1598   0.532   1.917   0.194 -1.2716  1.9424 -0.0068
  400SOL    HW2 1599   0.532   1.784   0.259 -0.3901  0.9761 -2.6495
  400SOL     MW 1600   0.555   1.835   0.194 -0.5274  0.2977  0.2521
  401SOL     OW 1601   0.911   2.074   0.198  0.1389  0.0622 -0.0973
  401SOL    HW1 1602   0.915   1.983   0.175  0.6176 -2.2120 -2.7527
  401SOL    HW2 1603   0.966   2.086   0.270  0.0940 -2.4036 -2.3388
  401SOL     MW 1604   0.919   2.064   0.204  0.1961 -0.5632 -0.7434
  402SOL     OW 1605   0.685   2.972   1.680  0.5167  0.7289 -0.4320
  402SOL    HW1 1606   0.750   2.927   1.727 -0.5594  0.6845 -1.3209
  402SOL    HW2 1607   0.723   3.058   1.657 -1.0096 -1.1632  0.6612
  402SOL     MW 1608   0.698   2.978   1.683  0.1733  0.4734 -0.4050
  403SOL     OW 1609   0.079   0.391   0.436  0.5257  0.3267 -0.4336
  403SOL    HW1 1610   0.143   0.461   0.466 -0.8243  1.5358 -1.8260
  403SOL    HW2 1611   0.080   0.387   0.342 -1.2740 -1.2472 -0.0120
  403SOL     MW 1612   0.088   0.400   0.428  0.1102  0.2786 -0.5617
  404SOL     OW 1613   0.980   2.865   0.796 -0.1887  0.1536 -0.2091
  404SOL    HW1 1614   1.004   2.796   0.736 -0.1674  0.4509  1.7939
  404SOL    HW2 1615   0.990   2.952   0.750  0.1725  0.4961 -1.2187
  404SOL     MW 1616   0.985   2.867   0.782 -0.1382  0.2380 -0.0780
  405SOL     OW 1617   0.502   2.427   1.570  0.6059  0.1159 -0.5348
  405SOL    HW1 1618   0.503   2.495   1.506  2.4031 -1.4166  2.1277
  405SOL    HW2 1619   0.419   2.368   1.548 -1.9867 -3.5252 -0.1941
  405SOL     MW 1620   0.491   2.428   1.558  0.5010 -0.5667 -0.1386
  406SOL     OW 1621   0.392   2.320   1.100 -0.1735  0.4823  0.1513
  406SOL    HW1 1622   0.297   2.338   1.072 -2.7354  2.4717  1.1919
  406SOL    HW2 1623   0.381   2.240   1.162 -2.9904 -0.0234  0.7015
  406SOL     MW 1624   0.378   2.312   1.104 -0.8832  0.6780  0.3612
  407SOL     OW 1625   0.013   2.729   1.102 -0.1824  0.2225  0.1005
  407SOL    HW1 1626   0.046   2.705   1.188  0.1612  2.4470 -1.1949
  407SOL    HW2 1627   0.097   2.724   1.042  2.1754  0.1425 -2.5457
  407SOL     MW 1628   0.028   2.725   1.105  0.1740  0.5054 -0.4196
  408SOL     OW 1629   2.090   2.051   0.671 -0.2157  0.2618  0.3407
  408SOL    HW1 1630   2.049   2.050   0.759 -0.3559 -0.4474  0.6810
  408SOL    HW2 1631   2.027   2.029   0.609 -1.0200 -0.7582 -0.8593
  408SOL     MW 1632   2.076   2.048   0.675 -0.3403  0.0337  0.2273
  409SOL     OW 1633   1.378   0.065   0.906  0.4985 -0.6625  0.4262
  409SOL    HW1 1634   1.406   0.145   0.855  1.0942  0.4126  0.1542
  409SOL    HW2 1635   1.452   0.029   0.950  1.1842  1.0482 -1.7243
  409SOL     MW 1636   1.391   0.071   0.905  0.6676 -0.2949  0.1066
  410SOL     OW 1637   1.104   2.442   1.107 -0.0931  0.2194 -0.6847
  410SOL    HW1 1638   1.013   2.452   1.086  0.6195 -2.7527 -0.7820
  410SOL    HW2 1639   1.142   2.363   1.060 -1.0915  1.5886 -2.9644
  410SOL     MW 1640   1.097   2.432   1.098 -0.1308  0.0080 -0.9983
  411SOL     OW 1641   1.959   0.045   2.879  0.4263 -0.4822 -0.0018
  411SOL    HW1 1642   1.899   0.036   2.797 -2.1923  1.9496  1.5179
  411SOL    HW2 1643   1.903   0.022   2.951  1.8460 -1.6786  2.1396
  411SOL     MW 1644   1.944   0.041   2.878  0.2681 -0.3192  0.4812
  412SOL     OW 1645   1.075   2.215   0.597 -0.4867  0.4944 -0.3210
  412SOL    HW1 1646   1.110   2.295   0.635 -1.2198 -1.4407 -2.7261
  412SOL    HW2 1647   0.990   2.236   0.571  0.0066  1.4717 -0.2664
  412SOL     MW 1648   1.069   2.229   0.599 -0.5183  0.3680 -0.6312
  413SOL     OW 1649   0.533   2.772   0.075 -0.2735 -0.2230 -0.7431
  413SOL    HW1 1650   0.582   2.690   0.075  1.7408  1.7966  0.6452
  413SOL    HW2 1651   0.580   2.808   0.000  0.3700  1.1433  0.8327
  413SOL     MW 1652   0.546   2.766   0.065  0.0772  0.2237 -0.3520
  414SOL     OW 1653   1.946   2.993   1.067 -0.7630  0.0810 -0.2408
  414SOL    HW1 1654   1.922   3.021   0.979  0.2000 -0.5113  1.2889
  414SOL    HW2 1655   2.017   2.929   1.051  0.2827 -0.3178  0.5024
  414SOL     MW 1656   1.952   2.988   1.053 -0.4980 -0.0498  0.0591
  415SOL     OW 1657   1.712   2.631   1.107  0.2391 -0.9639  0.9127
  415SOL    HW1 1658   1.658   2.558   1.150  1.4431 -1.9869  0.3321
  415SOL    HW2 1659   1.807   2.619   1.136  1.1338  0.7225 -0.7937
  415SOL     MW 1660   1.718   2.620   1.117  0.5160 -0.8764  0.6110
  416SOL     OW 1661   0.606   1.911   1.344 -0.7256  0.3171 -0.1987
  416SOL    HW1 1662   0.533   1.973   1.328 -2.8035 -0.5027 -0.2317
  416SOL    HW2 1663   0.609   1.859   1.264 -2.6971 -0.4542 -1.0097
  416SOL     MW 1664   0.596   1.913   1.331 -1.2599  0.1071 -0.3101
  417SOL     OW 1665   1.001   3.041   2.037 -0.6930 -0.8671 -0.1998
  417SOL    HW1 1666   0.932   3.004   2.095  1.3253 -1.5823  1.0185
  417SOL    HW2 1667   0.990   2.988   1.954  1.4409  0.5719 -0.5741
  417SOL     MW 1668   0.990   3.029   2.033 -0.1452 -0.7716 -0.0885
  418SOL     OW 1669   0.630   2.991   0.218  0.2037  0.1633 -0.2042
  418SOL    HW1 1670   0.696   3.001   0.145 -1.2039 -0.5756 -1.8992
  418SOL    HW2 1671   0.597   2.905   0.185  0.8881  2.3014 -0.2976
  418SOL     MW 1672   0.634   2.981   0.204  0.1083  0.3479 -0.4402
  419SOL     OW 1673   0.466   2.640   1.386  0.5768 -0.0297  0.0122
  419SOL    HW1 1674   0.519   2.718   1.419  0.1838 -0.6821  0.7406
  419SOL    HW2 1675   0.492   2.618   1.293  1.9001  0.8199 -0.0104
  419SOL     MW 1676   0.476   2.648   1.378  0.6996 -0.0037  0.1053
  420SOL     OW 1677   0.755   2.135   0.997 -0.0818  0.1872  0.3156
  420SOL    HW1 1678   0.714   2.157   1.084  0.9561  0.9029 -0.3196
  420SOL    HW2 1679   0.793   2.221   0.967 -0.7718  0.8806 -1.5619
  420SOL     MW 1680   0.755   2.149   1.005 -0.0359  0.3731 -0.0159
  421SOL     OW 1681   2.944   0.082   0.032  0.2792  0.3601  0.2401
  421SOL    HW1 1682   2.928   0.043  -0.058  0.6240  1.6154 -1.2416
  421SOL    HW2 1683   2.963   0.004   0.080 -3.7370 -0.8508  0.8814
  421SOL     MW 1684   2.944   0.067   0.026 -0.2052  0.3659  0.1292
  422SOL     OW 1685   0.829   2.456   0.996  0.2628 -0.2522  0.1816
  422SOL    HW1 1686   0.737   2.482   1.009 -0.0680  1.0606 -1.1721
  422SOL    HW2 1687   0.847   2.471   0.903 -2.2034 -1.9008  0.5908
  422SOL     MW 1688   0.819   2.461   0.985 -0.1063 -0.2965  0.0570
  423SOL     OW 1689   1.518   0.145   0.512 -0.4067 -0.3537  0.5314
  423SOL    HW1 1690   1.538   0.128   0.414 -0.1903 -0.5308  0.4162
  423SOL    HW2 1691   1.500   0.236   0.518 -0.3072  0.0689 -3.7660
  423SOL     MW 1692   1.518   0.155   0.500 -0.3650 -0.3213 -0.0508
  424SOL     OW 1693   0.686   2.240   1.240 -0.2077 -0.4970 -0.5211
  424SOL    HW1 1694   0.601   2.212   1.246  1.8220 -0.8100  0.8417
  424SOL    HW2 1695   0.728   2.220   1.324 -0.6320  1.6999 -0.6117
  424SOL     MW 1696   0.681   2.234   1.252  0.0041 -0.2485 -0.3533
  425SOL     OW 1697   1.715   2.823   1.921 -0.2061 -0.2665  0.3027
  425SOL    HW1 1698   1.750   2.839   1.830  1.0682 -0.3666  0.6779
  425SOL    HW2 1699   1.754   2.733   1.942 -0.3801 -0.7349 -4.0543
  425SOL     MW 1700   1.725   2.813   1.912 -0.0609 -0.3415 -0.2227
  426SOL     OW 1701   0.813   1.703   1.934 -0.4417  0.4761  0.0935
  426SOL    HW1 1702   0.764   1.710   1.855 -0.0269  0.4573 -1.1950
  426SOL    HW2 1703   0.785   1.766   1.998  0.2282 -0.4881  1.8475
  426SOL     MW 1704   0.803   1.713   1.932 -0.2986  0.3464  0.1549
  427SOL     OW 1705   0.328   1.544   1.888  0.3808 -0.2246 -0.3380
  427SOL    HW1 1706   0.367   1.495   1.958  1.8050 -1.6357  0.5726
  427SOL    HW2 1707   0.236   1.513   1.908  1.2302  3.5612  2.2656
  427SOL     MW 1708   0.321   1.534   1.900  0.6808  0.0887  0.1257
  428SOL     OW 1709   0.545   2.544   1.131 -0.6219 -0.1262 -0.0753
  428SOL    HW1 1710   0.627   2.530   1.185 -2.3513 -0.2191  0.4355
  428SOL    HW2 1711   0.501   2.459   1.125  0.0321  0.9093 -1.1343
  428SOL     MW 1712   0.550   2.531   1.138 -0.7638 -0.0019 -0.1476
  429SOL     OW 1713   1.342   2.608   1.086 -0.2069 -0.0632 -0.1045
  429SOL    HW1 1714   1.262   2.554   1.106  0.9672 -1.4885 -0.6528
  429SOL    HW2 1715   1.307   2.671   1.015 -0.6063  0.3197 -0.6595
  429SOL     MW 1716   1.327   2.609   1.079 -0.1047 -0.2007 -0.2501
  430SOL     OW 1717   1.115   2.687   0.632  0.2784 -0.1879 -0.2420
  430SOL    HW1 1718   1.135   2.594   0.626 -3.3394  0.2669 -0.0542
  430SOL    HW2 1719   1.054   2.700   0.558 -0.7488 -0.2306  1.5542
  430SOL     MW 1720   1.109   2.677   0.622 -0.3345 -0.1335  0.0198
  431SOL     OW 1721   0.334   1.942   1.108 -0.3298 -0.2383 -0.2229
  431SOL    HW1 1722   0.401   1.872   1.113  0.5105 -2.7990 -1.8238
  431SOL    HW2 1723   0.317   1.963   1.015 -0.2033  1.5569 -2.3357
  431SOL     MW 1724   0.341   1.935   1.096 -0.2023 -0.3393 -0.7129
  432SOL     OW 1725   0.034   0.101   1.176 -0.2881  0.6035 -0.3003
  432SOL    HW1 1726   0.037   0.127   1.269  0.7854  0.7768 -1.0360
  432SOL    HW2 1727  -0.042   0.034   1.166 -2.2791 -0.0614 -0.1363
  432SOL     MW 1728   0.024   0.095   1.187 -0.4092  0.5386 -0.3757
  433SOL     OW 1729   0.607   2.885   1.409 -0.0414 -0.3291 -0.3450
  433SOL    HW1 1730   0.637   2.908   1.498 -0.8214 -1.3674 -1.1998
  433SOL    HW2 1731   0.694   2.867   1.373 -2.3111 -2.7235  2.5322
  433SOL     MW 1732   0.623   2.886   1.416 -0.4438 -0.7820 -0.0781
  434SOL     OW 1733   1.567   2.819   1.527  0.1743  0.3004 -0.1458
  434SOL    HW1 1734   1.472   2.843   1.523 -1.7060 -0.6740  1.9773
  434SOL    HW2 1735   1.575   2.774   1.443  0.9410 -0.6344  3.5125
  434SOL     MW 1736   1.556   2.816   1.515  0.0274  0.0485  0.6170
  435SOL     OW 1737   2.858   1.776   0.179 -0.5000  0.1953 -0.7277
  435SOL    HW1 1738   2.930   1.837   0.153  1.0643  1.3497  0.9577
  435SOL    HW2 1739   2.847   1.725   0.103  0.2438 -1.1224  0.8600
  435SOL     MW 1740   2.866   1.777   0.165 -0.1955  0.1738 -0.2959
  436SOL     OW 1741   1.382   2.745   0.327 -0.5386 -0.2820 -0.1099
  436SOL    HW1 1742   1.435   2.722   0.404 -1.9114  0.8581  0.0810
  436SOL    HW2 1743   1.329   2.825   0.357 -1.0877 -1.7609 -3.2650
  436SOL     MW 1744   1.382   2.753   0.341 -0.7922 -0.3267 -0.5010
  437SOL     OW 1745   0.880   2.896   1.364 -0.4329 -0.2776  0.5732
  437SOL    HW1 1746   0.891   2.985   1.330 -1.7729  0.2334 -0.6007
  437SOL    HW2 1747   0.931   2.851   1.298 -3.3526 -0.5289 -0.4692
  437SOL     MW 1748   0.889   2.901   1.351 -0.9949 -0.2433  0.2808
  438SOL     OW 1749   0.919   2.642   1.951  0.3845  0.3085 -0.5238
  438SOL    HW1 1750   0.885   2.594   2.032 -0.5494  1.3416  1.5318
  438SOL    HW2 1751   0.856   2.596   1.894  0.4610 -1.1515  1.8447
  438SOL     MW 1752   0.906   2.630   1.954  0.2713  0.2522  0.0599
  439SOL     OW 1753   1.142   2.170   0.340 -0.0365 -0.3773  0.0697
  439SOL    HW1 1754   1.122   2.179   0.436  0.2926 -0.3081  0.6410
  439SOL    HW2 1755   1.139   2.255   0.288 -0.6834  0.1075  1.4927
  439SOL     MW 1756   1.139   2.183   0.346 -0.0784 -0.3042  0.3329
  440SOL     OW 1757   1.599   2.905   3.028 -0.0564 -0.5252 -0.0048
  440SOL    HW1 1758   1.550   2.889   3.108 -1.4469  0.3219 -2.2745
  440SOL    HW2 1759   1.632   2.819   3.001 -0.7821  0.6841  2.8567
  440SOL     MW 1760   1.597   2.891   3.035 -0.3356 -0.2539  0.0733
  441SOL     OW 1761   0.338   2.574   0.526 -0.2618  0.1053  0.4703
  441SOL    HW1 1762   0.317   2.567   0.432 -3.2066  1.6687  1.0861
  441SOL    HW2 1763   0.381   2.659   0.537  0.1836 -2.1474 -1.2329
  441SOL     MW 1764   0.341   2.585   0.515 -0.5916  0.0143  0.3269
  442SOL     OW 1765   3.057   2.288   0.634  0.1682  0.2177 -0.0642
  442SOL    HW1 1766   3.040   2.377   0.600 -1.0985  0.3067 -0.3913
  442SOL    HW2 1767   2.985   2.274   0.696  1.5429  0.2078  0.2169
  442SOL     MW 1768   3.046   2.298   0.638  0.1824  0.2281 -0.0703
  443SOL     OW 1769   1.369   1.755   1.837  0.7239  0.8073  0.1728
  443SOL    HW1 1770   1.323   1.790   1.757  2.5709 -1.1063  0.2584
  443SOL    HW2 1771   1.335   1.667   1.825  0.6143  2.2578  0.1005
  443SOL     MW 1772   1.358   1.748   1.825  0.9531  0.7462  0.1746
  444SOL     OW 1773   0.875   2.582   1.554  0.6707 -0.0516  0.1776
  444SOL    HW1 1774   0.926   2.494   1.551 -0.4283 -3.2316 -0.7897
  444SOL    HW2 1775   0.797   2.567   1.610  0.6242  0.9683  0.4186
  444SOL     MW 1776   0.872   2.568   1.561  0.5195 -0.3366  0.0818
  445SOL     OW 1777   0.966   0.075   1.271  0.0658 -0.0759 -0.3777
  445SOL    HW1 1778   0.918   0.159   1.257 -0.7838  2.7150  2.6766
  445SOL    HW2 1779   1.046   0.096   1.224  2.3617  2.9244  1.3880
  445SOL     MW 1780   0.970   0.089   1.263  0.2566  0.6882  0.2582
  446SOL     OW 1781   2.698   2.807   1.063 -0.2676 -0.4410  0.7008
  446SOL    HW1 1782   2.657   2.849   0.987 -0.6319  0.0190  0.8232
  446SOL    HW2 1783   2.743   2.728   1.031  1.0950 -0.5920 -0.9585
  446SOL     MW 1784   2.698   2.802   1.049 -0.1359 -0.4002  0.4980
  447SOL     OW 1785   3.043   2.035   1.713 -0.0012 -0.4415 -0.0167
  447SOL    HW1 1786   3.117   1.978   1.735 -1.8863  1.8518  0.2340
  447SOL    HW2 1787   2.977   1.988   1.654  0.8582  0.4299 -2.5702
  447SOL     MW 1788   3.044   2.022   1.708 -0.1365 -0.0240 -0.3205
  448SOL     OW 1789   1.671   2.366   1.655 -0.3418  0.7354  0.0177
  448SOL    HW1 1790   1.613   2.289   1.670  1.3952  2.4160  0.6577
  448SOL    HW2 1791   1.611   2.435   1.694  3.0719 -1.2678 -0.5524
  448SOL     MW 1792   1.655   2.365   1.662  0.3378  0.6928  0.0269
  449SOL     OW 1793   0.794   2.957   0.442 -0.3602 -0.6294 -0.3867
  449SOL    HW1 1794   0.730   2.958   0.369  0.6412  1.5539 -0.8842
  449SOL    HW2 1795   0.739   2.948   0.523 -1.0434  3.0507 -0.5116
  449SOL     MW 1796   0.778   2.956   0.443 -0.3182  0.1442 -0.4688
  450SOL     OW 1797   1.222   2.412   0.700 -0.2138  0.2913  0.4005
  450SOL    HW1 1798   1.231   2.394   0.796 -0.2766  0.0118  1.5889
  450SOL    HW2 1799   1.305   2.413   0.650 -0.9201 -1.5183  0.0754
  450SOL     MW 1800   1.234   2.410   0.706 -0.3153  0.0157  0.5144
  451SOL     OW 1801   0.586   2.029   1.656  0.0720 -0.1781  0.0659
  451SOL    HW1 1802   0.644   2.103   1.694 -0.7459  1.3431 -2.3444
  451SOL    HW2 1803   0.585   2.042   1.559 -0.0733 -1.2421 -0.1373
  451SOL     MW 1804   0.594   2.041   1.648 -0.0551 -0.1178 -0.2789
  452SOL     OW 1805   0.262   2.736   0.110 -0.4868  0.3329 -0.4906
  452SOL    HW1 1806   0.349   2.766   0.090  2.0672  0.0316 -0.2432
  452SOL    HW2 1807   0.222   2.730   0.013 -1.2605  0.8414 -1.2232
  452SOL     MW 1808   0.269   2.739   0.094 -0.2519  0.3603 -0.5546
  453SOL     OW 1809   0.410   2.988   1.701 -0.3165  0.5228 -0.3274
  453SOL    HW1 1810   0.508   2.975   1.685  1.5314  0.3180  0.9194
  453SOL    HW2 1811   0.367   2.999   1.617  0.8880  1.0099  2.2787
  453SOL     MW 1812   0.417   2.988   1.688  0.0863  0.5600  0.1809
  454SOL     OW 1813   1.016   2.767   1.186 -0.1172 -1.1191  0.1903
  454SOL    HW1 1814   0.965   2.685   1.205 -1.1340  0.6950  3.5997
  454SOL    HW2 1815   0.973   2.811   1.113 -2.7318 -1.4389 -0.1525
  454SOL     MW 1816   1.004   2.762   1.179 -0.5963 -0.9219  0.5949
  455SOL     OW 1817   1.528   2.957   0.202 -0.0876 -0.2827  0.0014
  455SOL    HW1 1818   1.610   2.931   0.243 -0.9557  0.0695  0.5125
  455SOL    HW2 1819   1.470   2.886   0.238 -1.0062  0.5236  1.9415
  455SOL     MW 1820   1.531   2.944   0.212 -0.3234 -0.1298  0.3248
  456SOL     OW 1821   2.890   0.387   1.326 -0.2626  0.4956 -0.2965
  456SOL    HW1 1822   2.866   0.313   1.270 -1.0245 -2.6754 -2.3388
  456SOL    HW2 1823   2.961   0.434   1.282 -1.5134  1.2285  1.7636
  456SOL     MW 1824   2.896   0.383   1.313 -0.5282  0.1739 -0.2942
  457SOL     OW 1825   0.891   1.563   2.996  0.4291  0.1651  0.4857
  457SOL    HW1 1826   0.832   1.551   3.073  1.9371 -0.7295 -0.9685
  457SOL    HW2 1827   0.968   1.531   3.033  0.7724  1.6774 -0.8696
  457SOL     MW 1828   0.893   1.557   3.011  0.6734  0.2466  0.1150
  458SOL     OW 1829   1.473   1.416   0.636 -0.2280  0.1285 -0.0790
  458SOL    HW1 1830   1.387   1.430   0.683 -0.9526  2.9001  1.2031
  458SOL    HW2 1831   1.454   1.362   0.566 -0.5732  0.2802  2.0191
  458SOL     MW 1832   1.459   1.411   0.633 -0.3692  0.5142  0.3670
  459SOL     OW 1833   1.572   0.147   0.237  0.5692 -0.3834 -0.2776
  459SOL    HW1 1834   1.539   0.058   0.215 -0.1137  0.3178 -0.5613
  459SOL    HW2 1835   1.515   0.202   0.174  2.8399  1.9426  0.8922
  459SOL     MW 1836   1.560   0.142   0.226  0.7787  0.0160 -0.1607
  460SOL     OW 1837   1.728   2.160   0.635  0.0418  0.1094  0.3892
  460SOL    HW1 1838   1.634   2.133   0.668 -1.7617  0.7216  3.0359
  460SOL    HW2 1839   1.786   2.079   0.619  2.0595  1.9070 -1.5262
  460SOL     MW 1840   1.723   2.146   0.637  0.0701  0.4273  0.4857
  461SOL     OW 1841   0.552   2.434   0.610 -0.0606 -0.1404 -0.2430
  461SOL    HW1 1842   0.477   2.477   0.567 -2.3162 -1.4193  2.5145
  461SOL    HW2 1843   0.509   2.431   0.701 -0.7614 -1.5304 -0.2375
  461SOL     MW 1844   0.537   2.439   0.616 -0.4507 -0.4925  0.1216
  462SOL     OW 1845   0.292   0.250   1.266 -0.3195 -0.0556  0.6725
  462SOL    HW1 1846   0.319   0.202   1.190  0.0655 -2.6069 -2.3136
  462SOL    HW2 1847   0.372   0.265   1.314 -2.8355 -1.5632 -2.7735
  462SOL     MW 1848   0.306   0.246   1.263 -0.6006 -0.5912 -0.1762
  463SOL     OW 1849   0.992   0.030   0.694 -0.2160 -0.6391  0.2667
  463SOL    HW1 1850   1.026   0.035   0.603 -1.0743 -2.2634 -0.3190
  463SOL    HW2 1851   0.896   0.053   0.692 -0.4250 -0.9140 -1.8080
  463SOL     MW 1852   0.984   0.034   0.681 -0.3569 -0.8897 -0.0843
  464SOL     OW 1853   0.761   2.955   2.167  0.4781  0.7222  0.3227
  464SOL    HW1 1854   0.702   2.885   2.199  2.5561  4.7289  0.3509
  464SOL    HW2 1855   0.805   2.987   2.248  5.2051 -0.5792  2.4338
  464SOL     MW 1856   0.759   2.950   2.182  1.3759  1.0792  0.6050
  465SOL     OW 1857   0.724   0.276   0.533 -0.3120  0.5716  0.3437
  465SOL    HW1 1858   0.704   0.209   0.601  0.1072  3.1627  1.5227
  465SOL    HW2 1859   0.742   0.219   0.459  0.1656 -1.8006  1.8270
  465SOL     MW 1860   0.724   0.260   0.532 -0.1937  0.6005  0.6949
  466SOL     OW 1861   1.065   1.980   0.722 -0.2044  0.0740  0.1482
  466SOL    HW1 1862   1.066   1.911   0.653  1.7014  0.5663 -0.4160
  466SOL    HW2 1863   1.092   2.063   0.678 -0.5619  1.0672  1.8750
  466SOL     MW 1864   1.068   1.982   0.707 -0.0001  0.2700  0.3016
  467SOL     OW 1865   1.235   2.250   0.934  0.3394 -0.4596 -0.8000
  467SOL    HW1 1866   1.332   2.246   0.934  1.8813 -1.2666 -0.2055
  467SOL    HW2 1867   1.217   2.162   0.891 -2.5334 -0.1337 -1.0632
  467SOL     MW 1868   1.245   2.238   0.928  0.1638 -0.5231 -0.7563
  468SOL     OW 1869   0.353   2.589   2.004  0.0324 -0.0994 -0.1264
  468SOL    HW1 1870   0.392   2.519   1.951  2.4930 -0.9718  1.5168
  468SOL    HW2 1871   0.381   2.672   1.957 -3.7971 -2.4141  0.5194
  468SOL     MW 1872   0.362   2.590   1.991 -0.1482 -0.5199  0.1756
  469SOL     OW 1873   0.379   2.146   1.815 -0.5570 -0.0340  0.0004
  469SOL    HW1 1874   0.313   2.079   1.816  0.8418  1.3974 -1.9944
  469SOL    HW2 1875   0.453   2.092   1.788 -0.1676  1.8792 -0.9505
  469SOL     MW 1876   0.380   2.130   1.811 -0.3211  0.4073 -0.3883
  470SOL     OW 1877   3.030   2.559   0.147 -0.0043  0.5413 -0.3333
  470SOL    HW1 1878   2.957   2.541   0.207 -0.9682 -2.5061 -1.8388
  470SOL    HW2 1879   3.002   2.552   0.055 -1.5625  0.1915 -0.9831
  470SOL     MW 1880   3.017   2.555   0.143 -0.3371  0.0931 -0.6177
  471SOL     OW 1881   1.251   2.737   1.376  0.5723 -0.0331  0.9003
  471SOL    HW1 1882   1.170   2.734   1.433 -1.8098 -0.5855  0.0346
  471SOL    HW2 1883   1.224   2.748   1.284  0.8261 -2.3637  1.8527
  471SOL     MW 1884   1.237   2.738   1.371  0.2915 -0.4135  0.9117
  472SOL     OW 1885   2.903   2.094   0.326 -0.0150  0.1620  0.4792
  472SOL    HW1 1886   2.918   2.048   0.234  0.1324 -0.6734  1.0755
  472SOL    HW2 1887   2.865   2.014   0.376 -0.2232 -2.3761 -0.8697
  472SOL     MW 1888   2.900   2.078   0.321 -0.0230 -0.2831  0.3799
  473SOL     OW 1889   0.788   2.550   1.262  0.3986 -0.1975 -0.4328
  473SOL    HW1 1890   0.810   2.456   1.239  1.5196  0.3713 -2.6430
  473SOL    HW2 1891   0.819   2.576   1.355  0.3692  4.0988  0.2210
  473SOL     MW 1892   0.795   2.541   1.271  0.5426  0.4444 -0.6381
  474SOL     OW 1893   0.770   2.240   1.720 -0.5945  0.3502 -0.0789
  474SOL    HW1 1894   0.856   2.240   1.766  1.6593 -0.6205 -0.9265
  474SOL    HW2 1895   0.785   2.218   1.626 -0.5654 -0.8319 -1.8118
  474SOL     MW 1896   0.783   2.237   1.713 -0.2933  0.0661 -0.4194
  475SOL     OW 1897   1.621   0.002   1.439 -0.3241  0.6568  0.1892
  475SOL    HW1 1898   1.556   0.058   1.390  0.5352  0.3602 -1.0724
  475SOL    HW2 1899   1.575  -0.079   1.456 -0.1069  1.2421 -1.2682
  475SOL     MW 1900   1.606  -0.001   1.435 -0.1821  0.6949 -0.1696
  476SOL     OW 1901   1.481   2.601   0.811  0.2780  0.6031  0.2807
  476SOL    HW1 1902   1.438   2.588   0.893  3.3619  2.2387 -0.2997
  476SOL    HW2 1903   1.510   2.690   0.805 -0.4882  1.2175  4.1067
  476SOL     MW 1904   1.479   2.611   0.821  0.5838  0.9000  0.7089
  477SOL     OW 1905   0.859   2.495   0.680 -0.2677 -0.3891  0.5305
  477SOL    HW1 1906   0.873   2.564   0.615  0.7668  2.8563 -2.9779
  477SOL    HW2 1907   0.796   2.432   0.642  0.2892 -2.4965  2.0532
  477SOL     MW 1908   0.852   2.496   0.666 -0.0577 -0.2389  0.2685
  478SOL     OW 1909   0.235   2.647   0.904 -0.4304  0.5634  0.0435
  478SOL    HW1 1910   0.300   2.723   0.930  0.7447  2.1470 -0.6766
  478SOL    HW2 1911   0.299   2.583   0.873 -0.4027 -1.5717  0.9866
  478SOL     MW 1912   0.252   2.649   0.904 -0.2717  0.4907  0.0729
  479SOL     OW 1913   1.403   1.936   1.300  0.5131 -0.3443 -0.1976
  479SOL    HW1 1914   1.366   1.983   1.375 -3.1540 -0.5347  1.2533
  479SOL    HW2 1915   1.475   1.879   1.329  1.7666  0.4608  1.7514
  479SOL     MW 1916   1.408   1.935   1.314  0.1946 -0.2632  0.2510
  480SOL     OW 1917   1.853   2.394   1.307 -0.0337 -0.0966  0.1974
  480SOL    HW1 1918   1.841   2.301   1.327 -0.6960  1.2312  0.4868
  480SOL    HW2 1919   1.875   2.400   1.213 -1.5300  0.0369  0.7902
  480SOL     MW 1920   1.855   2.383   1.297 -0.3185  0.0962  0.3138
  481SOL     OW 1921   1.194   0.121   1.108 -0.6837 -0.1791  0.5180
  481SOL    HW1 1922   1.248   0.091   1.032 -0.9499  0.8061 -3.1656
  481SOL    HW2 1923   1.182   0.213   1.087 -0.2533 -1.4572 -1.2793
  481SOL     MW 1924   1.200   0.129   1.095 -0.6620 -0.2178 -0.2052
  482SOL     OW 1925   1.042   0.036   0.432 -0.5880 -0.2326 -0.4158
  482SOL    HW1 1926   0.961  -0.013   0.424 -1.1729  1.4580  0.3881
  482SOL    HW2 1927   1.033   0.120   0.385  1.6336  1.8903  1.3099
  482SOL     MW 1928   1.030   0.040   0.424 -0.3720  0.2706 -0.0820
  483SOL     OW 1929   0.394   2.861   0.548  0.6892  0.1272 -0.7174
  483SOL    HW1 1930   0.348   2.880   0.472  1.9775  1.6210  0.5735
  483SOL    HW2 1931   0.354   2.930   0.605 -0.1209 -1.0795  1.4981
  483SOL     MW 1932   0.383   2.873   0.546  0.7523  0.1651 -0.2548
  484SOL     OW 1933   1.667   1.853   1.443 -0.1480  0.0732 -0.1841
  484SOL    HW1 1934   1.735   1.922   1.422  1.3707  2.8383 -1.0611
  484SOL    HW2 1935   1.654   1.850   1.539 -0.9975 -0.3799  0.0423
  484SOL     MW 1936   1.674   1.862   1.453 -0.0597  0.3783 -0.2699
  485SOL     OW 1937   0.551   2.287   0.353 -0.1034 -0.6495 -0.5872
  485SOL    HW1 1938   0.640   2.322   0.380  0.5637  5.8119  0.6153
  485SOL    HW2 1939   0.488   2.367   0.336 -0.4692  2.4244  3.7238
  485SOL     MW 1940   0.554   2.302   0.355 -0.0637  0.6086  0.1402
  486SOL     OW 1941   0.099   2.466   1.432 -0.2747 -0.6375  0.2011
  486SOL    HW1 1942   0.121   2.557   1.389  1.1038 -0.1086  1.6720
  486SOL    HW2 1943   0.078   2.472   1.526  1.5632  1.4368 -0.5461
  486SOL     MW 1944   0.099   2.478   1.438  0.1497 -0.2940  0.2966
  487SOL     OW 1945   1.256   1.629   0.985 -0.3830  0.1797  0.6188
  487SOL    HW1 1946   1.230   1.713   1.026  0.0379  1.5799  1.8005
  487SOL    HW2 1947   1.351   1.630   0.985  0.6053 -1.5177 -2.5534
  487SOL     MW 1948   1.265   1.640   0.991 -0.1971  0.1405  0.3562
  488SOL     OW 1949   1.536   1.881   0.566  0.4242 -0.0456 -0.4875
  488SOL    HW1 1950   1.552   1.937   0.494 -0.6187  0.2364  0.0375
  488SOL    HW2 1951   1.461   1.829   0.543 -1.1363  1.2643 -0.3100
  488SOL     MW 1952   1.529   1.882   0.554  0.0807  0.1644 -0.3948
  489SOL     OW 1953   0.759   0.785   0.502  0.6174  0.3708  0.0422
  489SOL    HW1 1954   0.786   0.701   0.474 -3.1309  0.2552  2.1345
  489SOL    HW2 1955   0.754   0.783   0.599 -3.1478  3.8518  2.1677
  489SOL     MW 1956   0.762   0.774   0.511 -0.3740  0.8148  0.5987
  490SOL     OW 1957   1.408   2.097   0.401 -0.2922  0.4036 -0.0127
  490SOL    HW1 1958   1.457   2.181   0.384  0.5287 -0.1782 -0.6838
  490SOL    HW2 1959   1.318   2.125   0.409 -1.5366 -0.4492  0.2070
  490SOL     MW 1960   1.403   2.112   0.400 -0.3481  0.2143 -0.0723
  491SOL     OW 1961   1.238   2.950   0.388 -0.2009 -0.0714  0.4511
  491SOL    HW1 1962   1.276   2.978   0.470  0.5564  2.3410 -1.0949
  491SOL    HW2 1963   1.167   3.016   0.369 -2.0161  1.1580 -1.0748
  491SOL     MW 1964   1.234   2.962   0.397 -0.3405  0.4091  0.0458
  492SOL     OW 1965   1.466   2.141   0.698  0.6715  0.3192 -0.1694
  492SOL    HW1 1966   1.439   2.104   0.614 -0.4125 -0.6267 -1.2159
  492SOL    HW2 1967   1.423   2.074   0.755  0.2774 -0.3701  0.2618
  492SOL     MW 1968   1.457   2.127   0.695  0.4765  0.1034 -0.2506
  493SOL     OW 1969   0.175   2.980   0.380 -0.4391 -0.5880  1.1333
  493SOL    HW1 1970   0.115   3.034   0.435 -1.4590 -0.7726  0.4108
  493SOL    HW2 1971   0.166   3.015   0.287 -2.3413  0.1088  0.1323
  493SOL     MW 1972   0.166   2.992   0.375 -0.8247 -0.5204  0.9059
  494SOL     OW 1973   0.390   2.411   1.813  0.0474 -0.4060 -0.2998
  494SOL    HW1 1974   0.368   2.309   1.819  0.8003 -0.2777  0.3516
  494SOL    HW2 1975   0.441   2.419   1.734 -1.4773  0.1641 -2.0394
  494SOL     MW 1976   0.394   2.399   1.803 -0.0544 -0.3139 -0.4433
  495SOL     OW 1977   2.907   1.652   2.720 -0.1147  0.0154 -0.0362
  495SOL    HW1 1978   2.890   1.727   2.771 -1.4113  0.1314 -3.0483
  495SOL    HW2 1979   2.895   1.580   2.783  2.7118 -0.4305  0.3841
  495SOL     MW 1980   2.903   1.652   2.735  0.0872 -0.0282 -0.3781
  496SOL     OW 1981   2.766   2.267   2.699  0.7586  0.5714 -0.4478
  496SOL    HW1 1982   2.776   2.182   2.747 -0.7592  1.2702  1.8375
  496SOL    HW2 1983   2.856   2.310   2.694  2.8873 -1.0160 -2.4151
  496SOL     MW 1984   2.779   2.261   2.705  0.8392  0.4541 -0.4058
  497SOL     OW 1985   1.501   2.327   2.518 -0.1135 -0.2127 -0.3406
  497SOL    HW1 1986   1.507   2.254   2.448 -0.9890 -2.1719 -2.1461
  497SOL    HW2 1987   1.473   2.277   2.595 -3.7515 -1.0677  1.2561
  497SOL     MW 1988   1.498   2.311   2.519 -0.7090 -0.5840 -0.3681
  498SOL     OW 1989   1.547   2.782   2.267  0.4428 -0.6162 -0.1141
  498SOL    HW1 1990   1.565   2.700   2.219  2.0049 -0.5016  0.3833
  498SOL    HW2 1991   1.620   2.785   2.337  1.9262 -0.0183  0.0403
  498SOL     MW 1992   1.559   2.772   2.270  0.8446 -0.5222 -0.0281
  499SOL     OW 1993   0.923   0.149   0.024 -0.2679 -0.1842 -0.3925
  499SOL    HW1 1994   0.872   0.174   0.100  1.7190  3.7939 -0.8835
  499SOL    HW2 1995   0.904   0.057   0.016 -1.4806 -0.2424 -1.0854
  499SOL     MW 1996   0.914   0.140   0.033 -0.1658  0.3330 -0.5487
  500SOL     OW 1997   1.036   2.472   2.768 -0.1099 -0.4673 -0.2568
  500SOL    HW1 1998   1.085   2.461   2.853  0.1380  1.2417  0.5915
  500SOL    HW2 1999   0.980   2.552   2.774 -1.6900 -1.6128 -0.0536
  500SOL     MW 2000   1.035   2.481   2.780 -0.2857 -0.3929 -0.1181
  501SOL     OW 2001   1.734   2.209   0.023  0.3458 -0.0138 -0.0645
  501SOL    HW1 2002   1.713   2.303   0.008  0.4401 -0.1397  1.1007
  501SOL    HW2 2003   1.831   2.207   0.019  0.3644  0.0846  0.5036
  501SOL     MW 2004   1.744   2.221   0.020  0.3607 -0.0174  0.1642
  502SOL     OW 2005   0.178   2.736   2.967 -0.0340  0.7042 -0.3632
  502SOL    HW1 2006   0.097   2.693   2.940 -1.4357  4.0375 -1.0948
  502SOL    HW2 2007   0.183   2.823   2.926  2.5367  1.2786  2.9966
  502SOL     MW 2008   0.168   2.742   2.958  0.1202  1.2198 -0.0164
  503SOL     OW 2009   1.148   2.606   2.097  0.3413  0.1062 -0.0711
  503SOL    HW1 2010   1.203   2.605   2.021 -3.8113 -0.5820 -2.2225
  503SOL    HW2 2011   1.066   2.621   2.050  0.1874 -1.1763 -1.0625
  503SOL     MW 2012   1.144   2.608   2.081 -0.2269 -0.1538 -0.4857
  504SOL     OW 2013   0.082   2.626   2.087 -0.4617  0.4187 -0.4820
  504SOL    HW1 2014   0.170   2.612   2.056  1.0182  2.1328  0.5453
  504SOL    HW2 2015   0.070   2.555   2.154  3.0303 -2.8375 -1.0452
  504SOL     MW 2016   0.092   2.615   2.092  0.1943  0.2153 -0.4208
  505SOL     OW 2017   1.633   2.664   2.703 -0.0543  0.0422  0.5272
  505SOL    HW1 2018   1.686   2.709   2.628  0.9348 -0.7954 -3.3563
  505SOL    HW2 2019   1.569   2.722   2.740 -0.2013 -1.5713 -3.0412
  505SOL     MW 2020   1.631   2.678   2.698  0.0568 -0.2812 -0.4560
  506SOL     OW 2021   1.600   0.035   2.830 -0.1304 -0.1678  1.1020
  506SOL    HW1 2022   1.611  -0.010   2.908  3.0548  2.7556 -1.0234
  506SOL    HW2 2023   1.663   0.003   2.764 -1.3728  0.2530 -0.8520
  506SOL     MW 2024   1.610   0.025   2.831  0.1259  0.2735  0.5638
  507SOL     OW 2025   0.880   2.689   2.848  0.1985 -0.1466  0.4547
  507SOL    HW1 2026   0.871   2.754   2.778  2.0092 -0.0912 -1.4441
  507SOL    HW2 2027   0.786   2.662   2.854  0.4266 -1.6359 -3.7565
  507SOL     MW 2028   0.866   2.694   2.839  0.4675 -0.3358 -0.3515
  508SOL     OW 2029   1.151   2.088   2.577  0.8430  0.5071 -0.3794
  508SOL    HW1 2030   1.217   2.097   2.648 -2.5248  0.8314 -1.4336
  508SOL    HW2 2031   1.083   2.159   2.593  0.4438  1.5727 -0.8033
  508SOL     MW 2032   1.151   2.098   2.589  0.3460  0.6905 -0.5744
  509SOL     OW 2033   0.599   2.569   2.830 -0.5086  0.1096 -0.2324
  509SOL    HW1 2034   0.584   2.543   2.738  1.1029 -1.3403 -1.6449
  509SOL    HW2 2035   0.525   2.631   2.844 -0.9504  3.4183  0.4196
  509SOL     MW 2036   0.587   2.574   2.820 -0.3543  0.3548 -0.3327
  510SOL     OW 2037   1.500   2.590   1.676 -0.2652  0.0361  0.1717
  510SOL    HW1 2038   1.523   2.683   1.643  0.0135  2.4028 -1.9455
  510SOL    HW2 2039   1.444   2.604   1.752 -3.2418 -1.0813 -1.1125
  510SOL     MW 2040   1.496   2.604   1.682 -0.6212  0.2010 -0.2771
  511SOL     OW 2041   0.323   2.547   2.529 -0.1328  0.2400  0.0594
  511SOL    HW1 2042   0.412   2.504   2.545  1.3432  0.0868 -0.3586
  511SOL    HW2 2043   0.313   2.536   2.433  0.4123 -0.7379  0.9621
  511SOL     MW 2044   0.334   2.540   2.518  0.1339  0.0908  0.1234
  512SOL     OW 2045   1.037   2.006   2.863 -0.3792  0.2985  0.2229
  512SOL    HW1 2046   0.961   2.036   2.912  1.2726 -0.4193  2.4750
  512SOL    HW2 2047   1.067   1.920   2.896  0.6798  1.5521 -0.1553
  512SOL     MW 2048   1.031   1.999   2.873 -0.0215  0.3692  0.4702
  513SOL     OW 2049   1.619   2.530   2.170  1.2178 -0.1118  0.5562
  513SOL    HW1 2050   1.708   2.537   2.122 -1.2540 -0.6756  3.3211
  513SOL    HW2 2051   1.642   2.480   2.248  0.4684  0.1996 -2.7443
  513SOL     MW 2052   1.634   2.524   2.174  0.7928 -0.1451  0.4856
  514SOL     OW 2053   0.164   2.358   2.655  0.0788 -0.0748  0.1617
  514SOL    HW1 2054   0.199   2.447   2.631  1.8334  0.4338  0.5167
  514SOL    HW2 2055   0.200   2.342   2.741  0.0957 -4.4107 -0.8229
  514SOL     MW 2056   0.173   2.368   2.663  0.3126 -0.5798  0.0787
  515SOL     OW 2057   1.081   1.933   1.853 -0.6523  0.6621  0.4421
  515SOL    HW1 2058   1.038   2.019   1.837 -0.0313 -3.5126 -0.6756
  515SOL    HW2 2059   1.143   1.951   1.923  2.0076  1.0158  1.7867
  515SOL     MW 2060   1.083   1.947   1.860 -0.2194  0.1579  0.4721
  516SOL     OW 2061   1.380   2.543   2.940  0.8667  0.0243  0.0097
  516SOL    HW1 2062   1.392   2.535   2.844 -0.8141 -1.7817 -1.3777
  516SOL    HW2 2063   1.295   2.501   2.956 -0.5809 -1.9700 -0.2153
  516SOL     MW 2064   1.370   2.536   2.930  0.4539 -0.4771 -0.2030
  517SOL     OW 2065   0.613   2.358   2.291  0.1696 -0.0811 -0.5222
  517SOL    HW1 2066   0.548   2.432   2.299 -2.4274 -1.2232 -0.7960
  517SOL    HW2 2067   0.570   2.296   2.233 -3.8633 -1.7286  3.3740
  517SOL     MW 2068   0.598   2.359   2.284 -0.7052 -0.4491 -0.0442
  518SOL     OW 2069   1.787   0.030   3.077 -0.1335 -0.3138 -0.2563
  518SOL    HW1 2070   1.773   0.109   3.134 -1.8473  1.4587 -1.9961
  518SOL    HW2 2071   1.751  -0.056   3.102  1.6869 -1.1021 -1.0291
  518SOL     MW 2072   1.780   0.029   3.088 -0.1195 -0.1840 -0.5878
  519SOL     OW 2073   0.737   2.506   1.783 -0.4109  0.4058 -0.5323
  519SOL    HW1 2074   0.738   2.414   1.753  0.3512 -2.9462  1.2999
  519SOL    HW2 2075   0.644   2.530   1.796 -1.6272  0.3278  0.4075
  519SOL     MW 2076   0.724   2.497   1.781 -0.4709 -0.0468 -0.1665
  520SOL     OW 2077   1.219   2.191   2.940 -0.2236  0.4944  0.3016
  520SOL    HW1 2078   1.140   2.130   2.923 -1.0686  1.1323  0.8235
  520SOL    HW2 2079   1.257   2.151   3.022 -1.6705  0.9292  0.2372
  520SOL     MW 2080   1.214   2.177   2.949 -0.5260  0.6359  0.3620
  521SOL     OW 2081   1.778   2.079   2.220 -0.4868 -0.7540 -0.7599
  521SOL    HW1 2082   1.771   2.066   2.126  0.1322 -0.6446 -0.2992
  521SOL    HW2 2083   1.767   1.985   2.242 -1.0731  1.0634 -1.2147
  521SOL     MW 2084   1.776   2.065   2.210 -0.4825 -0.4997 -0.7592
  522SOL     OW 2085   2.895   2.533   2.253  0.2197 -0.1909  0.5293
  522SOL    HW1 2086   2.978   2.489   2.289  0.8918 -0.8356  1.7593
  522SOL    HW2 2087   2.908   2.632   2.264  0.9236 -1.8626 -1.1222
  522SOL     MW 2088   2.908   2.540   2.259  0.4013 -0.4965  0.4737
  523SOL     OW 2089   0.857   1.515   2.148  0.7727 -0.3227  0.0730
  523SOL    HW1 2090   0.816   1.564   2.079 -0.4368  0.8826  0.7987
  523SOL    HW2 2091   0.939   1.477   2.113  0.0281 -1.4337 -0.3815
  523SOL     MW 2092   0.862   1.516   2.134  0.5149 -0.3102  0.1088
  524SOL     OW 2093   0.581   2.337   2.974 -0.0080 -0.0871 -0.0154
  524SOL    HW1 2094   0.586   2.412   2.914  1.5830  2.4276  1.2489
  524SOL    HW2 2095   0.653   2.267   2.955 -1.8542 -2.7977 -1.4684
  524SOL     MW 2096   0.591   2.338   2.963 -0.0417 -0.1129 -0.0403
  525SOL     OW 2097   0.476   2.205   2.130  0.5734 -0.2335 -0.0234
  525SOL    HW1 2098   0.459   2.123   2.169  1.1064 -2.7095 -1.4390
  525SOL    HW2 2099   0.547   2.191   2.063 -1.1526 -0.8990  0.7245
  525SOL     MW 2100   0.483   2.192   2.126  0.4160 -0.6480 -0.1115
  526SOL     OW 2101   0.697   2.154   1.972 -0.3317 -0.3107 -0.0649
  526SOL    HW1 2102   0.723   2.188   1.893 -1.7668 -0.8427  1.2693
  526SOL    HW2 2103   0.766   2.173   2.040 -3.7976 -1.2427 -0.7595
  526SOL     MW 2104   0.709   2.161   1.970 -0.9783 -0.5039  0.0195
  527SOL     OW 2105   1.289   1.910   2.056  0.3798  0.4451 -0.0539
  527SOL    HW1 2106   1.237   1.870   2.125  2.2038  2.2232  0.4174
  527SOL    HW2 2107   1.302   1.838   2.000 -0.1736  1.0788  2.2616
  527SOL     MW 2108   1.284   1.896   2.058  0.5474  0.7633  0.3138
  528SOL     OW 2109   0.666   2.916   2.928 -0.3358 -0.0162 -0.4885
  528SOL    HW1 2110   0.649   3.011   2.919  1.2650  0.5910  1.4804
  528SOL    HW2 2111   0.615   2.874   2.859  0.0044 -2.2003 -1.9233
  528SOL     MW 2112   0.657   2.923   2.918 -0.0797 -0.2243 -0.4180
  529SOL     OW 2113   1.004   2.227   1.858 -0.2742  0.0612  1.0035
  529SOL    HW1 2114   1.051   2.228   1.944 -2.7035  1.9386  2.6846
  529SOL    HW2 2115   1.037   2.307   1.813 -2.8494 -0.4371 -0.1946
  529SOL     MW 2116   1.015   2.238   1.863 -0.9345  0.2432  1.0672
  530SOL     OW 2117   1.122   2.426   3.009 -0.4164  0.1215  0.5073
  530SOL    HW1 2118   1.099   2.412   3.095  3.2328  0.3014  0.0085
  530SOL    HW2 2119   1.175   2.348   2.986 -1.2105  2.4824 -0.8679
  530SOL     MW 2120   1.126   2.414   3.017 -0.0397  0.4567  0.2601
  531SOL     OW 2121   0.915   1.856   2.653 -0.3942  0.0825 -0.4431
  531SOL    HW1 2122   0.945   1.926   2.709 -2.1573 -0.8599  0.1271
  531SOL    HW2 2123   0.887   1.798   2.719 -0.4192  1.6315  2.1425
  531SOL     MW 2124   0.915   1.858   2.669 -0.6301  0.1626 -0.0267
  532SOL     OW 2125   1.695   0.285   2.839  0.0447 -0.2757 -0.1894
  532SOL    HW1 2126   1.682   0.185   2.852  1.7037 -1.8922 -1.0456
  532SOL    HW2 2127   1.770   0.310   2.894  1.7131  0.0945 -2.5372
  532SOL     MW 2128   1.703   0.275   2.848  0.4837 -0.4401 -0.6121
  533SOL     OW 2129   1.766   2.703   2.975 -0.0977 -0.2507 -0.1908
  533SOL    HW1 2130   1.746   2.630   3.041  1.4292 -0.9007  3.0815
  533SOL    HW2 2131   1.712   2.673   2.897 -0.3797 -1.2487 -1.3951
  533SOL     MW 2132   1.756   2.690   2.973  0.0666 -0.4681  0.0821
  534SOL     OW 2133   1.725   2.459   2.437  0.0832 -0.0547 -0.4879
  534SOL    HW1 2134   1.646   2.413   2.458 -0.3931  0.9379 -0.3571
  534SOL    HW2 2135   1.785   2.461   2.514  0.3939 -0.3063 -2.0834
  534SOL     MW 2136   1.722   2.453   2.450  0.0613  0.0430 -0.6812
  535SOL     OW 2137   1.845   2.330   1.918  0.2511 -0.1101  0.1603
  535SOL    HW1 2138   1.807   2.369   1.838 -1.6352 -1.8823  3.2048
  535SOL    HW2 2139   1.937   2.320   1.893  1.3868  2.4097 -0.1234
  535SOL     MW 2140   1.852   2.334   1.904  0.1521 -0.0115  0.5245
  536SOL     OW 2141   0.457   1.818   2.019  0.0851 -0.3381 -0.0464
  536SOL    HW1 2142   0.466   1.773   1.936 -3.4054 -3.8368 -0.0790
  536SOL    HW2 2143   0.545   1.851   2.047  1.0814  0.2506  1.2546
  536SOL     MW 2144   0.470   1.817   2.011 -0.2439 -0.7220  0.1210
  537SOL     OW 2145   1.070   0.217   2.917 -0.3789 -0.3362 -0.0996
  537SOL    HW1 2146   1.009   0.206   2.994 -0.3742  0.2017 -1.7609
  537SOL    HW2 2147   1.102   0.311   2.922  2.2641  2.2420 -2.2622
  537SOL     MW 2148   1.066   0.228   2.928 -0.0296  0.0750 -0.6042
  538SOL     OW 2149   1.291   0.041   2.975  0.3832 -0.5221 -0.0503
  538SOL    HW1 2150   1.223   0.113   2.954  0.7072  0.3170 -1.0623
  538SOL    HW2 2151   1.367   0.060   2.924 -1.3387 -1.9777  0.3057
  538SOL     MW 2152   1.292   0.053   2.965  0.1987 -0.6034 -0.1369
  539SOL     OW 2153   0.753   2.671   2.503  0.2966  0.3362 -0.2984
  539SOL    HW1 2154   0.816   2.725   2.542  0.6732 -2.7394  0.4594
  539SOL    HW2 2155   0.801   2.592   2.507 -1.3915 -0.3136 -1.8947
  539SOL     MW 2156   0.768   2.667   2.509  0.1235 -0.1553 -0.4090
  540SOL     OW 2157   0.327   2.264   2.874  0.2737  0.4563 -0.2239
  540SOL    HW1 2158   0.415   2.284   2.896  0.5500 -2.9421 -2.1317
  540SOL    HW2 2159   0.310   2.222   2.956  1.9884 -0.7080 -0.1358
  540SOL     MW 2160   0.337   2.261   2.887  0.5364 -0.1457 -0.4640
  541SOL     OW 2161   0.153   2.861   2.217  0.2097  0.2280 -0.0857
  541SOL    HW1 2162   0.123   2.777   2.180 -0.3331 -0.3027  0.5894
  541SOL    HW2 2163   0.213   2.839   2.291  0.4698  2.1906  1.2713
  541SOL     MW 2164   0.157   2.847   2.222  0.1724  0.4170  0.1824
  542SOL     OW 2165   0.936   2.243   2.674  0.5159 -0.5359 -0.3218
  542SOL    HW1 2166   0.898   2.196   2.756 -0.9603  0.5201  2.4397
  542SOL    HW2 2167   0.973   2.326   2.714  0.1013  1.5739 -1.2077
  542SOL     MW 2168   0.936   2.247   2.690  0.2664 -0.1182 -0.0743
  543SOL     OW 2169   1.382   2.544   2.657  0.6714 -0.3481  0.2576
  543SOL    HW1 2170   1.406   2.460   2.609 -0.2055 -1.2713  1.5374
  543SOL    HW2 2171   1.464   2.591   2.642  1.0066  0.6505 -0.0508
  543SOL     MW 2172   1.396   2.539   2.649  0.5999 -0.3381  0.3858
  544SOL     OW 2173   0.613   0.202   2.727 -0.5508  0.5601 -0.0814
  544SOL    HW1 2174   0.525   0.173   2.700 -4.6691 -0.8755 -0.9979
  544SOL    HW2 2175   0.678   0.187   2.657 -0.6297  0.3938  0.5281
  544SOL     MW 2176   0.610   0.196   2.714 -1.1046  0.3487 -0.1219
  545SOL     OW 2177   1.528   2.143   2.308 -0.7036 -0.0681 -0.2875
  545SOL    HW1 2178   1.478   2.122   2.232  3.7025  1.1980 -2.2517
  545SOL    HW2 2179   1.621   2.124   2.283 -2.1527 -3.7455 -1.5971
  545SOL     MW 2180   1.534   2.137   2.295 -0.3134 -0.3863 -0.7194
  546SOL     OW 2181   3.004   1.992   0.111 -0.0580  0.2433 -0.0026
  546SOL    HW1 2182   2.979   2.069   0.067 -0.0913 -1.9163  0.8793
  546SOL    HW2 2183   3.098   1.987   0.103 -1.0399  0.6794 -0.7181
  546SOL     MW 2184   3.013   2.001   0.104 -0.1920  0.0159  0.0193
  547SOL     OW 2185   0.190   3.011   0.119  0.2636 -0.2274 -0.2331
  547SOL    HW1 2186   0.266   3.051   0.073  3.3135 -1.9069 -0.3614
  547SOL    HW2 2187   0.209   2.914   0.119  0.3815 -1.5620 -1.8857
  547SOL     MW 2188   0.203   3.003   0.113  0.6815 -0.6251 -0.4681
  548SOL     OW 2189   0.311   2.520   0.266  0.5413  0.8301 -0.3353
  548SOL    HW1 2190   0.306   2.601   0.211  0.7089 -0.4585 -2.6553
  548SOL    HW2 2191   0.235   2.469   0.226 -0.0496  0.7543 -0.2119
  548SOL     MW 2192   0.300   2.524   0.254  0.4855  0.6501 -0.6251
  549SOL     OW 2193   0.698   1.907   2.078  0.1806  0.0129 -0.6639
  549SOL    HW1 2194   0.687   1.986   2.029 -0.9781 -0.4261 -1.0909
  549SOL    HW2 2195   0.742   1.940   2.153 -0.9534  1.7486  0.8810
  549SOL     MW 2196   0.702   1.922   2.082 -0.1219  0.1840 -0.5164
  550SOL     OW 2197   1.831   1.755   2.580  0.3067 -0.0495 -0.6336
  550SOL    HW1 2198   1.827   1.779   2.486  2.0616  1.5308  0.1461
  550SOL    HW2 2199   1.823   1.835   2.637 -0.4424 -0.7846 -0.0172
  550SOL     MW 2200   1.829   1.769   2.575  0.4394  0.0620 -0.4494
  551SOL     OW 2201   0.863   2.347   0.207  0.2029  0.2925  0.0722
  551SOL    HW1 2202   0.960   2.372   0.201  1.3420  2.4879 -2.7190
  551SOL    HW2 2203   0.853   2.251   0.189 -0.8879 -0.9051 -0.0895
  551SOL     MW 2204   0.875   2.338   0.204  0.2093  0.4241 -0.3174
  552SOL     OW 2205   1.771   1.815   2.281  0.5030 -0.1164 -0.3024
  552SOL    HW1 2206   1.680   1.781   2.283 -1.5545  0.4096  1.0907
  552SOL    HW2 2207   1.824   1.758   2.221 -3.6226  1.4675  2.8810
  552SOL     MW 2208   1.766   1.803   2.273 -0.3128  0.1620  0.3014
  553SOL     OW 2209   1.246   2.320   1.526  0.5492 -0.0312  0.0081
  553SOL    HW1 2210   1.275   2.230   1.520  2.3760  3.4928 -1.3288
  553SOL    HW2 2211   1.313   2.374   1.490  0.8696 -0.5673  1.1747
  553SOL     MW 2212   1.259   2.316   1.520  0.8325  0.3630 -0.0144
  554SOL     OW 2213   0.574   2.857   2.659  0.4102  0.1357 -0.0412
  554SOL    HW1 2214   0.532   2.930   2.615 -2.9921  1.0260  1.0265
  554SOL    HW2 2215   0.620   2.811   2.592  1.3637 -0.1905 -2.9750
  554SOL     MW 2216   0.574   2.861   2.644  0.0871  0.2101 -0.2874
  555SOL     OW 2217   0.576   2.436   2.584  0.0108  0.2516  0.1136
  555SOL    HW1 2218   0.542   2.347   2.576 -0.6501  3.7059  1.5323
  555SOL    HW2 2219   0.652   2.455   2.518  0.9436  3.2889 -0.3959
  555SOL     MW 2220   0.582   2.426   2.575  0.0467  1.1081  0.2336
  556SOL     OW 2221   0.974   1.805   0.156 -0.4152 -0.2404  0.5870
  556SOL    HW1 2222   0.999   1.801   0.064  0.1923  2.6594  1.2887
  556SOL    HW2 2223   1.061   1.826   0.198 -0.7542 -0.3753  0.9886
  556SOL     MW 2224   0.989   1.807   0.149 -0.3798  0.1244  0.7326
  557SOL     OW 2225   0.891   2.701   0.459 -0.3089  0.5188  0.5407
  557SOL    HW1 2226   0.945   2.691   0.381 -0.9026  1.3824 -1.4428
  557SOL    HW2 2227   0.860   2.787   0.461  1.7133 -0.1418 -1.7913
  557SOL     MW 2228   0.894   2.711   0.449 -0.1204  0.5456 -0.0287
  558SOL     OW 2229   0.267   2.180   0.041 -0.0506 -0.4904  0.8118
  558SOL    HW1 2230   0.226   2.089   0.036 -2.7000  0.0011  0.6249
  558SOL    HW2 2231   0.217   2.250   0.090  1.3210  2.0936  0.6930
  558SOL     MW 2232   0.255   2.177   0.047 -0.2192 -0.0846  0.7715
  559SOL     OW 2233   1.187   2.317   2.115 -0.1863 -0.6404  0.1609
  559SOL    HW1 2234   1.178   2.407   2.140  1.4745  0.1470  2.7932
  559SOL    HW2 2235   1.180   2.265   2.190  0.5878  2.2622  1.3875
  559SOL     MW 2236   1.185   2.322   2.128  0.1350 -0.1536  0.6701
  560SOL     OW 2237   1.985   2.789   0.048 -0.2925  0.0623  0.1897
  560SOL    HW1 2238   2.029   2.858   0.007 -2.0151 -1.8478 -0.2856
  560SOL    HW2 2239   1.910   2.767  -0.010 -1.2888  0.1477  0.2575
  560SOL     MW 2240   1.981   2.795   0.035 -0.6513 -0.1785  0.1359
  561SOL     OW 2241   0.446   2.089   0.226  0.3421 -0.0955  0.3656
  561SOL    HW1 2242   0.374   2.123   0.165 -2.2587  0.4208 -2.4925
  561SOL    HW2 2243   0.476   2.169   0.263 -0.2909  2.4970  0.1348
  561SOL     MW 2244   0.441   2.104   0.223 -0.0846  0.3147 -0.0419
  562SOL     OW 2245   0.901   2.187   2.171 -0.0981  0.5510  0.2372
  562SOL    HW1 2246   0.910   2.278   2.150  1.7366 -0.1779 -1.5364
  562SOL    HW2 2247   0.982   2.154   2.215 -3.5195  0.3079  0.1097
  562SOL     MW 2248   0.913   2.195   2.174 -0.3074  0.4228 -0.0136
  563SOL     OW 2249   1.212   0.292   0.575 -0.5875  0.3190  0.1203
  563SOL    HW1 2250   1.138   0.289   0.511 -3.3904  0.7941  0.9546
  563SOL    HW2 2251   1.232   0.196   0.577  0.6579 -0.8039 -0.2321
  563SOL     MW 2252   1.205   0.279   0.567 -0.7930  0.2335  0.1839
  564SOL     OW 2253   1.097   2.556   2.373  0.2743 -0.2706 -0.3261
  564SOL    HW1 2254   1.129   2.596   2.288  1.4406  1.8806  0.5924
  564SOL    HW2 2255   1.150   2.612   2.435  0.2254  1.2574 -0.4263
  564SOL     MW 2256   1.108   2.569   2.370  0.4217  0.2148 -0.2181
  565SOL     OW 2257   2.880   2.688   2.568 -1.0333 -0.1554 -0.0017
  565SOL    HW1 2258   2.956   2.724   2.520 -1.5658 -0.9860 -0.6695
  565SOL    HW2 2259   2.812   2.670   2.513  2.6955  1.6644  1.1258
  565SOL     MW 2260   2.881   2.690   2.555 -0.6116 -0.0249  0.0589
  566SOL     OW 2261   2.260   1.896   2.371 -0.0008 -0.4698  0.1842
  566SOL    HW1 2262   2.261   1.917   2.275 -0.2197  1.7421  0.4108
  566SOL    HW2 2263   2.310   1.975   2.399 -0.1175  1.3128  1.8875
  566SOL     MW 2264   2.267   1.909   2.362 -0.0451  0.0572  0.4388
  567SOL     OW 2265   1.149   2.883   0.049 -0.4901  0.5424 -0.1368
  567SOL    HW1 2266   1.186   2.965   0.067 -1.3251 -0.5449  1.3495
  567SOL    HW2 2267   1.180   2.871  -0.042 -0.2103  0.3296  0.0995
  567SOL     MW 2268   1.158   2.893   0.039 -0.5634  0.3708  0.0904
  568SOL     OW 2269   1.647   2.085   2.892 -0.0605 -0.8489  0.9940
  568SOL    HW1 2270   1.680   2.150   2.956 -2.1843 -0.9050  1.3361
  568SOL    HW2 2271   1.715   2.048   2.835 -1.5856 -1.2429 -2.2237
  568SOL     MW 2272   1.660   2.089   2.893 -0.5419 -0.9083  0.6146
  569SOL     OW 2273   0.221   2.190   2.431  0.1195  0.4443  0.2539
  569SOL    HW1 2274   0.170   2.237   2.360 -0.3241  1.0904 -0.6847
  569SOL    HW2 2275   0.217   2.248   2.504  0.4878 -1.9973 -0.7414
  569SOL     MW 2276   0.214   2.204   2.431  0.1095  0.2074 -0.0012
  570SOL     OW 2277   1.458   0.433   0.520  0.3851  0.7006 -0.3314
  570SOL    HW1 2278   1.370   0.435   0.552  2.0776  2.2873 -1.2206
  570SOL    HW2 2279   1.515   0.463   0.598  0.6052  0.2986  1.3189
  570SOL     MW 2280   1.454   0.437   0.534  0.6374  0.8569 -0.2310
  571SOL     OW 2281   1.485   2.392   1.952  0.0751 -0.1667  0.6102
  571SOL    HW1 2282   1.559   2.411   2.013 -2.2812  2.3297  1.2901
  571SOL    HW2 2283   1.447   2.311   1.990  0.5522 -0.5796  1.6760
  571SOL     MW 2284   1.489   2.384   1.965 -0.1728  0.1082  0.8405
  572SOL     OW 2285   0.935   2.675   0.079 -0.3747  0.4971  0.2903
  572SOL    HW1 2286   0.973   2.695  -0.008  1.1958  0.3882  0.5994
  572SOL    HW2 2287   0.861   2.622   0.053  3.1369 -0.0792 -0.7904
  572SOL     MW 2288   0.930   2.671   0.064  0.2958  0.4067  0.1885
  573SOL     OW 2289   1.140   2.399   0.193  0.1101 -0.4833  0.6471
  573SOL    HW1 2290   1.231   2.390   0.190 -4.6509 -2.7092  3.1494
  573SOL    HW2 2291   1.126   2.484   0.238  1.2336  0.1102 -0.5673
  573SOL     MW 2292   1.150   2.409   0.199 -0.3699 -0.6987  0.8170
  574SOL     OW 2293   1.105   2.639   0.290 -0.6655 -0.5399 -0.0032
  574SOL    HW1 2294   1.199   2.666   0.292  2.2437  1.3141 -0.7405
  574SOL    HW2 2295   1.067   2.661   0.203  2.0516 -1.4990  1.2881
  574SOL     MW 2296   1.112   2.645   0.279  0.0769 -0.4218  0.0699
  575SOL     OW 2297   3.071   2.285   1.803  0.0008  0.5219 -0.3551
  575SOL    HW1 2298   3.080   2.195   1.764  0.0145  1.0790  1.1458
  575SOL    HW2 2299   3.140   2.348   1.771 -0.4893  0.9404 -1.0252
  575SOL     MW 2300   3.081   2.282   1.794 -0.0621  0.6506 -0.2454
  576SOL     OW 2301   2.831   1.825   2.051  0.2429  0.0166 -0.1306
  576SOL    HW1 2302   2.842   1.917   2.044  0.6733 -2.1017  0.6157
  576SOL    HW2 2303   2.750   1.790   2.011  1.0115 -3.7597  2.2862
  576SOL     MW 2304   2.821   1.833   2.044  0.4011 -0.7611  0.2867
  577SOL     OW 2305   2.085   0.317   0.051  0.3408  0.0369  0.3768
  577SOL    HW1 2306   2.026   0.323  -0.026  1.0990  1.5075  0.3540
  577SOL    HW2 2307   2.029   0.277   0.123  2.1807 -0.9223 -0.8640
  577SOL     MW 2308   2.070   0.313   0.050  0.6836  0.1043  0.2101
  578SOL     OW 2309   2.012   2.029   2.434 -0.7572 -0.1247  0.6015
  578SOL    HW1 2310   1.971   2.050   2.348  1.3464 -1.0038  2.1203
  578SOL    HW2 2311   2.083   1.964   2.415  0.0560  0.0113 -0.8166
  578SOL     MW 2312   2.016   2.023   2.420 -0.3724 -0.2228  0.6148
  579SOL     OW 2313   0.858   2.429   2.485  0.2660  0.3222  0.5965
  579SOL    HW1 2314   0.875   2.350   2.539  0.3576 -0.3995 -0.6686
  579SOL    HW2 2315   0.943   2.472   2.462  2.0950 -0.0293  2.0324
  579SOL     MW 2316   0.871   2.424   2.489  0.5194  0.1806  0.6190
  580SOL     OW 2317   0.862   2.974   0.024 -0.3505 -0.0042  0.7084
  580SOL    HW1 2318   0.941   2.911   0.035  3.2081 -2.9606 -1.0854
  580SOL    HW2 2319   0.806   2.940  -0.046 -0.0052 -0.8006  2.1136
  580SOL     MW 2320   0.865   2.961   0.016  0.1646 -0.4993  0.6571
  581SOL     OW 2321   1.060   2.439   1.713  0.3732 -0.1223  0.1169
  581SOL    HW1 2322   1.106   2.522   1.712  0.3594 -1.2201 -1.3212
  581SOL    HW2 2323   1.113   2.388   1.655  0.2746  1.7451  1.4513
  581SOL     MW 2324   1.073   2.443   1.705  0.3584 -0.0208  0.1032
  582SOL     OW 2325   3.091   2.817   2.489 -0.1280 -0.1501  0.5971
  582SOL    HW1 2326   3.081   2.903   2.540  2.0807  1.2935  2.2537
  582SOL    HW2 2327   3.191   2.815   2.478 -1.6321  0.4677 -3.2629
  582SOL     MW 2328   3.103   2.828   2.494 -0.0350  0.1219  0.3064
  583SOL     OW 2329   1.934   2.447   2.641  0.3652  0.0152 -0.0333
  583SOL    HW1 2330   2.020   2.479   2.616  0.3018  1.4554  3.9864
  583SOL    HW2 2331   1.954   2.353   2.664  0.8796 -2.7456 -2.2622
  583SOL     MW 2332   1.948   2.439   2.641  0.4247 -0.1590  0.2030
  584SOL     OW 2333   0.204   1.901   2.079  0.1682  0.0277 -0.6731
  584SOL    HW1 2334   0.292   1.868   2.072  0.9628 -1.6050  1.5598
  584SOL    HW2 2335   0.211   1.955   2.157 -1.3811 -0.5355  2.5540
  584SOL     MW 2336   0.216   1.904   2.088  0.0686 -0.2620  0.0473
  585SOL     OW 2337   1.492   2.664   0.076  0.5216  0.3090 -0.3960
  585SOL    HW1 2338   1.460   2.662  -0.012 -1.4384 -1.6582 -1.6070
  585SOL    HW2 2339   1.425   2.702   0.131 -1.6913  3.2810  0.6050
  585SOL     MW 2340   1.479   2.669   0.071 -0.0289  0.4416 -0.4237
  586SOL     OW 2341   1.318   2.867   2.386  1.2750 -0.9839 -0.5103
  586SOL    HW1 2342   1.399   2.842   2.342 -0.1318 -2.5309  0.1686
  586SOL    HW2 2343   1.332   2.942   2.448  1.7809  2.9255 -0.1446
  586SOL     MW 2344   1.331   2.874   2.389  1.1561 -0.6722 -0.3725
  587SOL     OW 2345   1.271   1.602   2.113  0.2645 -0.8700  0.3119
  587SOL    HW1 2346   1.274   1.532   2.182 -0.1520 -2.0640 -0.5283
  587SOL    HW2 2347   1.291   1.564   2.033 -0.4369  0.5952  0.5766
  587SOL     MW 2348   1.274   1.588   2.111  0.1170 -0.8342  0.2360
  588SOL     OW 2349   1.417   2.168   2.731 -0.0589  0.1471 -0.0824
  588SOL    HW1 2350   1.492   2.125   2.774  2.0591  1.2153 -1.4817
  588SOL    HW2 2351   1.348   2.170   2.800  0.2575 -0.0131 -2.4672
  588SOL     MW 2352   1.418   2.162   2.745  0.2623  0.2669 -0.5816
  589SOL     OW 2353   1.367   2.098   0.065  0.1284  0.1838 -0.2021
  589SOL    HW1 2354   1.414   2.182   0.084  0.1253 -0.2506 -2.0443
  589SOL    HW2 2355   1.325   2.073   0.146  1.7576  0.4229  0.0532
  589SOL     MW 2356   1.367   2.106   0.078  0.3429  0.1580 -0.4115
  590SOL     OW 2357   0.415   2.580   2.269  0.2363 -0.3378  0.4510
  590SOL    HW1 2358   0.411   2.562   2.173 -1.2845  0.3796 -0.2744
  590SOL    HW2 2359   0.486   2.646   2.277 -0.0989 -1.1638  2.3683
  590SOL     MW 2360   0.424   2.587   2.257 -0.0086 -0.3522  0.6083
  591SOL     OW 2361   2.291   0.705   0.026  0.0920 -0.2280 -0.0395
  591SOL    HW1 2362   2.214   0.753  -0.012 -0.3749 -0.4478  0.2014
  591SOL    HW2 2363   2.359   0.714  -0.040 -1.7919 -1.0637  2.0356
  591SOL     MW 2364   2.290   0.712   0.012 -0.2182 -0.3673  0.2661
  592SOL     OW 2365   1.877   3.037   0.801  0.0640 -0.2975 -0.4329
  592SOL    HW1 2366   1.873   3.098   0.726 -0.7698  0.5796 -0.4708
  592SOL    HW2 2367   1.914   2.958   0.757  1.5125  1.0594 -3.4212
  592SOL     MW 2368   1.881   3.035   0.785  0.1451 -0.0027 -0.8322
  593SOL     OW 2369   1.891   0.756   0.848 -0.2185  0.1608  0.0219
  593SOL    HW1 2370   1.815   0.735   0.793  0.4994 -0.0258  1.9929
  593SOL    HW2 2371   1.908   0.669   0.890 -0.5230 -0.2158  2.8199
  593SOL     MW 2372   1.883   0.742   0.847 -0.1639  0.0865  0.6511
  594SOL     OW 2373   2.733   1.128   1.397  0.3381 -0.0667 -0.4944
  594SOL    HW1 2374   2.825   1.160   1.411  1.4325 -0.0414 -4.1607
  594SOL    HW2 2375   2.736   1.086   1.314 -0.2044  0.0763  0.4194
  594SOL     MW 2376   2.746   1.127   1.388  0.4109 -0.0445 -0.8576
  595SOL     OW 2377   0.479   0.949   0.675  0.2433 -0.3861  0.4678
  595SOL    HW1 2378   0.482   1.015   0.606 -1.6609  0.4039 -0.2446
  595SOL    HW2 2379   0.496   1.000   0.757  2.3382  0.2731  0.1803
  595SOL     MW 2380   0.481   0.964   0.677  0.2684 -0.1949  0.3359
  596SOL     OW 2381   2.447   1.389   0.554  0.2793  0.4084 -0.3626
  596SOL    HW1 2382   2.478   1.463   0.507  0.7784 -3.3083 -0.8594
  596SOL    HW2 2383   2.507   1.380   0.627  0.0388  2.5631  0.7779
  596SOL     MW 2384   2.459   1.397   0.557  0.3134  0.2023 -0.2777
  597SOL     OW 2385   2.203   0.670   1.676  0.2558 -0.5772 -0.0922
  597SOL    HW1 2386   2.255   0.597   1.718 -0.6963  0.1775 -2.4888
  597SOL    HW2 2387   2.119   0.631   1.639 -0.2068 -0.6406 -1.0687
  597SOL     MW 2388   2.199   0.655   1.677  0.0692 -0.4860 -0.5373
  598SOL     OW 2389   2.624   1.007   2.850  0.8938 -0.3161 -1.0758
  598SOL    HW1 2390   2.655   0.967   2.768 -1.7717 -1.1216  2.4180
  598SOL    HW2 2391   2.686   1.071   2.891  0.5298 -0.8232  1.8401
  598SOL     MW 2392   2.636   1.010   2.844  0.4941 -0.4893 -0.2301
  599SOL     OW 2393   2.916   0.334   2.081  0.4377  0.1248  0.2697
  599SOL    HW1 2394   2.869   0.367   2.165  1.4049 -1.4000 -0.0893
  599SOL    HW2 2395   2.955   0.414   2.037  0.2687  1.5759  0.5584
  599SOL     MW 2396   2.915   0.349   2.087  0.5430  0.1151  0.2604
  600SOL     OW 2397   1.896   1.720   0.883  0.0081  0.4159 -0.0070
  600SOL    HW1 2398   1.938   1.759   0.960  2.8662  1.2287 -0.3537
  600SOL    HW2 2399   1.815   1.772   0.877 -0.4290 -0.0632  0.1696
  600SOL     MW 2400   1.891   1.732   0.892  0.3275  0.4599 -0.0294
  601SOL     OW 2401   2.502   0.807   0.813 -0.1657 -0.0469 -0.3391
  601SOL    HW1 2402   2.516   0.831   0.906 -1.6854  1.0978 -1.3487
  601SOL    HW2 2403   2.439   0.729   0.815 -0.8050 -0.3411  1.8702
  601SOL     MW 2404   2.496   0.800   0.826 -0.4505  0.0653 -0.1808
  602SOL     OW 2405   2.333   1.953   0.790  0.1276  0.6235  0.7518
  602SOL    HW1 2406   2.283   1.886   0.846  0.1258 -1.3824  0.3515
  602SOL    HW2 2407   2.268   1.985   0.727  2.7059 -0.5027  1.3882
  602SOL     MW 2408   2.318   1.948   0.789  0.4676  0.2102  0.7829
  603SOL     OW 2409   3.079   1.386   1.789 -0.1296 -0.0263 -0.4093
  603SOL    HW1 2410   3.058   1.389   1.883  0.6816  2.6398  1.8219
  603SOL    HW2 2411   3.042   1.299   1.759  0.2565  1.0466 -1.0088
  603SOL     MW 2412   3.071   1.375   1.797  0.0284  0.4671 -0.1940
  604SOL     OW 2413   2.102   1.568   0.445 -0.0200  0.1458  0.3435
  604SOL    HW1 2414   2.087   1.485   0.487 -1.2818 -2.2685 -1.2232
  604SOL    HW2 2415   2.078   1.635   0.509  2.0700  0.2221 -0.3731
  604SOL     MW 2416   2.097   1.566   0.459  0.0893 -0.1627  0.0422
  605SOL     OW 2417   2.703   1.545   0.829 -0.6164 -0.0549  0.5079
  605SOL    HW1 2418   2.635   1.614   0.817 -2.5033 -3.1906 -2.3393
  605SOL    HW2 2419   2.659   1.470   0.858 -0.9548  1.2035 -0.6133
  605SOL     MW 2420   2.688   1.544   0.832 -0.9100 -0.3026 -0.0157
  606SOL     OW 2421   2.568   1.792   1.833 -0.0328  0.4382 -0.0530
  606SOL    HW1 2422   2.476   1.784   1.859  0.5642 -0.7016 -0.9117
  606SOL    HW2 2423   2.592   1.705   1.797  0.1576 -0.1571 -2.1645
  606SOL     MW 2424   2.559   1.779   1.832  0.0711  0.2093 -0.4449
  607SOL     OW 2425   2.366   1.010   2.967  0.5711 -0.1581  0.3031
  607SOL    HW1 2426   2.449   0.993   2.916 -1.7426  1.1572  1.3078
  607SOL    HW2 2427   2.386   0.996   3.059 -0.7929 -1.2633  2.7815
  607SOL     MW 2428   2.380   1.006   2.973  0.0859 -0.1304  0.7626
  608SOL     OW 2429   1.865   0.304   0.569  0.3690  0.2079  0.5898
  608SOL    HW1 2430   1.885   0.334   0.482 -1.1024  2.3247  0.5868
  608SOL    HW2 2431   1.810   0.221   0.548  2.1457  1.3022  0.0955
  608SOL     MW 2432   1.860   0.297   0.555  0.4093  0.6316  0.5242
  609SOL     OW 2433   2.132   1.962   3.067  0.2609  0.2635 -0.1170
  609SOL    HW1 2434   2.044   1.941   3.032  0.0772  0.1957 -0.1122
  609SOL    HW2 2435   2.138   1.935   3.162  0.3747 -0.7423 -1.1694
  609SOL     MW 2436   2.121   1.956   3.075  0.2517  0.1219 -0.2553
  610SOL     OW 2437   1.763   1.014   1.236 -0.4663 -0.1430 -0.0922
  610SOL    HW1 2438   1.784   0.930   1.191 -2.6782 -1.3375  0.3852
  610SOL    HW2 2439   1.674   1.016   1.259  0.6038  0.2445  0.9218
  610SOL     MW 2440   1.754   1.003   1.233 -0.6170 -0.2495  0.1046
  611SOL     OW 2441   2.455   1.679   0.737  0.4901  0.0529 -0.3976
  611SOL    HW1 2442   2.430   1.770   0.731  1.4895  2.0752  0.7209
  611SOL    HW2 2443   2.472   1.635   0.660 -0.5269  1.0180 -0.1531
  611SOL     MW 2444   2.454   1.686   0.726  0.4878  0.4471 -0.2178
  612SOL     OW 2445   2.781   2.836   0.434  0.1873 -0.3794 -0.5012
  612SOL    HW1 2446   2.807   2.886   0.514  0.7526 -1.4681 -0.1694
  612SOL    HW2 2447   2.868   2.820   0.395 -0.8436 -1.1263  0.1022
  612SOL     MW 2448   2.796   2.840   0.439  0.1259 -0.6216 -0.3778
  613SOL     OW 2449   1.502   1.024   0.983 -0.1649 -0.5107 -0.4810
  613SOL    HW1 2450   1.480   1.111   1.016 -1.3459  0.4851 -2.2107
  613SOL    HW2 2451   1.526   0.972   1.065 -1.0606 -1.8241  0.9281
  613SOL     MW 2452   1.502   1.029   0.998 -0.4389 -0.5526 -0.5233
  614SOL     OW 2453   1.983   0.561   1.547 -0.2705 -0.3084  0.0793
  614SOL    HW1 2454   2.000   0.481   1.597  2.0101 -1.6137  0.1575
  614SOL    HW2 2455   1.960   0.522   1.463 -1.0200 -0.7353 -0.9855
  614SOL     MW 2456   1.982   0.545   1.543 -0.0685 -0.5369 -0.0509
  615SOL     OW 2457   2.271   0.795   0.294  0.4333 -0.6241  0.4336
  615SOL    HW1 2458   2.339   0.748   0.340  0.8157 -0.7784 -2.6595
  615SOL    HW2 2459   2.288   0.769   0.205  3.3052  2.0959  0.1435
  615SOL     MW 2460   2.282   0.786   0.288  0.8627 -0.2856 -0.0128
  616SOL     OW 2461   2.559   0.365   1.603 -0.8144  0.3804 -0.1241
  616SOL    HW1 2462   2.510   0.307   1.541  0.9178  0.8258 -2.5244
  616SOL    HW2 2463   2.564   0.447   1.559  0.0598 -0.6104 -0.6831
  616SOL     MW 2464   2.553   0.368   1.589 -0.4705  0.3085 -0.5146
  617SOL     OW 2465   2.864   0.538   1.695  0.6303  0.5088  0.7872
  617SOL    HW1 2466   2.779   0.572   1.733 -0.2290 -0.0752 -0.2999
  617SOL    HW2 2467   2.855   0.442   1.709 -0.0907 -1.4999 -1.5511
  617SOL     MW 2468   2.851   0.530   1.702  0.4218  0.1667  0.3352
  618SOL     OW 2469   2.670   0.341   1.968 -0.7230 -0.3294  0.3140
  618SOL    HW1 2470   2.656   0.438   1.967  0.6223 -0.4215 -1.7188
  618SOL    HW2 2471   2.761   0.331   2.006  0.5946 -1.1331  1.7334
  618SOL     MW 2472   2.680   0.353   1.973 -0.3717 -0.4476  0.2331
  619SOL     OW 2473   2.639   0.727   0.147  0.3900 -0.0923  0.5842
  619SOL    HW1 2474   2.698   0.797   0.178 -0.2882  2.1883 -2.1240
  619SOL    HW2 2475   2.592   0.698   0.219  0.9562 -0.1525 -0.5910
  619SOL     MW 2476   2.641   0.732   0.160  0.3752  0.2006  0.0718
  620SOL     OW 2477   2.334   1.057   0.996 -0.0538 -0.2905 -0.1578
  620SOL    HW1 2478   2.396   1.090   0.934  1.7857  0.5996  4.0701
  620SOL    HW2 2479   2.317   0.966   0.978  1.6297  0.0800 -1.7164
  620SOL     MW 2480   2.340   1.049   0.985  0.4110 -0.1242  0.1944
  621SOL     OW 2481   1.470   2.132   1.990 -0.2151  0.3877  0.2202
  621SOL    HW1 2482   1.432   2.048   2.015 -2.4324 -2.7438  0.8953
  621SOL    HW2 2483   1.563   2.118   1.973  0.4770  1.3208 -0.9435
  621SOL     MW 2484   1.477   2.119   1.991 -0.4164  0.0976  0.1557
  622SOL     OW 2485   2.642   0.163   0.266 -0.7450 -0.5671  0.3013
  622SOL    HW1 2486   2.714   0.226   0.256 -1.0913 -0.3135  1.0053
  622SOL    HW2 2487   2.656   0.093   0.326  1.0606  1.6206 -0.2383
  622SOL     MW 2488   2.653   0.162   0.273 -0.5524 -0.2450  0.3230
  623SOL     OW 2489   2.309   2.729   0.900  0.1417  0.0070  0.0709
  623SOL    HW1 2490   2.382   2.796   0.894  2.0590  1.1975 -0.4980
  623SOL    HW2 2491   2.245   2.767   0.965 -0.4384  1.9542 -1.1744
  623SOL     MW 2492   2.310   2.743   0.908  0.3182  0.4210 -0.1684
  624SOL     OW 2493   2.215   1.673   2.993 -0.2267  0.3937 -0.0156
  624SOL    HW1 2494   2.152   1.607   3.024 -2.3821 -1.1709 -2.1919
  624SOL    HW2 2495   2.187   1.753   3.033 -3.8557 -3.4640 -0.1932
  624SOL     MW 2496   2.203   1.675   3.002 -0.9899 -0.3217 -0.3262
  625SOL     OW 2497   2.196   2.010   1.120  0.6840  0.6056  0.0487
  625SOL    HW1 2498   2.254   1.938   1.135 -2.3466  0.8115  0.3238
  625SOL    HW2 2499   2.251   2.066   1.061  2.5577  0.7166  0.1352
  625SOL     MW 2500   2.211   2.008   1.114  0.5313  0.6474  0.0964
  626SOL     OW 2501   0.203   1.637   2.340  1.1444 -0.0553  0.5834
  626SOL    HW1 2502   0.180   1.554   2.296 -1.1091 -1.8051 -1.2622
  626SOL    HW2 2503   0.140   1.634   2.409  2.5321 -1.8559  3.2835
  626SOL     MW 2504   0.192   1.626   2.343  1.0301 -0.5238  0.6962
  627SOL     OW 2505   2.498   0.824   2.631 -0.4288 -0.0345  0.2387
  627SOL    HW1 2506   2.438   0.897   2.605 -1.6773 -0.8443 -2.9432
  627SOL    HW2 2507   2.465   0.753   2.566 -1.8510 -2.5488  0.6647
  627SOL     MW 2508   2.486   0.824   2.619 -0.7812 -0.4731 -0.1249
  628SOL     OW 2509   2.242   1.368   1.358  0.0201 -0.1183  0.1842
  628SOL    HW1 2510   2.200   1.296   1.313 -0.9620 -2.0477 -2.0363
  628SOL    HW2 2511   2.335   1.354   1.358 -1.0851  0.4187 -1.1957
  628SOL     MW 2512   2.249   1.357   1.352 -0.2553 -0.3020 -0.2908
  629SOL     OW 2513   1.974   0.568   1.249 -0.7502  0.2065  0.0264
  629SOL    HW1 2514   2.014   0.649   1.217  1.3063  0.1169  0.9750
  629SOL    HW2 2515   1.881   0.582   1.263 -1.1472  0.1864  1.1763
  629SOL     MW 2516   1.967   0.580   1.247 -0.5312  0.1920  0.3033
  630SOL     OW 2517   2.474   1.838   3.058 -0.4237 -0.1637  0.3423
  630SOL    HW1 2518   2.452   1.918   3.016  0.6349 -0.5349  0.2525
  630SOL    HW2 2519   2.406   1.776   3.024 -2.3914 -2.7153 -1.6980
  630SOL     MW 2520   2.462   1.841   3.048 -0.5437 -0.5494  0.0612
  631SOL     OW 2521   1.989   1.833   1.582  0.0376 -0.1487 -0.5540
  631SOL    HW1 2522   2.013   1.745   1.610  0.0351 -0.3221 -0.1025
  631SOL    HW2 2523   1.933   1.826   1.504 -3.5798  0.4304  0.3344
  631SOL     MW 2524   1.985   1.821   1.575 -0.4400 -0.0952 -0.3772
  632SOL     OW 2525   0.087   2.075   1.484 -0.3897 -0.4589 -0.3740
  632SOL    HW1 2526   0.037   2.073   1.560  0.1605 -2.3114 -2.3846
  632SOL    HW2 2527   0.128   1.990   1.482 -3.5438  2.1114  1.5767
  632SOL     MW 2528   0.086   2.064   1.494 -0.7332 -0.3642 -0.3819
  633SOL     OW 2529   2.500   0.676   0.374  0.7495 -0.6803 -0.1880
  633SOL    HW1 2530   2.538   0.706   0.458  1.5377  1.7873 -1.4911
  633SOL    HW2 2531   2.512   0.583   0.370  0.6468  1.8891  0.5581
  633SOL     MW 2532   2.506   0.668   0.385  0.8399 -0.0157 -0.2615
  634SOL     OW 2533   2.647   3.052   0.679  0.6247 -0.6847 -0.4170
  634SOL    HW1 2534   2.688   3.142   0.683  0.5923  1.6061 -0.0396
  634SOL    HW2 2535   2.587   3.051   0.600  1.8119 -1.2433 -3.0482
  634SOL     MW 2536   2.645   3.064   0.669  0.7771 -0.4562 -0.7144
  635SOL     OW 2537   2.592   0.119   1.832 -0.3088 -0.5797 -0.4145
  635SOL    HW1 2538   2.650   0.067   1.767  2.7699 -0.8433 -0.3590
  635SOL    HW2 2539   2.635   0.207   1.849 -0.6141  0.0800  2.0838
  635SOL     MW 2540   2.605   0.124   1.826  0.0571 -0.5274 -0.0775
  636SOL     OW 2541   2.909   1.761   1.035  0.2903 -0.1737  1.0639
  636SOL    HW1 2542   2.842   1.816   1.079 -1.2014  0.3199  2.4154
  636SOL    HW2 2543   2.984   1.776   1.093 -0.4386  1.9847  0.5890
  636SOL     MW 2544   2.910   1.770   1.048 -0.0027  0.1762  1.1796
  637SOL     OW 2545   2.902   1.522   0.662  0.1123 -0.2153 -0.6286
  637SOL    HW1 2546   2.953   1.601   0.644 -2.0793 -0.1473 -0.2162
  637SOL    HW2 2547   2.827   1.548   0.716  1.1234 -1.3126 -0.9197
  637SOL     MW 2548   2.899   1.536   0.667 -0.0435 -0.3511 -0.6126
  638SOL     OW 2549   2.734   0.561   0.530  0.4205 -0.3520  0.3398
  638SOL    HW1 2550   2.825   0.581   0.500 -0.6121 -0.6580  2.6115
  638SOL    HW2 2551   2.723   0.603   0.619 -2.2956 -0.8217 -0.5912
  638SOL     MW 2552   2.745   0.570   0.538 -0.0741 -0.4543  0.5167
  639SOL     OW 2553   1.778   0.058   0.517  0.1052 -0.8342  0.4843
  639SOL    HW1 2554   1.690   0.087   0.536 -0.3063 -1.7608  0.2869
  639SOL    HW2 2555   1.768  -0.014   0.453 -1.3827  1.0399 -1.0002
  639SOL     MW 2556   1.765   0.052   0.511 -0.1454 -0.7092  0.2624
  640SOL     OW 2557   0.344   1.389   0.063 -0.1174  0.2951 -0.0737
  640SOL    HW1 2558   0.355   1.381  -0.032  2.1754  0.6367  1.2113
  640SOL    HW2 2559   0.320   1.297   0.071  2.6302 -2.0402 -3.8214
  640SOL     MW 2560   0.342   1.376   0.051  0.5476  0.0321 -0.3987
  641SOL     OW 2561   2.202   0.458   0.391  0.3896  0.2941 -0.0344
  641SOL    HW1 2562   2.232   0.433   0.307  0.0226 -0.3942  1.2990
  641SOL    HW2 2563   2.251   0.399   0.446 -1.6024 -3.2054 -0.2381
  641SOL     MW 2564   2.213   0.447   0.387  0.0783 -0.2585  0.1147
  642SOL     OW 2565   0.025   3.092   0.597 -0.5569 -0.3182  0.6321
  642SOL    HW1 2566  -0.013   3.158   0.537 -1.4256 -0.5678 -1.5059
  642SOL    HW2 2567  -0.040   3.028   0.615  0.5636 -0.7937 -1.5243
  642SOL     MW 2568   0.011   3.092   0.592 -0.5237 -0.4139  0.0655
  643SOL     OW 2569   2.080   0.350   1.705 -0.2344  0.5836 -0.1757
  643SOL    HW1 2570   2.086   0.293   1.782 -0.0958 -1.8819 -1.0912
  643SOL    HW2 2571   2.052   0.280   1.640  2.6100 -1.8562  1.7145
  643SOL     MW 2572   2.077   0.333   1.706  0.1592 -0.0636 -0.0471
  644SOL     OW 2573   2.718   1.954   1.063 -0.0435  0.5521 -0.2131
  644SOL    HW1 2574   2.665   1.885   1.110 -4.0036 -2.1851 -1.7924
  644SOL    HW2 2575   2.650   2.010   1.027 -0.4591  0.4834  1.1878
  644SOL     MW 2576   2.702   1.952   1.065 -0.6208  0.1819 -0.2366
  645SOL     OW 2577   2.834   0.884   0.675  0.1563  0.0839  0.1351
  645SOL    HW1 2578   2.920   0.853   0.696 -1.6547 -0.0176 -0.0055
  645SOL    HW2 2579   2.779   0.823   0.723 -0.4966  0.2911 -1.5445
  645SOL     MW 2580   2.838   0.872   0.684 -0.1688  0.0979 -0.1051
  646SOL     OW 2581   0.170   2.274   0.792 -0.8391  0.5989 -0.6829
  646SOL    HW1 2582   0.219   2.188   0.807  2.4090 -1.4933 -0.0036
  646SOL    HW2 2583   0.094   2.266   0.727  0.4486  0.4691  0.7452
  646SOL     MW 2584   0.167   2.262   0.786 -0.2407  0.3057 -0.4049
  647SOL     OW 2585   2.721   0.498   2.979  0.2995 -0.3265 -0.3520
  647SOL    HW1 2586   2.672   0.420   3.009  1.4511  0.7312 -1.1033
  647SOL    HW2 2587   2.670   0.579   3.014 -1.7898  1.3022  1.4391
  647SOL     MW 2588   2.708   0.499   2.987  0.1758  0.0280 -0.2148
  648SOL     OW 2589   2.136   0.752   1.113 -0.0101 -0.0445 -0.3915
  648SOL    HW1 2590   2.149   0.785   1.022  2.5417 -0.0388  0.6608
  648SOL    HW2 2591   2.151   0.825   1.173  0.7932  2.0608  1.6095
  648SOL     MW 2592   2.140   0.766   1.109  0.4326  0.2340  0.0114
  649SOL     OW 2593   2.350   2.776   1.292 -0.4123 -0.2375  0.5288
  649SOL    HW1 2594   2.428   2.833   1.288 -1.4945  0.3522  0.3718
  649SOL    HW2 2595   2.371   2.692   1.252  0.2161  0.7239  0.6757
  649SOL     MW 2596   2.363   2.773   1.286 -0.4722 -0.0329  0.5275
  650SOL     OW 2597   2.828   0.178   0.671  0.0855 -0.2445  0.0735
  650SOL    HW1 2598   2.836   0.266   0.704 -2.9189  0.3086  1.3208
  650SOL    HW2 2599   2.895   0.174   0.598 -0.0893  0.2405 -0.1022
  650SOL     MW 2600   2.838   0.189   0.666 -0.3340 -0.1075  0.2149
  651SOL     OW 2601   2.987   0.412   0.784  0.5641  0.2506 -0.4595
  651SOL    HW1 2602   3.070   0.424   0.741 -0.9473 -0.1988  1.2695
  651SOL    HW2 2603   3.001   0.475   0.854 -1.6116  0.9120 -1.8182
  651SOL     MW 2604   3.000   0.422   0.787  0.0776  0.2786 -0.4106
  652SOL     OW 2605   2.417   1.493   3.023  0.6015 -0.4068 -0.4765
  652SOL    HW1 2606   2.491   1.502   2.969  2.6600  1.0458  1.8991
  652SOL    HW2 2607   2.353   1.567   3.006  1.3060  0.0178 -1.0677
  652SOL     MW 2608   2.418   1.504   3.014  0.9661 -0.1591 -0.2411
  653SOL     OW 2609   1.923   0.445   0.335  0.4531  0.2630  0.0413
  653SOL    HW1 2610   1.905   0.373   0.273  0.2746  0.9409 -1.3356
  653SOL    HW2 2611   2.015   0.453   0.331  0.1948 -0.9191  3.9799
  653SOL     MW 2612   1.933   0.437   0.326  0.3955  0.1965  0.3793
  654SOL     OW 2613   2.461   1.064   0.706 -0.2324  0.0658 -0.0011
  654SOL    HW1 2614   2.368   1.060   0.682  0.2537 -2.1862  2.7985
  654SOL    HW2 2615   2.481   0.970   0.728  1.2946 -0.2752  1.6520
  654SOL     MW 2616   2.452   1.051   0.706  0.0332 -0.2763  0.5864
  655SOL     OW 2617   2.983   0.916   0.389 -0.0994 -0.4041  0.4670
  655SOL    HW1 2618   2.942   0.971   0.458 -1.9963  0.7132 -2.5825
  655SOL    HW2 2619   2.998   0.821   0.417  3.8806 -0.2454  0.0975
  655SOL     MW 2620   2.980   0.911   0.402  0.1755 -0.2358  0.0159
  656SOL     OW 2621   1.968   2.686   1.208 -0.4579  0.2550  0.3860
  656SOL    HW1 2622   1.938   2.758   1.269  0.7781  1.4658 -0.9563
  656SOL    HW2 2623   1.989   2.617   1.267 -0.2580 -1.0123  0.0967
  656SOL     MW 2624   1.967   2.686   1.224 -0.2684  0.2476  0.1707
  657SOL     OW 2625   0.188   1.581   1.277 -0.5405  0.1005  0.1516
  657SOL    HW1 2626   0.116   1.621   1.228  0.5090  0.3178  1.5060
  657SOL    HW2 2627   0.160   1.491   1.294  0.0194 -0.6131  0.1787
  657SOL     MW 2628   0.175   1.574   1.273 -0.3282  0.0350  0.3338
  658SOL     OW 2629   2.680   1.351   0.186 -0.0104 -0.4216 -0.4925
  658SOL    HW1 2630   2.628   1.291   0.247 -1.1561  3.6915  2.4861
  658SOL    HW2 2631   2.741   1.403   0.245  1.4535  1.2340  0.5837
  658SOL     MW 2632   2.681   1.349   0.202  0.0316  0.3395  0.0425
  659SOL     OW 2633   2.307   1.526   1.030  0.6051  0.0006  0.2835
  659SOL    HW1 2634   2.399   1.525   1.053 -3.7039 -2.4611 -5.1529
  659SOL    HW2 2635   2.264   1.549   1.114  1.9313 -0.9177 -0.3157
  659SOL     MW 2636   2.313   1.528   1.044  0.2115 -0.4454 -0.5128
  660SOL     OW 2637   2.029   1.566   1.690 -0.2594  0.1777 -0.1341
  660SOL    HW1 2638   2.041   1.580   1.789 -0.0645 -0.8066 -0.9549
  660SOL    HW2 2639   1.954   1.512   1.674  1.8965 -1.7298  0.9005
  660SOL     MW 2640   2.021   1.561   1.701  0.0508 -0.2038 -0.1059
  661SOL     OW 2641   2.364   1.033   0.224 -0.4348 -0.7998  0.1499
  661SOL    HW1 2642   2.430   1.092   0.274  2.9075 -1.0028 -0.3636
  661SOL    HW2 2643   2.361   0.952   0.279 -0.3196  1.4279  0.7829
  661SOL     MW 2644   2.372   1.030   0.238  0.0214 -0.5327  0.1657
  662SOL     OW 2645   2.517   2.922   0.892  0.0293  0.0568  0.0162
  662SOL    HW1 2646   2.476   2.991   0.941  2.4157 -1.0979 -0.2865
  662SOL    HW2 2647   2.557   2.964   0.816  0.4149 -1.0076 -0.8149
  662SOL     MW 2648   2.517   2.937   0.888  0.3950 -0.2360 -0.1334
  663SOL     OW 2649   2.850   1.493   0.357 -0.2099 -0.4711 -0.3340
  663SOL    HW1 2650   2.849   1.576   0.313  0.1773  2.0933  1.6112
  663SOL    HW2 2651   2.841   1.510   0.455  1.5054 -2.5415 -0.4177
  663SOL     MW 2652   2.849   1.506   0.364  0.0675 -0.4059 -0.0884
  664SOL     OW 2653   2.472   1.552   1.576  0.2545 -0.1213  0.1456
  664SOL    HW1 2654   2.465   1.649   1.570 -0.1539 -2.6833  1.5379
  664SOL    HW2 2655   2.381   1.524   1.568  0.0365  1.2491  2.3243
  664SOL     MW 2656   2.459   1.561   1.574  0.1719 -0.2785  0.6168
  665SOL     OW 2657   2.853   0.818   2.059  0.6391  0.5953 -0.6772
  665SOL    HW1 2658   2.828   0.865   1.977 -0.8522  2.2587  0.1371
  665SOL    HW2 2659   2.913   0.751   2.054 -0.8433  2.9779  1.6620
  665SOL     MW 2660   2.857   0.815   2.048  0.2467  1.1292 -0.2611
  666SOL     OW 2661   2.737   3.029   1.680 -0.3676 -0.3576  0.1022
  666SOL    HW1 2662   2.742   3.058   1.588 -0.8891 -1.6190 -1.9283
  666SOL    HW2 2663   2.696   2.938   1.683 -0.4792  0.2447 -2.3253
  666SOL     MW 2664   2.732   3.021   1.669 -0.4511 -0.4446 -0.4860
  667SOL     OW 2665   1.983   2.677   1.670 -0.3830 -0.2355 -0.0183
  667SOL    HW1 2666   1.994   2.590   1.712  1.3875  0.9591 -1.3017
  667SOL    HW2 2667   2.068   2.720   1.687 -0.5956 -1.4999  0.0582
  667SOL     MW 2668   1.995   2.671   1.678 -0.1774 -0.2447 -0.1775
  668SOL     OW 2669   2.729   0.630   0.794 -0.3088  0.1412 -0.3089
  668SOL    HW1 2670   2.806   0.642   0.856  1.3096  0.3694  2.2390
  668SOL    HW2 2671   2.660   0.684   0.835 -0.0531 -1.9862 -1.1381
  668SOL     MW 2672   2.730   0.639   0.807 -0.0615 -0.1094 -0.0821
  669SOL     OW 2673   0.178   0.947   0.660 -0.1907 -0.4374 -0.1221
  669SOL    HW1 2674   0.129   0.996   0.719  0.9101 -0.0435 -2.1851
  669SOL    HW2 2675   0.272   0.968   0.666  0.7589  3.9309  2.9521
  669SOL     MW 2676   0.184   0.956   0.669  0.0798  0.1909  0.0113
  670SOL     OW 2677   2.887   0.310   0.201  0.1216  0.2960 -0.0274
  670SOL    HW1 2678   2.905   0.230   0.140 -2.2571 -0.8109 -0.2817
  670SOL    HW2 2679   2.905   0.393   0.155  2.2269  0.2907 -1.0550
  670SOL     MW 2680   2.892   0.310   0.187  0.0855  0.1493 -0.1965
  671SOL     OW 2681   2.130   3.022   1.537 -0.4565 -0.5123 -0.5736
  671SOL    HW1 2682   2.065   2.996   1.480  2.8599 -1.4014 -0.8696
  671SOL    HW2 2683   2.088   3.089   1.583 -1.2984 -2.8078 -0.3704
  671SOL     MW 2684   2.116   3.027   1.535 -0.1300 -0.9325 -0.5858
  672SOL     OW 2685   1.845   1.685   1.313 -0.0617  0.2118 -0.1506
  672SOL    HW1 2686   1.773   1.729   1.362  1.6758 -0.9930  0.0705
  672SOL    HW2 2687   1.886   1.756   1.255  1.5650 -0.2833  0.1647
  672SOL     MW 2688   1.841   1.700   1.312  0.3821 -0.0125 -0.0798
  673SOL     OW 2689   2.785   1.097   0.510 -0.0997 -0.1482  0.5006
  673SOL    HW1 2690   2.788   1.029   0.578  0.5946 -1.6884  0.7822
  673SOL    HW2 2691   2.859   1.157   0.539 -0.7900  1.0538  1.0120
  673SOL     MW 2692   2.795   1.096   0.523 -0.0992 -0.1928  0.6052
  674SOL     OW 2693   2.510   0.106   1.211 -0.0461 -0.5135  0.3296
  674SOL    HW1 2694   2.473   0.111   1.120  0.9486 -2.7000 -1.8370
  674SOL    HW2 2695   2.514   0.013   1.226 -1.1274  1.7619 -1.5181
  674SOL     MW 2696   2.506   0.094   1.201 -0.0575 -0.5017 -0.2000
  675SOL     OW 2697   3.015   0.930   1.102 -0.0106 -0.3241 -0.0467
  675SOL    HW1 2698   3.064   0.916   1.180 -0.6276 -3.0545 -0.0978
  675SOL    HW2 2699   3.076   0.982   1.047 -0.1539  0.0286 -0.1927
  675SOL     MW 2700   3.030   0.935   1.105 -0.1109 -0.6378 -0.0727
  676SOL     OW 2701   2.887   1.501   1.648 -0.2107 -0.8406  0.7550
  676SOL    HW1 2702   2.853   1.416   1.639 -0.5458  2.8437  0.2851
  676SOL    HW2 2703   2.971   1.486   1.685 -2.4741  0.6614  2.5822
  676SOL     MW 2704   2.894   1.488   1.652 -0.5536 -0.1563  0.9341
  677SOL     OW 2705   2.443   0.715   1.937 -0.3649 -0.6046  0.2483
  677SOL    HW1 2706   2.413   0.654   1.876  0.3380  1.3406  2.4706
  677SOL    HW2 2707   2.375   0.760   1.982 -2.3588  0.0386  1.1326
  677SOL     MW 2708   2.430   0.713   1.935 -0.5352 -0.2631  0.6582
  678SOL     OW 2709   2.531   1.617   0.399  0.2908  0.1448  0.4874
  678SOL    HW1 2710   2.442   1.672   0.403  0.7160  0.8968  0.1219
  678SOL    HW2 2711   2.532   1.602   0.304 -1.3219 -0.6780 -1.3281
  678SOL     MW 2712   2.519   1.622   0.387  0.1341  0.1354  0.1996
  679SOL     OW 2713   2.302   0.512   1.170  0.2030  0.5919  0.3133
  679SOL    HW1 2714   2.259   0.424   1.187 -0.7686  0.4238  2.7016
  679SOL    HW2 2715   2.234   0.578   1.173  0.2279 -1.2437  1.7489
  679SOL     MW 2716   2.288   0.509   1.173  0.0781  0.3275  0.8178
  680SOL     OW 2717   2.374   0.242   1.400  0.0953 -0.2613  0.0798
  680SOL    HW1 2718   2.278   0.222   1.396 -5.2026  0.4131  3.0697
  680SOL    HW2 2719   2.422   0.184   1.332  1.3827 -0.2394  1.4045
  680SOL     MW 2720   2.368   0.232   1.391 -0.4338 -0.1694  0.6490
  681SOL     OW 2721   0.355   0.596   1.542  0.0801  0.2870 -0.1128
  681SOL    HW1 2722   0.330   0.535   1.613 -0.4628 -0.4386  2.1894
  681SOL    HW2 2723   0.454   0.593   1.555  0.2275 -0.3224 -1.3408
  681SOL     MW 2724   0.365   0.588   1.553  0.0280  0.1108  0.0289
  682SOL     OW 2725   0.137   2.948   1.461  0.3119 -0.0724 -0.1542
  682SOL    HW1 2726   0.128   3.043   1.441 -0.8697  3.4775  0.9392
  682SOL    HW2 2727   0.096   2.929   1.542 -2.7535 -0.0575 -0.9181
  682SOL     MW 2728   0.131   2.958   1.469 -0.2484  0.3979 -0.1107
  683SOL     OW 2729   2.071   0.873   3.037 -0.2750 -0.1505 -0.2806
  683SOL    HW1 2730   1.998   0.846   2.979  0.2555  1.7646 -0.3801
  683SOL    HW2 2731   2.039   0.957   3.066 -1.6072 -1.6573  1.7811
  683SOL     MW 2732   2.057   0.880   3.033 -0.3808 -0.0966 -0.0217
  684SOL     OW 2733   2.185   1.762   0.919 -0.4447 -0.4274  0.4861
  684SOL    HW1 2734   2.110   1.737   0.859 -1.9710  0.2090 -0.6888
  684SOL    HW2 2735   2.238   1.679   0.929  0.3744 -1.7424  2.3549
  684SOL     MW 2736   2.182   1.747   0.913 -0.5380 -0.5169  0.5777
  685SOL     OW 2737   2.639   1.745   1.237  0.6214  0.0915 -0.4251
  685SOL    HW1 2738   2.697   1.709   1.301 -1.3695 -1.3457  1.3831
  685SOL    HW2 2739   2.615   1.663   1.188  0.6349 -0.9326  1.0400
  685SOL     MW 2740   2.643   1.730   1.239  0.3605 -0.2332  0.0068
  686SOL     OW 2741   2.877   0.711   1.464  0.2496 -0.2242  0.3038
  686SOL    HW1 2742   2.918   0.639   1.517  2.6912  0.0640 -0.6190
  686SOL    HW2 2743   2.941   0.715   1.390  2.2285  2.3919 -0.7212
  686SOL     MW 2744   2.890   0.702   1.461  0.8329  0.1590  0.0468
  687SOL     OW 2745   2.139   0.290   1.197 -0.8450 -0.0008 -0.6413
  687SOL    HW1 2746   2.124   0.221   1.128  1.6056 -0.6094  0.3138
  687SOL    HW2 2747   2.087   0.368   1.164 -0.3378  0.4207 -3.3697
  687SOL     MW 2748   2.130   0.291   1.184 -0.4547 -0.0255 -0.8753
  688SOL     OW 2749   2.362   0.631   1.473  0.3071  0.3067 -0.6797
  688SOL    HW1 2750   2.349   0.557   1.418 -0.1761  0.6320 -1.4569
  688SOL    HW2 2751   2.283   0.634   1.533 -0.9267  1.8288  1.4767
  688SOL     MW 2752   2.350   0.622   1.473  0.0806  0.5504 -0.4977
  689SOL     OW 2753   2.543   0.736   2.996 -0.1731 -0.0810 -0.0557
  689SOL    HW1 2754   2.589   0.810   2.956  1.7787 -0.1402  1.8396
  689SOL    HW2 2755   2.582   0.741   3.092 -1.3061 -1.1294  1.5789
  689SOL     MW 2756   2.555   0.747   3.004 -0.0651 -0.2271  0.4100
  690SOL     OW 2757   2.120   0.934   1.913 -0.0246 -0.6883  0.2940
  690SOL    HW1 2758   2.048   0.872   1.911 -0.3403  0.4058  1.3696
  690SOL    HW2 2759   2.147   0.930   1.821 -0.4657 -0.5223  0.2083
  690SOL     MW 2760   2.114   0.925   1.900 -0.1244 -0.5220  0.4246
  691SOL     OW 2761   2.446   0.272   0.823  0.7605 -0.1199 -0.3807
  691SOL    HW1 2762   2.530   0.311   0.861 -0.9085 -1.4833  0.4361
  691SOL    HW2 2763   2.374   0.329   0.858 -2.3615  1.7485  1.4219
  691SOL     MW 2764   2.448   0.285   0.833  0.1284 -0.0533 -0.0351
  692SOL     OW 2765   2.822   1.676   1.458  0.0834 -1.0240 -0.4417
  692SOL    HW1 2766   2.834   1.614   1.522 -0.4674  0.7246 -2.7393
  692SOL    HW2 2767   2.851   1.749   1.501  1.2722 -1.9016 -0.9052
  692SOL     MW 2768   2.828   1.677   1.472  0.1676 -0.9091 -0.8060
  693SOL     OW 2769   2.327   0.430   0.119 -0.1918 -0.0599  0.1891
  693SOL    HW1 2770   2.244   0.405   0.078 -1.8083  0.5075 -1.6307
  693SOL    HW2 2771   2.332   0.522   0.114 -0.7705 -2.9227  0.4929
  693SOL     MW 2772   2.317   0.439   0.113 -0.4814 -0.3628 -0.0109
  694SOL     OW 2773   1.928   1.277   1.095 -0.3994 -0.1101 -0.1620
  694SOL    HW1 2774   1.991   1.222   1.142 -1.5075  1.2397 -0.4611
  694SOL    HW2 2775   1.857   1.218   1.070 -1.2455 -1.7546  1.7191
  694SOL     MW 2776   1.927   1.262   1.098 -0.6572 -0.1490  0.0467
  695SOL     OW 2777   2.978   1.440   1.300  0.2324  0.1045 -0.0133
  695SOL    HW1 2778   2.968   1.432   1.205  2.1825 -0.3977 -1.4397
  695SOL    HW2 2779   2.943   1.523   1.333 -0.8160 -0.6637  1.1110
  695SOL     MW 2780   2.972   1.450   1.292  0.3514 -0.0631 -0.0532
  696SOL     OW 2781   2.099   1.390   0.896 -0.2033 -0.1514 -0.0560
  696SOL    HW1 2782   2.177   1.438   0.934  1.5724  0.5290  0.2667
  696SOL    HW2 2783   2.059   1.362   0.979  1.6330 -0.8790  0.3132
  696SOL     MW 2784   2.104   1.393   0.912  0.2732 -0.1577  0.0353
  697SOL     OW 2785   2.913   1.102   2.130  0.1341 -0.2754 -0.3227
  697SOL    HW1 2786   2.845   1.163   2.161 -1.8815  2.2960 -0.1181
  697SOL    HW2 2787   2.868   1.014   2.119 -4.1022 -1.4872  0.2372
  697SOL     MW 2788   2.898   1.098   2.133 -0.6907 -0.0960 -0.2218
  698SOL     OW 2789   2.572   0.302   0.009  0.2607  0.6388 -0.3631
  698SOL    HW1 2790   2.493   0.338   0.041  0.4854  0.8030  0.9330
  698SOL    HW2 2791   2.602   0.231   0.080 -1.6327  0.4880  2.3405
  698SOL     MW 2792   2.565   0.297   0.022  0.0405  0.6406  0.1646
  699SOL     OW 2793   1.821   1.652   2.063  0.0168  0.8769  0.2445
  699SOL    HW1 2794   1.793   1.557   2.062  0.1777  0.2920 -1.4197
  699SOL    HW2 2795   1.914   1.641   2.030 -1.2560 -1.6568 -0.2889
  699SOL     MW 2796   1.830   1.638   2.058 -0.1299  0.4654 -0.0455
  700SOL     OW 2797   2.730   0.919   1.580 -0.1141  0.3153  0.0017
  700SOL    HW1 2798   2.738   1.002   1.530 -0.8689 -1.2217 -1.0774
  700SOL    HW2 2799   2.797   0.868   1.531  0.4463  2.4761  2.4485
  700SOL     MW 2800   2.740   0.923   1.567 -0.1398  0.3976  0.1821
  701SOL     OW 2801   1.632   1.276   2.557 -0.1861  0.0330 -1.0511
  701SOL    HW1 2802   1.725   1.297   2.562 -1.5780 -2.6043  2.4586
  701SOL    HW2 2803   1.584   1.322   2.629 -2.4651 -1.2456 -2.2496
  701SOL     MW 2804   1.638   1.285   2.567 -0.6705 -0.4837 -0.7462
  702SOL     OW 2805   2.181   0.390   0.851  0.0186 -0.2659  0.2491
  702SOL    HW1 2806   2.192   0.333   0.777  1.0838  2.6688 -1.2024
  702SOL    HW2 2807   2.236   0.461   0.819 -0.6005 -1.0563  0.9250
  702SOL     MW 2808   2.190   0.392   0.837  0.0774  0.0170  0.1468
  703SOL     OW 2809   2.685   1.282   1.029  0.5006 -0.2148  0.4916
  703SOL    HW1 2810   2.641   1.264   0.941 -1.0107  2.8443 -1.6818
  703SOL    HW2 2811   2.725   1.200   1.071 -0.5242 -1.8788  0.2886
  703SOL     MW 2812   2.685   1.269   1.023  0.1660 -0.0307  0.1781
  704SOL     OW 2813   3.087   1.327   0.278 -0.1831  0.5095 -0.9725
  704SOL    HW1 2814   3.021   1.271   0.238  1.4600 -1.9932  1.9835
  704SOL    HW2 2815   3.134   1.277   0.350 -0.1080 -3.3136  1.8677
  704SOL     MW 2816   3.084   1.313   0.282  0.0436 -0.3251 -0.2077
  705SOL     OW 2817   2.187   1.606   1.274  0.0193  0.2842  0.6991
  705SOL    HW1 2818   2.119   1.629   1.325  7.7913 -0.4154 -0.9523
  705SOL    HW2 2819   2.212   1.517   1.306 -0.5978  0.4980 -1.8550
  705SOL     MW 2820   2.181   1.597   1.285  0.9633  0.2201  0.1443
  706SOL     OW 2821   2.950   1.237   0.695 -0.3185 -0.5475  0.4233
  706SOL    HW1 2822   3.030   1.236   0.647  2.5882 -0.0765 -0.5981
  706SOL    HW2 2823   2.931   1.332   0.702 -0.5676 -0.1195  1.0956
  706SOL     MW 2824   2.958   1.250   0.689  0.0322 -0.4289  0.3772
  707SOL     OW 2825   2.380   0.059   0.986 -0.2744  0.2336 -0.1319
  707SOL    HW1 2826   2.416   0.122   0.914  0.8316  1.0646  0.1453
  707SOL    HW2 2827   2.283   0.072   0.988 -0.4613 -0.5788 -1.0653
  707SOL     MW 2828   2.372   0.069   0.977 -0.1531  0.2361 -0.2185
  708SOL     OW 2829   2.549   1.570   0.141  0.4480 -0.2836  0.2509
  708SOL    HW1 2830   2.589   1.480   0.143  0.9964 -0.6714  1.7809
  708SOL    HW2 2831   2.480   1.553   0.076 -0.1187 -1.4274 -2.5384
  708SOL     MW 2832   2.545   1.556   0.133  0.4456 -0.4857  0.0847
  709SOL     OW 2833   1.723   1.732   0.143  0.1840 -0.2749  0.1033
  709SOL    HW1 2834   1.654   1.760   0.079 -0.0919  0.2525  2.6460
  709SOL    HW2 2835   1.670   1.682   0.201  0.8838  0.1266  3.7154
  709SOL     MW 2836   1.707   1.729   0.143  0.2399 -0.1523  0.9153
  710SOL     OW 2837   2.139   1.147   1.200  0.7662  0.0396  0.2814
  710SOL    HW1 2838   2.183   1.144   1.112 -0.9748  1.7679 -0.1458
  710SOL    HW2 2839   2.181   1.069   1.240 -3.2040 -0.6197 -0.7050
  710SOL     MW 2840   2.150   1.136   1.194  0.0126  0.1807  0.0949
  711SOL     OW 2841   2.328   0.123   1.765  0.3689  0.1851  0.6799
  711SOL    HW1 2842   2.427   0.116   1.781 -2.8755 -0.4025  1.2373
  711SOL    HW2 2843   2.303   0.106   1.673 -0.0520  0.8720 -0.0149
  711SOL     MW 2844   2.338   0.120   1.755 -0.1147  0.1982  0.6618
  712SOL     OW 2845   1.798   0.611   3.061  1.2942 -0.4794 -0.2056
  712SOL    HW1 2846   1.815   0.691   3.016 -1.3858 -1.6756 -2.5646
  712SOL    HW2 2847   1.843   0.624   3.149  2.1756  2.4117  2.0496
  712SOL     MW 2848   1.806   0.623   3.066  1.0569 -0.2558 -0.2193
  713SOL     OW 2849   2.596   0.822   1.087  0.0423  0.5397 -0.0526
  713SOL    HW1 2850   2.601   0.722   1.091  1.9166 -1.2236  3.6865
  713SOL    HW2 2851   2.549   0.844   1.166 -2.1247  0.0054 -1.2082
  713SOL     MW 2852   2.591   0.812   1.098  0.0037  0.2366  0.2883
  714SOL     OW 2853   2.157   0.215   1.948  0.2877  0.1311  0.1776
  714SOL    HW1 2854   2.225   0.197   2.015 -0.7379  0.9282  1.1413
  714SOL    HW2 2855   2.213   0.181   1.870  3.5211 -2.6948 -1.5296
  714SOL     MW 2856   2.174   0.208   1.947  0.5790 -0.1366  0.0795
  715SOL     OW 2857   1.745   1.909   1.734 -0.1802 -0.1440  0.0491
  715SOL    HW1 2858   1.838   1.916   1.699 -1.8318  2.7047  1.5496
  715SOL    HW2 2859   1.733   1.818   1.769 -3.2155 -1.6380 -1.4054
  715SOL     MW 2860   1.756   1.898   1.734 -0.7986  0.0347  0.0552
  716SOL     OW 2861   2.400   0.562   0.733  0.2437 -0.0741 -0.0032
  716SOL    HW1 2862   2.451   0.505   0.675 -2.3446  1.3280  0.2582
  716SOL    HW2 2863   2.331   0.594   0.673 -1.3736 -0.4973 -0.1493
  716SOL     MW 2864   2.397   0.558   0.717 -0.3112  0.0551  0.0120
  717SOL     OW 2865   2.858   1.452   2.899  0.1982 -0.9287  0.1379
  717SOL    HW1 2866   2.954   1.460   2.911 -2.2303 -1.4791 -0.5196
  717SOL    HW2 2867   2.824   1.507   2.974  0.9250 -1.2450 -0.8131
  717SOL     MW 2868   2.866   1.460   2.911 -0.0263 -1.0430 -0.0744
  718SOL     OW 2869   2.523   1.346   1.379 -0.2554  0.3971  0.0538
  718SOL    HW1 2870   2.521   1.381   1.469 -1.2751 -0.0782 -2.4415
  718SOL    HW2 2871   2.557   1.256   1.386 -1.4087  0.2195 -0.7649
  718SOL     MW 2872   2.527   1.339   1.392 -0.5421  0.3110 -0.3835
  719SOL     OW 2873   2.165   1.338   0.578 -0.1702  0.3564 -0.5434
  719SOL    HW1 2874   2.259   1.346   0.563  0.5511  0.3469  1.1505
  719SOL    HW2 2875   2.150   1.334   0.672  2.1169  0.8297  0.8589
  719SOL     MW 2876   2.175   1.339   0.588  0.2267  0.4176 -0.1349
  720SOL     OW 2877   2.888   1.189   0.143  0.0675 -0.0055  0.2349
  720SOL    HW1 2878   2.868   1.105   0.179  1.2315  0.1775 -1.1211
  720SOL    HW2 2879   2.812   1.245   0.150 -0.0351 -3.5174 -0.1055
  720SOL     MW 2880   2.875   1.186   0.149  0.2075 -0.4447  0.0111
  721SOL     OW 2881   2.515   0.830   1.360  0.0635  0.0942  0.1919
  721SOL    HW1 2882   2.483   0.743   1.400 -4.7540 -2.2742  1.5558
  721SOL    HW2 2883   2.555   0.863   1.441 -0.2311 -0.4860 -2.0302
  721SOL     MW 2884   2.516   0.823   1.376 -0.6110 -0.2948  0.0787
  722SOL     OW 2885   2.546   1.202   0.360  0.2721 -1.0591 -0.4874
  722SOL    HW1 2886   2.511   1.246   0.445 -1.9702  2.5299 -0.2098
  722SOL    HW2 2887   2.626   1.158   0.387  2.1537 -0.7268 -0.0274
  722SOL     MW 2888   2.552   1.202   0.375  0.2245 -0.5417 -0.3901
  723SOL     OW 2889   2.221   1.376   1.644  0.0271  0.0195  0.3127
  723SOL    HW1 2890   2.216   1.363   1.552  0.4080 -1.5768  1.8042
  723SOL    HW2 2891   2.147   1.431   1.668  0.8373 -0.2685 -2.1069
  723SOL     MW 2892   2.211   1.381   1.635  0.1843 -0.2291  0.1903
  724SOL     OW 2893   2.495   0.379   0.552  0.3346  0.4691  0.1080
  724SOL    HW1 2894   2.497   0.313   0.620 -1.8834 -1.1670  0.4697
  724SOL    HW2 2895   2.578   0.386   0.508 -0.3205  0.7751 -1.1957
  724SOL     MW 2896   2.506   0.371   0.555 -0.0445  0.2936 -0.0163
  725SOL     OW 2897   2.583   0.525   1.127 -0.3975  0.1076 -0.3728
  725SOL    HW1 2898   2.608   0.510   1.213 -0.2838 -1.1913  1.0863
  725SOL    HW2 2899   2.489   0.528   1.142  0.8115  0.0521  1.7886
  725SOL     MW 2900   2.574   0.523   1.140 -0.2230 -0.0711  0.1049
  726SOL     OW 2901   2.578   2.431   0.545  0.4891 -0.2558  0.4447
  726SOL    HW1 2902   2.494   2.433   0.492  1.1851 -0.4605 -0.2706
  726SOL    HW2 2903   2.564   2.370   0.612  2.3324  1.5661 -0.0540
  726SOL     MW 2904   2.565   2.423   0.547  0.8241 -0.0424  0.2845
  727SOL     OW 2905   2.896   0.278   1.588  0.8964 -0.6757 -0.1156
  727SOL    HW1 2906   2.914   0.304   1.493  0.9457  0.3120 -2.4232
  727SOL    HW2 2907   2.803   0.257   1.581 -0.7916  2.2176 -1.9503
  727SOL     MW 2908   2.886   0.278   1.575  0.6802 -0.1636 -0.6621
  728SOL     OW 2909   2.814   1.162   2.972 -0.0793  0.5012  0.4246
  728SOL    HW1 2910   2.853   1.244   2.952  0.2334 -0.8249 -1.8124
  728SOL    HW2 2911   2.818   1.166   3.069  0.5412 -1.7185 -1.5634
  728SOL     MW 2912   2.820   1.173   2.982  0.0438  0.0334 -0.1328
  729SOL     OW 2913   2.561   1.495   1.158  0.1225  0.9469 -0.0538
  729SOL    HW1 2914   2.573   1.475   1.251 -1.9897  0.0441 -3.2020
  729SOL    HW2 2915   2.589   1.409   1.119  1.5209 -0.0249  0.5116
  729SOL     MW 2916   2.566   1.481   1.165  0.0283  0.6996 -0.3946
  730SOL     OW 2917   2.114   1.116   0.287 -0.0220  0.0006  0.2868
  730SOL    HW1 2918   2.206   1.094   0.265 -0.7187 -1.9034  0.2560
  730SOL    HW2 2919   2.118   1.210   0.299  2.1044  1.0239  0.6762
  730SOL     MW 2920   2.127   1.126   0.286  0.1667 -0.1156  0.3341
  731SOL     OW 2921   2.806   1.847   2.895  0.0381 -0.0735 -0.4746
  731SOL    HW1 2922   2.740   1.858   2.824 -0.1209  0.4674  0.5637
  731SOL    HW2 2923   2.856   1.929   2.889 -0.1833 -0.5393 -0.0113
  731SOL     MW 2924   2.804   1.859   2.885 -0.0121 -0.0636 -0.2765
  732SOL     OW 2925   2.238   0.933   1.316 -0.1174 -0.5812 -0.7797
  732SOL    HW1 2926   2.172   0.889   1.372 -2.4871  2.0192 -1.0861
  732SOL    HW2 2927   2.331   0.910   1.337  0.0652  0.4362 -1.5565
  732SOL     MW 2928   2.242   0.924   1.326 -0.4060 -0.1039 -0.9227
  733SOL     OW 2929   2.350   2.812   3.063  0.3201 -0.0658 -0.4139
  733SOL    HW1 2930   2.267   2.857   3.052 -1.6719 -2.2299 -1.3987
  733SOL    HW2 2931   2.332   2.716   3.059  2.1090  0.9899 -0.8516
  733SOL     MW 2932   2.337   2.806   3.061  0.2933 -0.2120 -0.6016
  734SOL     OW 2933   1.489   0.365   2.467  0.0974 -0.7822  0.4678
  734SOL    HW1 2934   1.487   0.316   2.553  1.2380  0.7526  1.9003
  734SOL    HW2 2935   1.512   0.304   2.396 -0.8705  1.5886  2.9122
  734SOL     MW 2936   1.492   0.350   2.469  0.1202 -0.2669  0.9793
  735SOL     OW 2937   3.018   0.976   2.600 -0.2846 -0.7645 -0.6483
  735SOL    HW1 2938   3.011   0.884   2.616 -0.7848  1.3984  2.0986
  735SOL    HW2 2939   3.022   1.013   2.689 -0.0969  0.2428 -0.1175
  735SOL     MW 2940   3.017   0.969   2.614 -0.3258 -0.3462 -0.2159
  736SOL     OW 2941   0.062   0.583   2.551 -0.5073 -0.3189 -0.3288
  736SOL    HW1 2942   0.121   0.645   2.504  0.6659  0.0814 -0.2795
  736SOL    HW2 2943   0.047   0.507   2.487  1.1284  0.4022 -0.8215
  736SOL     MW 2944   0.068   0.581   2.536 -0.1367 -0.1709 -0.3873
  737SOL     OW 2945   2.920   0.696   2.619  0.3990 -0.0772  0.1650
  737SOL    HW1 2946   2.851   0.693   2.550 -0.0905 -0.2685  0.6019
  737SOL    HW2 2947   2.998   0.656   2.581  0.1477  1.5063 -0.1502
  737SOL     MW 2948   2.921   0.690   2.605  0.3013  0.1065  0.1811
  738SOL     OW 2949   0.168   0.529   1.966  0.3096  0.0062 -0.8094
  738SOL    HW1 2950   0.247   0.570   2.005 -1.5360  0.1912  2.6955
  738SOL    HW2 2951   0.194   0.519   1.875 -0.1671 -3.0919  1.1714
  738SOL     MW 2952   0.182   0.533   1.959  0.0032 -0.3782 -0.0856
  739SOL     OW 2953   2.526   0.952   2.154  0.1622  0.3076  0.2511
  739SOL    HW1 2954   2.429   0.934   2.159 -0.1412  3.6855  0.1813
  739SOL    HW2 2955   2.534   0.989   2.065  0.4966  0.4117 -0.1648
  739SOL     MW 2956   2.514   0.955   2.143  0.1663  0.7670  0.1870
  740SOL     OW 2957   0.117   1.778   2.954  0.0887 -0.1772  0.0702
  740SOL    HW1 2958   0.079   1.690   2.966 -1.7181  1.6935 -0.2954
  740SOL    HW2 2959   0.213   1.761   2.963 -0.0029  1.0612 -1.3517
  740SOL     MW 2960   0.125   1.764   2.957 -0.1618  0.2330 -0.1656
  741SOL     OW 2961   2.228   1.215   2.713  0.1310  0.6588 -0.3206
  741SOL    HW1 2962   2.200   1.299   2.671  0.3063 -0.3795  1.3653
  741SOL    HW2 2963   2.235   1.240   2.807 -1.1737 -3.3129  0.4381
  741SOL     MW 2964   2.225   1.230   2.720 -0.0180 -0.0022  0.0019
  742SOL     OW 2965   1.648   1.380   2.275 -0.1763  0.0529  0.0118
  742SOL    HW1 2966   1.597   1.302   2.264  0.9058 -0.5747  1.1669
  742SOL    HW2 2967   1.680   1.375   2.365 -2.5118  1.3606 -1.8968
  742SOL     MW 2968   1.646   1.369   2.286 -0.3417  0.1426 -0.0876
  743SOL     OW 2969   2.501   1.240   2.708  0.3066  0.0746  0.6458
  743SOL    HW1 2970   2.406   1.249   2.719  1.6698  0.4242  0.0284
  743SOL    HW2 2971   2.536   1.165   2.751 -0.0133  4.3258 -3.1409
  743SOL     MW 2972   2.493   1.232   2.715  0.4443  0.6816  0.0647
  744SOL     OW 2973   2.791   0.990   1.831  0.4139 -0.0564  0.0063
  744SOL    HW1 2974   2.712   1.043   1.853 -0.2951 -0.6772  0.5407
  744SOL    HW2 2975   2.768   0.954   1.745 -1.0427 -0.6148  0.2890
  744SOL     MW 2976   2.778   0.992   1.823  0.1281 -0.2120  0.1141
  745SOL     OW 2977   1.787   0.437   2.454  0.4271  0.0444  0.2739
  745SOL    HW1 2978   1.792   0.439   2.357  2.4742 -1.4959  0.6633
  745SOL    HW2 2979   1.693   0.417   2.469 -2.1136  1.5282 -0.1406
  745SOL     MW 2980   1.776   0.435   2.443  0.3620  0.0370  0.2706
  746SOL     OW 2981   1.503   1.477   1.687  0.1455  0.0966 -0.0661
  746SOL    HW1 2982   1.574   1.535   1.716 -0.1704  0.1688 -3.1999
  746SOL    HW2 2983   1.481   1.410   1.749 -1.8519  0.1100  1.7259
  746SOL     MW 2984   1.509   1.476   1.699 -0.1597  0.1079 -0.2431
  747SOL     OW 2985   2.559   1.125   1.917 -0.5297  0.0972 -0.1660
  747SOL    HW1 2986   2.466   1.124   1.886  2.0016  3.2955 -2.2877
  747SOL    HW2 2987   2.566   1.207   1.968 -0.7460 -0.8949 -0.2373
  747SOL     MW 2988   2.548   1.136   1.919 -0.2243  0.3883 -0.4553
  748SOL     OW 2989   0.075   3.059   1.915 -0.0294  0.2481  0.0861
  748SOL    HW1 2990   0.167   3.050   1.930 -0.3561 -2.0583  1.2765
  748SOL    HW2 2991   0.053   3.125   1.977  1.0482 -2.1042  2.9086
  748SOL     MW 2992   0.084   3.066   1.925  0.0697 -0.3666  0.6155
  749SOL     OW 2993   2.453   0.593   2.775  0.4596 -0.8602 -0.2169
  749SOL    HW1 2994   2.483   0.670   2.723  0.0398  2.6209  0.9180
  749SOL    HW2 2995   2.513   0.603   2.856 -0.7354  0.6267 -0.5524
  749SOL     MW 2996   2.465   0.605   2.779  0.2466 -0.2047 -0.1114
  750SOL     OW 2997   2.062   3.056   1.955 -0.0596  0.4882  0.2305
  750SOL    HW1 2998   2.110   3.138   1.968 -2.1510 -2.8879  0.3542
  750SOL    HW2 2999   2.133   2.997   1.920  2.2999 -1.1006 -0.4068
  750SOL     MW 3000   2.077   3.059   1.952 -0.0242 -0.1669  0.1627
  751SOL     OW 3001   0.004   0.385   2.396  0.6593  0.1587  0.5072
  751SOL    HW1 3002  -0.066   0.417   2.344 -1.2479  0.0653  2.2887
  751SOL    HW2 3003   0.084   0.371   2.337 -0.0592  0.9748 -1.1076
  751SOL     MW 3004   0.005   0.387   2.381  0.3129  0.2540  0.5292
  752SOL     OW 3005   2.127   0.899   2.777 -0.2607  0.1094 -0.7364
  752SOL    HW1 3006   2.211   0.948   2.769  0.5936  0.6601 -0.5733
  752SOL    HW2 3007   2.112   0.894   2.874 -1.4922  0.6621 -2.0390
  752SOL     MW 3008   2.136   0.905   2.789 -0.3104  0.2550 -0.8867
  753SOL     OW 3009   2.838   0.430   2.314  0.4702 -0.0269  0.2374
  753SOL    HW1 3010   2.802   0.343   2.334  0.4109  0.1984 -0.7297
  753SOL    HW2 3011   2.775   0.494   2.354 -0.7861  0.4352  0.9991
  753SOL     MW 3012   2.825   0.427   2.322  0.2966  0.0638  0.2103
  754SOL     OW 3013   2.266   2.994   2.610 -0.6315  0.4189 -0.6325
  754SOL    HW1 3014   2.279   3.000   2.512  0.6024  1.3497 -0.3628
  754SOL    HW2 3015   2.345   2.949   2.652  0.9680 -0.1814  0.5402
  754SOL     MW 3016   2.278   2.989   2.603 -0.2576  0.4625 -0.4422
  755SOL     OW 3017   2.798   1.592   2.485 -0.5997  0.2229  0.3954
  755SOL    HW1 3018   2.765   1.508   2.512  0.1059 -0.2018  1.1965
  755SOL    HW2 3019   2.840   1.622   2.566 -0.8624  2.6745  0.2719
  755SOL     MW 3020   2.799   1.585   2.499 -0.5413  0.4904  0.4848
  756SOL     OW 3021   2.239   1.266   2.974  0.1412 -0.0085 -0.3397
  756SOL    HW1 3022   2.304   1.340   2.990  3.3092  1.9783  3.2132
  756SOL    HW2 3023   2.278   1.178   2.985 -0.8219  0.0521 -0.0960
  756SOL     MW 3024   2.252   1.264   2.978  0.4321  0.2616  0.1612
  757SOL     OW 3025   2.199   0.937   1.643 -0.0536  0.1176 -0.2484
  757SOL    HW1 3026   2.215   0.844   1.665 -0.7386 -2.7723 -0.6070
  757SOL    HW2 3027   2.116   0.948   1.593  0.0223  0.7274  1.7690
  757SOL     MW 3028   2.190   0.926   1.639 -0.1340 -0.1833 -0.0296
  758SOL     OW 3029   2.266   1.798   2.623 -0.1927 -0.3930  0.2973
  758SOL    HW1 3030   2.272   1.822   2.527 -0.2532 -0.5901  1.3952
  758SOL    HW2 3031   2.356   1.794   2.652  0.6723  0.1357 -0.4186
  758SOL     MW 3032   2.279   1.801   2.614 -0.0866 -0.3493  0.3477
  759SOL     OW 3033   1.536   1.421   2.777 -0.1117  0.1403  0.7520
  759SOL    HW1 3034   1.543   1.489   2.707  0.3400  2.2391 -1.7971
  759SOL    HW2 3035   1.597   1.446   2.847  1.7948 -1.5914 -2.5547
  759SOL     MW 3036   1.545   1.433   2.777  0.1995  0.1887 -0.0206
  760SOL     OW 3037   2.641   1.984   2.687  0.6992 -0.6203 -0.8337
  760SOL    HW1 3038   2.587   1.907   2.673  0.6553  2.6030  1.4625
  760SOL    HW2 3039   2.714   1.959   2.636 -1.8453 -0.0468  0.5406
  760SOL     MW 3040   2.644   1.970   2.678  0.3577 -0.1193 -0.3494
  761SOL     OW 3041   2.175   0.452   2.446 -0.1494  0.1104 -0.2479
  761SOL    HW1 3042   2.140   0.368   2.437  2.1199 -0.5250 -3.4290
  761SOL    HW2 3043   2.145   0.493   2.532 -0.5028  0.5055  3.4231
  761SOL     MW 3044   2.166   0.447   2.456  0.1034  0.0787 -0.1833
  762SOL     OW 3045   0.033   0.154   2.085 -0.1673 -0.2457 -0.0386
  762SOL    HW1 3046   0.005   0.088   2.149 -3.2218 -0.6041 -1.4500
  762SOL    HW2 3047  -0.044   0.208   2.079 -0.2005 -0.5481 -0.5550
  762SOL     MW 3048   0.020   0.152   2.093 -0.5747 -0.3329 -0.2930
  763SOL     OW 3049   2.447   1.158   2.373  0.5422  0.2894 -0.2355
  763SOL    HW1 3050   2.485   1.132   2.288  0.9191  0.4688 -0.2912
  763SOL    HW2 3051   2.504   1.225   2.407  2.4785 -1.8150  1.3486
  763SOL     MW 3052   2.460   1.163   2.366  0.8474  0.0354 -0.0339
  764SOL     OW 3053   0.334   0.180   2.785 -0.1840 -0.0406  0.6253
  764SOL    HW1 3054   0.250   0.214   2.760  3.1714  0.7365  0.7066
  764SOL    HW2 3055   0.360   0.244   2.847  0.9965  3.5578 -2.4083
  764SOL     MW 3056   0.326   0.193   2.790  0.4144  0.5367  0.2357
  765SOL     OW 3057   2.751   0.176   2.322  0.0878  0.1953 -0.1823
  765SOL    HW1 3058   2.685   0.147   2.255  0.9925 -0.9071 -1.6043
  765SOL    HW2 3059   2.815   0.104   2.326  1.0490 -0.6744  0.2522
  765SOL     MW 3060   2.751   0.163   2.314  0.3340 -0.0649 -0.3126
  766SOL     OW 3061   1.849   3.003   2.096 -0.0287 -0.2049 -0.1101
  766SOL    HW1 3062   1.920   3.014   2.034  0.2887 -1.6942  0.5265
  766SOL    HW2 3063   1.807   2.931   2.050 -0.4422  1.2486 -0.4772
  766SOL     MW 3064   1.853   2.995   2.082 -0.0414 -0.2096 -0.0746
  767SOL     OW 3065   2.703   0.621   1.934 -0.2340  0.1126 -0.8903
  767SOL    HW1 3066   2.770   0.672   1.979  2.4343 -1.0200 -0.1306
  767SOL    HW2 3067   2.618   0.668   1.950 -0.4644 -1.7865  2.9736
  767SOL     MW 3068   2.701   0.634   1.942  0.0877 -0.2874 -0.2803
  768SOL     OW 3069   0.035   1.464   2.954 -0.2253  0.3712 -0.2516
  768SOL    HW1 3070   0.039   1.472   3.051  0.1562  1.7124 -1.0137
  768SOL    HW2 3071   0.041   1.372   2.933 -0.4781  1.8796  0.8824
  768SOL     MW 3072   0.036   1.453   2.964 -0.2083  0.7472 -0.2025
  769SOL     OW 3073   2.392   0.642   2.468  0.0752 -0.5267  0.2362
  769SOL    HW1 3074   2.326   0.566   2.456 -2.2899 -0.2176  2.2778
  769SOL    HW2 3075   2.439   0.650   2.386 -0.3534  0.1987  2.3087
  769SOL     MW 3076   2.389   0.633   2.455 -0.2934 -0.3902  0.7790
  770SOL     OW 3077   0.065   1.616   2.628 -0.2941 -0.4536 -0.5463
  770SOL    HW1 3078  -0.022   1.638   2.660 -0.1108 -0.5042 -0.7459
  770SOL    HW2 3079   0.072   1.525   2.657 -0.3471  1.1905 -2.7346
  770SOL     MW 3080   0.055   1.607   2.636 -0.2769 -0.2434 -0.8614
  771SOL     OW 3081   2.992   0.573   1.970  0.4694  0.6729  0.3309
  771SOL    HW1 3082   2.955   0.567   1.879 -0.0900 -2.8531 -1.8362
  771SOL    HW2 3083   3.083   0.568   1.968 -0.9870 -0.5929 -0.5883
  771SOL     MW 3084   2.999   0.572   1.958  0.2034  0.0407 -0.0763
  772SOL     OW 3085   0.024   3.083   2.310  0.5689  0.3318 -0.2314
  772SOL    HW1 3086  -0.043   3.058   2.372  0.4159  1.6822 -0.3217
  772SOL    HW2 3087   0.067   3.006   2.268  0.4821  1.6018 -1.4060
  772SOL     MW 3088   0.021   3.069   2.313  0.5372  0.6775 -0.3983
  773SOL     OW 3089   2.462   2.849   2.796 -0.6792  0.6269 -0.3576
  773SOL    HW1 3090   2.462   2.760   2.752 -0.3111 -3.2654 -0.0895
  773SOL    HW2 3091   2.446   2.832   2.891  0.1885  0.6211  0.6107
  773SOL     MW 3092   2.460   2.835   2.803 -0.5161  0.1126 -0.1945
  774SOL     OW 3093   2.290   1.169   1.821  0.2244  0.1222 -0.4557
  774SOL    HW1 3094   2.259   1.239   1.759 -1.8304 -0.0567  0.6326
  774SOL    HW2 3095   2.272   1.087   1.762  0.8053 -1.7932  0.7571
  774SOL     MW 3096   2.283   1.167   1.805  0.0300 -0.1541 -0.1521
  775SOL     OW 3097   2.300   2.979   2.332  0.5058  0.3804  0.0713
  775SOL    HW1 3098   2.306   3.065   2.281  0.2088 -0.0994 -2.5485
  775SOL    HW2 3099   2.375   2.930   2.306 -0.9064  0.8942  0.7291
  775SOL     MW 3100   2.311   2.984   2.322  0.2803  0.3849 -0.1875
  776SOL     OW 3101   0.104   1.506   0.122 -0.1519 -0.8595 -0.1614
  776SOL    HW1 3102   0.198   1.479   0.109  1.5579  2.0180 -0.0951
  776SOL    HW2 3103   0.065   1.430   0.165 -1.2523 -0.2411 -0.2489
  776SOL     MW 3104   0.111   1.492   0.126 -0.0715 -0.3983 -0.1642
  777SOL     OW 3105   3.024   1.130   1.722 -0.3431 -0.0347 -0.3936
  777SOL    HW1 3106   2.983   1.150   1.642  1.3760 -4.1079  0.5582
  777SOL    HW2 3107   2.952   1.091   1.768 -0.2684  1.4351  0.4626
  777SOL     MW 3108   3.009   1.128   1.718 -0.1065 -0.3782 -0.1551
  778SOL     OW 3109   2.801   0.429   2.705  0.3023  0.4433  0.5872
  778SOL    HW1 3110   2.771   0.455   2.789  1.0659 -0.5814 -1.7597
  778SOL    HW2 3111   2.862   0.496   2.668  1.1768 -1.9231 -0.1275
  778SOL     MW 3112   2.805   0.441   2.711  0.5184 -0.0041  0.1833
  779SOL     OW 3113   2.246   0.557   2.194  0.0576 -0.5436  0.6732
  779SOL    HW1 3114   2.195   0.611   2.136 -0.2684  2.8064  1.7754
  779SOL    HW2 3115   2.187   0.538   2.265 -0.5231  0.8521 -3.6551
  779SOL     MW 3116   2.232   0.562   2.196 -0.0620  0.0826  0.2476
  780SOL     OW 3117   0.113   0.315   2.677  0.0091 -0.2164 -0.4314
  780SOL    HW1 3118   0.026   0.320   2.720  0.0297  3.7384  1.2479
  780SOL    HW2 3119   0.133   0.411   2.672  1.3044  2.4444 -0.1646
  780SOL     MW 3120   0.104   0.329   2.682  0.1827  0.6565 -0.1746
  781SOL     OW 3121   3.066   1.303   2.451  0.4846 -0.3562  0.1557
  781SOL    HW1 3122   3.057   1.376   2.390  1.3399 -0.8088  1.7484
  781SOL    HW2 3123   3.079   1.222   2.400 -0.4082 -2.2933 -0.9239
  781SOL     MW 3124   3.066   1.302   2.436  0.4796 -0.6715  0.2234
  782SOL     OW 3125   0.648   1.580   0.022  0.4449  0.2787 -0.5265
  782SOL    HW1 3126   0.569   1.609  -0.003  2.9289  0.1600  0.0591
  782SOL    HW2 3127   0.667   1.626   0.107  1.7185 -1.9496 -0.6484
  782SOL     MW 3128   0.640   1.590   0.030  0.9407 -0.0310 -0.4653
  783SOL     OW 3129   2.700   0.639   2.457 -0.5165  0.0109 -0.4164
  783SOL    HW1 3130   2.654   0.659   2.379 -1.2332  1.6292  0.6391
  783SOL    HW2 3131   2.646   0.579   2.513  0.7340 -0.6153  2.4974
  783SOL     MW 3132   2.687   0.634   2.454 -0.4461  0.1418  0.1073
  784SOL     OW 3133   0.152   0.842   2.868 -0.0656 -0.4478 -0.3581
  784SOL    HW1 3134   0.077   0.900   2.874  1.2805 -4.3753 -1.0583
  784SOL    HW2 3135   0.192   0.872   2.781 -1.2459 -0.6783 -0.4182
  784SOL     MW 3136   0.147   0.854   2.857 -0.0437 -0.9964 -0.4584
  785SOL     OW 3137   0.431   0.465   2.171 -0.3889  0.0746  0.4511
  785SOL    HW1 3138   0.446   0.468   2.077 -1.8778  1.1276  2.4467
  785SOL    HW2 3139   0.357   0.413   2.189 -0.1463  0.0171 -2.7877
  785SOL     MW 3140   0.424   0.459   2.161 -0.5534  0.2060  0.2871
  786SOL     OW 3141   1.913   0.389   2.958  0.2184  0.0654 -0.2252
  786SOL    HW1 3142   1.875   0.471   2.993 -0.8666  1.3438  1.1603
  786SOL    HW2 3143   1.973   0.394   2.887  0.2685  1.6856  1.4960
  786SOL     MW 3144   1.916   0.400   2.953  0.0818  0.4479  0.1847
  787SOL     OW 3145   2.475   0.089   2.965 -0.4729  0.0387  0.5090
  787SOL    HW1 3146   2.545   0.028   2.927  2.6089 -0.6209  2.2321
  787SOL    HW2 3147   2.531   0.142   3.022 -1.2046 -0.2911  1.9857
  787SOL     MW 3148   2.492   0.088   2.967 -0.1628 -0.0918  0.9312
  788SOL     OW 3149   2.873   3.042   2.437 -0.2671 -0.3807  0.0882
  788SOL    HW1 3150   2.900   3.043   2.531 -0.4774 -0.1525  0.0055
  788SOL    HW2 3151   2.835   2.958   2.414  2.4581  0.2918  0.7138
  788SOL     MW 3152   2.872   3.031   2.446  0.0647 -0.2618  0.1598
  789SOL     OW 3153   0.063   0.196   3.031 -0.2077  0.0263 -0.0810
  789SOL    HW1 3154   0.001   0.143   3.086  0.5498  1.3483  2.4012
  789SOL    HW2 3155   0.025   0.280   2.999  0.6997 -1.6006  0.0417
  789SOL     MW 3156   0.049   0.200   3.034  0.0120 -0.0139  0.2627
  790SOL     OW 3157   3.088   1.050   2.352  0.2615  0.4735 -0.3749
  790SOL    HW1 3158   3.044   1.036   2.436  1.6795  1.3458  0.0229
  790SOL    HW2 3159   3.019   1.068   2.285 -1.5850  1.2567 -1.7468
  790SOL     MW 3160   3.073   1.051   2.354  0.2050  0.6919 -0.5034
  791SOL     OW 3161   2.561   0.434   2.574 -0.0536 -0.2436 -0.1479
  791SOL    HW1 3162   2.498   0.448   2.653 -0.6668 -0.0725  1.5538
  791SOL    HW2 3163   2.646   0.425   2.623  2.5174  1.3342 -0.1500
  791SOL     MW 3164   2.564   0.434   2.591  0.2047 -0.0128  0.0764
  792SOL     OW 3165   2.333   0.194   2.420  0.0655 -0.2352 -0.2006
  792SOL    HW1 3166   2.321   0.287   2.436 -0.5548 -2.3598 -1.2227
  792SOL    HW2 3167   2.328   0.170   2.514  1.2641  0.4172 -0.6309
  792SOL     MW 3168   2.330   0.203   2.435  0.1418 -0.4295 -0.3923
  793SOL     OW 3169   1.952   1.190   1.979  0.6021  0.6248 -0.2568
  793SOL    HW1 3170   1.928   1.144   1.896  0.1472  3.5663 -0.3398
  793SOL    HW2 3171   2.042   1.193   1.995 -0.9753  0.0859  1.9947
  793SOL     MW 3172   1.961   1.184   1.970  0.3339  0.9418  0.0293
  794SOL     OW 3173   1.412   2.373   0.133  0.0606  0.0255 -0.1444
  794SOL    HW1 3174   1.439   2.455   0.086 -1.6867 -1.0681  1.9899
  794SOL    HW2 3175   1.453   2.377   0.221  0.9938 -0.7728  0.0550
  794SOL     MW 3176   1.421   2.384   0.139 -0.0468 -0.2241  0.1635
  795SOL     OW 3177   2.316   1.000   2.540 -0.3929 -0.4767  0.1046
  795SOL    HW1 3178   2.281   1.070   2.599  0.4533 -0.7584  0.8977
  795SOL    HW2 3179   2.376   1.042   2.479  0.0474  2.0373  1.6803
  795SOL     MW 3180   2.319   1.015   2.539 -0.2232 -0.1822  0.4172
  796SOL     OW 3181   0.251   0.601   2.766 -0.0629 -0.5538  0.4844
  796SOL    HW1 3182   0.238   0.675   2.830 -0.1854  0.1511  3.2637
  796SOL    HW2 3183   0.176   0.609   2.706  0.7076 -0.5734 -0.8746
  796SOL     MW 3184   0.239   0.612   2.767  0.0226 -0.4634  0.6718
  797SOL     OW 3185   2.606   0.154   2.582  0.1054  0.1812  0.0598
  797SOL    HW1 3186   2.536   0.211   2.563 -1.3098  3.0788 -3.2509
  797SOL    HW2 3187   2.652   0.140   2.497 -1.0888 -1.3592  2.1238
  797SOL     MW 3188   2.603   0.160   2.569 -0.2389  0.3603 -0.1047
  798SOL     OW 3189   2.335   0.086   2.146 -0.7505 -0.0003  0.6106
  798SOL    HW1 3190   2.345   0.133   2.226 -0.9215  1.8087 -2.8721
  798SOL    HW2 3191   2.427   0.060   2.130 -0.2349  3.2804 -0.7950
  798SOL     MW 3192   2.348   0.089   2.155 -0.7050  0.6713 -0.0343
  799SOL     OW 3193   2.561   2.944   0.118  0.0918 -0.1945  0.0954
  799SOL    HW1 3194   2.482   2.931   0.067 -1.2777 -2.1231  0.0780
  799SOL    HW2 3195   2.545   2.964   0.207  0.2701  0.2673 -1.6743
  799SOL     MW 3196   2.548   2.945   0.123 -0.0654 -0.3880 -0.1404
  800SOL     OW 3197   1.919   0.031   1.709 -0.2515 -0.0678 -0.4113
  800SOL    HW1 3198   1.875  -0.051   1.687 -0.8378  0.8176  0.5503
  800SOL    HW2 3199   1.960   0.018   1.798  1.0508 -1.1069 -0.4579
  800SOL     MW 3200   1.919   0.018   1.718 -0.1570 -0.0881 -0.2905
  801SOL     OW 3201   2.817   1.250   2.617  0.1582  0.2436 -0.0212
  801SOL    HW1 3202   2.787   1.163   2.585 -2.1063 -0.7937  2.0585
  801SOL    HW2 3203   2.905   1.254   2.585 -0.7683 -0.7815  1.3199
  801SOL     MW 3204   2.825   1.239   2.608 -0.2628 -0.0285  0.4301
  802SOL     OW 3205   2.586   1.479   2.818 -0.4900 -0.2139  0.0065
  802SOL    HW1 3206   2.568   1.400   2.764 -3.4444 -0.2668  0.9610
  802SOL    HW2 3207   2.683   1.477   2.847  0.8024  2.2711  1.1601
  802SOL     MW 3208   2.597   1.468   2.814 -0.7093  0.1070  0.2846
  803SOL     OW 3209   2.233   1.388   2.028  0.1768  0.9080 -0.5383
  803SOL    HW1 3210   2.220   1.343   2.111  0.1219 -0.0909 -1.4293
  803SOL    HW2 3211   2.234   1.312   1.970 -0.6574 -0.1749  1.9993
  803SOL     MW 3212   2.232   1.372   2.031  0.0595  0.6333 -0.3211
  804SOL     OW 3213   2.252   0.089   0.037  0.2912  0.3350 -0.4150
  804SOL    HW1 3214   2.196   0.158  -0.005  0.8299  0.5722  0.2259
  804SOL    HW2 3215   2.333   0.088  -0.013 -1.9507  2.7311  0.7097
  804SOL     MW 3216   2.255   0.098   0.025  0.0665  0.6824 -0.1820
  805SOL     OW 3217   2.724   0.954   2.611 -0.6353  0.5036  0.4545
  805SOL    HW1 3218   2.646   0.896   2.605  0.1732  0.9921  1.1197
  805SOL    HW2 3219   2.806   0.905   2.592  1.0692  1.1379  1.1952
  805SOL     MW 3220   2.724   0.940   2.608 -0.3037  0.6517  0.6400
  806SOL     OW 3221   2.532   0.625   2.215  0.8561 -0.1089 -0.2792
  806SOL    HW1 3222   2.461   0.580   2.171  1.9218 -0.9740  3.9109
  806SOL    HW2 3223   2.548   0.705   2.168  0.5155 -0.0278 -1.7666
  806SOL     MW 3224   2.525   0.630   2.203  0.9518 -0.2124  0.0774
  807SOL     OW 3225   0.101   1.098   2.052 -0.3051  0.8759  0.5098
  807SOL    HW1 3226   0.143   1.018   2.032 -2.3150  3.1777 -1.5900
  807SOL    HW2 3227   0.012   1.084   2.083  3.1546 -0.2775  0.0458
  807SOL     MW 3228   0.095   1.086   2.054 -0.1138  1.0274  0.1716
  808SOL     OW 3229   2.653   3.050   2.786  0.4006 -0.3149  0.3266
  808SOL    HW1 3230   2.608   2.971   2.758 -1.5728 -2.1187 -0.1578
  808SOL    HW2 3231   2.645   3.115   2.714  1.9930 -1.8555  1.7240
  808SOL     MW 3232   2.646   3.048   2.773  0.3503 -0.7562  0.4470
  809SOL     OW 3233   2.586   1.377   2.450  0.0283 -0.4014 -0.1185
  809SOL    HW1 3234   2.622   1.353   2.531  1.5221  3.1209  1.6271
  809SOL    HW2 3235   2.658   1.347   2.387 -0.0033 -0.5080  1.3644
  809SOL     MW 3236   2.600   1.370   2.452  0.2212  0.0493  0.3074
  810SOL     OW 3237   2.226   1.319   2.298 -0.0481  0.1879  0.1890
  810SOL    HW1 3238   2.292   1.269   2.342 -3.3481 -0.3891 -0.9685
  810SOL    HW2 3239   2.173   1.360   2.367 -0.5857 -0.5639 -0.9761
  810SOL     MW 3240   2.228   1.318   2.313 -0.5544  0.0126 -0.1174
  811SOL     OW 3241   1.534   0.146   2.316  0.4249  0.0231 -0.3147
  811SOL    HW1 3242   1.592   0.080   2.354 -1.2079  0.0698  0.0139
  811SOL    HW2 3243   1.535   0.127   2.222  0.0622 -0.7479 -0.3359
  811SOL     MW 3244   1.541   0.135   2.308  0.1616 -0.0725 -0.2741
  812SOL     OW 3245   1.450   2.789   2.007 -0.1729  0.2209 -0.1443
  812SOL    HW1 3246   1.539   2.807   1.968 -2.0158  1.7435  0.4347
  812SOL    HW2 3247   1.467   2.801   2.100 -0.9044 -0.1550 -2.3963
  812SOL     MW 3248   1.464   2.793   2.014 -0.5126  0.3722 -0.3650
  813SOL     OW 3249   1.969   0.652   2.255 -0.1654  1.1766  0.3887
  813SOL    HW1 3250   1.921   0.581   2.218 -0.6318 -1.4005  0.2496
  813SOL    HW2 3251   1.911   0.729   2.278  1.6424  3.3371 -0.5095
  813SOL     MW 3252   1.955   0.653   2.254  0.0116  1.1216  0.2518
  814SOL     OW 3253   2.693   1.267   1.638 -0.0565  0.3597  0.1300
  814SOL    HW1 3254   2.644   1.211   1.703  0.6607 -0.0232  2.0052
  814SOL    HW2 3255   2.707   1.213   1.556  0.2004  2.2969  2.0756
  814SOL     MW 3256   2.689   1.253   1.636  0.0720  0.5648  0.6341
  815SOL     OW 3257   2.577   1.743   2.408 -0.0557  0.0584 -0.1118
  815SOL    HW1 3258   2.505   1.686   2.385 -0.3890  0.4990  1.5871
  815SOL    HW2 3259   2.659   1.693   2.385  2.9836 -0.7844 -1.1277
  815SOL     MW 3260   2.579   1.729   2.402  0.3013  0.0054 -0.0217
  816SOL     OW 3261   0.714   0.705   2.714 -0.1912  0.5974  0.0081
  816SOL    HW1 3262   0.748   0.616   2.726 -0.9409 -1.4946  0.8313
  816SOL    HW2 3263   0.617   0.715   2.712 -1.3084 -2.8889  4.1677
  816SOL     MW 3264   0.706   0.695   2.715 -0.4375 -0.1386  0.6655
  817SOL     OW 3265   3.013   1.213   1.452  0.2211 -0.0223  0.0774
  817SOL    HW1 3266   3.109   1.197   1.479 -0.6488  0.5027  3.3519
  817SOL    HW2 3267   3.022   1.299   1.404 -0.7688  1.7962  0.8211
  817SOL     MW 3268   3.027   1.222   1.449 -0.0243  0.2869  0.6076
  818SOL     OW 3269   1.903   1.030   2.706 -0.0473 -0.1039  0.6416
  818SOL    HW1 3270   1.875   0.998   2.615 -1.5887  0.2573  1.1064
  818SOL    HW2 3271   1.986   0.983   2.725 -0.5003  0.4507 -0.5113
  818SOL     MW 3272   1.910   1.019   2.696 -0.3105  0.0170  0.5508
  819SOL     OW 3273   1.987   0.255   2.516 -0.4026 -0.2423 -0.1617
  819SOL    HW1 3274   1.905   0.313   2.506 -0.7167 -0.5613  2.5284
  819SOL    HW2 3275   2.006   0.265   2.609  1.0044 -1.8732 -0.7383
  819SOL     MW 3276   1.979   0.264   2.527 -0.2584 -0.4996  0.1172
  820SOL     OW 3277   2.517   1.750   2.684  0.4131  0.2534  0.5755
  820SOL    HW1 3278   2.536   1.664   2.720 -0.6297  0.6429  4.5887
  820SOL    HW2 3279   2.560   1.746   2.595  0.7925  1.6775 -1.1336
  820SOL     MW 3280   2.525   1.738   2.677  0.3255  0.4927  0.8795
  821SOL     OW 3281   2.585   1.376   2.023 -0.1457  0.7712 -0.0192
  821SOL    HW1 3282   2.593   1.421   1.935  1.4687 -2.8257  2.4466
  821SOL    HW2 3283   2.493   1.387   2.041  2.8245  2.1665  4.3354
  821SOL     MW 3284   2.574   1.383   2.014  0.4592  0.4807  0.8807
  822SOL     OW 3285   2.773   2.644   1.389 -0.4871 -0.0874 -0.4350
  822SOL    HW1 3286   2.827   2.656   1.469 -3.1833 -1.6417 -0.2426
  822SOL    HW2 3287   2.707   2.716   1.391 -0.7961 -1.3059  1.0820
  822SOL     MW 3288   2.772   2.655   1.400 -0.8836 -0.4533 -0.2095
  823SOL     OW 3289   2.370   0.480   1.762 -0.0899 -0.0768 -0.6226
  823SOL    HW1 3290   2.414   0.443   1.693  1.5264  1.9926  0.5696
  823SOL    HW2 3291   2.331   0.402   1.790 -2.2028  1.8073 -0.7436
  823SOL     MW 3292   2.371   0.465   1.757 -0.1554  0.4448 -0.4813
  824SOL     OW 3293   2.153   1.448   2.543 -0.3173  0.7619 -0.0222
  824SOL    HW1 3294   2.232   1.491   2.506 -2.0800  1.7945 -1.2591
  824SOL    HW2 3295   2.124   1.509   2.606  2.3699 -0.1566  0.9496
  824SOL     MW 3296   2.160   1.462   2.546 -0.1953  0.7769 -0.0572
  825SOL     OW 3297   1.852   2.546   0.258 -0.2874  0.0185 -0.2427
  825SOL    HW1 3298   1.848   2.492   0.332 -1.1814 -0.4707 -0.5039
  825SOL    HW2 3299   1.937   2.526   0.214  0.5664  1.4454  0.8486
  825SOL     MW 3300   1.863   2.537   0.262 -0.2927  0.1422 -0.1332
  826SOL     OW 3301   1.849   2.383   0.534  0.6839  0.0265  0.5365
  826SOL    HW1 3302   1.797   2.309   0.570 -1.2958  1.4598  0.2140
  826SOL    HW2 3303   1.830   2.459   0.589  0.1102 -2.3731  0.0822
  826SOL     MW 3304   1.840   2.383   0.546  0.3470 -0.1010  0.4340
  827SOL     OW 3305   1.933   2.176   0.874  0.1234 -0.5649  0.7296
  827SOL    HW1 3306   1.885   2.221   0.806 -0.3889  2.0721  1.0590
  827SOL    HW2 3307   1.865   2.135   0.938  2.2209  1.5624  2.2745
  827SOL     MW 3308   1.918   2.177   0.873  0.3325  0.0637  0.9769
  828SOL     OW 3309   0.054   2.570   0.590  0.1797 -0.1782  0.3839
  828SOL    HW1 3310   0.145   2.557   0.573 -1.1379 -0.0255  1.9570
  828SOL    HW2 3311   0.010   2.628   0.531  1.0986  1.9512  3.4139
  828SOL     MW 3312   0.060   2.576   0.580  0.1271  0.1229  0.9913
  829SOL     OW 3313   2.988   2.968   1.153 -0.2609  0.0837 -0.1548
  829SOL    HW1 3314   2.907   2.960   1.106  1.2227  1.7603  0.3828
  829SOL    HW2 3315   3.047   2.899   1.119 -1.2026 -1.0970 -0.1262
  829SOL     MW 3316   2.985   2.958   1.142 -0.1894  0.1492 -0.0801
  830SOL     OW 3317   2.557   2.830   2.031 -0.3191  0.4422  0.1981
  830SOL    HW1 3318   2.467   2.827   1.992 -1.9925  1.7860 -2.4622
  830SOL    HW2 3319   2.604   2.790   1.954  0.9137  1.5147 -2.0924
  830SOL     MW 3320   2.552   2.825   2.016 -0.3772  0.7610 -0.4551
  831SOL     OW 3321   2.385   2.501   1.222  0.5502 -0.0966  0.0495
  831SOL    HW1 3322   2.344   2.451   1.293 -1.0147 -0.4690  2.0686
  831SOL    HW2 3323   2.458   2.447   1.204 -1.3420  2.7666  1.6655
  831SOL     MW 3324   2.389   2.487   1.229  0.0941  0.2320  0.5291
  832SOL     OW 3325   2.372   2.197   1.916  0.5056 -0.1190 -0.0612
  832SOL    HW1 3326   2.405   2.287   1.936 -1.6583  2.5636  1.5080
  832SOL    HW2 3327   2.447   2.136   1.891  0.5609  1.6719  2.2206
  832SOL     MW 3328   2.386   2.201   1.916  0.2274  0.4712  0.4469
  833SOL     OW 3329   1.741   2.452   0.906  0.1713  0.1059  0.3378
  833SOL    HW1 3330   1.662   2.397   0.904 -0.5301 -1.6037 -1.3500
  833SOL    HW2 3331   1.726   2.520   0.961  2.6576 -2.0383 -1.7835
  833SOL     MW 3332   1.729   2.453   0.913  0.4068 -0.4026 -0.1648
  834SOL     OW 3333   2.105   2.458   0.599 -0.1118  0.1894 -0.1136
  834SOL    HW1 3334   2.012   2.417   0.586 -0.6847 -1.2069 -0.9965
  834SOL    HW2 3335   2.168   2.442   0.522 -1.6650 -1.1001 -0.4161
  834SOL     MW 3336   2.101   2.451   0.587 -0.3923 -0.1650 -0.2700
  835SOL     OW 3337   1.768   2.615   0.694  0.1502  0.0433  0.0897
  835SOL    HW1 3338   1.758   2.557   0.774  0.0920  0.4358  2.1723
  835SOL    HW2 3339   1.834   2.677   0.707 -3.1038 -1.5764  1.7710
  835SOL     MW 3340   1.776   2.616   0.706 -0.2868 -0.1186  0.5863
  836SOL     OW 3341   1.916   2.216   1.636 -0.5968  0.0075  0.1475
  836SOL    HW1 3342   1.998   2.259   1.660  1.2635 -2.4576  0.7744
  836SOL    HW2 3343   1.837   2.272   1.638  0.8948  1.9529 -2.0128
  836SOL     MW 3344   1.917   2.229   1.640 -0.1546 -0.0610 -0.0548
  837SOL     OW 3345   2.080   0.167   0.682 -0.0733 -0.8370  0.1009
  837SOL    HW1 3346   1.995   0.206   0.648 -2.8085 -0.4402  2.9566
  837SOL    HW2 3347   2.107   0.099   0.621  2.5829 -0.6278  0.3384
  837SOL     MW 3348   2.072   0.163   0.670 -0.0837 -0.7571  0.5090
  838SOL     OW 3349   2.923   2.068   0.924 -0.0438  0.4104  0.2534
  838SOL    HW1 3350   2.862   2.025   0.984 -1.2196  0.4805 -1.0438
  838SOL    HW2 3351   2.986   2.003   0.894  0.9659  0.1868  0.9217
  838SOL     MW 3352   2.923   2.054   0.928 -0.0657  0.3901  0.1704
  839SOL     OW 3353   1.498   2.332   0.968  0.3843 -0.3751 -0.1083
  839SOL    HW1 3354   1.464   2.399   1.029  3.4535  0.4605  1.6727
  839SOL    HW2 3355   1.563   2.286   1.024 -1.8912  1.0187  1.1221
  839SOL     MW 3356   1.502   2.335   0.984  0.4890 -0.0810  0.2890
  840SOL     OW 3357   2.373   2.135   2.431  0.0939 -0.5779 -0.1792
  840SOL    HW1 3358   2.294   2.180   2.404  3.8913 -2.2610 -1.2376
  840SOL    HW2 3359   2.415   2.194   2.495 -2.0186  0.1976  1.6230
  840SOL     MW 3360   2.368   2.149   2.436  0.3162 -0.6976 -0.0811
  841SOL     OW 3361   2.099   2.432   0.140 -0.8668  0.2001 -0.0462
  841SOL    HW1 3362   2.164   2.471   0.074  1.0297  0.7469  1.3458
  841SOL    HW2 3363   2.068   2.344   0.111  0.3699  0.9425 -0.8670
  841SOL     MW 3364   2.104   2.426   0.128 -0.4534  0.3702  0.0292
  842SOL     OW 3365   2.568   2.080   1.522 -0.3557 -0.1314 -0.4539
  842SOL    HW1 3366   2.529   1.999   1.554 -0.7936 -0.0858  3.8740
  842SOL    HW2 3367   2.515   2.103   1.451 -0.6368 -1.6885  0.6570
  842SOL     MW 3368   2.556   2.072   1.517 -0.4505 -0.3308  0.2637
  843SOL     OW 3369   2.652   2.772   1.753 -0.4069  0.8172  0.1526
  843SOL    HW1 3370   2.746   2.751   1.731  3.7262 -0.2979  0.6168
  843SOL    HW2 3371   2.607   2.684   1.738 -1.1635 -3.5616  1.8853
  843SOL     MW 3372   2.658   2.757   1.748  0.0386  0.0924  0.4425
  844SOL     OW 3373   2.593   2.327   1.150  0.0541  0.4012  0.2577
  844SOL    HW1 3374   2.621   2.357   1.060  1.1211 -2.7103  0.8106
  844SOL    HW2 3375   2.652   2.359   1.220  0.5237 -1.8621  1.1238
  844SOL     MW 3376   2.605   2.335   1.147  0.2569 -0.3079  0.4449
  845SOL     OW 3377   2.825   2.455   0.307  0.2209  0.3907  0.0949
  845SOL    HW1 3378   2.771   2.375   0.302  0.2891  1.4243  1.8837
  845SOL    HW2 3379   2.797   2.486   0.395 -3.5773  1.3139 -0.0442
  845SOL     MW 3380   2.814   2.448   0.318 -0.2712  0.6489  0.3126
  846SOL     OW 3381   1.523   2.908   0.736 -0.2378 -0.2141 -0.1658
  846SOL    HW1 3382   1.612   2.938   0.764 -0.6174  0.7697  0.2646
  846SOL    HW2 3383   1.463   2.922   0.811  2.0257 -1.2450 -1.7199
  846SOL     MW 3384   1.527   2.914   0.750  0.0108 -0.2203 -0.3141
  847SOL     OW 3385   2.615   1.920   0.178  0.4062 -0.1607  0.1478
  847SOL    HW1 3386   2.688   1.863   0.185  2.0699  0.0875 -0.2200
  847SOL    HW2 3387   2.543   1.872   0.125  0.2530  2.3256  0.9699
  847SOL     MW 3388   2.615   1.906   0.172  0.6055  0.2001  0.2078
  848SOL     OW 3389   2.424   2.115   1.294 -0.4516 -0.3444 -0.1226
  848SOL    HW1 3390   2.462   2.164   1.224  0.6582 -0.0991 -1.5343
  848SOL    HW2 3391   2.400   2.035   1.250  0.0672 -0.2803 -1.3450
  848SOL     MW 3392   2.426   2.111   1.279 -0.2367 -0.3036 -0.4701
  849SOL     OW 3393   1.972   2.775   0.735  0.2942 -0.2856 -0.1357
  849SOL    HW1 3394   2.000   2.713   0.802  0.0802  1.2145  2.4154
  849SOL    HW2 3395   2.045   2.791   0.675 -3.8284 -1.1363  2.2293
  849SOL     MW 3396   1.986   2.769   0.736 -0.2779 -0.1999  0.5130
  850SOL     OW 3397   2.190   1.972   1.685  0.0349  0.8609  0.5845
  850SOL    HW1 3398   2.100   1.939   1.659 -1.4951  0.8762  0.1968
  850SOL    HW2 3399   2.199   2.064   1.674 -0.1392 -1.3501 -1.4307
  850SOL     MW 3400   2.179   1.980   1.680 -0.1899  0.5712  0.2675
  851SOL     OW 3401   2.249   2.412   0.361 -0.1342  0.3663 -0.0134
  851SOL    HW1 3402   2.198   2.428   0.272  0.4886 -1.0180 -1.0273
  851SOL    HW2 3403   2.333   2.459   0.342  1.5202  1.4455 -0.7336
  851SOL     MW 3404   2.253   2.420   0.347  0.1662  0.3260 -0.2422
  852SOL     OW 3405   2.313   2.158   0.188  0.1587 -0.0133  0.5793
  852SOL    HW1 3406   2.331   2.218   0.259 -0.4796 -0.4239 -2.5810
  852SOL    HW2 3407   2.391   2.170   0.125 -0.6473 -1.6439  1.2250
  852SOL     MW 3408   2.326   2.167   0.189 -0.0318 -0.2826  0.2475
  853SOL     OW 3409   2.450   2.457   1.970 -0.4398  0.1612  0.0320
  853SOL    HW1 3410   2.457   2.497   1.884  1.6018 -1.9388 -1.5928
  853SOL    HW2 3411   2.536   2.434   2.003 -0.1219 -0.4554 -1.7118
  853SOL     MW 3412   2.462   2.459   1.963 -0.1285 -0.1972 -0.4125
  854SOL     OW 3413   2.814   2.269   0.779 -0.5321 -0.3470 -0.4732
  854SOL    HW1 3414   2.728   2.252   0.741 -0.5945  1.6554 -1.3529
  854SOL    HW2 3415   2.845   2.189   0.825 -1.4315  0.5072  0.4299
  854SOL     MW 3416   2.807   2.256   0.780 -0.6590  0.0299 -0.4701
  855SOL     OW 3417   2.669   2.235   0.341  0.4935  0.5790  0.4838
  855SOL    HW1 3418   2.674   2.291   0.425 -1.6038  1.9390  1.2481
  855SOL    HW2 3419   2.752   2.185   0.338 -0.9466  2.3782 -1.5872
  855SOL     MW 3420   2.681   2.236   0.352  0.0268  0.9958  0.3114
  856SOL     OW 3421   2.186   1.915   0.231  0.0053 -0.3088 -0.1934
  856SOL    HW1 3422   2.095   1.948   0.240 -0.1179  1.1022  0.2583
  856SOL    HW2 3423   2.237   1.998   0.224 -1.4377  1.0517 -1.9058
  856SOL     MW 3424   2.181   1.930   0.231 -0.2013  0.0569 -0.3598
  857SOL     OW 3425   2.595   2.017   0.474  0.0650 -0.1219  0.2600
  857SOL    HW1 3426   2.603   2.085   0.405 -1.4003  0.7817 -1.6211
  857SOL    HW2 3427   2.509   1.969   0.450 -2.2746 -3.5555 -3.2190
  857SOL     MW 3428   2.584   2.019   0.462 -0.4370 -0.4557 -0.4472
  858SOL     OW 3429   2.886   2.647   1.673 -0.0052 -0.1988  0.0600
  858SOL    HW1 3430   2.976   2.640   1.703 -1.4659  0.4894 -0.5898
  858SOL    HW2 3431   2.852   2.564   1.708  3.6628 -1.6661  0.1027
  858SOL     MW 3432   2.894   2.635   1.682  0.2860 -0.3016 -0.0201
  859SOL     OW 3433   2.124   2.505   0.871 -0.1776  0.4585  0.2388
  859SOL    HW1 3434   2.107   2.489   0.776 -2.2287  2.4678  0.8195
  859SOL    HW2 3435   2.220   2.505   0.872 -2.6968  1.2014 -0.2459
  859SOL     MW 3436   2.134   2.503   0.859 -0.7806  0.8216  0.2514
  860SOL     OW 3437   2.657   2.588   0.131 -0.2225 -0.1893  0.0818
  860SOL    HW1 3438   2.727   2.562   0.192 -0.6125  0.2626  0.7819
  860SOL    HW2 3439   2.684   2.671   0.088 -1.9195  0.8094  2.0064
  860SOL     MW 3440   2.670   2.595   0.133 -0.4978  0.0021  0.4281
  861SOL     OW 3441   1.558   2.144   1.183 -0.4765  0.4372 -0.7312
  861SOL    HW1 3442   1.565   2.227   1.238  1.0394  2.2037  3.9901
  861SOL    HW2 3443   1.508   2.083   1.232  0.2594 -0.0898 -1.4628
  861SOL     MW 3444   1.552   2.147   1.196 -0.1794  0.6007 -0.2048
  862SOL     OW 3445   2.425   1.827   1.541  0.3005 -1.2511  0.7764
  862SOL    HW1 3446   2.358   1.890   1.573  2.3288 -0.8027 -1.9844
  862SOL    HW2 3447   2.439   1.860   1.449  2.2347 -1.7100  1.7069
  862SOL     MW 3448   2.418   1.840   1.533  0.8233 -1.2525  0.5349
  863SOL     OW 3449   0.027   1.830   1.161  0.2426  0.6878 -0.7349
  863SOL    HW1 3450   0.117   1.846   1.132  0.0987  2.8052  2.2372
  863SOL    HW2 3451  -0.004   1.902   1.211  0.5095  2.4225 -1.5161
  863SOL     MW 3452   0.035   1.842   1.164  0.2588  1.1960 -0.4458
  864SOL     OW 3453   0.023   1.850   0.837  0.2916  0.5570  0.8441
  864SOL    HW1 3454  -0.048   1.805   0.887  0.1400 -0.8736 -1.9568
  864SOL    HW2 3455   0.005   1.814   0.743  1.2294  0.6987  2.2251
  864SOL     MW 3456   0.011   1.839   0.831  0.3954  0.3870  0.6567
  865SOL     OW 3457   2.562   2.166   0.045  0.6004 -0.3605 -0.2871
  865SOL    HW1 3458   2.603   2.101   0.102 -0.5324  1.5602 -0.9293
  865SOL    HW2 3459   2.563   2.126  -0.042 -0.0113  1.1807  0.6499
  865SOL     MW 3460   2.568   2.152   0.041  0.3702  0.0963 -0.2482
  866SOL     OW 3461   2.640   2.340   1.632  0.2477 -0.3945  0.2646
  866SOL    HW1 3462   2.603   2.250   1.609 -1.8021 -0.2107  1.0632
  866SOL    HW2 3463   2.648   2.387   1.550 -1.4038  0.7842  0.4104
  866SOL     MW 3464   2.636   2.334   1.618 -0.2406 -0.2147  0.3892
  867SOL     OW 3465   0.040   2.688   1.823 -0.3549 -0.5213 -0.5503
  867SOL    HW1 3466   0.032   2.658   1.916  2.1273 -2.5538  1.8254
  867SOL    HW2 3467  -0.001   2.778   1.821  1.2288 -0.6800  0.8484
  867SOL     MW 3468   0.033   2.696   1.835  0.1816 -0.8104 -0.0523
  868SOL     OW 3469   2.798   2.587   0.544 -0.1142  0.0214 -0.6412
  868SOL    HW1 3470   2.707   2.550   0.543 -0.0403 -1.1703  1.2914
  868SOL    HW2 3471   2.784   2.663   0.491  2.0257 -0.4286  0.8575
  868SOL     MW 3472   2.784   2.592   0.537  0.1779 -0.1952 -0.1885
  869SOL     OW 3473   1.981   2.383   1.070 -0.1225  0.6764  0.8661
  869SOL    HW1 3474   2.017   2.447   1.010 -0.6600  1.6942  0.0202
  869SOL    HW2 3475   1.962   2.305   1.014 -1.3989 -1.5709 -2.7960
  869SOL     MW 3476   1.983   2.381   1.055 -0.3618  0.5142  0.2713
  870SOL     OW 3477   2.182   0.009   0.466  0.2687  0.6035 -0.2938
  870SOL    HW1 3478   2.248   0.068   0.419  0.2212 -2.6078 -1.3995
  870SOL    HW2 3479   2.199  -0.084   0.437 -4.3295 -0.7845  1.2909
  870SOL     MW 3480   2.193   0.004   0.456 -0.3443 -0.0034 -0.2306
  871SOL     OW 3481   2.509   2.076   0.929  0.2358 -0.1768  0.9739
  871SOL    HW1 3482   2.438   2.036   0.875 -0.9242  1.4841 -1.0207
  871SOL    HW2 3483   2.468   2.157   0.954  0.2147 -0.3444 -0.9368
  871SOL     MW 3484   2.494   2.082   0.925  0.0800  0.0202  0.4586
  872SOL     OW 3485   2.055   2.534   1.425  0.1959  0.4856 -0.0369
  872SOL    HW1 3486   2.017   2.588   1.499  0.8539  0.5002  1.6082
  872SOL    HW2 3487   1.989   2.469   1.407 -1.4565  0.4702  0.8830
  872SOL     MW 3488   2.042   2.533   1.432  0.0647  0.4855  0.3015
  873SOL     OW 3489   2.870   2.076   1.950  1.2954  0.4256 -0.3252
  873SOL    HW1 3490   2.905   2.142   2.008 -1.3314  0.0133  1.1765
  873SOL    HW2 3491   2.931   2.075   1.870  1.5632 -0.5923 -2.4782
  873SOL     MW 3492   2.883   2.085   1.947  0.9842  0.2369 -0.4111
  874SOL     OW 3493   2.371   1.546   2.433 -0.3873 -0.1799 -0.5503
  874SOL    HW1 3494   2.336   1.548   2.345  0.4767  0.0568 -2.9497
  874SOL    HW2 3495   2.444   1.482   2.445  3.5041 -1.1588  0.8326
  874SOL     MW 3496   2.376   1.538   2.423  0.2401 -0.2778 -0.6844
  875SOL     OW 3497   2.279   2.283   1.037 -0.0141 -0.0387  0.4161
  875SOL    HW1 3498   2.254   2.326   0.958 -2.4505 -0.2882  1.8469
  875SOL    HW2 3499   2.287   2.362   1.089  1.6566  1.6911  0.3733
  875SOL     MW 3500   2.277   2.299   1.034 -0.1151  0.1566  0.5992
  876SOL     OW 3501   3.033   2.344   1.246 -0.0009 -0.1728 -0.0701
  876SOL    HW1 3502   3.076   2.367   1.161  2.8169 -1.7860 -3.5688
  876SOL    HW2 3503   3.097   2.361   1.314 -0.5496  1.0599 -0.6796
  876SOL     MW 3504   3.047   2.350   1.244  0.2985 -0.2230 -0.6121
  877SOL     OW 3505   3.066   2.757   0.395  0.6348  0.4620  0.1523
  877SOL    HW1 3506   3.110   2.837   0.370 -4.7796  2.4470  0.1403
  877SOL    HW2 3507   3.081   2.706   0.315 -0.5132 -0.2124  0.1740
  877SOL     MW 3508   3.074   2.760   0.381 -0.2310  0.6349  0.1535
  878SOL     OW 3509   2.377   1.843   1.242  0.2297 -0.0839 -0.1823
  878SOL    HW1 3510   2.333   1.778   1.295  1.6809 -2.2263 -0.4822
  878SOL    HW2 3511   2.461   1.806   1.225  1.7594  0.0010  2.2089
  878SOL     MW 3512   2.382   1.830   1.247  0.6230 -0.3554  0.0936
  879SOL     OW 3513   2.669   2.456   0.920 -0.1076  0.2860  0.0974
  879SOL    HW1 3514   2.740   2.493   0.970 -2.2093  1.3245  0.7220
  879SOL    HW2 3515   2.719   2.381   0.878 -0.0801 -3.6970  1.2212
  879SOL     MW 3516   2.685   2.451   0.921 -0.3812 -0.1025  0.3281
  880SOL     OW 3517   2.576   2.200   0.697 -0.0058  0.5469 -0.5612
  880SOL    HW1 3518   2.556   2.147   0.780  1.1576  2.0302 -1.3425
  880SOL    HW2 3519   2.592   2.134   0.634  1.2682 -1.4266  0.8605
  880SOL     MW 3520   2.575   2.184   0.700  0.3158  0.4822 -0.4767
  881SOL     OW 3521   2.955   2.689   0.759 -0.0328 -0.0145 -0.3614
  881SOL    HW1 3522   2.898   2.631   0.705  0.1863 -2.0971 -2.5161
  881SOL    HW2 3523   3.045   2.659   0.746  1.0660  0.2447  0.4290
  881SOL     MW 3524   2.959   2.677   0.750  0.1411 -0.2551 -0.5414
  882SOL     OW 3525   2.289   2.823   1.968 -0.7081  0.2929  0.2250
  882SOL    HW1 3526   2.272   2.839   1.875  1.7392  1.6357  0.8082
  882SOL    HW2 3527   2.238   2.760   2.016  0.5132  0.2856  2.0603
  882SOL     MW 3528   2.280   2.817   1.962 -0.2241  0.4691  0.5441
  883SOL     OW 3529   2.289   2.312   1.432  0.1031 -0.2146 -0.1106
  883SOL    HW1 3530   2.350   2.247   1.399  0.8405 -0.7079  1.4049
  883SOL    HW2 3531   2.202   2.290   1.389  0.1416  0.9357  0.9809
  883SOL     MW 3532   2.285   2.301   1.422  0.2054 -0.1279  0.2334
  884SOL     OW 3533   1.947   1.871   1.125  0.5333 -0.2576 -0.1082
  884SOL    HW1 3534   1.877   1.938   1.098 -1.5209 -1.1349 -0.8136
  884SOL    HW2 3535   2.032   1.921   1.124 -0.4920  0.3718  1.2068
  884SOL     MW 3536   1.949   1.886   1.121  0.1270 -0.2903 -0.0278
  885SOL     OW 3537   2.827   2.411   1.801  0.7580  0.3602 -0.1714
  885SOL    HW1 3538   2.905   2.355   1.800 -1.9949  0.6652  0.7340
  885SOL    HW2 3539   2.760   2.368   1.736 -0.1413  0.3304 -1.8505
  885SOL     MW 3540   2.829   2.398   1.793  0.2761  0.3965 -0.2735
  886SOL     OW 3541   2.773   2.388   1.377  0.8643  0.0164 -0.5793
  886SOL    HW1 3542   2.861   2.364   1.354 -0.8287  0.0029 -0.1577
  886SOL    HW2 3543   2.772   2.484   1.382 -2.1366  0.3299  0.8529
  886SOL     MW 3544   2.784   2.397   1.375  0.2450  0.0560 -0.3347
  887SOL     OW 3545   2.333   2.627   1.508 -0.2303  0.0946 -0.1895
  887SOL    HW1 3546   2.359   2.690   1.436 -1.2112 -3.6169 -0.3174
  887SOL    HW2 3547   2.247   2.591   1.484  0.2137 -0.1445  3.6372
  887SOL     MW 3548   2.325   2.631   1.495 -0.3011 -0.4266  0.2986
  888SOL     OW 3549   1.881   2.053   1.404  0.0522  0.0958 -0.2820
  888SOL    HW1 3550   1.948   2.092   1.344 -0.5393  1.7701 -2.6119
  888SOL    HW2 3551   1.914   2.085   1.485  2.3456 -0.4504 -0.8397
  888SOL     MW 3552   1.894   2.063   1.407  0.2768  0.2447 -0.6630
  889SOL     OW 3553   2.325   1.990   2.117 -0.5899 -0.2226  0.0904
  889SOL    HW1 3554   2.415   1.985   2.147  0.6397 -0.0430 -0.2228
  889SOL    HW2 3555   2.327   2.067   2.061 -2.8703 -1.4177 -0.8792
  889SOL     MW 3556   2.337   1.999   2.114 -0.7286 -0.3566 -0.0788
  890SOL     OW 3557   0.101   2.339   0.193 -0.4169  0.3153  0.7294
  890SOL    HW1 3558   0.044   2.414   0.194 -1.0191  1.8948 -1.2922
  890SOL    HW2 3559   0.085   2.290   0.277  0.1142 -1.4904 -0.5423
  890SOL     MW 3560   0.091   2.342   0.205 -0.4263  0.2854  0.2948
  891SOL     OW 3561   2.979   2.026   1.297 -0.0022  0.1649  0.0306
  891SOL    HW1 3562   3.059   2.046   1.349 -0.6973  0.6449 -0.1063
  891SOL    HW2 3563   2.958   2.105   1.245 -1.0046  2.8166 -0.8516
  891SOL     MW 3564   2.987   2.039   1.297 -0.2262  0.5781 -0.1039
  892SOL     OW 3565   2.405   2.358   2.902  0.4904  0.1872 -0.6806
  892SOL    HW1 3566   2.391   2.261   2.887 -0.3775 -1.0583  0.7955
  892SOL    HW2 3567   2.496   2.369   2.890 -1.6361 -1.3631 -4.0584
  892SOL     MW 3568   2.415   2.347   2.898  0.0953 -0.1817 -0.9315
  893SOL     OW 3569   1.578   2.419   1.248  0.2517 -0.5466  0.0810
  893SOL    HW1 3570   1.520   2.448   1.324  0.7112 -1.1812 -0.6674
  893SOL    HW2 3571   1.668   2.413   1.273 -2.6215  1.2939 -0.2376
  893SOL     MW 3572   1.582   2.422   1.262 -0.0668 -0.3875 -0.0598
  894SOL     OW 3573   2.831   1.850   0.437 -0.1203 -0.7422 -0.5228
  894SOL    HW1 3574   2.743   1.862   0.477 -4.5229  1.5069  1.6487
  894SOL    HW2 3575   2.820   1.821   0.345 -1.5765 -0.9869  1.3258
  894SOL     MW 3576   2.818   1.848   0.430 -0.8933 -0.4777  0.0076
  895SOL     OW 3577   2.105   2.214   1.265 -0.2605  0.5245  0.7090
  895SOL    HW1 3578   2.084   2.279   1.194  1.4998 -1.3883  2.2214
  895SOL    HW2 3579   2.157   2.140   1.224  0.5073  0.1591  2.2949
  895SOL     MW 3580   2.109   2.213   1.250  0.0730  0.2239  1.1178
  896SOL     OW 3581   2.172   2.831   1.111  0.3370 -0.2974 -0.4989
  896SOL    HW1 3582   2.233   2.834   1.179 -2.3039  0.0756 -0.5998
  896SOL    HW2 3583   2.100   2.773   1.148  1.5733 -0.4697  0.7970
  896SOL     MW 3584   2.170   2.824   1.125  0.1517 -0.2709 -0.3412
  897SOL     OW 3585   2.975   2.896   0.112  0.2590 -0.3395 -0.4415
  897SOL    HW1 3586   3.058   2.853   0.119 -1.0553  0.2250  0.2351
  897SOL    HW2 3587   2.916   2.826   0.088 -0.8114  5.0921 -0.8432
  897SOL     MW 3588   2.978   2.881   0.110 -0.0557  0.4516 -0.4053
  898SOL     OW 3589   2.091   0.179   1.442 -0.0224  0.2540 -0.3931
  898SOL    HW1 3590   2.029   0.109   1.439  0.8888  1.1957 -0.2390
  898SOL    HW2 3591   2.096   0.209   1.348 -2.0903 -0.4755 -0.9209
  898SOL     MW 3592   2.084   0.173   1.429 -0.1750  0.2820 -0.4424
  899SOL     OW 3593   2.890   2.936   0.662  0.2457 -0.1208  0.1983
  899SOL    HW1 3594   2.912   2.848   0.701 -1.3497 -0.7487  0.2054
  899SOL    HW2 3595   2.798   2.955   0.690  0.0657 -0.8113  0.0759
  899SOL     MW 3596   2.881   2.927   0.671  0.0115 -0.2947  0.1831
  900SOL     OW 3597   0.123   2.398   1.027 -0.3090 -0.4254 -0.3650
  900SOL    HW1 3598   0.131   2.495   1.013 -0.6798  0.0295  3.1528
  900SOL    HW2 3599   0.134   2.350   0.940  1.9425  2.1377 -0.7027
  900SOL     MW 3600   0.126   2.404   1.014 -0.0609 -0.0272  0.0546
  901SOL     OW 3601   1.799   2.896   1.669  0.3139 -0.4766 -0.2495
  901SOL    HW1 3602   1.853   2.816   1.665 -0.9911  0.7260  1.0767
  901SOL    HW2 3603   1.720   2.881   1.613 -1.5183 -3.6549 -0.7706
  901SOL     MW 3604   1.796   2.883   1.661 -0.1000 -0.7373 -0.1433
  902SOL     OW 3605   2.591   2.061   1.864  0.0918  0.4432 -0.0346
  902SOL    HW1 3606   2.603   1.971   1.840 -1.7127  1.3795  0.4409
  902SOL    HW2 3607   2.675   2.090   1.898  0.4750  0.4226  0.6723
  902SOL     MW 3608   2.604   2.053   1.865 -0.0957  0.5640  0.1214
  903SOL     OW 3609   1.590   2.761   0.506  0.5271  0.5395  0.5708
  903SOL    HW1 3610   1.636   2.684   0.547  0.0870 -2.3551 -0.8179
  903SOL    HW2 3611   1.554   2.811   0.576 -2.9030 -0.0192 -3.3763
  903SOL     MW 3612   1.591   2.758   0.520  0.0165  0.0839 -0.1332
  904SOL     OW 3613   2.500   2.552   1.712 -0.1196 -0.5360  0.1248
  904SOL    HW1 3614   2.440   2.571   1.641  2.4014 -0.0240  0.3647
  904SOL    HW2 3615   2.545   2.474   1.683 -0.5759  2.7035 -0.7633
  904SOL     MW 3616   2.498   2.544   1.699  0.1528 -0.0411  0.0393
  905SOL     OW 3617   2.317   2.495   2.211  0.1783 -0.3058 -0.0657
  905SOL    HW1 3618   2.331   2.455   2.128 -0.8562  0.6834 -0.2943
  905SOL    HW2 3619   2.267   2.425   2.259  1.8132  2.5390 -0.7930
  905SOL     MW 3620   2.312   2.480   2.206  0.2575  0.2001 -0.1918
  906SOL     OW 3621   2.395   2.485   0.851 -0.0503  0.2225  0.5432
  906SOL    HW1 3622   2.488   2.462   0.849  0.9520  3.7807  1.1672
  906SOL    HW2 3623   2.389   2.578   0.873  0.7235  1.3617 -1.1345
  906SOL     MW 3624   2.407   2.494   0.854  0.1841  0.8423  0.4042
  907SOL     OW 3625   2.577   2.922   1.279 -0.2308  0.0664 -0.2752
  907SOL    HW1 3626   2.650   2.944   1.336 -1.2014 -1.0299  1.3918
  907SOL    HW2 3627   2.614   2.888   1.201 -0.1603 -1.2641  0.4292
  907SOL     MW 3628   2.592   2.920   1.276 -0.3495 -0.2538  0.0377
  908SOL     OW 3629   2.752   2.374   3.084  0.4480  0.3022 -0.0846
  908SOL    HW1 3630   2.689   2.305   3.118  2.6360  1.3063 -2.7373
  908SOL    HW2 3631   2.722   2.453   3.123  2.3227  0.9017 -1.1457
  908SOL     MW 3632   2.740   2.376   3.094  0.9840  0.5138 -0.5746
  909SOL     OW 3633   1.582   0.181   1.103  0.2820  0.0292 -0.3493
  909SOL    HW1 3634   1.620   0.242   1.039  2.2119 -1.6977  1.1598
  909SOL    HW2 3635   1.541   0.230   1.171 -0.5516  2.5036 -1.1554
  909SOL     MW 3636   1.581   0.196   1.103  0.4266  0.1278 -0.2566
  910SOL     OW 3637   2.314   1.743   0.394 -0.4246 -0.3029  0.5710
  910SOL    HW1 3638   2.239   1.689   0.406 -1.4663  1.4862  1.0711
  910SOL    HW2 3639   2.277   1.814   0.333 -0.0580  0.5128 -1.7044
  910SOL     MW 3640   2.299   1.745   0.387 -0.5137  0.0408  0.3368
  911SOL     OW 3641   2.225   2.261   1.691  0.2858 -0.4209  0.2265
  911SOL    HW1 3642   2.288   2.244   1.759 -2.8718  0.3381  0.1984
  911SOL    HW2 3643   2.261   2.279   1.599 -0.0746  1.1859 -1.0934
  911SOL     MW 3644   2.238   2.261   1.688 -0.1784 -0.1087  0.0487
  912SOL     OW 3645   2.831   1.953   1.519 -0.0633  0.0830  0.5301
  912SOL    HW1 3646   2.875   1.977   1.437  2.8359 -0.9057 -0.5822
  912SOL    HW2 3647   2.758   2.012   1.537  0.2801  1.1069  0.5403
  912SOL     MW 3648   2.827   1.964   1.510  0.3645  0.0877  0.3847
  913SOL     OW 3649   2.545   2.969   0.423  0.3650  0.1451 -0.4945
  913SOL    HW1 3650   2.622   2.909   0.425 -0.4974 -2.2025 -0.0429
  913SOL    HW2 3651   2.463   2.919   0.424 -0.0294  0.9135  1.3003
  913SOL     MW 3652   2.544   2.955   0.423  0.1992 -0.0633 -0.1981
  914SOL     OW 3653   2.748   1.626   3.061 -0.3284  0.1326  0.0697
  914SOL    HW1 3654   2.745   1.709   3.009  1.9117 -3.1597  0.2829
  914SOL    HW2 3655   2.665   1.624   3.113  4.6418 -1.9840 -0.8440
  914SOL     MW 3656   2.737   1.637   3.061  0.6230 -0.5810 -0.0227
  915SOL     OW 3657   1.818   0.249   0.180 -0.2294  0.0639 -0.1061
  915SOL    HW1 3658   1.878   0.179   0.198 -3.0692 -0.3384  0.9443
  915SOL    HW2 3659   1.729   0.228   0.211 -1.4780  0.8361 -3.5356
  915SOL     MW 3660   1.814   0.237   0.186 -0.7688  0.1127 -0.4200
  916SOL     OW 3661   1.725   2.076   1.945 -0.1022  0.4454  0.7481
  916SOL    HW1 3662   1.768   2.165   1.929 -1.7044  0.8451 -1.9403
  916SOL    HW2 3663   1.731   2.027   1.863  0.5373  0.0294  0.2663
  916SOL     MW 3664   1.732   2.082   1.932 -0.2292  0.4433  0.3298
  917SOL     OW 3665   2.448   2.321   2.628 -0.0654  0.2006 -0.7990
  917SOL    HW1 3666   2.426   2.370   2.704  0.5954  0.3639 -0.5068
  917SOL    HW2 3667   2.524   2.368   2.592  2.8187 -2.8318  1.3895
  917SOL     MW 3668   2.455   2.333   2.633  0.4023 -0.1780 -0.4717
  918SOL     OW 3669   2.060   1.649   2.703 -0.2698  0.0830 -0.1881
  918SOL    HW1 3670   1.991   1.694   2.653  0.1938  0.3757  3.1180
  918SOL    HW2 3671   2.150   1.694   2.677  2.4334  0.1623 -2.0893
  918SOL     MW 3672   2.062   1.661   2.693  0.1480  0.1321 -0.0027
  919SOL     OW 3673   0.067   2.369   2.258  0.0326 -0.4814 -0.2530
  919SOL    HW1 3674  -0.014   2.314   2.245  0.6382  1.4841  0.4898
  919SOL    HW2 3675   0.126   2.362   2.182 -1.0064 -0.1302 -0.0449
  919SOL     MW 3676   0.064   2.361   2.247 -0.0246 -0.1757 -0.1276
  920SOL     OW 3677   2.763   2.794   3.092  0.2682  0.1074  0.2120
  920SOL    HW1 3678   2.686   2.844   3.129  0.6818 -2.8231 -1.1818
  920SOL    HW2 3679   2.745   2.781   2.996  0.6091 -0.3771 -2.8590
  920SOL     MW 3680   2.750   2.799   3.085  0.3678 -0.3432 -0.3771
  921SOL     OW 3681   2.466   2.626   2.661  0.0411 -0.1890  0.3791
  921SOL    HW1 3682   2.505   2.633   2.570  0.0894  1.6706  2.9354
  921SOL    HW2 3683   2.516   2.560   2.715 -3.4560 -0.4015 -0.5606
  921SOL     MW 3684   2.478   2.618   2.656 -0.4139  0.0283  0.5924
  922SOL     OW 3685   1.986   2.771   0.303 -0.4928  0.0337  0.3778
  922SOL    HW1 3686   1.998   2.770   0.206  0.3567 -0.9932 -2.5595
  922SOL    HW2 3687   1.923   2.704   0.312  2.9412  1.3117  0.5669
  922SOL     MW 3688   1.980   2.762   0.292  0.0724  0.0668  0.0152
  923SOL     OW 3689   2.221   2.810   1.706  0.0588  0.0286 -0.1240
  923SOL    HW1 3690   2.289   2.763   1.650  1.0812  1.3985 -0.7555
  923SOL    HW2 3691   2.199   2.887   1.647 -1.8791 -0.1903 -1.4663
  923SOL     MW 3692   2.227   2.814   1.691 -0.0620  0.1804 -0.3844
  924SOL     OW 3693   1.213   2.735   2.587 -0.0743 -0.3016 -0.1289
  924SOL    HW1 3694   1.264   2.774   2.513  0.2004 -2.4150  0.6930
  924SOL    HW2 3695   1.276   2.671   2.621  0.2132 -0.8386 -0.0967
  924SOL     MW 3696   1.228   2.732   2.582 -0.0001 -0.6513 -0.0162
  925SOL     OW 3697   2.956   0.196   2.584  0.0442  0.5839 -0.0314
  925SOL    HW1 3698   3.006   0.246   2.519  2.4304  3.9326 -2.1083
  925SOL    HW2 3699   2.884   0.258   2.610  0.5587  2.5435 -1.9699
  925SOL     MW 3700   2.953   0.211   2.579  0.4269  1.2842 -0.5612
  926SOL     OW 3701   2.715   2.410   2.077  0.2874  0.0093 -0.3535
  926SOL    HW1 3702   2.753   2.465   2.144 -0.8597 -1.4279 -0.2139
  926SOL    HW2 3703   2.767   2.422   1.998 -1.2241  0.2777  0.6683
  926SOL     MW 3704   2.727   2.419   2.075 -0.0634 -0.1449 -0.2003
  927SOL     OW 3705   2.367   0.158   0.314 -0.5792  0.4069  0.0385
  927SOL    HW1 3706   2.459   0.162   0.298  0.5516  0.3945  0.8560
  927SOL    HW2 3707   2.328   0.156   0.229  0.3911 -0.6531  1.4470
  927SOL     MW 3708   2.374   0.158   0.301 -0.3019  0.2654  0.3322
  928SOL     OW 3709   2.075   2.463   1.827 -0.1181 -0.5329  0.8059
  928SOL    HW1 3710   2.145   2.411   1.789 -0.5517  0.1535 -0.7490
  928SOL    HW2 3711   2.115   2.507   1.899  0.6059 -1.4042 -1.2122
  928SOL     MW 3712   2.089   2.462   1.832 -0.0797 -0.5573  0.3345
  929SOL     OW 3713   2.676   2.378   2.443 -0.5493 -0.0723 -0.2213
  929SOL    HW1 3714   2.714   2.375   2.360 -1.3420 -0.3866  0.6101
  929SOL    HW2 3715   2.724   2.325   2.509 -2.1782  0.4652 -2.0155
  929SOL     MW 3716   2.687   2.371   2.441 -0.8688 -0.0429 -0.3483
  930SOL     OW 3717   2.013   2.908   2.653  0.1991 -0.5782 -0.3328
  930SOL    HW1 3718   2.014   2.856   2.739  0.6893 -2.1115  1.4939
  930SOL    HW2 3719   2.091   2.955   2.642 -0.5563 -1.7775  1.6052
  930SOL     MW 3720   2.023   2.908   2.663  0.1641 -0.9387  0.1639
  931SOL     OW 3721   2.952   2.804   2.254  0.2536  0.4103 -0.0456
  931SOL    HW1 3722   3.019   2.837   2.316  0.9548 -2.1905  1.9845
  931SOL    HW2 3723   2.946   2.865   2.185 -0.9902 -0.0511 -2.3685
  931SOL     MW 3724   2.960   2.817   2.253  0.1821  0.0063 -0.0842
  932SOL     OW 3725   2.891   1.917   2.550  0.8328  0.6141 -0.3396
  932SOL    HW1 3726   2.964   1.976   2.578  2.4301  1.2296 -0.4213
  932SOL    HW2 3727   2.862   1.936   2.458 -2.9184  2.5546  0.5705
  932SOL     MW 3728   2.897   1.928   2.541  0.5486  0.9514 -0.2303
  933SOL     OW 3729   2.073   2.869   2.231  0.2684  0.3262  0.0043
  933SOL    HW1 3730   2.146   2.924   2.267  2.5835 -1.2115  0.7895
  933SOL    HW2 3731   1.999   2.927   2.213  0.5897 -0.6745 -0.2190
  933SOL     MW 3732   2.073   2.884   2.234  0.6162 -0.0087  0.0784
  934SOL     OW 3733   1.995   2.745   2.443 -0.1215 -0.4289  0.2114
  934SOL    HW1 3734   2.008   2.821   2.506 -0.3987 -0.8358 -0.9521
  934SOL    HW2 3735   2.011   2.786   2.357 -0.6832  1.0598 -0.6708
  934SOL     MW 3736   1.999   2.761   2.440 -0.2322 -0.2862 -0.0585
  935SOL     OW 3737   2.642   1.535   1.796  0.3923 -0.0508 -0.2856
  935SOL    HW1 3738   2.727   1.517   1.748  0.7152  1.7216  0.4758
  935SOL    HW2 3739   2.575   1.543   1.724 -1.5342  1.6706 -1.2211
  935SOL     MW 3740   2.644   1.533   1.780  0.1807  0.4102 -0.3085
  936SOL     OW 3741   2.993   2.244   3.091 -0.0142 -0.3826 -0.0009
  936SOL    HW1 3742   3.067   2.280   3.143  1.5983 -0.7458  0.0799
  936SOL    HW2 3743   2.917   2.303   3.115 -1.2041  0.2083 -1.8769
  936SOL     MW 3744   2.992   2.256   3.101  0.0416 -0.3526 -0.2377
  937SOL     OW 3745   2.049   2.179   2.688 -0.1231  0.2839  0.4845
  937SOL    HW1 3746   2.132   2.163   2.729 -2.6932  0.4982 -3.6690
  937SOL    HW2 3747   2.056   2.132   2.602 -1.7503 -0.0750  2.0183
  937SOL     MW 3748   2.061   2.171   2.682 -0.6769  0.2648  0.1388
  938SOL     OW 3749   2.300   1.812   1.923  0.0269 -0.3495 -0.1780
  938SOL    HW1 3750   2.250   1.859   1.849  1.1587  0.3206 -1.3440
  938SOL    HW2 3751   2.299   1.884   1.987 -1.0261 -0.0872  0.1282
  938SOL     MW 3752   2.294   1.828   1.922  0.0373 -0.2265 -0.2914
  939SOL     OW 3753   2.816   1.991   2.303 -0.0082 -0.1491 -0.7799
  939SOL    HW1 3754   2.816   1.935   2.227 -1.4437 -1.4628  0.6916
  939SOL    HW2 3755   2.723   2.017   2.302  0.9942  0.5362 -0.1958
  939SOL     MW 3756   2.804   1.987   2.293 -0.0653 -0.2320 -0.5087
  940SOL     OW 3757   2.314   0.142   2.713 -0.2664  0.3118 -0.7264
  940SOL    HW1 3758   2.290   0.048   2.683 -1.3280 -0.1497  0.4858
  940SOL    HW2 3759   2.387   0.124   2.773  1.8548 -0.4800  1.5119
  940SOL     MW 3760   2.321   0.127   2.717 -0.1266  0.1464 -0.2712
  941SOL     OW 3761   0.212   2.320   2.045 -0.1182 -0.6547  0.3855
  941SOL    HW1 3762   0.281   2.246   2.054 -4.0379 -0.0010 -0.6244
  941SOL    HW2 3763   0.239   2.368   1.969 -0.0515  1.7476 -1.9229
  941SOL     MW 3764   0.225   2.317   2.036 -0.6266 -0.2515 -0.0523
  942SOL     OW 3765   2.934   2.228   2.184  0.5068 -0.0059  0.2357
  942SOL    HW1 3766   2.871   2.285   2.147  0.6408  1.0543 -1.6445
  942SOL    HW2 3767   2.898   2.156   2.234  2.0359  2.8459 -1.8657
  942SOL     MW 3768   2.921   2.226   2.186  0.7262  0.5103 -0.2896
  943SOL     OW 3769   0.405   1.992   2.274 -0.0873  0.2456  0.1879
  943SOL    HW1 3770   0.351   2.039   2.341  0.5553  0.0181 -0.3152
  943SOL    HW2 3771   0.493   1.998   2.311  3.0228 -0.5718 -1.9225
  943SOL     MW 3772   0.410   1.999   2.288  0.4079  0.1077 -0.1569
  944SOL     OW 3773   2.106   2.634   2.099  0.1444  0.4718  0.2278
  944SOL    HW1 3774   2.165   2.571   2.145 -1.3484  1.4797  0.5573
  944SOL    HW2 3775   2.095   2.715   2.148 -0.3152  0.5771 -0.0684
  944SOL     MW 3776   2.112   2.636   2.111 -0.1132  0.6187  0.2322
  945SOL     OW 3777   2.782   2.718   2.840  0.2049 -0.1199 -0.4308
  945SOL    HW1 3778   2.741   2.629   2.828  2.2798 -1.3190 -0.7193
  945SOL    HW2 3779   2.800   2.734   2.747 -0.9209 -1.0266  1.1749
  945SOL     MW 3780   2.779   2.709   2.826  0.3301 -0.3977 -0.2570
  946SOL     OW 3781   2.450   2.734   2.271  0.1508 -0.1241 -0.2248
  946SOL    HW1 3782   2.511   2.746   2.200 -0.4396  0.9808  0.4233
  946SOL    HW2 3783   2.407   2.656   2.246  0.5261  0.1070  2.8206
  946SOL     MW 3784   2.453   2.725   2.258  0.1224  0.0522  0.2626
  947SOL     OW 3785   2.005   0.065   0.229 -0.2069  0.5896  0.3981
  947SOL    HW1 3786   2.070   0.004   0.183  2.2432 -0.0472 -1.3859
  947SOL    HW2 3787   2.018   0.040   0.325 -2.8430 -0.1915 -3.4627
  947SOL     MW 3788   2.016   0.054   0.236 -0.2315  0.4025 -0.3467
  948SOL     OW 3789   1.796   3.067   2.653  0.0006 -0.2307  0.1568
  948SOL    HW1 3790   1.867   2.996   2.647  0.3661  0.2849 -0.5430
  948SOL    HW2 3791   1.799   3.099   2.563  0.3201 -0.3903  1.9231
  948SOL     MW 3792   1.805   3.062   2.640  0.0910 -0.1837  0.2975
  949SOL     OW 3793   2.544   1.973   2.288  0.5810 -0.3445  0.2822
  949SOL    HW1 3794   2.550   1.883   2.335 -1.2550 -5.0770 -0.2554
  949SOL    HW2 3795   2.504   2.038   2.346 -0.8406  0.5777  0.9630
  949SOL     MW 3796   2.539   1.970   2.302  0.1512 -0.8472  0.3011
  950SOL     OW 3797   2.257   2.569   3.020  0.0442 -0.1795  0.1728
  950SOL    HW1 3798   2.304   2.482   2.999  2.4622  0.4792 -0.2583
  950SOL    HW2 3799   2.202   2.581   2.945 -0.5583 -0.0785 -1.7536
  950SOL     MW 3800   2.256   2.559   3.007  0.2837 -0.0793 -0.1383
  951SOL     OW 3801   2.969   2.084   2.831 -0.0229  0.5960  0.1430
  951SOL    HW1 3802   3.004   2.148   2.889  3.3327  0.8271 -0.5696
  951SOL    HW2 3803   3.024   2.068   2.753 -2.1066 -0.1871 -2.6163
  951SOL     MW 3804   2.981   2.090   2.829  0.1449  0.5232 -0.3151
  952SOL     OW 3805   3.071   1.705   2.115 -0.2561  1.2487  0.4973
  952SOL    HW1 3806   2.984   1.739   2.091 -0.0211  1.9886 -0.3510
  952SOL    HW2 3807   3.123   1.784   2.104 -2.1132 -0.3378 -0.5609
  952SOL     MW 3808   3.066   1.720   2.111 -0.4701  1.1370  0.2457
  953SOL     OW 3809   1.947   1.799   2.939 -1.0442 -0.6277 -0.0895
  953SOL    HW1 3810   1.858   1.753   2.936  0.0777  0.7418 -1.7903
  953SOL    HW2 3811   1.998   1.734   2.886 -0.3825 -1.8553 -2.5108
  953SOL     MW 3812   1.942   1.784   2.931 -0.8089 -0.6090 -0.6333
  954SOL     OW 3813   2.475   2.090   2.881 -0.4529 -0.5778 -0.3508
  954SOL    HW1 3814   2.389   2.063   2.855  0.5515 -1.6229  3.2650
  954SOL    HW2 3815   2.530   2.079   2.805  0.3818  1.0035 -0.2106
  954SOL     MW 3816   2.471   2.085   2.867 -0.2102 -0.5070  0.1448
  955SOL     OW 3817   1.587   1.635   2.523  0.4451  0.0866  0.4667
  955SOL    HW1 3818   1.574   1.641   2.427  0.8524  0.0159 -0.9929
  955SOL    HW2 3819   1.670   1.671   2.536 -4.8978 -0.8611  0.4077
  955SOL     MW 3820   1.596   1.640   2.512 -0.2061 -0.0478  0.2663
  956SOL     OW 3821   2.647   2.470   2.838  0.5807  0.1450  0.2572
  956SOL    HW1 3822   2.694   2.452   2.919 -1.3335  0.2443 -2.1791
  956SOL    HW2 3823   2.675   2.396   2.785  0.6786 -2.7771  2.2861
  956SOL     MW 3824   2.657   2.458   2.842  0.3411 -0.2274  0.2034
  957SOL     OW 3825   2.260   2.832   0.392 -0.3465  0.5473  0.1217
  957SOL    HW1 3826   2.174   2.817   0.356 -1.8326  1.1863  0.0249
  957SOL    HW2 3827   2.260   2.793   0.478  0.6826  2.1476  1.7530
  957SOL     MW 3828   2.249   2.825   0.398 -0.4068  0.8428  0.3241
  958SOL     OW 3829   2.002   2.671   2.826 -0.1246 -0.6282  0.1241
  958SOL    HW1 3830   1.980   2.597   2.767 -1.3502  3.9147  1.2500
  958SOL    HW2 3831   1.931   2.674   2.890  0.6451  2.5156 -0.4443
  958SOL     MW 3832   1.990   2.662   2.826 -0.1847  0.3859  0.1977
  959SOL     OW 3833   2.456   2.594   0.311  0.1514  0.0883  0.4850
  959SOL    HW1 3834   2.519   2.607   0.236  4.1091  2.7738 -1.6309
  959SOL    HW2 3835   2.399   2.674   0.319 -1.6331  0.7829  0.1692
  959SOL     MW 3836   2.457   2.606   0.302  0.4381  0.5343  0.1641
  960SOL     OW 3837   1.904   2.324   2.281  0.1216  0.5264 -0.0348
  960SOL    HW1 3838   1.872   2.243   2.241  1.9425 -2.2515  0.9684
  960SOL    HW2 3839   1.848   2.359   2.349  0.4750  2.6350 -1.9962
  960SOL     MW 3840   1.892   2.318   2.285  0.4085  0.4381 -0.1612
  961SOL     OW 3841   2.162   2.322   2.354  0.2931  0.0872  0.1110
  961SOL    HW1 3842   2.074   2.330   2.333  0.9840  2.3654 -0.3631
  961SOL    HW2 3843   2.175   2.385   2.423 -1.4173 -0.6417  1.5398
  961SOL     MW 3844   2.152   2.331   2.360  0.1586  0.2916  0.2369
  962SOL     OW 3845   2.242   2.006   2.802  0.3646 -0.7125 -0.0336
  962SOL    HW1 3846   2.203   1.974   2.883  0.7410  0.0673 -2.3476
  962SOL    HW2 3847   2.232   1.936   2.738 -0.5432 -0.7676  0.8144
  962SOL     MW 3848   2.235   1.993   2.804  0.2945 -0.6169 -0.2270
  963SOL     OW 3849   1.840   2.581   2.015 -0.4996 -0.1834 -0.6299
  963SOL    HW1 3850   1.929   2.599   2.041 -1.0876 -1.2227 -1.4427
  963SOL    HW2 3851   1.844   2.486   1.986  2.1954  2.5846  0.0388
  963SOL     MW 3852   1.853   2.571   2.014 -0.2216  0.0447 -0.6489
  964SOL     OW 3853   1.864   1.970   2.749 -0.1181  0.0086  0.0250
  964SOL    HW1 3854   1.934   2.044   2.723  2.1599 -0.6215  0.7456
  964SOL    HW2 3855   1.909   1.919   2.818 -5.3833  1.1761 -1.8206
  964SOL     MW 3856   1.880   1.973   2.754 -0.5122  0.0795 -0.1235
  965SOL     OW 3857   2.249   2.734   0.651  0.1422  0.4793 -0.4699
  965SOL    HW1 3858   2.260   2.639   0.655  2.6711 -1.5863  1.3473
  965SOL    HW2 3859   2.269   2.747   0.745 -0.9622 -0.0267 -0.4131
  965SOL     MW 3860   2.253   2.723   0.664  0.3302  0.1400 -0.2226
  966SOL     OW 3861   2.625   2.638   2.453  0.2735  0.2456  0.2897
  966SOL    HW1 3862   2.559   2.670   2.391 -0.2067 -3.9386  1.4165
  966SOL    HW2 3863   2.639   2.533   2.447  0.1581 -1.0198  1.7561
  966SOL     MW 3864   2.618   2.628   2.444  0.1949 -0.4734  0.6318
  967SOL     OW 3865   2.914   3.035   2.902 -0.1030 -0.2281 -0.1644
  967SOL    HW1 3866   2.918   2.957   2.957  2.3067  0.5562  2.7647
  967SOL    HW2 3867   2.821   3.039   2.868 -0.3286 -0.3658 -1.3449
  967SOL     MW 3868   2.902   3.025   2.905  0.1852 -0.1428  0.0663
  968SOL     OW 3869   3.023   2.599   2.933 -0.6788  0.0436  0.2112
  968SOL    HW1 3870   2.952   2.656   2.894 -3.8280  0.3942  1.5328
  968SOL    HW2 3871   3.027   2.510   2.886  0.8306  0.9060  1.1926
  968SOL     MW 3872   3.014   2.595   2.922 -0.8952  0.2036  0.5151
  969SOL     OW 3873   1.512   2.127   1.699 -0.1391 -0.1531 -0.6574
  969SOL    HW1 3874   1.564   2.044   1.722  0.1205 -1.7524  0.2647
  969SOL    HW2 3875   1.467   2.146   1.780 -0.1698  0.3515  0.1880
  969SOL     MW 3876   1.513   2.118   1.712 -0.1089 -0.2975 -0.4242
  970SOL     OW 3877   1.682   1.657   1.821 -0.1954 -0.3484 -0.3286
  970SOL    HW1 3878   1.736   1.655   1.900 -0.6180 -1.9963 -3.1504
  970SOL    HW2 3879   1.594   1.635   1.858 -0.3879 -1.9474  0.0157
  970SOL     MW 3880   1.678   1.654   1.837 -0.2765 -0.7768 -0.6555
  971SOL     OW 3881   1.783   0.018   2.374 -0.6823 -0.2658  0.0989
  971SOL    HW1 3882   1.776  -0.031   2.283  2.0772 -3.9719 -3.3591
  971SOL    HW2 3883   1.854   0.086   2.373  1.5846  3.4403  0.5731
  971SOL     MW 3884   1.791   0.020   2.362 -0.0191 -0.2658 -0.2948
  972SOL     OW 3885   0.266   2.805   2.481 -0.4286  0.4902 -0.9357
  972SOL    HW1 3886   0.296   2.715   2.501 -1.5142  0.2275  1.3801
  972SOL    HW2 3887   0.324   2.878   2.503 -2.9605  0.1477 -0.8950
  972SOL     MW 3888   0.278   2.803   2.487 -0.9059  0.4104 -0.6248
  973SOL     OW 3889   2.598   0.023   2.116 -0.2673 -0.0890  0.3504
  973SOL    HW1 3890   2.586  -0.066   2.082 -2.5381  1.1487  0.8125
  973SOL    HW2 3891   2.610   0.070   2.035 -1.2571 -2.4090  2.4390
  973SOL     MW 3892   2.598   0.018   2.101 -0.6975 -0.2318  0.6869
  974SOL     OW 3893   2.079   0.284   2.778 -0.6294 -0.2619 -0.5306
  974SOL    HW1 3894   2.169   0.254   2.755  1.7511  1.5624  0.8072
  974SOL    HW2 3895   2.035   0.213   2.832 -1.9487  2.0677 -0.8029
  974SOL     MW 3896   2.085   0.271   2.782 -0.4894  0.2862 -0.3900
  975SOL     OW 3897   2.176   2.556   2.522 -0.3679 -0.3932 -0.1582
  975SOL    HW1 3898   2.262   2.587   2.562  0.0687 -0.5523 -0.8233
  975SOL    HW2 3899   2.135   2.634   2.484 -1.5958 -0.4739  0.9383
  975SOL     MW 3900   2.182   2.570   2.522 -0.4723 -0.4248 -0.1013
  976SOL     OW 3901   0.259   0.405   1.737  0.3696  0.2529  0.7885
  976SOL    HW1 3902   0.313   0.346   1.785 -2.3920  1.1694 -2.5928
  976SOL    HW2 3903   0.188   0.344   1.737 -0.2594 -1.2836 -0.6719
  976SOL     MW 3904   0.257   0.389   1.743 -0.0778  0.1711  0.1497
  977SOL     OW 3905   1.742   2.739   2.458 -0.4143 -0.3632 -0.1776
  977SOL    HW1 3906   1.733   2.646   2.438 -1.1921  1.8508  0.5354
  977SOL    HW2 3907   1.838   2.751   2.453  0.1911  0.1477 -2.1260
  977SOL     MW 3908   1.753   2.729   2.455 -0.4371 -0.0037 -0.3406
   3.10000   3.10000   3.10000
