977 TIP4P/2005f water molecules t=   0.47000 step= 470
 3908
    1SOL     OW    1   0.294   0.789   0.040 -0.8381  0.3550 -0.1367
    1SOL    HW1    2   0.262   0.837  -0.033 -0.2231 -1.5690  1.1583
    1SOL    HW2    3   0.244   0.708   0.032  1.5502  0.4138 -0.4341
    1SOL     MW    4   0.283   0.784   0.029 -0.4419  0.1089 -0.0050
    2SOL     OW    5   0.285   3.060   1.181 -0.9418  0.2613 -0.3783
    2SOL    HW1    6   0.327   3.128   1.127  1.4526 -0.7394 -1.5712
    2SOL    HW2    7   0.193   3.096   1.190 -0.7866 -1.9627  0.3822
    2SOL     MW    8   0.279   3.074   1.175 -0.6054 -0.1642 -0.4354
    3SOL     OW    9   2.670   0.389   0.928  0.8500 -0.0510  0.1037
    3SOL    HW1   10   2.690   0.475   0.890 -2.8313 -1.7930  2.1743
    3SOL    HW2   11   2.652   0.417   1.023 -0.6705  0.0966 -2.2633
    3SOL     MW   12   2.670   0.404   0.936  0.1637 -0.2613  0.0646
    4SOL     OW   13   3.031   1.748   0.588 -0.1166  0.0916  0.4513
    4SOL    HW1   14   2.965   1.800   0.532 -1.3987  2.2961 -0.6296
    4SOL    HW2   15   3.091   1.686   0.545  0.4737 -1.9621 -1.0289
    4SOL     MW   16   3.030   1.746   0.575 -0.2079  0.1115  0.1134
    5SOL     OW   17   1.750   1.500   0.595  0.5224  0.9055 -0.0981
    5SOL    HW1   18   1.781   1.435   0.662 -1.4564  2.0823  0.5757
    5SOL    HW2   19   1.657   1.478   0.601 -0.6309 -0.8338  1.0117
    5SOL     MW   20   1.742   1.489   0.604  0.1092  0.8312  0.1372
    6SOL     OW   21   0.859   1.372   0.682  0.1331  0.0778  0.2389
    6SOL    HW1   22   0.776   1.405   0.708 -0.2795 -0.1509 -0.5103
    6SOL    HW2   23   0.884   1.300   0.736 -1.9198 -0.0002 -0.4064
    6SOL     MW   24   0.852   1.367   0.693 -0.1922  0.0373  0.0549
    7SOL     OW   25   1.980   1.078   0.056  0.0684  0.1594 -0.2506
    7SOL    HW1   26   2.009   1.148  -0.004  0.7994  0.5728  2.7152
    7SOL    HW2   27   2.043   1.085   0.131  1.1255 -1.3215  1.4321
    7SOL     MW   28   1.992   1.088   0.058  0.3043  0.0185  0.3627
    8SOL     OW   29   0.967   1.345   1.012 -0.0174  0.1396  0.1729
    8SOL    HW1   30   0.997   1.260   0.991 -0.9190  1.6939 -4.2137
    8SOL    HW2   31   1.002   1.379   1.095 -0.1250  0.1878  4.3435
    8SOL     MW   32   0.975   1.339   1.020 -0.1505  0.3510  0.1444
    9SOL     OW   33   1.069   0.471   1.364  0.4094  0.3891  0.2630
    9SOL    HW1   34   1.005   0.410   1.333  0.8054  1.0153  0.5770
    9SOL    HW2   35   1.107   0.423   1.438 -2.9348  0.1743 -0.3052
    9SOL     MW   36   1.066   0.457   1.370  0.0204  0.4434  0.2295
   10SOL     OW   37   0.278   0.774   0.455 -0.6765 -0.5381  0.2849
   10SOL    HW1   38   0.364   0.813   0.416  2.9301 -1.8547 -2.3581
   10SOL    HW2   39   0.255   0.830   0.531  1.4584  1.5566  2.0683
   10SOL     MW   40   0.287   0.787   0.460  0.0810 -0.4355  0.1715
   11SOL     OW   41   0.792   1.085   1.623  0.3230 -0.0814  0.1395
   11SOL    HW1   42   0.816   1.068   1.713 -1.3907  1.2779 -1.0657
   11SOL    HW2   43   0.742   1.004   1.603  0.8583  2.6487 -0.4094
   11SOL     MW   44   0.788   1.072   1.632  0.1675  0.4581 -0.0919
   12SOL     OW   45   0.035   1.087   0.871  0.4015 -0.0840 -0.4743
   12SOL    HW1   46   0.081   1.164   0.892  0.3166 -2.9341  3.6158
   12SOL    HW2   47  -0.045   1.103   0.821 -2.5827  0.4138  2.9905
   12SOL     MW   48   0.031   1.099   0.867 -0.0034 -0.3944  0.5225
   13SOL     OW   49   1.889   1.396   1.326 -0.1731 -0.1324 -0.4918
   13SOL    HW1   50   1.921   1.373   1.242  0.1555  1.6260  0.9583
   13SOL    HW2   51   1.869   1.495   1.325 -0.0364  2.4283  0.8305
   13SOL     MW   52   1.891   1.406   1.314 -0.1117  0.4375 -0.1260
   14SOL     OW   53   0.599   0.310   1.795 -0.4219 -0.2057 -0.0018
   14SOL    HW1   54   0.600   0.226   1.743  1.4458 -0.1070  1.0739
   14SOL    HW2   55   0.688   0.320   1.829  0.8900 -1.3458  0.3753
   14SOL     MW   56   0.611   0.300   1.792 -0.0024 -0.3431  0.1898
   15SOL     OW   57   1.982   0.510   0.956 -0.0437  0.0910 -0.1153
   15SOL    HW1   58   1.982   0.481   1.046 -2.3490 -1.4125  1.6471
   15SOL    HW2   59   2.049   0.454   0.910  0.3429 -0.0983  1.0619
   15SOL     MW   60   1.991   0.499   0.962 -0.2969 -0.1323  0.2725
   16SOL     OW   61   0.202   1.755   0.335  0.2985  0.6581 -0.0563
   16SOL    HW1   62   0.300   1.749   0.346  0.6137 -1.6809  0.6801
   16SOL    HW2   63   0.196   1.843   0.376  0.6139 -2.9481  1.1374
   16SOL     MW   64   0.214   1.766   0.342  0.3817 -0.1263  0.1984
   17SOL     OW   65   1.016   0.815   1.506  0.0958 -0.1140 -0.4567
   17SOL    HW1   66   1.053   0.815   1.595 -2.3948  1.2756 -1.5329
   17SOL    HW2   67   0.919   0.816   1.510 -1.0260  0.5869  0.4795
   17SOL     MW   68   1.008   0.815   1.518 -0.3808  0.1619 -0.4752
   18SOL     OW   69   0.077   1.555   0.455  0.2605  0.6194  0.0645
   18SOL    HW1   70   0.128   1.621   0.400 -0.7139 -0.3998 -1.7090
   18SOL    HW2   71   0.063   1.470   0.411 -0.0141  1.7399 -0.4559
   18SOL     MW   72   0.082   1.553   0.442  0.0957  0.6328 -0.2381
   19SOL     OW   73   0.080   1.333   0.986  0.0981 -0.7724 -0.2677
   19SOL    HW1   74   0.140   1.361   0.918  0.4308  1.2322 -0.2765
   19SOL    HW2   75   0.003   1.388   0.975  2.0566 -1.4232 -1.5752
   19SOL     MW   76   0.078   1.344   0.976  0.4004 -0.5938 -0.4414
   20SOL     OW   77   0.445   2.131   1.313 -0.2717  0.3114 -0.2862
   20SOL    HW1   78   0.389   2.072   1.264  0.7331  0.3341  1.0678
   20SOL    HW2   79   0.384   2.172   1.374 -1.1512 -1.1493 -1.9187
   20SOL     MW   80   0.430   2.129   1.315 -0.2552  0.1217 -0.3229
   21SOL     OW   81   0.524   0.851   0.343  0.0853 -0.1354  0.2027
   21SOL    HW1   82   0.606   0.827   0.378 -0.2369 -1.7241 -0.2746
   21SOL    HW2   83   0.524   0.816   0.252  1.0808  0.1249  0.0202
   21SOL     MW   84   0.535   0.843   0.336  0.1741 -0.3107  0.1157
   22SOL     OW   85   1.560   0.573   1.097  0.4307  0.4905 -0.0678
   22SOL    HW1   86   1.616   0.539   1.021 -2.1968  0.6643  1.9679
   22SOL    HW2   87   1.491   0.626   1.052  0.0505 -2.1924 -1.4540
   22SOL     MW   88   1.558   0.575   1.081  0.0338  0.1594  0.0179
   23SOL     OW   89   3.079   0.747   0.705 -0.3344 -0.0776 -0.2996
   23SOL    HW1   90   3.129   0.666   0.705 -0.3233  0.4237  0.1842
   23SOL    HW2   91   3.139   0.819   0.687 -1.0831  3.1999  0.5729
   23SOL     MW   92   3.093   0.746   0.703 -0.4317  0.4210 -0.1206
   24SOL     OW   93   2.013   2.170   0.069  0.2558 -0.4227 -0.1755
   24SOL    HW1   94   1.999   2.184   0.165  2.6629  1.3236  0.9287
   24SOL    HW2   95   2.094   2.124   0.054 -2.8073 -1.2534  0.0799
   24SOL     MW   96   2.022   2.166   0.080  0.1692 -0.3019  0.0039
   25SOL     OW   97   0.325   1.428   0.525  0.4821  0.1118 -0.4301
   25SOL    HW1   98   0.249   1.480   0.493 -1.4949  2.6700 -1.4318
   25SOL    HW2   99   0.383   1.422   0.457  0.8904  2.1133  0.8247
   25SOL     MW  100   0.323   1.434   0.512  0.2751  0.7134 -0.3967
   26SOL     OW  101   2.057   0.906   0.476 -0.1308 -0.0979  0.3258
   26SOL    HW1  102   1.981   0.969   0.489  2.6531 -1.4803 -2.0778
   26SOL    HW2  103   2.101   0.932   0.394 -0.4512 -0.7154 -0.5767
   26SOL     MW  104   2.053   0.918   0.467  0.1942 -0.3618 -0.1104
   27SOL     OW  105   2.031   1.370   0.260  0.4573 -0.1868 -0.3985
   27SOL    HW1  106   1.939   1.366   0.287  0.3438  0.6158 -0.0528
   27SOL    HW2  107   2.060   1.454   0.300 -1.4286 -0.0939  1.3280
   27SOL     MW  108   2.023   1.381   0.269  0.1935 -0.0686 -0.1251
   28SOL     OW  109   0.372   1.034   1.955 -0.4677  0.1829  0.6826
   28SOL    HW1  110   0.366   0.952   1.910  1.0491 -0.6756  0.8472
   28SOL    HW2  111   0.324   1.039   2.036 -2.5132 -0.6016 -3.0372
   28SOL     MW  112   0.364   1.024   1.960 -0.5375 -0.0339  0.2135
   29SOL     OW  113   0.270   1.416   0.802  0.1294 -0.1589  0.6704
   29SOL    HW1  114   0.267   1.511   0.820 -0.0265 -0.7079  0.4521
   29SOL    HW2  115   0.308   1.418   0.710 -1.8317 -1.6163  0.1992
   29SOL     MW  116   0.275   1.429   0.792 -0.1499 -0.4236  0.5794
   30SOL     OW  117   0.871   1.067   1.217  0.1650  0.7335 -0.3848
   30SOL    HW1  118   0.787   1.106   1.254 -0.9093  3.4067  0.2264
   30SOL    HW2  119   0.925   1.068   1.297 -0.0388  0.8745  1.8450
   30SOL     MW  120   0.867   1.072   1.232 -0.0036  1.1048 -0.0099
   31SOL     OW  121   0.402   0.266   0.220 -0.0882 -0.7515 -0.9554
   31SOL    HW1  122   0.407   0.199   0.296  0.6093 -1.3361 -1.0196
   31SOL    HW2  123   0.408   0.207   0.146 -1.1603 -1.4830  2.8686
   31SOL     MW  124   0.404   0.249   0.220 -0.1376 -0.9251 -0.4593
   32SOL     OW  125   2.754   1.056   1.122  0.0954 -0.1126 -0.2547
   32SOL    HW1  126   2.710   0.969   1.108  0.5182  0.0708 -1.6019
   32SOL    HW2  127   2.848   1.033   1.114  0.5961  1.4813  2.8529
   32SOL     MW  128   2.761   1.041   1.119  0.2172  0.1219 -0.0224
   33SOL     OW  129   1.756   1.353   0.364  0.5692  0.8736 -0.3229
   33SOL    HW1  130   1.773   1.262   0.391 -1.2562  0.8739  0.0676
   33SOL    HW2  131   1.754   1.396   0.446 -0.5769 -2.1548 -0.6838
   33SOL     MW  132   1.758   1.346   0.378  0.1771  0.4741 -0.3190
   34SOL     OW  133   1.202   1.886   1.089  0.4737  0.2698  0.4955
   34SOL    HW1  134   1.118   1.924   1.113 -1.7207 -0.9305  2.2530
   34SOL    HW2  135   1.263   1.895   1.169 -0.2924 -0.0135 -2.0713
   34SOL     MW  136   1.199   1.892   1.102  0.0831  0.0740  0.3887
   35SOL     OW  137   0.310   0.120   1.814  0.1660  0.4935  0.1563
   35SOL    HW1  138   0.379   0.134   1.880 -0.8120 -0.9901 -1.3433
   35SOL    HW2  139   0.334   0.034   1.768  0.2765 -0.7078 -0.0279
   35SOL     MW  140   0.323   0.110   1.817  0.0515  0.1393 -0.0658
   36SOL     OW  141   1.878   1.958   0.522 -0.6939  0.0221 -0.1419
   36SOL    HW1  142   1.864   1.940   0.424 -0.8874 -1.4887 -2.9262
   36SOL    HW2  143   1.872   1.868   0.560 -3.0942 -4.0766  0.1257
   36SOL     MW  144   1.875   1.944   0.514 -1.0361 -0.7180 -0.4740
   37SOL     OW  145   1.749   2.068   0.996  0.1274 -0.0505  0.1801
   37SOL    HW1  146   1.689   2.019   0.945 -0.9182 -0.4445  1.0777
   37SOL    HW2  147   1.686   2.092   1.075 -2.9516  0.8215 -0.0376
   37SOL     MW  148   1.733   2.064   1.000 -0.4168  0.0125  0.2698
   38SOL     OW  149   2.824   0.924   0.175 -0.0546 -0.1051 -0.1244
   38SOL    HW1  150   2.875   0.909   0.254  2.3085 -1.7347  1.0118
   38SOL    HW2  151   2.885   0.897   0.108  2.0796  1.9255  0.4236
   38SOL     MW  152   2.839   0.918   0.176  0.5388 -0.0522  0.0978
   39SOL     OW  153   1.441   0.630   0.799 -0.1914 -0.2583  0.0209
   39SOL    HW1  154   1.424   0.536   0.794  1.4111 -0.4284 -3.1394
   39SOL    HW2  155   1.357   0.666   0.825 -0.5470 -3.2945  0.0023
   39SOL     MW  156   1.428   0.623   0.802 -0.0269 -0.6814 -0.3985
   40SOL     OW  157   1.255   1.883   0.253 -0.3484  0.2086  0.0711
   40SOL    HW1  158   1.313   1.809   0.278 -2.0665 -2.6040  0.3431
   40SOL    HW2  159   1.250   1.932   0.335 -1.8689 -0.6467  1.1403
   40SOL     MW  160   1.262   1.880   0.267 -0.7757 -0.2753  0.2480
   41SOL     OW  161   0.599   0.478   1.575  0.0275  0.0370 -0.1774
   41SOL    HW1  162   0.690   0.496   1.559  0.1956 -0.8335 -0.9855
   41SOL    HW2  163   0.596   0.413   1.642 -1.5492  1.7630 -2.0102
   41SOL     MW  164   0.611   0.472   1.582 -0.1583  0.1499 -0.5259
   42SOL     OW  165   1.305   3.016   1.995 -0.4535 -0.0771 -0.2231
   42SOL    HW1  166   1.211   3.015   2.018  1.3194  0.4779 -0.1385
   42SOL    HW2  167   1.329   2.927   1.998  1.0276  0.4662 -0.1517
   42SOL     MW  168   1.296   3.004   1.999 -0.0242  0.0678 -0.2025
   43SOL     OW  169   1.551   0.184   1.703 -0.6426 -0.2726  0.6477
   43SOL    HW1  170   1.588   0.128   1.636 -0.5093 -0.8543 -0.6663
   43SOL    HW2  171   1.460   0.136   1.706 -4.7469 -1.6863 -1.2854
   43SOL     MW  172   1.544   0.171   1.695 -1.1665 -0.5359  0.2193
   44SOL     OW  173   1.294   0.732   1.087 -0.6219 -0.0047  0.2542
   44SOL    HW1  174   1.284   0.809   1.030  2.5122  2.3460 -1.0411
   44SOL    HW2  175   1.252   0.751   1.171 -1.2467  1.8517 -0.2644
   44SOL     MW  176   1.287   0.745   1.090 -0.2908  0.5504  0.0149
   45SOL     OW  177   1.182   0.712   0.778 -0.5621  0.2481  0.3056
   45SOL    HW1  178   1.106   0.727   0.842 -1.0691  0.0059 -0.3802
   45SOL    HW2  179   1.141   0.645   0.714 -0.7446  2.8221  0.3113
   45SOL     MW  180   1.167   0.705   0.778 -0.6531  0.5558  0.2158
   46SOL     OW  181   0.563   1.159   0.518  0.1396 -0.3515 -0.1027
   46SOL    HW1  182   0.565   1.187   0.422  0.5935  2.5885 -1.8778
   46SOL    HW2  183   0.653   1.116   0.524 -0.1346  0.3450 -0.3171
   46SOL     MW  184   0.575   1.157   0.506  0.1633  0.1283 -0.3652
   47SOL     OW  185   0.187   1.915   1.821  0.4766 -0.2012 -0.1635
   47SOL    HW1  186   0.206   1.837   1.761 -1.3589 -0.0920 -0.8414
   47SOL    HW2  187   0.168   1.884   1.913  3.3006 -1.7761  0.8166
   47SOL     MW  188   0.187   1.900   1.825  0.6070 -0.3946 -0.1236
   48SOL     OW  189   1.027   0.614   1.023  0.0474 -0.2019 -0.1440
   48SOL    HW1  190   0.983   0.665   1.091 -0.1872  0.6303  0.0918
   48SOL    HW2  191   1.120   0.636   1.038 -3.3704 -1.0514  1.8457
   48SOL     MW  192   1.034   0.624   1.034 -0.4345 -0.2042  0.1497
   49SOL     OW  193   1.806   0.777   1.576  0.1738 -0.3024 -0.3352
   49SOL    HW1  194   1.761   0.764   1.658 -0.9521  2.2221  1.5510
   49SOL    HW2  195   1.834   0.690   1.539  0.5963 -2.2709 -2.5403
   49SOL     MW  196   1.804   0.764   1.582  0.0810 -0.2290 -0.3773
   50SOL     OW  197   1.190   1.035   0.504 -0.6050  0.5583  0.5739
   50SOL    HW1  198   1.221   1.078   0.582 -1.4311 -0.0506 -1.2253
   50SOL    HW2  199   1.227   0.941   0.504  1.2306 -1.1891  1.2659
   50SOL     MW  200   1.199   1.028   0.515 -0.4718  0.2474  0.4278
   51SOL     OW  201   0.330   2.877   0.965  0.1315  0.1688 -0.5115
   51SOL    HW1  202   0.424   2.854   0.981  0.4319  1.3026  1.1107
   51SOL    HW2  203   0.300   2.929   1.043 -0.3801 -0.8080 -0.7320
   51SOL     MW  204   0.338   2.881   0.977  0.1036  0.1895 -0.3266
   52SOL     OW  205   0.791   1.767   0.384 -0.0034  0.5181 -0.0705
   52SOL    HW1  206   0.766   1.843   0.431  0.0285 -2.8619  1.4608
   52SOL    HW2  207   0.738   1.768   0.306  0.4494  0.7327 -1.3928
   52SOL     MW  208   0.781   1.777   0.380  0.0605  0.1004 -0.0429
   53SOL     OW  209   0.500   2.085   0.578  0.0494  0.9164  0.7721
   53SOL    HW1  210   0.410   2.079   0.526  0.0634 -1.4454 -1.2839
   53SOL    HW2  211   0.502   2.176   0.582  0.9806 -0.7791  0.7156
   53SOL     MW  212   0.489   2.096   0.572  0.1741  0.3811  0.4934
   54SOL     OW  213   2.167   0.808   0.845  0.2358  0.1468 -0.1469
   54SOL    HW1  214   2.167   0.774   0.754 -1.1607 -1.8626  0.3247
   54SOL    HW2  215   2.074   0.810   0.857 -0.1998 -0.1048 -2.3242
   54SOL     MW  216   2.155   0.804   0.834 -0.0059 -0.1515 -0.3720
   55SOL     OW  217   0.553   1.492   1.571 -0.4845  0.0882  0.1495
   55SOL    HW1  218   0.499   1.528   1.498 -2.4158 -0.1655 -0.5311
   55SOL    HW2  219   0.621   1.443   1.530 -0.1006 -2.1682  0.5003
   55SOL     MW  220   0.555   1.490   1.556 -0.6887 -0.2430  0.1060
   56SOL     OW  221   0.545   0.793   0.086  0.0862 -0.0990 -0.1713
   56SOL    HW1  222   0.560   0.885   0.054  0.0267 -0.4584  0.9767
   56SOL    HW2  223   0.453   0.782   0.074  0.7317  2.3324  1.6316
   56SOL     MW  224   0.535   0.804   0.080  0.1635  0.1743  0.2180
   57SOL     OW  225   1.268   1.224   1.227 -0.0992 -0.0484  0.0727
   57SOL    HW1  226   1.347   1.260   1.179 -2.1957 -0.2730 -1.9767
   57SOL    HW2  227   1.295   1.208   1.317 -2.7144  1.5888 -2.1786
   57SOL     MW  228   1.282   1.227   1.233 -0.7209  0.1380 -0.4948
   58SOL     OW  229   0.622   1.113   1.304 -0.8050  0.2362 -0.2241
   58SOL    HW1  230   0.604   1.200   1.275 -1.3310  0.7790 -1.8624
   58SOL    HW2  231   0.581   1.099   1.389 -0.7154 -1.6601 -2.5914
   58SOL     MW  232   0.614   1.122   1.311 -0.8626  0.0576 -0.7526
   59SOL     OW  233   1.594   1.623   0.356 -0.4109 -0.1318  0.6491
   59SOL    HW1  234   1.647   1.592   0.427  2.8576 -0.2914  1.1933
   59SOL    HW2  235   1.519   1.664   0.399 -0.0352  1.9180  0.5299
   59SOL     MW  236   1.591   1.625   0.371  0.0699  0.1176  0.7051
   60SOL     OW  237   0.010   0.222   1.682  0.6704 -0.2857  0.1488
   60SOL    HW1  238  -0.085   0.236   1.682  1.3073  0.4084  1.3617
   60SOL    HW2  239   0.030   0.167   1.754  2.1734  0.3591  0.1693
   60SOL     MW  240  -0.000   0.216   1.691  0.9528 -0.1090  0.3115
   61SOL     OW  241   2.035   1.437   3.093  0.1107 -0.1031  0.5786
   61SOL    HW1  242   2.040   1.418   3.191  3.0073 -0.8880  1.0850
   61SOL    HW2  243   2.097   1.375   3.057  1.2917  1.4260  0.6799
   61SOL     MW  244   2.044   1.427   3.101  0.6487 -0.0049  0.6588
   62SOL     OW  245   0.661   1.663   0.620  0.6850  0.2093  0.0811
   62SOL    HW1  246   0.726   1.656   0.544 -3.5743 -0.0362  1.2370
   62SOL    HW2  247   0.623   1.576   0.638 -1.4384 -1.1811 -0.0632
   62SOL     MW  248   0.665   1.651   0.612 -0.1572 -0.0065  0.2145
   63SOL     OW  249   1.668   0.747   0.704 -0.3144 -0.1927  0.3619
   63SOL    HW1  250   1.649   0.792   0.619 -0.4654 -1.5482 -0.0453
   63SOL    HW2  251   1.585   0.715   0.739 -1.9842  1.9886  0.5537
   63SOL     MW  252   1.655   0.749   0.697 -0.5547 -0.0838  0.3335
   64SOL     OW  253   0.261   1.686   0.788 -0.0655  0.4048 -1.0651
   64SOL    HW1  254   0.332   1.744   0.758 -0.1987 -0.8085  3.1375
   64SOL    HW2  255   0.172   1.734   0.786 -0.3247  1.8922 -2.4198
   64SOL     MW  256   0.259   1.700   0.783 -0.1173  0.4410 -0.6894
   65SOL     OW  257   1.570   2.314   0.348 -0.3604 -0.0694  0.6174
   65SOL    HW1  258   1.659   2.282   0.340 -0.3202  2.2528  2.0667
   65SOL    HW2  259   1.548   2.351   0.431  0.2830 -2.4083 -2.7346
   65SOL     MW  260   1.578   2.314   0.358 -0.2702 -0.0716  0.3664
   66SOL     OW  261   0.347   0.522   0.503 -0.2051 -0.1012  0.0945
   66SOL    HW1  262   0.415   0.483   0.449 -1.7704  0.7194  2.1470
   66SOL    HW2  263   0.344   0.621   0.483 -0.1023  0.8922 -2.8678
   66SOL     MW  264   0.356   0.530   0.493 -0.3980  0.1382 -0.0255
   67SOL     OW  265   1.477   0.102   2.034 -0.8510 -0.2403  0.1572
   67SOL    HW1  266   1.532   0.098   1.954  0.1778  0.5144 -0.3172
   67SOL    HW2  267   1.419   0.030   2.023 -1.1777  2.1138 -0.5679
   67SOL     MW  268   1.476   0.092   2.022 -0.7583  0.1699 -0.0011
   68SOL     OW  269   0.632   0.072   2.958  0.0383  0.1895  0.3048
   68SOL    HW1  270   0.648   0.106   2.866 -0.1447 -0.3854 -1.4010
   68SOL    HW2  271   0.652   0.153   3.012  2.1351  0.8362 -0.9365
   68SOL     MW  272   0.637   0.087   2.953  0.2908  0.1989 -0.0840
   69SOL     OW  273   1.024   0.223   1.954 -0.8544 -0.7039 -0.2245
   69SOL    HW1  274   1.114   0.235   1.989 -1.0618 -0.9472  1.0610
   69SOL    HW2  275   0.995   0.145   1.997 -0.4359  1.4633 -2.6783
   69SOL     MW  276   1.032   0.214   1.964 -0.8266 -0.4501 -0.3786
   70SOL     OW  277   0.573   1.790   1.120 -0.0902 -0.1584 -0.0922
   70SOL    HW1  278   0.607   1.704   1.157 -1.2215 -0.5505  0.4915
   70SOL    HW2  279   0.650   1.811   1.072 -0.7275 -1.9906  4.9688
   70SOL     MW  280   0.588   1.781   1.119 -0.3236 -0.4518  0.6526
   71SOL     OW  281   1.730   0.628   1.316 -0.4414 -0.4012  0.3257
   71SOL    HW1  282   1.661   0.676   1.357 -1.2571 -0.1853  0.8405
   71SOL    HW2  283   1.677   0.593   1.238 -1.4338  0.3296  0.3760
   71SOL     MW  284   1.714   0.630   1.311 -0.6800 -0.2763  0.4002
   72SOL     OW  285   0.831   1.764   0.953  0.1144 -0.2954 -0.2593
   72SOL    HW1  286   0.790   1.815   0.871 -2.4844  0.4063 -0.4232
   72SOL    HW2  287   0.791   1.675   0.941  2.0325 -0.6751  1.5980
   72SOL     MW  288   0.820   1.759   0.940  0.0246 -0.2529 -0.0359
   73SOL     OW  289   1.211   0.718   1.347 -0.3902  0.1214 -0.1361
   73SOL    HW1  290   1.181   0.629   1.337 -0.2624  0.2029 -0.2297
   73SOL    HW2  291   1.140   0.759   1.399 -1.6717 -0.6182 -0.4589
   73SOL     MW  292   1.197   0.712   1.352 -0.5424  0.0346 -0.1910
   74SOL     OW  293   2.876   0.179   1.011  0.1445  0.5572 -0.0831
   74SOL    HW1  294   2.898   0.113   0.945 -0.2641 -1.6392 -0.8954
   74SOL    HW2  295   2.817   0.241   0.967  3.0882 -0.5280 -3.1532
   74SOL     MW  296   2.871   0.178   0.996  0.4789  0.1242 -0.5954
   75SOL     OW  297   1.596   1.337   0.127  0.3577 -0.3799  0.1178
   75SOL    HW1  298   1.659   1.350   0.199 -2.0910  2.9248 -1.0322
   75SOL    HW2  299   1.633   1.270   0.066 -1.0726  0.5937 -0.8989
   75SOL     MW  300   1.610   1.330   0.128 -0.1541  0.1845 -0.1681
   76SOL     OW  301   2.991   0.648   0.472  0.6233 -0.0655 -0.5270
   76SOL    HW1  302   3.004   0.682   0.559 -1.0342 -3.1136 -0.8185
   76SOL    HW2  303   3.032   0.559   0.469  2.3206  0.2273  0.0030
   76SOL     MW  304   2.998   0.641   0.483  0.6285 -0.4290 -0.4955
   77SOL     OW  305   0.831   0.477   0.448 -0.3347  0.5955 -0.1565
   77SOL    HW1  306   0.755   0.504   0.395 -1.3398  1.4901  1.7349
   77SOL    HW2  307   0.818   0.382   0.467  0.7472  2.0099 -3.2620
   77SOL     MW  308   0.819   0.468   0.444 -0.3246  0.9001 -0.3167
   78SOL     OW  309   0.743   0.801   1.219 -0.6465 -0.2436  0.2869
   78SOL    HW1  310   0.649   0.801   1.187 -0.4786  1.0625 -0.5821
   78SOL    HW2  311   0.779   0.884   1.190  1.9640 -1.0304  3.7573
   78SOL     MW  312   0.735   0.812   1.211 -0.2799 -0.1751  0.6301
   79SOL     OW  313   1.924   1.704   0.605 -0.4499 -0.2525  0.2283
   79SOL    HW1  314   1.855   1.638   0.582 -1.4368 -5.0253  1.6601
   79SOL    HW2  315   1.942   1.680   0.697  1.6216  0.5427 -1.8994
   79SOL     MW  316   1.917   1.692   0.614 -0.3068 -0.7773  0.1365
   80SOL     OW  317   0.154   1.023   0.341 -0.2010  0.2373 -0.7440
   80SOL    HW1  318   0.062   0.998   0.367 -0.6239  0.4081 -0.4153
   80SOL    HW2  319   0.206   0.947   0.359  1.1459 -1.7371 -0.9482
   80SOL     MW  320   0.149   1.010   0.347 -0.0791 -0.0007 -0.7276
   81SOL     OW  321   1.898   1.915   0.222  0.0628  0.3333 -0.8761
   81SOL    HW1  322   1.858   1.854   0.161  0.2343 -0.4935 -1.4230
   81SOL    HW2  323   1.824   1.982   0.237 -0.2702 -1.5908  2.2537
   81SOL     MW  324   1.883   1.916   0.216  0.0415 -0.0297 -0.5353
   82SOL     OW  325   0.803   1.049   0.511 -0.4437  0.3976  0.6802
   82SOL    HW1  326   0.844   1.093   0.441  1.2934 -1.9633 -0.5618
   82SOL    HW2  327   0.806   0.959   0.497 -1.3880 -0.2144 -1.2147
   82SOL     MW  328   0.809   1.043   0.500 -0.3391  0.0054  0.2663
   83SOL     OW  329   0.182   0.619   1.324  0.6012 -0.4018 -0.2576
   83SOL    HW1  330   0.164   0.705   1.354  2.3059 -2.3144 -2.1106
   83SOL    HW2  331   0.226   0.581   1.403  0.3862 -3.2882  1.1303
   83SOL     MW  332   0.185   0.625   1.338  0.7977 -1.0350 -0.3190
   84SOL     OW  333   0.075   0.231   0.914  0.0178 -0.4951 -0.4986
   84SOL    HW1  334  -0.003   0.288   0.888 -0.2136  1.1096 -3.2850
   84SOL    HW2  335   0.062   0.206   1.006 -0.9212 -1.2782 -0.0313
   84SOL     MW  336   0.063   0.235   0.923 -0.1366 -0.3867 -0.8046
   85SOL     OW  337   0.436   0.442   0.754  0.2494  0.4733  0.0149
   85SOL    HW1  338   0.446   0.472   0.658 -2.5929 -1.8483 -2.9391
   85SOL    HW2  339   0.389   0.363   0.728  1.0080 -2.3726 -0.7481
   85SOL     MW  340   0.431   0.435   0.738 -0.0255 -0.2085 -0.4755
   86SOL     OW  341   1.229   0.409   1.075  0.2375 -0.4384 -0.6031
   86SOL    HW1  342   1.156   0.436   1.018 -0.3810  0.0382 -1.8115
   86SOL    HW2  343   1.212   0.459   1.151  1.9128 -0.1792 -0.8470
   86SOL     MW  344   1.217   0.419   1.078  0.3769 -0.3414 -0.7947
   87SOL     OW  345   1.192   1.497   1.211 -0.1111 -0.4120 -0.0587
   87SOL    HW1  346   1.219   1.539   1.130 -0.8442 -0.4759  2.0123
   87SOL    HW2  347   1.222   1.406   1.205 -0.7213  2.3252 -0.3136
   87SOL     MW  348   1.199   1.490   1.199 -0.2883 -0.0593  0.1809
   88SOL     OW  349   1.257   1.011   1.036 -0.3820 -0.1515  0.5695
   88SOL    HW1  350   1.355   1.016   1.028 -1.0230 -0.5914  0.0076
   88SOL    HW2  351   1.236   1.055   1.119 -1.4155  3.2558  0.2223
   88SOL     MW  352   1.267   1.018   1.046 -0.6029  0.2400  0.4496
   89SOL     OW  353   1.772   0.665   0.336  0.0049  0.1272  0.2772
   89SOL    HW1  354   1.818   0.580   0.325  0.2378 -1.6209 -3.3843
   89SOL    HW2  355   1.837   0.725   0.293 -1.7065  1.4983 -0.7818
   89SOL     MW  356   1.787   0.662   0.329 -0.1902  0.0774 -0.3456
   90SOL     OW  357   0.702   1.193   2.788 -0.3565  0.2582  0.1282
   90SOL    HW1  358   0.746   1.110   2.821 -1.4652  0.0199 -0.7338
   90SOL    HW2  359   0.693   1.263   2.852  1.2499 -5.4873  1.7994
   90SOL     MW  360   0.707   1.191   2.801 -0.2908 -0.5313  0.2350
   91SOL     OW  361   2.186   0.697   0.587  0.4417  0.3771 -0.2956
   91SOL    HW1  362   2.132   0.761   0.544  2.8364  1.2239  1.5476
   91SOL    HW2  363   2.191   0.623   0.531  2.1323  1.2141 -1.3992
   91SOL     MW  364   2.180   0.696   0.574  0.9808  0.5993 -0.1980
   92SOL     OW  365   1.632   0.866   0.451  0.8158 -0.2414 -0.3893
   92SOL    HW1  366   1.533   0.850   0.451  0.3110 -0.4847  0.1498
   92SOL    HW2  367   1.676   0.791   0.407  0.6758  0.4808  1.3913
   92SOL     MW  368   1.625   0.854   0.445  0.7308 -0.1782 -0.0832
   93SOL     OW  369   1.051   0.314   0.344 -0.2181 -0.0515  0.2263
   93SOL    HW1  370   0.989   0.387   0.344 -0.4358  0.6618 -0.1994
   93SOL    HW2  371   1.093   0.316   0.256 -1.1519  0.4902 -2.4316
   93SOL     MW  372   1.048   0.324   0.332 -0.3700  0.1141 -0.1806
   94SOL     OW  373   1.925   1.353   1.592  0.0550 -0.0330 -0.4995
   94SOL    HW1  374   1.953   1.345   1.500 -2.4384 -1.0005 -0.4023
   94SOL    HW2  375   1.924   1.263   1.641 -0.0533 -2.0217 -1.2562
   94SOL     MW  376   1.929   1.340   1.586 -0.2883 -0.4231 -0.5865
   95SOL     OW  377   0.733   1.509   0.930 -0.5844  0.3272  0.1638
   95SOL    HW1  378   0.801   1.439   0.942 -0.2153 -0.8689 -0.7356
   95SOL    HW2  379   0.684   1.490   1.007 -0.7059 -2.0525  0.4751
   95SOL     MW  380   0.735   1.497   0.942 -0.5517 -0.1446  0.0862
   96SOL     OW  381   1.217   1.799   1.588 -0.4203 -0.0759  0.3145
   96SOL    HW1  382   1.129   1.800   1.580  1.5990  0.4136  0.2466
   96SOL    HW2  383   1.247   1.750   1.516 -1.1653  2.2441  0.2745
   96SOL     MW  384   1.209   1.792   1.578 -0.2521  0.2948  0.3003
   97SOL     OW  385   1.201   1.420   0.774 -0.0122  0.2700 -0.5271
   97SOL    HW1  386   1.205   1.491   0.840 -0.6544  0.4292  1.7852
   97SOL    HW2  387   1.104   1.415   0.762 -0.2521 -0.0855  1.1909
   97SOL     MW  388   1.189   1.428   0.781 -0.1286  0.2441  0.0047
   98SOL     OW  389   1.490   1.301   1.072  0.2622 -0.0868 -0.3380
   98SOL    HW1  390   1.524   1.353   1.145  1.2752 -2.4667 -0.8331
   98SOL    HW2  391   1.543   1.335   1.002  0.4152 -2.2194 -0.8406
   98SOL     MW  392   1.502   1.312   1.072  0.4160 -0.6822 -0.4696
   99SOL     OW  393   1.487   0.369   1.294 -0.8044 -0.4188  0.2874
   99SOL    HW1  394   1.500   0.454   1.256  0.3984  0.3589 -1.7110
   99SOL    HW2  395   1.511   0.388   1.383  0.4706 -1.0712  0.4146
   99SOL     MW  396   1.492   0.383   1.301 -0.4775 -0.4023  0.0405
  100SOL     OW  397   1.006   1.090   1.450 -0.3095  0.3049  0.9133
  100SOL    HW1  398   0.937   1.077   1.519 -0.6712  1.4724  0.8941
  100SOL    HW2  399   1.041   1.001   1.449 -1.7395  1.3093  0.1244
  100SOL     MW  400   1.002   1.076   1.459 -0.5459  0.5914  0.8067
  101SOL     OW  401   0.577   1.105   0.258 -0.1918 -0.5789 -0.0395
  101SOL    HW1  402   0.552   1.016   0.293  0.4835  0.8332  1.6519
  101SOL    HW2  403   0.559   1.102   0.167 -0.1451 -1.3803  0.9038
  101SOL     MW  404   0.572   1.093   0.250 -0.0965 -0.4983  0.3081
  102SOL     OW  405   2.941   0.635   0.989  0.3428  0.6672 -0.4288
  102SOL    HW1  406   3.011   0.686   0.955 -0.2000 -3.6826  1.3202
  102SOL    HW2  407   2.982   0.583   1.059  0.8672  3.1854 -0.7721
  102SOL     MW  408   2.956   0.635   0.994  0.3404  0.4255 -0.2433
  103SOL     OW  409   1.663   0.378   1.859  0.1042 -0.8207 -0.4124
  103SOL    HW1  410   1.618   0.307   1.824 -1.7135  3.6537  0.0459
  103SOL    HW2  411   1.733   0.337   1.908 -0.7523  0.8268  0.0101
  103SOL     MW  412   1.666   0.363   1.861 -0.2486 -0.0130 -0.2962
  104SOL     OW  413   0.159   1.842   1.430 -0.2879  0.2512  0.5547
  104SOL    HW1  414   0.239   1.791   1.452 -2.8534  1.2826  0.2392
  104SOL    HW2  415   0.105   1.784   1.379  2.7936 -4.2359 -0.4979
  104SOL     MW  416   0.162   1.827   1.426 -0.2198 -0.2047  0.3742
  105SOL     OW  417   0.123   1.219   0.534 -0.6005  0.4421 -0.4877
  105SOL    HW1  418   0.162   1.130   0.510  2.5611 -0.0447 -2.5977
  105SOL    HW2  419   0.208   1.267   0.543 -0.3813 -2.1625 -1.8303
  105SOL     MW  420   0.139   1.213   0.532 -0.1544  0.0342 -0.9432
  106SOL     OW  421   0.846   0.304   0.955  0.4124 -0.1945  0.4294
  106SOL    HW1  422   0.813   0.393   0.954 -0.9570 -1.7423  1.0012
  106SOL    HW2  423   0.929   0.316   0.906 -0.6175  2.9995  1.6984
  106SOL     MW  424   0.852   0.318   0.948  0.0958  0.0227  0.6723
  107SOL     OW  425   0.833   2.168   2.966 -0.5797 -0.0722 -0.5665
  107SOL    HW1  426   0.765   2.100   2.955  2.5240 -3.2449  2.2682
  107SOL    HW2  427   0.857   2.159   3.059 -2.0777 -3.8920  0.1267
  107SOL     MW  428   0.827   2.158   2.977 -0.3679 -0.9948 -0.1010
  108SOL     OW  429   1.348   1.626   1.429 -0.7880 -0.6228  0.0117
  108SOL    HW1  430   1.292   1.613   1.351 -1.3056  0.1121 -0.5561
  108SOL    HW2  431   1.351   1.546   1.491  1.5502  1.3791  1.2200
  108SOL     MW  432   1.341   1.614   1.427 -0.5478 -0.2617  0.0962
  109SOL     OW  433   1.962   0.770   0.178  0.8999  0.5988 -0.3305
  109SOL    HW1  434   1.984   0.792   0.091  2.1583 -1.4027 -3.9506
  109SOL    HW2  435   2.041   0.788   0.229  0.7502 -0.8885  0.9827
  109SOL     MW  436   1.976   0.775   0.174  1.0462  0.1385 -0.6349
  110SOL     OW  437   0.484   1.866   0.726 -0.0474  1.3807  0.6378
  110SOL    HW1  438   0.551   1.809   0.687  3.0181 -1.2577 -0.1748
  110SOL    HW2  439   0.495   1.951   0.687  0.9371 -0.0830 -2.5188
  110SOL     MW  440   0.495   1.870   0.716  0.4870  0.8395  0.1141
  111SOL     OW  441   0.715   0.849   1.488  0.1865  0.7079 -0.1791
  111SOL    HW1  442   0.717   0.839   1.393 -0.7173 -1.9077 -0.7614
  111SOL    HW2  443   0.633   0.818   1.522  0.5040  1.5824 -0.3836
  111SOL     MW  444   0.704   0.844   1.480  0.1092  0.4782 -0.2829
  112SOL     OW  445   1.323   1.106   1.715 -0.2405  0.3145 -0.3300
  112SOL    HW1  446   1.254   1.165   1.738 -1.3978  0.7532 -1.6628
  112SOL    HW2  447   1.282   1.021   1.719 -0.9066 -1.7565 -2.1336
  112SOL     MW  448   1.308   1.103   1.719 -0.4811  0.0992 -0.7438
  113SOL     OW  449   1.340   3.098   1.735 -0.6312 -0.1794  0.2682
  113SOL    HW1  450   1.348   3.045   1.816  0.0315  1.0199  0.2124
  113SOL    HW2  451   1.315   3.041   1.658  0.6294 -0.1863 -1.9172
  113SOL     MW  452   1.338   3.084   1.735 -0.3774 -0.0221 -0.0275
  114SOL     OW  453   0.491   2.811   1.901 -0.3174  0.0752  0.6378
  114SOL    HW1  454   0.460   2.860   1.974 -0.9432 -1.6897 -0.0407
  114SOL    HW2  455   0.442   2.862   1.832 -1.6838  0.1896 -0.8430
  114SOL     MW  456   0.480   2.824   1.901 -0.5802 -0.1425  0.3529
  115SOL     OW  457   0.476   0.840   1.124  0.4016  0.3261 -0.1905
  115SOL    HW1  458   0.490   0.746   1.131 -2.0079 -2.8243  0.0835
  115SOL    HW2  459   0.435   0.865   1.204  0.7347 -1.9292 -1.4924
  115SOL     MW  460   0.473   0.831   1.136  0.1277 -0.3871 -0.3262
  116SOL     OW  461   0.779   1.062   0.964  0.0416 -0.3768  0.7351
  116SOL    HW1  462   0.825   1.091   0.886 -0.3096  0.9275 -1.3068
  116SOL    HW2  463   0.835   1.068   1.045  0.0105  0.6138  1.1570
  116SOL     MW  464   0.793   1.067   0.964 -0.0089 -0.0740  0.5213
  117SOL     OW  465   1.229   1.120   0.764 -0.3412  0.3505  0.0750
  117SOL    HW1  466   1.250   1.082   0.853  2.7125 -1.9661 -1.9498
  117SOL    HW2  467   1.244   1.214   0.773 -1.0114 -1.7498 -1.9576
  117SOL     MW  468   1.234   1.127   0.777 -0.0267 -0.2322 -0.4603
  118SOL     OW  469   3.069   2.969   1.690  0.5208 -0.4746  0.0225
  118SOL    HW1  470   3.093   3.012   1.770 -0.5294 -4.4322  0.2535
  118SOL    HW2  471   2.976   2.978   1.674  3.2141 -0.9263  2.5335
  118SOL     MW  472   3.060   2.976   1.698  0.7376 -1.0564  0.3843
  119SOL     OW  473   0.516   1.359   1.218 -0.6283  0.4093 -0.2506
  119SOL    HW1  474   0.507   1.338   1.129 -2.1903  0.2938 -1.2938
  119SOL    HW2  475   0.435   1.334   1.261  2.5333 -0.2174 -0.7464
  119SOL     MW  476   0.504   1.353   1.212 -0.4173  0.3113 -0.4536
  120SOL     OW  477   0.176   0.714   0.946 -0.2535  0.0357  0.4270
  120SOL    HW1  478   0.190   0.637   1.004 -0.9524  1.0409 -0.4531
  120SOL    HW2  479   0.207   0.790   0.999 -0.2472  0.1677  0.0720
  120SOL     MW  480   0.182   0.714   0.961 -0.3449  0.1858  0.2640
  121SOL     OW  481   1.851   1.100   1.725  0.3180  0.5095 -0.3044
  121SOL    HW1  482   1.763   1.088   1.764 -0.1570 -0.9735  0.8793
  121SOL    HW2  483   1.866   1.027   1.661  0.5847  1.6037 -0.8147
  121SOL     MW  484   1.842   1.089   1.722  0.2905  0.4582 -0.2156
  122SOL     OW  485   0.130   0.523   0.746  0.7414  0.3967 -0.2481
  122SOL    HW1  486   0.217   0.512   0.707  0.7633  1.9164  0.9027
  122SOL    HW2  487   0.145   0.589   0.814  0.9288 -1.0983  1.0043
  122SOL     MW  488   0.143   0.530   0.750  0.7690  0.4000  0.0690
  123SOL     OW  489   1.808   1.083   0.452  0.5252  0.2295  0.7325
  123SOL    HW1  490   1.731   1.023   0.448 -2.4045  1.5233  1.8540
  123SOL    HW2  491   1.830   1.080   0.549  0.8637 -2.1270 -0.1109
  123SOL     MW  492   1.801   1.074   0.464  0.1833  0.0893  0.7692
  124SOL     OW  493   0.667   0.550   0.903 -0.2295  0.3427  0.6451
  124SOL    HW1  494   0.597   0.504   0.852 -1.4636 -0.7018 -1.2078
  124SOL    HW2  495   0.671   0.638   0.873  0.6000  1.2589  2.0299
  124SOL     MW  496   0.658   0.555   0.893 -0.2829  0.3258  0.5833
  125SOL     OW  497   0.675   1.724   1.701 -0.3991  0.5456  0.2135
  125SOL    HW1  498   0.635   1.636   1.670 -0.0830 -0.2866 -2.9843
  125SOL    HW2  499   0.601   1.779   1.685 -2.1214  1.4443  1.2539
  125SOL     MW  500   0.660   1.719   1.695 -0.5846  0.5544 -0.0711
  126SOL     OW  501   2.091   1.604   1.955 -0.8293  0.2666 -0.0384
  126SOL    HW1  502   2.165   1.666   1.948  0.1597  0.9820  1.2775
  126SOL    HW2  503   2.139   1.526   1.977 -0.2440 -1.9698 -0.6662
  126SOL     MW  504   2.107   1.602   1.957 -0.6216  0.0660  0.0524
  127SOL     OW  505   0.619   0.761   1.867 -0.3668 -0.1460  0.3189
  127SOL    HW1  506   0.708   0.719   1.878  1.7948 -1.6597  0.8727
  127SOL    HW2  507   0.624   0.847   1.918  1.3004 -1.6667 -1.4065
  127SOL     MW  508   0.631   0.767   1.875  0.1384 -0.5463  0.1643
  128SOL     OW  509   1.851   0.792   2.892 -0.1701 -0.1072 -0.2787
  128SOL    HW1  510   1.847   0.742   2.810 -0.0515  0.8038  0.3327
  128SOL    HW2  511   1.813   0.878   2.859 -0.4973 -0.1005 -1.3446
  128SOL     MW  512   1.845   0.797   2.877 -0.1976  0.0139 -0.3387
  129SOL     OW  513   1.531   0.977   0.178  0.3439  0.1134 -0.0464
  129SOL    HW1  514   1.472   0.910   0.164  3.4155  3.3313 -0.5319
  129SOL    HW2  515   1.559   0.960   0.267  1.0231 -1.2665  0.5587
  129SOL     MW  516   1.527   0.966   0.188  0.8388  0.3559 -0.0307
  130SOL     OW  517   0.747   1.426   0.401 -0.5828 -0.5840  0.0859
  130SOL    HW1  518   0.776   1.392   0.480  0.7144  1.0043 -2.5836
  130SOL    HW2  519   0.827   1.440   0.353  1.7550  0.8359  0.0533
  130SOL     MW  520   0.761   1.423   0.405 -0.1032 -0.1871 -0.2706
  131SOL     OW  521   3.036   0.828   0.028 -0.5688 -0.0352  0.0372
  131SOL    HW1  522   3.027   0.883  -0.059 -1.2762  2.1239 -2.2769
  131SOL    HW2  523   3.077   0.870   0.097 -1.0205 -0.7433 -3.6030
  131SOL     MW  524   3.040   0.841   0.025 -0.7218  0.1562 -0.7484
  132SOL     OW  525   2.782   0.145   1.255 -0.1644  0.0865 -0.4611
  132SOL    HW1  526   2.821   0.142   1.165  0.4226  0.5307 -0.9731
  132SOL    HW2  527   2.684   0.150   1.247 -0.2318  1.8521  0.3669
  132SOL     MW  528   2.774   0.145   1.242 -0.0958  0.3781 -0.4194
  133SOL     OW  529   1.089   0.121   1.702  0.0700 -0.2870  0.4012
  133SOL    HW1  530   1.170   0.082   1.732 -0.2326  1.1552  1.2513
  133SOL    HW2  531   1.040   0.134   1.783 -0.8765 -0.9675  0.6373
  133SOL     MW  532   1.093   0.117   1.717 -0.0948 -0.1865  0.5445
  134SOL     OW  533   1.384   2.513   1.432  0.4253  0.1751  0.0784
  134SOL    HW1  534   1.333   2.588   1.415  0.0113 -0.5697  0.5805
  134SOL    HW2  535   1.432   2.543   1.511  0.5065  0.5597 -1.5803
  134SOL     MW  536   1.383   2.527   1.440  0.3814  0.1276 -0.0742
  135SOL     OW  537   3.011   0.986   2.911  0.0216  0.5340 -0.5510
  135SOL    HW1  538   3.077   1.051   2.929  1.0433  0.0876 -2.4439
  135SOL    HW2  539   2.936   1.037   2.930  2.2828 -1.1780  3.3059
  135SOL     MW  540   3.010   1.001   2.916  0.4547  0.2492 -0.2919
  136SOL     OW  541   0.219   1.993   0.843 -0.1054  0.4598 -0.6068
  136SOL    HW1  542   0.143   1.933   0.834 -0.6988 -0.5027 -0.6245
  136SOL    HW2  543   0.272   1.945   0.781 -3.0483 -1.4145  2.6336
  136SOL     MW  544   0.216   1.979   0.833 -0.5720  0.0855 -0.1816
  137SOL     OW  545   0.759   2.019   0.508  0.5732  0.2411 -0.1564
  137SOL    HW1  546   0.775   2.005   0.599 -1.1132  0.4205  0.1789
  137SOL    HW2  547   0.663   2.039   0.508  0.7824  1.5183 -1.0488
  137SOL     MW  548   0.749   2.020   0.520  0.3783  0.4333 -0.2299
  138SOL     OW  549   0.532   0.573   1.139  0.4999 -0.0756  0.5836
  138SOL    HW1  550   0.453   0.536   1.093 -0.7703 -0.1768 -0.4923
  138SOL    HW2  551   0.600   0.558   1.074 -1.4327 -0.0418  1.7536
  138SOL     MW  552   0.531   0.566   1.124  0.0773 -0.0845  0.5960
  139SOL     OW  553   2.684   0.515   1.379 -0.0193  0.5378 -0.2389
  139SOL    HW1  554   2.765   0.461   1.376  0.2206 -0.2537 -1.3254
  139SOL    HW2  555   2.713   0.604   1.404 -5.2057  3.8324  2.7448
  139SOL     MW  556   2.698   0.520   1.381 -0.6720  0.8681  0.0114
  140SOL     OW  557   0.841   0.389   2.084  0.2723  0.3645 -0.4248
  140SOL    HW1  558   0.916   0.352   2.031 -0.0622 -1.3511  1.6052
  140SOL    HW2  559   0.882   0.400   2.169  0.9631 -0.2453  0.3492
  140SOL     MW  560   0.857   0.385   2.088  0.3193  0.0577 -0.0548
  141SOL     OW  561   1.030   0.582   1.747  0.1689  0.2341  0.2872
  141SOL    HW1  562   1.096   0.518   1.714 -2.9677 -0.1092  0.7131
  141SOL    HW2  563   1.071   0.664   1.750  0.7763 -1.6322 -0.7888
  141SOL     MW  564   1.044   0.584   1.743 -0.1648 -0.0574  0.2014
  142SOL     OW  565   0.955   1.134   0.746  0.2636 -0.7289  0.3057
  142SOL    HW1  566   0.912   1.115   0.654 -1.8595 -2.1856 -1.9087
  142SOL    HW2  567   1.045   1.107   0.747 -0.2078  1.2418 -2.5072
  142SOL     MW  568   0.961   1.128   0.734 -0.0787 -0.6611 -0.3576
  143SOL     OW  569   1.787   0.803   1.099 -0.3526 -0.7615 -0.1733
  143SOL    HW1  570   1.860   0.780   1.038  1.2925 -0.9450  0.2053
  143SOL    HW2  571   1.789   0.741   1.175  0.1632 -1.7399  1.9018
  143SOL     MW  572   1.797   0.792   1.101 -0.0675 -0.9148  0.1504
  144SOL     OW  573   0.230   1.193   1.530  0.2661  0.8226  0.4977
  144SOL    HW1  574   0.318   1.161   1.516  0.2787  1.6724  1.3850
  144SOL    HW2  575   0.228   1.228   1.618 -1.4889  3.9033 -0.7492
  144SOL     MW  576   0.241   1.194   1.540  0.0362  1.3412  0.4502
  145SOL     OW  577   0.280   0.450   1.045  0.2942 -0.6438  0.5081
  145SOL    HW1  578   0.287   0.384   1.116  1.4037  1.5260 -2.1750
  145SOL    HW2  579   0.322   0.415   0.975  0.8963 -1.3214  0.9455
  145SOL     MW  580   0.286   0.437   1.045  0.5201 -0.4469  0.2118
  146SOL     OW  581   0.891   1.935   1.402 -0.3363  0.2995 -0.3516
  146SOL    HW1  582   0.904   1.973   1.311 -1.5526  1.0616  0.7231
  146SOL    HW2  583   0.786   1.938   1.399 -3.1088 -0.8962 -0.9153
  146SOL     MW  584   0.879   1.940   1.390 -0.8626  0.2423 -0.2842
  147SOL     OW  585   0.400   0.450   2.934  0.0245 -0.3838  0.6110
  147SOL    HW1  586   0.336   0.473   3.000  0.1079 -0.2348  1.9157
  147SOL    HW2  587   0.396   0.521   2.876 -1.3863 -0.3872  3.2298
  147SOL     MW  588   0.391   0.462   2.935 -0.1506 -0.3646  1.1287
  148SOL     OW  589   0.072   0.863   1.355 -0.1902  0.1961  0.6848
  148SOL    HW1  590   0.164   0.899   1.334  1.9887  2.0948 -0.4172
  148SOL    HW2  591   0.065   0.900   1.440 -1.0191 -2.4586 -0.2046
  148SOL     MW  592   0.083   0.873   1.363 -0.0121  0.0964  0.4220
  149SOL     OW  593   1.392   1.148   1.466  0.2184 -0.6701 -0.1410
  149SOL    HW1  594   1.351   1.154   1.552 -0.7166 -2.2866  1.9594
  149SOL    HW2  595   1.465   1.214   1.469 -3.4468  1.8617  1.0049
  149SOL     MW  596   1.396   1.158   1.477 -0.3886 -0.5494  0.2874
  150SOL     OW  597   1.845   1.314   0.802  0.9500  0.4750 -0.5027
  150SOL    HW1  598   1.871   1.223   0.799 -0.6836 -0.2283  2.5960
  150SOL    HW2  599   1.923   1.358   0.830 -1.1434 -0.3748  1.6373
  150SOL     MW  600   1.859   1.307   0.805  0.4583  0.2701  0.1885
  151SOL     OW  601   1.652   1.858   0.848  0.2180  0.4501  0.1149
  151SOL    HW1  602   1.617   1.831   0.763  2.9540  0.1989 -0.4707
  151SOL    HW2  603   1.603   1.798   0.914  0.5916  3.1741  0.3115
  151SOL     MW  604   1.641   1.847   0.845  0.6283  0.7763  0.0636
  152SOL     OW  605   0.779   1.337   1.483  0.2623 -0.3977 -0.2972
  152SOL    HW1  606   0.766   1.269   1.548  2.6729  1.9972 -2.6054
  152SOL    HW2  607   0.861   1.380   1.496 -1.6836  2.4509 -0.6076
  152SOL     MW  608   0.788   1.333   1.493  0.3236  0.2942 -0.6427
  153SOL     OW  609   2.617   1.275   0.730 -0.2095 -0.0504  0.4075
  153SOL    HW1  610   2.708   1.246   0.719  2.1054 -1.5034  2.8994
  153SOL    HW2  611   2.576   1.192   0.744 -0.3866  1.6149  0.9386
  153SOL     MW  612   2.623   1.260   0.731  0.0725 -0.0224  0.8064
  154SOL     OW  613   0.365   1.724   1.679  0.4736 -0.2987  0.4699
  154SOL    HW1  614   0.388   1.684   1.597  4.1243  0.1670 -1.2051
  154SOL    HW2  615   0.353   1.652   1.733 -0.7959  0.6815 -0.0517
  154SOL     MW  616   0.366   1.709   1.676  0.7878 -0.1079  0.1801
  155SOL     OW  617   1.106   0.655   0.298 -0.6958 -0.1631  0.0225
  155SOL    HW1  618   1.103   0.625   0.389 -1.7220 -1.3506  0.5420
  155SOL    HW2  619   1.062   0.745   0.290  2.5176  0.8594 -1.2595
  155SOL     MW  620   1.099   0.663   0.309 -0.4072 -0.1849 -0.0781
  156SOL     OW  621   1.499   3.005   1.043  0.5302 -0.1215  0.0975
  156SOL    HW1  622   1.506   3.085   1.097  0.5316  1.0844  1.7226
  156SOL    HW2  623   1.507   2.936   1.101  0.8991  1.4236  0.9152
  156SOL     MW  624   1.501   3.007   1.058  0.5790  0.2415  0.4198
  157SOL     OW  625   1.346   1.231   0.131  1.0036 -0.1500  0.0260
  157SOL    HW1  626   1.357   1.135   0.126 -0.0690 -0.0880 -0.6315
  157SOL    HW2  627   1.433   1.268   0.128 -0.9814  0.3840 -1.2660
  157SOL     MW  628   1.359   1.223   0.130  0.6001 -0.0714 -0.2312
  158SOL     OW  629   0.472   1.617   2.228  0.2591 -0.5135  0.0680
  158SOL    HW1  630   0.508   1.665   2.155 -1.0563 -2.6602 -0.5519
  158SOL    HW2  631   0.378   1.630   2.229  0.4528 -2.0393 -3.0649
  158SOL     MW  632   0.464   1.625   2.218  0.1111 -0.9981 -0.4271
  159SOL     OW  633   1.328   1.686   0.462  0.0081 -0.4001 -0.4279
  159SOL    HW1  634   1.302   1.606   0.418  0.1131  0.2681  2.8466
  159SOL    HW2  635   1.240   1.728   0.488 -1.0677 -0.1070 -1.3445
  159SOL     MW  636   1.313   1.681   0.459 -0.1200 -0.2733 -0.1168
  160SOL     OW  637   0.484   1.110   1.557 -0.5904  0.8849  0.5230
  160SOL    HW1  638   0.470   1.022   1.601 -0.9475  1.5329 -0.1218
  160SOL    HW2  639   0.502   1.180   1.621 -0.9654  1.4912 -2.2365
  160SOL     MW  640   0.485   1.108   1.571 -0.6870  1.0504  0.0738
  161SOL     OW  641   0.544   2.141   2.662  0.0358  0.4738 -0.4878
  161SOL    HW1  642   0.454   2.118   2.685 -0.2647 -0.2333 -1.3902
  161SOL    HW2  643   0.568   2.104   2.582 -1.0904 -0.2727  1.3504
  161SOL     MW  644   0.535   2.133   2.654 -0.1524  0.2820 -0.3643
  162SOL     OW  645   0.991   1.676   1.728  0.4130 -0.2321 -0.1680
  162SOL    HW1  646   1.035   1.764   1.761  2.3102 -1.1584 -0.4049
  162SOL    HW2  647   0.912   1.671   1.782 -3.3070  0.6250  1.1484
  162SOL     MW  648   0.987   1.687   1.740  0.1725 -0.2412 -0.0256
  163SOL     OW  649   2.121   0.144   0.978 -0.2143 -0.3012 -0.2899
  163SOL    HW1  650   2.074   0.178   0.895  0.6439 -0.7491  0.2144
  163SOL    HW2  651   2.069   0.068   1.008  0.5793  0.5128  0.8409
  163SOL     MW  652   2.108   0.138   0.971  0.0036 -0.2529 -0.0741
  164SOL     OW  653   0.282   0.223   0.723  0.2562 -0.1136  0.2457
  164SOL    HW1  654   0.202   0.226   0.778 -0.8688 -0.4094  1.1601
  164SOL    HW2  655   0.304   0.129   0.705  0.1804 -0.8707 -3.2042
  164SOL     MW  656   0.274   0.211   0.728  0.0978 -0.2525 -0.0888
  165SOL     OW  657   1.369   1.262   0.420 -0.0951  0.6224 -0.2462
  165SOL    HW1  658   1.304   1.192   0.413 -1.7550 -1.0217  1.2749
  165SOL    HW2  659   1.387   1.284   0.326  1.0599  1.5013  1.8017
  165SOL     MW  660   1.363   1.255   0.406 -0.1617  0.5215  0.2247
  166SOL     OW  661   0.512   1.031   0.925  0.7849 -0.6123  0.2856
  166SOL    HW1  662   0.489   0.948   0.975  1.7704 -3.2366 -1.6167
  166SOL    HW2  663   0.598   1.056   0.953 -0.9017  0.7399 -0.9645
  166SOL     MW  664   0.520   1.023   0.935  0.6924 -0.7801 -0.1303
  167SOL     OW  665   0.855   1.167   0.279 -0.3535  0.5326 -0.8360
  167SOL    HW1  666   0.759   1.184   0.263 -2.8392  0.5387  0.2719
  167SOL    HW2  667   0.885   1.232   0.217 -2.7498 -1.9350  0.8951
  167SOL     MW  668   0.846   1.178   0.269 -0.9977  0.2078 -0.4615
  168SOL     OW  669   1.710   1.722   2.905 -0.5652 -0.1501  0.2706
  168SOL    HW1  670   1.626   1.724   2.862 -0.6459 -0.8227  0.8499
  168SOL    HW2  671   1.713   1.641   2.946  2.3453 -1.7086 -0.3442
  168SOL     MW  672   1.699   1.712   2.905 -0.1918 -0.4445  0.2659
  169SOL     OW  673   0.341   0.957   1.329  0.6280  0.2183 -0.3909
  169SOL    HW1  674   0.375   0.952   1.417  1.1029  0.0773 -2.0725
  169SOL    HW2  675   0.323   1.044   1.295  1.5427  0.9456 -2.2581
  169SOL     MW  676   0.343   0.968   1.336  0.8113  0.2957 -0.8591
  170SOL     OW  677   1.060   1.470   1.493 -0.2015 -0.1165  0.7039
  170SOL    HW1  678   1.017   1.555   1.512  0.2032 -1.7978 -0.9998
  170SOL    HW2  679   1.075   1.484   1.391  1.2145 -1.5840 -1.7090
  170SOL     MW  680   1.057   1.483   1.482  0.0387 -0.5320  0.1608
  171SOL     OW  681   0.597   1.384   0.681 -0.6662  0.3789  0.1873
  171SOL    HW1  682   0.573   1.353   0.764  0.4802  3.5826 -0.9970
  171SOL    HW2  683   0.585   1.313   0.616  1.3107  0.2737 -0.0072
  171SOL     MW  684   0.592   1.371   0.684 -0.2541  0.7877  0.0053
  172SOL     OW  685   0.855   0.313   1.238  0.3056  0.0032  0.2372
  172SOL    HW1  686   0.860   0.329   1.138 -1.9828 -0.1898 -0.7013
  172SOL    HW2  687   0.760   0.325   1.259 -1.7635  1.2340  1.3901
  172SOL     MW  688   0.843   0.317   1.227 -0.2693  0.1401  0.2655
  173SOL     OW  689   0.473   1.707   0.368  0.0185 -0.2335  0.5274
  173SOL    HW1  690   0.481   1.609   0.347 -0.8843 -4.4897  2.4626
  173SOL    HW2  691   0.530   1.716   0.442 -1.0687 -0.7378  0.0225
  173SOL     MW  692   0.482   1.695   0.375 -0.2441 -0.8616  0.7161
  174SOL     OW  693   1.998   0.914   1.436 -0.5405 -0.2281  0.0584
  174SOL    HW1  694   1.924   0.861   1.482  0.4987  0.1749  1.5939
  174SOL    HW2  695   1.960   0.959   1.361  0.6405  0.2385  2.0220
  174SOL     MW  696   1.983   0.913   1.432 -0.2476 -0.1134  0.5200
  175SOL     OW  697   0.481   1.430   0.308  0.1264 -0.5922  0.1023
  175SOL    HW1  698   0.469   1.417   0.212  3.6823  0.4527  0.8553
  175SOL    HW2  699   0.571   1.416   0.329  1.6863 -0.7582  2.5185
  175SOL     MW  700   0.491   1.426   0.298  0.8014 -0.4762  0.5204
  176SOL     OW  701   0.240   1.262   1.261 -0.2899  0.4513  0.4866
  176SOL    HW1  702   0.161   1.270   1.215 -1.4482 -1.3158  2.1732
  176SOL    HW2  703   0.208   1.267   1.357  2.3249 -1.2839 -0.6132
  176SOL     MW  704   0.225   1.264   1.268 -0.0977 -0.0108  0.5640
  177SOL     OW  705   0.593   0.348   1.343 -0.3374 -0.2901 -0.2434
  177SOL    HW1  706   0.569   0.439   1.341  1.2388 -2.3032 -1.4174
  177SOL    HW2  707   0.592   0.325   1.437 -0.4193 -0.3743 -2.8113
  177SOL     MW  708   0.590   0.357   1.355 -0.1402 -0.5668 -0.7371
  178SOL     OW  709   3.060   0.424   2.909 -0.4161 -0.0482  0.3922
  178SOL    HW1  710   3.005   0.463   2.981  1.1192 -1.2692  0.2482
  178SOL    HW2  711   3.006   0.409   2.829 -1.2312 -0.9251 -1.8728
  178SOL     MW  712   3.046   0.427   2.908 -0.3211 -0.3250  0.0743
  179SOL     OW  713   1.643   1.309   1.444 -0.2680  0.2505 -0.7628
  179SOL    HW1  714   1.624   1.333   1.537 -0.6602 -0.7298  2.5083
  179SOL    HW2  715   1.738   1.322   1.428  2.3788  3.3201 -0.8309
  179SOL     MW  716   1.653   1.314   1.454  0.0294  0.5262 -0.3402
  180SOL     OW  717   2.995   0.179   0.441  0.3357  0.2952 -0.1490
  180SOL    HW1  718   2.950   0.207   0.355 -0.4098  0.2657 -0.5905
  180SOL    HW2  719   3.068   0.250   0.450  0.3140 -0.1209  1.3813
  180SOL     MW  720   2.998   0.192   0.431  0.2345  0.2364 -0.0054
  181SOL     OW  721   1.152   1.448   3.007  0.2355 -0.0054  0.0080
  181SOL    HW1  722   1.218   1.480   3.070 -0.0321 -3.5545  1.8903
  181SOL    HW2  723   1.194   1.406   2.930 -0.3462  0.7442 -2.5194
  181SOL     MW  724   1.167   1.447   3.005  0.1234 -0.3748 -0.0771
  182SOL     OW  725   0.479   0.858   1.661 -0.3205 -0.5283  0.1904
  182SOL    HW1  726   0.398   0.819   1.695  0.4422 -0.7232 -0.6083
  182SOL    HW2  727   0.543   0.830   1.729 -0.3970 -0.1724  0.8202
  182SOL     MW  728   0.477   0.849   1.674 -0.2300 -0.5071  0.1681
  183SOL     OW  729   1.553   1.487   1.268  0.0404 -0.6320 -0.7446
  183SOL    HW1  730   1.522   1.549   1.334 -1.1502  0.5502 -0.8039
  183SOL    HW2  731   1.585   1.415   1.325  0.5062 -1.6745 -0.3559
  183SOL     MW  732   1.553   1.485   1.284 -0.0552 -0.6136 -0.7011
  184SOL     OW  733   0.853   0.648   1.935  0.3775 -0.5164  0.0220
  184SOL    HW1  734   0.917   0.617   1.869  0.1301 -2.7383 -0.5581
  184SOL    HW2  735   0.851   0.575   1.988  0.7296  0.4462 -4.2186
  184SOL     MW  736   0.861   0.634   1.933  0.3913 -0.6825 -0.6141
  185SOL     OW  737   1.178   0.944   1.990  0.9798 -0.0100  0.4147
  185SOL    HW1  738   1.207   0.859   2.020  1.1406 -0.5046 -3.2470
  185SOL    HW2  739   1.237   1.010   2.015  0.0674 -2.0903 -1.8877
  185SOL     MW  740   1.189   0.941   1.997  0.8806 -0.3498 -0.3722
  186SOL     OW  741   0.410   1.663   1.413  0.1758 -0.6863 -0.0805
  186SOL    HW1  742   0.486   1.706   1.377 -1.0060  2.4183  1.0301
  186SOL    HW2  743   0.348   1.651   1.346  1.1791 -0.6347  0.3123
  186SOL     MW  744   0.412   1.668   1.400  0.1523 -0.2699  0.1179
  187SOL     OW  745   1.479   0.730   1.474 -0.4773  0.2638  0.5821
  187SOL    HW1  746   1.455   0.748   1.567  0.9990  2.0108 -0.2590
  187SOL    HW2  747   1.395   0.740   1.425  0.5712  0.0047 -0.3763
  187SOL     MW  748   1.465   0.734   1.480 -0.1442  0.4601  0.3447
  188SOL     OW  749   1.902   1.043   0.719 -0.7643  0.2977  0.2971
  188SOL    HW1  750   1.869   0.975   0.782  2.6431 -0.5146 -0.0809
  188SOL    HW2  751   1.994   1.029   0.709 -2.3147 -0.4341 -1.2788
  188SOL     MW  752   1.910   1.032   0.726 -0.5193  0.0940  0.0393
  189SOL     OW  753   0.678   0.823   0.804  0.4222  0.8308  0.2772
  189SOL    HW1  754   0.584   0.844   0.788 -1.3249 -0.4079 -3.7265
  189SOL    HW2  755   0.719   0.897   0.840  0.3558  1.5109 -0.3487
  189SOL     MW  756   0.671   0.836   0.807  0.1829  0.7571 -0.3336
  190SOL     OW  757   1.863   0.246   2.006  0.2710 -0.6949  0.7083
  190SOL    HW1  758   1.812   0.171   1.994  2.9918  1.5620 -0.4023
  190SOL    HW2  759   1.938   0.244   1.953 -0.8134  0.5238  0.0877
  190SOL     MW  760   1.866   0.236   1.998  0.4869 -0.2363  0.4799
  191SOL     OW  761   1.528   0.978   1.318 -0.9001  0.3488 -0.3666
  191SOL    HW1  762   1.473   1.039   1.374  0.6473  2.5669  0.7196
  191SOL    HW2  763   1.538   0.895   1.364 -0.7678  0.5570  0.9643
  191SOL     MW  764   1.522   0.975   1.331 -0.6785  0.6689 -0.0477
  192SOL     OW  765   0.703   1.986   2.828 -0.6145  0.5140  0.6126
  192SOL    HW1  766   0.668   2.068   2.784  1.7941 -1.8952 -0.7469
  192SOL    HW2  767   0.623   1.930   2.827  0.7005  0.2707 -0.0568
  192SOL     MW  768   0.688   1.990   2.822 -0.1232  0.1640  0.3449
  193SOL     OW  769   0.963   1.644   0.763 -0.3685  0.1294  0.2958
  193SOL    HW1  770   0.932   1.683   0.841 -0.9443  0.2352  1.5073
  193SOL    HW2  771   0.923   1.556   0.763 -0.2015 -0.4352  1.9047
  193SOL     MW  772   0.954   1.637   0.773 -0.4225  0.0689  0.6679
  194SOL     OW  773   0.465   1.300   0.927  0.4278 -0.0475  0.3438
  194SOL    HW1  774   0.445   1.205   0.927 -0.1792  2.1974 -1.9435
  194SOL    HW2  775   0.390   1.344   0.888 -0.3852  2.3530 -1.1858
  194SOL     MW  776   0.452   1.293   0.922  0.2404  0.5654 -0.1598
  195SOL     OW  777   1.294   1.106   2.984  0.2481 -0.6662 -0.4089
  195SOL    HW1  778   1.301   1.191   3.028  2.8967  2.9058 -2.4607
  195SOL    HW2  779   1.211   1.068   3.010 -0.3599  0.2981 -1.5487
  195SOL     MW  780   1.284   1.112   2.993  0.5173 -0.0677 -0.8300
  196SOL     OW  781   2.193   1.073   0.627  0.3195 -0.1682 -0.2533
  196SOL    HW1  782   2.178   1.025   0.545  0.6562  2.1080 -0.9235
  196SOL    HW2  783   2.183   1.162   0.595 -1.7076 -0.7268 -2.2693
  196SOL     MW  784   2.190   1.078   0.612  0.0964  0.0584 -0.6077
  197SOL     OW  785   0.607   1.258   2.025  0.5141 -0.1918  0.2337
  197SOL    HW1  786   0.592   1.163   2.005  0.3748  2.7045  2.2716
  197SOL    HW2  787   0.584   1.307   1.952  1.9282 -2.6655  0.5160
  197SOL     MW  788   0.602   1.252   2.012  0.6823 -0.1361  0.5399
  198SOL     OW  789   2.938   1.474   1.005 -0.0233  0.1575  0.4959
  198SOL    HW1  790   2.923   1.567   0.970 -0.1278  3.4525 -0.1645
  198SOL    HW2  791   2.858   1.423   0.986  1.5598  1.0341 -1.2051
  198SOL     MW  792   2.926   1.480   0.998  0.1718  0.7079  0.1843
  199SOL     OW  793   0.501   1.301   1.754  0.1844  0.0434 -0.0973
  199SOL    HW1  794   0.411   1.291   1.773  2.1737 -0.3845 -1.0943
  199SOL    HW2  795   0.505   1.375   1.684 -1.2596  1.8467  0.2946
  199SOL     MW  796   0.490   1.310   1.747  0.2563  0.2249 -0.1772
  200SOL     OW  797   1.894   0.004   1.336  0.0629 -0.1544 -0.0579
  200SOL    HW1  798   1.921  -0.010   1.245 -2.4836 -0.7647  0.9395
  200SOL    HW2  799   1.809  -0.042   1.335  1.5013  1.1822 -0.8498
  200SOL     MW  800   1.886  -0.004   1.324 -0.0833 -0.0586 -0.0308
  201SOL     OW  801   1.084   0.298   0.819 -0.2711 -0.4000 -0.0890
  201SOL    HW1  802   1.053   0.210   0.808 -0.3944 -0.4466 -3.2862
  201SOL    HW2  803   1.095   0.319   0.731 -2.0032 -0.0582 -2.2617
  201SOL     MW  804   1.081   0.289   0.806 -0.5159 -0.3610 -0.7975
  202SOL     OW  805   1.537   1.664   1.041 -0.0642  0.1815  0.3963
  202SOL    HW1  806   1.558   1.583   0.986  0.8145  0.6085 -0.7156
  202SOL    HW2  807   1.557   1.634   1.131  0.8038  0.1362  0.0989
  202SOL     MW  808   1.542   1.650   1.045  0.1663  0.2319  0.2104
  203SOL     OW  809  -0.000   0.483   1.180 -0.1256 -0.0979 -0.3195
  203SOL    HW1  810   0.057   0.433   1.125 -1.5568  1.3309  0.7000
  203SOL    HW2  811   0.062   0.526   1.245  0.8509 -0.2627 -1.2096
  203SOL     MW  812   0.016   0.482   1.181 -0.1856  0.0689 -0.3024
  204SOL     OW  813   1.055   1.773   0.521 -0.0835  0.6531  0.0904
  204SOL    HW1  814   1.051   1.712   0.595  0.4040  1.1230 -1.4555
  204SOL    HW2  815   0.988   1.752   0.457 -0.9950  0.4775  2.3102
  204SOL     MW  816   1.046   1.762   0.522 -0.1394  0.6919  0.1793
  205SOL     OW  817   1.362   0.108   1.333 -0.4714  0.1308 -0.2017
  205SOL    HW1  818   1.305   0.116   1.260  1.0160  0.7318 -0.4137
  205SOL    HW2  819   1.399   0.194   1.354  1.4648 -2.3710  1.7195
  205SOL     MW  820   1.359   0.120   1.326 -0.0197 -0.1200  0.0238
  206SOL     OW  821   0.423   3.090   1.416 -0.3618  0.0300 -0.0495
  206SOL    HW1  822   0.373   3.068   1.340  1.8459 -0.9393  3.0036
  206SOL    HW2  823   0.482   3.016   1.410  0.9806  1.1618 -0.9488
  206SOL     MW  824   0.424   3.078   1.405  0.1066  0.0514  0.2347
  207SOL     OW  825   0.938   1.505   0.223  0.3760 -0.1671 -0.4338
  207SOL    HW1  826   0.952   1.591   0.181 -0.8335 -0.5899 -0.6422
  207SOL    HW2  827   1.028   1.481   0.251 -3.0611 -0.7101 -1.3911
  207SOL     MW  828   0.952   1.513   0.221 -0.2370 -0.2945 -0.5876
  208SOL     OW  829   0.690   1.593   1.244  0.1141  0.0149  0.7248
  208SOL    HW1  830   0.754   1.595   1.315  1.9768  0.0373  3.1739
  208SOL    HW2  831   0.638   1.517   1.264  0.6217  0.5378  0.9310
  208SOL     MW  832   0.692   1.583   1.256  0.4268  0.0868  1.0751
  209SOL     OW  833   1.555   0.540   2.818  0.5843 -0.5111  0.0629
  209SOL    HW1  834   1.578   0.560   2.909 -0.3688 -0.4370  1.2620
  209SOL    HW2  835   1.599   0.459   2.802 -2.9821  2.8923  1.7418
  209SOL     MW  836   1.563   0.532   2.828 -0.0120 -0.0523  0.4426
  210SOL     OW  837   1.608   1.456   0.878  0.3612 -0.1221  0.1810
  210SOL    HW1  838   1.699   1.424   0.877 -0.2420  0.8637  3.6851
  210SOL    HW2  839   1.569   1.431   0.792 -1.5023 -2.2400 -1.3718
  210SOL     MW  840   1.615   1.449   0.866  0.0358 -0.2715  0.4384
  211SOL     OW  841   1.724   0.449   0.931 -0.4153 -0.7192 -0.2097
  211SOL    HW1  842   1.697   0.461   0.841 -1.2755 -0.1795  3.1694
  211SOL    HW2  843   1.815   0.473   0.931  1.1303 -3.2736 -1.4244
  211SOL     MW  844   1.733   0.453   0.919 -0.3249 -0.9850  0.0758
  212SOL     OW  845   0.232   1.134   0.086  0.1151  0.1242  0.0587
  212SOL    HW1  846   0.206   1.097   0.173  0.6124  3.2270  1.1220
  212SOL    HW2  847   0.314   1.089   0.060 -0.8471 -1.2523  0.6869
  212SOL     MW  848   0.239   1.123   0.094  0.0538  0.3520  0.2819
  213SOL     OW  849   0.395   1.740   3.059  0.1889  0.8546 -0.2940
  213SOL    HW1  850   0.436   1.788   3.130 -0.3137  1.5644 -1.1314
  213SOL    HW2  851   0.451   1.752   2.983 -0.4376 -0.0745 -1.8700
  213SOL     MW  852   0.408   1.748   3.058  0.0399  0.8257 -0.6124
  214SOL     OW  853   0.643   0.264   2.248 -0.1976  0.0911  0.0066
  214SOL    HW1  854   0.584   0.333   2.212 -2.0452  2.3528 -0.5445
  214SOL    HW2  855   0.720   0.270   2.195 -3.3041  5.1463 -0.1263
  214SOL     MW  856   0.645   0.274   2.236 -0.8512  1.0565 -0.0837
  215SOL     OW  857   0.466   0.719   2.611 -0.0316 -0.3328 -0.1924
  215SOL    HW1  858   0.504   0.701   2.523  0.1076 -3.7489  0.8693
  215SOL    HW2  859   0.388   0.657   2.629 -1.7861 -1.5456 -1.7805
  215SOL     MW  860   0.461   0.708   2.602 -0.2447 -0.9436 -0.2619
  216SOL     OW  861   3.063   3.035   2.684 -0.9566  0.5577 -0.2176
  216SOL    HW1  862   3.008   2.995   2.755  2.2752 -2.8557 -1.2111
  216SOL    HW2  863   3.046   3.127   2.667  0.1814 -0.2440  1.2215
  216SOL     MW  864   3.054   3.042   2.691 -0.3800  0.0015 -0.1588
  217SOL     OW  865   0.962   1.266   0.022  0.5546  0.3374  0.0240
  217SOL    HW1  866   1.024   1.196   0.002  0.9376  1.5231 -0.1004
  217SOL    HW2  867   1.019   1.334   0.051 -3.3722 -1.0105  0.1287
  217SOL     MW  868   0.978   1.266   0.023  0.0870  0.3160  0.0214
  218SOL     OW  869   0.929   1.305   2.554 -0.4485  0.4873 -0.1097
  218SOL    HW1  870   0.933   1.209   2.579  0.2937  1.3972  0.2100
  218SOL    HW2  871   0.996   1.358   2.587 -0.7061 -2.0049 -3.5600
  218SOL     MW  872   0.939   1.299   2.562 -0.3845  0.2785 -0.5227
  219SOL     OW  873   1.051   0.454   2.521  0.1259  0.1020 -0.0141
  219SOL    HW1  874   1.126   0.499   2.489  1.0564  1.4387  1.9209
  219SOL    HW2  875   0.990   0.528   2.543 -0.8947  1.3483 -1.0345
  219SOL     MW  876   1.053   0.470   2.520  0.1140  0.4428  0.1065
  220SOL     OW  877   1.782   0.444   2.174  0.6183 -0.3212  0.2468
  220SOL    HW1  878   1.705   0.470   2.120  1.5237  2.1576  1.0718
  220SOL    HW2  879   1.833   0.378   2.131  2.7194  1.5675  0.6159
  220SOL     MW  880   1.779   0.439   2.161  1.0150  0.2551  0.4043
  221SOL     OW  881   0.379   1.325   2.900 -0.4134  0.0919 -0.0849
  221SOL    HW1  882   0.413   1.240   2.875  1.3414  0.1977 -0.3066
  221SOL    HW2  883   0.364   1.388   2.832 -1.0243 -1.0345  1.7993
  221SOL     MW  884   0.381   1.322   2.888 -0.2625 -0.0428  0.1344
  222SOL     OW  885   0.284   0.916   2.635 -0.2948 -0.2238 -0.4741
  222SOL    HW1  886   0.276   0.951   2.546 -1.5283 -0.1961 -3.7992
  222SOL    HW2  887   0.345   0.841   2.627 -1.7344  1.2172  0.6715
  222SOL     MW  888   0.291   0.911   2.622 -0.6475 -0.0300 -0.7617
  223SOL     OW  889   0.022   2.029   2.603  0.4390  0.6044  0.1468
  223SOL    HW1  890   0.099   1.992   2.639  4.4698  2.2066  1.7108
  223SOL    HW2  891   0.054   2.073   2.526  0.0841  1.3091 -2.9165
  223SOL     MW  892   0.036   2.030   2.598  0.9240  0.9088 -0.0510
  224SOL     OW  893   1.467   0.823   2.584  0.1974 -0.6196  0.1707
  224SOL    HW1  894   1.471   0.838   2.677 -1.2358 -1.5954 -1.1901
  224SOL    HW2  895   1.482   0.911   2.552  2.9147  0.6107 -1.4396
  224SOL     MW  896   1.469   0.836   2.592  0.3668 -0.5860 -0.2213
  225SOL     OW  897   2.984   1.505   2.266  0.0342  0.2894  0.4862
  225SOL    HW1  898   3.044   1.574   2.244 -1.5005  0.7878  0.0487
  225SOL    HW2  899   2.929   1.533   2.339 -0.7286 -1.4993  1.0322
  225SOL     MW  900   2.985   1.518   2.273 -0.2689  0.1192  0.5005
  226SOL     OW  901   0.403   1.442   2.611  0.2823 -0.0963 -0.4428
  226SOL    HW1  902   0.499   1.444   2.628 -0.2901 -0.8997  2.9774
  226SOL    HW2  903   0.381   1.532   2.573 -1.9504  0.0397  0.8371
  226SOL     MW  904   0.412   1.454   2.608 -0.0878 -0.1844  0.1774
  227SOL     OW  905   0.436   1.064   2.819  0.1077 -0.1652 -0.6294
  227SOL    HW1  906   0.521   1.070   2.783 -1.7130 -0.8695  0.0744
  227SOL    HW2  907   0.376   1.023   2.748  1.9225 -3.2911 -0.1051
  227SOL     MW  908   0.439   1.059   2.805  0.1069 -0.6705 -0.4674
  228SOL     OW  909   0.654   0.980   1.998 -0.5456  0.5452 -0.2465
  228SOL    HW1  910   0.743   1.019   1.991 -0.8776  3.0658 -1.7663
  228SOL    HW2  911   0.646   0.964   2.099 -0.4839  2.3837  0.5751
  228SOL     MW  912   0.665   0.983   2.010 -0.5813  1.1203 -0.3386
  229SOL     OW  913   0.180   0.526   0.001 -0.1722  0.2824  0.1207
  229SOL    HW1  914   0.133   0.512  -0.081  2.1479 -1.4464 -2.3483
  229SOL    HW2  915   0.143   0.470   0.069  2.4436  1.6526 -2.1463
  229SOL     MW  916   0.169   0.517  -0.001  0.4791  0.2351 -0.5042
  230SOL     OW  917   1.771   1.370   2.036 -0.0226  0.3034 -0.3857
  230SOL    HW1  918   1.738   1.370   2.129 -1.4613  0.5091  1.0307
  230SOL    HW2  919   1.830   1.297   2.014 -0.6433 -0.8701 -2.9016
  230SOL     MW  920   1.774   1.361   2.046 -0.2943  0.1757 -0.5307
  231SOL     OW  921   2.764   1.318   2.197  0.5822  0.5738  0.0773
  231SOL    HW1  922   2.839   1.384   2.200 -1.1242  0.1947  2.3300
  231SOL    HW2  923   2.710   1.330   2.118 -1.8992 -2.2830  1.7398
  231SOL     MW  924   2.767   1.328   2.187  0.0296  0.1468  0.5939
  232SOL     OW  925   2.274   0.865   2.134  0.0416  0.0027  0.4654
  232SOL    HW1  926   2.216   0.893   2.060  0.0795  0.3225 -0.1941
  232SOL    HW2  927   2.224   0.842   2.212  2.7915  0.8672  0.3450
  232SOL     MW  928   2.259   0.866   2.134  0.4094  0.1590  0.3625
  233SOL     OW  929   2.048   0.518   1.946  0.1847 -0.1245  0.2181
  233SOL    HW1  930   2.082   0.561   1.870 -2.1402 -1.5721  0.7273
  233SOL    HW2  931   2.112   0.549   2.010 -3.3446  0.5724  3.6690
  233SOL     MW  932   2.061   0.528   1.944 -0.5877 -0.2235  0.7406
  234SOL     OW  933   0.268   1.015   2.356  0.3437 -0.4022  0.9470
  234SOL    HW1  934   0.169   1.030   2.360  1.0491  1.9523 -1.0379
  234SOL    HW2  935   0.304   1.099   2.385  2.1442  0.7179  0.0933
  234SOL     MW  936   0.260   1.028   2.360  0.6743  0.0563  0.5725
  235SOL     OW  937   1.078   3.062   2.740  0.3508  0.1216 -0.1468
  235SOL    HW1  938   1.116   3.007   2.808  1.7044  0.4607 -1.1308
  235SOL    HW2  939   1.067   3.148   2.785  0.2738 -1.0845 -1.5210
  235SOL     MW  940   1.082   3.066   2.755  0.5192  0.0072 -0.4579
  236SOL     OW  941   2.944   0.546   0.020  0.3159 -0.1739 -0.1439
  236SOL    HW1  942   2.850   0.550  -0.010  0.7129  0.2125 -0.6602
  236SOL    HW2  943   2.991   0.632   0.017  1.2701  0.6367 -4.0855
  236SOL     MW  944   2.938   0.558   0.016  0.4942 -0.0160 -0.7321
  237SOL     OW  945   1.786   0.954   2.150  0.5382  0.6472  0.2333
  237SOL    HW1  946   1.828   1.025   2.101  4.9398 -0.4926  0.9369
  237SOL    HW2  947   1.814   0.959   2.239  4.9424  0.3122 -0.2475
  237SOL     MW  948   1.796   0.964   2.155  1.7000  0.4526  0.2627
  238SOL     OW  949   1.068   1.754   2.970 -0.3453  0.6226  0.0999
  238SOL    HW1  950   1.017   1.670   2.968  1.5638  0.2306  0.8344
  238SOL    HW2  951   1.162   1.727   2.965 -0.5745  1.0320  0.3527
  238SOL     MW  952   1.074   1.740   2.969 -0.1236  0.6249  0.2301
  239SOL     OW  953   1.194   1.442   2.328  0.2001 -0.0908  0.7475
  239SOL    HW1  954   1.174   1.449   2.420  0.4028 -2.6984 -0.5612
  239SOL    HW2  955   1.176   1.347   2.319  2.6302 -0.7209  1.2851
  239SOL     MW  956   1.189   1.430   2.339  0.5475 -0.5180  0.6457
  240SOL     OW  957   0.656   0.897   2.264  0.9931  0.4738  0.1359
  240SOL    HW1  958   0.679   0.936   2.355  2.2637  2.2539  1.5330
  240SOL    HW2  959   0.735   0.837   2.248  3.5531 -1.5955  0.7924
  240SOL     MW  960   0.670   0.894   2.274  1.4985  0.4356  0.4069
  241SOL     OW  961   0.617   0.334   3.039 -0.4180  0.2531  0.2747
  241SOL    HW1  962   0.655   0.405   3.096  1.9244  1.9304  0.7408
  241SOL    HW2  963   0.532   0.366   2.999 -1.5632 -2.0809  0.7593
  241SOL     MW  964   0.611   0.348   3.041 -0.2600  0.1664  0.4002
  242SOL     OW  965   1.505   1.765   2.276  0.4532 -0.4335 -0.3691
  242SOL    HW1  966   1.458   1.817   2.339 -0.1619  0.2060 -2.0103
  242SOL    HW2  967   1.430   1.738   2.226  1.8167  1.0573 -1.4957
  242SOL     MW  968   1.489   1.769   2.278  0.5520 -0.1524 -0.7343
  243SOL     OW  969   0.950   0.213   2.349  0.1766  0.1779  0.6667
  243SOL    HW1  970   1.049   0.211   2.334  2.8725 -2.4988 -0.8979
  243SOL    HW2  971   0.950   0.286   2.415  0.7928  0.5705 -2.4664
  243SOL     MW  972   0.963   0.223   2.355  0.6136 -0.1235  0.0469
  244SOL     OW  973   0.219   0.704   2.331  0.1846 -0.3969  0.5526
  244SOL    HW1  974   0.218   0.798   2.339 -0.7463  2.2394  2.4775
  244SOL    HW2  975   0.303   0.678   2.360 -0.5160  0.7141 -2.5801
  244SOL     MW  976   0.230   0.713   2.336 -0.0306  0.0975  0.3933
  245SOL     OW  977   1.248   0.237   2.350  0.2592 -0.1375 -0.0407
  245SOL    HW1  978   1.304   0.161   2.357  1.4629  0.3236  1.0839
  245SOL    HW2  979   1.289   0.304   2.402  0.5578 -0.3950 -2.2002
  245SOL     MW  980   1.260   0.236   2.358  0.4575 -0.1106 -0.1772
  246SOL     OW  981   1.270   1.176   2.092  0.1321  0.1062  0.5309
  246SOL    HW1  982   1.213   1.134   2.156 -0.0679  1.7099  2.0327
  246SOL    HW2  983   1.353   1.184   2.135 -1.8315 -2.9408 -0.6588
  246SOL     MW  984   1.273   1.171   2.106 -0.1533 -0.0843  0.5721
  247SOL     OW  985   0.693   0.509   0.134  0.3980  0.3173 -0.3306
  247SOL    HW1  986   0.626   0.579   0.125  0.5696  1.6424  2.2032
  247SOL    HW2  987   0.783   0.545   0.122 -0.7904  3.2432 -0.4771
  247SOL     MW  988   0.696   0.523   0.131  0.2639  0.8782 -0.0156
  248SOL     OW  989   0.463   1.202   2.462  0.6063  0.3922 -0.5002
  248SOL    HW1  990   0.486   1.257   2.380 -0.6396  1.9551 -2.3654
  248SOL    HW2  991   0.419   1.262   2.516  0.2014  1.6102 -2.6995
  248SOL     MW  992   0.460   1.217   2.459  0.3885  0.7591 -1.0365
  249SOL     OW  993   0.195   1.851   2.706  0.0141 -0.4686 -0.4884
  249SOL    HW1  994   0.152   1.774   2.672  0.2253  0.1023 -2.9830
  249SOL    HW2  995   0.181   1.835   2.799  1.1043 -0.4646 -0.9934
  249SOL     MW  996   0.188   1.838   2.713  0.1858 -0.3928 -0.8841
  250SOL     OW  997   2.132   0.853   2.373 -0.3518 -0.1514  0.1204
  250SOL    HW1  998   2.190   0.784   2.404  1.0333 -2.7480  1.8199
  250SOL    HW2  999   2.167   0.916   2.433 -0.0776 -3.2648  0.1703
  250SOL     MW 1000   2.144   0.852   2.385 -0.1329 -0.9048  0.3512
  251SOL     OW 1001   0.229   0.812   2.052  0.1556  0.3880  0.2378
  251SOL    HW1 1002   0.209   0.753   2.120  0.0597  3.0825 -0.7492
  251SOL    HW2 1003   0.220   0.759   1.969 -0.5601  0.0629  1.1374
  251SOL     MW 1004   0.225   0.797   2.050  0.0485  0.7006  0.2263
  252SOL     OW 1005   1.688   1.012   2.860 -0.4194  0.5874  0.1765
  252SOL    HW1 1006   1.699   1.040   2.953  1.6765 -1.9727 -0.3122
  252SOL    HW2 1007   1.747   1.069   2.802  0.9537  0.6605  0.4807
  252SOL     MW 1008   1.697   1.023   2.865  0.0383  0.2592  0.1522
  253SOL     OW 1009   1.157   1.728   2.530  0.1348 -0.2137  0.3267
  253SOL    HW1 1010   1.139   1.760   2.433  0.2538 -1.0195 -1.4120
  253SOL    HW2 1011   1.076   1.764   2.581 -1.8828 -0.0699 -0.1294
  253SOL     MW 1012   1.144   1.737   2.524 -0.1157 -0.3011  0.0371
  254SOL     OW 1013   1.025   1.083   2.227 -0.2475 -0.1551  0.0025
  254SOL    HW1 1014   1.005   0.992   2.202  1.7283 -2.6070 -0.0484
  254SOL    HW2 1015   0.943   1.122   2.251 -1.6612  0.5287 -1.2569
  254SOL     MW 1016   1.011   1.076   2.227 -0.1733 -0.3884 -0.1704
  255SOL     OW 1017   0.832   2.434   2.179 -0.3518  0.5516 -0.8056
  255SOL    HW1 1018   0.749   2.411   2.219  1.4745 -2.4588  1.2892
  255SOL    HW2 1019   0.893   2.428   2.253 -1.1030 -0.0546 -1.8198
  255SOL     MW 1020   0.829   2.430   2.194 -0.2099  0.0744 -0.6630
  256SOL     OW 1021   1.165   2.829   2.894 -0.1541  0.1495  0.1549
  256SOL    HW1 1022   1.113   2.790   2.824 -0.4375  2.9700  1.2375
  256SOL    HW2 1023   1.258   2.851   2.867  3.1039  0.6445  1.4100
  256SOL     MW 1024   1.170   2.827   2.881  0.2383  0.5870  0.4633
  257SOL     OW 1025   0.171   1.902   0.098  0.1841 -0.0580  0.0855
  257SOL    HW1 1026   0.168   1.833   0.160 -1.8008  0.7544 -0.6860
  257SOL    HW2 1027   0.162   1.856   0.009  0.8450 -1.6309  3.1832
  257SOL     MW 1028   0.170   1.887   0.094  0.0094 -0.1583  0.3924
  258SOL     OW 1029   0.708   1.050   2.470 -0.4914 -1.1672 -0.2424
  258SOL    HW1 1030   0.745   1.114   2.401  0.0411  1.4892 -3.2123
  258SOL    HW2 1031   0.624   1.093   2.487  2.6479  1.1032 -2.1506
  258SOL     MW 1032   0.702   1.064   2.463 -0.0069 -0.5172 -0.8861
  259SOL     OW 1033   0.753   0.515   2.380  0.6797  0.3731 -0.4637
  259SOL    HW1 1034   0.670   0.552   2.354 -0.9026 -3.0634  0.8951
  259SOL    HW2 1035   0.730   0.420   2.388 -2.1214  0.5547  1.7137
  259SOL     MW 1036   0.739   0.507   2.378  0.1013 -0.0564  0.0029
  260SOL     OW 1037   0.595   0.128   1.579 -0.2634  0.4077  0.4106
  260SOL    HW1 1038   0.533   0.091   1.513 -1.5374  2.8620  1.9364
  260SOL    HW2 1039   0.684   0.130   1.538  0.1419  0.4186  0.1483
  260SOL     MW 1040   0.598   0.123   1.565 -0.3780  0.7330  0.5773
  261SOL     OW 1041   1.187   0.681   2.073  0.0134  0.0871 -0.4525
  261SOL    HW1 1042   1.206   0.681   2.167 -0.1548 -0.3047 -0.1610
  261SOL    HW2 1043   1.259   0.622   2.039  2.4578  0.2630  2.7148
  261SOL     MW 1044   1.199   0.673   2.081  0.3137  0.0586  0.0038
  262SOL     OW 1045   1.158   0.311   0.093  0.2168 -0.1711 -0.0369
  262SOL    HW1 1046   1.258   0.313   0.096  1.2223  1.1361  0.8082
  262SOL    HW2 1047   1.127   0.229   0.070  1.3602  2.4252 -0.0293
  262SOL     MW 1048   1.167   0.300   0.091  0.5004  0.3439  0.0756
  263SOL     OW 1049   0.456   3.043   2.490 -0.5286 -0.0645 -0.2523
  263SOL    HW1 1050   0.387   3.110   2.490  0.5826  2.2280  2.8091
  263SOL    HW2 1051   0.499   3.073   2.407  1.6905  2.7480  0.1712
  263SOL     MW 1052   0.453   3.056   2.479 -0.0892  0.6091  0.2075
  264SOL     OW 1053   1.533   1.301   1.916 -0.2252  0.0190  0.4883
  264SOL    HW1 1054   1.469   1.315   1.984  1.2065  2.9251 -0.8768
  264SOL    HW2 1055   1.610   1.343   1.958 -0.4586 -0.7514 -1.0850
  264SOL     MW 1056   1.534   1.309   1.931 -0.0671  0.3008  0.1006
  265SOL     OW 1057   0.654   2.689   2.254 -0.3140  0.7830 -0.4866
  265SOL    HW1 1058   0.713   2.627   2.221 -0.3102  2.8854  2.7638
  265SOL    HW2 1059   0.685   2.712   2.337 -0.8955 -1.5005 -3.0694
  265SOL     MW 1060   0.666   2.684   2.261 -0.3902  0.7591 -0.3985
  266SOL     OW 1061   0.915   0.810   2.200  0.5223  0.2475 -0.4220
  266SOL    HW1 1062   0.920   0.755   2.125  0.4847  1.8775  1.2971
  266SOL    HW2 1063   0.968   0.758   2.265 -1.5618  0.4077 -0.2747
  266SOL     MW 1064   0.923   0.796   2.198  0.2424  0.4837 -0.1757
  267SOL     OW 1065   1.373   1.713   2.698 -0.2501 -0.5718 -0.1719
  267SOL    HW1 1066   1.436   1.678   2.634  0.7508 -0.5185 -0.4531
  267SOL    HW2 1067   1.302   1.715   2.631 -2.9470 -1.0002  1.9217
  267SOL     MW 1068   1.372   1.708   2.681 -0.4739 -0.6213  0.0672
  268SOL     OW 1069   0.244   0.748   1.774  0.5577  0.1495  0.4328
  268SOL    HW1 1070   0.192   0.823   1.740 -4.0364  1.0446 -0.7167
  268SOL    HW2 1071   0.248   0.675   1.709  0.5007  2.8127 -0.8545
  268SOL     MW 1072   0.238   0.748   1.761 -0.0560  0.6190  0.1113
  269SOL     OW 1073   1.362   1.919   2.446  0.3307 -0.1725 -0.4747
  269SOL    HW1 1074   1.405   2.002   2.446 -0.0835 -1.5952 -1.0691
  269SOL    HW2 1075   1.284   1.916   2.513  0.0671 -0.3595  0.3691
  269SOL     MW 1076   1.357   1.929   2.454  0.2413 -0.3849 -0.4418
  270SOL     OW 1077   1.166   0.373   1.605  0.2246 -0.5304  0.0344
  270SOL    HW1 1078   1.144   0.283   1.619 -1.1504  0.4176  1.0945
  270SOL    HW2 1079   1.253   0.378   1.577 -0.0867  0.2367 -0.6996
  270SOL     MW 1080   1.175   0.362   1.603  0.0021 -0.3041  0.0774
  271SOL     OW 1081   0.832   3.036   2.391  0.4063  0.6266  0.2936
  271SOL    HW1 1082   0.908   2.985   2.430  0.3947 -0.5329  1.6920
  271SOL    HW2 1083   0.872   3.125   2.388  0.6198  2.8066  1.5919
  271SOL     MW 1084   0.848   3.041   2.395  0.4329  0.7612  0.6494
  272SOL     OW 1085   1.428   2.865   2.802  0.5513 -0.2391 -0.2969
  272SOL    HW1 1086   1.429   2.949   2.758  0.6232  4.1868 -0.3905
  272SOL    HW2 1087   1.466   2.878   2.890  0.9534 -3.4410 -0.6993
  272SOL     MW 1088   1.433   2.878   2.808  0.6138 -0.0776 -0.3624
  273SOL     OW 1089   1.428   0.888   2.866 -0.4232 -0.6860  0.1277
  273SOL    HW1 1090   1.511   0.921   2.875 -0.7245 -0.5433  1.1228
  273SOL    HW2 1091   1.377   0.966   2.892  0.9676  1.2231  0.2571
  273SOL     MW 1092   1.432   0.903   2.871 -0.2795 -0.4153  0.2761
  274SOL     OW 1093   1.362   0.756   0.226  0.4178  0.0777  0.2067
  274SOL    HW1 1094   1.423   0.685   0.244  2.5793  0.4353 -1.5945
  274SOL    HW2 1095   1.280   0.722   0.259  1.9203 -0.6060 -0.1885
  274SOL     MW 1096   1.359   0.742   0.233  0.9012  0.0347 -0.0831
  275SOL     OW 1097   1.708   0.667   1.815  0.8353  0.6585 -0.4249
  275SOL    HW1 1098   1.773   0.706   1.874 -1.1913  0.3575 -1.7325
  275SOL    HW2 1099   1.725   0.573   1.825  0.0544  1.5512 -0.6682
  275SOL     MW 1100   1.719   0.660   1.824  0.4648  0.7366 -0.6295
  276SOL     OW 1101   0.210   1.254   1.798 -0.2838  0.4171  0.0228
  276SOL    HW1 1102   0.212   1.188   1.870 -2.6720  1.0877 -0.2719
  276SOL    HW2 1103   0.151   1.324   1.831 -1.7929 -3.3127 -0.6596
  276SOL     MW 1104   0.203   1.254   1.812 -0.7980  0.0135 -0.1061
  277SOL     OW 1105   1.920   1.353   2.591 -1.1632  0.2090 -0.5372
  277SOL    HW1 1106   2.010   1.361   2.580 -1.3944 -1.2687 -0.3700
  277SOL    HW2 1107   1.912   1.266   2.632  0.3592 -2.7583 -0.8167
  277SOL     MW 1108   1.931   1.343   2.595 -0.9928 -0.3775 -0.5520
  278SOL     OW 1109   1.430   0.724   1.744 -0.7407 -0.3097 -0.1478
  278SOL    HW1 1110   1.386   0.648   1.782 -3.2141 -0.4337 -1.7875
  278SOL    HW2 1111   1.523   0.708   1.766 -0.1492  1.6040  0.0992
  278SOL     MW 1112   1.437   0.712   1.752 -0.9890 -0.0735 -0.3315
  279SOL     OW 1113   0.542   3.090   2.243  0.4353 -0.0348  0.0418
  279SOL    HW1 1114   0.622   3.049   2.201  3.1355 -0.4838  1.8958
  279SOL    HW2 1115   0.564   3.185   2.249 -3.5950  1.8218  0.7521
  279SOL     MW 1116   0.556   3.097   2.238  0.2598  0.1509  0.3801
  280SOL     OW 1117   1.509   1.134   2.216 -0.2358  0.1830 -0.5534
  280SOL    HW1 1118   1.494   1.063   2.156 -1.0914  1.0536 -0.7594
  280SOL    HW2 1119   1.509   1.103   2.302 -0.9286 -1.9211 -2.7148
  280SOL     MW 1120   1.507   1.121   2.219 -0.4401  0.0202 -0.8658
  281SOL     OW 1121   1.272   1.332   2.811  0.0241 -0.3916 -0.8942
  281SOL    HW1 1122   1.368   1.349   2.810  0.1561 -2.1624  2.4739
  281SOL    HW2 1123   1.268   1.241   2.847 -1.8997  0.4686  1.7430
  281SOL     MW 1124   1.284   1.323   2.816 -0.2123 -0.5117 -0.1019
  282SOL     OW 1125   1.139   1.296   1.699 -0.0737  0.1246 -0.3307
  282SOL    HW1 1126   1.126   1.314   1.604 -0.8843 -0.1599  2.3608
  282SOL    HW2 1127   1.066   1.241   1.725 -0.9545  2.9216  2.4455
  282SOL     MW 1128   1.128   1.291   1.690 -0.2969  0.4561  0.3907
  283SOL     OW 1129   0.684   1.262   0.001 -0.1676  0.1310  0.4186
  283SOL    HW1 1130   0.780   1.268  -0.008  0.2864  0.9467 -1.5157
  283SOL    HW2 1131   0.663   1.349   0.017  1.9424 -0.6645 -0.7371
  283SOL     MW 1132   0.694   1.274   0.002  0.1707  0.1337  0.0109
  284SOL     OW 1133   0.499   0.658   2.335  0.0234 -0.1635  0.5028
  284SOL    HW1 1134   0.515   0.735   2.279  1.2402  0.0908  0.6561
  284SOL    HW2 1135   0.456   0.581   2.278 -0.0778 -3.3544  1.9285
  284SOL     MW 1136   0.495   0.658   2.320  0.1706 -0.5509  0.7111
  285SOL     OW 1137   0.811   0.941   2.842  0.2016 -0.1229  0.8527
  285SOL    HW1 1138   0.869   0.963   2.763 -0.4332  2.8278 -1.3101
  285SOL    HW2 1139   0.786   0.854   2.820  2.0871  1.5927 -2.2004
  285SOL     MW 1140   0.816   0.932   2.829  0.3666  0.4928  0.1646
  286SOL     OW 1141   1.137   1.465   2.620  0.2421  0.2720  0.3480
  286SOL    HW1 1142   1.201   1.446   2.691  1.1217 -0.9644  3.3595
  286SOL    HW2 1143   1.138   1.563   2.612 -0.8001 -0.8289  0.0334
  286SOL     MW 1144   1.146   1.475   2.628  0.2206 -0.0364  0.7039
  287SOL     OW 1145   1.001   0.900   0.330 -0.2231 -0.2803 -0.4366
  287SOL    HW1 1146   1.052   0.956   0.389 -3.1677 -0.5315  0.4474
  287SOL    HW2 1147   0.953   0.959   0.275  1.2978 -1.4486  0.2852
  287SOL     MW 1148   1.002   0.915   0.330 -0.4109 -0.4676 -0.2247
  288SOL     OW 1149   1.556   0.628   2.107  0.3994  0.0268 -0.0666
  288SOL    HW1 1150   1.538   0.623   2.204  0.9015  1.6509 -0.3801
  288SOL    HW2 1151   1.536   0.718   2.080 -1.3409 -0.8821  2.4018
  288SOL     MW 1152   1.551   0.639   2.116  0.2360  0.1212  0.2177
  289SOL     OW 1153   0.941   1.047   2.629  0.1619  0.2921  0.2180
  289SOL    HW1 1154   1.004   0.996   2.568  0.1773  3.6627  1.4569
  289SOL    HW2 1155   0.855   1.044   2.583 -2.5581 -1.3137 -0.1584
  289SOL     MW 1156   0.938   1.040   2.615 -0.1949  0.5250  0.3318
  290SOL     OW 1157   0.863   0.559   1.534  0.4984 -0.3419  0.8695
  290SOL    HW1 1158   0.927   0.548   1.466 -1.4926  0.0324 -0.0672
  290SOL    HW2 1159   0.901   0.563   1.621 -0.2002 -0.5747  1.0894
  290SOL     MW 1160   0.876   0.558   1.536  0.1436 -0.3232  0.7749
  291SOL     OW 1161   0.137   0.339   0.168 -0.6308  0.1046 -0.5193
  291SOL    HW1 1162   0.236   0.331   0.195  4.2144 -0.8811 -0.7739
  291SOL    HW2 1163   0.139   0.287   0.090 -0.7806  1.3335 -0.1446
  291SOL     MW 1164   0.150   0.331   0.161 -0.0113  0.1367 -0.5035
  292SOL     OW 1165   0.981   0.522   0.062 -0.1308 -0.0778  0.0450
  292SOL    HW1 1166   1.013   0.605   0.096  2.7887  0.5193  0.4328
  292SOL    HW2 1167   1.045   0.462   0.097 -0.3885 -0.7366  0.0216
  292SOL     MW 1168   0.994   0.525   0.071  0.2204 -0.0859  0.0931
  293SOL     OW 1169   0.210   0.100   2.475  0.0402  0.4142  0.1480
  293SOL    HW1 1170   0.170   0.057   2.399  1.6737  1.5396 -1.6209
  293SOL    HW2 1171   0.159   0.176   2.499  0.2853  3.0077  0.6082
  293SOL     MW 1172   0.198   0.104   2.468  0.2881  0.9049 -0.0246
  294SOL     OW 1173   1.492   0.655   2.361  0.0209 -0.8555  0.1954
  294SOL    HW1 1174   1.492   0.718   2.433 -1.9048  2.3680  3.3009
  294SOL    HW2 1175   1.482   0.568   2.401  1.3242  0.5804 -0.6285
  294SOL     MW 1176   1.490   0.652   2.376 -0.0612 -0.2407  0.4965
  295SOL     OW 1177   0.901   0.696   2.512 -0.1345 -0.2146  0.5887
  295SOL    HW1 1178   0.849   0.638   2.456 -1.5798 -4.1458 -1.2079
  295SOL    HW2 1179   0.840   0.715   2.585 -0.1041  2.2057  1.3113
  295SOL     MW 1180   0.886   0.690   2.514 -0.3212 -0.4140  0.4470
  296SOL     OW 1181   1.273   0.280   2.067  0.6747  0.4632 -0.0786
  296SOL    HW1 1182   1.339   0.208   2.051 -0.6182  3.1276 -0.9229
  296SOL    HW2 1183   1.247   0.271   2.165  1.4089  0.2193  1.7205
  296SOL     MW 1184   1.278   0.269   2.078  0.6010  0.7826  0.0474
  297SOL     OW 1185   1.474   0.416   1.557  0.3897  0.1186  0.6604
  297SOL    HW1 1186   1.501   0.502   1.590  0.8504 -0.6050  2.0478
  297SOL    HW2 1187   1.506   0.358   1.624  0.1837 -2.0244 -1.4697
  297SOL     MW 1188   1.482   0.420   1.570  0.4233 -0.2597  0.5624
  298SOL     OW 1189   1.520   0.910   2.058  0.4144 -0.6971 -0.2301
  298SOL    HW1 1190   1.550   0.940   1.972 -1.2904 -1.1946 -1.2306
  298SOL    HW2 1191   1.601   0.916   2.110  1.4827 -0.4846 -1.5273
  298SOL     MW 1192   1.534   0.915   2.053  0.3304 -0.7347 -0.5333
  299SOL     OW 1193   0.511   1.048   3.092 -0.1286 -0.6802  0.1502
  299SOL    HW1 1194   0.577   1.116   3.083  1.3155 -2.8936 -0.7080
  299SOL    HW2 1195   0.481   1.045   3.002  0.5373 -0.2709  3.1222
  299SOL     MW 1196   0.516   1.056   3.079  0.1498 -0.9182  0.4291
  300SOL     OW 1197   1.275   1.167   2.506 -0.0711 -0.1919  0.0474
  300SOL    HW1 1198   1.213   1.094   2.503  1.9681  0.7824 -0.8076
  300SOL    HW2 1199   1.229   1.242   2.555 -0.4685  2.3972 -0.3633
  300SOL     MW 1200   1.261   1.167   2.512  0.1456  0.2783 -0.1196
  301SOL     OW 1201   1.349   0.823   0.573  0.1732  0.7652 -0.2332
  301SOL    HW1 1202   1.411   0.833   0.642 -1.3365  0.6555  1.2230
  301SOL    HW2 1203   1.279   0.794   0.630  1.6366 -3.3285  1.3252
  301SOL     MW 1204   1.348   0.820   0.590  0.1671  0.2106  0.1645
  302SOL     OW 1205   0.105   1.451   2.008  0.1880 -0.1056  0.5533
  302SOL    HW1 1206   0.128   1.399   2.086  1.9609 -0.1978 -0.6127
  302SOL    HW2 1207   0.077   1.532   2.042 -0.8556 -0.2897  2.2245
  302SOL     MW 1208   0.105   1.455   2.023  0.2842 -0.1421  0.6200
  303SOL     OW 1209   0.408   1.712   2.568 -0.1480 -0.4678 -0.0554
  303SOL    HW1 1210   0.421   1.752   2.485 -2.2640 -0.4252 -0.1030
  303SOL    HW2 1211   0.346   1.771   2.610 -0.9655  0.7119  3.0483
  303SOL     MW 1212   0.401   1.725   2.563 -0.5351 -0.3066  0.3478
  304SOL     OW 1213   0.642   2.070   2.391  0.0039 -0.1822 -0.0111
  304SOL    HW1 1214   0.683   2.154   2.366  1.0094 -1.1894 -0.8548
  304SOL    HW2 1215   0.704   1.994   2.403  1.7472 -0.8904  0.3531
  304SOL     MW 1216   0.656   2.071   2.389  0.3666 -0.4085 -0.0744
  305SOL     OW 1217   1.082   0.572   0.579 -0.1073 -0.0617 -0.0907
  305SOL    HW1 1218   0.987   0.540   0.569 -3.6748 -0.2415  0.5109
  305SOL    HW2 1219   1.142   0.500   0.560  1.3034 -0.7207  3.0781
  305SOL     MW 1220   1.077   0.558   0.575 -0.3919 -0.1724  0.4067
  306SOL     OW 1221   1.221   1.483   0.349  0.2823 -0.1054 -0.1688
  306SOL    HW1 1222   1.251   1.406   0.393 -1.1876  1.3251 -1.0952
  306SOL    HW2 1223   1.256   1.482   0.261  3.3878  2.2427 -1.0808
  306SOL     MW 1224   1.230   1.473   0.343  0.4981  0.3931 -0.4114
  307SOL     OW 1225   1.379   0.512   1.921  0.3325 -0.4821 -0.1642
  307SOL    HW1 1226   1.326   0.435   1.962  1.0769 -3.6746 -1.9478
  307SOL    HW2 1227   1.455   0.539   1.981  0.7679 -0.8882 -0.3739
  307SOL     MW 1228   1.382   0.506   1.935  0.4881 -0.9569 -0.4272
  308SOL     OW 1229   2.154   0.642   2.657 -0.5572  0.1256 -0.2554
  308SOL    HW1 1230   2.242   0.630   2.708  0.9055 -2.2431  1.6330
  308SOL    HW2 1231   2.149   0.739   2.685  3.1449 -1.2467  0.9871
  308SOL     MW 1232   2.165   0.654   2.668  0.1243 -0.3680  0.1577
  309SOL     OW 1233   0.568   0.434   0.377 -0.8428 -0.6283  0.2013
  309SOL    HW1 1234   0.605   0.367   0.437  0.2091 -0.1686 -0.4810
  309SOL    HW2 1235   0.527   0.379   0.310 -2.5207 -1.9752  2.1994
  309SOL     MW 1236   0.567   0.418   0.376 -0.9254 -0.7454  0.3749
  310SOL     OW 1237   0.469   0.532   1.930  0.0663  0.2611  0.0373
  310SOL    HW1 1238   0.489   0.475   1.861  2.6602  0.4586  1.6885
  310SOL    HW2 1239   0.514   0.619   1.915  0.6253  0.6515 -0.0805
  310SOL     MW 1240   0.478   0.536   1.919  0.4823  0.3387  0.2396
  311SOL     OW 1241   1.916   0.783   1.969 -0.5110  0.1210 -0.5264
  311SOL    HW1 1242   1.854   0.811   2.040  0.8874 -1.1682 -1.6412
  311SOL    HW2 1243   1.953   0.695   1.992  1.1084 -0.4436 -0.6289
  311SOL     MW 1244   1.913   0.775   1.981 -0.1128 -0.1236 -0.6870
  312SOL     OW 1245   1.722   2.500   0.018 -0.4071  0.0655  0.0716
  312SOL    HW1 1246   1.772   2.485   0.102 -1.6987 -0.8943  0.5656
  312SOL    HW2 1247   1.643   2.554   0.048  0.9124  0.0626  0.6480
  312SOL     MW 1248   1.718   2.505   0.033 -0.4034 -0.0615  0.2128
  313SOL     OW 1249   0.122   1.185   2.934 -0.1958 -0.5241 -0.0064
  313SOL    HW1 1250   0.155   1.172   3.027 -1.6339  1.8086  1.0446
  313SOL    HW2 1251   0.188   1.234   2.886  2.3923  2.5348  0.1552
  313SOL     MW 1252   0.135   1.190   2.940 -0.0441  0.1873  0.1536
  314SOL     OW 1253   2.132   2.994   2.992 -0.2063 -0.7461  0.5377
  314SOL    HW1 1254   2.105   3.024   2.909  1.1296  0.6911  0.0434
  314SOL    HW2 1255   2.166   3.066   3.041  3.3227 -1.4664  0.3896
  314SOL     MW 1256   2.133   3.007   2.987  0.4356 -0.6515  0.4529
  315SOL     OW 1257   1.517   1.914   3.050 -0.6153 -0.9062  0.4629
  315SOL    HW1 1258   1.456   1.984   3.076  0.5383 -0.6063  0.1735
  315SOL    HW2 1259   1.572   1.960   2.977  2.4201 -1.1283 -2.8944
  315SOL     MW 1260   1.516   1.929   3.044 -0.0626 -0.8959 -0.0182
  316SOL     OW 1261   1.254   0.632   2.705 -0.0945 -0.4657  0.5801
  316SOL    HW1 1262   1.339   0.651   2.738 -0.0784 -0.0579 -2.7772
  316SOL    HW2 1263   1.204   0.621   2.786  3.9171 -3.2021 -0.4178
  316SOL     MW 1264   1.258   0.633   2.720  0.4369 -0.7729  0.0055
  317SOL     OW 1265   0.668   1.432   2.628  0.3979  0.0831 -0.3542
  317SOL    HW1 1266   0.719   1.351   2.633  1.2059  0.4002 -0.4672
  317SOL    HW2 1267   0.694   1.465   2.532 -3.8076  1.6714  1.7177
  317SOL     MW 1268   0.678   1.426   2.616 -0.0504  0.3345 -0.0957
  318SOL     OW 1269   1.353   0.374   2.911  0.1173  0.2979  0.2749
  318SOL    HW1 1270   1.265   0.420   2.917  1.2760  0.8463  1.3138
  318SOL    HW2 1271   1.404   0.428   2.853 -1.9255  2.0241 -1.1570
  318SOL     MW 1272   1.348   0.387   2.904  0.0007  0.5980  0.2231
  319SOL     OW 1273   0.825   0.480   2.820  0.2817  0.5157 -0.2569
  319SOL    HW1 1274   0.799   0.423   2.747 -0.9861 -0.8140 -0.2390
  319SOL    HW2 1275   0.783   0.430   2.890  3.0628 -0.6315  1.8055
  319SOL     MW 1276   0.816   0.466   2.819  0.4813  0.1889  0.0175
  320SOL     OW 1277   1.052   1.352   2.000  0.1277  0.3111 -0.9346
  320SOL    HW1 1278   1.130   1.306   2.013 -2.4270  3.6485 -0.1634
  320SOL    HW2 1279   1.078   1.420   1.937 -1.6484  0.3964  0.1934
  320SOL     MW 1280   1.066   1.354   1.993 -0.4437  0.7627 -0.6841
  321SOL     OW 1281   1.055   0.990   3.065 -0.6335  0.3910  0.1461
  321SOL    HW1 1282   0.985   0.981   3.001 -0.6663  2.2921  1.0924
  321SOL    HW2 1283   1.102   0.906   3.066 -0.9473 -1.0904  0.6949
  321SOL     MW 1284   1.052   0.978   3.057 -0.6792  0.4464  0.3434
  322SOL     OW 1285   1.183   0.841   1.728  0.5358 -0.3804 -0.1397
  322SOL    HW1 1286   1.273   0.803   1.710  0.4410 -2.2401  0.0594
  322SOL    HW2 1287   1.179   0.871   1.826 -1.7977 -1.4072  1.5167
  322SOL     MW 1288   1.195   0.840   1.739  0.2154 -0.7612  0.1051
  323SOL     OW 1289   1.172   1.524   1.848  0.3837  0.3080 -0.5891
  323SOL    HW1 1290   1.181   1.453   1.787 -0.7720  3.5998  0.4705
  323SOL    HW2 1291   1.109   1.588   1.803  0.4153  0.5831 -3.8239
  323SOL     MW 1292   1.165   1.523   1.834  0.2354  0.7786 -0.8761
  324SOL     OW 1293   1.520   1.073   2.487 -0.2838  0.3311  0.2130
  324SOL    HW1 1294   1.427   1.112   2.501 -1.2192  3.2159  1.2423
  324SOL    HW2 1295   1.568   1.127   2.550 -1.5248 -1.5935 -1.7067
  324SOL     MW 1296   1.514   1.086   2.497 -0.5709  0.4578  0.0955
  325SOL     OW 1297   1.095   0.497   2.903 -0.2759 -0.3080 -0.2483
  325SOL    HW1 1298   1.067   0.534   2.993 -0.7357  0.9000  2.4030
  325SOL    HW2 1299   1.011   0.505   2.860  0.4432 -0.1786 -0.4785
  325SOL     MW 1300   1.080   0.503   2.910 -0.2417 -0.1315  0.0711
  326SOL     OW 1301   0.474   1.347   2.236  0.5016  0.2738  0.4745
  326SOL    HW1 1302   0.507   1.318   2.148  1.6028  0.0438  0.8434
  326SOL    HW2 1303   0.476   1.443   2.232 -0.6644  0.0116  0.6737
  326SOL     MW 1304   0.478   1.356   2.224  0.4931  0.2089  0.5494
  327SOL     OW 1305   1.858   0.908   2.436 -0.5903 -0.1568  0.9726
  327SOL    HW1 1306   1.825   0.840   2.502  1.7346  1.8637  1.5229
  327SOL    HW2 1307   1.949   0.883   2.433 -2.3902  0.7522 -0.4292
  327SOL     MW 1308   1.866   0.896   2.444 -0.5211  0.2297  0.8602
  328SOL     OW 1309   0.190   1.305   2.203 -0.0983  1.1838 -0.6522
  328SOL    HW1 1310   0.153   1.231   2.159 -0.8429 -0.3570  1.3112
  328SOL    HW2 1311   0.288   1.303   2.201 -0.1094 -0.5883  1.5582
  328SOL     MW 1312   0.198   1.295   2.197 -0.1980  0.7467 -0.1015
  329SOL     OW 1313   0.112   0.132   1.440 -0.5523 -0.2989  0.3700
  329SOL    HW1 1314   0.074   0.177   1.526 -0.3994  1.0024  2.6386
  329SOL    HW2 1315   0.196   0.174   1.419  3.1424  1.8795  0.0753
  329SOL     MW 1316   0.118   0.144   1.449 -0.0446  0.1602  0.6305
  330SOL     OW 1317   0.346   2.990   2.059 -0.1622  0.4607 -0.0900
  330SOL    HW1 1318   0.410   3.022   2.119  2.0045 -1.7028  1.5347
  330SOL    HW2 1319   0.285   2.928   2.111  0.3701 -0.5852  1.0712
  330SOL     MW 1320   0.347   2.986   2.074  0.1939  0.0372  0.2776
  331SOL     OW 1321   0.786   1.214   2.276 -1.0136 -0.1388  0.4195
  331SOL    HW1 1322   0.730   1.232   2.197 -0.9816  0.7323  0.8106
  331SOL    HW2 1323   0.814   1.304   2.301  1.2166  1.7288  0.3697
  331SOL     MW 1324   0.782   1.228   2.269 -0.7151  0.2225  0.4646
  332SOL     OW 1325   1.346   1.715   2.959 -0.0351 -0.6863  0.5361
  332SOL    HW1 1326   1.346   1.715   2.864 -0.3010 -1.7117  1.1466
  332SOL    HW2 1327   1.377   1.807   2.986  0.5725 -0.6693  0.2701
  332SOL     MW 1328   1.350   1.727   2.950  0.0100 -0.8194  0.5815
  333SOL     OW 1329   1.724   1.469   3.006 -0.0204  0.2849  0.3476
  333SOL    HW1 1330   1.812   1.429   3.010 -1.0270 -2.7607 -2.1568
  333SOL    HW2 1331   1.668   1.443   3.082 -0.6134  0.7063  1.7918
  333SOL     MW 1332   1.728   1.460   3.016 -0.2314 -0.0614  0.2077
  334SOL     OW 1333   1.320   3.068   2.628  0.0080 -0.2530  0.0859
  334SOL    HW1 1334   1.227   3.064   2.660  1.5171 -0.9921 -1.5926
  334SOL    HW2 1335   1.352   3.162   2.620  3.4627  1.6112 -0.7409
  334SOL     MW 1336   1.312   3.080   2.631  0.6629 -0.1045 -0.2447
  335SOL     OW 1337   1.238   0.765   3.051 -0.4623  0.5741 -0.2637
  335SOL    HW1 1338   1.289   0.763   3.128 -1.8300  0.6704  0.7023
  335SOL    HW2 1339   1.310   0.790   2.989  1.3722 -2.7461  2.3909
  335SOL     MW 1340   1.254   0.768   3.053 -0.4007  0.1487  0.2140
  336SOL     OW 1341   0.886   1.116   1.915 -0.2800 -0.1152  0.1558
  336SOL    HW1 1342   0.909   1.209   1.946  1.0580 -0.6319 -1.1624
  336SOL    HW2 1343   0.959   1.059   1.942  0.3945 -1.2583 -0.1020
  336SOL     MW 1344   0.899   1.121   1.923 -0.0145 -0.3342 -0.0522
  337SOL     OW 1345   0.510   1.789   2.808  0.5112 -0.2851 -0.4472
  337SOL    HW1 1346   0.466   1.758   2.728  3.2470 -0.2271  1.0963
  337SOL    HW2 1347   0.592   1.740   2.806 -1.5749 -0.4381 -0.7186
  337SOL     MW 1348   0.515   1.778   2.797  0.5969 -0.2976 -0.2794
  338SOL     OW 1349   1.126   0.847   2.544 -0.2994 -0.2260 -0.3890
  338SOL    HW1 1350   1.055   0.790   2.508  0.8427  0.5076 -3.8697
  338SOL    HW2 1351   1.176   0.787   2.602  3.0426  0.8063 -0.4070
  338SOL     MW 1352   1.123   0.831   2.547  0.2922  0.0070 -0.8507
  339SOL     OW 1353   1.597   1.051   1.827 -0.1855 -0.9934 -0.3436
  339SOL    HW1 1354   1.519   1.043   1.774  0.7950  1.5998  0.5250
  339SOL    HW2 1355   1.588   1.142   1.860 -0.4787  1.8910  0.5135
  339SOL     MW 1356   1.586   1.062   1.824 -0.0948 -0.2707 -0.1159
  340SOL     OW 1357   1.359   1.541   0.085  0.1153 -0.3989 -0.2177
  340SOL    HW1 1358   1.371   1.613   0.022 -0.3052 -2.8253 -1.1368
  340SOL    HW2 1359   1.438   1.497   0.102 -0.9965  0.3165 -1.4937
  340SOL     MW 1360   1.371   1.545   0.079 -0.0869 -0.6246 -0.5073
  341SOL     OW 1361   0.131   1.350   2.661 -0.0300  0.4482 -0.4188
  341SOL    HW1 1362   0.223   1.363   2.639 -0.0721 -0.0821  1.2960
  341SOL    HW2 1363   0.075   1.306   2.598  0.1281 -1.0566  1.9960
  341SOL     MW 1364   0.136   1.345   2.650 -0.0147  0.1797  0.1261
  342SOL     OW 1365   1.440   0.315   0.065  0.2528 -0.1479 -0.2796
  342SOL    HW1 1366   1.489   0.391   0.098 -2.2135  0.2573  0.3729
  342SOL    HW2 1367   1.421   0.328  -0.029  2.9900 -1.4348  1.0942
  342SOL     MW 1368   1.444   0.327   0.057  0.2886 -0.2642 -0.0122
  343SOL     OW 1369   0.231   0.285   2.236 -0.1460  0.1188 -0.2310
  343SOL    HW1 1370   0.234   0.235   2.315 -0.0809 -0.8833 -1.9710
  343SOL    HW2 1371   0.181   0.235   2.164 -0.6742 -2.9444  0.1947
  343SOL     MW 1372   0.225   0.272   2.237 -0.2071 -0.4176 -0.4044
  344SOL     OW 1373   1.681   2.072   0.255  0.2130  0.1245  0.0807
  344SOL    HW1 1374   1.685   2.121   0.176 -0.8636 -2.2980  1.1096
  344SOL    HW2 1375   1.600   2.017   0.240 -2.0869 -1.7147 -1.2129
  344SOL     MW 1376   1.671   2.071   0.242 -0.2325 -0.4378  0.0458
  345SOL     OW 1377   0.715   1.587   2.381  0.4310  0.0056 -0.1180
  345SOL    HW1 1378   0.628   1.602   2.347  1.6043 -2.5934  1.2693
  345SOL    HW2 1379   0.766   1.571   2.296  1.2943  0.3578  1.5253
  345SOL     MW 1380   0.710   1.587   2.365  0.6997 -0.2908  0.2819
  346SOL     OW 1381   1.713   1.117   0.017  0.3339  1.0314  0.4286
  346SOL    HW1 1382   1.808   1.091   0.037 -0.8650 -1.5493  1.4917
  346SOL    HW2 1383   1.671   1.074   0.094 -0.1850  0.4378  0.7371
  346SOL     MW 1384   1.720   1.108   0.030  0.1072  0.6126  0.6095
  347SOL     OW 1385   1.236   0.707   2.341  0.8388  0.2570 -0.3034
  347SOL    HW1 1386   1.331   0.700   2.342 -1.0132  1.8120 -0.1310
  347SOL    HW2 1387   1.212   0.772   2.412 -1.7700 -0.0282 -2.7133
  347SOL     MW 1388   1.246   0.715   2.350  0.2503  0.4245 -0.5986
  348SOL     OW 1389   1.311   2.599   1.887  0.1025 -0.3062  0.4509
  348SOL    HW1 1390   1.353   2.521   1.915 -1.0541  1.0969 -3.4144
  348SOL    HW2 1391   1.373   2.664   1.918  1.3192 -0.1469  0.1790
  348SOL     MW 1392   1.325   2.598   1.895  0.1104 -0.1001 -0.0950
  349SOL     OW 1393   1.424   0.214   2.671  0.6702  0.3245  0.5891
  349SOL    HW1 1394   1.375   0.288   2.709  0.6721 -0.6543  2.7933
  349SOL    HW2 1395   1.473   0.171   2.739  0.6856  2.5655  1.2522
  349SOL     MW 1396   1.424   0.218   2.685  0.6725  0.4910  0.9674
  350SOL     OW 1397   1.855   0.678   2.621  0.3750 -0.3261 -0.4773
  350SOL    HW1 1398   1.822   0.594   2.604 -1.4597  1.2232 -0.9167
  350SOL    HW2 1399   1.950   0.659   2.605  1.3650 -1.5292 -2.1701
  350SOL     MW 1400   1.863   0.665   2.616  0.2635 -0.2804 -0.7586
  351SOL     OW 1401   0.086   0.953   1.626  0.1737 -0.1638  0.0529
  351SOL    HW1 1402   0.007   0.994   1.668 -0.0474  2.9764  3.7761
  351SOL    HW2 1403   0.143   1.026   1.602 -0.1642 -1.2037 -2.8027
  351SOL     MW 1404   0.083   0.968   1.629  0.1000  0.1134  0.1674
  352SOL     OW 1405   0.723   1.650   2.771 -0.5476 -0.3381 -0.1142
  352SOL    HW1 1406   0.740   1.629   2.862  4.3262 -0.0288  1.3505
  352SOL    HW2 1407   0.709   1.565   2.728  1.5239  1.2884  0.2161
  352SOL     MW 1408   0.723   1.636   2.777  0.3687 -0.0827  0.1226
  353SOL     OW 1409   2.983   2.434   2.722  0.4013  0.4463  0.1568
  353SOL    HW1 1410   3.072   2.407   2.690  0.6902 -1.1468  0.9765
  353SOL    HW2 1411   2.964   2.521   2.687 -0.0158  1.1521 -0.0467
  353SOL     MW 1412   2.992   2.442   2.713  0.3844  0.3292  0.2381
  354SOL     OW 1413   0.415   2.405   0.846 -0.0623  0.3895  0.0478
  354SOL    HW1 1414   0.420   2.356   0.928 -2.9502 -0.9429  0.1565
  354SOL    HW2 1415   0.344   2.365   0.793  0.0138  2.6417 -0.2561
  354SOL     MW 1416   0.406   2.393   0.850 -0.4333  0.5109  0.0220
  355SOL     OW 1417   0.069   2.170   0.388  0.0956 -0.1189  0.3948
  355SOL    HW1 1418  -0.025   2.151   0.359 -0.4947  2.6499 -0.3546
  355SOL    HW2 1419   0.050   2.223   0.461 -2.2513  1.3083 -2.0724
  355SOL     MW 1420   0.054   2.175   0.394 -0.2920  0.4347 -0.0296
  356SOL     OW 1421   0.853   2.953   1.020  0.1273 -0.6366  0.0354
  356SOL    HW1 1422   0.886   2.954   0.926 -0.7520  0.1254 -2.5892
  356SOL    HW2 1423   0.785   2.887   1.013  2.8705  1.4183  1.1731
  356SOL     MW 1424   0.849   2.944   1.006  0.3732 -0.2649 -0.1608
  357SOL     OW 1425   1.740   2.908   0.371 -0.1528  0.2065  0.2527
  357SOL    HW1 1426   1.686   2.850   0.420 -0.8610  3.9142 -0.1944
  357SOL    HW2 1427   1.831   2.875   0.365 -1.8798  3.6224 -1.0407
  357SOL     MW 1428   1.745   2.896   0.377 -0.4741  1.1464  0.0231
  358SOL     OW 1429   0.446   0.137   1.059  0.6441 -0.3211 -0.3409
  358SOL    HW1 1430   0.536   0.097   1.062  1.0953 -3.5518  1.3135
  358SOL    HW2 1431   0.425   0.141   0.970  0.5111 -0.5782  0.6207
  358SOL     MW 1432   0.455   0.132   1.048  0.6861 -0.7813  0.0042
  359SOL     OW 1433   0.977   2.871   1.819  0.0097 -0.0341 -0.1281
  359SOL    HW1 1434   0.954   2.792   1.874 -0.9249 -0.7489  0.4293
  359SOL    HW2 1435   1.019   2.856   1.733 -3.1702  2.6181  1.3535
  359SOL     MW 1436   0.979   2.858   1.815 -0.5331  0.2215  0.1409
  360SOL     OW 1437   0.631   2.786   1.001 -0.6200 -0.2309  0.2047
  360SOL    HW1 1438   0.652   2.763   0.911 -1.3983 -2.0065 -0.4699
  360SOL    HW2 1439   0.612   2.710   1.052  0.9888 -2.2143  1.0893
  360SOL     MW 1440   0.631   2.773   0.996 -0.5105 -0.7269  0.2324
  361SOL     OW 1441   0.182   2.726   1.351  0.3563 -0.5166  0.0293
  361SOL    HW1 1442   0.173   2.808   1.411  0.5268  3.3021  0.0301
  361SOL    HW2 1443   0.272   2.701   1.371 -2.7530  0.2692  0.6747
  361SOL     MW 1444   0.192   2.734   1.361 -0.0315  0.0909  0.1145
  362SOL     OW 1445   1.494   2.397   0.601 -0.2249  1.0166 -0.0095
  362SOL    HW1 1446   1.473   2.307   0.644  0.2639  0.6202 -0.7535
  362SOL    HW2 1447   1.518   2.466   0.659  0.2270 -0.6313 -0.3089
  362SOL     MW 1448   1.494   2.395   0.614 -0.1008  0.7469 -0.1471
  363SOL     OW 1449   0.262   3.040   0.746  0.2974 -0.3689 -0.0777
  363SOL    HW1 1450   0.280   2.978   0.817  2.2997 -1.0949  2.6512
  363SOL    HW2 1451   0.172   3.071   0.746  1.3348 -0.5156 -1.3166
  363SOL     MW 1452   0.253   3.036   0.755  0.6984 -0.4841  0.1189
  364SOL     OW 1453   0.708   0.163   0.250  0.6290 -0.0840  0.5104
  364SOL    HW1 1454   0.650   0.092   0.219 -2.5745 -0.6910  0.7545
  364SOL    HW2 1455   0.676   0.250   0.210  0.6124 -1.2392  1.6740
  364SOL     MW 1456   0.696   0.165   0.241  0.2041 -0.3165  0.6962
  365SOL     OW 1457   0.935   1.968   1.135 -0.4948 -0.3400 -0.1388
  365SOL    HW1 1458   0.902   2.048   1.088  0.8920 -2.3058 -0.6948
  365SOL    HW2 1459   0.902   1.896   1.079 -0.8333  0.4061  2.3487
  365SOL     MW 1460   0.927   1.969   1.121 -0.3565 -0.5009  0.1160
  366SOL     OW 1461   2.867   2.604   1.004  0.3907 -0.3449 -0.3281
  366SOL    HW1 1462   2.929   2.594   1.083  1.3111 -0.7088  1.2280
  366SOL    HW2 1463   2.923   2.645   0.931 -2.2925 -0.3567  0.8562
  366SOL     MW 1464   2.883   2.608   1.005  0.1581 -0.3945  0.0335
  367SOL     OW 1465   1.272   2.795   0.873  0.1685 -0.5105 -0.0794
  367SOL    HW1 1466   1.187   2.841   0.880 -1.7761  0.7594  1.0504
  367SOL    HW2 1467   1.252   2.722   0.808 -0.2444  2.7278  0.1258
  367SOL     MW 1468   1.258   2.792   0.865 -0.1426  0.0843  0.0967
  368SOL     OW 1469   1.675   0.474   0.671  0.3438  0.1781 -0.1050
  368SOL    HW1 1470   1.750   0.423   0.639  1.2365 -0.1810  2.8195
  368SOL    HW2 1471   1.679   0.568   0.652  0.9563 -1.5643  0.7687
  368SOL     MW 1472   1.685   0.480   0.664  0.5424 -0.0992  0.3961
  369SOL     OW 1473   0.123   2.487   1.707  0.5458 -0.4757 -0.4052
  369SOL    HW1 1474   0.212   2.470   1.728  0.4838  0.3546  1.2374
  369SOL    HW2 1475   0.109   2.581   1.730  0.3750  1.1276 -1.3394
  369SOL     MW 1476   0.133   2.497   1.713  0.5151 -0.1546 -0.3118
  370SOL     OW 1477   0.686   0.055   0.983 -0.3793  0.6480  0.3507
  370SOL    HW1 1478   0.729   0.140   0.993  0.1758 -1.2521  3.0461
  370SOL    HW2 1479   0.744  -0.012   1.022 -1.0113  1.6377  0.1401
  370SOL     MW 1480   0.699   0.057   0.990 -0.3895  0.5279  0.6785
  371SOL     OW 1481   1.313   2.958   1.485 -0.2727  0.5090  0.2062
  371SOL    HW1 1482   1.279   2.880   1.434  2.1425  1.7522 -0.8631
  371SOL    HW2 1483   1.313   3.028   1.422  0.9191  0.2957  3.2502
  371SOL     MW 1484   1.308   2.957   1.470  0.2032  0.6449  0.4667
  372SOL     OW 1485   0.836   2.281   0.495 -0.3908  0.0465 -0.4341
  372SOL    HW1 1486   0.788   2.199   0.486 -0.8689  1.5120 -1.2866
  372SOL    HW2 1487   0.807   2.326   0.413 -0.5314 -0.9446 -2.6608
  372SOL     MW 1488   0.826   2.276   0.483 -0.4724  0.1091 -0.8404
  373SOL     OW 1489   2.842   3.016   1.397 -0.3342 -0.5972 -0.2689
  373SOL    HW1 1490   2.910   2.989   1.337  0.9126 -0.5458 -0.0699
  373SOL    HW2 1491   2.823   3.109   1.361 -2.8644  0.1730  1.2616
  373SOL     MW 1492   2.848   3.025   1.385 -0.5035 -0.4888 -0.0407
  374SOL     OW 1493   1.527   0.518   0.263 -0.0490 -0.8023 -0.2618
  374SOL    HW1 1494   1.623   0.540   0.240  1.4873  0.5922  2.6913
  374SOL    HW2 1495   1.520   0.485   0.355  1.4420  3.4486 -0.8320
  374SOL     MW 1496   1.539   0.516   0.272  0.3504 -0.0575  0.0526
  375SOL     OW 1497   1.121   2.121   2.321 -0.2238  0.0710  0.0173
  375SOL    HW1 1498   1.119   2.116   2.417 -0.4506 -0.8715 -3.5556
  375SOL    HW2 1499   1.185   2.059   2.293 -1.4061  0.5101 -0.7016
  375SOL     MW 1500   1.130   2.112   2.330 -0.4097  0.0046 -0.5489
  376SOL     OW 1501   0.681   2.544   0.096  0.2433  0.3428 -0.6206
  376SOL    HW1 1502   0.734   2.462   0.119 -1.5438  0.1068 -3.4582
  376SOL    HW2 1503   0.629   2.512   0.024 -3.6951  0.6034 -0.7174
  376SOL     MW 1504   0.681   2.529   0.089 -0.5121  0.3461 -1.0078
  377SOL     OW 1505   1.299   1.976   0.847  0.4253 -0.2405 -0.1140
  377SOL    HW1 1506   1.211   1.957   0.808  1.0367  0.1022 -1.5352
  377SOL    HW2 1507   1.286   1.956   0.942 -2.4963 -0.3471 -1.7394
  377SOL     MW 1508   1.286   1.971   0.854  0.1205 -0.2093 -0.5160
  378SOL     OW 1509   1.022   2.777   1.558  0.3184 -0.1882  0.1700
  378SOL    HW1 1510   0.960   2.701   1.571 -0.6185  0.9079  1.5908
  378SOL    HW2 1511   0.963   2.838   1.504  1.2493  2.8960 -0.7727
  378SOL     MW 1512   1.006   2.775   1.552  0.3176  0.3633  0.2331
  379SOL     OW 1513   1.105   1.801   2.266 -0.0122 -0.1609 -0.2598
  379SOL    HW1 1514   1.015   1.789   2.250  0.8192  2.9480  0.7388
  379SOL    HW2 1515   1.146   1.717   2.237  1.1253 -0.2192  0.0725
  379SOL     MW 1516   1.098   1.788   2.260  0.2476  0.2416 -0.0842
  380SOL     OW 1517   0.875   0.123   1.539  0.2903 -0.6696  0.1480
  380SOL    HW1 1518   0.917   0.067   1.473  0.7717 -3.5288  0.8981
  380SOL    HW2 1519   0.938   0.130   1.604  2.4429 -1.4003 -3.2620
  380SOL     MW 1520   0.889   0.116   1.539  0.6378 -1.1433 -0.2029
  381SOL     OW 1521   0.798   1.959   0.771 -0.1351 -0.1695  0.0911
  381SOL    HW1 1522   0.900   1.954   0.768  0.3742  0.3852 -0.0281
  381SOL    HW2 1523   0.777   2.031   0.827  1.8489 -0.9976 -1.3358
  381SOL     MW 1524   0.809   1.968   0.778  0.1938 -0.2056 -0.1129
  382SOL     OW 1525   0.728   0.061   0.718  0.2925  0.4509 -0.1351
  382SOL    HW1 1526   0.709   0.069   0.813  0.7926  2.0273  2.1277
  382SOL    HW2 1527   0.683  -0.022   0.688 -1.6439 -1.3857 -0.5716
  382SOL     MW 1528   0.720   0.051   0.727  0.1030  0.4166  0.1059
  383SOL     OW 1529   0.416   0.046   0.375 -0.1316  0.1437 -0.0401
  383SOL    HW1 1530   0.488  -0.020   0.348 -1.3560  0.2939 -1.2123
  383SOL    HW2 1531   0.339  -0.006   0.398  0.0915 -0.4165 -2.5593
  383SOL     MW 1532   0.416   0.030   0.374 -0.2637  0.0896 -0.5271
  384SOL     OW 1533   0.622   2.910   0.649  0.4272  0.1017  0.4078
  384SOL    HW1 1534   0.647   2.825   0.680 -1.6435  3.3993 -0.7094
  384SOL    HW2 1535   0.527   2.903   0.623  0.7913 -0.7275 -2.2091
  384SOL     MW 1536   0.613   2.898   0.649  0.2020  0.4274 -0.0849
  385SOL     OW 1537   1.319   2.072   1.546 -0.3599  0.0290 -0.5788
  385SOL    HW1 1538   1.390   2.082   1.609  1.0041  0.3333 -0.8396
  385SOL    HW2 1539   1.280   1.987   1.572  0.7857  0.7655 -1.4670
  385SOL     MW 1540   1.323   2.062   1.557 -0.0288  0.1663 -0.7304
  386SOL     OW 1541   1.357   0.357   0.814  0.0086 -0.7692 -0.2051
  386SOL    HW1 1542   1.268   0.330   0.818  1.3663  2.3525  2.4298
  386SOL    HW2 1543   1.371   0.372   0.909  0.0191  0.4321  0.9040
  386SOL     MW 1544   1.347   0.355   0.827  0.1891 -0.1988  0.2889
  387SOL     OW 1545   0.833   2.209   1.478  0.0725  0.3685 -0.3769
  387SOL    HW1 1546   0.896   2.256   1.418  0.3800 -1.9383  0.2416
  387SOL    HW2 1547   0.877   2.117   1.481  0.3937  0.5403 -1.6193
  387SOL     MW 1548   0.847   2.203   1.470  0.1555  0.0868 -0.4592
  388SOL     OW 1549   1.524   2.784   1.252  0.9426 -0.2864  0.6719
  388SOL    HW1 1550   1.441   2.753   1.217 -0.2616  0.3694  1.4092
  388SOL    HW2 1551   1.593   2.757   1.186  0.0919 -1.3057  0.5208
  388SOL     MW 1552   1.522   2.776   1.238  0.6715 -0.3344  0.7492
  389SOL     OW 1553   0.360   0.108   3.095  0.1503 -0.6381 -0.0117
  389SOL    HW1 1554   0.433   0.097   3.031  1.1333 -1.2992  1.7342
  389SOL    HW2 1555   0.275   0.127   3.046 -3.3882 -2.9256 -2.3257
  389SOL     MW 1556   0.359   0.109   3.080 -0.1869 -1.0271 -0.0866
  390SOL     OW 1557   1.341   0.020   0.622 -0.3925 -0.1039  0.2859
  390SOL    HW1 1558   1.416   0.073   0.614 -0.0510  0.8775  0.9365
  390SOL    HW2 1559   1.330   0.008   0.717  0.3035  0.2440  0.5911
  390SOL     MW 1560   1.349   0.025   0.633 -0.2556  0.0715  0.4120
  391SOL     OW 1561   0.297   2.265   1.498 -0.3354 -0.2154  0.5798
  391SOL    HW1 1562   0.230   2.196   1.506 -1.9299  0.1002  1.2312
  391SOL    HW2 1563   0.246   2.346   1.470  0.8712 -1.6190  0.9759
  391SOL     MW 1564   0.281   2.266   1.496 -0.3866 -0.3589  0.7180
  392SOL     OW 1565   1.989   2.217   0.361  0.1581 -0.4714  0.4593
  392SOL    HW1 1566   1.938   2.168   0.423  0.7574 -0.3334  3.3558
  392SOL    HW2 1567   2.074   2.203   0.397 -0.7645  2.2094  2.4764
  392SOL     MW 1568   1.993   2.208   0.374  0.1154 -0.0995  1.1076
  393SOL     OW 1569   0.238   2.988   2.806  0.2380  0.0495  0.1020
  393SOL    HW1 1570   0.284   3.069   2.795 -1.9938 -2.5241  0.1946
  393SOL    HW2 1571   0.143   3.008   2.780 -0.4287  1.2219 -0.2136
  393SOL     MW 1572   0.231   3.001   2.801 -0.1444 -0.1354  0.0726
  394SOL     OW 1573   0.867   1.681   1.466  0.2500  0.3007  0.4335
  394SOL    HW1 1574   0.823   1.694   1.550 -0.5098  0.6020 -0.2085
  394SOL    HW2 1575   0.888   1.771   1.440 -2.1416  0.0731 -3.2523
  394SOL     MW 1576   0.864   1.694   1.474 -0.1658  0.3104 -0.1375
  395SOL     OW 1577   0.946   2.857   2.610  1.1302 -0.2885 -0.0307
  395SOL    HW1 1578   0.975   2.922   2.674 -1.0829  0.7027  0.8721
  395SOL    HW2 1579   1.033   2.808   2.583  1.1743  1.7905  0.8660
  395SOL     MW 1580   0.961   2.859   2.615  0.8440  0.1166  0.2067
  396SOL     OW 1581   0.809   1.845   2.367  0.3674 -0.3210  0.0185
  396SOL    HW1 1582   0.882   1.861   2.422  3.2725 -0.7767 -2.4622
  396SOL    HW2 1583   0.787   1.753   2.377  1.6866  1.0706  0.6342
  396SOL     MW 1584   0.815   1.835   2.375  0.9248 -0.1976 -0.2276
  397SOL     OW 1585   1.012   2.344   1.355  0.2707  0.2643  0.1680
  397SOL    HW1 1586   1.054   2.394   1.285 -0.3698 -0.8976  0.7307
  397SOL    HW2 1587   1.070   2.339   1.433 -1.2021 -2.6137  2.7004
  397SOL     MW 1588   1.025   2.350   1.356 -0.0081 -0.2688  0.5764
  398SOL     OW 1589   0.656   2.644   0.770 -0.1664 -1.0224  0.2316
  398SOL    HW1 1590   0.600   2.597   0.714 -3.0612  1.4408  0.0939
  398SOL    HW2 1591   0.744   2.598   0.763  2.1416 -1.8574  2.3800
  398SOL     MW 1592   0.661   2.632   0.762 -0.2438 -0.8076  0.4969
  399SOL     OW 1593   0.290   2.005   0.438 -0.0734 -0.1311  0.0197
  399SOL    HW1 1594   0.228   2.069   0.396 -2.2145  1.2130 -1.5962
  399SOL    HW2 1595   0.356   1.991   0.364 -0.2692 -2.4225 -0.7481
  399SOL     MW 1596   0.290   2.011   0.423 -0.3818 -0.2561 -0.2948
  400SOL     OW 1597   0.579   1.829   0.144 -0.2504 -0.1381  0.4065
  400SOL    HW1 1598   0.572   1.918   0.164 -0.1750 -1.0363  0.1514
  400SOL    HW2 1599   0.533   1.789   0.219  0.6067 -0.5157 -2.0920
  400SOL     MW 1600   0.572   1.836   0.157 -0.1274 -0.3064  0.0432
  401SOL     OW 1601   0.919   2.070   0.206 -0.4164  0.3040  0.3068
  401SOL    HW1 1602   0.916   1.980   0.201 -0.6171  2.6516 -0.6266
  401SOL    HW2 1603   1.007   2.090   0.245 -0.7471 -1.1703 -1.0278
  401SOL     MW 1604   0.930   2.060   0.210 -0.4865  0.4192  0.0075
  402SOL     OW 1605   0.687   2.937   1.695 -0.4449  0.1960 -0.1219
  402SOL    HW1 1606   0.744   2.893   1.764  0.9607  1.6519 -0.1799
  402SOL    HW2 1607   0.726   3.025   1.677 -0.3119  0.9258 -3.1119
  402SOL     MW 1608   0.700   2.943   1.702 -0.2419  0.4844 -0.5241
  403SOL     OW 1609   0.052   0.392   0.449 -0.1489 -0.8051 -0.1164
  403SOL    HW1 1610   0.132   0.418   0.493  1.4591 -2.3237  0.7382
  403SOL    HW2 1611   0.069   0.398   0.353 -0.4951  0.7126  1.1620
  403SOL     MW 1612   0.065   0.396   0.442  0.0176 -0.8052  0.1650
  404SOL     OW 1613   0.993   2.880   0.799 -0.2749 -0.6063  0.1105
  404SOL    HW1 1614   1.044   2.818   0.744 -3.2644 -0.3035  0.7350
  404SOL    HW2 1615   1.007   2.971   0.763 -0.5453  0.2219 -0.4193
  404SOL     MW 1616   1.002   2.884   0.787 -0.7050 -0.4571  0.1230
  405SOL     OW 1617   0.488   2.455   1.571  0.0595 -0.4326  0.1571
  405SOL    HW1 1618   0.487   2.527   1.501  2.2420 -1.2528  3.8226
  405SOL    HW2 1619   0.423   2.380   1.547 -2.7375 -1.5797  1.1134
  405SOL     MW 1620   0.480   2.455   1.559 -0.0216 -0.6922  0.7669
  406SOL     OW 1621   0.410   2.306   1.096  0.0714 -0.0695 -0.5744
  406SOL    HW1 1622   0.324   2.349   1.111  0.0794  1.2034  3.7987
  406SOL    HW2 1623   0.416   2.247   1.174 -2.8983 -2.1927  1.8747
  406SOL     MW 1624   0.399   2.304   1.108 -0.3193 -0.1817  0.3257
  407SOL     OW 1625   0.043   2.716   1.116 -0.5484  0.2118 -0.1005
  407SOL    HW1 1626   0.078   2.708   1.210  0.5987  2.0431 -0.7168
  407SOL    HW2 1627   0.113   2.707   1.061 -1.8750 -4.5544 -0.7964
  407SOL     MW 1628   0.057   2.714   1.121 -0.5721 -0.1754 -0.2736
  408SOL     OW 1629   2.092   2.049   0.649  0.0487 -0.2996  0.4093
  408SOL    HW1 1630   2.053   2.091   0.723  1.6622 -1.3358  1.4148
  408SOL    HW2 1631   2.019   2.004   0.604  3.0655 -0.3162  1.7970
  408SOL     MW 1632   2.077   2.049   0.653  0.6596 -0.4385  0.7251
  409SOL     OW 1633   1.344   0.060   0.882  0.3414  0.2383  0.3917
  409SOL    HW1 1634   1.379   0.140   0.843  2.7730  2.1415  0.9745
  409SOL    HW2 1635   1.418   0.021   0.933 -0.5154  1.3037 -1.0005
  409SOL     MW 1636   1.359   0.065   0.884  0.5492  0.6300  0.2849
  410SOL     OW 1637   1.106   2.445   1.130  0.0859 -0.3415  0.3241
  410SOL    HW1 1638   1.017   2.460   1.090  0.4934 -2.2865  2.1165
  410SOL    HW2 1639   1.147   2.370   1.076 -2.0590 -0.9150  1.3795
  410SOL     MW 1640   1.100   2.437   1.118 -0.1434 -0.6738  0.6998
  411SOL     OW 1641   1.950   0.074   2.859  0.5256 -0.2825 -0.0157
  411SOL    HW1 1642   1.895   0.079   2.776 -2.6005  0.4446 -1.7596
  411SOL    HW2 1643   1.890   0.077   2.932  1.6212 -0.9561  2.4627
  411SOL     MW 1644   1.935   0.075   2.857  0.2577 -0.2755  0.0812
  412SOL     OW 1645   1.081   2.207   0.593  0.1847  0.2679  0.3140
  412SOL    HW1 1646   1.118   2.278   0.642 -0.2231 -0.7883  0.5049
  412SOL    HW2 1647   1.000   2.232   0.557  2.1649  0.8958  2.3907
  412SOL     MW 1648   1.076   2.219   0.595  0.3922  0.2114  0.6132
  413SOL     OW 1649   0.548   2.771   0.090 -0.0626 -0.3209  0.1046
  413SOL    HW1 1650   0.586   2.681   0.093 -0.5044 -0.7861 -0.2602
  413SOL    HW2 1651   0.582   2.806   0.007 -1.6599 -1.4187 -1.6811
  413SOL     MW 1652   0.558   2.763   0.079 -0.3316 -0.5271 -0.1792
  414SOL     OW 1653   1.970   3.038   1.087 -0.1808 -1.2204  0.0126
  414SOL    HW1 1654   1.908   3.021   1.013  2.8201  1.1436 -1.6500
  414SOL    HW2 1655   2.035   2.966   1.086 -1.3767 -3.4301 -0.8198
  414SOL     MW 1656   1.970   3.026   1.077  0.0574 -1.2001 -0.3166
  415SOL     OW 1657   1.706   2.659   1.076 -0.1481 -0.0994 -0.1112
  415SOL    HW1 1658   1.667   2.575   1.111 -1.9557  0.8839  3.7909
  415SOL    HW2 1659   1.800   2.660   1.108  1.9678  1.4281  0.0488
  415SOL     MW 1660   1.713   2.648   1.085 -0.1074  0.2319  0.4247
  416SOL     OW 1661   0.595   1.917   1.374  0.5724 -0.1557 -0.2382
  416SOL    HW1 1662   0.529   1.982   1.349  0.8259 -0.2567 -2.2860
  416SOL    HW2 1663   0.615   1.874   1.290  1.4526 -0.5288 -1.8349
  416SOL     MW 1664   0.589   1.920   1.360  0.7219 -0.2182 -0.7190
  417SOL     OW 1665   1.013   3.051   2.044  0.0095  0.2960  0.0528
  417SOL    HW1 1666   0.933   3.018   2.084 -0.1610 -0.2312  0.7683
  417SOL    HW2 1667   1.023   2.999   1.966  0.8717  2.2376  1.3467
  417SOL     MW 1668   1.004   3.040   2.039  0.1007  0.4826  0.3179
  418SOL     OW 1669   0.652   2.985   0.232 -0.9034 -0.2178 -0.2148
  418SOL    HW1 1670   0.716   3.009   0.165 -0.5515 -1.3334 -1.3293
  418SOL    HW2 1671   0.624   2.905   0.187  2.3454  1.0120  1.1702
  418SOL     MW 1672   0.657   2.978   0.217 -0.4283 -0.2027 -0.1791
  419SOL     OW 1673   0.437   2.649   1.379 -0.3092 -0.3651  0.0678
  419SOL    HW1 1674   0.481   2.734   1.397  1.2584  0.6318  0.7937
  419SOL    HW2 1675   0.468   2.615   1.294  2.3688  0.1302  0.6875
  419SOL     MW 1676   0.447   2.656   1.370  0.2509 -0.1682  0.2453
  420SOL     OW 1677   0.770   2.143   0.990 -0.4236 -0.6923 -0.1090
  420SOL    HW1 1678   0.732   2.170   1.075 -1.2615  1.2723  0.6746
  420SOL    HW2 1679   0.812   2.218   0.957  0.7461 -1.0398  1.0863
  420SOL     MW 1680   0.770   2.156   0.997 -0.3798 -0.4789  0.1521
  421SOL     OW 1681   2.941   0.065   0.042 -0.0598 -0.0891 -0.0494
  421SOL    HW1 1682   2.918   0.031  -0.047  1.4634  1.0697 -2.7145
  421SOL    HW2 1683   2.955  -0.014   0.092 -0.1430  1.4939 -2.7450
  421SOL     MW 1684   2.940   0.050   0.037  0.1302  0.2726 -0.7567
  422SOL     OW 1685   0.843   2.452   0.964 -0.4848  0.2695  0.6816
  422SOL    HW1 1686   0.782   2.513   1.005 -0.0035  0.7863 -0.6126
  422SOL    HW2 1687   0.841   2.476   0.872 -3.3276  0.8099 -0.5124
  422SOL     MW 1688   0.835   2.463   0.957 -0.7964  0.4090  0.3533
  423SOL     OW 1689   1.526   0.162   0.508 -0.1416  0.0007 -0.1641
  423SOL    HW1 1690   1.528   0.137   0.413  0.3284  1.9820  1.1708
  423SOL    HW2 1691   1.489   0.247   0.502 -0.9313 -1.7501 -1.6414
  423SOL     MW 1692   1.521   0.170   0.494 -0.1838  0.0311 -0.1829
  424SOL     OW 1693   0.685   2.269   1.252 -0.1150 -0.1948  0.0499
  424SOL    HW1 1694   0.592   2.248   1.245  3.9097 -0.9313  2.9872
  424SOL    HW2 1695   0.706   2.248   1.342  0.3361 -0.8894 -1.5067
  424SOL     MW 1696   0.675   2.263   1.263  0.4755 -0.3836  0.2321
  425SOL     OW 1697   1.726   2.828   1.933 -0.5637 -0.0487 -0.4228
  425SOL    HW1 1698   1.764   2.835   1.845  0.3416 -0.3393  1.6371
  425SOL    HW2 1699   1.773   2.748   1.964  2.1920  1.0761 -1.3905
  425SOL     MW 1700   1.737   2.818   1.925 -0.0806  0.0614 -0.2787
  426SOL     OW 1701   0.792   1.680   1.933  0.6407  0.0765  0.1292
  426SOL    HW1 1702   0.763   1.697   1.846  1.5861 -2.1999 -1.6291
  426SOL    HW2 1703   0.777   1.759   1.979  0.0751  0.2118 -1.0611
  426SOL     MW 1704   0.787   1.693   1.928  0.6908 -0.2060 -0.2598
  427SOL     OW 1705   0.339   1.557   1.886 -0.8240 -0.4507  0.0579
  427SOL    HW1 1706   0.358   1.629   1.951  2.3860 -0.4362 -1.6527
  427SOL    HW2 1707   0.274   1.508   1.941  0.1552  0.2075  3.3333
  427SOL     MW 1708   0.333   1.560   1.902 -0.2713 -0.3619  0.2643
  428SOL     OW 1709   0.566   2.535   1.157  0.0555  0.0253 -0.6068
  428SOL    HW1 1710   0.630   2.517   1.225 -1.4416  0.7605  0.1481
  428SOL    HW2 1711   0.516   2.450   1.144  1.1941 -0.1162  2.6144
  428SOL     MW 1712   0.568   2.521   1.164  0.0082  0.1036 -0.0822
  429SOL     OW 1713   1.346   2.618   1.076  0.2155 -0.3486  0.3275
  429SOL    HW1 1714   1.268   2.574   1.116 -1.2010 -1.0544  0.5197
  429SOL    HW2 1715   1.308   2.672   1.002 -1.1153  0.8320 -0.1575
  429SOL     MW 1716   1.331   2.619   1.072 -0.1470 -0.2860  0.2889
  430SOL     OW 1717   1.132   2.683   0.652 -0.4168  0.2044 -0.3098
  430SOL    HW1 1718   1.135   2.586   0.659 -2.1722 -0.2613 -1.2575
  430SOL    HW2 1719   1.089   2.690   0.568 -0.5497 -0.0161  0.1828
  430SOL     MW 1720   1.127   2.671   0.642 -0.6659  0.1139 -0.3698
  431SOL     OW 1721   0.341   1.962   1.130  0.0600 -0.2096 -0.1944
  431SOL    HW1 1722   0.416   1.905   1.117  0.7411 -3.1707 -1.8994
  431SOL    HW2 1723   0.304   1.973   1.046  0.7026  1.6663  0.9708
  431SOL     MW 1724   0.346   1.956   1.117  0.2347 -0.3528 -0.2656
  432SOL     OW 1725   0.038   0.080   1.173  0.2506  0.1300  0.2735
  432SOL    HW1 1726   0.036   0.120   1.264  0.4030 -0.7590 -0.8789
  432SOL    HW2 1727  -0.014  -0.008   1.177  2.8660 -1.0579 -0.1702
  432SOL     MW 1728   0.031   0.073   1.186  0.6157 -0.1440  0.0629
  433SOL     OW 1729   0.619   2.891   1.431 -0.0445  0.3016 -0.2833
  433SOL    HW1 1730   0.634   2.911   1.525 -3.0981  0.4191 -1.7428
  433SOL    HW2 1731   0.713   2.890   1.399 -0.7118  0.3629  2.2562
  433SOL     MW 1732   0.634   2.893   1.439 -0.5354  0.3252 -0.1408
  434SOL     OW 1733   1.545   2.834   1.548  0.2430 -0.4591 -0.4296
  434SOL    HW1 1734   1.463   2.885   1.543  0.5608  3.6501  1.3957
  434SOL    HW2 1735   1.554   2.796   1.463  2.2578  0.5358  1.0522
  434SOL     MW 1736   1.535   2.836   1.536  0.5508  0.2143  0.0068
  435SOL     OW 1737   2.866   1.753   0.203 -0.2194 -0.0421 -0.4325
  435SOL    HW1 1738   2.935   1.805   0.168  2.2781  0.5359 -0.3815
  435SOL    HW2 1739   2.828   1.726   0.122 -1.2149 -0.8321 -1.3983
  435SOL     MW 1740   2.870   1.756   0.188 -0.0212 -0.0700 -0.5532
  436SOL     OW 1741   1.394   2.750   0.311 -0.0129 -0.2121  0.2327
  436SOL    HW1 1742   1.449   2.708   0.378 -0.9111 -2.3730  0.3751
  436SOL    HW2 1743   1.355   2.820   0.361  2.8921 -0.6631  0.4094
  436SOL     MW 1744   1.396   2.754   0.326  0.2519 -0.5567  0.2748
  437SOL     OW 1745   0.891   2.931   1.371  0.0733 -0.1338 -0.4412
  437SOL    HW1 1746   0.905   3.019   1.327  0.0200  1.5820 -0.1398
  437SOL    HW2 1747   0.934   2.879   1.306  1.2892  1.0590  1.0069
  437SOL     MW 1748   0.899   2.936   1.357  0.2267  0.2499 -0.2104
  438SOL     OW 1749   0.898   2.627   1.969  0.2694  0.2692 -0.5668
  438SOL    HW1 1750   0.849   2.571   2.028 -2.0528 -0.4392 -1.6957
  438SOL    HW2 1751   0.865   2.583   1.892 -1.8495 -0.4339  2.1379
  438SOL     MW 1752   0.888   2.613   1.967 -0.3165  0.0829 -0.3589
  439SOL     OW 1753   1.156   2.177   0.328 -0.0489  0.1463 -0.0921
  439SOL    HW1 1754   1.146   2.195   0.425 -2.5572 -3.4424  2.7634
  439SOL    HW2 1755   1.126   2.257   0.280 -3.2681  1.7120  1.1727
  439SOL     MW 1756   1.151   2.190   0.334 -0.8046 -0.1206  0.4515
  440SOL     OW 1757   1.603   2.962   3.033  0.1602 -0.6377 -0.0990
  440SOL    HW1 1758   1.568   2.965   3.123  1.7997 -0.6281 -0.9001
  440SOL    HW2 1759   1.657   2.879   3.031 -1.8539 -0.2594  2.5233
  440SOL     MW 1760   1.606   2.951   3.045  0.1108 -0.5865  0.1413
  441SOL     OW 1761   0.344   2.580   0.525  0.0877  0.3911 -0.1961
  441SOL    HW1 1762   0.331   2.566   0.431  1.1865 -1.7113 -1.6432
  441SOL    HW2 1763   0.323   2.676   0.531 -0.3780 -0.0832  0.4043
  441SOL     MW 1764   0.340   2.591   0.514  0.1712  0.0511 -0.3078
  442SOL     OW 1765   3.070   2.306   0.638 -0.9676 -0.4775  0.2473
  442SOL    HW1 1766   3.073   2.391   0.595 -2.3329 -2.2868 -2.3700
  442SOL    HW2 1767   3.001   2.308   0.705 -0.0060  0.3814  0.6207
  442SOL     MW 1768   3.061   2.318   0.641 -1.0209 -0.6029 -0.0487
  443SOL     OW 1769   1.353   1.739   1.820 -0.2378 -0.0623  0.4593
  443SOL    HW1 1770   1.310   1.775   1.736 -1.1662  0.7129 -2.4079
  443SOL    HW2 1771   1.311   1.654   1.814 -0.8418  1.7689 -2.3944
  443SOL     MW 1772   1.342   1.732   1.808 -0.4400  0.2816 -0.2955
  444SOL     OW 1773   0.834   2.577   1.551  0.6556  0.2736 -0.8047
  444SOL    HW1 1774   0.900   2.509   1.557 -1.0216 -5.0226 -0.2903
  444SOL    HW2 1775   0.777   2.564   1.633 -0.7741  0.2588  0.0869
  444SOL     MW 1776   0.835   2.566   1.563  0.2457 -0.4272 -0.6192
  445SOL     OW 1777   0.980   0.063   1.273 -0.5059 -0.4949  0.4403
  445SOL    HW1 1778   0.936   0.130   1.223 -1.4432 -0.3947 -0.7466
  445SOL    HW2 1779   1.069   0.076   1.242 -1.6943 -1.8664  0.9104
  445SOL     MW 1780   0.986   0.074   1.262 -0.7863 -0.6626  0.3457
  446SOL     OW 1781   2.731   2.851   1.048 -0.8111 -0.9707  0.1552
  446SOL    HW1 1782   2.673   2.871   0.975 -0.8052 -0.4334 -1.0781
  446SOL    HW2 1783   2.764   2.760   1.038 -0.2324 -1.0337 -0.9157
  446SOL     MW 1784   2.728   2.841   1.037 -0.7340 -0.9081 -0.1488
  447SOL     OW 1785   3.046   2.017   1.710  0.2180  0.2625  0.0954
  447SOL    HW1 1786   3.100   1.944   1.752 -0.7467  0.1894 -1.6098
  447SOL    HW2 1787   2.968   1.987   1.660 -0.7638 -0.8068 -0.5581
  447SOL     MW 1788   3.043   2.004   1.709 -0.0388  0.1118 -0.2158
  448SOL     OW 1789   1.686   2.330   1.670 -0.0869 -0.1926 -0.0830
  448SOL    HW1 1790   1.621   2.258   1.678 -0.1360  3.2464 -0.8265
  448SOL    HW2 1791   1.617   2.403   1.684  1.3431 -0.8400 -0.0082
  448SOL     MW 1792   1.669   2.330   1.673  0.0953  0.1757 -0.1712
  449SOL     OW 1793   0.828   2.975   0.449 -0.5362  0.0414  0.0985
  449SOL    HW1 1794   0.771   2.958   0.372  0.1327  0.8969 -0.8057
  449SOL    HW2 1795   0.772   2.964   0.524  0.3880 -1.0375  0.7173
  449SOL     MW 1796   0.813   2.971   0.449 -0.3260  0.0119  0.0608
  450SOL     OW 1797   1.229   2.421   0.686  0.3949 -0.3430 -0.0512
  450SOL    HW1 1798   1.249   2.406   0.775 -1.5892 -0.3373  0.7011
  450SOL    HW2 1799   1.312   2.420   0.637  0.2869  1.7537 -0.1308
  450SOL     MW 1800   1.243   2.419   0.691  0.1189 -0.0656  0.0375
  451SOL     OW 1801   0.591   2.035   1.657 -0.4266 -0.1735 -0.0778
  451SOL    HW1 1802   0.645   2.118   1.674  2.2909  1.7726 -0.1816
  451SOL    HW2 1803   0.586   2.024   1.565 -0.7677  3.7618  0.5093
  451SOL     MW 1804   0.597   2.044   1.647 -0.1131  0.6025 -0.0140
  452SOL     OW 1805   0.283   2.741   0.145 -0.1794 -0.0554 -0.2182
  452SOL    HW1 1806   0.368   2.770   0.118  1.8687 -0.2014  0.1014
  452SOL    HW2 1807   0.241   2.706   0.059  0.4080 -1.7346  0.4026
  452SOL     MW 1808   0.288   2.740   0.130  0.1684 -0.2962 -0.0942
  453SOL     OW 1809   0.403   2.974   1.693  0.5046 -0.2524  0.2429
  453SOL    HW1 1810   0.495   2.999   1.678  0.4013 -0.3769  3.5744
  453SOL    HW2 1811   0.350   2.965   1.609 -1.5077  0.4796  0.8607
  453SOL     MW 1812   0.408   2.976   1.680  0.2255 -0.1722  0.7640
  454SOL     OW 1813   1.047   2.796   1.128 -0.2532 -0.3151  1.1391
  454SOL    HW1 1814   1.015   2.708   1.125 -0.9471 -1.2887  2.4106
  454SOL    HW2 1815   0.982   2.858   1.093 -1.0084  1.0020 -0.1374
  454SOL     MW 1816   1.035   2.792   1.123 -0.4444 -0.2698  1.1385
  455SOL     OW 1817   1.553   2.974   0.198 -0.2295  0.0703  0.4996
  455SOL    HW1 1818   1.632   2.955   0.249  0.7579 -0.8301 -1.8325
  455SOL    HW2 1819   1.497   2.909   0.236  1.7562 -2.1874 -0.0782
  455SOL     MW 1820   1.556   2.963   0.210  0.1628 -0.3464  0.1157
  456SOL     OW 1821   2.917   0.348   1.350 -0.3336  0.3956 -0.6546
  456SOL    HW1 1822   2.862   0.273   1.307 -4.1175 -0.4675 -1.2299
  456SOL    HW2 1823   2.989   0.358   1.282  0.6688  0.6542  0.8133
  456SOL     MW 1824   2.919   0.339   1.335 -0.7006  0.3159 -0.5368
  457SOL     OW 1825   0.855   1.548   2.997  0.5696 -0.0119 -0.0820
  457SOL    HW1 1826   0.794   1.524   3.070 -0.6832  0.8270 -0.0294
  457SOL    HW2 1827   0.911   1.466   2.994  1.2048  1.9655  0.6884
  457SOL     MW 1828   0.854   1.534   3.006  0.4881  0.3597  0.0266
  458SOL     OW 1829   1.473   1.400   0.637 -0.0831 -0.1420 -0.4488
  458SOL    HW1 1830   1.392   1.428   0.674 -0.6798  1.0222 -1.4024
  458SOL    HW2 1831   1.454   1.338   0.567  2.3874  2.0250  2.0977
  458SOL     MW 1832   1.460   1.396   0.633  0.1641  0.2975 -0.2386
  459SOL     OW 1833   1.549   0.135   0.240 -0.1334  0.1734  0.1824
  459SOL    HW1 1834   1.535   0.040   0.219  0.3404  0.7704 -0.2240
  459SOL    HW2 1835   1.500   0.174   0.164 -0.0729  0.5185  2.8465
  459SOL     MW 1836   1.541   0.128   0.227 -0.0629  0.2977  0.4803
  460SOL     OW 1837   1.726   2.158   0.618  0.2367 -0.6127 -0.1814
  460SOL    HW1 1838   1.640   2.120   0.631 -1.7363 -0.6966  3.5464
  460SOL    HW2 1839   1.788   2.081   0.589  3.8641  3.0815  1.5435
  460SOL     MW 1840   1.723   2.143   0.616  0.4550 -0.1363  0.5380
  461SOL     OW 1841   0.554   2.425   0.620  0.8719  0.3960  0.1994
  461SOL    HW1 1842   0.487   2.486   0.595 -1.2680 -0.9470  1.2359
  461SOL    HW2 1843   0.505   2.406   0.703 -2.6876  1.7055 -1.3219
  461SOL     MW 1844   0.539   2.431   0.628  0.1199  0.3916  0.1354
  462SOL     OW 1845   0.337   0.261   1.267 -1.0124 -0.4627 -0.2875
  462SOL    HW1 1846   0.362   0.213   1.196  1.2446 -1.0215  0.0720
  462SOL    HW2 1847   0.425   0.285   1.311 -0.9346 -2.1172  0.6449
  462SOL     MW 1848   0.352   0.258   1.263 -0.7044 -0.7547 -0.1170
  463SOL     OW 1849   1.010   0.043   0.718 -0.3316  0.2165 -0.3428
  463SOL    HW1 1850   1.034   0.050   0.625 -0.7665 -1.2322 -0.1014
  463SOL    HW2 1851   0.909   0.052   0.717  0.0005  0.5253 -3.0512
  463SOL     MW 1852   1.000   0.045   0.705 -0.3452  0.0661 -0.6683
  464SOL     OW 1853   0.748   2.941   2.158 -0.9634 -0.3282 -0.1292
  464SOL    HW1 1854   0.721   2.850   2.183 -0.9713  2.3196  2.2029
  464SOL    HW2 1855   0.795   2.962   2.241  2.6271  0.1416  1.7397
  464SOL     MW 1856   0.751   2.932   2.172 -0.4907  0.0831  0.4251
  465SOL     OW 1857   0.746   0.238   0.504 -0.1792  0.7161  0.3247
  465SOL    HW1 1858   0.721   0.164   0.564 -3.1027  1.3142  0.3557
  465SOL    HW2 1859   0.727   0.196   0.421  0.0795  0.9412  0.4132
  465SOL     MW 1860   0.741   0.223   0.501 -0.5308  0.8247  0.3405
  466SOL     OW 1861   1.054   1.961   0.725  0.0662  0.0999 -0.0099
  466SOL    HW1 1862   1.041   1.891   0.656 -1.9841 -0.1192  0.6782
  466SOL    HW2 1863   1.067   2.042   0.673  0.7263 -0.7337 -1.0414
  466SOL     MW 1864   1.054   1.962   0.709 -0.1172 -0.0390 -0.0552
  467SOL     OW 1865   1.221   2.272   0.965  0.5588 -0.3783 -0.4223
  467SOL    HW1 1866   1.318   2.292   0.976  0.0002  0.8088  0.1797
  467SOL    HW2 1867   1.218   2.180   0.968 -2.0219 -1.1372  1.7586
  467SOL     MW 1868   1.233   2.263   0.967  0.1446 -0.3218 -0.0551
  468SOL     OW 1869   0.336   2.618   2.004  0.6935 -0.2124 -0.0573
  468SOL    HW1 1870   0.336   2.540   1.951  2.0189 -3.0769  3.7220
  468SOL    HW2 1871   0.408   2.666   1.969 -1.7800  1.1438 -0.3622
  468SOL     MW 1872   0.346   2.614   1.992  0.5420 -0.4114  0.4011
  469SOL     OW 1873   0.397   2.124   1.828  0.0845  0.3042 -0.5020
  469SOL    HW1 1874   0.329   2.054   1.807  0.8030  1.0671 -0.8909
  469SOL    HW2 1875   0.478   2.084   1.796 -0.6218  1.3464  2.3130
  469SOL     MW 1876   0.399   2.110   1.821  0.0861  0.5424 -0.1819
  470SOL     OW 1877   3.051   2.540   0.169 -0.0775  0.2916 -0.0036
  470SOL    HW1 1878   2.968   2.506   0.214 -1.2417 -0.6874 -2.2504
  470SOL    HW2 1879   3.032   2.535   0.076 -1.4368 -2.0469  0.7601
  470SOL     MW 1880   3.037   2.535   0.163 -0.4104 -0.1461 -0.1993
  471SOL     OW 1881   1.212   2.745   1.345  0.4462 -0.2058 -0.3257
  471SOL    HW1 1882   1.131   2.764   1.397  0.0630  1.9669  1.9027
  471SOL    HW2 1883   1.199   2.770   1.250  1.0672  1.2657  0.2709
  471SOL     MW 1884   1.199   2.751   1.339  0.4776  0.2750  0.0471
  472SOL     OW 1885   2.912   2.108   0.327 -0.4264 -0.5560  0.1664
  472SOL    HW1 1886   2.936   2.059   0.245 -2.8492  1.2227  1.7569
  472SOL    HW2 1887   2.889   2.034   0.387  1.6637 -1.3438 -2.7407
  472SOL     MW 1888   2.913   2.092   0.324 -0.4703 -0.4253 -0.0073
  473SOL     OW 1889   0.783   2.540   1.307 -0.2126 -0.0947 -0.0523
  473SOL    HW1 1890   0.818   2.454   1.299  0.2489  0.9237 -2.4716
  473SOL    HW2 1891   0.780   2.570   1.402 -0.4750  4.0305  0.1582
  473SOL     MW 1892   0.787   2.532   1.318 -0.1863  0.5840 -0.3437
  474SOL     OW 1893   0.792   2.221   1.740 -0.7862  0.2817 -0.2682
  474SOL    HW1 1894   0.887   2.213   1.780  1.3965 -1.1005  1.3815
  474SOL    HW2 1895   0.795   2.225   1.637 -0.1246  2.2566 -0.2153
  474SOL     MW 1896   0.805   2.220   1.732 -0.4109  0.3599 -0.0436
  475SOL     OW 1897   1.634   3.066   1.431  0.0595  0.3079  0.2514
  475SOL    HW1 1898   1.561   3.085   1.376 -2.2190  0.9739  0.4204
  475SOL    HW2 1899   1.612   2.983   1.477  1.1857 -1.6470 -1.1345
  475SOL     MW 1900   1.621   3.058   1.430 -0.0925  0.1379  0.0908
  476SOL     OW 1901   1.461   2.600   0.807 -0.1157 -0.1758 -0.2945
  476SOL    HW1 1902   1.442   2.563   0.900 -0.9886  2.9439  1.2775
  476SOL    HW2 1903   1.503   2.689   0.824  0.4102 -1.0779  2.2989
  476SOL     MW 1904   1.464   2.607   0.822 -0.1615  0.1168  0.2551
  477SOL     OW 1905   0.885   2.508   0.656 -0.2783 -0.1772  0.1837
  477SOL    HW1 1906   0.891   2.557   0.579 -0.7366  3.7631  0.3670
  477SOL    HW2 1907   0.859   2.421   0.624 -2.5351 -0.2002  2.0127
  477SOL     MW 1908   0.882   2.503   0.641 -0.6365  0.3396  0.4492
  478SOL     OW 1909   0.237   2.611   0.910 -0.1056 -0.1692 -0.1220
  478SOL    HW1 1910   0.291   2.698   0.925  3.3944  0.3776  0.2575
  478SOL    HW2 1911   0.306   2.554   0.877 -0.3635  1.6906 -2.3911
  478SOL     MW 1912   0.253   2.615   0.907  0.3222  0.1483 -0.3713
  479SOL     OW 1913   1.393   1.947   1.302  0.1146 -0.2021 -0.5608
  479SOL    HW1 1914   1.361   1.992   1.383  0.3547  3.4971  2.2935
  479SOL    HW2 1915   1.452   1.879   1.334  1.0475  1.3345  0.4895
  479SOL     MW 1916   1.397   1.944   1.317  0.2694  0.4887 -0.0456
  480SOL     OW 1917   1.846   2.376   1.292  0.0265  0.5089  0.1556
  480SOL    HW1 1918   1.862   2.286   1.314  1.4571 -0.2212  0.6401
  480SOL    HW2 1919   1.887   2.392   1.204  1.9940  0.3694  0.1501
  480SOL     MW 1920   1.853   2.366   1.283  0.4749  0.3942  0.2188
  481SOL     OW 1921   1.212   0.120   1.111 -0.0348 -0.1262 -0.1027
  481SOL    HW1 1922   1.252   0.081   1.030  2.3029 -0.5207 -1.8925
  481SOL    HW2 1923   1.206   0.215   1.091  3.2687 -0.7630 -1.0484
  481SOL     MW 1924   1.217   0.128   1.097  0.7095 -0.2623 -0.4636
  482SOL     OW 1925   1.035   0.044   0.423  0.4685 -0.4227  0.1618
  482SOL    HW1 1926   0.955  -0.011   0.426 -0.2105  1.1491 -1.2116
  482SOL    HW2 1927   1.022   0.121   0.369  2.7749  1.9273  2.5956
  482SOL     MW 1928   1.023   0.047   0.416  0.6832  0.0947  0.3017
  483SOL     OW 1929   0.353   2.849   0.558  0.3952  0.1657 -0.5916
  483SOL    HW1 1930   0.296   2.863   0.482  0.5441  1.1248  3.7769
  483SOL    HW2 1931   0.303   2.900   0.621 -1.2645 -1.5412  1.2022
  483SOL     MW 1932   0.339   2.858   0.556  0.1959  0.0670  0.2214
  484SOL     OW 1933   1.672   1.860   1.455  0.0494 -0.5790  0.1075
  484SOL    HW1 1934   1.730   1.928   1.421 -0.4951  2.5283 -2.8933
  484SOL    HW2 1935   1.681   1.866   1.550 -0.2776 -0.0168  0.5148
  484SOL     MW 1936   1.681   1.870   1.463 -0.0656 -0.0949 -0.2347
  485SOL     OW 1937   0.564   2.309   0.358  0.0098 -0.5497  0.2840
  485SOL    HW1 1938   0.516   2.359   0.424 -0.5958  2.6973 -2.9726
  485SOL    HW2 1939   0.568   2.366   0.287 -2.2489  1.7645  3.0344
  485SOL     MW 1940   0.558   2.324   0.357 -0.3681  0.1840  0.2172
  486SOL     OW 1941   0.113   2.461   1.436 -0.1518  0.4918 -0.0327
  486SOL    HW1 1942   0.120   2.557   1.402 -2.8191 -0.7965  0.4289
  486SOL    HW2 1943   0.109   2.466   1.533 -0.9147  0.0411 -2.5580
  486SOL     MW 1944   0.114   2.475   1.444 -0.6044  0.2624 -0.3050
  487SOL     OW 1945   1.280   1.612   0.961 -0.3356  0.4921  0.0733
  487SOL    HW1 1946   1.232   1.686   0.990 -0.7765 -1.5964  0.9067
  487SOL    HW2 1947   1.372   1.625   0.981 -0.0463 -0.4884  0.2010
  487SOL     MW 1948   1.286   1.623   0.967 -0.3556  0.0872  0.2001
  488SOL     OW 1949   1.521   1.862   0.593  0.2921  0.5492 -0.3672
  488SOL    HW1 1950   1.483   1.922   0.526 -0.0006 -1.0322 -1.3859
  488SOL    HW2 1951   1.456   1.792   0.599  0.1626  2.5486 -0.2921
  488SOL     MW 1952   1.507   1.861   0.585  0.2364  0.6044 -0.4917
  489SOL     OW 1953   0.734   0.774   0.508  0.5384  0.1005 -0.2159
  489SOL    HW1 1954   0.795   0.701   0.522  0.2442 -0.6701 -1.4901
  489SOL    HW2 1955   0.697   0.801   0.590 -0.5558 -2.7666 -1.6815
  489SOL     MW 1956   0.737   0.768   0.521  0.3552 -0.3794 -0.5774
  490SOL     OW 1957   1.402   2.071   0.423 -0.0994  0.2414 -0.5621
  490SOL    HW1 1958   1.471   2.132   0.393  0.5839  0.1661 -0.0193
  490SOL    HW2 1959   1.323   2.116   0.392  0.0283 -0.8500 -1.0607
  490SOL     MW 1960   1.400   2.085   0.415  0.0076  0.0875 -0.5563
  491SOL     OW 1961   1.259   2.968   0.402 -0.5053 -0.3231 -0.6373
  491SOL    HW1 1962   1.293   3.015   0.479 -1.7839 -1.1741  0.4848
  491SOL    HW2 1963   1.173   3.000   0.388 -3.1160 -0.0026 -0.6486
  491SOL     MW 1964   1.252   2.978   0.410 -1.0184 -0.3931 -0.4908
  492SOL     OW 1965   1.439   2.151   0.685  0.0475 -0.4839  0.4710
  492SOL    HW1 1966   1.412   2.120   0.600  2.5537 -2.0668  0.7097
  492SOL    HW2 1967   1.393   2.083   0.738 -0.0962 -2.5692  0.5973
  492SOL     MW 1968   1.429   2.138   0.681  0.3592 -0.9679  0.5192
  493SOL     OW 1969   0.215   2.992   0.389  0.2166  0.0318 -0.2158
  493SOL    HW1 1970   0.172   3.050   0.457 -2.1496 -0.9256  0.8504
  493SOL    HW2 1971   0.150   2.997   0.317 -1.1975 -0.2186 -0.1204
  493SOL     MW 1972   0.201   3.001   0.389 -0.2822 -0.1276 -0.0625
  494SOL     OW 1973   0.394   2.406   1.816 -0.0999  0.1475  0.1705
  494SOL    HW1 1974   0.385   2.305   1.805 -0.8794  0.9045 -0.1002
  494SOL    HW2 1975   0.431   2.450   1.738  1.8427  1.2144 -0.6908
  494SOL     MW 1976   0.397   2.398   1.804  0.0535  0.3881  0.0211
  495SOL     OW 1977   2.914   1.661   2.726  0.1709 -0.0993 -0.0065
  495SOL    HW1 1978   2.876   1.744   2.762 -0.3935 -0.5641 -3.9480
  495SOL    HW2 1979   2.887   1.595   2.790  0.7578 -1.7104  1.8501
  495SOL     MW 1980   2.906   1.663   2.739  0.1739 -0.3732 -0.2816
  496SOL     OW 1981   2.755   2.260   2.710 -0.1038 -0.1371 -0.1714
  496SOL    HW1 1982   2.743   2.176   2.749  0.0430 -0.4389 -0.0999
  496SOL    HW2 1983   2.849   2.279   2.717  2.2613 -1.0208 -0.1244
  496SOL     MW 1984   2.766   2.252   2.716  0.2276 -0.2935 -0.1558
  497SOL     OW 1985   1.498   2.326   2.541  0.3311  0.2778 -0.5020
  497SOL    HW1 1986   1.511   2.255   2.466  1.2904 -0.8867 -2.0546
  497SOL    HW2 1987   1.477   2.272   2.619 -0.7995  1.7761  1.4911
  497SOL     MW 1988   1.497   2.309   2.541  0.3085  0.3218 -0.4439
  498SOL     OW 1989   1.515   2.800   2.282  0.5170 -0.0332 -0.5973
  498SOL    HW1 1990   1.526   2.705   2.272  1.6974  0.9813  1.0182
  498SOL    HW2 1991   1.580   2.825   2.347  2.6222  0.3891  0.5855
  498SOL     MW 1992   1.525   2.791   2.289  0.9505  0.1564 -0.2281
  499SOL     OW 1993   0.934   0.147   0.069 -0.2677 -0.0237 -0.5696
  499SOL    HW1 1994   0.882   0.138   0.151 -0.6982  1.8559 -1.2894
  499SOL    HW2 1995   0.928   0.056   0.041  0.5103  0.2890 -1.9734
  499SOL     MW 1996   0.926   0.134   0.076 -0.2219  0.2655 -0.8498
  500SOL     OW 1997   1.029   2.508   2.754  0.0951 -0.4926  0.2898
  500SOL    HW1 1998   1.072   2.458   2.824  2.3743  1.9914  1.2728
  500SOL    HW2 1999   0.964   2.567   2.801  0.0819 -0.8763  1.4651
  500SOL     MW 2000   1.026   2.509   2.769  0.3941 -0.2155  0.5746
  501SOL     OW 2001   1.721   2.222   0.017 -0.2277 -0.1791  0.1072
  501SOL    HW1 2002   1.715   2.318   0.003  0.8720  0.1301 -1.5402
  501SOL    HW2 2003   1.816   2.214   0.028 -0.0843 -1.1119  0.9047
  501SOL     MW 2004   1.733   2.233   0.017 -0.0637 -0.2614 -0.0049
  502SOL     OW 2005   0.196   2.698   2.977 -1.2701  0.0472 -0.4030
  502SOL    HW1 2006   0.114   2.655   2.956  0.2421  1.0967 -2.6204
  502SOL    HW2 2007   0.201   2.777   2.921  0.5959  0.4608 -0.3340
  502SOL     MW 2008   0.186   2.703   2.967 -0.8244  0.2402 -0.6864
  503SOL     OW 2009   1.132   2.597   2.122  0.3983 -0.0614 -0.3733
  503SOL    HW1 2010   1.196   2.626   2.061 -3.2069  1.2565  0.7325
  503SOL    HW2 2011   1.053   2.601   2.069  0.7161  1.6526 -0.4454
  503SOL     MW 2012   1.130   2.601   2.107 -0.0355  0.3386 -0.2369
  504SOL     OW 2013   0.098   2.611   2.115 -0.3340  0.1256 -0.3543
  504SOL    HW1 2014   0.187   2.614   2.085  0.0616 -0.7383  0.3416
  504SOL    HW2 2015   0.086   2.533   2.164  3.2546  0.6389 -1.6143
  504SOL     MW 2016   0.108   2.601   2.118  0.1917  0.0793 -0.4287
  505SOL     OW 2017   1.616   2.688   2.723  0.2261 -0.6967 -0.4454
  505SOL    HW1 2018   1.668   2.706   2.642  5.2797 -0.3293 -1.9480
  505SOL    HW2 2019   1.551   2.756   2.739  0.0441 -1.6320 -1.4562
  505SOL     MW 2020   1.615   2.700   2.715  0.8688 -0.7716 -0.7770
  506SOL     OW 2021   1.595   0.029   2.813  0.1133 -0.1321  0.0548
  506SOL    HW1 2022   1.593  -0.020   2.899 -0.0084  0.7313 -3.2281
  506SOL    HW2 2023   1.670   0.002   2.760  1.3058 -0.9888 -1.2034
  506SOL     MW 2024   1.605   0.019   2.818  0.2545 -0.1312 -0.5443
  507SOL     OW 2025   0.867   2.699   2.846  0.0819 -0.1837  0.0988
  507SOL    HW1 2026   0.872   2.753   2.766  3.5697 -1.1750  0.1558
  507SOL    HW2 2027   0.782   2.653   2.833 -2.4522  1.1806 -1.7814
  507SOL     MW 2028   0.857   2.700   2.834  0.2078 -0.1345 -0.1418
  508SOL     OW 2029   1.137   2.069   2.595 -0.2413 -0.2432  0.0557
  508SOL    HW1 2030   1.216   2.108   2.640  0.6387  3.3330  1.7303
  508SOL    HW2 2031   1.061   2.097   2.644 -1.3367  0.2018  0.3647
  508SOL     MW 2032   1.137   2.078   2.607 -0.2697  0.2873  0.3174
  509SOL     OW 2033   0.624   2.567   2.824 -0.5726  0.0835  0.7174
  509SOL    HW1 2034   0.598   2.516   2.746  2.0148 -2.6719  0.8170
  509SOL    HW2 2035   0.574   2.646   2.812  0.4383 -1.4633  3.2199
  509SOL     MW 2036   0.614   2.571   2.812 -0.0978 -0.4841  1.0607
  510SOL     OW 2037   1.525   2.577   1.664 -0.3496  0.0865  0.7031
  510SOL    HW1 2038   1.531   2.671   1.640  0.8472  2.3846 -1.3448
  510SOL    HW2 2039   1.458   2.576   1.734 -1.2608 -1.0670 -2.0469
  510SOL     MW 2040   1.517   2.589   1.670 -0.3120  0.2375  0.0701
  511SOL     OW 2041   0.342   2.520   2.521 -0.3967  0.3835 -0.4083
  511SOL    HW1 2042   0.434   2.487   2.537  0.9234  0.2660 -1.7552
  511SOL    HW2 2043   0.342   2.535   2.424 -2.7237 -0.2262  1.1461
  511SOL     MW 2044   0.354   2.517   2.510 -0.5295  0.2876 -0.3809
  512SOL     OW 2045   1.032   2.009   2.854  0.4587 -0.3490  0.1244
  512SOL    HW1 2046   0.952   2.056   2.880  1.6644 -0.2688  1.1538
  512SOL    HW2 2047   1.050   1.924   2.892 -0.3459 -1.4643 -2.7033
  512SOL     MW 2048   1.024   2.004   2.862  0.5116 -0.4855 -0.1128
  513SOL     OW 2049   1.579   2.544   2.157  0.6955  0.0251 -0.1243
  513SOL    HW1 2050   1.672   2.563   2.143 -4.0744 -1.4426 -0.3762
  513SOL    HW2 2051   1.590   2.468   2.215  2.3277 -2.4261  0.6066
  513SOL     MW 2052   1.593   2.536   2.163  0.2815 -0.4920 -0.0611
  514SOL     OW 2053   0.166   2.356   2.650  0.5107  0.3759 -0.0334
  514SOL    HW1 2054   0.216   2.427   2.601 -1.4043  1.7143  0.0537
  514SOL    HW2 2055   0.213   2.361   2.734 -3.6338 -0.1732  0.9168
  514SOL     MW 2056   0.179   2.366   2.655 -0.2888  0.4800  0.1035
  515SOL     OW 2057   1.104   1.927   1.832  0.0774  0.0106  0.5658
  515SOL    HW1 2058   1.071   2.026   1.828 -0.6688  0.9680 -0.7834
  515SOL    HW2 2059   1.161   1.927   1.906  0.7657 -0.7781 -0.2840
  515SOL     MW 2060   1.108   1.940   1.841  0.0698  0.0328  0.2757
  516SOL     OW 2061   1.346   2.566   2.944  0.3556 -0.6138  0.1225
  516SOL    HW1 2062   1.369   2.545   2.854 -1.4727 -0.4781 -0.5333
  516SOL    HW2 2063   1.260   2.524   2.958 -1.4939 -3.2613  0.0231
  516SOL     MW 2064   1.338   2.557   2.934 -0.1296 -0.9452  0.0228
  517SOL     OW 2065   0.602   2.372   2.294  0.9668  0.0464  0.1965
  517SOL    HW1 2066   0.531   2.428   2.315 -0.7442 -2.4980  1.5347
  517SOL    HW2 2067   0.579   2.334   2.211  0.0971  3.1436 -1.6826
  517SOL     MW 2068   0.589   2.375   2.285  0.6263  0.1193  0.1251
  518SOL     OW 2069   1.791   0.052   3.092 -0.6562 -0.5634  0.4244
  518SOL    HW1 2070   1.790   0.120   3.160 -0.0295  2.9859  1.1349
  518SOL    HW2 2071   1.734  -0.023   3.100 -1.2407 -1.2418  0.6907
  518SOL     MW 2072   1.784   0.051   3.102 -0.6507 -0.1846  0.5533
  519SOL     OW 2073   0.737   2.496   1.790  0.4016  0.3032  0.1953
  519SOL    HW1 2074   0.775   2.416   1.756  1.0157 -0.0670 -0.6354
  519SOL    HW2 2075   0.646   2.479   1.805  1.6249  0.6334 -0.6282
  519SOL     MW 2076   0.730   2.483   1.787  0.6440  0.2979 -0.0230
  520SOL     OW 2077   1.246   2.153   2.939 -0.0775  0.5238 -0.1836
  520SOL    HW1 2078   1.158   2.112   2.932  0.8855  1.2056  1.1374
  520SOL    HW2 2079   1.270   2.138   3.032 -1.2981 -1.6735 -2.1697
  520SOL     MW 2080   1.237   2.146   2.950 -0.1115  0.3238 -0.2714
  521SOL     OW 2081   1.797   2.071   2.232 -0.1438  0.1527  0.2828
  521SOL    HW1 2082   1.791   2.065   2.136  0.9311  3.8346  0.3967
  521SOL    HW2 2083   1.799   1.977   2.249 -0.5858  0.5665 -2.7602
  521SOL     MW 2084   1.797   2.058   2.222 -0.0603  0.6931 -0.1037
  522SOL     OW 2085   2.885   2.536   2.236  0.0647  0.1649 -0.0266
  522SOL    HW1 2086   2.972   2.519   2.220 -1.7082  0.8115  1.6669
  522SOL    HW2 2087   2.881   2.633   2.236  0.2171 -2.2152 -0.5413
  522SOL     MW 2088   2.896   2.546   2.234 -0.1491 -0.0638  0.1289
  523SOL     OW 2089   0.826   1.520   2.146  0.4386  0.2105  0.0093
  523SOL    HW1 2090   0.820   1.583   2.076 -0.9232  1.1282  0.0741
  523SOL    HW2 2091   0.836   1.437   2.103 -1.5239 -0.2420  1.0354
  523SOL     MW 2092   0.826   1.517   2.131 -0.0000  0.2719  0.1533
  524SOL     OW 2093   0.599   2.340   2.982 -0.4912  0.1853 -0.2548
  524SOL    HW1 2094   0.613   2.407   2.914 -1.8271 -0.5651 -3.0955
  524SOL    HW2 2095   0.680   2.287   2.986  2.2589 -1.9189 -0.3437
  524SOL     MW 2096   0.611   2.342   2.974 -0.3046 -0.1913 -0.6413
  525SOL     OW 2097   0.452   2.222   2.119 -0.2967  0.2328  0.3275
  525SOL    HW1 2098   0.439   2.140   2.156 -0.6567 -1.4998 -4.2235
  525SOL    HW2 2099   0.519   2.211   2.047  0.8079 -0.8133 -0.1235
  525SOL     MW 2100   0.459   2.210   2.114 -0.1984 -0.1338 -0.3325
  526SOL     OW 2101   0.705   2.166   1.992  0.8452  0.2693 -0.7830
  526SOL    HW1 2102   0.735   2.192   1.911  0.4569 -0.7363  3.0218
  526SOL    HW2 2103   0.777   2.163   2.055 -0.3004 -0.4398 -0.7556
  526SOL     MW 2104   0.718   2.169   1.990  0.6428  0.0431 -0.2773
  527SOL     OW 2105   1.276   1.905   2.032 -0.0917 -0.4886  0.0472
  527SOL    HW1 2106   1.225   1.866   2.106  0.5075  2.3819  3.9321
  527SOL    HW2 2107   1.308   1.829   1.984 -2.1557 -0.0706  0.6653
  527SOL     MW 2108   1.274   1.890   2.035 -0.2849 -0.0547  0.6413
  528SOL     OW 2109   0.657   2.903   2.952  0.4075  0.7780 -0.7501
  528SOL    HW1 2110   0.652   2.995   2.923  2.1708 -0.0230  0.6864
  528SOL    HW2 2111   0.629   2.854   2.878  0.9969 -2.3303  2.9445
  528SOL     MW 2112   0.653   2.909   2.938  0.7179  0.2622 -0.0731
  529SOL     OW 2113   1.056   2.198   1.829 -0.7634  0.4436  0.3876
  529SOL    HW1 2114   1.079   2.228   1.917 -3.6115  2.5607  0.2170
  529SOL    HW2 2115   1.100   2.264   1.775 -3.2341 -0.9496 -1.0682
  529SOL     MW 2116   1.065   2.210   1.834 -1.4652  0.5391  0.1730
  530SOL     OW 2117   1.142   2.405   3.001 -0.1233  0.7298  0.4654
  530SOL    HW1 2118   1.159   2.411   3.095  1.5463 -0.1334 -1.9885
  530SOL    HW2 2119   1.183   2.324   2.979 -1.4197  2.0766 -0.0393
  530SOL     MW 2120   1.150   2.395   3.011 -0.0740  0.7936  0.0750
  531SOL     OW 2121   0.934   1.830   2.650 -0.1510  0.5793  0.5119
  531SOL    HW1 2122   0.958   1.901   2.706 -0.9164 -0.0541  0.0282
  531SOL    HW2 2123   0.874   1.783   2.705  0.5958  3.8205 -1.2836
  531SOL     MW 2124   0.929   1.833   2.665 -0.1534  0.9234  0.2112
  532SOL     OW 2125   1.671   0.303   2.853  0.4719  0.4184 -0.1100
  532SOL    HW1 2126   1.670   0.209   2.854  1.4909 -1.6672  0.0843
  532SOL    HW2 2127   1.750   0.330   2.901  1.0586 -0.3177 -0.1439
  532SOL     MW 2128   1.681   0.294   2.860  0.6837  0.0461 -0.0888
  533SOL     OW 2129   1.779   2.709   2.951 -0.4301 -0.4575  0.8170
  533SOL    HW1 2130   1.781   2.628   3.011  3.0563  0.6247  0.0381
  533SOL    HW2 2131   1.733   2.679   2.870 -2.2085 -0.6009  0.0727
  533SOL     MW 2132   1.773   2.694   2.949 -0.2048 -0.3337  0.6160
  534SOL     OW 2133   1.728   2.473   2.472  0.0117 -0.0987 -0.3045
  534SOL    HW1 2134   1.655   2.433   2.519 -1.5335 -0.7373  1.1533
  534SOL    HW2 2135   1.806   2.476   2.532  0.0035 -1.2079 -0.5758
  534SOL     MW 2136   1.728   2.468   2.486 -0.1933 -0.3293 -0.1480
  535SOL     OW 2137   1.818   2.338   1.899  0.4460 -0.4749 -0.1832
  535SOL    HW1 2138   1.739   2.324   1.839  0.0418 -0.4217  3.0215
  535SOL    HW2 2139   1.890   2.346   1.837 -1.2192  0.6744  0.8831
  535SOL     MW 2140   1.817   2.337   1.883  0.1730 -0.3163  0.3803
  536SOL     OW 2141   0.453   1.815   2.008 -0.0355  0.5934  0.1121
  536SOL    HW1 2142   0.425   1.846   1.920 -0.0267 -3.0160 -0.3485
  536SOL    HW2 2143   0.529   1.865   2.033  1.3466 -0.4599  2.5860
  536SOL     MW 2144   0.459   1.826   2.000  0.1480 -0.0218  0.3778
  537SOL     OW 2145   1.065   0.197   2.915  0.7175  0.1387  0.4461
  537SOL    HW1 2146   0.999   0.176   2.987  3.0839  0.4765  0.8378
  537SOL    HW2 2147   1.060   0.293   2.920  1.3467  2.9932 -0.6521
  537SOL     MW 2148   1.056   0.207   2.925  1.1127  0.5599  0.3529
  538SOL     OW 2149   1.292   0.062   2.987 -0.6022  0.0898 -0.4331
  538SOL    HW1 2150   1.218   0.124   2.956  0.3515  0.3036 -0.6332
  538SOL    HW2 2151   1.369   0.108   2.961  0.0617  0.3558 -1.5987
  538SOL     MW 2152   1.293   0.076   2.980 -0.3888  0.1531 -0.6133
  539SOL     OW 2153   0.742   2.698   2.519  0.2477 -0.5836 -0.0522
  539SOL    HW1 2154   0.818   2.750   2.543 -1.7555 -0.5895  1.8262
  539SOL    HW2 2155   0.780   2.615   2.529 -1.7739 -0.7025 -3.1213
  539SOL     MW 2156   0.757   2.694   2.524 -0.2834 -0.6001 -0.2093
  540SOL     OW 2157   0.319   2.263   2.857 -0.1235 -0.1625  0.7515
  540SOL    HW1 2158   0.400   2.314   2.874 -0.4478 -1.4700 -0.8472
  540SOL    HW2 2159   0.310   2.218   2.939 -1.5379  1.6888  1.7027
  540SOL     MW 2160   0.329   2.263   2.870 -0.3529 -0.0908  0.6661
  541SOL     OW 2161   0.167   2.852   2.227 -0.6079 -0.3068 -0.1843
  541SOL    HW1 2162   0.141   2.761   2.218 -1.0150 -0.3486  0.5443
  541SOL    HW2 2163   0.249   2.849   2.273 -0.6666  1.2504 -1.1497
  541SOL     MW 2164   0.174   2.839   2.232 -0.6693 -0.1069 -0.2156
  542SOL     OW 2165   0.912   2.264   2.690  0.2564 -0.4869 -0.1826
  542SOL    HW1 2166   0.871   2.261   2.769  0.1434  2.9081 -2.8242
  542SOL    HW2 2167   0.965   2.348   2.694  0.8725 -0.2845 -0.8202
  542SOL     MW 2168   0.914   2.275   2.701  0.3228 -0.0122 -0.6152
  543SOL     OW 2169   1.391   2.550   2.657 -0.4315 -0.1111 -0.2381
  543SOL    HW1 2170   1.416   2.469   2.602 -2.0081 -2.2774 -1.8179
  543SOL    HW2 2171   1.474   2.601   2.665 -0.8846  1.7607 -0.6695
  543SOL     MW 2172   1.405   2.546   2.651 -0.6993 -0.1500 -0.5035
  544SOL     OW 2173   0.660   0.176   2.704 -0.4634  0.4306  0.8070
  544SOL    HW1 2174   0.585   0.221   2.725  0.3774 -1.5503  2.6441
  544SOL    HW2 2175   0.639   0.115   2.638 -1.3125 -0.0880  1.1658
  544SOL     MW 2176   0.647   0.174   2.698 -0.4645  0.1008  1.0967
  545SOL     OW 2177   1.535   2.155   2.338  0.0622 -0.1537 -0.0414
  545SOL    HW1 2178   1.499   2.164   2.244  3.5007  0.6590 -2.3968
  545SOL    HW2 2179   1.623   2.119   2.319 -3.7576  0.1051 -2.4042
  545SOL     MW 2180   1.542   2.151   2.323  0.0119 -0.0124 -0.6639
  546SOL     OW 2181   3.012   1.987   0.085  0.0542  0.0873  0.2229
  546SOL    HW1 2182   2.999   2.062   0.030 -0.1237 -1.4315  3.3089
  546SOL    HW2 2183   3.098   1.960   0.066  0.4164  1.1302  0.0132
  546SOL     MW 2184   3.022   1.993   0.076  0.0785  0.0245  0.6024
  547SOL     OW 2185   0.157   3.010   0.091  0.3987  0.4412  0.6000
  547SOL    HW1 2186   0.228   3.069   0.064  0.7104  0.2759  2.9586
  547SOL    HW2 2187   0.198   2.923   0.089  2.8459  0.1008 -2.7122
  547SOL     MW 2188   0.172   3.006   0.087  0.7627  0.3745  0.4742
  548SOL     OW 2189   0.295   2.476   0.269  0.0106  0.2638  0.1851
  548SOL    HW1 2190   0.290   2.569   0.238 -0.4692  0.1167 -1.9426
  548SOL    HW2 2191   0.226   2.433   0.214 -1.6551 -0.6218 -1.8608
  548SOL     MW 2192   0.285   2.482   0.258 -0.2725  0.1275 -0.3655
  549SOL     OW 2193   0.720   1.906   2.121 -0.2437  0.2516 -0.0836
  549SOL    HW1 2194   0.728   1.987   2.081 -0.6402  0.2708 -1.0969
  549SOL    HW2 2195   0.764   1.905   2.204 -0.1859  0.8788 -1.6036
  549SOL     MW 2196   0.727   1.916   2.126 -0.2884  0.3369 -0.4179
  550SOL     OW 2197   1.816   1.755   2.584 -0.1165 -0.0231  0.2869
  550SOL    HW1 2198   1.833   1.783   2.494  3.3279 -0.5148  0.4311
  550SOL    HW2 2199   1.822   1.830   2.641  0.4214  0.0623 -0.1568
  550SOL     MW 2200   1.819   1.769   2.580  0.4089 -0.0767  0.2474
  551SOL     OW 2201   0.849   2.345   0.208  0.4105 -0.4299  0.2058
  551SOL    HW1 2202   0.938   2.371   0.189  2.3988  0.2994  0.8988
  551SOL    HW2 2203   0.844   2.249   0.195 -1.6919 -1.2829 -2.4303
  551SOL     MW 2204   0.860   2.336   0.204  0.3955 -0.4462 -0.0506
  552SOL     OW 2205   1.803   1.817   2.297 -0.3253  0.6776 -0.2915
  552SOL    HW1 2206   1.709   1.802   2.286 -2.9832 -1.0723  0.2233
  552SOL    HW2 2207   1.853   1.772   2.216 -2.6033 -0.8938  2.2285
  552SOL     MW 2208   1.797   1.809   2.285 -0.9765  0.2394  0.1089
  553SOL     OW 2209   1.219   2.326   1.541 -0.2891 -0.0187 -0.0235
  553SOL    HW1 2210   1.251   2.238   1.546  2.3558  0.8142 -1.3809
  553SOL    HW2 2211   1.274   2.376   1.483  0.8127 -0.4073  1.5826
  553SOL     MW 2212   1.230   2.321   1.534  0.2052  0.0399  0.0093
  554SOL     OW 2213   0.565   2.841   2.681  0.0344  0.2350 -0.7876
  554SOL    HW1 2214   0.533   2.917   2.636 -1.4160  1.0288  2.5003
  554SOL    HW2 2215   0.619   2.801   2.619  1.1219 -0.0722  2.3626
  554SOL     MW 2216   0.568   2.846   2.667 -0.0135  0.2992  0.0618
  555SOL     OW 2217   0.575   2.402   2.589 -0.4280  0.3909 -0.1716
  555SOL    HW1 2218   0.559   2.309   2.617 -3.1219  2.5639 -1.4736
  555SOL    HW2 2219   0.662   2.403   2.551  1.9018 -1.8453 -2.3506
  555SOL     MW 2220   0.585   2.390   2.588 -0.4760  0.3826 -0.6309
  556SOL     OW 2221   0.993   1.808   0.126 -0.4023 -0.1511  0.0077
  556SOL    HW1 2222   1.021   1.805   0.034  0.9135  2.8189  1.9853
  556SOL    HW2 2223   1.073   1.834   0.174 -0.4582 -0.3552  2.4717
  556SOL     MW 2224   1.007   1.811   0.120 -0.2361  0.2139  0.5937
  557SOL     OW 2225   0.910   2.677   0.445 -0.4643 -0.1736  0.0695
  557SOL    HW1 2226   0.989   2.674   0.388  0.7100  2.7082 -1.4769
  557SOL    HW2 2227   0.870   2.767   0.443  1.8210 -0.2987  0.5155
  557SOL     MW 2228   0.915   2.689   0.437 -0.0078  0.1901 -0.0757
  558SOL     OW 2229   0.264   2.162   0.019  0.2333  0.7742  0.0786
  558SOL    HW1 2230   0.215   2.077   0.016 -2.9657 -0.9362 -1.3514
  558SOL    HW2 2231   0.222   2.233   0.072  0.9558  5.2760 -0.4771
  558SOL     MW 2232   0.252   2.160   0.026 -0.0934  1.1425 -0.1834
  559SOL     OW 2233   1.186   2.329   2.080  0.1939  0.3133  0.6391
  559SOL    HW1 2234   1.197   2.418   2.104  0.0406 -2.8930  3.6111
  559SOL    HW2 2235   1.174   2.278   2.163  0.2181  0.4125 -0.3079
  559SOL     MW 2236   1.186   2.334   2.094  0.1768 -0.0967  0.9063
  560SOL     OW 2237   2.003   2.796   0.015  0.3459  0.2533 -0.0500
  560SOL    HW1 2238   2.040   2.871  -0.026 -1.9079 -0.5941  0.9609
  560SOL    HW2 2239   1.924   2.780  -0.031 -0.2264  0.9342 -0.2064
  560SOL     MW 2240   1.997   2.804   0.004 -0.0270  0.2313  0.0628
  561SOL     OW 2241   0.448   2.074   0.211 -0.0949  0.1175  0.3304
  561SOL    HW1 2242   0.366   2.089   0.154 -4.4705  1.3910 -1.0793
  561SOL    HW2 2243   0.470   2.162   0.234 -0.2555  2.5001  0.8155
  561SOL     MW 2244   0.440   2.087   0.206 -0.6934  0.5999  0.2084
  562SOL     OW 2245   0.907   2.169   2.166 -0.0744  0.2106  0.0013
  562SOL    HW1 2246   0.899   2.262   2.158  0.1958 -2.0742 -0.8912
  562SOL    HW2 2247   0.982   2.139   2.222 -0.5857 -1.1288 -3.3473
  562SOL     MW 2248   0.916   2.177   2.172 -0.1062 -0.2676 -0.5582
  563SOL     OW 2249   1.213   0.253   0.558  0.5769  0.5459  0.4239
  563SOL    HW1 2250   1.159   0.230   0.482 -1.5598  1.4200 -0.5246
  563SOL    HW2 2251   1.253   0.165   0.583  1.9231 -0.6915  0.5862
  563SOL     MW 2252   1.211   0.238   0.551  0.4726  0.4980  0.3202
  564SOL     OW 2253   1.062   2.565   2.392  0.1753 -0.5110 -0.3798
  564SOL    HW1 2254   1.105   2.586   2.308  3.5226  0.9172  0.6024
  564SOL    HW2 2255   1.113   2.615   2.453  1.9036  0.6834 -0.9963
  564SOL     MW 2256   1.075   2.574   2.389  0.8449 -0.1650 -0.3315
  565SOL     OW 2257   2.902   2.667   2.591 -0.5742  0.2347 -0.4556
  565SOL    HW1 2258   2.977   2.709   2.551 -1.1148  1.2066  0.6878
  565SOL    HW2 2259   2.828   2.659   2.531  3.9780  3.0096  2.1783
  565SOL     MW 2260   2.902   2.672   2.578 -0.0449  0.7291  0.0428
  566SOL     OW 2261   2.260   1.917   2.349 -0.4061 -0.5271  0.3792
  566SOL    HW1 2262   2.273   1.942   2.255  0.3505  0.6775 -0.0987
  566SOL    HW2 2263   2.296   1.994   2.395 -0.6700 -0.3750  1.7894
  566SOL     MW 2264   2.266   1.931   2.343 -0.3411 -0.3481  0.5022
  567SOL     OW 2265   1.181   2.864   0.053 -0.4818  0.0129 -0.8848
  567SOL    HW1 2266   1.225   2.951   0.052  1.8150  1.4223  0.0098
  567SOL    HW2 2267   1.184   2.837  -0.043 -1.7317  0.2035 -0.8541
  567SOL     MW 2268   1.187   2.872   0.041 -0.3437  0.2240 -0.7627
  568SOL     OW 2269   1.654   2.116   2.847  0.0853 -0.3705  0.6337
  568SOL    HW1 2270   1.680   2.177   2.918 -1.1825  2.1716 -1.1567
  568SOL    HW2 2271   1.728   2.066   2.825 -1.3997  0.8602 -3.0876
  568SOL     MW 2272   1.667   2.118   2.853 -0.2779  0.1273 -0.0935
  569SOL     OW 2273   0.210   2.179   2.426  0.3989  0.0218  0.0167
  569SOL    HW1 2274   0.187   2.244   2.362  0.3866  0.4760  0.5401
  569SOL    HW2 2275   0.201   2.225   2.515  0.3896 -1.3633 -0.7426
  569SOL     MW 2276   0.206   2.194   2.430  0.3961 -0.1010 -0.0144
  570SOL     OW 2277   1.443   0.412   0.507 -0.1695 -0.2416  0.1897
  570SOL    HW1 2278   1.365   0.371   0.540  1.9906 -1.7951  0.4364
  570SOL    HW2 2279   1.502   0.388   0.580  0.0997 -1.8457  2.1160
  570SOL     MW 2280   1.441   0.404   0.521  0.1511 -0.6582  0.4764
  571SOL     OW 2281   1.490   2.400   1.918 -0.2160  0.1133  0.1399
  571SOL    HW1 2282   1.530   2.438   1.997 -2.5239  2.6224  0.8957
  571SOL    HW2 2283   1.447   2.319   1.942  1.1258 -0.7822  0.0380
  571SOL     MW 2284   1.489   2.394   1.932 -0.3435  0.3262  0.2262
  572SOL     OW 2285   0.935   2.642   0.042 -0.0076  0.4723  0.8197
  572SOL    HW1 2286   0.946   2.661  -0.049  0.1671 -0.4078  1.4014
  572SOL    HW2 2287   0.841   2.609   0.046  0.1699  0.2725  0.4675
  572SOL     MW 2288   0.924   2.640   0.030  0.0389  0.3298  0.8500
  573SOL     OW 2289   1.131   2.415   0.174  0.5116 -0.2998 -0.4700
  573SOL    HW1 2290   1.219   2.416   0.191 -2.7991 -0.5214  0.2351
  573SOL    HW2 2291   1.099   2.502   0.194  0.6635  0.6523  2.8559
  573SOL     MW 2292   1.138   2.426   0.179  0.0949 -0.2034  0.0619
  574SOL     OW 2293   1.127   2.678   0.282 -0.5028 -0.5299  0.6785
  574SOL    HW1 2294   1.216   2.689   0.293 -1.6133  0.8426 -0.2850
  574SOL    HW2 2295   1.107   2.727   0.199  1.1917 -3.3151  0.2628
  574SOL     MW 2296   1.136   2.686   0.272 -0.4258 -0.7163  0.4965
  575SOL     OW 2297   3.053   2.283   1.832  0.3875 -0.2324 -0.3336
  575SOL    HW1 2298   3.077   2.202   1.780  0.1099 -0.6904  0.4553
  575SOL    HW2 2299   3.102   2.359   1.797 -1.0438  0.8087 -2.0941
  575SOL     MW 2300   3.062   2.282   1.821  0.1620 -0.1555 -0.4618
  576SOL     OW 2301   2.813   1.820   2.064  0.2273  0.3454 -0.4553
  576SOL    HW1 2302   2.841   1.892   2.012 -2.1983  1.5219 -1.0175
  576SOL    HW2 2303   2.728   1.790   2.039  0.3941 -0.4113  0.4762
  576SOL     MW 2304   2.806   1.826   2.054 -0.0707  0.4008 -0.4065
  577SOL     OW 2305   2.092   0.299   0.059 -0.2497  0.6517 -0.7856
  577SOL    HW1 2306   2.029   0.325  -0.012 -1.1220  1.9141 -0.3133
  577SOL    HW2 2307   2.038   0.257   0.126 -2.8028 -1.3305  1.4706
  577SOL     MW 2308   2.076   0.297   0.058 -0.7016  0.5567 -0.4256
  578SOL     OW 2309   2.035   2.052   2.413  0.1676 -0.3389  0.4332
  578SOL    HW1 2310   1.977   2.054   2.338  1.0816 -0.7154 -2.8533
  578SOL    HW2 2311   2.111   1.994   2.385 -1.2839 -2.0647 -0.8035
  578SOL     MW 2312   2.037   2.044   2.400  0.0967 -0.6163 -0.1636
  579SOL     OW 2313   0.859   2.415   2.455  0.0411  0.2228  0.1307
  579SOL    HW1 2314   0.876   2.353   2.529 -0.0767 -3.0648 -1.1004
  579SOL    HW2 2315   0.941   2.473   2.436  1.6095  0.2847  0.1578
  579SOL     MW 2316   0.872   2.415   2.462  0.2325 -0.2028 -0.0282
  580SOL     OW 2317   0.878   2.984   0.013 -0.5623  0.0119 -0.0980
  580SOL    HW1 2318   0.959   2.943   0.013  1.3340  0.9500 -1.8353
  580SOL    HW2 2319   0.823   2.944  -0.059  0.5455 -0.3382 -1.5331
  580SOL     MW 2320   0.881   2.973   0.003 -0.1659  0.0894 -0.5166
  581SOL     OW 2321   1.064   2.467   1.697 -0.1995 -0.7210 -0.4289
  581SOL    HW1 2322   1.111   2.540   1.736  2.9312 -3.1722  2.8922
  581SOL    HW2 2323   1.124   2.433   1.633  1.1264  2.1145 -0.1388
  581SOL     MW 2324   1.078   2.472   1.694  0.3885 -0.6703  0.0476
  582SOL     OW 2325   0.020   2.838   2.483  0.0885 -0.4715 -0.7721
  582SOL    HW1 2326   0.019   2.914   2.540  0.3392  0.4832  0.6082
  582SOL    HW2 2327   0.116   2.812   2.501 -1.4580  1.8927  1.7718
  582SOL     MW 2328   0.033   2.845   2.493 -0.0825 -0.0336 -0.2544
  583SOL     OW 2329   1.937   2.453   2.643 -0.7299 -0.1060 -0.2384
  583SOL    HW1 2330   2.028   2.487   2.630 -1.6592  1.6442  0.7273
  583SOL    HW2 2331   1.954   2.363   2.637 -0.4354 -0.0966  1.6572
  583SOL     MW 2332   1.951   2.446   2.641 -0.8137  0.1262  0.1391
  584SOL     OW 2333   0.186   1.884   2.093  0.2003  0.6678 -0.1802
  584SOL    HW1 2334   0.277   1.863   2.088 -0.8359 -1.5283 -0.5497
  584SOL    HW2 2335   0.179   1.947   2.167  2.8109  1.0765 -1.7311
  584SOL     MW 2336   0.197   1.890   2.102  0.4080  0.4319 -0.4336
  585SOL     OW 2337   1.483   2.635   0.080 -0.1336  0.6541  0.1484
  585SOL    HW1 2338   1.433   2.640   0.000 -3.1128 -0.1135  3.3539
  585SOL    HW2 2339   1.439   2.676   0.151  0.3896  1.9718  2.8535
  585SOL     MW 2340   1.471   2.641   0.079 -0.4577  0.7267  0.9283
  586SOL     OW 2341   1.268   2.947   2.398  0.4133 -1.1827 -0.2601
  586SOL    HW1 2342   1.346   2.916   2.349  0.8493 -3.8088  0.7264
  586SOL    HW2 2343   1.295   2.992   2.478  0.5950 -0.6434  2.5399
  586SOL     MW 2344   1.282   2.949   2.402  0.4948 -1.4580  0.2395
  587SOL     OW 2345   1.254   1.618   2.126  0.5437  0.0770 -0.5400
  587SOL    HW1 2346   1.243   1.560   2.203 -0.6266 -0.4476 -0.2500
  587SOL    HW2 2347   1.201   1.574   2.052 -0.3626  3.2657 -0.9367
  587SOL     MW 2348   1.245   1.605   2.126  0.2697  0.4285 -0.5540
  588SOL     OW 2349   1.416   2.157   2.729 -0.0426  0.2053  0.6447
  588SOL    HW1 2350   1.505   2.139   2.767  0.7897 -0.3082  0.4631
  588SOL    HW2 2351   1.365   2.157   2.815 -0.4575 -2.5481 -1.6826
  588SOL     MW 2352   1.421   2.155   2.745  0.0125 -0.2257  0.3137
  589SOL     OW 2353   1.350   2.087   0.075  0.2200  0.3319 -0.3066
  589SOL    HW1 2354   1.391   2.174   0.100  0.0474  0.2801  1.0085
  589SOL    HW2 2355   1.337   2.033   0.155  1.4550 -0.7410 -1.3132
  589SOL     MW 2356   1.354   2.091   0.089  0.3602  0.1835 -0.2659
  590SOL     OW 2357   0.390   2.577   2.272  0.2374  0.0477 -0.0021
  590SOL    HW1 2358   0.353   2.577   2.184  0.6841 -1.6186  0.2158
  590SOL    HW2 2359   0.460   2.643   2.263 -0.4068  1.1250  0.7566
  590SOL     MW 2360   0.394   2.586   2.259  0.2113 -0.0300  0.1268
  591SOL     OW 2361   2.306   0.715   0.023 -0.2897 -0.2813  0.0612
  591SOL    HW1 2362   2.232   0.754  -0.023 -1.1250  1.2712  0.8801
  591SOL    HW2 2363   2.385   0.733  -0.034 -1.6267  1.4565  0.6615
  591SOL     MW 2364   2.307   0.723   0.009 -0.5763  0.1528  0.2485
  592SOL     OW 2365   1.869   3.030   0.820  0.2463 -0.0244 -0.3740
  592SOL    HW1 2366   1.825   3.088   0.763  1.1473  1.2434  2.1014
  592SOL    HW2 2367   1.893   2.965   0.757 -1.0853  1.5256 -2.5594
  592SOL     MW 2368   1.866   3.029   0.804  0.1895  0.3474 -0.3358
  593SOL     OW 2369   1.912   0.754   0.835 -0.2812  0.0068  0.1642
  593SOL    HW1 2370   1.829   0.751   0.784  0.5806  1.9166  0.2765
  593SOL    HW2 2371   1.935   0.662   0.840 -0.9357 -1.6849 -0.4629
  593SOL     MW 2372   1.904   0.742   0.829 -0.2538  0.0356  0.0963
  594SOL     OW 2373   2.744   1.122   1.389 -0.2834  0.2649  0.4947
  594SOL    HW1 2374   2.840   1.147   1.395 -1.7796  1.1058 -2.4047
  594SOL    HW2 2375   2.724   1.105   1.298  0.3473  0.5158  3.4163
  594SOL     MW 2376   2.754   1.123   1.378 -0.3976  0.4090  0.4977
  595SOL     OW 2377   0.452   0.949   0.681 -0.2272 -0.1479 -0.3555
  595SOL    HW1 2378   0.474   1.018   0.616  2.0574  0.3659  0.0159
  595SOL    HW2 2379   0.465   0.999   0.768 -1.0984  0.2875 -1.4357
  595SOL     MW 2380   0.457   0.965   0.684 -0.0407 -0.0227 -0.4490
  596SOL     OW 2381   2.427   1.388   0.567  0.0582 -0.1126 -0.4107
  596SOL    HW1 2382   2.466   1.439   0.499  0.3141 -1.7780  1.9080
  596SOL    HW2 2383   2.495   1.380   0.630  1.2851 -1.2296 -1.2914
  596SOL     MW 2384   2.441   1.394   0.566  0.2539 -0.4797 -0.2210
  597SOL     OW 2385   2.187   0.672   1.711 -0.0094  0.2712 -0.6952
  597SOL    HW1 2386   2.253   0.603   1.739 -0.9941  1.2904 -1.4290
  597SOL    HW2 2387   2.139   0.630   1.634  0.0656 -1.1006  0.8977
  597SOL     MW 2388   2.189   0.658   1.705 -0.1294  0.2247 -0.5818
  598SOL     OW 2389   2.599   1.025   2.872 -0.1085 -0.2118 -0.0927
  598SOL    HW1 2390   2.626   0.964   2.804 -1.3404  1.2563  3.4701
  598SOL    HW2 2391   2.663   1.089   2.897  1.5435  1.7329 -0.4752
  598SOL     MW 2392   2.611   1.025   2.866 -0.0531  0.2385  0.3269
  599SOL     OW 2393   2.929   0.321   2.069 -0.3892 -0.1172  0.2136
  599SOL    HW1 2394   2.877   0.342   2.152  1.1633  0.0376 -0.6872
  599SOL    HW2 2395   2.955   0.407   2.025  0.8597 -0.5364 -0.6303
  599SOL     MW 2396   2.925   0.335   2.074 -0.0196 -0.1521 -0.0166
  600SOL     OW 2397   1.893   1.717   0.899 -0.2039 -0.1985 -0.4915
  600SOL    HW1 2398   1.897   1.767   0.980  2.6413 -0.4603 -1.0174
  600SOL    HW2 2399   1.809   1.745   0.866 -0.8397 -1.3312  0.3843
  600SOL     MW 2400   1.883   1.727   0.905  0.0876 -0.3825 -0.4453
  601SOL     OW 2401   2.529   0.795   0.830 -0.4468  0.4107 -0.2480
  601SOL    HW1 2402   2.538   0.784   0.927  0.2192 -1.9601 -2.9446
  601SOL    HW2 2403   2.443   0.751   0.813 -1.9871  0.7560  1.5207
  601SOL     MW 2404   2.519   0.788   0.841 -0.5622  0.1435 -0.3704
  602SOL     OW 2405   2.329   1.929   0.726 -0.5884  0.3096  0.4960
  602SOL    HW1 2406   2.274   1.864   0.776  1.5449  1.0946  3.0995
  602SOL    HW2 2407   2.266   1.972   0.669  0.7887 -0.8470  1.8206
  602SOL     MW 2408   2.314   1.926   0.725 -0.1253  0.2605  1.0143
  603SOL     OW 2409   3.061   1.392   1.796  0.6889 -0.3772 -0.2109
  603SOL    HW1 2410   3.093   1.406   1.887  2.4585 -1.4010  1.6805
  603SOL    HW2 2411   3.048   1.297   1.786 -0.9456  0.4962  1.0069
  603SOL     MW 2412   3.063   1.381   1.807  0.7067 -0.3970  0.1994
  604SOL     OW 2413   2.114   1.576   0.449 -0.1539  0.0927  0.0609
  604SOL    HW1 2414   2.121   1.500   0.500  0.7005 -1.0515 -3.8900
  604SOL    HW2 2415   2.046   1.628   0.495  1.0167  1.4354 -0.0971
  604SOL     MW 2416   2.106   1.573   0.462  0.1133  0.1189 -0.4812
  605SOL     OW 2417   2.688   1.560   0.845  0.8694 -0.2162  0.0897
  605SOL    HW1 2418   2.604   1.601   0.825  1.0666 -0.3316 -0.8584
  605SOL    HW2 2419   2.676   1.469   0.806 -1.8343  1.3724 -3.2034
  605SOL     MW 2420   2.675   1.553   0.837  0.5387 -0.0218 -0.4699
  606SOL     OW 2421   2.562   1.776   1.866  0.2069  0.4863 -0.8859
  606SOL    HW1 2422   2.465   1.780   1.880  0.2417 -1.9101  0.1411
  606SOL    HW2 2423   2.583   1.684   1.849  0.1447 -0.1548 -2.1093
  606SOL     MW 2424   2.552   1.765   1.866  0.2033  0.0856 -0.9118
  607SOL     OW 2425   2.335   1.033   2.966  0.5954 -0.1481 -0.4777
  607SOL    HW1 2426   2.426   1.026   2.929 -0.5264 -3.0354  1.1436
  607SOL    HW2 2427   2.341   1.027   3.060 -0.7693  0.5947 -3.5454
  607SOL     MW 2428   2.348   1.031   2.973  0.2673 -0.4310 -0.6685
  608SOL     OW 2429   1.875   0.328   0.564 -0.1241 -0.4413 -0.7289
  608SOL    HW1 2430   1.880   0.384   0.486 -1.0941  0.6295 -3.5098
  608SOL    HW2 2431   1.853   0.239   0.536 -2.5741  2.8730  0.9349
  608SOL     MW 2432   1.873   0.324   0.550 -0.5753  0.1373 -0.8763
  609SOL     OW 2433   2.161   1.953   3.063 -0.7891  0.1816  0.5725
  609SOL    HW1 2434   2.074   1.913   3.051  0.1397 -0.7953  0.5859
  609SOL    HW2 2435   2.181   1.939   3.157 -0.2036  0.5399 -0.3603
  609SOL     MW 2436   2.152   1.945   3.074 -0.5893  0.1000  0.4512
  610SOL     OW 2437   1.823   1.040   1.247 -1.0632 -0.3241 -0.0834
  610SOL    HW1 2438   1.826   0.963   1.186 -2.6118 -1.0287 -1.5296
  610SOL    HW2 2439   1.737   1.049   1.278  0.3285 -0.4003 -1.5091
  610SOL     MW 2440   1.812   1.031   1.243 -1.0839 -0.4271 -0.4623
  611SOL     OW 2441   2.440   1.675   0.755 -0.5440  0.0868  0.1935
  611SOL    HW1 2442   2.394   1.755   0.762  2.0761 -0.9624 -1.2232
  611SOL    HW2 2443   2.461   1.664   0.660  1.8853  2.3066 -1.7655
  611SOL     MW 2444   2.436   1.684   0.743  0.1222  0.2413 -0.2519
  612SOL     OW 2445   2.777   2.847   0.439  0.0207  0.2331  0.0584
  612SOL    HW1 2446   2.802   2.895   0.518  0.6261 -2.4857  0.2567
  612SOL    HW2 2447   2.857   2.844   0.385  0.1192  0.4342 -0.9735
  612SOL     MW 2448   2.791   2.853   0.442  0.1135 -0.0991 -0.0516
  613SOL     OW 2449   1.518   1.034   1.018 -0.4685  0.1323 -0.7227
  613SOL    HW1 2450   1.528   1.128   1.035 -0.7878  1.5848 -1.8044
  613SOL    HW2 2451   1.522   0.994   1.101  0.0941  0.2259 -0.3376
  613SOL     MW 2452   1.520   1.041   1.031 -0.4364  0.3363 -0.8146
  614SOL     OW 2453   2.022   0.555   1.536 -0.5297  0.5037  0.3113
  614SOL    HW1 2454   2.009   0.475   1.589  0.3986  0.0463  1.1817
  614SOL    HW2 2455   2.023   0.517   1.449 -1.2572  0.1729  0.3358
  614SOL     MW 2456   2.020   0.539   1.531 -0.5032  0.3997  0.4294
  615SOL     OW 2457   2.228   0.827   0.260  0.3542 -0.4240  0.5153
  615SOL    HW1 2458   2.301   0.795   0.313 -0.9121 -1.3590 -2.0621
  615SOL    HW2 2459   2.257   0.804   0.175  1.2343 -1.7918  1.6582
  615SOL     MW 2460   2.242   0.820   0.256  0.3033 -0.7279  0.3260
  616SOL     OW 2461   2.584   0.344   1.599 -0.2787  0.0003  0.3013
  616SOL    HW1 2462   2.541   0.295   1.529 -0.7890  1.4543 -2.0185
  616SOL    HW2 2463   2.592   0.432   1.563 -0.5749 -0.8661  1.2931
  616SOL     MW 2464   2.580   0.349   1.585 -0.3851  0.0779  0.1261
  617SOL     OW 2465   2.831   0.553   1.682  0.4082 -0.0802 -0.3307
  617SOL    HW1 2466   2.758   0.574   1.739 -1.5182 -3.3626  1.5541
  617SOL    HW2 2467   2.849   0.458   1.698  2.0829 -1.1214 -2.8963
  617SOL     MW 2468   2.824   0.543   1.692  0.3750 -0.6506 -0.4206
  618SOL     OW 2469   2.683   0.358   1.934  0.1867  0.5063  0.7350
  618SOL    HW1 2470   2.658   0.451   1.956 -1.6361 -0.2369  1.3805
  618SOL    HW2 2471   2.770   0.345   1.976  0.0091  0.8005  0.8192
  618SOL     MW 2472   2.691   0.369   1.943 -0.0772  0.4470  0.8313
  619SOL     OW 2473   2.628   0.740   0.147  0.3279 -0.3183  0.0120
  619SOL    HW1 2474   2.686   0.807   0.181 -0.3684  0.4345 -0.5000
  619SOL    HW2 2475   2.577   0.707   0.224  0.1351  0.2419 -4.1263
  619SOL     MW 2476   2.629   0.745   0.162  0.2106 -0.1451 -0.6016
  620SOL     OW 2477   2.317   1.068   0.990  0.5275  0.0033  0.4315
  620SOL    HW1 2478   2.338   1.123   0.912 -0.8525 -2.0259 -2.9215
  620SOL    HW2 2479   2.325   0.977   0.959 -1.2941 -1.2465  1.3958
  620SOL     MW 2480   2.321   1.064   0.976  0.1051 -0.4293  0.1163
  621SOL     OW 2481   1.459   2.097   1.988  0.3400  0.5678 -0.2408
  621SOL    HW1 2482   1.403   2.023   2.006 -3.4992 -0.1000  0.1178
  621SOL    HW2 2483   1.550   2.073   2.000  1.5610  0.0256  1.2235
  621SOL     MW 2484   1.464   2.084   1.992 -0.0054  0.4082 -0.0003
  622SOL     OW 2485   2.655   0.178   0.247  0.2959  0.2836  0.3602
  622SOL    HW1 2486   2.718   0.252   0.266  0.2945 -0.3060 -1.3042
  622SOL    HW2 2487   2.697   0.104   0.201  1.6228 -0.0131 -1.9548
  622SOL     MW 2488   2.669   0.178   0.243  0.4708  0.1666 -0.1648
  623SOL     OW 2489   2.330   2.736   0.926 -0.3766  0.3752  0.0024
  623SOL    HW1 2490   2.398   2.809   0.915  0.6910  1.5645  0.4899
  623SOL    HW2 2491   2.261   2.772   0.988 -0.9336  0.1503  1.4045
  623SOL     MW 2492   2.330   2.750   0.933 -0.3092  0.5024  0.2517
  624SOL     OW 2493   2.215   1.697   3.018 -0.2856 -0.2768 -0.5963
  624SOL    HW1 2494   2.131   1.654   3.013  2.2833 -1.5473  0.3544
  624SOL    HW2 2495   2.198   1.790   3.052 -1.8837  0.2597 -0.0177
  624SOL     MW 2496   2.201   1.704   3.022 -0.1576 -0.3736 -0.3946
  625SOL     OW 2497   2.158   1.984   1.095  0.6385 -0.0758  0.3930
  625SOL    HW1 2498   2.217   1.920   1.138  0.8214  1.5142 -0.8505
  625SOL    HW2 2499   2.198   1.991   1.012 -0.7414  1.9918  1.2561
  625SOL     MW 2500   2.171   1.977   1.090  0.4806  0.4068  0.3428
  626SOL     OW 2501   0.166   1.628   2.313 -0.0316  0.2297  0.4712
  626SOL    HW1 2502   0.121   1.552   2.338  2.4583  2.0443 -1.1710
  626SOL    HW2 2503   0.141   1.690   2.382 -1.6993  1.0727 -0.9285
  626SOL     MW 2504   0.157   1.626   2.325  0.0768  0.5804  0.0698
  627SOL     OW 2505   2.506   0.822   2.618  0.2951  0.0734  0.4648
  627SOL    HW1 2506   2.428   0.882   2.623 -2.0161 -2.1868 -3.2851
  627SOL    HW2 2507   2.469   0.764   2.544 -1.0133 -1.9560  0.7052
  627SOL     MW 2508   2.491   0.822   2.609 -0.1825 -0.4926  0.0018
  628SOL     OW 2509   2.257   1.345   1.360 -0.3279  0.6713 -0.0606
  628SOL    HW1 2510   2.218   1.279   1.312  0.9211 -0.1324  2.5551
  628SOL    HW2 2511   2.350   1.330   1.342  0.4517 -1.1844  2.9130
  628SOL     MW 2512   2.264   1.334   1.351 -0.0602  0.3204  0.6769
  629SOL     OW 2513   2.002   0.537   1.256 -0.1468  0.7592 -0.0374
  629SOL    HW1 2514   2.040   0.618   1.217  0.8211  0.6623 -1.6600
  629SOL    HW2 2515   1.916   0.559   1.293  0.5315 -0.1497  0.9844
  629SOL     MW 2516   1.995   0.550   1.256  0.0704  0.6265 -0.1167
  630SOL     OW 2517   2.496   1.852   3.019 -0.5086  0.0155  0.8061
  630SOL    HW1 2518   2.497   1.928   2.962  0.9094 -1.8046 -1.0951
  630SOL    HW2 2519   2.413   1.813   3.001  4.6902 -1.4645  1.7130
  630SOL     MW 2520   2.485   1.857   3.009  0.3644 -0.4199  0.6750
  631SOL     OW 2521   1.983   1.809   1.601 -0.4821  0.2961  0.2088
  631SOL    HW1 2522   2.015   1.722   1.628 -0.7670 -0.4466  0.3254
  631SOL    HW2 2523   1.932   1.797   1.523  0.5131  1.1515  1.0556
  631SOL     MW 2524   1.981   1.796   1.594 -0.3884  0.3110  0.3359
  632SOL     OW 2525   0.096   2.089   1.497  0.3706 -0.0004 -0.2138
  632SOL    HW1 2526   0.035   2.075   1.564  3.3329  0.4192 -0.3026
  632SOL    HW2 2527   0.120   1.998   1.474 -0.1485 -4.2537  1.8347
  632SOL     MW 2528   0.091   2.075   1.503  0.6930 -0.5062  0.0447
  633SOL     OW 2529   2.470   0.681   0.392  0.4018  0.5023  0.0596
  633SOL    HW1 2530   2.550   0.662   0.442  0.2512 -1.2881  0.4885
  633SOL    HW2 2531   2.409   0.606   0.393 -0.1497 -1.8719 -2.8035
  633SOL     MW 2532   2.472   0.669   0.399  0.3092 -0.0472 -0.2616
  634SOL     OW 2533   2.619   3.090   0.703  0.1384 -0.5876  0.1910
  634SOL    HW1 2534   2.667   3.173   0.711 -1.6070  1.8198  1.3274
  634SOL    HW2 2535   2.582   3.093   0.614  0.4865 -1.7241 -3.1242
  634SOL     MW 2536   2.621   3.102   0.692 -0.0460 -0.4199 -0.0965
  635SOL     OW 2537   2.584   0.125   1.845  0.5215  0.0352  0.3973
  635SOL    HW1 2538   2.638   0.091   1.775 -0.5367  0.6345 -3.0095
  635SOL    HW2 2539   2.625   0.212   1.869 -0.9467  0.0218  1.7361
  635SOL     MW 2540   2.596   0.132   1.839  0.1882  0.1125  0.1244
  636SOL     OW 2541   2.923   1.738   0.962 -0.2181  0.7956  0.2842
  636SOL    HW1 2542   2.839   1.773   0.986 -0.4903 -1.6462  3.4537
  636SOL    HW2 2543   2.971   1.732   1.045  1.2608  4.0435 -0.5269
  636SOL     MW 2544   2.918   1.742   0.976 -0.0589  0.9019  0.5953
  637SOL     OW 2545   2.926   1.524   0.657 -0.1250 -0.0355  0.1479
  637SOL    HW1 2546   2.975   1.608   0.628  1.0770 -0.6586  0.4129
  637SOL    HW2 2547   2.874   1.553   0.731  1.7025  1.5505 -1.8759
  637SOL     MW 2548   2.926   1.539   0.663  0.2747  0.0916 -0.0841
  638SOL     OW 2549   2.716   0.583   0.505  0.4671 -0.4450  0.0974
  638SOL    HW1 2550   2.813   0.595   0.488  2.0925 -0.3605  0.6527
  638SOL    HW2 2551   2.702   0.619   0.596 -1.0855  0.2029  1.7238
  638SOL     MW 2552   2.727   0.590   0.515  0.4767 -0.3484  0.3852
  639SOL     OW 2553   1.778   0.060   0.498 -0.1569  0.4359  0.0705
  639SOL    HW1 2554   1.689   0.080   0.519  0.1578 -1.7361  2.9333
  639SOL    HW2 2555   1.785  -0.027   0.460 -1.9427  0.9209 -0.4957
  639SOL     MW 2556   1.767   0.051   0.496 -0.3510  0.2133  0.3735
  640SOL     OW 2557   0.350   1.379   0.070 -0.0296 -0.3078  0.2021
  640SOL    HW1 2558   0.351   1.365  -0.027 -2.1890  2.8859 -0.5001
  640SOL    HW2 2559   0.310   1.300   0.103 -2.4729 -1.5734 -1.6724
  640SOL     MW 2560   0.345   1.367   0.062 -0.6369 -0.0534 -0.1379
  641SOL     OW 2561   2.214   0.452   0.377 -0.2988 -0.0206  0.4402
  641SOL    HW1 2562   2.243   0.444   0.285 -1.6034 -0.0065  2.1528
  641SOL    HW2 2563   2.232   0.367   0.415  0.0829  1.0963 -1.6505
  641SOL     MW 2564   2.220   0.440   0.370 -0.4206  0.1286  0.3903
  642SOL     OW 2565   0.041   3.093   0.570  0.2514  0.2010  0.4037
  642SOL    HW1 2566   0.001   3.167   0.522 -1.1146  1.7325 -0.7768
  642SOL    HW2 2567  -0.029   3.038   0.609  0.7686  1.0866 -1.5261
  642SOL     MW 2568   0.027   3.095   0.569  0.1395  0.5199 -0.0067
  643SOL     OW 2569   2.061   0.335   1.700  0.2608 -0.2540  0.0776
  643SOL    HW1 2570   2.100   0.318   1.785 -2.2187 -1.9004  0.6031
  643SOL    HW2 2571   2.077   0.251   1.656  5.2936 -0.8100  1.0686
  643SOL     MW 2572   2.068   0.321   1.705  0.5977 -0.5446  0.2777
  644SOL     OW 2573   2.716   1.935   1.072  0.4660  0.3801 -0.1341
  644SOL    HW1 2574   2.668   1.883   1.131 -1.1446 -1.3061 -0.6405
  644SOL    HW2 2575   2.656   2.007   1.044 -2.6192 -0.2812  2.4297
  644SOL     MW 2576   2.702   1.938   1.076 -0.1535  0.0703  0.1374
  645SOL     OW 2577   2.830   0.884   0.664  0.4027 -0.3648  0.4576
  645SOL    HW1 2578   2.912   0.866   0.713 -1.3969 -0.0764  1.0080
  645SOL    HW2 2579   2.778   0.811   0.695 -1.2115 -0.2649 -1.1596
  645SOL     MW 2580   2.834   0.872   0.674 -0.0478 -0.3136  0.3168
  646SOL     OW 2581   0.199   2.266   0.815  0.4249 -0.1115  0.0224
  646SOL    HW1 2582   0.199   2.165   0.818  1.4471 -1.0767  0.4978
  646SOL    HW2 2583   0.128   2.299   0.749  0.1645 -0.2774 -0.3734
  646SOL     MW 2584   0.190   2.257   0.807  0.5254 -0.2607  0.0329
  647SOL     OW 2585   2.709   0.502   2.986  0.4077  0.0894  0.5310
  647SOL    HW1 2586   2.656   0.426   3.024  0.8022 -0.4137 -2.1900
  647SOL    HW2 2587   2.653   0.577   2.979 -1.8421  1.7816 -4.0736
  647SOL     MW 2588   2.695   0.502   2.990  0.1629  0.2463 -0.4355
  648SOL     OW 2589   2.149   0.748   1.137 -0.6708  0.0796 -0.4306
  648SOL    HW1 2590   2.165   0.784   1.049  0.1159  1.8975 -1.0705
  648SOL    HW2 2591   2.183   0.808   1.199 -0.3587 -1.2520 -1.2072
  648SOL     MW 2592   2.156   0.761   1.134 -0.5258  0.1437 -0.6175
  649SOL     OW 2593   2.386   2.766   1.271 -0.5610  0.1599  0.4158
  649SOL    HW1 2594   2.472   2.811   1.274  0.5862  1.2524  0.3880
  649SOL    HW2 2595   2.394   2.685   1.222  0.0653  2.8396 -1.9693
  649SOL     MW 2596   2.398   2.762   1.265 -0.3270  0.6576  0.0975
  650SOL     OW 2597   2.827   0.198   0.668  0.1375 -0.3174  0.0107
  650SOL    HW1 2598   2.863   0.276   0.711 -1.6803 -2.8544  2.3156
  650SOL    HW2 2599   2.890   0.178   0.597  0.7192  0.9317 -2.1813
  650SOL     MW 2600   2.840   0.205   0.665 -0.0256 -0.4873  0.0256
  651SOL     OW 2601   2.984   0.401   0.802 -0.0540  0.1956 -0.2680
  651SOL    HW1 2602   3.077   0.438   0.792 -0.4146  0.0224  0.1526
  651SOL    HW2 2603   2.944   0.468   0.858 -1.3455  0.1650 -0.5251
  651SOL     MW 2604   2.991   0.415   0.808 -0.2720  0.1687 -0.2464
  652SOL     OW 2605   2.387   1.466   3.014 -0.0524  0.4961  0.5187
  652SOL    HW1 2606   2.459   1.467   2.955 -1.5146  0.9659  0.9513
  652SOL    HW2 2607   2.329   1.549   3.005  1.2318  1.3573  0.4117
  652SOL     MW 2608   2.389   1.477   3.005 -0.0759  0.6717  0.5617
  653SOL     OW 2609   1.916   0.438   0.330 -0.5969  0.0038  0.7344
  653SOL    HW1 2610   1.903   0.360   0.271  1.3466 -0.4117 -2.2743
  653SOL    HW2 2611   2.011   0.449   0.324 -1.2509 -2.6663  2.4073
  653SOL     MW 2612   1.926   0.429   0.322 -0.4268 -0.4033  0.5581
  654SOL     OW 2613   2.455   1.041   0.706 -0.1448  0.5942 -0.4078
  654SOL    HW1 2614   2.368   1.045   0.664 -0.0612 -1.8101  1.1381
  654SOL    HW2 2615   2.469   0.950   0.730  0.1947  0.0088  1.6114
  654SOL     MW 2616   2.446   1.030   0.703 -0.0889  0.1998  0.0626
  655SOL     OW 2617   3.007   0.928   0.389 -0.3232 -0.0506 -0.2345
  655SOL    HW1 2618   2.970   0.991   0.455 -2.0498  1.5006 -0.2695
  655SOL    HW2 2619   3.002   0.836   0.426  0.1049 -1.8509  0.1946
  655SOL     MW 2620   3.001   0.924   0.402 -0.4945 -0.0835 -0.1825
  656SOL     OW 2621   1.963   2.670   1.206  0.5189 -0.0121  0.1322
  656SOL    HW1 2622   1.969   2.750   1.254 -1.1195  2.3704 -1.8904
  656SOL    HW2 2623   2.002   2.604   1.261 -0.9339 -0.6230 -0.8502
  656SOL     MW 2624   1.969   2.672   1.219  0.1111  0.2217 -0.2643
  657SOL     OW 2625   0.197   1.578   1.262 -0.0022 -0.0134  0.5587
  657SOL    HW1 2626   0.117   1.629   1.234 -0.0295  2.3965 -1.2097
  657SOL    HW2 2627   0.178   1.490   1.230 -0.1904  0.7473 -2.1116
  657SOL     MW 2628   0.184   1.573   1.254 -0.0306  0.4049 -0.0269
  658SOL     OW 2629   2.693   1.378   0.212 -0.1155 -0.5079 -0.8037
  658SOL    HW1 2630   2.636   1.330   0.279  1.8493  0.3694  1.6464
  658SOL    HW2 2631   2.741   1.442   0.274 -1.4954 -0.0813  0.5804
  658SOL     MW 2632   2.691   1.380   0.229 -0.0383 -0.3359 -0.2978
  659SOL     OW 2633   2.294   1.534   1.030 -0.0975  0.0593  0.5782
  659SOL    HW1 2634   2.390   1.524   1.063 -2.7579  0.6941 -3.8639
  659SOL    HW2 2635   2.242   1.529   1.109  2.2386 -1.3643 -0.4691
  659SOL     MW 2636   2.300   1.532   1.045 -0.1403 -0.0448 -0.1460
  660SOL     OW 2637   2.037   1.573   1.681 -0.5098  0.1542  0.0769
  660SOL    HW1 2638   2.048   1.583   1.780  1.0739 -0.3627 -0.3810
  660SOL    HW2 2639   1.974   1.506   1.665  0.0510  2.0359  2.4296
  660SOL     MW 2640   2.031   1.566   1.692 -0.2268  0.3343  0.3269
  661SOL     OW 2641   2.382   1.085   0.189 -0.2554 -0.7832  0.5606
  661SOL    HW1 2642   2.427   1.149   0.250  1.6377  0.2900  2.0500
  661SOL    HW2 2643   2.394   1.006   0.247 -2.3853 -0.4618  3.2069
  661SOL     MW 2644   2.390   1.083   0.205 -0.2866 -0.5992  1.1062
  662SOL     OW 2645   2.499   2.929   0.888 -0.2252  0.0576  0.2993
  662SOL    HW1 2646   2.442   2.992   0.931 -0.0088 -2.0289 -0.9975
  662SOL    HW2 2647   2.533   2.979   0.813 -0.6075 -0.4371 -0.7905
  662SOL     MW 2648   2.496   2.944   0.884 -0.2471 -0.2830 -0.0156
  663SOL     OW 2649   2.843   1.530   0.372 -0.0657 -0.3274 -0.4656
  663SOL    HW1 2650   2.895   1.607   0.345  1.6541 -1.6945 -0.3850
  663SOL    HW2 2651   2.880   1.494   0.451 -0.5772 -3.0848  1.3600
  663SOL     MW 2652   2.855   1.535   0.379  0.0937 -0.8716 -0.2141
  664SOL     OW 2653   2.460   1.560   1.572  0.2120  0.1176 -0.2040
  664SOL    HW1 2654   2.430   1.655   1.571 -1.4349  0.4097 -0.0820
  664SOL    HW2 2655   2.381   1.506   1.589  1.4458  0.5504  0.6370
  664SOL     MW 2656   2.445   1.565   1.574  0.1575  0.2133 -0.0769
  665SOL     OW 2657   2.848   0.799   2.081 -0.1228 -0.1001  0.0448
  665SOL    HW1 2658   2.835   0.858   2.009 -1.0569 -0.4157 -1.5038
  665SOL    HW2 2659   2.929   0.749   2.076 -2.7077  0.1298  0.0242
  665SOL     MW 2660   2.857   0.800   2.071 -0.5871 -0.1114 -0.1622
  666SOL     OW 2661   2.770   3.045   1.683 -0.5849  0.1502  0.0736
  666SOL    HW1 2662   2.781   3.077   1.595 -2.4696 -2.4785 -0.4583
  666SOL    HW2 2663   2.721   2.957   1.674 -2.0312 -1.4474 -0.2510
  666SOL     MW 2664   2.765   3.038   1.670 -1.0244 -0.4075 -0.0394
  667SOL     OW 2665   1.982   2.698   1.651  0.4396 -0.2660  0.7220
  667SOL    HW1 2666   1.984   2.624   1.714  0.0705  0.3391 -0.1186
  667SOL    HW2 2667   2.071   2.727   1.657 -1.3225 -1.9118  0.0320
  667SOL     MW 2668   1.994   2.692   1.660  0.1584 -0.4033  0.5201
  668SOL     OW 2669   2.752   0.643   0.813  0.1642 -0.1992  0.0773
  668SOL    HW1 2670   2.810   0.640   0.896  1.9900  1.5124  2.1906
  668SOL    HW2 2671   2.675   0.705   0.838 -0.8730 -2.1264 -0.7603
  668SOL     MW 2672   2.749   0.651   0.827  0.2683 -0.2277  0.2456
  669SOL     OW 2673   0.188   0.937   0.661  0.2942  0.2649 -0.2631
  669SOL    HW1 2674   0.159   1.014   0.710  0.1944 -0.9463 -0.7173
  669SOL    HW2 2675   0.292   0.924   0.664  2.9858  2.5914  3.5593
  669SOL     MW 2676   0.198   0.945   0.668  0.6362  0.4120  0.1813
  670SOL     OW 2677   2.902   0.289   0.194 -1.0003  0.2321  0.3819
  670SOL    HW1 2678   2.912   0.205   0.138 -2.0366 -0.1014 -2.3297
  670SOL    HW2 2679   2.948   0.361   0.150  0.7201 -0.7464  1.2873
  670SOL     MW 2680   2.909   0.287   0.181 -0.9100  0.0590  0.1436
  671SOL     OW 2681   2.154   3.023   1.576 -0.3422 -0.2874 -0.1369
  671SOL    HW1 2682   2.118   3.007   1.482 -0.3465 -1.1942 -1.0703
  671SOL    HW2 2683   2.090   3.092   1.609  2.2066  1.0678 -0.0542
  671SOL     MW 2684   2.141   3.030   1.568 -0.0065 -0.2282 -0.2491
  672SOL     OW 2685   1.855   1.695   1.318 -0.4586  0.0478 -0.1070
  672SOL    HW1 2686   1.763   1.722   1.347  0.3855  0.4910 -0.2784
  672SOL    HW2 2687   1.876   1.747   1.236  0.2272  0.5786  1.2681
  672SOL     MW 2688   1.845   1.706   1.311 -0.2567  0.1763  0.0518
  673SOL     OW 2689   2.783   1.108   0.493 -0.2278 -0.1239 -0.0579
  673SOL    HW1 2690   2.779   1.046   0.565 -0.5559  0.1669 -0.0942
  673SOL    HW2 2691   2.861   1.161   0.517  3.5076 -0.3111 -1.0016
  673SOL     MW 2692   2.793   1.107   0.506  0.2217 -0.1103 -0.1872
  674SOL     OW 2693   2.515   0.110   1.215  0.3962  0.2981 -0.2395
  674SOL    HW1 2694   2.464   0.112   1.134  0.7293 -1.9267  0.8625
  674SOL    HW2 2695   2.531   0.012   1.228 -3.0731  1.6813  0.6388
  674SOL     MW 2696   2.510   0.097   1.206 -0.0176  0.1870  0.0218
  675SOL     OW 2697   3.028   0.964   1.103 -0.1105 -0.8470 -0.0644
  675SOL    HW1 2698   3.062   0.880   1.138  0.8380 -0.1007  1.4242
  675SOL    HW2 2699   3.070   0.982   1.020 -0.5535 -0.6474 -0.4912
  675SOL     MW 2700   3.038   0.956   1.096 -0.0438 -0.7222  0.0757
  676SOL     OW 2701   2.878   1.502   1.626  0.9358  0.2165  0.2684
  676SOL    HW1 2702   2.842   1.410   1.636 -1.9152  1.1445 -1.2203
  676SOL    HW2 2703   2.959   1.490   1.667 -1.4879 -1.3108 -1.6683
  676SOL     MW 2704   2.884   1.489   1.633  0.2398  0.1374 -0.1835
  677SOL     OW 2705   2.445   0.740   1.904  0.3357 -0.4234  0.4806
  677SOL    HW1 2706   2.434   0.650   1.865 -0.2577  0.0855  2.2088
  677SOL    HW2 2707   2.381   0.751   1.976  3.6825 -0.4520 -0.8528
  677SOL     MW 2708   2.435   0.730   1.908  0.6990 -0.3600  0.5327
  678SOL     OW 2709   2.536   1.584   0.427  0.6206  0.4704 -0.7793
  678SOL    HW1 2710   2.458   1.641   0.402 -0.5628 -2.9030  1.7215
  678SOL    HW2 2711   2.575   1.573   0.345 -4.3701 -0.4764 -1.5066
  678SOL     MW 2712   2.531   1.590   0.413 -0.1940 -0.0996 -0.5453
  679SOL     OW 2713   2.324   0.506   1.135 -0.1741 -0.1973  0.4978
  679SOL    HW1 2714   2.291   0.426   1.180 -1.5812  1.2734  2.0900
  679SOL    HW2 2715   2.257   0.575   1.153 -1.9511 -1.2619  0.8622
  679SOL     MW 2716   2.311   0.504   1.143 -0.5942 -0.1437  0.7560
  680SOL     OW 2717   2.397   0.263   1.428 -0.7936 -0.4109 -1.0022
  680SOL    HW1 2718   2.304   0.243   1.432  4.9143 -2.7028  2.2055
  680SOL    HW2 2719   2.437   0.229   1.345  2.0553  1.1801  0.0791
  680SOL     MW 2720   2.390   0.256   1.417  0.3353 -0.5033 -0.4363
  681SOL     OW 2721   0.324   0.581   1.559  0.3496  0.3711 -0.3289
  681SOL    HW1 2722   0.303   0.492   1.596  1.9457 -1.7040 -1.0787
  681SOL    HW2 2723   0.419   0.563   1.538  1.8998 -2.3186  0.6719
  681SOL     MW 2724   0.334   0.567   1.561  0.7647 -0.2575 -0.2958
  682SOL     OW 2725   0.120   2.952   1.480  0.0166 -0.6912 -0.2059
  682SOL    HW1 2726   0.148   3.037   1.451  2.0006  0.2634  2.0099
  682SOL    HW2 2727   0.067   2.959   1.562 -1.2869  3.5275 -1.7890
  682SOL     MW 2728   0.117   2.964   1.487  0.1064 -0.0087 -0.1224
  683SOL     OW 2729   2.076   0.840   3.025  0.4516  0.7766  0.1732
  683SOL    HW1 2730   1.991   0.822   2.979  0.5466 -0.0574  2.9413
  683SOL    HW2 2731   2.051   0.916   3.082 -2.4448  1.2740  2.6521
  683SOL     MW 2732   2.062   0.847   3.026  0.0820  0.7322  0.8655
  684SOL     OW 2733   2.196   1.755   0.908  0.2151  0.2651  0.0379
  684SOL    HW1 2734   2.106   1.738   0.910 -0.6907  2.8486 -0.0784
  684SOL    HW2 2735   2.242   1.683   0.953  2.0086 -0.7516 -1.3410
  684SOL     MW 2736   2.191   1.743   0.914  0.3322  0.4718 -0.1594
  685SOL     OW 2737   2.608   1.739   1.259  0.5258  0.4660 -0.1548
  685SOL    HW1 2738   2.688   1.727   1.309  0.7838 -2.1272  0.2582
  685SOL    HW2 2739   2.596   1.646   1.228  0.4960 -0.8662  0.0199
  685SOL     MW 2740   2.617   1.725   1.261  0.5559 -0.0519 -0.0773
  686SOL     OW 2741   2.864   0.699   1.461 -0.2086  0.2077 -0.0290
  686SOL    HW1 2742   2.868   0.634   1.536  0.5570 -1.3059 -2.3466
  686SOL    HW2 2743   2.956   0.710   1.447 -2.4232 -3.4503  1.1843
  686SOL     MW 2744   2.877   0.692   1.469 -0.3998 -0.4746 -0.1747
  687SOL     OW 2745   2.147   0.297   1.221  0.0535 -0.2266  0.0271
  687SOL    HW1 2746   2.158   0.235   1.144  3.3247 -1.2461  1.1574
  687SOL    HW2 2747   2.091   0.371   1.203 -1.5207 -0.7693 -1.6672
  687SOL     MW 2748   2.141   0.299   1.209  0.2774 -0.4327 -0.0473
  688SOL     OW 2749   2.374   0.608   1.472 -0.5567  0.1323  0.1945
  688SOL    HW1 2750   2.372   0.513   1.456 -0.2199 -0.2746 -1.0362
  688SOL    HW2 2751   2.309   0.627   1.535  1.8465  2.2798  2.1349
  688SOL     MW 2752   2.365   0.598   1.478 -0.1952  0.3619  0.2882
  689SOL     OW 2753   2.552   0.746   2.986 -0.0040 -0.1235  0.0642
  689SOL    HW1 2754   2.579   0.833   2.956  0.3357  0.2950  0.7055
  689SOL    HW2 2755   2.589   0.753   3.075 -1.6288 -1.8914 -2.0808
  689SOL     MW 2756   2.561   0.758   2.994 -0.1736 -0.3015 -0.1342
  690SOL     OW 2757   2.116   0.954   1.918  0.0224 -0.3363 -0.4924
  690SOL    HW1 2758   2.038   0.900   1.912 -0.5614  2.1521 -1.1598
  690SOL    HW2 2759   2.138   0.951   1.822 -0.0501  1.0921 -1.7137
  690SOL     MW 2760   2.109   0.946   1.904 -0.0642  0.1805 -0.7416
  691SOL     OW 2761   2.440   0.272   0.838 -0.0287  0.0502  0.1225
  691SOL    HW1 2762   2.520   0.321   0.881  0.1581  0.1865 -1.0922
  691SOL    HW2 2763   2.363   0.323   0.855 -3.1427  0.3281 -1.4697
  691SOL     MW 2764   2.440   0.285   0.846 -0.4149  0.1048 -0.2479
  692SOL     OW 2765   2.806   1.715   1.440  0.3017 -0.1412  0.7639
  692SOL    HW1 2766   2.823   1.672   1.516  1.3393 -0.9902 -0.5698
  692SOL    HW2 2767   2.801   1.810   1.468 -0.7295  4.2339  0.9550
  692SOL     MW 2768   2.807   1.722   1.454  0.3025  0.3240  0.6132
  693SOL     OW 2769   2.332   0.445   0.113  0.4061 -0.0564 -0.1283
  693SOL    HW1 2770   2.258   0.411   0.070 -2.4686 -1.8923  3.6032
  693SOL    HW2 2771   2.323   0.540   0.093 -1.2844 -1.9341  2.5916
  693SOL     MW 2772   2.321   0.453   0.104 -0.1962 -0.5464  0.7229
  694SOL     OW 2773   1.940   1.290   1.083 -0.2882  0.0491  0.0693
  694SOL    HW1 2774   2.010   1.238   1.121  0.3978  0.5674  1.5386
  694SOL    HW2 2775   1.868   1.231   1.094  0.4437  1.1245  0.7296
  694SOL     MW 2776   1.939   1.276   1.090 -0.1011  0.2594  0.3503
  695SOL     OW 2777   2.962   1.444   1.312  0.2997 -0.0895 -0.1511
  695SOL    HW1 2778   2.946   1.422   1.223  0.5231  1.1576  0.4461
  695SOL    HW2 2779   2.938   1.532   1.331  0.7982 -0.5299  0.7070
  695SOL     MW 2780   2.957   1.453   1.302  0.3950  0.0169  0.0409
  696SOL     OW 2781   2.107   1.390   0.890 -0.0791  0.0199  0.1042
  696SOL    HW1 2782   2.167   1.452   0.930 -0.5338  2.8703  1.1290
  696SOL    HW2 2783   2.053   1.360   0.966 -2.2820  0.7052  0.2711
  696SOL     MW 2784   2.108   1.395   0.905 -0.4298  0.4864  0.2615
  697SOL     OW 2785   2.929   1.093   2.158  0.6354  0.0623 -0.7683
  697SOL    HW1 2786   2.868   1.164   2.173 -0.1899  2.0056 -1.5344
  697SOL    HW2 2787   2.877   1.019   2.144 -1.8113  2.7445 -0.2512
  697SOL     MW 2788   2.914   1.093   2.159  0.2037  0.6726 -0.8012
  698SOL     OW 2789   2.557   0.286   0.030  0.4387 -0.2574 -0.2749
  698SOL    HW1 2790   2.476   0.328   0.050  4.0541 -0.6908  0.7181
  698SOL    HW2 2791   2.599   0.268   0.122 -1.3957  0.2954  0.5101
  698SOL     MW 2792   2.552   0.289   0.045  0.6737 -0.2416 -0.0403
  699SOL     OW 2793   1.851   1.648   2.060 -0.3329 -0.0750 -0.2446
  699SOL    HW1 2794   1.819   1.557   2.059  1.3683  0.2689  0.5705
  699SOL    HW2 2795   1.945   1.636   2.032 -0.8726 -0.9195 -0.4667
  699SOL     MW 2796   1.860   1.634   2.056 -0.1796 -0.1410 -0.1664
  700SOL     OW 2797   2.718   0.907   1.563  0.6827 -0.2695  0.5685
  700SOL    HW1 2798   2.725   0.980   1.499 -0.8709  0.1937  0.2772
  700SOL    HW2 2799   2.770   0.837   1.519 -2.3280  3.2534 -2.6473
  700SOL     MW 2800   2.726   0.907   1.549  0.0804  0.2564  0.1058
  701SOL     OW 2801   1.659   1.272   2.595  0.5194  0.4861 -0.2974
  701SOL    HW1 2802   1.734   1.325   2.578 -2.7040  1.2184 -0.0532
  701SOL    HW2 2803   1.617   1.319   2.669 -0.5353 -0.0350  0.2693
  701SOL     MW 2804   1.664   1.286   2.602 -0.0451  0.5140 -0.1904
  702SOL     OW 2805   2.201   0.407   0.824 -0.8384 -0.4052  0.5236
  702SOL    HW1 2806   2.188   0.348   0.751  0.1007 -1.0631 -0.5232
  702SOL    HW2 2807   2.264   0.472   0.784 -0.0900 -0.5429 -0.2426
  702SOL     MW 2808   2.208   0.408   0.809 -0.6157 -0.5102  0.2844
  703SOL     OW 2809   2.677   1.296   0.995 -0.2499 -0.2289  0.3246
  703SOL    HW1 2810   2.642   1.282   0.909 -3.6463  1.3935  0.7921
  703SOL    HW2 2811   2.705   1.214   1.044  1.0553 -2.2093  1.3300
  703SOL     MW 2812   2.676   1.283   0.990 -0.5258 -0.2762  0.5189
  704SOL     OW 2813   3.097   1.336   0.290 -0.2084 -0.0332 -0.0525
  704SOL    HW1 2814   3.027   1.293   0.235  0.6576 -2.5027  2.0711
  704SOL    HW2 2815   3.145   1.267   0.334 -2.1845 -3.3878  0.0006
  704SOL     MW 2816   3.094   1.321   0.289 -0.3549 -0.8016  0.2347
  705SOL     OW 2817   2.153   1.623   1.246  0.6207 -0.3464  0.1433
  705SOL    HW1 2818   2.050   1.647   1.257  0.2338 -2.7106 -2.0336
  705SOL    HW2 2819   2.161   1.554   1.307  1.3179  1.6074 -1.0920
  705SOL     MW 2820   2.141   1.618   1.255  0.6616 -0.4005 -0.3069
  706SOL     OW 2821   2.976   1.265   0.646 -0.5596  0.2096  1.0891
  706SOL    HW1 2822   3.064   1.256   0.622 -2.6547 -1.1649 -0.9572
  706SOL    HW2 2823   2.962   1.363   0.658  0.9065  1.8689  1.6476
  706SOL     MW 2824   2.986   1.277   0.645 -0.6426  0.2472  0.8928
  707SOL     OW 2825   2.381   0.049   0.977  0.2900 -0.1675 -0.0869
  707SOL    HW1 2826   2.424   0.112   0.911 -0.1015 -1.6235 -0.8303
  707SOL    HW2 2827   2.288   0.069   0.979  1.1732 -0.3722  1.5587
  707SOL     MW 2828   2.375   0.060   0.969  0.3549 -0.3866  0.0321
  708SOL     OW 2829   2.541   1.586   0.121  0.3372  0.1854 -0.1485
  708SOL    HW1 2830   2.588   1.502   0.145  0.1856 -0.0625  1.5345
  708SOL    HW2 2831   2.462   1.558   0.086 -1.2447 -0.1471  1.1975
  708SOL     MW 2832   2.537   1.571   0.120  0.1085  0.1088  0.2512
  709SOL     OW 2833   1.701   1.750   0.120  0.6113 -0.2584  0.5718
  709SOL    HW1 2834   1.636   1.810   0.081 -1.2855  0.5247 -3.4603
  709SOL    HW2 2835   1.652   1.707   0.188  2.6262  1.0163 -0.5102
  709SOL     MW 2836   1.686   1.752   0.124  0.6269  0.0131 -0.1029
  710SOL     OW 2837   2.153   1.150   1.188 -0.5372 -0.3008  0.0286
  710SOL    HW1 2838   2.211   1.132   1.109  0.5337  0.4845 -0.2334
  710SOL    HW2 2839   2.176   1.073   1.246 -4.8076 -0.9825  0.7264
  710SOL     MW 2840   2.163   1.137   1.185 -0.9593 -0.2871  0.0861
  711SOL     OW 2841   2.326   0.119   1.727 -0.0398 -0.2102  0.2450
  711SOL    HW1 2842   2.419   0.117   1.765 -4.0130 -0.4692  0.1740
  711SOL    HW2 2843   2.320   0.097   1.635  0.7131  1.8496  1.5562
  711SOL     MW 2844   2.338   0.115   1.720 -0.4647  0.0274  0.4086
  712SOL     OW 2845   1.720   0.614   3.080  1.2173  0.0187  0.2130
  712SOL    HW1 2846   1.753   0.684   3.023 -1.5966 -0.5620 -1.4850
  712SOL    HW2 2847   1.737   0.644   3.163  2.3221 -0.9694 -3.2600
  712SOL     MW 2848   1.727   0.627   3.083  0.9918 -0.1883 -0.4692
  713SOL     OW 2849   2.584   0.787   1.096  0.1994  0.2997 -0.2670
  713SOL    HW1 2850   2.594   0.688   1.119 -0.1914 -1.2819  2.6882
  713SOL    HW2 2851   2.555   0.823   1.180 -0.4408 -1.5914 -2.0023
  713SOL     MW 2852   2.581   0.779   1.110  0.0633 -0.1585 -0.1061
  714SOL     OW 2853   2.173   0.197   1.951 -0.7835  0.6733  0.1128
  714SOL    HW1 2854   2.247   0.177   2.009 -1.4082 -0.2997 -0.3569
  714SOL    HW2 2855   2.215   0.167   1.864  1.0925  0.8775 -0.6051
  714SOL     MW 2856   2.188   0.190   1.947 -0.6184  0.5718 -0.0439
  715SOL     OW 2857   1.757   1.906   1.702  0.7106 -0.3086  0.1806
  715SOL    HW1 2858   1.836   1.856   1.671 -1.4576  2.7984 -1.7574
  715SOL    HW2 2859   1.710   1.840   1.754  1.9474 -1.3465  1.0407
  715SOL     MW 2860   1.761   1.891   1.705  0.5877 -0.0356  0.0384
  716SOL     OW 2861   2.374   0.576   0.718  0.2327 -0.1720  0.4075
  716SOL    HW1 2862   2.418   0.508   0.662  0.0031  0.6327  2.2430
  716SOL    HW2 2863   2.318   0.630   0.661  1.7100 -1.5496 -3.1932
  716SOL     MW 2864   2.373   0.574   0.703  0.3973 -0.2476  0.1746
  717SOL     OW 2865   2.868   1.459   2.917  0.1185  0.3336 -0.6251
  717SOL    HW1 2866   2.958   1.474   2.945 -1.6132  0.0024 -0.7710
  717SOL    HW2 2867   2.825   1.512   2.982 -1.0981 -0.5789 -0.3712
  717SOL     MW 2868   2.874   1.468   2.929 -0.2705  0.1695 -0.6108
  718SOL     OW 2869   2.529   1.323   1.397  0.1929 -0.0933 -0.1222
  718SOL    HW1 2870   2.529   1.388   1.472 -0.6889  0.9408 -2.0707
  718SOL    HW2 2871   2.590   1.256   1.421  1.8100  1.6007  0.1298
  718SOL     MW 2872   2.537   1.322   1.410  0.2899  0.2667 -0.3460
  719SOL     OW 2873   2.172   1.370   0.626 -0.0643 -0.7180 -0.9758
  719SOL    HW1 2874   2.268   1.387   0.607  2.6535 -3.0251  1.2258
  719SOL    HW2 2875   2.166   1.360   0.721  0.9638 -2.6874 -1.6134
  719SOL     MW 2876   2.184   1.371   0.636  0.4300 -1.2823 -0.7694
  720SOL     OW 2877   2.890   1.192   0.124  0.0692  0.0432  0.1594
  720SOL    HW1 2878   2.874   1.109   0.164  0.0678 -1.1533 -0.7964
  720SOL    HW2 2879   2.831   1.258   0.157 -4.0839 -1.8284 -0.6278
  720SOL     MW 2880   2.880   1.190   0.133 -0.4790 -0.3616 -0.0706
  721SOL     OW 2881   2.520   0.836   1.367 -0.2404  0.2032 -0.4816
  721SOL    HW1 2882   2.490   0.744   1.388 -0.6379 -3.2821 -1.9621
  721SOL    HW2 2883   2.593   0.855   1.435  2.9377  2.8202 -1.2285
  721SOL     MW 2884   2.526   0.826   1.379  0.1265  0.0886 -0.7755
  722SOL     OW 2885   2.540   1.213   0.392 -0.0906  0.1829  0.0086
  722SOL    HW1 2886   2.500   1.263   0.470 -4.4567  1.1948  0.9147
  722SOL    HW2 2887   2.616   1.162   0.422 -0.1620  1.4704 -2.5420
  722SOL     MW 2888   2.545   1.213   0.407 -0.6761  0.4863 -0.2084
  723SOL     OW 2889   2.246   1.389   1.633 -0.7281 -0.6198  0.1056
  723SOL    HW1 2890   2.236   1.369   1.539 -1.0218 -0.1151  1.4380
  723SOL    HW2 2891   2.165   1.426   1.664  1.0934  1.2830 -2.4367
  723SOL     MW 2892   2.234   1.391   1.624 -0.5265 -0.3021 -0.0541
  724SOL     OW 2893   2.479   0.370   0.562  0.3597 -0.3524 -0.4294
  724SOL    HW1 2894   2.481   0.311   0.633 -0.8020  0.8753 -2.6777
  724SOL    HW2 2895   2.563   0.374   0.517  0.3149  2.6437  1.8729
  724SOL     MW 2896   2.490   0.363   0.565  0.2005  0.2049 -0.4223
  725SOL     OW 2897   2.580   0.534   1.144  0.2497  0.1712  0.1157
  725SOL    HW1 2898   2.621   0.529   1.238 -0.4293 -1.9335  4.6965
  725SOL    HW2 2899   2.484   0.520   1.155  0.3226  2.0453 -0.3810
  725SOL     MW 2900   2.573   0.532   1.158  0.1697  0.1408  0.6546
  726SOL     OW 2901   2.559   2.431   0.514 -0.2256 -0.2242  0.9349
  726SOL    HW1 2902   2.501   2.483   0.461 -0.2410  1.3938 -0.8686
  726SOL    HW2 2903   2.514   2.399   0.598  1.5328 -0.1089 -0.0869
  726SOL     MW 2904   2.546   2.434   0.518  0.0044  0.0045  0.5622
  727SOL     OW 2905   2.853   0.285   1.609  0.8594  0.0942 -0.0974
  727SOL    HW1 2906   2.882   0.290   1.511 -0.9770 -2.0783 -3.3202
  727SOL    HW2 2907   2.761   0.311   1.604  1.6208  0.1173 -1.1333
  727SOL     MW 2908   2.845   0.289   1.595  0.7175 -0.1894 -0.6593
  728SOL     OW 2909   2.821   1.161   2.960  0.3666 -0.3631  0.4558
  728SOL    HW1 2910   2.857   1.248   2.934 -2.4614 -2.1123 -2.9314
  728SOL    HW2 2911   2.810   1.176   3.056  0.6636 -0.0566 -0.2336
  728SOL     MW 2912   2.824   1.175   2.969  0.0326 -0.5535 -0.0820
  729SOL     OW 2913   2.540   1.473   1.160  0.4413 -0.1052 -0.0177
  729SOL    HW1 2914   2.547   1.423   1.245 -0.7923  0.7306 -2.9634
  729SOL    HW2 2915   2.577   1.408   1.098  3.6217 -0.1427  1.4723
  729SOL     MW 2916   2.546   1.458   1.163  0.6981  0.0001 -0.2098
  730SOL     OW 2917   2.123   1.120   0.291 -0.3739 -0.0121 -0.2486
  730SOL    HW1 2918   2.208   1.114   0.241  1.1180  0.4578  2.0865
  730SOL    HW2 2919   2.101   1.214   0.289 -0.8955  2.3021 -0.6541
  730SOL     MW 2920   2.131   1.131   0.284 -0.2459  0.3553  0.0060
  731SOL     OW 2921   2.799   1.857   2.904  0.2852  0.0121 -0.1031
  731SOL    HW1 2922   2.722   1.896   2.865  0.6762  2.4145  0.6552
  731SOL    HW2 2923   2.865   1.929   2.908  2.8818 -1.9952  0.6176
  731SOL     MW 2924   2.798   1.872   2.899  0.6794  0.0642  0.0921
  732SOL     OW 2925   2.264   0.929   1.346 -0.1434  0.1923  0.2117
  732SOL    HW1 2926   2.196   0.918   1.410 -1.1949 -0.4562 -1.6816
  732SOL    HW2 2927   2.358   0.928   1.369  1.7445  2.4270  0.7608
  732SOL     MW 2928   2.267   0.927   1.358 -0.0330  0.4016  0.0343
  733SOL     OW 2929   2.355   2.831   3.078 -0.1658  0.0418  0.1729
  733SOL    HW1 2930   2.278   2.879   3.049 -0.8349 -1.3059  0.6793
  733SOL    HW2 2931   2.338   2.735   3.067  0.0367 -0.8785 -0.6842
  733SOL     MW 2932   2.343   2.824   3.073 -0.2274 -0.2574  0.1266
  734SOL     OW 2933   1.500   0.384   2.450 -0.1631 -0.0554 -0.1986
  734SOL    HW1 2934   1.486   0.341   2.534  0.7394  0.2327  1.1473
  734SOL    HW2 2935   1.519   0.318   2.386 -0.0172  2.5936  2.0021
  734SOL     MW 2936   1.500   0.370   2.452 -0.0248  0.3321  0.2693
  735SOL     OW 2937   3.040   0.989   2.642 -0.7591  0.3227 -0.4249
  735SOL    HW1 2938   3.027   0.892   2.645 -0.3791 -0.5653  0.5728
  735SOL    HW2 2939   3.019   1.010   2.733  4.4257 -1.4618  0.5967
  735SOL     MW 2940   3.035   0.979   2.655 -0.0249 -0.0299 -0.1584
  736SOL     OW 2941   0.069   0.597   2.541  0.2622  0.0215  0.9845
  736SOL    HW1 2942   0.119   0.641   2.469  0.6545  0.2382  0.4740
  736SOL    HW2 2943   0.056   0.504   2.509  1.5570  0.1570 -0.7594
  736SOL     MW 2944   0.074   0.591   2.527  0.4848  0.0680  0.6870
  737SOL     OW 2945   2.920   0.706   2.616 -0.2217 -0.2622 -0.1157
  737SOL    HW1 2946   2.847   0.671   2.563 -0.8952  0.6879 -0.7358
  737SOL    HW2 2947   3.003   0.677   2.577 -2.2382 -0.4810  0.6313
  737SOL     MW 2948   2.922   0.697   2.604 -0.5766 -0.1657 -0.0990
  738SOL     OW 2949   0.165   0.531   1.989 -0.1341  0.3432 -0.1497
  738SOL    HW1 2950   0.235   0.582   1.952  0.1200  1.8509  2.7180
  738SOL    HW2 2951   0.168   0.445   1.942 -2.2919 -1.0197 -0.6945
  738SOL     MW 2952   0.175   0.527   1.978 -0.3853  0.3623  0.1568
  739SOL     OW 2953   2.545   0.948   2.162 -0.3906 -0.1067 -0.2754
  739SOL    HW1 2954   2.449   0.924   2.162  0.4962 -2.8531 -1.3849
  739SOL    HW2 2955   2.551   0.983   2.075 -2.4893 -0.3715 -0.1905
  739SOL     MW 2956   2.533   0.949   2.150 -0.5505 -0.5040 -0.4106
  740SOL     OW 2957   0.157   1.767   2.964 -0.6381  0.4112  0.0222
  740SOL    HW1 2958   0.105   1.688   2.952 -2.2113  0.9759 -2.6001
  740SOL    HW2 2959   0.245   1.745   3.005 -2.7172  1.0440  2.4750
  740SOL     MW 2960   0.162   1.754   2.968 -1.1200  0.5692 -0.0001
  741SOL     OW 2961   2.210   1.197   2.708  0.2942  0.2139 -0.3484
  741SOL    HW1 2962   2.187   1.277   2.654 -0.1043 -0.1081  0.0313
  741SOL    HW2 2963   2.182   1.235   2.793  1.4606  1.0932 -1.7402
  741SOL     MW 2964   2.203   1.213   2.712  0.3955  0.2874 -0.4819
  742SOL     OW 2965   1.656   1.357   2.280 -0.0480  0.3355 -0.2683
  742SOL    HW1 2966   1.628   1.265   2.287  0.4296  1.1677  0.5979
  742SOL    HW2 2967   1.627   1.398   2.362 -0.7306  1.3082  2.3353
  742SOL     MW 2968   1.648   1.350   2.292 -0.0751  0.5736  0.1895
  743SOL     OW 2969   2.503   1.232   2.689 -0.3240 -0.0475  0.0902
  743SOL    HW1 2970   2.408   1.240   2.701  1.3000 -1.3754  1.7131
  743SOL    HW2 2971   2.548   1.155   2.737  0.4740 -1.2632 -0.7531
  743SOL     MW 2972   2.497   1.223   2.697 -0.0044 -0.3831  0.1931
  744SOL     OW 2973   2.796   0.977   1.835 -0.1410  0.9009 -0.0812
  744SOL    HW1 2974   2.720   1.031   1.863 -1.8019  0.4830 -0.9945
  744SOL    HW2 2975   2.756   0.930   1.764 -0.0016 -0.7169 -0.2791
  744SOL     MW 2976   2.781   0.978   1.830 -0.3417  0.6323 -0.2278
  745SOL     OW 2977   1.767   0.430   2.474  0.2212 -0.1225 -0.5297
  745SOL    HW1 2978   1.792   0.425   2.381  2.8979 -0.3177  0.2239
  745SOL    HW2 2979   1.675   0.414   2.464 -0.9232  2.1029 -1.9511
  745SOL     MW 2980   1.758   0.427   2.460  0.4234  0.1454 -0.6178
  746SOL     OW 2981   1.514   1.466   1.690 -0.1521  0.1609  0.2617
  746SOL    HW1 2982   1.539   1.556   1.704 -1.1543  1.3807 -0.6288
  746SOL    HW2 2983   1.527   1.414   1.766 -2.0383  2.1899 -1.0819
  746SOL     MW 2984   1.519   1.471   1.702 -0.5332  0.5896 -0.0331
  747SOL     OW 2985   2.563   1.098   1.921  0.4762  0.6878  0.0981
  747SOL    HW1 2986   2.477   1.078   1.873  0.1094  0.8479 -2.5057
  747SOL    HW2 2987   2.553   1.190   1.944 -0.5857 -1.7402  2.5486
  747SOL     MW 2988   2.550   1.107   1.917  0.2877  0.3886  0.0778
  748SOL     OW 2989   0.094   3.068   1.917 -0.5610 -0.4733 -0.2965
  748SOL    HW1 2990   0.187   3.090   1.921 -0.7268 -1.9019 -1.8927
  748SOL    HW2 2991   0.059   3.128   1.977 -0.2629  1.2081 -2.5051
  748SOL     MW 2992   0.102   3.079   1.925 -0.5436 -0.4400 -0.7985
  749SOL     OW 2993   2.408   0.614   2.775  0.8030 -0.2441 -0.1260
  749SOL    HW1 2994   2.455   0.671   2.710  0.5293  0.8920  0.4516
  749SOL    HW2 2995   2.458   0.629   2.857  3.1186  0.5637  2.7310
  749SOL     MW 2996   2.421   0.623   2.777  1.0724  0.0124  0.3272
  750SOL     OW 2997   2.080   3.040   1.938 -0.3163  0.5668 -0.0472
  750SOL    HW1 2998   2.105   3.133   1.951 -1.9298 -2.7776 -0.1763
  750SOL    HW2 2999   2.153   2.994   1.962 -1.5525  2.6280  0.4963
  750SOL     MW 3000   2.093   3.046   1.943 -0.6923  0.3975  0.0075
  751SOL     OW 3001   3.075   0.362   2.380  0.2688  0.4505 -0.2790
  751SOL    HW1 3002   2.996   0.397   2.340  1.5385  0.5852  0.4991
  751SOL    HW2 3003   3.139   0.355   2.310  1.3067  1.0506 -1.9604
  751SOL     MW 3004   3.073   0.366   2.366  0.5733  0.5474 -0.3982
  752SOL     OW 3005   2.160   0.893   2.773 -0.4171  0.0189  0.7548
  752SOL    HW1 3006   2.240   0.932   2.801 -1.4857  0.0897 -1.4420
  752SOL    HW2 3007   2.111   0.874   2.854  0.2003  0.6236 -0.1996
  752SOL     MW 3008   2.164   0.896   2.787 -0.4766  0.1080  0.3390
  753SOL     OW 3009   2.821   0.422   2.305 -0.0267  0.5545  0.5028
  753SOL    HW1 3010   2.771   0.346   2.330 -0.4328  1.4741  0.8523
  753SOL    HW2 3011   2.768   0.499   2.327 -0.9790  3.1352 -0.9137
  753SOL     MW 3012   2.807   0.422   2.311 -0.2059  1.0163  0.3620
  754SOL     OW 3013   2.300   2.967   2.645 -0.5163  0.3980 -0.4352
  754SOL    HW1 3014   2.308   2.942   2.550  1.2776  1.3257 -2.0570
  754SOL    HW2 3015   2.369   2.919   2.690  1.3414  0.5744 -1.2962
  754SOL     MW 3016   2.310   2.958   2.638 -0.0345  0.5437 -0.7628
  755SOL     OW 3017   2.794   1.587   2.488  0.0104 -0.1821 -0.0976
  755SOL    HW1 3018   2.764   1.501   2.521  0.6139 -0.2294  0.1218
  755SOL    HW2 3019   2.827   1.627   2.571  2.1274  1.9070 -0.2258
  755SOL     MW 3020   2.794   1.581   2.503  0.3694  0.0873 -0.0855
  756SOL     OW 3021   2.218   1.266   3.001  0.5432 -0.0459 -0.2284
  756SOL    HW1 3022   2.302   1.328   2.988  3.4659  0.5013 -2.4550
  756SOL    HW2 3023   2.255   1.177   3.011  0.3434 -0.1535  2.3619
  756SOL     MW 3024   2.234   1.262   3.001  0.9025  0.0121 -0.1804
  757SOL     OW 3025   2.193   0.963   1.654  0.5406 -0.2715 -0.0107
  757SOL    HW1 3026   2.214   0.868   1.652 -2.1026 -2.7953 -1.4630
  757SOL    HW2 3027   2.111   0.975   1.601 -1.9174  1.4193 -1.2143
  757SOL     MW 3028   2.185   0.952   1.647 -0.1324 -0.3814 -0.3611
  758SOL     OW 3029   2.244   1.832   2.628  0.5118 -0.3041 -0.2755
  758SOL    HW1 3030   2.243   1.832   2.527  1.3987 -0.5123 -0.6076
  758SOL    HW2 3031   2.323   1.785   2.650  0.2945 -0.0071 -1.4911
  758SOL     MW 3032   2.254   1.825   2.617  0.6002 -0.2924 -0.4797
  759SOL     OW 3033   1.532   1.437   2.776 -0.1253 -0.5142 -0.5795
  759SOL    HW1 3034   1.519   1.516   2.733  2.8104 -1.2519  0.7646
  759SOL    HW2 3035   1.610   1.451   2.839  3.1328 -1.9688 -0.8680
  759SOL     MW 3036   1.541   1.449   2.779  0.6919 -0.8034 -0.4402
  760SOL     OW 3037   2.638   1.974   2.717  0.2984  0.4131 -0.9225
  760SOL    HW1 3038   2.592   1.891   2.694 -1.2043  3.0025 -0.1581
  760SOL    HW2 3039   2.717   1.951   2.666  0.5665 -4.0672  3.8428
  760SOL     MW 3040   2.642   1.960   2.707  0.1355  0.1636 -0.1929
  761SOL     OW 3041   2.195   0.446   2.456 -0.5755 -0.0814  0.0494
  761SOL    HW1 3042   2.109   0.408   2.459 -2.6816  0.2095 -2.2929
  761SOL    HW2 3043   2.196   0.515   2.518  2.1653  1.0569  0.7741
  761SOL     MW 3044   2.184   0.450   2.464 -0.4918  0.1071 -0.1640
  762SOL     OW 3045   0.028   0.157   2.100  0.1859  0.3307 -0.3698
  762SOL    HW1 3046   0.020   0.100   2.178 -2.8943  2.0499  1.6823
  762SOL    HW2 3047  -0.046   0.218   2.098  1.3941  0.9700 -0.3102
  762SOL     MW 3048   0.017   0.157   2.110 -0.0611  0.6419 -0.0912
  763SOL     OW 3049   2.443   1.147   2.338 -0.4788  0.5434  0.6065
  763SOL    HW1 3050   2.493   1.108   2.268  0.8926 -0.5341  0.7701
  763SOL    HW2 3051   2.505   1.193   2.388 -2.1669  0.1317  0.2659
  763SOL     MW 3052   2.458   1.148   2.336 -0.5206  0.3469  0.5832
  764SOL     OW 3053   0.354   0.172   2.778 -0.8130  0.3205 -0.4063
  764SOL    HW1 3054   0.270   0.177   2.731 -0.6497  0.2763  2.0045
  764SOL    HW2 3055   0.352   0.240   2.848 -0.6075 -2.8546  0.4395
  764SOL     MW 3056   0.342   0.182   2.781 -0.7643 -0.1042  0.0234
  765SOL     OW 3057   2.721   0.157   2.334  0.5004  0.1609  0.7249
  765SOL    HW1 3058   2.686   0.139   2.247  2.1652 -0.1939 -0.9776
  765SOL    HW2 3059   2.777   0.080   2.350  3.2142  1.8563 -0.3648
  765SOL     MW 3060   2.724   0.145   2.324  1.0781  0.3378  0.3565
  766SOL     OW 3061   1.852   3.021   2.114 -0.2404 -0.3409 -0.0574
  766SOL    HW1 3062   1.917   3.035   2.047 -0.6888 -1.6875 -1.4589
  766SOL    HW2 3063   1.811   2.937   2.088  0.1227 -1.0362 -0.4716
  766SOL     MW 3064   1.855   3.012   2.102 -0.2517 -0.6103 -0.2970
  767SOL     OW 3065   2.680   0.621   1.946  0.4777 -0.3010  0.2422
  767SOL    HW1 3066   2.735   0.670   2.005  3.2689 -1.6037 -2.3279
  767SOL    HW2 3067   2.600   0.674   1.929 -0.9352 -1.0737  1.8356
  767SOL     MW 3068   2.677   0.634   1.952  0.6595 -0.5748  0.1133
  768SOL     OW 3069   0.027   1.448   2.979  0.2303 -0.0393 -0.2667
  768SOL    HW1 3070   0.057   1.468   3.069  0.3182  0.1080 -1.6516
  768SOL    HW2 3071   0.052   1.354   2.957  1.8828  1.2058 -1.1470
  768SOL     MW 3072   0.034   1.438   2.988  0.4599  0.1444 -0.5655
  769SOL     OW 3073   2.376   0.675   2.444  0.3912 -0.4122 -0.3430
  769SOL    HW1 3074   2.359   0.584   2.444  2.3655 -2.6944  1.9089
  769SOL    HW2 3075   2.397   0.684   2.354  1.6812  0.2599  1.0632
  769SOL     MW 3076   2.376   0.664   2.432  0.8219 -0.6247  0.1396
  770SOL     OW 3077   0.058   1.607   2.646  0.1472 -0.1807 -0.0336
  770SOL    HW1 3078  -0.027   1.616   2.687 -1.3282  1.9708  0.0445
  770SOL    HW2 3079   0.073   1.511   2.655 -1.1900  0.9351  2.6543
  770SOL     MW 3080   0.049   1.595   2.652 -0.2239  0.2504  0.3314
  771SOL     OW 3081   2.996   0.562   1.955 -0.5174 -0.1381  0.3212
  771SOL    HW1 3082   2.966   0.560   1.868  2.6573 -1.2101 -0.0830
  771SOL    HW2 3083   3.089   0.557   1.963  1.1565  1.6235  0.5890
  771SOL     MW 3084   3.004   0.561   1.944  0.1224 -0.0471  0.3032
  772SOL     OW 3085   0.013   3.092   2.313 -0.2754 -0.6168  0.2469
  772SOL    HW1 3086  -0.063   3.064   2.364  1.3780  0.8178  1.3290
  772SOL    HW2 3087   0.044   3.010   2.273  0.7075 -0.3683 -0.3859
  772SOL     MW 3088   0.007   3.078   2.315  0.0724 -0.3947  0.3062
  773SOL     OW 3089   2.481   2.851   2.813 -0.1040 -0.0430 -0.3687
  773SOL    HW1 3090   2.474   2.756   2.786  1.3375 -3.5482  0.6915
  773SOL    HW2 3091   2.440   2.853   2.902  0.2502 -1.7208  2.2445
  773SOL     MW 3092   2.475   2.838   2.821  0.1329 -0.7268  0.1160
  774SOL     OW 3093   2.299   1.191   1.830 -0.5192 -0.2311 -0.2353
  774SOL    HW1 3094   2.271   1.245   1.753 -2.6743  0.7339  1.3959
  774SOL    HW2 3095   2.250   1.111   1.825  0.2259 -4.2464  1.6104
  774SOL     MW 3096   2.289   1.188   1.819 -0.7052 -0.6336  0.2234
  775SOL     OW 3097   2.280   2.951   2.336  0.2421  0.2317  0.0270
  775SOL    HW1 3098   2.293   3.026   2.279  1.0652 -0.1161 -1.4461
  775SOL    HW2 3099   2.332   2.881   2.295  0.2326  1.8938  1.3021
  775SOL     MW 3100   2.289   2.952   2.323  0.3494  0.4051  0.0009
  776SOL     OW 3101   0.110   1.536   0.118 -0.3353 -0.1634  0.2681
  776SOL    HW1 3102   0.202   1.502   0.119  2.1131  0.4233 -2.6785
  776SOL    HW2 3103   0.072   1.488   0.192 -0.6754 -0.4365 -1.7468
  776SOL     MW 3104   0.117   1.525   0.128 -0.0571 -0.1220 -0.3865
  777SOL     OW 3105   2.997   1.116   1.736  0.7370  0.2431 -0.1371
  777SOL    HW1 3106   2.939   1.137   1.664  2.2708  1.6969  0.3069
  777SOL    HW2 3107   2.928   1.070   1.783 -0.5081 -1.6638 -1.7809
  777SOL     MW 3108   2.980   1.113   1.733  0.7751  0.1833 -0.2954
  778SOL     OW 3109   2.801   0.422   2.720 -0.4045  0.0328 -0.6351
  778SOL    HW1 3110   2.762   0.460   2.802  0.2367 -2.3617 -2.6315
  778SOL    HW2 3111   2.862   0.488   2.687  1.1298  0.3081  0.7054
  778SOL     MW 3112   2.803   0.436   2.726 -0.1175 -0.2468 -0.7216
  779SOL     OW 3113   2.233   0.560   2.157  0.1530  0.6176  0.3871
  779SOL    HW1 3114   2.151   0.581   2.200 -0.3219 -2.6100 -1.1018
  779SOL    HW2 3115   2.255   0.475   2.204 -0.4497 -0.2472  2.7923
  779SOL     MW 3116   2.225   0.551   2.169  0.0108  0.0776  0.5080
  780SOL     OW 3117   0.114   0.295   2.678  0.6195  0.4744  0.3057
  780SOL    HW1 3118   0.025   0.273   2.659  0.1454 -0.3476 -0.5085
  780SOL    HW2 3119   0.108   0.308   2.769 -2.8220  1.8163 -2.8083
  780SOL     MW 3120   0.101   0.294   2.688  0.1028  0.5430 -0.2126
  781SOL     OW 3121   3.034   1.315   2.463  0.3333  0.2914 -0.3530
  781SOL    HW1 3122   3.039   1.392   2.404 -0.1489  1.3136  1.1420
  781SOL    HW2 3123   3.064   1.241   2.416 -0.0910  1.4499 -1.4456
  781SOL     MW 3124   3.039   1.315   2.449  0.2137  0.5791 -0.2999
  782SOL     OW 3125   0.611   1.559   0.055  0.4623  0.6842 -0.3619
  782SOL    HW1 3126   0.515   1.574   0.016  1.7567 -2.8478 -0.3699
  782SOL    HW2 3127   0.639   1.647   0.080 -1.6341  2.8973  0.0187
  782SOL     MW 3128   0.602   1.573   0.053  0.3565  0.5102 -0.3127
  783SOL     OW 3129   2.709   0.623   2.439  0.2577 -0.0578  0.3943
  783SOL    HW1 3130   2.658   0.656   2.363  2.2775  1.8759  1.8128
  783SOL    HW2 3131   2.653   0.562   2.491 -0.5618 -1.2152  0.7126
  783SOL     MW 3132   2.695   0.620   2.436  0.4161  0.0447  0.6234
  784SOL     OW 3133   0.180   0.861   2.874 -0.7690  0.1615  0.0718
  784SOL    HW1 3134   0.090   0.901   2.887  0.0260  0.0049 -1.8481
  784SOL    HW2 3135   0.211   0.898   2.787 -0.5299 -0.9635 -0.7254
  784SOL     MW 3136   0.172   0.871   2.864 -0.6326 -0.0076 -0.2867
  785SOL     OW 3137   0.438   0.445   2.195  0.1486  0.7038 -0.7498
  785SOL    HW1 3138   0.417   0.482   2.107  0.0099 -2.8540 -1.1794
  785SOL    HW2 3139   0.367   0.390   2.225 -0.6424  1.3100 -2.4866
  785SOL     MW 3140   0.426   0.443   2.187  0.0260  0.3144 -1.0356
  786SOL     OW 3141   1.902   0.396   2.968 -0.1294 -0.4698 -0.3140
  786SOL    HW1 3142   1.877   0.464   3.023  0.8745  0.5457 -1.0227
  786SOL    HW2 3143   1.937   0.431   2.888  0.9932 -1.1473  0.9136
  786SOL     MW 3144   1.903   0.410   2.965  0.1511 -0.4252 -0.2455
  787SOL     OW 3145   2.471   0.094   2.940 -0.0772 -0.1299 -0.5145
  787SOL    HW1 3146   2.526   0.019   2.901  1.4952 -1.5182 -2.3294
  787SOL    HW2 3147   2.530   0.152   2.992  1.1348 -2.4638  2.1590
  787SOL     MW 3148   2.486   0.091   2.942  0.2901 -0.6210 -0.4012
  788SOL     OW 3149   2.856   3.046   2.423  0.3233  0.3099  0.1197
  788SOL    HW1 3150   2.869   3.027   2.516  0.8490  3.4958  1.5384
  788SOL    HW2 3151   2.865   2.963   2.372 -0.0799 -2.1548  0.0929
  788SOL     MW 3152   2.859   3.032   2.429  0.3394  0.4050  0.3033
  789SOL     OW 3153   0.089   0.189   3.035 -0.2423  0.1274 -0.2912
  789SOL    HW1 3154   0.041   0.116   3.076 -2.2501  0.4006  2.7540
  789SOL    HW2 3155   0.026   0.261   3.010  1.0201  1.2643 -0.8046
  789SOL     MW 3156   0.074   0.189   3.037 -0.3406  0.3134  0.0429
  790SOL     OW 3157   3.101   1.042   2.367 -0.2643 -0.3138 -0.2770
  790SOL    HW1 3158   3.065   1.009   2.451 -0.3860  0.1835 -0.2662
  790SOL    HW2 3159   3.034   1.039   2.298 -2.3752 -0.9874 -2.8023
  790SOL     MW 3160   3.088   1.037   2.369 -0.5588 -0.3371 -0.6088
  791SOL     OW 3161   2.543   0.451   2.583  0.3813 -0.4227 -0.3313
  791SOL    HW1 3162   2.480   0.452   2.665 -0.7042 -0.8189  3.8278
  791SOL    HW2 3163   2.623   0.412   2.621  3.3617 -0.1719 -2.6519
  791SOL     MW 3164   2.546   0.446   2.599  0.6313 -0.4419 -0.0888
  792SOL     OW 3165   2.330   0.213   2.425 -0.0207 -0.2189 -0.0381
  792SOL    HW1 3166   2.301   0.305   2.447 -0.7559  1.4204  1.1047
  792SOL    HW2 3167   2.330   0.180   2.515  0.6830 -0.5339  0.4967
  792SOL     MW 3168   2.326   0.221   2.440 -0.0249 -0.0441  0.1832
  793SOL     OW 3169   1.906   1.145   1.989  0.5902  1.0304  0.0237
  793SOL    HW1 3170   1.891   1.137   1.891 -1.0107  2.1782 -1.4891
  793SOL    HW2 3171   1.981   1.091   2.023  1.2065  0.0660  0.2152
  793SOL     MW 3172   1.914   1.137   1.981  0.4603  1.0546 -0.1506
  794SOL     OW 3173   1.405   2.357   0.129  0.0806  0.4909 -0.0075
  794SOL    HW1 3174   1.429   2.443   0.092  2.8849  2.5936 -2.9450
  794SOL    HW2 3175   1.466   2.342   0.200 -0.4789  0.8897  0.4960
  794SOL     MW 3176   1.416   2.366   0.133  0.3768  0.8210 -0.3287
  795SOL     OW 3177   2.306   1.002   2.557  0.2237  0.0584  0.1672
  795SOL    HW1 3178   2.274   1.075   2.616 -0.7400  0.6891  0.4334
  795SOL    HW2 3179   2.344   1.041   2.478  1.5237  2.6772  0.3875
  795SOL     MW 3180   2.307   1.017   2.554  0.2681  0.4872  0.2314
  796SOL     OW 3181   0.254   0.624   2.752 -0.2235 -0.0941 -0.2999
  796SOL    HW1 3182   0.239   0.702   2.803 -0.1796  0.7843 -0.1261
  796SOL    HW2 3183   0.170   0.608   2.705 -0.0167 -1.7703  0.0000
  796SOL     MW 3184   0.241   0.632   2.752 -0.1904 -0.1994 -0.2374
  797SOL     OW 3185   2.613   0.135   2.573  0.0985  0.1624  0.0855
  797SOL    HW1 3186   2.535   0.189   2.559  3.0181 -3.3236  2.1065
  797SOL    HW2 3187   2.660   0.142   2.484 -2.8628  0.0378 -1.9576
  797SOL     MW 3188   2.609   0.143   2.559  0.0930 -0.3140  0.0826
  798SOL     OW 3189   2.354   0.098   2.155  0.0853 -0.1736 -0.5197
  798SOL    HW1 3190   2.361   0.137   2.246 -2.6299 -2.1589 -1.3331
  798SOL    HW2 3191   2.446   0.094   2.132 -0.5574 -1.1147 -1.2017
  798SOL     MW 3192   2.367   0.102   2.164 -0.3578 -0.5597 -0.7170
  799SOL     OW 3193   2.555   2.961   0.124  0.0467 -0.5573 -0.4520
  799SOL    HW1 3194   2.473   2.955   0.082  1.2262  0.8881  0.2465
  799SOL    HW2 3195   2.544   2.954   0.221  0.5815  1.0107  0.3644
  799SOL     MW 3196   2.543   2.959   0.131  0.2729 -0.1597 -0.2521
  800SOL     OW 3197   1.932   0.058   1.739 -0.1501 -0.2165 -0.2809
  800SOL    HW1 3198   1.870  -0.004   1.697  1.0456 -0.4102 -0.7696
  800SOL    HW2 3199   1.975   0.004   1.805  3.1595 -3.2556 -3.1379
  800SOL     MW 3200   1.929   0.042   1.743  0.4443 -0.6431 -0.7223
  801SOL     OW 3201   2.814   1.240   2.594  0.4348  0.1910  0.3108
  801SOL    HW1 3202   2.794   1.150   2.574 -0.8037 -0.8606  2.5609
  801SOL    HW2 3203   2.904   1.254   2.557 -0.3438  1.3274  0.3823
  801SOL     MW 3204   2.823   1.230   2.586  0.1686  0.2022  0.6171
  802SOL     OW 3205   2.597   1.482   2.792  0.0709 -0.0578  0.4732
  802SOL    HW1 3206   2.565   1.397   2.762 -1.1423  1.6782  0.4690
  802SOL    HW2 3207   2.683   1.472   2.828  2.8846  2.4451  0.1171
  802SOL     MW 3208   2.604   1.470   2.792  0.2821  0.5015  0.4257
  803SOL     OW 3209   2.232   1.351   2.030 -0.0671  0.0321  0.2539
  803SOL    HW1 3210   2.226   1.295   2.103  0.8892 -0.0151  0.9134
  803SOL    HW2 3211   2.261   1.288   1.960  0.2833 -1.6664  1.1154
  803SOL     MW 3212   2.235   1.335   2.031  0.1053 -0.1982  0.4546
  804SOL     OW 3213   2.265   0.077   0.055 -0.3870  0.2272  0.0610
  804SOL    HW1 3214   2.205   0.153   0.070 -1.2197  0.4140  0.3495
  804SOL    HW2 3215   2.330   0.108  -0.011 -0.8505  0.8272  2.5472
  804SOL     MW 3216   2.265   0.091   0.049 -0.5580  0.3310  0.4271
  805SOL     OW 3217   2.755   0.948   2.594  0.0099 -0.3429 -0.0946
  805SOL    HW1 3218   2.678   0.892   2.587 -0.0536  0.8090  0.6583
  805SOL    HW2 3219   2.831   0.897   2.607 -0.2824  0.9766  0.1517
  805SOL     MW 3220   2.755   0.934   2.595 -0.0370 -0.0168  0.0372
  806SOL     OW 3221   2.502   0.659   2.208  0.2305 -0.8194  0.6348
  806SOL    HW1 3222   2.417   0.632   2.170 -0.1881 -1.2636  3.3190
  806SOL    HW2 3223   2.534   0.740   2.169 -2.2566 -2.0396  1.8522
  806SOL     MW 3224   2.495   0.666   2.198 -0.1528 -1.0390  1.1496
  807SOL     OW 3225   0.063   1.074   2.052  0.2630  0.1169 -0.0197
  807SOL    HW1 3226   0.069   0.982   2.014  0.3560  0.1854  1.6361
  807SOL    HW2 3227  -0.031   1.093   2.084  0.9832 -0.0823 -0.9831
  807SOL     MW 3228   0.051   1.065   2.051  0.3703  0.0997  0.0716
  808SOL     OW 3229   2.656   3.072   2.777 -0.1061  0.2241 -0.0797
  808SOL    HW1 3230   2.611   2.990   2.762 -1.1838 -0.2520 -0.4656
  808SOL    HW2 3231   2.653   3.124   2.697  0.0842 -0.9253  2.0466
  808SOL     MW 3232   2.649   3.068   2.764 -0.2232  0.0096  0.1499
  809SOL     OW 3233   2.612   1.368   2.433 -0.7459  0.7893  0.4803
  809SOL    HW1 3234   2.638   1.308   2.498 -1.3250  1.9492 -0.2700
  809SOL    HW2 3235   2.665   1.341   2.351  0.7846 -1.2629  0.6446
  809SOL     MW 3236   2.623   1.356   2.431 -0.6203  0.6715  0.4030
  810SOL     OW 3237   2.230   1.316   2.301  0.2805 -0.2462 -0.0005
  810SOL    HW1 3238   2.305   1.268   2.329 -0.1319  2.8553 -1.3817
  810SOL    HW2 3239   2.173   1.326   2.375 -1.2848 -0.9566 -0.4422
  810SOL     MW 3240   2.232   1.311   2.314  0.0195  0.0693 -0.2410
  811SOL     OW 3241   1.527   0.135   2.321 -0.3664  0.2487  0.2030
  811SOL    HW1 3242   1.603   0.077   2.341  2.3904 -0.1389 -1.1437
  811SOL    HW2 3243   1.518   0.127   2.227  0.0302  1.5676  0.9220
  811SOL     MW 3244   1.536   0.127   2.311  0.0496  0.3716  0.1202
  812SOL     OW 3245   1.473   2.788   2.006  0.0168 -0.4159  0.2587
  812SOL    HW1 3246   1.564   2.807   1.977 -2.2821 -0.1112 -0.8907
  812SOL    HW2 3247   1.481   2.801   2.102  0.4649 -1.8219 -1.5080
  812SOL     MW 3248   1.486   2.792   2.015 -0.2274 -0.5612 -0.1260
  813SOL     OW 3249   1.987   0.609   2.235 -0.5544  0.3247  0.3461
  813SOL    HW1 3250   1.914   0.551   2.206 -2.5867 -2.8184 -2.3406
  813SOL    HW2 3251   1.965   0.648   2.314 -0.1443 -1.5055 -1.1406
  813SOL     MW 3252   1.975   0.606   2.241 -0.7684 -0.3315 -0.2045
  814SOL     OW 3253   2.705   1.266   1.648 -0.5086 -0.4083 -0.2647
  814SOL    HW1 3254   2.647   1.225   1.710 -0.0038  2.1676 -1.7642
  814SOL    HW2 3255   2.724   1.200   1.574 -0.8630 -1.0716 -2.2428
  814SOL     MW 3256   2.700   1.252   1.647 -0.4887 -0.1560 -0.7236
  815SOL     OW 3257   2.582   1.746   2.406 -0.3334 -0.2609  0.6688
  815SOL    HW1 3258   2.503   1.687   2.420  1.0927  0.0457  1.6639
  815SOL    HW2 3259   2.649   1.675   2.410  1.6999 -2.3704 -2.8538
  815SOL     MW 3260   2.580   1.729   2.408  0.1230 -0.4988  0.3353
  816SOL     OW 3261   0.725   0.722   2.728  0.2698 -0.5982 -0.6078
  816SOL    HW1 3262   0.757   0.646   2.787  0.7347 -1.9419 -0.6706
  816SOL    HW2 3263   0.628   0.713   2.691 -2.6216 -4.0241  1.5273
  816SOL     MW 3264   0.716   0.711   2.731 -0.0503 -1.2275 -0.3344
  817SOL     OW 3265   2.987   1.205   1.452  0.5042  0.0830 -0.0587
  817SOL    HW1 3266   3.073   1.174   1.449  0.4791  0.0452 -0.0516
  817SOL    HW2 3267   2.991   1.290   1.398 -0.8315 -0.8811 -1.9915
  817SOL     MW 3268   2.999   1.212   1.445  0.3247 -0.0492 -0.3128
  818SOL     OW 3269   1.909   1.062   2.677 -0.1180 -0.8223  0.3842
  818SOL    HW1 3270   1.878   1.018   2.597 -0.0980  1.4122  1.4029
  818SOL    HW2 3271   1.993   1.019   2.703 -0.1853 -2.3482  0.1170
  818SOL     MW 3272   1.916   1.050   2.670 -0.1243 -0.7288  0.4834
  819SOL     OW 3273   1.993   0.274   2.518  0.2715 -0.1293 -0.2388
  819SOL    HW1 3274   1.910   0.329   2.532 -0.1164  1.4511  1.3634
  819SOL    HW2 3275   2.040   0.276   2.604 -0.2933 -1.4516 -0.6209
  819SOL     MW 3276   1.988   0.282   2.531  0.1458 -0.0952 -0.0778
  820SOL     OW 3277   2.521   1.716   2.673  0.0262  0.0037 -0.5938
  820SOL    HW1 3278   2.541   1.631   2.715  1.2400  2.2723 -0.4599
  820SOL    HW2 3279   2.564   1.712   2.584 -1.2767  1.7002 -1.1839
  820SOL     MW 3280   2.529   1.704   2.667  0.0145  0.5269 -0.6540
  821SOL     OW 3281   2.564   1.362   2.007  0.7270  0.4358 -0.3924
  821SOL    HW1 3282   2.585   1.429   1.949 -0.3912 -4.8526  0.3688
  821SOL    HW2 3283   2.475   1.395   2.033 -0.9686 -0.3442  2.2734
  821SOL     MW 3284   2.555   1.375   2.003  0.3557 -0.3649  0.0598
  822SOL     OW 3285   2.808   2.675   1.417 -0.4554 -0.2699 -0.6935
  822SOL    HW1 3286   2.858   2.656   1.502 -1.6917  1.5835  1.9185
  822SOL    HW2 3287   2.812   2.766   1.407 -2.0833 -1.2944  0.5924
  822SOL     MW 3288   2.815   2.684   1.427 -0.8333 -0.1605 -0.1792
  823SOL     OW 3289   2.384   0.487   1.807 -0.3171 -0.5872 -0.8899
  823SOL    HW1 3290   2.424   0.426   1.749 -0.5728  4.9185 -1.6291
  823SOL    HW2 3291   2.367   0.422   1.878  0.2815 -0.5367  1.7195
  823SOL     MW 3292   2.387   0.470   1.809 -0.2719  0.1459 -0.6431
  824SOL     OW 3293   2.182   1.422   2.574 -0.4660 -0.3657 -0.7785
  824SOL    HW1 3294   2.251   1.476   2.531 -1.6935  2.4070  0.1797
  824SOL    HW2 3295   2.132   1.486   2.621  0.0503 -0.5788 -0.1930
  824SOL     MW 3296   2.185   1.437   2.575 -0.5598 -0.0280 -0.5748
  825SOL     OW 3297   1.897   2.511   0.281 -0.8544  0.6062  0.0619
  825SOL    HW1 3298   1.882   2.461   0.357 -1.2988  2.8803 -1.5904
  825SOL    HW2 3299   1.972   2.472   0.236 -1.5576 -1.7558 -0.8399
  825SOL     MW 3300   1.905   2.499   0.285 -1.0058  0.5946 -0.2751
  826SOL     OW 3301   1.812   2.399   0.506  0.4280  0.0249  0.3878
  826SOL    HW1 3302   1.769   2.327   0.553  1.4416  0.7755  0.7105
  826SOL    HW2 3303   1.783   2.480   0.548  1.7404 -1.8664  1.4784
  826SOL     MW 3304   1.802   2.400   0.518  0.7349 -0.1256  0.5742
  827SOL     OW 3305   1.917   2.193   0.815  0.1476 -0.0255  1.0459
  827SOL    HW1 3306   1.860   2.213   0.741  0.9144 -0.6684  2.0921
  827SOL    HW2 3307   1.867   2.138   0.885  3.4866 -1.1855  2.4755
  827SOL     MW 3308   1.903   2.188   0.814  0.6893 -0.2634  1.3725
  828SOL     OW 3309   0.045   2.562   0.568  0.0064  0.2772  0.2185
  828SOL    HW1 3310   0.141   2.559   0.573 -0.8158  1.5049 -1.0786
  828SOL    HW2 3311   0.011   2.628   0.510 -0.2013 -1.4371 -1.0901
  828SOL     MW 3312   0.053   2.570   0.561 -0.1295  0.2130 -0.1253
  829SOL     OW 3313   2.983   2.944   1.157  0.3525  0.6472  0.0894
  829SOL    HW1 3314   2.896   2.930   1.111 -0.4159  1.3995 -1.3627
  829SOL    HW2 3315   3.036   2.864   1.139 -0.1685  1.4879 -1.7653
  829SOL     MW 3316   2.979   2.932   1.148  0.1823  0.8574 -0.3469
  830SOL     OW 3317   2.579   2.811   2.025 -0.1369  0.2620  0.2281
  830SOL    HW1 3318   2.486   2.785   1.994 -3.2804 -2.0621  0.4909
  830SOL    HW2 3319   2.629   2.791   1.946  1.3687 -1.7505 -0.4150
  830SOL     MW 3320   2.573   2.805   2.010 -0.3530 -0.3102  0.1779
  831SOL     OW 3321   2.363   2.484   1.209  0.3027  0.3777  0.3550
  831SOL    HW1 3322   2.340   2.446   1.291 -0.9153 -0.5043  0.9547
  831SOL    HW2 3323   2.443   2.428   1.199  0.0902  2.3790 -1.6261
  831SOL     MW 3324   2.370   2.471   1.219  0.1140  0.5254  0.1727
  832SOL     OW 3325   2.361   2.198   1.908 -0.0450 -0.4850  0.3573
  832SOL    HW1 3326   2.412   2.267   1.946 -1.4519  1.6738  2.5450
  832SOL    HW2 3327   2.421   2.130   1.878  1.0771  1.3472 -0.1053
  832SOL     MW 3328   2.376   2.198   1.909 -0.0826  0.0416  0.5849
  833SOL     OW 3329   1.721   2.459   0.876  0.3211 -0.1495  1.1868
  833SOL    HW1 3330   1.641   2.411   0.877  0.1524  0.5050 -2.4013
  833SOL    HW2 3331   1.706   2.525   0.934  1.9962 -1.0337 -3.1553
  833SOL     MW 3332   1.708   2.462   0.884  0.5199 -0.1798  0.1405
  834SOL     OW 3333   2.109   2.455   0.580  0.6072  0.1033  0.7033
  834SOL    HW1 3334   2.021   2.419   0.556 -2.8611 -0.1179 -0.8991
  834SOL    HW2 3335   2.183   2.430   0.511 -0.2907  0.2336  1.5542
  834SOL     MW 3336   2.107   2.447   0.567  0.0311  0.0913  0.6041
  835SOL     OW 3337   1.764   2.604   0.650 -0.3206  0.5387 -0.0496
  835SOL    HW1 3338   1.730   2.545   0.729 -0.4414 -0.8809  1.6602
  835SOL    HW2 3339   1.834   2.658   0.678 -3.0743 -2.4978  0.7758
  835SOL     MW 3340   1.769   2.603   0.664 -0.6999 -0.0492  0.2849
  836SOL     OW 3341   1.936   2.214   1.621 -0.6652 -0.0210  0.4137
  836SOL    HW1 3342   2.021   2.246   1.653 -0.3869  0.6516 -2.5209
  836SOL    HW2 3343   1.867   2.281   1.629  0.6541  2.0316 -2.2315
  836SOL     MW 3344   1.938   2.227   1.626 -0.4544  0.3386 -0.3225
  837SOL     OW 3345   2.091   0.211   0.677 -0.2127 -0.5426  0.1088
  837SOL    HW1 3346   2.031   0.270   0.628 -3.1250  0.5779  1.6694
  837SOL    HW2 3347   2.135   0.151   0.617  0.1184  0.5651  0.0310
  837SOL     MW 3348   2.089   0.211   0.663 -0.5533 -0.2486  0.3044
  838SOL     OW 3349   2.940   2.047   0.912 -0.1913  0.3214  0.0368
  838SOL    HW1 3350   2.882   2.013   0.980 -0.5836  1.8450  0.1763
  838SOL    HW2 3351   3.012   1.991   0.893 -1.0742 -0.6198  0.2238
  838SOL     MW 3352   2.941   2.035   0.918 -0.3596  0.3982  0.0798
  839SOL     OW 3353   1.476   2.347   0.987 -0.0915  0.2929 -0.7733
  839SOL    HW1 3354   1.487   2.364   1.083 -0.1438 -2.6636 -1.4160
  839SOL    HW2 3355   1.516   2.259   0.985  0.1812 -3.0274  2.8752
  839SOL     MW 3356   1.482   2.338   1.000 -0.0625 -0.5353 -0.3767
  840SOL     OW 3357   2.363   2.160   2.440 -0.0685  0.3180 -0.1845
  840SOL    HW1 3358   2.275   2.201   2.426  1.1517 -2.2284 -1.0817
  840SOL    HW2 3359   2.409   2.223   2.491 -1.5762  0.4582  0.4173
  840SOL     MW 3360   2.357   2.174   2.445 -0.1064  0.0006 -0.2235
  841SOL     OW 3361   2.119   2.430   0.132 -0.0776 -0.2009  0.1103
  841SOL    HW1 3362   2.141   2.490   0.059  3.0112  1.3599  0.2584
  841SOL    HW2 3363   2.093   2.341   0.100 -1.1434  1.7859 -0.1550
  841SOL     MW 3364   2.119   2.426   0.119  0.1893  0.2672  0.0948
  842SOL     OW 3365   2.600   2.082   1.540 -0.6107  0.2221 -0.2405
  842SOL    HW1 3366   2.570   1.997   1.565  2.3815  0.3974 -0.4362
  842SOL    HW2 3367   2.561   2.106   1.457  0.9828 -3.0971 -0.3188
  842SOL     MW 3368   2.591   2.074   1.533 -0.0057 -0.1927 -0.2766
  843SOL     OW 3369   2.673   2.777   1.761 -0.2336 -0.2133 -0.3981
  843SOL    HW1 3370   2.758   2.728   1.732  2.2244 -0.5640 -0.5387
  843SOL    HW2 3371   2.599   2.715   1.731 -3.0155 -3.0342  0.6574
  843SOL     MW 3372   2.675   2.762   1.753 -0.2763 -0.6317 -0.2774
  844SOL     OW 3373   2.581   2.323   1.151  0.1455 -0.1693 -0.3004
  844SOL    HW1 3374   2.601   2.353   1.062 -1.9755 -0.0742  0.0109
  844SOL    HW2 3375   2.651   2.343   1.212 -1.8191 -1.2514  1.9293
  844SOL     MW 3376   2.593   2.330   1.148 -0.3936 -0.2995  0.0348
  845SOL     OW 3377   2.825   2.445   0.296 -0.0703  0.1347 -0.0797
  845SOL    HW1 3378   2.778   2.360   0.290 -1.0855  0.3351  2.5221
  845SOL    HW2 3379   2.821   2.460   0.387  0.3114 -1.2412 -0.8366
  845SOL     MW 3380   2.818   2.436   0.307 -0.1539 -0.0204  0.1637
  846SOL     OW 3381   1.542   2.896   0.755 -0.0185  0.3641 -0.4209
  846SOL    HW1 3382   1.578   2.946   0.827  0.1619  3.0211 -2.2222
  846SOL    HW2 3383   1.445   2.903   0.768 -2.8238  1.8653  1.0091
  846SOL     MW 3384   1.534   2.904   0.766 -0.3648  0.9127 -0.4699
  847SOL     OW 3385   2.602   1.933   0.176 -0.1038 -0.1997 -0.4122
  847SOL    HW1 3386   2.669   1.862   0.167 -0.2554  1.5054  1.1654
  847SOL    HW2 3387   2.534   1.910   0.106 -1.0179 -0.7077  1.6235
  847SOL     MW 3388   2.602   1.920   0.165 -0.2444 -0.0418  0.0646
  848SOL     OW 3389   2.466   2.144   1.306 -0.8053 -0.2479 -0.2583
  848SOL    HW1 3390   2.523   2.193   1.249 -0.4961  0.0926 -2.2046
  848SOL    HW2 3391   2.454   2.065   1.260  0.6288 -1.1365  2.3193
  848SOL     MW 3392   2.472   2.140   1.292 -0.5753 -0.3202 -0.1750
  849SOL     OW 3393   1.986   2.786   0.746 -0.0514  0.1922 -0.1011
  849SOL    HW1 3394   1.991   2.758   0.836  1.4926 -0.8657 -2.6540
  849SOL    HW2 3395   2.057   2.743   0.687 -0.7591  1.0404 -0.1710
  849SOL     MW 3396   1.996   2.776   0.750  0.0589  0.1645 -0.4471
  850SOL     OW 3397   2.219   1.943   1.684  0.3276  0.1736 -0.3436
  850SOL    HW1 3398   2.139   1.904   1.636 -0.7852 -1.9128  0.1591
  850SOL    HW2 3399   2.224   2.043   1.677 -1.1679  0.3459 -1.0606
  850SOL     MW 3400   2.209   1.951   1.677 -0.0166 -0.0790 -0.3719
  851SOL     OW 3401   2.254   2.379   0.369 -0.2287  0.8219  0.1004
  851SOL    HW1 3402   2.191   2.403   0.295  3.2161  2.7970  2.4367
  851SOL    HW2 3403   2.330   2.429   0.337  1.0625 -0.1509  0.0441
  851SOL     MW 3404   2.256   2.389   0.355  0.3962  0.9541  0.4012
  852SOL     OW 3405   2.303   2.177   0.180  0.6147 -0.5519 -0.4494
  852SOL    HW1 3406   2.307   2.248   0.251  0.7891  1.2450 -0.1389
  852SOL    HW2 3407   2.388   2.187   0.130 -0.6262 -1.8231  0.8301
  852SOL     MW 3408   2.315   2.188   0.183  0.4740 -0.4825 -0.2396
  853SOL     OW 3409   2.471   2.445   1.983 -0.0889  0.3561 -0.1248
  853SOL    HW1 3410   2.485   2.496   1.906  1.9442 -0.2192 -0.9238
  853SOL    HW2 3411   2.557   2.414   2.025  1.7661  0.4030 -1.1251
  853SOL     MW 3412   2.484   2.447   1.979  0.4241  0.2864 -0.3622
  854SOL     OW 3413   2.843   2.275   0.791 -0.0999  0.0639  0.2972
  854SOL    HW1 3414   2.767   2.260   0.736 -0.1982  2.8679 -0.0736
  854SOL    HW2 3415   2.858   2.192   0.838 -1.7554 -1.5061 -2.1314
  854SOL     MW 3416   2.835   2.262   0.790 -0.3313  0.2267 -0.0722
  855SOL     OW 3417   2.661   2.227   0.320  0.2038 -0.4281 -0.2207
  855SOL    HW1 3418   2.641   2.291   0.392 -0.8866  1.6422  1.4108
  855SOL    HW2 3419   2.737   2.180   0.343 -0.1410 -0.3709 -1.0039
  855SOL     MW 3420   2.668   2.229   0.333  0.0145 -0.1474 -0.1087
  856SOL     OW 3421   2.182   1.943   0.222  0.2666 -0.6158  0.1452
  856SOL    HW1 3422   2.094   1.962   0.254 -0.3293  0.9637 -0.9019
  856SOL    HW2 3423   2.224   2.030   0.214  0.1786 -1.0536 -0.2339
  856SOL     MW 3424   2.176   1.957   0.225  0.1763 -0.4652 -0.0430
  857SOL     OW 3425   2.586   2.000   0.490  0.1461  0.5935  0.4280
  857SOL    HW1 3426   2.582   2.056   0.409 -0.9196  2.8430 -2.4574
  857SOL    HW2 3427   2.538   1.927   0.471  1.6981  4.0504 -2.4615
  857SOL     MW 3428   2.579   1.998   0.477  0.2103  1.3464 -0.3340
  858SOL     OW 3429   2.901   2.643   1.677 -0.5969  0.0920 -0.2708
  858SOL    HW1 3430   2.988   2.679   1.710 -1.5580  2.3126  0.4288
  858SOL    HW2 3431   2.886   2.568   1.737  3.6552 -0.0962 -1.9369
  858SOL     MW 3432   2.910   2.638   1.689 -0.1627  0.3602 -0.3983
  859SOL     OW 3433   2.123   2.491   0.857 -0.0426 -0.0821  0.0748
  859SOL    HW1 3434   2.089   2.468   0.767 -0.0877  0.1082  0.9106
  859SOL    HW2 3435   2.208   2.441   0.861  2.1245  0.2024  0.4954
  859SOL     MW 3436   2.130   2.481   0.845  0.2374 -0.0195  0.2405
  860SOL     OW 3437   2.655   2.577   0.134  0.5011  0.1577 -0.0299
  860SOL    HW1 3438   2.711   2.539   0.206  1.2307 -2.8955 -0.8294
  860SOL    HW2 3439   2.704   2.655   0.101 -0.9728  0.3418 -3.3726
  860SOL     MW 3440   2.669   2.582   0.139  0.4029 -0.2208 -0.5764
  861SOL     OW 3441   1.567   2.138   1.224 -0.3552 -0.0093 -0.0194
  861SOL    HW1 3442   1.583   2.186   1.299 -0.7720 -0.3051 -4.3019
  861SOL    HW2 3443   1.502   2.071   1.254  1.4369 -1.2709  1.3565
  861SOL     MW 3444   1.560   2.135   1.238 -0.1737 -0.2148 -0.4029
  862SOL     OW 3445   2.398   1.892   1.502  0.0476 -0.3019  0.6426
  862SOL    HW1 3446   2.316   1.896   1.556 -0.3629  1.1075 -2.9603
  862SOL    HW2 3447   2.363   1.888   1.411 -0.4437 -2.1708 -0.9773
  862SOL     MW 3448   2.383   1.892   1.497 -0.0714 -0.3625 -0.0465
  863SOL     OW 3449   0.021   1.774   1.195  0.1029  0.5033 -0.3676
  863SOL    HW1 3450   0.098   1.827   1.173  0.2756  3.3394  2.6224
  863SOL    HW2 3451  -0.029   1.837   1.242  3.9276 -0.3626 -0.1568
  863SOL     MW 3452   0.025   1.789   1.198  0.6304  0.7633  0.0547
  864SOL     OW 3453   0.015   1.838   0.830  0.1666 -0.0187  0.1622
  864SOL    HW1 3454  -0.059   1.799   0.884 -0.1185  0.4355  0.9294
  864SOL    HW2 3455  -0.018   1.820   0.745 -2.7969  0.4250  2.4003
  864SOL     MW 3456   0.001   1.830   0.826 -0.2620  0.0998  0.5588
  865SOL     OW 3457   2.537   2.166   0.058  0.3282 -0.1621 -0.1022
  865SOL    HW1 3458   2.569   2.110   0.123  0.5189  3.3978 -2.1809
  865SOL    HW2 3459   2.550   2.119  -0.024  0.0210  2.0204 -0.6608
  865SOL     MW 3460   2.543   2.152   0.056  0.3128  0.5956 -0.4502
  866SOL     OW 3461   2.627   2.336   1.612 -0.0069  0.1184 -0.0612
  866SOL    HW1 3462   2.618   2.235   1.605  1.5433 -1.8093 -0.9223
  866SOL    HW2 3463   2.687   2.368   1.542  0.2517 -2.8544 -1.7622
  866SOL     MW 3464   2.634   2.327   1.602  0.2318 -0.5282 -0.3992
  867SOL     OW 3465   0.034   2.718   1.816  0.1523 -0.4030  0.6183
  867SOL    HW1 3466   0.060   2.690   1.902  1.0681 -0.9404 -1.9227
  867SOL    HW2 3467   0.059   2.812   1.805  1.2290  1.3575 -1.9885
  867SOL     MW 3468   0.041   2.727   1.826  0.4152 -0.2416 -0.0609
  868SOL     OW 3469   2.793   2.586   0.571  0.3953  0.2773 -0.0531
  868SOL    HW1 3470   2.704   2.554   0.595 -0.7109 -0.8472  0.1051
  868SOL    HW2 3471   2.777   2.680   0.548  0.0448 -1.1052  0.1267
  868SOL     MW 3472   2.780   2.594   0.571  0.2031 -0.0535 -0.0085
  869SOL     OW 3473   1.987   2.344   1.044  0.3059  0.4559  0.4994
  869SOL    HW1 3474   2.032   2.413   0.999  2.6068 -1.3758  0.2053
  869SOL    HW2 3475   1.948   2.296   0.975 -1.0103  0.7154 -2.7287
  869SOL     MW 3476   1.988   2.346   1.029  0.4358  0.2485  0.0347
  870SOL     OW 3477   2.184   3.100   0.468  0.0530  0.0360  0.1337
  870SOL    HW1 3478   2.265   3.119   0.411 -1.3587 -1.1046 -1.3431
  870SOL    HW2 3479   2.181   3.007   0.485 -2.5867 -0.0283 -1.7290
  870SOL     MW 3480   2.194   3.090   0.462 -0.4815 -0.1230 -0.3069
  871SOL     OW 3481   2.480   2.068   0.936  0.7738  0.5704 -0.2368
  871SOL    HW1 3482   2.428   2.014   0.879 -1.0032  0.8282 -0.2727
  871SOL    HW2 3483   2.418   2.140   0.952  2.1681 -0.2866 -1.3517
  871SOL     MW 3484   2.465   2.070   0.931  0.7233  0.4913 -0.3887
  872SOL     OW 3485   2.048   2.524   1.428  0.4461 -0.0922 -0.1368
  872SOL    HW1 3486   2.007   2.593   1.478 -0.5984  1.7157  0.8401
  872SOL    HW2 3487   1.976   2.464   1.421 -0.9529 -0.1436 -0.6940
  872SOL     MW 3488   2.033   2.525   1.434  0.1237  0.1396 -0.0814
  873SOL     OW 3489   2.832   2.090   1.960  0.2023 -0.6260 -0.0657
  873SOL    HW1 3490   2.856   2.145   2.034 -0.4831 -0.4774  1.7115
  873SOL    HW2 3491   2.897   2.093   1.895 -1.8126 -0.1375 -1.1874
  873SOL     MW 3492   2.844   2.097   1.961 -0.1539 -0.5419  0.0208
  874SOL     OW 3493   2.392   1.548   2.445 -0.4183  0.6594  0.0126
  874SOL    HW1 3494   2.376   1.549   2.353  0.4227 -0.4618  1.6231
  874SOL    HW2 3495   2.472   1.489   2.466  1.6323 -2.7910  2.0813
  874SOL     MW 3496   2.400   1.541   2.436 -0.0367  0.0562  0.4980
  875SOL     OW 3497   2.313   2.261   0.992 -0.9207  0.5702  0.9303
  875SOL    HW1 3498   2.363   2.326   0.943 -1.5423  1.0491  0.5455
  875SOL    HW2 3499   2.314   2.300   1.079 -1.2588 -1.8421 -0.3478
  875SOL     MW 3500   2.319   2.274   0.997 -1.0473  0.3151  0.7109
  876SOL     OW 3501   3.014   2.348   1.265  0.2948  0.1306 -0.5302
  876SOL    HW1 3502   3.064   2.338   1.191  0.2315 -0.9592  3.1620
  876SOL    HW2 3503   3.072   2.369   1.338  0.0786 -0.9178 -0.9670
  876SOL     MW 3504   3.028   2.349   1.265  0.2579 -0.1515 -0.1007
  877SOL     OW 3505   3.056   2.727   0.369  0.2552  0.2097  0.6405
  877SOL    HW1 3506   3.076   2.808   0.319  2.8121  2.1316  2.6268
  877SOL    HW2 3507   3.061   2.657   0.302 -4.3997  1.0097 -1.1288
  877SOL     MW 3508   3.059   2.729   0.353 -0.0216  0.5688  0.6691
  878SOL     OW 3509   2.355   1.843   1.247  0.2715  0.3591  0.6667
  878SOL    HW1 3510   2.297   1.771   1.271  3.2648 -2.0309 -4.0104
  878SOL    HW2 3511   2.437   1.805   1.223  0.5028  0.5343  1.1523
  878SOL     MW 3512   2.358   1.828   1.247  0.6970  0.0669  0.1137
  879SOL     OW 3513   2.676   2.444   0.916  0.3550  0.5542  0.1860
  879SOL    HW1 3514   2.737   2.512   0.941 -1.4490 -1.8937  0.1504
  879SOL    HW2 3515   2.736   2.383   0.862  2.2995  1.2874 -3.5606
  879SOL     MW 3516   2.692   2.445   0.912  0.3735  0.3279 -0.3131
  880SOL     OW 3517   2.587   2.191   0.685 -0.4508 -0.2995  0.1378
  880SOL    HW1 3518   2.559   2.139   0.762 -0.2018  0.9112 -0.4697
  880SOL    HW2 3519   2.571   2.134   0.613 -1.1916 -0.3324  0.1704
  880SOL     MW 3520   2.581   2.176   0.685 -0.5157 -0.1441  0.0620
  881SOL     OW 3521   2.961   2.693   0.753 -0.1701 -0.0978  0.4409
  881SOL    HW1 3522   2.907   2.643   0.688  1.0920 -0.2970 -2.6312
  881SOL    HW2 3523   3.047   2.663   0.730 -1.3443  0.1300  0.2136
  881SOL     MW 3524   2.965   2.682   0.742 -0.1585 -0.0941  0.0056
  882SOL     OW 3525   2.305   2.803   1.960  0.0121  0.2203  0.2099
  882SOL    HW1 3526   2.295   2.810   1.866 -1.4580  1.3756 -1.5655
  882SOL    HW2 3527   2.261   2.732   2.004  0.7244  0.4746  0.6894
  882SOL     MW 3528   2.298   2.795   1.954 -0.0879  0.4063  0.0389
  883SOL     OW 3529   2.292   2.329   1.417  0.0010 -0.2766  0.2957
  883SOL    HW1 3530   2.347   2.255   1.384  0.2973 -0.5641 -1.6161
  883SOL    HW2 3531   2.199   2.300   1.399 -0.9251  1.2821 -0.6882
  883SOL     MW 3532   2.287   2.315   1.410 -0.0821 -0.1089 -0.0864
  884SOL     OW 3533   1.910   1.872   1.121  0.9968  0.0560  0.2729
  884SOL    HW1 3534   1.846   1.940   1.085 -1.7926  0.4320  1.1612
  884SOL    HW2 3535   1.998   1.916   1.107  0.0288 -0.8038  1.3542
  884SOL     MW 3536   1.913   1.887   1.114  0.5010 -0.0078  0.5328
  885SOL     OW 3537   2.807   2.402   1.833  0.1424 -0.2452  0.1342
  885SOL    HW1 3538   2.888   2.354   1.829 -2.4040  2.9206 -0.1719
  885SOL    HW2 3539   2.749   2.361   1.762 -0.0549 -0.9443 -2.2274
  885SOL     MW 3540   2.810   2.390   1.823 -0.2196  0.0803 -0.2177
  886SOL     OW 3541   2.750   2.378   1.365  0.1404 -0.2297  0.9138
  886SOL    HW1 3542   2.833   2.334   1.336  0.1275 -0.6684  2.2470
  886SOL    HW2 3543   2.767   2.469   1.355 -2.2843  0.2336  1.9627
  886SOL     MW 3544   2.763   2.384   1.360 -0.1812 -0.2264  1.2281
  887SOL     OW 3545   2.314   2.639   1.515  0.4277  0.0402 -0.0055
  887SOL    HW1 3546   2.353   2.680   1.434 -1.9922 -1.2953  0.7943
  887SOL    HW2 3547   2.261   2.560   1.496  1.5664 -1.8683  3.2656
  887SOL     MW 3548   2.312   2.634   1.502  0.2587 -0.3878  0.5316
  888SOL     OW 3549   1.869   2.054   1.420  0.3365 -0.0067  0.2066
  888SOL    HW1 3550   1.919   2.089   1.351 -1.5729 -0.5831  0.5088
  888SOL    HW2 3551   1.892   2.111   1.494  2.7430  0.0858  0.2391
  888SOL     MW 3552   1.879   2.066   1.421  0.4021 -0.0706  0.2508
  889SOL     OW 3553   2.344   2.011   2.096  0.2154 -0.0377  0.5531
  889SOL    HW1 3554   2.426   2.013   2.150  0.3844  0.4056  1.4070
  889SOL    HW2 3555   2.351   2.093   2.042 -1.7784 -1.7638 -1.4752
  889SOL     MW 3556   2.356   2.022   2.096 -0.0253 -0.2069  0.3981
  890SOL     OW 3557   0.096   2.324   0.164  0.3870  0.2301  0.7030
  890SOL    HW1 3558   0.032   2.397   0.179 -0.2633  2.2796 -1.7706
  890SOL    HW2 3559   0.098   2.275   0.251  1.3025 -0.1010 -1.6434
  890SOL     MW 3560   0.088   2.327   0.178  0.4220  0.4568  0.0671
  891SOL     OW 3561   3.010   2.022   1.305 -0.8308 -0.0582 -0.1831
  891SOL    HW1 3562   3.077   2.070   1.360  1.0108  2.0334 -0.0577
  891SOL    HW2 3563   2.973   2.085   1.248  0.6371 -1.9188  0.6341
  891SOL     MW 3564   3.014   2.037   1.305 -0.3941 -0.0277 -0.0587
  892SOL     OW 3565   2.379   2.363   2.937  0.3639 -0.3110 -0.5171
  892SOL    HW1 3566   2.398   2.284   2.987  1.3265 -1.5841  0.3225
  892SOL    HW2 3567   2.463   2.385   2.890 -0.1281  0.0553  1.4977
  892SOL     MW 3568   2.393   2.355   2.937  0.4260 -0.4307 -0.1405
  893SOL     OW 3569   1.589   2.449   1.228 -0.0677 -0.5819  0.5830
  893SOL    HW1 3570   1.523   2.488   1.291 -0.4752 -1.7474  1.4782
  893SOL    HW2 3571   1.672   2.423   1.263 -2.8237 -0.8559 -0.7122
  893SOL     MW 3572   1.591   2.451   1.241 -0.4851 -0.7718  0.5302
  894SOL     OW 3573   2.850   1.887   0.456  0.3787 -0.4300 -0.2454
  894SOL    HW1 3574   2.782   1.897   0.514 -0.7436 -0.9767 -0.9214
  894SOL    HW2 3575   2.817   1.832   0.378 -1.3970 -0.6229  0.9042
  894SOL     MW 3576   2.836   1.881   0.453 -0.0037 -0.5276 -0.1829
  895SOL     OW 3577   2.083   2.200   1.247  0.4652  0.4845 -0.3827
  895SOL    HW1 3578   2.040   2.259   1.183 -0.4802 -2.2306  2.9321
  895SOL    HW2 3579   2.121   2.128   1.193  0.5057  0.5925 -0.8109
  895SOL     MW 3580   2.083   2.198   1.232  0.3458  0.1405 -0.0019
  896SOL     OW 3581   2.166   2.840   1.114 -0.4117  0.2915 -0.0614
  896SOL    HW1 3582   2.235   2.835   1.178  1.5895 -1.9985 -0.0613
  896SOL    HW2 3583   2.110   2.758   1.125  1.1192  0.0403 -0.1653
  896SOL     MW 3584   2.168   2.829   1.124  0.0543 -0.0438 -0.0751
  897SOL     OW 3585   2.982   2.920   0.146  0.0112 -0.7134 -0.6282
  897SOL    HW1 3586   3.058   2.934   0.088 -0.3397  0.9316 -1.5271
  897SOL    HW2 3587   2.922   2.858   0.094 -1.4595  1.6089  1.9951
  897SOL     MW 3588   2.984   2.913   0.132 -0.2291 -0.1900 -0.4007
  898SOL     OW 3589   2.085   0.196   1.461 -0.0583 -0.2048 -0.2986
  898SOL    HW1 3590   1.998   0.157   1.467  1.4964  0.5738 -0.4017
  898SOL    HW2 3591   2.085   0.242   1.376 -0.7327 -0.7163 -1.2023
  898SOL     MW 3592   2.073   0.197   1.451  0.0578 -0.1695 -0.4315
  899SOL     OW 3593   2.907   2.962   0.670 -0.3715 -0.5561 -0.2673
  899SOL    HW1 3594   2.905   2.872   0.706 -1.5556 -0.8504 -0.2357
  899SOL    HW2 3595   2.829   3.008   0.705 -2.1344 -0.7093 -0.1541
  899SOL     MW 3596   2.897   2.956   0.679 -0.7604 -0.6151 -0.2482
  900SOL     OW 3597   0.139   2.411   1.057 -0.3148  0.4686 -0.8878
  900SOL    HW1 3598   0.154   2.505   1.038 -0.3131  1.7331  0.9316
  900SOL    HW2 3599   0.149   2.356   0.973  1.3649  0.5785 -2.1813
  900SOL     MW 3600   0.142   2.416   1.043 -0.0929  0.6499 -0.8184
  901SOL     OW 3601   1.795   2.894   1.676  0.0088  0.3545 -0.1039
  901SOL    HW1 3602   1.863   2.828   1.652 -1.3714  0.2007  1.1051
  901SOL    HW2 3603   1.715   2.877   1.634  1.2706 -1.8080 -1.1746
  901SOL     MW 3604   1.793   2.883   1.667 -0.0068  0.0489 -0.0856
  902SOL     OW 3605   2.581   2.051   1.856  0.7407 -0.4709  0.4780
  902SOL    HW1 3606   2.588   1.957   1.860 -0.8723  1.2092 -1.9034
  902SOL    HW2 3607   2.668   2.082   1.879 -0.6926  2.6063 -2.2900
  902SOL     MW 3608   2.594   2.043   1.860  0.3388  0.1568 -0.2014
  903SOL     OW 3609   1.584   2.748   0.533  0.4197 -0.2865 -0.1148
  903SOL    HW1 3610   1.640   2.675   0.564  0.4717 -3.0738 -1.2158
  903SOL    HW2 3611   1.577   2.801   0.608  0.4949  0.8438 -5.5119
  903SOL     MW 3612   1.590   2.746   0.547  0.4365 -0.5051 -0.9722
  904SOL     OW 3613   2.489   2.558   1.720  0.0276  0.0618 -0.4153
  904SOL    HW1 3614   2.428   2.582   1.654  1.5794  0.6964  1.0846
  904SOL    HW2 3615   2.523   2.474   1.689 -1.5777  2.2048 -2.8207
  904SOL     MW 3616   2.486   2.550   1.707  0.0205  0.4283 -0.5347
  905SOL     OW 3617   2.316   2.509   2.205 -0.2199 -0.3167  0.1731
  905SOL    HW1 3618   2.362   2.468   2.135 -3.0997  0.6181 -0.8119
  905SOL    HW2 3619   2.262   2.438   2.247  0.1934  0.2527  0.3765
  905SOL     MW 3620   2.315   2.494   2.201 -0.5453 -0.1182  0.0700
  906SOL     OW 3621   2.420   2.460   0.832 -0.7396  0.0199  0.0211
  906SOL    HW1 3622   2.515   2.446   0.851 -1.0573  1.0141  0.1728
  906SOL    HW2 3623   2.396   2.545   0.869  2.7485  0.3004 -1.4832
  906SOL     MW 3624   2.430   2.469   0.840 -0.3213  0.1881 -0.1574
  907SOL     OW 3625   2.617   2.936   1.278 -0.5226 -0.1873  0.2966
  907SOL    HW1 3626   2.697   2.969   1.323 -1.1290 -1.9677  2.4945
  907SOL    HW2 3627   2.654   2.908   1.194  1.0373 -1.4535 -1.9906
  907SOL     MW 3628   2.633   2.937   1.273 -0.3968 -0.5893  0.2848
  908SOL     OW 3629   2.709   2.357   3.084  0.2990 -0.3384  0.4333
  908SOL    HW1 3630   2.655   2.283   3.093  1.3118  1.8433 -0.9104
  908SOL    HW2 3631   2.667   2.424   3.133 -0.9014  3.3736 -0.4196
  908SOL     MW 3632   2.696   2.356   3.091  0.2742  0.4392  0.1435
  909SOL     OW 3633   1.573   0.185   1.108 -0.1814  0.1716  0.1976
  909SOL    HW1 3634   1.660   0.212   1.085  0.6813 -0.0307 -0.3417
  909SOL    HW2 3635   1.538   0.252   1.166  2.0721 -1.5645  0.5069
  909SOL     MW 3636   1.580   0.198   1.112  0.2297 -0.0841  0.1673
  910SOL     OW 3637   2.312   1.762   0.396 -0.1912 -0.2963 -0.3197
  910SOL    HW1 3638   2.254   1.687   0.405 -1.7721  3.2660 -1.2275
  910SOL    HW2 3639   2.260   1.821   0.337 -0.2774  1.2832 -2.3395
  910SOL     MW 3640   2.297   1.760   0.389 -0.4112  0.3821 -0.7060
  911SOL     OW 3641   2.204   2.276   1.691  0.3954  0.0188  0.3090
  911SOL    HW1 3642   2.257   2.252   1.765 -0.6391 -0.3971 -0.5203
  911SOL    HW2 3643   2.254   2.295   1.611  0.1766  0.0959 -1.7611
  911SOL     MW 3644   2.218   2.275   1.690  0.2300 -0.0259 -0.0736
  912SOL     OW 3645   2.841   1.981   1.523 -0.6953 -0.9695 -0.5772
  912SOL    HW1 3646   2.882   2.018   1.444 -0.0647  0.9015 -2.8029
  912SOL    HW2 3647   2.748   2.018   1.534 -2.6012 -2.2290  2.5533
  912SOL     MW 3648   2.834   1.991   1.514 -0.8635 -0.8888 -0.4578
  913SOL     OW 3649   2.523   2.967   0.432  0.3396  0.1723  0.0081
  913SOL    HW1 3650   2.597   2.904   0.424 -1.1438 -1.7733  0.4225
  913SOL    HW2 3651   2.442   2.918   0.429  0.4112 -0.4880  1.4392
  913SOL     MW 3652   2.522   2.952   0.431  0.1533 -0.1715  0.2516
  914SOL     OW 3653   2.757   1.664   3.086 -0.8052 -0.4310 -0.3129
  914SOL    HW1 3654   2.755   1.738   3.027  2.2125 -0.8632  1.1417
  914SOL    HW2 3655   2.671   1.648   3.109  0.4552 -0.5730  2.3577
  914SOL     MW 3656   2.745   1.672   3.081 -0.2408 -0.5068  0.2314
  915SOL     OW 3657   1.827   0.213   0.194  0.2677  0.5787 -0.6455
  915SOL    HW1 3658   1.885   0.136   0.214 -0.3394 -1.7024  1.0486
  915SOL    HW2 3659   1.744   0.200   0.242 -0.3451  2.7319 -0.9545
  915SOL     MW 3660   1.824   0.201   0.203  0.1068  0.5618 -0.4627
  916SOL     OW 3661   1.756   2.067   1.949 -0.7790 -0.0497 -0.3556
  916SOL    HW1 3662   1.813   2.145   1.929  0.2711 -0.4413 -1.3808
  916SOL    HW2 3663   1.758   2.018   1.868 -0.2072  3.2972 -1.5978
  916SOL     MW 3664   1.764   2.071   1.936 -0.5650  0.3402 -0.6548
  917SOL     OW 3665   2.438   2.318   2.661  0.5885 -0.0052 -0.4179
  917SOL    HW1 3666   2.413   2.295   2.750 -0.2256 -0.1399 -1.4712
  917SOL    HW2 3667   2.384   2.393   2.648  0.6306 -0.1680 -1.4417
  917SOL     MW 3668   2.428   2.325   2.671  0.4866 -0.0445 -0.6920
  918SOL     OW 3669   2.052   1.636   2.703  0.0227  0.0171  0.0149
  918SOL    HW1 3670   1.977   1.667   2.647  1.5586 -0.2385  0.7307
  918SOL    HW2 3671   2.122   1.710   2.688  1.9058  1.6196 -0.2090
  918SOL     MW 3672   2.051   1.650   2.694  0.4738  0.1948  0.0798
  919SOL     OW 3673   0.042   2.370   2.251  0.6048  0.6395  0.6526
  919SOL    HW1 3674  -0.049   2.330   2.234 -0.4036 -1.0233 -0.4161
  919SOL    HW2 3675   0.101   2.355   2.179  0.7411 -0.4071  1.0968
  919SOL     MW 3676   0.038   2.363   2.239  0.4897  0.2820  0.5702
  920SOL     OW 3677   2.755   2.814   3.100 -0.3411 -0.5112  0.1028
  920SOL    HW1 3678   2.690   2.873   3.140  1.9325  0.1345 -2.6142
  920SOL    HW2 3679   2.726   2.808   3.011 -0.3915  0.4255 -1.3988
  920SOL     MW 3680   2.742   2.821   3.093 -0.0478 -0.3024 -0.4538
  921SOL     OW 3681   2.458   2.609   2.648  0.1385  0.5624 -0.0269
  921SOL    HW1 3682   2.509   2.625   2.571 -2.0922 -0.5493  2.5307
  921SOL    HW2 3683   2.516   2.549   2.705  2.1681 -1.4901  0.2279
  921SOL     MW 3684   2.472   2.603   2.645  0.1120  0.1449  0.3442
  922SOL     OW 3685   2.009   2.789   0.312 -0.3569 -0.5431  0.4166
  922SOL    HW1 3686   2.014   2.792   0.215  0.4565 -0.1335 -3.9829
  922SOL    HW2 3687   1.969   2.703   0.332 -1.2617  2.6275  0.1464
  922SOL     MW 3688   2.004   2.778   0.302 -0.3690 -0.0707 -0.1995
  923SOL     OW 3689   2.225   2.807   1.696 -0.4340  0.0855 -0.1934
  923SOL    HW1 3690   2.267   2.752   1.624  2.5222  0.9307 -0.2162
  923SOL    HW2 3691   2.211   2.895   1.651  0.2592  0.3056  0.3074
  923SOL     MW 3692   2.229   2.812   1.681  0.0475  0.2261 -0.1303
  924SOL     OW 3693   1.185   2.737   2.583  0.3863  0.3013  0.4632
  924SOL    HW1 3694   1.223   2.786   2.511  1.2540 -1.3028  2.5620
  924SOL    HW2 3695   1.248   2.667   2.599  1.6019  1.2051 -2.1580
  924SOL     MW 3696   1.198   2.734   2.575  0.6611  0.2089  0.3943
  925SOL     OW 3697   2.963   0.184   2.603 -0.1884 -0.8371 -0.2739
  925SOL    HW1 3698   2.977   0.206   2.516 -1.5818  3.2277  2.3782
  925SOL    HW2 3699   2.889   0.236   2.624 -1.0355  0.5073 -0.9584
  925SOL     MW 3700   2.955   0.194   2.594 -0.4840 -0.1234 -0.0143
  926SOL     OW 3701   2.714   2.400   2.077  0.2224  0.3677 -0.4114
  926SOL    HW1 3702   2.757   2.455   2.143 -2.0021 -0.1912  1.7167
  926SOL    HW2 3703   2.757   2.410   1.991  0.9858  3.8604  1.1348
  926SOL     MW 3704   2.726   2.409   2.075  0.0296  0.7548  0.0734
  927SOL     OW 3705   2.375   0.137   0.305  0.2283  0.4307 -0.2553
  927SOL    HW1 3706   2.466   0.146   0.320 -3.4059  2.4440  1.2281
  927SOL    HW2 3707   2.365   0.112   0.209  1.7925 -3.1142  1.1380
  927SOL     MW 3708   2.385   0.135   0.295 -0.0448  0.2286  0.1242
  928SOL     OW 3709   2.079   2.486   1.800  0.1602 -0.1793  0.1858
  928SOL    HW1 3710   2.137   2.418   1.768  0.2611 -0.4054 -0.5704
  928SOL    HW2 3711   2.134   2.527   1.870  1.9531 -1.2706  0.1821
  928SOL     MW 3712   2.094   2.482   1.805  0.4101 -0.3531  0.0855
  929SOL     OW 3713   2.715   2.371   2.454 -0.6632  0.0408 -0.3015
  929SOL    HW1 3714   2.814   2.369   2.465  1.4368 -1.0625  0.7387
  929SOL    HW2 3715   2.676   2.321   2.531 -0.8147  0.2991  0.9626
  929SOL     MW 3716   2.723   2.364   2.465 -0.4061 -0.0707  0.0025
  930SOL     OW 3717   2.027   2.922   2.681 -0.6462  0.1697 -0.9559
  930SOL    HW1 3718   2.025   2.831   2.722  1.4134 -0.3416  2.3353
  930SOL    HW2 3719   2.116   2.951   2.672 -2.0724 -1.9611  1.0652
  930SOL     MW 3720   2.038   2.914   2.685 -0.5627 -0.1789 -0.2550
  931SOL     OW 3721   2.929   2.806   2.251  0.1886 -0.6112 -0.2650
  931SOL    HW1 3722   3.000   2.806   2.315 -3.4750  1.0877  2.4739
  931SOL    HW2 3723   2.977   2.793   2.165  1.0166  2.2458 -0.0158
  931SOL     MW 3724   2.944   2.804   2.248 -0.1855 -0.0101  0.1292
  932SOL     OW 3725   2.844   1.902   2.581  0.2673  0.0240 -0.0166
  932SOL    HW1 3726   2.932   1.908   2.605 -0.0283 -0.2264  1.8691
  932SOL    HW2 3727   2.831   1.925   2.489  0.0481  0.3435 -1.5759
  932SOL     MW 3728   2.854   1.906   2.572  0.1993  0.0331  0.0264
  933SOL     OW 3729   2.053   2.857   2.194  0.0371  0.7053  0.5175
  933SOL    HW1 3730   2.123   2.914   2.232  0.7075  0.8067  1.6058
  933SOL    HW2 3731   1.983   2.920   2.167 -0.7616 -1.7591 -1.4269
  933SOL     MW 3732   2.053   2.873   2.195  0.0202  0.3936  0.4045
  934SOL     OW 3733   2.029   2.753   2.469 -0.5076  0.1680 -0.0814
  934SOL    HW1 3734   2.056   2.817   2.540  0.9256 -0.0744 -1.7143
  934SOL    HW2 3735   2.040   2.800   2.387  2.0384 -1.2748 -0.9307
  934SOL     MW 3736   2.034   2.768   2.468  0.0174 -0.0544 -0.4089
  935SOL     OW 3737   2.631   1.519   1.791  0.0029  0.0898  0.6224
  935SOL    HW1 3738   2.723   1.502   1.769  2.1722  1.2032  1.7680
  935SOL    HW2 3739   2.576   1.510   1.713 -2.5127 -1.0652  0.6837
  935SOL     MW 3740   2.636   1.515   1.778 -0.0428  0.0843  0.7817
  936SOL     OW 3741   2.991   2.246   3.084  0.3031  0.3183  0.3997
  936SOL    HW1 3742   3.061   2.276   3.138  1.6682  0.6717 -1.4358
  936SOL    HW2 3743   2.909   2.289   3.115 -2.8568  0.8131 -0.5045
  936SOL     MW 3744   2.989   2.256   3.095  0.0663  0.4302  0.0382
  937SOL     OW 3745   2.038   2.172   2.647  0.6811 -0.5200  0.8469
  937SOL    HW1 3746   2.104   2.142   2.705 -2.2048  2.5202 -2.4264
  937SOL    HW2 3747   2.055   2.129   2.560 -0.0027 -0.2093  2.1504
  937SOL     MW 3748   2.049   2.163   2.643  0.2101 -0.0779  0.5870
  938SOL     OW 3749   2.287   1.813   1.905  0.1575  0.1460  0.4230
  938SOL    HW1 3750   2.266   1.863   1.819  0.6268  1.6845 -1.3077
  938SOL    HW2 3751   2.313   1.888   1.960  0.8997  1.5807 -0.5999
  938SOL     MW 3752   2.287   1.829   1.901  0.3174  0.5383  0.0597
  939SOL     OW 3753   2.814   1.999   2.305 -0.0381  0.3827 -0.1472
  939SOL    HW1 3754   2.823   1.932   2.237  0.4513 -1.0738  2.0644
  939SOL    HW2 3755   2.717   2.006   2.310  0.5653 -1.5290  0.7632
  939SOL     MW 3756   2.802   1.991   2.297  0.1061 -0.0617  0.2647
  940SOL     OW 3757   2.324   0.131   2.725 -0.0579  0.2447  0.4661
  940SOL    HW1 3758   2.300   0.033   2.726 -1.7540 -0.6452  0.9623
  940SOL    HW2 3759   2.370   0.132   2.810  2.8105 -2.0926  0.8915
  940SOL     MW 3760   2.327   0.119   2.737  0.0968 -0.1811  0.5877
  941SOL     OW 3761   0.228   2.341   2.053  0.8482 -0.5174 -0.6852
  941SOL    HW1 3762   0.315   2.298   2.066 -4.2324 -0.2504  1.9321
  941SOL    HW2 3763   0.179   2.289   1.983  1.6435  2.6061 -0.7327
  941SOL     MW 3764   0.233   2.328   2.045  0.2828 -0.0701 -0.3462
  942SOL     OW 3765   2.892   2.224   2.182  0.5166 -0.3754 -0.0130
  942SOL    HW1 3766   2.827   2.287   2.164  0.1445  0.9475  1.9621
  942SOL    HW2 3767   2.861   2.145   2.226 -0.3607  1.3027 -0.5879
  942SOL     MW 3768   2.879   2.222   2.186  0.3518  0.0205  0.1717
  943SOL     OW 3769   0.391   2.008   2.296  0.5713 -0.6825 -0.3952
  943SOL    HW1 3770   0.332   2.072   2.347 -2.4026  0.1288  0.3100
  943SOL    HW2 3771   0.478   2.028   2.329  1.9540 -0.1688 -3.1675
  943SOL     MW 3772   0.395   2.019   2.307  0.3613 -0.5077 -0.6679
  944SOL     OW 3773   2.118   2.623   2.065 -0.3340 -0.5474  0.8955
  944SOL    HW1 3774   2.163   2.564   2.128  1.3538  0.1280  1.8590
  944SOL    HW2 3775   2.089   2.705   2.105  1.0368  2.2273 -0.2841
  944SOL     MW 3776   2.120   2.626   2.079  0.0696 -0.0922  0.8670
  945SOL     OW 3777   2.783   2.715   2.826 -0.0296  0.1974  0.0619
  945SOL    HW1 3778   2.708   2.657   2.811 -0.7043 -2.4307 -1.7100
  945SOL    HW2 3779   2.822   2.726   2.736 -1.2661  3.0407  0.3504
  945SOL     MW 3780   2.778   2.709   2.812 -0.2818  0.2258 -0.1338
  946SOL     OW 3781   2.433   2.746   2.259  0.2156 -0.2884  0.2498
  946SOL    HW1 3782   2.479   2.780   2.184  1.2168 -0.9638  0.5950
  946SOL    HW2 3783   2.387   2.669   2.233 -2.2311  1.6132 -0.0397
  946SOL     MW 3784   2.433   2.740   2.246  0.0249 -0.1266  0.2571
  947SOL     OW 3785   2.025   0.029   0.245 -0.0764  0.4986 -0.3873
  947SOL    HW1 3786   2.060  -0.042   0.192 -3.4005  4.9803 -2.7206
  947SOL    HW2 3787   2.074   0.017   0.338 -0.5486 -2.1046  0.2024
  947SOL     MW 3788   2.036   0.018   0.250 -0.5773  0.7465 -0.6173
  948SOL     OW 3789   1.796   3.082   2.631 -0.1245 -0.0224  0.3439
  948SOL    HW1 3790   1.871   3.018   2.647 -1.2919  0.2312 -0.6829
  948SOL    HW2 3791   1.799   3.084   2.531  0.0701 -2.5125  0.7970
  948SOL     MW 3792   1.806   3.074   2.620 -0.2528 -0.3175  0.2682
  949SOL     OW 3793   2.554   2.021   2.288 -0.5231 -0.6694 -0.3884
  949SOL    HW1 3794   2.565   1.933   2.338  0.6537 -5.0663 -1.0908
  949SOL    HW2 3795   2.497   2.078   2.341 -1.2107  0.8620 -2.1012
  949SOL     MW 3796   2.548   2.017   2.302 -0.4585 -1.0475 -0.7070
  950SOL     OW 3797   2.213   2.570   3.020  0.8605 -0.0538 -0.1986
  950SOL    HW1 3798   2.278   2.507   2.975 -0.2758 -4.6037 -0.2369
  950SOL    HW2 3799   2.153   2.586   2.946  1.6603 -1.9883  2.7345
  950SOL     MW 3800   2.214   2.564   3.004  0.8161 -0.9093  0.1833
  951SOL     OW 3801   2.960   2.062   2.849 -0.3407 -0.2605 -0.1932
  951SOL    HW1 3802   3.012   2.127   2.898 -0.4191 -1.0753 -0.9639
  951SOL    HW2 3803   3.004   2.037   2.771  0.5631  2.7110 -1.0726
  951SOL     MW 3804   2.973   2.068   2.845 -0.2318  0.0241 -0.4109
  952SOL     OW 3805   3.073   1.697   2.093  0.0596 -0.5105  0.5649
  952SOL    HW1 3806   2.997   1.748   2.067  1.3324  0.4072 -0.6599
  952SOL    HW2 3807   3.147   1.761   2.090  1.2152 -0.1778  0.4782
  952SOL     MW 3808   3.072   1.712   2.089  0.3800 -0.3455  0.3919
  953SOL     OW 3809   1.964   1.798   2.927  0.2768  0.3794  0.7066
  953SOL    HW1 3810   1.873   1.758   2.934  1.3092 -4.1106  2.0802
  953SOL    HW2 3811   1.995   1.745   2.858  0.0325  1.7320 -0.4183
  953SOL     MW 3812   1.956   1.786   2.919  0.3808 -0.0345  0.7394
  954SOL     OW 3813   2.478   2.108   2.905  0.3188  0.2486 -0.1301
  954SOL    HW1 3814   2.397   2.071   2.878 -0.0089 -1.1448  2.2441
  954SOL    HW2 3815   2.537   2.087   2.836  0.9611  1.7183  0.1284
  954SOL     MW 3816   2.475   2.100   2.892  0.3603  0.2587  0.2173
  955SOL     OW 3817   1.572   1.624   2.529  0.4773  0.4354 -0.2891
  955SOL    HW1 3818   1.541   1.644   2.446 -1.1417 -1.5551 -0.8887
  955SOL    HW2 3819   1.649   1.674   2.528 -1.8503 -1.8113 -0.6617
  955SOL     MW 3820   1.578   1.633   2.518 -0.0434 -0.1236 -0.4174
  956SOL     OW 3821   2.628   2.477   2.851  0.1978  0.0049 -0.2937
  956SOL    HW1 3822   2.647   2.441   2.938  0.2157  1.3525 -2.2809
  956SOL    HW2 3823   2.685   2.423   2.799  0.3543 -0.0963 -1.0526
  956SOL     MW 3824   2.638   2.465   2.856  0.2208  0.1693 -0.6560
  957SOL     OW 3825   2.289   2.796   0.386 -0.4660  0.6006 -0.0041
  957SOL    HW1 3826   2.208   2.791   0.338  0.0310  1.2144 -0.0578
  957SOL    HW2 3827   2.269   2.761   0.475  2.0974 -3.5783  0.9022
  957SOL     MW 3828   2.275   2.791   0.391 -0.0622  0.1302  0.1084
  958SOL     OW 3829   2.014   2.679   2.805 -0.1057 -0.0272  0.3422
  958SOL    HW1 3830   1.980   2.596   2.755  0.3658  1.4592 -0.2059
  958SOL    HW2 3831   1.939   2.701   2.864  0.6820  0.2962 -0.3403
  958SOL     MW 3832   2.000   2.671   2.806  0.0605  0.2116  0.1798
  959SOL     OW 3833   2.428   2.579   0.305  0.2548 -0.0362  0.0315
  959SOL    HW1 3834   2.492   2.597   0.234  1.5211  2.5062 -3.3104
  959SOL    HW2 3835   2.380   2.663   0.324 -1.8053  1.7957 -0.7417
  959SOL     MW 3836   2.430   2.593   0.299  0.1500  0.5410 -0.5115
  960SOL     OW 3837   1.903   2.331   2.294 -0.0774 -0.7391 -0.3578
  960SOL    HW1 3838   1.850   2.257   2.276 -0.8324 -1.2744 -1.4643
  960SOL    HW2 3839   1.856   2.383   2.360 -0.6309  2.1456 -1.8946
  960SOL     MW 3840   1.890   2.328   2.301 -0.2500 -0.4291 -0.7066
  961SOL     OW 3841   2.172   2.334   2.361  0.1737 -0.6908 -0.1983
  961SOL    HW1 3842   2.076   2.316   2.348 -5.9596  0.6666  1.6518
  961SOL    HW2 3843   2.179   2.393   2.434 -0.5432 -2.4290 -0.0256
  961SOL     MW 3844   2.160   2.340   2.369 -0.7301 -0.7411  0.0686
  962SOL     OW 3845   2.229   2.040   2.819 -0.1795 -0.5200 -0.4663
  962SOL    HW1 3846   2.198   2.002   2.903  0.6297  0.3167 -0.8513
  962SOL    HW2 3847   2.218   1.973   2.756 -2.5119 -0.6198  1.5415
  962SOL     MW 3848   2.224   2.026   2.822 -0.3805 -0.4228 -0.2522
  963SOL     OW 3849   1.833   2.587   2.047  0.6012 -0.1000 -0.1553
  963SOL    HW1 3850   1.922   2.607   2.069 -0.6796 -0.4765 -3.5798
  963SOL    HW2 3851   1.834   2.497   2.013  1.1764  3.7294  1.0380
  963SOL     MW 3852   1.845   2.578   2.045  0.5081  0.3556 -0.4497
  964SOL     OW 3853   1.870   1.988   2.744  0.1557 -0.3822  0.4107
  964SOL    HW1 3854   1.950   2.045   2.730  1.3134 -0.3303  0.5399
  964SOL    HW2 3855   1.899   1.926   2.808 -1.4556  2.2323 -4.1705
  964SOL     MW 3856   1.884   1.987   2.751  0.0959 -0.0304 -0.1767
  965SOL     OW 3857   2.212   2.703   0.628  0.4483  0.6377  0.3469
  965SOL    HW1 3858   2.203   2.611   0.626  2.3605  1.1897  0.3861
  965SOL    HW2 3859   2.257   2.716   0.712  0.1467  0.4309  0.4521
  965SOL     MW 3860   2.216   2.692   0.639  0.6608  0.6832  0.3659
  966SOL     OW 3861   2.647   2.649   2.437 -0.8870 -0.1044 -0.0159
  966SOL    HW1 3862   2.590   2.696   2.379  1.4510 -1.0363 -0.5872
  966SOL    HW2 3863   2.666   2.556   2.402 -0.4744 -0.2653 -1.2778
  966SOL     MW 3864   2.642   2.643   2.425 -0.5240 -0.2486 -0.2577
  967SOL     OW 3865   2.876   3.029   2.898  0.4886  0.4654  0.0488
  967SOL    HW1 3866   2.866   2.937   2.926  2.6272  0.5690 -1.8314
  967SOL    HW2 3867   2.786   3.060   2.878  0.5903 -0.1413  0.3446
  967SOL     MW 3868   2.863   3.021   2.899  0.7842  0.3990 -0.1602
  968SOL     OW 3869   3.042   2.591   2.936  0.4568  0.1874 -0.7174
  968SOL    HW1 3870   2.959   2.634   2.930  1.1846 -2.6054  2.5966
  968SOL    HW2 3871   3.048   2.518   2.869  1.5338  0.1317  0.9390
  968SOL     MW 3872   3.032   2.587   2.927  0.6949 -0.1885 -0.0616
  969SOL     OW 3873   1.517   2.121   1.720 -0.1472  0.7539 -0.0564
  969SOL    HW1 3874   1.580   2.054   1.713  2.1405  0.7301 -1.5511
  969SOL    HW2 3875   1.483   2.116   1.811 -1.3173 -2.6084  0.9224
  969SOL     MW 3876   1.521   2.112   1.731  0.0002  0.3072 -0.1245
  970SOL     OW 3877   1.664   1.695   1.848  0.6864 -0.8168 -0.3654
  970SOL    HW1 3878   1.731   1.675   1.912 -0.0623  1.0380 -1.0813
  970SOL    HW2 3879   1.577   1.685   1.880  1.4178  0.3736  0.5718
  970SOL     MW 3880   1.661   1.691   1.860  0.6841 -0.4150 -0.3362
  971SOL     OW 3881   1.806   0.044   2.367 -0.5177 -0.5124  0.6637
  971SOL    HW1 3882   1.817   0.018   2.273  4.0405 -1.8740 -5.0275
  971SOL    HW2 3883   1.853   0.122   2.383  0.3618 -3.5876  0.7139
  971SOL     MW 3884   1.813   0.050   2.357  0.1998 -1.0978 -0.0806
  972SOL     OW 3885   0.285   2.800   2.522 -0.1294  0.1064 -0.5471
  972SOL    HW1 3886   0.320   2.713   2.517  0.2402  0.1448  0.2972
  972SOL    HW2 3887   0.345   2.872   2.548  1.0936 -0.2999  1.7926
  972SOL     MW 3888   0.297   2.798   2.525  0.0807  0.0579 -0.1270
  973SOL     OW 3889   2.633   0.021   2.082 -0.4952  0.5417 -0.2087
  973SOL    HW1 3890   2.607  -0.070   2.066 -2.4886 -0.0694  1.9896
  973SOL    HW2 3891   2.626   0.059   1.996  0.4515 -3.7391  1.1080
  973SOL     MW 3892   2.629   0.014   2.069 -0.6333 -0.1037  0.2551
  974SOL     OW 3893   2.107   0.280   2.791 -0.4456 -0.5364  0.1872
  974SOL    HW1 3894   2.186   0.229   2.771  1.9784  2.1426  0.3029
  974SOL    HW2 3895   2.038   0.222   2.822  0.4197  2.0560 -0.0241
  974SOL     MW 3896   2.109   0.265   2.792 -0.0116  0.1591  0.1746
  975SOL     OW 3897   2.203   2.550   2.529 -0.5514  0.5189 -0.3655
  975SOL    HW1 3898   2.279   2.590   2.568  1.1805  0.2483  0.2421
  975SOL    HW2 3899   2.149   2.624   2.500 -0.8101  0.3146  0.8977
  975SOL     MW 3900   2.206   2.565   2.530 -0.3570  0.4562 -0.1187
  976SOL     OW 3901   0.228   0.384   1.703  0.7393  0.9459  0.1411
  976SOL    HW1 3902   0.268   0.291   1.718  3.8469 -0.2897 -1.2995
  976SOL    HW2 3903   0.142   0.355   1.692  0.2679  1.0947  2.6762
  976SOL     MW 3904   0.222   0.368   1.704  1.0871  0.8025  0.2855
  977SOL     OW 3905   1.723   2.736   2.462  0.2217 -0.1322 -0.2503
  977SOL    HW1 3906   1.717   2.638   2.454  0.0073  2.2760  0.2120
  977SOL    HW2 3907   1.813   2.757   2.486 -0.4574 -0.1938  1.4388
  977SOL     MW 3908   1.734   2.726   2.464  0.1038  0.1774  0.0335
   3.10000   3.10000   3.10000
