977 TIP4P/2005f water molecules t=   0.69000 step= 690
 3908
    1SOL     OW    1   0.195   0.857   3.077  0.5900  0.6895 -0.8355
    1SOL    HW1    2   0.178   0.831   2.992 -0.2121 -0.6040 -0.0622
    1SOL    HW2    3   0.181   0.769   3.114  1.7827  0.3698 -0.3388
    1SOL     MW    4   0.191   0.842   3.071  0.6415  0.4766 -0.6679
    2SOL     OW    5   0.229   2.991   1.178  0.6111 -0.3888 -0.5807
    2SOL    HW1    6   0.298   3.055   1.164  0.5814  0.7772 -1.5169
    2SOL    HW2    7   0.152   3.043   1.197 -0.7855 -1.1670  0.0091
    2SOL     MW    8   0.228   3.006   1.178  0.4229 -0.3376 -0.6264
    3SOL     OW    9   2.661   0.394   0.927 -0.7108 -0.2282  0.2660
    3SOL    HW1   10   2.690   0.473   0.872 -2.2875  2.4222 -2.8222
    3SOL    HW2   11   2.638   0.438   1.007  1.2383 -0.6517 -1.9759
    3SOL     MW   12   2.662   0.410   0.930 -0.6617  0.0656 -0.4373
    4SOL     OW   13   3.050   1.704   0.599  0.2497 -0.0869 -0.2619
    4SOL    HW1   14   2.972   1.734   0.551  2.4484 -0.2619  1.6561
    4SOL    HW2   15   3.109   1.671   0.531  1.3196 -1.4040  0.2526
    4SOL     MW   16   3.048   1.703   0.583  0.6809 -0.2837  0.0591
    5SOL     OW   17   1.719   1.496   0.515  0.0998  0.2418 -0.2108
    5SOL    HW1   18   1.742   1.476   0.606 -1.0399  1.1286 -1.8587
    5SOL    HW2   19   1.632   1.452   0.502 -2.2797 -1.6130 -1.6491
    5SOL     MW   20   1.710   1.488   0.526 -0.3645  0.1141 -0.6180
    6SOL     OW   21   0.857   1.392   0.656  0.1583  0.3022 -0.2375
    6SOL    HW1   22   0.762   1.395   0.665  0.2025  2.1527 -2.3487
    6SOL    HW2   23   0.885   1.315   0.705 -2.3807 -0.4147 -2.4153
    6SOL     MW   24   0.848   1.383   0.663 -0.1709  0.4518 -0.8034
    7SOL     OW   25   1.996   1.130   0.010 -0.0504  0.2486 -0.0926
    7SOL    HW1   26   2.004   1.214  -0.040  3.0629  3.9175  2.2906
    7SOL    HW2   27   2.052   1.136   0.089 -0.8494 -0.9632  1.0018
    7SOL     MW   28   2.005   1.142   0.014  0.2550  0.5728  0.3662
    8SOL     OW   29   0.950   1.337   1.021 -0.0750  0.0011 -0.0156
    8SOL    HW1   30   1.038   1.315   1.035  0.0337 -1.9315  2.4178
    8SOL    HW2   31   0.905   1.283   1.089 -0.6546  4.5449  0.2120
    8SOL     MW   32   0.956   1.327   1.032 -0.1371  0.3456  0.3355
    9SOL     OW   33   1.047   0.458   1.353 -0.3216  0.3294  0.1418
    9SOL    HW1   34   0.971   0.394   1.349 -0.2828 -1.3502  1.2909
    9SOL    HW2   35   1.109   0.421   1.417  0.5982 -1.4063  1.4750
    9SOL     MW   36   1.045   0.445   1.361 -0.1951 -0.1212  0.4693
   10SOL     OW   37   0.275   0.806   0.439  0.6021 -0.3033  0.2653
   10SOL    HW1   38   0.365   0.815   0.404 -3.8189  1.1951  2.5023
   10SOL    HW2   39   0.279   0.834   0.533 -1.6668  1.7942  0.7833
   10SOL     MW   40   0.287   0.811   0.447 -0.2806  0.1711  0.6288
   11SOL     OW   41   0.772   1.177   1.682 -0.3850  0.6171 -0.5540
   11SOL    HW1   42   0.810   1.164   1.766 -1.2798 -1.3934  0.0697
   11SOL    HW2   43   0.779   1.080   1.645  0.3827  0.5937  2.0062
   11SOL     MW   44   0.778   1.163   1.688 -0.4018  0.3487 -0.1339
   12SOL     OW   45   3.087   1.067   0.880  0.1486 -0.1337 -0.3041
   12SOL    HW1   46   3.149   1.135   0.908  1.6586  1.0647  0.8534
   12SOL    HW2   47   3.023   1.119   0.824 -1.0009 -0.0084  1.0202
   12SOL     MW   48   3.086   1.083   0.876  0.1962  0.0410  0.0234
   13SOL     OW   49   1.854   1.412   1.337  0.2199 -0.1933  0.3083
   13SOL    HW1   50   1.892   1.356   1.265 -1.5601  0.2170  2.5175
   13SOL    HW2   51   1.876   1.505   1.326  1.1961 -1.7455 -0.5275
   13SOL     MW   52   1.862   1.417   1.326  0.1138 -0.3439  0.4895
   14SOL     OW   53   0.607   0.379   1.816 -0.0349  0.0768  0.9102
   14SOL    HW1   54   0.529   0.321   1.816  0.4507 -1.5807 -2.6435
   14SOL    HW2   55   0.680   0.330   1.858  0.2288 -0.5930 -0.4065
   14SOL     MW   56   0.606   0.365   1.822  0.0639 -0.2302  0.2676
   15SOL     OW   57   1.958   0.477   0.946  0.5808 -0.4112 -0.1834
   15SOL    HW1   58   1.955   0.513   1.036 -1.2494 -1.9146  0.4452
   15SOL    HW2   59   2.052   0.463   0.943  0.8452  0.2646  1.4326
   15SOL     MW   60   1.970   0.480   0.958  0.3742 -0.5204  0.1128
   16SOL     OW   61   0.244   1.844   0.339 -0.3827  0.0326 -0.2907
   16SOL    HW1   62   0.326   1.791   0.329  0.0987 -2.1032  0.3550
   16SOL    HW2   63   0.246   1.909   0.414 -1.9630  2.6399  1.4709
   16SOL     MW   64   0.255   1.846   0.348 -0.5277  0.0948  0.0269
   17SOL     OW   65   1.042   0.907   1.520  0.5186  0.3553  0.3002
   17SOL    HW1   66   1.091   0.859   1.584 -1.5688 -0.0835  0.8298
   17SOL    HW2   67   0.951   0.903   1.538 -0.6900  1.5175 -1.3447
   17SOL     MW   68   1.036   0.900   1.530  0.0837  0.4508  0.1530
   18SOL     OW   69   0.103   1.616   0.389 -0.0692 -0.0205  0.3343
   18SOL    HW1   70   0.141   1.704   0.378  0.2020 -1.2090 -0.2381
   18SOL    HW2   71   0.091   1.586   0.299 -1.8661 -1.4643 -0.3159
   18SOL     MW   72   0.106   1.623   0.375 -0.2705 -0.3678  0.1730
   19SOL     OW   73   0.108   1.308   0.980  0.5051 -0.1473 -0.0640
   19SOL    HW1   74   0.134   1.359   0.901  0.1644  1.0056  4.2417
   19SOL    HW2   75   0.020   1.332   0.994  0.1978 -1.0532  0.7080
   19SOL     MW   76   0.100   1.318   0.971  0.4196 -0.1147  0.6059
   20SOL     OW   77   0.410   2.133   1.205  0.1001 -0.1863 -0.2642
   20SOL    HW1   78   0.341   2.076   1.168 -0.2069 -1.4473  0.4406
   20SOL    HW2   79   0.372   2.175   1.278  1.8851  0.7064 -2.6837
   20SOL     MW   80   0.396   2.131   1.209  0.2951 -0.2349 -0.4904
   21SOL     OW   81   0.531   0.810   0.355  0.1120  0.1055 -0.1672
   21SOL    HW1   82   0.611   0.816   0.411  0.4110 -0.1208 -0.2257
   21SOL    HW2   83   0.566   0.757   0.284 -1.6446 -0.8805  2.1314
   21SOL     MW   84   0.546   0.804   0.353 -0.0803 -0.0544  0.1283
   22SOL     OW   85   1.472   0.604   1.123 -1.1210  0.9271 -0.6082
   22SOL    HW1   86   1.485   0.557   1.043  1.1559  2.2249  2.6142
   22SOL    HW2   87   1.398   0.664   1.109 -1.6114  0.5640 -0.7448
   22SOL     MW   88   1.463   0.606   1.110 -0.8853  1.0505 -0.2011
   23SOL     OW   89   0.012   0.776   0.648  0.2376  0.0147 -0.2669
   23SOL    HW1   90   0.049   0.731   0.724  0.4700 -0.6925 -1.9080
   23SOL    HW2   91   0.072   0.847   0.636  2.7508  1.7678  1.1663
   23SOL     MW   92   0.025   0.779   0.656  0.5998  0.1527 -0.2943
   24SOL     OW   93   2.011   2.220   0.100 -0.1810 -0.6204 -0.1023
   24SOL    HW1   94   2.037   2.197   0.189 -2.3713  1.5495  1.3403
   24SOL    HW2   95   2.047   2.147   0.050 -2.3163  0.2306 -0.7224
   24SOL     MW   96   2.019   2.207   0.105 -0.7517 -0.2218  0.0062
   25SOL     OW   97   0.197   1.370   0.529  0.1185  0.5934 -0.7110
   25SOL    HW1   98   0.176   1.444   0.472  2.7254  2.6079  0.9126
   25SOL    HW2   99   0.279   1.339   0.487 -2.2999 -0.2213  1.7140
   25SOL     MW  100   0.205   1.375   0.516  0.1434  0.7517 -0.1769
   26SOL     OW  101   1.998   0.972   0.394 -0.1398  0.5167 -0.4515
   26SOL    HW1  102   1.920   1.014   0.449  1.2750  3.1922 -0.6219
   26SOL    HW2  103   2.033   1.043   0.332 -0.2362  0.4866 -1.9770
   26SOL     MW  104   1.993   0.987   0.393  0.0341  0.8658 -0.6752
   27SOL     OW  105   2.056   1.412   0.207  0.3224  0.2411 -0.0590
   27SOL    HW1  106   1.978   1.383   0.258  0.5715 -0.4327  2.0472
   27SOL    HW2  107   2.103   1.465   0.274  0.3608  0.5613 -0.0725
   27SOL     MW  108   2.052   1.415   0.222  0.3603  0.1944  0.2171
   28SOL     OW  109   0.393   1.074   2.019  0.0391 -0.0665  0.5052
   28SOL    HW1  110   0.438   0.992   2.005  2.8047 -0.1944 -2.7082
   28SOL    HW2  111   0.318   1.044   2.069 -0.5249  0.4308  1.9718
   28SOL     MW  112   0.389   1.060   2.024  0.3296 -0.0178  0.2747
   29SOL     OW  113   0.210   1.465   0.781 -0.1258  0.0206 -0.8797
   29SOL    HW1  114   0.214   1.558   0.763  0.8774 -0.2681  0.5455
   29SOL    HW2  115   0.209   1.432   0.690  1.3910 -1.0132 -2.4259
   29SOL     MW  116   0.211   1.473   0.766  0.2067 -0.1539 -0.8957
   30SOL     OW  117   0.811   1.191   1.210 -0.2569  0.4293 -0.0895
   30SOL    HW1  118   0.742   1.228   1.266  0.4313 -0.3158  0.8415
   30SOL    HW2  119   0.889   1.168   1.268 -2.2143 -0.9173  1.3579
   30SOL     MW  120   0.812   1.193   1.225 -0.4244  0.1534  0.2243
   31SOL     OW  121   0.419   0.181   0.176  0.5893  0.2718  0.4562
   31SOL    HW1  122   0.423   0.131   0.258  1.4412 -1.1744 -2.2711
   31SOL    HW2  123   0.406   0.110   0.114 -0.8363  0.2924  0.8849
   31SOL     MW  124   0.418   0.165   0.178  0.5136  0.0837  0.1529
   32SOL     OW  125   2.791   1.000   1.133  0.0904 -0.0385 -0.1095
   32SOL    HW1  126   2.722   0.927   1.126 -1.4652 -0.0501  3.8045
   32SOL    HW2  127   2.871   0.959   1.097 -0.5653 -0.3579  2.4600
   32SOL     MW  128   2.792   0.985   1.127 -0.2013 -0.0821  0.7459
   33SOL     OW  129   1.837   1.313   0.358 -0.1897 -0.3564  0.0892
   33SOL    HW1  130   1.830   1.227   0.394  0.9014  0.0771 -0.8002
   33SOL    HW2  131   1.795   1.382   0.416  0.7688  0.0174  0.1846
   33SOL     MW  132   1.831   1.311   0.371  0.0808 -0.2499 -0.0156
   34SOL     OW  133   1.242   1.872   1.083 -0.3907  0.0482 -0.1017
   34SOL    HW1  134   1.159   1.916   1.095  2.0431 -0.4429 -1.3764
   34SOL    HW2  135   1.303   1.887   1.161  1.1009  1.3143  1.7474
   34SOL     MW  136   1.239   1.880   1.095  0.1272  0.1505 -0.0259
   35SOL     OW  137   0.406   0.163   1.860  1.0295 -0.0606  0.3117
   35SOL    HW1  138   0.381   0.116   1.938 -2.6263 -0.9676  0.1047
   35SOL    HW2  139   0.437   0.101   1.795  2.0551  4.1396 -0.2901
   35SOL     MW  140   0.407   0.149   1.862  0.6825  0.3739  0.2050
   36SOL     OW  141   1.846   1.941   0.494  0.4768  0.0605 -0.0938
   36SOL    HW1  142   1.869   1.935   0.404  1.2134  0.0304  1.8684
   36SOL    HW2  143   1.884   1.856   0.524  0.3721  1.4749 -0.5555
   36SOL     MW  144   1.854   1.929   0.486  0.5602  0.2431  0.1042
   37SOL     OW  145   1.758   1.988   1.033 -0.3406  0.7171 -0.6289
   37SOL    HW1  146   1.732   1.923   0.964  1.1262 -0.3857 -0.2987
   37SOL    HW2  147   1.678   2.033   1.055 -0.3706 -1.9776 -1.1248
   37SOL     MW  148   1.744   1.985   1.027 -0.1510  0.2161 -0.6507
   38SOL     OW  149   2.802   0.895   0.156 -0.4380 -0.0136 -0.1540
   38SOL    HW1  150   2.847   0.876   0.242 -0.3335 -0.9565 -1.0971
   38SOL    HW2  151   2.865   0.870   0.090 -0.6911  1.2993 -2.7161
   38SOL     MW  152   2.816   0.889   0.159 -0.4576  0.0352 -0.6165
   39SOL     OW  153   1.412   0.639   0.776  0.0419 -0.6155 -0.0813
   39SOL    HW1  154   1.375   0.548   0.782  0.7539  0.4379  2.0014
   39SOL    HW2  155   1.336   0.694   0.771  3.6298  1.1113 -0.8949
   39SOL     MW  156   1.397   0.634   0.776  0.6093 -0.2487  0.0862
   40SOL     OW  157   1.182   1.909   0.225 -1.0016 -0.5899  0.2252
   40SOL    HW1  158   1.217   1.841   0.285  0.7903 -0.1961  2.8838
   40SOL    HW2  159   1.149   1.979   0.287  0.0812  0.2458 -0.0572
   40SOL     MW  160   1.182   1.909   0.241 -0.6223 -0.4277  0.5387
   41SOL     OW  161   0.616   0.508   1.563 -0.4077  0.9768 -0.0822
   41SOL    HW1  162   0.709   0.538   1.561  0.3549  0.1106  0.3407
   41SOL    HW2  163   0.615   0.455   1.648  0.2295 -0.0700 -2.5344
   41SOL     MW  164   0.628   0.505   1.574 -0.2230  0.7244 -0.3500
   42SOL     OW  165   1.236   3.014   2.002 -0.2534  0.5571 -0.8658
   42SOL    HW1  166   1.147   2.983   2.022 -0.8286  0.1962  0.1243
   42SOL    HW2  167   1.290   2.938   1.995  0.8538  0.1001  1.3658
   42SOL     MW  168   1.231   3.000   2.004 -0.1832  0.4492 -0.4407
   43SOL     OW  169   1.553   0.127   1.753 -0.0299  0.1586 -0.4716
   43SOL    HW1  170   1.589   0.091   1.668 -2.9086 -1.0180 -1.3973
   43SOL    HW2  171   1.456   0.113   1.739  1.0499  1.2891 -1.9714
   43SOL     MW  172   1.545   0.121   1.740 -0.2672  0.1525 -0.7916
   44SOL     OW  173   1.255   0.754   1.079 -0.5606 -0.3299 -0.6207
   44SOL    HW1  174   1.237   0.828   1.024  0.3873 -0.5215  1.3977
   44SOL    HW2  175   1.195   0.763   1.158 -0.7781  1.1236 -0.8057
   44SOL     MW  176   1.245   0.765   1.082 -0.4642 -0.1634 -0.3788
   45SOL     OW  177   1.161   0.725   0.733  0.8424  1.0341 -0.1155
   45SOL    HW1  178   1.118   0.680   0.802 -0.1553  0.8937 -2.1480
   45SOL    HW2  179   1.123   0.670   0.662  0.1787  0.2850  0.2991
   45SOL     MW  180   1.150   0.712   0.732  0.6232  0.9168 -0.3289
   46SOL     OW  181   0.549   1.162   0.564 -0.0048 -0.7857  0.3351
   46SOL    HW1  182   0.516   1.141   0.480 -0.3697 -0.3218 -0.9114
   46SOL    HW2  183   0.642   1.146   0.553 -3.6533 -1.8420  0.0559
   46SOL     MW  184   0.557   1.157   0.552 -0.5343 -0.8639  0.1338
   47SOL     OW  185   0.162   1.922   1.784 -0.0315  0.1820  0.5253
   47SOL    HW1  186   0.228   1.858   1.758 -1.5247  3.1473 -0.6252
   47SOL    HW2  187   0.158   1.910   1.882  0.8751  2.7832 -0.4231
   47SOL     MW  188   0.170   1.912   1.794 -0.1089  0.9164  0.2484
   48SOL     OW  189   1.088   0.556   0.958  0.4474 -0.5855  0.0505
   48SOL    HW1  190   1.009   0.530   1.000  3.1834  0.2631 -0.6393
   48SOL    HW2  191   1.137   0.625   1.005  2.8099 -1.9067 -0.0136
   48SOL     MW  192   1.084   0.562   0.970  1.1201 -0.6479 -0.0490
   49SOL     OW  193   1.823   0.743   1.587  0.4443 -0.0912  0.0560
   49SOL    HW1  194   1.770   0.706   1.658  1.3426 -0.8852 -2.8610
   49SOL    HW2  195   1.877   0.669   1.547  1.0630 -0.0969 -0.8774
   49SOL     MW  196   1.823   0.728   1.591  0.6444 -0.1967 -0.4520
   50SOL     OW  197   1.184   1.075   0.525  0.3314  0.3461  0.0237
   50SOL    HW1  198   1.169   1.146   0.587 -0.2331 -0.8708 -2.3747
   50SOL    HW2  199   1.248   1.019   0.563  1.3308  2.1872  0.2517
   50SOL     MW  200   1.190   1.077   0.538  0.3887  0.4285 -0.2626
   51SOL     OW  201   0.304   2.891   0.941 -0.2262  0.4565  0.0837
   51SOL    HW1  202   0.393   2.860   0.968  1.3557 -3.6180  0.0438
   51SOL    HW2  203   0.271   2.926   1.023 -1.0996  1.6153  1.7030
   51SOL     MW  204   0.312   2.892   0.956 -0.1327  0.0718  0.2921
   52SOL     OW  205   0.811   1.834   0.453  0.5068  0.4230 -0.3580
   52SOL    HW1  206   0.761   1.911   0.472  1.4390 -0.7090  2.6263
   52SOL    HW2  207   0.807   1.817   0.358  1.7368 -0.4475  0.6267
   52SOL     MW  208   0.804   1.842   0.443  0.7921  0.1588  0.1657
   53SOL     OW  209   0.453   2.152   0.648 -0.1996  0.0405 -0.6148
   53SOL    HW1  210   0.396   2.112   0.582 -3.5000  1.1671 -0.8874
   53SOL    HW2  211   0.453   2.253   0.639 -2.5395 -0.4983  2.3984
   53SOL     MW  212   0.446   2.160   0.638 -0.9438  0.1180 -0.2532
   54SOL     OW  213   2.122   0.874   0.866 -0.8932 -0.0155  0.0132
   54SOL    HW1  214   2.153   0.868   0.778 -3.5335  1.2933 -1.1207
   54SOL    HW2  215   2.040   0.819   0.867 -1.4029 -0.5919 -0.6604
   54SOL     MW  216   2.115   0.866   0.855 -1.3088  0.0811 -0.2253
   55SOL     OW  217   0.584   1.523   1.637 -0.6339 -0.4061  0.4440
   55SOL    HW1  218   0.523   1.562   1.573 -0.8059  2.9150  1.2732
   55SOL    HW2  219   0.641   1.459   1.596  0.6113  0.5614 -1.1283
   55SOL     MW  220   0.583   1.520   1.623 -0.4923  0.1598  0.3460
   56SOL     OW  221   0.544   0.776   0.062  0.4055 -0.3693 -0.4736
   56SOL    HW1  222   0.570   0.867   0.054  1.3670  0.6540 -0.8963
   56SOL    HW2  223   0.448   0.767   0.049  1.4744  0.9602  1.4837
   56SOL     MW  224   0.535   0.787   0.059  0.6734 -0.0589 -0.2712
   57SOL     OW  225   1.214   1.221   1.111 -0.6605  0.4198 -0.8175
   57SOL    HW1  226   1.310   1.248   1.090  0.7708 -0.7757  1.7370
   57SOL    HW2  227   1.226   1.194   1.207 -0.0005 -1.6281  2.5177
   57SOL     MW  228   1.229   1.221   1.121 -0.3846 -0.0082 -0.0404
   58SOL     OW  229   0.533   1.172   1.300  0.0985 -0.4277  0.2491
   58SOL    HW1  230   0.509   1.259   1.253 -1.6085  0.8071 -0.8068
   58SOL    HW2  231   0.516   1.190   1.395 -1.3125 -0.9329 -2.0196
   58SOL     MW  232   0.527   1.186   1.306 -0.3129 -0.3314 -0.1895
   59SOL     OW  233   1.540   1.686   0.328  0.3775 -0.0413  0.1379
   59SOL    HW1  234   1.581   1.665   0.410 -1.2302  1.0450 -2.0156
   59SOL    HW2  235   1.453   1.730   0.346 -0.7743 -1.2183 -0.7418
   59SOL     MW  236   1.534   1.689   0.341  0.0134 -0.0533 -0.2623
   60SOL     OW  237   0.079   0.167   1.631  0.3658  0.5822 -1.2800
   60SOL    HW1  238  -0.011   0.182   1.648 -0.4732  0.7543  0.8664
   60SOL    HW2  239   0.100   0.092   1.684 -1.0377 -1.1343 -1.6722
   60SOL     MW  240   0.069   0.159   1.640  0.0699  0.3784 -1.0486
   61SOL     OW  241   2.056   1.464   3.045 -0.1974  0.2749  0.4833
   61SOL    HW1  242   2.051   1.480   3.143 -1.1299  3.6148 -0.3136
   61SOL    HW2  243   2.112   1.388   3.045 -1.5698 -0.2448  1.3179
   61SOL     MW  244   2.063   1.456   3.058 -0.5015  0.6470  0.4883
   62SOL     OW  245   0.595   1.715   0.637 -0.7647 -0.1299  0.6813
   62SOL    HW1  246   0.662   1.732   0.574  0.9245  1.5473 -1.9091
   62SOL    HW2  247   0.584   1.618   0.641 -1.5989  0.0155 -0.7855
   62SOL     MW  248   0.603   1.705   0.629 -0.6519  0.1106  0.1460
   63SOL     OW  249   1.669   0.702   0.739 -0.2376 -0.3318  0.0750
   63SOL    HW1  250   1.665   0.757   0.657  0.4943 -0.9216 -1.6324
   63SOL    HW2  251   1.578   0.676   0.743 -0.2438 -0.6452  0.1168
   63SOL     MW  252   1.657   0.705   0.729 -0.1419 -0.4510 -0.1447
   64SOL     OW  253   0.265   1.717   0.741 -0.2510  0.4409  0.2323
   64SOL    HW1  254   0.324   1.785   0.775 -1.5666 -1.4997  1.1710
   64SOL    HW2  255   0.192   1.769   0.708 -4.0401  1.4862 -1.9407
   64SOL     MW  256   0.263   1.733   0.742 -0.9245  0.3228  0.0694
   65SOL     OW  257   1.543   2.354   0.408 -0.1641 -0.0619  0.5813
   65SOL    HW1  258   1.635   2.364   0.393 -1.0381  0.5259  2.8896
   65SOL    HW2  259   1.521   2.386   0.493 -0.7139  1.0740 -3.1903
   65SOL     MW  260   1.552   2.359   0.417 -0.3519  0.1655  0.3882
   66SOL     OW  261   0.296   0.550   0.573 -0.1194  0.0510 -0.0192
   66SOL    HW1  262   0.344   0.489   0.519 -0.1855  2.3767 -0.9718
   66SOL    HW2  263   0.305   0.634   0.523  1.1009 -0.7908 -2.3130
   66SOL     MW  264   0.304   0.553   0.559  0.0329  0.2468 -0.4476
   67SOL     OW  265   1.496   0.083   2.028  0.9334 -0.1134  0.3385
   67SOL    HW1  266   1.535   0.092   1.939 -2.0783 -1.9461 -0.8391
   67SOL    HW2  267   1.425   0.023   2.024  0.1426  1.0972  1.0133
   67SOL     MW  268   1.492   0.076   2.016  0.4317 -0.1955  0.2722
   68SOL     OW  269   0.642   0.104   2.948  0.1120  0.8479  0.0477
   68SOL    HW1  270   0.633   0.139   2.862 -0.1834 -1.2433 -1.5190
   68SOL    HW2  271   0.672   0.182   2.995 -0.5937 -0.1845 -0.3542
   68SOL     MW  272   0.645   0.119   2.943 -0.0201  0.4358 -0.2120
   69SOL     OW  273   0.994   0.175   1.999  0.0120  0.1191  0.3950
   69SOL    HW1  274   1.090   0.197   2.000  2.8048  1.1597  2.3460
   69SOL    HW2  275   0.985   0.080   2.004 -0.5421 -1.6510 -0.6367
   69SOL     MW  276   1.006   0.165   2.000  0.3074  0.0229  0.5163
   70SOL     OW  277   0.525   1.714   1.121 -0.0005  0.0093 -0.4590
   70SOL    HW1  278   0.560   1.673   1.204  1.9376  0.8958  1.3885
   70SOL    HW2  279   0.600   1.738   1.073 -0.9881  0.7322  0.7192
   70SOL     MW  280   0.540   1.712   1.125  0.1249  0.2216 -0.0598
   71SOL     OW  281   1.636   0.546   1.320  0.2525 -0.0768  0.2002
   71SOL    HW1  282   1.591   0.592   1.391 -1.0214 -2.0346  0.9981
   71SOL    HW2  283   1.578   0.573   1.242 -1.6039 -0.8838  0.1168
   71SOL     MW  284   1.622   0.555   1.319 -0.1606 -0.4416  0.2945
   72SOL     OW  285   0.772   1.773   0.982 -0.2880  0.2976  0.2670
   72SOL    HW1  286   0.738   1.818   0.908 -2.5607  0.6537  0.5940
   72SOL    HW2  287   0.768   1.677   0.966  2.1954 -0.3427 -2.6927
   72SOL     MW  288   0.767   1.766   0.970 -0.2602  0.2601 -0.0804
   73SOL     OW  289   1.168   0.704   1.363 -0.4405  0.3603  0.0771
   73SOL    HW1  290   1.106   0.630   1.356  0.2266 -1.5952 -0.2022
   73SOL    HW2  291   1.128   0.767   1.421 -1.5362 -1.5378 -0.8005
   73SOL     MW  292   1.154   0.702   1.370 -0.4971 -0.1481 -0.0755
   74SOL     OW  293   2.810   0.179   0.945 -0.2276 -0.1541 -0.0153
   74SOL    HW1  294   2.808   0.159   0.855 -0.8399  0.1286  1.0240
   74SOL    HW2  295   2.760   0.264   0.941 -2.3688 -0.3412 -0.7521
   74SOL     MW  296   2.803   0.187   0.932 -0.5909 -0.1415  0.0246
   75SOL     OW  297   1.669   1.373   0.094 -0.4431  0.3329 -0.3410
   75SOL    HW1  298   1.710   1.430   0.158 -0.1368 -1.5682 -1.1276
   75SOL    HW2  299   1.709   1.283   0.092 -0.0266 -2.2437 -0.4879
   75SOL     MW  300   1.680   1.369   0.102 -0.3478 -0.2579 -0.4642
   76SOL     OW  301   3.012   0.617   0.430  0.6021 -0.3245  0.2961
   76SOL    HW1  302   3.071   0.682   0.472 -0.9244  0.4044  1.0912
   76SOL    HW2  303   3.070   0.546   0.411 -0.3854  1.7076  0.0564
   76SOL     MW  304   3.027   0.616   0.433  0.2704  0.0398  0.3694
   77SOL     OW  305   0.815   0.552   0.410 -0.7835  0.4386 -0.3889
   77SOL    HW1  306   0.787   0.554   0.321 -0.1795 -1.7308 -0.1852
   77SOL    HW2  307   0.762   0.481   0.454  0.1171 -1.7507 -0.2606
   77SOL     MW  308   0.805   0.543   0.404 -0.5850 -0.1365 -0.3451
   78SOL     OW  309   0.748   0.891   1.285 -0.1003  0.2000 -0.0786
   78SOL    HW1  310   0.714   0.972   1.246 -0.4361 -1.8266  2.6309
   78SOL    HW2  311   0.772   0.849   1.203 -2.5098  1.0183  0.9665
   78SOL     MW  312   0.747   0.896   1.269 -0.4625  0.0406  0.4167
   79SOL     OW  313   1.920   1.693   0.597  0.5357 -0.4968 -0.3254
   79SOL    HW1  314   1.826   1.669   0.574  0.0962 -1.1539  0.5946
   79SOL    HW2  315   1.925   1.716   0.693 -1.5049 -0.6667 -4.1811
   79SOL     MW  316   1.908   1.693   0.607  0.2085 -0.6059 -0.7127
   80SOL     OW  317   0.075   0.950   0.298 -0.1754 -0.4404  0.1627
   80SOL    HW1  318  -0.015   0.916   0.336 -1.3423 -0.0406 -1.2025
   80SOL    HW2  319   0.129   0.876   0.331  0.1089 -0.6704 -0.7188
   80SOL     MW  320   0.070   0.936   0.308 -0.2919 -0.4180 -0.1338
   81SOL     OW  321   1.896   1.906   0.244 -0.7735 -0.0310 -0.1767
   81SOL    HW1  322   1.853   1.826   0.202  0.5866 -1.6022 -0.0881
   81SOL    HW2  323   1.828   1.969   0.226  2.2316 -1.6656  0.1970
   81SOL     MW  324   1.881   1.904   0.236 -0.1975 -0.4540 -0.1157
   82SOL     OW  325   0.820   1.070   0.526  0.5001 -0.4419 -0.0571
   82SOL    HW1  326   0.821   1.100   0.436 -2.7591 -1.5209 -0.3984
   82SOL    HW2  327   0.826   0.980   0.518 -1.2674 -0.6792  1.5019
   82SOL     MW  328   0.821   1.062   0.513 -0.1631 -0.6156  0.1036
   83SOL     OW  329   0.133   0.586   1.345 -0.6152  0.3654  0.5334
   83SOL    HW1  330   0.133   0.670   1.309 -1.9056 -1.8914  0.8355
   83SOL    HW2  331   0.213   0.594   1.400  0.1856  0.3299 -1.1510
   83SOL     MW  332   0.144   0.598   1.347 -0.6798  0.0629  0.3510
   84SOL     OW  333   0.073   0.250   0.921 -0.0224  0.8166  0.2942
   84SOL    HW1  334   0.013   0.293   0.855 -0.1139 -0.1508 -0.1965
   84SOL    HW2  335   0.020   0.202   0.987  0.2845  1.6875  2.1689
   84SOL     MW  336   0.058   0.249   0.921  0.0061  0.8039  0.4768
   85SOL     OW  337   0.480   0.434   0.750 -0.5558 -0.0773 -0.5855
   85SOL    HW1  338   0.408   0.468   0.705  0.3299 -6.1869 -0.7280
   85SOL    HW2  339   0.452   0.349   0.778  1.5396  1.2280  0.5237
   85SOL     MW  340   0.467   0.427   0.748 -0.1625 -0.7112 -0.4579
   86SOL     OW  341   1.223   0.346   1.083  0.1699 -0.3998  0.2994
   86SOL    HW1  342   1.164   0.415   1.053 -0.4449 -0.4782 -1.6350
   86SOL    HW2  343   1.250   0.368   1.176 -1.3211  1.2373  0.5794
   86SOL     MW  344   1.219   0.358   1.092 -0.1079 -0.1941  0.0811
   87SOL     OW  345   1.139   1.430   1.294  0.0601 -0.2727  0.2924
   87SOL    HW1  346   1.177   1.511   1.249  2.6113 -0.5376  1.7562
   87SOL    HW2  347   1.149   1.370   1.217  1.3801 -0.9468  1.3961
   87SOL     MW  348   1.145   1.433   1.278  0.5708 -0.3966  0.6311
   88SOL     OW  349   1.208   0.994   0.948 -0.0931  0.0068 -1.0652
   88SOL    HW1  350   1.302   0.980   0.928  2.1607 -0.2281 -1.4330
   88SOL    HW2  351   1.203   1.071   1.010  1.5522 -1.7691  1.0805
   88SOL     MW  352   1.220   1.002   0.953  0.4213 -0.2585 -0.8306
   89SOL     OW  353   1.762   0.676   0.338  0.3451  0.0272  0.8494
   89SOL    HW1  354   1.802   0.585   0.349 -0.9006  0.7857 -2.4284
   89SOL    HW2  355   1.839   0.728   0.318 -1.6045  0.2726 -2.2213
   89SOL     MW  356   1.777   0.671   0.337 -0.0765  0.1597  0.0118
   90SOL     OW  357   0.687   1.163   2.794  0.0581 -0.0363 -0.1349
   90SOL    HW1  358   0.746   1.078   2.816  5.5021 -1.8869 -2.1661
   90SOL    HW2  359   0.674   1.213   2.873  0.2619  0.2527 -1.0882
   90SOL     MW  360   0.693   1.159   2.808  0.8032 -0.2423 -0.5287
   91SOL     OW  361   2.195   0.645   0.537  0.0941  0.1965  0.2437
   91SOL    HW1  362   2.228   0.721   0.491 -0.8542  1.9681 -0.7554
   91SOL    HW2  363   2.210   0.575   0.473 -2.4106  0.9369  0.8362
   91SOL     MW  364   2.202   0.646   0.522 -0.3615  0.5279  0.1901
   92SOL     OW  365   1.626   0.844   0.514 -0.0272 -0.3612  0.5078
   92SOL    HW1  366   1.529   0.839   0.508  1.3666 -0.9315  0.2420
   92SOL    HW2  367   1.658   0.772   0.455  1.4479  0.6220 -1.0398
   92SOL     MW  368   1.618   0.834   0.505  0.3513 -0.3068  0.2685
   93SOL     OW  369   1.005   0.303   0.392 -0.5159 -0.9169  0.3456
   93SOL    HW1  370   0.925   0.343   0.359  0.0272  1.0713  1.4141
   93SOL    HW2  371   1.056   0.298   0.311  0.0602 -0.0537  0.6182
   93SOL     MW  372   1.001   0.308   0.377 -0.3682 -0.5407  0.5226
   94SOL     OW  373   1.865   1.408   1.621 -0.4791  1.2649  0.0987
   94SOL    HW1  374   1.869   1.392   1.526 -1.4880 -0.8846 -2.6161
   94SOL    HW2  375   1.849   1.326   1.663  0.2990 -0.7953  0.4168
   94SOL     MW  376   1.864   1.395   1.614 -0.5096  0.7095 -0.2176
   95SOL     OW  377   0.747   1.505   0.989  0.7136 -0.1265  0.0644
   95SOL    HW1  378   0.816   1.440   1.008 -0.9125  0.2297 -1.1537
   95SOL    HW2  379   0.676   1.460   0.941  2.6438 -1.5179 -2.0058
   95SOL     MW  380   0.747   1.491   0.985  0.7537 -0.2631 -0.3694
   96SOL     OW  381   1.242   1.846   1.638 -0.6111  0.2018  0.4017
   96SOL    HW1  382   1.161   1.828   1.676  1.8716  2.9670 -0.5294
   96SOL    HW2  383   1.267   1.759   1.590  2.2443 -2.6526  0.5653
   96SOL     MW  384   1.234   1.832   1.637  0.0932  0.1900  0.3005
   97SOL     OW  385   1.271   1.439   0.811  0.0459 -0.1269 -0.4654
   97SOL    HW1  386   1.291   1.462   0.904  3.0707 -0.3894  2.5090
   97SOL    HW2  387   1.192   1.491   0.785 -1.4279  0.0656  1.2888
   97SOL     MW  388   1.264   1.449   0.820  0.2506 -0.1361  0.1585
   98SOL     OW  389   1.467   1.299   1.055 -0.2426 -0.3327  0.0085
   98SOL    HW1  390   1.506   1.358   1.112 -0.0496 -0.3238 -0.7617
   98SOL    HW2  391   1.491   1.326   0.967 -1.3159 -0.4483  0.1368
   98SOL     MW  392   1.475   1.310   1.051 -0.3587 -0.3467 -0.0762
   99SOL     OW  393   1.368   0.379   1.352 -0.1766  0.0221  0.3421
   99SOL    HW1  394   1.423   0.440   1.306 -0.6234  0.2506  1.5359
   99SOL    HW2  395   1.409   0.380   1.439 -1.1962  0.4598 -0.8365
   99SOL     MW  396   1.381   0.387   1.358 -0.3700  0.1100  0.3441
  100SOL     OW  397   1.030   1.155   1.376 -0.3495  0.0802 -0.5856
  100SOL    HW1  398   1.001   1.215   1.444  0.5631  2.2196 -0.9998
  100SOL    HW2  399   1.040   1.069   1.424 -1.0572 -0.3643  0.0519
  100SOL     MW  400   1.027   1.152   1.391 -0.3225  0.3038 -0.5561
  101SOL     OW  401   0.515   1.078   0.302 -0.6099  0.0912  0.5917
  101SOL    HW1  402   0.498   0.986   0.323  2.2918  1.8090  2.8326
  101SOL    HW2  403   0.476   1.095   0.223  0.2615  0.0047  0.5939
  101SOL     MW  404   0.507   1.068   0.294 -0.1121  0.3064  0.8876
  102SOL     OW  405   2.930   0.594   0.989 -0.5940 -0.4862 -0.0693
  102SOL    HW1  406   2.955   0.682   1.030 -1.5652 -1.0850  0.8919
  102SOL    HW2  407   2.998   0.540   1.033 -1.9071  0.8219  1.2303
  102SOL     MW  408   2.942   0.598   1.000 -0.8954 -0.3926  0.2290
  103SOL     OW  409   1.755   0.375   1.823 -0.4239 -0.1378 -0.4602
  103SOL    HW1  410   1.709   0.290   1.800  1.7028 -1.4274 -1.7568
  103SOL    HW2  411   1.798   0.354   1.899 -2.6558  2.9087 -2.5965
  103SOL     MW  412   1.755   0.361   1.830 -0.4378  0.0940 -0.9131
  104SOL     OW  413   0.140   1.758   1.548 -0.7976 -0.4361  0.2093
  104SOL    HW1  414   0.092   1.704   1.619 -1.2450  1.1023 -0.1028
  104SOL    HW2  415   0.125   1.729   1.457  0.7537  0.6191  0.3885
  104SOL     MW  416   0.132   1.747   1.545 -0.6519 -0.0939  0.1918
  105SOL     OW  417   0.021   1.163   0.496 -0.1368 -0.1538 -0.3535
  105SOL    HW1  418   0.066   1.096   0.443 -0.8976 -2.8580  0.1615
  105SOL    HW2  419   0.077   1.241   0.501 -0.4256  0.6776  0.5559
  105SOL     MW  420   0.034   1.164   0.490 -0.2753 -0.4009 -0.1656
  106SOL     OW  421   0.873   0.370   1.038  0.2269 -0.2571 -0.1876
  106SOL    HW1  422   0.817   0.429   0.989 -1.9348 -0.0320 -0.6053
  106SOL    HW2  423   0.911   0.325   0.965 -0.8678  0.9908  0.2423
  106SOL     MW  424   0.871   0.372   1.022 -0.2028 -0.0627 -0.1860
  107SOL     OW  425   0.765   2.156   2.981  0.2499  0.1700 -0.3375
  107SOL    HW1  426   0.694   2.098   2.943  1.5802  3.0229 -1.1282
  107SOL    HW2  427   0.766   2.127   3.072 -0.5748 -0.3949  0.0660
  107SOL     MW  428   0.756   2.145   2.988  0.3166  0.4719 -0.3886
  108SOL     OW  429   1.312   1.543   1.507 -0.4486  0.3239  0.4551
  108SOL    HW1  430   1.240   1.480   1.477 -1.2917 -1.5131 -1.8058
  108SOL    HW2  431   1.353   1.507   1.590 -0.6609 -1.6517  0.4783
  108SOL     MW  432   1.308   1.530   1.514 -0.5879 -0.1791  0.1599
  109SOL     OW  433   1.992   0.767   0.178 -0.4526  0.3845 -0.0881
  109SOL    HW1  434   2.029   0.803   0.094  4.7108  1.9351 -0.1041
  109SOL    HW2  435   2.019   0.820   0.250  0.7727 -0.9251  2.3137
  109SOL     MW  436   2.001   0.779   0.177  0.3903  0.4163  0.2267
  110SOL     OW  437   0.462   1.910   0.777  0.6341 -0.0250 -0.1787
  110SOL    HW1  438   0.531   1.852   0.740 -2.8249 -1.7074 -2.0193
  110SOL    HW2  439   0.481   1.997   0.734 -3.0051  0.6835  3.3554
  110SOL     MW  440   0.473   1.914   0.767 -0.3024 -0.1535  0.0447
  111SOL     OW  441   0.758   0.936   1.542  0.1699 -0.0395  0.5284
  111SOL    HW1  442   0.765   0.913   1.446  1.1841 -1.3647  0.1633
  111SOL    HW2  443   0.672   0.901   1.568  0.9755 -2.0981 -1.8320
  111SOL     MW  444   0.748   0.928   1.533  0.4100 -0.4859  0.1688
  112SOL     OW  445   1.335   1.057   1.609 -0.2021  0.0069 -0.1138
  112SOL    HW1  446   1.264   1.123   1.626 -1.2361  0.5291  0.9435
  112SOL    HW2  447   1.300   0.967   1.621  0.8021 -2.0002 -0.6614
  112SOL     MW  448   1.321   1.054   1.613 -0.2060 -0.1890 -0.0466
  113SOL     OW  449   1.295   0.035   1.743  0.6087  0.1999  0.0272
  113SOL    HW1  450   1.278  -0.019   1.822 -3.3824  0.0082  0.2623
  113SOL    HW2  451   1.298  -0.027   1.662  2.7350  0.4196  0.5955
  113SOL     MW  452   1.293   0.020   1.743  0.3627  0.2036  0.1332
  114SOL     OW  453   0.368   2.853   1.943 -0.9780 -0.1199  0.1805
  114SOL    HW1  454   0.387   2.913   2.015 -1.1470  1.1943 -0.5994
  114SOL    HW2  455   0.336   2.920   1.876 -0.9932  2.1332 -0.2602
  114SOL     MW  456   0.366   2.870   1.944 -1.0023  0.3508  0.0195
  115SOL     OW  457   0.504   0.827   1.128  0.2947  0.0514  0.5309
  115SOL    HW1  458   0.510   0.733   1.122  0.3712 -0.5031  1.4565
  115SOL    HW2  459   0.481   0.834   1.219  4.1049  3.2470  2.8867
  115SOL     MW  460   0.502   0.816   1.139  0.8075  0.3999  0.9639
  116SOL     OW  461   0.782   1.007   1.021 -0.0312  0.1418  0.1453
  116SOL    HW1  462   0.808   1.068   0.954  0.3127  0.2733 -1.9849
  116SOL    HW2  463   0.782   1.062   1.101  0.5665  0.3858  2.4448
  116SOL     MW  464   0.785   1.022   1.023  0.0930  0.1913  0.1676
  117SOL     OW  465   1.148   1.211   0.764 -0.7686 -0.1462  0.6313
  117SOL    HW1  466   1.178   1.134   0.809  1.0084 -0.6978  0.3173
  117SOL    HW2  467   1.209   1.287   0.788  0.0894  2.5244  0.3046
  117SOL     MW  468   1.160   1.211   0.773 -0.4209  0.1334  0.5467
  118SOL     OW  469   3.039   2.912   1.701  0.1313 -0.2657  0.3641
  118SOL    HW1  470   3.105   2.970   1.742  1.2661  0.0139 -1.3281
  118SOL    HW2  471   2.949   2.949   1.717  2.3984 -2.6091  2.6153
  118SOL     MW  472   3.036   2.925   1.708  0.5801 -0.5380  0.4378
  119SOL     OW  473   0.455   1.414   1.212  0.2862  0.3404 -0.3289
  119SOL    HW1  474   0.465   1.472   1.140 -0.1082 -0.1007  1.4574
  119SOL    HW2  475   0.355   1.405   1.211  2.9163  3.3438  0.1870
  119SOL     MW  476   0.443   1.420   1.202  0.5812  0.6785 -0.0251
  120SOL     OW  477   0.281   0.703   0.987 -0.0042 -0.0402 -0.2500
  120SOL    HW1  478   0.283   0.620   1.030  1.7350  0.4323 -0.7314
  120SOL    HW2  479   0.362   0.743   1.015 -0.7314  1.0339 -0.9713
  120SOL     MW  480   0.292   0.697   0.996  0.1293  0.1639 -0.4087
  121SOL     OW  481   1.793   1.154   1.715 -0.7533  0.1868 -0.2827
  121SOL    HW1  482   1.705   1.125   1.736 -1.6446 -0.9758 -0.3423
  121SOL    HW2  483   1.822   1.098   1.640 -0.2611  0.1877 -0.2879
  121SOL     MW  484   1.785   1.143   1.708 -0.8059  0.0335 -0.2913
  122SOL     OW  485   0.128   0.582   0.796 -0.6817 -0.6810 -0.0517
  122SOL    HW1  486   0.196   0.553   0.737  0.6226 -0.4553  2.1325
  122SOL    HW2  487   0.179   0.615   0.870 -0.4540 -2.3840 -1.7706
  122SOL     MW  488   0.144   0.583   0.798 -0.4795 -0.8759  0.0097
  123SOL     OW  489   1.808   1.076   0.580  0.0945 -0.3703 -0.2196
  123SOL    HW1  490   1.736   1.014   0.581  0.6541 -1.5375  1.6232
  123SOL    HW2  491   1.861   1.062   0.661  0.3168 -1.4142  2.7615
  123SOL     MW  492   1.805   1.066   0.591  0.1977 -0.6620  0.4169
  124SOL     OW  493   0.675   0.527   0.922  0.6344  0.1446 -0.2270
  124SOL    HW1  494   0.619   0.480   0.859  0.8219 -0.3233  0.5980
  124SOL    HW2  495   0.691   0.617   0.886  0.6378 -1.5150 -0.7138
  124SOL     MW  496   0.670   0.533   0.909  0.6596 -0.1361 -0.1824
  125SOL     OW  497   0.700   1.760   1.707 -0.1142  0.4939  0.0813
  125SOL    HW1  498   0.654   1.678   1.680  0.4056 -0.7205 -0.3324
  125SOL    HW2  499   0.638   1.829   1.696  3.7534 -0.4518 -0.6296
  125SOL     MW  500   0.686   1.759   1.702  0.4646  0.2089 -0.0671
  126SOL     OW  501   2.137   1.602   1.949  0.0339 -0.2672  0.0763
  126SOL    HW1  502   2.200   1.674   1.922  2.5309 -0.7397  1.5454
  126SOL    HW2  503   2.193   1.521   1.966 -0.9010 -2.6713 -1.1631
  126SOL     MW  504   2.152   1.601   1.948  0.2400 -0.6467  0.1066
  127SOL     OW  505   0.693   0.783   1.864  0.1371  0.9734 -0.2047
  127SOL    HW1  506   0.754   0.720   1.912 -2.3334  1.0538  0.2526
  127SOL    HW2  507   0.705   0.863   1.915 -0.0958  1.8955  0.8126
  127SOL     MW  508   0.702   0.785   1.877 -0.2196  1.1057 -0.0101
  128SOL     OW  509   1.843   0.767   2.916  0.3945 -0.4011  0.9221
  128SOL    HW1  510   1.863   0.748   2.825 -0.6828 -1.6609  1.9269
  128SOL    HW2  511   1.794   0.850   2.918  1.8632 -0.6660 -2.7210
  128SOL     MW  512   1.839   0.776   2.904  0.4461 -0.6023  0.5740
  129SOL     OW  513   1.637   0.931   0.183  0.4623 -0.2217  0.6262
  129SOL    HW1  514   1.574   0.863   0.185  0.5282 -0.0608  0.3403
  129SOL    HW2  515   1.691   0.917   0.261 -0.2704  0.4421 -0.5677
  129SOL     MW  516   1.636   0.920   0.193  0.3743 -0.1129  0.4310
  130SOL     OW  517   0.761   1.379   0.390 -0.8007 -0.9088 -0.4439
  130SOL    HW1  518   0.801   1.410   0.469  3.1113  4.4100 -0.9178
  130SOL    HW2  519   0.818   1.410   0.325 -1.3242 -1.7882  0.3240
  130SOL     MW  520   0.774   1.387   0.392 -0.3536 -0.3231 -0.4051
  131SOL     OW  521   3.004   0.839   3.052 -0.4135  0.0146  0.2642
  131SOL    HW1  522   2.987   0.890   2.972  1.1523 -0.2281 -1.6471
  131SOL    HW2  523   3.099   0.850   3.066 -2.0102 -0.6231 -3.1491
  131SOL     MW  524   3.014   0.847   3.043 -0.4176 -0.1016 -0.4383
  132SOL     OW  525   2.747   0.155   1.208 -0.6210  0.6063 -0.3757
  132SOL    HW1  526   2.789   0.149   1.120  0.3059 -1.4927  2.0264
  132SOL    HW2  527   2.648   0.157   1.205 -0.4360  0.8861  1.9124
  132SOL     MW  528   2.739   0.155   1.196 -0.4743  0.3663  0.2431
  133SOL     OW  529   1.032   0.167   1.719  0.0403 -0.0120 -0.1669
  133SOL    HW1  530   1.103   0.104   1.727 -0.3906 -0.0258 -0.0402
  133SOL    HW2  531   0.996   0.172   1.807  0.9220 -0.4889 -0.0134
  133SOL     MW  532   1.036   0.159   1.731  0.0998 -0.0768 -0.1299
  134SOL     OW  533   1.418   2.517   1.421  0.1794 -0.4777 -0.2173
  134SOL    HW1  534   1.349   2.581   1.405 -0.0929  0.5941 -1.1695
  134SOL    HW2  535   1.469   2.552   1.495 -0.0882 -1.3866  4.3287
  134SOL     MW  536   1.415   2.530   1.429  0.1081 -0.4562  0.2569
  135SOL     OW  537   3.055   1.032   2.833  0.0867 -0.0884 -0.0654
  135SOL    HW1  538   3.119   1.096   2.868  1.5666  4.7386 -0.1827
  135SOL    HW2  539   2.973   1.075   2.860 -2.3980 -0.1281 -0.1140
  135SOL     MW  540   3.053   1.046   2.841 -0.0459  0.5432 -0.0873
  136SOL     OW  541   0.258   2.057   0.905 -0.5521  0.0741  0.7535
  136SOL    HW1  542   0.174   2.017   0.879  2.2226  1.2591  0.1226
  136SOL    HW2  543   0.319   2.004   0.848  0.4101 -0.6649 -0.8580
  136SOL     MW  544   0.255   2.044   0.894 -0.0591  0.1330  0.4576
  137SOL     OW  545   0.684   2.074   0.536 -0.6350 -0.0467  0.3709
  137SOL    HW1  546   0.741   2.076   0.617 -1.3630  0.4733 -0.3017
  137SOL    HW2  547   0.589   2.094   0.564  0.5757 -0.3081  1.5397
  137SOL     MW  548   0.679   2.077   0.550 -0.5713 -0.0126  0.4363
  138SOL     OW  549   0.505   0.538   1.132 -0.1311  0.4936 -0.7533
  138SOL    HW1  550   0.426   0.484   1.099 -0.5544  2.0731  0.3484
  138SOL    HW2  551   0.555   0.539   1.052  1.9460 -1.3516  0.5783
  138SOL     MW  552   0.501   0.531   1.117  0.0871  0.4585 -0.4322
  139SOL     OW  553   2.740   0.579   1.379  1.0017 -0.0916 -0.0920
  139SOL    HW1  554   2.784   0.497   1.358 -1.2142  3.3849 -0.6013
  139SOL    HW2  555   2.813   0.632   1.418 -1.0085 -1.4003  1.9130
  139SOL     MW  556   2.756   0.575   1.381  0.4441  0.1944  0.1053
  140SOL     OW  557   0.813   0.367   2.077 -0.7603 -0.3734  0.4011
  140SOL    HW1  558   0.858   0.291   2.047 -1.3498  0.0578  0.0658
  140SOL    HW2  559   0.864   0.379   2.156 -2.3119 -0.2233  0.3787
  140SOL     MW  560   0.826   0.359   2.083 -1.0428 -0.2967  0.3539
  141SOL     OW  561   1.085   0.562   1.786 -0.3929  0.0181 -0.1495
  141SOL    HW1  562   1.145   0.504   1.741 -0.7016  3.4602  0.7544
  141SOL    HW2  563   1.130   0.648   1.783 -0.7830 -2.2399  0.0654
  141SOL     MW  564   1.099   0.566   1.780 -0.4851  0.1743 -0.0019
  142SOL     OW  565   0.887   1.133   0.782 -0.2081  0.0479 -0.7405
  142SOL    HW1  566   0.867   1.098   0.695 -0.6152 -1.7453  0.7737
  142SOL    HW2  567   0.985   1.152   0.785 -1.6149  4.3237 -1.5183
  142SOL     MW  568   0.897   1.131   0.771 -0.4475  0.3755 -0.6433
  143SOL     OW  569   1.749   0.793   1.097 -0.3745  0.2193 -0.1602
  143SOL    HW1  570   1.787   0.764   1.013  2.4740 -3.3720  2.0323
  143SOL    HW2  571   1.662   0.768   1.091  1.4776 -1.7243 -0.1350
  143SOL     MW  572   1.743   0.786   1.085  0.2457 -0.5110  0.1324
  144SOL     OW  573   0.220   1.239   1.519  0.6865 -0.0887 -0.1164
  144SOL    HW1  574   0.306   1.201   1.517  2.3091  0.8515 -0.2574
  144SOL    HW2  575   0.227   1.281   1.604  0.6316 -2.1321 -1.2703
  144SOL     MW  576   0.232   1.240   1.530  0.8933 -0.2342 -0.2873
  145SOL     OW  577   0.277   0.401   1.063 -0.5622  0.3539 -0.0055
  145SOL    HW1  578   0.283   0.349   1.149  0.2554 -1.6448  0.8307
  145SOL    HW2  579   0.219   0.343   0.998 -0.9503  0.3260  1.2793
  145SOL     MW  580   0.270   0.387   1.066 -0.5055  0.0865  0.2744
  146SOL     OW  581   0.855   1.951   1.350 -0.2086 -0.5560 -0.0490
  146SOL    HW1  582   0.909   1.972   1.267  2.5235  0.0193  0.7286
  146SOL    HW2  583   0.767   1.952   1.313  0.8996  0.5091  3.0065
  146SOL     MW  584   0.851   1.954   1.334  0.2981 -0.3396  0.4568
  147SOL     OW  585   0.387   0.395   3.007  0.1399 -0.1757  0.5185
  147SOL    HW1  586   0.318   0.389   3.076 -1.4868  0.9640 -1.9486
  147SOL    HW2  587   0.349   0.457   2.946  1.6897 -1.5288  0.3497
  147SOL     MW  588   0.373   0.402   3.008  0.1297 -0.2039  0.1707
  148SOL     OW  589   0.094   0.893   1.305 -0.1778 -0.0514 -0.2576
  148SOL    HW1  590   0.184   0.918   1.291  2.8899  0.7496  0.3158
  148SOL    HW2  591   0.083   0.912   1.400 -0.9430 -2.5781 -2.0289
  148SOL     MW  592   0.105   0.899   1.316  0.1260 -0.2791 -0.4156
  149SOL     OW  593   1.370   1.188   1.334 -0.1957  0.1334 -0.7576
  149SOL    HW1  594   1.354   1.175   1.427  0.1972  2.2342 -1.8201
  149SOL    HW2  595   1.454   1.238   1.339  1.7636 -0.3276  0.9224
  149SOL     MW  596   1.379   1.193   1.347  0.1147  0.3498 -0.6761
  150SOL     OW  597   1.870   1.398   0.740  0.0011  0.4029  0.1279
  150SOL    HW1  598   1.888   1.302   0.753  2.8481 -0.8302  0.4002
  150SOL    HW2  599   1.958   1.440   0.739 -1.2040  1.8296  0.6836
  150SOL     MW  600   1.884   1.391   0.742  0.2178  0.4285  0.2371
  151SOL     OW  601   1.637   1.836   0.856  0.3422 -0.3244  0.1194
  151SOL    HW1  602   1.605   1.872   0.774  1.5853 -0.6234  0.0248
  151SOL    HW2  603   1.573   1.781   0.888  2.1216 -2.2527  0.1065
  151SOL     MW  604   1.624   1.834   0.850  0.7410 -0.6183  0.1052
  152SOL     OW  605   0.739   1.352   1.504  0.0879  0.2698  0.5548
  152SOL    HW1  606   0.761   1.282   1.565  0.5295  0.0813 -0.2208
  152SOL    HW2  607   0.826   1.382   1.476  1.2920 -0.1022  4.2676
  152SOL     MW  608   0.753   1.347   1.508  0.3050  0.1958  0.9423
  153SOL     OW  609   2.625   1.263   0.754 -0.5436  0.2160 -0.1237
  153SOL    HW1  610   2.702   1.217   0.709 -0.4014  1.3874  2.6050
  153SOL    HW2  611   2.564   1.190   0.742  0.6623 -0.6916  0.2759
  153SOL     MW  612   2.627   1.247   0.747 -0.3658  0.2508  0.2891
  154SOL     OW  613   0.374   1.750   1.734 -0.3555 -0.1901  0.1789
  154SOL    HW1  614   0.369   1.755   1.636 -1.0627  2.3346  0.2802
  154SOL    HW2  615   0.363   1.659   1.757  0.8152  1.6559 -2.0857
  154SOL     MW  616   0.372   1.739   1.724 -0.2944  0.3866 -0.1065
  155SOL     OW  617   1.185   0.718   0.291  0.0074  0.6421 -0.4959
  155SOL    HW1  618   1.164   0.676   0.379  0.3015  1.6636  1.9544
  155SOL    HW2  619   1.128   0.791   0.288  0.8414  0.2002  1.5011
  155SOL     MW  620   1.175   0.722   0.302  0.1562  0.7186  0.0909
  156SOL     OW  621   1.591   3.021   1.034  0.1490  0.6580  0.1489
  156SOL    HW1  622   1.632   3.090   1.082  0.4800 -2.8620  0.1665
  156SOL    HW2  623   1.623   2.936   1.069 -0.1514 -1.7515  1.2863
  156SOL     MW  624   1.600   3.019   1.045  0.1531 -0.1243  0.3013
  157SOL     OW  625   1.437   1.136   0.118  0.2784 -0.0223 -0.5486
  157SOL    HW1  626   1.504   1.073   0.120  3.5265  0.1873  0.5928
  157SOL    HW2  627   1.481   1.219   0.129  1.1694  0.0507  2.7037
  157SOL     MW  628   1.452   1.139   0.119  0.8245  0.0150  0.0311
  158SOL     OW  629   0.459   1.625   2.214  0.7398 -0.0344 -0.0556
  158SOL    HW1  630   0.466   1.693   2.151  0.8051  0.2235 -1.6287
  158SOL    HW2  631   0.377   1.644   2.260 -1.3074  1.1335 -1.6088
  158SOL     MW  632   0.449   1.636   2.212  0.4783  0.1537 -0.4681
  159SOL     OW  633   1.257   1.734   0.407  0.0037  0.3123 -0.3403
  159SOL    HW1  634   1.242   1.639   0.385 -2.0670 -1.0278 -2.0069
  159SOL    HW2  635   1.182   1.755   0.473 -1.6882 -2.7423 -0.9447
  159SOL     MW  636   1.245   1.724   0.412 -0.4927 -0.2675 -0.6399
  160SOL     OW  637   0.498   1.155   1.601  0.5727  0.1961 -0.0014
  160SOL    HW1  638   0.507   1.067   1.633  0.3169 -2.0764 -1.3003
  160SOL    HW2  639   0.577   1.201   1.642  3.0975 -0.1083  1.6662
  160SOL     MW  640   0.510   1.150   1.611  0.8721 -0.1439  0.0473
  161SOL     OW  641   0.507   2.172   2.552 -0.3738  0.2082 -0.3150
  161SOL    HW1  642   0.425   2.190   2.510 -0.5007 -0.2093 -1.3901
  161SOL    HW2  643   0.569   2.144   2.480  1.8267  1.9733  1.2238
  161SOL     MW  644   0.505   2.171   2.537 -0.1002  0.3860 -0.2538
  162SOL     OW  645   1.058   1.762   1.851 -0.2257 -0.2302  0.2945
  162SOL    HW1  646   1.050   1.853   1.869  0.5527  1.2244  1.2447
  162SOL    HW2  647   0.967   1.725   1.875  1.0523  3.1231 -0.0129
  162SOL     MW  648   1.045   1.769   1.857  0.0457  0.4041  0.3793
  163SOL     OW  649   2.109   0.062   0.985  0.3700 -0.8218 -0.3229
  163SOL    HW1  650   2.092   0.088   0.897  0.8206  0.4690 -2.3544
  163SOL    HW2  651   2.045  -0.002   1.016  2.2373  0.8006  1.8386
  163SOL     MW  652   2.098   0.057   0.977  0.6758 -0.4374 -0.3058
  164SOL     OW  653   0.350   0.202   0.819  0.0699  0.0986  1.0613
  164SOL    HW1  654   0.263   0.228   0.836  0.4951  0.5102  0.0141
  164SOL    HW2  655   0.349   0.119   0.767 -1.0693 -1.5518  1.0795
  164SOL     MW  656   0.339   0.194   0.815 -0.0243 -0.0648  0.9255
  165SOL     OW  657   1.329   1.238   0.365 -0.3025  0.1480  0.2932
  165SOL    HW1  658   1.266   1.180   0.401  3.1649 -0.6481  0.1288
  165SOL    HW2  659   1.346   1.205   0.273  2.5344  0.3511 -1.4659
  165SOL     MW  660   1.323   1.226   0.358  0.5293  0.0698  0.0395
  166SOL     OW  661   0.527   1.083   0.984  0.5866  0.3368  0.1282
  166SOL    HW1  662   0.491   1.010   1.037 -2.9179 -1.2704 -0.8518
  166SOL    HW2  663   0.622   1.068   0.990 -0.2121 -0.4259 -0.5804
  166SOL     MW  664   0.535   1.072   0.992  0.0188  0.0241 -0.0946
  167SOL     OW  665   0.806   1.058   0.244 -0.1263 -0.5864  0.4677
  167SOL    HW1  666   0.714   1.069   0.264  3.0874  0.5350 -0.6145
  167SOL    HW2  667   0.831   1.145   0.201 -0.3892 -1.3449 -0.1609
  167SOL     MW  668   0.797   1.071   0.241  0.2630 -0.5386  0.2420
  168SOL     OW  669   1.650   1.666   2.938 -0.1218  0.0920  0.3511
  168SOL    HW1  670   1.557   1.653   2.948 -0.4273  1.3686 -1.1232
  168SOL    HW2  671   1.695   1.573   2.928  0.7593 -0.8956  0.0671
  168SOL     MW  672   1.644   1.652   2.938 -0.0459  0.1301  0.1191
  169SOL     OW  673   0.382   0.938   1.349  0.0001 -0.4925  0.5735
  169SOL    HW1  674   0.409   0.888   1.428  0.3288 -1.1931 -0.1180
  169SOL    HW2  675   0.456   1.005   1.334  1.2077 -0.5736 -0.0637
  169SOL     MW  676   0.396   0.940   1.358  0.2028 -0.5956  0.3982
  170SOL     OW  677   0.976   1.457   1.486 -0.5515  0.5320  0.3273
  170SOL    HW1  678   0.940   1.550   1.485 -0.4060  1.0074 -2.5202
  170SOL    HW2  679   1.034   1.444   1.398  1.7309 -1.8054 -2.3209
  170SOL     MW  680   0.979   1.468   1.474 -0.2312  0.2863 -0.3978
  171SOL     OW  681   0.583   1.429   0.663 -0.2323 -0.4032  0.7547
  171SOL    HW1  682   0.557   1.399   0.754 -0.1717 -0.9287 -0.8545
  171SOL    HW2  683   0.548   1.361   0.604 -1.4542  1.5622  0.4922
  171SOL     MW  684   0.575   1.416   0.667 -0.3855 -0.2132  0.5077
  172SOL     OW  685   0.834   0.299   1.298  0.1923 -0.1505  0.1781
  172SOL    HW1  686   0.846   0.330   1.207  1.9778 -2.1901 -2.0353
  172SOL    HW2  687   0.743   0.322   1.327  0.4148  1.1912  2.5321
  172SOL     MW  688   0.824   0.306   1.290  0.4573 -0.2426  0.1967
  173SOL     OW  689   0.449   1.661   0.374 -0.3211  0.3754 -0.1595
  173SOL    HW1  690   0.452   1.560   0.376  1.0576  1.9625  0.9724
  173SOL    HW2  691   0.449   1.681   0.468  2.3637  0.1183  0.1754
  173SOL     MW  692   0.450   1.650   0.386  0.2150  0.5509  0.0340
  174SOL     OW  693   1.892   0.991   1.508 -0.3832  0.0781  0.5842
  174SOL    HW1  694   1.865   0.910   1.547 -2.8117 -0.4179  2.4486
  174SOL    HW2  695   1.857   1.004   1.416  1.2088  2.0799  2.4457
  174SOL     MW  696   1.883   0.982   1.501 -0.4936  0.2768  1.0758
  175SOL     OW  697   0.475   1.388   0.356  0.0549  0.2549  0.5155
  175SOL    HW1  698   0.457   1.366   0.267  0.5588 -0.1787 -1.4496
  175SOL    HW2  699   0.578   1.382   0.370  0.5539  4.3476  1.4415
  175SOL     MW  700   0.486   1.384   0.346  0.1872  0.7377  0.3784
  176SOL     OW  701   0.199   1.360   1.227 -0.2445 -0.3832 -0.2783
  176SOL    HW1  702   0.160   1.327   1.148 -2.0399  2.7195  0.0366
  176SOL    HW2  703   0.176   1.294   1.294  1.4137  2.4664  0.8105
  176SOL     MW  704   0.190   1.347   1.226 -0.2626  0.4022 -0.0931
  177SOL     OW  705   0.578   0.355   1.336 -0.0048  0.4094  0.2572
  177SOL    HW1  706   0.559   0.431   1.267 -0.7091  1.7094 -0.0401
  177SOL    HW2  707   0.587   0.407   1.420 -3.1077  0.3709 -1.1163
  177SOL     MW  708   0.577   0.372   1.338 -0.5071  0.5759  0.0368
  178SOL     OW  709   3.086   0.405   2.904  1.0638  0.3052  0.6875
  178SOL    HW1  710   3.042   0.437   2.982 -0.7633 -0.7338 -1.3075
  178SOL    HW2  711   3.029   0.438   2.832 -0.4428  0.9884  2.2652
  178SOL     MW  712   3.072   0.414   2.905  0.6240  0.2582  0.6325
  179SOL     OW  713   1.583   1.345   1.410  0.0408 -0.1160 -0.2252
  179SOL    HW1  714   1.554   1.367   1.498  0.0734 -0.7850 -0.2201
  179SOL    HW2  715   1.674   1.365   1.405 -0.7802 -0.6004  0.2310
  179SOL     MW  716   1.591   1.350   1.421 -0.0633 -0.2682 -0.1644
  180SOL     OW  717   3.004   0.196   0.468  0.3952  0.2127  0.5073
  180SOL    HW1  718   2.931   0.228   0.407  1.6086 -1.3960 -0.7855
  180SOL    HW2  719   3.044   0.276   0.499  0.1239 -0.7590 -3.1329
  180SOL     MW  720   2.999   0.210   0.464  0.5195 -0.1278 -0.1436
  181SOL     OW  721   1.156   1.349   3.051 -0.4587  0.2137  0.3636
  181SOL    HW1  722   1.227   1.380   3.113 -0.6738  0.3303  0.7628
  181SOL    HW2  723   1.187   1.261   3.021 -3.0568  0.8271 -0.0676
  181SOL     MW  724   1.170   1.342   3.055 -0.8299  0.3100  0.3594
  182SOL     OW  725   0.529   0.889   1.661  0.5504  0.4137 -0.0455
  182SOL    HW1  726   0.437   0.868   1.681  0.0759  1.2376  1.7925
  182SOL    HW2  727   0.580   0.865   1.736 -0.0016 -2.1785 -0.1618
  182SOL     MW  728   0.524   0.883   1.674  0.4149  0.1804  0.1817
  183SOL     OW  729   1.513   1.547   1.218  0.3522  0.5983 -0.1926
  183SOL    HW1  730   1.418   1.555   1.226 -0.5816 -0.4967 -1.2268
  183SOL    HW2  731   1.536   1.493   1.301 -0.1638 -1.1360  1.4126
  183SOL     MW  732   1.503   1.541   1.230  0.1609  0.2250 -0.1173
  184SOL     OW  733   0.890   0.617   1.983  0.6247  0.2398  0.1653
  184SOL    HW1  734   0.951   0.595   1.910  0.2828  0.8127 -0.5563
  184SOL    HW2  735   0.860   0.526   2.003 -2.3901 -1.5865 -0.3120
  184SOL     MW  736   0.894   0.602   1.976  0.1818  0.0744  0.0071
  185SOL     OW  737   1.201   0.978   1.936  0.5115  0.7053 -0.3073
  185SOL    HW1  738   1.191   0.889   1.972 -2.8320 -0.1721 -0.8768
  185SOL    HW2  739   1.283   1.012   1.985  0.2475  0.1634  2.9383
  185SOL     MW  740   1.210   0.971   1.947  0.0355  0.5180  0.0458
  186SOL     OW  741   0.397   1.643   1.442 -0.1705 -0.0510  0.3106
  186SOL    HW1  742   0.399   1.557   1.396  0.1582 -0.0442 -0.0902
  186SOL    HW2  743   0.312   1.677   1.423  0.3420 -2.2469  4.9489
  186SOL     MW  744   0.386   1.636   1.434 -0.0595 -0.3399  0.8697
  187SOL     OW  745   1.439   0.728   1.433 -0.0658 -0.4634  0.0440
  187SOL    HW1  746   1.445   0.712   1.526 -0.7249  1.5380  0.1293
  187SOL    HW2  747   1.352   0.698   1.403  1.4386 -0.5372 -0.1847
  187SOL     MW  748   1.428   0.722   1.441  0.0457 -0.2090  0.0251
  188SOL     OW  749   1.937   1.131   0.836  0.6183  0.4183  0.6048
  188SOL    HW1  750   1.920   1.146   0.927 -0.7399 -3.2107  0.0615
  188SOL    HW2  751   2.025   1.101   0.821  0.0307  0.1149 -0.9256
  188SOL     MW  752   1.946   1.129   0.846  0.3615 -0.1006  0.3312
  189SOL     OW  753   0.726   0.797   0.798  0.0723  0.0457 -0.0134
  189SOL    HW1  754   0.653   0.855   0.767  0.9455 -0.4590 -1.6007
  189SOL    HW2  755   0.773   0.850   0.865  2.0968  0.3196  2.5742
  189SOL     MW  756   0.723   0.812   0.803  0.4546  0.0153  0.1186
  190SOL     OW  757   1.862   0.228   2.034 -0.0242  0.4244  0.6396
  190SOL    HW1  758   1.831   0.165   2.100  3.0503 -0.2880 -0.6343
  190SOL    HW2  759   1.943   0.194   1.993  1.9820  2.2949  0.1603
  190SOL     MW  760   1.869   0.216   2.037  0.6461  0.5772  0.4083
  191SOL     OW  761   1.504   0.943   1.223  0.6387 -0.0890 -0.2340
  191SOL    HW1  762   1.443   1.000   1.274 -0.3448 -2.2597  1.5892
  191SOL    HW2  763   1.506   0.859   1.272  4.7631 -0.9072 -1.1058
  191SOL     MW  764   1.496   0.939   1.236  1.0531 -0.4834 -0.1085
  192SOL     OW  765   0.588   2.050   2.816 -0.5341  0.2816 -0.3072
  192SOL    HW1  766   0.550   2.085   2.742  0.1688  1.1726 -0.9905
  192SOL    HW2  767   0.583   1.952   2.809  0.0621 -0.3685 -0.2925
  192SOL     MW  768   0.582   2.042   2.805 -0.3627  0.3134 -0.3954
  193SOL     OW  769   1.049   1.581   0.760  0.2946 -0.1708  0.5204
  193SOL    HW1  770   1.012   1.596   0.854  2.0754 -2.7902  1.7004
  193SOL    HW2  771   0.981   1.520   0.721 -1.9539  0.4279  2.1313
  193SOL     MW  772   1.035   1.575   0.768  0.2329 -0.4374  0.8886
  194SOL     OW  773   0.478   1.362   0.915 -0.4491  0.5352 -0.0454
  194SOL    HW1  774   0.466   1.274   0.950 -1.8430  2.5630 -1.9100
  194SOL    HW2  775   0.392   1.405   0.898 -0.7593 -2.2922  0.9799
  194SOL     MW  776   0.465   1.356   0.918 -0.6740  0.4297 -0.1561
  195SOL     OW  777   1.276   1.122   2.984 -0.0617 -0.4617  0.6957
  195SOL    HW1  778   1.324   1.125   3.066 -3.7647 -3.0301 -1.4794
  195SOL    HW2  779   1.201   1.060   3.011 -3.1811  0.6140  0.5092
  195SOL     MW  780   1.273   1.114   2.999 -0.9619 -0.6587  0.3841
  196SOL     OW  781   2.170   1.061   0.631 -0.0336 -0.0212 -0.3099
  196SOL    HW1  782   2.157   1.025   0.543 -0.7401 -1.5663  0.1561
  196SOL    HW2  783   2.199   1.153   0.620  0.7418  0.0215  2.5873
  196SOL     MW  784   2.172   1.068   0.618 -0.0245 -0.2194  0.1338
  197SOL     OW  785   0.689   1.259   2.024 -0.2403 -0.0153  0.5247
  197SOL    HW1  786   0.681   1.163   2.031  0.9623 -3.7629  0.2986
  197SOL    HW2  787   0.644   1.283   1.943 -2.2463 -0.1450  0.6965
  197SOL     MW  788   0.682   1.249   2.014 -0.3463 -0.5269  0.5176
  198SOL     OW  789   2.974   1.411   1.070  0.4823 -0.9204 -0.0156
  198SOL    HW1  790   2.946   1.500   1.062 -0.6467 -3.1093 -1.3438
  198SOL    HW2  791   2.896   1.358   1.045 -1.5487 -0.7274  0.3375
  198SOL     MW  792   2.960   1.416   1.065  0.0654 -1.1837 -0.1443
  199SOL     OW  793   0.525   1.339   1.818 -0.3020  0.3330 -0.1036
  199SOL    HW1  794   0.441   1.294   1.796 -1.3591  0.9963  1.0864
  199SOL    HW2  795   0.537   1.405   1.747  0.9187  1.1614  0.5232
  199SOL     MW  796   0.515   1.342   1.806 -0.2804  0.5298  0.1361
  200SOL     OW  797   1.880   3.094   1.342 -0.0476  0.4776  0.3061
  200SOL    HW1  798   1.886   3.070   1.247 -1.1010  1.7432 -3.6604
  200SOL    HW2  799   1.800   3.142   1.350 -0.5211 -2.4608 -0.4357
  200SOL     MW  800   1.870   3.097   1.331 -0.2490  0.2569 -0.3151
  201SOL     OW  801   0.965   0.233   0.819 -0.1959 -0.2275 -0.1311
  201SOL    HW1  802   0.951   0.144   0.787 -1.6447  1.1367 -0.6657
  201SOL    HW2  803   1.035   0.263   0.751 -0.3005 -0.1753 -0.5761
  201SOL     MW  804   0.972   0.225   0.806 -0.4009 -0.0406 -0.2604
  202SOL     OW  805   1.525   1.624   0.954  0.1181 -0.6162 -0.1780
  202SOL    HW1  806   1.545   1.555   0.894 -3.4957  0.6288 -2.0091
  202SOL    HW2  807   1.552   1.593   1.043 -0.0868  0.0614  1.2353
  202SOL     MW  808   1.531   1.611   0.958 -0.3858 -0.3625 -0.2331
  203SOL     OW  809   3.090   0.465   1.162  0.0334 -0.2751  0.2768
  203SOL    HW1  810   3.147   0.400   1.119 -0.8246  2.3758 -0.4913
  203SOL    HW2  811   3.142   0.507   1.235 -2.1348 -0.9162  1.4642
  203SOL     MW  812   3.104   0.462   1.166 -0.3658 -0.0099  0.3322
  204SOL     OW  813   1.050   1.802   0.581 -0.3653  0.1326  0.0788
  204SOL    HW1  814   1.043   1.750   0.665 -0.6243  2.0067  4.0499
  204SOL    HW2  815   0.955   1.804   0.550 -0.6674 -1.9522 -2.5104
  204SOL     MW  816   1.036   1.795   0.588 -0.4393  0.1048  0.2611
  205SOL     OW  817   1.345   0.109   1.344 -0.1584  0.1313  0.0113
  205SOL    HW1  818   1.320   0.096   1.253 -1.1356 -0.1280  1.6867
  205SOL    HW2  819   1.344   0.209   1.355 -1.2068 -0.4648 -1.5115
  205SOL     MW  820   1.341   0.120   1.334 -0.4257  0.0184  0.0314
  206SOL     OW  821   0.424   3.049   1.399  0.2632 -0.6540 -0.1412
  206SOL    HW1  822   0.341   3.021   1.367 -0.3873  0.0959  0.1253
  206SOL    HW2  823   0.484   2.970   1.380 -2.1872  1.8893  1.2202
  206SOL     MW  824   0.421   3.035   1.392 -0.1459 -0.2195  0.0736
  207SOL     OW  825   0.965   1.511   0.213 -0.4526 -0.1866  0.0203
  207SOL    HW1  826   0.960   1.606   0.219  1.2501  1.0838 -0.6829
  207SOL    HW2  827   1.055   1.494   0.225 -0.5037 -3.0767 -1.8939
  207SOL     MW  828   0.976   1.521   0.215 -0.2347 -0.4003 -0.3250
  208SOL     OW  829   0.682   1.626   1.324  0.4947  0.0759 -0.3222
  208SOL    HW1  830   0.769   1.647   1.356 -0.0741 -0.7873 -1.1078
  208SOL    HW2  831   0.686   1.539   1.283 -0.6111 -0.1440  0.7331
  208SOL     MW  832   0.694   1.617   1.323  0.2737 -0.0670 -0.2866
  209SOL     OW  833   1.584   0.526   2.890  0.0832 -0.3943  0.4168
  209SOL    HW1  834   1.639   0.547   2.966 -0.8729  0.4891 -0.4251
  209SOL    HW2  835   1.618   0.441   2.861 -2.0678  2.5140  2.2396
  209SOL     MW  836   1.596   0.518   2.896 -0.3268  0.1060  0.5462
  210SOL     OW  837   1.586   1.387   0.829  0.0722 -0.1150 -0.0168
  210SOL    HW1  838   1.683   1.395   0.822  1.5157 -0.5607 -0.8716
  210SOL    HW2  839   1.551   1.389   0.738 -2.3385 -3.2542 -1.5749
  210SOL     MW  840   1.594   1.388   0.816 -0.0554 -0.5880 -0.3352
  211SOL     OW  841   1.643   0.394   0.972  0.0108 -0.2832 -0.1079
  211SOL    HW1  842   1.590   0.385   0.887 -0.3195  0.5209 -0.0529
  211SOL    HW2  843   1.721   0.435   0.941 -1.0228 -2.6473  0.7506
  211SOL     MW  844   1.646   0.398   0.957 -0.1692 -0.4890  0.0126
  212SOL     OW  845   0.206   1.114   0.094 -0.3339 -0.5649 -0.7503
  212SOL    HW1  846   0.145   1.107   0.171 -2.1082  0.7360 -0.4491
  212SOL    HW2  847   0.205   1.021   0.067 -2.5825 -0.6756  0.1269
  212SOL     MW  848   0.198   1.101   0.101 -0.8647 -0.4078 -0.5948
  213SOL     OW  849   0.426   1.702   3.028  0.0152 -0.6016  0.2905
  213SOL    HW1  850   0.461   1.747   3.107  0.2255 -0.7889 -0.7878
  213SOL    HW2  851   0.477   1.736   2.950  0.2847 -0.2484 -3.4509
  213SOL     MW  852   0.437   1.713   3.028  0.0785 -0.5797 -0.3454
  214SOL     OW  853   0.603   0.286   2.220 -0.0932 -0.2931 -0.0287
  214SOL    HW1  854   0.524   0.335   2.194 -1.8208  2.8017  0.0953
  214SOL    HW2  855   0.682   0.324   2.165  2.9071  0.7304 -1.0485
  214SOL     MW  856   0.603   0.298   2.210  0.0747  0.2503 -0.1469
  215SOL     OW  857   0.502   0.656   2.667  0.5616  0.3555  0.3262
  215SOL    HW1  858   0.531   0.649   2.578  1.1537  2.2275 -0.3510
  215SOL    HW2  859   0.435   0.592   2.687 -1.8727  1.3111  2.2160
  215SOL     MW  860   0.497   0.647   2.658  0.3185  0.7286  0.4862
  216SOL     OW  861   2.988   3.076   2.649 -0.7477 -0.5791 -0.4472
  216SOL    HW1  862   2.936   3.057   2.728 -0.6830  1.1758  1.9907
  216SOL    HW2  863   2.953   3.166   2.626 -2.9967  3.2884  0.5724
  216SOL     MW  864   2.977   3.085   2.657 -1.0359  0.1627  0.0090
  217SOL     OW  865   0.908   1.222   0.037  0.1949 -0.1922  0.0052
  217SOL    HW1  866   0.921   1.130   0.021 -2.1760  1.4402 -1.9203
  217SOL    HW2  867   0.981   1.261  -0.004 -1.0381 -0.2971 -1.0845
  217SOL     MW  868   0.919   1.215   0.029 -0.2806  0.0093 -0.3926
  218SOL     OW  869   0.900   1.313   2.547  0.1148  0.2914 -0.2887
  218SOL    HW1  870   0.927   1.222   2.554  2.1239  1.0603  0.9746
  218SOL    HW2  871   0.982   1.356   2.565 -1.5801 -0.8084 -0.2456
  218SOL     MW  872   0.914   1.307   2.550  0.1563  0.2477 -0.1163
  219SOL     OW  873   1.091   0.490   2.595  0.1165  0.0903  0.2709
  219SOL    HW1  874   1.150   0.523   2.663  1.6773 -2.1675  0.3261
  219SOL    HW2  875   1.013   0.546   2.579 -2.3594 -0.4340  3.6783
  219SOL     MW  876   1.089   0.501   2.602 -0.0043 -0.2768  0.7278
  220SOL     OW  877   1.798   0.445   2.216 -0.6316  0.6331  0.1485
  220SOL    HW1  878   1.707   0.461   2.188 -0.9524 -1.2165  0.6787
  220SOL    HW2  879   1.841   0.392   2.152  3.7302  0.8722  2.0887
  220SOL     MW  880   1.791   0.440   2.204 -0.0984  0.4206  0.4745
  221SOL     OW  881   0.372   1.356   2.902 -0.4174 -0.3364  0.1191
  221SOL    HW1  882   0.379   1.256   2.880  2.0741 -0.2738 -3.6886
  221SOL    HW2  883   0.412   1.393   2.824  0.0234 -1.1691 -0.2846
  221SOL     MW  884   0.378   1.347   2.889 -0.0305 -0.4380 -0.4365
  222SOL     OW  885   0.338   0.908   2.668  0.7626  0.4634  0.1968
  222SOL    HW1  886   0.315   0.943   2.584  2.9360 -1.7071  1.1103
  222SOL    HW2  887   0.379   0.822   2.650 -2.0255  0.5432  0.4158
  222SOL     MW  888   0.340   0.901   2.655  0.6815  0.1876  0.3462
  223SOL     OW  889   0.033   2.068   2.623 -0.6880  0.2768  0.0581
  223SOL    HW1  890   0.075   1.977   2.635 -1.3009 -0.8405 -1.0302
  223SOL    HW2  891   0.098   2.100   2.559  0.8148 -2.2552  0.2750
  223SOL     MW  892   0.047   2.061   2.616 -0.5706 -0.2047 -0.0569
  224SOL     OW  893   1.524   0.814   2.616  0.3397  0.2086  0.0448
  224SOL    HW1  894   1.489   0.846   2.706  2.1113  3.7799  1.5571
  224SOL    HW2  895   1.503   0.879   2.551 -1.0241 -1.2991 -3.6137
  224SOL     MW  896   1.517   0.827   2.620  0.3935  0.4808 -0.2383
  225SOL     OW  897   2.973   1.505   2.313 -0.2679 -0.3233 -0.2330
  225SOL    HW1  898   3.002   1.581   2.264 -2.9836  0.5814 -0.5135
  225SOL    HW2  899   2.904   1.544   2.369 -0.4425 -0.4935 -1.8431
  225SOL     MW  900   2.967   1.520   2.314 -0.6492 -0.2264 -0.4825
  226SOL     OW  901   0.469   1.422   2.629  0.0104  0.1552  0.8089
  226SOL    HW1  902   0.560   1.438   2.599  2.6871  0.0816 -1.3632
  226SOL    HW2  903   0.432   1.508   2.647  0.8481 -1.1229  0.3871
  226SOL     MW  904   0.476   1.435   2.627  0.4741 -0.0232  0.4667
  227SOL     OW  905   0.420   1.084   2.864 -0.5644  0.1902  0.5905
  227SOL    HW1  906   0.515   1.105   2.830 -0.3634  0.8012 -0.6911
  227SOL    HW2  907   0.386   1.038   2.793  3.1648  0.8654 -0.1592
  227SOL     MW  908   0.428   1.081   2.850 -0.0459  0.3599  0.3225
  228SOL     OW  909   0.738   0.982   2.050  0.4126  0.0847 -0.3766
  228SOL    HW1  910   0.824   1.008   2.020 -2.0879 -2.6246  1.8675
  228SOL    HW2  911   0.756   0.915   2.116 -1.1305 -0.9070  0.3441
  228SOL     MW  912   0.751   0.977   2.055 -0.1209 -0.4036  0.0146
  229SOL     OW  913   0.146   0.575   0.026 -0.0914 -0.1984  0.4355
  229SOL    HW1  914   0.076   0.566  -0.034  1.7981  2.0426 -0.9263
  229SOL    HW2  915   0.139   0.502   0.089  3.2483  1.4003  1.0432
  229SOL     MW  916   0.136   0.564   0.027  0.5986  0.3082  0.3360
  230SOL     OW  917   1.766   1.388   2.024  0.4619 -0.4795 -0.1856
  230SOL    HW1  918   1.709   1.363   2.097 -1.7236 -1.0840 -2.4310
  230SOL    HW2  919   1.830   1.319   2.005 -0.8620 -2.3221  1.2845
  230SOL     MW  920   1.767   1.376   2.031 -0.0012 -0.8024 -0.2879
  231SOL     OW  921   2.764   1.330   2.230  0.3412  0.0885 -0.1308
  231SOL    HW1  922   2.820   1.403   2.254 -2.3483 -1.3599  1.4241
  231SOL    HW2  923   2.695   1.361   2.164  0.6136 -1.7445 -4.4175
  231SOL     MW  924   2.762   1.344   2.224  0.0223 -0.3445 -0.4912
  232SOL     OW  925   2.245   0.809   2.127 -0.6193  0.1305 -0.7995
  232SOL    HW1  926   2.182   0.845   2.067  1.2639 -0.7212  1.1021
  232SOL    HW2  927   2.232   0.844   2.216 -1.0218 -0.9193 -1.2935
  232SOL     MW  928   2.235   0.818   2.131 -0.4240 -0.1204 -0.6138
  233SOL     OW  929   2.054   0.484   1.956 -0.1541 -0.5652 -0.5750
  233SOL    HW1  930   2.091   0.395   1.946  1.4174  1.3477  0.0022
  233SOL    HW2  931   2.092   0.500   2.043 -2.2513 -2.9520 -0.7006
  233SOL     MW  932   2.064   0.474   1.966 -0.2234 -0.6277 -0.5154
  234SOL     OW  933   0.276   1.005   2.405  0.1792  0.0404  0.8736
  234SOL    HW1  934   0.191   1.045   2.377 -1.5444  0.1552 -0.5674
  234SOL    HW2  935   0.338   1.080   2.388 -1.2984  1.3740  2.4141
  234SOL     MW  936   0.273   1.020   2.399 -0.2432  0.2315  0.8867
  235SOL     OW  937   1.149   3.073   2.725  0.0051 -0.3379 -0.1792
  235SOL    HW1  938   1.219   3.017   2.766  0.4805 -2.5933  3.5196
  235SOL    HW2  939   1.141   3.146   2.792 -1.0886 -0.2993  0.5760
  235SOL     MW  940   1.157   3.075   2.739 -0.0765 -0.6304  0.4084
  236SOL     OW  941   2.946   0.519   0.003  0.3153  0.2147 -0.3147
  236SOL    HW1  942   2.853   0.506  -0.034 -1.3170 -0.5488  0.9851
  236SOL    HW2  943   2.952   0.613   0.018 -0.8005 -0.5525  0.9984
  236SOL     MW  944   2.935   0.530   0.000 -0.0473  0.0128  0.0300
  237SOL     OW  945   1.927   1.036   2.196  0.1469  0.9363  0.5389
  237SOL    HW1  946   1.991   1.055   2.124  1.1737 -1.5980  0.9202
  237SOL    HW2  947   1.868   1.109   2.218 -0.8202  0.1471  0.0204
  237SOL     MW  948   1.927   1.048   2.190  0.1548  0.4978  0.5208
  238SOL     OW  949   1.092   1.783   3.011  0.1670 -0.0120 -0.4953
  238SOL    HW1  950   1.044   1.698   2.991 -1.4508  0.7458 -0.6976
  238SOL    HW2  951   1.180   1.744   3.020  1.9173  1.1698  0.9365
  238SOL     MW  952   1.097   1.767   3.010  0.1845  0.2439 -0.3331
  239SOL     OW  953   1.269   1.369   2.363 -0.1564  0.2566  0.1140
  239SOL    HW1  954   1.209   1.427   2.420 -3.3713 -0.1918 -0.1506
  239SOL    HW2  955   1.234   1.277   2.393 -1.1410 -3.0889  1.6845
  239SOL     MW  956   1.257   1.365   2.374 -0.7105 -0.2440  0.2863
  240SOL     OW  957   0.727   0.803   2.264 -0.0997 -0.2945  0.1058
  240SOL    HW1  958   0.722   0.872   2.332 -1.1405 -1.3219 -0.1352
  240SOL    HW2  959   0.822   0.774   2.271  0.3578 -0.1238 -0.7257
  240SOL     MW  960   0.739   0.808   2.274 -0.1766 -0.4075 -0.0357
  241SOL     OW  961   0.659   0.367   0.019 -0.3189  0.6386 -0.1302
  241SOL    HW1  962   0.687   0.452   0.052  1.5588 -0.6245 -2.0105
  241SOL    HW2  963   0.573   0.380  -0.026 -0.3545  2.5997 -0.8670
  241SOL     MW  964   0.651   0.380   0.018 -0.0758  0.7307 -0.4755
  242SOL     OW  965   1.485   1.688   2.331 -0.1518  0.1445  0.6627
  242SOL    HW1  966   1.446   1.780   2.349 -2.6367  1.1782 -0.4228
  242SOL    HW2  967   1.424   1.652   2.262 -0.9538  1.2559  0.7758
  242SOL     MW  968   1.472   1.695   2.324 -0.5855  0.4276  0.5344
  243SOL     OW  969   1.033   0.245   2.437 -0.1672  0.0558  0.3131
  243SOL    HW1  970   1.112   0.241   2.383  2.8780 -0.7318  0.9911
  243SOL    HW2  971   1.035   0.326   2.486  0.7098 -0.6376  2.0105
  243SOL     MW  972   1.044   0.255   2.437  0.3503 -0.1396  0.6265
  244SOL     OW  973   0.247   0.733   2.371 -0.2163 -0.1401 -0.5689
  244SOL    HW1  974   0.244   0.830   2.371  2.2467  0.7167 -2.3085
  244SOL    HW2  975   0.332   0.710   2.343 -1.2215  0.2127  0.3651
  244SOL     MW  976   0.258   0.743   2.367 -0.0239  0.0195 -0.6752
  245SOL     OW  977   1.287   0.241   2.324 -0.0362 -0.0207 -0.0277
  245SOL    HW1  978   1.342   0.167   2.318 -0.5346 -1.2215 -0.7999
  245SOL    HW2  979   1.328   0.306   2.377 -0.5929  2.1389  0.3156
  245SOL     MW  980   1.300   0.240   2.330 -0.1754  0.1058 -0.0843
  246SOL     OW  981   1.176   1.235   2.131 -0.0554  0.4550 -0.4509
  246SOL    HW1  982   1.136   1.158   2.177 -0.4452 -0.8510  0.6645
  246SOL    HW2  983   1.206   1.296   2.202  1.0981 -2.9078 -0.6951
  246SOL     MW  984   1.175   1.233   2.146  0.0454 -0.1610 -0.3360
  247SOL     OW  985   0.775   0.596   0.116 -0.3114 -0.0914  0.3794
  247SOL    HW1  986   0.736   0.675   0.076  1.2507  0.1315 -1.4356
  247SOL    HW2  987   0.871   0.589   0.104  1.5133 -1.4170 -1.0443
  247SOL     MW  988   0.783   0.605   0.109  0.1355 -0.2369 -0.0479
  248SOL     OW  989   0.472   1.208   2.430  0.1906  0.4182 -0.6597
  248SOL    HW1  990   0.487   1.259   2.348 -1.0412 -1.9813 -0.1693
  248SOL    HW2  991   0.474   1.276   2.498  1.8561  0.0799  0.5268
  248SOL     MW  992   0.475   1.224   2.428  0.2478  0.0570 -0.4384
  249SOL     OW  993   0.134   1.841   2.697  0.0815  0.1019  0.2787
  249SOL    HW1  994   0.076   1.765   2.658 -1.0545  1.0678  0.4158
  249SOL    HW2  995   0.150   1.825   2.793 -0.0800 -0.0344  2.8297
  249SOL     MW  996   0.128   1.829   2.705 -0.0897  0.2114  0.6333
  250SOL     OW  997   2.190   0.857   2.413 -0.1768  0.0656 -0.5934
  250SOL    HW1  998   2.253   0.779   2.424 -0.4387 -1.8525  1.0390
  250SOL    HW2  999   2.201   0.910   2.494 -0.6305  1.4610  0.4842
  250SOL     MW 1000   2.200   0.854   2.425 -0.2712 -0.0034 -0.2358
  251SOL     OW 1001   0.158   0.949   2.051 -0.4949  0.2165 -0.0798
  251SOL    HW1 1002   0.162   0.869   2.097  0.1975  1.1355 -1.3725
  251SOL    HW2 1003   0.200   0.926   1.962  2.3252 -3.1362 -0.7636
  251SOL     MW 1004   0.164   0.935   2.045 -0.0315 -0.1046 -0.3406
  252SOL     OW 1005   1.685   0.995   2.894  0.2495 -0.3695 -0.5465
  252SOL    HW1 1006   1.710   1.041   2.979  0.3666  3.0450 -1.1089
  252SOL    HW2 1007   1.733   1.035   2.821  0.6370 -0.5622 -0.7444
  252SOL     MW 1008   1.694   1.006   2.896  0.3161  0.0556 -0.6468
  253SOL     OW 1009   1.183   1.777   2.560  0.8521 -0.0666  0.0828
  253SOL    HW1 1010   1.177   1.783   2.464 -0.1301  3.3189 -1.2310
  253SOL    HW2 1011   1.116   1.833   2.587 -0.6173 -2.8136 -1.7653
  253SOL     MW 1012   1.173   1.785   2.551  0.5286  0.0177 -0.3344
  254SOL     OW 1013   1.023   1.042   2.272 -0.3050 -0.0987  0.3680
  254SOL    HW1 1014   1.004   0.953   2.237 -1.2070  0.5152  0.8873
  254SOL    HW2 1015   0.945   1.100   2.276  1.5519 -2.6434 -0.4746
  254SOL     MW 1016   1.010   1.038   2.268 -0.1790 -0.3534  0.3253
  255SOL     OW 1017   0.832   2.547   2.200 -0.2507 -0.1007  0.4282
  255SOL    HW1 1018   0.751   2.499   2.221  0.0086 -1.7194  0.9964
  255SOL    HW2 1019   0.900   2.510   2.254 -2.1311 -2.0153  2.1712
  255SOL     MW 1020   0.830   2.536   2.210 -0.4646 -0.5669  0.7331
  256SOL     OW 1021   1.218   2.803   2.828  0.1825 -1.0254  0.0116
  256SOL    HW1 1022   1.234   2.723   2.773  2.1711  0.8309 -0.8227
  256SOL    HW2 1023   1.315   2.826   2.827  0.6670  3.2528  0.8167
  256SOL     MW 1024   1.233   2.796   2.821  0.5088 -0.2160  0.0078
  257SOL     OW 1025   0.119   1.933   0.101  0.0050  0.3263  0.1618
  257SOL    HW1 1026   0.141   1.871   0.169  0.8035  0.5170 -2.5832
  257SOL    HW2 1027   0.132   1.882   0.019  1.6112 -0.8247  0.0114
  257SOL     MW 1028   0.124   1.918   0.099  0.3223  0.1996 -0.2202
  258SOL     OW 1029   0.714   1.020   2.461 -0.3376  0.0537  0.5333
  258SOL    HW1 1030   0.735   1.079   2.392 -0.9559 -2.0249  0.9320
  258SOL    HW2 1031   0.632   1.051   2.484  3.9646  3.0467  2.6473
  258SOL     MW 1032   0.706   1.032   2.455  0.1484  0.1743  0.8649
  259SOL     OW 1033   0.743   0.485   2.355  0.3923 -0.3483  0.5599
  259SOL    HW1 1034   0.666   0.543   2.362  1.4183 -1.4070  0.5481
  259SOL    HW2 1035   0.701   0.400   2.353  1.4799  0.1191  0.8469
  259SOL     MW 1036   0.727   0.482   2.356  0.6712 -0.4263  0.5962
  260SOL     OW 1037   0.560   0.136   1.593 -0.9042 -0.2872  0.5388
  260SOL    HW1 1038   0.507   0.088   1.530 -1.2544  0.1900  1.5049
  260SOL    HW2 1039   0.654   0.112   1.567  0.1691 -1.9035 -1.3416
  260SOL     MW 1040   0.565   0.127   1.581 -0.8088 -0.4375  0.4182
  261SOL     OW 1041   1.273   0.727   2.014  0.6005  0.3752  0.1510
  261SOL    HW1 1042   1.308   0.742   2.102  0.9227  0.2678 -1.1406
  261SOL    HW2 1043   1.301   0.634   1.999  0.8994  1.2556  0.8608
  261SOL     MW 1044   1.281   0.717   2.023  0.6824  0.4772  0.0742
  262SOL     OW 1045   1.112   0.284   0.150 -0.4042  0.4024 -0.1175
  262SOL    HW1 1046   1.205   0.287   0.129 -0.6537  1.1083  0.8861
  262SOL    HW2 1047   1.075   0.225   0.090  1.1531  2.2080  0.2293
  262SOL     MW 1048   1.119   0.276   0.139 -0.2317  0.7338  0.0607
  263SOL     OW 1049   0.443   3.035   2.541 -0.2795  0.3262  0.1042
  263SOL    HW1 1050   0.369   3.095   2.544  0.7928  0.1318  0.1249
  263SOL    HW2 1051   0.479   3.037   2.452  0.9812 -1.7635  1.8738
  263SOL     MW 1052   0.438   3.043   2.530  0.0283  0.0248  0.3404
  264SOL     OW 1053   1.523   1.290   1.942  0.0604 -0.5173  0.2854
  264SOL    HW1 1054   1.479   1.335   2.015  0.7796 -2.5054  0.4684
  264SOL    HW2 1055   1.616   1.318   1.949 -1.3569 -0.6891  1.2503
  264SOL     MW 1056   1.530   1.300   1.952 -0.0317 -0.8023  0.4368
  265SOL     OW 1057   0.676   2.787   2.258 -0.3617  0.5536  0.6522
  265SOL    HW1 1058   0.727   2.714   2.221 -0.2295 -2.0449  0.0334
  265SOL    HW2 1059   0.701   2.770   2.351 -2.0737  2.5430 -1.9128
  265SOL     MW 1060   0.686   2.775   2.265 -0.5701  0.4732  0.2321
  266SOL     OW 1061   1.012   0.765   2.208  0.5566 -0.6266  0.4047
  266SOL    HW1 1062   0.994   0.699   2.136  1.2678 -3.7391  2.5191
  266SOL    HW2 1063   1.104   0.756   2.214  1.4005 -0.5945 -2.1019
  266SOL     MW 1064   1.022   0.755   2.199  0.7618 -1.0330  0.3529
  267SOL     OW 1065   1.373   1.665   2.730 -0.0604  0.6604  0.3655
  267SOL    HW1 1066   1.454   1.663   2.676 -0.4599 -1.1477  1.2352
  267SOL    HW2 1067   1.310   1.718   2.674 -2.2257 -1.8243  0.0931
  267SOL     MW 1068   1.375   1.672   2.716 -0.3988  0.0940  0.4443
  268SOL     OW 1069   0.275   0.827   1.762  0.1897  0.0659 -0.1694
  268SOL    HW1 1070   0.210   0.861   1.693  1.5668  2.1186 -2.2696
  268SOL    HW2 1071   0.285   0.731   1.747 -1.3421 -1.0447 -1.6084
  268SOL     MW 1072   0.267   0.819   1.751  0.1693  0.1902 -0.6364
  269SOL     OW 1073   1.402   1.938   2.361  0.1658 -0.1226 -0.2908
  269SOL    HW1 1074   1.447   2.010   2.316  1.6797  2.0034  3.0902
  269SOL    HW2 1075   1.351   1.986   2.419  1.0402  1.1578  1.1284
  269SOL     MW 1076   1.401   1.954   2.363  0.4809  0.3268  0.3425
  270SOL     OW 1077   1.188   0.378   1.595  0.1638 -0.0429 -0.3675
  270SOL    HW1 1078   1.126   0.302   1.607  0.5039 -0.0664 -1.5954
  270SOL    HW2 1079   1.280   0.352   1.606 -2.3443 -1.4710  0.7730
  270SOL     MW 1080   1.192   0.364   1.598 -0.1223 -0.2344 -0.3790
  271SOL     OW 1081   0.897  -0.003   2.492  0.0179  0.2078  0.0984
  271SOL    HW1 1082   0.968  -0.043   2.546 -1.7790  2.0805  1.8930
  271SOL    HW2 1083   0.927   0.091   2.502 -0.2472 -2.4700 -1.6418
  271SOL     MW 1084   0.910   0.004   2.501 -0.2542  0.1016  0.1056
  272SOL     OW 1085   1.467   2.884   2.786 -0.3028  0.3107  0.1128
  272SOL    HW1 1086   1.446   2.930   2.705  1.8596 -1.3103  0.8848
  272SOL    HW2 1087   1.495   2.946   2.857  0.2471 -1.6804 -1.2901
  272SOL     MW 1088   1.468   2.898   2.784  0.0551 -0.1658  0.0296
  273SOL     OW 1089   1.441   0.900   2.862  0.2071  0.5769 -0.5410
  273SOL    HW1 1090   1.533   0.926   2.868 -1.8806  0.1347 -0.4875
  273SOL    HW2 1091   1.402   0.987   2.866 -1.0529  1.5209 -0.0191
  273SOL     MW 1092   1.448   0.915   2.863 -0.2346  0.6431 -0.4651
  274SOL     OW 1093   1.426   0.754   0.202  0.4378 -0.2430 -0.2913
  274SOL    HW1 1094   1.459   0.664   0.200 -0.2662  2.1205  0.9600
  274SOL    HW2 1095   1.336   0.753   0.250 -1.9973 -0.5462 -1.6280
  274SOL     MW 1096   1.418   0.742   0.208  0.0236  0.0288 -0.3026
  275SOL     OW 1097   1.691   0.636   1.794 -0.0096 -0.4865  0.7852
  275SOL    HW1 1098   1.748   0.670   1.862  3.0905  1.7859  0.0641
  275SOL    HW2 1099   1.712   0.539   1.790  1.9717 -0.9980  0.8758
  275SOL     MW 1100   1.701   0.627   1.803  0.6608 -0.2541  0.7020
  276SOL     OW 1101   0.286   1.228   1.807  0.2078 -0.1785  0.3912
  276SOL    HW1 1102   0.329   1.164   1.866  1.0902  0.8169 -0.2933
  276SOL    HW2 1103   0.212   1.248   1.860  1.3144 -2.6474 -1.2612
  276SOL     MW 1104   0.282   1.222   1.822  0.4702 -0.3729  0.0829
  277SOL     OW 1105   1.872   1.280   2.479 -0.2734  0.0201 -0.7781
  277SOL    HW1 1106   1.937   1.358   2.478 -0.1834  0.9342 -0.3664
  277SOL    HW2 1107   1.891   1.223   2.553  1.4932 -0.9167 -0.6282
  277SOL     MW 1108   1.883   1.283   2.488 -0.0285  0.0171 -0.7040
  278SOL     OW 1109   1.438   0.626   1.702  0.2748 -0.3822 -0.5488
  278SOL    HW1 1110   1.415   0.569   1.779 -1.5201 -0.4500  0.9249
  278SOL    HW2 1111   1.525   0.643   1.731 -1.2019  1.1802  1.7340
  278SOL     MW 1112   1.446   0.621   1.716 -0.1568 -0.1850 -0.0532
  279SOL     OW 1113   0.525   0.036   2.256  0.4437  0.1449  0.2775
  279SOL    HW1 1114   0.600  -0.018   2.232 -0.1602 -0.9772 -3.0469
  279SOL    HW2 1115   0.570   0.122   2.265  2.8465  0.6201 -0.0471
  279SOL     MW 1116   0.541   0.040   2.254  0.6811  0.0596 -0.2039
  280SOL     OW 1117   1.495   1.071   2.169 -0.5241 -0.4951 -0.0607
  280SOL    HW1 1118   1.542   0.996   2.135 -0.3901 -1.3092  1.9529
  280SOL    HW2 1119   1.484   1.044   2.263  0.0428  0.8905  0.8010
  280SOL     MW 1120   1.500   1.058   2.177 -0.4317 -0.4197  0.3187
  281SOL     OW 1121   1.290   1.281   2.726 -0.1898  0.2951 -0.3014
  281SOL    HW1 1122   1.379   1.309   2.755 -3.6979  0.1394  1.0148
  281SOL    HW2 1123   1.258   1.232   2.799 -0.1433 -0.4169 -2.6377
  281SOL     MW 1124   1.297   1.278   2.739 -0.6465  0.1806 -0.4360
  282SOL     OW 1125   1.135   1.289   1.658  0.2163 -0.0077 -0.3211
  282SOL    HW1 1126   1.071   1.354   1.633  1.1456 -3.3815  1.1220
  282SOL    HW2 1127   1.124   1.274   1.754  3.3135 -2.7510  0.1882
  282SOL     MW 1128   1.125   1.295   1.667  0.7476 -0.8148 -0.0635
  283SOL     OW 1129   0.659   1.291   3.042  0.8364 -0.3428 -0.4135
  283SOL    HW1 1130   0.747   1.265   3.079  1.7720 -0.1679 -1.0885
  283SOL    HW2 1131   0.644   1.383   3.081 -1.1117  3.5635 -1.8523
  283SOL     MW 1132   0.669   1.300   3.052  0.7028  0.1956 -0.6924
  284SOL     OW 1133   0.540   0.663   2.372 -0.3108 -0.1795  0.4343
  284SOL    HW1 1134   0.601   0.724   2.322  0.3596  1.3189 -0.0317
  284SOL    HW2 1135   0.492   0.598   2.311 -0.2488 -1.2113 -2.3354
  284SOL     MW 1136   0.542   0.663   2.357 -0.2141 -0.1179  0.0074
  285SOL     OW 1137   0.852   0.937   2.833 -0.4043 -0.3768 -0.4857
  285SOL    HW1 1138   0.902   0.965   2.749  1.6215  0.1589  0.2155
  285SOL    HW2 1139   0.814   0.852   2.815 -0.0676  0.5324 -1.7641
  285SOL     MW 1140   0.854   0.930   2.819 -0.0926 -0.1862 -0.5619
  286SOL     OW 1141   1.133   1.493   2.578  1.1532 -0.0395 -0.2783
  286SOL    HW1 1142   1.211   1.453   2.622  0.5454  1.9310  1.6735
  286SOL    HW2 1143   1.147   1.586   2.582  0.8625 -0.3008 -0.4399
  286SOL     MW 1144   1.145   1.500   2.584  1.0346  0.1860 -0.0421
  287SOL     OW 1145   1.056   0.949   0.284  0.5259 -0.1440 -0.3838
  287SOL    HW1 1146   1.085   1.002   0.362 -2.1465 -0.8421 -0.0422
  287SOL    HW2 1147   0.966   0.977   0.270  1.1804 -1.3845  2.1209
  287SOL     MW 1148   1.048   0.960   0.293  0.2596 -0.3998 -0.0082
  288SOL     OW 1149   1.596   0.632   2.116 -0.4104 -0.5544  0.0217
  288SOL    HW1 1150   1.576   0.648   2.210  0.9784  2.1236 -0.7656
  288SOL    HW2 1151   1.604   0.720   2.073  0.2971  0.9414  0.7213
  288SOL     MW 1152   1.594   0.646   2.123 -0.1339 -0.0037  0.0102
  289SOL     OW 1153   0.948   1.019   2.589 -0.7398 -0.0991 -0.2729
  289SOL    HW1 1154   1.016   0.957   2.546 -0.8165  3.7076 -3.1091
  289SOL    HW2 1155   0.866   1.011   2.534 -2.4504 -3.1179 -0.3450
  289SOL     MW 1156   0.946   1.010   2.576 -0.9756  0.0049 -0.6566
  290SOL     OW 1157   0.890   0.553   1.575  0.5452  0.3186 -0.0592
  290SOL    HW1 1158   0.943   0.528   1.498  0.6297  2.2462 -2.1386
  290SOL    HW2 1159   0.949   0.551   1.650  2.6187  0.3441  0.6098
  290SOL     MW 1160   0.905   0.549   1.574  0.8299  0.5763 -0.2453
  291SOL     OW 1161   0.166   0.341   0.146  0.3002 -0.4098 -0.1789
  291SOL    HW1 1162   0.245   0.289   0.156 -1.0749  1.4085  1.2027
  291SOL    HW2 1163   0.127   0.291   0.068  3.1096  3.0846  0.6213
  291SOL     MW 1164   0.171   0.327   0.137  0.4895  0.2912  0.1090
  292SOL     OW 1165   1.048   0.552   0.091  0.0723 -0.2274  0.0961
  292SOL    HW1 1166   1.092   0.599   0.166 -0.8136  1.0156  1.1417
  292SOL    HW2 1167   1.077   0.463   0.115 -0.8979  2.3416  1.9065
  292SOL     MW 1168   1.058   0.547   0.104 -0.1726  0.2756  0.4730
  293SOL     OW 1169   0.244   0.146   2.436  0.1079 -0.0105 -0.3428
  293SOL    HW1 1170   0.169   0.089   2.403 -2.4619  0.5370  2.6209
  293SOL    HW2 1171   0.200   0.205   2.494  1.7472 -0.0973  0.6889
  293SOL     MW 1172   0.228   0.146   2.439 -0.0149  0.0502  0.1843
  294SOL     OW 1173   1.500   0.616   2.398 -0.1975 -0.1505 -0.0291
  294SOL    HW1 1174   1.509   0.670   2.477  2.3118 -0.6491  0.7818
  294SOL    HW2 1175   1.497   0.527   2.425  1.4134  4.2172 -1.6403
  294SOL     MW 1176   1.501   0.612   2.412  0.3461  0.3600 -0.1347
  295SOL     OW 1177   0.899   0.666   2.511 -0.3276 -0.4850 -0.4352
  295SOL    HW1 1178   0.870   0.611   2.439  1.9813  1.4123  3.6493
  295SOL    HW2 1179   0.817   0.678   2.563 -0.3227  1.5848 -2.5095
  295SOL     MW 1180   0.885   0.661   2.508 -0.0223  0.0384 -0.1700
  296SOL     OW 1181   1.262   0.285   2.060 -0.0501 -0.2818 -0.0494
  296SOL    HW1 1182   1.330   0.229   2.012  0.3938 -1.8805 -1.4393
  296SOL    HW2 1183   1.263   0.272   2.157  0.5233  0.1049 -0.5943
  296SOL     MW 1184   1.271   0.276   2.066  0.0841 -0.4417 -0.3047
  297SOL     OW 1185   1.475   0.349   1.595 -0.4749 -0.1770 -0.4867
  297SOL    HW1 1186   1.460   0.411   1.667  1.1290 -1.6165  2.6874
  297SOL    HW2 1187   1.516   0.271   1.633 -0.7167  1.1820  0.3508
  297SOL     MW 1188   1.479   0.347   1.609 -0.2952 -0.1876  0.0426
  298SOL     OW 1189   1.652   0.881   2.007  0.2897 -0.4181 -0.6938
  298SOL    HW1 1190   1.625   0.923   1.921 -1.9427  1.3759 -0.5893
  298SOL    HW2 1191   1.746   0.894   2.025  0.2482 -1.2197  0.6309
  298SOL     MW 1192   1.661   0.888   1.998 -0.0104 -0.2871 -0.5052
  299SOL     OW 1193   0.569   1.056   3.103 -0.0966  0.4943  0.1514
  299SOL    HW1 1194   0.608   1.141   3.080 -0.0063 -1.3273 -0.8916
  299SOL    HW2 1195   0.485   1.046   3.059  0.0870 -2.5163 -1.4039
  299SOL     MW 1196   0.563   1.066   3.094 -0.0604 -0.1433 -0.1914
  300SOL     OW 1197   1.189   1.154   2.505  0.2680 -0.1310  0.0230
  300SOL    HW1 1198   1.101   1.117   2.539  0.8876  2.3128  2.4818
  300SOL    HW2 1199   1.215   1.195   2.587 -1.7031 -0.2213 -1.5700
  300SOL     MW 1200   1.180   1.154   2.520  0.0897  0.1795  0.1372
  301SOL     OW 1201   1.382   0.910   0.675  0.1265 -0.1466  0.7019
  301SOL    HW1 1202   1.446   0.927   0.751 -1.0249  1.4670  2.2453
  301SOL    HW2 1203   1.297   0.870   0.708 -1.9309  1.7560 -0.1451
  301SOL     MW 1204   1.379   0.907   0.690 -0.2969  0.3173  0.7938
  302SOL     OW 1205   0.097   1.497   2.034  0.7635 -0.1511  0.1059
  302SOL    HW1 1206   0.106   1.437   2.113 -0.0761  1.3344 -0.4513
  302SOL    HW2 1207   0.062   1.582   2.072 -1.7078 -1.2665 -0.3027
  302SOL     MW 1208   0.093   1.501   2.049  0.3266 -0.1022 -0.0215
  303SOL     OW 1209   0.385   1.691   2.620  0.4989  0.2022  0.3943
  303SOL    HW1 1210   0.350   1.661   2.535 -1.5938 -2.1233  2.0096
  303SOL    HW2 1211   0.298   1.715   2.658  1.5256  1.0922  2.2054
  303SOL     MW 1212   0.369   1.690   2.614  0.3582  0.0128  0.8463
  304SOL     OW 1213   0.648   2.062   2.358 -0.8647 -0.2317 -0.1324
  304SOL    HW1 1214   0.709   2.114   2.310 -1.6878  0.2213  1.0339
  304SOL    HW2 1215   0.699   1.985   2.385  1.7966 -0.0451 -0.5841
  304SOL     MW 1216   0.663   2.059   2.355 -0.6222 -0.1473 -0.0381
  305SOL     OW 1217   1.093   0.577   0.532  0.2958 -0.3540 -0.0837
  305SOL    HW1 1218   1.004   0.563   0.491  0.8462  2.9215  1.8542
  305SOL    HW2 1219   1.123   0.483   0.548 -1.6423 -0.0991  0.2235
  305SOL     MW 1220   1.085   0.563   0.528  0.1127  0.1118  0.2125
  306SOL     OW 1221   1.224   1.483   0.268  0.5373 -0.2232 -0.1928
  306SOL    HW1 1222   1.258   1.407   0.307 -0.1257 -0.6997 -1.4569
  306SOL    HW2 1223   1.282   1.496   0.191 -1.1060  1.4858  3.2504
  306SOL     MW 1224   1.236   1.475   0.263  0.2330 -0.0606  0.0947
  307SOL     OW 1225   1.389   0.484   1.938  0.1783  0.2488 -0.1321
  307SOL    HW1 1226   1.340   0.423   2.000 -3.1766 -0.4258  1.7097
  307SOL    HW2 1227   1.468   0.503   1.994  3.4480 -1.1178  2.7115
  307SOL     MW 1228   1.393   0.478   1.954  0.1670 -0.0205  0.4861
  308SOL     OW 1229   2.143   0.598   2.695 -0.9184  0.1346 -0.2375
  308SOL    HW1 1230   2.234   0.565   2.721  1.4955  0.6279  2.7541
  308SOL    HW2 1231   2.147   0.692   2.711 -1.7157 -3.0499  1.7202
  308SOL     MW 1232   2.155   0.606   2.700 -0.7051 -0.2205  0.4155
  309SOL     OW 1233   0.400   0.376   0.409 -0.4562  0.0319  0.1280
  309SOL    HW1 1234   0.486   0.368   0.450  0.0665  1.2001  0.3110
  309SOL    HW2 1235   0.410   0.339   0.322 -0.4852 -0.0657  0.8479
  309SOL     MW 1236   0.412   0.370   0.403 -0.3910  0.1732  0.2471
  310SOL     OW 1237   0.484   0.591   1.916 -0.0710 -0.2209 -0.0097
  310SOL    HW1 1238   0.520   0.501   1.908 -1.5736  0.3021  0.8809
  310SOL    HW2 1239   0.560   0.655   1.910  1.4739  1.6589  1.8539
  310SOL     MW 1240   0.499   0.588   1.914 -0.0654  0.0961  0.3536
  311SOL     OW 1241   1.901   0.734   1.973  0.4958 -0.2422 -0.0996
  311SOL    HW1 1242   1.882   0.722   2.065  0.5398 -1.2971  0.2768
  311SOL    HW2 1243   1.940   0.644   1.953  1.1136 -1.2879 -0.3130
  311SOL     MW 1244   1.903   0.720   1.982  0.5831 -0.5194 -0.0781
  312SOL     OW 1245   1.670   2.506   0.116 -0.0985 -0.0111 -0.0329
  312SOL    HW1 1246   1.723   2.523   0.195 -0.0673 -0.7872  2.0970
  312SOL    HW2 1247   1.595   2.563   0.110 -1.9592 -1.3063 -3.8851
  312SOL     MW 1248   1.667   2.515   0.126 -0.3399 -0.2844 -0.2602
  313SOL     OW 1249   0.094   1.220   2.972  0.3258 -0.2682  0.2881
  313SOL    HW1 1250   0.105   1.180   3.059 -0.2258 -2.9752 -0.5867
  313SOL    HW2 1251   0.167   1.272   2.961 -0.8525  1.4889  0.7010
  313SOL     MW 1252   0.105   1.221   2.982  0.0975 -0.3935  0.2271
  314SOL     OW 1253   2.119   2.968   3.010 -0.6514 -0.0080 -0.1747
  314SOL    HW1 1254   2.069   2.999   2.934  2.1127  0.8204 -1.7552
  314SOL    HW2 1255   2.161   3.046   3.037 -1.0861 -1.1794  0.6001
  314SOL     MW 1256   2.118   2.983   3.004 -0.3441 -0.0532 -0.2810
  315SOL     OW 1257   1.516   1.901   0.050  0.2234  0.5966 -0.0677
  315SOL    HW1 1258   1.447   1.971   0.075 -0.4792  0.8115  0.0428
  315SOL    HW2 1259   1.550   1.934  -0.036  0.8348  0.7652 -0.2773
  315SOL     MW 1260   1.511   1.915   0.042  0.2114  0.6472 -0.0808
  316SOL     OW 1261   1.301   0.663   2.692  0.1856 -0.2252  0.2070
  316SOL    HW1 1262   1.388   0.694   2.661  0.7210  1.0806  3.8334
  316SOL    HW2 1263   1.304   0.695   2.780  1.0022  2.9869  1.0320
  316SOL     MW 1264   1.313   0.671   2.699  0.3640  0.3709  0.7943
  317SOL     OW 1265   0.701   1.501   2.543  0.0817  0.1880  0.4333
  317SOL    HW1 1266   0.776   1.440   2.552  0.4586  0.3417  1.5713
  317SOL    HW2 1267   0.710   1.556   2.459  1.9539  0.4863 -0.5648
  317SOL     MW 1268   0.712   1.500   2.533  0.3784  0.2476  0.4518
  318SOL     OW 1269   1.341   0.401   2.935 -0.1574 -0.4726 -0.2146
  318SOL    HW1 1270   1.261   0.459   2.938 -4.2577  1.1280  0.1124
  318SOL    HW2 1271   1.418   0.456   2.919  1.6472 -0.7437  0.6221
  318SOL     MW 1272   1.340   0.416   2.933 -0.4603 -0.2972 -0.0611
  319SOL     OW 1273   0.766   0.418   2.863 -0.1856 -0.2188  0.2487
  319SOL    HW1 1274   0.728   0.350   2.808  1.0488  0.3538 -1.6284
  319SOL    HW2 1275   0.741   0.405   2.957 -1.4293 -1.0718  0.4337
  319SOL     MW 1276   0.758   0.407   2.868 -0.1868 -0.2558  0.0255
  320SOL     OW 1277   1.052   1.327   1.926  0.8435  0.0806  0.1185
  320SOL    HW1 1278   1.104   1.293   2.006 -1.3121  2.5017  1.0285
  320SOL    HW2 1279   1.086   1.418   1.916  0.8173  1.4791  1.0338
  320SOL     MW 1280   1.063   1.335   1.935  0.5556  0.5846  0.3593
  321SOL     OW 1281   1.043   0.996   3.039  0.7316  0.0391 -0.2194
  321SOL    HW1 1282   0.991   0.949   2.972 -1.3586 -1.4437  0.0618
  321SOL    HW2 1283   1.074   0.917   3.083  0.2317 -0.6400  0.6452
  321SOL     MW 1284   1.040   0.979   3.036  0.3899 -0.2461 -0.0682
  322SOL     OW 1285   1.210   0.792   1.713  0.8134  0.3992 -0.3412
  322SOL    HW1 1286   1.290   0.753   1.746  2.2181 -1.8802  0.3591
  322SOL    HW2 1287   1.189   0.853   1.782  0.5991 -0.8280 -0.0319
  322SOL     MW 1288   1.218   0.795   1.727  0.9705 -0.0635 -0.2080
  323SOL     OW 1289   1.209   1.543   1.886 -0.0551 -0.2091  0.1511
  323SOL    HW1 1290   1.248   1.498   1.808 -0.0112  3.3261 -0.0512
  323SOL    HW2 1291   1.153   1.618   1.861  1.6262 -0.9668 -0.0677
  323SOL     MW 1292   1.207   1.547   1.873  0.1725  0.1574  0.0956
  324SOL     OW 1293   1.471   1.008   2.433  0.2769  0.5668 -0.1777
  324SOL    HW1 1294   1.375   1.046   2.429  0.6152 -2.1234  1.7209
  324SOL    HW2 1295   1.527   1.078   2.460 -0.2720 -1.1681 -3.2302
  324SOL     MW 1296   1.466   1.022   2.436  0.2491 -0.0171 -0.3299
  325SOL     OW 1297   1.091   0.511   2.900  0.0209 -0.1837  0.3601
  325SOL    HW1 1298   1.064   0.546   2.987 -0.3026 -2.1368  1.0790
  325SOL    HW2 1299   1.018   0.518   2.848  1.3106 -1.0321 -2.2670
  325SOL     MW 1300   1.078   0.517   2.905  0.1484 -0.5534  0.1083
  326SOL     OW 1301   0.477   1.344   2.215 -0.2127 -0.6866 -0.2083
  326SOL    HW1 1302   0.551   1.337   2.154  1.6639 -0.8172 -0.8615
  326SOL    HW2 1303   0.461   1.442   2.214 -0.8338 -2.1400 -1.4445
  326SOL     MW 1304   0.484   1.356   2.207 -0.0471 -0.8956 -0.4576
  327SOL     OW 1305   1.896   0.865   2.455  0.3431 -0.2960 -0.3935
  327SOL    HW1 1306   1.892   0.776   2.504 -0.9865  0.0852  1.0841
  327SOL    HW2 1307   1.992   0.873   2.428  1.6941 -0.9637  0.6854
  327SOL     MW 1308   1.908   0.854   2.458  0.3459 -0.3338 -0.0562
  328SOL     OW 1309   0.193   1.274   2.213  0.2515 -0.1775 -0.5966
  328SOL    HW1 1310   0.165   1.233   2.130  0.2431 -1.7996  2.6472
  328SOL    HW2 1311   0.287   1.288   2.213  2.1854 -0.6348 -1.4245
  328SOL     MW 1312   0.202   1.270   2.202  0.5055 -0.4518 -0.2779
  329SOL     OW 1313   0.129   0.081   1.389 -0.3954 -0.9876 -0.1797
  329SOL    HW1 1314   0.111   0.112   1.478 -0.2686 -1.2180  1.6497
  329SOL    HW2 1315   0.199   0.139   1.352 -0.3146  4.6522 -1.0274
  329SOL     MW 1316   0.136   0.093   1.396 -0.3680 -0.2739 -0.0502
  330SOL     OW 1317   0.306   3.091   2.079 -0.3743  0.1257 -0.4297
  330SOL    HW1 1318   0.383   3.128   2.130 -0.5183 -0.7796  1.8707
  330SOL    HW2 1319   0.260   3.041   2.140  0.4160 -0.9308  1.6136
  330SOL     MW 1320   0.310   3.089   2.094 -0.2890 -0.1331  0.1434
  331SOL     OW 1321   0.805   1.203   2.282  0.9013  0.0038 -0.2595
  331SOL    HW1 1322   0.763   1.234   2.202  0.9108 -1.3057  0.9453
  331SOL    HW2 1323   0.787   1.270   2.346  1.9042  1.0920  0.6765
  331SOL     MW 1324   0.797   1.216   2.280  1.0349 -0.0254  0.0230
  332SOL     OW 1325   1.356   1.688   3.001  0.2751  0.0881  0.0898
  332SOL    HW1 1326   1.350   1.685   2.902  0.1711  0.1356  3.4274
  332SOL    HW2 1327   1.400   1.767   3.030  1.3161  1.0007  1.1968
  332SOL     MW 1328   1.361   1.698   2.991  0.3987  0.2147  0.6762
  333SOL     OW 1329   1.800   1.452   2.969 -0.4265 -0.3269 -0.2867
  333SOL    HW1 1330   1.896   1.470   2.995  0.1113 -0.8399  2.9698
  333SOL    HW2 1331   1.759   1.415   3.048  2.5316 -0.0010 -1.8473
  333SOL     MW 1332   1.807   1.450   2.983  0.0348 -0.3516 -0.0629
  334SOL     OW 1333   1.388   3.081   2.577  0.6345  0.0607 -0.3966
  334SOL    HW1 1334   1.300   3.106   2.609  0.1788 -0.7054 -0.5015
  334SOL    HW2 1335   1.444   3.159   2.589  1.3492  0.3200 -1.0109
  334SOL     MW 1336   1.384   3.094   2.583  0.6687 -0.0061 -0.4915
  335SOL     OW 1337   1.254   0.774   3.018  0.1924 -0.0334 -0.4509
  335SOL    HW1 1338   1.295   0.746   3.100  0.0610 -2.2958 -1.6641
  335SOL    HW2 1339   1.330   0.806   2.969  0.4038 -3.0942  2.9464
  335SOL     MW 1340   1.270   0.775   3.022  0.2029 -0.7358 -0.1627
  336SOL     OW 1341   0.940   1.081   1.904  0.0592 -0.6349  0.7289
  336SOL    HW1 1342   0.960   1.172   1.925  1.0598 -0.4544  0.2876
  336SOL    HW2 1343   1.027   1.048   1.911  0.6378  1.7471 -2.5202
  336SOL     MW 1344   0.954   1.088   1.907  0.2675 -0.2968  0.2420
  337SOL     OW 1345   0.621   1.777   2.819  0.3321  0.3350 -0.3207
  337SOL    HW1 1346   0.562   1.759   2.744  2.4982 -0.0551 -0.2806
  337SOL    HW2 1347   0.706   1.734   2.792 -0.0271 -3.3325 -2.0378
  337SOL     MW 1348   0.624   1.769   2.806  0.5705 -0.2004 -0.5420
  338SOL     OW 1349   1.140   0.841   2.525 -0.0477 -0.2566 -0.4589
  338SOL    HW1 1350   1.066   0.777   2.512  1.0089 -0.8808 -0.1530
  338SOL    HW2 1351   1.195   0.797   2.591  2.4311 -0.1718  0.1271
  338SOL     MW 1352   1.137   0.827   2.532  0.4188 -0.3278 -0.3412
  339SOL     OW 1353   1.552   1.045   1.793  0.3798  0.4664  0.4993
  339SOL    HW1 1354   1.479   1.050   1.728 -1.9466 -1.2831 -1.9624
  339SOL    HW2 1355   1.537   1.115   1.859 -0.2492  1.1431 -1.0972
  339SOL     MW 1356   1.541   1.055   1.793 -0.0102  0.3249 -0.0361
  340SOL     OW 1357   1.400   1.470   0.054  0.3151 -0.2311 -0.0930
  340SOL    HW1 1358   1.377   1.548   0.009 -0.6310 -3.0531 -0.5015
  340SOL    HW2 1359   1.487   1.475   0.091  0.5831  0.7344 -0.4029
  340SOL     MW 1360   1.409   1.481   0.053  0.2256 -0.4761 -0.1878
  341SOL     OW 1361   0.106   1.401   2.682  0.1113 -0.1752 -0.2455
  341SOL    HW1 1362   0.198   1.380   2.664 -0.3682  0.5926  1.3177
  341SOL    HW2 1363   0.050   1.339   2.630  1.4707  0.3642  2.4313
  341SOL     MW 1364   0.111   1.390   2.673  0.2274 -0.0027  0.3140
  342SOL     OW 1365   1.385   0.300   0.085 -0.4368  0.0169 -0.1015
  342SOL    HW1 1366   1.416   0.381   0.122 -0.9479 -1.6079 -1.2990
  342SOL    HW2 1367   1.378   0.314  -0.011  1.7055  1.1442 -0.9076
  342SOL     MW 1368   1.388   0.312   0.077 -0.2216 -0.0487 -0.3659
  343SOL     OW 1369   0.211   0.308   2.223  0.3060 -0.2410 -0.2408
  343SOL    HW1 1370   0.243   0.264   2.308 -1.5880 -0.0221  1.0327
  343SOL    HW2 1371   0.190   0.230   2.170  1.8996 -0.1083 -0.5031
  343SOL     MW 1372   0.213   0.292   2.227  0.2664 -0.1946 -0.1074
  344SOL     OW 1373   1.683   2.060   0.187  0.4896 -0.3945 -0.2423
  344SOL    HW1 1374   1.685   2.137   0.127  0.8056 -0.2960 -0.1319
  344SOL    HW2 1375   1.642   1.994   0.138 -0.4176  2.0959 -2.1573
  344SOL     MW 1376   1.678   2.062   0.172  0.4116 -0.0529 -0.4804
  345SOL     OW 1377   0.738   1.634   2.310  0.0611  0.4638 -0.0953
  345SOL    HW1 1378   0.651   1.654   2.265 -1.8025  0.9655 -3.2941
  345SOL    HW2 1379   0.787   1.571   2.256 -2.2772 -1.1327 -1.6807
  345SOL     MW 1380   0.733   1.628   2.297 -0.4933  0.3194 -0.7265
  346SOL     OW 1381   1.740   1.133   0.038  0.1927  0.3802 -0.2811
  346SOL    HW1 1382   1.836   1.139   0.021 -0.2761  1.9794 -0.2129
  346SOL    HW2 1383   1.726   1.048   0.073  1.0137  0.4293 -1.7800
  346SOL     MW 1384   1.751   1.123   0.040  0.2392  0.5977 -0.4699
  347SOL     OW 1385   1.275   0.768   2.293 -0.2982  0.3580  0.2162
  347SOL    HW1 1386   1.354   0.725   2.328  0.6877  0.9943 -1.4530
  347SOL    HW2 1387   1.218   0.782   2.365  0.1480 -2.3268 -1.3801
  347SOL     MW 1388   1.278   0.764   2.307 -0.1092  0.0878 -0.2147
  348SOL     OW 1389   1.340   2.604   1.862  1.0610  0.3989  0.2371
  348SOL    HW1 1390   1.391   2.538   1.911  0.1250  1.8255 -2.3936
  348SOL    HW2 1391   1.383   2.686   1.881 -0.2260  1.6313 -0.8996
  348SOL     MW 1392   1.353   2.606   1.871  0.7677  0.7497 -0.2600
  349SOL     OW 1393   1.406   0.258   2.709 -0.1476  0.1032  0.3874
  349SOL    HW1 1394   1.354   0.303   2.780 -0.5430 -0.8138 -0.0370
  349SOL    HW2 1395   1.496   0.283   2.723  1.2676  1.3548  1.0573
  349SOL     MW 1396   1.411   0.267   2.721 -0.0130  0.1473  0.4198
  350SOL     OW 1397   1.895   0.639   2.612  0.2373 -0.1680  0.2685
  350SOL    HW1 1398   1.843   0.560   2.583  1.5656  0.6028 -0.6722
  350SOL    HW2 1399   1.988   0.602   2.617  3.5349 -1.3839  1.0107
  350SOL     MW 1400   1.900   0.624   2.609  0.8476 -0.2267  0.2423
  351SOL     OW 1401   0.096   0.937   1.584 -0.9410  0.2552 -0.7524
  351SOL    HW1 1402   0.028   0.985   1.636 -0.1158  1.8195  1.8480
  351SOL    HW2 1403   0.151   1.012   1.553 -2.8786  0.1898 -0.6866
  351SOL     MW 1404   0.094   0.953   1.587 -1.0877  0.4529 -0.4006
  352SOL     OW 1405   0.848   1.670   2.717  0.2639  0.4912 -0.0876
  352SOL    HW1 1406   0.895   1.628   2.792  1.4401  1.4803 -3.1438
  352SOL    HW2 1407   0.813   1.599   2.659 -1.6323  0.2664 -0.4176
  352SOL     MW 1408   0.850   1.655   2.719  0.1689  0.5920 -0.5344
  353SOL     OW 1409   3.054   2.454   2.728  0.5268 -0.2078  0.5642
  353SOL    HW1 1410   3.149   2.459   2.720 -0.0303 -3.3294 -1.5389
  353SOL    HW2 1411   3.025   2.542   2.712  0.8660  2.5107 -0.1877
  353SOL     MW 1412   3.063   2.466   2.725  0.4980 -0.2610  0.1875
  354SOL     OW 1413   0.367   2.475   0.850 -0.2400  0.5975 -0.4266
  354SOL    HW1 1414   0.370   2.453   0.946 -2.3348 -0.3492  0.6614
  354SOL    HW2 1415   0.303   2.405   0.809  0.7826 -2.3655  1.1205
  354SOL     MW 1416   0.359   2.463   0.857 -0.3815  0.0817 -0.0790
  355SOL     OW 1417   0.026   2.218   0.378 -0.0541  0.6848 -0.4626
  355SOL    HW1 1418  -0.050   2.156   0.385  1.3082 -0.5469 -0.9796
  355SOL    HW2 1419   0.000   2.277   0.443  0.1213 -0.4995 -2.4507
  355SOL     MW 1420   0.013   2.217   0.387  0.1488  0.3661 -0.7931
  356SOL     OW 1421   0.869   2.884   1.059 -0.5853  0.0582 -0.3973
  356SOL    HW1 1422   0.888   2.860   0.964 -1.0052 -2.2395 -1.5863
  356SOL    HW2 1423   0.778   2.872   1.066 -1.5336 -0.6753  0.8323
  356SOL     MW 1424   0.859   2.879   1.048 -0.7658 -0.3417 -0.3919
  357SOL     OW 1425   1.791   2.943   0.398  0.4069 -0.0280  0.7531
  357SOL    HW1 1426   1.721   2.879   0.425  1.5731 -1.8906 -0.6086
  357SOL    HW2 1427   1.870   2.907   0.380 -3.5558  2.6885  1.0326
  357SOL     MW 1428   1.792   2.929   0.399  0.0379  0.0847  0.6103
  358SOL     OW 1429   0.459   0.068   1.070  0.7164 -0.1928 -0.0802
  358SOL    HW1 1430   0.548   0.031   1.062  1.6929 -0.2925  0.5098
  358SOL    HW2 1431   0.434   0.111   0.988  0.8854 -0.0325 -0.5928
  358SOL     MW 1432   0.468   0.069   1.058  0.8675 -0.1848 -0.0700
  359SOL     OW 1433   0.894   2.835   1.830 -0.1788 -0.1163  0.1664
  359SOL    HW1 1434   0.892   2.753   1.887  0.4625  0.5633  0.1444
  359SOL    HW2 1435   0.941   2.802   1.750 -1.6991 -3.3123 -3.8701
  359SOL     MW 1436   0.900   2.820   1.827 -0.2948 -0.4483 -0.3690
  360SOL     OW 1437   0.585   2.798   1.014  0.0037  0.1663 -0.0447
  360SOL    HW1 1438   0.620   2.752   0.934 -1.7198 -0.5253  0.8938
  360SOL    HW2 1439   0.564   2.731   1.081  0.7491  2.3450  0.2079
  360SOL     MW 1440   0.587   2.783   1.012 -0.1253  0.3625  0.1125
  361SOL     OW 1441   0.187   2.717   1.336 -0.0813  0.4548  0.4406
  361SOL    HW1 1442   0.151   2.786   1.395  1.9493 -2.8307  0.5685
  361SOL    HW2 1443   0.276   2.705   1.368  2.2492 -2.2543 -2.2893
  361SOL     MW 1444   0.194   2.724   1.348  0.4941 -0.3361  0.0973
  362SOL     OW 1445   1.458   2.446   0.651  0.6677  0.1424 -0.0831
  362SOL    HW1 1446   1.454   2.367   0.699  0.1289  0.2734 -3.1007
  362SOL    HW2 1447   1.462   2.513   0.723 -0.5495 -0.5993  0.6314
  362SOL     MW 1448   1.458   2.445   0.667  0.4360  0.0618 -0.3870
  363SOL     OW 1449   0.302   3.073   0.692 -0.1429 -0.3944  0.5280
  363SOL    HW1 1450   0.293   3.027   0.780 -2.0413  1.5050 -0.9216
  363SOL    HW2 1451   0.212   3.090   0.656  1.9167  3.4361  0.3005
  363SOL     MW 1452   0.289   3.069   0.699 -0.1216  0.3616  0.3067
  364SOL     OW 1453   0.708   0.223   0.229 -0.9094 -0.2350  0.1775
  364SOL    HW1 1454   0.640   0.160   0.242  2.5144  1.0216  1.1911
  364SOL    HW2 1455   0.675   0.268   0.149 -1.5548 -1.1943  1.2273
  364SOL     MW 1456   0.695   0.221   0.220 -0.5429 -0.1958  0.4498
  365SOL     OW 1457   0.965   1.952   1.097  1.1451 -0.5734  0.1215
  365SOL    HW1 1458   0.929   2.043   1.072 -0.4430  1.8990 -1.1713
  365SOL    HW2 1459   0.900   1.882   1.071 -1.9170 -1.7090 -0.2960
  365SOL     MW 1460   0.952   1.955   1.090  0.5315 -0.3970 -0.1041
  366SOL     OW 1461   2.857   2.615   1.077 -0.4069  0.0024  0.3236
  366SOL    HW1 1462   2.938   2.640   1.123 -2.0061 -0.8872 -0.0739
  366SOL    HW2 1463   2.893   2.634   0.989  0.8351  0.1965 -1.1021
  366SOL     MW 1464   2.872   2.621   1.072 -0.4540 -0.0894  0.0830
  367SOL     OW 1465   1.236   2.850   0.904 -0.0227  0.2832  0.1006
  367SOL    HW1 1466   1.248   2.947   0.895  3.9173 -1.5265  1.3246
  367SOL    HW2 1467   1.201   2.816   0.822 -0.9386  0.9886 -0.7437
  367SOL     MW 1468   1.233   2.858   0.892  0.3763  0.1375  0.1507
  368SOL     OW 1469   1.673   0.434   0.668 -0.0134 -0.3905  0.1012
  368SOL    HW1 1470   1.755   0.387   0.661  1.3003  2.2057 -2.5064
  368SOL    HW2 1471   1.702   0.527   0.692 -1.1124  1.5545 -0.7791
  368SOL     MW 1472   1.687   0.440   0.670  0.0149  0.2087 -0.3590
  369SOL     OW 1473   0.166   2.462   1.668 -0.1943  0.6081 -0.1569
  369SOL    HW1 1474   0.254   2.452   1.703 -0.1061  0.4578 -3.6905
  369SOL    HW2 1475   0.129   2.540   1.711  1.0356  0.2983  2.4617
  369SOL     MW 1476   0.173   2.471   1.678 -0.0204  0.5474 -0.2776
  370SOL     OW 1477   0.748   0.065   1.009 -0.4291 -0.3550 -0.0766
  370SOL    HW1 1478   0.813   0.130   1.019 -0.3462 -0.3447  0.1757
  370SOL    HW2 1479   0.786  -0.021   1.000  1.3989  2.3509 -1.4485
  370SOL     MW 1480   0.762   0.062   1.009 -0.1770  0.0034 -0.2243
  371SOL     OW 1481   1.334   2.989   1.518  0.0520 -0.6257  0.4125
  371SOL    HW1 1482   1.266   2.924   1.492  0.7214  0.8238 -2.6169
  371SOL    HW2 1483   1.314   3.064   1.461 -0.5958 -0.3343  0.4643
  371SOL     MW 1484   1.322   2.990   1.507  0.0549 -0.3960  0.0196
  372SOL     OW 1485   0.776   2.324   0.463 -0.2196  0.2759 -0.8931
  372SOL    HW1 1486   0.737   2.234   0.492 -0.6821 -1.2284 -1.4014
  372SOL    HW2 1487   0.795   2.338   0.363  1.1934  2.6759  0.8778
  372SOL     MW 1488   0.773   2.314   0.453 -0.0942  0.3941 -0.7265
  373SOL     OW 1489   2.797   3.024   1.384 -0.1037  0.0766  0.5965
  373SOL    HW1 1490   2.883   2.992   1.352 -0.7238 -1.1209 -0.1978
  373SOL    HW2 1491   2.781   3.093   1.317 -1.0076 -2.3943  0.2501
  373SOL     MW 1492   2.806   3.029   1.371 -0.3048 -0.4074  0.4460
  374SOL     OW 1493   1.540   0.493   0.222 -0.4490 -0.7501  0.1462
  374SOL    HW1 1494   1.635   0.500   0.198  2.3294 -0.7656  1.7911
  374SOL    HW2 1495   1.538   0.456   0.310  1.8941 -2.9419 -1.4014
  374SOL     MW 1496   1.552   0.489   0.230  0.2267 -1.0413  0.1590
  375SOL     OW 1497   1.105   2.098   2.285 -0.1918 -0.0195  0.1348
  375SOL    HW1 1498   1.153   2.098   2.364  0.2439  0.9271 -0.5795
  375SOL    HW2 1499   1.112   2.011   2.250  0.4659 -0.6403  2.1816
  375SOL     MW 1500   1.112   2.086   2.291 -0.0475  0.0234  0.3106
  376SOL     OW 1501   0.668   2.515   0.073 -0.3365  0.0403  0.5126
  376SOL    HW1 1502   0.647   2.447   0.138  1.1668 -4.2547  0.1568
  376SOL    HW2 1503   0.643   2.465  -0.012  1.2178  0.9576 -1.5525
  376SOL     MW 1504   0.662   2.499   0.070  0.0669 -0.4054  0.1932
  377SOL     OW 1505   1.338   1.982   0.856  0.5145 -0.0639 -0.3446
  377SOL    HW1 1506   1.246   1.992   0.829  0.0914  0.5860  2.8352
  377SOL    HW2 1507   1.336   1.941   0.945  0.8486  2.0059 -0.1854
  377SOL     MW 1508   1.325   1.978   0.864  0.5028  0.2950  0.0960
  378SOL     OW 1509   1.032   2.828   1.571  0.2649 -0.2884  0.3958
  378SOL    HW1 1510   0.984   2.744   1.562 -3.9074  1.5901  1.8006
  378SOL    HW2 1511   0.968   2.884   1.527  0.2594 -0.3574  1.5904
  378SOL     MW 1512   1.017   2.825   1.564 -0.2863 -0.0496  0.7388
  379SOL     OW 1513   1.127   1.763   2.299 -0.4780  0.2114  0.4514
  379SOL    HW1 1514   1.031   1.759   2.299 -1.3814 -1.3270 -1.5842
  379SOL    HW2 1515   1.153   1.710   2.220  2.5113 -0.9642  0.9834
  379SOL     MW 1516   1.118   1.755   2.288 -0.2028 -0.1467  0.2530
  380SOL     OW 1517   0.827   0.071   1.577 -0.1539 -0.1450  0.2303
  380SOL    HW1 1518   0.881   0.062   1.493 -1.5045  0.9853 -1.1791
  380SOL    HW2 1519   0.900   0.096   1.638  1.3398  0.4438 -0.3860
  380SOL     MW 1520   0.843   0.073   1.574 -0.1350  0.0818 -0.0370
  381SOL     OW 1521   0.810   2.008   0.776 -0.1376  0.1700  0.0758
  381SOL    HW1 1522   0.905   1.997   0.771 -0.8086 -0.3491  1.7009
  381SOL    HW2 1523   0.806   2.051   0.864 -2.1375  1.7707  1.0055
  381SOL     MW 1524   0.822   2.012   0.787 -0.4900  0.3128  0.4129
  382SOL     OW 1525   0.669   0.101   0.718 -0.2131  0.1890 -0.2266
  382SOL    HW1 1526   0.673   0.117   0.817 -1.0760 -1.6089 -0.1769
  382SOL    HW2 1527   0.640   0.013   0.701 -0.9938  0.9495 -1.7009
  382SOL     MW 1528   0.666   0.092   0.729 -0.4300  0.0521 -0.4146
  383SOL     OW 1529   0.503   0.020   0.367  0.5212 -0.3049  0.3623
  383SOL    HW1 1530   0.520  -0.025   0.287  1.4531 -1.9023 -0.1189
  383SOL    HW2 1531   0.464  -0.050   0.421  0.3678 -0.4943 -1.4609
  383SOL     MW 1532   0.500   0.005   0.364  0.6239 -0.5407  0.0583
  384SOL     OW 1533   0.645   2.914   0.651 -0.0003  0.2381  0.0120
  384SOL    HW1 1534   0.655   2.827   0.699  0.7432  1.2093 -0.3277
  384SOL    HW2 1535   0.567   2.909   0.596 -2.3749 -2.7102  1.0928
  384SOL     MW 1536   0.636   2.902   0.650 -0.2155 -0.0227  0.1098
  385SOL     OW 1537   1.348   2.071   1.510 -0.0068  0.0247 -0.4194
  385SOL    HW1 1538   1.420   2.114   1.561 -1.3891 -0.5547  3.0162
  385SOL    HW2 1539   1.308   1.995   1.564  1.1153  0.6933 -0.5111
  385SOL     MW 1540   1.352   2.067   1.524 -0.0412  0.0364  0.0218
  386SOL     OW 1541   1.337   0.379   0.849 -0.4634  0.1831  0.0920
  386SOL    HW1 1542   1.261   0.393   0.785 -1.1946  3.5536 -2.2035
  386SOL    HW2 1543   1.307   0.382   0.941 -1.9065 -1.3217 -1.6871
  386SOL     MW 1544   1.323   0.381   0.853 -0.7503  0.4292 -0.4456
  387SOL     OW 1545   0.869   2.209   1.434  0.3317 -0.5146  0.2423
  387SOL    HW1 1546   0.952   2.248   1.405  0.6359 -1.2677  0.4667
  387SOL    HW2 1547   0.871   2.113   1.411  0.6808 -1.1181  0.8718
  387SOL     MW 1548   0.880   2.202   1.427  0.4179 -0.6936  0.3549
  388SOL     OW 1549   1.554   2.756   1.219 -0.3845 -0.1524 -0.4164
  388SOL    HW1 1550   1.469   2.719   1.200 -1.2303 -0.4123  0.5381
  388SOL    HW2 1551   1.615   2.701   1.164 -2.4507 -0.5075 -3.1916
  388SOL     MW 1552   1.551   2.744   1.209 -0.7687 -0.2335 -0.6566
  389SOL     OW 1553   0.368   3.086   3.047  0.7575  0.2533 -0.0500
  389SOL    HW1 1554   0.415   3.010   3.021 -0.7765 -2.2315 -0.8784
  389SOL    HW2 1555   0.324   3.123   2.972 -0.6782  0.5834 -3.5642
  389SOL     MW 1556   0.368   3.081   3.034  0.3657 -0.0310 -0.6229
  390SOL     OW 1557   1.303   0.083   0.651  0.0759  0.3657 -0.0305
  390SOL    HW1 1558   1.378   0.128   0.606  0.1143  0.6064  0.5460
  390SOL    HW2 1559   1.337   0.085   0.738  0.5468  1.9524 -1.1375
  390SOL     MW 1560   1.318   0.090   0.656  0.1431  0.6068 -0.1005
  391SOL     OW 1561   0.280   2.249   1.406  0.1394 -0.1318 -0.6508
  391SOL    HW1 1562   0.225   2.173   1.439 -0.4464 -1.9084 -1.0335
  391SOL    HW2 1563   0.219   2.314   1.361  1.5820  0.4162  1.5845
  391SOL     MW 1564   0.265   2.247   1.405  0.2524 -0.2939 -0.4064
  392SOL     OW 1565   2.072   2.120   0.388  0.2106  0.1904 -0.0558
  392SOL    HW1 1566   2.157   2.085   0.409 -0.9189 -1.1914  1.6086
  392SOL    HW2 1567   2.048   2.197   0.430  0.5519 -1.3075 -1.1864
  392SOL     MW 1568   2.080   2.125   0.396  0.1066 -0.1895  0.0147
  393SOL     OW 1569   0.188   3.018   2.715  0.2853 -0.2522 -0.3057
  393SOL    HW1 1570   0.231   3.106   2.734 -1.1706  0.4007  0.3110
  393SOL    HW2 1571   0.091   3.031   2.724  0.6753 -0.0890 -1.4509
  393SOL     MW 1572   0.181   3.031   2.719  0.1447 -0.1445 -0.3755
  394SOL     OW 1573   0.887   1.721   1.502  0.4033  0.8445 -0.4403
  394SOL    HW1 1574   0.840   1.734   1.582 -0.2353  0.5244  1.4520
  394SOL    HW2 1575   0.886   1.812   1.457  0.5589  3.0711  2.2456
  394SOL     MW 1576   0.881   1.734   1.507  0.3396  1.0960  0.1638
  395SOL     OW 1577   1.001   2.813   2.645  0.4039 -0.5363 -0.2626
  395SOL    HW1 1578   1.046   2.892   2.684  1.3266 -0.1447  0.5654
  395SOL    HW2 1579   1.071   2.762   2.594  0.8745 -0.5270  1.6486
  395SOL     MW 1580   1.016   2.816   2.643  0.5878 -0.4834  0.0988
  396SOL     OW 1581   0.873   1.873   2.386 -0.2866 -0.1203 -0.0086
  396SOL    HW1 1582   0.908   1.892   2.475 -0.5230 -1.5336  0.4285
  396SOL    HW2 1583   0.830   1.785   2.388  0.3362  2.5622  1.8700
  396SOL     MW 1584   0.872   1.864   2.398 -0.2356  0.0472  0.2969
  397SOL     OW 1585   1.038   2.349   1.310 -0.1592 -0.2338 -0.1008
  397SOL    HW1 1586   1.084   2.340   1.227 -1.1590 -0.9840 -2.2871
  397SOL    HW2 1587   1.107   2.382   1.372 -0.2568  0.6375  1.5464
  397SOL     MW 1588   1.053   2.352   1.307 -0.3040 -0.2178 -0.1719
  398SOL     OW 1589   0.603   2.671   0.774 -0.5902  0.3349 -0.0493
  398SOL    HW1 1590   0.513   2.625   0.775 -2.7287 -1.2814 -2.4099
  398SOL    HW2 1591   0.667   2.611   0.734  0.8035  0.7544 -0.1973
  398SOL     MW 1592   0.600   2.657   0.769 -0.6885  0.1770 -0.3802
  399SOL     OW 1593   0.268   2.084   0.460  0.3039  0.4109 -0.0672
  399SOL    HW1 1594   0.180   2.130   0.447 -2.7713 -2.2762  2.2508
  399SOL    HW2 1595   0.323   2.103   0.380  0.9158  1.2152 -0.7906
  399SOL     MW 1596   0.264   2.093   0.448 -0.0211  0.1625  0.1432
  400SOL     OW 1597   0.565   1.813   0.176 -0.1106  0.5389  0.4734
  400SOL    HW1 1598   0.537   1.898   0.214 -1.1136 -0.5761  1.7708
  400SOL    HW2 1599   0.524   1.751   0.228  0.8537  3.0127 -3.4914
  400SOL     MW 1600   0.556   1.816   0.188 -0.1157  0.7182  0.1214
  401SOL     OW 1601   0.914   2.077   0.135 -0.2863 -0.5051 -0.2779
  401SOL    HW1 1602   0.909   1.981   0.126 -0.8472 -0.3528  0.1967
  401SOL    HW2 1603   0.985   2.090   0.208  1.4536 -0.8156  0.1013
  401SOL     MW 1604   0.923   2.066   0.143 -0.1308 -0.5260 -0.1653
  402SOL     OW 1605   0.682   2.958   1.685 -0.1456 -0.0373  0.1521
  402SOL    HW1 1606   0.759   2.923   1.733  0.9514  2.4218  0.4089
  402SOL    HW2 1607   0.700   3.054   1.675 -0.1518  2.9212 -1.7965
  402SOL     MW 1608   0.694   2.967   1.690 -0.0017  0.6775 -0.0711
  403SOL     OW 1609   0.089   0.420   0.406  0.1552  0.1471  0.2767
  403SOL    HW1 1610   0.165   0.443   0.462  1.4075 -1.7947 -0.2429
  403SOL    HW2 1611   0.128   0.393   0.327 -0.9337  3.0738 -0.3483
  403SOL     MW 1612   0.104   0.420   0.403  0.1767  0.2770  0.1257
  404SOL     OW 1613   0.920   2.838   0.797 -0.7203  0.4316 -0.3320
  404SOL    HW1 1614   0.998   2.793   0.767  0.3865 -0.8532 -1.1677
  404SOL    HW2 1615   0.923   2.923   0.753 -0.0647  0.3164 -0.4010
  404SOL     MW 1616   0.931   2.843   0.787 -0.4878  0.2469 -0.4514
  405SOL     OW 1617   0.485   2.361   1.511 -0.6714 -0.1135  0.0324
  405SOL    HW1 1618   0.489   2.444   1.461  2.0935 -0.0957 -1.2357
  405SOL    HW2 1619   0.398   2.313   1.477  2.2302  0.4102  0.0204
  405SOL     MW 1620   0.474   2.366   1.500  0.0763 -0.0421 -0.1365
  406SOL     OW 1621   0.339   2.401   1.109 -0.0294  0.1414  0.7687
  406SOL    HW1 1622   0.240   2.410   1.090 -0.9090  1.2992  0.0425
  406SOL    HW2 1623   0.359   2.309   1.114 -1.2255 -0.2089  1.5674
  406SOL     MW 1624   0.328   2.390   1.108 -0.3033  0.2480  0.7783
  407SOL     OW 1625   0.014   2.747   1.127 -0.4573 -0.4566 -0.4802
  407SOL    HW1 1626   0.066   2.732   1.205 -1.7446 -2.3254  3.0057
  407SOL    HW2 1627   0.064   2.721   1.052 -1.2318  5.1011  1.5148
  407SOL     MW 1628   0.028   2.741   1.128 -0.7294  0.0301  0.2430
  408SOL     OW 1629   2.069   2.053   0.729 -0.5633  0.1667  0.4098
  408SOL    HW1 1630   2.030   2.104   0.796 -1.5245  1.2797 -0.5890
  408SOL    HW2 1631   1.997   2.000   0.690 -0.1916  1.5423  0.4519
  408SOL     MW 1632   2.054   2.053   0.733 -0.6411  0.4950  0.2836
  409SOL     OW 1633   1.360   0.023   0.931 -0.5400  1.1979  0.1529
  409SOL    HW1 1634   1.399   0.110   0.936  0.8730 -1.1288  2.8306
  409SOL    HW2 1635   1.430  -0.036   0.958 -0.8339 -0.7224 -2.4431
  409SOL     MW 1636   1.374   0.027   0.936 -0.3923  0.6375  0.1637
  410SOL     OW 1637   1.128   2.429   1.064  0.6252  0.4724 -0.3295
  410SOL    HW1 1638   1.042   2.429   1.016 -0.2482  1.4597 -0.3756
  410SOL    HW2 1639   1.173   2.365   1.013 -2.9595 -1.4583 -3.4324
  410SOL     MW 1640   1.123   2.421   1.051  0.0370  0.3479 -0.7450
  411SOL     OW 1641   1.958   0.031   2.859 -0.1861  0.0013 -0.4879
  411SOL    HW1 1642   1.893  -0.010   2.804  0.3884 -0.4887  0.2082
  411SOL    HW2 1643   1.917   0.043   2.951 -0.5678 -1.7814  1.4628
  411SOL     MW 1644   1.944   0.027   2.864 -0.1607 -0.2986 -0.1387
  412SOL     OW 1645   1.006   2.252   0.596 -0.6904  0.0495 -0.0774
  412SOL    HW1 1646   1.056   2.338   0.620 -2.9700  3.0932 -0.3519
  412SOL    HW2 1647   0.927   2.292   0.551 -1.5902  0.8924 -0.8322
  412SOL     MW 1648   1.002   2.268   0.593 -1.1099  0.5623 -0.2132
  413SOL     OW 1649   0.549   2.738   0.014 -0.4424 -0.0924 -0.8232
  413SOL    HW1 1650   0.596   2.650   0.034  0.5813 -0.6874 -0.2332
  413SOL    HW2 1651   0.614   2.774  -0.047 -2.8351 -1.3283  2.5102
  413SOL     MW 1652   0.564   2.732   0.008 -0.6230 -0.3340 -0.3056
  414SOL     OW 1653   1.917   3.000   1.074  0.6143  0.3227 -0.1655
  414SOL    HW1 1654   1.856   2.993   0.995 -0.0136 -0.9048  0.2857
  414SOL    HW2 1655   1.943   2.912   1.091  1.1892 -0.3159  0.0841
  414SOL     MW 1656   1.912   2.987   1.066  0.6073  0.0765 -0.0731
  415SOL     OW 1657   1.726   2.565   1.125  0.1055 -0.3328  0.3263
  415SOL    HW1 1658   1.705   2.517   1.201 -0.8112 -0.8297 -2.9179
  415SOL    HW2 1659   1.789   2.627   1.168  1.8676  0.5471 -1.3047
  415SOL     MW 1660   1.731   2.567   1.141  0.2171 -0.2822 -0.3169
  416SOL     OW 1661   0.554   1.946   1.370 -0.6791 -0.1516 -0.4491
  416SOL    HW1 1662   0.502   1.988   1.304 -0.2263 -0.1583  0.1007
  416SOL    HW2 1663   0.518   1.862   1.393 -0.3137  3.3007 -0.8676
  416SOL     MW 1664   0.542   1.940   1.365 -0.5712  0.3030 -0.4318
  417SOL     OW 1665   0.959   3.007   2.048  0.4127  0.1522  0.2146
  417SOL    HW1 1666   0.888   3.027   2.107  1.5864  1.7883  4.0312
  417SOL    HW2 1667   0.923   2.951   1.979 -1.8600 -1.8585  0.2773
  417SOL     MW 1668   0.945   3.003   2.047  0.2677  0.1028  0.7264
  418SOL     OW 1669   0.613   2.947   0.175  0.5820 -0.1245 -0.2919
  418SOL    HW1 1670   0.683   2.976   0.111  1.1051 -0.1648  2.4748
  418SOL    HW2 1671   0.587   2.858   0.136 -0.9685  1.5685  0.4374
  418SOL     MW 1672   0.619   2.939   0.162  0.4464  0.0936  0.1694
  419SOL     OW 1673   0.461   2.623   1.405  0.0784 -0.3492 -0.0918
  419SOL    HW1 1674   0.522   2.695   1.420  1.2817 -0.6063  3.4443
  419SOL    HW2 1675   0.483   2.610   1.314 -3.3353 -0.5878 -2.3666
  419SOL     MW 1676   0.472   2.631   1.395 -0.2132 -0.4146  0.0746
  420SOL     OW 1677   0.830   2.168   1.000  0.5163  0.1317 -0.5973
  420SOL    HW1 1678   0.751   2.188   1.056  2.3017  2.1290 -1.9351
  420SOL    HW2 1679   0.860   2.251   0.973 -0.6756 -0.7125  0.9181
  420SOL     MW 1680   0.824   2.181   1.004  0.5946  0.2838 -0.5739
  421SOL     OW 1681   2.939   0.080   0.020 -0.1150 -0.0800 -0.3114
  421SOL    HW1 1682   2.925   0.039  -0.066  1.4314 -0.9831 -1.1295
  421SOL    HW2 1683   2.970  -0.001   0.066  0.9901 -1.4781  0.2883
  421SOL     MW 1684   2.941   0.064   0.015  0.2349 -0.3836 -0.3402
  422SOL     OW 1685   0.897   2.428   0.912  0.5817  0.4207 -0.2840
  422SOL    HW1 1686   0.852   2.495   0.961  0.0587 -0.2739 -0.9280
  422SOL    HW2 1687   0.876   2.441   0.824 -2.5605 -0.4002  1.6109
  422SOL     MW 1688   0.888   2.438   0.907  0.0981  0.2208 -0.1190
  423SOL     OW 1689   1.519   0.164   0.504 -0.1188 -0.0508  0.0210
  423SOL    HW1 1690   1.517   0.104   0.432  0.4467  0.2204 -0.0095
  423SOL    HW2 1691   1.527   0.255   0.476  0.6223 -3.4119  1.5973
  423SOL     MW 1692   1.520   0.168   0.491  0.0536 -0.4584  0.2250
  424SOL     OW 1693   0.677   2.244   1.195 -0.0380  0.2468 -0.2610
  424SOL    HW1 1694   0.607   2.196   1.244 -2.4778  0.5446  0.9328
  424SOL    HW2 1695   0.737   2.273   1.267  0.4970  0.6985  2.5799
  424SOL     MW 1696   0.676   2.242   1.211 -0.2893  0.3457  0.2713
  425SOL     OW 1697   1.716   2.856   1.956  0.1574  0.4601  0.2523
  425SOL    HW1 1698   1.757   2.860   1.863  1.2843 -1.5277 -2.6298
  425SOL    HW2 1699   1.752   2.776   2.000  0.0817 -1.2823 -0.3986
  425SOL     MW 1700   1.726   2.846   1.950  0.2961 -0.0321 -0.2139
  426SOL     OW 1701   0.829   1.685   1.931  0.4695  0.3249  0.5351
  426SOL    HW1 1702   0.777   1.688   1.849  1.1212 -0.5533  0.0697
  426SOL    HW2 1703   0.802   1.763   1.986  1.7351 -0.1630 -2.8517
  426SOL     MW 1704   0.819   1.695   1.927  0.7225  0.1446  0.0269
  427SOL     OW 1705   0.341   1.540   1.903 -0.2849  0.3222  0.1021
  427SOL    HW1 1706   0.391   1.465   1.923 -2.7968 -0.5021  0.4563
  427SOL    HW2 1707   0.260   1.526   1.952  0.4790  0.5968 -4.7433
  427SOL     MW 1708   0.337   1.528   1.912 -0.5155  0.2497 -0.4905
  428SOL     OW 1709   0.577   2.552   1.171  0.0469  0.5378  0.0683
  428SOL    HW1 1710   0.640   2.494   1.214 -0.9003 -0.3211 -0.2242
  428SOL    HW2 1711   0.510   2.486   1.149  0.5347 -0.3218  1.2923
  428SOL     MW 1712   0.577   2.535   1.174 -0.0137  0.3111  0.1912
  429SOL     OW 1713   1.314   2.626   1.068  0.4089  0.3179  0.0675
  429SOL    HW1 1714   1.243   2.561   1.072 -0.7378 -0.8707  2.7363
  429SOL    HW2 1715   1.274   2.710   1.033 -1.4819  0.7351 -0.8340
  429SOL     MW 1716   1.299   2.628   1.064  0.0081  0.2161  0.3007
  430SOL     OW 1717   1.166   2.710   0.663  0.3526  0.2744  0.0590
  430SOL    HW1 1718   1.169   2.613   0.679 -1.8481 -0.3367 -0.1342
  430SOL    HW2 1719   1.101   2.718   0.597 -1.0652 -1.0937  1.3684
  430SOL     MW 1720   1.158   2.698   0.656 -0.1249  0.0133  0.2063
  431SOL     OW 1721   0.266   1.888   1.121 -0.7989  0.1670 -0.4896
  431SOL    HW1 1722   0.358   1.849   1.122 -1.7924  0.7257 -1.2668
  431SOL    HW2 1723   0.252   1.933   1.037 -0.6218 -1.0304 -0.1734
  431SOL     MW 1724   0.277   1.888   1.110 -0.9066  0.0827 -0.5504
  432SOL     OW 1725   0.013   0.061   1.130 -0.1960 -0.8790 -0.3752
  432SOL    HW1 1726  -0.005   0.088   1.224 -0.3071 -0.7751  0.1497
  432SOL    HW2 1727  -0.037  -0.020   1.124  1.0902  0.5652 -1.7685
  432SOL     MW 1728   0.004   0.054   1.142 -0.0410 -0.6748 -0.4898
  433SOL     OW 1729   0.625   2.851   1.415  0.0800  0.2689  0.3172
  433SOL    HW1 1730   0.634   2.861   1.514  0.2623 -1.8601 -0.6622
  433SOL    HW2 1731   0.716   2.857   1.380 -0.1562 -0.8501 -1.4451
  433SOL     MW 1732   0.638   2.853   1.424  0.0729 -0.1596 -0.0445
  434SOL     OW 1733   1.583   2.859   1.479 -0.3058  0.7554 -0.1583
  434SOL    HW1 1734   1.493   2.895   1.492  0.8485 -0.0523 -1.2763
  434SOL    HW2 1735   1.560   2.814   1.400 -0.5039 -0.5909 -0.8479
  434SOL     MW 1736   1.568   2.857   1.470 -0.1797  0.4712 -0.3968
  435SOL     OW 1737   2.814   1.799   0.185 -0.2804  0.6406  0.2219
  435SOL    HW1 1738   2.866   1.869   0.149 -0.1780  1.5796  0.5588
  435SOL    HW2 1739   2.807   1.735   0.107  0.1216 -0.5361 -1.1958
  435SOL     MW 1740   2.820   1.800   0.170 -0.2138  0.6092  0.0793
  436SOL     OW 1741   1.274   2.762   0.306 -0.0915  0.6843  0.1365
  436SOL    HW1 1742   1.317   2.733   0.383 -1.0482 -1.4128  0.5111
  436SOL    HW2 1743   1.238   2.843   0.338 -1.2135  0.7496  0.3697
  436SOL     MW 1744   1.275   2.769   0.320 -0.3658  0.4162  0.2167
  437SOL     OW 1745   0.873   2.900   1.356  0.1476  0.2844  0.2554
  437SOL    HW1 1746   0.890   2.987   1.317  0.4449  0.0671  0.3540
  437SOL    HW2 1747   0.927   2.841   1.302 -1.2447 -0.1549 -1.1002
  437SOL     MW 1748   0.882   2.904   1.344  0.0031  0.1978  0.0895
  438SOL     OW 1749   0.892   2.599   1.959  0.0373 -0.5140 -0.3202
  438SOL    HW1 1750   0.856   2.590   2.047  1.8097  0.2457 -1.6652
  438SOL    HW2 1751   0.831   2.535   1.924 -0.5082  0.5185  0.9695
  438SOL     MW 1752   0.879   2.589   1.966  0.1992 -0.2775 -0.3275
  439SOL     OW 1753   1.089   2.128   0.356 -0.4768  0.2747  0.1460
  439SOL    HW1 1754   1.070   2.149   0.445  2.8323  1.9737  0.0875
  439SOL    HW2 1755   1.118   2.209   0.315  1.3111 -1.0863 -0.7423
  439SOL     MW 1756   1.090   2.141   0.362  0.1957  0.3193  0.0211
  440SOL     OW 1757   1.660   2.911   3.038  0.6515  0.5687 -0.2796
  440SOL    HW1 1758   1.599   2.910   3.111 -1.6301  2.0427  1.6856
  440SOL    HW2 1759   1.731   2.850   3.060 -0.8976  2.2382  2.7364
  440SOL     MW 1760   1.661   2.903   3.051  0.1461  0.9834  0.3776
  441SOL     OW 1761   0.348   2.627   0.522  0.0061  0.2792 -0.2650
  441SOL    HW1 1762   0.361   2.600   0.427  2.7514  0.0168  0.7435
  441SOL    HW2 1763   0.372   2.720   0.523 -0.1878  3.9811 -0.7172
  441SOL     MW 1764   0.353   2.635   0.510  0.3427  0.7330 -0.1916
  442SOL     OW 1765   3.050   2.358   0.634  0.0148  0.5357  0.0840
  442SOL    HW1 1766   3.061   2.455   0.630 -0.1770 -1.0790  3.5079
  442SOL    HW2 1767   2.960   2.343   0.665 -0.1278 -1.7243 -1.2745
  442SOL     MW 1768   3.039   2.369   0.637 -0.0293  0.0245  0.3565
  443SOL     OW 1769   1.357   1.755   1.859  0.3565 -0.4595  0.8217
  443SOL    HW1 1770   1.305   1.790   1.781  2.1897  1.5817  0.7441
  443SOL    HW2 1771   1.308   1.675   1.873 -3.9790 -0.0283 -1.7501
  443SOL     MW 1772   1.343   1.749   1.851  0.0263 -0.1333  0.4721
  444SOL     OW 1773   0.926   2.571   1.550  0.2777  0.0780  0.4626
  444SOL    HW1 1774   0.997   2.544   1.612  1.7687 -0.7218  1.6764
  444SOL    HW2 1775   0.846   2.557   1.603  1.8675 -1.6965  0.2314
  444SOL     MW 1776   0.925   2.565   1.565  0.6842 -0.2616  0.5923
  445SOL     OW 1777   0.950   0.041   1.253  0.3299 -1.0218 -0.4110
  445SOL    HW1 1778   0.921   0.134   1.260 -1.9092  1.2896  2.0495
  445SOL    HW2 1779   1.038   0.051   1.214  0.5028  1.3281  3.2260
  445SOL     MW 1780   0.958   0.055   1.249  0.0573 -0.4068  0.3935
  446SOL     OW 1781   2.696   2.845   1.103 -0.0517 -0.1251  0.5307
  446SOL    HW1 1782   2.682   2.867   1.008 -0.4923  0.9635 -0.7056
  446SOL    HW2 1783   2.731   2.753   1.106  2.1922  0.9466 -0.6212
  446SOL     MW 1784   2.699   2.836   1.091  0.1863  0.1599  0.2156
  447SOL     OW 1785   3.024   2.068   1.649  0.0206  0.1749 -0.0719
  447SOL    HW1 1786   3.073   2.001   1.697 -0.0482  0.2097 -0.9595
  447SOL    HW2 1787   2.955   2.013   1.617  3.2355  0.4241 -1.3672
  447SOL     MW 1788   3.021   2.052   1.651  0.4357  0.2124 -0.3599
  448SOL     OW 1789   1.681   2.343   1.670  0.2735 -0.6141 -0.0911
  448SOL    HW1 1790   1.613   2.267   1.672 -1.3317  0.7410 -0.0680
  448SOL    HW2 1791   1.635   2.427   1.664  2.3741 -3.3544  1.1654
  448SOL     MW 1792   1.666   2.344   1.670  0.3389 -0.7969  0.0777
  449SOL     OW 1793   0.766   2.863   0.374 -0.0312 -0.2952 -0.3631
  449SOL    HW1 1794   0.706   2.884   0.300 -2.5570  0.7369  1.8418
  449SOL    HW2 1795   0.720   2.883   0.451 -0.3288 -2.6860 -2.2324
  449SOL     MW 1796   0.752   2.868   0.375 -0.4037 -0.4745 -0.3188
  450SOL     OW 1797   1.185   2.440   0.697 -0.2224  0.3476 -0.3001
  450SOL    HW1 1798   1.189   2.362   0.754  0.3734  0.3376 -1.8106
  450SOL    HW2 1799   1.280   2.460   0.663  1.2008 -1.9887  0.3756
  450SOL     MW 1800   1.198   2.433   0.700  0.0440  0.0380 -0.4102
  451SOL     OW 1801   0.616   2.026   1.637  0.3637  0.3049  0.4731
  451SOL    HW1 1802   0.664   2.110   1.631  1.3548  2.4296 -0.4184
  451SOL    HW2 1803   0.578   2.011   1.550  0.4440  2.1984 -0.6068
  451SOL     MW 1804   0.617   2.035   1.625  0.5050  0.8351  0.2130
  452SOL     OW 1805   0.278   2.750   0.057  0.1339 -0.3286 -0.0636
  452SOL    HW1 1806   0.369   2.747   0.034  0.7665  2.6084  2.3500
  452SOL    HW2 1807   0.220   2.751  -0.025 -2.0469  0.0769  0.0842
  452SOL     MW 1808   0.282   2.750   0.043 -0.0703  0.1124  0.2743
  453SOL     OW 1809   0.388   3.029   1.717 -0.3829  0.3872 -0.1830
  453SOL    HW1 1810   0.485   3.014   1.704  1.2248  0.1419 -1.2641
  453SOL    HW2 1811   0.348   3.011   1.631  0.0891  0.1486  0.5640
  453SOL     MW 1812   0.396   3.025   1.704 -0.1085  0.3233 -0.2271
  454SOL     OW 1813   1.016   2.687   1.213 -0.5122 -0.1739 -0.4262
  454SOL    HW1 1814   0.961   2.613   1.238 -1.8073 -0.3744 -0.0220
  454SOL    HW2 1815   0.955   2.739   1.160 -1.5871  0.9382  0.1856
  454SOL     MW 1816   1.001   2.684   1.209 -0.8249 -0.0536 -0.2922
  455SOL     OW 1817   1.520   2.936   0.196  0.1180  0.3690 -0.0703
  455SOL    HW1 1818   1.595   2.892   0.238  1.1383 -1.2419  0.4713
  455SOL    HW2 1819   1.452   2.865   0.195 -0.5435  1.4564 -1.5996
  455SOL     MW 1820   1.521   2.921   0.201  0.1653  0.2999 -0.2006
  456SOL     OW 1821   2.898   0.358   1.316  0.4530  0.1216 -0.3476
  456SOL    HW1 1822   2.841   0.288   1.271 -1.6558  0.2840  0.9544
  456SOL    HW2 1823   2.960   0.407   1.257 -0.0303 -0.3877 -0.6876
  456SOL     MW 1824   2.899   0.355   1.302  0.1110  0.0758 -0.2207
  457SOL     OW 1825   0.929   1.556   2.999  0.0298 -0.5913 -0.0895
  457SOL    HW1 1826   0.834   1.548   3.015  0.2313 -0.7750  1.9578
  457SOL    HW2 1827   0.966   1.516   3.075 -2.4257  1.3083 -1.2868
  457SOL     MW 1828   0.922   1.549   3.011 -0.2676 -0.3649  0.0226
  458SOL     OW 1829   1.453   1.399   0.565 -0.3836 -0.3531 -0.9240
  458SOL    HW1 1830   1.374   1.430   0.614 -0.6817 -1.1218 -1.3973
  458SOL    HW2 1831   1.424   1.348   0.490  1.1613  0.7038  2.0086
  458SOL     MW 1832   1.439   1.397   0.562 -0.2191 -0.3151 -0.5995
  459SOL     OW 1833   1.553   0.104   0.221 -0.6460 -0.4804 -0.4289
  459SOL    HW1 1834   1.543   0.010   0.197 -0.5630 -2.7329  0.7119
  459SOL    HW2 1835   1.490   0.148   0.163  0.4486  1.9333  0.9228
  459SOL     MW 1836   1.544   0.097   0.210 -0.4906 -0.4591 -0.1000
  460SOL     OW 1837   1.792   2.140   0.674 -0.4044  0.2843  0.5164
  460SOL    HW1 1838   1.696   2.147   0.683  2.9216 -0.7670  0.0672
  460SOL    HW2 1839   1.809   2.062   0.619  0.2651 -2.4162  2.6746
  460SOL     MW 1840   1.782   2.130   0.668  0.1227 -0.2107  0.7419
  461SOL     OW 1841   0.501   2.414   0.618  0.2385 -0.4744 -0.1522
  461SOL    HW1 1842   0.437   2.482   0.591 -1.4214 -2.9088 -1.2442
  461SOL    HW2 1843   0.496   2.420   0.716  0.4002 -2.1634 -0.6648
  461SOL     MW 1844   0.492   2.424   0.628  0.0409 -1.0184 -0.3639
  462SOL     OW 1845   0.323   0.238   1.280  0.3654 -0.2314  0.0851
  462SOL    HW1 1846   0.380   0.172   1.218  4.6064  0.1406 -1.1538
  462SOL    HW2 1847   0.389   0.276   1.334 -2.1988 -0.1241 -0.4513
  462SOL     MW 1848   0.339   0.234   1.279  0.5866 -0.1682 -0.1492
  463SOL     OW 1849   0.918   3.082   0.684 -0.6215  0.0714  0.2034
  463SOL    HW1 1850   0.935   3.057   0.592 -1.1077 -2.0369 -0.0930
  463SOL    HW2 1851   0.840   3.132   0.682  1.0145 -1.2198  1.0243
  463SOL     MW 1852   0.910   3.086   0.671 -0.4698 -0.3771  0.2726
  464SOL     OW 1853   0.778   3.047   2.241  0.1819  0.4263  0.2178
  464SOL    HW1 1854   0.758   2.949   2.262 -0.5491 -4.0876  0.5052
  464SOL    HW2 1855   0.807   3.082   2.327 -0.5474 -0.1243  5.2352
  464SOL     MW 1856   0.779   3.039   2.256 -0.0108 -0.2419  0.9177
  465SOL     OW 1857   0.655   0.304   0.491 -0.2238  0.1828 -0.6716
  465SOL    HW1 1858   0.670   0.237   0.560 -2.2517  0.2422  0.6493
  465SOL    HW2 1859   0.667   0.260   0.403  1.9729 -2.8277 -0.6178
  465SOL     MW 1860   0.659   0.289   0.489 -0.2015 -0.2066 -0.4902
  466SOL     OW 1861   1.080   2.017   0.748  0.4678 -0.3273 -0.1404
  466SOL    HW1 1862   1.074   1.947   0.685 -2.3557  0.0894 -0.1675
  466SOL    HW2 1863   1.068   2.101   0.699 -1.7710  1.2118  0.3806
  466SOL     MW 1864   1.078   2.019   0.733 -0.2001 -0.0693 -0.0752
  467SOL     OW 1865   1.268   2.250   0.882  0.2782  0.1421  0.2659
  467SOL    HW1 1866   1.342   2.312   0.898 -0.1580 -0.0017 -0.6539
  467SOL    HW2 1867   1.300   2.160   0.878  0.1882 -0.1742 -0.0799
  467SOL     MW 1868   1.282   2.246   0.884  0.2088  0.0814  0.0989
  468SOL     OW 1869   0.357   2.582   1.996 -0.1055 -0.0401 -0.4602
  468SOL    HW1 1870   0.401   2.537   1.922 -1.5261 -0.4130  0.4457
  468SOL    HW2 1871   0.375   2.678   1.973  0.9317  0.9885  3.1544
  468SOL     MW 1872   0.365   2.589   1.983 -0.1561  0.0464  0.1363
  469SOL     OW 1873   0.376   2.134   1.773 -0.4641 -0.0777  0.0617
  469SOL    HW1 1874   0.297   2.078   1.764  2.2998  0.5476  0.2993
  469SOL    HW2 1875   0.447   2.098   1.720  1.2494  1.8262 -1.5226
  469SOL     MW 1876   0.375   2.122   1.765  0.1267  0.2560 -0.1160
  470SOL     OW 1877   3.053   2.598   0.099 -0.2848 -0.6510 -1.0908
  470SOL    HW1 1878   2.963   2.576   0.108 -0.1942 -0.2579 -1.0831
  470SOL    HW2 1879   3.062   2.634   0.010 -0.9855 -0.8012 -2.1701
  470SOL     MW 1880   3.042   2.600   0.088 -0.3653 -0.6190 -1.2322
  471SOL     OW 1881   1.240   2.729   1.402  0.4192  0.3929  0.4970
  471SOL    HW1 1882   1.170   2.752   1.465 -0.2006 -0.7845  1.9102
  471SOL    HW2 1883   1.195   2.709   1.320 -0.5729  1.1684 -1.1757
  471SOL     MW 1884   1.225   2.730   1.399  0.2065  0.3399  0.4627
  472SOL     OW 1885   2.908   2.058   0.381  0.1408 -0.0688  0.0836
  472SOL    HW1 1886   2.908   2.027   0.286 -0.6677  0.2499  0.2033
  472SOL    HW2 1887   2.882   1.972   0.416 -1.0304  0.8649  3.3329
  472SOL     MW 1888   2.904   2.043   0.373 -0.1204  0.0964  0.5281
  473SOL     OW 1889   0.794   2.469   1.333  0.4814  0.0578  0.5763
  473SOL    HW1 1890   0.867   2.405   1.317 -0.9968  0.1992 -2.6235
  473SOL    HW2 1891   0.836   2.508   1.401  0.4859 -1.9267 -0.8825
  473SOL     MW 1892   0.809   2.465   1.340  0.2869 -0.1854 -0.0384
  474SOL     OW 1893   0.761   2.268   1.686 -0.4793  0.0312 -0.4248
  474SOL    HW1 1894   0.824   2.281   1.755 -0.1212 -1.8686 -0.1758
  474SOL    HW2 1895   0.809   2.253   1.610 -1.6650 -4.7735  2.0083
  474SOL     MW 1896   0.775   2.268   1.685 -0.5885 -0.8534 -0.0709
  475SOL     OW 1897   1.619   0.046   1.487 -0.0758 -0.4529  0.4842
  475SOL    HW1 1898   1.540   0.070   1.431 -1.3967  1.0642 -0.7058
  475SOL    HW2 1899   1.618  -0.052   1.481  3.1281 -2.1312 -0.4320
  475SOL     MW 1900   1.608   0.036   1.479  0.1726 -0.4742  0.2063
  476SOL     OW 1901   1.496   2.625   0.863  0.0112 -0.1466 -0.2864
  476SOL    HW1 1902   1.427   2.634   0.937  0.2215  1.4679  2.1369
  476SOL    HW2 1903   1.517   2.709   0.816 -0.5677  2.3300  0.5322
  476SOL     MW 1904   1.490   2.638   0.867 -0.0375  0.3932  0.1413
  477SOL     OW 1905   0.808   2.511   0.667 -0.4560  0.1922 -0.1273
  477SOL    HW1 1906   0.845   2.592   0.635  2.1681  1.9258  1.2683
  477SOL    HW2 1907   0.780   2.451   0.597  0.0916  1.5172 -1.9524
  477SOL     MW 1908   0.809   2.514   0.654 -0.0375  0.5958 -0.1839
  478SOL     OW 1909   0.165   2.663   0.898 -0.5164  0.3475  0.0761
  478SOL    HW1 1910   0.209   2.749   0.892 -0.0075  1.1683  2.8884
  478SOL    HW2 1911   0.219   2.616   0.845 -0.2170  1.2996  0.1007
  478SOL     MW 1912   0.178   2.668   0.890 -0.4098  0.5814  0.4504
  479SOL     OW 1913   1.416   1.914   1.284 -0.3668 -0.0099 -0.2598
  479SOL    HW1 1914   1.395   1.968   1.360 -1.7344  1.1773 -1.3220
  479SOL    HW2 1915   1.494   1.870   1.305 -0.4442  2.1291 -1.7032
  479SOL     MW 1916   1.423   1.915   1.297 -0.5575  0.4289 -0.5904
  480SOL     OW 1917   1.848   2.400   1.379  0.3016  0.1787 -0.1791
  480SOL    HW1 1918   1.858   2.306   1.394 -0.7828  0.9585 -0.8091
  480SOL    HW2 1919   1.894   2.404   1.298 -2.1567  1.3914 -0.6797
  480SOL     MW 1920   1.855   2.389   1.370 -0.1658  0.4416 -0.3283
  481SOL     OW 1921   1.177   0.064   1.114  0.1087 -0.7236  0.2960
  481SOL    HW1 1922   1.236   0.048   1.042 -0.8786  2.3679 -0.2421
  481SOL    HW2 1923   1.165   0.160   1.098  0.8257  0.9792 -0.5151
  481SOL     MW 1924   1.183   0.075   1.102  0.0731 -0.0910  0.1180
  482SOL     OW 1925   0.960   0.011   0.404 -0.4819 -0.0927  0.1303
  482SOL    HW1 1926   0.882  -0.035   0.369 -2.3349 -0.0900 -0.2719
  482SOL    HW2 1927   0.952   0.101   0.375  1.5962 -0.1300 -1.8032
  482SOL     MW 1928   0.949   0.017   0.396 -0.4522 -0.0973 -0.1778
  483SOL     OW 1929   0.384   2.898   0.501 -0.1291  0.6786 -0.1066
  483SOL    HW1 1930   0.299   2.895   0.451 -1.1948 -0.1063  0.3115
  483SOL    HW2 1931   0.349   2.950   0.582 -0.8250  1.2041  1.1478
  483SOL     MW 1932   0.368   2.904   0.505 -0.3616  0.6443  0.1141
  484SOL     OW 1933   1.677   1.863   1.390  0.0519 -0.3925 -0.4638
  484SOL    HW1 1934   1.718   1.947   1.372  1.3187 -0.1548 -0.0180
  484SOL    HW2 1935   1.657   1.862   1.481 -1.5585 -0.4072 -1.9452
  484SOL     MW 1936   1.680   1.874   1.400  0.0066 -0.3631 -0.6004
  485SOL     OW 1937   0.556   2.380   0.275 -0.2793  1.0975 -0.3083
  485SOL    HW1 1938   0.608   2.363   0.357  2.4652 -0.0894  2.5898
  485SOL    HW2 1939   0.498   2.458   0.264 -1.7385 -0.6389 -1.6792
  485SOL     MW 1940   0.555   2.388   0.285 -0.1097  0.7118 -0.1068
  486SOL     OW 1941   0.124   2.461   1.394  0.4882 -0.0122  0.1241
  486SOL    HW1 1942   0.142   2.555   1.369 -1.7572 -2.8383 -1.7409
  486SOL    HW2 1943   0.142   2.456   1.487  0.7365  0.3566  0.5565
  486SOL     MW 1944   0.129   2.473   1.403  0.2247 -0.3364 -0.0650
  487SOL     OW 1945   1.272   1.602   1.092 -0.1221 -0.1283  0.3542
  487SOL    HW1 1946   1.232   1.691   1.113  0.6105  1.2773  1.0859
  487SOL    HW2 1947   1.346   1.629   1.031  2.1568  1.2141 -1.2629
  487SOL     MW 1948   1.276   1.617   1.087  0.2753  0.2343  0.2374
  488SOL     OW 1949   1.608   1.860   0.577  0.4014  0.0523  0.0701
  488SOL    HW1 1950   1.681   1.897   0.528  0.7190 -2.6796  0.5732
  488SOL    HW2 1951   1.531   1.874   0.520  1.2863 -1.0564 -2.8285
  488SOL     MW 1952   1.607   1.866   0.563  0.5601 -0.4544 -0.2459
  489SOL     OW 1953   0.770   0.807   0.516 -0.1726  0.0215  0.8726
  489SOL    HW1 1954   0.798   0.718   0.487 -0.2289  0.4069  0.1758
  489SOL    HW2 1955   0.743   0.803   0.607 -0.7047  0.0124  1.0900
  489SOL     MW 1956   0.770   0.795   0.525 -0.2502  0.0711  0.8094
  490SOL     OW 1957   1.410   2.112   0.433  0.1077  0.1787  0.3301
  490SOL    HW1 1958   1.455   2.199   0.413  0.6012  1.5942 -0.2169
  490SOL    HW2 1959   1.322   2.127   0.402 -1.9609 -2.3338 -1.1139
  490SOL     MW 1960   1.404   2.126   0.426 -0.1001  0.0340  0.0674
  491SOL     OW 1961   1.191   2.983   0.433 -0.0576  0.4063  0.6570
  491SOL    HW1 1962   1.234   3.032   0.500  2.4328 -0.7148 -1.1646
  491SOL    HW2 1963   1.110   3.022   0.409  0.7313  1.9972 -0.4471
  491SOL     MW 1964   1.186   2.994   0.439  0.3751  0.4682  0.2710
  492SOL     OW 1965   1.532   2.138   0.713  0.7149  0.0687  0.2946
  492SOL    HW1 1966   1.519   2.090   0.625  2.0371 -0.9949  0.0648
  492SOL    HW2 1967   1.485   2.076   0.773  0.0857  0.8043  2.1071
  492SOL     MW 1968   1.524   2.123   0.709  0.8064  0.0254  0.5034
  493SOL     OW 1969   0.138   2.913   0.411 -0.3577  0.2139 -0.3389
  493SOL    HW1 1970   0.119   2.989   0.464  0.4876 -1.4583  0.5973
  493SOL    HW2 1971   0.160   2.950   0.324  0.3579  1.0501 -0.5200
  493SOL     MW 1972   0.139   2.928   0.407 -0.1518  0.1036 -0.2393
  494SOL     OW 1973   0.442   2.411   1.778 -0.1566 -0.0172 -0.4510
  494SOL    HW1 1974   0.428   2.314   1.806 -1.7472  0.4033 -1.5349
  494SOL    HW2 1975   0.464   2.388   1.688 -0.9551 -1.8329  1.6852
  494SOL     MW 1976   0.443   2.395   1.770 -0.4718 -0.2013 -0.3121
  495SOL     OW 1977   2.899   1.657   2.717 -0.6569  0.4090 -0.0080
  495SOL    HW1 1978   2.899   1.738   2.770  1.7168  0.1219  1.9777
  495SOL    HW2 1979   2.935   1.602   2.786 -0.1051 -0.2257 -0.0945
  495SOL     MW 1980   2.904   1.660   2.733 -0.2709  0.2874  0.2426
  496SOL     OW 1981   2.852   2.307   2.641  0.2519  0.2093 -0.3009
  496SOL    HW1 1982   2.872   2.224   2.685  0.8173 -1.3169 -1.4532
  496SOL    HW2 1983   2.926   2.366   2.656 -0.1091  0.8947  2.8810
  496SOL     MW 1984   2.864   2.304   2.649  0.2788  0.0983 -0.0331
  497SOL     OW 1985   1.499   2.305   2.509  0.3876  0.0716  0.7998
  497SOL    HW1 1986   1.478   2.268   2.424  0.4866 -0.2800  1.1560
  497SOL    HW2 1987   1.487   2.238   2.573 -0.9106  2.3699 -1.7879
  497SOL     MW 1988   1.495   2.291   2.506  0.2294  0.3284  0.5054
  498SOL     OW 1989   1.595   2.732   2.247 -0.0483 -0.4937  0.4750
  498SOL    HW1 1990   1.603   2.637   2.219 -3.3389  0.4030  1.9700
  498SOL    HW2 1991   1.658   2.739   2.318 -0.9246 -0.1001 -2.4013
  498SOL     MW 1992   1.605   2.721   2.253 -0.5981 -0.3235  0.2928
  499SOL     OW 1993   0.928   0.152   0.001 -0.2079  0.1460 -0.1966
  499SOL    HW1 1994   0.852   0.179   0.052  1.2471 -2.0526 -0.0361
  499SOL    HW2 1995   0.910   0.064  -0.021  0.0470  3.8073 -0.3198
  499SOL     MW 1996   0.916   0.144   0.005  0.0177  0.3390 -0.1917
  500SOL     OW 1997   1.012   2.443   2.786 -0.3900  0.0424  0.0637
  500SOL    HW1 1998   1.058   2.421   2.866  0.0651  2.2682  0.1058
  500SOL    HW2 1999   0.959   2.521   2.803 -4.0040 -1.7715  1.3564
  500SOL     MW 2000   1.011   2.450   2.799 -0.8068  0.0968  0.2398
  501SOL     OW 2001   1.743   2.228   3.067  0.3300  0.3706 -0.0045
  501SOL    HW1 2002   1.736   2.311   3.110 -0.2011 -0.6661  0.9209
  501SOL    HW2 2003   1.833   2.204   3.090 -0.3180 -0.9372 -0.4157
  501SOL     MW 2004   1.754   2.236   3.075  0.1745  0.0613  0.0633
  502SOL     OW 2005   0.116   2.797   2.931 -0.3718  0.2904  0.1499
  502SOL    HW1 2006   0.050   2.733   2.899  0.2098 -1.6500  0.5828
  502SOL    HW2 2007   0.143   2.858   2.857  0.4457  1.5969 -0.9489
  502SOL     MW 2008   0.111   2.796   2.917 -0.1872  0.2068  0.0620
  503SOL     OW 2009   1.138   2.614   2.063 -0.3157  0.0837 -0.3244
  503SOL    HW1 2010   1.211   2.616   1.994 -2.7233 -0.4919 -0.7426
  503SOL    HW2 2011   1.053   2.625   2.020  0.4946  0.3744 -2.1692
  503SOL     MW 2012   1.137   2.616   2.048 -0.5265  0.0461 -0.6230
  504SOL     OW 2013   0.090   2.647   2.056  0.0967 -0.0839 -0.0929
  504SOL    HW1 2014   0.184   2.645   2.033  0.8088  0.4300 -1.8225
  504SOL    HW2 2015   0.078   2.555   2.074  1.7925  0.7806 -1.4544
  504SOL     MW 2016   0.101   2.635   2.055  0.4144  0.0980 -0.5007
  505SOL     OW 2017   1.641   2.679   2.727  0.1686 -0.1546 -0.2311
  505SOL    HW1 2018   1.680   2.690   2.635 -0.6877 -0.8356 -0.2550
  505SOL    HW2 2019   1.586   2.759   2.742  1.7450  1.1521  0.7255
  505SOL     MW 2020   1.639   2.691   2.717  0.2636 -0.0720 -0.1080
  506SOL     OW 2021   1.618   0.034   2.851  0.6240 -0.2815  0.5652
  506SOL    HW1 2022   1.635  -0.010   2.939 -1.0154 -3.6020 -0.7947
  506SOL    HW2 2023   1.661  -0.021   2.783  1.1138 -0.7207 -2.0147
  506SOL     MW 2024   1.626   0.021   2.854  0.4723 -0.7776  0.0454
  507SOL     OW 2025   0.883   2.688   2.861  0.7615 -0.1075  0.4021
  507SOL    HW1 2026   0.926   2.746   2.799 -1.0359  0.2295 -0.0349
  507SOL    HW2 2027   0.795   2.673   2.825  1.4558  0.8591  0.8536
  507SOL     MW 2028   0.877   2.693   2.848  0.6160  0.0645  0.4040
  508SOL     OW 2029   1.249   2.118   2.530 -0.3782 -0.0047  0.1304
  508SOL    HW1 2030   1.307   2.124   2.608  0.1710  1.1125  0.1589
  508SOL    HW2 2031   1.182   2.172   2.561  1.4456 -1.3351 -2.0558
  508SOL     MW 2032   1.248   2.126   2.544 -0.0651 -0.0329 -0.1543
  509SOL     OW 2033   0.625   2.629   2.796  0.5082  0.3038 -0.6803
  509SOL    HW1 2034   0.619   2.578   2.721  3.2354  0.3490  3.1503
  509SOL    HW2 2035   0.594   2.718   2.767 -1.3428  0.6733  0.6728
  509SOL     MW 2036   0.620   2.634   2.783  0.6238  0.3586  0.0036
  510SOL     OW 2037   1.564   2.606   1.656  0.2451  0.3728 -0.5282
  510SOL    HW1 2038   1.584   2.685   1.604  1.9296 -3.6820  0.7373
  510SOL    HW2 2039   1.520   2.634   1.745 -0.1099  1.5899 -0.2392
  510SOL     MW 2040   1.561   2.620   1.661  0.4205 -0.0016 -0.3231
  511SOL     OW 2041   0.376   2.610   2.534  0.5036  0.3297 -0.3441
  511SOL    HW1 2042   0.460   2.573   2.554  0.1929  0.8632 -2.5552
  511SOL    HW2 2043   0.361   2.585   2.440  0.1710  1.5057 -0.8459
  511SOL     MW 2044   0.385   2.601   2.525  0.4187  0.5553 -0.7020
  512SOL     OW 2045   1.008   2.036   2.890 -0.6786  0.2368 -0.0595
  512SOL    HW1 2046   0.915   2.062   2.903 -2.0353 -0.7094  2.1971
  512SOL    HW2 2047   1.009   1.952   2.937  1.3051 -1.7449 -2.4384
  512SOL     MW 2048   0.996   2.028   2.898 -0.5959 -0.1495 -0.0756
  513SOL     OW 2049   1.697   2.456   2.210 -0.4950 -0.1739  0.1675
  513SOL    HW1 2050   1.774   2.508   2.164  0.8718 -0.0009 -2.8843
  513SOL    HW2 2051   1.743   2.430   2.293  2.2311  0.0000  0.0228
  513SOL     MW 2052   1.713   2.460   2.215  0.0450 -0.1281 -0.2543
  514SOL     OW 2053   0.239   2.393   2.668  0.5304  0.6291  0.4047
  514SOL    HW1 2054   0.287   2.472   2.630  1.1515  1.3933  0.1970
  514SOL    HW2 2055   0.282   2.356   2.746  0.0695 -1.6473  1.7078
  514SOL     MW 2056   0.251   2.398   2.673  0.5516  0.4296  0.5492
  515SOL     OW 2057   1.068   2.049   1.925 -0.1493  1.0902  0.4311
  515SOL    HW1 2058   1.038   2.145   1.924  0.4681  1.3894 -1.7383
  515SOL    HW2 2059   1.151   2.051   1.965  0.3104 -0.7530 -0.0599
  515SOL     MW 2060   1.075   2.062   1.930 -0.0072  0.8865  0.0801
  516SOL     OW 2061   1.412   2.504   2.959  0.1280 -0.5723  0.1960
  516SOL    HW1 2062   1.434   2.525   2.869  0.1000  0.7502  0.4288
  516SOL    HW2 2063   1.316   2.504   2.963 -1.2815  2.8430 -0.2826
  516SOL     MW 2064   1.402   2.507   2.948 -0.0616  0.0528  0.1636
  517SOL     OW 2065   0.605   2.401   2.265 -0.0657  0.8672  0.0873
  517SOL    HW1 2066   0.528   2.447   2.305  0.0346 -0.3838  1.0447
  517SOL    HW2 2067   0.560   2.316   2.232 -1.2652 -4.0204 -1.3821
  517SOL     MW 2068   0.589   2.396   2.266 -0.2108  0.0573  0.0197
  518SOL     OW 2069   1.838   0.039   0.001  0.3948  0.5893  0.3648
  518SOL    HW1 2070   1.794   0.111   0.053  0.5999  2.1842  0.2320
  518SOL    HW2 2071   1.778  -0.038  -0.001  1.3198 -4.0826 -0.4136
  518SOL     MW 2072   1.824   0.038   0.007  0.5439  0.1833  0.2446
  519SOL     OW 2073   0.711   2.536   1.728 -0.0247 -0.2730 -0.3651
  519SOL    HW1 2074   0.725   2.436   1.725  1.9579 -1.9895  2.1878
  519SOL    HW2 2075   0.618   2.543   1.723  0.3016 -0.6278  0.9112
  519SOL     MW 2076   0.700   2.524   1.727  0.2800 -0.5463  0.1402
  520SOL     OW 2077   1.208   2.196   2.955 -0.0856  0.5055  0.2070
  520SOL    HW1 2078   1.126   2.136   2.944 -0.9036 -1.3123  0.6317
  520SOL    HW2 2079   1.260   2.157   3.032  3.2113 -1.4992 -0.9756
  520SOL     MW 2080   1.204   2.183   2.964  0.2414  0.0012  0.1070
  521SOL     OW 2081   1.763   2.045   2.239 -0.1302 -0.7034 -0.3082
  521SOL    HW1 2082   1.787   2.068   2.146 -2.4269  0.7487 -0.3428
  521SOL    HW2 2083   1.761   1.948   2.227 -1.1546 -1.2738 -0.2264
  521SOL     MW 2084   1.766   2.035   2.225 -0.5684 -0.5871 -0.3020
  522SOL     OW 2085   2.912   2.514   2.270  0.2708 -0.0622  0.2226
  522SOL    HW1 2086   2.998   2.476   2.294  2.9049  0.0898  1.3793
  522SOL    HW2 2087   2.915   2.605   2.279 -0.8609 -3.1466 -0.2566
  522SOL     MW 2088   2.924   2.521   2.275  0.4691 -0.4491  0.3120
  523SOL     OW 2089   0.903   1.512   2.139  0.1984 -0.2982 -0.3389
  523SOL    HW1 2090   0.879   1.578   2.066 -2.7584 -0.7459  0.8760
  523SOL    HW2 2091   0.932   1.426   2.106  1.8352  1.3944 -1.5167
  523SOL     MW 2092   0.904   1.509   2.125  0.0242 -0.1339 -0.3340
  524SOL     OW 2093   0.597   2.390   2.938 -0.4531 -0.0397  0.0917
  524SOL    HW1 2094   0.626   2.469   2.893 -1.1398  1.2828 -0.0813
  524SOL    HW2 2095   0.652   2.313   2.917 -0.4480 -3.4312 -1.0870
  524SOL     MW 2096   0.608   2.390   2.930 -0.5430 -0.3127 -0.0867
  525SOL     OW 2097   0.460   2.193   2.135 -0.1698  0.2469  0.0140
  525SOL    HW1 2098   0.442   2.128   2.211 -0.4008  0.3568  2.8660
  525SOL    HW2 2099   0.522   2.141   2.081 -0.8076  0.5246 -0.3976
  525SOL     MW 2100   0.466   2.178   2.138 -0.2844  0.2980  0.3360
  526SOL     OW 2101   0.690   2.124   1.987  0.3742 -0.1582 -0.1049
  526SOL    HW1 2102   0.725   2.183   1.918 -2.1680 -3.1021  2.8785
  526SOL    HW2 2103   0.760   2.141   2.052 -1.6965 -2.6717 -1.3845
  526SOL     MW 2104   0.704   2.134   1.986 -0.2344 -0.8783  0.1199
  527SOL     OW 2105   1.319   1.934   2.075  0.3932  0.7238  0.3128
  527SOL    HW1 2106   1.326   1.893   2.157  0.6794  2.0344 -2.0962
  527SOL    HW2 2107   1.335   1.865   2.015  0.1338  0.6128  2.2041
  527SOL     MW 2108   1.322   1.920   2.078  0.3967  0.8821  0.2445
  528SOL     OW 2109   0.678   2.923   2.921  0.4817 -0.5354 -0.1507
  528SOL    HW1 2110   0.679   3.017   2.942 -0.1555 -0.2512 -0.4778
  528SOL    HW2 2111   0.644   2.918   2.824 -2.5249  0.6326 -0.0957
  528SOL     MW 2112   0.674   2.935   2.911  0.0009 -0.3438 -0.1866
  529SOL     OW 2113   0.938   2.327   1.900  0.2000  0.6241  0.1106
  529SOL    HW1 2114   0.974   2.348   1.984 -0.2195 -0.9353  1.0651
  529SOL    HW2 2115   1.003   2.365   1.834 -1.2135  0.8403 -1.3620
  529SOL     MW 2116   0.951   2.335   1.903 -0.0419  0.4469  0.0422
  530SOL     OW 2117   1.137   2.451   3.058  0.1787 -0.5235 -0.0160
  530SOL    HW1 2118   1.056   2.490   3.096  1.1268  4.9716  2.9010
  530SOL    HW2 2119   1.146   2.354   3.062 -1.1765  0.9893  2.2873
  530SOL     MW 2120   1.127   2.443   3.064  0.1250  0.4012  0.6728
  531SOL     OW 2121   0.964   1.901   2.650  0.7359  0.2365 -0.0112
  531SOL    HW1 2122   1.006   1.939   2.730 -1.1665 -1.1169  0.0330
  531SOL    HW2 2123   0.926   1.817   2.689  0.1296 -2.4277  0.3547
  531SOL     MW 2124   0.965   1.895   2.665  0.4049 -0.2936  0.0429
  532SOL     OW 2125   1.702   0.288   2.836 -0.1179  0.5514 -0.0372
  532SOL    HW1 2126   1.678   0.198   2.835  1.2974  2.4075  0.1706
  532SOL    HW2 2127   1.792   0.295   2.889  0.5205 -0.2017  1.3766
  532SOL     MW 2128   1.711   0.277   2.843  0.1531  0.6969  0.1768
  533SOL     OW 2129   1.803   2.643   2.983 -0.2872 -0.1779 -0.0554
  533SOL    HW1 2130   1.771   2.577   3.045  1.7935  0.1370  1.3198
  533SOL    HW2 2131   1.737   2.644   2.909 -1.7239 -1.2167 -3.0823
  533SOL     MW 2132   1.791   2.634   2.982 -0.2022 -0.2734 -0.2733
  534SOL     OW 2133   1.767   2.396   2.459  0.6805 -0.4190 -0.0040
  534SOL    HW1 2134   1.676   2.374   2.477 -0.3767  0.4819  2.0243
  534SOL    HW2 2135   1.826   2.415   2.539 -0.6176 -0.0563 -2.9817
  534SOL     MW 2136   1.763   2.395   2.472  0.3698 -0.2523 -0.1293
  535SOL     OW 2137   1.828   2.326   1.952 -0.0694 -0.1399  0.5584
  535SOL    HW1 2138   1.783   2.323   1.869  1.7220 -1.0176 -0.2779
  535SOL    HW2 2139   1.923   2.346   1.939  1.7173 -1.3522  0.7735
  535SOL     MW 2140   1.835   2.328   1.939  0.4027 -0.4157  0.4764
  536SOL     OW 2141   0.471   1.826   2.020 -0.0274  0.4927  0.0143
  536SOL    HW1 2142   0.457   1.797   1.932  1.1317 -0.6503 -0.1101
  536SOL    HW2 2143   0.566   1.834   2.029 -2.1695 -1.0117  0.0266
  536SOL     MW 2144   0.482   1.823   2.009 -0.1571  0.1434 -0.0005
  537SOL     OW 2145   1.117   0.179   2.895  0.2778  0.2209  0.1265
  537SOL    HW1 2146   1.039   0.165   2.944 -0.1714 -0.7607  0.5161
  537SOL    HW2 2147   1.112   0.276   2.879  0.3523  3.2234 -1.2610
  537SOL     MW 2148   1.106   0.190   2.899  0.2283  0.4875 -0.0052
  538SOL     OW 2149   1.334   0.048   2.971  0.5667  0.8188 -0.0238
  538SOL    HW1 2150   1.264   0.103   2.934  1.3341  1.7246 -0.6670
  538SOL    HW2 2151   1.415   0.075   2.927  1.7583 -0.0194 -1.5201
  538SOL     MW 2152   1.335   0.059   2.960  0.8252  0.8277 -0.3061
  539SOL     OW 2153   0.775   2.749   2.506 -0.3612  0.4417  0.1431
  539SOL    HW1 2154   0.855   2.780   2.550  0.8742 -1.8897 -0.1817
  539SOL    HW2 2155   0.781   2.655   2.523 -0.0643 -1.8468  2.1428
  539SOL     MW 2156   0.786   2.741   2.514 -0.1590 -0.1678  0.3641
  540SOL     OW 2157   0.350   2.264   2.897  0.3458  0.6225 -0.2846
  540SOL    HW1 2158   0.428   2.302   2.939 -2.1733 -0.3737  2.5843
  540SOL    HW2 2159   0.311   2.212   2.964 -0.3014  1.5009 -1.0991
  540SOL     MW 2160   0.355   2.262   2.911 -0.0720  0.6069 -0.0136
  541SOL     OW 2161   0.142   2.909   2.210  0.0114  0.1646  0.0340
  541SOL    HW1 2162   0.151   2.844   2.141  0.3533  1.5148 -0.7011
  541SOL    HW2 2163   0.194   2.874   2.291 -0.7068 -1.4933  1.6402
  541SOL     MW 2164   0.150   2.895   2.211 -0.0382  0.1240  0.1489
  542SOL     OW 2165   1.015   2.254   2.594  0.8629  0.1624 -0.8968
  542SOL    HW1 2166   0.975   2.182   2.635  1.0467  4.0400 -2.5329
  542SOL    HW2 2167   1.022   2.321   2.665  0.9793  1.7573 -0.4303
  542SOL     MW 2168   1.011   2.253   2.609  0.9025  0.8844 -1.0511
  543SOL     OW 2169   1.418   2.514   2.681 -0.5504  0.3234  0.1663
  543SOL    HW1 2170   1.446   2.438   2.625  0.3804 -2.6779 -1.7627
  543SOL    HW2 2171   1.499   2.565   2.687  0.9326  1.1480 -0.8199
  543SOL     MW 2172   1.432   2.511   2.674 -0.2320  0.0362 -0.2183
  544SOL     OW 2173   0.575   0.231   2.703  0.0264  0.1971 -0.1472
  544SOL    HW1 2174   0.483   0.230   2.750  0.0731  1.4844 -1.3518
  544SOL    HW2 2175   0.563   0.183   2.622  1.8821 -0.2363 -0.7427
  544SOL     MW 2176   0.562   0.225   2.698  0.2774  0.3098 -0.3847
  545SOL     OW 2177   1.511   2.168   2.258  0.1519  0.1580 -0.1375
  545SOL    HW1 2178   1.477   2.162   2.169  0.7563 -0.6172 -0.2357
  545SOL    HW2 2179   1.596   2.112   2.256  0.5537 -1.6942 -0.3821
  545SOL     MW 2180   1.518   2.160   2.246  0.2847 -0.1886 -0.1827
  546SOL     OW 2181   2.960   2.043   0.122 -0.4490  0.4628  0.1643
  546SOL    HW1 2182   2.975   2.104   0.045  1.6581  0.5868 -2.3602
  546SOL    HW2 2183   3.050   2.011   0.125  0.8044  0.8958 -4.0125
  546SOL     MW 2184   2.974   2.047   0.112 -0.0056  0.5363 -0.7199
  547SOL     OW 2185   0.224   2.989   0.143  0.4066 -0.4396 -0.0945
  547SOL    HW1 2186   0.247   3.036   0.068  0.6151 -2.3970  1.3293
  547SOL    HW2 2187   0.235   2.895   0.112 -1.7399 -2.4576 -0.5151
  547SOL     MW 2188   0.229   2.983   0.129  0.1509 -0.9641  0.0378
  548SOL     OW 2189   0.312   2.539   0.256 -0.0582  0.3082 -0.4849
  548SOL    HW1 2190   0.280   2.611   0.206  0.3190 -0.9649 -0.8283
  548SOL    HW2 2191   0.250   2.472   0.239  2.8414  2.0276 -0.6268
  548SOL     MW 2192   0.300   2.540   0.247  0.3741  0.3671 -0.5489
  549SOL     OW 2193   0.727   1.875   2.081  0.8744 -0.0483  0.1660
  549SOL    HW1 2194   0.707   1.958   2.031  0.1430 -0.0013  3.0962
  549SOL    HW2 2195   0.781   1.912   2.154  0.9380 -0.3977 -0.2118
  549SOL     MW 2196   0.731   1.891   2.084  0.7863 -0.0882  0.5028
  550SOL     OW 2197   1.826   1.755   2.515 -0.2327  0.0130 -0.2994
  550SOL    HW1 2198   1.812   1.763   2.422 -0.5188 -1.7418  1.8113
  550SOL    HW2 2199   1.799   1.832   2.558 -1.0456 -2.0246 -2.8169
  550SOL     MW 2200   1.820   1.766   2.508 -0.3777 -0.4874 -0.3531
  551SOL     OW 2201   0.867   2.351   0.212  0.0254  0.1803  0.6441
  551SOL    HW1 2202   0.957   2.379   0.214  2.3802 -0.7985  1.6684
  551SOL    HW2 2203   0.872   2.271   0.161  2.8783 -0.1132  3.1780
  551SOL     MW 2204   0.880   2.344   0.206  0.7125  0.0124  1.1136
  552SOL     OW 2205   1.737   1.768   2.235  0.0302  0.7092  0.0429
  552SOL    HW1 2206   1.665   1.710   2.265  0.3927 -1.0493 -0.2159
  552SOL    HW2 2207   1.759   1.739   2.140  1.2230 -0.6546 -5.7881
  552SOL     MW 2208   1.731   1.757   2.226  0.2354  0.2972 -0.7606
  553SOL     OW 2209   1.235   2.324   1.496 -0.4379  0.1735  0.0544
  553SOL    HW1 2210   1.267   2.231   1.494  2.1007 -0.6035 -0.5468
  553SOL    HW2 2211   1.311   2.381   1.477  2.2416 -0.3768 -0.5661
  553SOL     MW 2212   1.250   2.319   1.494  0.2506 -0.0016 -0.1068
  554SOL     OW 2213   0.582   2.871   2.680  0.1435 -0.1943  0.3552
  554SOL    HW1 2214   0.519   2.936   2.634  2.8336  0.1006 -1.0434
  554SOL    HW2 2215   0.630   2.826   2.609 -1.0889 -1.1430  0.6177
  554SOL     MW 2216   0.580   2.874   2.665  0.3358 -0.2806  0.2053
  555SOL     OW 2217   0.606   2.472   2.579 -0.1723 -0.2981 -0.0668
  555SOL    HW1 2218   0.574   2.376   2.584 -0.4653 -3.4617  0.5991
  555SOL    HW2 2219   0.705   2.464   2.554  4.7593  3.5122 -0.5664
  555SOL     MW 2220   0.615   2.458   2.576  0.4397 -0.2128 -0.0448
  556SOL     OW 2221   0.933   1.785   0.173  0.0684 -0.3239  0.2208
  556SOL    HW1 2222   0.943   1.767   0.078  0.1817  1.9879 -0.8409
  556SOL    HW2 2223   1.023   1.822   0.191  0.9112  1.1083  0.7462
  556SOL     MW 2224   0.946   1.787   0.163  0.1946  0.1700  0.1500
  557SOL     OW 2225   0.940   2.710   0.508  0.9466  0.1818  0.3060
  557SOL    HW1 2226   0.984   2.677   0.432  0.4329  1.0324  0.9610
  557SOL    HW2 2227   0.888   2.778   0.470 -1.3483  1.7089 -0.5632
  557SOL     MW 2228   0.939   2.715   0.493  0.5761  0.4956  0.2777
  558SOL     OW 2229   0.255   2.168   0.053  0.1848 -0.7561  0.0652
  558SOL    HW1 2230   0.198   2.093   0.067  1.0930 -2.3341  1.2719
  558SOL    HW2 2231   0.215   2.251   0.077 -3.6004 -0.6453 -3.9375
  558SOL     MW 2232   0.242   2.169   0.058 -0.1948 -0.9496 -0.3037
  559SOL     OW 2233   1.126   2.297   2.100 -0.2017  0.1433 -0.3996
  559SOL    HW1 2234   1.128   2.386   2.143 -1.5870  0.3833  0.3688
  559SOL    HW2 2235   1.120   2.237   2.178 -1.0800 -0.1705  3.1422
  559SOL     MW 2236   1.126   2.301   2.116 -0.5004  0.1336  0.1691
  560SOL     OW 2237   1.926   2.847   0.045 -0.0079  0.8874  0.2118
  560SOL    HW1 2238   1.989   2.882  -0.023  0.7081 -0.6845 -2.4877
  560SOL    HW2 2239   1.915   2.759   0.007  1.7031  0.6521  1.0462
  560SOL     MW 2240   1.933   2.840   0.031  0.3123  0.6490 -0.0343
  561SOL     OW 2241   0.452   2.119   0.232  0.1131  0.4083 -0.2183
  561SOL    HW1 2242   0.393   2.103   0.155 -1.1404 -2.1436  0.8184
  561SOL    HW2 2243   0.479   2.217   0.222 -1.9785 -2.4114  0.7927
  561SOL     MW 2244   0.448   2.130   0.221 -0.3283 -0.3004  0.0519
  562SOL     OW 2245   0.863   2.184   2.221  0.2811 -0.4311  0.0400
  562SOL    HW1 2246   0.841   2.263   2.273  1.2156  0.5618  1.6761
  562SOL    HW2 2247   0.954   2.160   2.253  2.0690  1.1791 -0.9877
  562SOL     MW 2248   0.872   2.191   2.232  0.6403 -0.0877  0.1203
  563SOL     OW 2249   1.142   0.316   0.625 -0.3849 -0.1800  0.7544
  563SOL    HW1 2250   1.080   0.300   0.554  0.5082 -1.8894  0.9510
  563SOL    HW2 2251   1.199   0.243   0.607 -0.0223  0.7350 -0.1483
  563SOL     MW 2252   1.141   0.304   0.613 -0.2192 -0.2848  0.6613
  564SOL     OW 2253   1.087   2.535   2.331 -0.3227  0.1328 -0.2487
  564SOL    HW1 2254   1.115   2.590   2.251  0.1582  0.8389 -0.3734
  564SOL    HW2 2255   1.150   2.567   2.401 -0.8760 -1.7368 -0.0415
  564SOL     MW 2256   1.099   2.546   2.330 -0.3322 -0.0207 -0.2378
  565SOL     OW 2257   2.877   2.673   2.590  0.1104  0.4793  0.4202
  565SOL    HW1 2258   2.925   2.737   2.532 -2.4709 -3.2907 -0.9959
  565SOL    HW2 2259   2.799   2.653   2.541  0.2137  1.4384 -2.5052
  565SOL     MW 2260   2.873   2.679   2.576 -0.2166  0.1084 -0.1526
  566SOL     OW 2261   2.165   1.844   2.422 -0.4131 -0.4998  0.3061
  566SOL    HW1 2262   2.191   1.828   2.331  2.9298  0.8481  1.2554
  566SOL    HW2 2263   2.218   1.925   2.445 -1.4990 -1.6455  1.7387
  566SOL     MW 2264   2.176   1.853   2.413 -0.1153 -0.4732  0.6204
  567SOL     OW 2265   1.135   2.956   3.050 -0.1091  0.0727 -0.3116
  567SOL    HW1 2266   1.214   2.997   3.064 -0.4220  0.0929 -0.8209
  567SOL    HW2 2267   1.158   2.894   2.979 -0.7985  1.3536 -1.8185
  567SOL     MW 2268   1.149   2.953   3.042 -0.2414  0.2443 -0.5776
  568SOL     OW 2269   1.582   2.034   2.929 -0.0450  0.5521  0.2428
  568SOL    HW1 2270   1.629   2.106   2.968 -0.5051 -0.5650 -1.4565
  568SOL    HW2 2271   1.633   1.992   2.857 -0.6703  0.2267 -3.7194
  568SOL     MW 2272   1.595   2.038   2.924 -0.1882  0.3618 -0.5042
  569SOL     OW 2273   0.213   2.235   2.443 -0.2033  0.1147  0.1198
  569SOL    HW1 2274   0.148   2.291   2.390  0.9126  0.3678  0.9003
  569SOL    HW2 2275   0.233   2.283   2.526 -1.0671  0.8463  0.6282
  569SOL     MW 2276   0.207   2.249   2.447 -0.1700  0.2446  0.2898
  570SOL     OW 2277   1.486   0.426   0.473  0.1096  0.2100 -0.4397
  570SOL    HW1 2278   1.434   0.505   0.483 -2.5170  0.4373 -0.8357
  570SOL    HW2 2279   1.561   0.445   0.535  1.6081  0.3876  0.5067
  570SOL     MW 2280   1.489   0.439   0.482 -0.0393  0.2634 -0.3671
  571SOL     OW 2281   1.494   2.417   2.003 -0.0713 -0.4933 -0.0860
  571SOL    HW1 2282   1.560   2.416   2.074  1.0299  1.7015  1.1912
  571SOL    HW2 2283   1.480   2.329   1.980  1.1438  0.4436  1.7004
  571SOL     MW 2284   1.501   2.405   2.009  0.2343 -0.0801  0.3182
  572SOL     OW 2285   0.936   2.632   0.034 -0.1908 -0.8515 -0.9779
  572SOL    HW1 2286   0.931   2.660  -0.057  0.5088 -3.5681 -0.2986
  572SOL    HW2 2287   0.853   2.587   0.053 -1.1434 -0.3698 -0.1199
  572SOL     MW 2288   0.924   2.630   0.024 -0.2242 -1.1463 -0.7751
  573SOL     OW 2289   1.160   2.362   0.261  0.0246 -0.2043  0.0177
  573SOL    HW1 2290   1.248   2.363   0.213 -1.0086 -2.0059  2.0902
  573SOL    HW2 2291   1.141   2.456   0.267 -0.0338  3.1393  1.2836
  573SOL     MW 2292   1.169   2.375   0.255 -0.1194 -0.0008  0.4581
  574SOL     OW 2293   1.050   2.615   0.284  0.1546 -0.1741 -0.5459
  574SOL    HW1 2294   1.120   2.685   0.281  0.5861  0.7933 -0.1914
  574SOL    HW2 2295   1.003   2.635   0.205 -0.2789  1.1967  1.3129
  574SOL     MW 2296   1.053   2.627   0.273  0.1543  0.1344 -0.2539
  575SOL     OW 2297   3.081   2.318   1.793  0.1732  0.1946 -0.1268
  575SOL    HW1 2298   3.088   2.243   1.729  3.2774 -0.2703 -1.8267
  575SOL    HW2 2299   3.142   2.382   1.755  1.9004 -1.9493  0.5775
  575SOL     MW 2300   3.090   2.316   1.779  0.8107 -0.1496 -0.2581
  576SOL     OW 2301   2.850   1.802   2.027  1.0196 -0.3738  0.2716
  576SOL    HW1 2302   2.877   1.861   1.953  0.5664  0.7047 -0.9041
  576SOL    HW2 2303   2.753   1.790   2.020  0.8020 -1.3793  2.6303
  576SOL     MW 2304   2.841   1.808   2.016  0.9311 -0.3642  0.4277
  577SOL     OW 2305   2.134   0.294   0.070  0.0974 -0.6380 -0.6929
  577SOL    HW1 2306   2.068   0.303   0.003  0.3447  1.2709  0.2195
  577SOL    HW2 2307   2.092   0.240   0.142 -0.3908 -0.6962  4.9986
  577SOL     MW 2308   2.120   0.288   0.071  0.0657 -0.3938  0.1784
  578SOL     OW 2309   1.933   2.041   2.458 -0.7226  0.4620 -0.2703
  578SOL    HW1 2310   1.881   2.060   2.381  1.9140  2.0967  2.1197
  578SOL    HW2 2311   1.995   1.973   2.434 -0.1605  1.4897  0.5255
  578SOL     MW 2312   1.934   2.035   2.445 -0.3005  0.8133  0.1500
  579SOL     OW 2313   0.859   2.472   2.510 -0.0977  0.2123  0.1937
  579SOL    HW1 2314   0.905   2.395   2.544  2.1565 -1.2961 -2.4787
  579SOL    HW2 2315   0.935   2.511   2.466 -0.2832 -2.6013 -1.9263
  579SOL     MW 2316   0.875   2.467   2.508  0.1753 -0.3580 -0.4386
  580SOL     OW 2317   0.854   2.996   0.006 -0.0314  0.0663 -0.0273
  580SOL    HW1 2318   0.948   2.976   0.015 -0.4990 -0.7373 -1.8816
  580SOL    HW2 2319   0.814   2.951  -0.069 -0.0492  0.2771  0.8346
  580SOL     MW 2320   0.861   2.988  -0.003 -0.0954 -0.0119 -0.1583
  581SOL     OW 2321   1.141   2.449   1.724 -0.0501  0.0605 -0.7594
  581SOL    HW1 2322   1.214   2.502   1.762 -0.0972 -2.4727 -0.9606
  581SOL    HW2 2323   1.176   2.411   1.643 -0.4104  3.4119 -2.9005
  581SOL     MW 2324   1.156   2.451   1.719 -0.1039  0.1684 -1.0684
  582SOL     OW 2325   3.094   2.872   2.515 -0.4877  0.5657  0.1501
  582SOL    HW1 2326   3.078   2.956   2.560  0.4562 -1.7617 -0.4928
  582SOL    HW2 2327   3.187   2.860   2.538  0.3812 -1.1380 -0.2453
  582SOL     MW 2328   3.104   2.881   2.524 -0.2485  0.0339  0.0131
  583SOL     OW 2329   1.969   2.400   2.658  0.0277 -0.5026 -0.4086
  583SOL    HW1 2330   2.043   2.430   2.606 -1.5217 -0.6487 -1.4828
  583SOL    HW2 2331   2.003   2.313   2.691 -1.1654 -0.5438  0.5661
  583SOL     MW 2332   1.983   2.393   2.655 -0.3341 -0.5273 -0.4217
  584SOL     OW 2333   0.215   1.900   2.095 -0.4120  0.1635  0.7960
  584SOL    HW1 2334   0.300   1.859   2.082  1.1314 -2.4902  4.6486
  584SOL    HW2 2335   0.230   1.983   2.145  0.3917  0.5573  1.0173
  584SOL     MW 2336   0.228   1.906   2.100 -0.1023 -0.1347  1.3335
  585SOL     OW 2337   1.446   2.659   0.084 -0.1441  0.1257  0.5710
  585SOL    HW1 2338   1.429   2.606   0.009  0.3930 -1.7592  0.0578
  585SOL    HW2 2339   1.365   2.665   0.126 -1.4650 -2.6341 -1.5122
  585SOL     MW 2340   1.433   2.653   0.080 -0.2476 -0.4872  0.2284
  586SOL     OW 2341   1.399   2.834   2.462  0.4736 -0.1420  0.5389
  586SOL    HW1 2342   1.447   2.792   2.394 -2.6403 -1.0785  0.5666
  586SOL    HW2 2343   1.398   2.931   2.453  0.5730  4.0008  0.4910
  586SOL     MW 2344   1.406   2.841   2.451  0.0758  0.2810  0.5362
  587SOL     OW 2345   1.300   1.588   2.168  0.2926 -0.4734  0.1787
  587SOL    HW1 2346   1.301   1.518   2.238  0.9619  1.3562 -0.0235
  587SOL    HW2 2347   1.246   1.557   2.098  0.1881 -0.0718  2.4608
  587SOL     MW 2348   1.293   1.574   2.168  0.3671 -0.1790  0.4532
  588SOL     OW 2349   1.404   2.141   2.760 -0.0904 -0.2484 -0.1590
  588SOL    HW1 2350   1.477   2.115   2.819  1.1259 -3.1580 -1.1237
  588SOL    HW2 2351   1.326   2.169   2.812 -4.4128 -1.0923  1.2927
  588SOL     MW 2352   1.403   2.141   2.775 -0.5002 -0.7436 -0.0947
  589SOL     OW 2353   1.304   2.076   0.069 -0.0942 -0.2223 -0.2055
  589SOL    HW1 2354   1.336   2.152   0.120  0.6931  2.5276 -2.3771
  589SOL    HW2 2355   1.257   2.007   0.123 -0.4618  0.1086  0.6952
  589SOL     MW 2356   1.302   2.077   0.083 -0.0388  0.1842 -0.3732
  590SOL     OW 2357   0.432   2.611   2.266  0.1941  1.2519 -0.2424
  590SOL    HW1 2358   0.409   2.584   2.170  0.9793 -1.6913 -0.7862
  590SOL    HW2 2359   0.498   2.681   2.262  2.8053 -0.9208 -2.2284
  590SOL     MW 2360   0.438   2.617   2.253  0.6422  0.5769 -0.5762
  591SOL     OW 2361   2.277   0.736   3.068  0.4182  0.0576 -0.3421
  591SOL    HW1 2362   2.207   0.791   3.021 -1.9269 -1.3229 -0.4028
  591SOL    HW2 2363   2.362   0.764   3.045  1.4039  0.7187  0.8591
  591SOL     MW 2364   2.279   0.747   3.059  0.2389 -0.0374 -0.1916
  592SOL     OW 2365   1.805   2.945   0.828 -0.6578 -0.6171  0.2353
  592SOL    HW1 2366   1.795   3.006   0.755  0.1048 -0.5031  0.0781
  592SOL    HW2 2367   1.872   2.884   0.802 -0.7434  1.9002 -1.0073
  592SOL     MW 2368   1.813   2.945   0.815 -0.5685 -0.2700  0.0506
  593SOL     OW 2369   1.896   0.728   0.866  0.3337 -0.1330  0.4370
  593SOL    HW1 2370   1.816   0.727   0.812  0.8052 -1.1845 -1.2935
  593SOL    HW2 2371   1.899   0.635   0.889 -1.0224  0.7956  1.8850
  593SOL     MW 2372   1.886   0.716   0.862  0.2170 -0.1492  0.3998
  594SOL     OW 2373   2.770   1.164   1.359  0.2774  0.2904 -0.8168
  594SOL    HW1 2374   2.849   1.210   1.375  0.1407 -1.6987 -1.3778
  594SOL    HW2 2375   2.787   1.117   1.277  0.1482 -0.3497 -1.3115
  594SOL     MW 2376   2.782   1.164   1.351  0.2423 -0.0565 -0.9561
  595SOL     OW 2377   0.509   0.960   0.745  0.0596  0.9957 -0.2422
  595SOL    HW1 2378   0.547   1.018   0.683 -2.0757  1.0132  1.9380
  595SOL    HW2 2379   0.508   1.013   0.826 -1.8885  1.0666  0.3472
  595SOL     MW 2380   0.514   0.974   0.747 -0.4792  1.0074  0.1232
  596SOL     OW 2381   2.517   1.346   0.516  0.3397 -0.0182  0.3617
  596SOL    HW1 2382   2.554   1.427   0.494  0.7817 -0.1691  2.5559
  596SOL    HW2 2383   2.558   1.331   0.603  0.9490  3.3908  0.6969
  596SOL     MW 2384   2.527   1.355   0.525  0.4784  0.4117  0.6955
  597SOL     OW 2385   2.183   0.690   1.605  0.4774  0.3282  0.0495
  597SOL    HW1 2386   2.201   0.637   1.681 -2.6160 -0.0170  0.4545
  597SOL    HW2 2387   2.117   0.642   1.549  1.3742 -1.6138 -1.1341
  597SOL     MW 2388   2.176   0.676   1.608  0.1876  0.0264 -0.0533
  598SOL     OW 2389   2.591   0.979   2.888 -0.2151 -0.3667 -0.4785
  598SOL    HW1 2390   2.607   0.948   2.804  1.7965  0.9457 -0.8971
  598SOL    HW2 2391   2.655   1.047   2.894  0.7414 -0.2265  0.5758
  598SOL     MW 2392   2.602   0.984   2.878  0.1765 -0.1750 -0.3946
  599SOL     OW 2393   2.917   0.411   2.086  0.3229  0.0729  0.0802
  599SOL    HW1 2394   2.900   0.411   2.180  1.4194 -0.2580  0.1597
  599SOL    HW2 2395   2.977   0.490   2.061  1.5647  0.4048 -0.6436
  599SOL     MW 2396   2.923   0.422   2.095  0.6314  0.0731 -0.0048
  600SOL     OW 2397   1.915   1.764   0.887 -0.3234 -0.0694  0.2556
  600SOL    HW1 2398   1.930   1.778   0.984  2.9565 -1.4632 -0.5042
  600SOL    HW2 2399   1.821   1.756   0.875  2.8944 -1.5474 -1.8865
  600SOL     MW 2400   1.905   1.765   0.898  0.5339 -0.4483 -0.1272
  601SOL     OW 2401   2.509   0.805   0.830  0.1251 -0.4247 -0.4181
  601SOL    HW1 2402   2.524   0.796   0.925  0.3305  0.4876  2.9991
  601SOL    HW2 2403   2.451   0.727   0.807  0.8553 -1.6329  0.4614
  601SOL     MW 2404   2.503   0.794   0.839  0.2485 -0.4637  0.1488
  602SOL     OW 2405   2.292   1.956   0.826  0.2444 -0.4427 -0.0717
  602SOL    HW1 2406   2.272   1.862   0.848 -0.9985 -0.9247  0.3712
  602SOL    HW2 2407   2.211   1.986   0.786 -1.1965 -0.0907  0.6172
  602SOL     MW 2408   2.279   1.947   0.824 -0.1097 -0.4598  0.0776
  603SOL     OW 2409   3.072   1.374   1.818 -0.2019 -0.0217  0.2393
  603SOL    HW1 2410   3.123   1.396   1.895 -2.1149  1.6629  0.0849
  603SOL    HW2 2411   3.057   1.279   1.833 -0.7680 -2.6132  0.5577
  603SOL     MW 2412   3.077   1.364   1.830 -0.5290 -0.1414  0.2610
  604SOL     OW 2413   2.123   1.549   0.470  0.1909  0.0275  0.4300
  604SOL    HW1 2414   2.164   1.477   0.516  2.4962  1.6806  0.0720
  604SOL    HW2 2415   2.054   1.587   0.521  2.6719 -2.3651 -3.6794
  604SOL     MW 2416   2.120   1.544   0.483  0.8224 -0.0701 -0.1594
  605SOL     OW 2417   2.652   1.528   0.829  0.1118  0.1313 -0.3173
  605SOL    HW1 2418   2.605   1.591   0.769 -1.3657 -1.5755 -0.4902
  605SOL    HW2 2419   2.602   1.445   0.818 -0.7731  1.4416 -0.8804
  605SOL     MW 2420   2.639   1.525   0.820 -0.1999  0.0790 -0.4144
  606SOL     OW 2421   2.585   1.859   1.904  0.3589  0.0733 -0.2533
  606SOL    HW1 2422   2.491   1.862   1.897  0.3546  1.5038  1.5785
  606SOL    HW2 2423   2.604   1.787   1.844  0.1344 -1.1946  0.4345
  606SOL     MW 2424   2.575   1.850   1.895  0.3287  0.0948  0.0791
  607SOL     OW 2425   2.351   1.032   3.045 -0.0260 -0.4648  0.0659
  607SOL    HW1 2426   2.427   1.005   2.994  0.7380  1.5206 -1.2802
  607SOL    HW2 2427   2.381   1.028   3.142 -1.8307  1.0998  2.7650
  607SOL     MW 2428   2.365   1.028   3.051 -0.1633  0.0036  0.2444
  608SOL     OW 2429   1.898   0.292   0.622 -0.3365 -0.2199 -0.1863
  608SOL    HW1 2430   1.903   0.350   0.544  1.2621  1.6380  2.3451
  608SOL    HW2 2431   1.885   0.201   0.584 -0.2638 -0.6841  1.5417
  608SOL     MW 2432   1.897   0.288   0.606 -0.1160 -0.0360  0.3756
  609SOL     OW 2433   2.093   2.007   3.049  0.0164  0.5001 -0.0071
  609SOL    HW1 2434   2.010   1.956   3.057  0.7684  0.1307  1.6270
  609SOL    HW2 2435   2.155   1.984   3.121 -0.0622 -0.0403  0.5398
  609SOL     MW 2436   2.090   1.997   3.059  0.1052  0.3801  0.2807
  610SOL     OW 2437   1.767   1.012   1.255 -0.6693 -0.1159  0.0331
  610SOL    HW1 2438   1.777   0.933   1.200  0.2928 -0.0084  2.1037
  610SOL    HW2 2439   1.677   1.004   1.277  2.6130 -2.2342  0.2663
  610SOL     MW 2440   1.756   1.001   1.251 -0.1093 -0.3812  0.3371
  611SOL     OW 2441   2.516   1.752   0.693  0.2993  0.2216 -0.0546
  611SOL    HW1 2442   2.477   1.793   0.770  1.8704 -0.7273  3.4754
  611SOL    HW2 2443   2.479   1.801   0.618  0.9207  1.2719 -3.4808
  611SOL     MW 2444   2.506   1.764   0.693  0.5886  0.2350 -0.0409
  612SOL     OW 2445   2.812   2.833   0.386  0.0126 -0.2461 -0.2504
  612SOL    HW1 2446   2.867   2.869   0.456  0.2482 -0.3504 -0.3899
  612SOL    HW2 2447   2.882   2.800   0.330  0.3161  0.2387  1.1023
  612SOL     MW 2448   2.828   2.833   0.388  0.0837 -0.1959 -0.0903
  613SOL     OW 2449   1.479   0.992   0.938 -0.2538  0.2042 -0.2377
  613SOL    HW1 2450   1.491   1.082   0.972  0.5900  0.8872  1.2374
  613SOL    HW2 2451   1.503   0.937   1.015  2.1382 -0.0395 -1.4630
  613SOL     MW 2452   1.484   0.997   0.952  0.1732  0.2622 -0.2047
  614SOL     OW 2453   1.975   0.533   1.501 -0.0780 -0.0244 -0.3168
  614SOL    HW1 2454   1.958   0.454   1.547  0.2359  1.4143  1.0664
  614SOL    HW2 2455   1.932   0.513   1.418 -1.0962 -2.2725  1.0051
  614SOL     MW 2456   1.967   0.520   1.496 -0.1709 -0.1312  0.0401
  615SOL     OW 2457   2.377   0.745   0.294  0.3200 -0.3596  0.1046
  615SOL    HW1 2458   2.457   0.701   0.325  1.0865  0.2017  0.5561
  615SOL    HW2 2459   2.362   0.701   0.214  0.2093 -1.5434  1.4396
  615SOL     MW 2460   2.386   0.734   0.288  0.4065 -0.4417  0.3403
  616SOL     OW 2461   2.517   0.426   1.597 -0.2744  0.6123  0.1293
  616SOL    HW1 2462   2.498   0.345   1.554 -0.0635 -1.7776  0.5826
  616SOL    HW2 2463   2.554   0.489   1.537 -1.4944  0.6329  0.8936
  616SOL     MW 2464   2.519   0.424   1.583 -0.4076  0.2997  0.2900
  617SOL     OW 2465   2.927   0.547   1.744 -0.0673 -0.3846  0.2824
  617SOL    HW1 2466   2.834   0.552   1.773  0.6586  1.9412  1.9843
  617SOL    HW2 2467   2.935   0.458   1.701 -2.4922 -1.0524 -1.4224
  617SOL     MW 2468   2.916   0.536   1.742 -0.2915 -0.1659  0.2820
  618SOL     OW 2469   2.693   0.329   1.946  0.4495  0.4110 -0.6185
  618SOL    HW1 2470   2.679   0.407   1.895 -0.1869 -0.1994  0.9245
  618SOL    HW2 2471   2.785   0.345   1.977  0.4592 -1.9740 -2.3289
  618SOL     MW 2472   2.703   0.342   1.944  0.3668  0.0158 -0.6406
  619SOL     OW 2473   2.662   0.659   0.124 -0.0891 -0.1615 -0.1394
  619SOL    HW1 2474   2.691   0.738   0.165  1.3494 -1.6673 -0.6162
  619SOL    HW2 2475   2.628   0.597   0.190  0.3658 -1.2821 -1.5004
  619SOL     MW 2476   2.661   0.661   0.138  0.1607 -0.5080 -0.3818
  620SOL     OW 2477   2.317   1.041   1.005 -0.1763 -0.0457  0.3228
  620SOL    HW1 2478   2.396   1.064   0.958  0.6441  2.6228  2.5823
  620SOL    HW2 2479   2.261   0.985   0.948  1.3666  2.1634  0.0793
  620SOL     MW 2480   2.320   1.036   0.991  0.1355  0.5979  0.5888
  621SOL     OW 2481   1.459   2.132   1.947  0.1558 -0.5482  0.1557
  621SOL    HW1 2482   1.415   2.060   1.986 -0.1092 -0.0123  0.6071
  621SOL    HW2 2483   1.553   2.112   1.944 -0.5186  2.2100 -0.5404
  621SOL     MW 2484   1.465   2.120   1.951  0.0319 -0.1136  0.1234
  622SOL     OW 2485   2.591   0.176   0.266 -0.2683 -0.3582  0.1127
  622SOL    HW1 2486   2.689   0.198   0.267 -2.6373  3.4879 -0.1543
  622SOL    HW2 2487   2.580   0.085   0.292  1.9650  0.5632  0.6598
  622SOL     MW 2488   2.603   0.167   0.270 -0.2862  0.2708  0.1497
  623SOL     OW 2489   2.354   2.811   0.865  0.4388  0.2129  0.3822
  623SOL    HW1 2490   2.413   2.888   0.876  0.3957 -0.4543 -2.4310
  623SOL    HW2 2491   2.295   2.809   0.939 -1.6078  1.5697 -0.4045
  623SOL     MW 2492   2.354   2.821   0.876  0.1631  0.3039 -0.0927
  624SOL     OW 2493   2.183   1.704   3.010 -0.1374  0.4680  0.1870
  624SOL    HW1 2494   2.150   1.614   3.013 -1.5103  1.7567 -0.6031
  624SOL    HW2 2495   2.109   1.760   3.000 -2.5511  1.4241 -2.3097
  624SOL     MW 2496   2.169   1.700   3.009 -0.6370  0.7642 -0.2467
  625SOL     OW 2497   2.201   2.019   1.122  0.3079 -0.7677 -0.3768
  625SOL    HW1 2498   2.281   1.984   1.150 -0.7928 -2.4570 -0.4729
  625SOL    HW2 2499   2.236   2.075   1.053  1.2486  0.2040 -0.6384
  625SOL     MW 2500   2.216   2.022   1.117  0.2868 -0.8624 -0.4240
  626SOL     OW 2501   0.215   1.599   2.370  0.0994  0.3554  0.2333
  626SOL    HW1 2502   0.173   1.531   2.323  0.4293  0.0298  0.4358
  626SOL    HW2 2503   0.143   1.615   2.439  0.4943 -0.6646 -0.9589
  626SOL     MW 2504   0.200   1.592   2.373  0.1950  0.1778  0.1027
  627SOL     OW 2505   2.450   0.784   2.643  0.0916  0.0795  0.3776
  627SOL    HW1 2506   2.430   0.874   2.617 -0.7223  0.4707 -0.4045
  627SOL    HW2 2507   2.406   0.738   2.569 -1.3246 -1.7734  2.3621
  627SOL     MW 2508   2.441   0.790   2.630 -0.2026 -0.1134  0.5362
  628SOL     OW 2509   2.272   1.343   1.361  1.1130 -0.3502  0.0799
  628SOL    HW1 2510   2.240   1.280   1.291  1.6699  0.1554 -0.0238
  628SOL    HW2 2511   2.367   1.360   1.347 -1.9250  1.1605  0.2619
  628SOL     MW 2512   2.281   1.337   1.350  0.7857 -0.0842  0.0902
  629SOL     OW 2513   1.884   0.557   1.227 -0.6616  0.0735 -0.3496
  629SOL    HW1 2514   1.908   0.645   1.204 -3.3916  0.2331 -1.8197
  629SOL    HW2 2515   1.797   0.564   1.265 -0.4364  0.5811  2.9344
  629SOL     MW 2516   1.876   0.569   1.229 -0.9920  0.1615 -0.1103
  630SOL     OW 2517   2.435   1.816   3.055 -0.0446 -0.2363 -0.7119
  630SOL    HW1 2518   2.456   1.889   2.999  3.7434  3.3465  0.7577
  630SOL    HW2 2519   2.339   1.804   3.049 -1.2847  1.0801 -1.2081
  630SOL     MW 2520   2.425   1.824   3.047  0.2916  0.4101 -0.5835
  631SOL     OW 2521   1.966   1.828   1.580 -0.3783  0.2142 -0.2532
  631SOL    HW1 2522   1.989   1.754   1.643  1.2419 -0.5971  1.0071
  631SOL    HW2 2523   1.940   1.786   1.501  2.8374  0.7677  0.1906
  631SOL     MW 2524   1.966   1.813   1.578  0.2597  0.1802 -0.0284
  632SOL     OW 2525   0.124   2.023   1.477  0.8159 -0.4762  0.1934
  632SOL    HW1 2526   0.052   2.048   1.539 -1.2149  1.3626  1.0668
  632SOL    HW2 2527   0.138   1.928   1.498 -0.3220  1.5024 -2.4813
  632SOL     MW 2528   0.116   2.014   1.488  0.3978  0.0275 -0.0443
  633SOL     OW 2529   2.580   0.583   0.376  0.1994 -0.5662 -0.4797
  633SOL    HW1 2530   2.651   0.554   0.439  5.0171 -0.2278 -0.3303
  633SOL    HW2 2531   2.510   0.516   0.394  0.1106 -0.5939 -0.3162
  633SOL     MW 2532   2.580   0.570   0.387  0.8233 -0.5252 -0.4384
  634SOL     OW 2533   2.680   3.047   0.618  0.3564 -0.1124  0.0401
  634SOL    HW1 2534   2.709   3.140   0.627 -0.3258  2.7902  1.7141
  634SOL    HW2 2535   2.659   3.038   0.526 -0.8560  1.1434 -0.7423
  634SOL     MW 2536   2.681   3.058   0.607  0.1065  0.4362  0.1577
  635SOL     OW 2537   2.612   0.086   1.858 -0.0649  0.3478 -0.1350
  635SOL    HW1 2538   2.675   0.037   1.805  1.2178 -0.9352 -2.7789
  635SOL    HW2 2539   2.651   0.177   1.883  1.5697  3.3028 -3.7357
  635SOL     MW 2540   2.625   0.091   1.854  0.3200  0.5684 -0.9589
  636SOL     OW 2541   2.946   1.671   1.112 -0.5424 -0.3003  0.5230
  636SOL    HW1 2542   2.870   1.710   1.159 -0.6647  2.6873  0.2011
  636SOL    HW2 2543   3.007   1.745   1.108 -0.5368  1.3247 -1.8856
  636SOL     MW 2544   2.944   1.686   1.118 -0.5578  0.3083  0.1628
  637SOL     OW 2545   2.866   1.483   0.661 -0.9384 -0.3245  0.6646
  637SOL    HW1 2546   2.916   1.563   0.646 -2.3888 -0.4872  0.3635
  637SOL    HW2 2547   2.813   1.500   0.743  0.1561  0.2520  1.1441
  637SOL     MW 2548   2.866   1.496   0.670 -0.9853 -0.2699  0.6882
  638SOL     OW 2549   2.782   0.488   0.551 -0.0010 -0.4977  0.0474
  638SOL    HW1 2550   2.862   0.516   0.513  0.0376 -0.3293  1.0113
  638SOL    HW2 2551   2.773   0.534   0.633 -2.7245 -0.6256  1.2720
  638SOL     MW 2552   2.791   0.498   0.557 -0.3552 -0.4924  0.3361
  639SOL     OW 2553   1.775   0.064   0.561  0.2548 -0.1902  0.0065
  639SOL    HW1 2554   1.679   0.098   0.549 -1.3734 -0.8572  0.5016
  639SOL    HW2 2555   1.781  -0.017   0.506  2.2832  1.0230 -1.1431
  639SOL     MW 2556   1.763   0.058   0.552  0.3076 -0.1181 -0.0798
  640SOL     OW 2557   0.364   1.347   0.102  0.0339 -0.5249  0.5273
  640SOL    HW1 2558   0.394   1.347   0.012 -0.2343  0.8598  0.0481
  640SOL    HW2 2559   0.306   1.267   0.101 -1.8089  1.0712  1.1618
  640SOL     MW 2560   0.361   1.336   0.090 -0.2446 -0.1316  0.5478
  641SOL     OW 2561   2.234   0.428   0.356 -0.4757 -0.3680 -0.4208
  641SOL    HW1 2562   2.231   0.455   0.262  1.0740  1.5208  0.0670
  641SOL    HW2 2563   2.257   0.338   0.348  2.4064 -0.0713 -1.7292
  641SOL     MW 2564   2.236   0.420   0.343  0.1090 -0.0797 -0.5291
  642SOL     OW 2565   0.050  -0.000   0.587  0.4215 -0.7975 -0.3137
  642SOL    HW1 2566   0.016   0.066   0.526  0.4282  0.6128  0.7042
  642SOL    HW2 2567  -0.030  -0.058   0.602 -4.5076  2.9238 -0.4463
  642SOL     MW 2568   0.035   0.001   0.581 -0.2280 -0.1205 -0.1969
  643SOL     OW 2569   2.091   0.318   1.663 -0.3073  0.1097 -0.9510
  643SOL    HW1 2570   2.068   0.228   1.694 -1.1294 -0.4000 -1.5048
  643SOL    HW2 2571   2.107   0.321   1.568 -1.3295 -1.7308 -2.1182
  643SOL     MW 2572   2.090   0.307   1.655 -0.5507 -0.2004 -1.1781
  644SOL     OW 2573   2.745   1.984   1.051 -0.3090  0.2336 -0.1694
  644SOL    HW1 2574   2.733   1.911   1.108  0.9848  2.3644 -0.2463
  644SOL    HW2 2575   2.656   2.024   1.044  2.0664  0.7248  0.9507
  644SOL     MW 2576   2.732   1.980   1.058  0.1751  0.5795 -0.0317
  645SOL     OW 2577   2.866   0.856   0.668  0.2293 -0.2891 -0.1315
  645SOL    HW1 2578   2.958   0.843   0.676 -0.9713  0.0941 -1.1388
  645SOL    HW2 2579   2.827   0.769   0.680  1.3094 -0.5346 -0.2542
  645SOL     MW 2580   2.873   0.843   0.671  0.2134 -0.2709 -0.2806
  646SOL     OW 2581   0.184   2.299   0.772  0.1572  0.2127 -0.2395
  646SOL    HW1 2582   0.212   2.212   0.808  2.8014 -3.6533  2.2128
  646SOL    HW2 2583   0.115   2.298   0.709  1.4038 -1.0775  1.3767
  646SOL     MW 2584   0.179   2.288   0.768  0.6705 -0.4676  0.2973
  647SOL     OW 2585   2.689   0.480   2.973 -0.4498 -0.1539 -0.1177
  647SOL    HW1 2586   2.627   0.416   3.015 -1.2163  0.6903  0.3489
  647SOL    HW2 2587   2.658   0.571   2.989  0.7564 -3.0666  1.9769
  647SOL     MW 2588   2.676   0.484   2.981 -0.3918 -0.4268  0.2202
  648SOL     OW 2589   2.130   0.727   1.139 -0.2102 -0.1283  0.9446
  648SOL    HW1 2590   2.141   0.782   1.058  2.2180  2.7369  0.3483
  648SOL    HW2 2591   2.131   0.800   1.206  1.8903 -1.6219  2.6579
  648SOL     MW 2592   2.132   0.744   1.137  0.3873  0.0527  1.0919
  649SOL     OW 2593   2.298   2.737   1.295 -0.0559 -0.0100 -0.0180
  649SOL    HW1 2594   2.371   2.798   1.315  2.1307 -0.3454 -2.3777
  649SOL    HW2 2595   2.333   2.654   1.263  2.6198 -2.1949  0.5279
  649SOL     MW 2596   2.312   2.734   1.293  0.5856 -0.3425 -0.2573
  650SOL     OW 2597   2.793   0.188   0.665 -0.0528  0.6135 -0.5674
  650SOL    HW1 2598   2.788   0.283   0.659  0.5249  1.4775  0.1994
  650SOL    HW2 2599   2.872   0.161   0.617  0.5299 -2.2126  0.8704
  650SOL     MW 2600   2.802   0.197   0.658  0.1003  0.3546 -0.2765
  651SOL     OW 2601   2.996   0.410   0.774  0.4992 -0.1970  0.8470
  651SOL    HW1 2602   3.060   0.488   0.778  1.1219  0.5046  1.7458
  651SOL    HW2 2603   2.943   0.424   0.851 -0.8224  2.1756 -0.1405
  651SOL     MW 2604   2.998   0.422   0.785  0.4070  0.2086  0.8353
  652SOL     OW 2605   2.421   1.499   2.998  0.1440 -0.6408 -0.7316
  652SOL    HW1 2606   2.481   1.497   2.921  0.5363 -0.9645  0.6442
  652SOL    HW2 2607   2.365   1.571   2.980  0.0467  2.3980 -1.7404
  652SOL     MW 2608   2.422   1.508   2.986  0.1830 -0.2825 -0.6832
  653SOL     OW 2609   1.899   0.438   0.363 -0.1098 -0.3198  0.7595
  653SOL    HW1 2610   1.875   0.381   0.293 -2.5979  1.6915  0.1072
  653SOL    HW2 2611   1.997   0.437   0.364 -1.6913 -0.6062 -2.0601
  653SOL     MW 2612   1.909   0.430   0.354 -0.6468 -0.0922  0.3014
  654SOL     OW 2613   2.445   1.049   0.743 -0.6219 -0.1516 -0.3354
  654SOL    HW1 2614   2.359   1.041   0.702  0.4549  1.0893 -0.8440
  654SOL    HW2 2615   2.473   0.954   0.756 -1.1334 -1.0153  0.9518
  654SOL     MW 2616   2.437   1.036   0.739 -0.5473 -0.1019 -0.2327
  655SOL     OW 2617   2.941   0.884   0.391 -0.5466  0.1971  0.2173
  655SOL    HW1 2618   2.890   0.924   0.461 -2.7437 -0.6172 -1.7725
  655SOL    HW2 2619   2.933   0.787   0.407 -0.6273 -0.9301 -1.9084
  655SOL     MW 2620   2.933   0.877   0.402 -0.8472 -0.0590 -0.3257
  656SOL     OW 2621   1.900   2.749   1.285 -0.7490 -0.1065  0.5208
  656SOL    HW1 2622   1.887   2.822   1.339 -1.3187 -1.1410 -1.6951
  656SOL    HW2 2623   1.948   2.693   1.342  1.4104  0.5963  0.4950
  656SOL     MW 2624   1.904   2.751   1.300 -0.5393 -0.1503  0.2251
  657SOL     OW 2625   0.155   1.656   1.272 -0.1588  0.5252 -0.6210
  657SOL    HW1 2626   0.195   1.686   1.190  3.3436  2.3495 -0.1177
  657SOL    HW2 2627   0.141   1.560   1.266 -2.4760  1.0169  0.1130
  657SOL     MW 2628   0.158   1.647   1.260 -0.0025  0.8308 -0.4577
  658SOL     OW 2629   2.706   1.299   0.217  0.4392  0.0536  0.3418
  658SOL    HW1 2630   2.661   1.234   0.272  0.4505  0.5860 -1.6473
  658SOL    HW2 2631   2.732   1.364   0.283  0.8579 -0.9911 -0.8781
  658SOL     MW 2632   2.704   1.299   0.233  0.4960 -0.0140 -0.0816
  659SOL     OW 2633   2.272   1.480   1.075  0.0569  0.0466 -0.0960
  659SOL    HW1 2634   2.365   1.470   1.078 -1.9065 -1.4461  4.6492
  659SOL    HW2 2635   2.266   1.540   1.151 -0.0114 -1.1886  0.0270
  659SOL     MW 2636   2.284   1.487   1.086 -0.2112 -0.3133  0.5463
  660SOL     OW 2637   2.023   1.601   1.701  0.0800  0.0233  0.4222
  660SOL    HW1 2638   2.046   1.574   1.794 -3.4368 -2.1485  0.2570
  660SOL    HW2 2639   1.950   1.539   1.676  0.6709 -1.2024  0.1684
  660SOL     MW 2640   2.016   1.589   1.710 -0.3060 -0.4250  0.3669
  661SOL     OW 2641   2.374   1.009   0.232 -0.3434 -0.0329 -0.1455
  661SOL    HW1 2642   2.447   1.042   0.296 -0.2760  1.9655  3.2686
  661SOL    HW2 2643   2.380   0.913   0.237 -0.5366  0.2625  1.4699
  661SOL     MW 2644   2.384   1.001   0.241 -0.3600  0.2697  0.5181
  662SOL     OW 2645   2.593   2.986   0.870 -0.3374  0.0951 -0.5858
  662SOL    HW1 2646   2.536   3.051   0.898  0.0063 -0.2730 -0.8395
  662SOL    HW2 2647   2.615   3.006   0.778 -0.0554  2.8495 -0.2241
  662SOL     MW 2648   2.588   2.997   0.862 -0.2548  0.4099 -0.5715
  663SOL     OW 2649   2.766   1.487   0.408 -0.2162 -0.5175  1.0438
  663SOL    HW1 2650   2.687   1.552   0.412 -3.9053 -1.2433  0.4730
  663SOL    HW2 2651   2.801   1.478   0.499  0.2888 -1.1085  1.1689
  663SOL     MW 2652   2.760   1.495   0.420 -0.6363 -0.6913  0.9850
  664SOL     OW 2653   2.500   1.518   1.604 -0.3577  0.6437 -0.0926
  664SOL    HW1 2654   2.447   1.596   1.583  0.3991 -0.5003  0.9578
  664SOL    HW2 2655   2.440   1.452   1.637  2.3193 -1.2709 -1.8688
  664SOL     MW 2656   2.485   1.520   1.606  0.0954  0.2402 -0.1883
  665SOL     OW 2657   2.862   0.883   2.009 -0.1472  0.2585 -0.1290
  665SOL    HW1 2658   2.822   0.915   1.925 -0.9419 -0.3209  2.6458
  665SOL    HW2 2659   2.925   0.810   2.002 -2.0894  0.7114  1.1907
  665SOL     MW 2660   2.865   0.877   1.997 -0.5083  0.2418  0.4113
  666SOL     OW 2661   2.778   3.016   1.691 -0.4289  0.1734  0.2352
  666SOL    HW1 2662   2.809   3.055   1.609 -0.0172  0.6609  1.0325
  666SOL    HW2 2663   2.698   2.961   1.687  0.1265  1.7816  0.3569
  666SOL     MW 2664   2.771   3.014   1.680 -0.3013  0.4499  0.3565
  667SOL     OW 2665   1.976   2.643   1.712 -0.1100  0.2118  0.1320
  667SOL    HW1 2666   1.997   2.569   1.772  0.8119  0.6209  0.8151
  667SOL    HW2 2667   2.059   2.690   1.718  0.2293 -0.5989  2.7397
  667SOL     MW 2668   1.990   2.639   1.721  0.0564  0.1588  0.5662
  668SOL     OW 2669   2.739   0.624   0.789  0.5107  0.2734  0.1330
  668SOL    HW1 2670   2.807   0.640   0.852 -0.9048 -0.0032  2.5811
  668SOL    HW2 2671   2.681   0.696   0.794  0.1287 -4.0494  0.9920
  668SOL     MW 2672   2.741   0.636   0.798  0.2736 -0.3334  0.5694
  669SOL     OW 2673   0.242   0.936   0.678 -0.2480  0.2049  0.4596
  669SOL    HW1 2674   0.198   0.999   0.737  1.0967 -2.4170 -1.4827
  669SOL    HW2 2675   0.333   0.935   0.714  2.1195  1.8027  2.0740
  669SOL     MW 2676   0.248   0.944   0.691  0.2418  0.0698  0.4163
  670SOL     OW 2677   2.840   0.241   0.222  0.2280 -0.5661 -0.2862
  670SOL    HW1 2678   2.870   0.182   0.148  1.0513 -0.0882  0.4793
  670SOL    HW2 2679   2.841   0.331   0.187 -0.0756  0.4580  1.2977
  670SOL     MW 2680   2.844   0.245   0.208  0.2966 -0.3679  0.0238
  671SOL     OW 2681   2.083   2.930   1.485 -0.2417 -0.0062 -0.4469
  671SOL    HW1 2682   2.062   2.973   1.401 -1.6520  0.1944 -4.1278
  671SOL    HW2 2683   2.065   2.997   1.550 -0.3419 -1.7815  0.9572
  671SOL     MW 2684   2.078   2.945   1.482 -0.4410 -0.2139 -0.7473
  672SOL     OW 2685   1.893   1.680   1.370  0.2242 -0.3314  0.1566
  672SOL    HW1 2686   1.801   1.706   1.381 -1.7229 -3.0074  0.7630
  672SOL    HW2 2687   1.910   1.741   1.293 -1.5081 -0.5160  0.9923
  672SOL     MW 2688   1.883   1.691   1.361 -0.2613 -0.7088  0.3469
  673SOL     OW 2689   2.745   1.090   0.573  0.0214 -0.0216 -0.2982
  673SOL    HW1 2690   2.740   1.011   0.629 -0.3589 -0.9070  0.8218
  673SOL    HW2 2691   2.816   1.132   0.619 -0.7896 -2.4571 -0.3275
  673SOL     MW 2692   2.754   1.085   0.586 -0.1358 -0.4598 -0.1543
  674SOL     OW 2693   2.480   0.080   1.230 -0.7979 -0.2439  0.9589
  674SOL    HW1 2694   2.444   0.070   1.138 -0.2959 -0.0438  1.1062
  674SOL    HW2 2695   2.526  -0.004   1.251 -0.7508 -0.9073  1.1023
  674SOL     MW 2696   2.482   0.067   1.220 -0.7254 -0.3050  0.9973
  675SOL     OW 2697   3.027   0.873   1.065  0.0774  0.1187  0.1391
  675SOL    HW1 2698   3.094   0.881   1.128 -0.2117  1.8736 -1.8491
  675SOL    HW2 2699   3.059   0.944   1.012 -2.8361 -1.1128  0.8085
  675SOL     MW 2700   3.040   0.884   1.066 -0.3451  0.1878 -0.0349
  676SOL     OW 2701   2.851   1.470   1.675 -0.3147 -0.2875  0.2840
  676SOL    HW1 2702   2.812   1.383   1.654 -1.7370  2.4939  3.5826
  676SOL    HW2 2703   2.928   1.441   1.727 -0.3713  1.2133  2.3588
  676SOL     MW 2704   2.856   1.455   1.679 -0.5099  0.2775  0.9929
  677SOL     OW 2705   2.411   0.649   1.966  0.1108 -0.1647 -0.5406
  677SOL    HW1 2706   2.364   0.585   1.904  0.1064 -3.3739  3.2328
  677SOL    HW2 2707   2.351   0.700   2.025 -0.4999 -0.4634  2.5328
  677SOL     MW 2708   2.397   0.647   1.966  0.0297 -0.6276  0.3628
  678SOL     OW 2709   2.523   1.648   0.385 -0.2600  0.0558 -0.0470
  678SOL    HW1 2710   2.461   1.727   0.398 -1.4259  1.6150  0.0586
  678SOL    HW2 2711   2.492   1.611   0.298 -1.7689 -1.1955 -2.5664
  678SOL     MW 2712   2.511   1.653   0.375 -0.6129  0.0964 -0.3655
  679SOL     OW 2713   2.266   0.464   1.163 -0.1157 -0.1748 -0.0601
  679SOL    HW1 2714   2.188   0.412   1.154 -0.0495  0.0694  0.0758
  679SOL    HW2 2715   2.235   0.551   1.143 -0.4020 -0.5878 -0.8015
  679SOL     MW 2716   2.252   0.468   1.159 -0.1448 -0.1971 -0.1400
  680SOL     OW 2717   2.345   0.148   1.474 -0.1363 -0.3802  0.1088
  680SOL    HW1 2718   2.262   0.160   1.418  0.2806  0.8410  0.6000
  680SOL    HW2 2719   2.396   0.108   1.400  0.8191 -2.2661 -0.6409
  680SOL     MW 2720   2.341   0.144   1.457  0.0447 -0.4679  0.0747
  681SOL     OW 2721   0.346   0.567   1.558 -0.1381 -0.4980  0.5422
  681SOL    HW1 2722   0.319   0.486   1.599  1.2758  0.5053 -0.4091
  681SOL    HW2 2723   0.438   0.587   1.575  0.7315 -1.6679 -0.4789
  681SOL     MW 2724   0.355   0.559   1.565  0.1632 -0.5200  0.2820
  682SOL     OW 2725   0.083   2.916   1.483 -0.4666  0.2427 -0.0180
  682SOL    HW1 2726   0.080   3.010   1.444  1.1122  1.2438  0.5476
  682SOL    HW2 2727   0.027   2.909   1.559  1.6860  2.1946  0.7131
  682SOL     MW 2728   0.075   2.928   1.488  0.0257  0.6323  0.1531
  683SOL     OW 2729   2.065   0.888   3.011 -0.1417 -0.6603 -0.9070
  683SOL    HW1 2730   1.984   0.848   2.979  0.9622 -0.4116  0.6830
  683SOL    HW2 2731   2.042   0.973   3.049  1.7074 -1.5014 -1.1370
  683SOL     MW 2732   2.052   0.894   3.012  0.2479 -0.7385 -0.7275
  684SOL     OW 2733   2.210   1.718   0.916  0.2501 -0.2178 -0.1914
  684SOL    HW1 2734   2.118   1.700   0.922  1.6291 -0.0201 -3.4992
  684SOL    HW2 2735   2.241   1.651   0.968 -1.5976  0.0418  0.5345
  684SOL     MW 2736   2.202   1.707   0.924  0.1883 -0.1574 -0.5320
  685SOL     OW 2737   2.680   1.745   1.232  0.2459  0.2770 -0.1903
  685SOL    HW1 2738   2.727   1.692   1.300 -1.9346 -1.6685  0.2272
  685SOL    HW2 2739   2.644   1.676   1.175  0.2825  1.2923 -1.9437
  685SOL     MW 2740   2.681   1.729   1.234 -0.0370  0.1542 -0.3665
  686SOL     OW 2741   2.921   0.738   1.525  0.2814  0.0164 -0.0687
  686SOL    HW1 2742   2.952   0.677   1.594  1.1046  1.8920 -1.1248
  686SOL    HW2 2743   2.996   0.782   1.494 -1.7092 -1.0676  1.9287
  686SOL     MW 2744   2.935   0.736   1.530  0.1273  0.1209  0.0555
  687SOL     OW 2745   2.072   0.281   1.128 -0.2876 -0.2015  0.6150
  687SOL    HW1 2746   2.084   0.191   1.092 -0.7130  2.4623  0.6623
  687SOL    HW2 2747   2.006   0.313   1.069  3.3503 -2.0391 -2.3501
  687SOL     MW 2748   2.065   0.273   1.116  0.1362 -0.0925  0.2301
  688SOL     OW 2749   2.396   0.660   1.405  0.0714 -0.3648 -0.0775
  688SOL    HW1 2750   2.341   0.603   1.354 -0.0406  1.8883 -0.6772
  688SOL    HW2 2751   2.347   0.666   1.488 -0.1424 -3.1523 -2.7080
  688SOL     MW 2752   2.382   0.653   1.410  0.0284 -0.4353 -0.5037
  689SOL     OW 2753   2.539   0.737   3.000 -0.1065  0.5142  0.2078
  689SOL    HW1 2754   2.547   0.823   2.956 -1.1345 -2.6881 -1.0716
  689SOL    HW2 2755   2.597   0.732   3.082  1.3606 -1.7618 -1.4375
  689SOL     MW 2756   2.548   0.748   3.005 -0.0486 -0.2086 -0.1781
  690SOL     OW 2757   2.077   0.940   1.955  0.3533 -0.2177  0.1992
  690SOL    HW1 2758   2.008   0.880   1.982  0.4471 -0.8168 -1.2495
  690SOL    HW2 2759   2.087   0.933   1.861 -0.5800  0.0409  0.8136
  690SOL     MW 2760   2.069   0.931   1.946  0.2425 -0.2627  0.0891
  691SOL     OW 2761   2.441   0.263   0.823 -0.1352  0.4075  0.5867
  691SOL    HW1 2762   2.506   0.303   0.884 -0.6550  2.0367  1.3062
  691SOL    HW2 2763   2.349   0.300   0.842  1.5735  1.8201 -0.8186
  691SOL     MW 2764   2.438   0.273   0.834  0.0217  0.8088  0.4962
  692SOL     OW 2765   2.831   1.648   1.452  0.1625 -0.8887  0.1189
  692SOL    HW1 2766   2.834   1.595   1.533 -1.2490 -1.2454 -3.1309
  692SOL    HW2 2767   2.827   1.744   1.487 -0.8966  0.3927 -0.8049
  692SOL     MW 2768   2.831   1.654   1.468 -0.1635 -0.7667 -0.4317
  693SOL     OW 2769   2.327   0.493   0.076 -0.1133  0.5672 -0.5168
  693SOL    HW1 2770   2.269   0.420   0.058  0.1555  2.2321 -3.5430
  693SOL    HW2 2771   2.289   0.572   0.040  0.3797 -3.8298  2.9519
  693SOL     MW 2772   2.315   0.494   0.069 -0.0128  0.2068 -0.4584
  694SOL     OW 2773   1.925   1.213   1.085  0.3673 -0.1710 -0.3516
  694SOL    HW1 2774   2.012   1.187   1.126 -0.5191 -0.4363 -0.3187
  694SOL    HW2 2775   1.859   1.168   1.138  2.2721  0.5690  0.0586
  694SOL     MW 2776   1.928   1.203   1.097  0.5016 -0.1084 -0.2931
  695SOL     OW 2777   3.019   1.471   1.341 -0.3445  0.4155  0.8548
  695SOL    HW1 2778   3.003   1.454   1.248 -0.4084  1.8934 -1.0358
  695SOL    HW2 2779   2.959   1.529   1.376 -0.6356 -2.6002  0.6287
  695SOL     MW 2780   3.009   1.476   1.333 -0.3913  0.2126  0.5755
  696SOL     OW 2781   2.116   1.378   0.882 -0.0419 -0.0710  0.2074
  696SOL    HW1 2782   2.169   1.399   0.963  0.5103 -2.8851 -3.1847
  696SOL    HW2 2783   2.051   1.316   0.914 -0.1107 -0.4584 -0.0137
  696SOL     MW 2784   2.115   1.373   0.897  0.0219 -0.4934 -0.2693
  697SOL     OW 2785   2.922   1.104   2.160 -0.1244  0.2052 -0.2529
  697SOL    HW1 2786   2.861   1.171   2.178 -0.4295  3.3793 -0.9301
  697SOL    HW2 2787   2.872   1.033   2.113 -1.0852 -0.7138  0.4171
  697SOL     MW 2788   2.907   1.103   2.156 -0.2915  0.5027 -0.2539
  698SOL     OW 2789   2.555   0.312   0.038 -0.4609  0.0207 -0.2357
  698SOL    HW1 2790   2.485   0.377   0.060 -0.6378 -0.2890 -0.3116
  698SOL    HW2 2791   2.556   0.247   0.106  0.8824 -1.4905  1.8702
  698SOL     MW 2792   2.546   0.312   0.050 -0.3070 -0.2195  0.0321
  699SOL     OW 2793   1.826   1.666   1.991  0.3430 -0.1692 -0.2119
  699SOL    HW1 2794   1.812   1.579   2.011  1.4427  0.8658 -0.7019
  699SOL    HW2 2795   1.925   1.671   1.984  0.8180 -1.9242 -0.5559
  699SOL     MW 2796   1.837   1.656   1.993  0.5507 -0.2642 -0.3219
  700SOL     OW 2797   2.697   0.925   1.519 -0.1979  0.0385  0.1181
  700SOL    HW1 2798   2.759   0.978   1.471 -0.0459  1.2344 -0.1497
  700SOL    HW2 2799   2.724   0.834   1.522  1.4159  1.1354 -1.5836
  700SOL     MW 2800   2.709   0.920   1.513  0.0350  0.3410 -0.1418
  701SOL     OW 2801   1.591   1.240   2.512  0.0663 -0.4966 -0.2353
  701SOL    HW1 2802   1.679   1.269   2.487  0.5705 -0.7881 -2.6351
  701SOL    HW2 2803   1.582   1.255   2.608 -0.5190  0.0307 -1.0035
  701SOL     MW 2804   1.601   1.246   2.522  0.0556 -0.4654 -0.6533
  702SOL     OW 2805   2.211   0.387   0.868  0.3733  0.6897  0.2446
  702SOL    HW1 2806   2.180   0.315   0.804  0.7201 -0.1248 -0.3630
  702SOL    HW2 2807   2.249   0.458   0.811 -0.0670 -0.3523 -1.9516
  702SOL     MW 2808   2.212   0.387   0.852  0.3610  0.4448 -0.1253
  703SOL     OW 2809   2.747   1.249   1.016 -0.2213 -0.6142 -0.2650
  703SOL    HW1 2810   2.718   1.233   0.931  1.9367  0.4566 -1.0016
  703SOL    HW2 2811   2.766   1.167   1.058  0.4907  1.5948 -3.1023
  703SOL     MW 2812   2.746   1.236   1.010  0.1574 -0.1815 -0.7366
  704SOL     OW 2813   0.025   1.307   0.251  0.0857 -0.6434  0.3956
  704SOL    HW1 2814  -0.035   1.253   0.200 -1.4501 -1.4772  0.2581
  704SOL    HW2 2815   0.021   1.255   0.330 -1.7302  1.5823 -4.0951
  704SOL     MW 2816   0.017   1.293   0.255 -0.3565 -0.4598 -0.2151
  705SOL     OW 2817   2.226   1.617   1.324 -0.2017  0.3792  0.5947
  705SOL    HW1 2818   2.144   1.636   1.347  1.2275  0.9976 -1.0107
  705SOL    HW2 2819   2.236   1.526   1.346 -1.3364  1.2971 -0.6497
  705SOL     MW 2820   2.216   1.607   1.330 -0.1628  0.5819  0.2187
  706SOL     OW 2821   2.960   1.222   0.696  0.1660 -0.0573 -0.2908
  706SOL    HW1 2822   3.015   1.212   0.618 -2.5451 -0.6602  2.1246
  706SOL    HW2 2823   2.929   1.314   0.703  1.3597 -0.9290  0.8787
  706SOL     MW 2824   2.963   1.232   0.687 -0.0342 -0.2518  0.1822
  707SOL     OW 2825   2.385   0.047   0.984 -0.3013 -0.9062  0.2354
  707SOL    HW1 2826   2.429   0.116   0.934  1.3205  2.2323 -0.4303
  707SOL    HW2 2827   2.292   0.068   0.984 -0.9385 -0.1338 -0.2745
  707SOL     MW 2828   2.378   0.059   0.977 -0.1714 -0.3902  0.0803
  708SOL     OW 2829   2.568   1.534   0.130 -0.5013 -0.7644 -0.2684
  708SOL    HW1 2830   2.613   1.453   0.147  0.3910 -0.8647  0.1955
  708SOL    HW2 2831   2.498   1.500   0.078  0.9088  0.9329 -0.0815
  708SOL     MW 2832   2.565   1.519   0.125 -0.1975 -0.5537 -0.1826
  709SOL     OW 2833   1.721   1.715   0.121  0.2910 -0.0846 -0.3089
  709SOL    HW1 2834   1.672   1.696   0.043  2.2852 -1.3054  1.6040
  709SOL    HW2 2835   1.653   1.707   0.187 -2.4429  1.6606  0.5402
  709SOL     MW 2836   1.706   1.711   0.119  0.1934 -0.0154  0.0556
  710SOL     OW 2837   2.182   1.151   1.197  0.1243  0.6436  0.1440
  710SOL    HW1 2838   2.234   1.114   1.122 -4.7125 -0.4182 -1.7888
  710SOL    HW2 2839   2.190   1.079   1.262 -0.4106  0.2365  1.1194
  710SOL     MW 2840   2.190   1.137   1.195 -0.5844  0.4498  0.0177
  711SOL     OW 2841   2.350   0.131   1.755  0.4590 -0.3621  0.4537
  711SOL    HW1 2842   2.436   0.101   1.784 -0.8850  2.5602  0.0383
  711SOL    HW2 2843   2.364   0.162   1.660 -2.0310  2.0079  1.0075
  711SOL     MW 2844   2.363   0.131   1.746 -0.0468  0.3362  0.4719
  712SOL     OW 2845   1.897   0.567   3.076  0.0025 -0.4832  0.1676
  712SOL    HW1 2846   1.882   0.637   3.006  0.9194 -1.8653 -1.5641
  712SOL    HW2 2847   1.903   0.619   3.154  0.3024  2.7414  2.1079
  712SOL     MW 2848   1.896   0.583   3.077  0.1630 -0.2401  0.1951
  713SOL     OW 2849   2.566   0.818   1.106  0.5044  0.3090  0.2603
  713SOL    HW1 2850   2.598   0.741   1.149 -0.0040  1.7502 -2.0346
  713SOL    HW2 2851   2.519   0.863   1.183  0.1106 -2.0102  1.0302
  713SOL     MW 2852   2.564   0.814   1.122  0.3853  0.1931  0.0591
  714SOL     OW 2853   2.173   0.209   1.963  0.6287  0.0182 -0.0596
  714SOL    HW1 2854   2.205   0.180   2.058 -0.2716  1.2770 -0.3005
  714SOL    HW2 2855   2.248   0.216   1.900  0.9697  2.8598  0.0081
  714SOL     MW 2856   2.187   0.206   1.968  0.5549  0.5592 -0.0825
  715SOL     OW 2857   1.714   1.919   1.681 -0.0076  0.6608 -0.1035
  715SOL    HW1 2858   1.805   1.926   1.651 -3.3442 -0.1421 -0.2440
  715SOL    HW2 2859   1.703   1.830   1.719 -3.9343  1.1909  3.2622
  715SOL     MW 2860   1.725   1.908   1.682 -0.9659  0.6248  0.3220
  716SOL     OW 2861   2.350   0.596   0.734 -0.5456  0.4518 -0.5715
  716SOL    HW1 2862   2.419   0.539   0.700  0.0826 -0.6218  0.8521
  716SOL    HW2 2863   2.288   0.614   0.660 -1.6854 -0.8570 -1.4890
  716SOL     MW 2864   2.351   0.591   0.720 -0.6131  0.1375 -0.5047
  717SOL     OW 2865   2.886   1.436   2.911  0.2757  0.4088  0.1426
  717SOL    HW1 2866   2.975   1.452   2.941 -1.6776  1.9282  0.1865
  717SOL    HW2 2867   2.832   1.492   2.970 -0.5980  3.5349 -0.2441
  717SOL     MW 2868   2.891   1.445   2.923 -0.0973  1.0217  0.0974
  718SOL     OW 2869   2.546   1.369   1.347  0.7901 -0.3389  0.2515
  718SOL    HW1 2870   2.568   1.410   1.433 -2.5418 -0.7680 -2.2566
  718SOL    HW2 2871   2.608   1.298   1.346 -0.8334  0.5205  1.1968
  718SOL     MW 2872   2.557   1.365   1.358  0.1363 -0.2821  0.0453
  719SOL     OW 2873   2.226   1.316   0.634  0.0047  0.2638  0.0105
  719SOL    HW1 2874   2.313   1.356   0.634  1.5273  0.0169 -0.7056
  719SOL    HW2 2875   2.180   1.334   0.716  2.2330  1.0782 -0.4489
  719SOL     MW 2876   2.231   1.324   0.645  0.4996  0.3387 -0.1446
  720SOL     OW 2877   2.924   1.167   0.106 -0.2677 -0.0759 -0.4039
  720SOL    HW1 2878   2.873   1.090   0.130 -2.8587  0.6394  1.0552
  720SOL    HW2 2879   2.877   1.244   0.155  1.7569  2.5324  1.4574
  720SOL     MW 2880   2.911   1.167   0.116 -0.3425  0.3626  0.0342
  721SOL     OW 2881   2.489   0.890   1.351 -0.7338  0.4842 -0.2563
  721SOL    HW1 2882   2.463   0.799   1.378  0.8312 -0.5032 -0.8241
  721SOL    HW2 2883   2.548   0.919   1.429 -0.3365 -2.3082  0.0938
  721SOL     MW 2884   2.493   0.882   1.365 -0.4749 -0.0145 -0.2850
  722SOL     OW 2885   2.566   1.120   0.374  0.5358  0.1380  0.2888
  722SOL    HW1 2886   2.548   1.203   0.423  2.5964  0.1178 -1.2341
  722SOL    HW2 2887   2.629   1.074   0.438  2.5611 -0.7671  3.5196
  722SOL     MW 2888   2.572   1.125   0.388  1.0749  0.0159  0.5142
  723SOL     OW 2889   2.233   1.405   1.658  0.5200  0.2059 -0.6135
  723SOL    HW1 2890   2.202   1.376   1.572 -1.5885  0.5696 -1.9885
  723SOL    HW2 2891   2.168   1.471   1.682  0.6963 -0.1804  1.8721
  723SOL     MW 2892   2.220   1.410   1.650  0.2651  0.2029 -0.4669
  724SOL     OW 2893   2.524   0.421   0.611 -0.4646  0.0923  0.5448
  724SOL    HW1 2894   2.488   0.342   0.655 -0.4080  0.9284 -0.4644
  724SOL    HW2 2895   2.616   0.405   0.590 -1.7898 -1.6110  0.2084
  724SOL     MW 2896   2.531   0.408   0.614 -0.6320 -0.0221  0.3672
  725SOL     OW 2897   2.539   0.517   1.142 -0.6158 -0.5877  0.0497
  725SOL    HW1 2898   2.564   0.528   1.237  1.8270  2.3100  2.6183
  725SOL    HW2 2899   2.445   0.512   1.136  1.7207  2.4563  1.5383
  725SOL     MW 2900   2.530   0.518   1.154  0.0148  0.1963  0.5850
  726SOL     OW 2901   2.570   2.457   0.563  0.4876  0.0116 -0.1557
  726SOL    HW1 2902   2.503   2.507   0.513  1.0148  1.1717  0.0902
  726SOL    HW2 2903   2.514   2.391   0.612 -3.4787  0.6186  1.3736
  726SOL     MW 2904   2.554   2.455   0.563  0.0338  0.2447  0.0785
  727SOL     OW 2905   2.922   0.270   1.577 -0.6692  0.5021  0.4765
  727SOL    HW1 2906   2.939   0.275   1.485  0.7042 -2.1552  3.2994
  727SOL    HW2 2907   2.828   0.269   1.579  0.0841 -0.5564  0.3037
  727SOL     MW 2908   2.912   0.271   1.565 -0.3886  0.0119  0.8262
  728SOL     OW 2909   2.832   1.139   2.933  0.2922 -0.5394 -0.5824
  728SOL    HW1 2910   2.843   1.229   2.898  0.5622  1.3657 -0.0382
  728SOL    HW2 2911   2.855   1.144   3.027 -2.5382 -0.3684  0.5443
  728SOL     MW 2912   2.837   1.152   2.941 -0.0456 -0.2655 -0.3620
  729SOL     OW 2913   2.545   1.541   1.091 -0.1937  0.0936 -0.9685
  729SOL    HW1 2914   2.565   1.476   1.157 -0.2885  0.7793 -0.4426
  729SOL    HW2 2915   2.585   1.522   1.008 -1.0115  0.3263  3.1021
  729SOL     MW 2916   2.553   1.530   1.089 -0.3141  0.2148 -0.3620
  730SOL     OW 2917   2.140   1.139   0.233  0.0753  0.7874 -0.3089
  730SOL    HW1 2918   2.229   1.106   0.246  0.3102 -2.4143 -3.8840
  730SOL    HW2 2919   2.148   1.235   0.227  0.8626  0.5524 -2.1905
  730SOL     MW 2920   2.153   1.147   0.234  0.2101  0.3340 -1.0288
  731SOL     OW 2921   2.854   1.869   2.879  0.0064  0.5502 -0.2668
  731SOL    HW1 2922   2.786   1.898   2.809  2.4937 -0.2621  2.7852
  731SOL    HW2 2923   2.910   1.949   2.875 -0.0994 -0.1115 -3.3349
  731SOL     MW 2924   2.852   1.883   2.869  0.3206  0.3557 -0.2689
  732SOL     OW 2925   2.205   0.943   1.337 -0.4285 -0.2069  0.9226
  732SOL    HW1 2926   2.178   0.948   1.430 -4.1401 -0.6152 -0.1803
  732SOL    HW2 2927   2.299   0.933   1.336  0.2461  2.3003 -0.6525
  732SOL     MW 2928   2.214   0.942   1.349 -0.8292  0.0700  0.5693
  733SOL     OW 2929   2.329   2.798   3.009 -0.7544 -0.1731 -0.0779
  733SOL    HW1 2930   2.251   2.855   3.028  0.4111 -0.1512  1.8707
  733SOL    HW2 2931   2.303   2.703   3.012  0.0355 -1.4039 -0.4624
  733SOL     MW 2932   2.315   2.793   3.012 -0.4964 -0.3326  0.1285
  734SOL     OW 2933   1.490   0.356   2.463 -0.0408  0.1823 -0.3803
  734SOL    HW1 2934   1.447   0.318   2.537 -1.5200 -1.6900 -0.5708
  734SOL    HW2 2935   1.511   0.279   2.403 -2.6470  0.8149 -1.5513
  734SOL     MW 2936   1.487   0.341   2.465 -0.5798  0.0187 -0.5599
  735SOL     OW 2937   2.977   0.950   2.587 -0.2870  0.1536  0.4200
  735SOL    HW1 2938   2.967   0.851   2.595  1.2716 -0.2250  1.3247
  735SOL    HW2 2939   3.012   0.974   2.671 -4.8409 -0.5060  1.7390
  735SOL     MW 2940   2.980   0.940   2.599 -0.6822  0.0167  0.7134
  736SOL     OW 2941   0.104   0.615   2.569  0.7418 -0.5453  0.2560
  736SOL    HW1 2942   0.152   0.668   2.508  1.5006 -0.8762 -1.7721
  736SOL    HW2 2943   0.086   0.536   2.513 -0.0250  1.3446 -0.7309
  736SOL     MW 2944   0.108   0.611   2.553  0.7407 -0.3396 -0.1418
  737SOL     OW 2945   2.935   0.678   2.615 -0.3060 -0.1569  0.3532
  737SOL    HW1 2946   2.886   0.659   2.533  0.5945 -1.5560  0.2847
  737SOL    HW2 2947   3.028   0.657   2.595 -0.9049 -2.1744  1.0325
  737SOL     MW 2948   2.941   0.673   2.601 -0.2662 -0.6077  0.4338
  738SOL     OW 2949   0.218   0.517   1.921  1.0917  0.0570 -0.7059
  738SOL    HW1 2950   0.310   0.553   1.914 -1.0445  1.3341  0.3851
  738SOL    HW2 2951   0.207   0.460   1.841 -2.9040 -2.3766 -1.8648
  738SOL     MW 2952   0.229   0.514   1.909  0.2827 -0.0956 -0.7149
  739SOL     OW 2953   2.465   1.028   2.128 -0.4112  0.6768  0.1089
  739SOL    HW1 2954   2.377   0.994   2.111  0.3662 -0.7956 -2.1719
  739SOL    HW2 2955   2.488   1.082   2.052 -1.3809 -0.0777  0.1426
  739SOL     MW 2956   2.457   1.030   2.116 -0.4366  0.3830 -0.1876
  740SOL     OW 2957   0.180   1.772   2.967  0.5807  0.4728  0.1055
  740SOL    HW1 2958   0.122   1.700   2.938 -1.6726 -0.2895 -0.0632
  740SOL    HW2 2959   0.262   1.739   3.008 -0.3877  0.5370  3.2131
  740SOL     MW 2960   0.183   1.758   2.968  0.1557  0.3807  0.4933
  741SOL     OW 2961   2.271   1.281   2.719 -0.2066  0.3592 -0.1625
  741SOL    HW1 2962   2.218   1.325   2.652  3.5419 -0.2861 -1.4616
  741SOL    HW2 2963   2.219   1.281   2.801  0.3070  1.7074  0.5405
  741SOL     MW 2964   2.257   1.287   2.721  0.3557  0.4519 -0.2411
  742SOL     OW 2965   1.578   1.331   2.219 -0.2292 -0.1436 -0.1368
  742SOL    HW1 2966   1.552   1.241   2.199 -0.1115 -0.2726  0.4036
  742SOL    HW2 2967   1.558   1.341   2.310  0.2447 -1.8031 -1.8780
  742SOL     MW 2968   1.572   1.320   2.228 -0.1512 -0.3796 -0.2952
  743SOL     OW 2969   2.530   1.225   2.779  0.5462 -0.2269  0.5750
  743SOL    HW1 2970   2.445   1.250   2.749 -2.2187  0.5668 -0.9638
  743SOL    HW2 2971   2.532   1.129   2.776 -0.4662  2.7170 -0.9693
  743SOL     MW 2972   2.519   1.216   2.775  0.0478  0.2662  0.1682
  744SOL     OW 2973   2.749   0.979   1.790 -0.0401  0.1742 -0.5164
  744SOL    HW1 2974   2.664   1.011   1.823  0.3177  0.5382  0.5866
  744SOL    HW2 2975   2.737   0.951   1.693 -0.5483  0.4785 -0.5226
  744SOL     MW 2976   2.736   0.979   1.782 -0.0599  0.2624 -0.3717
  745SOL     OW 2977   1.783   0.420   2.499  0.5255  0.0056  0.1444
  745SOL    HW1 2978   1.804   0.427   2.403  2.9246  1.0195 -0.0697
  745SOL    HW2 2979   1.687   0.406   2.502 -1.9679  1.1568 -1.7009
  745SOL     MW 2980   1.773   0.419   2.487  0.5130  0.2913 -0.1273
  746SOL     OW 2981   1.499   1.472   1.710  0.0353  0.0537  0.1939
  746SOL    HW1 2982   1.555   1.548   1.733  1.4992 -0.1375  1.1740
  746SOL    HW2 2983   1.534   1.400   1.762  0.2419  0.8884 -2.0869
  746SOL     MW 2984   1.511   1.472   1.720  0.2557  0.1386  0.0223
  747SOL     OW 2985   2.554   1.168   1.915 -0.3263 -0.3381 -0.4105
  747SOL    HW1 2986   2.493   1.166   1.841  0.9989 -2.1098  2.3355
  747SOL    HW2 2987   2.535   1.252   1.957 -0.5675 -0.5403 -0.2618
  747SOL     MW 2988   2.543   1.179   1.910 -0.1833 -0.5985 -0.0286
  748SOL     OW 2989   0.090   3.089   1.861  0.1356  0.4473  0.5219
  748SOL    HW1 2990   0.186   3.093   1.876  1.9230 -3.0310  1.1268
  748SOL    HW2 2991   0.057   3.135   1.942  1.9686  1.7427  2.6571
  748SOL     MW 2992   0.098   3.096   1.874  0.6133  0.1593  0.8834
  749SOL     OW 2993   2.405   0.544   2.758  0.0200 -0.4181  0.0446
  749SOL    HW1 2994   2.427   0.628   2.721  1.2272  0.3792 -2.0915
  749SOL    HW2 2995   2.410   0.552   2.855 -0.0987 -0.7325 -3.2705
  749SOL     MW 2996   2.409   0.556   2.766  0.1636 -0.3544 -0.6747
  750SOL     OW 2997   2.056   3.073   1.959 -0.4067  0.4344  0.1971
  750SOL    HW1 2998   2.101   3.159   1.971  1.0576 -2.0999  0.2632
  750SOL    HW2 2999   2.125   3.011   1.951  1.1063 -1.1805  0.0397
  750SOL     MW 3000   2.071   3.076   1.959 -0.0139 -0.1131  0.1851
  751SOL     OW 3001   0.027   0.408   2.386 -0.2737  0.6065 -0.6455
  751SOL    HW1 3002  -0.050   0.346   2.386 -1.4763 -0.7724  1.0902
  751SOL    HW2 3003   0.078   0.383   2.310  1.5066  0.8939 -0.0405
  751SOL     MW 3004   0.024   0.397   2.376 -0.1975  0.4625 -0.3367
  752SOL     OW 3005   2.136   0.888   2.748 -0.2960 -0.4229  0.3128
  752SOL    HW1 3006   2.190   0.962   2.714 -2.2952  0.8507 -1.3320
  752SOL    HW2 3007   2.131   0.902   2.844 -0.2611  0.9831  1.1354
  752SOL     MW 3008   2.143   0.900   2.756 -0.5552 -0.0693  0.2043
  753SOL     OW 3009   2.852   0.363   2.344  0.3935 -0.3517  0.0560
  753SOL    HW1 3010   2.783   0.295   2.326 -0.9250  0.8571  1.9007
  753SOL    HW2 3011   2.811   0.447   2.362 -2.2180 -2.7673 -1.3080
  753SOL     MW 3012   2.837   0.365   2.344 -0.1250 -0.5109  0.1195
  754SOL     OW 3013   2.205   3.021   2.623 -0.0193 -0.3573  0.8003
  754SOL    HW1 3014   2.219   3.015   2.527  0.7092 -0.1181  1.8947
  754SOL    HW2 3015   2.270   2.966   2.664  0.4551  1.4811  1.8653
  754SOL     MW 3016   2.216   3.013   2.616  0.1394 -0.0832  1.0852
  755SOL     OW 3017   2.758   1.596   2.493 -0.9556  0.2656  0.0184
  755SOL    HW1 3018   2.746   1.501   2.495  1.1188 -0.3094 -1.6545
  755SOL    HW2 3019   2.801   1.613   2.576 -2.2815  1.4475 -1.5380
  755SOL     MW 3020   2.762   1.586   2.504 -0.8568  0.3457 -0.4077
  756SOL     OW 3021   2.225   1.270   2.990  0.3214  0.5569  0.5351
  756SOL    HW1 3022   2.295   1.327   3.009  1.5721 -2.8008 -1.5712
  756SOL    HW2 3023   2.258   1.178   3.007  0.5716  1.4921  0.1127
  756SOL     MW 3024   2.238   1.265   2.995  0.5194  0.2373  0.2015
  757SOL     OW 3025   2.132   0.972   1.630 -0.5750 -0.1145 -0.2292
  757SOL    HW1 3026   2.143   0.878   1.619  0.1830  0.6240  0.1376
  757SOL    HW2 3027   2.048   1.000   1.597 -1.5799  0.9667  2.1829
  757SOL     MW 3028   2.122   0.963   1.624 -0.6076  0.1256  0.1375
  758SOL     OW 3029   2.239   1.748   2.667 -0.3197  0.5323 -0.0598
  758SOL    HW1 3030   2.223   1.764   2.578  1.1466  2.2570  2.2061
  758SOL    HW2 3031   2.336   1.733   2.663 -0.1480  1.6965 -1.7025
  758SOL     MW 3032   2.249   1.748   2.655 -0.1036  0.9134  0.0224
  759SOL     OW 3033   1.560   1.382   2.760  0.0893 -0.6426 -0.5270
  759SOL    HW1 3034   1.584   1.451   2.693  2.9305 -0.7083 -3.3647
  759SOL    HW2 3035   1.552   1.420   2.844  0.4927  3.2900 -0.5702
  759SOL     MW 3036   1.562   1.396   2.762  0.5174 -0.1324 -0.9071
  760SOL     OW 3037   2.678   1.977   2.682  0.3729 -0.3243  0.1252
  760SOL    HW1 3038   2.638   1.893   2.665 -0.1162 -2.8097  2.0168
  760SOL    HW2 3039   2.740   1.987   2.607  0.0719  2.2548  1.9285
  760SOL     MW 3040   2.681   1.967   2.670  0.2686 -0.3119  0.6127
  761SOL     OW 3041   2.112   0.416   2.447 -0.0673  0.8781 -0.6170
  761SOL    HW1 3042   2.063   0.335   2.431 -0.0302 -3.4961 -4.0481
  761SOL    HW2 3043   2.099   0.445   2.536  0.5982  2.2922  1.2025
  761SOL     MW 3044   2.104   0.409   2.457  0.0254  0.4875 -0.8296
  762SOL     OW 3045   0.008   0.164   2.063 -0.6790  0.2581 -0.0475
  762SOL    HW1 3046  -0.027   0.121   2.142  0.4865 -2.9334  0.0011
  762SOL    HW2 3047  -0.030   0.253   2.061  0.7397  0.9809 -0.6953
  762SOL     MW 3048  -0.002   0.170   2.073 -0.3381 -0.0676 -0.1265
  763SOL     OW 3049   2.425   1.166   2.352 -0.3929 -0.4217  0.2069
  763SOL    HW1 3050   2.459   1.103   2.281  1.0835 -0.7360  1.1645
  763SOL    HW2 3051   2.495   1.232   2.378 -0.7930 -0.3122  0.2504
  763SOL     MW 3052   2.439   1.166   2.346 -0.2509 -0.4488  0.3390
  764SOL     OW 3053   0.321   0.172   2.817  0.1731  0.0702  0.2242
  764SOL    HW1 3054   0.277   0.233   2.754 -0.2549 -0.2217  1.4422
  764SOL    HW2 3055   0.339   0.231   2.891  2.2369  1.0823 -0.9940
  764SOL     MW 3056   0.318   0.188   2.819  0.3889  0.1652  0.2242
  765SOL     OW 3057   2.697   0.151   2.322 -0.3029 -0.4649 -0.0859
  765SOL    HW1 3058   2.621   0.133   2.272 -0.4754 -1.3394 -0.9734
  765SOL    HW2 3059   2.744   0.066   2.320 -3.1147 -1.7987  0.3117
  765SOL     MW 3060   2.693   0.137   2.315 -0.6966 -0.7562 -0.1505
  766SOL     OW 3061   1.853   3.008   2.134 -0.3467 -0.0490  0.8716
  766SOL    HW1 3062   1.905   3.047   2.060 -1.9467  0.2604 -1.0053
  766SOL    HW2 3063   1.785   2.965   2.076  0.0147 -0.1635 -1.2748
  766SOL     MW 3064   1.851   3.007   2.116 -0.5101 -0.0233  0.3408
  767SOL     OW 3065   2.677   0.600   1.856  0.0656 -0.3499 -0.1401
  767SOL    HW1 3066   2.683   0.682   1.910  2.5708  1.1641  0.7138
  767SOL    HW2 3067   2.583   0.583   1.870 -1.0595  0.4371 -0.1126
  767SOL     MW 3068   2.666   0.609   1.865  0.2477 -0.0463 -0.0238
  768SOL     OW 3069   0.046   1.524   2.918  0.3820 -0.0609  0.6358
  768SOL    HW1 3070   0.076   1.471   2.992  1.1150 -1.1283  0.1611
  768SOL    HW2 3071   0.078   1.472   2.840 -0.3158 -0.5972 -1.0285
  768SOL     MW 3072   0.054   1.510   2.917  0.3867 -0.2725  0.3536
  769SOL     OW 3073   2.359   0.655   2.408  0.6290 -0.0303 -0.7933
  769SOL    HW1 3074   2.300   0.579   2.387 -3.7591 -0.7734 -0.9461
  769SOL    HW2 3075   2.422   0.648   2.334 -0.2832 -1.1649 -0.7556
  769SOL     MW 3076   2.360   0.644   2.395 -0.0703 -0.2780 -0.8085
  770SOL     OW 3077   0.035   1.628   2.567 -0.3522  0.3564 -0.1915
  770SOL    HW1 3078  -0.063   1.618   2.579 -0.1178 -0.3545  0.6200
  770SOL    HW2 3079   0.067   1.546   2.611  0.0199 -0.6160 -2.0960
  770SOL     MW 3080   0.026   1.616   2.575 -0.2721  0.1343 -0.3357
  771SOL     OW 3081   3.063   0.629   1.977  0.5280  0.3867 -0.1822
  771SOL    HW1 3082   3.020   0.587   1.898  0.7534 -1.4682 -1.5545
  771SOL    HW2 3083   3.147   0.591   1.983 -3.6100 -1.5963 -1.1186
  771SOL     MW 3084   3.068   0.619   1.967  0.0118 -0.1197 -0.4868
  772SOL     OW 3085   0.020   0.026   2.323 -0.0641  0.4303 -0.8929
  772SOL    HW1 3086  -0.071   0.008   2.327  1.0868  1.2745  0.8724
  772SOL    HW2 3087   0.066  -0.049   2.276  0.3506 -0.7600 -1.3229
  772SOL     MW 3088   0.014   0.013   2.317  0.1425  0.3846 -0.7167
  773SOL     OW 3089   2.418   2.902   2.755 -0.1339  0.0364 -0.0041
  773SOL    HW1 3090   2.428   2.816   2.720  0.2796 -1.6201  0.6791
  773SOL    HW2 3091   2.400   2.881   2.845 -0.3540 -0.5631 -1.3558
  773SOL     MW 3092   2.417   2.888   2.762 -0.1084 -0.2612 -0.0923
  774SOL     OW 3093   2.317   1.179   1.783  0.2715 -0.1325 -0.0574
  774SOL    HW1 3094   2.313   1.261   1.732 -0.4058  0.9736  2.5523
  774SOL    HW2 3095   2.283   1.108   1.721 -0.7281 -2.8016 -1.1876
  774SOL     MW 3096   2.312   1.180   1.768  0.0503 -0.3387  0.1378
  775SOL     OW 3097   2.302   2.983   2.359 -0.4278  0.3643 -0.0415
  775SOL    HW1 3098   2.287   3.062   2.309 -4.8945 -0.4711  1.1976
  775SOL    HW2 3099   2.383   2.939   2.332 -0.5135 -0.0209 -0.2080
  775SOL     MW 3100   2.311   2.988   2.349 -1.0284  0.2033  0.1001
  776SOL     OW 3101   0.141   1.492   0.088  0.3344 -0.1007 -0.0276
  776SOL    HW1 3102   0.233   1.474   0.096 -0.0610  2.1819 -1.2023
  776SOL    HW2 3103   0.095   1.424   0.133 -1.8464 -0.6407 -1.8334
  776SOL     MW 3104   0.147   1.481   0.095 -0.0055  0.1292 -0.4209
  777SOL     OW 3105   3.010   1.098   1.718  0.1613 -0.3845 -0.3600
  777SOL    HW1 3106   2.998   1.140   1.632 -0.9194  2.1204  0.6040
  777SOL    HW2 3107   2.924   1.075   1.753 -2.4179 -2.3012  1.0644
  777SOL     MW 3108   2.997   1.101   1.712 -0.3216 -0.3069 -0.0449
  778SOL     OW 3109   2.832   0.433   2.760 -0.4280  0.0409 -0.1041
  778SOL    HW1 3110   2.792   0.444   2.850  1.2200  1.4122  0.4273
  778SOL    HW2 3111   2.832   0.523   2.719 -1.8713  2.6364 -3.0755
  778SOL     MW 3112   2.827   0.447   2.767 -0.4010  0.5643 -0.4260
  779SOL     OW 3113   2.166   0.545   2.205 -0.9460 -0.2180  0.6984
  779SOL    HW1 3114   2.190   0.640   2.193 -0.9583  1.9611 -0.0922
  779SOL    HW2 3115   2.101   0.538   2.270  1.2632  1.6550 -0.7261
  779SOL     MW 3116   2.161   0.556   2.212 -0.6561  0.3166  0.4061
  780SOL     OW 3117   0.103   0.287   2.672 -0.1790 -0.3007  0.0767
  780SOL    HW1 3118   0.084   0.340   2.749 -1.5256 -1.6239  2.6775
  780SOL    HW2 3119   0.018   0.265   2.634 -3.1002 -0.1232  2.1506
  780SOL     MW 3120   0.089   0.291   2.677 -0.7421 -0.4518  0.6935
  781SOL     OW 3121   3.055   1.303   2.484  0.1510  0.2217  0.6351
  781SOL    HW1 3122   3.035   1.366   2.414  1.2058  0.0390  0.3507
  781SOL    HW2 3123   3.079   1.221   2.442  0.7263 -0.5155  2.7144
  781SOL     MW 3124   3.055   1.300   2.469  0.3661  0.1003  0.8719
  782SOL     OW 3125   0.670   1.567   3.082  0.3424 -0.7255 -0.4542
  782SOL    HW1 3126   0.582   1.569   3.048  2.0220 -2.1432 -0.0108
  782SOL    HW2 3127   0.670   1.643   3.146  1.9032 -1.6991 -1.2479
  782SOL     MW 3128   0.659   1.577   3.086  0.7699 -1.0410 -0.5004
  783SOL     OW 3129   2.721   0.590   2.419 -0.0574 -0.8877 -0.2817
  783SOL    HW1 3130   2.660   0.622   2.350 -0.5962 -0.6299  0.0820
  783SOL    HW2 3131   2.671   0.532   2.479  2.4559  0.7304  0.7109
  783SOL     MW 3132   2.707   0.587   2.418  0.2031 -0.6402 -0.1027
  784SOL     OW 3133   0.136   0.827   2.811  0.4133  0.0439 -0.0427
  784SOL    HW1 3134   0.050   0.876   2.805  1.4975  0.6188  0.6152
  784SOL    HW2 3135   0.192   0.863   2.740  1.2468 -0.2747 -0.5159
  784SOL     MW 3136   0.132   0.838   2.801  0.6663  0.0777 -0.0183
  785SOL     OW 3137   0.420   0.504   2.180  0.3971  0.4809  0.1297
  785SOL    HW1 3138   0.425   0.555   2.097 -0.3879 -2.5382 -0.5049
  785SOL    HW2 3139   0.343   0.444   2.174 -1.2731  1.7088  0.1677
  785SOL     MW 3140   0.411   0.503   2.168  0.0732  0.2446  0.0510
  786SOL     OW 3141   1.944   0.340   2.960  0.8662 -0.4989  0.1630
  786SOL    HW1 3142   1.920   0.428   2.996  4.2435 -2.3132 -0.3420
  786SOL    HW2 3143   2.006   0.358   2.885 -2.6382 -1.5473 -1.2752
  786SOL     MW 3144   1.949   0.354   2.955  0.8494 -0.8766 -0.0934
  787SOL     OW 3145   2.455   0.164   2.942 -0.0603  0.3060  0.1894
  787SOL    HW1 3146   2.517   0.095   2.907 -0.4192  2.3886  0.7098
  787SOL    HW2 3147   2.509   0.230   2.982 -1.1955 -2.4693 -1.1937
  787SOL     MW 3148   2.470   0.164   2.942 -0.2574  0.2146  0.0756
  788SOL     OW 3149   2.839   3.009   2.340 -0.4151  0.1481 -0.1314
  788SOL    HW1 3150   2.875   2.998   2.427 -1.7104 -0.7196 -2.3766
  788SOL    HW2 3151   2.875   2.930   2.297  1.2144 -2.3071 -1.4887
  788SOL     MW 3152   2.848   2.997   2.346 -0.3710 -0.2903 -0.6067
  789SOL     OW 3153   0.082   0.171   3.040  0.3445 -0.3689  0.4513
  789SOL    HW1 3154   0.007   0.131   3.089 -2.1824 -2.7921 -1.8939
  789SOL    HW2 3155   0.032   0.214   2.971 -0.3493 -1.7248  0.1906
  789SOL     MW 3156   0.065   0.171   3.037 -0.0804 -0.8675  0.1075
  790SOL     OW 3157   3.104   1.068   2.362  0.5995  0.1459  0.1454
  790SOL    HW1 3158   3.046   1.022   2.416  1.1209  1.3456 -0.5619
  790SOL    HW2 3159   3.067   1.076   2.276  1.3440  1.4971 -0.6573
  790SOL     MW 3160   3.092   1.063   2.358  0.7665  0.4825 -0.0538
  791SOL     OW 3161   2.588   0.405   2.613 -0.4970  0.0246  0.2789
  791SOL    HW1 3162   2.525   0.438   2.675 -1.0035 -1.5282 -0.4849
  791SOL    HW2 3163   2.678   0.408   2.656  3.2131  1.6983  1.8268
  791SOL     MW 3164   2.591   0.410   2.627 -0.0743  0.0406  0.3824
  792SOL     OW 3165   2.355   0.283   2.417  0.1281  0.7575 -0.0282
  792SOL    HW1 3166   2.273   0.335   2.435  3.0238  1.1291  0.5797
  792SOL    HW2 3167   2.374   0.275   2.511 -1.3909 -0.8235 -0.6489
  792SOL     MW 3168   2.347   0.288   2.432  0.3098  0.5979 -0.0299
  793SOL     OW 3169   1.938   1.182   1.933 -0.2438 -0.1881  0.4346
  793SOL    HW1 3170   1.891   1.175   1.841 -1.8926  1.3577 -0.9207
  793SOL    HW2 3171   2.003   1.113   1.936 -0.8435 -0.3807  2.2607
  793SOL     MW 3172   1.941   1.172   1.921 -0.5405 -0.0096  0.4967
  794SOL     OW 3173   1.388   2.343   0.126  0.0670 -0.5957 -0.1599
  794SOL    HW1 3174   1.417   2.367   0.033  0.0505  1.2361  3.1996
  794SOL    HW2 3175   1.460   2.363   0.187 -1.7164 -1.6304  0.7369
  794SOL     MW 3176   1.401   2.349   0.122 -0.1705 -0.4905  0.4017
  795SOL     OW 3177   2.344   1.046   2.612  0.4930 -0.4028  0.1816
  795SOL    HW1 3178   2.313   1.137   2.650 -0.5943  2.7533 -0.3073
  795SOL    HW2 3179   2.378   1.078   2.528  2.0769  3.0766  0.7179
  795SOL     MW 3180   2.344   1.062   2.606  0.5586  0.4727  0.1879
  796SOL     OW 3181   0.268   0.559   2.780  0.1624  0.2480 -0.0334
  796SOL    HW1 3182   0.244   0.645   2.809  3.9021  1.3845 -3.3037
  796SOL    HW2 3183   0.204   0.562   2.703  0.3402 -0.2348 -0.4621
  796SOL     MW 3184   0.256   0.571   2.774  0.6793  0.3342 -0.5215
  797SOL     OW 3185   2.659   0.100   2.578  0.1411  0.3481 -0.1582
  797SOL    HW1 3186   2.618   0.181   2.577  0.4592 -1.4585  2.5465
  797SOL    HW2 3187   2.675   0.111   2.482 -1.7254 -2.4874  0.2902
  797SOL     MW 3188   2.656   0.112   2.565 -0.0632 -0.2644  0.2578
  798SOL     OW 3189   2.286   0.116   2.216 -0.6204  0.0834  0.5154
  798SOL    HW1 3190   2.297   0.179   2.290  3.0636  2.2299  0.4767
  798SOL    HW2 3191   2.377   0.112   2.181  1.2042 -0.4603  0.3612
  798SOL     MW 3192   2.299   0.124   2.221  0.1064  0.2948  0.4900
  799SOL     OW 3193   2.560   2.931   0.060 -0.0643  0.2202 -0.5986
  799SOL    HW1 3194   2.484   2.918   0.003  2.1371 -1.5065 -1.8699
  799SOL    HW2 3195   2.541   2.944   0.149  0.1288  0.8922 -1.7417
  799SOL     MW 3196   2.547   2.931   0.064  0.2517  0.0810 -0.9171
  800SOL     OW 3197   1.956   3.097   1.688  0.3114  0.0177 -0.2548
  800SOL    HW1 3198   1.887   3.032   1.675 -0.7739  2.4853 -0.4328
  800SOL    HW2 3199   1.994   3.078   1.772 -0.6194  2.4589 -2.4449
  800SOL     MW 3200   1.952   3.086   1.697  0.0454  0.6654 -0.5673
  801SOL     OW 3201   2.810   1.282   2.632  0.0846 -0.1660  0.4145
  801SOL    HW1 3202   2.760   1.200   2.629 -1.1292 -0.4515  1.7854
  801SOL    HW2 3203   2.897   1.283   2.596  0.0681  2.2920  2.7088
  801SOL     MW 3204   2.815   1.271   2.627 -0.0777  0.1206  0.8981
  802SOL     OW 3205   2.620   1.482   2.768 -0.2244  0.6441 -0.1163
  802SOL    HW1 3206   2.575   1.393   2.763 -1.9069  1.0532  1.1948
  802SOL    HW2 3207   2.711   1.462   2.795  2.6218  3.4255  0.3823
  802SOL     MW 3208   2.626   1.468   2.771 -0.0709  1.0651  0.1224
  803SOL     OW 3209   2.294   1.399   1.990 -0.4681 -0.2672 -0.3130
  803SOL    HW1 3210   2.262   1.350   2.071 -2.6361 -3.3440 -1.5624
  803SOL    HW2 3211   2.274   1.333   1.922  1.3966 -1.5481  0.0302
  803SOL     MW 3212   2.287   1.384   1.992 -0.5081 -0.8422 -0.4326
  804SOL     OW 3213   2.291   0.073   0.038  0.6125  0.3016 -0.2638
  804SOL    HW1 3214   2.237   0.149   0.037  3.6149 -0.6305 -2.7198
  804SOL    HW2 3215   2.340   0.066  -0.042  0.5341 -0.5721 -0.2395
  804SOL     MW 3216   2.290   0.082   0.027  0.9983  0.0633 -0.5846
  805SOL     OW 3217   2.704   1.029   2.557 -0.3670  0.1882 -0.0935
  805SOL    HW1 3218   2.689   1.003   2.467 -0.0775 -0.6420  0.5408
  805SOL    HW2 3219   2.802   1.016   2.574 -1.3339  3.3717  0.8013
  805SOL     MW 3220   2.715   1.024   2.547 -0.4564  0.4987  0.1083
  806SOL     OW 3221   2.562   0.586   2.195 -0.0904 -0.7804 -0.0351
  806SOL    HW1 3222   2.559   0.493   2.203 -2.3644 -2.0833  1.1010
  806SOL    HW2 3223   2.510   0.598   2.116  0.8623  0.1783 -1.2673
  806SOL     MW 3224   2.555   0.575   2.185 -0.2647 -0.8258 -0.0478
  807SOL     OW 3225   0.043   1.182   2.004 -0.7222  0.7090 -0.9200
  807SOL    HW1 3226   0.091   1.100   2.016 -0.5664 -0.1850  0.9822
  807SOL    HW2 3227  -0.038   1.166   2.057 -2.9909 -0.8348  4.3419
  807SOL     MW 3228   0.039   1.169   2.013 -1.0010  0.3873  0.0252
  808SOL     OW 3229   2.629   3.064   2.823 -0.5524  0.2322  0.0793
  808SOL    HW1 3230   2.569   2.992   2.789  1.1048  1.6344 -0.6096
  808SOL    HW2 3231   2.646   3.110   2.741  1.5166 -1.5680  1.6340
  808SOL     MW 3232   2.624   3.061   2.807 -0.0607  0.1797  0.1935
  809SOL     OW 3233   2.602   1.339   2.438  0.2978 -0.3316 -0.9972
  809SOL    HW1 3234   2.663   1.303   2.500  1.7165  1.8643  1.3549
  809SOL    HW2 3235   2.651   1.324   2.358 -0.1688 -4.0978  1.3223
  809SOL     MW 3236   2.617   1.332   2.436  0.4234 -0.5388 -0.3808
  810SOL     OW 3237   2.207   1.301   2.226 -0.4135  0.1778 -0.4474
  810SOL    HW1 3238   2.276   1.253   2.272  0.4413 -1.2141 -0.8125
  810SOL    HW2 3239   2.135   1.260   2.264  1.0687 -1.4807 -1.2344
  810SOL     MW 3240   2.206   1.289   2.237 -0.1051 -0.2247 -0.5994
  811SOL     OW 3241   1.562   0.126   2.294  0.5347 -0.2793  0.3745
  811SOL    HW1 3242   1.641   0.068   2.313 -0.6664 -0.0455  0.7919
  811SOL    HW2 3243   1.563   0.144   2.201 -0.2251  0.4900  0.8008
  811SOL     MW 3244   1.572   0.121   2.284  0.2760 -0.1470  0.4858
  812SOL     OW 3245   1.446   2.816   1.985  0.2672  0.2382  0.3503
  812SOL    HW1 3246   1.532   2.836   1.952  0.2818  0.5927  2.6193
  812SOL    HW2 3247   1.465   2.792   2.079  1.1597  0.5498  0.8160
  812SOL     MW 3248   1.460   2.815   1.993  0.3869  0.3261  0.7111
  813SOL     OW 3249   1.876   0.700   2.233 -0.4206  0.3241  0.0215
  813SOL    HW1 3250   1.835   0.608   2.232  0.8933 -4.2729  0.8823
  813SOL    HW2 3251   1.838   0.743   2.310  0.5097  0.6642  0.5551
  813SOL     MW 3252   1.866   0.694   2.243 -0.1245 -0.2376  0.2055
  814SOL     OW 3253   2.696   1.245   1.632  0.6205  0.1190 -0.1568
  814SOL    HW1 3254   2.713   1.180   1.698 -0.7773  4.3611 -0.2055
  814SOL    HW2 3255   2.686   1.205   1.540 -0.5738 -1.6672 -1.7746
  814SOL     MW 3256   2.697   1.231   1.628  0.2785  0.4430 -0.3767
  815SOL     OW 3257   2.549   1.731   2.391  0.3344 -0.7886 -0.1794
  815SOL    HW1 3258   2.472   1.672   2.380  2.6529  4.3876  0.9150
  815SOL    HW2 3259   2.626   1.671   2.412  1.6886  1.9828  0.7341
  815SOL     MW 3260   2.549   1.716   2.392  0.8190  0.2600  0.0855
  816SOL     OW 3261   0.768   0.648   2.754 -0.1303 -0.4200  0.3518
  816SOL    HW1 3262   0.791   0.559   2.776 -1.0250  1.1130 -1.7705
  816SOL    HW2 3263   0.669   0.662   2.744  0.7319  0.5726 -0.5735
  816SOL     MW 3264   0.758   0.638   2.756 -0.1346 -0.0867 -0.0503
  817SOL     OW 3265   3.041   1.240   1.474 -0.1343  0.0862  0.4927
  817SOL    HW1 3266   3.128   1.218   1.500  0.5691 -2.5069  0.1441
  817SOL    HW2 3267   3.042   1.322   1.427  0.2076  0.1027 -1.1502
  817SOL     MW 3268   3.052   1.248   1.471  0.0036 -0.2538  0.2300
  818SOL     OW 3269   1.878   1.012   2.689  0.1227 -0.4185 -0.4374
  818SOL    HW1 3270   1.852   0.956   2.614  2.7323 -1.8178  2.5068
  818SOL    HW2 3271   1.970   0.989   2.704  0.3507  1.3249 -0.0114
  818SOL     MW 3272   1.887   1.001   2.681  0.4971 -0.3731  0.0072
  819SOL     OW 3273   1.939   0.207   2.432 -0.3908  0.1475  0.3152
  819SOL    HW1 3274   1.876   0.256   2.478 -0.3740 -2.3420 -0.4050
  819SOL    HW2 3275   1.996   0.176   2.505  2.8315 -0.9175  0.9882
  819SOL     MW 3276   1.939   0.209   2.448  0.0366 -0.3215  0.3090
  820SOL     OW 3277   2.521   1.754   2.684 -0.1517 -0.5572 -0.7196
  820SOL    HW1 3278   2.556   1.663   2.709 -1.3175 -0.8335  0.3292
  820SOL    HW2 3279   2.528   1.752   2.589 -1.5523  0.7333  1.2096
  820SOL     MW 3280   2.527   1.742   2.675 -0.4903 -0.4234 -0.3267
  821SOL     OW 3281   2.566   1.420   2.057  0.3808  0.3937 -0.2519
  821SOL    HW1 3282   2.602   1.482   1.992  3.5909  2.5483  0.4584
  821SOL    HW2 3283   2.465   1.418   2.055 -1.9447  0.4406  0.6742
  821SOL     MW 3284   2.557   1.428   2.048  0.4975  0.6842 -0.0360
  822SOL     OW 3285   2.714   2.647   1.374 -0.3836  0.3235 -0.0371
  822SOL    HW1 3286   2.777   2.666   1.438 -0.7826  1.5459 -1.9319
  822SOL    HW2 3287   2.656   2.720   1.375 -0.3868  0.3703 -0.3772
  822SOL     MW 3288   2.714   2.659   1.382 -0.4367  0.4910 -0.3320
  823SOL     OW 3289   2.302   0.474   1.772 -0.4376  0.7860 -0.7723
  823SOL    HW1 3290   2.372   0.454   1.710  2.3217 -0.0091  1.5912
  823SOL    HW2 3291   2.221   0.428   1.744  0.4341 -0.8695  1.9493
  823SOL     MW 3292   2.300   0.465   1.760  0.0415  0.4627 -0.1014
  824SOL     OW 3293   2.111   1.451   2.517 -0.5120 -0.5153 -0.3225
  824SOL    HW1 3294   2.193   1.477   2.474 -0.2815 -0.6184 -0.1469
  824SOL    HW2 3295   2.086   1.518   2.582  0.0357 -1.0931 -1.0049
  824SOL     MW 3296   2.118   1.463   2.520 -0.4093 -0.6051 -0.3894
  825SOL     OW 3297   1.879   2.548   0.293  0.8154 -0.0577  0.1592
  825SOL    HW1 3298   1.870   2.486   0.367  2.1073  2.4651  0.5047
  825SOL    HW2 3299   1.956   2.521   0.242  0.9294 -1.2027  2.1030
  825SOL     MW 3300   1.888   2.536   0.296  1.0009  0.1241  0.4613
  826SOL     OW 3301   1.886   2.369   0.533  0.3621  0.4646 -0.1747
  826SOL    HW1 3302   1.874   2.292   0.596  1.9824 -0.3222  1.7654
  826SOL    HW2 3303   1.854   2.446   0.584 -3.4567 -1.8792 -0.1139
  826SOL     MW 3304   1.880   2.369   0.548  0.0720  0.0516  0.0893
  827SOL     OW 3305   1.927   2.200   0.947 -0.5422 -0.1685  0.2757
  827SOL    HW1 3306   1.871   2.226   0.877  2.7204 -2.5975  2.2109
  827SOL    HW2 3307   1.871   2.128   0.979  0.1337 -2.4943 -0.0492
  827SOL     MW 3308   1.913   2.194   0.942 -0.0225 -0.7958  0.4881
  828SOL     OW 3309   0.083   2.613   0.599  0.5083 -0.3631  0.3291
  828SOL    HW1 3310   0.175   2.597   0.577  0.3968  1.3618 -0.3419
  828SOL    HW2 3311   0.043   2.673   0.528 -2.2346  2.1144  0.8896
  828SOL     MW 3312   0.090   2.619   0.587  0.1317  0.1914  0.3145
  829SOL     OW 3313   2.924   2.956   1.142  0.2079 -0.0190  0.1483
  829SOL    HW1 3314   2.835   2.922   1.127  1.3247  1.1299  0.3479
  829SOL    HW2 3315   2.987   2.883   1.125  1.0577 -0.3173 -1.2057
  829SOL     MW 3316   2.921   2.942   1.138  0.4674  0.0932 -0.0040
  830SOL     OW 3317   2.517   2.887   2.025  0.0374 -0.0465  0.1445
  830SOL    HW1 3318   2.433   2.905   1.984 -0.2632 -0.2670  0.5321
  830SOL    HW2 3319   2.561   2.844   1.954  2.1843  0.6411  0.5589
  830SOL     MW 3320   2.512   2.884   2.010  0.2810  0.0151  0.2503
  831SOL     OW 3321   2.391   2.473   1.285  0.2291 -0.0829  0.7046
  831SOL    HW1 3322   2.371   2.418   1.367  0.4245 -0.7404  3.6628
  831SOL    HW2 3323   2.475   2.436   1.253 -1.8953  0.2038 -0.9930
  831SOL     MW 3324   2.399   2.461   1.291 -0.0254 -0.1318  0.8710
  832SOL     OW 3325   2.401   2.186   1.919 -0.3103  0.1344 -0.0152
  832SOL    HW1 3326   2.423   2.269   1.967  1.9529 -0.3092 -0.9302
  832SOL    HW2 3327   2.489   2.147   1.910  0.0119  0.2363  2.3648
  832SOL     MW 3328   2.416   2.192   1.924  0.0308  0.0893  0.1781
  833SOL     OW 3329   1.770   2.412   0.862  0.0298  0.0742  0.1241
  833SOL    HW1 3330   1.694   2.362   0.884  3.7750  2.4618 -1.6074
  833SOL    HW2 3331   1.774   2.491   0.922 -2.7465  4.9367  1.3708
  833SOL     MW 3332   1.761   2.416   0.873  0.1577  1.0308  0.0602
  834SOL     OW 3333   2.137   2.472   0.574  0.1210 -0.2487 -0.0519
  834SOL    HW1 3334   2.054   2.429   0.563 -0.4530  2.5831 -1.3950
  834SOL    HW2 3335   2.188   2.458   0.501 -0.5669 -3.8269 -3.3934
  834SOL     MW 3336   2.133   2.464   0.563 -0.0455 -0.3472 -0.6700
  835SOL     OW 3337   1.788   2.590   0.655 -0.2716 -0.5974 -0.5246
  835SOL    HW1 3338   1.761   2.525   0.727  1.1199  1.6905 -1.0828
  835SOL    HW2 3339   1.847   2.648   0.699  0.5510 -0.7848  0.3007
  835SOL     MW 3340   1.792   2.589   0.670  0.0205 -0.3202 -0.4893
  836SOL     OW 3341   1.903   2.204   1.617  0.2845  0.1065 -0.0779
  836SOL    HW1 3342   1.987   2.242   1.645  1.6435 -1.8523 -1.2641
  836SOL    HW2 3343   1.834   2.270   1.633 -1.1652 -0.0653 -0.6300
  836SOL     MW 3344   1.905   2.218   1.623  0.2725 -0.1746 -0.3073
  837SOL     OW 3345   2.137   0.187   0.722  0.0116  0.5472 -0.1703
  837SOL    HW1 3346   2.063   0.230   0.672 -0.9031  0.0672 -1.6969
  837SOL    HW2 3347   2.166   0.119   0.654 -0.4453 -3.6644  2.3333
  837SOL     MW 3348   2.131   0.184   0.706 -0.1693 -0.0718 -0.0414
  838SOL     OW 3349   2.956   2.136   0.930  0.0662  0.7236 -0.1930
  838SOL    HW1 3350   2.888   2.092   0.986 -1.9413  0.3498 -0.8922
  838SOL    HW2 3351   2.998   2.069   0.880  1.4042 -0.1298 -0.7744
  838SOL     MW 3352   2.953   2.122   0.931 -0.0222  0.5617 -0.3620
  839SOL     OW 3353   1.520   2.349   0.960  0.2866 -0.1346 -0.0911
  839SOL    HW1 3354   1.520   2.433   1.006 -0.0411  0.3395  0.0284
  839SOL    HW2 3355   1.530   2.276   1.026 -0.7170 -1.2909  0.6098
  839SOL     MW 3356   1.521   2.350   0.974  0.1109 -0.2246  0.0171
  840SOL     OW 3357   2.347   2.088   2.411 -0.2007 -0.3070 -0.1209
  840SOL    HW1 3358   2.300   2.137   2.348  2.5378 -1.3357  2.2823
  840SOL    HW2 3359   2.377   2.159   2.473 -2.9652  3.2926 -2.8787
  840SOL     MW 3360   2.345   2.104   2.411 -0.2041  0.0322 -0.1677
  841SOL     OW 3361   2.079   2.475   0.132  0.3931 -0.0066 -0.2951
  841SOL    HW1 3362   2.136   2.498   0.058  0.2656 -0.0452  0.5922
  841SOL    HW2 3363   2.061   2.377   0.126 -1.4877 -2.1902 -1.8144
  841SOL     MW 3364   2.084   2.465   0.122  0.1281 -0.2998 -0.3784
  842SOL     OW 3365   2.606   1.967   1.569  0.2780 -0.6908  0.5378
  842SOL    HW1 3366   2.548   1.895   1.567 -1.3414 -1.2083 -0.0415
  842SOL    HW2 3367   2.572   2.028   1.506  2.2660  0.2880 -0.0442
  842SOL     MW 3368   2.594   1.966   1.560  0.3267 -0.6300  0.3846
  843SOL     OW 3369   2.610   2.759   1.804 -0.8116 -0.2051  0.0001
  843SOL    HW1 3370   2.690   2.729   1.753  2.9086 -1.9179 -0.8082
  843SOL    HW2 3371   2.561   2.686   1.786  3.3272 -0.0929  0.3670
  843SOL     MW 3372   2.614   2.745   1.795  0.2253 -0.4163 -0.0581
  844SOL     OW 3373   2.605   2.301   1.201  0.0174 -0.3219  0.4700
  844SOL    HW1 3374   2.608   2.329   1.114  1.5660  0.4544  2.1398
  844SOL    HW2 3375   2.674   2.345   1.257  2.2053  1.5543 -1.4998
  844SOL     MW 3376   2.614   2.311   1.197  0.5104  0.0280  0.4304
  845SOL     OW 3377   2.847   2.491   0.270 -0.0897 -0.0697  0.5219
  845SOL    HW1 3378   2.825   2.400   0.278  2.1318  0.2522 -0.1467
  845SOL    HW2 3379   2.852   2.519   0.361  1.0486  0.7808 -1.2142
  845SOL     MW 3380   2.845   2.482   0.283  0.3536  0.0850  0.2046
  846SOL     OW 3381   1.542   2.890   0.773  0.1728 -0.6334  0.2429
  846SOL    HW1 3382   1.602   2.930   0.841  1.4710  1.7454  0.1775
  846SOL    HW2 3383   1.451   2.910   0.805 -1.4790  0.2118  2.3286
  846SOL     MW 3384   1.538   2.898   0.786  0.1261 -0.2080  0.5095
  847SOL     OW 3385   2.579   1.923   0.178 -0.0715  0.0981  0.2254
  847SOL    HW1 3386   2.664   1.867   0.185  1.7505  0.6908 -0.0342
  847SOL    HW2 3387   2.511   1.868   0.131 -1.5729 -2.9302  1.8337
  847SOL     MW 3388   2.582   1.909   0.173 -0.0292 -0.2233  0.4033
  848SOL     OW 3389   2.504   2.115   1.375  0.3056 -0.1735  1.1678
  848SOL    HW1 3390   2.550   2.166   1.308 -0.0143  0.8228  1.0706
  848SOL    HW2 3391   2.483   2.032   1.333  0.2951 -0.3935 -0.2480
  848SOL     MW 3392   2.507   2.111   1.361  0.2620 -0.0711  0.9682
  849SOL     OW 3393   2.009   2.747   0.752  0.3664  0.0168  0.6117
  849SOL    HW1 3394   2.042   2.675   0.804 -1.9847  2.1873 -0.4753
  849SOL    HW2 3395   2.088   2.770   0.691  0.5348  0.0877 -2.4242
  849SOL     MW 3396   2.024   2.741   0.751  0.0784  0.3126  0.0677
  850SOL     OW 3397   2.199   1.941   1.646  0.9055 -0.2467 -0.6336
  850SOL    HW1 3398   2.132   1.888   1.608 -0.4551 -0.1353 -0.4537
  850SOL    HW2 3399   2.151   2.024   1.656  1.6732 -2.2491  3.4522
  850SOL     MW 3400   2.184   1.945   1.642  0.8273 -0.4962 -0.0707
  851SOL     OW 3401   2.266   2.421   0.337  0.4446  0.2452 -0.1356
  851SOL    HW1 3402   2.208   2.456   0.268  0.6188 -0.3041  1.2226
  851SOL    HW2 3403   2.324   2.499   0.347  1.2869 -0.9463  2.0222
  851SOL     MW 3404   2.266   2.436   0.329  0.5788  0.0155  0.3283
  852SOL     OW 3405   2.363   2.158   0.248  0.2119 -0.2689  0.5212
  852SOL    HW1 3406   2.337   2.244   0.285  0.4388  2.1639 -2.9375
  852SOL    HW2 3407   2.456   2.173   0.214 -2.8259 -1.2740 -1.1426
  852SOL     MW 3408   2.372   2.171   0.248 -0.1590 -0.0805 -0.1547
  853SOL     OW 3409   2.481   2.425   2.016 -0.2327 -0.1065 -0.0926
  853SOL    HW1 3410   2.501   2.443   1.923  0.4400 -1.8209 -2.3543
  853SOL    HW2 3411   2.564   2.406   2.051 -1.7266 -0.3474 -1.0249
  853SOL     MW 3412   2.495   2.425   2.008 -0.3411 -0.3645 -0.5140
  854SOL     OW 3413   2.794   2.267   0.756 -0.0030  0.1756 -0.5537
  854SOL    HW1 3414   2.724   2.208   0.728 -0.2898  1.1944  0.8979
  854SOL    HW2 3415   2.841   2.230   0.832 -1.4612 -0.2102  0.2503
  854SOL     MW 3416   2.791   2.255   0.762 -0.2332  0.2591 -0.2561
  855SOL     OW 3417   2.703   2.257   0.356  0.2016  0.0520 -0.0076
  855SOL    HW1 3418   2.692   2.284   0.443 -1.1940 -3.0106  1.0156
  855SOL    HW2 3419   2.775   2.195   0.364  1.4101 -1.8994 -0.5214
  855SOL     MW 3420   2.711   2.253   0.368  0.1769 -0.6095  0.0596
  856SOL     OW 3421   2.208   1.931   0.200 -0.2403  0.5504 -0.0257
  856SOL    HW1 3422   2.121   1.947   0.242  0.6260  0.9266 -1.0396
  856SOL    HW2 3423   2.256   2.014   0.220  0.0674  1.8896  1.9507
  856SOL     MW 3424   2.203   1.944   0.208 -0.0854  0.7767  0.1013
  857SOL     OW 3425   2.577   1.963   0.442 -0.0792 -0.0600  0.5450
  857SOL    HW1 3426   2.609   2.049   0.453  1.2576  1.6326 -2.2693
  857SOL    HW2 3427   2.564   1.962   0.341  1.3014  0.3747 -3.4529
  857SOL     MW 3428   2.579   1.974   0.430  0.2793  0.2207 -0.3538
  858SOL     OW 3429   2.825   2.670   1.667  0.1152  0.0315  0.4556
  858SOL    HW1 3430   2.916   2.686   1.659 -0.7660  1.0856 -1.1850
  858SOL    HW2 3431   2.814   2.582   1.697  0.7001 -2.4377  0.4012
  858SOL     MW 3432   2.835   2.660   1.670  0.0761 -0.1552  0.2320
  859SOL     OW 3433   2.127   2.532   0.899  0.2097  0.0931  0.1799
  859SOL    HW1 3434   2.125   2.450   0.845 -0.5147 -0.3986 -0.3975
  859SOL    HW2 3435   2.222   2.553   0.903 -1.4968 -0.5208 -0.3688
  859SOL     MW 3436   2.139   2.524   0.892 -0.1110 -0.0527  0.0313
  860SOL     OW 3437   2.618   2.589   0.174  0.1756 -0.1674  0.9220
  860SOL    HW1 3438   2.697   2.563   0.217  1.3793  2.5267 -1.6006
  860SOL    HW2 3439   2.649   2.637   0.098 -1.3389  1.1299 -1.4143
  860SOL     MW 3440   2.632   2.592   0.170  0.1346  0.3593  0.2809
  861SOL     OW 3441   1.551   2.141   1.116  0.3756  0.2092  0.1048
  861SOL    HW1 3442   1.579   2.181   1.204  0.2498  0.2218  2.3021
  861SOL    HW2 3443   1.482   2.086   1.149 -3.3382 -2.4031 -1.5733
  861SOL     MW 3444   1.545   2.139   1.132 -0.1310 -0.1338  0.1733
  862SOL     OW 3445   2.405   1.765   1.550 -0.2437  0.0323 -0.3443
  862SOL    HW1 3446   2.370   1.827   1.613  1.1790 -0.2361 -0.3741
  862SOL    HW2 3447   2.406   1.804   1.459 -1.6956  3.7498  1.2100
  862SOL     MW 3448   2.401   1.778   1.547 -0.2476  0.4873 -0.1431
  863SOL     OW 3449   0.002   1.911   1.111 -0.2716 -0.2744 -0.5004
  863SOL    HW1 3450   0.097   1.912   1.127  1.8854  0.3875  2.9762
  863SOL    HW2 3451  -0.023   1.955   1.196 -2.3066 -0.0276  0.2196
  863SOL     MW 3452   0.011   1.917   1.124 -0.2555 -0.1545  0.0533
  864SOL     OW 3453   0.025   1.923   0.831 -0.1732  0.2970 -0.5062
  864SOL    HW1 3454   0.009   1.926   0.926 -0.4411 -1.6830 -1.8098
  864SOL    HW2 3455  -0.007   1.836   0.795 -0.8507 -2.5300 -1.3177
  864SOL     MW 3456   0.019   1.912   0.839 -0.2979 -0.3372 -0.7852
  865SOL     OW 3457   2.613   2.135   3.095  0.2604 -0.0539  0.0742
  865SOL    HW1 3458   2.610   2.066   3.164 -0.6664 -0.3122  0.4318
  865SOL    HW2 3459   2.567   2.104   3.015  1.5907  0.0130 -2.0578
  865SOL     MW 3460   2.607   2.122   3.093  0.3137 -0.0791 -0.1599
  866SOL     OW 3461   2.686   2.306   1.602  0.0172 -0.1382  0.1542
  866SOL    HW1 3462   2.654   2.215   1.608 -0.9319 -0.7924  1.6380
  866SOL    HW2 3463   2.737   2.317   1.520 -4.6829 -1.5750 -0.5789
  866SOL     MW 3464   2.689   2.296   1.592 -0.7281 -0.4141  0.2532
  867SOL     OW 3465   0.006   2.656   1.780  0.1100 -0.1500 -0.1898
  867SOL    HW1 3466  -0.000   2.668   1.870 -0.7590 -0.4437 -1.7072
  867SOL    HW2 3467  -0.017   2.744   1.743  1.5475  2.2795 -0.1264
  867SOL     MW 3468   0.002   2.669   1.787  0.1850  0.1318 -0.3817
  868SOL     OW 3469   2.820   2.585   0.530 -0.3567  0.0546 -0.2199
  868SOL    HW1 3470   2.742   2.537   0.555  1.3666 -1.0859  0.4461
  868SOL    HW2 3471   2.789   2.673   0.502 -0.5885  2.7381  2.2932
  868SOL     MW 3472   2.805   2.590   0.530 -0.1599  0.2582  0.1995
  869SOL     OW 3473   1.991   2.380   1.160  0.2276 -0.1398  0.4811
  869SOL    HW1 3474   2.071   2.409   1.118 -0.5374  0.3662 -1.2762
  869SOL    HW2 3475   1.951   2.322   1.089 -2.5875 -0.8568 -0.4289
  869SOL     MW 3476   1.996   2.376   1.145 -0.2448 -0.1676  0.1292
  870SOL     OW 3477   2.165   0.043   0.479  0.1662 -0.4894 -0.1290
  870SOL    HW1 3478   2.227   0.087   0.410  2.0587  2.2783 -1.6373
  870SOL    HW2 3479   2.208  -0.041   0.484 -1.1435  0.8914 -0.0741
  870SOL     MW 3480   2.179   0.037   0.470  0.2431  0.0580 -0.3208
  871SOL     OW 3481   2.482   2.123   0.954  0.2546 -0.0434  0.0176
  871SOL    HW1 3482   2.407   2.073   0.919  2.0636 -0.1877  0.9482
  871SOL    HW2 3483   2.447   2.180   1.021  0.4839 -2.6123  0.6532
  871SOL     MW 3484   2.468   2.124   0.958  0.5236 -0.4014  0.2243
  872SOL     OW 3485   2.039   2.564   1.472  0.3749  0.2769  0.5901
  872SOL    HW1 3486   2.015   2.586   1.565  0.7994  1.3775  0.5165
  872SOL    HW2 3487   1.968   2.499   1.452 -2.6384  2.2874  3.0516
  872SOL     MW 3488   2.026   2.559   1.482  0.0333  0.6874  0.9052
  873SOL     OW 3489   2.912   2.071   1.911 -0.1423 -0.5075 -0.8729
  873SOL    HW1 3490   2.944   2.137   1.973 -0.3759 -1.0612  1.2364
  873SOL    HW2 3491   2.966   2.098   1.839 -0.2061 -2.1507  0.9289
  873SOL     MW 3492   2.924   2.083   1.910 -0.1816 -0.7974 -0.3569
  874SOL     OW 3493   2.384   1.526   2.373 -0.7862  0.2033  0.1569
  874SOL    HW1 3494   2.367   1.471   2.301  0.8230 -0.9768 -0.6053
  874SOL    HW2 3495   2.423   1.460   2.431 -2.1164  0.2578  0.2021
  874SOL     MW 3496   2.387   1.510   2.371 -0.7494  0.0547  0.0623
  875SOL     OW 3497   2.281   2.341   1.065 -0.0921 -0.0690 -0.0786
  875SOL    HW1 3498   2.315   2.409   1.007 -2.1104 -0.5908  0.4617
  875SOL    HW2 3499   2.303   2.374   1.155  1.5960 -0.4891 -0.9292
  875SOL     MW 3500   2.288   2.354   1.069 -0.1357 -0.1933 -0.1195
  876SOL     OW 3501   3.036   2.318   1.239 -0.5535 -0.0131 -0.1451
  876SOL    HW1 3502   3.066   2.351   1.152 -1.1897  0.8015  1.4747
  876SOL    HW2 3503   3.097   2.363   1.303 -0.3589  1.4287  1.8501
  876SOL     MW 3504   3.048   2.329   1.236 -0.6118  0.2846  0.3319
  877SOL     OW 3505   3.071   2.720   0.361 -0.7469 -0.1458 -0.3199
  877SOL    HW1 3506   3.126   2.793   0.383 -3.1548  0.6191 -0.3152
  877SOL    HW2 3507   3.105   2.693   0.280 -0.8183  0.3320 -1.7379
  877SOL     MW 3508   3.083   2.726   0.354 -1.0740  0.0181 -0.5064
  878SOL     OW 3509   2.429   1.865   1.286  0.1377  0.1499  0.1563
  878SOL    HW1 3510   2.367   1.791   1.297 -0.0844 -0.2634  0.6453
  878SOL    HW2 3511   2.512   1.824   1.268  2.3223 -1.0543  2.8567
  878SOL     MW 3512   2.432   1.850   1.285  0.3966 -0.0635  0.5771
  879SOL     OW 3513   2.676   2.435   0.960  0.0653  0.4502  0.0376
  879SOL    HW1 3514   2.753   2.479   0.997  2.2804 -0.6587 -0.4811
  879SOL    HW2 3515   2.719   2.382   0.887 -0.9356 -1.8771  0.1237
  879SOL     MW 3516   2.692   2.434   0.955  0.2255 -0.0032 -0.0195
  880SOL     OW 3517   2.538   2.173   0.678  0.6522  0.2833 -0.3062
  880SOL    HW1 3518   2.514   2.161   0.771 -2.5557  0.1766  3.3500
  880SOL    HW2 3519   2.469   2.129   0.634 -0.3177  2.3837  1.6508
  880SOL     MW 3520   2.526   2.166   0.685  0.1010  0.5463  0.4344
  881SOL     OW 3521   2.965   2.654   0.776 -0.0952  0.2390  0.2036
  881SOL    HW1 3522   2.905   2.611   0.712 -2.9835 -2.1301  1.0990
  881SOL    HW2 3523   3.053   2.657   0.735  0.1991 -0.0055 -0.3156
  881SOL     MW 3524   2.969   2.648   0.762 -0.4374 -0.1058  0.2533
  882SOL     OW 3525   2.241   2.890   1.949  0.5067  0.0140 -0.7473
  882SOL    HW1 3526   2.232   2.880   1.856  0.0294  0.9897 -1.9750
  882SOL    HW2 3527   2.187   2.818   1.986  2.5302 -0.0736 -0.0009
  882SOL     MW 3528   2.233   2.879   1.942  0.7107  0.1312 -0.8108
  883SOL     OW 3529   2.321   2.285   1.473  0.3537 -0.4031  0.5690
  883SOL    HW1 3530   2.403   2.237   1.439  3.7854 -0.3124 -1.8445
  883SOL    HW2 3531   2.243   2.247   1.430 -1.5309 -2.8766  1.5847
  883SOL     MW 3532   2.322   2.274   1.463  0.5578 -0.7175  0.3846
  884SOL     OW 3533   1.961   1.849   1.157 -0.3487 -0.1305  0.0656
  884SOL    HW1 3534   1.894   1.905   1.119  2.4917  0.8548 -1.6754
  884SOL    HW2 3535   2.039   1.893   1.130  1.6260  0.2246  0.9900
  884SOL     MW 3536   1.962   1.862   1.148  0.2866  0.0463 -0.0421
  885SOL     OW 3537   2.833   2.421   1.812 -0.1115  0.1114  0.8554
  885SOL    HW1 3538   2.922   2.378   1.804  0.6694  0.1678  0.3275
  885SOL    HW2 3539   2.776   2.364   1.755  0.3922 -2.1230 -0.6749
  885SOL     MW 3540   2.837   2.408   1.804  0.0580 -0.1759  0.5838
  886SOL     OW 3541   2.798   2.385   1.357  0.3588 -0.3683 -0.0718
  886SOL    HW1 3542   2.884   2.375   1.314  2.1926  0.4578 -1.4454
  886SOL    HW2 3543   2.773   2.478   1.377 -0.5930  1.0594 -2.9839
  886SOL     MW 3544   2.806   2.396   1.354  0.4752 -0.0709 -0.6372
  887SOL     OW 3545   2.314   2.596   1.531  0.3607 -0.3149  0.3372
  887SOL    HW1 3546   2.326   2.657   1.452  0.9620  0.5866  0.8662
  887SOL    HW2 3547   2.219   2.573   1.510 -0.2129 -1.0330  0.3203
  887SOL     MW 3548   2.303   2.601   1.518  0.3643 -0.2907  0.4048
  888SOL     OW 3549   1.838   2.114   1.342 -0.2048 -0.5215 -0.1149
  888SOL    HW1 3550   1.921   2.114   1.294  2.4162  0.8071  0.8579
  888SOL    HW2 3551   1.875   2.123   1.429 -0.4271  0.5667  0.9886
  888SOL     MW 3552   1.854   2.115   1.347  0.1117 -0.2026  0.1591
  889SOL     OW 3553   2.335   1.992   2.106 -0.1191  0.5933 -0.1290
  889SOL    HW1 3554   2.414   1.983   2.161 -1.0780  1.3860 -0.9035
  889SOL    HW2 3555   2.363   2.066   2.050 -0.8826  1.5576  0.5902
  889SOL     MW 3556   2.349   2.000   2.106 -0.3463  0.8251 -0.1363
  890SOL     OW 3557   0.099   2.384   0.168 -0.3538 -0.3359 -0.3716
  890SOL    HW1 3558   0.046   2.463   0.155  1.8895 -0.3530  1.1033
  890SOL    HW2 3559   0.059   2.332   0.237  2.3474 -0.5794  0.1327
  890SOL     MW 3560   0.087   2.388   0.175  0.2986 -0.3703 -0.1104
  891SOL     OW 3561   3.001   2.048   1.322  0.0800  0.3466 -0.2564
  891SOL    HW1 3562   3.080   2.031   1.379  1.6603  0.5951 -2.0308
  891SOL    HW2 3563   3.012   2.131   1.275  0.8456  0.0224 -1.1677
  891SOL     MW 3564   3.013   2.057   1.323  0.3895  0.3366 -0.6108
  892SOL     OW 3565   2.442   2.360   2.849  0.2801  0.1624  0.0720
  892SOL    HW1 3566   2.447   2.261   2.850  1.3950  0.4395 -1.0708
  892SOL    HW2 3567   2.534   2.372   2.865 -1.2865 -1.7705 -1.1796
  892SOL     MW 3568   2.455   2.348   2.852  0.2205 -0.0561 -0.2439
  893SOL     OW 3569   1.597   2.332   1.300 -0.6315  0.0856  0.2160
  893SOL    HW1 3570   1.523   2.394   1.324 -0.5248 -0.5460 -0.7700
  893SOL    HW2 3571   1.671   2.350   1.355 -1.2049  1.0481 -1.0980
  893SOL     MW 3572   1.597   2.342   1.310 -0.6931  0.1293 -0.0874
  894SOL     OW 3573   2.809   1.781   0.466  0.3755 -0.3594  0.1907
  894SOL    HW1 3574   2.726   1.833   0.502 -0.3219  2.9608  0.0188
  894SOL    HW2 3575   2.778   1.766   0.381 -0.1011 -1.3156  3.9645
  894SOL     MW 3576   2.794   1.786   0.460  0.2206 -0.0475  0.6659
  895SOL     OW 3577   2.111   2.195   1.317 -0.0304 -0.1374  0.3856
  895SOL    HW1 3578   2.080   2.275   1.278 -3.1560 -0.3958 -1.6784
  895SOL    HW2 3579   2.147   2.137   1.240 -0.8412  0.3550  0.0152
  895SOL     MW 3580   2.112   2.198   1.302 -0.5498 -0.1065  0.0644
  896SOL     OW 3581   2.138   2.810   1.081 -0.0551 -0.2705 -0.4605
  896SOL    HW1 3582   2.196   2.812   1.157 -0.5880  1.0058  0.8888
  896SOL    HW2 3583   2.112   2.725   1.065  1.2950 -1.0059 -0.4356
  896SOL     MW 3584   2.142   2.799   1.089  0.0527 -0.1992 -0.2792
  897SOL     OW 3585   3.007   2.905   0.110 -0.3421  0.3739  0.3121
  897SOL    HW1 3586   3.078   2.838   0.110  0.3362 -1.4493 -2.5232
  897SOL    HW2 3587   2.941   2.838   0.085 -1.5153 -2.2153 -2.9746
  897SOL     MW 3588   3.008   2.887   0.107 -0.4074 -0.2083 -0.4956
  898SOL     OW 3589   2.064   0.247   1.407 -0.0819 -0.5601  0.3149
  898SOL    HW1 3590   2.005   0.180   1.434  1.4863 -0.4870 -0.4571
  898SOL    HW2 3591   2.055   0.258   1.313 -1.0615 -0.0639 -1.3611
  898SOL     MW 3592   2.055   0.240   1.398 -0.0042 -0.4850 -0.0081
  899SOL     OW 3593   2.930   2.914   0.638  0.4253  0.5070  0.0082
  899SOL    HW1 3594   2.934   2.842   0.701  0.2454  2.2603 -0.4001
  899SOL    HW2 3595   2.853   2.963   0.665  1.4269 -0.1299 -0.5510
  899SOL     MW 3596   2.921   2.911   0.650  0.5337  0.6543 -0.1195
  900SOL     OW 3597   0.070   2.418   0.994 -0.4087  0.2679  0.3283
  900SOL    HW1 3598   0.073   2.515   0.985 -0.1088  1.3796  0.0234
  900SOL    HW2 3599   0.104   2.384   0.910  0.6261  1.1611 -1.9541
  900SOL     MW 3600   0.075   2.426   0.982 -0.2326  0.5325 -0.0131
  901SOL     OW 3601   1.810   2.847   1.686 -0.5628 -0.0460  0.1074
  901SOL    HW1 3602   1.856   2.765   1.686 -2.2532 -0.8933 -0.7632
  901SOL    HW2 3603   1.750   2.841   1.613  0.3014 -0.8108  0.3927
  901SOL     MW 3604   1.808   2.835   1.677 -0.6718 -0.2587  0.0302
  902SOL     OW 3605   2.651   2.128   1.846  0.3366  0.0352 -0.4470
  902SOL    HW1 3606   2.635   2.031   1.841  3.4950 -2.8004  0.5926
  902SOL    HW2 3607   2.741   2.138   1.871  1.6640 -1.2041 -1.8919
  902SOL     MW 3608   2.661   2.116   1.848  0.9285 -0.5025 -0.5005
  903SOL     OW 3609   1.599   2.790   0.530  0.1423 -0.0865 -0.2332
  903SOL    HW1 3610   1.648   2.714   0.564  0.9431  0.0684 -2.3028
  903SOL    HW2 3611   1.571   2.840   0.611  0.1865  1.5538  1.6179
  903SOL     MW 3612   1.602   2.787   0.545  0.2538  0.1503 -0.2620
  904SOL     OW 3613   2.509   2.497   1.718 -0.3248 -0.2271  0.0331
  904SOL    HW1 3614   2.444   2.515   1.653  0.9673 -1.3162 -0.4977
  904SOL    HW2 3615   2.566   2.436   1.675  1.2079  1.3602  0.2565
  904SOL     MW 3616   2.508   2.491   1.703  0.0479 -0.1614 -0.0075
  905SOL     OW 3617   2.313   2.546   2.172  0.4495  0.6083 -0.5385
  905SOL    HW1 3618   2.369   2.491   2.110  0.3744 -0.8904 -2.5587
  905SOL    HW2 3619   2.259   2.472   2.219 -1.3948 -1.6894  0.0739
  905SOL     MW 3620   2.314   2.529   2.170  0.1962  0.1074 -0.7243
  906SOL     OW 3621   2.415   2.528   0.926  0.3436  1.2461 -0.2507
  906SOL    HW1 3622   2.510   2.505   0.937  0.6232 -0.3694  1.0573
  906SOL    HW2 3623   2.433   2.620   0.894  3.1178 -0.5113  0.1667
  906SOL     MW 3624   2.430   2.537   0.923  0.7465  0.8011 -0.0231
  907SOL     OW 3625   2.569   2.868   1.332  0.3756 -0.3858  0.2858
  907SOL    HW1 3626   2.641   2.924   1.360 -0.4215 -0.1832 -0.0519
  907SOL    HW2 3627   2.594   2.843   1.236  0.8999  0.6495 -1.8180
  907SOL     MW 3628   2.582   2.872   1.323  0.3396 -0.2225 -0.0363
  908SOL     OW 3629   2.775   2.378   0.011 -0.2634  0.0707  0.0582
  908SOL    HW1 3630   2.738   2.291   0.006 -2.5006 -1.9115 -0.7152
  908SOL    HW2 3631   2.711   2.439   0.045  0.1810 -0.6243 -2.1464
  908SOL     MW 3632   2.761   2.375   0.015 -0.4999 -0.2826 -0.3348
  909SOL     OW 3633   1.634   0.177   1.171  0.6685 -0.0816 -0.1639
  909SOL    HW1 3634   1.633   0.255   1.111  0.8981  1.7636 -0.2890
  909SOL    HW2 3635   1.617   0.206   1.263  1.2526  0.2186 -0.4822
  909SOL     MW 3636   1.632   0.191   1.175  0.7758  0.2015 -0.2224
  910SOL     OW 3637   2.299   1.803   0.427 -0.7344  0.0395 -0.2635
  910SOL    HW1 3638   2.231   1.736   0.445  0.7135 -0.2530 -0.9198
  910SOL    HW2 3639   2.265   1.846   0.346 -0.4411 -1.5418 -2.1524
  910SOL     MW 3640   2.286   1.800   0.419 -0.5047 -0.2077 -0.5993
  911SOL     OW 3641   2.208   2.234   1.710 -0.3581 -0.1910  0.4798
  911SOL    HW1 3642   2.270   2.205   1.780 -1.4438  1.1200  1.5851
  911SOL    HW2 3643   2.266   2.250   1.630  2.1017 -0.6974  0.1534
  911SOL     MW 3644   2.224   2.232   1.709 -0.1768 -0.0849  0.5826
  912SOL     OW 3645   2.855   1.908   1.504  0.5480  0.2988  0.8552
  912SOL    HW1 3646   2.879   1.959   1.424  1.1556  1.3558 -1.8234
  912SOL    HW2 3647   2.768   1.929   1.537  1.4164 -0.3765 -0.7152
  912SOL     MW 3648   2.847   1.918   1.498  0.7427  0.3492  0.2946
  913SOL     OW 3649   2.584   3.007   0.359 -0.0584 -0.0471 -0.1479
  913SOL    HW1 3650   2.653   2.940   0.361  0.0095 -0.8628 -0.4616
  913SOL    HW2 3651   2.498   2.966   0.367  1.3812  0.5337 -2.4392
  913SOL     MW 3652   2.582   2.993   0.361  0.1405 -0.0781 -0.4916
  914SOL     OW 3653   2.756   1.672   3.048  0.1332  0.3532  0.0323
  914SOL    HW1 3654   2.778   1.741   2.986  0.0357  2.3955 -1.0943
  914SOL    HW2 3655   2.666   1.674   3.037  2.0956 -1.0396 -1.0207
  914SOL     MW 3656   2.747   1.682   3.038  0.3792  0.4389 -0.2553
  915SOL     OW 3657   1.773   0.248   0.217 -0.5434 -0.2127  0.3183
  915SOL    HW1 3658   1.847   0.196   0.240 -1.7282 -0.0993 -0.5079
  915SOL    HW2 3659   1.692   0.200   0.240  0.3285  0.5589  1.9129
  915SOL     MW 3660   1.772   0.235   0.223 -0.5847 -0.0960  0.4196
  916SOL     OW 3661   1.731   2.056   1.948  0.4816 -0.2448  0.4022
  916SOL    HW1 3662   1.785   2.135   1.934 -2.0694  0.2049 -3.0722
  916SOL    HW2 3663   1.746   1.990   1.880  3.2294  2.0485 -0.5150
  916SOL     MW 3664   1.740   2.058   1.937  0.5076  0.1171 -0.1772
  917SOL     OW 3665   2.419   2.320   2.549  0.0077 -0.1188 -0.5093
  917SOL    HW1 3666   2.417   2.356   2.636 -1.4276 -2.7551 -0.4186
  917SOL    HW2 3667   2.511   2.325   2.516  0.6295 -1.4407  2.1059
  917SOL     MW 3668   2.431   2.325   2.556 -0.0996 -0.6410 -0.1523
  918SOL     OW 3669   1.994   1.643   2.722 -0.2936 -0.0688 -0.0784
  918SOL    HW1 3670   1.941   1.689   2.650 -0.4559  0.6693  1.3041
  918SOL    HW2 3671   2.079   1.689   2.727 -0.1929  1.3162  3.1141
  918SOL     MW 3672   1.998   1.655   2.713 -0.3017  0.2113  0.5252
  919SOL     OW 3673   0.038   2.360   2.241 -0.3182  0.3696  0.1634
  919SOL    HW1 3674  -0.034   2.301   2.221 -0.1885 -2.6390  0.5975
  919SOL    HW2 3675   0.115   2.331   2.196 -0.3329  0.0652 -0.1990
  919SOL     MW 3676   0.039   2.348   2.232 -0.3031 -0.0676  0.1729
  920SOL     OW 3677   2.784   2.783   0.022  0.1354 -0.2474 -0.1830
  920SOL    HW1 3678   2.718   2.853   0.038 -0.8759  1.8094 -1.1296
  920SOL    HW2 3679   2.770   2.753  -0.070  1.4357 -1.3698  1.7282
  920SOL     MW 3680   2.773   2.788   0.012  0.1736 -0.1241 -0.0557
  921SOL     OW 3681   2.389   2.637   2.662 -0.1960 -0.2236 -0.6065
  921SOL    HW1 3682   2.439   2.608   2.588 -0.5239  2.6248 -3.8826
  921SOL    HW2 3683   2.423   2.598   2.737 -1.8854 -0.2797  0.2916
  921SOL     MW 3684   2.400   2.628   2.662 -0.4621  0.1448 -0.9203
  922SOL     OW 3685   2.009   2.788   0.313  0.3947  0.8046  0.3853
  922SOL    HW1 3686   1.992   2.820   0.224  0.6471  0.9274  3.3046
  922SOL    HW2 3687   1.961   2.702   0.313 -3.8701 -0.3870 -1.5349
  922SOL     MW 3688   2.001   2.781   0.301 -0.1347  0.6636  0.5171
  923SOL     OW 3689   2.206   2.798   1.684 -0.1320  0.1392 -0.1684
  923SOL    HW1 3690   2.254   2.721   1.645 -1.8008 -0.2310 -1.1122
  923SOL    HW2 3691   2.175   2.841   1.604  2.0301  0.7462  1.8455
  923SOL     MW 3692   2.209   2.793   1.668 -0.0669  0.1705 -0.0272
  924SOL     OW 3693   1.204   2.653   2.560  0.2934 -0.9711 -0.0105
  924SOL    HW1 3694   1.272   2.714   2.527  4.3751 -1.3958 -1.4115
  924SOL    HW2 3695   1.253   2.598   2.624  0.4818  1.5257 -0.9151
  924SOL     MW 3696   1.220   2.654   2.564  0.8568 -0.6977 -0.3147
  925SOL     OW 3697   2.927   0.251   2.593 -0.2092  0.3903 -0.3907
  925SOL    HW1 3698   2.917   0.298   2.515 -1.4252  1.8142  0.9954
  925SOL    HW2 3699   2.884   0.316   2.657 -0.2853 -2.1876  0.4536
  925SOL     MW 3700   2.920   0.266   2.591 -0.3796  0.2380 -0.0964
  926SOL     OW 3701   2.746   2.417   2.089  0.3776  0.0662 -0.4859
  926SOL    HW1 3702   2.798   2.464   2.156 -1.0563  0.7094  0.6766
  926SOL    HW2 3703   2.781   2.428   1.999 -1.0147 -0.6704 -2.4820
  926SOL     MW 3704   2.758   2.425   2.086  0.0047  0.0539 -0.5959
  927SOL     OW 3705   2.323   0.154   0.310 -0.3028 -0.5931  0.1078
  927SOL    HW1 3706   2.418   0.172   0.326  2.9990  2.4856 -0.4220
  927SOL    HW2 3707   2.330   0.114   0.218  0.0826 -1.4487 -1.7254
  927SOL     MW 3708   2.337   0.151   0.300  0.1837 -0.2998 -0.2039
  928SOL     OW 3709   2.081   2.428   1.869  0.0442 -0.6033  0.0660
  928SOL    HW1 3710   2.130   2.361   1.819 -0.5227 -2.0704 -0.9345
  928SOL    HW2 3711   2.138   2.454   1.942  2.3163  0.1387  1.1186
  928SOL     MW 3712   2.095   2.423   1.872  0.2692 -0.6989  0.0729
  929SOL     OW 3713   2.659   2.368   2.410  0.3338 -0.3102  0.1869
  929SOL    HW1 3714   2.703   2.361   2.322 -1.9198  1.3070 -1.8987
  929SOL    HW2 3715   2.719   2.339   2.475 -0.5438  0.6911 -1.1116
  929SOL     MW 3716   2.673   2.363   2.407 -0.0794  0.0353 -0.2596
  930SOL     OW 3717   1.999   2.840   2.685 -0.1005 -0.1737  0.4449
  930SOL    HW1 3718   2.037   2.764   2.734 -3.3991  1.9162  0.5267
  930SOL    HW2 3719   2.061   2.911   2.684  1.5454 -0.4759 -0.5581
  930SOL     MW 3720   2.012   2.839   2.691 -0.3186  0.0621  0.3233
  931SOL     OW 3721   2.995   2.777   2.283  0.5725  0.0929  0.4649
  931SOL    HW1 3722   3.051   2.789   2.362 -0.0946  1.2232  0.8335
  931SOL    HW2 3723   3.058   2.773   2.205  1.7289  0.1730 -1.3936
  931SOL     MW 3724   3.011   2.778   2.283  0.6370  0.2526  0.2683
  932SOL     OW 3725   2.893   1.985   2.505 -0.8594  0.0084  0.3238
  932SOL    HW1 3726   2.982   2.016   2.518 -1.7913  1.5307 -0.5512
  932SOL    HW2 3727   2.879   1.983   2.410  1.8791 -0.2581  1.3258
  932SOL     MW 3728   2.903   1.989   2.495 -0.6210  0.1741  0.3405
  933SOL     OW 3729   2.070   2.878   2.249 -0.0410 -0.3378  0.1261
  933SOL    HW1 3730   2.156   2.914   2.272 -1.6227  2.1324  1.9326
  933SOL    HW2 3731   2.027   2.932   2.182 -0.5285 -0.8573 -0.4672
  933SOL     MW 3732   2.076   2.890   2.243 -0.3140 -0.0804  0.2862
  934SOL     OW 3733   2.020   2.705   2.455  0.2950 -0.2135  0.0776
  934SOL    HW1 3734   2.017   2.764   2.533 -0.4982 -2.6755  0.1032
  934SOL    HW2 3735   2.047   2.760   2.382 -0.4719  0.5449 -0.7836
  934SOL     MW 3736   2.023   2.720   2.456  0.0892 -0.4383 -0.0327
  935SOL     OW 3737   2.664   1.596   1.831  0.7408  0.2247  0.1908
  935SOL    HW1 3738   2.740   1.552   1.800 -2.2157 -2.1856  0.6143
  935SOL    HW2 3739   2.610   1.573   1.753 -1.1535  0.3258 -2.8892
  935SOL     MW 3740   2.667   1.587   1.816  0.1008 -0.0800 -0.1597
  936SOL     OW 3741   3.026   2.274   3.074  0.1106 -0.0278  0.0380
  936SOL    HW1 3742   3.096   2.331   3.105 -0.5808 -0.2534 -0.4179
  936SOL    HW2 3743   2.953   2.332   3.084  0.5329 -1.7352  1.0246
  936SOL     MW 3744   3.026   2.289   3.079  0.0751 -0.2828  0.1081
  937SOL     OW 3745   2.000   2.138   2.708 -0.1139 -0.9421 -0.0277
  937SOL    HW1 3746   2.091   2.105   2.741  3.1486  0.3686  1.9894
  937SOL    HW2 3747   1.972   2.117   2.620 -1.5414 -2.7434 -0.9308
  937SOL     MW 3748   2.008   2.131   2.701  0.1282 -1.0068  0.1193
  938SOL     OW 3749   2.303   1.813   1.886 -0.7405  0.5059 -0.5467
  938SOL    HW1 3750   2.277   1.864   1.805 -0.4280 -0.6693 -0.6734
  938SOL    HW2 3751   2.262   1.859   1.957 -1.2157 -3.1303 -0.0872
  938SOL     MW 3752   2.294   1.826   1.884 -0.7620 -0.1289 -0.5028
  939SOL     OW 3753   2.804   1.995   2.217 -0.1969  0.4110 -0.2775
  939SOL    HW1 3754   2.822   1.939   2.140  2.0779 -1.4975 -1.5911
  939SOL    HW2 3755   2.710   1.992   2.232  1.0268  1.2048  1.7092
  939SOL     MW 3756   2.794   1.987   2.209  0.2647  0.2639 -0.1887
  940SOL     OW 3757   2.326   0.170   2.696 -0.0470  0.4840 -0.3531
  940SOL    HW1 3758   2.292   0.079   2.684 -0.4706 -0.6326 -0.1029
  940SOL    HW2 3759   2.371   0.174   2.777 -3.5582  0.9484 -1.3109
  940SOL     MW 3760   2.327   0.159   2.705 -0.5662  0.3979 -0.4465
  941SOL     OW 3761   0.189   2.260   2.024  0.0622 -0.1361 -0.7358
  941SOL    HW1 3762   0.278   2.234   2.022 -1.7993  0.6665  1.5303
  941SOL    HW2 3763   0.160   2.267   1.927 -0.0667 -1.6804  1.1619
  941SOL     MW 3764   0.197   2.258   2.011 -0.2004 -0.2340 -0.1865
  942SOL     OW 3765   2.933   2.213   2.143 -0.0628 -0.4015  0.4718
  942SOL    HW1 3766   2.867   2.285   2.154 -1.0038  1.8470  0.9643
  942SOL    HW2 3767   2.888   2.136   2.182  0.9342  1.3417  0.3893
  942SOL     MW 3768   2.918   2.212   2.149 -0.0554  0.1252  0.5259
  943SOL     OW 3769   0.362   2.016   2.310 -0.1981  0.1212 -0.3497
  943SOL    HW1 3770   0.297   2.067   2.360 -2.3022  0.8177  0.6997
  943SOL    HW2 3771   0.447   1.999   2.351  2.4931 -1.6537 -1.5446
  943SOL     MW 3772   0.365   2.020   2.322 -0.1207 -0.0211 -0.3689
  944SOL     OW 3773   2.109   2.685   2.066 -0.3881  0.0480  0.1110
  944SOL    HW1 3774   2.199   2.660   2.091  1.2480 -1.8797 -2.0133
  944SOL    HW2 3775   2.083   2.750   2.132 -0.2651  1.3419  0.2759
  944SOL     MW 3776   2.117   2.690   2.078 -0.1560 -0.0357 -0.1476
  945SOL     OW 3777   2.744   2.692   2.832  0.0682 -0.4477  0.4394
  945SOL    HW1 3778   2.699   2.604   2.843 -0.4707 -2.4113 -2.8121
  945SOL    HW2 3779   2.770   2.691   2.738  1.4412  2.0440  0.9916
  945SOL     MW 3780   2.741   2.680   2.821  0.1783 -0.3780  0.0833
  946SOL     OW 3781   2.494   2.740   2.264  0.1440 -0.1916  0.3701
  946SOL    HW1 3782   2.504   2.804   2.191  2.3650  1.3803  1.7339
  946SOL    HW2 3783   2.440   2.663   2.240  1.0978 -0.7639  4.6615
  946SOL     MW 3784   2.488   2.738   2.251  0.5629 -0.0597  1.1163
  947SOL     OW 3785   2.003   0.100   0.249 -0.1213 -0.2651  0.5653
  947SOL    HW1 3786   1.994   0.015   0.192 -0.7759 -1.3071 -0.2678
  947SOL    HW2 3787   2.035   0.073   0.337 -1.8257 -0.5658 -0.7506
  947SOL     MW 3788   2.006   0.085   0.253 -0.4325 -0.4422  0.2818
  948SOL     OW 3789   1.779   3.010   2.670  0.0211 -0.3249 -0.2663
  948SOL    HW1 3790   1.841   2.936   2.657 -2.0848  1.0703  0.5433
  948SOL    HW2 3791   1.766   3.043   2.574  0.6808 -1.6637  0.1494
  948SOL     MW 3792   1.786   3.005   2.656 -0.1697 -0.3175 -0.1047
  949SOL     OW 3793   2.547   1.973   2.270 -0.2067  0.1637  0.5078
  949SOL    HW1 3794   2.545   1.882   2.301  1.4898 -0.0729  0.7246
  949SOL    HW2 3795   2.495   2.025   2.335 -0.2963 -1.1733 -1.9341
  949SOL     MW 3796   2.540   1.968   2.282  0.0053 -0.0439  0.2142
  950SOL     OW 3797   2.264   2.537   3.005  0.9784 -0.0618  0.2817
  950SOL    HW1 3798   2.312   2.469   2.961  3.3397 -1.3848  1.6672
  950SOL    HW2 3799   2.197   2.559   2.936 -1.4760 -0.3473 -1.6693
  950SOL     MW 3800   2.262   2.531   2.990  0.9661 -0.2740  0.2071
  951SOL     OW 3801   2.960   2.133   2.827  0.7232  0.2458  0.0736
  951SOL    HW1 3802   3.018   2.172   2.890 -1.9469 -2.3457 -0.2146
  951SOL    HW2 3803   3.010   2.125   2.743 -0.0813 -0.1107 -0.0728
  951SOL     MW 3804   2.974   2.137   2.824  0.2647 -0.1432  0.0162
  952SOL     OW 3805   3.088   1.715   2.160 -0.0476 -0.9552 -0.2464
  952SOL    HW1 3806   3.022   1.777   2.121  2.1927  1.0709 -2.3947
  952SOL    HW2 3807   3.153   1.782   2.187 -1.6357  2.1105 -0.5541
  952SOL     MW 3808   3.088   1.732   2.159  0.0384 -0.2834 -0.5705
  953SOL     OW 3809   1.898   1.785   2.929 -0.6028 -0.5207 -0.0590
  953SOL    HW1 3810   1.813   1.744   2.958  2.2883  1.9714 -2.2253
  953SOL    HW2 3811   1.924   1.724   2.866  0.7907  2.3862  2.0927
  953SOL     MW 3812   1.890   1.772   2.925 -0.0375  0.1917 -0.0610
  954SOL     OW 3813   2.488   2.058   2.866 -0.2351  0.1794 -0.3209
  954SOL    HW1 3814   2.392   2.062   2.836 -0.6699  1.5591  2.8300
  954SOL    HW2 3815   2.540   2.030   2.786 -0.0107  2.3103  0.4809
  954SOL     MW 3816   2.482   2.055   2.852 -0.2629  0.6426  0.2006
  955SOL     OW 3817   1.598   1.606   2.595 -0.1617 -0.4958  0.8472
  955SOL    HW1 3818   1.553   1.607   2.500 -0.1426 -1.3684  2.2127
  955SOL    HW2 3819   1.684   1.641   2.573  0.3483 -0.4284 -1.0261
  955SOL     MW 3820   1.603   1.611   2.580 -0.0919 -0.6020  0.7802
  956SOL     OW 3821   2.710   2.427   2.857 -0.2978 -0.0468  0.1458
  956SOL    HW1 3822   2.741   2.385   2.937 -0.6805 -2.4090 -0.3635
  956SOL    HW2 3823   2.755   2.387   2.785  2.2255  1.0417 -1.3720
  956SOL     MW 3824   2.720   2.416   2.858 -0.0154 -0.2148 -0.1217
  957SOL     OW 3825   2.286   2.880   0.383  0.5088  0.1504 -0.4529
  957SOL    HW1 3826   2.197   2.877   0.346  0.5253 -0.8858 -1.1035
  957SOL    HW2 3827   2.271   2.853   0.475 -0.2153 -2.4756 -2.4516
  957SOL     MW 3828   2.272   2.876   0.390  0.4154 -0.3328 -0.8025
  958SOL     OW 3829   2.022   2.598   2.839 -0.2029  0.4734  0.3894
  958SOL    HW1 3830   1.993   2.538   2.771  4.7544  1.1950 -2.0350
  958SOL    HW2 3831   1.950   2.618   2.907 -1.6542  1.8778 -0.7919
  958SOL     MW 3832   2.008   2.592   2.839  0.2597  0.7539 -0.0864
  959SOL     OW 3833   2.435   2.632   0.369 -0.4307 -0.0976  0.0280
  959SOL    HW1 3834   2.493   2.630   0.291  0.6029 -0.8809 -4.3143
  959SOL    HW2 3835   2.380   2.714   0.358  0.5539  1.4257  0.8362
  959SOL     MW 3836   2.435   2.643   0.358 -0.1644  0.0000 -0.4383
  960SOL     OW 3837   1.961   2.307   2.265 -0.2695 -0.1047  0.1791
  960SOL    HW1 3838   1.908   2.309   2.184  2.8725  1.6113 -1.0114
  960SOL    HW2 3839   1.902   2.314   2.340  0.2703 -2.9084  1.6640
  960SOL     MW 3840   1.946   2.308   2.264  0.2163 -0.2482  0.2179
  961SOL     OW 3841   2.243   2.322   2.297  0.6747  0.2549  0.0270
  961SOL    HW1 3842   2.148   2.314   2.286 -0.2718  1.2897  0.8038
  961SOL    HW2 3843   2.252   2.345   2.391 -0.2186 -1.9604 -1.4259
  961SOL     MW 3844   2.232   2.324   2.308  0.4319  0.0991 -0.0622
  962SOL     OW 3845   2.235   2.022   2.800 -0.4437 -0.2778  0.1028
  962SOL    HW1 3846   2.187   2.020   2.883  1.5304  0.3271  0.6542
  962SOL    HW2 3847   2.262   1.930   2.790  1.2538 -0.4739 -0.2279
  962SOL     MW 3848   2.232   2.009   2.810  0.0407 -0.2239  0.1319
  963SOL     OW 3849   1.834   2.615   2.021 -0.4297  0.3722  0.6084
  963SOL    HW1 3850   1.931   2.621   2.049  2.6497 -0.1363  0.5970
  963SOL    HW2 3851   1.824   2.533   1.964 -1.1360 -0.9329 -0.3699
  963SOL     MW 3852   1.845   2.605   2.018 -0.1166  0.1329  0.4778
  964SOL     OW 3853   1.789   1.960   2.751 -0.7893 -0.4900  0.0902
  964SOL    HW1 3854   1.858   2.034   2.753 -1.2262  0.1349 -2.9509
  964SOL    HW2 3855   1.823   1.888   2.809  1.2034 -0.1571  3.9456
  964SOL     MW 3856   1.803   1.960   2.759 -0.5840 -0.3636  0.1977
  965SOL     OW 3857   2.238   2.756   0.622 -0.4777  0.0604  0.3126
  965SOL    HW1 3858   2.228   2.660   0.626  2.8484  1.2678  1.3892
  965SOL    HW2 3859   2.282   2.791   0.702 -1.8721 -1.7006  2.6174
  965SOL     MW 3860   2.243   2.748   0.633 -0.2228 -0.0126  0.7587
  966SOL     OW 3861   2.614   2.625   2.500  0.1118  0.4243  0.6779
  966SOL    HW1 3862   2.590   2.678   2.425 -0.0073  0.2545 -1.6827
  966SOL    HW2 3863   2.637   2.534   2.466 -0.0179 -3.6733 -0.3715
  966SOL     MW 3864   2.614   2.620   2.485  0.0790 -0.1388  0.2280
  967SOL     OW 3865   2.877   3.013   2.906 -0.6523  0.2333  0.3037
  967SOL    HW1 3866   2.883   2.939   2.968 -1.4931  0.1140 -0.1584
  967SOL    HW2 3867   2.784   3.020   2.888 -0.7744  0.4780 -0.6239
  967SOL     MW 3868   2.866   3.004   2.912 -0.7793  0.2498  0.1203
  968SOL     OW 3869   3.001   2.610   2.929  0.0217  0.7432 -0.0497
  968SOL    HW1 3870   2.914   2.622   2.901  1.6028  0.5725 -1.7815
  968SOL    HW2 3871   3.042   2.532   2.883 -0.6190 -2.0501 -0.8088
  968SOL     MW 3872   2.995   2.601   2.919  0.1458  0.3521 -0.3783
  969SOL     OW 3873   1.535   2.131   1.679  0.2345  0.4062 -0.2692
  969SOL    HW1 3874   1.599   2.063   1.659  1.0904 -1.4139  0.0376
  969SOL    HW2 3875   1.496   2.110   1.763  3.8562 -0.2600 -2.7132
  969SOL     MW 3876   1.538   2.119   1.687  0.8252  0.0782 -0.5512
  970SOL     OW 3877   1.653   1.679   1.776 -0.4772  0.4440 -0.5637
  970SOL    HW1 3878   1.703   1.646   1.846 -1.6035 -1.4998 -0.7352
  970SOL    HW2 3879   1.575   1.710   1.817  0.0599 -1.7986 -1.8809
  970SOL     MW 3880   1.649   1.679   1.791 -0.5549 -0.1083 -0.7601
  971SOL     OW 3881   1.774   3.076   2.390 -0.5947 -0.8834  0.5388
  971SOL    HW1 3882   1.802   3.040   2.308 -1.3400  3.5748 -3.4179
  971SOL    HW2 3883   1.828   3.159   2.397 -0.0104  2.6520 -1.0235
  971SOL     MW 3884   1.784   3.082   2.380 -0.6160  0.1713 -0.1894
  972SOL     OW 3885   0.256   2.846   2.436  0.1371  0.3575  0.1923
  972SOL    HW1 3886   0.284   2.760   2.467  0.2331  0.6629 -2.1584
  972SOL    HW2 3887   0.320   2.907   2.473  0.6698 -4.4548  0.7728
  972SOL     MW 3888   0.269   2.842   2.445  0.2201 -0.2372 -0.0413
  973SOL     OW 3889   2.549   0.029   2.133  0.0317  0.0034 -0.1446
  973SOL    HW1 3890   2.531  -0.058   2.100 -1.4334  0.1558  1.6595
  973SOL    HW2 3891   2.583   0.076   2.056 -0.4092  0.6615 -3.9893
  973SOL     MW 3892   2.551   0.024   2.118 -0.2198  0.1104 -0.4139
  974SOL     OW 3893   2.055   0.225   2.692 -0.3293 -0.8406 -0.1343
  974SOL    HW1 3894   2.152   0.229   2.706  3.0691 -0.9396  0.4347
  974SOL    HW2 3895   2.017   0.168   2.763 -0.1309 -0.3256 -0.3117
  974SOL     MW 3896   2.063   0.218   2.703  0.1452 -0.7857 -0.0827
  975SOL     OW 3897   2.176   2.499   2.521  0.1081 -0.5917 -0.5688
  975SOL    HW1 3898   2.241   2.572   2.542 -1.3123 -0.2520  0.6486
  975SOL    HW2 3899   2.104   2.551   2.485 -0.3676  1.4684 -0.1831
  975SOL     MW 3900   2.175   2.515   2.519 -0.1421 -0.2751 -0.3573
  976SOL     OW 3901   0.256   0.341   1.721 -0.5498  0.1054 -0.2744
  976SOL    HW1 3902   0.302   0.279   1.782  1.2559 -0.8285  2.5850
  976SOL    HW2 3903   0.188   0.282   1.680 -4.2845  0.8150 -1.3211
  976SOL     MW 3904   0.253   0.325   1.724 -0.8043  0.0758 -0.0352
  977SOL     OW 3905   1.742   2.667   2.467  0.1584 -0.7048  0.0958
  977SOL    HW1 3906   1.724   2.572   2.460  0.0723 -1.3615  1.3944
  977SOL    HW2 3907   1.834   2.666   2.453  0.0365 -0.7791  0.1416
  977SOL     MW 3908   1.752   2.654   2.464  0.1310 -0.8012  0.2732
   3.10000   3.10000   3.10000
