977 TIP4P/2005f water molecules t=   1.00000 step= 1000
 3908
    1SOL     OW    1   0.370   0.796   0.009  0.0741  0.0992  0.6880
    1SOL    HW1    2   0.365   0.827  -0.079  1.4932  0.1955 -0.6697
    1SOL    HW2    3   0.313   0.722   0.010  1.0412 -0.8393  2.1326
    1SOL     MW    4   0.362   0.790  -0.003  0.3889 -0.0119  0.6995
    2SOL     OW    5   0.322   3.024   1.160  0.0295  0.3808  0.0439
    2SOL    HW1    6   0.396   3.089   1.144  2.9655  2.0009 -1.7096
    2SOL    HW2    7   0.233   3.063   1.165  0.6862 -0.2614 -1.0185
    2SOL     MW    8   0.320   3.038   1.159  0.5035  0.5099 -0.3276
    3SOL     OW    9   2.642   0.440   0.984 -0.3027  0.5082  0.8540
    3SOL    HW1   10   2.670   0.506   0.916  0.5552  1.4067 -2.3356
    3SOL    HW2   11   2.608   0.491   1.068  1.9065 -0.2637  0.4584
    3SOL     MW   12   2.641   0.455   0.986  0.1020  0.5249  0.3810
    4SOL     OW   13   2.921   1.676   0.578 -0.1863 -0.0879 -0.1622
    4SOL    HW1   14   2.875   1.753   0.539 -0.9847 -0.9918 -0.4069
    4SOL    HW2   15   2.995   1.676   0.513  1.5356 -3.1003 -1.5004
    4SOL     MW   16   2.925   1.686   0.564 -0.0644 -0.6046 -0.3710
    5SOL     OW   17   1.788   1.499   0.506  0.3816 -0.1560 -0.0348
    5SOL    HW1   18   1.787   1.425   0.564  1.5410  2.5870  0.7201
    5SOL    HW2   19   1.698   1.529   0.513 -3.1957 -0.7087  1.7369
    5SOL     MW   20   1.776   1.493   0.515  0.0626  0.1330  0.2985
    6SOL     OW   21   0.809   1.408   0.597  0.2444 -0.7311 -0.0333
    6SOL    HW1   22   0.719   1.409   0.626 -0.9850 -2.4190 -1.5620
    6SOL    HW2   23   0.841   1.327   0.630 -1.8440 -0.0779 -0.3474
    6SOL     MW   24   0.801   1.397   0.605 -0.1934 -0.8676 -0.2764
    7SOL     OW   25   2.064   1.062   3.093  0.1643 -0.4652  0.5954
    7SOL    HW1   26   2.062   1.124   3.016  2.1757 -1.0168 -1.7705
    7SOL    HW2   27   2.121   1.103   3.158 -0.0873 -1.4428 -0.4259
    7SOL     MW   28   2.071   1.075   3.091  0.3965 -0.6669  0.1485
    8SOL     OW   29   0.930   1.420   1.100  0.1516  0.3122  0.7920
    8SOL    HW1   30   1.018   1.387   1.112 -1.8703 -1.2385 -1.0353
    8SOL    HW2   31   0.880   1.353   1.151  0.5007  1.3349  1.1320
    8SOL     MW   32   0.935   1.407   1.108 -0.0691  0.2425  0.5958
    9SOL     OW   33   1.003   0.525   1.404  0.0727 -0.1994 -0.4464
    9SOL    HW1   34   0.956   0.458   1.345 -2.6609 -1.0343 -0.9394
    9SOL    HW2   35   1.060   0.471   1.463  0.6535  0.8045  0.2843
    9SOL     MW   36   1.004   0.509   1.404 -0.2114 -0.1771 -0.4151
   10SOL     OW   37   0.220   0.774   0.458  0.1119 -0.1300 -0.3014
   10SOL    HW1   38   0.316   0.790   0.438  0.5807 -1.0017 -2.0957
   10SOL    HW2   39   0.196   0.816   0.545 -2.3434  0.1333  0.1123
   10SOL     MW   40   0.229   0.781   0.467 -0.1502 -0.2103 -0.4836
   11SOL     OW   41   0.807   1.134   1.700 -0.2359 -0.2355 -1.0293
   11SOL    HW1   42   0.843   1.100   1.779  0.1225 -0.2634  0.8669
   11SOL    HW2   43   0.810   1.067   1.638  0.9080  1.3575 -2.9420
   11SOL     MW   44   0.813   1.121   1.702 -0.0377 -0.0290 -1.0315
   12SOL     OW   45   0.034   1.076   0.869 -0.1575 -0.4206 -0.0856
   12SOL    HW1   46   0.076   1.145   0.921  0.6839  4.4900 -0.7533
   12SOL    HW2   47  -0.002   1.120   0.793  3.6194  0.8236 -1.8051
   12SOL     MW   48   0.035   1.091   0.866  0.4519  0.3915 -0.4006
   13SOL     OW   49   1.871   1.419   1.362 -0.3067  0.2447  0.0192
   13SOL    HW1   50   1.906   1.355   1.293  0.5819  3.2841 -1.4567
   13SOL    HW2   51   1.868   1.507   1.326 -2.5477  0.2625  1.3507
   13SOL     MW   52   1.876   1.422   1.348 -0.4851  0.6481  0.0002
   14SOL     OW   53   0.608   0.389   1.870 -0.7488 -0.5173 -0.1862
   14SOL    HW1   54   0.547   0.310   1.858  0.5135 -2.1591  1.0635
   14SOL    HW2   55   0.686   0.347   1.879 -1.7983  0.0167 -0.5493
   14SOL     MW   56   0.611   0.373   1.869 -0.7207 -0.6634 -0.0692
   15SOL     OW   57   1.937   0.348   1.031  0.1216 -0.1123  0.9060
   15SOL    HW1   58   1.934   0.397   1.113 -1.1864  0.1665  1.8297
   15SOL    HW2   59   2.009   0.384   0.977  0.0299 -0.8199  0.0848
   15SOL     MW   60   1.946   0.359   1.035 -0.0631 -0.1689  0.9195
   16SOL     OW   61   0.196   1.798   0.320 -0.0722  0.1194  0.2350
   16SOL    HW1   62   0.284   1.764   0.347  0.9966  0.7441 -0.7213
   16SOL    HW2   63   0.201   1.889   0.344  0.4568 -2.2072 -0.5699
   16SOL     MW   64   0.208   1.806   0.327  0.1386 -0.1052  0.0026
   17SOL     OW   65   1.114   0.900   1.424 -0.3659 -0.3423  0.0118
   17SOL    HW1   66   1.166   0.878   1.506  0.9731  2.2634  0.3000
   17SOL    HW2   67   1.027   0.898   1.460  0.5437  1.2412 -2.1611
   17SOL     MW   68   1.109   0.897   1.439 -0.0692  0.2104 -0.2369
   18SOL     OW   69   0.059   1.590   0.414  0.2003 -0.2366  0.3431
   18SOL    HW1   70   0.112   1.661   0.380 -3.5333 -1.2073  1.7542
   18SOL    HW2   71   0.037   1.537   0.337  0.6182  0.9236 -2.7604
   18SOL     MW   72   0.063   1.592   0.400 -0.2372 -0.2116  0.1198
   19SOL     OW   73   0.123   1.301   1.025  0.5672  0.2645 -0.2610
   19SOL    HW1   74   0.157   1.351   0.950  0.4602 -1.5937 -3.0796
   19SOL    HW2   75   0.029   1.310   1.034 -1.2984 -4.2254  0.4016
   19SOL     MW   76   0.115   1.309   1.016  0.3069 -0.5731 -0.5454
   20SOL     OW   77   0.469   2.163   1.186 -0.3383  0.0052 -0.2235
   20SOL    HW1   78   0.433   2.091   1.129 -1.2711 -1.9177 -1.5335
   20SOL    HW2   79   0.396   2.186   1.247  1.6694 -0.3953 -0.0795
   20SOL     MW   80   0.455   2.157   1.187 -0.1965 -0.3013 -0.3774
   21SOL     OW   81   0.459   0.846   0.391 -0.7120  0.4039 -0.1310
   21SOL    HW1   82   0.532   0.848   0.452 -0.5623 -1.9508  1.2428
   21SOL    HW2   83   0.505   0.828   0.311  1.3177  0.9077  1.2803
   21SOL     MW   84   0.475   0.844   0.389 -0.4245  0.1597  0.2365
   22SOL     OW   85   1.578   0.660   1.017  0.0353 -0.4717 -0.1363
   22SOL    HW1   86   1.527   0.663   0.934  2.4368 -0.8174  1.3874
   22SOL    HW2   87   1.536   0.726   1.065  1.0025 -1.1063 -1.1433
   22SOL     MW   88   1.565   0.669   1.013  0.4798 -0.6011 -0.0682
   23SOL     OW   89   3.071   0.742   0.657 -0.5530 -0.3405 -0.3052
   23SOL    HW1   90   3.118   0.669   0.708  1.5360 -0.1579  2.2133
   23SOL    HW2   91   3.134   0.806   0.682  0.0276 -1.9979  0.9505
   23SOL     MW   92   3.086   0.741   0.667 -0.2008 -0.5351  0.1928
   24SOL     OW   93   2.009   2.236   0.052  0.9863 -0.1516 -0.2766
   24SOL    HW1   94   1.997   2.224   0.151 -0.4348 -0.5299  0.3783
   24SOL    HW2   95   2.031   2.156   0.004  1.8559  0.1284 -1.4756
   24SOL     MW   96   2.011   2.224   0.058  0.9135 -0.1646 -0.3484
   25SOL     OW   97   0.239   1.407   0.541 -0.5747  0.0299  0.2928
   25SOL    HW1   98   0.174   1.472   0.524 -2.7356 -1.4446  3.4483
   25SOL    HW2   99   0.320   1.458   0.523  1.2773  2.6220 -1.5266
   25SOL     MW  100   0.241   1.422   0.536 -0.6155  0.1774  0.4691
   26SOL     OW  101   2.093   0.993   0.360  0.3763  0.3352  0.1967
   26SOL    HW1  102   2.027   1.052   0.388  3.6411 -1.1311 -2.2636
   26SOL    HW2  103   2.120   1.040   0.283 -0.2603 -1.9411 -0.4323
   26SOL     MW  104   2.088   1.007   0.353  0.7230 -0.1586 -0.2109
   27SOL     OW  105   2.027   1.428   0.249 -0.3403  0.2291 -0.1529
   27SOL    HW1  106   1.952   1.472   0.287  1.0373 -0.2724  1.5624
   27SOL    HW2  107   2.095   1.450   0.310  0.0370 -3.9965  0.8020
   27SOL     MW  108   2.026   1.437   0.262 -0.1088 -0.3946  0.1994
   28SOL     OW  109   0.456   0.975   1.955 -0.1285 -0.1217 -0.2421
   28SOL    HW1  110   0.526   0.941   2.002  0.8997  2.9565  1.9299
   28SOL    HW2  111   0.388   0.904   1.947 -1.6433 -0.1283 -1.8780
   28SOL     MW  112   0.457   0.961   1.961 -0.1927  0.2836 -0.1714
   29SOL     OW  113   0.249   1.424   0.818 -0.8578 -0.2549  0.5308
   29SOL    HW1  114   0.247   1.519   0.841  0.8256 -0.2507  0.3844
   29SOL    HW2  115   0.247   1.425   0.724 -0.4927 -0.3663 -1.0679
   29SOL     MW  116   0.249   1.436   0.809 -0.5875 -0.2690  0.3005
   30SOL     OW  117   0.812   1.197   1.231 -0.5755 -0.2568  0.4282
   30SOL    HW1  118   0.739   1.203   1.293 -0.6827 -0.0276  2.4448
   30SOL    HW2  119   0.889   1.169   1.291  1.9376 -2.8730  0.4370
   30SOL     MW  120   0.812   1.194   1.247 -0.2580 -0.5718  0.6954
   31SOL     OW  121   0.392   0.201   0.187  0.3021  0.6222 -0.5083
   31SOL    HW1  122   0.405   0.156   0.272  0.9597  1.8680 -0.8733
   31SOL    HW2  123   0.425   0.148   0.120  0.6442  1.8674 -0.0639
   31SOL     MW  124   0.398   0.188   0.189  0.4340  0.9509 -0.4978
   32SOL     OW  125   2.822   0.957   1.165  0.2719 -0.2535  0.3884
   32SOL    HW1  126   2.743   0.907   1.133  0.3750 -0.4498  0.2399
   32SOL    HW2  127   2.894   0.918   1.117 -0.1929 -2.0394  0.2423
   32SOL     MW  128   2.821   0.945   1.155  0.2242 -0.5150  0.3495
   33SOL     OW  129   1.739   1.306   0.330 -0.2883  0.1711  0.0358
   33SOL    HW1  130   1.793   1.244   0.382  0.5817 -1.1093  0.0647
   33SOL    HW2  131   1.744   1.382   0.387  1.8323  0.1197 -1.6808
   33SOL     MW  132   1.747   1.308   0.344  0.1063 -0.0046 -0.1869
   34SOL     OW  133   1.228   1.875   1.121 -0.0591  0.4258  0.2899
   34SOL    HW1  134   1.150   1.930   1.112  0.5934  2.6672 -0.6083
   34SOL    HW2  135   1.274   1.912   1.197  2.6015  0.4038  1.2977
   34SOL     MW  136   1.224   1.887   1.129  0.3780  0.7186  0.3044
   35SOL     OW  137   0.430   0.195   1.825  0.2658 -0.5750  0.2403
   35SOL    HW1  138   0.370   0.140   1.874  0.5862 -3.9808 -1.1290
   35SOL    HW2  139   0.440   0.162   1.740  0.7994  1.7006  0.0095
   35SOL     MW  140   0.424   0.183   1.820  0.3785 -0.7241  0.0292
   36SOL     OW  141   1.952   1.969   0.587  0.5915 -0.0598 -0.0311
   36SOL    HW1  142   1.969   1.982   0.495 -4.7896  0.4485 -1.1646
   36SOL    HW2  143   1.971   1.868   0.590 -0.1103 -0.2563  1.8394
   36SOL     MW  144   1.957   1.957   0.575 -0.2111 -0.0187  0.0661
   37SOL     OW  145   1.764   1.968   0.980  0.5651  0.1958 -0.0114
   37SOL    HW1  146   1.725   1.901   0.918  0.5317  0.4326 -0.9369
   37SOL    HW2  147   1.692   2.014   1.019  2.0857  0.4098 -2.1253
   37SOL     MW  148   1.749   1.965   0.977  0.7613  0.2553 -0.4124
   38SOL     OW  149   2.814   0.907   0.147  0.3510  0.5387  0.3570
   38SOL    HW1  150   2.832   0.898   0.241 -0.8067 -0.0173  2.3641
   38SOL    HW2  151   2.896   0.885   0.105 -2.0458 -0.2262 -0.9907
   38SOL     MW  152   2.827   0.903   0.154 -0.1180  0.3644  0.4440
   39SOL     OW  153   1.421   0.649   0.800  0.0821  0.1685 -0.0799
   39SOL    HW1  154   1.376   0.570   0.833 -2.0982  0.6967  1.9116
   39SOL    HW2  155   1.342   0.703   0.767 -0.9079  0.5056 -0.8389
   39SOL     MW  156   1.404   0.646   0.800 -0.3362  0.2826  0.0827
   40SOL     OW  157   1.164   1.910   0.313  0.9953  0.0893  0.2047
   40SOL    HW1  158   1.238   1.850   0.327 -0.5564  0.5085 -0.6386
   40SOL    HW2  159   1.162   1.973   0.385 -2.7824  0.7475 -0.9979
   40SOL     MW  160   1.174   1.911   0.325  0.2922  0.2314 -0.0652
   41SOL     OW  161   0.584   0.565   1.661  0.6886 -0.2256 -0.7186
   41SOL    HW1  162   0.663   0.620   1.653  0.8761 -0.5370 -1.0518
   41SOL    HW2  163   0.606   0.517   1.740  0.5832  0.3288  1.3719
   41SOL     MW  164   0.598   0.566   1.670  0.6994 -0.1936 -0.4867
   42SOL     OW  165   1.254   3.009   1.980 -0.5674 -0.2088  0.6281
   42SOL    HW1  166   1.170   3.012   2.024 -0.2566 -0.6770  0.5725
   42SOL    HW2  167   1.303   2.945   2.027 -1.0787  1.2999  1.0110
   42SOL     MW  168   1.249   3.001   1.992 -0.5938 -0.0715  0.6713
   43SOL     OW  169   1.515   0.151   1.715  0.1940 -0.2189  0.6304
   43SOL    HW1  170   1.569   0.095   1.663 -3.0341 -2.6528 -0.2322
   43SOL    HW2  171   1.431   0.100   1.731 -0.6685  0.3436 -1.8091
   43SOL     MW  172   1.511   0.137   1.710 -0.3457 -0.4658  0.1947
   44SOL     OW  173   1.052   0.789   1.024  0.6304  0.2260  0.5455
   44SOL    HW1  174   1.096   0.871   1.003 -0.4616  0.3257 -1.1450
   44SOL    HW2  175   1.088   0.770   1.110 -1.3262  0.1825  0.3153
   44SOL     MW  176   1.063   0.797   1.032  0.2282  0.2334  0.2921
   45SOL     OW  177   1.222   0.766   0.660  0.0517 -0.2696  0.3052
   45SOL    HW1  178   1.140   0.760   0.710 -1.3465  2.4625 -1.1502
   45SOL    HW2  179   1.208   0.706   0.584  1.4221 -1.0167 -4.1250
   45SOL     MW  180   1.210   0.758   0.657  0.0480 -0.0077 -0.4713
   46SOL     OW  181   0.568   1.197   0.606  0.1206 -0.1121  0.5260
   46SOL    HW1  182   0.542   1.177   0.514  3.1464 -0.0499 -1.5396
   46SOL    HW2  183   0.633   1.134   0.620 -2.2883 -0.6294 -0.4949
   46SOL     MW  184   0.573   1.186   0.596  0.2020 -0.1721  0.1187
   47SOL     OW  185   0.195   2.011   1.989  0.2720  0.5638  0.2456
   47SOL    HW1  186   0.284   1.993   2.014 -1.5596  2.1488  2.6434
   47SOL    HW2  187   0.154   1.990   2.075 -0.3170  1.6724  1.6971
   47SOL     MW  188   0.201   2.006   2.003 -0.0474  0.9192  0.7535
   48SOL     OW  189   1.079   0.509   1.009 -0.0774 -0.6308  0.2209
   48SOL    HW1  190   0.993   0.487   0.974  0.2239 -0.4002  1.6472
   48SOL    HW2  191   1.075   0.598   1.021  2.3910 -3.8987  1.4524
   48SOL     MW  192   1.067   0.518   1.006  0.2881 -1.0315  0.5716
   49SOL     OW  193   1.790   0.717   1.532 -0.1664 -0.2637 -0.4284
   49SOL    HW1  194   1.755   0.678   1.609  1.7996 -2.5106 -2.0033
   49SOL    HW2  195   1.869   0.660   1.519 -1.4140  0.1957 -3.2662
   49SOL     MW  196   1.796   0.704   1.540 -0.0716 -0.4996 -1.0106
   50SOL     OW  197   1.298   1.050   0.504  0.7324  0.3746  0.0886
   50SOL    HW1  198   1.272   1.086   0.590 -0.5921 -1.4153  2.9405
   50SOL    HW2  199   1.378   1.000   0.527  0.8642 -1.2546  0.4225
   50SOL     MW  200   1.305   1.049   0.518  0.5751 -0.0765  0.5089
   51SOL     OW  201   0.328   2.923   0.919  0.1745  0.0825  0.1596
   51SOL    HW1  202   0.410   2.872   0.917  0.2600  0.9344 -3.4153
   51SOL    HW2  203   0.319   2.954   1.011 -3.1343  2.4395  1.0466
   51SOL     MW  204   0.338   2.920   0.931 -0.2508  0.5059 -0.1950
   52SOL     OW  205   0.785   1.741   0.434 -0.0299 -0.6759 -0.4621
   52SOL    HW1  206   0.768   1.825   0.472 -0.4936  0.0636 -1.8894
   52SOL    HW2  207   0.766   1.746   0.340 -2.9593 -2.7753 -0.9366
   52SOL     MW  208   0.780   1.753   0.426 -0.4776 -0.8553 -0.7130
   53SOL     OW  209   0.451   2.115   0.545 -0.4677 -0.9383 -0.0170
   53SOL    HW1  210   0.415   2.122   0.457  1.0617  2.7536  0.1142
   53SOL    HW2  211   0.443   2.208   0.570 -0.2674  1.7837 -1.8122
   53SOL     MW  212   0.445   2.128   0.536 -0.2395 -0.0920 -0.2365
   54SOL     OW  213   2.010   0.941   0.794 -0.2122 -0.3312 -0.1683
   54SOL    HW1  214   2.072   0.953   0.724 -1.1762 -0.5729 -1.4341
   54SOL    HW2  215   1.991   0.847   0.797 -0.4439 -0.4204  0.0979
   54SOL     MW  216   2.015   0.930   0.785 -0.3699 -0.3749 -0.3002
   55SOL     OW  217   0.528   1.550   1.613  0.0933 -0.2565 -0.2286
   55SOL    HW1  218   0.468   1.602   1.562 -0.0727 -1.9965  0.4169
   55SOL    HW2  219   0.586   1.515   1.545  0.5577  0.3730  1.6877
   55SOL     MW  220   0.528   1.552   1.598  0.1326 -0.4030  0.1094
   56SOL     OW  221   0.613   0.814   0.174 -0.0991  0.4048  0.6727
   56SOL    HW1  222   0.647   0.904   0.155 -0.3388 -0.3732 -0.6763
   56SOL    HW2  223   0.552   0.786   0.104  1.3711  0.5932  0.3727
   56SOL     MW  224   0.609   0.822   0.162  0.0632  0.3270  0.4551
   57SOL     OW  225   1.148   1.284   1.164 -0.5575  0.2033  0.3707
   57SOL    HW1  226   1.238   1.298   1.115  2.1123 -3.6325  3.0676
   57SOL    HW2  227   1.178   1.248   1.245 -0.3383 -0.7329  0.3945
   57SOL     MW  228   1.164   1.281   1.168 -0.1763 -0.4263  0.7296
   58SOL     OW  229   0.578   1.174   1.362  0.2261  0.6016 -0.4544
   58SOL    HW1  230   0.544   1.259   1.352 -1.2610 -2.2122  2.7806
   58SOL    HW2  231   0.595   1.180   1.455 -0.5731  2.2556 -1.5452
   58SOL     MW  232   0.576   1.186   1.373 -0.0756  0.4486 -0.1715
   59SOL     OW  233   1.559   1.719   0.359 -0.2167 -0.3147  0.1106
   59SOL    HW1  234   1.595   1.783   0.426 -0.7953  1.3330 -0.2104
   59SOL    HW2  235   1.475   1.698   0.389 -0.5695  0.1621 -2.0068
   59SOL     MW  236   1.553   1.724   0.372 -0.3396 -0.0344 -0.2111
   60SOL     OW  237   0.047   0.209   1.601 -0.6125  0.0531  0.2606
   60SOL    HW1  238  -0.032   0.258   1.624 -3.6816  2.1458  3.8116
   60SOL    HW2  239   0.071   0.139   1.667 -0.6839 -1.1650  1.5627
   60SOL     MW  240   0.040   0.206   1.612 -1.0268  0.1685  0.9009
   61SOL     OW  241   2.003   1.482   3.082 -0.3229 -0.3711 -0.7768
   61SOL    HW1  242   2.012   1.494   3.179 -0.3498 -2.0465 -0.4114
   61SOL    HW2  243   2.065   1.410   3.064  2.7191  0.2420  3.0103
   61SOL     MW  244   2.012   1.474   3.093  0.0749 -0.5112 -0.2289
   62SOL     OW  245   0.571   1.708   0.618  0.2969 -0.2629  0.1890
   62SOL    HW1  246   0.643   1.728   0.554 -0.6842 -0.6190 -1.4578
   62SOL    HW2  247   0.561   1.619   0.635  1.2535 -1.4729 -3.3054
   62SOL     MW  248   0.579   1.699   0.612  0.2937 -0.4695 -0.4893
   63SOL     OW  249   1.693   0.677   0.703 -0.0483  0.3986  0.1403
   63SOL    HW1  250   1.708   0.729   0.622  0.0749 -0.7574  0.6895
   63SOL    HW2  251   1.604   0.699   0.734 -0.0013  1.1226  0.5590
   63SOL     MW  252   1.683   0.687   0.697 -0.0259  0.3416  0.2680
   64SOL     OW  253   0.207   1.699   0.832  0.3754  0.5140 -0.0209
   64SOL    HW1  254   0.258   1.748   0.770 -1.1933 -1.0402  2.0933
   64SOL    HW2  255   0.130   1.749   0.841  2.2418  1.0043 -1.5798
   64SOL     MW  256   0.204   1.712   0.825  0.4147  0.3736  0.0524
   65SOL     OW  257   1.590   2.304   0.371 -0.2052  0.0687 -0.5149
   65SOL    HW1  258   1.671   2.258   0.396 -1.7628 -0.7209 -0.0553
   65SOL    HW2  259   1.548   2.320   0.457 -1.8045  0.2412 -0.1817
   65SOL     MW  260   1.595   2.300   0.386 -0.6217 -0.0127 -0.4103
   66SOL     OW  261   0.295   0.520   0.544  0.2073  0.0208 -0.3187
   66SOL    HW1  262   0.380   0.509   0.491  0.8079 -1.2324 -0.0701
   66SOL    HW2  263   0.261   0.605   0.513  2.1151 -2.8646  1.1569
   66SOL     MW  264   0.302   0.530   0.533  0.5383 -0.5252 -0.0912
   67SOL     OW  265   1.519   0.080   2.047 -0.6118 -0.0456  0.1120
   67SOL    HW1  266   1.591   0.094   1.983 -1.1480  0.3049 -0.8432
   67SOL    HW2  267   1.449   0.032   2.009  1.1776  1.9908 -1.6207
   67SOL     MW  268   1.519   0.075   2.033 -0.4465  0.2694 -0.2426
   68SOL     OW  269   0.706   0.030   2.918 -0.1912 -0.1278  0.1937
   68SOL    HW1  270   0.720   0.082   2.836 -2.4834 -3.2155 -0.0200
   68SOL    HW2  271   0.791   0.027   2.964  0.3488 -0.5452  2.0335
   68SOL     MW  272   0.719   0.037   2.913 -0.4224 -0.5903  0.4083
   69SOL     OW  273   1.062   0.220   1.974 -0.0866  0.0403 -0.3513
   69SOL    HW1  274   1.150   0.243   2.000 -0.5026  0.3041 -2.3791
   69SOL    HW2  275   1.049   0.132   2.002  0.3618  0.8454  4.5691
   69SOL     MW  276   1.072   0.211   1.981 -0.0823  0.1813  0.0303
   70SOL     OW  277   0.569   1.733   1.127  0.1682 -0.2559  0.3385
   70SOL    HW1  278   0.603   1.745   1.215  2.0448 -0.9640 -1.2550
   70SOL    HW2  279   0.623   1.790   1.076 -1.1860  1.2140  1.7127
   70SOL     MW  280   0.581   1.742   1.132  0.2371 -0.1554  0.3095
   71SOL     OW  281   1.585   0.485   1.255  0.1343 -0.3414  0.0116
   71SOL    HW1  282   1.552   0.560   1.306  3.2060  0.6925  2.0461
   71SOL    HW2  283   1.590   0.521   1.164 -1.1138  1.0861  0.1099
   71SOL     MW  284   1.581   0.500   1.250  0.3749 -0.0166  0.2930
   72SOL     OW  285   0.757   1.868   0.982  0.4861  0.5820  0.6275
   72SOL    HW1  286   0.753   1.926   0.903  2.0876 -1.6537  0.7169
   72SOL    HW2  287   0.773   1.786   0.936  1.9264  0.2733 -2.0159
   72SOL     MW  288   0.758   1.865   0.965  0.8875  0.2463  0.2905
   73SOL     OW  289   1.191   0.690   1.255 -0.3708  0.1257  0.0677
   73SOL    HW1  290   1.136   0.619   1.288 -2.1146  0.6219  0.3990
   73SOL    HW2  291   1.153   0.769   1.304 -2.5315  0.0183 -0.0930
   73SOL     MW  292   1.179   0.691   1.266 -0.8860  0.1770  0.0902
   74SOL     OW  293   2.713   0.165   0.990  0.2469  0.6264  0.5032
   74SOL    HW1  294   2.792   0.148   0.945 -0.7614  0.2518  1.4839
   74SOL    HW2  295   2.686   0.258   0.979 -0.8327  0.6534  0.9934
   74SOL     MW  296   2.719   0.175   0.983 -0.0286  0.5805  0.6973
   75SOL     OW  297   1.607   1.436   0.134 -0.5596  0.3368  0.4296
   75SOL    HW1  298   1.646   1.521   0.149 -0.3479 -0.5728  0.4204
   75SOL    HW2  299   1.640   1.385   0.212  1.6340  1.5425 -1.3033
   75SOL     MW  300   1.616   1.440   0.146 -0.2423  0.3759  0.1998
   76SOL     OW  301   2.947   0.557   0.469 -0.3071  0.0714 -0.3239
   76SOL    HW1  302   2.999   0.593   0.544  0.5747  0.3411 -0.7609
   76SOL    HW2  303   3.014   0.517   0.410 -1.6101  0.2599  1.4259
   76SOL     MW  304   2.963   0.556   0.471 -0.3626  0.1318 -0.1507
   77SOL     OW  305   0.827   0.545   0.457  0.1183  0.0467  0.0482
   77SOL    HW1  306   0.807   0.561   0.362 -0.3445  0.5313  0.4609
   77SOL    HW2  307   0.782   0.466   0.477  0.8626 -2.3029 -0.8213
   77SOL     MW  308   0.818   0.537   0.447  0.1555 -0.1994 -0.0121
   78SOL     OW  309   0.746   0.903   1.278  0.6784  0.4388 -0.2089
   78SOL    HW1  310   0.780   0.978   1.236 -0.1245 -3.1596 -2.0180
   78SOL    HW2  311   0.683   0.867   1.215 -3.6342  1.8047  0.5585
   78SOL     MW  312   0.742   0.908   1.264  0.0035  0.1442 -0.3464
   79SOL     OW  313   1.960   1.702   0.578  0.1633 -0.1279 -0.3058
   79SOL    HW1  314   1.887   1.657   0.530 -2.7301 -0.0446  0.5474
   79SOL    HW2  315   1.939   1.674   0.670 -1.8547 -1.2007  0.3325
   79SOL     MW  316   1.947   1.693   0.584 -0.4847 -0.2584 -0.1090
   80SOL     OW  317   0.080   0.976   0.326 -0.1471  0.3706 -0.0376
   80SOL    HW1  318   0.003   0.919   0.326  2.2734  1.9033 -2.9766
   80SOL    HW2  319   0.135   0.915   0.375 -0.5713 -1.7252  0.7941
   80SOL     MW  320   0.077   0.960   0.332  0.1163  0.2963 -0.3156
   81SOL     OW  321   1.906   1.890   0.312  0.5195  0.1504  0.9457
   81SOL    HW1  322   1.873   1.810   0.273 -2.1407 -0.0812  3.6658
   81SOL    HW2  323   1.850   1.953   0.271 -0.4425 -2.0885  0.3533
   81SOL     MW  324   1.895   1.888   0.302  0.0416 -0.1756  1.2264
   82SOL     OW  325   0.767   1.028   0.559  0.0344 -0.1156 -0.4947
   82SOL    HW1  326   0.786   1.023   0.457  0.3136 -0.5324  0.3012
   82SOL    HW2  327   0.739   0.938   0.572  1.8236 -0.8581  0.7021
   82SOL     MW  328   0.766   1.016   0.547  0.3073 -0.2686 -0.2318
   83SOL     OW  329   0.071   0.637   1.450  0.3319  0.3453 -0.0278
   83SOL    HW1  330   0.098   0.687   1.370 -0.3158  0.6929  0.6308
   83SOL    HW2  331   0.138   0.568   1.472  1.9105 -0.3358 -2.9050
   83SOL     MW  332   0.083   0.635   1.443  0.4547  0.3013 -0.3205
   84SOL     OW  333   0.138   0.234   1.024  0.7332 -0.2045 -0.4775
   84SOL    HW1  334   0.066   0.288   0.986  1.3586 -0.9959  0.7102
   84SOL    HW2  335   0.095   0.155   1.062 -1.5857  2.1585  2.8925
   84SOL     MW  336   0.123   0.231   1.024  0.5098  0.0028  0.1239
   85SOL     OW  337   0.477   0.424   0.778  0.0090 -0.1227  0.3479
   85SOL    HW1  338   0.431   0.449   0.695  1.4589 -0.4373  1.3020
   85SOL    HW2  339   0.423   0.346   0.801 -0.4049  1.1660  0.9464
   85SOL     MW  340   0.464   0.417   0.770  0.1457  0.0058  0.5527
   86SOL     OW  341   1.179   0.250   1.134  0.1150  0.1049 -0.3221
   86SOL    HW1  342   1.127   0.318   1.098  2.6191 -0.6925  1.5630
   86SOL    HW2  343   1.213   0.294   1.209 -1.4417 -0.7007  0.6687
   86SOL     MW  344   1.177   0.264   1.139  0.2400 -0.1066  0.0574
   87SOL     OW  345   1.277   1.485   1.302 -0.2047  0.7450  0.2535
   87SOL    HW1  346   1.298   1.533   1.219  0.5473 -2.0565 -1.2886
   87SOL    HW2  347   1.209   1.427   1.267 -0.4661 -2.0851 -1.4798
   87SOL     MW  348   1.271   1.484   1.286 -0.1400  0.0019 -0.1787
   88SOL     OW  349   1.191   1.066   0.964  0.4312  0.2445  0.0567
   88SOL    HW1  350   1.279   1.027   0.972  0.0332  2.3658 -0.0550
   88SOL    HW2  351   1.175   1.125   1.034 -3.6471 -0.5496 -2.1383
   88SOL     MW  352   1.201   1.069   0.974 -0.1594  0.4196 -0.2476
   89SOL     OW  353   1.713   0.730   0.369 -0.6367  0.1921  0.3915
   89SOL    HW1  354   1.732   0.638   0.381  0.3091  1.3359 -2.4502
   89SOL    HW2  355   1.800   0.761   0.334  1.1909 -0.4394  0.4799
   89SOL     MW  356   1.727   0.722   0.366 -0.2708  0.2597  0.0282
   90SOL     OW  357   0.782   1.096   2.727  0.1810 -0.5681  0.0683
   90SOL    HW1  358   0.855   1.030   2.736  2.4647 -1.8461  1.2313
   90SOL    HW2  359   0.801   1.128   2.818  2.9076  0.9900  4.0936
   90SOL     MW  360   0.794   1.092   2.740  0.8421 -0.5311  0.7529
   91SOL     OW  361   2.193   0.669   0.420 -0.3833  0.1976 -0.0285
   91SOL    HW1  362   2.264   0.707   0.370  0.0225 -1.1493 -3.1261
   91SOL    HW2  363   2.190   0.572   0.411 -1.4543 -1.0296 -0.0436
   91SOL     MW  364   2.202   0.661   0.412 -0.4710 -0.1420 -0.4392
   92SOL     OW  365   1.754   0.926   0.549  0.2173  0.0381 -0.1326
   92SOL    HW1  366   1.662   0.914   0.586  1.1851  1.5897 -0.9813
   92SOL    HW2  367   1.752   0.856   0.483 -1.7811  1.9893 -0.1901
   92SOL     MW  368   1.741   0.915   0.545  0.0813  0.5003 -0.2522
   93SOL     OW  369   0.965   0.245   0.406 -0.3284  0.2954  0.2146
   93SOL    HW1  370   0.882   0.280   0.437  0.3831  0.2808  0.1096
   93SOL    HW2  371   0.973   0.278   0.315 -2.6323 -0.4921 -1.1913
   93SOL     MW  372   0.955   0.254   0.398 -0.5385  0.1896  0.0152
   94SOL     OW  373   1.831   1.391   1.607 -0.0142 -0.0787  0.7814
   94SOL    HW1  374   1.849   1.381   1.514  0.9317  0.4836 -1.4099
   94SOL    HW2  375   1.833   1.299   1.639  0.6376 -2.4910 -1.0242
   94SOL     MW  376   1.834   1.377   1.599  0.1966 -0.3228  0.2540
   95SOL     OW  377   0.796   1.565   0.921  0.4387 -0.2895 -0.0046
   95SOL    HW1  378   0.835   1.524   0.998  3.9988  0.7794 -0.1374
   95SOL    HW2  379   0.702   1.554   0.933  0.1395  1.5076 -1.7828
   95SOL     MW  380   0.789   1.558   0.933  0.8689  0.0886 -0.2568
   96SOL     OW  381   1.236   1.877   1.652 -0.8867 -0.2708  0.7438
   96SOL    HW1  382   1.154   1.871   1.693  2.3060  1.7538 -1.7025
   96SOL    HW2  383   1.267   1.784   1.639 -1.8215  4.5650 -0.7278
   96SOL     MW  384   1.230   1.864   1.656 -0.5888  0.6344  0.2269
   97SOL     OW  385   1.249   1.463   0.773  0.2586 -0.3490  0.5445
   97SOL    HW1  386   1.242   1.503   0.859 -1.5599  0.0104 -0.7566
   97SOL    HW2  387   1.161   1.496   0.738 -1.2944 -0.1626  2.3631
   97SOL     MW  388   1.236   1.473   0.780 -0.1862 -0.2770  0.6128
   98SOL     OW  389   1.419   1.263   1.048  0.5671  0.2152 -0.4691
   98SOL    HW1  390   1.498   1.264   1.093 -0.1488  0.8411  1.4825
   98SOL    HW2  391   1.438   1.307   0.965 -1.2936 -0.3607  0.2950
   98SOL     MW  392   1.432   1.269   1.043  0.2272  0.2218 -0.1108
   99SOL     OW  393   1.332   0.344   1.352  0.2125  0.0129 -0.2244
   99SOL    HW1  394   1.383   0.383   1.284 -0.7712  2.8863 -1.4704
   99SOL    HW2  395   1.385   0.333   1.433  1.4198 -1.1792 -0.4659
   99SOL     MW  396   1.345   0.347   1.354  0.2420  0.2347 -0.4207
  100SOL     OW  397   1.006   1.167   1.440  0.3240  0.0509 -0.5282
  100SOL    HW1  398   1.030   1.205   1.521 -0.3686  1.8045 -2.7332
  100SOL    HW2  399   1.024   1.072   1.439 -2.1592 -1.2527 -0.2278
  100SOL     MW  400   1.011   1.159   1.450 -0.0950  0.1103 -0.7795
  101SOL     OW  401   0.482   1.117   0.348 -0.1477  0.0401 -0.6900
  101SOL    HW1  402   0.473   1.021   0.362 -0.5138 -2.0460 -0.0896
  101SOL    HW2  403   0.492   1.139   0.258  1.8056  0.4760  2.0101
  101SOL     MW  404   0.482   1.107   0.338  0.0617 -0.1776 -0.2546
  102SOL     OW  405   2.907   0.667   1.045 -0.3117  0.5204 -0.3321
  102SOL    HW1  406   2.977   0.734   1.039 -1.3560  1.8089 -3.3293
  102SOL    HW2  407   2.885   0.672   1.137 -2.6410 -0.0800  1.3691
  102SOL     MW  408   2.913   0.677   1.056 -0.7568  0.6112 -0.5031
  103SOL     OW  409   1.709   0.285   1.848 -1.1361 -0.3299  0.2470
  103SOL    HW1  410   1.638   0.240   1.802  1.6068  1.5923  1.9024
  103SOL    HW2  411   1.777   0.213   1.864 -2.3628 -1.4077 -0.0413
  103SOL     MW  412   1.709   0.270   1.844 -0.9361 -0.2185  0.4274
  104SOL     OW  413   0.144   1.579   1.519  0.0824 -0.3508  0.5256
  104SOL    HW1  414   0.143   1.514   1.596 -0.3349 -3.1274  2.2974
  104SOL    HW2  415   0.055   1.575   1.479  2.8158 -2.3748  2.3152
  104SOL     MW  416   0.132   1.570   1.524  0.3880 -0.9842  0.9955
  105SOL     OW  417   0.074   1.230   0.429  0.5212  0.1319  0.2253
  105SOL    HW1  418   0.093   1.135   0.412 -1.3539  1.8514  0.5953
  105SOL    HW2  419   0.145   1.280   0.465 -0.6776 -1.3379 -0.5933
  105SOL     MW  420   0.086   1.224   0.432  0.1157  0.1648  0.1661
  106SOL     OW  421   0.846   0.339   0.975 -0.2714 -0.2522 -0.1346
  106SOL    HW1  422   0.783   0.406   0.942 -1.7298  0.5590  1.1521
  106SOL    HW2  423   0.899   0.301   0.903 -0.8676  0.5320 -1.2100
  106SOL     MW  424   0.845   0.343   0.961 -0.5425 -0.0417 -0.1067
  107SOL     OW  425   0.816   2.179   2.951  0.0954  0.0068 -0.1528
  107SOL    HW1  426   0.749   2.169   2.881 -1.2876  2.3741  1.7040
  107SOL    HW2  427   0.784   2.115   3.020  1.9167  0.4348  0.7938
  107SOL     MW  428   0.803   2.169   2.951  0.1532  0.3756  0.2171
  108SOL     OW  429   1.340   1.600   1.644  0.4510 -0.5740 -0.2013
  108SOL    HW1  430   1.298   1.559   1.575  0.1741 -3.0025  0.6550
  108SOL    HW2  431   1.432   1.577   1.644 -0.6098  3.6079  0.1859
  108SOL     MW  432   1.347   1.592   1.635  0.2745 -0.3427 -0.0373
  109SOL     OW  433   1.949   0.771   0.213 -0.0490 -0.3596 -0.1591
  109SOL    HW1  434   1.987   0.782   0.128  1.1298  1.7398 -0.8879
  109SOL    HW2  435   2.020   0.817   0.262  1.7864 -3.8661  0.6751
  109SOL     MW  436   1.963   0.778   0.208  0.3487 -0.5453 -0.1452
  110SOL     OW  437   0.340   1.874   0.659 -0.3045  0.3139 -0.3588
  110SOL    HW1  438   0.416   1.821   0.628  0.2156  1.0049 -3.6835
  110SOL    HW2  439   0.367   1.958   0.622 -0.5623  0.2055 -1.9581
  110SOL     MW  440   0.354   1.878   0.650 -0.2699  0.3908 -1.0085
  111SOL     OW  441   0.864   0.917   1.524 -0.0823 -0.1407  0.2155
  111SOL    HW1  442   0.814   0.890   1.441 -1.5617  0.9677 -3.1738
  111SOL    HW2  443   0.844   0.840   1.575 -0.2548  0.2247 -1.4673
  111SOL     MW  444   0.855   0.903   1.520 -0.3003  0.0537 -0.4537
  112SOL     OW  445   1.316   1.139   1.614 -0.4851  0.1416 -0.4373
  112SOL    HW1  446   1.237   1.195   1.637 -0.2530  0.4558 -1.5627
  112SOL    HW2  447   1.286   1.047   1.634 -1.3934 -0.7503  0.2302
  112SOL     MW  448   1.301   1.134   1.619 -0.5743  0.0654 -0.4977
  113SOL     OW  449   1.288   3.095   1.727  0.0169  0.3463 -0.1460
  113SOL    HW1  450   1.270   3.050   1.811 -0.8433  3.3678  2.9059
  113SOL    HW2  451   1.303   3.020   1.665  1.5836 -1.3006 -0.5719
  113SOL     MW  452   1.288   3.079   1.730  0.1101  0.5276  0.2005
  114SOL     OW  453   0.303   2.878   1.957  0.0808 -0.5042 -0.5778
  114SOL    HW1  454   0.355   2.950   2.008 -1.2329  3.2859  1.4331
  114SOL    HW2  455   0.332   2.892   1.867 -0.7356  0.8429  0.3866
  114SOL     MW  456   0.314   2.889   1.952 -0.2002  0.1736 -0.1852
  115SOL     OW  457   0.502   0.837   1.103  0.0680 -0.1365 -0.0867
  115SOL    HW1  458   0.505   0.740   1.125  0.1452  1.0953  1.6772
  115SOL    HW2  459   0.469   0.877   1.188  1.4819  0.1491  1.6622
  115SOL     MW  460   0.498   0.829   1.117  0.2647  0.0637  0.3768
  116SOL     OW  461   0.777   1.099   0.952 -0.3898 -0.0697  0.8246
  116SOL    HW1  462   0.839   1.119   0.873 -0.0687  3.4786  0.2208
  116SOL    HW2  463   0.820   1.128   1.028  1.2142 -0.8382 -2.4611
  116SOL     MW  464   0.791   1.106   0.951 -0.1358  0.2971  0.3114
  117SOL     OW  465   1.211   1.184   0.720  0.3901  0.5449 -0.2974
  117SOL    HW1  466   1.200   1.131   0.804  0.4699  0.9106 -0.5269
  117SOL    HW2  467   1.237   1.270   0.747  0.6323  2.4246 -1.0829
  117SOL     MW  468   1.213   1.189   0.735  0.4326  0.8412 -0.4313
  118SOL     OW  469   3.037   2.973   1.713  0.1534 -0.4006  0.0477
  118SOL    HW1  470   3.084   3.037   1.769 -0.9775  0.0553 -1.8107
  118SOL    HW2  471   2.944   3.013   1.709 -0.3162  4.2903  1.2943
  118SOL     MW  472   3.031   2.987   1.720 -0.0578  0.2785 -0.0330
  119SOL     OW  473   0.460   1.492   1.289  0.5961 -0.2341 -0.3833
  119SOL    HW1  474   0.495   1.536   1.213  3.3933  1.0892  1.4241
  119SOL    HW2  475   0.370   1.494   1.260  0.7152  0.2549 -1.5546
  119SOL     MW  476   0.453   1.498   1.275  0.9808  0.0050 -0.2994
  120SOL     OW  477   0.267   0.690   1.007  0.0133  0.0089 -0.3556
  120SOL    HW1  478   0.242   0.621   1.074 -1.2264 -0.6017  0.3506
  120SOL    HW2  479   0.300   0.765   1.051  0.7118  0.2267 -0.7560
  120SOL     MW  480   0.268   0.691   1.022 -0.0581 -0.0429 -0.3152
  121SOL     OW  481   1.719   1.149   1.743  0.3872 -0.8102 -0.1241
  121SOL    HW1  482   1.625   1.132   1.768 -1.5409  0.0160  1.9795
  121SOL    HW2  483   1.746   1.076   1.689 -0.1553  1.3295  1.0090
  121SOL     MW  484   1.710   1.137   1.739  0.0612 -0.4189  0.3029
  122SOL     OW  485   0.121   0.558   0.784  0.3079  0.2247  0.4755
  122SOL    HW1  486   0.175   0.523   0.711  1.1453  1.1907  0.5026
  122SOL    HW2  487   0.189   0.598   0.843  0.1374 -1.9251  1.2932
  122SOL     MW  488   0.137   0.558   0.782  0.3959  0.0685  0.5869
  123SOL     OW  489   1.874   1.155   0.508 -0.1281  0.2612  0.1329
  123SOL    HW1  490   1.819   1.077   0.525 -1.7328  0.1809 -1.0978
  123SOL    HW2  491   1.909   1.173   0.597  0.7765 -1.9425  1.9466
  123SOL     MW  492   1.871   1.147   0.522 -0.2205 -0.0402  0.2098
  124SOL     OW  493   0.676   0.549   0.916  0.2102 -0.2997  0.0434
  124SOL    HW1  494   0.595   0.523   0.863 -3.2040 -0.4567  0.7057
  124SOL    HW2  495   0.677   0.643   0.899 -0.7488  1.8090  1.2347
  124SOL     MW  496   0.666   0.558   0.906 -0.3668 -0.0422  0.2880
  125SOL     OW  497   0.630   1.795   1.728  0.0698 -0.0364  0.7682
  125SOL    HW1  498   0.577   1.720   1.699  1.3059  0.6546  0.8261
  125SOL    HW2  499   0.584   1.881   1.698 -0.8684  2.9146  3.1423
  125SOL     MW  500   0.617   1.797   1.720  0.1091  0.4441  1.0891
  126SOL     OW  501   2.064   1.573   1.948 -0.0502 -0.1250  0.2167
  126SOL    HW1  502   2.130   1.641   1.966 -1.0452  0.8594 -1.4244
  126SOL    HW2  503   2.122   1.497   1.955  1.2197  0.6053 -0.4324
  126SOL     MW  504   2.080   1.572   1.951 -0.0139  0.1012 -0.0854
  127SOL     OW  505   0.650   0.800   1.836 -0.2480 -0.1531 -0.1626
  127SOL    HW1  506   0.729   0.752   1.854 -0.8566  2.2869 -0.0917
  127SOL    HW2  507   0.676   0.884   1.877 -1.2903  0.8746 -1.7564
  127SOL     MW  508   0.664   0.805   1.844 -0.4658  0.3044 -0.3635
  128SOL     OW  509   1.787   0.745   2.932  0.2405  0.5971 -0.2233
  128SOL    HW1  510   1.790   0.708   2.842  1.8771  0.5024 -0.4834
  128SOL    HW2  511   1.762   0.839   2.920 -0.0778 -1.2493  1.4612
  128SOL     MW  512   1.784   0.753   2.918  0.4145  0.3410 -0.0354
  129SOL     OW  513   1.575   0.931   0.214 -0.1986 -0.3184  0.2656
  129SOL    HW1  514   1.519   0.865   0.168 -0.8228 -0.7429  1.9340
  129SOL    HW2  515   1.634   0.874   0.268 -0.9200 -2.9269 -0.2620
  129SOL     MW  516   1.575   0.915   0.215 -0.3762 -0.7186  0.4161
  130SOL     OW  517   0.756   1.375   0.326 -0.1711  0.1790 -0.5816
  130SOL    HW1  518   0.798   1.385   0.418 -1.0870 -2.0117  1.1801
  130SOL    HW2  519   0.800   1.436   0.276 -1.8170 -1.7797  0.6705
  130SOL     MW  520   0.767   1.385   0.332 -0.5091 -0.3684 -0.1840
  131SOL     OW  521   3.068   0.808   0.018 -0.1670  0.3882 -0.0937
  131SOL    HW1  522   3.076   0.861  -0.056  0.9872 -0.5344  2.4030
  131SOL    HW2  523   3.139   0.744   0.007 -1.6556  1.2078  2.7131
  131SOL     MW  524   3.079   0.806   0.007 -0.2111  0.3746  0.6060
  132SOL     OW  525   2.692   0.134   1.259  0.1251  0.2960  0.5111
  132SOL    HW1  526   2.699   0.140   1.153  1.2520 -1.4583 -1.1405
  132SOL    HW2  527   2.610   0.093   1.270  1.3122 -1.2101 -1.1707
  132SOL     MW  528   2.682   0.130   1.246  0.4304 -0.1342  0.0713
  133SOL     OW  529   1.052   0.146   1.691  0.2291 -0.3551 -0.0417
  133SOL    HW1  530   1.131   0.092   1.680 -0.9017 -2.1349 -0.9996
  133SOL    HW2  531   1.040   0.157   1.784  2.5275 -0.9687 -1.6750
  133SOL     MW  532   1.060   0.140   1.702  0.3831 -0.6709 -0.3836
  134SOL     OW  533   1.386   2.536   1.433  0.6513  0.1910 -0.1308
  134SOL    HW1  534   1.311   2.594   1.426 -0.8705  1.6482 -1.1135
  134SOL    HW2  535   1.414   2.559   1.524  3.2531 -2.6355  0.2651
  134SOL     MW  536   1.380   2.547   1.444  0.7938  0.0103 -0.2082
  135SOL     OW  537   3.004   0.973   2.858  0.1656  0.2308  0.5449
  135SOL    HW1  538   3.092   1.000   2.873  0.3677 -3.0712  0.3099
  135SOL    HW2  539   2.956   1.059   2.860 -2.9860 -0.1782  1.3475
  135SOL     MW  540   3.009   0.988   2.860 -0.2236 -0.2588  0.6198
  136SOL     OW  541   0.168   2.014   0.817 -0.2369 -0.6833 -0.4433
  136SOL    HW1  542   0.083   1.983   0.786 -0.2157 -1.8127 -0.0292
  136SOL    HW2  543   0.231   1.975   0.752  3.4215  0.0503 -1.1278
  136SOL     MW  544   0.165   2.005   0.805  0.2486 -0.7355 -0.4789
  137SOL     OW  545   0.716   2.038   0.523  0.8552 -0.1816  0.1656
  137SOL    HW1  546   0.744   2.061   0.616 -2.6774  0.4033  1.8396
  137SOL    HW2  547   0.619   2.061   0.513  0.0098  2.7753  4.4525
  137SOL     MW  548   0.707   2.044   0.534  0.2775  0.2857  0.9521
  138SOL     OW  549   0.521   0.582   1.142 -0.3126 -0.1472  0.8198
  138SOL    HW1  550   0.435   0.564   1.100 -0.5955  0.9664 -1.8189
  138SOL    HW2  551   0.585   0.561   1.072 -0.6352  0.9752  1.4277
  138SOL     MW  552   0.518   0.577   1.127 -0.3925  0.1478  0.5519
  139SOL     OW  553   2.769   0.631   1.316 -0.0692  0.1234 -0.9614
  139SOL    HW1  554   2.780   0.540   1.354 -2.8681  0.8583  1.1629
  139SOL    HW2  555   2.823   0.683   1.375  1.2578  1.3327  1.0527
  139SOL     MW  556   2.778   0.626   1.329 -0.2634  0.3799 -0.4154
  140SOL     OW  557   0.882   0.404   2.074  1.2335  0.0635 -0.1884
  140SOL    HW1  558   0.939   0.338   2.031 -0.5951  2.6046 -0.9326
  140SOL    HW2  559   0.898   0.394   2.166 -2.0261  0.1113 -0.0290
  140SOL     MW  560   0.892   0.394   2.080  0.5621  0.4051 -0.2656
  141SOL     OW  561   1.060   0.668   1.746 -0.3029  0.4731  0.5603
  141SOL    HW1  562   1.095   0.580   1.728 -1.4418  1.2750 -1.8678
  141SOL    HW2  563   1.127   0.727   1.717 -0.3800 -3.2095 -0.7648
  141SOL     MW  564   1.074   0.664   1.740 -0.4633  0.0930  0.0651
  142SOL     OW  565   0.918   1.187   0.713  0.2626 -0.1310  0.0992
  142SOL    HW1  566   0.875   1.115   0.663 -0.6818  1.0749  0.3159
  142SOL    HW2  567   1.013   1.186   0.717 -1.6910 -0.6062 -3.7309
  142SOL     MW  568   0.925   1.178   0.707 -0.1198 -0.0346 -0.3776
  143SOL     OW  569   1.825   0.779   1.093  0.3457 -0.8793 -0.7116
  143SOL    HW1  570   1.908   0.770   1.042  3.7138 -0.1046  0.4102
  143SOL    HW2  571   1.758   0.720   1.053  0.0617 -2.7049 -0.2389
  143SOL     MW  572   1.827   0.770   1.081  0.7526 -1.0180 -0.5012
  144SOL     OW  573   0.263   1.200   1.623 -0.1111  0.3056  0.4736
  144SOL    HW1  574   0.358   1.197   1.602 -1.0039 -1.2780  0.5942
  144SOL    HW2  575   0.279   1.206   1.716  2.3347 -1.0975 -0.0027
  144SOL     MW  576   0.278   1.200   1.632  0.0938 -0.0884  0.4267
  145SOL     OW  577   0.226   0.489   1.158 -0.0790  0.2609 -0.6321
  145SOL    HW1  578   0.265   0.435   1.221 -1.0524 -1.2912  2.0560
  145SOL    HW2  579   0.154   0.424   1.139  0.9552  3.6971 -0.7374
  145SOL     MW  580   0.222   0.473   1.164 -0.0710  0.5095 -0.2913
  146SOL     OW  581   0.863   1.953   1.353 -0.3609  0.0918 -0.0779
  146SOL    HW1  582   0.907   1.958   1.266 -1.0640  1.0811  1.2319
  146SOL    HW2  583   0.773   1.923   1.343 -0.9296 -0.1353  3.8468
  146SOL     MW  584   0.857   1.950   1.340 -0.5287  0.1924  0.6127
  147SOL     OW  585   0.447   0.463   2.956  0.1867 -0.0566  0.7831
  147SOL    HW1  586   0.389   0.456   3.029  0.9862  0.2037 -0.4548
  147SOL    HW2  587   0.390   0.515   2.895 -0.1250 -0.2172  0.2421
  147SOL     MW  588   0.432   0.469   2.957  0.2511 -0.0435  0.5484
  148SOL     OW  589   0.153   0.860   1.285  0.0268  0.3678 -0.0691
  148SOL    HW1  590   0.249   0.895   1.307 -0.8275  2.6603  0.1834
  148SOL    HW2  591   0.096   0.912   1.347 -0.1681  0.3314  2.3589
  148SOL     MW  592   0.158   0.871   1.296 -0.1116  0.6655  0.2845
  149SOL     OW  593   1.332   1.180   1.337  0.6389  0.4933  0.6473
  149SOL    HW1  594   1.315   1.177   1.432  0.3329  0.5763  0.0947
  149SOL    HW2  595   1.401   1.247   1.325  0.9317  0.1881 -0.7948
  149SOL     MW  596   1.339   1.189   1.348  0.6372  0.4640  0.3841
  150SOL     OW  597   1.818   1.320   0.749 -0.3375  0.0216  0.6078
  150SOL    HW1  598   1.852   1.265   0.817 -1.3339 -1.3878 -1.0750
  150SOL    HW2  599   1.826   1.409   0.780 -1.2260 -0.3593  0.1005
  150SOL     MW  600   1.824   1.324   0.762 -0.5862 -0.2146  0.3188
  151SOL     OW  601   1.645   1.775   0.809 -0.1374 -0.6617 -0.5342
  151SOL    HW1  602   1.648   1.778   0.714 -1.5783  1.7926  0.4954
  151SOL    HW2  603   1.579   1.697   0.813 -2.2943 -1.2245 -0.7644
  151SOL     MW  604   1.637   1.765   0.797 -0.6121 -0.4121 -0.4287
  152SOL     OW  605   0.765   1.374   1.503  0.2197  0.3708  0.2441
  152SOL    HW1  606   0.758   1.329   1.587 -1.7336 -1.0807 -0.0790
  152SOL    HW2  607   0.847   1.342   1.463  1.1231 -0.6822 -1.2712
  152SOL     MW  608   0.774   1.364   1.508  0.0812  0.0403  0.0015
  153SOL     OW  609   2.610   1.210   0.792 -0.0367 -0.0389  0.2588
  153SOL    HW1  610   2.681   1.173   0.725 -0.1828  2.1866 -1.9248
  153SOL    HW2  611   2.545   1.141   0.811 -1.1268 -2.8814  1.1596
  153SOL     MW  612   2.611   1.196   0.786 -0.1998 -0.1203  0.0896
  154SOL     OW  613   0.228   1.800   1.699  0.1152 -0.4184  0.2989
  154SOL    HW1  614   0.188   1.734   1.646 -5.0237  0.6750  0.0942
  154SOL    HW2  615   0.240   1.765   1.787  1.8189  0.2271  0.6164
  154SOL     MW  616   0.224   1.787   1.704 -0.3380 -0.1890  0.3138
  155SOL     OW  617   1.222   0.694   0.202 -0.0999  0.2287 -0.2248
  155SOL    HW1  618   1.166   0.646   0.269 -0.4509 -2.7005  1.1930
  155SOL    HW2  619   1.205   0.785   0.233  1.2938  2.0689 -0.3570
  155SOL     MW  620   1.212   0.700   0.215  0.0376  0.0850 -0.0552
  156SOL     OW  621   1.486   3.060   1.122 -0.4051 -0.7226 -0.3987
  156SOL    HW1  622   1.567   3.113   1.112  0.8095 -0.6209 -0.0448
  156SOL    HW2  623   1.519   2.978   1.156  3.2044  2.2248  2.9004
  156SOL     MW  624   1.501   3.056   1.125  0.2314 -0.3203  0.0833
  157SOL     OW  625   1.452   1.173   0.125  0.0418  0.7689  0.0632
  157SOL    HW1  626   1.496   1.101   0.179  1.5209 -2.5278  2.8139
  157SOL    HW2  627   1.519   1.247   0.111 -0.8481  0.9366  1.5873
  157SOL     MW  628   1.466   1.173   0.130  0.1195  0.3561  0.6272
  158SOL     OW  629   0.544   1.652   2.215 -0.0068 -0.0572  0.2577
  158SOL    HW1  630   0.558   1.725   2.152 -2.3823 -0.1083  0.0579
  158SOL    HW2  631   0.479   1.679   2.276  2.1282 -1.7749 -2.4128
  158SOL     MW  632   0.537   1.665   2.215 -0.0386 -0.2906 -0.1210
  159SOL     OW  633   1.285   1.665   0.436 -0.4743 -0.4503 -0.0297
  159SOL    HW1  634   1.253   1.595   0.380 -0.2314 -0.0691 -0.0196
  159SOL    HW2  635   1.201   1.694   0.485  0.3104 -1.1270  2.5381
  159SOL     MW  636   1.270   1.660   0.435 -0.3388 -0.4893  0.3104
  160SOL     OW  637   0.542   1.149   1.626  0.0967  0.0124  0.4563
  160SOL    HW1  638   0.521   1.053   1.628 -1.3138  1.4060 -0.7369
  160SOL    HW2  639   0.620   1.157   1.685  1.4638 -0.7872  1.1574
  160SOL     MW  640   0.550   1.137   1.634  0.0910  0.0907  0.3914
  161SOL     OW  641   0.512   2.259   2.559  0.3140  0.7777  0.1370
  161SOL    HW1  642   0.417   2.273   2.581 -1.1201  0.1228  2.3773
  161SOL    HW2  643   0.520   2.196   2.488  0.5533  0.6884 -1.6624
  161SOL     MW  644   0.500   2.252   2.552  0.1563  0.6795  0.1952
  162SOL     OW  645   1.063   1.785   1.892  0.6023  0.3582  0.1479
  162SOL    HW1  646   1.086   1.865   1.940  0.4604  0.3735  2.3171
  162SOL    HW2  647   0.965   1.781   1.894 -0.4546  4.5843  2.0602
  162SOL     MW  648   1.053   1.795   1.899  0.4442  0.9178  0.6864
  163SOL     OW  649   2.115   0.019   0.916 -0.8908 -0.2637 -0.5224
  163SOL    HW1  650   2.102   0.102   0.861  0.2589  0.7051 -0.9325
  163SOL    HW2  651   2.099  -0.055   0.863  0.3753 -1.8021  3.7091
  163SOL     MW  652   2.111   0.020   0.902 -0.5721 -0.3389 -0.0182
  164SOL     OW  653   0.333   0.208   0.841 -0.4302  0.3741 -0.5962
  164SOL    HW1  654   0.257   0.222   0.906 -0.1958 -1.4046  3.4991
  164SOL    HW2  655   0.316   0.131   0.795 -0.1421  0.0987 -0.3617
  164SOL     MW  656   0.321   0.200   0.844 -0.3613  0.1031 -0.0249
  165SOL     OW  657   1.356   1.272   0.353  0.5351  0.2654 -0.0977
  165SOL    HW1  658   1.323   1.193   0.394 -1.7833 -0.7226 -1.0209
  165SOL    HW2  659   1.380   1.228   0.267 -1.2990 -1.8238 -1.6262
  165SOL     MW  660   1.355   1.256   0.347 -0.0128 -0.1406 -0.4212
  166SOL     OW  661   0.527   1.194   1.008 -0.0404  0.4625 -0.2312
  166SOL    HW1  662   0.542   1.176   1.102  0.6952  0.3343 -2.7913
  166SOL    HW2  663   0.615   1.160   0.976  2.5340  0.0669  2.0716
  166SOL     MW  664   0.540   1.187   1.016  0.3963  0.3934 -0.2651
  167SOL     OW  665   0.794   1.035   0.294 -0.5020  0.3042  0.3473
  167SOL    HW1  666   0.721   1.108   0.294 -1.1666  5.2896  1.5977
  167SOL    HW2  667   0.866   1.066   0.235  3.1452  3.3939  1.4845
  167SOL     MW  668   0.794   1.049   0.286 -0.1085  1.3696  0.6624
  168SOL     OW  669   1.685   1.657   3.055 -0.3331  0.1461  0.3299
  168SOL    HW1  670   1.629   1.672   2.983  1.6104 -1.3730  0.4016
  168SOL    HW2  671   1.715   1.571   3.039 -0.1149  4.1767 -0.3415
  168SOL     MW  672   1.681   1.647   3.043 -0.0479  0.4775  0.2508
  169SOL     OW  673   0.398   0.952   1.354  0.0242  0.3889  0.0247
  169SOL    HW1  674   0.425   0.921   1.438 -2.1769  1.3307 -2.2825
  169SOL    HW2  675   0.454   1.029   1.350  0.8911 -0.9016  1.6106
  169SOL     MW  676   0.409   0.958   1.364 -0.1519  0.3429 -0.0705
  170SOL     OW  677   1.031   1.520   1.526  0.2013  0.6842  0.2017
  170SOL    HW1  678   0.970   1.591   1.556 -0.3823  0.6771  0.0607
  170SOL    HW2  679   1.065   1.548   1.438 -2.3184  0.0624  0.6345
  170SOL     MW  680   1.027   1.533   1.518 -0.2082  0.6012  0.2402
  171SOL     OW  681   0.500   1.448   0.636 -0.2630 -0.1532  0.4435
  171SOL    HW1  682   0.494   1.460   0.737 -0.2004  0.6475  1.8769
  171SOL    HW2  683   0.518   1.349   0.627  0.8468 -1.8960 -2.2519
  171SOL     MW  684   0.502   1.437   0.648 -0.1083 -0.2775  0.2770
  172SOL     OW  685   0.875   0.351   1.253  0.8727  0.1290  0.2760
  172SOL    HW1  686   0.896   0.365   1.158 -1.0166  1.3016 -1.3657
  172SOL    HW2  687   0.786   0.372   1.283  2.0458  0.3103 -0.2397
  172SOL     MW  688   0.866   0.355   1.244  0.7782  0.3077 -0.0086
  173SOL     OW  689   0.434   1.692   0.378  0.1786 -0.3093 -0.1397
  173SOL    HW1  690   0.454   1.608   0.329  0.2883 -1.1634  1.2117
  173SOL    HW2  691   0.478   1.692   0.467 -1.3456  1.9454 -0.0585
  173SOL     MW  692   0.442   1.681   0.383 -0.0080 -0.1245  0.0493
  174SOL     OW  693   1.825   0.978   1.554  0.3993 -0.0121  0.2782
  174SOL    HW1  694   1.798   0.883   1.547 -0.5855 -1.7027  0.7631
  174SOL    HW2  695   1.803   1.006   1.462 -0.4710  1.2124  2.7120
  174SOL     MW  696   1.818   0.969   1.541  0.1545 -0.0736  0.6633
  175SOL     OW  697   0.504   1.479   0.246  0.0545 -0.5147 -0.3995
  175SOL    HW1  698   0.452   1.408   0.216 -3.0736 -1.2469 -1.1200
  175SOL    HW2  699   0.587   1.441   0.279 -1.3518 -0.0224  0.1804
  175SOL     MW  700   0.508   1.464   0.247 -0.5438 -0.5463 -0.4181
  176SOL     OW  701   0.187   1.498   1.200  0.3229  0.3946 -0.5694
  176SOL    HW1  702   0.173   1.420   1.148  0.0767 -0.5464 -0.2415
  176SOL    HW2  703   0.100   1.505   1.253  3.2853  1.6872 -1.2289
  176SOL     MW  704   0.173   1.489   1.200  0.6813  0.4410 -0.6131
  177SOL     OW  705   0.655   0.464   1.405  0.1026  0.7251  0.4664
  177SOL    HW1  706   0.598   0.522   1.352 -0.7248  0.0279  2.7339
  177SOL    HW2  707   0.644   0.489   1.494  1.9976  1.0513 -2.2851
  177SOL     MW  708   0.646   0.475   1.410  0.2434  0.6762  0.4025
  178SOL     OW  709   3.045   0.541   2.942 -0.4275  0.7686 -0.0939
  178SOL    HW1  710   2.979   0.576   2.998  1.5637  0.7273 -0.3873
  178SOL    HW2  711   3.007   0.509   2.854 -1.3666  2.6717  0.5260
  178SOL     MW  712   3.031   0.541   2.938 -0.2887  1.0142 -0.0508
  179SOL     OW  713   1.592   1.324   1.317  0.0854  0.1157 -0.4055
  179SOL    HW1  714   1.557   1.351   1.404 -0.1549 -2.1437 -0.1381
  179SOL    HW2  715   1.684   1.339   1.334 -2.1970  0.4334 -2.3477
  179SOL     MW  716   1.600   1.329   1.331 -0.2474 -0.1405 -0.6265
  180SOL     OW  717   3.023   0.191   0.417 -0.0718 -0.3007 -0.0022
  180SOL    HW1  718   2.985   0.189   0.327 -0.9379 -0.1280  0.3752
  180SOL    HW2  719   3.070   0.275   0.406 -1.5470  0.3805 -2.0307
  180SOL     MW  720   3.024   0.201   0.404 -0.3807 -0.1880 -0.2200
  181SOL     OW  721   1.111   1.310   3.095  0.1452  0.0498  0.0365
  181SOL    HW1  722   1.157   1.391   3.124  0.9877  4.2207 -0.8095
  181SOL    HW2  723   1.166   1.269   3.029 -1.2890  1.0219  0.9016
  181SOL     MW  724   1.124   1.315   3.090  0.0671  0.7284  0.0391
  182SOL     OW  725   0.458   0.860   1.603  0.3346 -0.7003 -0.4976
  182SOL    HW1  726   0.365   0.831   1.632  0.4415 -0.2911  0.3381
  182SOL    HW2  727   0.527   0.814   1.655  1.6803  2.0363 -2.6866
  182SOL     MW  728   0.455   0.850   1.614  0.5263 -0.2853 -0.6761
  183SOL     OW  729   1.590   1.540   1.138  0.1434  0.5289  0.2440
  183SOL    HW1  730   1.624   1.620   1.173 -0.4743 -1.0503 -0.1864
  183SOL    HW2  731   1.550   1.494   1.211  0.3823  0.8817 -1.7134
  183SOL     MW  732   1.589   1.545   1.152  0.0934  0.3671 -0.0710
  184SOL     OW  733   0.849   0.661   1.953 -0.7961 -0.0317  0.0867
  184SOL    HW1  734   0.945   0.665   1.933  0.9837 -1.3109 -0.0796
  184SOL    HW2  735   0.833   0.575   1.993 -0.3413  0.6325  0.0838
  184SOL     MW  736   0.859   0.650   1.956 -0.5013 -0.1129  0.0644
  185SOL     OW  737   1.204   0.984   1.941 -0.6254 -0.5316  0.1679
  185SOL    HW1  738   1.177   0.902   1.980  1.6781 -0.3048 -0.3564
  185SOL    HW2  739   1.217   1.039   2.013  0.8133 -0.2479 -1.2301
  185SOL     MW  740   1.202   0.981   1.955 -0.1316 -0.4642 -0.0857
  186SOL     OW  741   0.370   1.714   1.442 -0.2554 -0.0970  0.0650
  186SOL    HW1  742   0.407   1.640   1.393 -2.9589 -1.9347 -2.0843
  186SOL    HW2  743   0.282   1.674   1.461 -0.7227  0.2805 -0.5976
  186SOL     MW  744   0.363   1.699   1.438 -0.6738 -0.2897 -0.3060
  187SOL     OW  745   1.449   0.686   1.370 -0.1298  0.0824 -0.5514
  187SOL    HW1  746   1.454   0.688   1.464  1.2032 -2.1124 -1.0870
  187SOL    HW2  747   1.358   0.668   1.352  1.7784 -0.0919  1.4015
  187SOL     MW  748   1.437   0.684   1.380  0.2979 -0.2302 -0.3644
  188SOL     OW  749   1.895   1.161   0.932 -0.1392 -0.0299  0.2408
  188SOL    HW1  750   1.895   1.169   1.032  0.6454  2.0626 -0.7538
  188SOL    HW2  751   1.944   1.077   0.912  0.3053  0.1911 -2.3541
  188SOL     MW  752   1.901   1.151   0.942  0.0230  0.2754 -0.2328
  189SOL     OW  753   0.659   0.819   0.816  0.0447  0.2356  0.0914
  189SOL    HW1  754   0.575   0.861   0.847 -1.1243  2.5202  1.5624
  189SOL    HW2  755   0.724   0.867   0.864 -1.3313 -0.4794 -0.8025
  189SOL     MW  756   0.657   0.831   0.826 -0.2910  0.4427  0.1675
  190SOL     OW  757   1.904   0.215   2.157  0.3284 -0.2956  0.3980
  190SOL    HW1  758   1.898   0.236   2.252 -1.7498 -1.2974  1.7126
  190SOL    HW2  759   1.961   0.281   2.117  0.6323  1.6952  0.0325
  190SOL     MW  760   1.911   0.227   2.165  0.0943 -0.1651  0.5232
  191SOL     OW  761   1.478   0.945   1.235 -0.4765  0.3377 -0.1541
  191SOL    HW1  762   1.426   1.016   1.279  0.9322 -2.1015  1.8981
  191SOL    HW2  763   1.443   0.864   1.266  0.0043  1.3104 -1.0394
  191SOL     MW  764   1.467   0.944   1.245 -0.2272  0.1442 -0.0001
  192SOL     OW  765   0.614   2.130   2.781 -0.1953  0.2914 -0.4940
  192SOL    HW1  766   0.591   2.170   2.699 -1.4918 -1.7452 -4.0933
  192SOL    HW2  767   0.582   2.037   2.773  0.0037 -1.1042  0.1069
  192SOL     MW  768   0.607   2.123   2.769 -0.3401 -0.1614 -0.8896
  193SOL     OW  769   0.990   1.561   0.737 -0.1016  0.0060  0.3091
  193SOL    HW1  770   0.933   1.577   0.814  1.4764  0.1641 -3.1296
  193SOL    HW2  771   0.922   1.503   0.689 -4.4552  0.4622  1.7751
  193SOL     MW  772   0.973   1.555   0.741 -0.4678  0.0871  0.0489
  194SOL     OW  773   0.518   1.450   0.924  0.1172  0.2937 -0.2779
  194SOL    HW1  774   0.531   1.358   0.960  1.3614 -1.4763 -3.0131
  194SOL    HW2  775   0.425   1.460   0.914  1.0344 -0.9216  0.7194
  194SOL     MW  776   0.508   1.439   0.928  0.4024 -0.1001 -0.5072
  195SOL     OW  777   1.304   1.147   2.982  0.1826  0.5636  0.0718
  195SOL    HW1  778   1.364   1.136   3.055  2.4943  2.6448 -0.3291
  195SOL    HW2  779   1.252   1.072   2.990 -0.1767  1.4265  0.2475
  195SOL     MW  780   1.305   1.136   2.993  0.4402  0.9520  0.0421
  196SOL     OW  781   2.210   1.029   0.605  0.0033  0.5885  0.4797
  196SOL    HW1  782   2.176   0.986   0.524  0.9379  1.5239  2.7233
  196SOL    HW2  783   2.202   1.121   0.570 -1.1689  1.9830  0.7789
  196SOL     MW  784   2.205   1.035   0.590 -0.0281  0.8959  0.8152
  197SOL     OW  785   0.639   1.239   2.100 -0.2441  1.1563  0.5693
  197SOL    HW1  786   0.680   1.161   2.067  1.5922 -1.2103 -0.1822
  197SOL    HW2  787   0.614   1.283   2.017  0.2388 -1.4015 -3.3084
  197SOL     MW  788   0.641   1.234   2.085  0.0619  0.5066 -0.0415
  198SOL     OW  789   2.940   1.381   1.089 -0.4942  0.2410  0.0088
  198SOL    HW1  790   2.890   1.461   1.071  0.5984  2.1298  0.9778
  198SOL    HW2  791   2.880   1.309   1.074  1.3498  1.3862  2.3804
  198SOL     MW  792   2.925   1.382   1.085 -0.1067  0.6413  0.4495
  199SOL     OW  793   0.528   1.408   1.888 -0.4549  0.1198 -0.2126
  199SOL    HW1  794   0.485   1.329   1.866  0.9623 -1.2498 -0.5191
  199SOL    HW2  795   0.510   1.468   1.814 -5.1693  0.0358  4.3079
  199SOL     MW  796   0.520   1.406   1.875 -0.8899 -0.0720  0.3434
  200SOL     OW  797   1.878   2.986   1.322  0.1257 -0.2771  0.1972
  200SOL    HW1  798   1.894   2.966   1.231  5.6550 -0.8952  1.8576
  200SOL    HW2  799   1.798   3.033   1.334  0.7716 -2.4460 -0.1485
  200SOL     MW  800   1.870   2.989   1.312  0.9405 -0.6448  0.3706
  201SOL     OW  801   1.047   0.218   0.832  0.1454  0.4299 -0.2379
  201SOL    HW1  802   1.039   0.152   0.760  0.0848  1.1956 -1.5867
  201SOL    HW2  803   1.133   0.271   0.831  1.8704  1.0552 -0.7677
  201SOL     MW  804   1.057   0.216   0.822  0.3650  0.6134 -0.4857
  202SOL     OW  805   1.507   1.563   0.873  0.0333 -0.2450 -0.2812
  202SOL    HW1  806   1.483   1.497   0.808 -0.8218 -0.1496  2.1443
  202SOL    HW2  807   1.571   1.517   0.924 -0.4553 -2.0113  0.6859
  202SOL     MW  808   1.512   1.549   0.871 -0.1440 -0.4655  0.1664
  203SOL     OW  809   3.043   0.421   1.302 -0.0664 -0.3247  0.0449
  203SOL    HW1  810   3.103   0.338   1.304  1.2012 -3.4602  0.6337
  203SOL    HW2  811   3.080   0.496   1.352 -2.2962  0.9158  1.1122
  203SOL     MW  812   3.056   0.420   1.309 -0.1933 -0.5747  0.2634
  204SOL     OW  813   1.044   1.746   0.552  0.1568 -0.0252  0.1160
  204SOL    HW1  814   1.027   1.690   0.631 -3.0296 -1.6697  2.1288
  204SOL    HW2  815   0.956   1.767   0.517 -1.1867  0.4018  0.7998
  204SOL     MW  816   1.030   1.742   0.558 -0.4409 -0.1859  0.4718
  205SOL     OW  817   1.391   0.044   1.366  0.7564 -0.5610  0.4374
  205SOL    HW1  818   1.400   0.022   1.274 -1.7860 -0.3727 -1.3362
  205SOL    HW2  819   1.336   0.120   1.354 -1.5069 -2.7889  0.7971
  205SOL     MW  820   1.385   0.051   1.353  0.1223 -0.8301  0.2509
  206SOL     OW  821   0.415   3.004   1.426  0.2042  0.0139  0.4732
  206SOL    HW1  822   0.368   2.993   1.334 -2.0382 -2.0234  1.2064
  206SOL    HW2  823   0.448   2.915   1.447  0.3829  0.4803 -0.4615
  206SOL     MW  824   0.413   2.991   1.416 -0.0681 -0.1933  0.4466
  207SOL     OW  825   0.908   1.568   0.189  0.0146 -0.4033  0.3760
  207SOL    HW1  826   0.915   1.666   0.178 -0.4157 -0.1917  0.5877
  207SOL    HW2  827   0.972   1.549   0.263 -0.5600  1.9846  3.0131
  207SOL     MW  828   0.917   1.579   0.197 -0.1180 -0.0603  0.7518
  208SOL     OW  829   0.696   1.655   1.362  0.4935 -0.6961 -0.1606
  208SOL    HW1  830   0.754   1.681   1.434  0.8070 -1.3831  0.0258
  208SOL    HW2  831   0.732   1.570   1.346 -1.8384  0.3944 -1.5992
  208SOL     MW  832   0.708   1.647   1.370  0.2272 -0.6429 -0.3258
  209SOL     OW  833   1.539   0.497   2.995 -0.1039 -0.2041 -0.2403
  209SOL    HW1  834   1.565   0.557   3.063  1.3315  2.4259 -0.8548
  209SOL    HW2  835   1.620   0.484   2.950  2.3519  0.2667  0.7988
  209SOL     MW  836   1.553   0.503   2.998  0.4095  0.2050 -0.1843
  210SOL     OW  837   1.535   1.276   0.780 -0.1278  0.3093 -0.5114
  210SOL    HW1  838   1.626   1.279   0.757 -1.8364  1.6411  0.2426
  210SOL    HW2  839   1.489   1.289   0.693 -3.5916  0.3548 -0.0196
  210SOL     MW  840   1.541   1.278   0.766 -0.8103  0.4910 -0.3470
  211SOL     OW  841   1.690   0.303   0.921  0.2644 -0.8042 -0.2484
  211SOL    HW1  842   1.662   0.359   0.845 -0.0839 -0.4400 -0.7018
  211SOL    HW2  843   1.777   0.340   0.934 -0.0242  2.1465  2.1480
  211SOL     MW  844   1.698   0.315   0.913  0.1804 -0.3669  0.0079
  212SOL     OW  845   0.286   1.032   0.143  0.4419 -0.3200  0.2560
  212SOL    HW1  846   0.221   1.002   0.203  1.5909  0.3440  1.7322
  212SOL    HW2  847   0.307   0.952   0.094  1.4050  0.8937  0.6015
  212SOL     MW  848   0.280   1.018   0.145  0.7205 -0.0723  0.4963
  213SOL     OW  849   0.538   1.692   3.058  0.1879 -0.2137  0.4154
  213SOL    HW1  850   0.528   1.737   3.139  0.7363 -2.1560 -1.3812
  213SOL    HW2  851   0.581   1.745   2.991  0.9800  1.3136  1.0155
  213SOL     MW  852   0.542   1.705   3.060  0.3648 -0.2684  0.2575
  214SOL     OW  853   0.629   0.308   2.179  0.1214  0.1378 -0.7702
  214SOL    HW1  854   0.550   0.361   2.187  2.4039 -1.3954  2.3258
  214SOL    HW2  855   0.674   0.326   2.100  2.0351  2.6430 -0.1913
  214SOL     MW  856   0.625   0.317   2.170  0.6750  0.2660 -0.2853
  215SOL     OW  857   0.504   0.717   2.656  0.2372  0.4919 -0.1600
  215SOL    HW1  858   0.499   0.688   2.559 -3.3356 -5.0872  0.3826
  215SOL    HW2  859   0.452   0.646   2.690  0.5772 -0.3134 -0.6025
  215SOL     MW  860   0.496   0.704   2.648 -0.1893 -0.3504 -0.1468
  216SOL     OW  861   2.912   3.031   2.656  0.0174 -0.7533 -0.5667
  216SOL    HW1  862   2.849   2.994   2.715  0.6492  3.2122  0.8740
  216SOL    HW2  863   2.933   3.113   2.699 -2.1110 -1.9951  0.8622
  216SOL     MW  864   2.906   3.037   2.670 -0.1800 -0.3940 -0.1881
  217SOL     OW  865   1.001   1.085   0.114  0.3858 -0.3925  0.6714
  217SOL    HW1  866   1.068   1.037   0.073 -0.2322  0.8439 -0.8000
  217SOL    HW2  867   1.019   1.178   0.092  0.3291  0.7578 -0.2857
  217SOL     MW  868   1.012   1.091   0.106  0.2968 -0.0776  0.3510
  218SOL     OW  869   0.962   1.306   2.559 -0.1759 -0.0697  0.0670
  218SOL    HW1  870   0.973   1.231   2.621 -1.0286  0.8401  1.4495
  218SOL    HW2  871   1.010   1.385   2.590  0.5973  0.6222 -0.8805
  218SOL     MW  872   0.970   1.307   2.571 -0.1864  0.1417  0.1244
  219SOL     OW  873   1.137   0.421   2.641 -0.1376 -0.6473  0.0684
  219SOL    HW1  874   1.196   0.488   2.674 -1.7955 -1.3079 -0.3063
  219SOL    HW2  875   1.067   0.484   2.615 -0.1643  1.4701 -0.6836
  219SOL     MW  876   1.135   0.438   2.642 -0.3599 -0.4551 -0.0802
  220SOL     OW  877   1.775   0.491   2.222  0.2841 -0.4044  0.0395
  220SOL    HW1  878   1.685   0.500   2.186 -3.3024 -0.4751 -1.0147
  220SOL    HW2  879   1.823   0.433   2.158  0.0779  0.6891 -0.5672
  220SOL     MW  880   1.769   0.484   2.209 -0.2163 -0.2694 -0.1796
  221SOL     OW  881   0.392   1.313   2.974 -0.3363 -0.3533 -0.2845
  221SOL    HW1  882   0.448   1.239   2.936  2.2374  3.0473  0.2423
  221SOL    HW2  883   0.449   1.392   2.981  0.1351 -0.0876  1.5311
  221SOL     MW  884   0.407   1.314   2.970  0.0655  0.1304  0.0246
  222SOL     OW  885   0.347   0.949   2.679 -0.1874  0.3317  0.3884
  222SOL    HW1  886   0.320   0.978   2.592 -0.5290  2.3717 -0.6471
  222SOL    HW2  887   0.399   0.871   2.662 -1.6040 -0.7125 -1.2254
  222SOL     MW  888   0.350   0.943   2.665 -0.4194  0.4631  0.0389
  223SOL     OW  889   0.019   2.020   2.513  0.0462 -0.1269  0.0276
  223SOL    HW1  890   0.070   1.981   2.585 -0.5482  0.6174  0.5565
  223SOL    HW2  891   0.038   2.112   2.510  3.6117 -0.0176 -0.9675
  223SOL     MW  892   0.028   2.027   2.522  0.4382 -0.0143 -0.0339
  224SOL     OW  893   1.500   0.750   2.592 -0.0107 -1.2522 -0.0518
  224SOL    HW1  894   1.525   0.795   2.676 -0.4356  0.7817  2.0188
  224SOL    HW2  895   1.506   0.829   2.535 -0.6441  2.9922 -0.3017
  224SOL     MW  896   1.504   0.766   2.596 -0.1503 -0.4238  0.1884
  225SOL     OW  897   2.910   1.437   2.270 -0.3916 -0.4175  0.1514
  225SOL    HW1  898   2.950   1.512   2.232  0.2291 -3.9152  0.8098
  225SOL    HW2  899   2.846   1.480   2.329  0.1179 -0.0091 -0.2157
  225SOL     MW  900   2.907   1.453   2.272 -0.2425 -0.8251  0.1899
  226SOL     OW  901   0.457   1.493   2.708 -0.0123  0.0745  0.5086
  226SOL    HW1  902   0.536   1.454   2.672 -0.2167  2.4719 -0.7237
  226SOL    HW2  903   0.438   1.580   2.668 -0.3201  2.4833  0.0722
  226SOL     MW  904   0.465   1.500   2.698 -0.0799  0.7087  0.2884
  227SOL     OW  905   0.528   1.128   2.838  0.5404  0.1630 -0.0128
  227SOL    HW1  906   0.614   1.119   2.791  1.2431 -1.9259  2.4158
  227SOL    HW2  907   0.470   1.082   2.773  0.6192  1.9906 -1.3036
  227SOL     MW  908   0.532   1.120   2.823  0.6435  0.1285  0.1373
  228SOL     OW  909   0.742   0.958   2.032  0.3186  0.1087 -0.3479
  228SOL    HW1  910   0.818   1.011   2.012  0.8896 -2.2949 -3.1701
  228SOL    HW2  911   0.752   0.923   2.119  0.1857 -0.1660  0.7650
  228SOL     MW  912   0.753   0.961   2.041  0.3764 -0.2447 -0.5734
  229SOL     OW  913   0.174   0.618   3.094  0.3756  0.3267 -0.4036
  229SOL    HW1  914   0.112   0.585   3.028  0.1161  0.1242  1.3165
  229SOL    HW2  915   0.190   0.536   3.143 -0.2258  1.0577 -1.4711
  229SOL     MW  916   0.168   0.602   3.091  0.2620  0.3964 -0.3175
  230SOL     OW  917   1.682   1.338   2.048 -0.4186 -0.8159 -0.1007
  230SOL    HW1  918   1.615   1.308   2.113 -0.7280  0.3877  0.0603
  230SOL    HW2  919   1.741   1.263   2.036  1.6479 -0.4096 -0.4588
  230SOL     MW  920   1.681   1.324   2.055 -0.1868 -0.6035 -0.1267
  231SOL     OW  921   2.708   1.254   2.219  0.0863  0.1477  0.5366
  231SOL    HW1  922   2.786   1.323   2.215 -3.6932 -1.6800  0.7508
  231SOL    HW2  923   2.679   1.270   2.124  0.6189  0.9426 -0.7249
  231SOL     MW  924   2.715   1.265   2.206 -0.3421  0.0114  0.3984
  232SOL     OW  925   2.245   0.830   2.011 -0.9055  0.4588  0.1029
  232SOL    HW1  926   2.179   0.869   1.951 -0.2142  2.5490 -0.1220
  232SOL    HW2  927   2.233   0.872   2.098 -0.0841  1.1277  3.4366
  232SOL     MW  928   2.235   0.841   2.014 -0.7059  0.8228  0.5131
  233SOL     OW  929   2.053   0.443   2.055  0.3720 -0.5130  0.2727
  233SOL    HW1  930   2.131   0.381   2.052  1.6383  1.3379 -3.6774
  233SOL    HW2  931   2.093   0.504   2.117  2.3499 -2.0464 -0.1519
  233SOL     MW  932   2.069   0.442   2.063  0.8001 -0.4711 -0.3045
  234SOL     OW  933   0.242   1.066   2.423 -1.0658 -0.1449  0.3927
  234SOL    HW1  934   0.152   1.058   2.447  1.9853  0.5254  3.6676
  234SOL    HW2  935   0.257   1.160   2.417 -1.0516 -0.7183  0.6219
  234SOL     MW  936   0.232   1.077   2.426 -0.6614 -0.1321  0.8550
  235SOL     OW  937   1.119   3.068   2.722 -0.1093  0.1631 -0.2393
  235SOL    HW1  938   1.156   3.010   2.789  0.6560  0.6348 -1.5330
  235SOL    HW2  939   1.079   3.137   2.772 -2.2681 -0.4456 -0.0332
  235SOL     MW  940   1.119   3.069   2.737 -0.2932  0.1450 -0.3828
  236SOL     OW  941   2.943   0.547   0.130 -0.3058 -0.3868  0.7672
  236SOL    HW1  942   2.855   0.558   0.104  1.5674 -2.3165  0.2134
  236SOL    HW2  943   2.987   0.634   0.139  0.2286 -0.9402 -1.3010
  236SOL     MW  944   2.937   0.560   0.128  0.0119 -0.7144  0.4213
  237SOL     OW  945   1.999   1.115   2.184 -0.4492 -0.1244 -0.4486
  237SOL    HW1  946   1.960   1.078   2.103  1.1197 -0.6128 -0.9057
  237SOL    HW2  947   2.047   1.045   2.233  1.6575 -0.1856  1.9786
  237SOL     MW  948   2.000   1.101   2.180  0.0358 -0.1969 -0.1887
  238SOL     OW  949   1.077   1.840   3.001  0.6183 -0.4509 -0.8183
  238SOL    HW1  950   1.043   1.759   2.963 -1.7697  2.4496 -1.1222
  238SOL    HW2  951   1.169   1.831   3.006 -1.3115 -0.6117 -0.5451
  238SOL     MW  952   1.084   1.828   2.997  0.0486 -0.0895 -0.8223
  239SOL     OW  953   1.280   1.377   2.390  0.3417  0.3268  0.2261
  239SOL    HW1  954   1.212   1.424   2.443 -2.1520 -2.5822  1.4005
  239SOL    HW2  955   1.290   1.296   2.434 -0.0651  1.8962  1.1120
  239SOL     MW  956   1.272   1.373   2.403 -0.0410  0.1500  0.4979
  240SOL     OW  957   0.707   0.839   2.293 -1.0997  0.6450  1.0070
  240SOL    HW1  958   0.731   0.894   2.364  3.1071  0.8109  0.3965
  240SOL    HW2  959   0.788   0.790   2.270 -2.1550  1.4504 -2.1128
  240SOL     MW  960   0.721   0.840   2.299 -0.6839  0.7732  0.5148
  241SOL     OW  961   0.671   0.393   0.034  0.3090  0.6375  0.0430
  241SOL    HW1  962   0.673   0.454   0.107 -0.4748 -1.6046  0.4397
  241SOL    HW2  963   0.614   0.437  -0.033  1.6372  0.0286  0.6670
  241SOL     MW  964   0.664   0.407   0.035  0.3808  0.2613  0.1777
  242SOL     OW  965   1.516   1.707   2.339 -0.0274  0.1493 -0.1815
  242SOL    HW1  966   1.472   1.794   2.356  0.2386  0.6468 -0.7241
  242SOL    HW2  967   1.450   1.673   2.279 -3.3538  2.0006  0.3763
  242SOL     MW  968   1.501   1.714   2.334 -0.4312  0.4592 -0.1795
  243SOL     OW  969   1.045   0.208   2.510 -0.2493 -0.4881 -0.2795
  243SOL    HW1  970   1.110   0.198   2.438  1.6252 -1.2228  1.5315
  243SOL    HW2  971   1.090   0.272   2.560  0.8614 -0.9914  0.8522
  243SOL     MW  972   1.059   0.215   2.507  0.1445 -0.6514  0.1088
  244SOL     OW  973   0.260   0.775   2.428 -0.3155 -0.5127 -0.2098
  244SOL    HW1  974   0.258   0.870   2.411 -1.3226  0.2311 -1.1608
  244SOL    HW2  975   0.348   0.740   2.404  0.5454  2.0454 -1.4928
  244SOL     MW  976   0.272   0.783   2.423 -0.3348 -0.0771 -0.5046
  245SOL     OW  977   1.261   0.202   2.309  0.4022 -0.1453  0.0199
  245SOL    HW1  978   1.329   0.144   2.339  0.6079 -1.1216  1.7914
  245SOL    HW2  979   1.282   0.283   2.352 -0.4885  0.8798  2.1316
  245SOL     MW  980   1.273   0.205   2.319  0.3118 -0.1389  0.5323
  246SOL     OW  981   1.242   1.194   2.121 -0.0228 -0.5554 -0.9597
  246SOL    HW1  982   1.196   1.123   2.182  1.6550 -0.1533  2.7699
  246SOL    HW2  983   1.315   1.223   2.175  4.0805  0.7637 -0.6008
  246SOL     MW  984   1.246   1.188   2.136  0.7399 -0.3283 -0.4203
  247SOL     OW  985   0.761   0.579   0.210 -0.9524 -0.0884  0.1802
  247SOL    HW1  986   0.724   0.662   0.193  3.8974  0.5607  1.3206
  247SOL    HW2  987   0.842   0.580   0.153 -1.0498 -0.5086 -1.4006
  247SOL     MW  988   0.766   0.590   0.200 -0.3254 -0.0582  0.1221
  248SOL     OW  989   0.321   1.357   2.520 -0.2644 -0.4321  0.3002
  248SOL    HW1  990   0.386   1.353   2.447  0.7177 -0.0428  2.0538
  248SOL    HW2  991   0.379   1.395   2.591  0.7339 -2.0752  1.0519
  248SOL     MW  992   0.337   1.361   2.520 -0.0031 -0.5975  0.6307
  249SOL     OW  993   0.179   1.902   2.737  0.0677 -0.7681  0.2507
  249SOL    HW1  994   0.139   1.823   2.700  0.6398  2.3997  0.7548
  249SOL    HW2  995   0.213   1.867   2.822 -2.4251  3.4744 -0.0694
  249SOL     MW  996   0.178   1.887   2.743 -0.1857  0.2096  0.2750
  250SOL     OW  997   2.187   0.920   2.270  0.3125  0.5810 -0.3110
  250SOL    HW1  998   2.199   0.820   2.261  1.0222  2.3512  0.4652
  250SOL    HW2  999   2.278   0.956   2.273  1.1630 -0.1973  1.2919
  250SOL     MW 1000   2.201   0.912   2.269  0.5184  0.7119  0.0029
  251SOL     OW 1001   0.142   0.877   1.977  0.2184  0.8762 -0.1548
  251SOL    HW1 1002   0.150   0.816   2.046 -2.0429 -1.9950  1.3133
  251SOL    HW2 1003   0.157   0.825   1.902  1.2931  1.3008  0.9355
  251SOL     MW 1004   0.145   0.862   1.976  0.0618  0.5534  0.1827
  252SOL     OW 1005   1.727   0.988   2.850  0.2090 -0.2151 -0.1241
  252SOL    HW1 1006   1.753   1.031   2.931 -0.4607  0.5743 -0.0454
  252SOL    HW2 1007   1.790   1.013   2.781  1.2302 -1.4404 -0.8356
  252SOL     MW 1008   1.739   0.997   2.852  0.2554 -0.2726 -0.2076
  253SOL     OW 1009   1.185   1.768   2.557 -0.6237  0.3075 -0.4237
  253SOL    HW1 1010   1.173   1.770   2.460 -2.3206  0.2247  1.6188
  253SOL    HW2 1011   1.110   1.826   2.572  3.2023  2.2240 -1.4365
  253SOL     MW 1012   1.174   1.776   2.546 -0.3427  0.5495 -0.2878
  254SOL     OW 1013   1.071   1.020   2.242 -0.0911 -0.0270 -0.1427
  254SOL    HW1 1014   1.025   0.939   2.221 -1.3650 -0.9875  4.0973
  254SOL    HW2 1015   0.998   1.090   2.236 -3.3946  1.8424  2.6510
  254SOL     MW 1016   1.056   1.019   2.238 -0.6951  0.0929  0.7853
  255SOL     OW 1017   0.780   2.576   2.149 -0.0160 -0.0922 -0.7011
  255SOL    HW1 1018   0.696   2.543   2.183  1.0274 -1.0009  0.4908
  255SOL    HW2 1019   0.840   2.514   2.190 -0.7860 -0.1911 -2.0328
  255SOL     MW 1020   0.777   2.563   2.159  0.0201 -0.2251 -0.7195
  256SOL     OW 1021   1.355   2.678   2.958  0.0049  0.2899  0.0607
  256SOL    HW1 1022   1.333   2.612   2.895  2.9402  2.2750  1.5314
  256SOL    HW2 1023   1.415   2.738   2.911  2.4198 -3.4210  0.2780
  256SOL     MW 1024   1.360   2.677   2.944  0.7108  0.0622  0.2834
  257SOL     OW 1025   0.152   1.882   0.073  0.5567 -0.0398 -0.4103
  257SOL    HW1 1026   0.162   1.832   0.159  1.7261  2.6100  0.8985
  257SOL    HW2 1027   0.201   1.844   0.002  1.3215  0.5322  0.5149
  257SOL     MW 1028   0.159   1.870   0.075  0.8119  0.3853 -0.1156
  258SOL     OW 1029   0.789   1.045   2.455  0.5425 -0.2964  0.4882
  258SOL    HW1 1030   0.799   1.126   2.394  0.3277 -0.4760 -1.4321
  258SOL    HW2 1031   0.786   1.065   2.548  1.7286  1.1060  0.6223
  258SOL     MW 1032   0.790   1.058   2.459  0.6707 -0.1351  0.2525
  259SOL     OW 1033   0.843   0.387   2.369  0.0576  0.3666 -0.5360
  259SOL    HW1 1034   0.747   0.407   2.354 -0.4402 -2.2199  1.7591
  259SOL    HW2 1035   0.836   0.310   2.423 -0.4710  0.1914  0.1000
  259SOL     MW 1036   0.829   0.379   2.374 -0.0778  0.0022 -0.1493
  260SOL     OW 1037   0.512   0.138   1.564 -0.0635 -0.3352  0.2836
  260SOL    HW1 1038   0.479   0.086   1.491 -0.7026  1.6380 -0.7878
  260SOL    HW2 1039   0.613   0.138   1.559  2.6877  0.1977  0.3275
  260SOL     MW 1040   0.521   0.132   1.554  0.2152 -0.0045  0.1481
  261SOL     OW 1041   1.141   0.737   2.017 -0.5292 -0.2757  0.1322
  261SOL    HW1 1042   1.145   0.740   2.110  1.1247 -0.7466  0.4715
  261SOL    HW2 1043   1.199   0.659   2.002  3.0405 -1.2901  2.2435
  261SOL     MW 1044   1.149   0.727   2.027  0.1600 -0.4717  0.4555
  262SOL     OW 1045   1.025   0.305   0.147  0.2804 -0.0249  0.0084
  262SOL    HW1 1046   1.116   0.302   0.113  1.1241 -2.0728  0.4824
  262SOL    HW2 1047   0.970   0.228   0.114 -0.7052 -0.3600  1.6817
  262SOL     MW 1048   1.029   0.294   0.138  0.2616 -0.3393  0.2917
  263SOL     OW 1049   0.400   0.020   2.461 -0.0633 -0.0192 -0.6185
  263SOL    HW1 1050   0.324   0.074   2.430 -1.3050  0.0201 -1.4272
  263SOL    HW2 1051   0.473   0.032   2.398  0.8079  1.7209 -0.3094
  263SOL     MW 1052   0.400   0.028   2.449 -0.1122  0.2155 -0.6844
  264SOL     OW 1053   1.464   1.362   1.842 -0.2629  0.3453 -0.3412
  264SOL    HW1 1054   1.391   1.324   1.890  0.1603 -0.8454 -0.5303
  264SOL    HW2 1055   1.537   1.341   1.904  0.8235 -3.2456  0.3613
  264SOL     MW 1056   1.464   1.354   1.856 -0.0637 -0.2856 -0.2735
  265SOL     OW 1057   0.730   2.805   2.276  0.6984  0.1529 -0.1602
  265SOL    HW1 1058   0.769   2.730   2.231 -0.3205  0.7474 -2.3938
  265SOL    HW2 1059   0.741   2.783   2.368  0.4964  1.8215  2.5343
  265SOL     MW 1060   0.737   2.792   2.282  0.5373  0.4515 -0.0994
  266SOL     OW 1061   0.952   0.760   2.208  0.2035 -0.0508 -0.4329
  266SOL    HW1 1062   0.956   0.735   2.118 -2.1918  2.3501  1.4747
  266SOL    HW2 1063   0.985   0.688   2.256  0.0513 -0.9190 -1.8987
  266SOL     MW 1064   0.957   0.747   2.203 -0.1326  0.1514 -0.3746
  267SOL     OW 1065   1.434   1.779   2.739 -0.5204  0.3605 -0.2083
  267SOL    HW1 1066   1.461   1.708   2.681  3.0597  0.6382  1.1686
  267SOL    HW2 1067   1.380   1.839   2.694  0.0075 -0.0033 -4.5055
  267SOL     MW 1068   1.430   1.778   2.726  0.0216  0.3492 -0.5936
  268SOL     OW 1069   0.194   0.830   1.660 -0.1856 -0.0621  0.0855
  268SOL    HW1 1070   0.165   0.910   1.615  0.0091 -0.1161 -1.4858
  268SOL    HW2 1071   0.177   0.750   1.615  0.5264  0.8927  0.2844
  268SOL     MW 1072   0.187   0.830   1.648 -0.0659  0.0567 -0.0956
  269SOL     OW 1073   1.421   1.964   2.375 -0.0571  0.3576  0.2843
  269SOL    HW1 1074   1.483   2.038   2.360 -2.4646  1.9816  1.9150
  269SOL    HW2 1075   1.342   2.000   2.409 -1.4372  0.1693  3.0735
  269SOL     MW 1076   1.419   1.979   2.378 -0.5568  0.5471  0.8675
  270SOL     OW 1077   1.118   0.428   1.637  0.3177  0.1981 -0.5371
  270SOL    HW1 1078   1.070   0.350   1.655 -2.0279  0.2180 -1.1634
  270SOL    HW2 1079   1.206   0.399   1.621  1.4683  0.0101  0.4144
  270SOL     MW 1080   1.123   0.414   1.638  0.1600  0.1759 -0.4942
  271SOL     OW 1081   0.847   0.009   2.558 -0.0384 -0.1584  0.2279
  271SOL    HW1 1082   0.875  -0.051   2.624  1.0922 -0.7983  1.1586
  271SOL    HW2 1083   0.917   0.071   2.558 -0.3373  0.4495  1.4845
  271SOL     MW 1084   0.860   0.009   2.567  0.0714 -0.1626  0.5165
  272SOL     OW 1085   1.466   2.859   2.792  0.0593 -0.1697 -0.7862
  272SOL    HW1 1086   1.409   2.872   2.716 -0.4395 -1.6333 -3.9601
  272SOL    HW2 1087   1.521   2.936   2.797  1.3079  2.6182 -2.7385
  272SOL     MW 1088   1.465   2.871   2.782  0.1582  0.0051 -1.4626
  273SOL     OW 1089   1.462   0.971   2.808  0.5637 -0.1659 -0.3252
  273SOL    HW1 1090   1.553   0.991   2.827 -2.7203 -0.1004 -1.1988
  273SOL    HW2 1091   1.410   1.020   2.869  1.4614 -0.1802  0.4514
  273SOL     MW 1092   1.467   0.980   2.819  0.2488 -0.1591 -0.3380
  274SOL     OW 1093   1.457   0.706   0.103  0.0784 -0.2779 -0.2039
  274SOL    HW1 1094   1.498   0.624   0.130 -0.2855  0.1197  1.6354
  274SOL    HW2 1095   1.360   0.695   0.136  1.3314 -0.5517 -0.3452
  274SOL     MW 1096   1.450   0.694   0.111  0.1957 -0.2616  0.0202
  275SOL     OW 1097   1.708   0.573   1.751 -0.3568  0.2980  0.5761
  275SOL    HW1 1098   1.768   0.596   1.822  1.3265 -0.9903  0.1599
  275SOL    HW2 1099   1.698   0.478   1.754  1.1733 -1.8666 -0.0501
  275SOL     MW 1100   1.714   0.564   1.761  0.0672 -0.1576  0.4385
  276SOL     OW 1101   0.326   1.218   1.907 -0.2371  0.4864  0.0169
  276SOL    HW1 1102   0.360   1.127   1.923  1.3550 -1.1722  0.3492
  276SOL    HW2 1103   0.239   1.208   1.940 -0.6751  2.9082 -2.0265
  276SOL     MW 1104   0.319   1.205   1.914 -0.0848  0.5871 -0.2089
  277SOL     OW 1105   1.914   1.241   2.403  0.4097 -0.5959  0.5684
  277SOL    HW1 1106   1.970   1.314   2.441  0.2492  0.0549 -1.7766
  277SOL    HW2 1107   1.928   1.225   2.306 -1.2978  1.0948 -0.3662
  277SOL     MW 1108   1.923   1.248   2.396  0.1632 -0.2870  0.1357
  278SOL     OW 1109   1.434   0.604   1.714 -0.6030  0.4279 -0.4753
  278SOL    HW1 1110   1.393   0.579   1.801 -1.7381 -0.1822 -1.2306
  278SOL    HW2 1111   1.526   0.604   1.735 -0.6215  0.5079  2.1253
  278SOL     MW 1112   1.440   0.600   1.728 -0.7552  0.3579 -0.2318
  279SOL     OW 1113   0.603   0.047   2.263 -0.3711  0.7165 -0.2880
  279SOL    HW1 1114   0.693   0.010   2.266  1.3341  0.0847  0.0116
  279SOL    HW2 1115   0.624   0.134   2.233  1.8490 -0.1787  3.1026
  279SOL     MW 1116   0.618   0.054   2.260  0.1468  0.5150  0.1989
  280SOL     OW 1117   1.506   0.981   2.149  0.1828  0.4815 -0.5513
  280SOL    HW1 1118   1.534   0.914   2.092 -0.9212  0.6852  0.2226
  280SOL    HW2 1119   1.466   0.937   2.230  1.9742 -0.5687 -1.1764
  280SOL     MW 1120   1.504   0.966   2.152  0.2735  0.3698 -0.5317
  281SOL     OW 1121   1.313   1.353   2.784  0.5746 -0.1565  0.1258
  281SOL    HW1 1122   1.397   1.363   2.743 -2.3900 -1.1980  0.8642
  281SOL    HW2 1123   1.329   1.288   2.849 -1.7485  1.4548  0.8210
  281SOL     MW 1124   1.327   1.346   2.787 -0.1230 -0.0813  0.3149
  282SOL     OW 1125   1.115   1.286   1.682 -0.1086 -0.3805 -0.0968
  282SOL    HW1 1126   1.104   1.368   1.628  1.7208  0.8750  1.0294
  282SOL    HW2 1127   1.104   1.308   1.778  0.6083  3.8363 -1.4770
  282SOL     MW 1128   1.112   1.300   1.688  0.2274  0.3415 -0.1303
  283SOL     OW 1129   0.822   1.209   2.989 -0.2792  0.4417 -0.4157
  283SOL    HW1 1130   0.874   1.172   3.065 -0.8639 -1.2148  1.9389
  283SOL    HW2 1131   0.782   1.288   3.030 -0.0204  1.4639  2.1450
  283SOL     MW 1132   0.824   1.215   3.005 -0.3222  0.3580  0.2328
  284SOL     OW 1133   0.504   0.664   2.387 -0.2594  0.3587 -0.3032
  284SOL    HW1 1134   0.558   0.737   2.340  0.3912 -1.2722  1.4388
  284SOL    HW2 1135   0.468   0.603   2.324  1.2519 -1.7893 -0.9082
  284SOL     MW 1136   0.507   0.666   2.373  0.0258 -0.1399 -0.1532
  285SOL     OW 1137   0.957   0.895   2.815  0.4658 -1.1450 -0.0916
  285SOL    HW1 1138   1.023   0.906   2.747 -0.7997  0.0170 -1.3579
  285SOL    HW2 1139   0.887   0.832   2.784 -0.2330  0.5115  2.7648
  285SOL     MW 1140   0.957   0.888   2.802  0.2066 -0.7731  0.1182
  286SOL     OW 1141   1.150   1.504   2.573 -0.3116  0.1793  0.0316
  286SOL    HW1 1142   1.228   1.469   2.605 -3.2789 -1.2481  1.4331
  286SOL    HW2 1143   1.171   1.595   2.556 -0.2963 -3.2298  2.0162
  286SOL     MW 1144   1.163   1.511   2.575 -0.7011 -0.4588  0.4783
  287SOL     OW 1145   1.137   0.930   0.333 -0.0596  0.0097  0.2971
  287SOL    HW1 1146   1.158   0.976   0.412 -0.5995 -1.3512 -0.9049
  287SOL    HW2 1147   1.082   0.990   0.282 -0.7977 -1.9704 -1.8802
  287SOL     MW 1148   1.133   0.944   0.337 -0.2282 -0.4311 -0.1488
  288SOL     OW 1149   1.533   0.586   2.107 -0.2544 -0.4416  0.0829
  288SOL    HW1 1150   1.534   0.621   2.197  4.9479  0.1611  1.7552
  288SOL    HW2 1151   1.571   0.651   2.048  0.5093 -1.6465  1.0650
  288SOL     MW 1152   1.538   0.600   2.111  0.5328 -0.5211  0.4331
  289SOL     OW 1153   1.060   1.032   2.581 -0.0736 -0.5108  0.0348
  289SOL    HW1 1154   1.098   0.960   2.536 -0.7354  0.7731  1.4700
  289SOL    HW2 1155   0.982   1.049   2.529 -2.5064  1.6825  1.4691
  289SOL     MW 1156   1.055   1.024   2.568 -0.4819 -0.0520  0.4134
  290SOL     OW 1157   0.839   0.634   1.591  0.2633 -0.3473  0.1494
  290SOL    HW1 1158   0.876   0.593   1.513 -1.5958 -0.4783 -0.1356
  290SOL    HW2 1159   0.910   0.637   1.659 -0.8238  0.0906  0.4473
  290SOL     MW 1160   0.853   0.629   1.590 -0.1254 -0.3068  0.1511
  291SOL     OW 1161   0.219   0.379   0.097 -0.0833 -0.8457  0.0006
  291SOL    HW1 1162   0.302   0.327   0.105  0.5748  0.9710 -0.5966
  291SOL    HW2 1163   0.161   0.334   0.029  0.9506  2.5011 -4.8113
  291SOL     MW 1164   0.222   0.366   0.089  0.1400 -0.1644 -0.7131
  292SOL     OW 1165   1.002   0.585   0.101  0.3178 -0.4539 -0.5518
  292SOL    HW1 1166   1.075   0.631   0.131 -1.3251 -1.3078  0.0611
  292SOL    HW2 1167   1.006   0.489   0.114 -1.6456  0.1130  0.8237
  292SOL     MW 1168   1.012   0.578   0.106 -0.1580 -0.4917 -0.2894
  293SOL     OW 1169   0.150   0.140   2.408  0.1136  0.4841 -0.6324
  293SOL    HW1 1170   0.081   0.091   2.358  1.5785 -1.8700  0.7113
  293SOL    HW2 1171   0.104   0.208   2.461 -2.2484 -1.7229  0.6240
  293SOL     MW 1172   0.134   0.142   2.409 -0.0048 -0.1177 -0.2893
  294SOL     OW 1173   1.472   0.627   2.362 -0.4458 -0.9064  0.0007
  294SOL    HW1 1174   1.484   0.676   2.450  1.6741  2.5478  1.5479
  294SOL    HW2 1175   1.446   0.538   2.370  0.4833 -2.0689 -1.7814
  294SOL     MW 1176   1.470   0.621   2.375 -0.0435 -0.6041 -0.0303
  295SOL     OW 1177   0.948   0.568   2.530 -0.0378 -0.3408  0.3801
  295SOL    HW1 1178   0.916   0.513   2.460 -1.2491 -2.1538 -0.5697
  295SOL    HW2 1179   0.885   0.593   2.590  1.1515  0.3886 -1.2749
  295SOL     MW 1180   0.936   0.564   2.529 -0.0407 -0.4838  0.0364
  296SOL     OW 1181   1.323   0.260   2.041 -0.1019  0.1782 -0.3827
  296SOL    HW1 1182   1.403   0.210   2.025  1.2147  0.2170  0.9841
  296SOL    HW2 1183   1.298   0.220   2.132  0.1937  0.7596 -0.5510
  296SOL     MW 1184   1.330   0.248   2.051  0.1108  0.2600 -0.2246
  297SOL     OW 1185   1.387   0.364   1.616 -0.3662  0.7953 -0.4489
  297SOL    HW1 1186   1.416   0.448   1.652  0.7910  2.1078  1.3520
  297SOL    HW2 1187   1.436   0.294   1.659 -1.6740 -1.1716 -4.9915
  297SOL     MW 1188   1.397   0.365   1.626 -0.3861  0.7090 -0.8106
  298SOL     OW 1189   1.640   0.805   1.983 -0.6017  0.5577 -0.1471
  298SOL    HW1 1190   1.661   0.884   1.936  3.1800  1.0145  0.8352
  298SOL    HW2 1191   1.707   0.793   2.058  0.9656  0.5188 -1.3637
  298SOL     MW 1192   1.652   0.814   1.987  0.1041  0.6128 -0.1780
  299SOL     OW 1193   0.574   1.070   0.064 -0.0324 -0.4313  0.4169
  299SOL    HW1 1194   0.609   1.095  -0.021  1.3135  1.7642 -1.8410
  299SOL    HW2 1195   0.501   1.011   0.060  1.0019 -0.1312  0.4692
  299SOL     MW 1196   0.569   1.066   0.052  0.2817 -0.1020  0.1259
  300SOL     OW 1197   1.296   1.142   2.527  0.2729  0.4283  0.0320
  300SOL    HW1 1198   1.206   1.108   2.528  1.0378 -2.8686 -3.0958
  300SOL    HW2 1199   1.313   1.162   2.616 -1.8853  3.5547  0.3418
  300SOL     MW 1200   1.287   1.140   2.539  0.0891  0.4058 -0.3398
  301SOL     OW 1201   1.466   0.909   0.646 -0.0060  0.0911  0.3185
  301SOL    HW1 1202   1.464   0.973   0.719  2.0271 -2.7053 -0.1213
  301SOL    HW2 1203   1.390   0.857   0.658  1.5831 -1.1871 -1.9324
  301SOL     MW 1204   1.456   0.911   0.657  0.4719 -0.4465 -0.0365
  302SOL     OW 1205   0.120   1.532   2.001  0.0052  0.4538  0.2934
  302SOL    HW1 1206   0.165   1.472   2.068  1.4369 -3.0145  0.5123
  302SOL    HW2 1207   0.040   1.569   2.049 -0.1704 -0.4132 -0.5548
  302SOL     MW 1208   0.116   1.529   2.016  0.1709 -0.1182  0.2104
  303SOL     OW 1209   0.411   1.757   2.585  0.5375  0.5002 -0.0823
  303SOL    HW1 1210   0.368   1.704   2.516  0.2204  0.2711  0.4047
  303SOL    HW2 1211   0.342   1.810   2.636  2.6581  1.7511  1.2147
  303SOL     MW 1212   0.397   1.757   2.583  0.7755  0.6350  0.1531
  304SOL     OW 1213   0.566   2.079   2.378 -0.4790  0.0851  0.1362
  304SOL    HW1 1214   0.621   2.116   2.304  0.6945 -2.4419  1.7021
  304SOL    HW2 1215   0.611   1.995   2.405 -0.8314 -1.0501  0.7476
  304SOL     MW 1216   0.579   2.073   2.372 -0.3706 -0.3981  0.4234
  305SOL     OW 1217   1.096   0.567   0.462 -0.2488 -0.3739  0.3145
  305SOL    HW1 1218   0.999   0.557   0.473 -0.7155 -1.7572  0.4704
  305SOL    HW2 1219   1.119   0.478   0.496 -0.2407  0.0243  0.5615
  305SOL     MW 1220   1.086   0.554   0.468 -0.3093 -0.5039  0.3676
  306SOL     OW 1221   1.168   1.449   0.280  0.0044  0.2459  0.2762
  306SOL    HW1 1222   1.236   1.378   0.295 -0.8847  0.3068 -1.7593
  306SOL    HW2 1223   1.205   1.499   0.204  3.1048 -2.2840  2.9002
  306SOL     MW 1224   1.182   1.446   0.272  0.2962 -0.0799  0.3539
  307SOL     OW 1225   1.309   0.534   1.949 -0.1694  0.4704 -0.3927
  307SOL    HW1 1226   1.285   0.442   1.978  0.4745 -2.2358  0.4335
  307SOL    HW2 1227   1.401   0.550   1.978  0.9875 -0.6140  0.5781
  307SOL     MW 1228   1.318   0.524   1.957  0.0682 -0.0297 -0.1556
  308SOL     OW 1229   2.152   0.535   2.720  0.1494 -0.5671  0.2326
  308SOL    HW1 1230   2.234   0.504   2.750  2.8759  0.5697 -0.7266
  308SOL    HW2 1231   2.154   0.632   2.709 -1.0308 -2.0052  0.5429
  308SOL     MW 1232   2.163   0.543   2.723  0.3534 -0.6069  0.1470
  309SOL     OW 1233   0.464   0.446   0.352  0.1550  0.6111 -0.1557
  309SOL    HW1 1234   0.540   0.395   0.384  2.1489  0.8809  1.2305
  309SOL    HW2 1235   0.419   0.388   0.292 -1.4240 -1.1353  2.9883
  309SOL     MW 1236   0.468   0.431   0.348  0.2098  0.4163  0.4420
  310SOL     OW 1237   0.444   0.654   1.947 -0.3448  0.0499  0.4343
  310SOL    HW1 1238   0.475   0.566   1.938 -1.7126  3.0322 -0.3202
  310SOL    HW2 1239   0.521   0.704   1.911  2.0082  2.5150 -0.3929
  310SOL     MW 1240   0.458   0.649   1.941 -0.2148  0.7686  0.2256
  311SOL     OW 1241   1.925   0.641   1.911 -0.2805  0.1382  0.3461
  311SOL    HW1 1242   1.875   0.677   1.990 -0.3588  0.1004  1.2706
  311SOL    HW2 1243   1.963   0.564   1.954  0.9344  2.2808 -0.8294
  311SOL     MW 1244   1.923   0.635   1.927 -0.1305  0.4159  0.3130
  312SOL     OW 1245   1.803   2.509   0.120  0.7568  0.0278 -0.1939
  312SOL    HW1 1246   1.878   2.516   0.179  1.0882 -1.7632  1.1828
  312SOL    HW2 1247   1.731   2.560   0.168  1.2604 -1.2120 -0.0655
  312SOL     MW 1248   1.803   2.517   0.134  0.8670 -0.3721  0.0046
  313SOL     OW 1249   0.131   1.075   2.965  0.4777 -0.6899 -0.1793
  313SOL    HW1 1250   0.084   1.104   3.045 -1.5695  1.3209 -1.7802
  313SOL    HW2 1251   0.211   1.124   2.960  1.0849  0.8333 -1.2119
  313SOL     MW 1252   0.135   1.085   2.975  0.2877 -0.2236 -0.5267
  314SOL     OW 1253   2.186   2.960   2.959  0.0860  0.6157  0.0866
  314SOL    HW1 1254   2.115   2.987   2.905  1.4396 -1.6520  1.6844
  314SOL    HW2 1255   2.209   3.038   3.012 -0.9144 -2.2292  2.2037
  314SOL     MW 1256   2.180   2.974   2.959  0.1326 -0.0589  0.5768
  315SOL     OW 1257   1.511   1.941   0.021  0.3264 -0.6545 -0.3239
  315SOL    HW1 1258   1.432   1.979   0.066  1.5860 -2.0584  1.5690
  315SOL    HW2 1259   1.556   2.001  -0.045 -0.4033 -0.8067 -1.1866
  315SOL     MW 1260   1.507   1.954   0.018  0.3963 -0.8598 -0.1879
  316SOL     OW 1261   1.283   0.652   2.722  0.9118 -0.2495  0.0254
  316SOL    HW1 1262   1.363   0.671   2.678  1.6093  1.6055 -0.9750
  316SOL    HW2 1263   1.311   0.672   2.811  0.2236  0.5484  1.4650
  316SOL     MW 1264   1.297   0.657   2.728  0.9130  0.1005  0.0833
  317SOL     OW 1265   0.703   1.410   2.554 -0.6417 -0.1411 -0.4419
  317SOL    HW1 1266   0.785   1.354   2.560  0.1230  0.6060  0.2897
  317SOL    HW2 1267   0.720   1.455   2.460  0.6524  0.9885 -1.0084
  317SOL     MW 1268   0.716   1.409   2.542 -0.3701  0.1065 -0.4201
  318SOL     OW 1269   1.321   0.352   2.922 -0.4169 -0.0736  0.3597
  318SOL    HW1 1270   1.237   0.404   2.895 -1.6393  0.1956 -0.2106
  318SOL    HW2 1271   1.398   0.410   2.937 -0.9064  0.9742 -1.5248
  318SOL     MW 1272   1.320   0.367   2.920 -0.6427  0.1002  0.0358
  319SOL     OW 1273   0.793   0.442   2.882 -0.4572 -0.0303 -0.3176
  319SOL    HW1 1274   0.778   0.373   2.818 -0.2723  0.8705 -1.9752
  319SOL    HW2 1275   0.776   0.409   2.970  0.5408  1.6774  0.7013
  319SOL     MW 1276   0.789   0.429   2.885 -0.3011  0.3139 -0.4019
  320SOL     OW 1277   1.055   1.349   2.018 -0.0494  0.1039  0.6211
  320SOL    HW1 1278   1.129   1.300   2.063  0.2126 -1.1373 -1.4902
  320SOL    HW2 1279   1.108   1.416   1.970  0.5710  2.1442  1.1262
  320SOL     MW 1280   1.072   1.351   2.018  0.0670  0.2094  0.4091
  321SOL     OW 1281   1.163   0.906   3.035 -0.1201 -0.0593 -0.2686
  321SOL    HW1 1282   1.086   0.883   2.985 -2.0862 -1.1450  1.2631
  321SOL    HW2 1283   1.239   0.857   3.005 -1.8565 -1.0264  1.4081
  321SOL     MW 1284   1.163   0.897   3.025 -0.6086 -0.3301  0.1547
  322SOL     OW 1285   1.250   0.869   1.689 -0.3716  0.1880  0.1944
  322SOL    HW1 1286   1.322   0.810   1.698 -2.3183 -0.6876 -0.8005
  322SOL    HW2 1287   1.237   0.914   1.777 -1.3475 -1.1010 -0.4262
  322SOL     MW 1288   1.258   0.867   1.702 -0.7572 -0.0976 -0.0188
  323SOL     OW 1289   1.217   1.541   1.918 -0.5282 -0.6913  0.1145
  323SOL    HW1 1290   1.256   1.532   1.827 -0.0121 -1.3420 -0.8233
  323SOL    HW2 1291   1.147   1.606   1.917 -1.2631  0.5187 -3.3987
  323SOL     MW 1292   1.213   1.548   1.906 -0.5571 -0.6175 -0.4727
  324SOL     OW 1293   1.476   0.951   2.419 -0.3158 -0.1537  0.0208
  324SOL    HW1 1294   1.390   0.987   2.444  4.3039 -1.4490 -0.6030
  324SOL    HW2 1295   1.535   1.029   2.412  1.9129 -2.0707  1.4692
  324SOL     MW 1296   1.472   0.966   2.421  0.5878 -0.5776  0.1296
  325SOL     OW 1297   1.062   0.480   2.950  0.6851  0.3716 -0.6349
  325SOL    HW1 1298   1.065   0.548   3.017  0.7572  2.0622 -1.0273
  325SOL    HW2 1299   0.967   0.454   2.926  1.8596  0.9400  0.0931
  325SOL     MW 1300   1.050   0.486   2.956  0.8496  0.6696 -0.5907
  326SOL     OW 1301   0.463   1.378   2.300 -0.3692 -0.4495  0.8257
  326SOL    HW1 1302   0.529   1.314   2.279 -0.3670 -0.3831  0.0052
  326SOL    HW2 1303   0.497   1.456   2.262  0.0980  1.4852  1.3472
  326SOL     MW 1304   0.476   1.380   2.292 -0.3073 -0.1855  0.7863
  327SOL     OW 1305   1.934   0.799   2.442 -0.2265 -0.1553 -0.0354
  327SOL    HW1 1306   1.886   0.767   2.521 -1.9200  0.2858  0.7536
  327SOL    HW2 1307   2.015   0.838   2.483  3.1670 -1.8954  1.6919
  327SOL     MW 1308   1.939   0.800   2.458 -0.0022 -0.3267  0.2966
  328SOL     OW 1309   0.192   1.369   2.240  0.1592  1.0310 -0.6779
  328SOL    HW1 1310   0.172   1.286   2.203  1.1801  1.5134 -1.0303
  328SOL    HW2 1311   0.287   1.365   2.270 -0.2068  0.7507 -0.6257
  328SOL     MW 1312   0.202   1.357   2.239  0.2456  1.0577 -0.7175
  329SOL     OW 1313   0.150   0.235   1.347 -0.1012  0.6472  0.7093
  329SOL    HW1 1314   0.129   0.237   1.443  1.9895  0.6932 -1.8351
  329SOL    HW2 1315   0.242   0.253   1.346 -0.1083 -1.0792  3.1973
  329SOL     MW 1316   0.159   0.237   1.360  0.1737  0.4255  0.7019
  330SOL     OW 1317   0.373   0.015   2.082 -0.0608  0.3949  0.4499
  330SOL    HW1 1318   0.464   0.015   2.120  1.2727  0.8699  2.1088
  330SOL    HW2 1319   0.310  -0.011   2.155 -1.1889 -0.5493 -0.7220
  330SOL     MW 1320   0.377   0.011   2.097 -0.0337  0.3330  0.5141
  331SOL     OW 1321   0.893   1.225   2.266  0.2143  0.4624 -0.5962
  331SOL    HW1 1322   0.843   1.278   2.199  0.7204  1.9059  0.5377
  331SOL    HW2 1323   0.935   1.287   2.328 -0.8377 -1.6310 -0.6483
  331SOL     MW 1324   0.892   1.240   2.266  0.1423  0.3767 -0.4535
  332SOL     OW 1325   1.338   1.781   2.985  0.6172  0.6195 -0.2631
  332SOL    HW1 1326   1.365   1.774   2.891  0.7494  0.3376  0.3757
  332SOL    HW2 1327   1.397   1.843   3.026 -4.0684  0.4483 -1.9330
  332SOL     MW 1328   1.350   1.788   2.978  0.0164  0.5598 -0.3991
  333SOL     OW 1329   1.790   1.392   2.980  0.1878  0.1171 -0.0269
  333SOL    HW1 1330   1.870   1.419   3.019 -2.6205  0.1220 -0.1300
  333SOL    HW2 1331   1.754   1.337   3.050  0.4569  0.4128 -1.0071
  333SOL     MW 1332   1.796   1.388   2.995 -0.1472  0.1568 -0.1698
  334SOL     OW 1333   1.368   0.011   2.618 -0.3144  0.2930 -0.0607
  334SOL    HW1 1334   1.284   0.025   2.663 -2.5454 -1.0080 -1.1463
  334SOL    HW2 1335   1.424   0.084   2.644 -0.7508  0.8221  0.0145
  334SOL     MW 1336   1.364   0.022   2.627 -0.6663  0.1911 -0.1940
  335SOL     OW 1337   1.368   0.752   2.948  0.0753 -0.0683  0.3004
  335SOL    HW1 1338   1.395   0.726   3.037 -0.7405 -1.3853  0.9076
  335SOL    HW2 1339   1.428   0.811   2.909 -0.4238 -1.9411 -0.5924
  335SOL     MW 1340   1.379   0.756   2.954 -0.0982 -0.4892  0.2627
  336SOL     OW 1341   0.963   1.115   1.931 -0.0868  0.6839 -0.6754
  336SOL    HW1 1342   0.994   1.202   1.974  1.0760 -0.8334  0.6883
  336SOL    HW2 1343   1.032   1.064   1.894 -0.3614  1.0446  1.2286
  336SOL     MW 1344   0.976   1.120   1.931  0.0304  0.5313 -0.2443
  337SOL     OW 1345   0.587   1.828   2.785  0.2004 -0.4145 -0.1401
  337SOL    HW1 1346   0.544   1.787   2.715  0.2521 -0.4822 -2.2421
  337SOL    HW2 1347   0.669   1.780   2.786 -1.1579  0.5547  0.7057
  337SOL     MW 1348   0.592   1.816   2.776  0.0280 -0.2956 -0.3058
  338SOL     OW 1349   1.123   0.764   2.531  0.1443  0.0010 -0.0172
  338SOL    HW1 1350   1.045   0.702   2.523 -0.6217 -2.0748 -0.8887
  338SOL    HW2 1351   1.186   0.740   2.602  2.7210  1.2987 -0.0455
  338SOL     MW 1352   1.121   0.752   2.539  0.3832 -0.1017 -0.1359
  339SOL     OW 1353   1.472   1.027   1.832  0.0164  0.0172  0.0899
  339SOL    HW1 1354   1.422   1.074   1.770  1.1465  0.4718  0.1885
  339SOL    HW2 1355   1.418   0.976   1.892 -1.6694 -0.9938  0.1959
  339SOL     MW 1356   1.458   1.026   1.832 -0.0569 -0.0562  0.1169
  340SOL     OW 1357   1.301   1.546   0.066 -0.0658 -0.1321 -0.0393
  340SOL    HW1 1358   1.309   1.603  -0.008  0.2163  0.1332 -2.1320
  340SOL    HW2 1359   1.387   1.518   0.086 -1.1437  0.4883 -0.3669
  340SOL     MW 1360   1.313   1.550   0.059 -0.1708 -0.0152 -0.3586
  341SOL     OW 1361   0.136   1.423   2.749 -0.7540  0.1658  0.1864
  341SOL    HW1 1362   0.233   1.422   2.762  1.9300 -0.2136 -1.2783
  341SOL    HW2 1363   0.119   1.365   2.674  0.5130  0.2396 -0.8056
  341SOL     MW 1364   0.147   1.415   2.741 -0.2327  0.1255 -0.1378
  342SOL     OW 1365   1.297   0.326   0.101 -0.3185 -0.5757  0.5394
  342SOL    HW1 1366   1.353   0.386   0.150  2.6559 -0.5744  2.5684
  342SOL    HW2 1367   1.299   0.354   0.010  0.1189 -0.4800 -0.6750
  342SOL     MW 1368   1.305   0.337   0.096  0.1317 -0.5629  0.6468
  343SOL     OW 1369   0.249   0.268   2.156  0.0873 -0.4007  0.3759
  343SOL    HW1 1370   0.293   0.203   2.211  0.3367 -0.5829 -4.2256
  343SOL    HW2 1371   0.185   0.214   2.110  2.0706 -2.3739 -0.3944
  343SOL     MW 1372   0.247   0.252   2.157  0.3819 -0.6851 -0.3328
  344SOL     OW 1373   1.741   2.042   0.166 -0.6177 -0.5867 -0.2627
  344SOL    HW1 1374   1.735   2.119   0.111  2.4173 -0.4262  3.0882
  344SOL    HW2 1375   1.675   1.988   0.135  0.9316  1.0175 -3.1818
  344SOL     MW 1376   1.732   2.045   0.155 -0.0128 -0.3539 -0.2057
  345SOL     OW 1377   0.760   1.574   2.347 -0.7085 -0.0249 -0.0348
  345SOL    HW1 1378   0.679   1.594   2.302 -0.4122 -0.8908  2.7591
  345SOL    HW2 1379   0.825   1.576   2.279  0.0246 -0.6683  2.6809
  345SOL     MW 1380   0.758   1.577   2.332 -0.5727 -0.2240  0.6922
  346SOL     OW 1381   1.781   1.064   0.021 -0.2287  0.5300  0.3888
  346SOL    HW1 1382   1.856   1.110   0.061  1.5703 -2.3556  2.0970
  346SOL    HW2 1383   1.740   1.024   0.097  0.7688  1.0913  1.8546
  346SOL     MW 1384   1.785   1.065   0.036  0.1403  0.2233  0.8076
  347SOL     OW 1385   1.220   0.701   2.297 -0.5687 -0.2036 -0.0009
  347SOL    HW1 1386   1.314   0.679   2.311  0.6086 -3.4119 -0.1729
  347SOL    HW2 1387   1.187   0.723   2.385 -0.0612  0.4050  1.5077
  347SOL     MW 1388   1.228   0.701   2.310 -0.3464 -0.5466  0.1755
  348SOL     OW 1389   1.390   2.691   1.935 -0.5673  0.0710  0.2055
  348SOL    HW1 1390   1.432   2.613   1.982  0.7568 -0.2269 -0.9080
  348SOL    HW2 1391   1.436   2.761   1.974 -0.1325  0.5733  2.0196
  348SOL     MW 1392   1.401   2.690   1.946 -0.3352  0.0980  0.2979
  349SOL     OW 1393   1.458   0.261   2.701 -0.3743 -0.7815  0.0118
  349SOL    HW1 1394   1.404   0.284   2.774  0.4531  0.6843  1.3070
  349SOL    HW2 1395   1.548   0.307   2.716 -0.5465  0.9294 -0.8973
  349SOL     MW 1396   1.463   0.270   2.713 -0.2879 -0.3623  0.0628
  350SOL     OW 1397   1.834   0.643   2.663  0.2888  0.6411  0.2437
  350SOL    HW1 1398   1.780   0.568   2.622 -1.3047 -0.2892  1.2575
  350SOL    HW2 1399   1.921   0.595   2.681  0.4335 -0.5937 -2.0717
  350SOL     MW 1400   1.838   0.627   2.660  0.0976  0.3555  0.0720
  351SOL     OW 1401   0.081   1.026   1.520  0.5027  0.6523  0.3647
  351SOL    HW1 1402   0.009   1.052   1.578  1.1954  1.2808  1.7994
  351SOL    HW2 1403   0.143   1.095   1.535  1.2201  4.1064  2.4723
  351SOL     MW 1404   0.080   1.038   1.530  0.6888  1.1909  0.8321
  352SOL     OW 1405   0.823   1.649   2.685 -0.0911  0.0042 -0.0323
  352SOL    HW1 1406   0.874   1.614   2.766  0.1017  0.6680  1.5292
  352SOL    HW2 1407   0.796   1.573   2.637  0.5358 -0.1997  1.9159
  352SOL     MW 1408   0.826   1.634   2.690  0.0171  0.0649  0.4308
  353SOL     OW 1409   3.052   2.522   2.640 -0.0242 -0.1522 -0.1859
  353SOL    HW1 1410   3.143   2.542   2.630  1.4555 -1.3803  1.3520
  353SOL    HW2 1411   3.003   2.608   2.650 -2.0101  1.4091 -0.9299
  353SOL     MW 1412   3.057   2.536   2.640 -0.0910 -0.1082 -0.0812
  354SOL     OW 1413   0.259   2.485   0.799 -0.7952 -0.2732  0.1364
  354SOL    HW1 1414   0.312   2.484   0.882 -0.7049 -0.0633  1.3059
  354SOL    HW2 1415   0.204   2.404   0.807  0.8984 -3.0650  1.0226
  354SOL     MW 1416   0.259   2.474   0.811 -0.5598 -0.6139  0.4076
  355SOL     OW 1417   0.055   2.265   0.397 -0.3236 -0.3229  0.0908
  355SOL    HW1 1418  -0.024   2.209   0.394 -0.4114  1.5468  2.0551
  355SOL    HW2 1419   0.034   2.311   0.482  0.5993 -0.9210  0.6771
  355SOL     MW 1420   0.041   2.264   0.408 -0.2134 -0.1551  0.4274
  356SOL     OW 1421   0.828   2.818   0.978  0.6611  0.1607  0.9664
  356SOL    HW1 1422   0.856   2.879   0.900  1.4445 -1.5036 -1.0923
  356SOL    HW2 1423   0.733   2.808   0.958  3.2092  0.8407 -0.6246
  356SOL     MW 1424   0.819   2.825   0.965  1.1007  0.0308  0.4848
  357SOL     OW 1425   1.787   2.908   0.420  0.1165 -0.1916  0.0148
  357SOL    HW1 1426   1.719   2.859   0.473 -1.0954  0.1737 -0.8922
  357SOL    HW2 1427   1.861   2.856   0.389  0.2754 -1.5130 -1.3627
  357SOL     MW 1428   1.788   2.894   0.423 -0.0225 -0.3178 -0.2866
  358SOL     OW 1429   0.460   0.176   1.080 -0.3801  0.0406 -0.3013
  358SOL    HW1 1430   0.553   0.151   1.066  0.3503  0.2866 -0.4143
  358SOL    HW2 1431   0.424   0.180   0.985 -2.6127 -0.0211 -0.4704
  358SOL     MW 1432   0.467   0.173   1.066 -0.5783  0.0649 -0.3385
  359SOL     OW 1433   0.872   2.945   1.887 -0.4575 -0.4376 -0.4909
  359SOL    HW1 1434   0.858   2.849   1.905 -1.7409  1.9571  3.1591
  359SOL    HW2 1435   0.925   2.945   1.804 -0.5613  0.9007 -0.0779
  359SOL     MW 1436   0.877   2.932   1.878 -0.6405  0.0549  0.0452
  360SOL     OW 1437   0.561   2.763   0.930  0.2042  0.1044 -0.4405
  360SOL    HW1 1438   0.547   2.713   0.852 -0.4188 -0.1626 -0.6583
  360SOL    HW2 1439   0.566   2.706   1.010  0.1452 -1.8697  0.6949
  360SOL     MW 1440   0.559   2.749   0.931  0.1142 -0.1913 -0.3194
  361SOL     OW 1441   0.170   2.648   1.360  0.0110 -0.0647 -0.5931
  361SOL    HW1 1442   0.151   2.727   1.412  0.2457  0.7583 -0.6465
  361SOL    HW2 1443   0.265   2.637   1.373 -0.4354 -1.0227 -1.8733
  361SOL     MW 1444   0.180   2.657   1.369 -0.0169 -0.0825 -0.7690
  362SOL     OW 1445   1.490   2.406   0.628 -0.2740 -0.3646  0.8259
  362SOL    HW1 1446   1.497   2.365   0.713  0.6108 -0.7923 -0.8190
  362SOL    HW2 1447   1.530   2.492   0.631  2.5380  0.3508 -2.8256
  362SOL     MW 1448   1.496   2.412   0.639  0.2137 -0.3267  0.1271
  363SOL     OW 1449   0.333   3.061   0.687 -0.2474  0.1975 -0.4006
  363SOL    HW1 1450   0.325   3.006   0.769 -0.6841  1.2730  1.5792
  363SOL    HW2 1451   0.240   3.071   0.665 -3.7191  0.3596 -1.0266
  363SOL     MW 1452   0.319   3.055   0.695 -0.7631  0.3608 -0.2220
  364SOL     OW 1453   0.707   0.179   0.228 -0.3321 -0.4912 -0.4276
  364SOL    HW1 1454   0.640   0.114   0.262  1.9554 -0.8258  0.0056
  364SOL    HW2 1455   0.668   0.235   0.164 -1.3654 -2.2008 -0.6005
  364SOL     MW 1456   0.693   0.178   0.224 -0.1666 -0.7609 -0.3933
  365SOL     OW 1457   0.975   1.996   1.089 -0.0303  0.0330  0.0279
  365SOL    HW1 1458   0.973   2.081   1.037  0.5486  2.1775 -0.2321
  365SOL    HW2 1459   0.906   1.940   1.053 -0.1810  0.1013  0.1530
  365SOL     MW 1460   0.966   2.000   1.077  0.0262  0.3249  0.0101
  366SOL     OW 1461   2.824   2.662   1.018  0.2874  0.2705 -0.0327
  366SOL    HW1 1462   2.900   2.652   1.087  0.7425  0.0045 -0.4224
  366SOL    HW2 1463   2.861   2.688   0.933 -0.8395 -2.6979  1.1634
  366SOL     MW 1464   2.839   2.664   1.016  0.1988 -0.1563  0.0737
  367SOL     OW 1465   1.258   2.960   0.848 -0.4859 -0.3664  0.5772
  367SOL    HW1 1466   1.258   3.047   0.811 -2.8698 -1.2603 -0.6064
  367SOL    HW2 1467   1.213   2.903   0.782 -0.3413 -1.0013  0.9114
  367SOL     MW 1468   1.252   2.964   0.835 -0.7813 -0.5681  0.4651
  368SOL     OW 1469   1.626   0.409   0.682  0.2560 -0.1784  0.2408
  368SOL    HW1 1470   1.692   0.349   0.642  1.2331 -2.7426 -0.7161
  368SOL    HW2 1471   1.660   0.499   0.678  0.1845 -2.7559  1.8968
  368SOL     MW 1472   1.639   0.413   0.676  0.3755 -0.8568  0.3330
  369SOL     OW 1473   0.135   2.513   1.693  0.3833 -0.7426  0.5300
  369SOL    HW1 1474   0.230   2.494   1.732  0.1946  2.7337  1.7846
  369SOL    HW2 1475   0.125   2.602   1.731  2.3244 -0.4931  0.8520
  369SOL     MW 1476   0.146   2.522   1.703  0.6145 -0.2510  0.7380
  370SOL     OW 1477   0.715   0.092   1.021  0.3219  0.4972  0.2355
  370SOL    HW1 1478   0.759   0.182   1.023  3.1620 -1.3261 -1.5067
  370SOL    HW2 1479   0.790   0.032   1.036 -0.1926 -1.6137  4.8272
  370SOL     MW 1480   0.731   0.096   1.024  0.6287 -0.0219  0.6115
  371SOL     OW 1481   1.299   2.908   1.531 -0.4011  0.3356 -0.2696
  371SOL    HW1 1482   1.230   2.848   1.502 -2.4245  1.0477 -0.5972
  371SOL    HW2 1483   1.303   2.976   1.459  0.3475  2.0478  0.7041
  371SOL     MW 1484   1.291   2.909   1.518 -0.5693  0.6555 -0.1844
  372SOL     OW 1485   0.754   2.325   0.464 -0.3614  0.0715  0.2924
  372SOL    HW1 1486   0.740   2.234   0.487  0.4827  2.7184  0.9768
  372SOL    HW2 1487   0.787   2.324   0.377 -0.2851  0.3718  2.6108
  372SOL     MW 1488   0.756   2.313   0.456 -0.2400  0.4603  0.6886
  373SOL     OW 1489   2.753   3.006   1.458 -0.0032 -0.2524  0.2856
  373SOL    HW1 1490   2.831   2.968   1.424  0.5904  1.6495  0.1693
  373SOL    HW2 1491   2.746   3.084   1.407 -0.1103 -0.1116  2.3732
  373SOL     MW 1492   2.762   3.012   1.447  0.0610  0.0171  0.5457
  374SOL     OW 1493   1.514   0.464   0.248  0.5730  0.0464 -0.2651
  374SOL    HW1 1494   1.568   0.382   0.252  1.3606  1.1665 -1.3533
  374SOL    HW2 1495   1.483   0.462   0.339  0.1088  0.1428 -0.0510
  374SOL     MW 1496   1.517   0.453   0.261  0.6157  0.2069 -0.3805
  375SOL     OW 1497   0.963   2.106   2.293  0.0594  0.7154 -0.2525
  375SOL    HW1 1498   1.040   2.084   2.345 -3.4168  2.4082  1.4840
  375SOL    HW2 1499   0.945   2.024   2.236 -3.8360 -2.9764 -0.2278
  375SOL     MW 1500   0.971   2.092   2.293 -0.9132  0.4517 -0.0201
  376SOL     OW 1501   0.695   2.580   0.068  0.8260 -0.0357  0.4440
  376SOL    HW1 1502   0.634   2.552   0.149  1.7927  3.3871 -1.4898
  376SOL    HW2 1503   0.689   2.499   0.014  0.2287  2.1412 -1.5995
  376SOL     MW 1504   0.687   2.565   0.071  0.8748  0.7031 -0.0808
  377SOL     OW 1505   1.279   2.013   0.870  0.0129 -0.3531  0.0991
  377SOL    HW1 1506   1.201   2.001   0.815 -0.8132  1.0347  2.0212
  377SOL    HW2 1507   1.273   1.956   0.944  0.7308  0.5880 -1.0934
  377SOL     MW 1508   1.268   2.004   0.873 -0.0014 -0.0458  0.1954
  378SOL     OW 1509   0.935   2.802   1.581 -0.5899  0.3469 -0.6719
  378SOL    HW1 1510   0.915   2.710   1.584  0.1451 -0.9526 -0.2958
  378SOL    HW2 1511   0.902   2.832   1.493 -1.9407 -0.6153 -1.0483
  378SOL     MW 1512   0.928   2.794   1.570 -0.6712  0.0485 -0.6719
  379SOL     OW 1513   1.166   1.767   2.284 -0.1975  0.2209  0.6147
  379SOL    HW1 1514   1.104   1.769   2.210  2.0985  0.2129 -2.5739
  379SOL    HW2 1515   1.236   1.710   2.253 -0.3325 -0.5788 -0.2177
  379SOL     MW 1516   1.167   1.760   2.271  0.0876  0.1143  0.0842
  380SOL     OW 1517   0.776   0.105   1.598  0.4503  0.3254  0.6690
  380SOL    HW1 1518   0.801   0.023   1.556 -0.0736  2.5601  1.7000
  380SOL    HW2 1519   0.856   0.135   1.639  0.1072 -0.6740  0.2449
  380SOL     MW 1520   0.790   0.098   1.598  0.3359  0.4884  0.7491
  381SOL     OW 1521   0.813   2.039   0.774  0.1931  0.2345 -0.2148
  381SOL    HW1 1522   0.901   2.028   0.741 -0.5524  1.0845 -0.4720
  381SOL    HW2 1523   0.831   2.115   0.837 -1.0402 -1.1116  1.7718
  381SOL     MW 1524   0.827   2.048   0.778 -0.0680  0.1691  0.0134
  382SOL     OW 1525   0.667   0.092   0.724  0.1813 -0.6231  0.3900
  382SOL    HW1 1526   0.674   0.091   0.822 -1.3161  1.6342 -3.1036
  382SOL    HW2 1527   0.608   0.016   0.711 -0.9501 -2.4929  0.3395
  382SOL     MW 1528   0.660   0.082   0.735 -0.1655 -0.5720 -0.0776
  383SOL     OW 1529   0.542   3.060   0.294 -0.1827  0.7952 -0.0055
  383SOL    HW1 1530   0.598   2.997   0.247 -2.1691  0.0807 -1.8624
  383SOL    HW2 1531   0.485   3.001   0.334 -0.9390 -0.9501 -1.5154
  383SOL     MW 1532   0.542   3.044   0.293 -0.5446  0.4707 -0.4497
  384SOL     OW 1533   0.648   2.910   0.630  0.9375  0.5627 -0.0288
  384SOL    HW1 1534   0.739   2.906   0.662  0.8772 -1.5774  1.3935
  384SOL    HW2 1535   0.607   2.825   0.654 -0.6610  0.1792 -1.1074
  384SOL     MW 1536   0.655   2.898   0.637  0.7187  0.2298  0.0165
  385SOL     OW 1537   1.361   2.099   1.520  0.7304 -0.0200 -0.0668
  385SOL    HW1 1538   1.448   2.100   1.570  0.8278  2.0373 -0.9615
  385SOL    HW2 1539   1.321   2.020   1.561  0.6763  1.9270 -1.0212
  385SOL     MW 1540   1.367   2.089   1.532  0.7361  0.5083 -0.3107
  386SOL     OW 1541   1.303   0.415   0.887 -0.3006  0.3402  0.4523
  386SOL    HW1 1542   1.230   0.453   0.938  0.7544 -1.2692  1.1697
  386SOL    HW2 1543   1.336   0.357   0.951 -1.4765  0.6065  0.4051
  386SOL     MW 1544   1.298   0.412   0.902 -0.3165  0.1630  0.5408
  387SOL     OW 1545   0.817   2.197   1.501 -0.4173  0.4366  0.6181
  387SOL    HW1 1546   0.883   2.254   1.459 -0.1132 -0.3914  0.2390
  387SOL    HW2 1547   0.832   2.111   1.462 -2.3778  1.5334 -1.3704
  387SOL     MW 1548   0.828   2.193   1.490 -0.6359  0.4720  0.3057
  388SOL     OW 1549   1.556   2.799   1.218 -0.3251 -0.3743 -0.4466
  388SOL    HW1 1550   1.473   2.765   1.197 -0.7007 -1.7558  0.1267
  388SOL    HW2 1551   1.631   2.765   1.168 -0.7029  2.6566 -1.3837
  388SOL     MW 1552   1.555   2.790   1.208 -0.4245 -0.1566 -0.4946
  389SOL     OW 1553   0.454   0.092   3.002  0.0566  0.5417 -0.2909
  389SOL    HW1 1554   0.539   0.056   2.986 -3.6016 -0.4990  2.4656
  389SOL    HW2 1555   0.448   0.135   2.919  1.3329 -4.3495 -0.2354
  389SOL     MW 1556   0.464   0.093   2.989 -0.2577 -0.2409  0.0801
  390SOL     OW 1557   1.285   0.081   0.710  0.3458  0.2175  0.2071
  390SOL    HW1 1558   1.338   0.075   0.631  1.4250 -0.5268 -1.6068
  390SOL    HW2 1559   1.352   0.100   0.774  1.9643  0.2222 -5.2073
  390SOL     MW 1560   1.300   0.083   0.708  0.7018  0.1199 -0.7466
  391SOL     OW 1561   0.314   2.206   1.414  0.1172 -0.5303  0.0297
  391SOL    HW1 1562   0.286   2.113   1.428 -0.6682  2.0853  0.8469
  391SOL    HW2 1563   0.244   2.272   1.423  0.3788 -0.8072  0.3193
  391SOL     MW 1564   0.301   2.202   1.417  0.0481 -0.2217  0.1757
  392SOL     OW 1565   2.070   2.204   0.320 -0.5081  0.1651 -0.1712
  392SOL    HW1 1566   2.157   2.181   0.285 -0.6819  0.4533 -0.3381
  392SOL    HW2 1567   2.078   2.243   0.402 -0.3180  1.5426 -1.5626
  392SOL     MW 1568   2.083   2.206   0.326 -0.5059  0.3849 -0.3768
  393SOL     OW 1569   0.181   3.021   2.747  0.3183 -0.5043  0.1341
  393SOL    HW1 1570   0.264   2.997   2.792  2.9985  0.1846  1.9597
  393SOL    HW2 1571   0.166   3.113   2.766  0.1592 -0.8183  3.8630
  393SOL     MW 1572   0.190   3.030   2.756  0.6510 -0.4548  0.8670
  394SOL     OW 1573   0.873   1.749   1.561 -0.0872 -0.5928  0.1009
  394SOL    HW1 1574   0.795   1.769   1.615  2.9885 -1.0403  0.2563
  394SOL    HW2 1575   0.891   1.823   1.494  1.3531  1.0103 -0.2366
  394SOL     MW 1576   0.865   1.762   1.559  0.5087 -0.4404  0.0769
  395SOL     OW 1577   1.010   2.817   2.623 -0.4001  0.6001  0.7028
  395SOL    HW1 1578   1.063   2.893   2.650 -0.7096 -1.1128  0.4494
  395SOL    HW2 1579   1.058   2.769   2.558  0.3658  1.6445 -1.3032
  395SOL     MW 1580   1.023   2.821   2.618 -0.3398  0.5119  0.4047
  396SOL     OW 1581   0.740   1.866   2.401 -0.0732 -0.6678 -0.1699
  396SOL    HW1 1582   0.817   1.876   2.459  0.4999  0.3361  0.2440
  396SOL    HW2 1583   0.710   1.774   2.410 -1.0608  2.5601  0.1327
  396SOL     MW 1584   0.746   1.855   2.410 -0.1279 -0.1095 -0.0754
  397SOL     OW 1585   0.999   2.308   1.276  0.1485  0.1417  0.4787
  397SOL    HW1 1586   1.027   2.299   1.183 -0.6012  0.1991  1.6293
  397SOL    HW2 1587   1.084   2.288   1.323  0.6611  1.1650  0.9656
  397SOL     MW 1588   1.014   2.304   1.270  0.1172  0.2843  0.6948
  398SOL     OW 1589   0.539   2.649   0.683  0.4916 -0.6915  0.0304
  398SOL    HW1 1590   0.468   2.618   0.627 -1.1357 -0.3104 -3.3006
  398SOL    HW2 1591   0.619   2.614   0.642 -0.7233 -1.6511  0.3231
  398SOL     MW 1592   0.540   2.641   0.670  0.1166 -0.7678 -0.3705
  399SOL     OW 1593   0.249   2.063   0.347 -0.5325 -0.0445 -0.8745
  399SOL    HW1 1594   0.183   2.132   0.363 -0.0024  1.8803  0.9877
  399SOL    HW2 1595   0.297   2.099   0.274  3.4549  3.6043 -0.6647
  399SOL     MW 1596   0.246   2.077   0.340  0.0636  0.6909 -0.6011
  400SOL     OW 1597   0.496   1.928   0.143  0.2415  0.4167 -0.7825
  400SOL    HW1 1598   0.475   2.018   0.122 -0.6414 -0.3722 -1.9132
  400SOL    HW2 1599   0.414   1.883   0.161 -0.4610  0.3437 -0.6093
  400SOL     MW 1600   0.482   1.934   0.143  0.0323  0.3030 -0.9089
  401SOL     OW 1601   0.761   2.023   0.099 -0.4248  0.2661 -0.1891
  401SOL    HW1 1602   0.817   1.939   0.113  0.2765 -1.8662 -3.2051
  401SOL    HW2 1603   0.674   1.987   0.097  0.1052  0.7895 -0.7086
  401SOL     MW 1604   0.757   2.007   0.101 -0.2624  0.0538 -0.6556
  402SOL     OW 1605   0.596   2.974   1.806 -0.0243 -0.4964  0.1739
  402SOL    HW1 1606   0.685   2.956   1.832 -1.8971 -0.5555  0.7498
  402SOL    HW2 1607   0.602   3.065   1.773 -0.9902 -0.0110 -2.2083
  402SOL     MW 1608   0.609   2.984   1.805 -0.3988 -0.4402 -0.0645
  403SOL     OW 1609   0.064   0.433   0.335 -0.3348  0.4148  0.4293
  403SOL    HW1 1610   0.135   0.453   0.400  2.1144  0.4027  0.0700
  403SOL    HW2 1611   0.117   0.414   0.258  0.2210  3.3376 -1.5371
  403SOL     MW 1612   0.080   0.433   0.333  0.0617  0.7988  0.1224
  404SOL     OW 1613   0.911   2.927   0.748  0.3006  0.3163  0.4927
  404SOL    HW1 1614   0.987   2.867   0.727  0.1181 -0.9607 -2.0734
  404SOL    HW2 1615   0.933   3.001   0.690  2.4533 -0.9964 -1.9131
  404SOL     MW 1616   0.924   2.929   0.737  0.5606 -0.0254 -0.1633
  405SOL     OW 1617   0.515   2.402   1.500  0.3084  0.3822  0.3413
  405SOL    HW1 1618   0.501   2.479   1.445 -0.7655  1.5740 -0.1980
  405SOL    HW2 1619   0.449   2.345   1.471 -2.0789  0.9493 -1.2415
  405SOL     MW 1620   0.504   2.405   1.489 -0.1483  0.6143  0.0613
  406SOL     OW 1621   0.408   2.403   1.030  0.4011  0.1791  0.5197
  406SOL    HW1 1622   0.326   2.410   1.074  0.5616  2.4055  0.0387
  406SOL    HW2 1623   0.440   2.320   1.062 -0.2268  2.4733  3.1491
  406SOL     MW 1624   0.402   2.393   1.040  0.3394  0.7756  0.8032
  407SOL     OW 1625   3.064   2.686   1.153  0.8405 -0.2057  0.3183
  407SOL    HW1 1626   3.132   2.658   1.223 -0.6374 -0.5775  1.8769
  407SOL    HW2 1627   3.114   2.696   1.071  0.7606 -1.6018 -2.7896
  407SOL     MW 1628   3.080   2.684   1.151  0.6349 -0.4389  0.1139
  408SOL     OW 1629   2.126   2.114   0.724  0.3742  0.7646 -0.6351
  408SOL    HW1 1630   2.050   2.136   0.783  0.0576  0.8394 -3.3102
  408SOL    HW2 1631   2.079   2.057   0.659 -1.3731 -2.6376  0.5533
  408SOL     MW 1632   2.109   2.109   0.723  0.1019  0.3256 -0.8313
  409SOL     OW 1633   1.481   0.144   0.890  0.0024  0.3343  0.1084
  409SOL    HW1 1634   1.559   0.196   0.903 -1.5789  1.2677  0.2059
  409SOL    HW2 1635   1.490   0.077   0.959  1.1992 -1.7577 -0.3602
  409SOL     MW 1636   1.492   0.142   0.901 -0.0483  0.1814  0.0595
  410SOL     OW 1637   1.100   2.477   1.055  0.4470  0.0758  0.9859
  410SOL    HW1 1638   1.041   2.520   0.989 -2.1737  0.3234  0.1759
  410SOL    HW2 1639   1.154   2.422   1.001  0.1046 -0.0335 -1.1159
  410SOL     MW 1640   1.099   2.475   1.039  0.0560  0.0940  0.6017
  411SOL     OW 1641   1.985   0.027   2.904 -0.2120  0.2805  0.1111
  411SOL    HW1 1642   1.927  -0.010   2.837  3.1280 -1.1593  1.1125
  411SOL    HW2 1643   1.925   0.078   2.960 -1.0062  2.5045 -0.7858
  411SOL     MW 1644   1.969   0.029   2.902  0.1239  0.3840  0.1249
  412SOL     OW 1645   1.002   2.282   0.607 -0.1146 -0.2193 -0.2767
  412SOL    HW1 1646   1.031   2.369   0.640  1.2960  0.8626  1.0881
  412SOL    HW2 1647   0.925   2.305   0.568 -1.0266  1.1915 -1.7348
  412SOL     MW 1648   0.996   2.297   0.606 -0.0488  0.1096 -0.2890
  413SOL     OW 1649   0.560   2.775   3.066  0.5626 -0.8582  0.0826
  413SOL    HW1 1650   0.610   2.697   3.103  0.7065 -0.1910  0.8324
  413SOL    HW2 1651   0.593   2.796   2.983 -0.5483 -0.4544  5.6020
  413SOL     MW 1652   0.571   2.768   3.060  0.4350 -0.7169  0.9098
  414SOL     OW 1653   1.921   2.900   1.049 -0.0508  0.8755  0.0910
  414SOL    HW1 1654   1.852   2.930   0.985  0.7375  0.1687  0.7151
  414SOL    HW2 1655   1.992   2.961   1.032 -0.8822  3.0066 -0.8405
  414SOL     MW 1656   1.921   2.912   1.038 -0.0565  1.0634  0.0505
  415SOL     OW 1657   1.786   2.626   1.081  0.2922 -0.0450 -0.3157
  415SOL    HW1 1658   1.783   2.613   1.178 -0.5142  0.4425  2.6776
  415SOL    HW2 1659   1.849   2.699   1.080  1.0267 -0.1892  1.2667
  415SOL     MW 1660   1.794   2.634   1.094  0.2827  0.0003  0.2881
  416SOL     OW 1661   0.557   1.925   1.393  0.7987  0.4499 -0.3408
  416SOL    HW1 1662   0.506   1.988   1.341  0.9018  1.2608  1.5634
  416SOL    HW2 1663   0.495   1.846   1.406 -2.7325  0.5769 -0.9929
  416SOL     MW 1664   0.542   1.923   1.388  0.3464  0.5736 -0.1756
  417SOL     OW 1665   1.003   3.064   2.078  0.4268 -0.4111  0.2971
  417SOL    HW1 1666   0.953   3.069   2.161 -0.7551 -0.2022 -4.5696
  417SOL    HW2 1667   0.938   3.038   2.007 -3.0503 -0.4420 -2.0297
  417SOL     MW 1668   0.988   3.061   2.080 -0.1879 -0.3876 -0.6520
  418SOL     OW 1669   0.729   2.898   0.120 -0.0582  0.0442 -0.3555
  418SOL    HW1 1670   0.816   2.893   0.080 -0.5875 -1.7564 -0.0040
  418SOL    HW2 1671   0.660   2.857   0.063  0.7624  1.6013  1.1180
  418SOL     MW 1672   0.731   2.892   0.107 -0.0198  0.0120 -0.1147
  419SOL     OW 1673   0.450   2.637   1.394  0.7995 -0.0204  0.2350
  419SOL    HW1 1674   0.516   2.678   1.453 -1.3035 -5.9699 -0.8232
  419SOL    HW2 1675   0.485   2.654   1.304 -0.1515 -0.7726  1.0716
  419SOL     MW 1676   0.464   2.645   1.390  0.3966 -0.9046  0.2057
  420SOL     OW 1677   0.868   2.271   0.972 -0.3545 -0.4683 -0.2392
  420SOL    HW1 1678   0.805   2.257   1.045  1.4485 -1.1789  1.5297
  420SOL    HW2 1679   0.869   2.362   0.952 -0.9202 -3.1018  1.6491
  420SOL     MW 1680   0.860   2.281   0.979 -0.1912 -0.9095  0.2433
  421SOL     OW 1681   2.926   0.118   3.096  0.2994  0.7216  0.0486
  421SOL    HW1 1682   2.867   0.087   3.024 -1.6335 -0.1737 -2.3022
  421SOL    HW2 1683   2.968   0.035   3.127 -1.6163  0.0158 -1.9945
  421SOL     MW 1684   2.924   0.103   3.091 -0.2084  0.5104 -0.5311
  422SOL     OW 1685   0.896   2.537   0.887 -0.4607 -0.3070 -0.6773
  422SOL    HW1 1686   0.872   2.628   0.912  0.9722 -0.8269  4.8663
  422SOL    HW2 1687   0.866   2.529   0.801  4.1212  3.4162 -1.6481
  422SOL     MW 1688   0.889   2.548   0.879  0.3329  0.1156 -0.0739
  423SOL     OW 1689   1.478   0.105   0.506 -1.0542  0.1540 -0.2126
  423SOL    HW1 1690   1.441   0.096   0.421  0.3053  3.1033  0.2371
  423SOL    HW2 1691   1.482   0.203   0.524  1.6995 -1.0960  0.4045
  423SOL     MW 1692   1.474   0.117   0.497 -0.5115  0.3782 -0.0718
  424SOL     OW 1693   0.709   2.268   1.193 -0.2308  0.2760  0.3053
  424SOL    HW1 1694   0.626   2.223   1.195 -2.3519  0.5998 -0.7507
  424SOL    HW2 1695   0.755   2.255   1.272 -0.3452 -3.6557 -1.7640
  424SOL     MW 1696   0.704   2.261   1.204 -0.5257 -0.2000 -0.1071
  425SOL     OW 1697   1.739   2.819   2.038  0.1276 -0.1485  0.6120
  425SOL    HW1 1698   1.732   2.841   1.946 -0.3106  0.1636  1.9020
  425SOL    HW2 1699   1.774   2.731   2.024  0.8133 -2.1171 -0.1844
  425SOL     MW 1700   1.743   2.810   2.024  0.1603 -0.3671  0.6771
  426SOL     OW 1701   0.796   1.687   1.943 -0.4540  0.4374  0.0291
  426SOL    HW1 1702   0.741   1.733   1.881 -0.1515 -3.3784 -0.6873
  426SOL    HW2 1703   0.812   1.755   2.009  2.6035 -1.2066  0.7939
  426SOL     MW 1704   0.791   1.702   1.943 -0.0107 -0.2830  0.0355
  427SOL     OW 1705   0.350   1.646   1.918 -0.2348  0.0060 -0.5029
  427SOL    HW1 1706   0.418   1.580   1.925 -2.2623 -0.8222 -0.5145
  427SOL    HW2 1707   0.272   1.605   1.961 -0.2724 -2.2399  0.3660
  427SOL     MW 1708   0.349   1.632   1.924 -0.5073 -0.3996 -0.3898
  428SOL     OW 1709   0.576   2.594   1.152  0.1453 -0.2748 -0.3526
  428SOL    HW1 1710   0.636   2.535   1.196 -1.1072  2.7587 -2.9752
  428SOL    HW2 1711   0.531   2.520   1.102 -2.0031 -0.4351 -3.6779
  428SOL     MW 1712   0.578   2.576   1.151 -0.3035  0.1043 -1.1374
  429SOL     OW 1713   1.282   2.791   1.069 -0.3672  0.4766 -0.3915
  429SOL    HW1 1714   1.201   2.747   1.097 -1.4363  0.0261 -1.2496
  429SOL    HW2 1715   1.256   2.855   1.001 -1.7762  0.0371  0.9666
  429SOL     MW 1716   1.268   2.793   1.064 -0.6942  0.3592 -0.3256
  430SOL     OW 1717   1.133   2.737   0.721  0.0012  0.5223  0.1380
  430SOL    HW1 1718   1.183   2.657   0.748  1.3852  1.0247  1.0182
  430SOL    HW2 1719   1.093   2.710   0.631 -1.1934 -2.1614 -1.0880
  430SOL     MW 1720   1.134   2.723   0.712  0.0262  0.2345  0.0924
  431SOL     OW 1721   0.364   1.921   1.046 -0.0760  0.0625 -0.0765
  431SOL    HW1 1722   0.439   1.862   1.051  1.4781  1.3385 -0.0475
  431SOL    HW2 1723   0.319   1.910   0.966  0.2534  1.0034  1.6703
  431SOL     MW 1724   0.368   1.912   1.036  0.1725  0.3550  0.1578
  432SOL     OW 1725   0.064   0.010   1.213  0.2109  0.3358  0.2284
  432SOL    HW1 1726   0.090   0.078   1.280  0.1393 -1.2470 -1.6267
  432SOL    HW2 1727  -0.007  -0.047   1.242 -1.1592 -0.2105  0.4267
  432SOL     MW 1728   0.058   0.012   1.225  0.0207  0.0549  0.0098
  433SOL     OW 1729   0.622   2.805   1.527 -0.6957 -0.8331 -0.4756
  433SOL    HW1 1730   0.647   2.844   1.614  1.3633  2.4366  1.8937
  433SOL    HW2 1731   0.686   2.831   1.460 -0.1352 -0.6814 -0.7064
  433SOL     MW 1732   0.634   2.814   1.530 -0.3501 -0.3816 -0.1934
  434SOL     OW 1733   1.596   2.844   1.526  0.5055  0.2011 -0.0556
  434SOL    HW1 1734   1.499   2.849   1.506 -1.1605 -0.8295  0.4137
  434SOL    HW2 1735   1.637   2.813   1.444 -1.2773  3.7644 -1.7763
  434SOL     MW 1736   1.588   2.841   1.512  0.0504  0.5352 -0.2207
  435SOL     OW 1737   2.842   1.797   0.223 -0.0729 -0.1385 -0.2875
  435SOL    HW1 1738   2.915   1.855   0.179 -0.5499 -1.2601 -1.1046
  435SOL    HW2 1739   2.794   1.764   0.151  2.5149 -0.5792 -0.9045
  435SOL     MW 1740   2.846   1.800   0.208  0.2056 -0.3447 -0.4767
  436SOL     OW 1741   1.327   2.722   0.385  0.0686 -0.6425  0.0008
  436SOL    HW1 1742   1.374   2.713   0.468  0.1150 -1.6696 -0.8566
  436SOL    HW2 1743   1.266   2.800   0.409 -1.0249  1.3211 -0.9757
  436SOL     MW 1744   1.325   2.731   0.399 -0.0696 -0.5189 -0.2411
  437SOL     OW 1745   0.848   2.950   1.366  0.1868  0.4102 -0.4829
  437SOL    HW1 1746   0.904   3.028   1.360  0.8963 -0.7373  1.5865
  437SOL    HW2 1747   0.866   2.903   1.282  0.3348  1.9914 -1.6801
  437SOL     MW 1748   0.858   2.954   1.354  0.3000  0.4675 -0.3678
  438SOL     OW 1749   0.851   2.670   1.883 -0.4593 -0.4145 -0.3266
  438SOL    HW1 1750   0.843   2.648   1.972  0.1442 -0.5116 -0.7029
  438SOL    HW2 1751   0.823   2.590   1.845 -0.2868 -1.9262  1.7868
  438SOL     MW 1752   0.847   2.656   1.890 -0.3569 -0.6267 -0.0974
  439SOL     OW 1753   1.204   2.168   0.461  0.5533  0.4105 -0.4011
  439SOL    HW1 1754   1.140   2.209   0.525  1.1475 -0.4819  3.5296
  439SOL    HW2 1755   1.189   2.215   0.376 -0.2065  1.5626  1.3792
  439SOL     MW 1756   1.194   2.180   0.458  0.5315  0.4448  0.3524
  440SOL     OW 1757   1.762   2.998   3.081  0.4458  0.0611 -0.4020
  440SOL    HW1 1758   1.703   2.980   3.155  0.8644  0.8659 -1.9986
  440SOL    HW2 1759   1.847   2.959   3.112 -1.4605  2.3833 -0.1988
  440SOL     MW 1760   1.765   2.990   3.095  0.2495  0.4737 -0.5859
  441SOL     OW 1761   0.331   2.636   0.468 -0.6235 -0.2312 -0.7730
  441SOL    HW1 1762   0.290   2.611   0.391 -2.3994 -0.7215  0.6401
  441SOL    HW2 1763   0.373   2.725   0.452  2.0230  0.2102 -1.4774
  441SOL     MW 1764   0.331   2.645   0.456 -0.5086 -0.2376 -0.6795
  442SOL     OW 1765   3.051   2.422   0.589 -0.0557  0.5851 -0.3089
  442SOL    HW1 1766   3.077   2.501   0.618 -1.9319 -1.9869  0.6882
  442SOL    HW2 1767   2.962   2.412   0.626 -0.0681  0.4775  2.3441
  442SOL     MW 1768   3.042   2.431   0.598 -0.3049  0.2316  0.1727
  443SOL     OW 1769   1.408   1.783   1.922  0.1399  0.5202 -0.2689
  443SOL    HW1 1770   1.389   1.833   1.842  0.3006 -0.3390 -1.0214
  443SOL    HW2 1771   1.346   1.706   1.922  1.1464 -1.3035  1.9009
  443SOL     MW 1772   1.397   1.779   1.912  0.2939  0.1662 -0.0819
  444SOL     OW 1773   0.896   2.516   1.583 -0.2980  0.1509 -0.2205
  444SOL    HW1 1774   0.981   2.492   1.630 -1.0775  1.4378 -1.0485
  444SOL    HW2 1775   0.831   2.469   1.638 -1.8489 -1.3693  1.4902
  444SOL     MW 1776   0.899   2.506   1.596 -0.6054  0.1201 -0.1040
  445SOL     OW 1777   0.989   0.071   1.345  0.6541 -0.1548 -0.0475
  445SOL    HW1 1778   0.945   0.152   1.318  1.3089  0.5727 -1.3816
  445SOL    HW2 1779   1.035   0.040   1.262  4.3504  2.3505 -1.7610
  445SOL     MW 1780   0.989   0.078   1.331  1.2282  0.2717 -0.4496
  446SOL     OW 1781   2.721   2.901   1.098 -0.1253  0.7382  0.1728
  446SOL    HW1 1782   2.676   2.948   1.031  0.6349  0.1356 -0.5587
  446SOL    HW2 1783   2.747   2.815   1.056  1.3091  0.0247  0.2649
  446SOL     MW 1784   2.719   2.896   1.084  0.1643  0.5646  0.0884
  447SOL     OW 1785   0.083   2.029   1.639  0.1578  0.2730 -0.1152
  447SOL    HW1 1786   0.138   1.965   1.688  0.5636 -2.2807  0.4802
  447SOL    HW2 1787  -0.013   2.007   1.638 -2.8036 -1.1380 -1.7110
  447SOL     MW 1788   0.077   2.018   1.645 -0.1794 -0.2501 -0.2472
  448SOL     OW 1789   1.724   2.402   1.614  0.4807 -0.0193 -0.4177
  448SOL    HW1 1790   1.688   2.316   1.608  1.6762 -2.3927 -1.4345
  448SOL    HW2 1791   1.648   2.467   1.608 -0.5654  0.7309  1.0983
  448SOL     MW 1792   1.710   2.399   1.612  0.5004 -0.2334 -0.3518
  449SOL     OW 1793   0.801   2.824   0.381  0.5733  0.2235 -0.1843
  449SOL    HW1 1794   0.768   2.807   0.288 -0.9002  0.3246  0.7394
  449SOL    HW2 1795   0.717   2.850   0.422 -1.9019  1.7443 -1.1147
  449SOL     MW 1796   0.786   2.825   0.374  0.0523  0.4375 -0.1852
  450SOL     OW 1797   1.204   2.460   0.683  0.0424  0.2400  0.4182
  450SOL    HW1 1798   1.245   2.438   0.768  1.1071  4.5661 -4.7287
  450SOL    HW2 1799   1.275   2.437   0.627 -0.3767  1.6102 -0.4833
  450SOL     MW 1800   1.219   2.454   0.687  0.1276  0.9916 -0.3798
  451SOL     OW 1801   0.582   2.067   1.626  0.0592  0.9039  0.2616
  451SOL    HW1 1802   0.631   2.144   1.612  2.6151 -1.4066 -0.1859
  451SOL    HW2 1803   0.573   2.025   1.542  0.2154  1.8352  2.4698
  451SOL     MW 1804   0.587   2.072   1.613  0.4170  0.7219  0.4939
  452SOL     OW 1805   0.295   2.718   0.009  0.4653 -0.5890 -0.0863
  452SOL    HW1 1806   0.389   2.730  -0.018  2.2130 -1.1361 -0.7856
  452SOL    HW2 1807   0.231   2.750  -0.054  2.1193  0.7186  0.5678
  452SOL     MW 1808   0.299   2.724  -0.003  0.9141 -0.4887 -0.0922
  453SOL     OW 1809   0.356   2.905   1.683  0.3054  0.7111 -0.2027
  453SOL    HW1 1810   0.442   2.921   1.719 -0.7740 -0.1654 -0.2496
  453SOL    HW2 1811   0.366   2.955   1.598  0.7283  1.4938 -1.2525
  453SOL     MW 1812   0.369   2.914   1.676  0.2188  0.6987 -0.3474
  454SOL     OW 1813   1.016   2.770   1.195 -0.0158  0.5227 -0.1005
  454SOL    HW1 1814   0.992   2.681   1.220 -1.6875  0.3345 -1.2971
  454SOL    HW2 1815   0.968   2.785   1.116  1.4733  1.9140  0.1274
  454SOL     MW 1816   1.006   2.760   1.188 -0.0399  0.6814 -0.2283
  455SOL     OW 1817   1.600   2.931   0.209  0.2574  0.2171 -0.7396
  455SOL    HW1 1818   1.650   2.922   0.288 -1.1830  0.7545  0.2265
  455SOL    HW2 1819   1.544   2.841   0.213 -0.6648 -1.4757  1.2704
  455SOL     MW 1820   1.599   2.918   0.220 -0.0543  0.0646 -0.3470
  456SOL     OW 1821   2.806   0.349   1.407 -1.4235  0.0427  0.8183
  456SOL    HW1 1822   2.763   0.292   1.346  1.8229 -0.1941 -0.3880
  456SOL    HW2 1823   2.892   0.369   1.364  1.2719 -1.4705  0.6661
  456SOL     MW 1824   2.812   0.344   1.394 -0.6396 -0.1882  0.6390
  457SOL     OW 1825   0.977   1.572   2.907  0.2283  0.1007  0.3177
  457SOL    HW1 1826   0.916   1.534   2.974 -1.7478 -1.3177  0.1033
  457SOL    HW2 1827   1.066   1.529   2.909  1.1206  0.3503 -3.6817
  457SOL     MW 1828   0.981   1.561   2.916  0.0853 -0.0535 -0.2383
  458SOL     OW 1829   1.479   1.414   0.543 -0.0665  0.2285  0.4586
  458SOL    HW1 1830   1.418   1.488   0.546 -0.3473  2.0379 -0.0298
  458SOL    HW2 1831   1.443   1.351   0.477 -2.6811  0.8568  0.9651
  458SOL     MW 1832   1.466   1.415   0.535 -0.4485  0.5501  0.4610
  459SOL     OW 1833   1.458   0.079   0.209 -0.2532  0.6445 -0.5796
  459SOL    HW1 1834   1.482  -0.013   0.215 -0.0755  1.1890  1.1044
  459SOL    HW2 1835   1.378   0.104   0.161 -1.0422  0.1188  1.1872
  459SOL     MW 1836   1.451   0.070   0.204 -0.3339  0.6470 -0.1243
  460SOL     OW 1837   1.790   2.198   0.606  0.3009 -0.1725  0.2327
  460SOL    HW1 1838   1.707   2.177   0.645  0.2645  0.9762  0.9355
  460SOL    HW2 1839   1.834   2.114   0.605 -0.5307  0.1797  2.7650
  460SOL     MW 1840   1.785   2.184   0.611  0.1864  0.0255  0.6595
  461SOL     OW 1841   0.383   2.363   0.577  0.2083 -0.4891 -0.2946
  461SOL    HW1 1842   0.356   2.421   0.504  0.4075  1.8032  1.6971
  461SOL    HW2 1843   0.345   2.407   0.658 -3.9275 -1.1188  1.2769
  461SOL     MW 1844   0.374   2.377   0.578 -0.3111 -0.2697  0.1756
  462SOL     OW 1845   0.417   0.326   1.287  0.3170 -0.3659  0.2073
  462SOL    HW1 1846   0.436   0.281   1.204 -1.6111  0.5890 -0.3190
  462SOL    HW2 1847   0.485   0.310   1.346 -1.3689  1.9813  0.8825
  462SOL     MW 1848   0.428   0.318   1.284 -0.1598  0.0698  0.2270
  463SOL     OW 1849   0.927   0.069   0.617  0.7617  0.1831 -0.1963
  463SOL    HW1 1850   0.935   0.115   0.533  1.6609  0.1011  1.4383
  463SOL    HW2 1851   0.837   0.082   0.645 -1.0832  1.3900 -0.2801
  463SOL     MW 1852   0.917   0.076   0.609  0.6369  0.3315  0.0083
  464SOL     OW 1853   0.846   3.059   2.294 -0.0751  0.1262  0.0970
  464SOL    HW1 1854   0.807   2.973   2.303  0.7934  2.2426  1.5725
  464SOL    HW2 1855   0.860   3.080   2.386  1.4647 -1.4221  3.1339
  464SOL     MW 1856   0.843   3.050   2.307  0.2427  0.2012  0.6924
  465SOL     OW 1857   0.690   0.298   0.468  0.4426  0.4481  0.0061
  465SOL    HW1 1858   0.643   0.235   0.521  2.1186  0.4629  2.9436
  465SOL    HW2 1859   0.694   0.255   0.381 -0.6822  1.6911  0.0611
  465SOL     MW 1860   0.685   0.284   0.464  0.5153  0.6140  0.4009
  466SOL     OW 1861   1.060   1.969   0.701 -0.1043  0.4529  0.1888
  466SOL    HW1 1862   1.071   1.889   0.646  1.1857 -1.0724 -0.8153
  466SOL    HW2 1863   1.084   2.038   0.645 -2.1144 -0.8100  0.8936
  466SOL     MW 1864   1.065   1.967   0.686 -0.1993  0.0851  0.1493
  467SOL     OW 1865   1.262   2.306   0.928 -0.0261 -0.3763  0.0987
  467SOL    HW1 1866   1.356   2.312   0.954  1.1356  1.4723  2.4073
  467SOL    HW2 1867   1.245   2.215   0.904 -0.2172  1.0722  0.9714
  467SOL     MW 1868   1.272   2.295   0.928  0.1020  0.0587  0.5184
  468SOL     OW 1869   0.399   2.612   1.989 -0.1243 -0.0850 -0.1190
  468SOL    HW1 1870   0.418   2.549   1.915 -0.6417 -0.6757  0.3382
  468SOL    HW2 1871   0.361   2.693   1.954  1.2560 -1.5516  1.3329
  468SOL     MW 1872   0.396   2.614   1.974 -0.0105 -0.3564  0.1329
  469SOL     OW 1873   0.364   2.183   1.776  0.1340  0.3909 -0.1760
  469SOL    HW1 1874   0.292   2.122   1.800 -2.6642 -0.4326  0.1675
  469SOL    HW2 1875   0.433   2.129   1.729  1.6481  0.1591  0.7302
  469SOL     MW 1876   0.363   2.168   1.773 -0.0354  0.2517 -0.0111
  470SOL     OW 1877   3.048   2.608   0.064 -0.0454 -0.4515  0.2661
  470SOL    HW1 1878   2.958   2.582   0.083 -2.3246  0.5842 -1.9006
  470SOL    HW2 1879   3.060   2.618  -0.031  0.4211 -0.1153  1.6366
  470SOL     MW 1880   3.037   2.606   0.054 -0.2846 -0.2705  0.1611
  471SOL     OW 1881   1.144   2.712   1.443 -0.6512 -0.1809  0.0311
  471SOL    HW1 1882   1.079   2.726   1.511 -0.0213  0.9714 -0.6606
  471SOL    HW2 1883   1.108   2.754   1.369  0.5410  0.0261  1.6703
  471SOL     MW 1884   1.131   2.719   1.442 -0.4108 -0.0016  0.1561
  472SOL     OW 1885   2.937   2.109   0.390 -0.9929  0.0298  0.5154
  472SOL    HW1 1886   2.914   2.080   0.300 -0.7216 -2.6661 -2.0164
  472SOL    HW2 1887   2.909   2.043   0.451 -0.5918  0.4944  1.2733
  472SOL     MW 1888   2.930   2.096   0.386 -0.9042 -0.2646  0.2813
  473SOL     OW 1889   0.870   2.542   1.315 -0.3198 -0.2560 -0.2397
  473SOL    HW1 1890   0.914   2.458   1.286  2.2130  0.3913  0.0851
  473SOL    HW2 1891   0.895   2.540   1.406 -0.4894 -1.4871  0.1350
  473SOL     MW 1892   0.879   2.531   1.323 -0.0080 -0.3330 -0.1474
  474SOL     OW 1893   0.840   2.135   1.783  0.6924 -0.6593  0.3259
  474SOL    HW1 1894   0.916   2.139   1.839 -1.1251  1.3102 -2.9170
  474SOL    HW2 1895   0.867   2.144   1.694  1.6312  0.3408  0.5928
  474SOL     MW 1896   0.854   2.136   1.778  0.5765 -0.2675 -0.0667
  475SOL     OW 1897   1.652   0.021   1.421 -0.1366 -0.0165  0.0695
  475SOL    HW1 1898   1.562   0.040   1.399 -0.4945 -0.4711 -0.9680
  475SOL    HW2 1899   1.641  -0.050   1.482 -0.1804 -1.9380 -0.0247
  475SOL     MW 1900   1.639   0.014   1.426 -0.1896 -0.3300 -0.0798
  476SOL     OW 1901   1.418   2.607   0.909 -0.5187  0.2706  0.8123
  476SOL    HW1 1902   1.361   2.672   0.961 -0.2497 -0.3816 -1.9641
  476SOL    HW2 1903   1.449   2.667   0.839  0.8050 -2.0901 -2.2180
  476SOL     MW 1904   1.415   2.623   0.907 -0.3085 -0.1269  0.0462
  477SOL     OW 1905   0.774   2.527   0.626 -0.3018 -0.1171  0.0088
  477SOL    HW1 1906   0.845   2.575   0.586 -1.3932 -0.9671 -0.3518
  477SOL    HW2 1907   0.772   2.446   0.572 -0.8837 -1.1372  0.9681
  477SOL     MW 1908   0.783   2.522   0.614 -0.5226 -0.3638  0.0878
  478SOL     OW 1909   0.125   2.719   0.922  0.1358  0.0729  0.0252
  478SOL    HW1 1910   0.186   2.799   0.937  1.6878  0.3751  0.1375
  478SOL    HW2 1911   0.143   2.679   0.843  0.1298  2.7293  1.9125
  478SOL     MW 1912   0.135   2.725   0.913  0.3398  0.4632  0.2891
  479SOL     OW 1913   1.428   1.965   1.294  0.0116  0.2620 -0.1991
  479SOL    HW1 1914   1.399   2.023   1.367 -1.9183 -0.0067 -2.8668
  479SOL    HW2 1915   1.506   1.912   1.334 -0.6075  0.7126 -1.2776
  479SOL     MW 1916   1.435   1.966   1.309 -0.3247  0.2860 -0.6934
  480SOL     OW 1917   1.890   2.321   1.348 -0.0556  0.4325 -0.0473
  480SOL    HW1 1918   1.878   2.223   1.360  2.6285 -0.0530 -1.1390
  480SOL    HW2 1919   1.933   2.332   1.266 -4.5322  1.1862 -0.0521
  480SOL     MW 1920   1.894   2.310   1.339 -0.2921  0.4679 -0.1920
  481SOL     OW 1921   1.056   3.085   1.104 -1.5863  0.3446 -0.3836
  481SOL    HW1 1922   1.121   3.032   1.059  0.6201  1.2651 -1.4063
  481SOL    HW2 1923   1.074   3.173   1.081  1.1163  0.1668  2.4166
  481SOL     MW 1924   1.067   3.090   1.095 -0.9386  0.4426 -0.1491
  482SOL     OW 1925   0.965   3.032   0.329  0.2328 -0.7922 -0.3327
  482SOL    HW1 1926   0.904   2.956   0.343  1.2894  0.8060 -0.9592
  482SOL    HW2 1927   0.950   3.068   0.244  1.4803  0.6766 -0.3022
  482SOL     MW 1928   0.955   3.027   0.320  0.5368 -0.3876 -0.4113
  483SOL     OW 1929   0.391   2.896   0.449  0.5676  0.3266 -0.5163
  483SOL    HW1 1930   0.298   2.897   0.415 -1.4037 -0.8062 -0.1821
  483SOL    HW2 1931   0.391   2.940   0.536 -0.4157  0.5021  0.3528
  483SOL     MW 1932   0.379   2.902   0.456  0.1778  0.2003 -0.3575
  484SOL     OW 1933   1.655   1.865   1.394  0.5977  0.6793 -0.3709
  484SOL    HW1 1934   1.709   1.938   1.361 -1.4219  1.6161 -0.2190
  484SOL    HW2 1935   1.665   1.864   1.489 -0.6063  0.9636 -0.4717
  484SOL     MW 1936   1.664   1.874   1.402  0.1724  0.8404 -0.3642
  485SOL     OW 1937   0.554   2.455   0.256  0.3988 -0.2437 -0.6586
  485SOL    HW1 1938   0.587   2.437   0.341 -3.4373  0.4316 -3.6498
  485SOL    HW2 1939   0.463   2.496   0.248  0.8019  0.5558 -0.4088
  485SOL     MW 1940   0.546   2.458   0.266 -0.0541 -0.0491 -1.0203
  486SOL     OW 1941   0.124   2.405   1.453 -0.1833 -0.3846  1.0177
  486SOL    HW1 1942   0.138   2.493   1.406  3.0268  0.7487  2.5726
  486SOL    HW2 1943   0.145   2.432   1.542 -1.8175 -0.5419  0.5680
  486SOL     MW 1944   0.128   2.420   1.459  0.0246 -0.2558  1.1635
  487SOL     OW 1945   1.282   1.607   1.036  0.2722  0.3354 -0.5010
  487SOL    HW1 1946   1.270   1.700   1.051 -0.6047 -0.0439 -0.2594
  487SOL    HW2 1947   1.359   1.590   0.981 -3.5550  3.6541  0.6338
  487SOL     MW 1948   1.291   1.617   1.031 -0.3485  0.7232 -0.3194
  488SOL     OW 1949   1.689   1.864   0.549 -0.1078 -0.2495  0.6904
  488SOL    HW1 1950   1.771   1.888   0.512 -1.1294  1.4419  1.3347
  488SOL    HW2 1951   1.637   1.940   0.582 -1.0518  0.5266 -3.5954
  488SOL     MW 1952   1.693   1.877   0.548 -0.3672  0.0760  0.2100
  489SOL     OW 1953   0.676   0.768   0.558 -0.1099  0.1738 -0.1148
  489SOL    HW1 1954   0.725   0.693   0.532  1.4864  0.8319 -2.0708
  489SOL    HW2 1955   0.676   0.766   0.650  2.0003  0.6846  0.5443
  489SOL     MW 1956   0.682   0.758   0.566  0.3791  0.3280 -0.2859
  490SOL     OW 1957   1.447   2.014   0.417  0.6039 -0.1086  0.3117
  490SOL    HW1 1958   1.521   2.050   0.374 -2.7729 -2.6061  0.4213
  490SOL    HW2 1959   1.383   2.085   0.422 -0.5815  1.7752  2.0099
  490SOL     MW 1960   1.448   2.028   0.412  0.0020 -0.1896  0.5502
  491SOL     OW 1961   1.186   2.953   0.476  0.0542 -0.2596 -0.0416
  491SOL    HW1 1962   1.203   3.000   0.556 -0.6712 -2.5666 -0.6529
  491SOL    HW2 1963   1.107   2.989   0.439  0.5638 -0.1082  2.9006
  491SOL     MW 1964   1.178   2.964   0.481  0.0257 -0.5440  0.2660
  492SOL     OW 1965   1.513   2.054   0.674 -0.4460 -0.0050 -0.0035
  492SOL    HW1 1966   1.450   2.050   0.605 -2.0978 -1.6689 -0.4960
  492SOL    HW2 1967   1.468   2.023   0.749  1.0385 -0.4981 -1.8551
  492SOL     MW 1968   1.499   2.050   0.675 -0.4681 -0.2896 -0.3128
  493SOL     OW 1969   0.143   2.936   0.341  0.4327  0.3705  0.1653
  493SOL    HW1 1970   0.106   2.987   0.419  0.4137 -0.5981  0.8792
  493SOL    HW2 1971   0.194   2.992   0.283  0.7080  0.1658 -0.8420
  493SOL     MW 1972   0.145   2.950   0.344  0.4665  0.2157  0.1266
  494SOL     OW 1973   0.390   2.463   1.743 -0.0284 -0.1029  0.7983
  494SOL    HW1 1974   0.379   2.371   1.774 -0.7305  0.6235 -0.2874
  494SOL    HW2 1975   0.442   2.455   1.662  2.7430  0.2187 -0.8873
  494SOL     MW 1976   0.395   2.450   1.736  0.2446  0.0354  0.4327
  495SOL     OW 1977   2.917   1.708   2.638 -0.4126  0.2014 -0.7956
  495SOL    HW1 1978   2.892   1.795   2.601 -1.0017  1.0702 -2.1020
  495SOL    HW2 1979   2.877   1.714   2.724  2.2026 -0.7432 -0.5474
  495SOL     MW 1980   2.909   1.720   2.644 -0.1453  0.1914 -0.9352
  496SOL     OW 1981   2.866   2.291   2.665  0.2463  0.4206  0.0227
  496SOL    HW1 1982   2.916   2.216   2.684 -2.6210  1.0986 -0.3119
  496SOL    HW2 1983   2.947   2.353   2.673  0.8688 -0.7097 -0.1171
  496SOL     MW 1984   2.883   2.289   2.669 -0.0499  0.3609 -0.0399
  497SOL     OW 1985   1.596   2.277   2.629  0.2425 -0.0369  0.2684
  497SOL    HW1 1986   1.529   2.229   2.578 -0.6283  1.0783  0.3483
  497SOL    HW2 1987   1.607   2.227   2.711  2.6259 -1.6708 -2.1923
  497SOL     MW 1988   1.589   2.264   2.633  0.4421 -0.1054 -0.0457
  498SOL     OW 1989   1.530   2.723   2.388 -0.2786  0.1288  0.0907
  498SOL    HW1 1990   1.570   2.654   2.335  4.5786 -1.4341  0.0640
  498SOL    HW2 1991   1.615   2.739   2.439 -1.7128 -2.2999  2.1991
  498SOL     MW 1992   1.547   2.716   2.388  0.1730 -0.3978  0.3653
  499SOL     OW 1993   0.910   0.083   0.046  0.4390 -0.7490 -0.1765
  499SOL    HW1 1994   0.833   0.070   0.097  0.5116 -0.2132 -1.6353
  499SOL    HW2 1995   0.944  -0.007   0.014 -3.6554 -0.3902 -1.1769
  499SOL     MW 1996   0.904   0.070   0.048 -0.0917 -0.6310 -0.5010
  500SOL     OW 1997   1.109   2.490   2.748  0.1327  0.4458 -0.6460
  500SOL    HW1 1998   1.152   2.442   2.819 -0.6847 -1.9469 -0.0304
  500SOL    HW2 1999   1.037   2.542   2.788 -0.4703  4.1958 -0.0425
  500SOL     MW 2000   1.105   2.491   2.763 -0.0547  0.6249 -0.4852
  501SOL     OW 2001   1.727   2.260   0.004 -0.1263 -0.4499 -0.6828
  501SOL    HW1 2002   1.707   2.344   0.060 -4.0791  0.1400 -0.6537
  501SOL    HW2 2003   1.821   2.255  -0.007 -0.7996 -1.4199 -0.8428
  501SOL     MW 2004   1.737   2.271   0.010 -0.7367 -0.5000 -0.7001
  502SOL     OW 2005   0.061   2.815   2.960 -0.4999 -0.6851 -0.0703
  502SOL    HW1 2006   0.001   2.753   2.909  1.2132  1.0992 -0.4071
  502SOL    HW2 2007   0.089   2.886   2.894 -0.2805  0.5467 -0.1259
  502SOL     MW 2008   0.057   2.816   2.945 -0.2449 -0.2872 -0.1221
  503SOL     OW 2009   1.115   2.653   1.978 -0.0213  0.2723  0.4547
  503SOL    HW1 2010   1.179   2.707   1.925 -0.4921  3.0089  0.6581
  503SOL    HW2 2011   1.037   2.658   1.924 -0.7701 -2.1287 -1.8043
  503SOL     MW 2012   1.113   2.661   1.964 -0.1822  0.3166  0.1834
  504SOL     OW 2013   0.038   2.688   2.074 -0.4121 -0.3217 -0.4044
  504SOL    HW1 2014   0.108   2.628   2.061 -1.3732  3.2318 -0.1254
  504SOL    HW2 2015  -0.044   2.642   2.062  0.5335  1.4353 -0.7397
  504SOL     MW 2016   0.037   2.674   2.071 -0.4142  0.3790 -0.4119
  505SOL     OW 2017   1.652   2.643   2.793 -0.1163 -0.4315  0.0470
  505SOL    HW1 2018   1.698   2.631   2.712  1.1080  1.0434  2.3799
  505SOL    HW2 2019   1.602   2.723   2.783  2.0444  0.2007  0.2881
  505SOL     MW 2020   1.651   2.652   2.781  0.3304 -0.1535  0.3866
  506SOL     OW 2021   1.605   3.085   2.856  0.0299 -0.2072 -0.0168
  506SOL    HW1 2022   1.641   3.077   2.944 -1.4643 -2.3227 -0.3449
  506SOL    HW2 2023   1.683   3.104   2.797 -1.7548  1.5220  1.1070
  506SOL     MW 2024   1.620   3.086   2.860 -0.4028 -0.2582  0.0882
  507SOL     OW 2025   0.936   2.684   2.859 -0.1435 -0.6115  0.0937
  507SOL    HW1 2026   0.945   2.734   2.774  1.7792 -2.0826 -1.2862
  507SOL    HW2 2027   0.842   2.690   2.868 -1.3643 -1.9471 -0.9570
  507SOL     MW 2028   0.925   2.691   2.849 -0.0509 -0.9818 -0.2270
  508SOL     OW 2029   1.210   2.126   2.501 -0.3095 -0.0019 -0.0870
  508SOL    HW1 2030   1.263   2.114   2.586 -1.2340 -0.2088 -0.5471
  508SOL    HW2 2031   1.133   2.166   2.537 -3.9615  0.0764  1.2145
  508SOL     MW 2032   1.207   2.130   2.517 -0.9133 -0.0189  0.0240
  509SOL     OW 2033   0.610   2.604   2.776 -0.4977  0.2154 -0.3343
  509SOL    HW1 2034   0.623   2.557   2.697  1.6190 -0.0909  0.3836
  509SOL    HW2 2035   0.513   2.611   2.788  0.7004 -0.4039 -2.7041
  509SOL     MW 2036   0.599   2.599   2.767 -0.0603  0.0933 -0.5522
  510SOL     OW 2037   1.505   2.606   1.679 -0.5135 -0.3976  0.0313
  510SOL    HW1 2038   1.531   2.686   1.618 -0.8515  3.1012 -0.0808
  510SOL    HW2 2039   1.469   2.640   1.761 -0.6230 -0.4711 -0.7374
  510SOL     MW 2040   1.504   2.621   1.682 -0.5726  0.0543 -0.0849
  511SOL     OW 2041   0.432   2.631   2.444 -0.1734  0.2162 -0.1473
  511SOL    HW1 2042   0.524   2.589   2.477  1.9622 -2.7042 -0.1151
  511SOL    HW2 2043   0.450   2.695   2.370  0.8071 -1.3015  1.0762
  511SOL     MW 2044   0.447   2.634   2.439  0.2377 -0.3693  0.0184
  512SOL     OW 2045   0.951   2.023   2.794  0.2047 -0.3359  0.1514
  512SOL    HW1 2046   0.900   2.092   2.850 -0.4581  1.2393 -0.7376
  512SOL    HW2 2047   0.956   1.942   2.846  1.3308  0.8989 -1.9948
  512SOL     MW 2048   0.945   2.021   2.808  0.2658  0.0348 -0.2490
  513SOL     OW 2049   1.626   2.487   2.263  0.3926  0.1038  0.4062
  513SOL    HW1 2050   1.686   2.509   2.195 -1.0519 -0.0231  0.1140
  513SOL    HW2 2051   1.666   2.417   2.318 -0.6512  0.1544  2.1990
  513SOL     MW 2052   1.639   2.481   2.261  0.0643  0.0938  0.6042
  514SOL     OW 2053   0.261   2.499   2.606 -0.0291 -0.2973  0.8024
  514SOL    HW1 2054   0.325   2.523   2.530 -1.5789 -0.1779 -3.4892
  514SOL    HW2 2055   0.313   2.487   2.683 -1.2816  0.9701 -1.6921
  514SOL     MW 2056   0.276   2.500   2.606 -0.3988 -0.1143 -0.0930
  515SOL     OW 2057   1.150   2.015   2.008  0.2248 -0.1083  0.0208
  515SOL    HW1 2058   1.141   2.088   1.948 -0.7474  1.8369 -0.8133
  515SOL    HW2 2059   1.245   2.015   2.036  1.6786  2.2989  1.0936
  515SOL     MW 2060   1.161   2.024   2.004  0.2884  0.4660  0.0522
  516SOL     OW 2061   1.463   2.480   3.105 -0.1693  0.5546  0.3477
  516SOL    HW1 2062   1.488   2.430   3.023 -0.8720 -0.6825 -0.7722
  516SOL    HW2 2063   1.412   2.553   3.071  1.6471  1.8010  1.4513
  516SOL     MW 2064   1.459   2.483   3.090 -0.0223  0.5558  0.3456
  517SOL     OW 2065   0.548   2.455   2.221  0.1483 -0.4270 -1.0499
  517SOL    HW1 2066   0.474   2.463   2.282 -0.6803  3.8672 -0.2762
  517SOL    HW2 2067   0.515   2.411   2.134  2.0731 -0.6463  0.8122
  517SOL     MW 2068   0.534   2.450   2.218  0.2929  0.1107 -0.7022
  518SOL     OW 2069   1.803   0.161   3.076  0.2493  0.5960  0.1860
  518SOL    HW1 2070   1.763   0.202   3.153 -0.2214  1.1451 -1.9672
  518SOL    HW2 2071   1.803   0.065   3.100 -1.4337 -0.6413 -2.0263
  518SOL     MW 2072   1.798   0.154   3.089 -0.0349  0.5052 -0.3900
  519SOL     OW 2073   0.727   2.412   1.761  0.1075  0.3449 -0.1190
  519SOL    HW1 2074   0.772   2.331   1.783  0.6425 -0.9298 -2.0546
  519SOL    HW2 2075   0.683   2.393   1.677  0.7531  0.3315 -0.0222
  519SOL     MW 2076   0.727   2.398   1.753  0.2633  0.1749 -0.3616
  520SOL     OW 2077   1.169   2.126   2.969 -0.5886  0.3579  0.1365
  520SOL    HW1 2078   1.092   2.082   2.931  1.0562 -2.4923  0.8625
  520SOL    HW2 2079   1.191   2.084   3.056  1.8551  2.6693  2.9393
  520SOL     MW 2080   1.161   2.114   2.975 -0.0492  0.2868  0.6021
  521SOL     OW 2081   1.743   1.981   2.160 -0.5478  0.2402 -0.4131
  521SOL    HW1 2082   1.765   1.999   2.071 -0.0325  0.9507  0.3010
  521SOL    HW2 2083   1.739   1.887   2.174  2.8763 -0.8929  0.5663
  521SOL     MW 2084   1.746   1.971   2.150 -0.0280  0.1844 -0.1897
  522SOL     OW 2085   2.909   2.524   2.257 -0.1273  0.0015  0.4379
  522SOL    HW1 2086   2.988   2.456   2.259 -0.2512  0.7542 -1.4083
  522SOL    HW2 2087   2.944   2.599   2.302  1.2807 -1.2446 -2.5454
  522SOL     MW 2088   2.924   2.525   2.263  0.0421 -0.0636 -0.1993
  523SOL     OW 2089   0.944   1.564   2.140  0.0726  0.7328 -0.0315
  523SOL    HW1 2090   0.892   1.601   2.070  0.8153  0.4442 -2.5581
  523SOL    HW2 2091   0.997   1.493   2.101  1.1144  2.4705  1.2207
  523SOL     MW 2092   0.944   1.559   2.125  0.3080  0.9240 -0.1996
  524SOL     OW 2093   0.638   2.404   2.975  0.6709  0.3283 -0.0951
  524SOL    HW1 2094   0.656   2.479   2.914  0.7635 -1.8963  0.9648
  524SOL    HW2 2095   0.704   2.331   2.977 -3.3760  0.6027 -4.0612
  524SOL     MW 2096   0.649   2.405   2.967  0.1492  0.0710 -0.4785
  525SOL     OW 2097   0.439   2.291   2.044 -0.2702  0.0179  0.3536
  525SOL    HW1 2098   0.383   2.221   2.074 -0.2894 -1.1848 -0.2887
  525SOL    HW2 2099   0.440   2.269   1.945 -2.1935 -1.4721 -2.4930
  525SOL     MW 2100   0.432   2.279   2.035 -0.5265 -0.3374 -0.1067
  526SOL     OW 2101   0.671   2.013   1.968  0.2843 -0.7216 -0.1615
  526SOL    HW1 2102   0.706   2.043   1.891  1.4354 -3.2568  0.5009
  526SOL    HW2 2103   0.684   2.089   2.027  1.7984 -1.3096  0.9132
  526SOL     MW 2104   0.677   2.027   1.966  0.6359 -1.1336  0.0677
  527SOL     OW 2105   1.417   2.024   2.097  0.1043  0.0071 -0.7594
  527SOL    HW1 2106   1.410   1.988   2.188 -0.9518  1.4582  0.5085
  527SOL    HW2 2107   1.441   1.942   2.055  0.5520 -1.7664  0.5271
  527SOL     MW 2108   1.419   2.009   2.103  0.0240 -0.0355 -0.4224
  528SOL     OW 2109   0.716   2.879   2.861  0.1789 -0.0376 -0.1682
  528SOL    HW1 2110   0.730   2.971   2.882 -0.8469 -0.9709  0.6040
  528SOL    HW2 2111   0.662   2.878   2.782  0.7057  0.9840 -0.0283
  528SOL     MW 2112   0.711   2.891   2.853  0.1130 -0.0259 -0.0478
  529SOL     OW 2113   1.096   2.252   1.889  0.1542 -0.9469  0.4659
  529SOL    HW1 2114   1.070   2.280   1.977 -0.0030  2.1222  0.8175
  529SOL    HW2 2115   1.157   2.326   1.859  1.3194 -0.9026  1.3993
  529SOL     MW 2116   1.100   2.266   1.897  0.2872 -0.5361  0.6354
  530SOL     OW 2117   1.147   2.419   3.028 -0.2439 -0.3594 -0.8173
  530SOL    HW1 2118   1.150   2.421   3.123  2.2043 -4.2326 -0.1389
  530SOL    HW2 2119   1.117   2.329   3.014  1.1670 -0.3806  1.2530
  530SOL     MW 2120   1.144   2.407   3.039  0.2653 -0.8732 -0.4546
  531SOL     OW 2121   0.944   1.873   2.565 -0.3662 -0.1714  0.2936
  531SOL    HW1 2122   0.925   1.935   2.641 -1.4669  3.2230 -0.1753
  531SOL    HW2 2123   0.906   1.785   2.598  2.3567  1.2980  4.4226
  531SOL     MW 2124   0.937   1.870   2.579 -0.1521  0.4704  0.7765
  532SOL     OW 2125   1.723   0.344   2.836  0.8628  0.1259 -0.3884
  532SOL    HW1 2126   1.730   0.296   2.917  2.4335 -1.7360 -1.5481
  532SOL    HW2 2127   1.807   0.391   2.830 -1.2926 -3.5664 -0.8081
  532SOL     MW 2128   1.735   0.344   2.846  0.7857 -0.6069 -0.5968
  533SOL     OW 2129   1.843   2.670   2.986  0.2355 -0.2396  0.2097
  533SOL    HW1 2130   1.840   2.605   3.060  1.1222 -2.8272  2.8509
  533SOL    HW2 2131   1.765   2.658   2.928  1.6500 -1.3173  2.9874
  533SOL     MW 2132   1.832   2.660   2.988  0.5391 -0.7232  0.9247
  534SOL     OW 2133   1.793   2.366   2.471 -0.5001  0.9549  0.1339
  534SOL    HW1 2134   1.733   2.308   2.529 -0.4836 -0.6981  0.7529
  534SOL    HW2 2135   1.849   2.418   2.525 -2.1641 -0.4605  1.3069
  534SOL     MW 2136   1.792   2.365   2.486 -0.7175  0.5500  0.3703
  535SOL     OW 2137   1.862   2.368   1.841 -0.0571 -0.0469 -0.5838
  535SOL    HW1 2138   1.813   2.395   1.762  2.7172  0.9854 -0.3123
  535SOL    HW2 2139   1.949   2.412   1.838 -0.4472  0.1118 -1.9369
  535SOL     MW 2140   1.867   2.378   1.830  0.2575  0.1102 -0.7265
  536SOL     OW 2141   0.433   1.880   2.033  0.3974 -0.1734  0.3535
  536SOL    HW1 2142   0.426   1.794   1.997 -3.0510 -1.0144 -0.3155
  536SOL    HW2 2143   0.511   1.931   1.997  0.8795 -0.2204  0.7726
  536SOL     MW 2144   0.443   1.876   2.023  0.0060 -0.2905  0.3205
  537SOL     OW 2145   1.007   0.161   2.872  0.2511  0.4620 -0.6286
  537SOL    HW1 2146   1.015   0.181   2.964 -1.3038  0.9581  1.0295
  537SOL    HW2 2147   1.033   0.241   2.828 -1.3982 -2.2301  0.6170
  537SOL     MW 2148   1.011   0.174   2.879 -0.1717  0.1723 -0.2455
  538SOL     OW 2149   1.370   0.048   2.980 -0.1472 -0.4262  0.0803
  538SOL    HW1 2150   1.333   0.132   2.960 -1.7589 -0.5443  0.4068
  538SOL    HW2 2151   1.450   0.041   2.928  0.3518 -0.4315  1.2026
  538SOL     MW 2152   1.375   0.058   2.971 -0.2940 -0.4424  0.2714
  539SOL     OW 2153   0.759   2.763   2.537 -0.1229 -0.2276  0.1248
  539SOL    HW1 2154   0.859   2.766   2.560  0.7935  1.1691 -1.4342
  539SOL    HW2 2155   0.724   2.690   2.585  0.6463 -0.8001 -1.2595
  539SOL     MW 2156   0.768   2.754   2.547  0.0995 -0.1188 -0.2635
  540SOL     OW 2157   0.394   2.406   2.828  0.6053  0.0477 -0.1340
  540SOL    HW1 2158   0.476   2.379   2.866 -1.0529  2.1222 -0.6989
  540SOL    HW2 2159   0.336   2.376   2.898 -0.8500  3.5173 -1.0418
  540SOL     MW 2160   0.397   2.398   2.842  0.1945  0.7792 -0.3283
  541SOL     OW 2161   0.184   2.947   2.215  0.2653  0.2349 -0.1640
  541SOL    HW1 2162   0.218   2.886   2.148  0.0775 -2.8237 -0.5944
  541SOL    HW2 2163   0.238   2.928   2.294  2.4274  0.5962  2.1333
  541SOL     MW 2164   0.195   2.936   2.216  0.5258 -0.1210  0.0823
  542SOL     OW 2165   1.007   2.261   2.624  0.1368  0.7226  0.5399
  542SOL    HW1 2166   0.999   2.189   2.681  0.8562 -1.4331  0.0248
  542SOL    HW2 2167   1.033   2.335   2.682  0.7283  1.9287 -1.3970
  542SOL     MW 2168   1.009   2.261   2.640  0.3098  0.5973  0.2164
  543SOL     OW 2169   1.440   2.453   2.811  0.2022 -0.2938  0.0855
  543SOL    HW1 2170   1.452   2.405   2.726 -0.5590 -1.2429  0.4295
  543SOL    HW2 2171   1.520   2.511   2.818  1.4542 -0.9421  1.0572
  543SOL     MW 2172   1.452   2.455   2.801  0.2670 -0.5046  0.2591
  544SOL     OW 2173   0.738   0.198   2.708  0.2672  0.0104  0.9198
  544SOL    HW1 2174   0.643   0.215   2.682 -3.4840  1.7170 -1.1562
  544SOL    HW2 2175   0.764   0.125   2.651 -0.8849  0.7747  1.0763
  544SOL     MW 2176   0.729   0.191   2.697 -0.3797  0.3364  0.6666
  545SOL     OW 2177   1.566   2.188   2.326  0.2433  0.3349 -0.0892
  545SOL    HW1 2178   1.505   2.200   2.252  1.2565  0.0873  0.1188
  545SOL    HW2 2179   1.635   2.133   2.288 -1.4918  1.2341 -0.9192
  545SOL     MW 2180   1.567   2.182   2.311  0.1481  0.4209 -0.1713
  546SOL     OW 2181   3.012   1.996   0.128 -0.0685 -0.5379 -0.3074
  546SOL    HW1 2182   2.991   2.057   0.061  0.3464 -1.2715  1.3377
  546SOL    HW2 2183   3.094   1.952   0.107  2.4852  1.5590 -0.9566
  546SOL     MW 2184   3.020   1.998   0.116  0.3231 -0.3580 -0.1760
  547SOL     OW 2185   0.300   3.018   0.119  0.0268  0.9110 -0.2586
  547SOL    HW1 2186   0.350   3.055   0.039 -1.7041  2.1370  0.2389
  547SOL    HW2 2187   0.277   2.925   0.093 -2.0577 -0.6235  0.9905
  547SOL     MW 2188   0.303   3.011   0.105 -0.4766  0.8703 -0.0281
  548SOL     OW 2189   0.271   2.546   0.210 -0.0577 -0.0986 -0.1142
  548SOL    HW1 2190   0.271   2.615   0.141 -1.6105 -2.1290  0.7467
  548SOL    HW2 2191   0.215   2.481   0.173  5.1501 -0.9776 -0.8507
  548SOL     MW 2192   0.264   2.546   0.196  0.4245 -0.4825 -0.0978
  549SOL     OW 2193   0.869   1.871   2.149 -0.3386 -0.3588 -0.6050
  549SOL    HW1 2194   0.800   1.933   2.121  2.5565  0.1394 -2.2363
  549SOL    HW2 2195   0.856   1.866   2.246  1.1404  0.5768  1.8498
  549SOL     MW 2196   0.858   1.878   2.158  0.2385 -0.1696 -0.4963
  550SOL     OW 2197   1.781   1.699   2.590 -0.3623 -0.0235  0.6650
  550SOL    HW1 2198   1.793   1.707   2.491 -1.6440 -1.5041  0.8791
  550SOL    HW2 2199   1.757   1.788   2.611 -0.7554 -1.9232  0.6113
  550SOL     MW 2200   1.779   1.712   2.579 -0.5833 -0.4695  0.6861
  551SOL     OW 2201   0.884   2.258   0.235 -0.0182  0.0473 -0.3712
  551SOL    HW1 2202   0.971   2.267   0.200 -0.0477 -1.2464  0.5193
  551SOL    HW2 2203   0.855   2.177   0.190 -0.6600  0.6757 -0.3342
  551SOL     MW 2204   0.891   2.249   0.224 -0.1068 -0.0405 -0.2488
  552SOL     OW 2205   1.787   1.714   2.294  0.4967 -0.5181  0.6887
  552SOL    HW1 2206   1.688   1.709   2.324 -0.4799 -0.8106  2.7032
  552SOL    HW2 2207   1.792   1.667   2.197 -1.8062 -2.3691 -4.1620
  552SOL     MW 2208   1.775   1.707   2.286  0.0640 -0.8009  0.3145
  553SOL     OW 2209   1.197   2.314   1.461  0.4112 -0.0577  0.4659
  553SOL    HW1 2210   1.264   2.250   1.480 -2.4647  0.7164 -0.8215
  553SOL    HW2 2211   1.247   2.389   1.430  1.1473 -1.2990  1.0265
  553SOL     MW 2212   1.212   2.315   1.459  0.1289 -0.1193  0.3700
  554SOL     OW 2213   0.538   2.910   2.640 -0.1132  0.0070 -0.1303
  554SOL    HW1 2214   0.530   2.996   2.611  1.5504 -3.3712  1.3384
  554SOL    HW2 2215   0.601   2.866   2.583 -0.1843 -0.3083 -0.2910
  554SOL     MW 2216   0.545   2.916   2.629  0.0969 -0.4803  0.0422
  555SOL     OW 2217   0.652   2.506   2.525  0.5827 -0.2785 -0.1920
  555SOL    HW1 2218   0.598   2.429   2.535  5.0938  0.7584  0.2953
  555SOL    HW2 2219   0.719   2.475   2.463 -1.1172  0.1433  1.0836
  555SOL     MW 2220   0.654   2.492   2.518  0.9536 -0.0860  0.0406
  556SOL     OW 2221   0.959   1.828   0.137 -0.2305  1.0085  0.1000
  556SOL    HW1 2222   0.992   1.818   0.047 -1.3880  1.5890 -1.6763
  556SOL    HW2 2223   1.030   1.856   0.194 -1.5599  0.2893 -0.5584
  556SOL     MW 2224   0.973   1.831   0.133 -0.5586  0.9902 -0.2212
  557SOL     OW 2225   0.981   2.664   0.523  0.0160  0.0523 -0.5038
  557SOL    HW1 2226   1.029   2.610   0.462  0.2908  0.1305  0.4502
  557SOL    HW2 2227   0.919   2.718   0.465 -0.3179 -0.9382 -2.3566
  557SOL     MW 2228   0.979   2.664   0.507  0.0082 -0.0681 -0.6224
  558SOL     OW 2229   0.263   2.262   3.030 -0.1986  0.9536 -0.0339
  558SOL    HW1 2230   0.229   2.209   2.960 -1.7823  0.7499 -0.2482
  558SOL    HW2 2231   0.194   2.298   3.089 -1.2687  0.5848  2.3606
  558SOL     MW 2232   0.250   2.260   3.029 -0.5487  0.8781  0.2537
  559SOL     OW 2233   1.005   2.346   2.134 -0.3371  0.1959  0.2340
  559SOL    HW1 2234   1.031   2.434   2.169  1.2791 -0.8863  2.1897
  559SOL    HW2 2235   0.972   2.298   2.211  1.4665  1.0857 -3.1031
  559SOL     MW 2236   1.004   2.351   2.149  0.1141  0.1705  0.0517
  560SOL     OW 2237   1.996   2.869   0.045  0.7316  0.4491 -0.1948
  560SOL    HW1 2238   2.074   2.892  -0.004 -0.3223  1.6639  1.2636
  560SOL    HW2 2239   1.944   2.808  -0.006  0.3778 -1.4099  0.2390
  560SOL     MW 2240   1.999   2.864   0.032  0.5458  0.3641  0.0549
  561SOL     OW 2241   0.399   2.205   0.165 -0.2178 -0.1582 -0.4070
  561SOL    HW1 2242   0.345   2.210   0.079 -2.4054  1.3749 -2.0997
  561SOL    HW2 2243   0.467   2.273   0.162  3.1887  1.0293 -1.3814
  561SOL     MW 2244   0.401   2.215   0.153 -0.0570  0.2007 -0.7589
  562SOL     OW 2245   0.729   2.172   2.185 -0.4719 -0.3466 -0.6593
  562SOL    HW1 2246   0.714   2.267   2.196 -1.0772  1.0506 -0.8296
  562SOL    HW2 2247   0.807   2.158   2.242 -0.2680  0.6344  2.2146
  562SOL     MW 2248   0.737   2.183   2.194 -0.5249 -0.0328 -0.3026
  563SOL     OW 2249   1.194   0.302   0.561  0.4014 -0.3376  0.1167
  563SOL    HW1 2250   1.126   0.268   0.500 -0.1137  2.1826  1.0648
  563SOL    HW2 2251   1.210   0.246   0.635 -1.6413  2.7296  0.7685
  563SOL     MW 2252   1.187   0.290   0.563  0.0639  0.3996  0.3278
  564SOL     OW 2253   1.055   2.581   2.254  0.3773 -0.7904  0.3112
  564SOL    HW1 2254   1.064   2.642   2.177 -0.7146 -4.3377  0.8810
  564SOL    HW2 2255   1.130   2.599   2.317 -0.5694  1.5752  2.6595
  564SOL     MW 2256   1.066   2.591   2.252  0.1083 -0.9463  0.6962
  565SOL     OW 2257   2.868   2.739   2.666 -0.8312  0.1161 -0.2045
  565SOL    HW1 2258   2.907   2.823   2.640 -0.9135  0.0274 -2.4103
  565SOL    HW2 2259   2.819   2.712   2.583 -0.9537 -1.4871 -1.4106
  565SOL     MW 2260   2.867   2.746   2.652 -0.8582 -0.1071 -0.6547
  566SOL     OW 2261   2.193   1.866   2.338  0.3259 -0.0611 -0.6807
  566SOL    HW1 2262   2.226   1.836   2.253  2.1716  1.4980 -0.8148
  566SOL    HW2 2263   2.193   1.965   2.335  0.5760 -1.3798 -1.4313
  566SOL     MW 2264   2.198   1.875   2.326  0.6025 -0.0294 -0.7974
  567SOL     OW 2265   1.202   2.897   2.935  0.1907  0.3134  0.8818
  567SOL    HW1 2266   1.275   2.940   2.971  0.9944 -4.3754 -2.8791
  567SOL    HW2 2267   1.247   2.813   2.933  0.3983  0.5636  2.4874
  567SOL     MW 2268   1.217   2.892   2.939  0.3241 -0.2723  0.5974
  568SOL     OW 2269   1.608   2.144   2.878  0.2111 -0.5466  0.0106
  568SOL    HW1 2270   1.673   2.198   2.926 -0.7058 -0.0127 -2.6227
  568SOL    HW2 2271   1.661   2.088   2.823 -2.7526  1.7409  0.7533
  568SOL     MW 2272   1.624   2.143   2.877 -0.3009 -0.1743 -0.2388
  569SOL     OW 2273   0.191   2.262   2.468 -0.2902  0.5968 -0.2011
  569SOL    HW1 2274   0.136   2.296   2.398 -3.2186  4.7713  0.1933
  569SOL    HW2 2275   0.192   2.334   2.532  0.4729  0.6274 -0.1983
  569SOL     MW 2276   0.184   2.276   2.467 -0.5759  1.1516 -0.1487
  570SOL     OW 2277   1.458   0.376   0.498  0.1297 -0.2733  0.0277
  570SOL    HW1 2278   1.360   0.373   0.529 -2.5976 -3.6352 -1.5437
  570SOL    HW2 2279   1.516   0.407   0.574 -1.2184 -0.5438  1.3565
  570SOL     MW 2280   1.452   0.380   0.512 -0.4080 -0.7526 -0.0043
  571SOL     OW 2281   1.511   2.451   2.007  0.0201  0.3618 -0.0827
  571SOL    HW1 2282   1.531   2.444   2.102 -0.9243 -2.3965  0.2199
  571SOL    HW2 2283   1.529   2.372   1.960  0.3973 -0.6178 -0.1446
  571SOL     MW 2284   1.516   2.439   2.013 -0.0548 -0.1314 -0.0509
  572SOL     OW 2285   0.991   2.654   0.076  0.4493 -0.7028  0.9012
  572SOL    HW1 2286   1.040   2.646  -0.007  0.4100  1.1882  0.2345
  572SOL    HW2 2287   0.900   2.654   0.050 -1.1501 -1.4667 -0.6551
  572SOL     MW 2288   0.985   2.653   0.061  0.2331 -0.5541  0.6079
  573SOL     OW 2289   1.146   2.320   0.222  0.0351  0.5548  0.2484
  573SOL    HW1 2290   1.235   2.302   0.194  1.6473 -1.7457  0.0245
  573SOL    HW2 2291   1.141   2.415   0.251 -1.3753 -1.2390 -0.8727
  573SOL     MW 2292   1.157   2.330   0.222  0.0617  0.0146  0.0710
  574SOL     OW 2293   1.112   2.572   0.299 -0.2512 -1.0230  0.3701
  574SOL    HW1 2294   1.189   2.626   0.299  1.5146  2.5730  2.9896
  574SOL    HW2 2295   1.054   2.592   0.223 -1.6650 -1.8363 -1.6087
  574SOL     MW 2296   1.115   2.582   0.289 -0.2048 -0.6559  0.4546
  575SOL     OW 2297   0.058   2.253   1.818  0.0513 -0.6241 -0.2538
  575SOL    HW1 2298   0.072   2.182   1.752  0.2376 -1.7612 -0.2450
  575SOL    HW2 2299   0.072   2.346   1.784 -2.7326  0.1302  1.4825
  575SOL     MW 2300   0.062   2.256   1.805 -0.2914 -0.6746 -0.0235
  576SOL     OW 2301   2.806   1.809   2.112 -0.5662  0.7277 -0.0958
  576SOL    HW1 2302   2.842   1.870   2.052  0.2565 -2.1563  0.2739
  576SOL    HW2 2303   2.720   1.788   2.071 -0.5834  0.9640  0.9417
  576SOL     MW 2304   2.799   1.814   2.098 -0.4599  0.3784  0.0899
  577SOL     OW 2305   2.078   0.203   0.104 -0.6350  0.2223 -0.0186
  577SOL    HW1 2306   1.998   0.234   0.063 -2.8826  2.0137 -0.8368
  577SOL    HW2 2307   2.048   0.166   0.190  0.6366  0.4693  0.2717
  577SOL     MW 2308   2.063   0.202   0.110 -0.7638  0.4913 -0.0883
  578SOL     OW 2309   1.928   2.005   2.359  0.0923 -0.6092 -0.1304
  578SOL    HW1 2310   1.847   1.982   2.319 -1.5195  3.6361  0.6306
  578SOL    HW2 2311   1.982   1.924   2.362  0.6641 -0.7237 -2.6108
  578SOL     MW 2312   1.925   1.992   2.354 -0.0449 -0.0642 -0.3573
  579SOL     OW 2313   0.877   2.411   2.406  0.4027 -0.8976  0.2412
  579SOL    HW1 2314   0.910   2.359   2.481 -0.0874  1.5133 -1.4901
  579SOL    HW2 2315   0.949   2.474   2.380 -0.3214  0.9053  0.6829
  579SOL     MW 2316   0.891   2.412   2.412  0.2425 -0.3416  0.0711
  580SOL     OW 2317   0.949   2.932   3.054 -0.0798  0.3105 -0.0789
  580SOL    HW1 2318   1.040   2.904   3.050 -1.2735  2.5650 -1.1364
  580SOL    HW2 2319   0.905   2.872   2.990  0.3701 -0.3186 -1.6432
  580SOL     MW 2320   0.955   2.920   3.045 -0.1780  0.5249 -0.4248
  581SOL     OW 2321   1.126   2.462   1.686 -0.1446 -0.4661  0.2662
  581SOL    HW1 2322   1.196   2.520   1.727  1.9077  3.8317 -0.5349
  581SOL    HW2 2323   1.161   2.415   1.606 -3.6808 -3.7384 -2.6651
  581SOL     MW 2324   1.140   2.464   1.681 -0.3404 -0.3308 -0.2263
  582SOL     OW 2325   0.013   2.844   2.563 -0.2368 -0.4745 -0.0476
  582SOL    HW1 2326  -0.018   2.931   2.591  0.0360 -1.2727 -1.4778
  582SOL    HW2 2327   0.105   2.839   2.576 -2.7977 -1.1913  1.2167
  582SOL     MW 2328   0.021   2.855   2.568 -0.5387 -0.6744 -0.0695
  583SOL     OW 2329   2.001   2.409   2.655 -0.2092  0.2973 -0.7411
  583SOL    HW1 2330   2.069   2.429   2.588  1.1250  1.5477 -1.2821
  583SOL    HW2 2331   1.975   2.311   2.648  1.1077 -0.5377 -1.3070
  583SOL     MW 2332   2.006   2.399   2.645  0.1406  0.3521 -0.8871
  584SOL     OW 2333   0.217   1.853   2.223 -0.5451  0.0202 -0.0965
  584SOL    HW1 2334   0.279   1.854   2.149 -2.0809 -0.5343  0.4555
  584SOL    HW2 2335   0.238   1.936   2.266  0.7274 -0.2911  1.5462
  584SOL     MW 2336   0.228   1.864   2.219 -0.5798 -0.0941  0.1931
  585SOL     OW 2337   1.520   2.661   0.200 -0.1234  0.1912  0.6666
  585SOL    HW1 2338   1.490   2.624   0.120  0.7316 -1.5087  1.4148
  585SOL    HW2 2339   1.445   2.680   0.259 -2.2742  0.5905  2.2327
  585SOL     MW 2340   1.506   2.659   0.197 -0.2944  0.0196  0.9719
  586SOL     OW 2341   1.343   2.848   2.539 -0.0617  0.1737  0.5278
  586SOL    HW1 2342   1.424   2.840   2.480  1.5518  1.4887 -1.6787
  586SOL    HW2 2343   1.334   2.940   2.550 -1.6340 -2.3199  1.3689
  586SOL     MW 2344   1.353   2.859   2.533 -0.0563  0.0182  0.3477
  587SOL     OW 2345   1.314   1.569   2.170  0.2052  0.0111 -0.2168
  587SOL    HW1 2346   1.326   1.489   2.227  1.1691 -0.9019 -1.5486
  587SOL    HW2 2347   1.299   1.541   2.081 -1.2305  1.5200 -1.0907
  587SOL     MW 2348   1.314   1.555   2.166  0.1429  0.0897 -0.5078
  588SOL     OW 2349   1.334   2.074   2.742  0.3525 -0.5681 -0.5626
  588SOL    HW1 2350   1.416   2.065   2.795  1.8859 -1.0533  1.1530
  588SOL    HW2 2351   1.271   2.100   2.817 -1.4534 -2.9124  0.1093
  588SOL     MW 2352   1.336   2.076   2.759  0.3166 -0.9415 -0.2476
  589SOL     OW 2353   1.277   2.045   0.114  0.2760  0.2182  0.0068
  589SOL    HW1 2354   1.327   2.127   0.139 -1.8315  1.3461  0.0429
  589SOL    HW2 2355   1.253   2.000   0.196  0.1633  1.0241  0.1538
  589SOL     MW 2356   1.280   2.050   0.128 -0.0170  0.4734  0.0310
  590SOL     OW 2357   0.452   2.788   2.205 -0.0350  0.0352 -0.2592
  590SOL    HW1 2358   0.448   2.725   2.137 -0.3483  1.8322  1.5611
  590SOL    HW2 2359   0.541   2.819   2.203 -2.6785  0.1950 -0.9307
  590SOL     MW 2360   0.463   2.784   2.195 -0.4251  0.2934 -0.1077
  591SOL     OW 2361   2.256   0.649   0.015 -0.2203 -0.0818 -0.0050
  591SOL    HW1 2362   2.185   0.698  -0.023 -0.8082 -1.3839 -0.5938
  591SOL    HW2 2363   2.339   0.674  -0.033  3.9593  0.9138 -3.8049
  591SOL     MW 2364   2.258   0.659   0.004  0.2536 -0.1222 -0.5840
  592SOL     OW 2365   1.787   2.956   0.826  0.3522  0.0221 -0.3887
  592SOL    HW1 2366   1.787   3.029   0.756 -0.0055  1.6084 -0.8806
  592SOL    HW2 2367   1.849   2.897   0.789 -0.7891 -1.0711 -1.1785
  592SOL     MW 2368   1.795   2.958   0.812  0.1544  0.0872 -0.5578
  593SOL     OW 2369   1.966   0.674   0.824 -0.3163  0.3838 -0.3750
  593SOL    HW1 2370   1.878   0.649   0.787 -1.8969 -1.1924  1.2925
  593SOL    HW2 2371   2.014   0.593   0.837  0.3338  0.1706 -2.3496
  593SOL     MW 2372   1.961   0.660   0.821 -0.4391  0.1477 -0.4155
  594SOL     OW 2373   2.822   1.160   1.354 -0.6982 -0.0911  0.0877
  594SOL    HW1 2374   2.917   1.179   1.386 -0.2865  1.5208 -0.0185
  594SOL    HW2 2375   2.832   1.080   1.304 -1.0525  4.2450 -2.1723
  594SOL     MW 2376   2.836   1.152   1.351 -0.6906  0.6937 -0.2245
  595SOL     OW 2377   0.406   1.021   0.829  0.0499  0.2214 -0.3737
  595SOL    HW1 2378   0.418   1.097   0.773  0.2408 -0.6070  1.3660
  595SOL    HW2 2379   0.437   1.039   0.919  0.2136 -1.1284 -3.0673
  595SOL     MW 2380   0.411   1.033   0.834  0.0967 -0.0660 -0.4995
  596SOL     OW 2381   2.457   1.313   0.568  0.0483  0.4755 -0.5361
  596SOL    HW1 2382   2.514   1.385   0.544 -0.0966 -1.2087  0.5792
  596SOL    HW2 2383   2.482   1.275   0.655 -1.3407 -0.3372  1.2758
  596SOL     MW 2384   2.468   1.317   0.577 -0.1541  0.1461 -0.1499
  597SOL     OW 2385   2.197   0.704   1.607 -0.3905  0.0892  0.2233
  597SOL    HW1 2386   2.198   0.632   1.672  0.1403 -0.4062  0.9726
  597SOL    HW2 2387   2.127   0.670   1.546 -0.6172  0.4855 -1.0685
  597SOL     MW 2388   2.188   0.690   1.608 -0.3504  0.0761  0.1517
  598SOL     OW 2389   2.593   1.004   2.848 -0.1350  0.1532 -0.4816
  598SOL    HW1 2390   2.608   0.968   2.760 -0.8678  1.4297 -0.7292
  598SOL    HW2 2391   2.674   1.064   2.862 -0.3385  1.8353  0.7368
  598SOL     MW 2392   2.606   1.007   2.838 -0.2585  0.5436 -0.3535
  599SOL     OW 2393   2.948   0.414   2.087  0.2369  0.0659  0.4367
  599SOL    HW1 2394   3.003   0.425   2.168  1.0355 -1.3459 -0.2897
  599SOL    HW2 2395   2.965   0.500   2.046 -0.2190 -0.3877 -2.0271
  599SOL     MW 2396   2.957   0.427   2.092  0.2821 -0.1802  0.0158
  600SOL     OW 2397   1.853   1.597   0.830 -0.2902  0.0035  0.0262
  600SOL    HW1 2398   1.910   1.617   0.906 -1.5151 -0.9035  2.3795
  600SOL    HW2 2399   1.790   1.672   0.821 -0.9757  1.1159 -2.1330
  600SOL     MW 2400   1.852   1.610   0.839 -0.5422  0.0306  0.0518
  601SOL     OW 2401   2.508   0.765   0.810  0.2545  0.4736 -0.4025
  601SOL    HW1 2402   2.489   0.788   0.909 -1.8237  0.2665  1.7362
  601SOL    HW2 2403   2.444   0.702   0.778 -0.9919 -0.1284  0.1505
  601SOL     MW 2404   2.497   0.760   0.819 -0.1842  0.3669 -0.0473
  602SOL     OW 2405   2.329   1.918   0.802 -0.7877 -0.3548 -0.3579
  602SOL    HW1 2406   2.277   1.836   0.801 -0.6224 -0.6613 -0.5452
  602SOL    HW2 2407   2.276   1.987   0.767  0.1153  1.1702  2.1824
  602SOL     MW 2408   2.315   1.916   0.797 -0.6468 -0.1940 -0.0474
  603SOL     OW 2409   0.002   1.346   1.820  0.5007 -0.0934  0.4062
  603SOL    HW1 2410   0.060   1.394   1.880 -0.8678  0.9960 -1.7040
  603SOL    HW2 2411   0.011   1.249   1.819  0.9113 -0.3289 -2.9530
  603SOL     MW 2412   0.011   1.340   1.828  0.3743  0.0192 -0.3155
  604SOL     OW 2413   2.157   1.537   0.466 -0.3228 -0.6096  0.2825
  604SOL    HW1 2414   2.150   1.442   0.494  1.4811 -1.2553  1.5308
  604SOL    HW2 2415   2.077   1.589   0.506 -0.9978  1.8306  2.8671
  604SOL     MW 2416   2.145   1.531   0.475 -0.1739 -0.3728  0.7882
  605SOL     OW 2417   2.597   1.472   0.851 -0.6122 -0.3788  0.3314
  605SOL    HW1 2418   2.615   1.522   0.768  0.5268 -1.1471  0.2281
  605SOL    HW2 2419   2.612   1.384   0.813 -0.2810 -0.1990  2.8868
  605SOL     MW 2420   2.601   1.467   0.835 -0.4183 -0.4565  0.6549
  606SOL     OW 2421   2.579   1.684   2.012 -0.2324 -0.9805  0.1860
  606SOL    HW1 2422   2.492   1.706   1.988  0.5947  0.2031 -0.0236
  606SOL    HW2 2423   2.619   1.635   1.939  0.2486 -1.7887 -1.0258
  606SOL     MW 2424   2.573   1.680   1.999 -0.0598 -0.9310 -0.0015
  607SOL     OW 2425   2.405   1.118   3.032  0.5633 -0.0820 -0.8608
  607SOL    HW1 2426   2.462   1.076   2.965 -0.6690 -2.2161 -0.8755
  607SOL    HW2 2427   2.416   1.067   3.112 -0.7072 -2.0378  1.0335
  607SOL     MW 2428   2.414   1.106   3.033  0.2331 -0.6216 -0.6128
  608SOL     OW 2429   1.862   0.276   0.607  0.3000  0.0273 -0.6092
  608SOL    HW1 2430   1.876   0.329   0.530  1.5780  1.1823  2.0388
  608SOL    HW2 2431   1.826   0.192   0.578 -2.2963  0.3897  0.6685
  608SOL     MW 2432   1.859   0.272   0.593  0.1261  0.2275 -0.0913
  609SOL     OW 2433   2.053   1.986   3.024  0.2000 -0.3054  0.2866
  609SOL    HW1 2434   1.981   1.932   2.992 -2.1523  0.1989 -3.4808
  609SOL    HW2 2435   2.093   1.946   3.107  2.6202 -1.6686  1.2634
  609SOL     MW 2436   2.049   1.974   3.031  0.2090 -0.4187 -0.0816
  610SOL     OW 2437   1.776   0.996   1.292 -0.3563  0.2603 -0.2947
  610SOL    HW1 2438   1.825   0.919   1.270 -2.4206  2.2835 -0.0021
  610SOL    HW2 2439   1.688   0.976   1.257 -0.2926 -3.2765  0.0040
  610SOL     MW 2440   1.771   0.983   1.284 -0.6203  0.0606 -0.2167
  611SOL     OW 2441   2.536   1.709   0.686 -0.2115 -0.2079  0.3088
  611SOL    HW1 2442   2.538   1.791   0.737  1.0569 -0.7934 -1.3892
  611SOL    HW2 2443   2.446   1.702   0.657  2.2731 -0.3311 -3.6954
  611SOL     MW 2444   2.524   1.719   0.689  0.2837 -0.3014 -0.4436
  612SOL     OW 2445   2.828   2.843   0.403  0.4856  0.6691 -0.2791
  612SOL    HW1 2446   2.856   2.880   0.490  1.5113 -0.6873 -0.4522
  612SOL    HW2 2447   2.914   2.803   0.365  0.4467  0.9849 -2.1323
  612SOL     MW 2448   2.843   2.843   0.409  0.6158  0.5318 -0.5465
  613SOL     OW 2449   1.473   1.017   0.898 -0.2812 -0.0796 -0.2077
  613SOL    HW1 2450   1.472   1.114   0.901 -0.1092  0.6424 -2.7389
  613SOL    HW2 2451   1.530   0.992   0.965 -0.2863 -2.3757 -0.8629
  613SOL     MW 2452   1.480   1.027   0.907 -0.2592 -0.2873 -0.6281
  614SOL     OW 2453   2.010   0.572   1.464 -0.7209  0.4810  0.1187
  614SOL    HW1 2454   1.995   0.483   1.503 -2.2113 -2.0970 -0.7468
  614SOL    HW2 2455   1.977   0.566   1.372  0.1114 -2.4820  2.2768
  614SOL     MW 2456   2.004   0.560   1.457 -0.8078 -0.2500  0.2893
  615SOL     OW 2457   2.384   0.746   0.226  0.4337  0.1688 -0.0344
  615SOL    HW1 2458   2.463   0.691   0.239  0.0810 -0.1586 -0.8834
  615SOL    HW2 2459   2.312   0.702   0.172 -4.2404 -0.6455 -0.6657
  615SOL     MW 2460   2.385   0.733   0.221 -0.2296  0.0182 -0.2297
  616SOL     OW 2461   2.536   0.415   1.652 -0.4338  0.2868 -0.0156
  616SOL    HW1 2462   2.507   0.334   1.608  1.8394 -3.1217  0.0151
  616SOL    HW2 2463   2.569   0.476   1.590 -0.5654 -0.7579  0.5007
  616SOL     MW 2464   2.536   0.412   1.638 -0.1512 -0.3007  0.0566
  617SOL     OW 2465   2.804   0.629   1.713 -0.2359 -0.9583 -0.4365
  617SOL    HW1 2466   2.740   0.656   1.774 -0.4199  1.3953 -1.0302
  617SOL    HW2 2467   2.822   0.535   1.714  2.4862 -0.6608  0.3934
  617SOL     MW 2468   2.798   0.620   1.721  0.0990 -0.6085 -0.4053
  618SOL     OW 2469   2.733   0.348   1.931 -0.4411 -0.0284 -0.2333
  618SOL    HW1 2470   2.697   0.435   1.936  0.4890 -1.5007 -2.9840
  618SOL    HW2 2471   2.800   0.341   2.002 -2.8592 -0.2595  2.8719
  618SOL     MW 2472   2.737   0.359   1.941 -0.6375 -0.2532 -0.1865
  619SOL     OW 2473   2.647   0.689   0.081 -0.4482 -0.2117 -0.1260
  619SOL    HW1 2474   2.701   0.765   0.113  0.9495  2.4629 -1.6712
  619SOL    HW2 2475   2.652   0.632   0.158  0.3690  0.3415 -0.4783
  619SOL     MW 2476   2.655   0.691   0.096 -0.1560  0.2141 -0.3763
  620SOL     OW 2477   2.207   1.054   0.938  0.0823 -0.0012 -0.4899
  620SOL    HW1 2478   2.279   1.082   0.887 -2.0010 -0.1297  0.2720
  620SOL    HW2 2479   2.145   1.010   0.882 -0.6296 -0.0440 -0.9211
  620SOL     MW 2480   2.208   1.052   0.924 -0.2865 -0.0238 -0.4463
  621SOL     OW 2481   1.546   2.188   1.895 -0.1528  0.2136  0.1210
  621SOL    HW1 2482   1.495   2.143   1.965  1.3208  0.1734 -3.0715
  621SOL    HW2 2483   1.630   2.161   1.914 -2.0310  0.1479  2.4522
  621SOL     MW 2484   1.550   2.178   1.907 -0.2062  0.1996  0.0073
  622SOL     OW 2485   2.630   0.177   0.226  0.2472  0.1239 -0.1422
  622SOL    HW1 2486   2.719   0.214   0.220 -0.5994  1.8434  0.8247
  622SOL    HW2 2487   2.641   0.089   0.264 -0.0928  0.7629 -0.1655
  622SOL     MW 2488   2.643   0.170   0.230  0.0906  0.4351 -0.0177
  623SOL     OW 2489   2.397   2.782   0.833  0.4233  0.1717 -0.3770
  623SOL    HW1 2490   2.451   2.861   0.859 -0.1970 -0.2144  1.1985
  623SOL    HW2 2491   2.315   2.812   0.865 -1.1202 -0.8347 -2.3670
  623SOL     MW 2492   2.393   2.796   0.841  0.1378 -0.0120 -0.4317
  624SOL     OW 2493   2.152   1.692   2.989  0.1453 -0.2811  0.3446
  624SOL    HW1 2494   2.101   1.622   3.018 -0.1551 -0.8141  1.1216
  624SOL    HW2 2495   2.088   1.744   2.947 -1.9099  0.8781 -1.7733
  624SOL     MW 2496   2.137   1.690   2.987 -0.1655 -0.1985  0.1677
  625SOL     OW 2497   2.201   1.913   1.047 -0.0654  0.3134 -0.3423
  625SOL    HW1 2498   2.262   1.863   1.102 -1.5098  1.3695 -2.4088
  625SOL    HW2 2499   2.249   1.931   0.966  0.1454 -0.9212 -0.3023
  625SOL     MW 2500   2.215   1.909   1.044 -0.2282  0.2898 -0.6097
  626SOL     OW 2501   0.310   1.639   2.381 -0.1204  1.1119  0.1522
  626SOL    HW1 2502   0.276   1.554   2.419  0.0382 -1.4797  1.1371
  626SOL    HW2 2503   0.234   1.683   2.345 -0.7427  3.5124 -0.7751
  626SOL     MW 2504   0.296   1.634   2.381 -0.1816  1.0867  0.1598
  627SOL     OW 2505   2.440   0.711   2.553 -0.0251  0.1781 -0.5281
  627SOL    HW1 2506   2.435   0.802   2.585  0.5813 -1.8929  0.3895
  627SOL    HW2 2507   2.414   0.704   2.463  1.2352 -0.7031 -0.6575
  627SOL     MW 2508   2.436   0.722   2.545  0.2212 -0.2114 -0.4241
  628SOL     OW 2509   2.348   1.430   1.334  0.2645 -0.5336 -0.2404
  628SOL    HW1 2510   2.324   1.360   1.269  0.0670  1.9846 -0.9157
  628SOL    HW2 2511   2.417   1.475   1.294 -2.9113  0.4577 -1.7508
  628SOL     MW 2512   2.354   1.427   1.320 -0.1806 -0.0706 -0.5288
  629SOL     OW 2513   1.865   0.542   1.226  0.1352  0.4249 -0.4301
  629SOL    HW1 2514   1.877   0.622   1.174 -1.2049  2.6242  0.2419
  629SOL    HW2 2515   1.767   0.527   1.238 -1.8081 -1.0308 -0.7797
  629SOL     MW 2516   1.854   0.550   1.221 -0.2980  0.5230 -0.3876
  630SOL     OW 2517   2.392   1.811   3.052 -0.5010  0.7711  0.3360
  630SOL    HW1 2518   2.409   1.878   2.989 -2.2213 -3.6688 -0.4807
  630SOL    HW2 2519   2.297   1.788   3.031 -2.9082 -0.3030  2.6083
  630SOL     MW 2520   2.381   1.817   3.041 -1.0456  0.0436  0.5280
  631SOL     OW 2521   2.036   1.829   1.568  0.2017 -0.4598 -0.8685
  631SOL    HW1 2522   2.032   1.750   1.620  0.9227  2.4681  0.2177
  631SOL    HW2 2523   1.990   1.810   1.489  1.8293  4.0090 -0.2809
  631SOL     MW 2524   2.030   1.816   1.565  0.5116  0.5161 -0.6477
  632SOL     OW 2525   0.185   1.952   1.385  0.5617  0.7183 -0.0011
  632SOL    HW1 2526   0.177   1.953   1.485 -0.9251  1.7392 -0.4099
  632SOL    HW2 2527   0.220   1.872   1.359 -0.0917  1.3202 -0.4012
  632SOL     MW 2528   0.188   1.941   1.395  0.2793  0.9324 -0.1078
  633SOL     OW 2529   2.550   0.532   0.305 -0.0557  1.0076  0.1248
  633SOL    HW1 2530   2.598   0.530   0.391  0.9106  1.1874 -1.4394
  633SOL    HW2 2531   2.537   0.441   0.273  0.2671  1.0961 -3.1892
  633SOL     MW 2532   2.555   0.520   0.312  0.1143  1.0430 -0.5188
  634SOL     OW 2533   2.656   0.042   0.647  0.5364 -0.3456 -0.0090
  634SOL    HW1 2534   2.710   0.123   0.645 -1.9124  0.4251 -4.2527
  634SOL    HW2 2535   2.613   0.053   0.562 -1.1849 -1.1367  0.6251
  634SOL     MW 2536   2.657   0.054   0.636 -0.0138 -0.3483 -0.4852
  635SOL     OW 2537   2.599   0.123   1.840  0.4256  0.3695 -0.4749
  635SOL    HW1 2538   2.666   0.062   1.814 -3.3745 -0.8742  3.5822
  635SOL    HW2 2539   2.634   0.206   1.864 -0.7906  1.0329 -0.7446
  635SOL     MW 2540   2.613   0.126   1.840 -0.2363  0.2930  0.0248
  636SOL     OW 2541   2.820   1.597   0.985  0.2395  0.4739 -0.6956
  636SOL    HW1 2542   2.727   1.609   0.983  0.8925 -1.9772 -3.4147
  636SOL    HW2 2543   2.860   1.665   1.037 -1.5512 -2.7250 -0.4649
  636SOL     MW 2544   2.813   1.608   0.991  0.0894 -0.2716 -1.0239
  637SOL     OW 2545   2.870   1.449   0.738 -0.0705 -0.1610 -0.5706
  637SOL    HW1 2546   2.914   1.525   0.702  2.1417 -1.3736  2.4880
  637SOL    HW2 2547   2.856   1.476   0.830  2.0644 -2.7961 -1.4895
  637SOL     MW 2548   2.874   1.463   0.745  0.5030 -0.6686 -0.2883
  638SOL     OW 2549   2.688   0.515   0.580 -0.3670 -0.0940 -0.1945
  638SOL    HW1 2550   2.776   0.509   0.538 -3.2616  3.5603 -2.4954
  638SOL    HW2 2551   2.703   0.575   0.652  1.3785 -0.0198 -1.5675
  638SOL     MW 2552   2.702   0.522   0.584 -0.5186  0.3979 -0.6792
  639SOL     OW 2553   1.720   0.031   0.582 -0.3851  0.0548  0.1799
  639SOL    HW1 2554   1.632   0.051   0.558  3.2381 -0.1204  2.7157
  639SOL    HW2 2555   1.742  -0.049   0.535  1.9279  1.1520 -3.2777
  639SOL     MW 2556   1.711   0.023   0.572  0.3981  0.1764  0.0583
  640SOL     OW 2557   0.313   1.300   0.127 -0.3762  0.3265  0.2982
  640SOL    HW1 2558   0.346   1.293   0.032  1.1978  1.4878 -1.4959
  640SOL    HW2 2559   0.316   1.203   0.156  0.2506 -1.3654  2.9840
  640SOL     MW 2560   0.318   1.286   0.118 -0.0858  0.2565  0.4158
  641SOL     OW 2561   2.178   0.399   0.409  0.2485  0.2242  0.4206
  641SOL    HW1 2562   2.229   0.384   0.324 -1.9951 -0.0301  0.9722
  641SOL    HW2 2563   2.240   0.363   0.475  1.7519 -0.4963  1.5377
  641SOL     MW 2564   2.193   0.392   0.407  0.1508  0.0956  0.6408
  642SOL     OW 2565   0.052   3.088   0.560  0.0846 -0.2238 -0.2414
  642SOL    HW1 2566   0.000   3.162   0.510  1.8379  3.2234  0.2619
  642SOL    HW2 2567  -0.014   3.035   0.602  0.1728  1.5707 -0.1995
  642SOL     MW 2568   0.037   3.091   0.559  0.3276  0.4678 -0.1694
  643SOL     OW 2569   1.988   0.371   1.634  0.0143  0.6628  0.6106
  643SOL    HW1 2570   1.903   0.353   1.676  1.9863 -0.5089 -1.4704
  643SOL    HW2 2571   1.994   0.312   1.555  0.8368 -1.4128  1.5141
  643SOL     MW 2572   1.978   0.361   1.629  0.3830  0.2344  0.4552
  644SOL     OW 2573   2.756   1.973   1.070 -0.1213 -0.6403  0.2008
  644SOL    HW1 2574   2.717   1.890   1.089 -1.5726  0.9434  1.0071
  644SOL    HW2 2575   2.687   2.033   1.034 -1.5152 -1.8104  0.5349
  644SOL     MW 2576   2.742   1.970   1.068 -0.4967 -0.5857  0.3513
  645SOL     OW 2577   2.827   0.834   0.648 -0.6267 -0.1355  0.5510
  645SOL    HW1 2578   2.919   0.816   0.641 -1.7104  1.5706  0.7455
  645SOL    HW2 2579   2.802   0.763   0.712 -0.2035  0.1585 -0.8235
  645SOL     MW 2580   2.836   0.823   0.656 -0.7138  0.1284  0.3953
  646SOL     OW 2581   0.089   2.289   0.842 -0.4845 -0.0534 -0.1129
  646SOL    HW1 2582   0.127   2.196   0.836  3.5108  0.4544  1.4011
  646SOL    HW2 2583   0.014   2.279   0.787 -0.4255  1.2474 -1.4708
  646SOL     MW 2584   0.084   2.275   0.834  0.0505  0.1852 -0.0923
  647SOL     OW 2585   2.686   0.471   2.903  0.5292  0.1267  0.0243
  647SOL    HW1 2586   2.666   0.450   2.997 -5.7457 -2.4660  0.4379
  647SOL    HW2 2587   2.600   0.499   2.865  1.9526  4.8045  0.1337
  647SOL     MW 2588   2.672   0.472   2.910 -0.1109  0.4018  0.0933
  648SOL     OW 2589   2.122   0.736   1.181  0.6677  0.0210 -0.0742
  648SOL    HW1 2590   2.137   0.646   1.221  1.5756 -2.4180  0.3564
  648SOL    HW2 2591   2.172   0.797   1.233 -3.8415 -0.7869  0.2199
  648SOL     MW 2592   2.130   0.732   1.193  0.1925 -0.4074  0.0215
  649SOL     OW 2593   2.383   2.655   1.286 -0.1090  0.1007  0.4814
  649SOL    HW1 2594   2.474   2.673   1.311  1.6388 -1.4486  1.0495
  649SOL    HW2 2595   2.394   2.558   1.292  2.0714 -2.7988 -2.6322
  649SOL     MW 2596   2.396   2.644   1.290  0.4093 -0.4863  0.1456
  650SOL     OW 2597   2.852   0.239   0.636 -0.2587  0.3574  0.7853
  650SOL    HW1 2598   2.890   0.314   0.681  0.7242 -0.2468  1.5868
  650SOL    HW2 2599   2.916   0.221   0.559  3.5650  0.8928 -1.0984
  650SOL     MW 2600   2.866   0.247   0.632  0.3755  0.3483  0.6425
  651SOL     OW 2601   3.064   0.426   0.960 -0.1566 -0.1921  0.7076
  651SOL    HW1 2602   3.139   0.464   0.903  1.5423 -1.4970 -2.2472
  651SOL    HW2 2603   3.027   0.502   1.006 -0.5600  1.5971 -1.0532
  651SOL     MW 2604   3.069   0.441   0.958  0.0143 -0.1282  0.0854
  652SOL     OW 2605   2.427   1.545   3.039 -0.3851 -0.2549  0.2323
  652SOL    HW1 2606   2.485   1.557   2.965 -0.3983 -0.3164  3.2268
  652SOL    HW2 2607   2.411   1.632   3.067  2.1974 -2.1211 -2.4843
  652SOL     MW 2608   2.432   1.558   3.033 -0.0461 -0.5092  0.2690
  653SOL     OW 2609   1.817   0.450   0.389  0.4752  0.6991 -0.0505
  653SOL    HW1 2610   1.757   0.406   0.321  2.7782 -1.8121 -0.6916
  653SOL    HW2 2611   1.905   0.447   0.359 -1.3041 -0.5320 -0.4958
  653SOL     MW 2612   1.820   0.444   0.376  0.5443  0.2053 -0.1938
  654SOL     OW 2613   2.423   1.027   0.772 -0.0700 -0.7346 -0.1013
  654SOL    HW1 2614   2.347   1.038   0.711 -0.3952 -0.6352  1.0196
  654SOL    HW2 2615   2.444   0.930   0.752 -1.6130  1.8285 -1.9514
  654SOL     MW 2616   2.416   1.015   0.761 -0.3165 -0.3833 -0.1975
  655SOL     OW 2617   2.947   0.821   0.368  0.2113 -0.4604  0.1837
  655SOL    HW1 2618   2.889   0.853   0.436 -1.3685 -1.3724  0.0872
  655SOL    HW2 2619   2.963   0.729   0.395  0.5893 -2.9240  0.6110
  655SOL     MW 2620   2.941   0.813   0.380  0.0528 -0.9058  0.2274
  656SOL     OW 2621   1.878   2.694   1.353 -0.5738 -1.1555  0.1484
  656SOL    HW1 2622   1.890   2.784   1.366 -0.1266 -0.8901 -0.2479
  656SOL    HW2 2623   1.926   2.643   1.425  2.6282 -2.2363  1.9906
  656SOL     MW 2624   1.886   2.699   1.364 -0.0923 -1.2631  0.3392
  657SOL     OW 2625   0.122   1.769   1.182  0.1398 -0.4210 -0.0941
  657SOL    HW1 2626   0.180   1.836   1.155 -0.2216  0.9479  1.1272
  657SOL    HW2 2627   0.167   1.679   1.192  2.2927  0.3803  0.3728
  657SOL     MW 2628   0.135   1.766   1.180  0.3762 -0.1347  0.1287
  658SOL     OW 2629   2.677   1.353   0.255 -0.2257 -0.1064  0.0223
  658SOL    HW1 2630   2.655   1.271   0.306 -0.7845 -3.3179  0.4491
  658SOL    HW2 2631   2.700   1.427   0.313  0.6714  1.2758  0.8208
  658SOL     MW 2632   2.677   1.352   0.269 -0.1811 -0.3477  0.1839
  659SOL     OW 2633   2.268   1.535   1.013 -0.0103 -0.2369 -0.4795
  659SOL    HW1 2634   2.359   1.508   1.040 -1.2353 -1.1934 -0.0874
  659SOL    HW2 2635   2.230   1.569   1.094 -4.3019 -2.1522  2.0670
  659SOL     MW 2636   2.275   1.536   1.027 -0.7382 -0.6158 -0.0918
  660SOL     OW 2637   2.060   1.572   1.672  0.1508 -0.2180  0.1722
  660SOL    HW1 2638   2.072   1.573   1.771 -0.4856  2.3690  0.9808
  660SOL    HW2 2639   1.977   1.521   1.653  1.0764 -2.7694 -2.6995
  660SOL     MW 2640   2.050   1.566   1.682  0.1890 -0.2133 -0.1000
  661SOL     OW 2641   2.457   1.006   0.184  0.2496 -0.3019  0.3724
  661SOL    HW1 2642   2.488   1.047   0.268 -2.5090 -0.6976  0.6843
  661SOL    HW2 2643   2.428   0.918   0.207 -2.5730  1.9099 -0.5257
  661SOL     MW 2644   2.457   1.000   0.198 -0.4867 -0.0623  0.2951
  662SOL     OW 2645   2.551   2.988   0.906 -0.0185  0.7893  0.1295
  662SOL    HW1 2646   2.502   3.063   0.945 -0.1556 -0.3966 -1.2570
  662SOL    HW2 2647   2.598   3.017   0.827 -0.7928 -0.5997  0.5921
  662SOL     MW 2648   2.551   3.002   0.901 -0.1387  0.4496  0.0076
  663SOL     OW 2649   2.647   1.498   0.502  0.4171 -0.0657 -0.1814
  663SOL    HW1 2650   2.638   1.593   0.471 -2.3302  1.6496 -0.9974
  663SOL    HW2 2651   2.729   1.491   0.550  1.5687 -1.3371  0.1612
  663SOL     MW 2652   2.656   1.509   0.504  0.2066 -0.0072 -0.2438
  664SOL     OW 2653   2.547   1.530   1.558  0.3804  0.3291  0.1751
  664SOL    HW1 2654   2.527   1.623   1.547 -1.3828 -0.0551 -1.1129
  664SOL    HW2 2655   2.459   1.488   1.556 -1.4705  2.1854  1.7343
  664SOL     MW 2656   2.533   1.537   1.556 -0.0964  0.5233  0.2109
  665SOL     OW 2657   2.854   0.860   2.012 -0.0987 -0.4385  0.0908
  665SOL    HW1 2658   2.816   0.894   1.932  1.9165  4.0425  0.6430
  665SOL    HW2 2659   2.915   0.792   1.995 -0.2324  0.4689  0.7094
  665SOL     MW 2660   2.857   0.855   1.999  0.1495  0.2724  0.2453
  666SOL     OW 2661   2.786   3.050   1.722 -0.6602  0.3115 -0.1876
  666SOL    HW1 2662   2.767   3.028   1.628  1.3994 -4.2761  0.3340
  666SOL    HW2 2663   2.756   2.973   1.767 -0.2565 -0.4087 -0.0451
  666SOL     MW 2664   2.780   3.037   1.715 -0.3352 -0.3888 -0.1000
  667SOL     OW 2665   1.938   2.665   1.803 -0.2483 -0.1524  0.1323
  667SOL    HW1 2666   1.958   2.640   1.897 -2.0925 -1.5575 -0.2311
  667SOL    HW2 2667   2.018   2.705   1.765 -0.2797  2.0653  1.7718
  667SOL     MW 2668   1.951   2.667   1.810 -0.4958 -0.0452  0.3007
  668SOL     OW 2669   2.736   0.647   0.831 -0.1483 -0.2578  0.0107
  668SOL    HW1 2670   2.807   0.675   0.904  0.2851 -1.2701 -2.1906
  668SOL    HW2 2671   2.653   0.705   0.832  1.4132 -1.4004 -1.8580
  668SOL     MW 2672   2.735   0.658   0.841  0.1149 -0.5422 -0.5263
  669SOL     OW 2673   0.201   0.922   0.683 -0.3337 -0.1490  0.5746
  669SOL    HW1 2674   0.138   0.981   0.715 -3.2210  0.4357  1.0015
  669SOL    HW2 2675   0.263   0.935   0.749 -2.3997 -0.8195  1.0383
  669SOL     MW 2676   0.201   0.931   0.696 -0.9873 -0.1603  0.6921
  670SOL     OW 2677   2.883   0.279   0.193 -0.6493  1.1497 -0.1478
  670SOL    HW1 2678   2.887   0.226   0.115  3.2958  3.0153 -1.7328
  670SOL    HW2 2679   2.924   0.363   0.183 -0.2730  1.5663  0.0818
  670SOL     MW 2680   2.889   0.283   0.181 -0.0792  1.4508 -0.3267
  671SOL     OW 2681   2.061   3.035   1.530  0.1872  0.2668  0.3533
  671SOL    HW1 2682   2.008   3.015   1.450 -0.1237  0.4271 -1.3733
  671SOL    HW2 2683   1.990   3.063   1.592 -2.9506  0.1098 -0.7111
  671SOL     MW 2684   2.045   3.036   1.528 -0.2678  0.2672 -0.0150
  672SOL     OW 2685   1.901   1.734   1.319 -0.1971 -0.0888 -0.0704
  672SOL    HW1 2686   1.815   1.751   1.357 -1.3275  1.8154  0.2129
  672SOL    HW2 2687   1.903   1.764   1.233 -0.1008  1.7852  1.4408
  672SOL     MW 2688   1.890   1.740   1.313 -0.3336  0.4097  0.1663
  673SOL     OW 2689   2.776   1.114   0.602  0.3276 -0.0240  0.2094
  673SOL    HW1 2690   2.803   1.023   0.616  0.3227  2.3249 -0.7089
  673SOL    HW2 2691   2.851   1.161   0.628 -1.0084  0.1812 -0.0806
  673SOL     MW 2692   2.790   1.108   0.607  0.1507  0.3130  0.0499
  674SOL     OW 2693   2.440   3.060   1.315  0.0488 -0.1758  0.0685
  674SOL    HW1 2694   2.418   3.071   1.224 -1.8225 -2.7418  1.8552
  674SOL    HW2 2695   2.403   2.976   1.337 -1.1310  0.2523  0.0008
  674SOL     MW 2696   2.432   3.050   1.306 -0.3538 -0.4578  0.2953
  675SOL     OW 2697   3.070   0.894   1.065 -0.0340 -0.5675  0.3234
  675SOL    HW1 2698   3.136   0.913   1.125 -1.2474 -0.7982 -0.3830
  675SOL    HW2 2699   3.087   0.958   0.995 -3.3661 -0.3143  1.2470
  675SOL     MW 2700   3.081   0.905   1.064 -0.6337 -0.5645  0.3521
  676SOL     OW 2701   2.917   1.490   1.685  0.6336 -0.3556 -0.0439
  676SOL    HW1 2702   2.879   1.406   1.652 -0.0783  1.1618  2.4835
  676SOL    HW2 2703   2.987   1.475   1.745 -1.0336  1.0030  1.0501
  676SOL     MW 2704   2.922   1.477   1.689  0.3197  0.0239  0.4339
  677SOL     OW 2705   2.362   0.603   2.017 -0.4036  0.3356  0.1887
  677SOL    HW1 2706   2.316   0.554   1.947  0.2396 -1.2529  2.4182
  677SOL    HW2 2707   2.323   0.687   2.015  0.2070 -0.7828  0.8877
  677SOL     MW 2708   2.351   0.607   2.008 -0.2382 -0.0216  0.5751
  678SOL     OW 2709   2.544   1.688   0.283 -0.2951  0.6994  0.5167
  678SOL    HW1 2710   2.494   1.692   0.367 -0.0356  1.7465 -1.1166
  678SOL    HW2 2711   2.498   1.625   0.228 -1.4136  0.1436 -1.9140
  678SOL     MW 2712   2.532   1.680   0.287 -0.4085  0.7642 -0.0195
  679SOL     OW 2713   2.214   0.451   1.301  0.0581 -0.6686  0.0350
  679SOL    HW1 2714   2.197   0.385   1.234  2.3786  0.8726 -1.5627
  679SOL    HW2 2715   2.163   0.426   1.378 -1.4902  0.2477 -0.3797
  679SOL     MW 2716   2.205   0.439   1.303  0.1600 -0.3444 -0.2305
  680SOL     OW 2717   2.362   0.170   1.479 -0.2064  0.2215 -0.4711
  680SOL    HW1 2718   2.287   0.182   1.428  2.6246 -2.4332  2.0024
  680SOL    HW2 2719   2.401   0.083   1.441  1.8703 -2.0002 -0.7587
  680SOL     MW 2720   2.357   0.160   1.467  0.4412 -0.4219 -0.1827
  681SOL     OW 2721   0.286   0.499   1.527 -0.3479 -0.1611 -0.3028
  681SOL    HW1 2722   0.277   0.441   1.598 -0.4284  0.5486 -2.5342
  681SOL    HW2 2723   0.368   0.539   1.527  0.0125 -0.1102 -1.1824
  681SOL     MW 2724   0.296   0.497   1.536 -0.3110 -0.0607 -0.7132
  682SOL     OW 2725   0.114   2.880   1.493  0.6073 -0.0704 -0.0906
  682SOL    HW1 2726   0.161   2.903   1.574 -0.3036 -1.5671  0.6259
  682SOL    HW2 2727   0.026   2.903   1.517  1.6525  1.7305  2.5011
  682SOL     MW 2728   0.108   2.886   1.507  0.6250 -0.0303  0.3459
  683SOL     OW 2729   2.077   0.802   2.980 -0.5831 -0.3269  0.0379
  683SOL    HW1 2730   1.982   0.781   2.978 -0.0483 -0.4459  0.1534
  683SOL    HW2 2731   2.073   0.893   3.007 -2.1726 -2.0252  1.7135
  683SOL     MW 2732   2.064   0.811   2.983 -0.7223 -0.5667  0.2742
  684SOL     OW 2733   2.231   1.678   0.765  0.4278  0.1396 -1.1068
  684SOL    HW1 2734   2.217   1.617   0.690  0.8953  2.2777 -1.7048
  684SOL    HW2 2735   2.250   1.622   0.844 -1.4312 -2.0751 -0.5110
  684SOL     MW 2736   2.232   1.663   0.766  0.2442  0.1295 -1.1071
  685SOL     OW 2737   2.617   1.725   1.230 -0.1115 -0.5053 -0.3147
  685SOL    HW1 2738   2.696   1.713   1.287 -0.4818 -1.4605  0.2373
  685SOL    HW2 2739   2.604   1.643   1.188  1.2682  0.5762 -0.9087
  685SOL     MW 2740   2.626   1.712   1.232  0.0217 -0.4886 -0.3203
  686SOL     OW 2741   2.895   0.794   1.526  0.2881 -0.4882  0.1057
  686SOL    HW1 2742   2.897   0.723   1.592 -1.6032 -2.5092 -0.9881
  686SOL    HW2 2743   2.976   0.840   1.539 -0.6389  0.4461 -0.8407
  686SOL     MW 2744   2.906   0.791   1.537 -0.0837 -0.6316 -0.1635
  687SOL     OW 2745   2.150   0.189   1.164 -0.2265  0.1148 -0.4258
  687SOL    HW1 2746   2.226   0.150   1.113  3.1307  1.5295 -1.6775
  687SOL    HW2 2747   2.080   0.160   1.103 -1.2038 -0.7604  1.1138
  687SOL     MW 2748   2.150   0.180   1.149  0.0875  0.1860 -0.3878
  688SOL     OW 2749   2.397   0.581   1.450  0.7665  0.2056 -0.3664
  688SOL    HW1 2750   2.328   0.515   1.419 -1.4514 -2.5796  0.5551
  688SOL    HW2 2751   2.356   0.623   1.527 -0.7588  2.4270  2.7494
  688SOL     MW 2752   2.383   0.578   1.456  0.2726  0.1312  0.1663
  689SOL     OW 2753   2.460   0.765   2.985 -0.7261 -0.4440  0.0789
  689SOL    HW1 2754   2.485   0.837   2.921  2.6665  0.6984 -0.1604
  689SOL    HW2 2755   2.545   0.752   3.037  0.0630  0.1343 -1.5446
  689SOL     MW 2756   2.475   0.772   2.983 -0.1743 -0.2170 -0.1669
  690SOL     OW 2757   2.038   0.888   1.857 -0.4693 -0.8128 -1.2067
  690SOL    HW1 2758   1.998   0.802   1.847  0.0516 -2.7383 -1.1045
  690SOL    HW2 2759   2.054   0.934   1.775  1.8067 -2.4562  0.0608
  690SOL     MW 2760   2.035   0.883   1.845 -0.1003 -1.2837 -1.0260
  691SOL     OW 2761   2.393   0.325   0.906 -0.0693  0.2768 -0.2618
  691SOL    HW1 2762   2.470   0.375   0.933  2.0660  0.7512  1.1716
  691SOL    HW2 2763   2.318   0.378   0.926  0.0935  0.4967 -0.4709
  691SOL     MW 2764   2.393   0.339   0.912  0.2339  0.3684 -0.1003
  692SOL     OW 2765   2.831   1.714   1.379 -0.1378 -0.1783  0.1533
  692SOL    HW1 2766   2.827   1.660   1.454  0.8093  0.3271  1.1429
  692SOL    HW2 2767   2.856   1.804   1.411 -1.0219  2.8505  0.8690
  692SOL     MW 2768   2.834   1.719   1.393 -0.1295  0.2880  0.3783
  693SOL     OW 2769   2.259   0.405   0.143 -0.4354 -0.5780  0.1760
  693SOL    HW1 2770   2.181   0.356   0.131  1.5390  1.8723 -0.7702
  693SOL    HW2 2771   2.254   0.487   0.091  1.5147  1.9335 -1.9319
  693SOL     MW 2772   2.248   0.410   0.135  0.0824  0.0766 -0.2269
  694SOL     OW 2773   1.930   1.207   1.201  0.3245 -0.3083 -0.2300
  694SOL    HW1 2774   2.024   1.182   1.197  1.9128 -0.6150  0.6082
  694SOL    HW2 2775   1.891   1.130   1.246  1.9231 -0.4472 -0.3999
  694SOL     MW 2776   1.937   1.193   1.206  0.7450 -0.3671 -0.1418
  695SOL     OW 2777   3.027   1.519   1.308 -0.5218  0.5437 -1.1159
  695SOL    HW1 2778   2.985   1.471   1.233 -1.4064  2.0505 -1.6041
  695SOL    HW2 2779   2.975   1.592   1.337  2.6405 -1.5868  1.1112
  695SOL     MW 2780   3.015   1.522   1.302 -0.2213  0.4614 -0.8864
  696SOL     OW 2781   2.124   1.321   0.834 -0.0176  0.6567 -0.2479
  696SOL    HW1 2782   2.179   1.371   0.900 -0.6100 -0.7655 -2.2593
  696SOL    HW2 2783   2.089   1.252   0.894 -1.1542 -1.1960  0.1097
  696SOL     MW 2784   2.127   1.319   0.851 -0.2457  0.2246 -0.4661
  697SOL     OW 2785   2.909   1.037   2.214 -0.3994  0.2855 -0.0406
  697SOL    HW1 2786   2.842   1.102   2.234  2.7902 -0.2300  0.6329
  697SOL    HW2 2787   2.872   0.989   2.144 -1.2970  1.7851  1.1439
  697SOL     MW 2788   2.895   1.039   2.208 -0.0970  0.4153  0.2045
  698SOL     OW 2789   2.556   0.331   0.004 -0.0634  0.3162  0.3590
  698SOL    HW1 2790   2.467   0.361   0.011  0.4047  1.0434 -3.7777
  698SOL    HW2 2791   2.578   0.277   0.080  1.8540  1.0812 -1.7645
  698SOL     MW 2792   2.547   0.328   0.015  0.2513  0.5131 -0.4669
  699SOL     OW 2793   1.790   1.579   2.065  0.1113  0.0066  0.7526
  699SOL    HW1 2794   1.742   1.490   2.062  0.4178 -0.3679 -2.5327
  699SOL    HW2 2795   1.879   1.580   2.018  0.4262 -1.9474  0.5555
  699SOL     MW 2796   1.795   1.567   2.059  0.1933 -0.3006  0.2931
  700SOL     OW 2797   2.670   0.946   1.484 -0.2488 -0.4654 -0.3847
  700SOL    HW1 2798   2.691   1.034   1.448 -1.7786  2.0783  0.3550
  700SOL    HW2 2799   2.757   0.898   1.485  1.6943 -0.7505 -0.0810
  700SOL     MW 2800   2.685   0.952   1.480 -0.1943 -0.1674 -0.2470
  701SOL     OW 2801   1.644   1.189   2.448  0.2845  0.2777  0.7590
  701SOL    HW1 2802   1.739   1.198   2.430 -0.8676 -1.3507  0.2231
  701SOL    HW2 2803   1.637   1.205   2.541  0.7628  0.5637 -1.7232
  701SOL     MW 2804   1.656   1.192   2.458  0.1956  0.1006  0.3608
  702SOL     OW 2805   2.124   0.424   0.846  0.3133 -0.4835 -0.2052
  702SOL    HW1 2806   2.145   0.355   0.780 -1.0871 -2.2714  3.5096
  702SOL    HW2 2807   2.181   0.490   0.808  2.9540 -1.0324  1.3428
  702SOL     MW 2808   2.134   0.423   0.833  0.4770 -0.7918  0.4892
  703SOL     OW 2809   2.731   1.220   1.046 -0.1187 -0.2408  0.8303
  703SOL    HW1 2810   2.686   1.221   0.954 -1.3041  1.2989 -2.1067
  703SOL    HW2 2811   2.736   1.131   1.074  2.2756 -0.4912 -1.4724
  703SOL     MW 2812   2.726   1.208   1.038  0.0408 -0.0707  0.1390
  704SOL     OW 2813   3.020   1.180   0.086  0.1739 -0.2086 -0.5073
  704SOL    HW1 2814   2.925   1.185   0.053 -1.4472  1.2820 -1.3105
  704SOL    HW2 2815   3.013   1.141   0.170  1.5050 -1.2215  1.9861
  704SOL     MW 2816   3.007   1.176   0.093  0.1356 -0.1456 -0.2843
  705SOL     OW 2817   2.195   1.626   1.266  0.1326 -0.1932 -0.9088
  705SOL    HW1 2818   2.097   1.629   1.289 -1.4663 -0.1435  1.1778
  705SOL    HW2 2819   2.242   1.549   1.314  1.1134  3.0160  2.3379
  705SOL     MW 2820   2.188   1.616   1.275  0.0510  0.2368 -0.2051
  706SOL     OW 2821   3.018   1.222   0.659 -0.0937  0.5204 -0.2854
  706SOL    HW1 2822   3.069   1.253   0.579  0.6136  2.5951 -1.4411
  706SOL    HW2 2823   2.973   1.300   0.688  2.7319 -0.3041 -0.7044
  706SOL     MW 2824   3.018   1.236   0.653  0.3724  0.6853 -0.4932
  707SOL     OW 2825   2.371   0.067   1.023 -0.3674 -0.0815  0.7001
  707SOL    HW1 2826   2.387   0.157   0.998  1.5026  1.0996 -2.0277
  707SOL    HW2 2827   2.287   0.042   0.972 -0.9489 -1.6426  1.0526
  707SOL     MW 2828   2.362   0.075   1.013 -0.1974 -0.1316  0.3867
  708SOL     OW 2829   2.423   1.443   0.198 -0.2775 -0.4198 -0.2747
  708SOL    HW1 2830   2.504   1.405   0.225  1.2716 -0.0313 -0.3934
  708SOL    HW2 2831   2.420   1.472   0.106 -3.8087 -1.6468 -0.4176
  708SOL     MW 2832   2.433   1.442   0.190 -0.5390 -0.5304 -0.3092
  709SOL     OW 2833   1.774   1.631   0.226 -0.1501 -0.4230 -0.7785
  709SOL    HW1 2834   1.752   1.664   0.144  3.0129  1.4695  0.9262
  709SOL    HW2 2835   1.698   1.654   0.283 -1.3438 -1.6827 -0.5537
  709SOL     MW 2836   1.761   1.638   0.223  0.1098 -0.3395 -0.5239
  710SOL     OW 2837   2.214   1.214   1.194 -0.3055 -0.4816 -0.8066
  710SOL    HW1 2838   2.216   1.167   1.108  2.1017 -2.2294  1.5115
  710SOL    HW2 2839   2.222   1.142   1.263 -2.2113 -0.2063  2.5553
  710SOL     MW 2840   2.215   1.199   1.192 -0.2394 -0.6759 -0.0572
  711SOL     OW 2841   2.335   0.138   1.761  0.0049  0.3592 -0.8257
  711SOL    HW1 2842   2.427   0.112   1.781 -0.4566 -1.1175  0.9650
  711SOL    HW2 2843   2.334   0.132   1.664  0.7054 -0.4655  1.0276
  711SOL     MW 2844   2.347   0.134   1.751  0.0364  0.0556 -0.3449
  712SOL     OW 2845   1.911   0.504   0.122 -0.1496  0.1191  0.5360
  712SOL    HW1 2846   1.835   0.529   0.063  1.1716  0.1123 -2.3609
  712SOL    HW2 2847   1.934   0.579   0.181 -0.9096 -1.7347  0.2678
  712SOL     MW 2848   1.904   0.517   0.122 -0.0756 -0.1264  0.1184
  713SOL     OW 2849   2.563   0.859   1.085  0.0324 -0.0959  0.1721
  713SOL    HW1 2850   2.568   0.765   1.108  4.2301  3.1922 -0.0435
  713SOL    HW2 2851   2.490   0.900   1.132 -3.9855  0.8173 -1.1096
  713SOL     MW 2852   2.554   0.852   1.094  0.0561  0.4585 -0.0255
  714SOL     OW 2853   2.230   0.236   2.023 -0.3337  0.3979  0.3228
  714SOL    HW1 2854   2.265   0.177   2.087 -2.6995 -4.7624 -1.4954
  714SOL    HW2 2855   2.245   0.195   1.939 -1.2046  0.2500 -0.9888
  714SOL     MW 2856   2.237   0.223   2.021 -0.7607 -0.3025 -0.0902
  715SOL     OW 2857   1.754   1.872   1.653 -0.1231 -0.4457  0.5370
  715SOL    HW1 2858   1.853   1.877   1.647  0.6523  1.6375  1.1560
  715SOL    HW2 2859   1.731   1.850   1.743 -0.4342 -1.5690 -1.9462
  715SOL     MW 2860   1.764   1.870   1.664 -0.0619 -0.3191  0.2911
  716SOL     OW 2861   2.303   0.592   0.691  0.1764 -0.5681  0.6727
  716SOL    HW1 2862   2.358   0.515   0.661  0.9008  0.8283  0.6219
  716SOL    HW2 2863   2.261   0.624   0.608 -0.6775  0.0971  1.8022
  716SOL     MW 2864   2.305   0.586   0.676  0.1593 -0.2961  0.8151
  717SOL     OW 2865   2.865   1.581   2.897 -0.0467  0.6287 -0.6333
  717SOL    HW1 2866   2.958   1.566   2.922 -1.9932  0.3373  1.3884
  717SOL    HW2 2867   2.853   1.660   2.947 -0.1258  0.5352 -1.4516
  717SOL     MW 2868   2.876   1.589   2.907 -0.3140  0.5779 -0.4745
  718SOL     OW 2869   2.684   1.397   1.320 -0.1179  0.1157  0.5512
  718SOL    HW1 2870   2.668   1.416   1.413  0.7643 -0.4100 -0.6445
  718SOL    HW2 2871   2.723   1.313   1.312 -1.1060  1.5658 -1.7522
  718SOL     MW 2872   2.687   1.389   1.332 -0.1319  0.2376  0.0895
  719SOL     OW 2873   2.188   1.302   0.565  0.1965 -0.2229  0.3122
  719SOL    HW1 2874   2.281   1.313   0.564 -2.4803 -0.4916  0.7679
  719SOL    HW2 2875   2.154   1.295   0.655  0.5112  2.5923 -0.8546
  719SOL     MW 2876   2.195   1.302   0.577 -0.1151  0.1130  0.2184
  720SOL     OW 2877   2.749   1.211   0.029  0.1312 -0.2347 -0.2389
  720SOL    HW1 2878   2.696   1.136   0.024  1.1760 -0.2214  2.6234
  720SOL    HW2 2879   2.742   1.269   0.107  0.0460  1.9061  0.7080
  720SOL     MW 2880   2.741   1.209   0.039  0.2578  0.0495  0.2637
  721SOL     OW 2881   2.432   0.847   1.364  0.4241 -0.0180  0.1467
  721SOL    HW1 2882   2.415   0.753   1.389 -0.5047 -1.7636 -0.0319
  721SOL    HW2 2883   2.511   0.872   1.413 -0.3395 -1.7101 -1.0982
  721SOL     MW 2884   2.440   0.838   1.374  0.2008 -0.4716 -0.0411
  722SOL     OW 2885   2.585   1.149   0.422  0.1897 -0.2745  0.2897
  722SOL    HW1 2886   2.542   1.208   0.487  0.9248 -2.6838  0.5874
  722SOL    HW2 2887   2.661   1.110   0.474 -1.3961 -0.5087 -0.7862
  722SOL     MW 2888   2.590   1.152   0.438  0.0774 -0.6233  0.1870
  723SOL     OW 2889   2.289   1.373   1.586  1.1033 -0.1057 -0.4803
  723SOL    HW1 2890   2.297   1.363   1.492  1.4685 -2.7306  1.7661
  723SOL    HW2 2891   2.220   1.446   1.604 -0.3345  0.6812 -1.7587
  723SOL     MW 2892   2.281   1.381   1.576  0.9618 -0.3482 -0.3526
  724SOL     OW 2893   2.455   0.384   0.620 -0.2148  0.2088 -0.4225
  724SOL    HW1 2894   2.447   0.340   0.709 -0.3895 -2.5289 -0.6580
  724SOL    HW2 2895   2.543   0.425   0.616  0.2412 -1.1998  2.8026
  724SOL     MW 2896   2.466   0.384   0.631 -0.1777 -0.3382 -0.0281
  725SOL     OW 2897   2.538   0.576   1.187  0.0837 -0.5759 -0.0510
  725SOL    HW1 2898   2.622   0.580   1.230  1.7938  2.7055 -0.2987
  725SOL    HW2 2899   2.486   0.593   1.262  1.2529 -2.1876 -0.7552
  725SOL     MW 2900   2.542   0.579   1.203  0.4636 -0.3556 -0.1766
  726SOL     OW 2901   2.588   2.450   0.554 -1.0758 -0.2888  0.3375
  726SOL    HW1 2902   2.554   2.514   0.492  1.4176 -0.1861 -0.8476
  726SOL    HW2 2903   2.516   2.450   0.621 -0.6384 -1.8578 -1.8603
  726SOL     MW 2904   2.574   2.458   0.555 -0.6891 -0.4823 -0.1089
  727SOL     OW 2905   2.895   0.377   1.682  0.3015  0.8022  0.4597
  727SOL    HW1 2906   2.865   0.370   1.587  2.2486  2.2215  1.1099
  727SOL    HW2 2907   2.825   0.343   1.743  1.1881 -2.8942  1.0155
  727SOL     MW 2908   2.882   0.371   1.678  0.6754  0.5018  0.6188
  728SOL     OW 2909   2.828   1.181   2.849 -0.4622  0.1628  0.1748
  728SOL    HW1 2910   2.858   1.250   2.792  1.3914  2.0974  0.4252
  728SOL    HW2 2911   2.821   1.222   2.935  0.5702 -0.8630 -1.6385
  728SOL     MW 2912   2.831   1.196   2.853 -0.0814  0.2827 -0.0314
  729SOL     OW 2913   2.522   1.491   1.127 -0.6835  0.2217  0.2087
  729SOL    HW1 2914   2.588   1.447   1.187  2.3383 -0.6041  0.2112
  729SOL    HW2 2915   2.560   1.489   1.038  1.9915  1.0322 -1.4119
  729SOL     MW 2916   2.536   1.485   1.123  0.0681  0.2197 -0.0048
  730SOL     OW 2917   2.220   1.176   0.175  1.0009 -0.0024 -0.3381
  730SOL    HW1 2918   2.298   1.122   0.179 -1.5752  1.3143 -2.7929
  730SOL    HW2 2919   2.242   1.272   0.183  2.0486  0.2633  2.3409
  730SOL     MW 2920   2.233   1.182   0.176  0.7993  0.2064 -0.3085
  731SOL     OW 2921   2.760   1.903   2.849 -0.5006 -0.3868 -0.1874
  731SOL    HW1 2922   2.684   1.933   2.795  0.9668  0.4883  0.7507
  731SOL    HW2 2923   2.843   1.950   2.818  1.8850  1.8455  0.6404
  731SOL     MW 2924   2.761   1.913   2.838  0.0078  0.0232  0.0456
  732SOL     OW 2925   2.212   1.002   1.370  0.1935 -0.0363 -0.0576
  732SOL    HW1 2926   2.173   1.002   1.456 -0.1254 -0.3334 -1.3748
  732SOL    HW2 2927   2.296   0.965   1.381  0.7737  1.6578  0.7897
  732SOL     MW 2928   2.218   0.997   1.383  0.2280  0.1480 -0.1196
  733SOL     OW 2929   2.361   2.755   3.021 -0.0209  0.2822 -0.0924
  733SOL    HW1 2930   2.275   2.807   3.022 -1.3662 -0.5920 -1.6007
  733SOL    HW2 2931   2.347   2.661   3.021 -0.3942 -1.0656  2.9693
  733SOL     MW 2932   2.347   2.750   3.021 -0.2476 -0.0110  0.1125
  734SOL     OW 2933   1.451   0.361   2.454 -0.2517  0.3845 -0.1564
  734SOL    HW1 2934   1.428   0.315   2.534 -1.7249  3.4037 -0.3013
  734SOL    HW2 2935   1.497   0.294   2.397  0.4939 -1.2740  0.3339
  734SOL     MW 2936   1.454   0.346   2.457 -0.3477  0.5641 -0.1109
  735SOL     OW 2937   2.925   0.882   2.622  0.1329 -0.1768  0.0781
  735SOL    HW1 2938   2.936   0.784   2.610 -1.4924 -1.3743  0.6290
  735SOL    HW2 2939   2.926   0.904   2.718  2.2987  0.2699 -0.3580
  735SOL     MW 2940   2.926   0.872   2.633  0.2042 -0.2759  0.0932
  736SOL     OW 2941   0.077   0.573   2.479 -0.2772  0.1465 -0.2642
  736SOL    HW1 2942   0.130   0.642   2.449 -1.9250 -0.4329 -0.9013
  736SOL    HW2 2943   0.061   0.520   2.401 -1.5646  0.7661 -0.2504
  736SOL     MW 2944   0.082   0.575   2.465 -0.6645  0.1518 -0.3465
  737SOL     OW 2945   2.935   0.628   2.550  0.3339  0.2061  0.0967
  737SOL    HW1 2946   2.868   0.611   2.483  0.9786  0.3844  2.2869
  737SOL    HW2 2947   3.018   0.614   2.501 -1.7178 -1.0150  2.0897
  737SOL     MW 2948   2.937   0.624   2.534  0.1483  0.0685  0.6487
  738SOL     OW 2949   0.180   0.624   1.885 -1.0671  0.3488  0.3747
  738SOL    HW1 2950   0.271   0.651   1.890  0.9553 -1.0296  1.1467
  738SOL    HW2 2951   0.190   0.537   1.842 -1.2632  1.1511 -0.4516
  738SOL     MW 2952   0.193   0.616   1.880 -0.8261  0.2728  0.3675
  739SOL     OW 2953   2.444   1.024   2.054  0.1169 -0.2975 -0.0082
  739SOL    HW1 2954   2.401   0.949   2.013  2.6507 -0.2794 -1.0376
  739SOL    HW2 2955   2.493   1.071   1.986  1.3867 -2.7811 -0.6972
  739SOL     MW 2956   2.445   1.020   2.040  0.6187 -0.6228 -0.2349
  740SOL     OW 2957   0.285   1.754   2.955 -0.1118 -0.1923 -0.6730
  740SOL    HW1 2958   0.225   1.681   2.949 -0.3734 -0.6426 -0.0192
  740SOL    HW2 2959   0.365   1.709   2.990  0.2798 -0.2995 -2.4034
  740SOL     MW 2960   0.288   1.739   2.959 -0.0947 -0.2659 -0.8150
  741SOL     OW 2961   2.249   1.177   2.743 -0.4880 -0.7368 -0.1135
  741SOL    HW1 2962   2.181   1.240   2.704  1.2623  3.6429 -0.4281
  741SOL    HW2 2963   2.260   1.212   2.834  2.0073  1.1536  1.3590
  741SOL     MW 2964   2.241   1.190   2.750  0.0721  0.0905  0.0392
  742SOL     OW 2965   1.511   1.235   2.218 -0.2985 -0.5181 -0.2803
  742SOL    HW1 2966   1.503   1.141   2.192  4.5006 -0.4363 -0.5290
  742SOL    HW2 2967   1.561   1.237   2.302 -0.3644  1.1722 -1.9912
  742SOL     MW 2968   1.517   1.223   2.226  0.3260 -0.2843 -0.5389
  743SOL     OW 2969   2.521   1.287   2.727 -0.7507  0.6780 -0.3607
  743SOL    HW1 2970   2.426   1.282   2.751  2.0466  2.3068  1.2757
  743SOL    HW2 2971   2.556   1.203   2.721 -0.8604 -2.0387 -1.9746
  743SOL     MW 2972   2.513   1.275   2.729 -0.3961  0.5345 -0.3578
  744SOL     OW 2973   2.755   0.960   1.771 -0.0213  0.2637 -0.0894
  744SOL    HW1 2974   2.677   1.015   1.761  1.8388 -1.0390  0.4102
  744SOL    HW2 2975   2.744   0.891   1.705  1.7178 -0.2803  2.2761
  744SOL     MW 2976   2.743   0.958   1.761  0.4536  0.0200  0.2886
  745SOL     OW 2977   1.724   0.456   2.499 -0.7808 -0.3531 -0.7766
  745SOL    HW1 2978   1.757   0.485   2.416 -0.2773  4.4526  2.4529
  745SOL    HW2 2979   1.633   0.481   2.497 -1.4739  0.0601  0.0658
  745SOL     MW 2980   1.716   0.463   2.488 -0.8058  0.3355 -0.2393
  746SOL     OW 2981   1.558   1.435   1.603  0.1205  0.1883 -0.3801
  746SOL    HW1 2982   1.655   1.422   1.607  2.8350 -0.5956 -2.0750
  746SOL    HW2 2983   1.527   1.396   1.685 -0.9058 -0.0889  0.0512
  746SOL     MW 2984   1.567   1.428   1.614  0.3432  0.0483 -0.5468
  747SOL     OW 2985   2.552   1.151   1.795 -0.2337  0.6493  0.1348
  747SOL    HW1 2986   2.464   1.162   1.759 -2.3184  3.3094  1.8320
  747SOL    HW2 2987   2.553   1.235   1.845  0.3331  1.7614 -2.4523
  747SOL     MW 2988   2.540   1.164   1.797 -0.4339  1.1470  0.0174
  748SOL     OW 2989   0.142   0.049   1.796  0.2412 -0.2510  0.1041
  748SOL    HW1 2990   0.178  -0.035   1.817  0.5645 -1.2546  0.7757
  748SOL    HW2 2991   0.103   0.084   1.875 -0.3020 -2.0909 -1.7195
  748SOL     MW 2992   0.141   0.043   1.809  0.2122 -0.6262 -0.0479
  749SOL     OW 2993   2.446   0.552   2.805 -0.2243 -0.3908 -0.0173
  749SOL    HW1 2994   2.426   0.593   2.718 -0.9891 -2.1780  1.0232
  749SOL    HW2 2995   2.456   0.639   2.861  1.1942 -1.0214 -1.1837
  749SOL     MW 2996   2.445   0.569   2.801 -0.1381 -0.7098 -0.0339
  750SOL     OW 2997   2.050   3.094   1.965  0.1033 -0.1510  0.2251
  750SOL    HW1 2998   2.098   3.157   2.012 -0.2435 -0.6336  1.6080
  750SOL    HW2 2999   2.107   3.017   1.972  0.1648  2.1246 -1.4561
  750SOL     MW 3000   2.064   3.092   1.972  0.0657  0.0856  0.1858
  751SOL     OW 3001   0.037   0.394   2.286  0.2203  0.1346  0.2350
  751SOL    HW1 3002  -0.021   0.325   2.326  0.3115  1.7931 -1.2210
  751SOL    HW2 3003   0.127   0.365   2.259  1.1119 -0.9871  0.7587
  751SOL     MW 3004   0.042   0.381   2.287  0.3500  0.2054  0.1120
  752SOL     OW 3005   2.118   0.810   2.692  0.4080  0.5166 -0.8268
  752SOL    HW1 3006   2.201   0.853   2.668 -0.3796  0.0346 -1.2699
  752SOL    HW2 3007   2.118   0.803   2.786  2.7420 -1.9130 -2.8461
  752SOL     MW 3008   2.129   0.815   2.701  0.6121  0.1324 -1.1517
  753SOL     OW 3009   2.922   0.240   2.382  0.3970 -0.1563  0.5445
  753SOL    HW1 3010   2.856   0.188   2.337 -1.1015  0.5503  1.2914
  753SOL    HW2 3011   2.883   0.324   2.389  0.2403 -0.0076  1.2368
  753SOL     MW 3012   2.908   0.244   2.377  0.1786 -0.0434  0.7344
  754SOL     OW 3013   2.260   2.993   2.648  0.0638  0.1454 -0.3745
  754SOL    HW1 3014   2.270   2.978   2.551 -1.1222 -1.0869 -1.9713
  754SOL    HW2 3015   2.314   2.921   2.686  0.3250 -1.5965  1.2069
  754SOL     MW 3016   2.268   2.981   2.640 -0.0582 -0.2470 -0.3766
  755SOL     OW 3017   2.725   1.596   2.475  0.4356 -0.0999  0.5829
  755SOL    HW1 3018   2.681   1.539   2.538 -2.6065 -2.5384 -0.7214
  755SOL    HW2 3019   2.804   1.635   2.523  1.7913  1.0879  1.6956
  755SOL     MW 3020   2.730   1.594   2.489  0.2131 -0.2649  0.5576
  756SOL     OW 3021   2.257   1.344   2.948  0.0998 -0.0291 -0.3851
  756SOL    HW1 3022   2.312   1.426   2.960 -1.2376  3.0339 -0.9707
  756SOL    HW2 3023   2.305   1.273   2.994  2.3753  1.1226  0.1187
  756SOL     MW 3024   2.271   1.345   2.956  0.2236  0.5270 -0.3959
  757SOL     OW 3025   2.095   0.973   1.608  0.0042 -0.7910  1.1516
  757SOL    HW1 3026   2.133   0.885   1.601  0.1503 -0.2202  1.2088
  757SOL    HW2 3027   2.000   0.973   1.579  1.6621  0.3158  3.2093
  757SOL     MW 3028   2.087   0.961   1.603  0.2422 -0.5697  1.4306
  758SOL     OW 3029   2.191   1.795   2.611  0.2023 -0.5245 -0.0073
  758SOL    HW1 3030   2.166   1.816   2.519  0.1883 -1.6313 -0.2512
  758SOL    HW2 3031   2.284   1.784   2.616 -1.7302  0.8906  0.4843
  758SOL     MW 3032   2.200   1.797   2.599 -0.0546 -0.4838  0.0254
  759SOL     OW 3033   1.588   1.351   2.725  0.6856  0.1969  0.1424
  759SOL    HW1 3034   1.581   1.439   2.683  1.3361 -0.6348 -0.9721
  759SOL    HW2 3035   1.629   1.359   2.806 -0.5580  0.2340 -1.8203
  759SOL     MW 3036   1.593   1.364   2.730  0.6074  0.0921 -0.2636
  760SOL     OW 3037   2.548   1.970   2.702 -0.2752  0.0686 -0.5590
  760SOL    HW1 3038   2.523   1.887   2.667  1.4881  6.3927 -0.6518
  760SOL    HW2 3039   2.580   2.017   2.621  0.2715  1.1127 -1.6654
  760SOL     MW 3040   2.549   1.965   2.687  0.0296  1.0408 -0.7172
  761SOL     OW 3041   2.106   0.424   2.472  0.9533 -0.0255 -0.3639
  761SOL    HW1 3042   2.035   0.356   2.464 -0.4961 -2.4944  1.5520
  761SOL    HW2 3043   2.123   0.440   2.565  0.2273  3.9362  0.8967
  761SOL     MW 3044   2.099   0.417   2.483  0.6662  0.1715  0.0552
  762SOL     OW 3045   3.076   0.147   1.994 -0.0326 -0.6227 -0.0567
  762SOL    HW1 3046   3.068   0.106   2.077  1.3368 -0.2688  1.0180
  762SOL    HW2 3047   3.053   0.238   2.015  1.3103  1.8026 -1.7729
  762SOL     MW 3048   3.072   0.154   2.008  0.3253 -0.2560 -0.1413
  763SOL     OW 3049   2.421   1.063   2.340  0.1489  0.4138 -0.0222
  763SOL    HW1 3050   2.442   1.035   2.245 -0.3995 -0.1732 -0.9466
  763SOL    HW2 3051   2.476   1.142   2.359 -0.5568  1.6131  0.2842
  763SOL     MW 3052   2.431   1.069   2.330 -0.0166  0.4946 -0.1037
  764SOL     OW 3053   0.426   0.230   2.777  0.8370  0.1269  0.2273
  764SOL    HW1 3054   0.331   0.208   2.765  0.9569  0.6921 -1.1980
  764SOL    HW2 3055   0.433   0.298   2.843 -2.0679 -1.0108 -0.4591
  764SOL     MW 3056   0.414   0.236   2.784  0.4696  0.0514 -0.0513
  765SOL     OW 3057   2.722   0.084   2.276  0.2206  0.3289 -0.0459
  765SOL    HW1 3058   2.657   0.058   2.205 -0.1217  0.2158  0.4653
  765SOL    HW2 3059   2.776   0.003   2.299  0.7014 -0.3083  0.4719
  765SOL     MW 3060   2.720   0.070   2.270  0.2389  0.2299  0.0898
  766SOL     OW 3061   1.866   3.039   2.173  0.1611 -0.1627  0.4931
  766SOL    HW1 3062   1.916   3.075   2.098 -1.2891 -0.4511  1.1618
  766SOL    HW2 3063   1.808   2.973   2.132 -0.8576 -0.1256  2.0957
  766SOL     MW 3064   1.865   3.035   2.158 -0.1647 -0.1959  0.7927
  767SOL     OW 3065   2.646   0.642   1.952  0.0275 -0.4402 -0.0347
  767SOL    HW1 3066   2.692   0.701   2.011  2.1823 -1.2017  1.1774
  767SOL    HW2 3067   2.552   0.634   1.975 -1.3551  0.8708 -0.1211
  767SOL     MW 3068   2.639   0.649   1.963  0.1294 -0.3677  0.1138
  768SOL     OW 3069   0.028   1.560   2.978 -0.4940  0.0337  0.3869
  768SOL    HW1 3070   0.037   1.510   3.059 -1.2585  2.9793  1.3837
  768SOL    HW2 3071   0.072   1.499   2.916  0.5612 -1.0665 -1.4762
  768SOL     MW 3072   0.035   1.545   2.981 -0.4556  0.2772  0.2726
  769SOL     OW 3073   2.351   0.697   2.281  0.3132  0.1205 -0.2442
  769SOL    HW1 3074   2.265   0.658   2.296 -1.5316  0.1555 -1.6563
  769SOL    HW2 3075   2.372   0.659   2.195 -1.2955 -0.4763  1.4708
  769SOL     MW 3076   2.342   0.687   2.272 -0.1424  0.0464 -0.2042
  770SOL     OW 3077   0.093   1.664   2.618  0.1718 -0.5913  0.4287
  770SOL    HW1 3078  -0.003   1.688   2.628 -2.1866 -2.4495 -0.6320
  770SOL    HW2 3079   0.107   1.578   2.663  2.3572 -3.6744  1.1402
  770SOL     MW 3080   0.082   1.656   2.625  0.1489 -1.2433  0.3827
  771SOL     OW 3081   3.007   0.637   1.946 -0.3243 -0.0402 -0.0667
  771SOL    HW1 3082   2.977   0.603   1.856 -1.8473  0.4917 -0.1214
  771SOL    HW2 3083   3.101   0.627   1.947  1.2521 -0.4485 -1.3727
  771SOL     MW 3084   3.016   0.631   1.934 -0.3173 -0.0239 -0.2463
  772SOL     OW 3085   3.075   0.014   2.246 -0.2648 -0.1876 -0.1845
  772SOL    HW1 3086   2.993  -0.022   2.271  3.0745  1.0037 -0.7525
  772SOL    HW2 3087   3.129  -0.063   2.249  0.0200  1.8057  2.5004
  772SOL     MW 3088   3.072  -0.001   2.250  0.2134  0.2325  0.0948
  773SOL     OW 3089   2.420   2.814   2.752  0.2395  0.2095 -0.8099
  773SOL    HW1 3090   2.421   2.727   2.702 -2.7536  1.3413 -0.2509
  773SOL    HW2 3091   2.425   2.799   2.851  0.3778 -0.2971  0.8519
  773SOL     MW 3092   2.421   2.800   2.758 -0.1372  0.2920 -0.5169
  774SOL     OW 3093   2.271   1.154   1.753  0.1037 -0.7561 -0.4077
  774SOL    HW1 3094   2.265   1.234   1.701 -1.3522 -0.7252  0.7826
  774SOL    HW2 3095   2.216   1.100   1.701 -0.5292  4.8030 -1.1375
  774SOL     MW 3096   2.263   1.157   1.739 -0.1719 -0.0185 -0.3470
  775SOL     OW 3097   2.268   2.956   2.394  0.7567 -0.2612 -0.3992
  775SOL    HW1 3098   2.269   3.027   2.333  3.5939 -2.7335  0.3376
  775SOL    HW2 3099   2.332   2.894   2.365 -2.8849 -0.8733 -1.0573
  775SOL     MW 3100   2.277   2.957   2.382  0.6505 -0.6681 -0.3888
  776SOL     OW 3101   0.071   1.427   0.167 -0.3324 -0.3991 -0.4386
  776SOL    HW1 3102   0.148   1.380   0.160 -2.5512  0.0793  0.2535
  776SOL    HW2 3103   0.011   1.357   0.149 -3.3119 -0.1758 -0.5568
  776SOL     MW 3104   0.074   1.412   0.164 -1.0182 -0.3065 -0.3629
  777SOL     OW 3105   3.004   1.104   1.701  0.3823 -0.1233  0.5572
  777SOL    HW1 3106   2.974   1.189   1.674 -1.2605  1.3081  0.5145
  777SOL    HW2 3107   2.930   1.063   1.749 -1.1392 -2.0109  1.0826
  777SOL     MW 3108   2.991   1.110   1.704 -0.0352 -0.1835  0.6209
  778SOL     OW 3109   2.914   0.439   2.748  0.2735  0.0574  0.2373
  778SOL    HW1 3110   2.830   0.466   2.790  0.2753  0.5748  0.3324
  778SOL    HW2 3111   2.930   0.504   2.678 -1.4433  1.3141 -4.3106
  778SOL     MW 3112   2.905   0.451   2.745  0.0472  0.2915 -0.3502
  779SOL     OW 3113   2.101   0.601   2.267 -0.1627  0.0888  0.6918
  779SOL    HW1 3114   2.019   0.658   2.289 -0.2405 -0.2180 -1.8964
  779SOL    HW2 3115   2.111   0.539   2.353 -2.0779  0.9586 -0.4805
  779SOL     MW 3116   2.092   0.600   2.282 -0.4256  0.1631  0.1956
  780SOL     OW 3117   0.130   0.185   2.759  0.4834  0.0564  0.1093
  780SOL    HW1 3118   0.093   0.217   2.843  2.1600  2.3498 -0.8383
  780SOL    HW2 3119   0.051   0.186   2.708 -0.2417  0.7351  1.3718
  780SOL     MW 3120   0.114   0.189   2.764  0.6089  0.4485  0.1509
  781SOL     OW 3121   3.048   1.318   2.525 -0.0712  0.3443 -0.3944
  781SOL    HW1 3122   3.038   1.356   2.439  0.4737 -0.7522 -1.5804
  781SOL    HW2 3123   3.048   1.223   2.506 -0.1888 -2.0543 -2.4296
  781SOL     MW 3124   3.047   1.311   2.511 -0.0148 -0.1168 -0.8194
  782SOL     OW 3125   0.755   1.494   3.066 -0.5201  0.4015 -0.6193
  782SOL    HW1 3126   0.687   1.569   3.067 -0.0229  2.1741  0.1577
  782SOL    HW2 3127   0.801   1.505   3.150  1.2078 -2.8221  0.3122
  782SOL     MW 3128   0.752   1.506   3.077 -0.2265  0.2101 -0.3939
  783SOL     OW 3129   2.762   0.474   2.396  0.2312  0.1212  0.3254
  783SOL    HW1 3130   2.690   0.490   2.335 -0.9317 -1.3507  1.2156
  783SOL    HW2 3131   2.710   0.440   2.470  0.0472 -0.7535 -1.7211
  783SOL     MW 3132   2.745   0.471   2.397  0.0535 -0.1884  0.1728
  784SOL     OW 3133   0.208   0.826   2.884  0.0256  0.3224  0.2138
  784SOL    HW1 3134   0.172   0.899   2.937  1.9712  1.9095 -4.3141
  784SOL    HW2 3135   0.214   0.868   2.804  1.0489 -0.7687 -0.5571
  784SOL     MW 3136   0.204   0.841   2.880  0.4173  0.3878 -0.4853
  785SOL     OW 3137   0.412   0.487   2.199  0.2892  0.0750  0.4537
  785SOL    HW1 3138   0.395   0.546   2.126 -2.9759  1.2630  0.2581
  785SOL    HW2 3139   0.350   0.413   2.176 -0.5165 -3.0813  0.6467
  785SOL     MW 3140   0.401   0.485   2.187 -0.2479 -0.1847  0.4533
  786SOL     OW 3141   1.995   0.411   2.936 -0.6470  0.4435  0.1926
  786SOL    HW1 3142   2.034   0.441   3.027 -0.7338 -0.2469  1.0131
  786SOL    HW2 3143   2.058   0.431   2.864  2.0608  1.3392 -0.8312
  786SOL     MW 3144   2.009   0.418   2.939 -0.3012  0.4706  0.1658
  787SOL     OW 3145   2.440   0.171   2.891  0.1725 -0.5593  0.2690
  787SOL    HW1 3146   2.484   0.096   2.843 -1.1575  2.4312  2.8340
  787SOL    HW2 3147   2.512   0.207   2.946  1.7065 -1.0068 -1.6316
  787SOL     MW 3148   2.455   0.166   2.892  0.1994 -0.2238  0.3567
  788SOL     OW 3149   2.859   2.990   2.380  0.4128  0.1239  0.6571
  788SOL    HW1 3150   2.863   3.001   2.472 -0.1589 -2.8402  2.7746
  788SOL    HW2 3151   2.878   2.895   2.368 -0.8968 -1.8341 -0.2590
  788SOL     MW 3152   2.862   2.979   2.391  0.1646 -0.5255  0.8156
  789SOL     OW 3153   0.043   0.282   3.008  0.7959  0.0073 -0.4214
  789SOL    HW1 3154  -0.026   0.229   3.046  1.8607  2.7146  0.1438
  789SOL    HW2 3155  -0.004   0.363   2.985 -3.2978  1.4558 -0.8162
  789SOL     MW 3156   0.028   0.286   3.010  0.3963  0.5556 -0.3989
  790SOL     OW 3157   3.066   1.054   2.464  0.2447 -0.0211 -0.1629
  790SOL    HW1 3158   3.016   0.988   2.527  2.5151 -2.2782 -0.9115
  790SOL    HW2 3159   3.024   1.028   2.376 -0.7990 -2.1649 -0.9768
  790SOL     MW 3160   3.054   1.042   2.460  0.4066 -0.6018 -0.3690
  791SOL     OW 3161   2.634   0.388   2.623  0.0057  0.0422 -0.0026
  791SOL    HW1 3162   2.563   0.436   2.666 -2.5008 -0.9556 -0.2984
  791SOL    HW2 3163   2.695   0.366   2.694 -0.6169 -1.5641 -1.7816
  791SOL     MW 3164   2.633   0.391   2.638 -0.4072 -0.3014 -0.2764
  792SOL     OW 3165   2.337   0.300   2.383  0.0128 -0.1953  0.4743
  792SOL    HW1 3166   2.256   0.349   2.394  1.5434  2.4267  1.3099
  792SOL    HW2 3167   2.350   0.256   2.470  1.9256 -1.6337  2.1438
  792SOL     MW 3168   2.328   0.301   2.396  0.4671 -0.0392  0.8048
  793SOL     OW 3169   1.824   1.020   1.976  0.6616  0.3830  0.6017
  793SOL    HW1 3170   1.815   1.065   1.895 -1.5087 -1.6741 -1.7226
  793SOL    HW2 3171   1.895   0.953   1.956  2.4985 -3.0592 -2.5976
  793SOL     MW 3172   1.832   1.017   1.963  0.6176 -0.3426 -0.1271
  794SOL     OW 3173   1.404   2.277   0.190 -0.4523 -0.1086  0.1867
  794SOL    HW1 3174   1.423   2.345   0.119  0.5742 -1.2221 -0.0229
  794SOL    HW2 3175   1.479   2.285   0.246 -1.3460  0.3958  1.9505
  794SOL     MW 3176   1.417   2.287   0.188 -0.4347 -0.1889  0.3918
  795SOL     OW 3177   2.350   0.966   2.625 -0.2122  0.1715 -0.4634
  795SOL    HW1 3178   2.322   1.042   2.677  2.0400 -0.8916 -1.6913
  795SOL    HW2 3179   2.363   1.004   2.534  1.6270  2.2493 -0.1936
  795SOL     MW 3180   2.348   0.981   2.620  0.3276  0.3054 -0.5898
  796SOL     OW 3181   0.267   0.589   2.751 -0.7221  0.4688 -0.2596
  796SOL    HW1 3182   0.235   0.663   2.800  0.7012 -1.0329  1.1627
  796SOL    HW2 3183   0.219   0.584   2.673  0.5716  1.0315  0.5575
  796SOL     MW 3184   0.256   0.598   2.747 -0.3636  0.3449  0.0359
  797SOL     OW 3185   2.582   0.110   2.503 -0.2100 -0.5266 -0.5045
  797SOL    HW1 3186   2.588   0.208   2.535  1.0382  2.3365  1.7121
  797SOL    HW2 3187   2.639   0.097   2.422 -2.8949 -1.0441  2.6781
  797SOL     MW 3188   2.590   0.122   2.496 -0.3996 -0.2172  0.2078
  798SOL     OW 3189   2.302   0.078   2.233 -0.3597 -0.0955 -0.1589
  798SOL    HW1 3190   2.334   0.151   2.293  1.7721 -0.8536 -2.2421
  798SOL    HW2 3191   2.386   0.060   2.183 -0.4161  0.2026  1.8034
  798SOL     MW 3192   2.317   0.086   2.234 -0.0859 -0.1562 -0.1749
  799SOL     OW 3193   2.493   2.965   0.056 -0.5013 -0.3559  0.5420
  799SOL    HW1 3194   2.467   2.884   0.017  0.8927 -1.3000  2.6941
  799SOL    HW2 3195   2.411   3.018   0.047 -1.0663  0.1261  0.6031
  799SOL     MW 3196   2.479   2.961   0.050 -0.3919 -0.4168  0.8340
  800SOL     OW 3197   1.887   0.026   1.745  0.0673  0.1722  0.1874
  800SOL    HW1 3198   1.835  -0.050   1.768 -1.1355  0.6797 -0.7532
  800SOL    HW2 3199   1.949   0.042   1.815 -1.3738  0.8485  2.5087
  800SOL     MW 3200   1.888   0.018   1.758 -0.2815  0.3284  0.3695
  801SOL     OW 3201   2.761   1.281   2.568  0.3644  0.1771  0.1960
  801SOL    HW1 3202   2.742   1.184   2.563 -1.0754 -2.5433 -0.1723
  801SOL    HW2 3203   2.854   1.281   2.546 -1.9063 -0.3716  0.1730
  801SOL     MW 3204   2.771   1.268   2.564 -0.1252 -0.2542  0.1443
  802SOL     OW 3205   2.608   1.552   2.767 -0.3018 -0.1988  0.0265
  802SOL    HW1 3206   2.602   1.453   2.768 -1.7543  0.5396 -1.6757
  802SOL    HW2 3207   2.689   1.569   2.816 -0.1397 -1.8138  3.6560
  802SOL     MW 3208   2.618   1.541   2.774 -0.4720 -0.3144  0.2808
  803SOL     OW 3209   2.274   1.405   2.010  0.6871  0.2282 -0.0967
  803SOL    HW1 3210   2.261   1.395   2.104  0.6367 -0.0186 -2.4401
  803SOL    HW2 3211   2.289   1.315   1.986  1.8106  2.8712 -0.2956
  803SOL     MW 3212   2.274   1.392   2.019  0.8287  0.5444 -0.4321
  804SOL     OW 3213   2.282   0.069   3.100  0.1847 -0.2726  0.4298
  804SOL    HW1 3214   2.207   0.128   3.126 -0.8273 -0.0593 -0.9349
  804SOL    HW2 3215   2.328   0.115   3.032 -1.0426  0.6739  2.5517
  804SOL     MW 3216   2.278   0.083   3.094 -0.1107 -0.1196  0.5297
  805SOL     OW 3217   2.696   1.011   2.557 -0.1629 -0.2602 -0.2992
  805SOL    HW1 3218   2.634   0.964   2.504 -1.3069 -0.8382  1.1467
  805SOL    HW2 3219   2.779   0.958   2.569 -0.6156 -0.8691 -0.4818
  805SOL     MW 3220   2.699   0.998   2.551 -0.3736 -0.4168 -0.1325
  806SOL     OW 3221   2.527   0.460   2.269 -0.0624 -0.9266  0.0243
  806SOL    HW1 3222   2.470   0.402   2.320  0.1421  0.8153  0.0203
  806SOL    HW2 3223   2.523   0.431   2.178 -0.7283  1.6450 -2.0190
  806SOL     MW 3224   2.519   0.449   2.264 -0.1233 -0.3575 -0.2458
  807SOL     OW 3225   0.083   1.139   2.077  0.2973 -0.0101  0.2147
  807SOL    HW1 3226   0.089   1.052   2.040 -0.7941 -1.4718  0.0735
  807SOL    HW2 3227   0.002   1.152   2.129  1.8694  1.9929 -1.2312
  807SOL     MW 3228   0.073   1.129   2.079  0.3607  0.0613  0.0053
  808SOL     OW 3229   2.525   3.066   2.751 -0.5886  0.1408 -0.6170
  808SOL    HW1 3230   2.475   2.984   2.738  1.5307  0.2090 -0.2381
  808SOL    HW2 3231   2.553   3.098   2.664  0.7874  1.8527  1.2150
  808SOL     MW 3232   2.522   3.060   2.738 -0.1274  0.3757 -0.3253
  809SOL     OW 3233   2.528   1.312   2.406  0.1789 -0.5655 -0.0279
  809SOL    HW1 3234   2.569   1.309   2.494  1.6245 -0.5697 -2.9039
  809SOL    HW2 3235   2.606   1.299   2.349  1.6213 -3.3112  0.8276
  809SOL     MW 3236   2.544   1.310   2.410  0.5600 -0.9283 -0.2945
  810SOL     OW 3237   2.237   1.272   2.239  0.4816 -0.5215  0.4965
  810SOL    HW1 3238   2.302   1.206   2.260  1.8011 -0.1360  0.6706
  810SOL    HW2 3239   2.154   1.220   2.229 -2.5234 -1.9657 -1.9842
  810SOL     MW 3240   2.235   1.256   2.241  0.2592 -0.6612  0.1922
  811SOL     OW 3241   1.562   0.156   2.297  0.1573 -0.2824 -0.1675
  811SOL    HW1 3242   1.632   0.090   2.339  1.5829 -3.5056 -1.2856
  811SOL    HW2 3243   1.556   0.125   2.203  0.7827  0.8477 -2.8824
  811SOL     MW 3244   1.570   0.143   2.290  0.4279 -0.5586 -0.6732
  812SOL     OW 3245   1.490   2.859   2.125 -0.3387 -0.0619 -0.0362
  812SOL    HW1 3246   1.589   2.852   2.110  2.2615 -1.7266 -1.1089
  812SOL    HW2 3247   1.481   2.831   2.219 -0.6796 -0.6149  1.4039
  812SOL     MW 3248   1.502   2.855   2.135 -0.0406 -0.3545  0.0122
  813SOL     OW 3249   1.825   0.741   2.168 -0.3742  0.2053  0.2930
  813SOL    HW1 3250   1.809   0.646   2.184  1.6334 -0.2865 -3.1756
  813SOL    HW2 3251   1.844   0.776   2.257  0.6698 -0.8222 -0.2854
  813SOL     MW 3252   1.826   0.733   2.182  0.0284  0.0048 -0.2409
  814SOL     OW 3253   2.762   1.266   1.614  0.0502 -0.3262  0.0976
  814SOL    HW1 3254   2.723   1.204   1.675 -3.4931  3.5090 -0.7169
  814SOL    HW2 3255   2.783   1.222   1.535 -1.0693  1.2850  2.3167
  814SOL     MW 3256   2.760   1.252   1.612 -0.5650  0.3924  0.2829
  815SOL     OW 3257   2.472   1.673   2.379 -0.2029  0.7253  0.4237
  815SOL    HW1 3258   2.409   1.604   2.388  1.1094 -0.2443 -1.5709
  815SOL    HW2 3259   2.566   1.630   2.384  1.6295 -2.2034  2.0982
  815SOL     MW 3260   2.476   1.658   2.381  0.2120  0.2109  0.3815
  816SOL     OW 3261   0.782   0.695   2.729  0.2592 -0.0926  0.1061
  816SOL    HW1 3262   0.788   0.629   2.801 -0.3615  0.7920  0.3666
  816SOL    HW2 3263   0.691   0.722   2.736 -1.1641  1.9652 -3.4183
  816SOL     MW 3264   0.771   0.690   2.740 -0.0105  0.2956 -0.3245
  817SOL     OW 3265   3.031   1.294   1.474  0.4284  0.1656 -0.0427
  817SOL    HW1 3266   3.114   1.247   1.466 -0.4050 -0.6769  0.5680
  817SOL    HW2 3267   3.052   1.380   1.440  1.7545  0.8610 -0.0550
  817SOL     MW 3268   3.045   1.299   1.469  0.4934  0.1462  0.0363
  818SOL     OW 3269   1.940   1.069   2.681  0.0969  0.2735  0.4030
  818SOL    HW1 3270   1.928   1.139   2.620  0.5493 -0.4894 -1.1999
  818SOL    HW2 3271   1.981   0.998   2.635 -0.9703 -0.3260  0.6940
  818SOL     MW 3272   1.944   1.069   2.667  0.0158  0.0937  0.2299
  819SOL     OW 3273   1.870   0.228   2.455 -0.1892 -0.1091 -0.4739
  819SOL    HW1 3274   1.816   0.300   2.493  0.0146 -3.3004 -0.1191
  819SOL    HW2 3275   1.921   0.199   2.527 -1.0850  3.6746  0.0541
  819SOL     MW 3276   1.870   0.234   2.469 -0.2805 -0.0309 -0.3574
  820SOL     OW 3277   2.461   1.728   2.636  0.2806 -0.1403  0.5755
  820SOL    HW1 3278   2.500   1.648   2.674  1.1194  1.8398 -3.2664
  820SOL    HW2 3279   2.458   1.700   2.541 -2.1608 -0.5262  2.4187
  820SOL     MW 3280   2.466   1.713   2.628  0.0692  0.0700  0.3118
  821SOL     OW 3281   2.589   1.354   1.974 -0.3543  0.0106  0.3265
  821SOL    HW1 3282   2.667   1.396   1.941 -2.0638 -3.1977 -0.7348
  821SOL    HW2 3283   2.533   1.415   2.016  0.4863  0.2446  1.3078
  821SOL     MW 3284   2.592   1.367   1.976 -0.4689 -0.3818  0.3159
  822SOL     OW 3285   2.787   2.590   1.494  0.3621 -0.7501 -0.4100
  822SOL    HW1 3286   2.825   2.629   1.577 -0.8305  0.2311  2.0823
  822SOL    HW2 3287   2.760   2.658   1.437  2.4286 -1.5928  1.2614
  822SOL     MW 3288   2.788   2.604   1.498  0.4774 -0.7318  0.1393
  823SOL     OW 3289   2.248   0.463   1.756  0.3509 -0.5418 -0.1210
  823SOL    HW1 3290   2.328   0.421   1.723 -2.6000 -2.2750 -1.6086
  823SOL    HW2 3291   2.180   0.399   1.732 -1.6317 -0.6572 -1.1264
  823SOL     MW 3292   2.250   0.449   1.749 -0.3001 -0.7857 -0.4499
  824SOL     OW 3293   2.077   1.354   2.599 -0.0321 -0.6331  0.2075
  824SOL    HW1 3294   2.166   1.385   2.589 -0.4604  2.2354  2.9896
  824SOL    HW2 3295   2.040   1.416   2.657 -1.8854 -5.1346  1.0485
  824SOL     MW 3296   2.084   1.366   2.605 -0.3331 -0.8486  0.6855
  825SOL     OW 3297   2.036   2.565   0.310  0.0777 -0.2017  0.5584
  825SOL    HW1 3298   1.991   2.509   0.375  0.5608 -2.0551  0.6881
  825SOL    HW2 3299   2.092   2.519   0.248 -1.4450  0.2717 -1.0793
  825SOL     MW 3300   2.038   2.551   0.311 -0.0595 -0.3838  0.3594
  826SOL     OW 3301   1.916   2.439   0.508  0.4158 -0.2702 -0.2704
  826SOL    HW1 3302   1.890   2.352   0.548  0.0071 -2.7693  0.0972
  826SOL    HW2 3303   1.875   2.505   0.561  1.3350 -1.1638  0.8708
  826SOL     MW 3304   1.907   2.436   0.520  0.4831 -0.7178 -0.0714
  827SOL     OW 3305   1.960   2.218   0.905 -0.1237  0.2210 -0.6003
  827SOL    HW1 3306   1.911   2.301   0.895  1.6046 -0.3526  2.6120
  827SOL    HW2 3307   1.899   2.146   0.939  3.2962  0.1653  1.1874
  827SOL     MW 3308   1.945   2.220   0.909  0.5556  0.1379  0.0594
  828SOL     OW 3309   0.037   2.700   0.625  0.1765  0.1174  0.4717
  828SOL    HW1 3310   0.132   2.692   0.628 -0.0490  0.8836 -0.7281
  828SOL    HW2 3311   0.026   2.688   0.529  1.0274 -0.5067  1.0207
  828SOL     MW 3312   0.048   2.697   0.613  0.2590  0.1361  0.3858
  829SOL     OW 3313   2.960   2.923   1.267  0.1371 -0.2218  0.1013
  829SOL    HW1 3314   2.897   2.927   1.194  2.6852 -1.5533 -0.9077
  829SOL    HW2 3315   3.023   2.852   1.254 -0.7965 -0.9800  0.7607
  829SOL     MW 3316   2.960   2.914   1.255  0.3501 -0.4975  0.0552
  830SOL     OW 3317   2.498   2.850   2.013 -0.3370 -0.0042 -0.4262
  830SOL    HW1 3318   2.409   2.868   1.977 -1.0471 -0.5129  2.7362
  830SOL    HW2 3319   2.560   2.835   1.941  0.0497 -0.9902  2.5109
  830SOL     MW 3320   2.494   2.850   1.999 -0.3797 -0.2014  0.3786
  831SOL     OW 3321   2.426   2.385   1.288 -0.0648  0.1070 -0.7194
  831SOL    HW1 3322   2.381   2.333   1.359 -0.8137 -1.0248 -0.2136
  831SOL    HW2 3323   2.510   2.339   1.269 -0.0748  1.7226  1.8697
  831SOL     MW 3324   2.431   2.372   1.295 -0.1649  0.1708 -0.3111
  832SOL     OW 3325   2.432   2.219   1.910  0.6864  0.2772  0.1195
  832SOL    HW1 3326   2.432   2.307   1.964  0.9120  2.0039 -0.8091
  832SOL    HW2 3327   2.523   2.183   1.918 -0.5127 -0.7627  0.2953
  832SOL     MW 3328   2.444   2.226   1.918  0.5579  0.3678  0.0202
  833SOL     OW 3329   1.784   2.421   0.882 -0.4402 -0.1513  0.0611
  833SOL    HW1 3330   1.691   2.395   0.888 -2.0047 -0.8252 -0.5503
  833SOL    HW2 3331   1.787   2.491   0.958  2.7411  3.2994  3.0088
  833SOL     MW 3332   1.772   2.427   0.893 -0.2268  0.2151  0.3694
  834SOL     OW 3333   2.231   2.487   0.558 -0.2696 -0.0548 -0.1702
  834SOL    HW1 3334   2.234   2.418   0.619 -0.1344  1.4250 -0.7442
  834SOL    HW2 3335   2.265   2.438   0.480  0.5065 -2.6889 -3.1020
  834SOL     MW 3336   2.236   2.472   0.556 -0.1494 -0.2071 -0.6328
  835SOL     OW 3337   1.765   2.614   0.685 -0.0741  0.0770  0.5046
  835SOL    HW1 3338   1.765   2.547   0.746  0.1207 -0.4689  0.5903
  835SOL    HW2 3339   1.849   2.655   0.723  3.0920 -0.1921 -1.9385
  835SOL     MW 3340   1.776   2.611   0.698  0.3694 -0.0306  0.1935
  836SOL     OW 3341   1.980   2.138   1.621 -0.0104 -0.6059  0.0025
  836SOL    HW1 3342   2.057   2.168   1.670  0.8347 -0.7073  0.9720
  836SOL    HW2 3343   1.940   2.223   1.602 -0.5837 -0.3873  0.2164
  836SOL     MW 3344   1.985   2.153   1.625  0.0255 -0.5904  0.1586
  837SOL     OW 3345   2.108   0.187   0.713 -0.7179  0.1782 -0.6420
  837SOL    HW1 3346   2.021   0.226   0.691 -1.5446  0.9580  2.2569
  837SOL    HW2 3347   2.143   0.139   0.639  2.0095  0.0483  1.1954
  837SOL     MW 3348   2.101   0.185   0.700 -0.4671  0.2640 -0.0171
  838SOL     OW 3349   2.952   2.095   0.893 -0.0112 -0.9113  0.2130
  838SOL    HW1 3350   2.888   2.060   0.956 -0.5143  2.5666 -1.2607
  838SOL    HW2 3351   2.967   2.024   0.831 -1.4114 -1.4413 -1.7739
  838SOL     MW 3352   2.945   2.081   0.893 -0.2623 -0.5224 -0.2436
  839SOL     OW 3353   1.527   2.358   0.916 -0.1848 -0.3818 -0.2179
  839SOL    HW1 3354   1.508   2.450   0.929 -3.1870 -1.0261 -0.1537
  839SOL    HW2 3355   1.541   2.326   1.007 -1.2219  1.3398  1.3323
  839SOL     MW 3356   1.526   2.366   0.930 -0.7178 -0.2396 -0.0049
  840SOL     OW 3357   2.312   2.107   2.414  0.4804 -0.3181  0.1697
  840SOL    HW1 3358   2.283   2.177   2.350 -0.8006 -0.3047  0.9058
  840SOL    HW2 3359   2.394   2.137   2.446 -2.6913 -0.5896  0.5663
  840SOL     MW 3360   2.319   2.120   2.410 -0.1071 -0.3521  0.3191
  841SOL     OW 3361   2.201   2.414   0.129  0.6493 -0.0722 -0.4163
  841SOL    HW1 3362   2.236   2.418   0.036 -3.1741  0.0334 -1.3560
  841SOL    HW2 3363   2.136   2.347   0.115  1.3178 -2.9708  1.7984
  841SOL     MW 3364   2.197   2.405   0.115  0.2330 -0.4407 -0.2481
  842SOL     OW 3365   2.665   2.004   1.579 -0.3254 -0.1341 -0.1902
  842SOL    HW1 3366   2.621   1.917   1.596 -2.5844  3.1250 -0.5493
  842SOL    HW2 3367   2.617   2.041   1.512  3.5847 -2.4994  0.1642
  842SOL     MW 3368   2.653   1.997   1.572 -0.1076 -0.0162 -0.1908
  843SOL     OW 3369   2.661   2.829   1.810  0.2071  0.5286 -0.3354
  843SOL    HW1 3370   2.725   2.757   1.812 -0.5856  2.1805 -2.1348
  843SOL    HW2 3371   2.591   2.790   1.764  0.1422  0.8666  1.1319
  843SOL     MW 3372   2.660   2.814   1.804  0.0940  0.7911 -0.3792
  844SOL     OW 3373   2.664   2.285   1.214  0.3867  0.7415 -0.0240
  844SOL    HW1 3374   2.683   2.342   1.138  1.5842  0.1580  0.3033
  844SOL    HW2 3375   2.718   2.299   1.285 -1.2265  0.4701 -2.6910
  844SOL     MW 3376   2.673   2.295   1.213  0.3318  0.6287 -0.3327
  845SOL     OW 3377   2.850   2.462   0.277 -0.5064 -0.1772 -0.4618
  845SOL    HW1 3378   2.806   2.376   0.291 -1.2874  0.7475  1.1559
  845SOL    HW2 3379   2.861   2.476   0.372 -0.7546  1.9317 -0.5321
  845SOL     MW 3380   2.846   2.452   0.291 -0.6422  0.2230 -0.2577
  846SOL     OW 3381   1.508   2.850   0.802  0.1098  0.0669  0.6498
  846SOL    HW1 3382   1.585   2.888   0.847 -0.1386  0.2193  1.7976
  846SOL    HW2 3383   1.434   2.907   0.817  1.3832 -0.9867  0.0521
  846SOL     MW 3384   1.508   2.862   0.810  0.2451 -0.0520  0.7223
  847SOL     OW 3385   2.505   1.935   0.172  0.3597 -0.0546  0.0991
  847SOL    HW1 3386   2.561   1.867   0.217  0.5065 -1.4224  2.3942
  847SOL    HW2 3387   2.462   1.894   0.101  0.9080  1.5020  4.2562
  847SOL     MW 3388   2.506   1.921   0.169  0.4514 -0.0297  0.9504
  848SOL     OW 3389   2.520   2.066   1.343  0.1659  0.7181 -0.2053
  848SOL    HW1 3390   2.555   2.110   1.263  0.8504 -2.3653  0.8337
  848SOL    HW2 3391   2.486   1.981   1.323 -0.0901  0.8493  0.9187
  848SOL     MW 3392   2.520   2.061   1.330  0.2224  0.3286  0.0801
  849SOL     OW 3393   1.987   2.734   0.755  0.2679  0.5145  0.3173
  849SOL    HW1 3394   2.020   2.677   0.823  2.6585  0.9978 -1.6183
  849SOL    HW2 3395   2.053   2.738   0.687 -1.5247 -0.6750  1.0949
  849SOL     MW 3396   2.000   2.727   0.755  0.3468  0.4213  0.1645
  850SOL     OW 3397   2.276   1.923   1.721  0.8924  0.2049  0.4924
  850SOL    HW1 3398   2.212   1.891   1.649 -1.2101 -0.9990 -0.7339
  850SOL    HW2 3399   2.243   2.009   1.749  1.3192 -0.5274  2.1260
  850SOL     MW 3400   2.263   1.930   1.715  0.6713 -0.0506  0.5461
  851SOL     OW 3401   2.349   2.374   0.352  0.7417 -0.0373 -0.5726
  851SOL    HW1 3402   2.305   2.382   0.267 -0.0822  0.6300 -0.0350
  851SOL    HW2 3403   2.419   2.442   0.345 -2.9558  1.9465 -0.4971
  851SOL     MW 3404   2.352   2.384   0.340  0.1452  0.3125 -0.4917
  852SOL     OW 3405   2.336   2.104   0.298 -0.1003 -0.2287  0.5001
  852SOL    HW1 3406   2.373   2.187   0.327  0.0541 -0.2092 -0.2696
  852SOL    HW2 3407   2.419   2.057   0.274  1.6111  1.8141  1.7314
  852SOL     MW 3408   2.352   2.109   0.299  0.1459  0.0434  0.5610
  853SOL     OW 3409   2.479   2.484   1.977 -0.7093  0.6254  0.0213
  853SOL    HW1 3410   2.493   2.535   1.901  0.1015 -0.1181  2.0247
  853SOL    HW2 3411   2.569   2.477   2.010 -2.1488 -0.7011 -0.8045
  853SOL     MW 3412   2.493   2.490   1.972 -0.7922  0.3523  0.1767
  854SOL     OW 3413   2.847   2.321   0.791  0.7855 -0.4529  0.3606
  854SOL    HW1 3414   2.771   2.289   0.743 -2.1399  0.7914  1.1948
  854SOL    HW2 3415   2.892   2.244   0.834  1.4798  1.5190  1.2575
  854SOL     MW 3416   2.843   2.307   0.791  0.4911 -0.0285  0.5890
  855SOL     OW 3417   2.666   2.257   0.370  0.1366  0.5168 -0.0895
  855SOL    HW1 3418   2.638   2.300   0.445  0.4570  0.5876 -1.3770
  855SOL    HW2 3419   2.728   2.194   0.396 -1.9149  0.5691 -0.6707
  855SOL     MW 3420   2.671   2.254   0.383 -0.0918  0.5330 -0.3361
  856SOL     OW 3421   2.133   1.892   0.170 -0.3293 -0.5053 -0.1607
  856SOL    HW1 3422   2.051   1.887   0.214  2.1933  0.4478 -0.0680
  856SOL    HW2 3423   2.182   1.973   0.192 -0.2442  0.8189 -1.2602
  856SOL     MW 3424   2.129   1.902   0.178  0.0148 -0.2049 -0.2936
  857SOL     OW 3425   2.495   1.989   0.520 -0.1461 -0.5697  0.1287
  857SOL    HW1 3426   2.461   2.040   0.451 -0.1210  2.2212 -4.2710
  857SOL    HW2 3427   2.430   1.916   0.519 -0.9984  1.2759  0.4293
  857SOL     MW 3428   2.482   1.986   0.510 -0.2552  0.0420 -0.4121
  858SOL     OW 3429   2.885   2.633   1.755 -0.3402  0.1283  0.2737
  858SOL    HW1 3430   2.978   2.651   1.773  0.7435  0.4821  1.2347
  858SOL    HW2 3431   2.870   2.543   1.789  0.4863  0.7734  0.2516
  858SOL     MW 3432   2.895   2.624   1.762 -0.0881  0.2601  0.3976
  859SOL     OW 3433   2.090   2.589   0.955  0.3284  0.1422 -0.2115
  859SOL    HW1 3434   2.083   2.521   1.023 -0.4918 -2.0305 -0.3838
  859SOL    HW2 3435   2.148   2.543   0.892  1.3843 -0.3128 -1.7629
  859SOL     MW 3436   2.097   2.574   0.956  0.3595 -0.2045 -0.4389
  860SOL     OW 3437   2.674   2.588   0.117  0.0792 -0.1750  0.0093
  860SOL    HW1 3438   2.733   2.565   0.190  0.7931  0.2429 -2.9060
  860SOL    HW2 3439   2.726   2.669   0.096  1.0191  0.4401 -1.8088
  860SOL     MW 3440   2.689   2.596   0.124  0.2974 -0.0387 -0.6152
  861SOL     OW 3441   1.606   2.133   1.127 -0.5021  0.3121 -0.1654
  861SOL    HW1 3442   1.626   2.212   1.174 -0.6580 -1.3879  1.6866
  861SOL    HW2 3443   1.546   2.093   1.189  0.3490 -2.1899 -0.4364
  861SOL     MW 3444   1.601   2.138   1.141 -0.4104 -0.2423  0.0432
  862SOL     OW 3445   2.463   1.790   1.575 -0.1164 -0.0046  0.2569
  862SOL    HW1 3446   2.413   1.817   1.650  0.1420 -1.5407 -0.5652
  862SOL    HW2 3447   2.421   1.841   1.507  1.6977 -1.1732 -1.2189
  862SOL     MW 3448   2.451   1.800   1.576  0.1571 -0.3615 -0.0463
  863SOL     OW 3449   3.022   1.815   1.024  0.1523 -0.2003 -0.3001
  863SOL    HW1 3450   3.089   1.794   1.094 -1.8436 -1.7175 -1.3990
  863SOL    HW2 3451   2.971   1.890   1.057  2.5129  1.0941 -3.1944
  863SOL     MW 3452   3.024   1.822   1.038  0.2004 -0.2297 -0.8270
  864SOL     OW 3453   3.055   1.847   0.764  0.0305  0.2769  0.0953
  864SOL    HW1 3454   3.033   1.825   0.860  0.4205 -0.0499  0.3685
  864SOL    HW2 3455   3.016   1.780   0.699 -2.5295 -2.4321 -1.8684
  864SOL     MW 3456   3.047   1.835   0.768 -0.2558 -0.1236 -0.1277
  865SOL     OW 3457   2.535   2.196   0.007 -0.7869  0.1561 -0.2287
  865SOL    HW1 3458   2.539   2.127   0.069 -3.9725 -0.1589 -1.9472
  865SOL    HW2 3459   2.481   2.162  -0.063 -0.9644  3.1514  0.1267
  865SOL     MW 3460   2.528   2.182   0.006 -1.2307  0.5098 -0.4085
  866SOL     OW 3461   2.668   2.379   1.682 -0.2641  0.0182  0.1347
  866SOL    HW1 3462   2.624   2.298   1.706 -2.0196  1.6922  2.9502
  866SOL    HW2 3463   2.714   2.363   1.597  2.2308 -2.7577 -0.8469
  866SOL     MW 3464   2.668   2.366   1.674 -0.1666 -0.1272  0.3766
  867SOL     OW 3465   0.034   2.747   1.817 -0.3230  0.1390  0.0298
  867SOL    HW1 3466   0.029   2.763   1.918  0.3576  1.6268 -2.1699
  867SOL    HW2 3467   0.000   2.828   1.774  1.9377 -1.2522 -0.2751
  867SOL     MW 3468   0.029   2.759   1.825  0.0650  0.1517 -0.3007
  868SOL     OW 3469   2.823   2.602   0.533  0.2715  0.0894  0.3698
  868SOL    HW1 3470   2.742   2.554   0.548  0.5533 -1.1990  0.2502
  868SOL    HW2 3471   2.801   2.670   0.469 -0.0849  0.1866  0.2193
  868SOL     MW 3472   2.809   2.605   0.526  0.2616 -0.0678  0.3342
  869SOL     OW 3473   2.070   2.332   1.113 -0.6200 -0.2739 -0.4336
  869SOL    HW1 3474   2.161   2.331   1.086 -2.1333 -1.4502 -1.1342
  869SOL    HW2 3475   2.012   2.278   1.057 -0.7452 -0.4838  0.6808
  869SOL     MW 3476   2.074   2.325   1.102 -0.8362 -0.4568 -0.3790
  870SOL     OW 3477   2.157   0.038   0.462 -0.4157  0.3446 -0.1924
  870SOL    HW1 3478   2.221   0.098   0.416 -1.8927 -0.4266  2.8050
  870SOL    HW2 3479   2.170  -0.049   0.419 -0.8113 -0.4271  0.2628
  870SOL     MW 3480   2.167   0.034   0.450 -0.6627  0.1411  0.2631
  871SOL     OW 3481   2.513   2.087   0.963  0.0757 -0.0166  0.3795
  871SOL    HW1 3482   2.473   2.042   0.890 -0.2546  0.2918 -2.0853
  871SOL    HW2 3483   2.444   2.147   0.990  0.0103  0.3347  1.3023
  871SOL     MW 3484   2.498   2.089   0.957  0.0235  0.0704  0.1761
  872SOL     OW 3485   2.003   2.541   1.542  0.4116  0.0030  0.1380
  872SOL    HW1 3486   1.949   2.557   1.622  0.9160  0.7789  2.1971
  872SOL    HW2 3487   1.964   2.466   1.498 -0.2166  3.2216 -1.5594
  872SOL     MW 3488   1.991   2.533   1.547  0.3953  0.5300  0.1857
  873SOL     OW 3489   2.921   2.018   1.948 -0.4060 -0.5118  0.5087
  873SOL    HW1 3490   2.920   2.095   2.008  1.8282  0.9283 -0.1385
  873SOL    HW2 3491   3.018   2.012   1.924  0.9685  1.3393  1.4779
  873SOL     MW 3492   2.934   2.028   1.953  0.0701 -0.0776  0.5512
  874SOL     OW 3493   2.301   1.440   2.455  0.3379 -0.2553  0.2953
  874SOL    HW1 3494   2.249   1.396   2.378 -1.0539 -3.4456  0.0484
  874SOL    HW2 3495   2.373   1.377   2.450 -3.6645 -3.9926  2.0863
  874SOL     MW 3496   2.303   1.426   2.444 -0.3738 -1.1693  0.4990
  875SOL     OW 3497   2.334   2.300   1.052  0.4183 -0.6577  0.1529
  875SOL    HW1 3498   2.381   2.350   0.987  1.2012 -1.7303  0.5653
  875SOL    HW2 3499   2.372   2.321   1.139  0.1125 -0.6889  1.4611
  875SOL     MW 3500   2.345   2.309   1.055  0.4813 -0.8034  0.3799
  876SOL     OW 3501   3.042   2.271   1.288 -0.1054  0.3186 -0.0481
  876SOL    HW1 3502   3.094   2.292   1.210  0.7933 -0.7501 -1.9716
  876SOL    HW2 3503   3.096   2.290   1.364 -0.3925 -0.7736 -0.3344
  876SOL     MW 3504   3.056   2.277   1.288 -0.0247  0.0335 -0.3397
  877SOL     OW 3505   3.066   2.723   0.340  0.9251  0.8628 -0.5792
  877SOL    HW1 3506   3.130   2.797   0.335  2.5304 -1.5827 -1.3084
  877SOL    HW2 3507   3.066   2.691   0.251 -0.5038 -0.2402  1.1512
  877SOL     MW 3508   3.075   2.729   0.327  0.9484  0.3946 -0.4471
  878SOL     OW 3509   2.367   1.824   1.300  0.0479  0.0919  0.3948
  878SOL    HW1 3510   2.296   1.753   1.301 -0.4671 -2.0085  0.0117
  878SOL    HW2 3511   2.444   1.766   1.270 -1.4002 -5.6240 -0.4596
  878SOL     MW 3512   2.368   1.807   1.296 -0.2111 -0.9394  0.2315
  879SOL     OW 3513   2.688   2.435   0.973  0.3791  0.0622 -0.1446
  879SOL    HW1 3514   2.737   2.517   0.989  0.0730 -0.6852 -0.5469
  879SOL    HW2 3515   2.751   2.393   0.919  0.0874  0.9759 -2.8352
  879SOL     MW 3516   2.703   2.441   0.968  0.3002  0.0841 -0.5527
  880SOL     OW 3517   2.629   2.173   0.707 -0.2823  0.0375  0.6199
  880SOL    HW1 3518   2.571   2.169   0.778 -0.8550 -2.2472 -2.9447
  880SOL    HW2 3519   2.600   2.120   0.634  0.2128 -3.4720  1.2118
  880SOL     MW 3520   2.618   2.166   0.707 -0.2925 -0.7270  0.2277
  881SOL     OW 3521   2.907   2.729   0.768 -0.1473 -0.0770 -0.1663
  881SOL    HW1 3522   2.868   2.692   0.682 -0.9368 -0.7753 -1.9537
  881SOL    HW2 3523   3.005   2.735   0.754  1.2974  2.6013  0.9939
  881SOL     MW 3524   2.915   2.725   0.755 -0.0608  0.1842 -0.2491
  882SOL     OW 3525   2.243   2.895   1.951 -0.0565  0.3324 -0.0601
  882SOL    HW1 3526   2.228   2.872   1.856 -0.0921  0.5359  3.5175
  882SOL    HW2 3527   2.174   2.839   1.986 -0.0440 -3.3926  0.0470
  882SOL     MW 3528   2.232   2.885   1.943 -0.0596 -0.1322  0.4261
  883SOL     OW 3529   2.308   2.193   1.447  0.2961  0.2604 -0.2186
  883SOL    HW1 3530   2.388   2.145   1.420 -0.0167  0.1983  2.8812
  883SOL    HW2 3531   2.232   2.167   1.392  0.2056  1.3707 -1.0398
  883SOL     MW 3532   2.308   2.184   1.436  0.2429  0.3987  0.0820
  884SOL     OW 3533   1.953   1.772   1.050 -0.1424 -0.7496  0.2549
  884SOL    HW1 3534   1.888   1.836   1.031  1.9292 -2.2940  0.2739
  884SOL    HW2 3535   2.041   1.818   1.027 -0.1628  0.7765 -2.2927
  884SOL     MW 3536   1.956   1.787   1.045  0.1282 -0.7520 -0.0787
  885SOL     OW 3537   2.901   2.385   1.850  0.1706 -0.1453 -0.1871
  885SOL    HW1 3538   2.979   2.332   1.844 -3.1092 -2.0493 -0.9087
  885SOL    HW2 3539   2.834   2.342   1.801 -0.4771  1.9899  2.8193
  885SOL     MW 3540   2.903   2.372   1.843 -0.3476 -0.1148  0.1143
  886SOL     OW 3541   2.834   2.331   1.440  0.2685  0.0745  0.1697
  886SOL    HW1 3542   2.910   2.297   1.388 -1.2995 -0.7200  1.4783
  886SOL    HW2 3543   2.844   2.428   1.452 -0.2863  0.4312 -1.8676
  886SOL     MW 3544   2.845   2.340   1.435 -0.0116  0.0167  0.0736
  887SOL     OW 3545   2.272   2.620   1.539  0.3367 -0.3246  0.5185
  887SOL    HW1 3546   2.300   2.656   1.454  1.9167  1.1727  0.1590
  887SOL    HW2 3547   2.183   2.583   1.522  0.4212 -0.1698  1.0458
  887SOL     MW 3548   2.264   2.620   1.526  0.5563 -0.1066  0.5406
  888SOL     OW 3549   1.876   2.057   1.373 -0.5659  0.0975  0.2223
  888SOL    HW1 3550   1.966   2.049   1.337 -1.5153 -3.2336  0.9378
  888SOL    HW2 3551   1.894   2.054   1.467 -2.4719  1.3034  1.8733
  888SOL     MW 3552   1.891   2.055   1.381 -0.9426 -0.1829  0.5345
  889SOL     OW 3553   2.303   2.043   2.069 -0.1395  0.3883 -0.2341
  889SOL    HW1 3554   2.376   1.994   2.099 -1.3943  1.5151 -0.1665
  889SOL    HW2 3555   2.341   2.105   2.007 -1.5390 -0.0986 -2.3469
  889SOL     MW 3556   2.317   2.045   2.065 -0.4897  0.4727 -0.5040
  890SOL     OW 3557   0.071   2.354   0.114  0.0220  0.6413  0.1820
  890SOL    HW1 3558   0.019   2.435   0.108  0.2397  1.4066 -1.5924
  890SOL    HW2 3559   0.072   2.319   0.205 -1.3527  0.8053  0.1116
  890SOL     MW 3560   0.064   2.360   0.126 -0.1306  0.7639 -0.0614
  891SOL     OW 3561   3.030   1.988   1.277 -0.0381  0.4616  0.2343
  891SOL    HW1 3562   3.117   1.977   1.321 -0.5509 -0.3813 -2.5818
  891SOL    HW2 3563   3.022   2.085   1.295  1.0532 -1.0103  0.2389
  891SOL     MW 3564   3.041   1.999   1.285  0.0382  0.1562 -0.1366
  892SOL     OW 3565   2.430   2.324   2.740  0.3195  0.1172 -0.0246
  892SOL    HW1 3566   2.392   2.237   2.762 -1.6688  1.3535 -0.3437
  892SOL    HW2 3567   2.517   2.339   2.793 -1.0167 -1.6735  2.7706
  892SOL     MW 3568   2.436   2.315   2.750 -0.1192  0.0441  0.3021
  893SOL     OW 3569   1.623   2.364   1.246 -0.2109  0.0781 -0.8061
  893SOL    HW1 3570   1.569   2.432   1.285  0.7772  2.4599  2.7425
  893SOL    HW2 3571   1.701   2.365   1.303 -1.3549 -0.5360 -0.1635
  893SOL     MW 3572   1.626   2.373   1.259 -0.2315  0.3113 -0.2531
  894SOL     OW 3573   2.782   1.880   0.471 -0.5903  0.8389 -0.8507
  894SOL    HW1 3574   2.682   1.875   0.490 -0.9498 -0.0314  1.6143
  894SOL    HW2 3575   2.800   1.843   0.376 -1.1299  2.3898 -2.0112
  894SOL     MW 3576   2.771   1.874   0.461 -0.7089  0.9287 -0.6786
  895SOL     OW 3577   2.118   2.095   1.250  0.4623 -0.7915 -1.0885
  895SOL    HW1 3578   2.109   2.172   1.187 -1.5602  1.2888 -1.9461
  895SOL    HW2 3579   2.151   2.025   1.191 -1.1726  0.0581  1.3671
  895SOL     MW 3580   2.121   2.096   1.234 -0.0202 -0.4049 -0.8777
  896SOL     OW 3581   2.230   2.782   1.072  0.7518  0.3392  0.3253
  896SOL    HW1 3582   2.293   2.730   1.123 -2.6887 -0.1636  0.3368
  896SOL    HW2 3583   2.185   2.709   1.026 -2.6721 -2.5563 -2.6836
  896SOL     MW 3584   2.232   2.765   1.073 -0.1539 -0.1092 -0.0702
  897SOL     OW 3585   2.985   2.932   0.072  0.5327  0.7150 -0.5293
  897SOL    HW1 3586   3.043   2.885   0.022 -0.5472  0.2266 -3.1194
  897SOL    HW2 3587   2.899   2.907   0.040  0.5412 -1.7130  1.0307
  897SOL     MW 3588   2.982   2.922   0.062  0.3913  0.3302 -0.6652
  898SOL     OW 3589   2.084   0.207   1.427  0.2116  0.4781  0.3858
  898SOL    HW1 3590   2.087   0.118   1.469  1.0866 -0.2964  0.6295
  898SOL    HW2 3591   2.116   0.196   1.334  0.2887  0.7261 -0.9325
  898SOL     MW 3592   2.089   0.194   1.421  0.3372  0.4086  0.2440
  899SOL     OW 3593   2.914   2.984   0.640 -0.5183  0.3459  0.3262
  899SOL    HW1 3594   2.910   2.907   0.702  2.9287 -1.8977 -1.0371
  899SOL    HW2 3595   2.826   3.030   0.635 -0.8694  0.1099 -0.4271
  899SOL     MW 3596   2.902   2.980   0.648 -0.1099  0.0187  0.0469
  900SOL     OW 3597   0.107   2.397   1.105 -0.0856 -0.1575  0.6450
  900SOL    HW1 3598   0.071   2.474   1.056  0.3465  1.2137 -0.9674
  900SOL    HW2 3599   0.098   2.327   1.039  0.7068  1.7039 -0.6642
  900SOL     MW 3600   0.101   2.398   1.090  0.0760  0.2690  0.2595
  901SOL     OW 3601   1.748   2.858   1.767  0.0877 -1.2326  0.2203
  901SOL    HW1 3602   1.824   2.794   1.783 -0.4552  1.2731  2.8962
  901SOL    HW2 3603   1.696   2.817   1.697  1.9119 -1.7424 -0.7750
  901SOL     MW 3604   1.751   2.844   1.760  0.2568 -0.9693  0.4421
  902SOL     OW 3605   2.690   2.109   1.829  0.0144  0.3108  0.2369
  902SOL    HW1 3606   2.680   2.062   1.750 -1.0127  1.6697  0.9565
  902SOL    HW2 3607   2.770   2.079   1.871  1.5198  1.3074  0.1466
  902SOL     MW 3608   2.700   2.099   1.824  0.0775  0.6216  0.3199
  903SOL     OW 3609   1.595   2.775   0.553  0.5325 -0.6636  0.2136
  903SOL    HW1 3610   1.652   2.711   0.607  0.9136 -2.6142  0.2747
  903SOL    HW2 3611   1.562   2.820   0.631  0.6218 -1.4318 -1.2480
  903SOL     MW 3612   1.598   2.772   0.570  0.5946 -1.0223  0.0288
  904SOL     OW 3613   2.478   2.635   1.719  0.4156  0.4017 -0.2977
  904SOL    HW1 3614   2.397   2.648   1.675  0.6602  3.0927 -1.9991
  904SOL    HW2 3615   2.521   2.562   1.672 -0.2949  1.1463  2.4359
  904SOL     MW 3616   2.473   2.627   1.707  0.3541  0.8550 -0.1615
  905SOL     OW 3617   2.303   2.562   2.175 -0.1334 -0.3311 -0.4980
  905SOL    HW1 3618   2.369   2.526   2.113 -1.0482 -2.2344  0.9888
  905SOL    HW2 3619   2.267   2.479   2.215  1.6749 -0.5550  2.0587
  905SOL     MW 3620   2.307   2.546   2.172 -0.0155 -0.6118  0.0355
  906SOL     OW 3621   2.453   2.496   0.885  0.4388 -0.3188 -0.3787
  906SOL    HW1 3622   2.547   2.481   0.892 -2.0217  0.9198 -0.0192
  906SOL    HW2 3623   2.441   2.600   0.874 -1.4083  0.3176  1.4248
  906SOL     MW 3624   2.464   2.507   0.884 -0.1296 -0.0714 -0.0934
  907SOL     OW 3625   2.637   2.783   1.331 -0.5034 -0.1009  0.3137
  907SOL    HW1 3626   2.647   2.852   1.394  0.8486  0.8862 -0.6047
  907SOL    HW2 3627   2.662   2.828   1.247  2.9899 -0.8401 -0.7665
  907SOL     MW 3628   2.641   2.798   1.328  0.1359 -0.0682  0.0500
  908SOL     OW 3629   2.744   2.361  -0.001  0.2769 -0.3391 -0.1841
  908SOL    HW1 3630   2.666   2.311  -0.003  0.8478  2.9775 -0.3583
  908SOL    HW2 3631   2.709   2.445   0.030  0.0605 -1.5567  2.9350
  908SOL     MW 3632   2.729   2.365   0.003  0.3237 -0.0622  0.2044
  909SOL     OW 3633   1.702   0.116   1.145  0.1727 -0.2887  0.5549
  909SOL    HW1 3634   1.716   0.185   1.080  3.0799  1.5765  0.5310
  909SOL    HW2 3635   1.739   0.155   1.225 -2.3650 -0.6255 -1.4188
  909SOL     MW 3636   1.709   0.130   1.147  0.2214 -0.0870  0.2914
  910SOL     OW 3637   2.343   1.762   0.468 -0.4539 -0.1646 -0.1241
  910SOL    HW1 3638   2.299   1.678   0.460 -1.0006 -0.5867  0.7307
  910SOL    HW2 3639   2.301   1.813   0.397 -2.0359  0.3080  0.9819
  910SOL     MW 3640   2.332   1.758   0.458 -0.7348 -0.1579  0.1346
  911SOL     OW 3641   2.228   2.213   1.726 -0.2389 -0.7252 -0.3273
  911SOL    HW1 3642   2.300   2.200   1.788 -0.4179  0.1213  0.7208
  911SOL    HW2 3643   2.271   2.201   1.640  1.5278  1.2574  0.0604
  911SOL     MW 3644   2.244   2.210   1.723 -0.0294 -0.3519 -0.1379
  912SOL     OW 3645   2.937   1.930   1.540  0.4071 -0.1851  0.3857
  912SOL    HW1 3646   2.959   1.960   1.456 -0.8520 -0.0766 -0.6774
  912SOL    HW2 3647   2.851   1.967   1.562 -0.2304  0.6826 -0.0074
  912SOL     MW 3648   2.929   1.938   1.532  0.1568 -0.0563  0.1936
  913SOL     OW 3649   2.627   3.043   0.364  0.3056  0.1061  0.1868
  913SOL    HW1 3650   2.693   2.977   0.376 -2.4382 -0.1242 -1.4544
  913SOL    HW2 3651   2.556   2.981   0.339 -1.3739 -1.8935 -0.8443
  913SOL     MW 3652   2.626   3.026   0.362 -0.2780 -0.1881 -0.1658
  914SOL     OW 3653   2.694   1.757   3.069  0.3788  0.1576  0.6585
  914SOL    HW1 3654   2.725   1.826   3.002  1.9492  0.5145 -0.6572
  914SOL    HW2 3655   2.611   1.776   3.097  1.7419 -2.2743  0.9433
  914SOL     MW 3656   2.687   1.769   3.063  0.7658 -0.1162  0.5225
  915SOL     OW 3657   1.676   0.238   0.237 -0.5397  0.0269  0.0317
  915SOL    HW1 3658   1.723   0.180   0.295 -1.4497 -0.5719  1.2366
  915SOL    HW2 3659   1.589   0.194   0.225  0.7203  1.1644  3.9996
  915SOL     MW 3660   1.671   0.224   0.243 -0.4935  0.0979  0.7142
  916SOL     OW 3661   1.815   2.098   1.910  0.1262  0.1854 -0.5621
  916SOL    HW1 3662   1.843   2.191   1.917  1.4891 -1.2299 -1.1408
  916SOL    HW2 3663   1.842   2.069   1.824 -0.1443 -1.9538  0.6405
  916SOL     MW 3664   1.823   2.106   1.900  0.2703 -0.2836 -0.4798
  917SOL     OW 3665   2.558   2.192   2.521 -0.1797 -0.1414 -0.4519
  917SOL    HW1 3666   2.511   2.241   2.586  1.2682 -2.7414  0.9790
  917SOL    HW2 3667   2.617   2.252   2.479 -0.4872  2.0959 -0.1733
  917SOL     MW 3668   2.560   2.206   2.524 -0.0292 -0.1892 -0.2264
  918SOL     OW 3669   2.001   1.599   2.708 -0.1034  0.0918 -0.4080
  918SOL    HW1 3670   1.925   1.617   2.650  1.4583  2.1981  0.3719
  918SOL    HW2 3671   2.079   1.647   2.679 -0.8892  0.2432  2.1047
  918SOL     MW 3672   2.001   1.608   2.697 -0.0010  0.3897  0.0264
  919SOL     OW 3673   3.094   2.316   2.271 -0.2088  0.5156  0.3844
  919SOL    HW1 3674   3.040   2.237   2.254  1.3544 -0.9106  0.8252
  919SOL    HW2 3675   3.143   2.343   2.194 -0.1829  1.7701 -0.9966
  919SOL     MW 3676   3.093   2.310   2.259  0.0009  0.4929  0.2604
  920SOL     OW 3677   2.746   2.862   3.084 -0.2183  0.3209  0.6196
  920SOL    HW1 3678   2.669   2.900   3.123 -2.3023  0.9323 -2.0821
  920SOL    HW2 3679   2.709   2.807   3.012  2.4903 -1.0812 -0.9301
  920SOL     MW 3680   2.731   2.859   3.079 -0.1359  0.2165  0.0587
  921SOL     OW 3681   2.449   2.580   2.624  0.2066  0.2352  0.0769
  921SOL    HW1 3682   2.543   2.605   2.609  2.8990  3.3182 -0.7405
  921SOL    HW2 3683   2.448   2.508   2.696 -1.5345 -0.9445  1.4773
  921SOL     MW 3684   2.461   2.574   2.632  0.3321  0.4863  0.1538
  922SOL     OW 3685   2.044   2.860   0.307 -0.1487  0.4022 -0.4059
  922SOL    HW1 3686   2.043   2.851   0.212  2.9434 -1.3820  1.0088
  922SOL    HW2 3687   2.056   2.770   0.340  2.9432  3.7148 -0.4401
  922SOL     MW 3688   2.046   2.847   0.299  0.6672  0.6039 -0.2238
  923SOL     OW 3689   2.158   2.824   1.692 -0.0149 -0.1480  0.2072
  923SOL    HW1 3690   2.211   2.768   1.634  0.1703  1.5749  1.4970
  923SOL    HW2 3691   2.146   2.902   1.641 -0.7217 -0.6416  2.2812
  923SOL     MW 3692   2.164   2.827   1.677 -0.0837  0.0142  0.6510
  924SOL     OW 3693   1.181   2.618   2.494 -0.1618 -0.0031  0.5157
  924SOL    HW1 3694   1.263   2.661   2.496 -0.7029 -0.2105 -0.3361
  924SOL    HW2 3695   1.164   2.585   2.582 -3.4583  2.6944 -0.8367
  924SOL     MW 3696   1.190   2.619   2.506 -0.6681  0.3254  0.2249
  925SOL     OW 3697   2.974   0.187   2.644  0.5412 -0.1516 -0.2410
  925SOL    HW1 3698   2.943   0.199   2.548  1.1673 -0.2289  0.2417
  925SOL    HW2 3699   2.969   0.274   2.675 -1.1733  0.1790  1.3745
  925SOL     MW 3700   2.969   0.200   2.635  0.3976 -0.1182  0.0359
  926SOL     OW 3701   2.731   2.388   2.089  0.2186 -0.2674  0.0243
  926SOL    HW1 3702   2.783   2.451   2.141  0.8158 -0.3902 -1.4817
  926SOL    HW2 3703   2.764   2.381   2.002 -3.0785  2.5858 -2.9385
  926SOL     MW 3704   2.742   2.395   2.084 -0.1376  0.0928 -0.5653
  927SOL     OW 3705   2.347   0.150   0.270 -0.5297 -0.0998 -0.4846
  927SOL    HW1 3706   2.448   0.159   0.262  2.0450  0.2669  0.4478
  927SOL    HW2 3707   2.320   0.141   0.181 -0.0304 -0.0788 -0.5925
  927SOL     MW 3708   2.357   0.150   0.257 -0.1241 -0.0487 -0.3758
  928SOL     OW 3709   2.157   2.431   1.909  0.4684  0.1504 -0.8426
  928SOL    HW1 3710   2.208   2.514   1.903  2.2170 -3.0247  1.7413
  928SOL    HW2 3711   2.196   2.363   1.853 -1.1665 -0.5050 -2.1762
  928SOL     MW 3712   2.169   2.433   1.901  0.4834 -0.3550 -0.6777
  929SOL     OW 3713   2.745   2.390   2.443  0.7881  0.1672 -0.1946
  929SOL    HW1 3714   2.791   2.438   2.380 -0.3524  0.6305 -0.1823
  929SOL    HW2 3715   2.804   2.366   2.512 -1.2673  0.8913  1.8313
  929SOL     MW 3716   2.759   2.393   2.444  0.3664  0.3239  0.0743
  930SOL     OW 3717   2.017   2.855   2.686 -0.2285  0.3601 -0.1904
  930SOL    HW1 3718   2.050   2.786   2.741  1.8805 -1.5953 -0.6643
  930SOL    HW2 3719   2.100   2.906   2.659  0.5382  3.8328  0.4318
  930SOL     MW 3720   2.032   2.852   2.690  0.1510  0.5603 -0.1708
  931SOL     OW 3721   3.018   2.767   2.333  0.3914 -0.5645  0.7018
  931SOL    HW1 3722   3.041   2.797   2.423 -2.1253  0.9667  2.5158
  931SOL    HW2 3723   3.093   2.773   2.282 -0.4982  0.5827  0.7074
  931SOL     MW 3724   3.031   2.772   2.338 -0.0580 -0.2111  0.9419
  932SOL     OW 3725   2.854   1.959   2.577  0.3349 -0.6442 -0.3672
  932SOL    HW1 3726   2.945   1.981   2.544  1.1933 -0.2213  2.1683
  932SOL    HW2 3727   2.794   1.975   2.504 -0.3241  0.2127  0.0894
  932SOL     MW 3728   2.858   1.964   2.563  0.3612 -0.4753  0.0276
  933SOL     OW 3729   2.030   2.880   2.294  0.2349 -0.4907 -0.8248
  933SOL    HW1 3730   2.116   2.908   2.328 -1.2329  1.8636 -0.8273
  933SOL    HW2 3731   1.991   2.958   2.249  0.3299  1.3351  0.0870
  933SOL     MW 3732   2.036   2.894   2.292  0.0538  0.0608 -0.7048
  934SOL     OW 3733   2.019   2.686   2.487  0.2309  0.3718  0.4588
  934SOL    HW1 3734   2.023   2.741   2.569 -1.7181  1.3121  1.1717
  934SOL    HW2 3735   2.006   2.756   2.419  0.3653  0.8311  3.0649
  934SOL     MW 3736   2.018   2.702   2.489 -0.0085  0.5564  0.8967
  935SOL     OW 3737   2.680   1.538   1.786  0.0038 -0.4418 -0.6772
  935SOL    HW1 3738   2.769   1.524   1.740  2.0997  0.4117 -1.5256
  935SOL    HW2 3739   2.627   1.516   1.711 -2.5280 -0.7508  1.4790
  935SOL     MW 3740   2.685   1.533   1.770 -0.0537 -0.3700 -0.5047
  936SOL     OW 3741   2.986   2.220   3.054 -0.0929 -0.1240 -0.2253
  936SOL    HW1 3742   3.054   2.260   3.109 -0.3018  1.8517 -1.4477
  936SOL    HW2 3743   2.900   2.263   3.068 -1.8657  3.1780 -0.8668
  936SOL     MW 3744   2.984   2.231   3.064 -0.3544  0.5724 -0.4713
  937SOL     OW 3745   1.925   2.130   2.616 -0.2521 -0.0524  0.1571
  937SOL    HW1 3746   2.007   2.095   2.649 -1.0946  1.5158  1.0730
  937SOL    HW2 3747   1.916   2.096   2.529  0.6126 -0.2537 -0.1242
  937SOL     MW 3748   1.934   2.121   2.609 -0.2492  0.1280  0.2408
  938SOL     OW 3749   2.262   1.794   1.956  0.3395 -0.2367 -0.0006
  938SOL    HW1 3750   2.269   1.807   1.859  0.4734  0.1800 -0.2907
  938SOL    HW2 3751   2.280   1.879   1.989 -0.4639 -1.4175  0.7759
  938SOL     MW 3752   2.265   1.807   1.947  0.2512 -0.3375  0.0636
  939SOL     OW 3753   2.723   1.974   2.327  0.0902 -0.0366  0.3368
  939SOL    HW1 3754   2.761   1.905   2.269  1.8070  2.4501  0.5443
  939SOL    HW2 3755   2.624   1.970   2.313 -3.7933  2.0064  1.2614
  939SOL     MW 3756   2.715   1.964   2.317 -0.1957  0.5611  0.4861
  940SOL     OW 3757   2.289   0.161   2.636 -0.1845 -0.1453 -0.1214
  940SOL    HW1 3758   2.266   0.065   2.624 -2.5219 -0.7199 -0.1813
  940SOL    HW2 3759   2.340   0.172   2.712  1.8677  0.7547 -2.1668
  940SOL     MW 3760   2.293   0.150   2.644 -0.2222 -0.1024 -0.3992
  941SOL     OW 3761   0.136   2.420   2.048 -0.5270  0.6354  0.2693
  941SOL    HW1 3762   0.233   2.440   2.044  2.4082  0.7106  1.2809
  941SOL    HW2 3763   0.115   2.340   1.995 -0.2704  4.2070  1.9950
  941SOL     MW 3764   0.146   2.412   2.040 -0.1058  1.1165  0.6305
  942SOL     OW 3765   2.872   2.160   2.185 -0.7096 -0.1066 -0.1084
  942SOL    HW1 3766   2.796   2.210   2.158 -1.0754 -1.5310 -0.0636
  942SOL    HW2 3767   2.839   2.089   2.233  0.5242  1.4368 -0.6480
  942SOL     MW 3768   2.858   2.157   2.188 -0.5951 -0.0909 -0.1737
  943SOL     OW 3769   0.292   2.110   2.280  0.3934  0.1471 -0.1053
  943SOL    HW1 3770   0.260   2.169   2.350  0.8895 -0.2438 -1.0899
  943SOL    HW2 3771   0.386   2.091   2.299  0.0085  0.2902  0.8820
  943SOL     MW 3772   0.300   2.115   2.291  0.4080  0.1144 -0.1049
  944SOL     OW 3773   2.078   2.693   2.095  0.1497  0.2977 -0.3301
  944SOL    HW1 3774   2.155   2.647   2.141  0.0898 -0.9140  1.8296
  944SOL    HW2 3775   2.059   2.762   2.171  2.1196 -0.2704 -1.9607
  944SOL     MW 3776   2.086   2.696   2.111  0.4017  0.0629 -0.2603
  945SOL     OW 3777   2.640   2.705   2.886  0.1857 -0.2420 -0.2020
  945SOL    HW1 3778   2.660   2.616   2.866  1.5506  0.0720  0.2774
  945SOL    HW2 3779   2.598   2.742   2.810  0.7370 -1.9735  0.7878
  945SOL     MW 3780   2.637   2.698   2.873  0.4385 -0.4290 -0.0082
  946SOL     OW 3781   2.482   2.757   2.291  0.3494 -0.8448  0.2524
  946SOL    HW1 3782   2.493   2.797   2.199 -0.2537 -1.3976  1.9023
  946SOL    HW2 3783   2.457   2.672   2.264  1.0862 -2.9929  2.1481
  946SOL     MW 3784   2.480   2.751   2.275  0.3670 -1.2012  0.7202
  947SOL     OW 3785   1.904   0.066   0.323 -0.0683  0.2071 -0.1409
  947SOL    HW1 3786   1.911  -0.035   0.332  3.4975 -2.2068  0.2143
  947SOL    HW2 3787   1.983   0.082   0.371 -1.1662 -1.3650 -0.1106
  947SOL     MW 3788   1.915   0.054   0.330  0.2573 -0.3188 -0.0901
  948SOL     OW 3789   1.835   3.077   2.679 -0.2579 -0.0520  0.4856
  948SOL    HW1 3790   1.888   2.998   2.667  1.7508  0.4129  0.3419
  948SOL    HW2 3791   1.795   3.088   2.590  0.6977 -0.6239 -0.8727
  948SOL     MW 3792   1.837   3.068   2.666  0.1332 -0.0661  0.2874
  949SOL     OW 3793   2.471   1.918   2.266  0.3874 -0.3250  0.5109
  949SOL    HW1 3794   2.477   1.825   2.297 -0.3436  1.1377 -1.5518
  949SOL    HW2 3795   2.426   1.961   2.341 -2.3534 -0.8845  0.2635
  949SOL     MW 3796   2.466   1.911   2.280 -0.0707 -0.2058  0.2061
  950SOL     OW 3797   2.269   2.454   2.954  0.0571 -0.4496  0.1669
  950SOL    HW1 3798   2.336   2.423   2.897 -1.2939 -2.6590  0.4475
  950SOL    HW2 3799   2.208   2.510   2.904  0.5130  2.0945 -2.1630
  950SOL     MW 3800   2.270   2.458   2.940 -0.0610 -0.4054 -0.1035
  951SOL     OW 3801   3.003   2.090   2.809  0.3304 -0.3366 -0.5401
  951SOL    HW1 3802   2.990   2.120   2.900  0.1021 -0.5585  1.8835
  951SOL    HW2 3803   3.091   2.051   2.809 -0.6052 -0.2592  0.9664
  951SOL     MW 3804   3.013   2.089   2.821  0.1769 -0.3556 -0.0216
  952SOL     OW 3805   3.009   1.649   2.144  0.6458 -0.2764 -0.0466
  952SOL    HW1 3806   2.931   1.704   2.117  0.3699  0.6656 -0.1203
  952SOL    HW2 3807   3.069   1.710   2.190  0.7125  0.2523 -1.3985
  952SOL     MW 3808   3.007   1.664   2.146  0.6182 -0.0824 -0.2347
  953SOL     OW 3809   1.888   1.780   2.919 -0.8508 -0.3330 -0.4056
  953SOL    HW1 3810   1.819   1.743   2.975  0.4290  2.8710 -2.0078
  953SOL    HW2 3811   1.919   1.697   2.873  0.3192  0.5638 -0.3208
  953SOL     MW 3812   1.883   1.764   2.920 -0.5275  0.2080 -0.6058
  954SOL     OW 3813   2.388   2.081   2.900 -0.4962 -0.1691  0.2515
  954SOL    HW1 3814   2.314   2.066   2.849  1.1240  1.6536  0.0291
  954SOL    HW2 3815   2.453   2.038   2.842 -1.1435 -0.4378  0.2150
  954SOL     MW 3816   2.387   2.073   2.886 -0.3678  0.0360  0.2174
  955SOL     OW 3817   1.542   1.583   2.580  0.8799 -0.0841 -0.1185
  955SOL    HW1 3818   1.505   1.605   2.492 -0.2450  2.6758 -1.9631
  955SOL    HW2 3819   1.631   1.619   2.583 -1.4415 -0.7973  0.5429
  955SOL     MW 3820   1.549   1.591   2.569  0.4252  0.1860 -0.2747
  956SOL     OW 3821   2.674   2.428   2.830 -0.1697  0.3946  0.0970
  956SOL    HW1 3822   2.695   2.394   2.916 -2.5706 -1.2830 -2.0060
  956SOL    HW2 3823   2.748   2.403   2.774  1.0956 -2.3567 -0.2450
  956SOL     MW 3824   2.686   2.420   2.834 -0.3196 -0.1897 -0.2256
  957SOL     OW 3825   2.327   2.833   0.362 -0.2663 -0.1852 -0.0081
  957SOL    HW1 3826   2.246   2.851   0.312 -0.7422 -0.4181  3.9328
  957SOL    HW2 3827   2.281   2.802   0.446 -1.3583  0.3885 -0.6166
  957SOL     MW 3828   2.310   2.831   0.366 -0.4731 -0.1402  0.4316
  958SOL     OW 3829   2.083   2.622   2.822  0.7931 -0.0446  0.3012
  958SOL    HW1 3830   2.057   2.549   2.761 -0.1752  1.2802 -0.7775
  958SOL    HW2 3831   2.013   2.641   2.882  3.6900  2.0446 -0.4462
  958SOL     MW 3832   2.070   2.615   2.822  1.0475  0.4058  0.0603
  959SOL     OW 3833   2.497   2.605   0.337  0.0747  0.1726  0.0401
  959SOL    HW1 3834   2.546   2.598   0.262  0.9861 -0.0521 -0.1005
  959SOL    HW2 3835   2.448   2.691   0.336 -0.9536  2.6055 -0.7098
  959SOL     MW 3836   2.497   2.616   0.327  0.0593  0.4640 -0.0774
  960SOL     OW 3837   1.912   2.263   2.239  0.2650  0.5479  0.0839
  960SOL    HW1 3838   1.899   2.167   2.242 -2.6951 -0.9825  0.8795
  960SOL    HW2 3839   1.892   2.298   2.330  1.4933  2.3746 -0.4490
  960SOL     MW 3840   1.908   2.255   2.252  0.0365  0.5870  0.1185
  961SOL     OW 3841   2.201   2.321   2.268 -0.0960  0.0614 -0.6976
  961SOL    HW1 3842   2.112   2.308   2.230 -0.8507  0.9229  2.7808
  961SOL    HW2 3843   2.199   2.368   2.358 -0.2215 -1.2855  3.5024
  961SOL     MW 3844   2.189   2.325   2.275 -0.2121 -0.0027  0.3155
  962SOL     OW 3845   2.137   2.022   2.743  0.4258  0.2691  0.0267
  962SOL    HW1 3846   2.087   1.996   2.811  0.2283  0.0181 -3.4054
  962SOL    HW2 3847   2.160   1.936   2.696  0.1535 -1.9562 -0.7761
  962SOL     MW 3848   2.134   2.007   2.746  0.3639 -0.0577 -0.5320
  963SOL     OW 3849   1.831   2.552   2.066 -0.5185  0.1192  0.7218
  963SOL    HW1 3850   1.903   2.528   2.122 -2.5706 -0.5502 -0.5394
  963SOL    HW2 3851   1.818   2.481   2.000 -0.0753  0.5354 -0.5228
  963SOL     MW 3852   1.839   2.540   2.065 -0.7307  0.0858  0.3912
  964SOL     OW 3853   1.765   1.958   2.738 -0.1427  0.4692  0.3718
  964SOL    HW1 3854   1.824   2.017   2.693 -0.1166  2.6668  0.3918
  964SOL    HW2 3855   1.803   1.894   2.797 -2.0190  1.8822  1.0547
  964SOL     MW 3856   1.778   1.958   2.740 -0.3868  0.9456  0.4645
  965SOL     OW 3857   2.217   2.749   0.588  0.4583 -0.1951  0.0185
  965SOL    HW1 3858   2.225   2.655   0.567 -2.0007  0.6536  1.3260
  965SOL    HW2 3859   2.287   2.767   0.654 -0.5212 -0.7418  1.4164
  965SOL     MW 3860   2.227   2.739   0.594  0.0047 -0.1553  0.3754
  966SOL     OW 3861   2.681   2.668   2.465 -0.0689  0.0781  0.2382
  966SOL    HW1 3862   2.637   2.727   2.402 -2.1467 -1.8616 -0.7462
  966SOL    HW2 3863   2.694   2.586   2.418 -1.9299 -1.6598  0.7198
  966SOL     MW 3864   2.677   2.665   2.450 -0.5885 -0.4072  0.1719
  967SOL     OW 3865   2.760   3.041   2.879  0.1055  0.0288  0.2598
  967SOL    HW1 3866   2.768   2.969   2.944 -1.9751 -2.0359 -1.7843
  967SOL    HW2 3867   2.669   3.046   2.839 -0.9377 -1.6461 -2.6319
  967SOL     MW 3868   2.749   3.032   2.882 -0.3066 -0.4646 -0.3914
  968SOL     OW 3869   2.979   2.617   2.891 -0.5936 -0.0769  0.2228
  968SOL    HW1 3870   2.906   2.645   2.837  1.8850  0.5063  3.6192
  968SOL    HW2 3871   3.016   2.550   2.836  0.7058  1.9102 -0.9275
  968SOL     MW 3872   2.975   2.612   2.877 -0.0951  0.2622  0.5192
  969SOL     OW 3873   1.620   2.135   1.641  0.0829  0.5375  0.0288
  969SOL    HW1 3874   1.682   2.066   1.643 -2.3691  2.1151 -0.4883
  969SOL    HW2 3875   1.589   2.155   1.731  3.9922  0.7213  0.2374
  969SOL     MW 3876   1.624   2.129   1.653  0.2752  0.7699 -0.0119
  970SOL     OW 3877   1.684   1.803   1.922 -0.0915  0.0921  1.0138
  970SOL    HW1 3878   1.733   1.729   1.958  1.4026 -1.5568  2.5373
  970SOL    HW2 3879   1.586   1.782   1.914 -3.1113  3.8942  1.1025
  970SOL     MW 3880   1.677   1.790   1.925 -0.2928  0.3762  1.2265
  971SOL     OW 3881   1.738   0.011   2.414 -0.3289  0.8247 -0.1619
  971SOL    HW1 3882   1.782  -0.028   2.344 -1.0163  1.7341 -1.4748
  971SOL    HW2 3883   1.789   0.093   2.431 -1.9433 -0.5522 -0.4892
  971SOL     MW 3884   1.751   0.017   2.407 -0.6326  0.7630 -0.3783
  972SOL     OW 3885   0.270   2.844   2.484  0.5597  0.6153 -0.4984
  972SOL    HW1 3886   0.338   2.775   2.485 -0.2954 -0.6268 -0.3034
  972SOL    HW2 3887   0.318   2.921   2.520 -0.7561  1.4252  0.3883
  972SOL     MW 3888   0.285   2.845   2.489  0.2733  0.5583 -0.3557
  973SOL     OW 3889   2.542   3.099   2.085  0.0776 -0.1745  0.3907
  973SOL    HW1 3890   2.553   3.005   2.079  1.5211 -0.9605  0.5264
  973SOL    HW2 3891   2.567   3.140   1.998 -0.7249  1.1550  1.1845
  973SOL     MW 3892   2.547   3.092   2.073  0.1622 -0.1028  0.5133
  974SOL     OW 3893   2.021   0.205   2.692 -0.0840  0.2562  0.2800
  974SOL    HW1 3894   2.111   0.177   2.681 -1.2331  1.6602  0.3343
  974SOL    HW2 3895   1.987   0.168   2.770 -2.6265 -0.1580 -1.7749
  974SOL     MW 3896   2.028   0.196   2.701 -0.5711  0.3868  0.0160
  975SOL     OW 3897   2.206   2.491   2.485 -0.0544 -0.1244  0.6031
  975SOL    HW1 3898   2.300   2.498   2.508 -0.1716  0.1046  0.7929
  975SOL    HW2 3899   2.165   2.580   2.493  0.4619  1.2444 -0.2561
  975SOL     MW 3900   2.213   2.504   2.489 -0.0017  0.0864  0.5147
  976SOL     OW 3901   0.224   0.358   1.737  0.1287  0.0932  0.4293
  976SOL    HW1 3902   0.296   0.291   1.763  1.9297  0.6680  0.5774
  976SOL    HW2 3903   0.151   0.302   1.691 -1.3656 -2.1073 -1.5338
  976SOL     MW 3904   0.224   0.342   1.734  0.1692 -0.1213  0.1898
  977SOL     OW 3905   1.757   2.642   2.526 -0.1669  0.2090  0.2892
  977SOL    HW1 3906   1.742   2.547   2.503 -0.5875 -0.1847 -1.2356
  977SOL    HW2 3907   1.847   2.648   2.505 -1.5983 -1.2207  2.0584
  977SOL     MW 3908   1.767   2.630   2.520 -0.4112 -0.0316  0.3215
   3.10000   3.10000   3.10000
