977 TIP4P/2005f water molecules t=   1.39000 step= 1390
 3908
    1SOL     OW    1   0.375   0.862   0.027 -0.3672  0.3011 -0.1522
    1SOL    HW1    2   0.382   0.921  -0.052 -0.1927  1.6526  0.4017
    1SOL    HW2    3   0.314   0.798  -0.009  0.1818  1.0461 -0.0573
    1SOL     MW    4   0.368   0.861   0.012 -0.2717  0.5778 -0.0666
    2SOL     OW    5   0.335   3.040   1.138 -0.2422  0.3981  0.0476
    2SOL    HW1    6   0.380   3.113   1.087 -2.2857  1.0492 -2.3238
    2SOL    HW2    7   0.242   3.064   1.146  1.2713  1.0853 -2.0134
    2SOL     MW    8   0.329   3.053   1.132 -0.3121  0.5747 -0.5372
    3SOL     OW    9   2.632   0.341   0.954  0.7147  0.0540  0.2386
    3SOL    HW1   10   2.648   0.428   0.913  0.6777 -4.8091  0.9539
    3SOL    HW2   11   2.609   0.356   1.047 -0.9716 -0.5962  5.0985
    3SOL     MW   12   2.631   0.354   0.960  0.4873 -0.6734  0.9742
    4SOL     OW   13   3.058   1.737   0.582  0.3339  0.1139 -0.3188
    4SOL    HW1   14   3.002   1.783   0.523 -1.2076 -3.1789  0.5030
    4SOL    HW2   15   3.136   1.704   0.533  0.9616  1.0748 -0.0446
    4SOL     MW   16   3.061   1.739   0.568  0.2134 -0.1937 -0.1742
    5SOL     OW   17   1.634   1.509   0.620  0.1386 -0.4693  0.5536
    5SOL    HW1   18   1.674   1.442   0.671 -1.0076 -0.5601 -0.3471
    5SOL    HW2   19   1.537   1.495   0.656 -3.4181 -2.8285  2.2678
    5SOL     MW   20   1.626   1.498   0.632 -0.4819 -0.7925  0.6609
    6SOL     OW   21   0.791   1.388   0.585 -0.4826 -0.0923  0.3967
    6SOL    HW1   22   0.696   1.410   0.582 -1.0605  0.4925 -1.4600
    6SOL    HW2   23   0.782   1.316   0.648 -1.2902  1.8658 -0.4318
    6SOL     MW   24   0.777   1.382   0.593 -0.6654  0.2432  0.0424
    7SOL     OW   25   1.998   1.055   0.014 -0.2957  0.1024 -0.0107
    7SOL    HW1   26   2.059   1.123  -0.009  4.3489  1.3320  2.5277
    7SOL    HW2   27   2.017   1.045   0.108 -1.1707 -1.6874  1.8672
    7SOL     MW   28   2.008   1.063   0.023  0.2016  0.0285  0.5719
    8SOL     OW   29   0.782   1.529   1.175 -0.5545 -0.3921 -0.0819
    8SOL    HW1   30   0.873   1.547   1.205  1.4738 -0.7355 -1.4400
    8SOL    HW2   31   0.782   1.434   1.188  1.9532  1.2951  0.4645
    8SOL     MW   32   0.794   1.519   1.181  0.0440 -0.2148 -0.1890
    9SOL     OW   33   1.043   0.499   1.354  0.1843 -0.3169  0.2970
    9SOL    HW1   34   0.986   0.430   1.314 -0.2703 -0.7202  3.7624
    9SOL    HW2   35   1.079   0.462   1.438 -0.3788 -2.3748  0.2561
    9SOL     MW   36   1.040   0.485   1.360  0.0500 -0.6416  0.7488
   10SOL     OW   37   0.247   0.802   0.524  0.2150  0.2543 -0.3766
   10SOL    HW1   38   0.336   0.837   0.517 -0.8246  2.9722 -0.0521
   10SOL    HW2   39   0.233   0.801   0.620 -1.1126 -1.1378 -0.5610
   10SOL     MW   40   0.257   0.806   0.536 -0.0973  0.4292 -0.3581
   11SOL     OW   41   0.748   1.155   1.585  0.2326  0.0219 -0.1908
   11SOL    HW1   42   0.797   1.145   1.671  3.1653  0.8861  0.2851
   11SOL    HW2   43   0.789   1.086   1.538  0.4047 -0.1186  4.5412
   11SOL     MW   44   0.760   1.144   1.590  0.6423  0.1174  0.4963
   12SOL     OW   45   3.038   1.140   0.863  0.1605 -0.1652 -0.0078
   12SOL    HW1   46   3.089   1.206   0.910 -0.2962 -1.4149 -0.0876
   12SOL    HW2   47   3.003   1.189   0.789 -3.2190  1.0472 -1.9589
   12SOL     MW   48   3.040   1.155   0.860 -0.3457 -0.1701 -0.2758
   13SOL     OW   49   1.832   1.430   1.301 -0.3350 -0.0343 -0.1254
   13SOL    HW1   50   1.833   1.391   1.210 -2.4637 -2.8826 -2.7220
   13SOL    HW2   51   1.839   1.529   1.290 -3.3235  0.5564 -1.7126
   13SOL     MW   52   1.833   1.438   1.287 -1.0102 -0.3322 -0.6774
   14SOL     OW   53   0.562   0.304   1.835  0.2648  0.1701 -0.2385
   14SOL    HW1   54   0.500   0.237   1.820  0.3935 -0.3054 -1.1204
   14SOL    HW2   55   0.564   0.338   1.749 -1.4463 -1.2055 -1.3714
   14SOL     MW   56   0.554   0.300   1.822  0.0560 -0.0741 -0.5044
   15SOL     OW   57   1.987   0.331   1.060  0.2529  0.0610  0.0828
   15SOL    HW1   58   1.996   0.405   1.119  0.0365  0.4996  1.2810
   15SOL    HW2   59   2.029   0.368   0.981  0.1609 -0.3719 -0.0243
   15SOL     MW   60   1.994   0.346   1.057  0.2122  0.0617  0.2267
   16SOL     OW   61   0.244   1.828   0.295 -0.0964 -0.0373 -0.2936
   16SOL    HW1   62   0.341   1.807   0.298  0.7921 -0.6091 -1.2746
   16SOL    HW2   63   0.232   1.919   0.325 -0.6811  0.4205  0.0205
   16SOL     MW   64   0.255   1.838   0.300 -0.0563 -0.0523 -0.3816
   17SOL     OW   65   1.059   0.878   1.422  0.5830 -0.3894 -0.0178
   17SOL    HW1   66   1.091   0.860   1.516  0.2094  1.1352  0.4662
   17SOL    HW2   67   0.962   0.883   1.416  1.7704  0.6333 -0.2590
   17SOL     MW   68   1.051   0.876   1.433  0.6904 -0.0533  0.0142
   18SOL     OW   69   0.137   1.584   0.360  0.4140 -0.3064 -0.0391
   18SOL    HW1   70   0.178   1.671   0.337  1.8399  1.7426  2.8001
   18SOL    HW2   71   0.122   1.539   0.275 -1.2164 -0.2895 -2.7127
   18SOL     MW   72   0.141   1.590   0.346  0.3870 -0.0338 -0.0173
   19SOL     OW   73   0.101   1.381   0.951 -0.5178  0.5395 -0.1921
   19SOL    HW1   74   0.134   1.392   0.864 -0.7563 -0.0939  1.0192
   19SOL    HW2   75   0.005   1.394   0.960  1.7516 -0.8566 -1.4480
   19SOL     MW   76   0.093   1.384   0.941 -0.2499  0.2717 -0.1980
   20SOL     OW   77   0.418   2.175   1.196  0.1984  0.1368  0.0316
   20SOL    HW1   78   0.393   2.091   1.160 -0.8711 -1.1395  0.7713
   20SOL    HW2   79   0.394   2.178   1.290  2.4431  1.5609  0.2858
   20SOL     MW   80   0.411   2.164   1.204  0.3535  0.1563  0.1627
   21SOL     OW   81   0.495   0.889   0.398  0.4080  0.1383 -0.0099
   21SOL    HW1   82   0.569   0.865   0.453 -2.5484 -0.3137  1.6490
   21SOL    HW2   83   0.539   0.895   0.316  0.4990  1.0728  1.6439
   21SOL     MW   84   0.510   0.887   0.395  0.0300  0.2019  0.4272
   22SOL     OW   85   1.539   0.711   0.944  0.5074  0.2951 -0.1058
   22SOL    HW1   86   1.514   0.649   0.879  0.3879  0.6514 -2.0128
   22SOL    HW2   87   1.457   0.722   0.995  2.5792 -0.9227  0.2857
   22SOL     MW   88   1.525   0.704   0.942  0.7650  0.1815 -0.3057
   23SOL     OW   89   3.093   0.703   0.684  0.3373 -0.1833  0.3930
   23SOL    HW1   90   3.139   0.638   0.736  1.3246  0.8680 -1.0261
   23SOL    HW2   91   3.122   0.783   0.731  0.0324  1.6144 -0.1271
   23SOL     MW   92   3.103   0.705   0.697  0.4273  0.1926  0.1371
   24SOL     OW   93   2.061   2.199   3.074  0.4226 -0.5318 -0.1234
   24SOL    HW1   94   2.048   2.218   3.170 -1.4213 -1.0604  0.5036
   24SOL    HW2   95   2.097   2.111   3.051  0.6141 -0.8235  0.5899
   24SOL     MW   96   2.064   2.190   3.084  0.2046 -0.6400  0.0534
   25SOL     OW   97   0.247   1.340   0.420 -0.3410 -0.0054 -0.4008
   25SOL    HW1   98   0.212   1.428   0.389 -0.9502 -1.6589  1.2864
   25SOL    HW2   99   0.340   1.351   0.431  1.8214  2.1806 -1.2472
   25SOL     MW  100   0.254   1.353   0.418 -0.1361  0.0649 -0.2899
   26SOL     OW  101   2.057   1.028   0.275 -0.2845 -0.0276 -0.2196
   26SOL    HW1  102   1.980   1.050   0.325  0.9937 -2.1682  1.6042
   26SOL    HW2  103   2.111   1.101   0.279  0.0042 -3.7499  0.9880
   26SOL     MW  104   2.054   1.041   0.282 -0.0778 -0.8012  0.1804
   27SOL     OW  105   1.900   1.416   0.219 -1.0453 -0.6539 -0.2278
   27SOL    HW1  106   1.835   1.488   0.224 -0.8305 -0.2841 -0.7695
   27SOL    HW2  107   1.957   1.438   0.295  0.3474  0.4239 -0.1275
   27SOL     MW  108   1.899   1.428   0.229 -0.8332 -0.4629 -0.2860
   28SOL     OW  109   0.467   1.003   2.007  0.7386 -0.7197  0.1520
   28SOL    HW1  110   0.521   0.954   2.070 -0.7574  1.1976 -0.7748
   28SOL    HW2  111   0.380   0.974   2.040 -0.5601  1.7985  1.9012
   28SOL     MW  112   0.463   0.993   2.020  0.3699 -0.1345  0.2605
   29SOL     OW  113   0.253   1.413   0.705  0.1024 -0.7088 -0.4284
   29SOL    HW1  114   0.267   1.511   0.720  2.0431  0.7501 -0.5851
   29SOL    HW2  115   0.189   1.407   0.630 -2.1534 -0.6058 -1.9925
   29SOL     MW  116   0.247   1.425   0.697  0.0609 -0.5027 -0.6554
   30SOL     OW  117   0.826   1.262   1.228 -0.3743 -0.1739 -0.1739
   30SOL    HW1  118   0.740   1.235   1.258 -1.9563  0.3283 -0.0569
   30SOL    HW2  119   0.897   1.236   1.289 -3.3354 -2.6353 -2.4549
   30SOL     MW  120   0.824   1.255   1.240 -0.9737 -0.4324 -0.4595
   31SOL     OW  121   0.440   0.279   0.184  0.3611  0.4440 -0.4623
   31SOL    HW1  122   0.458   0.213   0.251  1.2640  1.8955  1.6841
   31SOL    HW2  123   0.483   0.241   0.106  0.8903  1.7551  0.5110
   31SOL     MW  124   0.448   0.265   0.183  0.5500  0.8085 -0.0507
   32SOL     OW  125   2.678   0.983   1.128  0.2502 -0.2977 -0.0313
   32SOL    HW1  126   2.633   0.903   1.122  0.7881 -1.9259 -0.7100
   32SOL    HW2  127   2.767   0.964   1.101  0.4931  1.5476  4.3296
   32SOL     MW  128   2.683   0.970   1.124  0.3533 -0.2690  0.4545
   33SOL     OW  129   1.621   1.326   0.379  0.2671 -0.2872  0.2438
   33SOL    HW1  130   1.698   1.274   0.374 -0.8641  0.0972  0.3061
   33SOL    HW2  131   1.630   1.394   0.449  0.7096  0.2155  0.8501
   33SOL     MW  132   1.633   1.328   0.387  0.1762 -0.1701  0.3320
   34SOL     OW  133   1.246   1.945   1.125 -0.3194  0.1333 -0.1805
   34SOL    HW1  134   1.163   1.983   1.134 -1.5359 -1.6469 -0.2026
   34SOL    HW2  135   1.306   1.989   1.180 -3.0926  1.6001  2.0281
   34SOL     MW  136   1.243   1.956   1.134 -0.8458  0.0920  0.1080
   35SOL     OW  137   0.336   0.126   1.812 -0.3249  0.4972  0.1255
   35SOL    HW1  138   0.355   0.094   1.901 -0.9501 -1.2063 -0.3093
   35SOL    HW2  139   0.344   0.053   1.745 -0.0699 -0.5698  0.7831
   35SOL     MW  140   0.339   0.112   1.815 -0.3738  0.1316  0.1549
   36SOL     OW  141   1.946   1.918   0.582 -0.0291  0.1020  0.3308
   36SOL    HW1  142   1.934   1.916   0.488 -1.4050  2.9240  0.6012
   36SOL    HW2  143   1.947   1.825   0.618 -0.7641 -2.0371 -0.1149
   36SOL     MW  144   1.944   1.905   0.574 -0.3076  0.1921  0.3077
   37SOL     OW  145   1.809   1.997   0.994  0.2490 -0.0331  0.8472
   37SOL    HW1  146   1.737   1.961   0.948  0.9879  1.9617  3.1226
   37SOL    HW2  147   1.760   2.060   1.046 -2.3892 -1.7494 -1.9525
   37SOL     MW  148   1.793   2.001   0.995 -0.0016  0.0036  0.7780
   38SOL     OW  149   2.803   0.911   0.130  0.0772 -0.5599  0.3206
   38SOL    HW1  150   2.828   0.899   0.224 -1.7153 -2.7413 -1.9217
   38SOL    HW2  151   2.884   0.911   0.078 -1.8763  0.5603 -0.6036
   38SOL     MW  152   2.817   0.909   0.136 -0.4170 -0.6999 -0.0972
   39SOL     OW  153   1.458   0.544   0.750 -0.1849 -0.0442  0.2632
   39SOL    HW1  154   1.409   0.472   0.792 -0.7178 -0.4959  0.2726
   39SOL    HW2  155   1.391   0.614   0.747 -0.1924  0.9167 -1.8686
   39SOL     MW  156   1.443   0.544   0.755 -0.2562  0.0230 -0.0169
   40SOL     OW  157   1.253   1.876   0.225  0.1995  0.0208  1.0537
   40SOL    HW1  158   1.307   1.797   0.246  0.6409  0.8582 -0.5532
   40SOL    HW2  159   1.245   1.918   0.309  0.0431 -0.5444  0.5251
   40SOL     MW  160   1.259   1.871   0.239  0.2371  0.0567  0.7719
   41SOL     OW  161   0.583   0.502   1.632  0.3617  0.5247 -0.0110
   41SOL    HW1  162   0.653   0.537   1.573  1.6249 -0.0653 -3.7846
   41SOL    HW2  163   0.508   0.570   1.621  0.7253 -0.5765 -1.6646
   41SOL     MW  164   0.582   0.516   1.623  0.5764  0.3016 -0.7271
   42SOL     OW  165   1.284   3.003   1.943 -0.1305 -0.1562 -0.0534
   42SOL    HW1  166   1.203   3.005   1.993 -1.6404 -1.5739  0.9012
   42SOL    HW2  167   1.343   2.932   1.968  0.8823  1.0580 -0.3637
   42SOL     MW  168   1.281   2.994   1.953 -0.1961 -0.1831  0.0316
   43SOL     OW  169   1.469   0.142   1.656  0.5655  0.3529  0.1447
   43SOL    HW1  170   1.506   0.113   1.574  0.5419 -0.3108  2.7403
   43SOL    HW2  171   1.383   0.098   1.656  1.8088  1.8840 -1.3050
   43SOL     MW  172   1.463   0.132   1.645  0.7265  0.4674  0.2959
   44SOL     OW  173   1.300   0.751   1.062 -0.1175 -0.6300  0.2024
   44SOL    HW1  174   1.262   0.838   1.056  0.2110  1.4194 -0.8106
   44SOL    HW2  175   1.279   0.716   1.153  2.2441 -3.0093  1.5834
   44SOL     MW  176   1.292   0.758   1.073  0.2374 -0.6735  0.2509
   45SOL     OW  177   1.267   0.757   0.768  0.1646 -0.0482  0.4619
   45SOL    HW1  178   1.232   0.782   0.854  1.2876  0.4083  1.0902
   45SOL    HW2  179   1.193   0.735   0.696  0.7280  0.4425 -0.2084
   45SOL     MW  180   1.253   0.758   0.770  0.3871  0.0768  0.4564
   46SOL     OW  181   0.536   1.098   0.615 -0.5872  0.0941  0.6386
   46SOL    HW1  182   0.518   1.107   0.525  0.6341 -0.5145  0.8162
   46SOL    HW2  183   0.629   1.104   0.630 -1.9401  0.0282  2.4330
   46SOL     MW  184   0.546   1.100   0.605 -0.6045  0.0051  0.8988
   47SOL     OW  185   0.197   1.963   1.955 -0.1560  0.2392 -0.0588
   47SOL    HW1  186   0.194   1.882   1.901 -3.0819  1.4789 -0.8796
   47SOL    HW2  187   0.145   1.956   2.038  0.8807  0.1668  0.4164
   47SOL     MW  188   0.189   1.952   1.959 -0.4052  0.3932 -0.1044
   48SOL     OW  189   1.128   0.512   1.025  0.0215 -0.0968 -0.3093
   48SOL    HW1  190   1.038   0.529   1.051  2.8042 -0.2876  1.7581
   48SOL    HW2  191   1.173   0.594   1.047  4.5658  0.2311  0.3355
   48SOL     MW  192   1.122   0.525   1.032  0.9882 -0.0787  0.0486
   49SOL     OW  193   1.706   0.633   1.519 -0.3043 -0.4445 -0.0978
   49SOL    HW1  194   1.709   0.590   1.605  1.5835  0.4828  0.0281
   49SOL    HW2  195   1.727   0.564   1.458 -0.0901  0.6753  0.1092
   49SOL     MW  196   1.709   0.618   1.522 -0.0269 -0.1744 -0.0539
   50SOL     OW  197   1.262   1.157   0.573  0.3307  0.3036  0.2646
   50SOL    HW1  198   1.217   1.144   0.661  0.1125  0.6838  2.1310
   50SOL    HW2  199   1.322   1.079   0.568  0.3352  1.9582 -1.1298
   50SOL     MW  200   1.264   1.145   0.584  0.3025  0.5721  0.3269
   51SOL     OW  201   0.329   2.930   0.894  0.7024 -0.8550 -0.1263
   51SOL    HW1  202   0.410   2.881   0.876 -1.1449  1.3372 -0.6932
   51SOL    HW2  203   0.334   2.957   0.986  1.1016  0.5335  0.6756
   51SOL     MW  204   0.340   2.927   0.904  0.5113 -0.3826 -0.0953
   52SOL     OW  205   0.795   1.809   0.470  0.4892  0.4937 -0.0823
   52SOL    HW1  206   0.763   1.900   0.462 -0.1235  0.7372  0.5110
   52SOL    HW2  207   0.801   1.763   0.386 -1.8273  0.2754 -0.3715
   52SOL     MW  208   0.792   1.815   0.458  0.1027  0.4970 -0.0422
   53SOL     OW  209   0.435   2.148   0.509  0.1794  0.4961 -0.4328
   53SOL    HW1  210   0.355   2.139   0.465  0.9782  1.1617  1.9418
   53SOL    HW2  211   0.433   2.241   0.543  0.8303 -0.1337  1.4024
   53SOL     MW  212   0.424   2.159   0.508  0.3706  0.5008  0.1227
   54SOL     OW  213   2.074   0.926   0.772 -0.2553 -0.2574  0.0705
   54SOL    HW1  214   2.141   0.911   0.704  1.2096 -0.5457  2.5613
   54SOL    HW2  215   2.052   0.838   0.807 -0.9476  0.4182 -0.0043
   54SOL     MW  216   2.080   0.912   0.767 -0.1534 -0.2063  0.3892
   55SOL     OW  217   0.521   1.570   1.655 -0.7383 -0.4939  0.0240
   55SOL    HW1  218   0.458   1.624   1.603  1.0432  0.7752 -0.1519
   55SOL    HW2  219   0.557   1.492   1.616  1.4238 -0.2361 -2.1189
   55SOL     MW  220   0.517   1.567   1.643 -0.2180 -0.2924 -0.2819
   56SOL     OW  221   0.614   0.873   0.149  0.4222 -0.0216  0.3062
   56SOL    HW1  222   0.616   0.957   0.108  0.7144  0.4243  1.3191
   56SOL    HW2  223   0.537   0.830   0.111  0.0593 -1.0902  1.1850
   56SOL     MW  224   0.604   0.878   0.139  0.4129 -0.1038  0.5558
   57SOL     OW  225   1.193   1.218   1.172 -0.0343  0.0662 -0.4169
   57SOL    HW1  226   1.280   1.250   1.190 -0.6471  2.3772  1.6310
   57SOL    HW2  227   1.153   1.206   1.258  0.2797  1.0712  1.7295
   57SOL     MW  228   1.199   1.221   1.186 -0.0737  0.5037  0.1365
   58SOL     OW  229   0.527   1.250   1.281  0.3966  0.2552 -0.1478
   58SOL    HW1  230   0.461   1.320   1.275 -1.5196  0.7392 -3.3836
   58SOL    HW2  231   0.517   1.228   1.372  1.0487  2.2823 -0.3125
   58SOL     MW  232   0.517   1.256   1.292  0.2298  0.5865 -0.5964
   59SOL     OW  233   1.511   1.692   0.333 -0.3255 -0.2455  0.2186
   59SOL    HW1  234   1.538   1.758   0.399  2.4692  1.9988 -0.4717
   59SOL    HW2  235   1.451   1.639   0.385  0.2951  1.0652  0.4055
   59SOL     MW  236   1.507   1.694   0.348  0.1251  0.2235  0.1522
   60SOL     OW  237   3.077   0.182   1.704 -0.1292 -1.0292  0.0260
   60SOL    HW1  238   3.014   0.253   1.736  0.4363  3.2839  1.7241
   60SOL    HW2  239   3.101   0.122   1.775  2.1376 -1.8575  3.3121
   60SOL     MW  240   3.072   0.183   1.718  0.2445 -0.5694  0.6836
   61SOL     OW  241   1.978   1.390   3.024  0.1450 -0.1225 -0.9144
   61SOL    HW1  242   1.986   1.398   3.125  0.6114 -0.4553  0.4705
   61SOL    HW2  243   2.040   1.323   3.003 -2.2107  0.6449  2.9815
   61SOL     MW  244   1.987   1.382   3.034 -0.1043 -0.0652 -0.2177
   62SOL     OW  245   0.546   1.719   0.531 -0.0697  0.2306  0.2027
   62SOL    HW1  246   0.634   1.744   0.537 -2.1824  1.1040  2.6424
   62SOL    HW2  247   0.531   1.623   0.530 -1.3689 -0.5887  1.1928
   62SOL     MW  248   0.556   1.710   0.532 -0.5199  0.2377  0.6552
   63SOL     OW  249   1.717   0.642   0.672  0.4563 -0.0951 -0.3949
   63SOL    HW1  250   1.706   0.732   0.639  1.8892 -0.6964 -1.8210
   63SOL    HW2  251   1.629   0.620   0.710 -0.6053  0.3093 -0.0046
   63SOL     MW  252   1.704   0.651   0.673  0.5053 -0.1211 -0.5316
   64SOL     OW  253   0.287   1.682   0.761 -0.6158  0.0468  0.1749
   64SOL    HW1  254   0.344   1.749   0.725 -2.2667 -1.7610 -2.3803
   64SOL    HW2  255   0.220   1.729   0.815 -0.3783 -0.1217  1.1013
   64SOL     MW  256   0.286   1.697   0.764 -0.8023 -0.2139 -0.0400
   65SOL     OW  257   1.571   2.319   0.390 -0.0488 -0.4967 -0.7797
   65SOL    HW1  258   1.660   2.356   0.404 -0.9155  1.5408 -0.0937
   65SOL    HW2  259   1.524   2.347   0.473 -2.7362 -0.4676  0.2072
   65SOL     MW  260   1.576   2.328   0.403 -0.5177 -0.2240 -0.5590
   66SOL     OW  261   0.341   0.541   0.461  0.1592  0.6407 -0.1551
   66SOL    HW1  262   0.403   0.546   0.386  3.0430  1.1472  3.0159
   66SOL    HW2  263   0.324   0.637   0.483  1.9461  0.9637  1.3284
   66SOL     MW  264   0.347   0.554   0.454  0.7755  0.7501  0.4590
   67SOL     OW  265   1.466   0.136   1.989  0.4676 -0.4875 -0.3410
   67SOL    HW1  266   1.502   0.165   1.902  1.1511 -0.9782 -1.1800
   67SOL    HW2  267   1.412   0.060   1.969 -2.9420 -0.2304  1.3106
   67SOL     MW  268   1.463   0.130   1.975  0.1079 -0.5183 -0.2338
   68SOL     OW  269   0.786   0.024   2.955 -0.5479 -0.5020  0.3974
   68SOL    HW1  270   0.792   0.095   2.889  1.8298 -2.1251 -2.3626
   68SOL    HW2  271   0.865   0.046   3.011  0.1400  1.7682  1.7963
   68SOL     MW  272   0.798   0.036   2.953 -0.1434 -0.4167  0.2178
   69SOL     OW  273   0.954   0.202   1.953 -0.2724 -0.1672  0.0703
   69SOL    HW1  274   1.046   0.221   1.986  0.5237 -2.3143  1.1596
   69SOL    HW2  275   0.936   0.118   1.991  1.0914  0.7716 -1.9581
   69SOL     MW  276   0.964   0.193   1.962  0.0126 -0.3266 -0.0536
   70SOL     OW  277   0.484   1.709   1.087 -0.3879 -0.2388 -0.3223
   70SOL    HW1  278   0.540   1.762   1.145  0.6223  1.4976 -0.8630
   70SOL    HW2  279   0.546   1.659   1.029 -2.4172 -1.3237 -1.8035
   70SOL     MW  280   0.500   1.709   1.087 -0.5224 -0.1528 -0.5890
   71SOL     OW  281   1.543   0.531   1.168 -0.6219 -0.1056  0.4140
   71SOL    HW1  282   1.513   0.602   1.221 -0.6597  0.5000 -1.2124
   71SOL    HW2  283   1.549   0.565   1.081  0.2226  1.1748  1.0680
   71SOL     MW  284   1.540   0.545   1.163 -0.5155  0.1433  0.2857
   72SOL     OW  285   0.783   1.868   0.994 -0.2860  0.3937  0.2141
   72SOL    HW1  286   0.748   1.928   0.930 -0.1647 -1.3691  0.0594
   72SOL    HW2  287   0.780   1.775   0.963  1.0690  0.3924  0.0852
   72SOL     MW  288   0.778   1.864   0.982 -0.0912  0.1609  0.1766
   73SOL     OW  289   1.234   0.679   1.317 -0.4085 -0.0580  0.3787
   73SOL    HW1  290   1.179   0.605   1.325  3.5256 -1.8710 -1.5034
   73SOL    HW2  291   1.179   0.752   1.355 -3.3786  1.0107 -1.3913
   73SOL     MW  292   1.220   0.679   1.323 -0.2814 -0.1562 -0.1032
   74SOL     OW  293   2.871   0.252   1.075  0.2609 -0.1918 -0.4625
   74SOL    HW1  294   2.948   0.290   1.043 -1.3566 -3.0975 -1.7265
   74SOL    HW2  295   2.802   0.269   1.010 -0.3923  0.4759 -3.0130
   74SOL     MW  296   2.872   0.259   1.062 -0.0387 -0.4871 -0.9658
   75SOL     OW  297   1.582   1.330   0.115  0.2335 -0.5713  0.0591
   75SOL    HW1  298   1.652   1.262   0.094 -0.5610 -0.3149  1.6867
   75SOL    HW2  299   1.592   1.345   0.215  0.6476  1.5454 -0.7974
   75SOL     MW  300   1.592   1.323   0.126  0.1833 -0.2582  0.1608
   76SOL     OW  301   2.969   0.596   0.457  0.0100 -0.2148  0.2334
   76SOL    HW1  302   3.022   0.630   0.531 -0.5892  0.0524  1.3313
   76SOL    HW2  303   3.038   0.549   0.413 -0.5816 -0.3637 -0.3959
   76SOL     MW  304   2.985   0.594   0.461 -0.1471 -0.1992  0.2953
   77SOL     OW  305   0.889   0.537   0.438  0.6388  0.0746 -0.5236
   77SOL    HW1  306   0.836   0.555   0.359  2.5870  0.0868 -1.1510
   77SOL    HW2  307   0.899   0.440   0.449  1.3881  0.9546 -1.3391
   77SOL     MW  308   0.883   0.526   0.429  0.9947  0.1923 -0.7140
   78SOL     OW  309   0.768   0.855   1.156  0.0119  0.5950 -0.4953
   78SOL    HW1  310   0.820   0.908   1.090  2.1707  1.6671 -2.0797
   78SOL    HW2  311   0.670   0.875   1.142  0.4036  0.3771  1.7035
   78SOL     MW  312   0.762   0.865   1.145  0.3484  0.7077 -0.4142
   79SOL     OW  313   1.904   1.647   0.635 -0.2583  0.4466  0.5362
   79SOL    HW1  314   1.818   1.619   0.608  1.3045  1.8174 -0.3855
   79SOL    HW2  315   1.913   1.622   0.731  1.5802 -0.4589 -0.5851
   79SOL     MW  316   1.894   1.640   0.644  0.1904  0.5080  0.2667
   80SOL     OW  317   0.087   0.955   0.364 -0.1797 -0.1484  0.1217
   80SOL    HW1  318   0.006   0.913   0.341  1.4628 -1.3365  0.9888
   80SOL    HW2  319   0.139   0.898   0.420 -0.1605  0.1217  3.0132
   80SOL     MW  320   0.083   0.942   0.369  0.0396 -0.2695  0.6176
   81SOL     OW  321   1.866   1.879   0.324  0.2513  0.5651  0.1137
   81SOL    HW1  322   1.830   1.791   0.295 -0.2515 -3.3219 -1.0404
   81SOL    HW2  323   1.810   1.947   0.273 -0.1606 -0.5741 -0.2852
   81SOL     MW  324   1.854   1.877   0.313  0.1306 -0.0981 -0.0912
   82SOL     OW  325   0.854   1.038   0.512  0.4040  0.5979  0.1335
   82SOL    HW1  326   0.870   1.058   0.418 -0.7382 -0.3226 -0.1478
   82SOL    HW2  327   0.819   0.946   0.504  1.2085 -2.8675  2.5933
   82SOL     MW  328   0.852   1.028   0.498  0.3594  0.0192  0.4210
   83SOL     OW  329   0.042   0.743   1.506  0.0055 -0.2313 -0.4282
   83SOL    HW1  330   0.062   0.763   1.416 -1.9904  1.3515 -0.4038
   83SOL    HW2  331   0.114   0.682   1.535  1.2240 -1.0560  2.1984
   83SOL     MW  332   0.054   0.738   1.498 -0.0971 -0.1313 -0.0784
   84SOL     OW  333   0.049   0.198   0.897  0.0313 -0.0098 -0.3951
   84SOL    HW1  334   0.056   0.296   0.905  1.4780  2.0051  0.9210
   84SOL    HW2  335   0.040   0.160   0.986  2.2975 -1.2169  1.1194
   84SOL     MW  336   0.049   0.206   0.910  0.5212  0.0968 -0.0216
   85SOL     OW  337   0.408   0.441   0.720 -0.3703 -0.2552 -0.2913
   85SOL    HW1  338   0.396   0.456   0.631  1.6685  0.7208  0.2823
   85SOL    HW2  339   0.365   0.354   0.740  0.4987 -1.3848 -2.1547
   85SOL     MW  340   0.401   0.431   0.711  0.0134 -0.2755 -0.4615
   86SOL     OW  341   1.184   0.243   1.123 -0.2534 -0.1069  0.3292
   86SOL    HW1  342   1.161   0.319   1.070 -1.7152  0.4135 -0.6749
   86SOL    HW2  343   1.271   0.247   1.151 -1.4888  0.2070 -3.6028
   86SOL     MW  344   1.192   0.253   1.120 -0.6093  0.0032 -0.3221
   87SOL     OW  345   1.082   1.483   1.208 -0.8465  0.1602 -0.1075
   87SOL    HW1  346   1.132   1.544   1.152 -1.4124  0.0855  2.9020
   87SOL    HW2  347   1.109   1.401   1.179  2.5439  1.2105  0.5803
   87SOL     MW  348   1.092   1.480   1.197 -0.4739  0.2889  0.3803
   88SOL     OW  349   1.222   1.013   0.995  0.0784  0.4533 -0.2858
   88SOL    HW1  350   1.316   1.017   0.969  0.7110  0.8371  2.0906
   88SOL    HW2  351   1.221   1.081   1.069 -0.7546  2.7084  1.1476
   88SOL     MW  352   1.234   1.023   1.001  0.0520  0.8015  0.2169
   89SOL     OW  353   1.731   0.733   0.374 -0.3110  0.0557  0.7441
   89SOL    HW1  354   1.730   0.670   0.445 -0.5308  1.9290  1.9021
   89SOL    HW2  355   1.818   0.738   0.341  0.5506 -0.4324 -0.5000
   89SOL     MW  356   1.742   0.725   0.379 -0.2263  0.2385  0.7328
   90SOL     OW  357   0.828   1.167   2.891  0.6155  0.1820  0.2222
   90SOL    HW1  358   0.854   1.073   2.873 -3.9158 -1.6986 -0.1349
   90SOL    HW2  359   0.851   1.203   2.983  1.6402 -0.3876  0.3901
   90SOL     MW  360   0.834   1.159   2.901  0.1528 -0.1413  0.1972
   91SOL     OW  361   2.178   0.651   0.477  0.3440  0.2896 -0.5123
   91SOL    HW1  362   2.263   0.688   0.438  1.2398 -1.0774 -0.7728
   91SOL    HW2  363   2.185   0.562   0.444 -0.1454 -1.6986  0.2812
   91SOL     MW  364   2.190   0.644   0.468  0.3977 -0.1531 -0.4420
   92SOL     OW  365   1.668   0.906   0.568 -0.6078  0.1469 -0.5898
   92SOL    HW1  366   1.581   0.940   0.602 -1.1110 -1.2087  0.3279
   92SOL    HW2  367   1.662   0.866   0.478  0.6964  1.5560 -0.1803
   92SOL     MW  368   1.656   0.905   0.560 -0.5021  0.1539 -0.4147
   93SOL     OW  369   1.128   0.173   0.434 -0.0932  0.6873 -0.0879
   93SOL    HW1  370   1.037   0.200   0.439 -0.2095 -0.1679  0.1308
   93SOL    HW2  371   1.142   0.200   0.343 -0.3524  1.0154 -0.5108
   93SOL     MW  372   1.118   0.180   0.423 -0.1427  0.6178 -0.1148
   94SOL     OW  373   1.858   1.360   1.593 -0.4363 -0.5482 -0.0214
   94SOL    HW1  374   1.863   1.346   1.499  0.2364  0.2106  2.5474
   94SOL    HW2  375   1.820   1.281   1.631  1.7837  0.4940  1.6509
   94SOL     MW  376   1.854   1.348   1.586 -0.0546 -0.3106  0.5382
   95SOL     OW  377   0.680   1.588   0.929 -0.8088 -0.5340  0.1125
   95SOL    HW1  378   0.714   1.538   1.007  0.3924 -1.1622 -1.6000
   95SOL    HW2  379   0.629   1.520   0.888  0.3102  0.1133 -1.5089
   95SOL     MW  380   0.678   1.573   0.934 -0.5027 -0.5315 -0.3274
   96SOL     OW  381   1.329   1.876   1.723  0.0509  0.1367 -0.1731
   96SOL    HW1  382   1.232   1.869   1.720  2.4667 -1.0436 -0.9694
   96SOL    HW2  383   1.356   1.793   1.691 -0.7830  0.6395  0.5689
   96SOL     MW  384   1.319   1.864   1.718  0.2596  0.0473 -0.1803
   97SOL     OW  385   1.116   1.461   0.846  0.0950 -0.0379  0.0647
   97SOL    HW1  386   1.127   1.533   0.906  2.1989 -0.6588  0.0576
   97SOL    HW2  387   1.051   1.495   0.786  2.1812 -0.2418  1.0244
   97SOL     MW  388   1.109   1.475   0.846  0.6478 -0.1467  0.1904
   98SOL     OW  389   1.439   1.323   1.159 -0.7003  0.3715 -0.1580
   98SOL    HW1  390   1.464   1.362   1.240  0.2743  1.7771 -0.9501
   98SOL    HW2  391   1.450   1.395   1.091  0.2265 -0.7312  2.6169
   98SOL     MW  392   1.444   1.338   1.161 -0.4494  0.4114  0.1036
   99SOL     OW  393   1.467   0.286   1.251 -0.0926  0.2303  0.2274
   99SOL    HW1  394   1.481   0.367   1.201 -1.2007  0.4519  0.7966
   99SOL    HW2  395   1.471   0.316   1.343  3.0713 -0.9574 -2.8540
   99SOL     MW  396   1.469   0.300   1.257  0.1786  0.1029 -0.1041
  100SOL     OW  397   1.032   1.163   1.408 -0.5568  0.2757 -0.1057
  100SOL    HW1  398   1.061   1.197   1.492  0.4707 -0.6861  0.9329
  100SOL    HW2  399   1.047   1.071   1.410 -1.0145  0.1914 -0.1061
  100SOL     MW  400   1.038   1.156   1.419 -0.4816  0.1377  0.0313
  101SOL     OW  401   0.510   1.202   0.361  0.6406 -0.4981 -0.1416
  101SOL    HW1  402   0.439   1.143   0.335  0.9067 -0.4613  3.5871
  101SOL    HW2  403   0.599   1.190   0.319  2.0399 -1.0811 -0.6011
  101SOL     MW  404   0.512   1.193   0.352  0.8603 -0.5702  0.2898
  102SOL     OW  405   2.903   0.640   1.010 -0.0384 -0.2800  0.6637
  102SOL    HW1  406   2.901   0.733   1.010 -0.0427 -0.1179  0.9465
  102SOL    HW2  407   2.876   0.621   1.105 -1.4090  0.5747 -2.2679
  102SOL     MW  408   2.899   0.650   1.022 -0.2198 -0.1459  0.3142
  103SOL     OW  409   1.829   0.240   1.855  0.0344 -0.6430 -0.9173
  103SOL    HW1  410   1.827   0.147   1.847  2.0496 -1.0203 -0.9274
  103SOL    HW2  411   1.845   0.255   1.946  0.4792 -0.4656 -2.1653
  103SOL     MW  412   1.831   0.230   1.866  0.3590 -0.6694 -1.0833
  104SOL     OW  413   0.094   1.513   1.582 -0.1280 -0.0566  0.0644
  104SOL    HW1  414   0.157   1.475   1.636  0.2818  2.5569 -0.3950
  104SOL    HW2  415   0.008   1.481   1.602 -2.3698  1.0833 -2.7674
  104SOL     MW  416   0.091   1.504   1.592 -0.3697  0.4386 -0.3699
  105SOL     OW  417   0.003   1.216   0.422  0.0202  0.4515 -0.0571
  105SOL    HW1  418   0.016   1.122   0.399 -0.5438 -0.3920 -3.4893
  105SOL    HW2  419   0.087   1.252   0.431 -1.9647 -0.0828  2.1528
  105SOL     MW  420   0.016   1.208   0.420 -0.3161  0.2697 -0.2184
  106SOL     OW  421   0.785   0.421   0.908 -0.5596  0.0460 -0.0846
  106SOL    HW1  422   0.701   0.462   0.894 -1.1035  0.3219 -1.7997
  106SOL    HW2  423   0.835   0.418   0.825 -1.2246 -0.3702  1.0410
  106SOL     MW  424   0.781   0.426   0.895 -0.7191  0.0275 -0.1624
  107SOL     OW  425   0.813   2.113   2.910  0.6464 -0.0211 -0.0363
  107SOL    HW1  426   0.725   2.112   2.866  1.4267  2.3185  1.0189
  107SOL    HW2  427   0.808   2.146   2.997  1.5029 -2.4293 -1.2927
  107SOL     MW  428   0.801   2.117   2.916  0.8623 -0.0301 -0.0628
  108SOL     OW  429   1.358   1.617   1.639  0.5853 -0.3465  0.1561
  108SOL    HW1  430   1.294   1.557   1.597 -1.9603 -2.2902 -5.3513
  108SOL    HW2  431   1.439   1.571   1.628 -2.2071  0.1290  0.1202
  108SOL     MW  432   1.361   1.603   1.632 -0.1190 -0.5402 -0.5753
  109SOL     OW  433   1.999   0.745   0.247  0.7493 -0.4439 -0.3239
  109SOL    HW1  434   2.020   0.837   0.243 -1.3330 -0.8312 -0.8076
  109SOL    HW2  435   2.066   0.714   0.308 -1.2566 -1.7031  1.7566
  109SOL     MW  436   2.011   0.753   0.254  0.2099 -0.6611 -0.1132
  110SOL     OW  437   0.410   1.931   0.681  0.0353 -0.2892  0.7672
  110SOL    HW1  438   0.455   1.854   0.644 -1.5855  2.0490  1.9494
  110SOL    HW2  439   0.441   2.010   0.629 -1.3920  2.4954  1.5904
  110SOL     MW  440   0.420   1.931   0.669 -0.3669  0.3867  1.0318
  111SOL     OW  441   0.781   0.889   1.444  0.0077  0.3430 -0.3311
  111SOL    HW1  442   0.757   0.888   1.350  0.1366  1.6924  1.4495
  111SOL    HW2  443   0.770   0.799   1.474  0.8709 -0.7547  0.1864
  111SOL     MW  444   0.776   0.877   1.436  0.1386  0.3762 -0.0279
  112SOL     OW  445   1.337   1.077   1.619  0.7409  0.1197  0.0215
  112SOL    HW1  446   1.284   1.154   1.627 -1.2158  0.9956  0.3553
  112SOL    HW2  447   1.280   1.004   1.645 -1.8948  1.8846  1.9199
  112SOL     MW  448   1.323   1.077   1.624  0.1350  0.4681  0.3160
  113SOL     OW  449   1.250   3.078   1.681 -0.2181 -0.2046 -0.5421
  113SOL    HW1  450   1.255   3.035   1.771  0.7620 -1.3833  1.3863
  113SOL    HW2  451   1.264   3.005   1.618 -3.6940 -1.7079 -0.4746
  113SOL     MW  452   1.253   3.063   1.684 -0.5474 -0.5584 -0.2787
  114SOL     OW  453   0.260   2.865   1.872 -0.0204  0.0057 -0.2694
  114SOL    HW1  454   0.309   2.917   1.940  1.0570 -0.7220  1.2217
  114SOL    HW2  455   0.189   2.915   1.854 -0.9585 -0.6104 -0.1995
  114SOL     MW  456   0.257   2.878   1.878 -0.0020 -0.1716 -0.0634
  115SOL     OW  457   0.450   0.807   1.142  0.0223 -0.0686 -0.3568
  115SOL    HW1  458   0.466   0.717   1.178 -0.1144 -0.2189  0.7341
  115SOL    HW2  459   0.418   0.869   1.217 -2.8435 -2.3352  3.8408
  115SOL     MW  460   0.448   0.803   1.156 -0.3738 -0.3875  0.3410
  116SOL     OW  461   0.815   1.081   0.991 -0.1305  0.3862  0.5991
  116SOL    HW1  462   0.816   1.107   0.898 -0.5024  1.2785 -0.0723
  116SOL    HW2  463   0.850   1.150   1.040  0.4801 -1.5300  2.3637
  116SOL     MW  464   0.820   1.093   0.985 -0.0990  0.2511  0.7433
  117SOL     OW  465   1.101   1.179   0.808  0.1090 -0.3983  0.1503
  117SOL    HW1  466   1.157   1.131   0.866 -0.9472  0.7980 -2.5553
  117SOL    HW2  467   1.116   1.277   0.829 -2.5157 -1.0467 -0.6522
  117SOL     MW  468   1.110   1.186   0.818 -0.3767 -0.3260 -0.3126
  118SOL     OW  469   3.037   2.976   1.691  0.1230  0.2526  0.1506
  118SOL    HW1  470   3.096   3.044   1.733 -1.2757  2.0920  1.7850
  118SOL    HW2  471   2.949   2.995   1.736 -1.3943 -0.0328 -0.2516
  118SOL     MW  472   3.034   2.988   1.703 -0.2618  0.4576  0.3132
  119SOL     OW  473   0.415   1.486   1.265 -0.3024  0.2708 -0.0537
  119SOL    HW1  474   0.450   1.568   1.228  0.3983 -2.5617 -2.2075
  119SOL    HW2  475   0.319   1.485   1.239 -2.2262  0.2183 -0.0976
  119SOL     MW  476   0.406   1.497   1.257 -0.4638 -0.1099 -0.3437
  120SOL     OW  477   0.193   0.763   1.026  0.1686  0.6783  0.2159
  120SOL    HW1  478   0.148   0.777   1.110  0.5534 -3.4706 -0.1669
  120SOL    HW2  479   0.282   0.734   1.042 -2.2875  1.0286  1.1655
  120SOL     MW  480   0.199   0.761   1.039 -0.1047  0.1771  0.2907
  121SOL     OW  481   1.764   1.115   1.673  0.3972  0.7479 -0.1055
  121SOL    HW1  482   1.679   1.094   1.637 -1.7218  3.1896 -2.9595
  121SOL    HW2  483   1.821   1.051   1.624 -1.8062  0.1047 -1.1329
  121SOL     MW  484   1.761   1.104   1.662 -0.1731  0.9852 -0.6176
  122SOL     OW  485   0.186   0.567   0.825 -0.4234  0.2819 -0.5757
  122SOL    HW1  486   0.263   0.530   0.779 -1.1651  0.0583 -1.2759
  122SOL    HW2  487   0.216   0.636   0.881 -0.0960 -0.9265  0.1536
  122SOL     MW  488   0.200   0.572   0.826 -0.4780  0.0930 -0.5718
  123SOL     OW  489   1.837   1.096   0.469 -0.1918 -0.3133  0.5900
  123SOL    HW1  490   1.772   1.044   0.517 -1.1759  0.9085 -2.1767
  123SOL    HW2  491   1.900   1.119   0.531 -0.5475  0.7628  0.0958
  123SOL     MW  492   1.836   1.092   0.484 -0.3685 -0.0101  0.1598
  124SOL     OW  493   0.517   0.569   0.924 -0.1328  0.4175  0.7225
  124SOL    HW1  494   0.480   0.521   0.849  0.4404 -0.3346 -0.8922
  124SOL    HW2  495   0.576   0.633   0.881 -2.7462  0.2183 -0.9408
  124SOL     MW  496   0.520   0.571   0.908 -0.4020  0.2920  0.2900
  125SOL     OW  497   0.739   1.778   1.715  0.3893 -0.0911  0.2387
  125SOL    HW1  498   0.713   1.699   1.666 -0.1450  1.1166 -0.3544
  125SOL    HW2  499   0.688   1.854   1.672 -0.8855  1.8263  0.6445
  125SOL     MW  500   0.729   1.777   1.703  0.1506  0.3212  0.2140
  126SOL     OW  501   2.149   1.537   1.958  0.4218 -0.6587 -0.3654
  126SOL    HW1  502   2.193   1.626   1.944  1.5327 -1.2354 -0.5953
  126SOL    HW2  503   2.220   1.471   1.954 -1.8093 -2.6003 -1.9575
  126SOL     MW  504   2.164   1.540   1.955  0.2740 -0.9910 -0.6058
  127SOL     OW  505   0.582   0.861   1.792  0.0594  0.3239 -0.2066
  127SOL    HW1  506   0.667   0.821   1.805 -0.8298 -1.4829 -0.6982
  127SOL    HW2  507   0.567   0.932   1.862  1.6291  2.2542 -0.3969
  127SOL     MW  508   0.591   0.865   1.803  0.1492  0.3402 -0.2966
  128SOL     OW  509   1.676   0.721   2.904  0.1456 -0.1352 -0.2333
  128SOL    HW1  510   1.719   0.688   2.820 -0.8097 -1.5250 -2.0869
  128SOL    HW2  511   1.697   0.815   2.908 -1.2252  0.7323  0.0193
  128SOL     MW  512   1.684   0.729   2.893 -0.1613 -0.2041 -0.4445
  129SOL     OW  513   1.623   0.941   0.154 -0.4195  0.1240  0.2573
  129SOL    HW1  514   1.541   0.889   0.150 -1.8242 -1.3952  1.7151
  129SOL    HW2  515   1.665   0.890   0.225  0.8632 -0.4840  2.4676
  129SOL     MW  516   1.618   0.928   0.163 -0.4356 -0.1566  0.7413
  130SOL     OW  517   0.804   1.372   0.312 -0.2811  0.4006 -0.3255
  130SOL    HW1  518   0.805   1.368   0.413 -0.3769  0.7045  0.7504
  130SOL    HW2  519   0.826   1.462   0.289 -2.0326 -0.7809 -0.1999
  130SOL     MW  520   0.807   1.383   0.322 -0.5248  0.2848 -0.1670
  131SOL     OW  521   3.048   0.820   3.094  0.2783 -0.3983  0.4212
  131SOL    HW1  522   3.050   0.859   2.998 -1.2893  2.4470 -0.3062
  131SOL    HW2  523   3.130   0.858   3.125 -1.7416 -0.4514  0.2345
  131SOL     MW  524   3.059   0.830   3.086 -0.1950 -0.0299  0.3006
  132SOL     OW  525   2.739   0.145   1.302  0.1381  0.0494 -0.0767
  132SOL    HW1  526   2.766   0.191   1.223  2.3246  2.2507  1.2873
  132SOL    HW2  527   2.649   0.131   1.303 -0.5382  0.9888 -0.5728
  132SOL     MW  528   2.731   0.149   1.292  0.3373  0.4638  0.0378
  133SOL     OW  529   1.060   0.172   1.693  0.2658  0.7449 -0.5067
  133SOL    HW1  530   1.134   0.110   1.705  0.6099  1.5066  0.5708
  133SOL    HW2  531   0.997   0.152   1.763  2.6622  2.9732  2.2781
  133SOL     MW  532   1.061   0.161   1.704  0.6274  1.1394  0.0029
  134SOL     OW  533   1.413   2.453   1.425  0.1967 -0.4082  0.2348
  134SOL    HW1  534   1.337   2.506   1.400 -1.7415  0.2693 -2.2739
  134SOL    HW2  535   1.451   2.483   1.508  1.6256 -0.5313 -1.7943
  134SOL     MW  536   1.408   2.464   1.433  0.1295 -0.3350 -0.3639
  135SOL     OW  537   3.049   0.984   2.869  0.4050  0.1665  0.3985
  135SOL    HW1  538   3.118   1.044   2.893 -3.9223  0.9667 -0.6199
  135SOL    HW2  539   2.973   1.043   2.864  1.0311 -0.4164 -1.3988
  135SOL     MW  540   3.048   1.000   2.871 -0.0834  0.1952  0.0270
  136SOL     OW  541   0.217   2.063   0.856  0.0740 -0.3988  0.1822
  136SOL    HW1  542   0.156   1.985   0.839 -0.8055 -1.4719  1.1225
  136SOL    HW2  543   0.283   2.033   0.801  1.5838  1.6791  3.4021
  136SOL     MW  544   0.218   2.049   0.847  0.1572 -0.2662  0.7311
  137SOL     OW  545   0.693   2.066   0.556 -0.2915  0.2569 -0.4241
  137SOL    HW1  546   0.701   2.049   0.655  0.7756 -0.1162 -1.3976
  137SOL    HW2  547   0.599   2.083   0.540  0.5066  0.4334 -1.8522
  137SOL     MW  548   0.682   2.066   0.567 -0.0454  0.2310 -0.7409
  138SOL     OW  549   0.483   0.519   1.193 -0.9473 -0.3524  0.0301
  138SOL    HW1  550   0.396   0.513   1.224  1.2293 -0.7947  0.6540
  138SOL    HW2  551   0.489   0.507   1.093 -0.8227 -4.5033 -0.0652
  138SOL     MW  552   0.472   0.516   1.184 -0.6437 -0.9585  0.0998
  139SOL     OW  553   2.840   0.552   1.271 -0.8998  0.6677  0.1321
  139SOL    HW1  554   2.906   0.499   1.314 -0.8873 -2.1766  1.9112
  139SOL    HW2  555   2.840   0.634   1.323  1.6640  1.2631  0.4137
  139SOL     MW  556   2.849   0.556   1.283 -0.5599  0.3710  0.4040
  140SOL     OW  557   0.912   0.470   2.005 -0.8375  0.0669 -0.3513
  140SOL    HW1  558   0.925   0.376   1.973  0.8960  0.4098  1.0336
  140SOL    HW2  559   0.890   0.466   2.101  1.0496 -1.0523  0.7871
  140SOL     MW  560   0.911   0.457   2.013 -0.3598 -0.0355 -0.0184
  141SOL     OW  561   0.982   0.639   1.681  0.0857  0.1355 -0.3201
  141SOL    HW1  562   1.015   0.549   1.668 -0.5676  2.4235  1.0171
  141SOL    HW2  563   1.059   0.694   1.692  1.4650  1.9363 -0.4272
  141SOL     MW  564   0.997   0.634   1.681  0.1815  0.6750 -0.1578
  142SOL     OW  565   0.834   1.174   0.736  0.4012 -0.0194  0.0768
  142SOL    HW1  566   0.830   1.109   0.664  3.3020 -0.6464  0.6250
  142SOL    HW2  567   0.924   1.177   0.758  0.1105 -1.6903 -1.8187
  142SOL     MW  568   0.846   1.166   0.729  0.7456 -0.3226 -0.1010
  143SOL     OW  569   1.823   0.675   1.091  0.1200  0.2920  0.0803
  143SOL    HW1  570   1.873   0.686   1.009 -1.6397 -1.2061 -0.5114
  143SOL    HW2  571   1.735   0.677   1.053  0.9858 -1.8401 -0.7234
  143SOL     MW  572   1.818   0.677   1.075  0.0021 -0.1870 -0.1038
  144SOL     OW  573   0.293   1.362   1.725  0.2772 -0.1777  0.4846
  144SOL    HW1  574   0.361   1.349   1.654 -0.1623  0.1914 -3.0192
  144SOL    HW2  575   0.349   1.346   1.809 -0.0212  2.1569  1.8570
  144SOL     MW  576   0.310   1.358   1.727  0.1798  0.1790  0.2034
  145SOL     OW  577   0.169   0.488   1.244 -0.1630 -0.3583  0.2442
  145SOL    HW1  578   0.218   0.404   1.236  0.0886  2.0253  2.2275
  145SOL    HW2  579   0.094   0.497   1.180 -1.5022 -1.3338  1.8537
  145SOL     MW  580   0.166   0.478   1.235 -0.3065 -0.1725  0.7183
  146SOL     OW  581   0.894   1.943   1.386  0.5140 -0.7080 -0.3456
  146SOL    HW1  582   0.921   1.962   1.298 -1.2397 -2.3388  0.3690
  146SOL    HW2  583   0.804   1.921   1.373  1.2397  0.6785  2.4054
  146SOL     MW  584   0.885   1.942   1.372  0.3784 -0.7403  0.1116
  147SOL     OW  585   0.419   0.520   2.950  0.5169  0.0929 -0.1158
  147SOL    HW1  586   0.353   0.527   3.019 -1.8481 -3.1676  0.0929
  147SOL    HW2  587   0.381   0.567   2.876  0.7275  2.1775  1.8960
  147SOL     MW  588   0.406   0.527   2.949  0.2326 -0.0623  0.1771
  148SOL     OW  589   0.052   0.871   1.223 -0.1884  0.3820 -0.2355
  148SOL    HW1  590   0.144   0.906   1.255  2.5691  0.1995  0.6166
  148SOL    HW2  591   0.000   0.932   1.278 -3.8314 -0.9298  2.7612
  148SOL     MW  592   0.057   0.883   1.234 -0.3053  0.1849  0.2723
  149SOL     OW  593   1.574   1.161   1.423  0.4474  0.0488  0.9298
  149SOL    HW1  594   1.500   1.138   1.480 -0.4181  2.1863 -1.0315
  149SOL    HW2  595   1.579   1.256   1.412 -0.8037 -0.7481  0.0061
  149SOL     MW  596   1.565   1.170   1.429  0.1681  0.2257  0.5491
  150SOL     OW  597   1.710   1.377   0.853 -0.3110 -0.2361  0.4251
  150SOL    HW1  598   1.769   1.302   0.839 -2.0529 -0.7029 -2.7316
  150SOL    HW2  599   1.766   1.456   0.858  2.5817  1.0949 -1.4814
  150SOL     MW  600   1.725   1.378   0.852 -0.1592 -0.1221 -0.2430
  151SOL     OW  601   1.691   1.848   0.802  0.3469  0.1370 -0.4475
  151SOL    HW1  602   1.658   1.860   0.715 -0.8044 -0.6993  1.2190
  151SOL    HW2  603   1.614   1.819   0.847  1.9255  0.6084  1.1823
  151SOL     MW  604   1.676   1.846   0.796  0.4032  0.0889 -0.0126
  152SOL     OW  605   0.774   1.419   1.634 -0.1477  0.0186 -0.2016
  152SOL    HW1  606   0.785   1.467   1.552  2.5505  0.5021  0.0612
  152SOL    HW2  607   0.786   1.322   1.605  0.0251  0.5303 -2.9080
  152SOL     MW  608   0.777   1.413   1.620  0.2311  0.1499 -0.5240
  153SOL     OW  609   2.560   1.228   0.770 -0.2255 -0.1464 -0.0181
  153SOL    HW1  610   2.617   1.168   0.721 -0.2467  1.3745 -0.2918
  153SOL    HW2  611   2.488   1.163   0.794 -2.6491 -0.1754 -0.0714
  153SOL     MW  612   2.558   1.211   0.767 -0.5480  0.0504 -0.0612
  154SOL     OW  613   0.121   1.756   1.722 -0.1048  0.3195  0.2541
  154SOL    HW1  614   0.103   1.675   1.668  1.6680 -1.6331  1.7863
  154SOL    HW2  615   0.206   1.724   1.749  1.0962 -0.3463  0.2780
  154SOL     MW  616   0.130   1.741   1.718  0.2876 -0.0260  0.4594
  155SOL     OW  617   1.179   0.743   0.321  0.2626  0.8935 -0.2102
  155SOL    HW1  618   1.145   0.722   0.412 -0.3795  0.8058  2.3839
  155SOL    HW2  619   1.184   0.840   0.318  3.4647  1.4244  1.3145
  155SOL     MW  620   1.175   0.753   0.332  0.6003  0.9520  0.3332
  156SOL     OW  621   1.567   3.043   1.100 -0.3332  0.4419  0.3789
  156SOL    HW1  622   1.636   3.086   1.156  0.3608 -1.0303  1.4755
  156SOL    HW2  623   1.621   2.974   1.062 -0.6402  1.3042  1.3531
  156SOL     MW  624   1.583   3.040   1.102 -0.2822  0.3615  0.6521
  157SOL     OW  625   1.370   1.144   0.111 -0.0547  0.2772 -0.8222
  157SOL    HW1  626   1.329   1.081   0.181  1.8865  0.8451  3.9539
  157SOL    HW2  627   1.450   1.191   0.135 -1.3246  3.2262 -0.3710
  157SOL     MW  628   1.375   1.142   0.123  0.0339  0.7412 -0.1325
  158SOL     OW  629   0.430   1.656   2.318  0.8347  0.4833 -0.1386
  158SOL    HW1  630   0.416   1.701   2.236  2.4613  0.1159 -0.1115
  158SOL    HW2  631   0.361   1.688   2.378  0.5858  0.8109  0.0056
  158SOL     MW  632   0.419   1.666   2.315  1.0165  0.4780 -0.1160
  159SOL     OW  633   1.244   1.657   0.467  0.2054 -1.0380  0.1266
  159SOL    HW1  634   1.186   1.626   0.398 -1.9756  0.8181 -0.4208
  159SOL    HW2  635   1.196   1.720   0.515  1.4417  1.4416  0.0146
  159SOL     MW  636   1.230   1.661   0.464  0.0808 -0.4659  0.0396
  160SOL     OW  637   0.489   1.245   1.561  0.2840  0.3553 -0.2559
  160SOL    HW1  638   0.440   1.169   1.594  1.0020  1.6545 -0.8358
  160SOL    HW2  639   0.579   1.221   1.595  2.6306  1.0705  0.9958
  160SOL     MW  640   0.495   1.232   1.570  0.6883  0.6211 -0.1672
  161SOL     OW  641   0.460   2.179   2.566  0.2516  0.0634  0.3451
  161SOL    HW1  642   0.364   2.211   2.561 -1.1926  0.1360 -2.1219
  161SOL    HW2  643   0.462   2.115   2.495 -2.1927 -3.5062  0.5303
  161SOL     MW  644   0.448   2.174   2.556 -0.2614 -0.3980  0.0441
  162SOL     OW  645   1.056   1.835   1.845 -0.4632 -0.2132  0.0437
  162SOL    HW1  646   1.046   1.930   1.871 -0.7091 -0.4466  0.3062
  162SOL    HW2  647   0.982   1.777   1.869 -1.8264  0.3514  1.3194
  162SOL     MW  648   1.045   1.840   1.852 -0.6755 -0.1695  0.2466
  163SOL     OW  649   2.051   3.047   0.904  0.2574  0.4234  0.2234
  163SOL    HW1  650   2.034   3.124   0.854  0.7535  0.4107 -2.1567
  163SOL    HW2  651   2.032   2.967   0.848 -0.2291 -0.5032 -1.4683
  163SOL     MW  652   2.046   3.047   0.890  0.2587  0.2995 -0.3138
  164SOL     OW  653   0.294   0.212   0.803  0.1423 -0.6578 -0.4209
  164SOL    HW1  654   0.199   0.202   0.842 -1.1446 -1.5979  1.7228
  164SOL    HW2  655   0.309   0.125   0.762 -1.7492 -2.1124 -0.3802
  164SOL     MW  656   0.283   0.199   0.803 -0.2771 -0.9738 -0.1327
  165SOL     OW  657   1.211   1.325   0.339 -0.0803 -0.1852  0.0309
  165SOL    HW1  658   1.235   1.288   0.422 -3.4531  2.8811 -0.2754
  165SOL    HW2  659   1.279   1.292   0.281 -0.2887  1.6988  1.4186
  165SOL     MW  660   1.223   1.316   0.342 -0.5528  0.4680  0.1736
  166SOL     OW  661   0.553   1.130   1.020  0.1154 -0.3909  0.1503
  166SOL    HW1  662   0.554   1.139   1.120  1.7360 -1.0381  1.0250
  166SOL    HW2  663   0.648   1.117   0.989  1.0138  0.0177 -3.0269
  166SOL     MW  664   0.566   1.130   1.029  0.4478 -0.4224 -0.1535
  167SOL     OW  665   0.818   1.111   0.242  0.0046 -0.0149  0.3977
  167SOL    HW1  666   0.830   1.211   0.261 -0.5181 -0.5702 -0.4123
  167SOL    HW2  667   0.895   1.096   0.186 -2.3604 -2.2982 -0.5316
  167SOL     MW  668   0.829   1.122   0.237 -0.3764 -0.3894  0.1682
  168SOL     OW  669   1.740   1.644   3.027 -0.1580  0.3471  0.4856
  168SOL    HW1  670   1.672   1.705   2.990 -1.7562 -1.7834 -2.6158
  168SOL    HW2  671   1.728   1.565   2.969  0.4273  0.7822 -1.3705
  168SOL     MW  672   1.729   1.641   3.014 -0.2916  0.1234 -0.1685
  169SOL     OW  673   0.320   0.975   1.324 -0.6274 -0.4295  0.0188
  169SOL    HW1  674   0.334   0.974   1.418 -0.4777  1.1684  0.8882
  169SOL    HW2  675   0.331   1.068   1.302  1.0049 -0.6220  1.3223
  169SOL     MW  676   0.323   0.987   1.334 -0.3922 -0.2440  0.3055
  170SOL     OW  677   1.141   1.506   1.493  0.2315 -0.5669 -0.0211
  170SOL    HW1  678   1.093   1.577   1.524  1.1309  2.4777 -1.2268
  170SOL    HW2  679   1.113   1.498   1.404 -0.6144  0.3217  2.2199
  170SOL     MW  680   1.131   1.515   1.485  0.2386 -0.0480  0.1155
  171SOL     OW  681   0.544   1.418   0.528 -0.5484  0.2372  0.0115
  171SOL    HW1  682   0.495   1.389   0.600 -1.2554 -2.7657 -1.1797
  171SOL    HW2  683   0.542   1.338   0.475 -1.1664 -0.4469  1.9080
  171SOL     MW  684   0.537   1.403   0.530 -0.7233 -0.2493  0.1046
  172SOL     OW  685   0.867   0.297   1.259 -0.3648 -0.0601 -0.1823
  172SOL    HW1  686   0.776   0.277   1.238 -1.1745 -1.4635 -2.8193
  172SOL    HW2  687   0.889   0.235   1.327  0.1812  1.9814 -3.2815
  172SOL     MW  688   0.858   0.286   1.266 -0.3996  0.0241 -0.9391
  173SOL     OW  689   0.504   1.807   0.258  0.7703  0.7452 -0.1250
  173SOL    HW1  690   0.508   1.721   0.211 -1.2184  0.6559  0.5387
  173SOL    HW2  691   0.539   1.793   0.343 -1.6133  1.2124 -0.8016
  173SOL     MW  692   0.509   1.794   0.263  0.1934  0.7951 -0.1267
  174SOL     OW  693   1.832   0.896   1.494  0.3968 -0.0795 -0.2159
  174SOL    HW1  694   1.792   0.811   1.490 -0.8166  1.0830 -0.7308
  174SOL    HW2  695   1.832   0.932   1.405 -0.3201  1.7937  0.9846
  174SOL     MW  696   1.826   0.890   1.482  0.1421  0.3210 -0.1254
  175SOL     OW  697   0.510   1.521   0.212  0.5386 -0.2921 -0.6285
  175SOL    HW1  698   0.439   1.471   0.171 -1.6242 -0.2150 -2.4595
  175SOL    HW2  699   0.585   1.455   0.214  0.7581  1.6134 -1.5692
  175SOL     MW  700   0.511   1.506   0.207  0.2822 -0.0305 -0.9942
  176SOL     OW  701   0.158   1.480   1.214  0.2644 -0.5175  0.3703
  176SOL    HW1  702   0.147   1.453   1.118 -3.0788 -1.2586  1.9402
  176SOL    HW2  703   0.066   1.456   1.242 -0.2557 -1.0122 -3.5015
  176SOL     MW  704   0.145   1.473   1.205 -0.2454 -0.6806  0.0666
  177SOL     OW  705   0.559   0.321   1.421  0.1511 -0.2635  1.0469
  177SOL    HW1  706   0.554   0.376   1.343  1.8240 -0.5066  2.2127
  177SOL    HW2  707   0.576   0.385   1.490 -2.2265 -0.6021 -0.6461
  177SOL     MW  708   0.561   0.336   1.420  0.0581 -0.3403  0.9773
  178SOL     OW  709   3.096   0.522   2.984  0.1612 -0.0021  0.4726
  178SOL    HW1  710   3.060   0.491   3.073 -2.3017  0.1129  3.4028
  178SOL    HW2  711   3.026   0.485   2.921 -0.2451 -0.5876 -0.7386
  178SOL     MW  712   3.082   0.513   2.987 -0.2173 -0.0642  0.6994
  179SOL     OW  713   1.579   1.444   1.381  0.5918 -0.1360 -0.1802
  179SOL    HW1  714   1.578   1.479   1.466  0.4655  0.8632 -0.0284
  179SOL    HW2  715   1.669   1.425   1.349 -0.0032 -1.5327 -0.9666
  179SOL     MW  716   1.591   1.446   1.388  0.4967 -0.1884 -0.2639
  180SOL     OW  717   2.992   0.259   0.493 -0.1442  0.5721  0.1733
  180SOL    HW1  718   2.940   0.274   0.410 -3.4993  2.3627 -0.8593
  180SOL    HW2  719   3.056   0.333   0.492  0.7552 -1.1669  1.8825
  180SOL     MW  720   2.993   0.271   0.482 -0.4683  0.5789  0.2626
  181SOL     OW  721   1.149   1.336   3.071 -0.1515 -0.3065  0.4839
  181SOL    HW1  722   1.219   1.394   3.103 -0.6433  0.9367 -1.4808
  181SOL    HW2  723   1.194   1.278   3.006  0.1813 -0.9232 -1.9184
  181SOL     MW  724   1.164   1.336   3.067 -0.1725 -0.2238 -0.0923
  182SOL     OW  725   0.378   1.003   1.604 -0.4789  0.1180  0.3323
  182SOL    HW1  726   0.299   0.999   1.655 -1.3755  2.1513 -0.6441
  182SOL    HW2  727   0.449   0.953   1.651 -1.2380 -1.8798  3.2026
  182SOL     MW  728   0.377   0.996   1.617 -0.6974  0.1227  0.5822
  183SOL     OW  729   1.536   1.703   1.252 -0.1366  0.2224  0.8598
  183SOL    HW1  730   1.635   1.702   1.240  1.2412 -0.7948  3.1150
  183SOL    HW2  731   1.509   1.627   1.300  0.2857 -2.1204 -0.3280
  183SOL     MW  732   1.546   1.693   1.257  0.1009 -0.2209  1.0007
  184SOL     OW  733   0.811   0.720   1.886 -0.4367 -0.2606  0.2617
  184SOL    HW1  734   0.870   0.710   1.811  0.0551 -0.8781 -2.2374
  184SOL    HW2  735   0.820   0.633   1.922 -2.2596  0.0883 -0.9898
  184SOL     MW  736   0.820   0.707   1.881 -0.6123 -0.2960 -0.2332
  185SOL     OW  737   1.112   0.947   1.890 -0.2065 -0.2627  0.0159
  185SOL    HW1  738   1.088   0.866   1.935 -2.2561  1.0607 -0.8725
  185SOL    HW2  739   1.130   1.006   1.960 -0.9476 -1.9011 -1.7384
  185SOL     MW  740   1.111   0.944   1.905 -0.5747 -0.3042 -0.3328
  186SOL     OW  741   0.341   1.676   1.457 -0.3726 -0.7569  0.3809
  186SOL    HW1  742   0.386   1.613   1.399 -2.2100  2.7347 -0.9566
  186SOL    HW2  743   0.244   1.648   1.464 -2.7685 -1.3179  3.6278
  186SOL     MW  744   0.334   1.664   1.450 -0.9312 -0.3702  0.6328
  187SOL     OW  745   1.497   0.739   1.360  0.6500  0.6838 -0.1949
  187SOL    HW1  746   1.553   0.731   1.435  1.0016 -1.6113 -0.1254
  187SOL    HW2  747   1.407   0.731   1.391 -1.0140 -2.0178 -0.4062
  187SOL     MW  748   1.493   0.736   1.374  0.4768  0.0245 -0.2136
  188SOL     OW  749   1.931   1.173   0.775  0.4578  0.4669  0.7506
  188SOL    HW1  750   1.922   1.153   0.865  1.1287 -0.6789 -3.1114
  188SOL    HW2  751   1.991   1.099   0.752 -0.9843 -0.2885 -0.0598
  188SOL     MW  752   1.938   1.160   0.784  0.3561  0.2161  0.1341
  189SOL     OW  753   0.685   0.769   0.839  0.0172 -0.1251 -0.1330
  189SOL    HW1  754   0.601   0.828   0.837  2.0730 -0.9801  0.7343
  189SOL    HW2  755   0.708   0.769   0.933 -0.4458 -0.3191  1.0551
  189SOL     MW  756   0.677   0.777   0.851  0.2274 -0.2635  0.1382
  190SOL     OW  757   1.841   0.307   2.144  0.2540  0.6795 -0.0293
  190SOL    HW1  758   1.865   0.233   2.203  1.4416 -0.2320 -1.0585
  190SOL    HW2  759   1.925   0.351   2.119 -1.5252 -1.7478  0.4541
  190SOL     MW  760   1.856   0.303   2.148  0.1759  0.2389 -0.1013
  191SOL     OW  761   1.522   0.970   1.226 -0.3100  0.0712  0.2918
  191SOL    HW1  762   1.542   1.050   1.276 -0.4039 -0.6027 -1.2293
  191SOL    HW2  763   1.508   0.899   1.290  0.0308  2.3639  2.7496
  191SOL     MW  764   1.523   0.971   1.241 -0.2774  0.2848  0.4154
  192SOL     OW  765   0.553   2.117   2.812 -0.8751  0.1742  0.2000
  192SOL    HW1  766   0.535   2.154   2.728 -2.2676 -1.4566 -0.6008
  192SOL    HW2  767   0.558   2.022   2.792  3.1936  0.8911  2.7026
  192SOL     MW  768   0.551   2.109   2.798 -0.5220  0.0536  0.4245
  193SOL     OW  769   0.873   1.608   0.747 -0.3050  0.7475  0.8164
  193SOL    HW1  770   0.796   1.622   0.796  1.9754 -0.5139 -1.3803
  193SOL    HW2  771   0.861   1.535   0.682 -1.6479 -1.0241 -3.4089
  193SOL     MW  772   0.861   1.600   0.745 -0.1813  0.3474 -0.0309
  194SOL     OW  773   0.511   1.351   0.837  0.5397 -0.4397 -0.8931
  194SOL    HW1  774   0.514   1.279   0.904 -0.2532 -1.1083 -1.1898
  194SOL    HW2  775   0.421   1.356   0.795 -2.3055 -0.7487  0.2836
  194SOL     MW  776   0.499   1.342   0.841  0.0597 -0.5686 -0.7770
  195SOL     OW  777   1.278   1.116   2.953  0.3972 -0.2819 -0.3065
  195SOL    HW1  778   1.303   1.130   3.045  1.0791 -1.6213 -0.6344
  195SOL    HW2  779   1.218   1.043   2.948 -1.1892 -0.8161 -3.2829
  195SOL     MW  780   1.273   1.108   2.965  0.2779 -0.5291 -0.7424
  196SOL     OW  781   2.224   0.968   0.520  0.4372  0.2681 -0.1463
  196SOL    HW1  782   2.165   0.930   0.453  0.7297  0.0292  2.9451
  196SOL    HW2  783   2.191   1.060   0.529  2.7338  1.3610 -0.8865
  196SOL     MW  784   2.212   0.975   0.513  0.7788  0.3808  0.1639
  197SOL     OW  785   0.615   1.300   2.225 -0.0397 -0.5984  0.5254
  197SOL    HW1  786   0.628   1.218   2.164  0.9216 -1.6676 -0.5450
  197SOL    HW2  787   0.688   1.349   2.188  0.0247  0.9481  1.7178
  197SOL     MW  788   0.626   1.296   2.212  0.0956 -0.5354  0.5415
  198SOL     OW  789   2.930   1.419   1.018  0.3792  0.5642  0.2882
  198SOL    HW1  790   2.905   1.511   0.999  0.2052  0.2284  0.4228
  198SOL    HW2  791   2.852   1.366   0.995 -2.4566 -0.9989  0.3863
  198SOL     MW  792   2.916   1.424   1.013 -0.0179  0.3136  0.3189
  199SOL     OW  793   0.747   1.352   1.933  0.0035 -0.0295 -0.5623
  199SOL    HW1  794   0.654   1.355   1.919  0.8409 -2.8239  0.0968
  199SOL    HW2  795   0.776   1.383   1.850 -0.9324 -1.4342 -1.4808
  199SOL     MW  796   0.738   1.357   1.920 -0.0095 -0.5835 -0.5965
  200SOL     OW  797   1.853   2.910   1.362 -0.1213 -0.0983 -0.0402
  200SOL    HW1  798   1.914   2.954   1.305  1.0419 -0.2101 -2.6942
  200SOL    HW2  799   1.770   2.953   1.393  3.0790  0.5789 -1.5624
  200SOL     MW  800   1.850   2.921   1.359  0.4544 -0.0237 -0.5912
  201SOL     OW  801   1.017   0.359   0.729  0.6015 -0.2236 -0.4227
  201SOL    HW1  802   0.993   0.267   0.713  1.9030 -0.9052 -1.5472
  201SOL    HW2  803   1.069   0.364   0.806  3.0834 -1.0986  0.5235
  201SOL     MW  804   1.021   0.348   0.737  1.1007 -0.4290 -0.4462
  202SOL     OW  805   1.484   1.747   0.961 -0.6536  0.3557  0.0502
  202SOL    HW1  806   1.493   1.648   0.943  2.6664  0.4015 -1.6141
  202SOL    HW2  807   1.491   1.753   1.051  0.3656 -1.6781 -0.3353
  202SOL     MW  808   1.486   1.735   0.971 -0.0811  0.0934 -0.2203
  203SOL     OW  809   2.977   0.398   1.483  0.4946 -0.2647 -0.3341
  203SOL    HW1  810   3.045   0.339   1.452 -0.3032 -1.0118 -3.5588
  203SOL    HW2  811   3.007   0.474   1.533 -3.0764  1.1040  2.2501
  203SOL     MW  812   2.990   0.400   1.485 -0.0818 -0.1827 -0.4186
  204SOL     OW  813   1.019   1.811   0.636  0.1904  0.2069 -0.1595
  204SOL    HW1  814   0.983   1.748   0.703 -2.3943  0.0794  1.8186
  204SOL    HW2  815   0.946   1.822   0.576 -0.2610  0.8044  1.8316
  204SOL     MW  816   1.005   1.804   0.637 -0.2102  0.2689  0.3642
  205SOL     OW  817   1.364   3.059   1.324  0.2875  0.1129 -0.1378
  205SOL    HW1  818   1.391   3.080   1.234  0.4960 -1.7276 -1.3993
  205SOL    HW2  819   1.284   3.111   1.340 -0.5835 -0.9067  0.4985
  205SOL     MW  820   1.357   3.069   1.314  0.2001 -0.2645 -0.2203
  206SOL     OW  821   0.478   3.074   1.379 -0.0186 -0.0361 -1.0137
  206SOL    HW1  822   0.421   3.063   1.302 -0.7114 -0.3073 -1.6043
  206SOL    HW2  823   0.548   3.008   1.373  1.1445 -1.0922  0.4785
  206SOL     MW  824   0.480   3.064   1.368  0.0434 -0.2112 -0.8947
  207SOL     OW  825   0.893   1.677   0.229 -0.1112  0.8060 -0.4423
  207SOL    HW1  826   0.912   1.758   0.190 -0.2582  1.3710 -0.1467
  207SOL    HW2  827   0.976   1.629   0.231 -1.3966  1.6907 -2.0591
  207SOL     MW  828   0.907   1.681   0.224 -0.3002  0.9973 -0.6166
  208SOL     OW  829   0.712   1.655   1.418  0.8465 -0.7156  0.4801
  208SOL    HW1  830   0.797   1.674   1.458 -0.7941 -2.9315 -0.4764
  208SOL    HW2  831   0.733   1.600   1.341  1.6014 -0.9034 -2.0039
  208SOL     MW  832   0.726   1.650   1.413  0.7296 -1.0327  0.0262
  209SOL     OW  833   1.523   0.498   2.784  0.0948 -0.6167  0.3927
  209SOL    HW1  834   1.554   0.568   2.840 -0.8056  1.1875  1.7298
  209SOL    HW2  835   1.596   0.435   2.776  2.0750  0.9497 -0.0741
  209SOL     MW  836   1.537   0.499   2.790  0.2373 -0.1720  0.5075
  210SOL     OW  837   1.480   1.494   0.934  0.1204  0.9281  0.0907
  210SOL    HW1  838   1.570   1.456   0.907 -0.4404 -1.4203 -0.0245
  210SOL    HW2  839   1.419   1.465   0.868 -1.4811  1.9461 -0.5898
  210SOL     MW  840   1.484   1.485   0.922 -0.1649  0.7525 -0.0143
  211SOL     OW  841   1.727   0.303   1.000  0.1060  0.2811 -0.1845
  211SOL    HW1  842   1.723   0.318   0.907 -0.3507 -0.1966 -0.2765
  211SOL    HW2  843   1.820   0.306   1.015 -0.0703 -0.0291  0.5896
  211SOL     MW  844   1.739   0.306   0.990  0.0225  0.1772 -0.0945
  212SOL     OW  845   0.272   1.087   0.214 -0.3237  0.4306  0.3278
  212SOL    HW1  846   0.194   1.076   0.268  1.0978 -1.7787  0.5188
  212SOL    HW2  847   0.286   1.002   0.164 -0.1001 -2.3153 -0.1569
  212SOL     MW  848   0.263   1.075   0.214 -0.1067 -0.2232  0.2891
  213SOL     OW  849   0.472   1.762   2.999 -0.5399  0.6997  0.1958
  213SOL    HW1  850   0.504   1.834   3.056 -2.5797  0.3085 -3.2696
  213SOL    HW2  851   0.512   1.782   2.916 -1.9152 -1.1182  1.5019
  213SOL     MW  852   0.482   1.774   2.996 -0.9905  0.4083 -0.0891
  214SOL     OW  853   0.617   0.326   2.135 -0.1585 -0.4351  0.4494
  214SOL    HW1  854   0.581   0.416   2.136 -2.8174  2.1733 -0.7654
  214SOL    HW2  855   0.639   0.308   2.044 -1.5624 -0.1006 -2.0618
  214SOL     MW  856   0.615   0.336   2.123 -0.6945 -0.0468 -0.0422
  215SOL     OW  857   0.518   0.659   2.623  0.1755  0.1833 -1.0164
  215SOL    HW1  858   0.488   0.666   2.531 -0.2873 -0.3183 -2.3473
  215SOL    HW2  859   0.440   0.634   2.667  0.5388 -1.2020  1.6737
  215SOL     MW  860   0.504   0.657   2.617  0.1623 -0.0657 -0.8371
  216SOL     OW  861   2.996   3.046   2.708 -0.5241  0.4759 -0.1738
  216SOL    HW1  862   2.913   3.050   2.755 -0.2624 -0.1317  0.1385
  216SOL    HW2  863   3.028   3.135   2.712 -0.1305  3.0911 -1.4183
  216SOL     MW  864   2.989   3.058   2.715 -0.4377  0.7408 -0.2968
  217SOL     OW  865   1.057   1.091   0.098  0.2664 -0.3971  0.1901
  217SOL    HW1  866   1.068   1.029   0.020  2.2122  0.5942 -1.2098
  217SOL    HW2  867   1.094   1.171   0.062 -2.1789 -1.5182  0.1995
  217SOL     MW  868   1.064   1.093   0.083  0.2005 -0.4143  0.0066
  218SOL     OW  869   0.853   1.358   2.701 -0.5113  0.4055 -0.2044
  218SOL    HW1  870   0.839   1.286   2.761 -0.1042  0.5968  1.0567
  218SOL    HW2  871   0.947   1.359   2.689  1.2445 -1.0064 -2.1440
  218SOL     MW  872   0.864   1.349   2.707 -0.2260  0.2445 -0.2939
  219SOL     OW  873   1.093   0.350   2.616 -0.9834  0.5685  0.4561
  219SOL    HW1  874   1.160   0.423   2.640 -3.2131 -0.4336 -1.9924
  219SOL    HW2  875   1.010   0.395   2.611 -1.2460  1.1518 -0.8909
  219SOL     MW  876   1.091   0.366   2.618 -1.3123  0.5132 -0.0447
  220SOL     OW  877   1.652   0.504   2.247 -0.2154  0.2769 -0.3765
  220SOL    HW1  878   1.579   0.517   2.179 -1.2917 -0.0967 -0.9475
  220SOL    HW2  879   1.710   0.439   2.201 -0.0055 -1.2581  0.4470
  220SOL     MW  880   1.650   0.497   2.232 -0.3297  0.0251 -0.3432
  221SOL     OW  881   0.341   1.282   2.898 -0.3161  0.1651  0.1319
  221SOL    HW1  882   0.404   1.218   2.867  0.1798  0.1585 -0.6307
  221SOL    HW2  883   0.362   1.370   2.864 -0.2729 -2.0151  1.2299
  221SOL     MW  884   0.352   1.285   2.890 -0.2450 -0.1234  0.1761
  222SOL     OW  885   0.510   0.907   2.668  0.0785 -0.6484  0.6263
  222SOL    HW1  886   0.427   0.943   2.656  1.1538 -3.4719  3.2175
  222SOL    HW2  887   0.516   0.815   2.635 -1.2012 -4.1182  0.8767
  222SOL     MW  888   0.499   0.900   2.662  0.0515 -1.4788  1.0012
  223SOL     OW  889   0.042   1.997   2.571 -0.6156 -0.1944  0.2587
  223SOL    HW1  890   0.029   1.944   2.653 -2.9571  0.3527 -0.5755
  223SOL    HW2  891   0.080   2.076   2.600 -0.5004  1.2651 -0.7992
  223SOL     MW  892   0.045   2.001   2.586 -0.9094  0.0703  0.0091
  224SOL     OW  893   1.466   0.731   2.483 -0.3728  0.0332  0.3889
  224SOL    HW1  894   1.458   0.737   2.580  0.4678 -2.4881  1.6437
  224SOL    HW2  895   1.486   0.818   2.459 -1.2000 -2.2655  0.2702
  224SOL     MW  896   1.467   0.743   2.493 -0.3710 -0.6028  0.5388
  225SOL     OW  897   2.945   1.443   2.274  0.1087 -0.1611  0.7831
  225SOL    HW1  898   2.983   1.495   2.201 -0.4094  0.6686 -0.2110
  225SOL    HW2  899   2.881   1.492   2.323 -1.5771 -1.2846  2.8229
  225SOL     MW  900   2.942   1.456   2.271 -0.1821 -0.1999  0.9211
  226SOL     OW  901   0.380   1.514   2.728 -0.1186 -0.7794  0.9431
  226SOL    HW1  902   0.476   1.512   2.730  1.1775 -0.9688  0.0204
  226SOL    HW2  903   0.355   1.597   2.696  0.6576 -0.7658 -1.0001
  226SOL     MW  904   0.390   1.525   2.724  0.1549 -0.8026  0.5649
  227SOL     OW  905   0.564   1.113   2.833  0.4631  0.0537  0.2383
  227SOL    HW1  906   0.657   1.132   2.839 -0.7981 -0.6857 -2.2378
  227SOL    HW2  907   0.546   1.035   2.781 -1.7972  2.7155 -0.1308
  227SOL     MW  908   0.574   1.105   2.827 -0.0015  0.3073 -0.1371
  228SOL     OW  909   0.735   1.094   2.056  0.0793 -0.3769  0.3622
  228SOL    HW1  910   0.737   1.175   1.998 -0.1055  0.4502 -1.8384
  228SOL    HW2  911   0.822   1.098   2.095  1.3053 -2.0379 -1.1407
  228SOL     MW  912   0.747   1.105   2.053  0.2166 -0.4869 -0.1264
  229SOL     OW  913   0.202   0.645   0.017  0.8088 -0.5351 -0.0875
  229SOL    HW1  914   0.138   0.619  -0.045 -0.0221  0.5306  0.8389
  229SOL    HW2  915   0.209   0.576   0.087 -0.1147 -1.9374  2.8526
  229SOL     MW  916   0.195   0.633   0.018  0.5773 -0.5795  0.4227
  230SOL     OW  917   1.799   1.368   2.023 -0.1881  0.1561  0.2080
  230SOL    HW1  918   1.777   1.321   2.112  1.3165 -0.4488 -1.3387
  230SOL    HW2  919   1.861   1.316   1.969  1.0047  0.5600 -1.4718
  230SOL     MW  920   1.805   1.355   2.028  0.1678  0.1296 -0.2177
  231SOL     OW  921   2.740   1.241   2.181 -0.1415 -0.0676  0.7097
  231SOL    HW1  922   2.810   1.312   2.186  2.2081  0.1818 -1.9821
  231SOL    HW2  923   2.688   1.273   2.101 -0.2161  2.2042  1.9578
  231SOL     MW  924   2.743   1.254   2.171  0.1587  0.2651  0.5192
  232SOL     OW  925   2.282   0.815   2.000 -0.1282 -0.4765  0.2319
  232SOL    HW1  926   2.211   0.813   1.938 -1.4587 -0.3822 -0.9250
  232SOL    HW2  927   2.263   0.876   2.065  2.2706 -0.8964 -0.3931
  232SOL     MW  928   2.270   0.823   2.000  0.0127 -0.5194 -0.0032
  233SOL     OW  929   2.068   0.452   2.080  0.2699  0.3714  0.3597
  233SOL    HW1  930   2.141   0.398   2.053 -2.3056  1.8763  0.0682
  233SOL    HW2  931   2.114   0.525   2.131  0.6585  1.6712 -1.7822
  233SOL     MW  932   2.084   0.455   2.083 -0.0186  0.7414  0.0387
  234SOL     OW  933   0.262   1.042   2.646  0.0473 -0.4231  0.3659
  234SOL    HW1  934   0.173   1.041   2.609  0.2364 -1.3922  0.1368
  234SOL    HW2  935   0.293   1.131   2.626  0.0705  1.7871  0.9895
  234SOL     MW  936   0.254   1.053   2.638  0.0753 -0.2594  0.4179
  235SOL     OW  937   1.036   3.035   2.806 -0.4595  0.1820 -0.0331
  235SOL    HW1  938   1.070   3.014   2.896 -0.6703 -2.8938  1.8522
  235SOL    HW2  939   1.067   3.127   2.807 -2.7302 -0.7531 -1.3773
  235SOL     MW  940   1.044   3.045   2.818 -0.7869 -0.3472  0.0383
  236SOL     OW  941   2.955   0.585   0.128 -0.1392 -0.4321 -0.4745
  236SOL    HW1  942   2.879   0.612   0.181 -0.5700 -0.1333  1.8383
  236SOL    HW2  943   2.993   0.662   0.083 -0.6066 -1.0450  0.5348
  236SOL     MW  944   2.950   0.599   0.129 -0.2577 -0.4735 -0.0362
  237SOL     OW  945   1.952   1.089   2.203 -0.5264 -0.4149 -0.3500
  237SOL    HW1  946   1.913   1.072   2.121  1.7007 -0.5397  0.7789
  237SOL    HW2  947   2.008   1.007   2.214 -0.1359  0.7945 -0.6239
  237SOL     MW  948   1.954   1.076   2.194 -0.1811 -0.2718 -0.2372
  238SOL     OW  949   1.105   1.788   2.959 -0.2235  0.3666 -0.0032
  238SOL    HW1  950   1.061   1.712   2.917 -0.0024 -2.1634  2.1294
  238SOL    HW2  951   1.195   1.751   2.969  1.2854  1.1511 -0.0262
  238SOL     MW  952   1.111   1.773   2.955  0.0047  0.1363  0.2752
  239SOL     OW  953   1.202   1.346   2.299 -0.3220 -0.8995 -0.5737
  239SOL    HW1  954   1.115   1.387   2.297 -0.1639  1.4058 -3.0275
  239SOL    HW2  955   1.183   1.263   2.354 -0.9102 -1.1429  1.5452
  239SOL     MW  956   1.188   1.340   2.306 -0.3787 -0.6275 -0.6179
  240SOL     OW  957   0.609   0.909   2.251 -0.1863 -0.2344 -0.3783
  240SOL    HW1  958   0.640   0.960   2.334  0.9105  0.6888 -0.0326
  240SOL    HW2  959   0.698   0.901   2.214 -0.3463  0.6451 -1.6440
  240SOL     MW  960   0.625   0.914   2.257 -0.0627  0.0035 -0.4997
  241SOL     OW  961   0.663   0.451   3.087  0.2390  0.6059 -0.8020
  241SOL    HW1  962   0.696   0.524   3.147  0.0596 -0.0113  0.1778
  241SOL    HW2  963   0.576   0.480   3.059  2.1927 -2.2693  0.4524
  241SOL     MW  964   0.656   0.465   3.091  0.4731  0.1451 -0.5072
  242SOL     OW  965   1.501   1.726   2.256  0.3625 -0.1093  0.0854
  242SOL    HW1  966   1.439   1.803   2.262  0.9973 -0.9953  2.3059
  242SOL    HW2  967   1.443   1.661   2.218  1.6070  2.3016 -0.3197
  242SOL     MW  968   1.485   1.728   2.252  0.6104  0.0919  0.3250
  243SOL     OW  969   0.986   0.248   2.386 -0.0154  0.0613 -0.2186
  243SOL    HW1  970   1.060   0.194   2.343 -1.0757 -2.2141 -2.3510
  243SOL    HW2  971   1.026   0.278   2.467  0.6808  2.8663 -0.1127
  243SOL     MW  972   1.001   0.245   2.391 -0.0634  0.1312 -0.4860
  244SOL     OW  973   0.132   0.805   2.352  0.1584 -0.1434  0.0288
  244SOL    HW1  974   0.095   0.897   2.344 -1.2387 -0.7361  3.3199
  244SOL    HW2  975   0.224   0.820   2.339 -1.5187  1.6494  1.1367
  244SOL     MW  976   0.139   0.819   2.349 -0.2472  0.0150  0.6092
  245SOL     OW  977   1.261   0.188   2.297 -0.4265  0.4517 -0.1237
  245SOL    HW1  978   1.350   0.158   2.283 -2.0671 -1.2732  2.1662
  245SOL    HW2  979   1.280   0.257   2.359  1.3939 -3.2464 -0.2881
  245SOL     MW  980   1.275   0.193   2.303 -0.4028 -0.2638  0.1567
  246SOL     OW  981   1.187   1.137   2.070  0.3150  0.0516 -0.2708
  246SOL    HW1  982   1.116   1.140   2.141  0.1597 -0.1505 -0.6006
  246SOL    HW2  983   1.277   1.123   2.117  1.1274 -0.0964 -0.6842
  246SOL     MW  984   1.190   1.135   2.085  0.4017  0.0054 -0.3688
  247SOL     OW  985   0.774   0.641   0.173 -0.4034  0.3951 -0.2092
  247SOL    HW1  986   0.749   0.731   0.173  3.4351  1.4805 -2.6571
  247SOL    HW2  987   0.872   0.646   0.153 -0.4559 -1.9248 -0.6816
  247SOL     MW  988   0.783   0.653   0.171  0.0962  0.2322 -0.5945
  248SOL     OW  989   0.345   1.297   2.575  0.3108  0.1418 -0.4046
  248SOL    HW1  990   0.344   1.313   2.477 -3.1763 -1.2692  0.2340
  248SOL    HW2  991   0.365   1.378   2.615 -0.3694 -0.7837 -1.3403
  248SOL     MW  992   0.347   1.310   2.567 -0.2390 -0.1664 -0.4438
  249SOL     OW  993   3.064   1.909   2.809 -0.4530 -0.1320  0.7117
  249SOL    HW1  994   3.027   1.823   2.811 -1.0913  0.6543  0.0280
  249SOL    HW2  995   3.150   1.903   2.850 -2.5529 -0.9421  0.8564
  249SOL     MW  996   3.071   1.897   2.815 -0.8143 -0.1352  0.6406
  250SOL     OW  997   2.140   0.896   2.233 -0.0220 -1.1729 -0.5503
  250SOL    HW1  998   2.148   0.801   2.261  1.5572 -0.9930 -3.6051
  250SOL    HW2  999   2.215   0.951   2.261 -1.7842  1.8143 -0.5513
  250SOL     MW 1000   2.151   0.891   2.241 -0.0462 -0.7550 -0.9535
  251SOL     OW 1001   0.179   0.914   2.006 -0.4883 -0.1915  0.4579
  251SOL    HW1 1002   0.137   0.835   2.031 -3.0281  3.6122 -2.5274
  251SOL    HW2 1003   0.167   0.914   1.912  0.0017 -1.1167  1.9144
  251SOL     MW 1004   0.172   0.904   1.997 -0.7588  0.1883  0.2562
  252SOL     OW 1005   1.662   1.020   2.858  0.1280  0.0237 -1.1769
  252SOL    HW1 1006   1.666   1.063   2.945 -2.0868 -1.8198  1.5090
  252SOL    HW2 1007   1.736   1.055   2.813  0.4491  0.8243 -0.7357
  252SOL     MW 1008   1.673   1.030   2.864 -0.1219 -0.1139 -0.7643
  253SOL     OW 1009   1.122   1.703   2.433 -0.1241  0.2196 -0.2389
  253SOL    HW1 1010   1.094   1.674   2.336  1.1265 -0.5095 -2.0681
  253SOL    HW2 1011   1.049   1.766   2.463 -0.0565  0.7722 -3.3867
  253SOL     MW 1012   1.108   1.707   2.424  0.0498  0.1963 -0.8956
  254SOL     OW 1013   0.950   1.129   2.257 -0.3475  0.2659 -0.0008
  254SOL    HW1 1014   0.959   1.038   2.288 -0.3977  2.6991 -0.2776
  254SOL    HW2 1015   0.927   1.179   2.332  1.4083 -0.0003  0.2619
  254SOL     MW 1016   0.948   1.123   2.271 -0.1225  0.5518 -0.0027
  255SOL     OW 1017   0.876   2.526   2.138  0.9334  0.5843 -0.1784
  255SOL    HW1 1018   0.785   2.485   2.143 -3.3979 -1.5048 -0.8987
  255SOL    HW2 1019   0.935   2.449   2.145  0.1448  2.6540  1.3873
  255SOL     MW 1020   0.871   2.510   2.140  0.2579  0.5817 -0.0668
  256SOL     OW 1021   1.219   2.749   2.967 -0.5150 -0.5908 -0.0242
  256SOL    HW1 1022   1.194   2.683   2.899  0.6360 -0.2416  0.4401
  256SOL    HW2 1023   1.299   2.786   2.926  1.0942  0.5018 -0.5404
  256SOL     MW 1024   1.226   2.745   2.953 -0.1508 -0.4006 -0.0310
  257SOL     OW 1025   0.039   1.910   0.001 -0.1825  0.0371  0.3145
  257SOL    HW1 1026   0.061   1.900   0.099 -0.2065 -1.4868  1.9905
  257SOL    HW2 1027   0.103   1.860  -0.050 -0.8075  0.3203  1.4689
  257SOL     MW 1028   0.050   1.902   0.007 -0.2682 -0.1266  0.6880
  258SOL     OW 1029   0.708   0.995   2.505 -0.1986 -0.0032 -1.1436
  258SOL    HW1 1030   0.716   1.091   2.499  0.9762  1.7430 -1.1188
  258SOL    HW2 1031   0.636   0.956   2.562 -0.8634  4.4279 -2.3558
  258SOL     MW 1032   0.700   1.002   2.512 -0.1313  0.8118 -1.3003
  259SOL     OW 1033   0.827   0.482   2.269 -0.4411  0.7589  0.3303
  259SOL    HW1 1034   0.752   0.452   2.219  0.0975  0.9667 -1.0801
  259SOL    HW2 1035   0.869   0.398   2.297 -1.7374  0.4996 -0.0199
  259SOL     MW 1036   0.823   0.467   2.266 -0.5411  0.7521  0.0980
  260SOL     OW 1037   0.655   0.116   1.613 -0.3871  0.0468 -0.5812
  260SOL    HW1 1038   0.597   0.155   1.543  0.2069  0.8683 -0.9601
  260SOL    HW2 1039   0.734   0.109   1.559 -0.8716 -1.8073 -0.4439
  260SOL     MW 1040   0.658   0.120   1.597 -0.3726 -0.0894 -0.6131
  261SOL     OW 1041   1.112   0.677   1.984  0.1282 -0.1414 -0.4639
  261SOL    HW1 1042   1.152   0.688   2.065 -1.6513  1.0540 -2.3321
  261SOL    HW2 1043   1.073   0.584   1.983  0.4632 -2.8352 -1.5237
  261SOL     MW 1044   1.112   0.666   1.995 -0.0624 -0.3391 -0.8502
  262SOL     OW 1045   1.097   0.338   0.178 -0.1280 -0.4995  0.1740
  262SOL    HW1 1046   1.196   0.339   0.161 -1.9946 -2.4372  1.2889
  262SOL    HW2 1047   1.048   0.280   0.115  0.0397  2.4595 -1.0793
  262SOL     MW 1048   1.104   0.331   0.167 -0.3521 -0.3647  0.1557
  263SOL     OW 1049   0.351   0.039   2.473 -0.1630 -0.1175 -0.4543
  263SOL    HW1 1050   0.285   0.113   2.481 -2.0572  0.4588  0.0615
  263SOL    HW2 1051   0.413   0.060   2.404  2.2955 -0.0053  2.0323
  263SOL     MW 1052   0.351   0.051   2.465 -0.0885 -0.0267 -0.0581
  264SOL     OW 1053   1.552   1.354   1.904 -0.2931 -0.3472  0.9674
  264SOL    HW1 1054   1.545   1.259   1.899 -0.0117 -1.0373  0.8033
  264SOL    HW2 1055   1.641   1.367   1.941  1.1429 -0.4532  1.3819
  264SOL     MW 1056   1.563   1.343   1.908 -0.0665 -0.4522  1.0004
  265SOL     OW 1057   0.753   2.768   2.305 -0.6018  0.4464  0.0826
  265SOL    HW1 1058   0.800   2.685   2.289 -0.1907 -0.7124  0.2675
  265SOL    HW2 1059   0.760   2.764   2.404 -1.2766 -0.2146  0.8962
  265SOL     MW 1060   0.760   2.757   2.316 -0.6366  0.2063  0.2143
  266SOL     OW 1061   0.913   0.839   2.163 -0.0282  0.2303 -0.0704
  266SOL    HW1 1062   0.839   0.810   2.109 -2.0282 -0.7299  0.8349
  266SOL    HW2 1063   0.959   0.763   2.186 -0.6799 -1.4502 -3.5232
  266SOL     MW 1064   0.909   0.825   2.159 -0.3781 -0.1181 -0.4065
  267SOL     OW 1065   1.331   1.763   2.637 -0.1864 -0.1766 -0.1262
  267SOL    HW1 1066   1.407   1.713   2.597  0.2139  2.9818 -1.2570
  267SOL    HW2 1067   1.259   1.754   2.578 -2.6806 -1.8737  3.0127
  267SOL     MW 1068   1.332   1.755   2.624 -0.4627  0.0162  0.1387
  268SOL     OW 1069   0.139   0.924   1.695 -0.0787  0.0423  0.5204
  268SOL    HW1 1070   0.098   1.016   1.689  1.5773 -0.0911  2.4906
  268SOL    HW2 1071   0.082   0.876   1.642 -0.1446 -0.0246  0.5197
  268SOL     MW 1072   0.126   0.929   1.687  0.1311  0.0159  0.7803
  269SOL     OW 1073   1.359   1.954   2.287 -0.3096  0.2378 -0.4204
  269SOL    HW1 1074   1.397   2.034   2.318  1.8053  0.8574  0.9815
  269SOL    HW2 1075   1.289   1.937   2.344  0.7457 -1.9083 -2.1933
  269SOL     MW 1076   1.355   1.962   2.299  0.1087  0.0364 -0.4694
  270SOL     OW 1077   1.133   0.414   1.585 -0.2121 -0.7613 -0.3022
  270SOL    HW1 1078   1.109   0.328   1.634  0.5097 -1.0022 -0.4591
  270SOL    HW2 1079   1.229   0.413   1.583 -1.2457 -1.7236 -0.4570
  270SOL     MW 1080   1.143   0.402   1.591 -0.2532 -0.9201 -0.3433
  271SOL     OW 1081   0.794   0.071   2.448  0.9276  0.1159 -0.6779
  271SOL    HW1 1082   0.845   0.007   2.496 -2.2085 -2.0675  0.6858
  271SOL    HW2 1083   0.852   0.146   2.409  0.2777  2.8135 -1.7597
  271SOL     MW 1084   0.808   0.073   2.449  0.4281  0.1837 -0.6407
  272SOL     OW 1085   1.451   2.829   2.866  0.0152  0.0367 -0.3865
  272SOL    HW1 1086   1.434   2.852   2.774 -2.3936 -2.0081  2.0554
  272SOL    HW2 1087   1.498   2.907   2.908  1.6553  0.3569  0.1075
  272SOL     MW 1088   1.455   2.842   2.859 -0.0862 -0.1909  0.0009
  273SOL     OW 1089   1.425   0.897   2.759 -0.4252 -0.7952 -0.4328
  273SOL    HW1 1090   1.513   0.907   2.783 -0.8984  1.9230 -0.2507
  273SOL    HW2 1091   1.422   0.989   2.726  2.0449 -0.9530 -0.3447
  273SOL     MW 1092   1.436   0.911   2.758 -0.1618 -0.4574 -0.3972
  274SOL     OW 1093   1.407   0.772   0.166  0.2130 -0.2097  0.6991
  274SOL    HW1 1094   1.453   0.698   0.208 -0.1871 -3.1688 -0.0840
  274SOL    HW2 1095   1.321   0.762   0.210  1.0064  2.0381 -0.1310
  274SOL     MW 1096   1.402   0.761   0.177  0.2649 -0.3036  0.4862
  275SOL     OW 1097   1.725   0.516   1.778  0.6252  0.0229  0.7212
  275SOL    HW1 1098   1.800   0.561   1.819 -0.2089 -0.2135  0.1680
  275SOL    HW2 1099   1.738   0.430   1.808  1.3121 -0.4601 -1.4739
  275SOL     MW 1100   1.736   0.511   1.788  0.6057 -0.0720  0.3586
  276SOL     OW 1101   0.444   1.259   1.919  0.3759  0.0198 -0.4129
  276SOL    HW1 1102   0.473   1.163   1.911 -0.2324  0.6303 -0.5596
  276SOL    HW2 1103   0.366   1.242   1.978  2.1635 -2.6249  1.3279
  276SOL     MW 1104   0.437   1.244   1.926  0.5315 -0.2486 -0.2025
  277SOL     OW 1105   1.970   1.098   2.459 -0.3771 -0.5489 -0.4059
  277SOL    HW1 1106   2.021   1.171   2.488 -0.6355 -1.4714 -0.0101
  277SOL    HW2 1107   1.956   1.100   2.363 -1.4521 -1.3479  0.1476
  277SOL     MW 1108   1.975   1.107   2.450 -0.5530 -0.7761 -0.2806
  278SOL     OW 1109   1.368   0.675   1.753  0.1452  0.2812  0.4175
  278SOL    HW1 1110   1.323   0.595   1.783 -2.8392 -0.8341  0.8881
  278SOL    HW2 1111   1.458   0.660   1.776  3.3940  0.1141 -0.6028
  278SOL     MW 1112   1.374   0.662   1.760  0.1801  0.1120  0.3450
  279SOL     OW 1113   0.555   0.098   2.267 -0.2733  0.0193  0.5788
  279SOL    HW1 1114   0.631   0.042   2.267  0.6527  1.8875 -0.1073
  279SOL    HW2 1115   0.572   0.169   2.208 -2.3247 -0.1100  0.6209
  279SOL     MW 1116   0.567   0.100   2.260 -0.4218  0.2487  0.4938
  280SOL     OW 1117   1.450   1.088   2.155  0.3482  0.8064 -0.4321
  280SOL    HW1 1118   1.497   1.020   2.105  0.8034  3.3433  0.0622
  280SOL    HW2 1119   1.460   1.065   2.253  0.0195  1.0339  2.0320
  280SOL     MW 1120   1.457   1.076   2.162  0.3649  1.1711 -0.0418
  281SOL     OW 1121   1.401   1.157   2.698 -0.3894 -0.4620 -0.0217
  281SOL    HW1 1122   1.485   1.195   2.713 -1.7928 -0.1401  2.8356
  281SOL    HW2 1123   1.357   1.161   2.783  1.1773  1.1867 -1.4006
  281SOL     MW 1124   1.406   1.163   2.711 -0.3679 -0.2020  0.1734
  282SOL     OW 1125   1.157   1.275   1.626  0.3556  0.4385 -0.1773
  282SOL    HW1 1126   1.145   1.364   1.585 -0.9331 -2.2177 -2.4919
  282SOL    HW2 1127   1.102   1.267   1.701  1.0508 -0.5142 -0.3111
  282SOL     MW 1128   1.148   1.286   1.630  0.2773 -0.0377 -0.5004
  283SOL     OW 1129   0.858   1.302   0.015  0.4507  0.0787 -0.1773
  283SOL    HW1 1130   0.951   1.330   0.012  1.3196  4.2873 -1.3993
  283SOL    HW2 1131   0.823   1.380  -0.021  1.2601 -2.9835 -1.2288
  283SOL     MW 1132   0.866   1.316   0.010  0.6722  0.2300 -0.4773
  284SOL     OW 1133   0.417   0.738   2.366 -0.2712 -0.4812 -0.2570
  284SOL    HW1 1134   0.463   0.810   2.320  1.4185 -1.6282  1.0356
  284SOL    HW2 1135   0.434   0.666   2.301  2.9833  0.3350  0.9766
  284SOL     MW 1136   0.426   0.738   2.351  0.3812 -0.5248  0.0763
  285SOL     OW 1137   0.888   0.879   2.811 -0.8585 -0.1245 -0.0796
  285SOL    HW1 1138   0.931   0.926   2.736 -0.6668  0.2070  1.1962
  285SOL    HW2 1139   0.843   0.801   2.782  1.9153 -3.3604  0.7007
  285SOL     MW 1140   0.888   0.875   2.797 -0.4673 -0.5077  0.1917
  286SOL     OW 1141   1.128   1.485   2.616 -0.1201 -0.1342  0.2249
  286SOL    HW1 1142   1.224   1.472   2.605  0.6754 -1.6651 -0.0355
  286SOL    HW2 1143   1.105   1.569   2.572  0.9868  3.1991 -0.3003
  286SOL     MW 1144   1.137   1.494   2.608  0.1309  0.1036  0.1212
  287SOL     OW 1145   1.217   1.020   0.310 -0.5291 -0.9347  0.5261
  287SOL    HW1 1146   1.195   1.047   0.395 -1.1356  0.6445 -2.2897
  287SOL    HW2 1147   1.157   1.058   0.244 -0.1394  3.2386 -2.4986
  287SOL     MW 1148   1.206   1.028   0.313 -0.5577 -0.1757 -0.2445
  288SOL     OW 1149   1.463   0.599   2.065 -0.6242 -0.0669  0.6695
  288SOL    HW1 1150   1.402   0.585   2.141  3.2663  0.4261 -0.1748
  288SOL    HW2 1151   1.487   0.685   2.051  3.5451 -2.3133  0.7619
  288SOL     MW 1152   1.458   0.608   2.073  0.4392 -0.2983  0.5703
  289SOL     OW 1153   0.989   1.002   2.591 -0.5154  0.7302 -0.1786
  289SOL    HW1 1154   1.020   0.907   2.571 -0.2318 -0.6354 -0.5447
  289SOL    HW2 1155   0.903   1.017   2.558 -1.4922 -0.0413  2.9485
  289SOL     MW 1156   0.982   0.991   2.584 -0.6069  0.4483  0.1857
  290SOL     OW 1157   0.805   0.599   1.490 -0.1091  0.0162 -0.0895
  290SOL    HW1 1158   0.858   0.532   1.446 -2.2353 -1.9073  0.4296
  290SOL    HW2 1159   0.862   0.621   1.565 -1.9027  1.4174  0.0903
  290SOL     MW 1160   0.819   0.593   1.495 -0.6262 -0.0527  0.0028
  291SOL     OW 1161   0.197   0.386   0.123 -0.6311 -0.0000  0.2683
  291SOL    HW1 1162   0.285   0.345   0.148  3.1761  2.0080 -0.5681
  291SOL    HW2 1163   0.141   0.310   0.133  1.6814 -0.2065 -0.3809
  291SOL     MW 1164   0.202   0.370   0.128  0.1764  0.2377  0.0723
  292SOL     OW 1165   1.032   0.597   0.134 -0.0194 -0.2778  0.2265
  292SOL    HW1 1166   1.097   0.649   0.186  1.2188  2.9390 -0.3619
  292SOL    HW2 1167   1.048   0.504   0.153  2.2195  2.8863 -0.2059
  292SOL     MW 1168   1.043   0.592   0.144  0.4394  0.5641  0.0918
  293SOL     OW 1169   0.124   0.182   2.500 -0.0751 -0.3207  0.3083
  293SOL    HW1 1170   0.073   0.111   2.451 -1.4097  0.0450  0.4689
  293SOL    HW2 1171   0.068   0.206   2.574 -2.7869  2.0799 -0.0635
  293SOL     MW 1172   0.110   0.176   2.503 -0.6090  0.0443  0.2805
  294SOL     OW 1173   1.359   0.578   2.312 -0.1036 -0.5686 -0.3373
  294SOL    HW1 1174   1.390   0.649   2.374 -1.9394 -1.7760  0.2527
  294SOL    HW2 1175   1.407   0.511   2.359 -2.1093 -0.8828 -2.3165
  294SOL     MW 1176   1.369   0.579   2.327 -0.6104 -0.7694 -0.5206
  295SOL     OW 1177   0.904   0.538   2.557 -0.2115 -0.1095 -0.2948
  295SOL    HW1 1178   0.871   0.527   2.469 -2.6714 -1.3854  2.8911
  295SOL    HW2 1179   0.835   0.577   2.612  2.2143 -0.3776 -0.8939
  295SOL     MW 1180   0.891   0.542   2.553 -0.2160 -0.3132  0.0465
  296SOL     OW 1181   1.213   0.232   2.023  0.0298 -0.0542 -0.0762
  296SOL    HW1 1182   1.305   0.219   1.989 -0.7492 -0.0990  1.2502
  296SOL    HW2 1183   1.228   0.223   2.115 -1.1379 -0.2090 -0.5095
  296SOL     MW 1184   1.227   0.229   2.030 -0.2270 -0.0805  0.0417
  297SOL     OW 1185   1.405   0.377   1.539 -0.4650 -0.5185 -0.1986
  297SOL    HW1 1186   1.453   0.436   1.598  0.4462  2.5741  0.2030
  297SOL    HW2 1187   1.401   0.291   1.577 -3.1933  1.1335  1.0738
  297SOL     MW 1188   1.411   0.373   1.551 -0.7048  0.1075  0.0222
  298SOL     OW 1189   1.610   0.859   2.076  0.0142  0.4016  0.2933
  298SOL    HW1 1190   1.656   0.912   2.010  1.6836  0.7800  0.4085
  298SOL    HW2 1191   1.683   0.814   2.117 -0.7609  1.0163  0.6273
  298SOL     MW 1192   1.626   0.860   2.073  0.1322  0.5327  0.3526
  299SOL     OW 1193   0.591   1.127   0.015 -0.5528  0.1175  0.7377
  299SOL    HW1 1194   0.597   1.119  -0.088  2.4996 -0.6467  0.7818
  299SOL    HW2 1195   0.677   1.154   0.047 -2.8031  1.3991  0.2462
  299SOL     MW 1196   0.603   1.130   0.006 -0.4470  0.1858  0.6787
  300SOL     OW 1197   1.202   1.132   2.472 -0.5295  0.0812  0.7251
  300SOL    HW1 1198   1.124   1.092   2.505  1.2446 -1.6409  0.3727
  300SOL    HW2 1199   1.245   1.160   2.553 -1.6961  0.9465  0.8518
  300SOL     MW 1200   1.197   1.131   2.487 -0.4493 -0.0318  0.6953
  301SOL     OW 1201   1.437   0.968   0.681 -0.1247  0.4876  0.4539
  301SOL    HW1 1202   1.464   1.000   0.766 -0.2896  0.2023  0.5113
  301SOL    HW2 1203   1.376   0.899   0.695  0.4504  1.3261 -0.1821
  301SOL     MW 1204   1.432   0.963   0.694 -0.0706  0.5606  0.3775
  302SOL     OW 1205   0.217   1.544   2.037 -0.0881 -0.3237  0.2276
  302SOL    HW1 1206   0.220   1.452   2.065  0.9409 -1.5881 -2.9038
  302SOL    HW2 1207   0.136   1.573   2.077 -0.4894 -2.5628  0.8314
  302SOL     MW 1208   0.207   1.536   2.046 -0.0053 -0.7859 -0.1059
  303SOL     OW 1209   0.337   1.787   2.692 -0.6140  0.2953 -0.6187
  303SOL    HW1 1210   0.295   1.806   2.607 -2.7509  1.3280 -2.4099
  303SOL    HW2 1211   0.277   1.780   2.763 -2.1139 -0.1545 -1.9880
  303SOL     MW 1212   0.324   1.788   2.690 -1.0938  0.3722 -1.0357
  304SOL     OW 1213   0.489   2.054   2.335 -0.1112 -0.0180  0.5201
  304SOL    HW1 1214   0.570   2.110   2.309 -2.0228  0.3204 -1.2430
  304SOL    HW2 1215   0.525   1.965   2.311  1.9871 -0.0456 -1.6491
  304SOL     MW 1216   0.505   2.049   2.329 -0.0866  0.0230  0.0013
  305SOL     OW 1217   1.106   0.663   0.573 -0.3035  0.2253  0.0917
  305SOL    HW1 1218   1.022   0.639   0.529 -2.2516  0.7038 -0.6108
  305SOL    HW2 1219   1.161   0.577   0.570  1.2861  0.6082 -0.7633
  305SOL     MW 1220   1.102   0.649   0.567 -0.3508  0.3389 -0.1138
  306SOL     OW 1221   1.143   1.553   0.216 -0.1950 -0.0458 -0.5652
  306SOL    HW1 1222   1.129   1.467   0.266 -1.0430 -1.0698  2.3031
  306SOL    HW2 1223   1.227   1.550   0.169 -0.2258 -0.7730  1.2065
  306SOL     MW 1224   1.152   1.542   0.216 -0.3110 -0.2768  0.0470
  307SOL     OW 1225   1.332   0.447   1.888  0.0076 -0.4156  0.0659
  307SOL    HW1 1226   1.276   0.392   1.943 -0.8943  0.1866  2.9788
  307SOL    HW2 1227   1.380   0.509   1.947  0.7854 -0.1232  0.4816
  307SOL     MW 1228   1.331   0.448   1.903 -0.0088 -0.2975  0.5051
  308SOL     OW 1229   2.232   0.499   2.674 -0.3193 -0.1890  0.2569
  308SOL    HW1 1230   2.323   0.484   2.696 -1.6069  1.9072 -1.9671
  308SOL    HW2 1231   2.222   0.597   2.684 -1.5025 -1.5234 -1.6512
  308SOL     MW 1232   2.243   0.510   2.678 -0.6453 -0.0885 -0.2883
  309SOL     OW 1233   0.470   0.551   0.229  0.0422 -0.3766  0.2934
  309SOL    HW1 1234   0.561   0.571   0.204 -1.9033  1.2957 -4.7077
  309SOL    HW2 1235   0.461   0.458   0.215 -1.2940  0.6820 -0.3918
  309SOL     MW 1236   0.481   0.541   0.224 -0.3907 -0.0163 -0.4568
  310SOL     OW 1237   0.483   0.608   1.911  0.2956  0.8707  0.5853
  310SOL    HW1 1238   0.542   0.550   1.876 -0.3938 -0.6803 -0.1646
  310SOL    HW2 1239   0.519   0.692   1.875  0.6990 -0.1885 -0.4803
  310SOL     MW 1240   0.496   0.612   1.902  0.2578  0.5263  0.3457
  311SOL     OW 1241   1.929   0.654   1.925  0.4324  0.1593 -0.5626
  311SOL    HW1 1242   1.870   0.659   2.002  2.9663 -2.6112 -0.7740
  311SOL    HW2 1243   1.998   0.598   1.964 -0.4403  0.6349  3.3124
  311SOL     MW 1244   1.931   0.647   1.940  0.6516 -0.1435 -0.0792
  312SOL     OW 1245   1.803   2.466   0.172 -0.2217 -0.2376 -0.1322
  312SOL    HW1 1246   1.823   2.440   0.261 -0.0401  0.0345  0.9593
  312SOL    HW2 1247   1.717   2.508   0.165 -0.0967 -1.1430 -1.5588
  312SOL     MW 1248   1.795   2.468   0.183 -0.1813 -0.3211 -0.1764
  313SOL     OW 1249   0.111   1.130   3.031  0.5235  0.8103  0.0076
  313SOL    HW1 1250   0.057   1.185   3.085  1.8678 -1.0576  1.1280
  313SOL    HW2 1251   0.180   1.187   3.007 -0.1555 -3.9827 -0.2521
  313SOL     MW 1252   0.113   1.145   3.035  0.6113 -0.0685  0.1212
  314SOL     OW 1253   2.176   2.961   3.016 -0.2831  0.2419  0.8013
  314SOL    HW1 1254   2.110   3.012   2.968  3.1775 -2.3555  3.0014
  314SOL    HW2 1255   2.230   3.022   3.061 -0.3195 -1.2645 -1.7107
  314SOL     MW 1256   2.174   2.976   3.016  0.1687 -0.2995  0.7601
  315SOL     OW 1257   1.542   1.820   2.977  0.4585  0.8290 -0.0772
  315SOL    HW1 1258   1.492   1.880   3.040 -0.2018 -1.5132 -3.0961
  315SOL    HW2 1259   1.581   1.891   2.920 -2.9921 -1.1960 -1.0276
  315SOL     MW 1260   1.541   1.838   2.978 -0.0839  0.2528 -0.6009
  316SOL     OW 1261   1.243   0.559   2.713 -0.1245  0.1594  0.0548
  316SOL    HW1 1262   1.340   0.552   2.728  1.3102  1.3335  0.9910
  316SOL    HW2 1263   1.206   0.565   2.801  1.3413 -0.5879 -0.4859
  316SOL     MW 1264   1.251   0.559   2.727  0.2582  0.2157  0.1070
  317SOL     OW 1265   0.695   1.558   2.633  0.2661  0.1951 -0.3917
  317SOL    HW1 1266   0.743   1.478   2.657  3.9598  0.1005 -1.1840
  317SOL    HW2 1267   0.683   1.545   2.541  2.6600  0.7076  0.9844
  317SOL     MW 1268   0.700   1.546   2.624  1.0693  0.2502 -0.3147
  318SOL     OW 1269   1.356   0.355   2.953  0.2200  0.0637  0.6158
  318SOL    HW1 1270   1.269   0.397   2.956 -0.7446  2.7791 -1.6654
  318SOL    HW2 1271   1.412   0.397   2.888 -3.0505 -0.4224  1.1645
  318SOL     MW 1272   1.352   0.366   2.945 -0.3387  0.3579  0.3872
  319SOL     OW 1273   0.867   0.346   2.926 -0.4376  0.3359  0.3917
  319SOL    HW1 1274   0.809   0.293   2.876  1.9135 -0.9939 -1.4014
  319SOL    HW2 1275   0.810   0.380   3.003  0.8545  2.8493  1.2239
  319SOL     MW 1276   0.852   0.343   2.930  0.0431  0.4921  0.2649
  320SOL     OW 1277   1.077   1.378   2.001  0.0035  0.2096 -0.0373
  320SOL    HW1 1278   1.135   1.303   2.026  0.9278  0.1798 -2.1426
  320SOL    HW2 1279   1.146   1.445   1.983 -1.0966  0.1690  0.2185
  320SOL     MW 1280   1.094   1.377   2.002 -0.0197  0.2003 -0.2813
  321SOL     OW 1281   1.096   0.914   2.981  0.7098  0.1186  0.4535
  321SOL    HW1 1282   1.022   0.898   2.913  1.9129 -2.0389  0.8800
  321SOL    HW2 1283   1.149   0.835   2.964  0.4566  0.3196  0.1110
  321SOL     MW 1284   1.093   0.902   2.970  0.8351 -0.1395  0.4646
  322SOL     OW 1285   1.178   0.841   1.663  0.5582 -0.7832 -0.3031
  322SOL    HW1 1286   1.256   0.797   1.703 -0.7487  2.3697  0.6789
  322SOL    HW2 1287   1.141   0.881   1.751  3.0322 -0.8233  1.6155
  322SOL     MW 1288   1.184   0.840   1.680  0.7122 -0.3725  0.0796
  323SOL     OW 1289   1.238   1.614   1.898 -0.1806  0.5695  0.0512
  323SOL    HW1 1290   1.281   1.605   1.813 -0.6033  0.4187 -0.7585
  323SOL    HW2 1291   1.189   1.698   1.898  3.9765  0.7434 -0.2830
  323SOL     MW 1292   1.237   1.624   1.887  0.3121  0.5726 -0.0998
  324SOL     OW 1293   1.496   1.009   2.412  0.6686 -0.3794 -0.0968
  324SOL    HW1 1294   1.420   1.053   2.450 -1.2360  3.0033 -1.1127
  324SOL    HW2 1295   1.563   1.068   2.444 -0.2817  1.8450  1.4954
  324SOL     MW 1296   1.495   1.023   2.421  0.2919  0.3604 -0.0208
  325SOL     OW 1297   1.099   0.485   2.961 -0.1313  0.1182  0.1896
  325SOL    HW1 1298   1.090   0.546   3.038  1.7516  0.4151  2.6916
  325SOL    HW2 1299   1.014   0.441   2.941  1.2397  1.7128  0.3207
  325SOL     MW 1300   1.086   0.488   2.969  0.2980  0.3677  0.5370
  326SOL     OW 1301   0.349   1.382   2.286 -0.6449 -0.0612 -0.6000
  326SOL    HW1 1302   0.440   1.340   2.291  1.9994 -2.3452  2.3158
  326SOL    HW2 1303   0.372   1.477   2.300 -1.8944 -1.1524 -1.6538
  326SOL     MW 1304   0.364   1.389   2.289 -0.4609 -0.5065 -0.3543
  327SOL     OW 1305   1.922   0.777   2.458  0.2321  0.4104  0.2380
  327SOL    HW1 1306   1.873   0.741   2.536  1.3212  0.3472  1.1216
  327SOL    HW2 1307   1.927   0.871   2.460  0.3384 -2.3009 -0.4943
  327SOL     MW 1308   1.916   0.785   2.468  0.3899  0.0444  0.2580
  328SOL     OW 1309   0.217   1.261   2.074  0.5862  0.3922 -0.5728
  328SOL    HW1 1310   0.132   1.222   2.099 -0.3627  1.0682  0.0371
  328SOL    HW2 1311   0.263   1.281   2.159  3.3022 -0.7237 -0.1166
  328SOL     MW 1312   0.212   1.259   2.089  0.8194  0.3341 -0.4321
  329SOL     OW 1313   0.053   0.172   1.359  0.5537 -0.0591 -0.2801
  329SOL    HW1 1314   0.045   0.133   1.446  2.8448 -0.6441 -2.3773
  329SOL    HW2 1315   0.147   0.166   1.356  0.2031  1.0196  1.3557
  329SOL     MW 1316   0.064   0.166   1.370  0.8097  0.0060 -0.3410
  330SOL     OW 1317   0.394   3.070   2.037 -0.0443  0.5022  0.3135
  330SOL    HW1 1318   0.487   3.071   2.058 -0.0102 -0.5314 -4.3912
  330SOL    HW2 1319   0.343   3.018   2.099  1.9376  2.4987 -0.0688
  330SOL     MW 1320   0.399   3.064   2.048  0.2217  0.6292 -0.3577
  331SOL     OW 1321   0.777   1.238   2.439 -0.4067 -0.4942  0.5779
  331SOL    HW1 1322   0.705   1.265   2.380  2.6277  0.6058 -2.0423
  331SOL    HW2 1323   0.776   1.303   2.512  0.0168  0.1703  1.6664
  331SOL     MW 1324   0.767   1.250   2.441  0.0495 -0.2614  0.3758
  332SOL     OW 1325   1.343   1.665   2.903 -0.3435  0.2695 -0.4227
  332SOL    HW1 1326   1.331   1.688   2.811  0.5931 -1.2291 -0.3560
  332SOL    HW2 1327   1.418   1.721   2.927  0.1558 -1.2194  3.4988
  332SOL     MW 1328   1.351   1.675   2.894 -0.1540 -0.1247  0.1035
  333SOL     OW 1329   1.729   1.415   2.897 -0.3279 -0.0495 -0.0645
  333SOL    HW1 1330   1.830   1.425   2.907  3.0096 -0.6636 -0.5198
  333SOL    HW2 1331   1.704   1.360   2.975 -1.2362  0.3782  2.4540
  333SOL     MW 1332   1.739   1.409   2.908 -0.0074 -0.0741  0.2077
  334SOL     OW 1333   1.275   3.054   2.599  0.0996 -0.4648  0.4336
  334SOL    HW1 1334   1.197   3.029   2.650  2.0856 -0.3089  2.1086
  334SOL    HW2 1335   1.312   3.139   2.644  1.2503  0.5283  2.1072
  334SOL     MW 1336   1.270   3.062   2.612  0.5135 -0.3132  0.8754
  335SOL     OW 1337   1.319   0.730   2.989 -0.7256  0.1941 -0.1212
  335SOL    HW1 1338   1.367   0.724   3.074  2.6226 -1.5431  1.9872
  335SOL    HW2 1339   1.374   0.784   2.921  4.0822 -0.5913 -0.6297
  335SOL     MW 1340   1.333   0.736   2.991  0.3505 -0.1387  0.0899
  336SOL     OW 1341   0.948   1.180   1.793 -0.0168  0.4837 -0.5365
  336SOL    HW1 1342   0.959   1.260   1.848 -0.3714 -1.6855 -2.7029
  336SOL    HW2 1343   0.969   1.107   1.850 -3.0366  0.2873  0.0669
  336SOL     MW 1344   0.952   1.181   1.807 -0.4620  0.1716 -0.7427
  337SOL     OW 1345   0.594   1.840   2.767 -0.1011  0.1128  0.1682
  337SOL    HW1 1346   0.543   1.797   2.695  0.0316  1.5544  0.7356
  337SOL    HW2 1347   0.688   1.812   2.763 -1.5427  0.1436  0.9091
  337SOL     MW 1348   0.600   1.831   2.757 -0.2738  0.3071  0.3408
  338SOL     OW 1349   1.095   0.733   2.565 -1.0736 -0.1985  0.2244
  338SOL    HW1 1350   1.022   0.665   2.575  1.4960 -1.4139 -1.4726
  338SOL    HW2 1351   1.161   0.691   2.614 -1.4483  3.1788 -2.2371
  338SOL     MW 1352   1.094   0.718   2.573 -0.7840  0.0867 -0.3243
  339SOL     OW 1353   1.486   1.081   1.863 -0.4168  0.7802  0.2145
  339SOL    HW1 1354   1.427   1.077   1.787 -2.0011 -0.7204  0.9032
  339SOL    HW2 1355   1.430   1.098   1.937 -1.2586 -0.0180 -0.1293
  339SOL     MW 1356   1.471   1.083   1.863 -0.7369  0.4769  0.2600
  340SOL     OW 1357   1.375   1.495   0.027 -0.0909 -0.2321  0.2004
  340SOL    HW1 1358   1.391   1.536  -0.059 -3.0146  0.0255 -1.0521
  340SOL    HW2 1359   1.434   1.426   0.042 -0.7269  2.2897  1.8300
  340SOL     MW 1360   1.385   1.491   0.018 -0.5605  0.1346  0.2502
  341SOL     OW 1361   0.055   1.350   2.743 -0.8468  0.2270  0.1149
  341SOL    HW1 1362   0.138   1.330   2.782 -0.7813  0.1614 -0.2587
  341SOL    HW2 1363   0.052   1.317   2.657 -0.8878  1.7324  0.9769
  341SOL     MW 1364   0.065   1.343   2.737 -0.8436  0.4170  0.1794
  342SOL     OW 1365   1.373   0.357   0.131  0.1824 -0.3503 -1.1378
  342SOL    HW1 1366   1.427   0.420   0.189  2.8953 -0.3818  2.0043
  342SOL    HW2 1367   1.376   0.379   0.039  0.9040  0.0286 -1.2052
  342SOL     MW 1368   1.381   0.368   0.127  0.6355 -0.3045 -0.7321
  343SOL     OW 1369   0.305   0.302   2.223  0.1792 -0.1844 -0.2222
  343SOL    HW1 1370   0.368   0.233   2.203 -1.4492  0.9907  1.6352
  343SOL    HW2 1371   0.225   0.253   2.197 -0.9443  0.0794 -0.5121
  343SOL     MW 1372   0.303   0.286   2.217 -0.1839  0.0054 -0.0154
  344SOL     OW 1373   1.685   2.047   0.186  0.8187 -0.3998 -0.2447
  344SOL    HW1 1374   1.704   2.085   0.100  1.5573  0.4755 -0.0025
  344SOL    HW2 1375   1.586   2.031   0.172 -2.8533  0.9967  0.1264
  344SOL     MW 1376   1.674   2.050   0.173  0.4317 -0.1000 -0.1638
  345SOL     OW 1377   0.687   1.567   2.367 -0.3901  0.4150  0.5325
  345SOL    HW1 1378   0.602   1.590   2.318 -1.1403  2.0495 -1.0008
  345SOL    HW2 1379   0.750   1.532   2.303 -2.6248 -0.1943  0.8352
  345SOL     MW 1380   0.684   1.565   2.352 -0.7839  0.5503  0.3702
  346SOL     OW 1381   1.729   1.130   0.012 -0.2132 -0.2876 -0.4188
  346SOL    HW1 1382   1.822   1.101   0.016 -1.5286  2.3752 -1.5877
  346SOL    HW2 1383   1.684   1.052   0.057 -0.2520 -0.2861  0.5484
  346SOL     MW 1384   1.735   1.116   0.019 -0.3919  0.0640 -0.4454
  347SOL     OW 1385   1.148   0.745   2.280 -0.2965  0.3386 -0.3214
  347SOL    HW1 1386   1.221   0.683   2.279  1.7336 -0.2398 -0.6656
  347SOL    HW2 1387   1.128   0.753   2.369 -0.5362  3.2114  0.2168
  347SOL     MW 1388   1.155   0.738   2.292 -0.0603  0.6413 -0.2958
  348SOL     OW 1389   1.337   2.552   1.910  0.5228 -0.3658  0.4191
  348SOL    HW1 1390   1.331   2.493   1.987 -0.0638 -2.5337  1.2755
  348SOL    HW2 1391   1.368   2.639   1.950 -0.4356  0.0807  0.0193
  348SOL     MW 1392   1.340   2.556   1.926  0.3189 -0.5929  0.4793
  349SOL     OW 1393   1.399   0.146   2.721 -0.0608 -0.2531  0.3751
  349SOL    HW1 1394   1.354   0.208   2.783  0.9862  0.9237 -0.5100
  349SOL    HW2 1395   1.457   0.085   2.774  0.4397  2.2516  1.2693
  349SOL     MW 1396   1.401   0.146   2.736  0.1434  0.2326  0.3763
  350SOL     OW 1397   1.806   0.661   2.676  0.3409 -0.0566  0.5043
  350SOL    HW1 1398   1.763   0.588   2.614  0.6866  1.5183 -1.1155
  350SOL    HW2 1399   1.895   0.632   2.688 -2.1748 -0.1784 -1.5224
  350SOL     MW 1400   1.812   0.648   2.670  0.0546  0.1351  0.0232
  351SOL     OW 1401   0.077   1.198   1.641 -0.0596 -0.0195  0.0286
  351SOL    HW1 1402  -0.001   1.209   1.691 -0.5477 -0.7436  0.4583
  351SOL    HW2 1403   0.143   1.260   1.687 -1.4683 -0.2495  0.6279
  351SOL     MW 1404   0.075   1.208   1.653 -0.3099 -0.1454  0.1643
  352SOL     OW 1405   0.840   1.731   2.798  0.1165  0.6918  0.2415
  352SOL    HW1 1406   0.846   1.694   2.892 -1.3338  0.8474 -1.5310
  352SOL    HW2 1407   0.813   1.655   2.743  0.0178 -0.3278 -1.0569
  352SOL     MW 1408   0.838   1.716   2.803 -0.0879  0.5778 -0.1636
  353SOL     OW 1409   0.036   2.541   2.767 -0.0506  0.4452 -0.1461
  353SOL    HW1 1410   0.119   2.536   2.718 -0.9186  1.8246  0.0646
  353SOL    HW2 1411   0.022   2.634   2.754  0.5646  1.1529  0.1773
  353SOL     MW 1412   0.045   2.553   2.759 -0.0840  0.7206 -0.0757
  354SOL     OW 1413   0.311   2.446   0.816 -0.1854  0.3258  0.7008
  354SOL    HW1 1414   0.339   2.437   0.905 -0.3353 -1.0394 -2.4228
  354SOL    HW2 1415   0.225   2.410   0.810  1.0656 -2.0227 -2.8625
  354SOL     MW 1416   0.303   2.440   0.827 -0.0401 -0.1642 -0.1815
  355SOL     OW 1417   3.084   2.238   0.351  0.1841 -0.1676 -0.0524
  355SOL    HW1 1418   2.987   2.208   0.353 -1.9949  0.6656 -2.0235
  355SOL    HW2 1419   3.084   2.289   0.439  0.4554  3.8641 -1.1264
  355SOL     MW 1420   3.071   2.240   0.363 -0.0676  0.4742 -0.4541
  356SOL     OW 1421   0.820   2.746   0.934 -0.3455  0.2487 -0.1474
  356SOL    HW1 1422   0.870   2.811   0.883 -2.4325  3.0759 -1.0975
  356SOL    HW2 1423   0.727   2.777   0.912 -1.3708 -0.2490  0.6925
  356SOL     MW 1424   0.814   2.759   0.924 -0.7562  0.5561 -0.1619
  357SOL     OW 1425   1.788   2.830   0.457  0.1995 -0.1602  0.6891
  357SOL    HW1 1426   1.779   2.781   0.538 -3.0184 -1.7864  0.7746
  357SOL    HW2 1427   1.871   2.800   0.425 -0.4897 -4.7148  1.7044
  357SOL     MW 1428   1.798   2.820   0.464 -0.3160 -0.9757  0.8343
  358SOL     OW 1429   0.479   0.151   1.008 -0.3288  0.1124  0.3291
  358SOL    HW1 1430   0.575   0.162   0.983  1.4633 -0.5793 -1.4262
  358SOL    HW2 1431   0.436   0.162   0.922  0.2191  0.5608 -0.0236
  358SOL     MW 1432   0.486   0.154   0.993 -0.0201  0.0803  0.0510
  359SOL     OW 1433   0.805   2.901   1.875 -0.3367 -0.0193  0.1394
  359SOL    HW1 1434   0.802   2.809   1.906  0.1020  0.0583  4.2964
  359SOL    HW2 1435   0.855   2.896   1.795  0.7058  0.1801  0.5816
  359SOL     MW 1436   0.811   2.888   1.868 -0.1413  0.0173  0.7462
  360SOL     OW 1437   0.555   2.791   0.873 -0.6624 -0.3064  0.0205
  360SOL    HW1 1438   0.584   2.777   0.781 -0.3526  1.6053  0.8004
  360SOL    HW2 1439   0.558   2.705   0.923  2.8903 -0.7109  0.6719
  360SOL     MW 1440   0.559   2.778   0.867 -0.1528 -0.1076  0.2093
  361SOL     OW 1441   0.226   2.617   1.366 -0.3683 -0.1985  0.6401
  361SOL    HW1 1442   0.206   2.677   1.436 -0.2352 -0.5356  1.0779
  361SOL    HW2 1443   0.323   2.630   1.355 -2.4936 -1.5024  1.4612
  361SOL     MW 1444   0.237   2.627   1.374 -0.6312 -0.4150  0.8062
  362SOL     OW 1445   1.438   2.368   0.619 -0.0404 -0.0670 -0.1811
  362SOL    HW1 1446   1.466   2.293   0.670 -1.4189  1.8275 -0.7239
  362SOL    HW2 1447   1.494   2.437   0.661  0.3172 -1.3854 -0.5514
  362SOL     MW 1448   1.449   2.367   0.631 -0.1751  0.0090 -0.3016
  363SOL     OW 1449   0.308   3.063   0.672  0.0347  0.6420 -0.2670
  363SOL    HW1 1450   0.308   3.010   0.752  0.0605  0.5143  1.2435
  363SOL    HW2 1451   0.216   3.086   0.655 -0.0551 -0.6805 -0.0915
  363SOL     MW 1452   0.296   3.059   0.680  0.0263  0.4507 -0.0446
  364SOL     OW 1453   0.737   0.244   0.186  0.7938  0.0519 -0.3958
  364SOL    HW1 1454   0.664   0.184   0.212 -0.3317 -1.8431 -0.2257
  364SOL    HW2 1455   0.705   0.307   0.118  1.0856  1.6861  0.2495
  364SOL     MW 1456   0.723   0.244   0.181  0.6838  0.0175 -0.2882
  365SOL     OW 1457   0.963   2.025   1.134 -0.2417  0.4996 -0.8861
  365SOL    HW1 1458   0.914   2.105   1.119  1.1598 -1.6051  1.4588
  365SOL    HW2 1459   0.919   1.957   1.084 -0.1524  3.5252 -0.6838
  365SOL     MW 1460   0.951   2.027   1.126 -0.0450  0.6211 -0.5500
  366SOL     OW 1461   2.928   2.637   0.933 -0.1457  0.1014  0.1977
  366SOL    HW1 1462   3.010   2.623   0.985  1.1606 -2.2550 -1.8145
  366SOL    HW2 1463   2.964   2.676   0.848  0.8734 -0.2605  0.8665
  366SOL     MW 1464   2.944   2.640   0.928  0.1611 -0.2572  0.0205
  367SOL     OW 1465   1.236   2.936   0.876 -0.1776  0.9103  0.2729
  367SOL    HW1 1466   1.248   3.020   0.837  0.2041 -0.9039  1.7349
  367SOL    HW2 1467   1.216   2.879   0.804  1.2794  0.0700  0.3370
  367SOL     MW 1468   1.235   2.939   0.861  0.0650  0.5600  0.4742
  368SOL     OW 1469   1.694   0.359   0.733  0.6452  0.5121  0.0013
  368SOL    HW1 1470   1.715   0.298   0.667  1.5482  2.9802  0.1961
  368SOL    HW2 1471   1.723   0.446   0.703 -0.9955  0.0022 -0.6975
  368SOL     MW 1472   1.700   0.363   0.721  0.5479  0.7705 -0.0652
  369SOL     OW 1473   0.116   2.425   1.762 -0.1581 -0.3915  0.1616
  369SOL    HW1 1474   0.207   2.428   1.784 -1.5295 -1.4437 -0.0943
  369SOL    HW2 1475   0.102   2.520   1.749 -0.0850 -1.5009 -2.3638
  369SOL     MW 1476   0.126   2.438   1.763 -0.3294 -0.6767 -0.2054
  370SOL     OW 1477   0.739   0.147   0.944  0.0019  0.0014  0.4647
  370SOL    HW1 1478   0.779   0.233   0.937  0.5094  0.6244 -1.2201
  370SOL    HW2 1479   0.798   0.087   1.001 -1.0022 -0.8850 -0.1754
  370SOL     MW 1480   0.752   0.150   0.951 -0.0636 -0.0334  0.1580
  371SOL     OW 1481   1.301   2.860   1.500 -0.0463 -0.8640  0.7303
  371SOL    HW1 1482   1.242   2.785   1.485 -1.8186 -0.2538 -0.9918
  371SOL    HW2 1483   1.299   2.914   1.416  0.6515 -0.9712 -0.9258
  371SOL     MW 1484   1.293   2.857   1.487 -0.1881 -0.7976  0.2846
  372SOL     OW 1485   0.810   2.297   0.490 -0.1032 -0.0886 -0.0651
  372SOL    HW1 1486   0.767   2.212   0.499  1.5020  0.2885  0.4372
  372SOL    HW2 1487   0.831   2.290   0.390 -0.1968 -2.0587  0.7250
  372SOL     MW 1488   0.807   2.285   0.478  0.0962 -0.2988  0.1054
  373SOL     OW 1489   2.847   3.039   1.421  0.4970 -0.1540 -0.7174
  373SOL    HW1 1490   2.924   3.010   1.371  3.8039  2.4344 -1.8731
  373SOL    HW2 1491   2.829   3.132   1.389  1.0922  1.7115 -0.9871
  373SOL     MW 1492   2.855   3.048   1.410  1.0118  0.4337 -0.9054
  374SOL     OW 1493   1.525   0.511   0.296  0.4032 -0.5254  0.0277
  374SOL    HW1 1494   1.623   0.508   0.307  1.3731 -2.2547 -1.3745
  374SOL    HW2 1495   1.490   0.462   0.373 -0.6556 -2.1701  1.4003
  374SOL     MW 1496   1.533   0.504   0.307  0.3915 -0.9705  0.0238
  375SOL     OW 1497   0.976   2.102   2.309 -0.3792 -0.0496  0.8083
  375SOL    HW1 1498   1.026   2.079   2.382 -0.0497  3.3397 -1.8086
  375SOL    HW2 1499   0.936   2.027   2.262 -2.7140  0.4116 -2.5195
  375SOL     MW 1500   0.977   2.089   2.312 -0.6438  0.4584  0.0240
  376SOL     OW 1501   0.703   2.490   0.074 -0.5442 -0.0431  0.5105
  376SOL    HW1 1502   0.623   2.438   0.098 -0.1663  1.6961 -1.2262
  376SOL    HW2 1503   0.715   2.456  -0.022  1.1836 -3.3824 -1.4727
  376SOL     MW 1504   0.694   2.478   0.064 -0.2664 -0.2542  0.0197
  377SOL     OW 1505   1.264   2.082   0.874  0.0056  0.3973  0.5717
  377SOL    HW1 1506   1.172   2.076   0.843  0.8660  2.5586  0.9989
  377SOL    HW2 1507   1.263   2.029   0.959 -1.1720 -0.6502  2.7147
  377SOL     MW 1508   1.251   2.074   0.881 -0.0362  0.5442  0.9108
  378SOL     OW 1509   0.912   2.858   1.620  0.1508  0.1398 -0.7161
  378SOL    HW1 1510   0.946   2.767   1.620  0.9509 -1.4596 -1.0117
  378SOL    HW2 1511   0.964   2.905   1.560  2.6702  2.4698  1.5146
  378SOL     MW 1512   0.923   2.852   1.612  0.5888  0.2362 -0.4608
  379SOL     OW 1513   1.142   1.668   2.161 -0.2657 -0.0575  0.0027
  379SOL    HW1 1514   1.059   1.632   2.131  0.8212 -1.6130  0.0291
  379SOL    HW2 1515   1.211   1.601   2.133  1.4122  0.2954  0.1208
  379SOL     MW 1516   1.140   1.654   2.154  0.0991 -0.2162  0.0218
  380SOL     OW 1517   0.893   0.116   1.472  0.1145 -0.9928 -0.1861
  380SOL    HW1 1518   0.886   0.028   1.436  1.4101  2.3720 -0.4879
  380SOL    HW2 1519   0.937   0.108   1.559 -2.2381  2.3407 -1.7769
  380SOL     MW 1520   0.898   0.104   1.479 -0.0249 -0.1090 -0.4358
  381SOL     OW 1521   0.719   2.081   0.831 -0.0149  0.1543  0.5441
  381SOL    HW1 1522   0.814   2.077   0.816 -0.4598 -0.4649 -1.4826
  381SOL    HW2 1523   0.716   2.131   0.911  0.9846  1.1036  2.9432
  381SOL     MW 1524   0.732   2.087   0.839  0.0583  0.1979  0.5932
  382SOL     OW 1525   0.710   0.142   0.621  0.4133 -0.1080 -0.2540
  382SOL    HW1 1526   0.693   0.172   0.710  1.2145  0.0476 -1.4535
  382SOL    HW2 1527   0.690   0.049   0.615  0.8378  0.0511  1.9751
  382SOL     MW 1528   0.705   0.134   0.632  0.5750 -0.0665 -0.1182
  383SOL     OW 1529   0.560   0.044   0.269 -0.1108  0.0679  0.0624
  383SOL    HW1 1530   0.621  -0.024   0.236  2.6168  2.4936  1.8083
  383SOL    HW2 1531   0.532  -0.002   0.346 -2.7057  0.6481 -0.6875
  383SOL     MW 1532   0.564   0.029   0.275 -0.0933  0.4645  0.1938
  384SOL     OW 1533   0.747   2.976   0.587 -0.2163  0.2632  0.6091
  384SOL    HW1 1534   0.824   2.948   0.642  2.5857 -0.7087  2.1480
  384SOL    HW2 1535   0.689   2.896   0.579  1.7980  2.7706 -0.9834
  384SOL     MW 1536   0.749   2.961   0.593  0.4191  0.4658  0.6020
  385SOL     OW 1537   1.441   2.041   1.537  0.3173 -0.2461  0.7117
  385SOL    HW1 1538   1.503   2.078   1.598 -1.3099 -2.0734 -0.7010
  385SOL    HW2 1539   1.390   1.989   1.606 -0.6547 -0.2006 -1.3835
  385SOL     MW 1540   1.442   2.039   1.554 -0.0256 -0.4812  0.2489
  386SOL     OW 1541   1.302   0.351   0.846  0.4757 -0.0705 -0.2761
  386SOL    HW1 1542   1.268   0.400   0.924 -0.3289  0.7189 -1.1254
  386SOL    HW2 1543   1.366   0.283   0.875  0.2489 -2.1925 -1.0345
  386SOL     MW 1544   1.306   0.348   0.860  0.3396 -0.2463 -0.4882
  387SOL     OW 1545   0.825   2.177   1.503 -0.1996 -0.5418 -0.2938
  387SOL    HW1 1546   0.901   2.239   1.488  2.8801  1.1043 -0.6902
  387SOL    HW2 1547   0.846   2.087   1.470 -1.5024 -0.9753 -1.7481
  387SOL     MW 1548   0.838   2.173   1.497  0.0349 -0.3818 -0.5380
  388SOL     OW 1549   1.513   2.752   1.252  0.5539 -0.3677  0.2637
  388SOL    HW1 1550   1.445   2.819   1.281 -0.0438  0.9853 -0.0045
  388SOL    HW2 1551   1.466   2.710   1.175  1.5295 -3.1704 -2.5622
  388SOL     MW 1552   1.498   2.755   1.246  0.6038 -0.5590 -0.1445
  389SOL     OW 1553   0.542   0.167   3.045  0.7701 -0.3802  0.2139
  389SOL    HW1 1554   0.595   0.102   3.001 -2.0015 -0.9070 -0.9845
  389SOL    HW2 1555   0.487   0.201   2.966  2.4509  0.5052 -1.7300
  389SOL     MW 1556   0.542   0.163   3.029  0.6262 -0.3329 -0.2007
  390SOL     OW 1557   1.314   0.029   0.716 -0.0565 -0.0842 -0.2313
  390SOL    HW1 1558   1.355   0.027   0.627 -0.6764  1.6574 -1.1856
  390SOL    HW2 1559   1.390   0.045   0.773  1.6417 -1.6305  0.8631
  390SOL     MW 1560   1.329   0.031   0.712  0.0858 -0.0584 -0.2128
  391SOL     OW 1561   0.395   2.180   1.504  0.0057 -0.1840  0.3495
  391SOL    HW1 1562   0.327   2.113   1.511 -0.8424  0.3497  0.6075
  391SOL    HW2 1563   0.344   2.258   1.517  1.2392  1.4068  2.1329
  391SOL     MW 1564   0.379   2.182   1.507  0.0566  0.0963  0.6189
  392SOL     OW 1565   2.084   2.231   0.317  0.4064 -0.0963 -0.1750
  392SOL    HW1 1566   2.171   2.191   0.330 -1.2924  1.1846 -0.8673
  392SOL    HW2 1567   2.044   2.229   0.403 -2.3104 -0.3553  0.6094
  392SOL     MW 1568   2.090   2.225   0.330 -0.1762  0.0385 -0.1628
  393SOL     OW 1569   0.296   2.909   2.809  0.3424  0.0097  0.0792
  393SOL    HW1 1570   0.363   2.889   2.742  0.8285  1.0806  0.7154
  393SOL    HW2 1571   0.275   2.999   2.789  1.4233  1.6250  3.6158
  393SOL     MW 1572   0.302   2.918   2.797  0.5492  0.3642  0.6298
  394SOL     OW 1573   0.945   1.705   1.527  0.1610 -0.4626 -0.4302
  394SOL    HW1 1574   0.895   1.752   1.590  3.1158 -2.7125  1.4515
  394SOL    HW2 1575   0.967   1.771   1.463  1.1991 -3.1099  0.7729
  394SOL     MW 1576   0.941   1.720   1.527  0.6879 -1.1087 -0.0232
  395SOL     OW 1577   0.966   2.971   2.544  0.1935  0.2128 -0.3885
  395SOL    HW1 1578   0.967   3.012   2.631  0.3278 -0.3152  0.2191
  395SOL    HW2 1579   1.043   2.913   2.543 -1.3315  0.3897  1.2287
  395SOL     MW 1580   0.976   2.969   2.555  0.0100  0.1664 -0.0950
  396SOL     OW 1581   0.705   1.826   2.422 -0.2142 -0.0901  0.2267
  396SOL    HW1 1582   0.751   1.858   2.497 -0.0439  3.1341 -0.1271
  396SOL    HW2 1583   0.701   1.727   2.416  2.0270 -1.8519  2.3375
  396SOL     MW 1584   0.710   1.817   2.431  0.1040  0.1029  0.4585
  397SOL     OW 1585   1.033   2.325   1.440 -0.5202 -0.2971  0.0884
  397SOL    HW1 1586   1.046   2.367   1.350  2.9952 -1.1043 -2.5995
  397SOL    HW2 1587   1.121   2.282   1.458 -0.9620 -2.6063 -0.2687
  397SOL     MW 1588   1.047   2.325   1.430 -0.1147 -0.7083 -0.3133
  398SOL     OW 1589   0.630   2.736   0.615  0.1038  0.2951 -0.3103
  398SOL    HW1 1590   0.551   2.706   0.573 -2.2797  0.5299  0.7935
  398SOL    HW2 1591   0.689   2.660   0.627  2.0834  0.6606  1.2113
  398SOL     MW 1592   0.628   2.722   0.611  0.0505  0.3743  0.0361
  399SOL     OW 1593   0.204   2.082   0.334 -0.1530 -0.2711  0.4794
  399SOL    HW1 1594   0.118   2.130   0.332  3.0570 -1.5248 -2.8735
  399SOL    HW2 1595   0.240   2.103   0.246  1.5791  0.5190 -0.3441
  399SOL     MW 1596   0.197   2.091   0.322  0.4990 -0.3323 -0.0716
  400SOL     OW 1597   0.562   1.976   0.060 -0.0354  0.1084  1.2290
  400SOL    HW1 1598   0.505   2.046   0.045 -0.4185  0.7956 -0.5157
  400SOL    HW2 1599   0.532   1.931   0.138 -0.1683 -0.0659  1.0985
  400SOL     MW 1600   0.551   1.979   0.069 -0.1035  0.1760  0.9816
  401SOL     OW 1601   0.815   2.095   0.079 -0.1546  0.0848  0.1257
  401SOL    HW1 1602   0.871   2.019   0.068 -1.1305 -0.1327 -2.2988
  401SOL    HW2 1603   0.724   2.063   0.063  0.5551 -2.2566  1.1485
  401SOL     MW 1604   0.810   2.080   0.075 -0.1898 -0.2528 -0.0592
  402SOL     OW 1605   0.566   2.968   1.725 -0.4253  0.0154 -0.2977
  402SOL    HW1 1606   0.642   2.936   1.781 -0.2162 -0.3417 -3.2500
  402SOL    HW2 1607   0.586   3.058   1.708  0.1360 -1.5879  0.2729
  402SOL     MW 1608   0.579   2.975   1.730 -0.3236 -0.2433 -0.6119
  403SOL     OW 1609   0.107   0.437   0.392 -0.3179  0.5421 -0.8331
  403SOL    HW1 1610   0.183   0.482   0.427  1.2756  0.1227  1.7277
  403SOL    HW2 1611   0.143   0.417   0.305 -2.5596  3.3711 -0.9345
  403SOL     MW 1612   0.122   0.441   0.385 -0.4035  0.8601 -0.5086
  404SOL     OW 1613   0.957   2.911   0.755  0.2437 -0.3414 -0.1205
  404SOL    HW1 1614   1.024   2.844   0.744  2.3930 -1.3523 -2.0701
  404SOL    HW2 1615   0.991   3.002   0.755 -0.4712  0.7354  0.2277
  404SOL     MW 1616   0.970   2.914   0.754  0.4330 -0.3327 -0.3318
  405SOL     OW 1617   0.512   2.446   1.525 -0.1170  0.1921 -0.0092
  405SOL    HW1 1618   0.509   2.536   1.486  1.2204  1.1326  0.8989
  405SOL    HW2 1619   0.542   2.382   1.460  1.6289  1.9351  3.6092
  405SOL     MW 1620   0.516   2.450   1.511  0.2898  0.5462  0.5880
  406SOL     OW 1621   0.327   2.409   1.097  0.1960  0.1013 -0.0080
  406SOL    HW1 1622   0.231   2.402   1.105 -1.4728 -1.6951 -1.7837
  406SOL    HW2 1623   0.353   2.319   1.125 -0.1691 -0.5829  1.7056
  406SOL     MW 1624   0.318   2.396   1.101 -0.0724 -0.2260 -0.0162
  407SOL     OW 1625   0.078   2.689   1.151  0.2707  0.0927 -0.2759
  407SOL    HW1 1626   0.146   2.653   1.216  1.0895 -1.4612  3.0768
  407SOL    HW2 1627   0.122   2.688   1.066 -1.4035 -3.6959  1.0511
  407SOL     MW 1628   0.093   2.684   1.149  0.1578 -0.6122  0.3416
  408SOL     OW 1629   2.127   2.091   0.665  0.2996  0.0354  0.1796
  408SOL    HW1 1630   2.051   2.127   0.719  1.2998 -0.2375  0.3723
  408SOL    HW2 1631   2.100   2.007   0.624 -0.1607  1.8733  0.6423
  408SOL     MW 1632   2.114   2.085   0.667  0.3708  0.2419  0.2661
  409SOL     OW 1633   1.451   0.149   0.949  0.3059 -0.2328 -0.4295
  409SOL    HW1 1634   1.520   0.207   0.964  1.4370 -1.4382 -0.9901
  409SOL    HW2 1635   1.476   0.079   1.009  1.1075  1.5494 -0.0947
  409SOL     MW 1636   1.463   0.148   0.959  0.5609 -0.1567 -0.4593
  410SOL     OW 1637   1.063   2.404   1.185 -0.5051  0.3027 -0.1493
  410SOL    HW1 1638   1.028   2.455   1.115 -0.4851 -0.3486  1.6637
  410SOL    HW2 1639   1.148   2.365   1.153  0.7194 -3.5120  0.1335
  410SOL     MW 1640   1.070   2.406   1.172 -0.3409 -0.2865  0.1272
  411SOL     OW 1641   1.936   3.094   2.910  0.7077 -0.4414  0.2479
  411SOL    HW1 1642   1.871   3.071   2.846  2.0722  0.3875 -0.8815
  411SOL    HW2 1643   1.900   3.163   2.966 -1.3455 -2.2009 -0.4595
  411SOL     MW 1644   1.923   3.100   2.909  0.6169 -0.5642  0.0056
  412SOL     OW 1645   1.029   2.222   0.623  0.3510  0.1104 -0.0898
  412SOL    HW1 1646   1.077   2.298   0.644  0.4445 -2.3453  1.3228
  412SOL    HW2 1647   0.959   2.258   0.572  0.3819  2.4956  1.2808
  412SOL     MW 1648   1.026   2.237   0.619  0.3674  0.1011  0.2774
  413SOL     OW 1649   0.571   2.719   0.037  0.1813 -0.1252  0.0173
  413SOL    HW1 1650   0.619   2.624   0.036  5.6870 -1.9899  1.7413
  413SOL    HW2 1651   0.585   2.772  -0.039 -1.7680 -1.3692  0.5196
  413SOL     MW 1652   0.579   2.714   0.027  0.6505 -0.5353  0.3110
  414SOL     OW 1653   2.038   2.994   1.178  0.3253 -0.0357  0.4989
  414SOL    HW1 1654   2.069   3.085   1.211 -3.4722  1.5026 -1.0977
  414SOL    HW2 1655   1.995   3.010   1.093 -3.1321  0.3119  2.1967
  414SOL     MW 1656   2.036   3.008   1.171 -0.6319  0.2131  0.5122
  415SOL     OW 1657   1.750   2.797   1.079 -0.4605 -0.1160  0.1374
  415SOL    HW1 1658   1.675   2.779   1.133 -0.4219 -0.8944 -0.6723
  415SOL    HW2 1659   1.831   2.760   1.117 -0.5920  3.9486  0.7335
  415SOL     MW 1660   1.751   2.790   1.091 -0.4727  0.3176  0.1092
  416SOL     OW 1661   0.563   1.904   1.391 -0.1947 -1.0381  0.6228
  416SOL    HW1 1662   0.466   1.919   1.379 -1.7698 -3.0518  0.7841
  416SOL    HW2 1663   0.565   1.813   1.419 -0.4517  2.8714  0.4107
  416SOL     MW 1664   0.550   1.894   1.393 -0.4364 -0.7879  0.6161
  417SOL     OW 1665   0.983   2.997   2.039 -0.2330  0.6363 -0.2066
  417SOL    HW1 1666   0.930   3.002   2.113  0.9023 -1.4713  0.2237
  417SOL    HW2 1667   0.914   2.960   1.979  0.9256  0.6953  2.9747
  417SOL     MW 1668   0.967   2.993   2.041  0.0696  0.3660  0.2699
  418SOL     OW 1669   0.699   2.924   0.158  0.3550  0.6067 -0.2966
  418SOL    HW1 1670   0.779   2.915   0.103  0.7437  1.5437 -1.1117
  418SOL    HW2 1671   0.638   2.860   0.115  2.4274 -1.9270 -0.6464
  418SOL     MW 1672   0.702   2.915   0.145  0.6797  0.3960 -0.4503
  419SOL     OW 1673   0.509   2.644   1.347 -0.2498  0.7095  0.5625
  419SOL    HW1 1674   0.526   2.733   1.380  2.2022  0.3763 -0.0068
  419SOL    HW2 1675   0.588   2.596   1.325  1.2294  1.8597  1.7146
  419SOL     MW 1676   0.522   2.650   1.348  0.2689  0.8173  0.6394
  420SOL     OW 1677   0.796   2.217   1.070  0.2925  0.5675 -0.3325
  420SOL    HW1 1678   0.758   2.238   1.157 -1.7451 -0.7361 -0.7409
  420SOL    HW2 1679   0.832   2.298   1.031 -3.2017 -0.5746  0.4056
  420SOL     MW 1680   0.796   2.230   1.076 -0.4374  0.2448 -0.2890
  421SOL     OW 1681   2.973   0.179   3.073 -0.2815 -0.4976  0.0185
  421SOL    HW1 1682   2.911   0.152   3.005  1.5457  0.7827  0.6382
  421SOL    HW2 1683   3.017   0.098   3.098  1.2931 -0.3215  0.4370
  421SOL     MW 1684   2.971   0.165   3.067  0.1673 -0.3054  0.1555
  422SOL     OW 1685   0.812   2.475   0.941 -0.3769 -0.7253  0.4563
  422SOL    HW1 1686   0.824   2.567   0.955 -0.5133 -0.0441 -1.5917
  422SOL    HW2 1687   0.799   2.473   0.844 -0.4161 -2.2052 -0.0921
  422SOL     MW 1688   0.812   2.487   0.930 -0.4001 -0.8307  0.1137
  423SOL     OW 1689   1.499   0.054   0.473  0.3105 -0.0956 -0.1595
  423SOL    HW1 1690   1.543   0.056   0.385 -0.1592  2.9777 -1.1693
  423SOL    HW2 1691   1.480   0.151   0.488  2.1763 -0.7850 -0.0183
  423SOL     MW 1692   1.502   0.067   0.464  0.4947  0.2190 -0.2741
  424SOL     OW 1693   0.665   2.293   1.301 -0.3449  0.1406  0.0406
  424SOL    HW1 1694   0.589   2.237   1.270 -1.9516 -0.3951  0.1043
  424SOL    HW2 1695   0.710   2.236   1.363  0.3784  0.4513 -0.8252
  424SOL     MW 1696   0.661   2.278   1.305 -0.4615  0.1109 -0.0653
  425SOL     OW 1697   1.727   2.746   2.064 -0.2431  0.3048  0.2744
  425SOL    HW1 1698   1.730   2.749   1.969 -0.6697 -0.6899  1.0207
  425SOL    HW2 1699   1.772   2.661   2.096  1.4310 -2.9557  1.8140
  425SOL     MW 1700   1.734   2.735   2.056 -0.0785 -0.2567  0.5760
  426SOL     OW 1701   0.837   1.717   1.982  0.0491  0.3599 -0.1714
  426SOL    HW1 1702   0.786   1.746   1.904  0.0280  2.5621  3.1262
  426SOL    HW2 1703   0.837   1.792   2.051 -0.3848  3.1100  1.6985
  426SOL     MW 1704   0.830   1.731   1.981 -0.0110  1.0133  0.5104
  427SOL     OW 1705   0.353   1.681   1.852 -0.4603  0.2414 -0.0622
  427SOL    HW1 1706   0.400   1.616   1.812 -0.6352 -0.2070  1.3399
  427SOL    HW2 1707   0.311   1.634   1.926  0.7993  0.9519 -0.0365
  427SOL     MW 1708   0.354   1.667   1.857 -0.3172  0.2760  0.1261
  428SOL     OW 1709   0.579   2.586   1.066 -0.0462 -0.2349  0.0021
  428SOL    HW1 1710   0.637   2.523   1.027 -0.9711 -2.8763  3.0885
  428SOL    HW2 1711   0.516   2.538   1.121  0.9169  6.0221  1.1329
  428SOL     MW 1712   0.578   2.572   1.068 -0.0411  0.2422  0.5585
  429SOL     OW 1713   1.224   2.818   1.136 -0.5358 -0.5349  0.2625
  429SOL    HW1 1714   1.135   2.788   1.145 -0.8573  1.8564  1.6587
  429SOL    HW2 1715   1.211   2.888   1.076  1.8147  0.4921  1.1971
  429SOL     MW 1716   1.211   2.823   1.129 -0.2681 -0.0839  0.5700
  430SOL     OW 1717   1.156   2.721   0.691 -0.3086 -0.2812 -0.1037
  430SOL    HW1 1718   1.163   2.628   0.712  1.3555  1.4443 -1.1314
  430SOL    HW2 1719   1.115   2.703   0.601 -0.4581 -0.8930  1.9176
  430SOL     MW 1720   1.152   2.706   0.682 -0.1087 -0.1343  0.0274
  431SOL     OW 1721   0.341   1.923   1.070 -0.2279 -0.3760  0.2611
  431SOL    HW1 1722   0.380   1.839   1.042  2.0079 -1.9026  2.7562
  431SOL    HW2 1723   0.290   1.966   1.001  1.0626  1.4486  1.3850
  431SOL     MW 1724   0.340   1.917   1.057  0.2374 -0.3367  0.7386
  432SOL     OW 1725   0.054   0.025   1.111 -0.2490 -0.4487 -0.3771
  432SOL    HW1 1726   0.018   0.069   1.191 -0.7383 -0.5029 -0.2655
  432SOL    HW2 1727   0.004  -0.054   1.111 -2.5417  0.1372  0.2965
  432SOL     MW 1728   0.042   0.020   1.122 -0.6160 -0.3785 -0.2735
  433SOL     OW 1729   0.644   2.867   1.486  0.5247  0.2485  0.0278
  433SOL    HW1 1730   0.624   2.891   1.580 -0.5992 -1.6686  0.1393
  433SOL    HW2 1731   0.732   2.825   1.499 -2.5314 -1.3130  0.5808
  433SOL     MW 1732   0.653   2.865   1.500 -0.0268 -0.2105  0.1155
  434SOL     OW 1733   1.540   2.811   1.592 -0.7324  0.2220 -0.2834
  434SOL    HW1 1734   1.453   2.851   1.590  0.4518 -0.9148 -1.1463
  434SOL    HW2 1735   1.533   2.748   1.521 -0.7370 -0.9365  0.6590
  434SOL     MW 1736   1.527   2.808   1.582 -0.5767 -0.0808 -0.2729
  435SOL     OW 1737   2.736   1.764   0.196 -0.1502  0.0563  0.7637
  435SOL    HW1 1738   2.809   1.823   0.188  2.2845  0.8594 -1.3771
  435SOL    HW2 1739   2.699   1.759   0.108 -3.1840 -0.0315 -1.6123
  435SOL     MW 1740   2.741   1.771   0.184 -0.2292  0.1507  0.1677
  436SOL     OW 1741   1.395   2.680   0.370  0.6811 -0.2168 -0.2196
  436SOL    HW1 1742   1.435   2.658   0.454  0.6199  2.2548 -0.2658
  436SOL    HW2 1743   1.374   2.778   0.379  1.1188  1.5277  1.5140
  436SOL     MW 1744   1.397   2.690   0.382  0.7308  0.3395  0.0031
  437SOL     OW 1745   0.960   2.956   1.361  0.9458 -0.3111 -0.1565
  437SOL    HW1 1746   0.990   3.012   1.289  1.1156 -0.9172 -0.6010
  437SOL    HW2 1747   0.940   2.881   1.304 -0.0037 -0.4042 -0.6536
  437SOL     MW 1748   0.962   2.953   1.344  0.8430 -0.4034 -0.2808
  438SOL     OW 1749   0.808   2.644   1.916  0.0509  0.8209 -0.1498
  438SOL    HW1 1750   0.822   2.601   2.002  0.8131  2.5534 -1.6715
  438SOL    HW2 1751   0.745   2.597   1.862  0.9392  1.3061 -1.7645
  438SOL     MW 1752   0.801   2.632   1.920  0.2686  1.1135 -0.5636
  439SOL     OW 1753   1.167   2.092   0.408 -0.7177  0.3509  0.0540
  439SOL    HW1 1754   1.125   2.137   0.479  0.4747  0.6449  0.7441
  439SOL    HW2 1755   1.147   2.149   0.330  0.5844 -2.2656 -0.7383
  439SOL     MW 1756   1.158   2.106   0.407 -0.3886  0.0444  0.0405
  440SOL     OW 1757   1.656   2.962   3.075 -0.2081  0.0407 -0.6031
  440SOL    HW1 1758   1.626   2.946   3.164  2.1488  0.2128 -0.7448
  440SOL    HW2 1759   1.751   2.956   3.092 -1.3070  3.1915 -0.9937
  440SOL     MW 1760   1.665   2.959   3.089 -0.0422  0.4791 -0.6734
  441SOL     OW 1761   0.368   2.666   0.522 -0.4251  0.2275  0.0048
  441SOL    HW1 1762   0.371   2.612   0.437 -0.6338 -1.5015 -0.9337
  441SOL    HW2 1763   0.371   2.753   0.490  0.9979  0.0895  2.6453
  441SOL     MW 1764   0.369   2.671   0.506 -0.2649 -0.0188  0.2293
  442SOL     OW 1765   3.080   2.344   0.578 -0.0761  0.0687 -0.3833
  442SOL    HW1 1766   3.086   2.434   0.567  0.5036  0.3608  2.6588
  442SOL    HW2 1767   2.986   2.320   0.607 -1.1328  0.3928 -2.5129
  442SOL     MW 1768   3.068   2.353   0.581 -0.1390  0.1500 -0.2629
  443SOL     OW 1769   1.513   1.740   1.986  0.3708 -0.1391 -0.6458
  443SOL    HW1 1770   1.432   1.694   1.984  2.6131  0.2665  3.2771
  443SOL    HW2 1771   1.504   1.768   2.076 -1.4955  1.3298 -0.6835
  443SOL     MW 1772   1.501   1.737   1.998  0.4204  0.1082 -0.1332
  444SOL     OW 1773   0.896   2.595   1.586  0.7740  0.4497 -0.0445
  444SOL    HW1 1774   0.966   2.541   1.627  2.8797  1.6282 -1.3625
  444SOL    HW2 1775   0.823   2.566   1.640 -0.6664  2.9825  1.1310
  444SOL     MW 1776   0.896   2.584   1.599  0.8618  0.9394 -0.0633
  445SOL     OW 1777   1.171   0.138   1.383  0.7165  0.4394  0.6272
  445SOL    HW1 1778   1.094   0.155   1.444 -1.2169  1.0040 -1.7381
  445SOL    HW2 1779   1.164   0.190   1.302 -1.5383  1.6113 -0.1839
  445SOL     MW 1780   1.160   0.147   1.381  0.1639  0.6685  0.2081
  446SOL     OW 1781   2.792   2.859   1.039 -0.0441  0.0508 -0.0228
  446SOL    HW1 1782   2.738   2.914   0.975 -1.8598  2.4463  0.0183
  446SOL    HW2 1783   2.832   2.781   0.994  0.0704  0.1006 -0.0628
  446SOL     MW 1784   2.791   2.856   1.024 -0.2686  0.3734 -0.0227
  447SOL     OW 1785   0.021   1.994   1.631 -0.1416 -0.0382  0.0319
  447SOL    HW1 1786   0.047   1.913   1.683  1.1936 -1.9052  2.6777
  447SOL    HW2 1787  -0.065   1.969   1.577 -0.0106 -4.4072 -2.0051
  447SOL     MW 1788   0.013   1.980   1.631  0.0519 -0.8610  0.1122
  448SOL     OW 1789   1.762   2.412   1.686  0.8403  0.2398  0.3981
  448SOL    HW1 1790   1.711   2.334   1.668 -1.3808  0.0852 -0.0025
  448SOL    HW2 1791   1.694   2.483   1.698 -0.9880 -0.4340  1.2693
  448SOL     MW 1792   1.746   2.411   1.685  0.3061  0.1305  0.4602
  449SOL     OW 1793   0.894   2.877   0.360  0.7014  0.2204  0.5407
  449SOL    HW1 1794   0.811   2.863   0.307  0.2149  0.7746  2.6672
  449SOL    HW2 1795   0.871   2.930   0.440  1.7300 -0.2100 -1.4317
  449SOL     MW 1796   0.880   2.882   0.364  0.7729  0.2367  0.5610
  450SOL     OW 1797   1.211   2.461   0.738 -0.1897  0.3315 -0.0446
  450SOL    HW1 1798   1.220   2.426   0.826 -0.4572 -1.1524 -0.7877
  450SOL    HW2 1799   1.286   2.426   0.687  0.8165 -1.1514 -2.7816
  450SOL     MW 1800   1.222   2.452   0.743 -0.0922 -0.0600 -0.5038
  451SOL     OW 1801   0.592   2.022   1.673  0.7724  0.3359  0.0519
  451SOL    HW1 1802   0.636   2.103   1.702  0.9522  1.2355  1.4547
  451SOL    HW2 1803   0.560   2.044   1.586  1.5962 -1.0683  0.8826
  451SOL     MW 1804   0.593   2.035   1.665  0.9048  0.2693  0.3466
  452SOL     OW 1805   0.316   2.642   0.052  0.3011 -0.2996 -0.1126
  452SOL    HW1 1806   0.400   2.680   0.049 -2.1028 -0.9905 -0.6917
  452SOL    HW2 1807   0.250   2.698   0.001 -2.0341 -1.2197 -0.1224
  452SOL     MW 1808   0.318   2.654   0.045 -0.3242 -0.5122 -0.1903
  453SOL     OW 1809   0.324   3.055   1.600 -0.0710  0.2294  1.0100
  453SOL    HW1 1810   0.383   3.005   1.655  0.2555 -0.7799  0.2891
  453SOL    HW2 1811   0.380   3.053   1.518  1.3486 -1.9180 -1.7784
  453SOL     MW 1812   0.339   3.048   1.596  0.1594 -0.1871  0.5469
  454SOL     OW 1813   0.959   2.724   1.166 -0.0181 -0.2098  0.5794
  454SOL    HW1 1814   0.900   2.681   1.222  0.2715  0.0081 -0.1651
  454SOL    HW2 1815   0.914   2.744   1.082  0.1239  4.7316 -1.3666
  454SOL     MW 1816   0.945   2.721   1.162  0.0388  0.4709  0.2244
  455SOL     OW 1817   1.635   2.858   0.229  0.3751  0.5462  0.5728
  455SOL    HW1 1818   1.680   2.842   0.310 -1.8979 -0.6996 -1.6398
  455SOL    HW2 1819   1.601   2.773   0.201  0.8174  0.6697  2.0182
  455SOL     MW 1820   1.636   2.845   0.236  0.1336  0.3981  0.4715
  456SOL     OW 1821   2.730   0.307   1.532 -0.9241 -0.1832 -0.0294
  456SOL    HW1 1822   2.720   0.259   1.445  0.7619  0.6076 -1.2380
  456SOL    HW2 1823   2.824   0.345   1.528 -0.0033 -0.4381  0.9044
  456SOL     MW 1824   2.741   0.306   1.520 -0.5802 -0.1125 -0.0656
  457SOL     OW 1825   0.815   1.583   3.017 -0.3249 -0.2491 -0.0914
  457SOL    HW1 1826   0.717   1.575   3.003 -0.3599  0.1862 -1.7941
  457SOL    HW2 1827   0.829   1.582   3.110 -2.5794  2.9128  1.0009
  457SOL     MW 1828   0.804   1.582   3.027 -0.6270  0.2256 -0.1719
  458SOL     OW 1829   1.373   1.454   0.635 -0.5213  0.3471  0.9431
  458SOL    HW1 1830   1.313   1.513   0.584  0.0253  0.6993  0.0512
  458SOL    HW2 1831   1.364   1.362   0.602 -1.4369  0.5505 -1.7478
  458SOL     MW 1832   1.364   1.450   0.624 -0.5700  0.4204  0.4704
  459SOL     OW 1833   1.543   0.025   0.207  0.2418 -0.2405  0.1481
  459SOL    HW1 1834   1.549  -0.071   0.221  1.4200 -2.0613 -2.9295
  459SOL    HW2 1835   1.484   0.041   0.130 -1.3494  0.2400  1.2123
  459SOL     MW 1836   1.536   0.014   0.199  0.1873 -0.4173 -0.1175
  460SOL     OW 1837   1.759   2.143   0.637  0.6888  0.0358  0.0493
  460SOL    HW1 1838   1.676   2.120   0.678 -1.0546  1.3183 -2.5096
  460SOL    HW2 1839   1.806   2.058   0.636 -0.1538 -0.3483 -0.7795
  460SOL     MW 1840   1.754   2.129   0.642  0.3476  0.1543 -0.3977
  461SOL     OW 1841   0.455   2.392   0.589  0.0492 -0.0835  0.4634
  461SOL    HW1 1842   0.413   2.475   0.553  0.5402  2.8573  2.8476
  461SOL    HW2 1843   0.426   2.396   0.683  3.3796  2.3572 -0.1462
  461SOL     MW 1844   0.446   2.403   0.597  0.5534  0.6266  0.6975
  462SOL     OW 1845   0.324   0.252   1.229 -0.3541 -0.2218 -0.0028
  462SOL    HW1 1846   0.359   0.234   1.137 -0.1058 -0.2395 -0.1149
  462SOL    HW2 1847   0.400   0.232   1.294  1.9539  0.6773 -0.1094
  462SOL     MW 1848   0.339   0.247   1.225 -0.0168 -0.1055 -0.0316
  463SOL     OW 1849   1.003   0.081   0.668 -0.0043  0.0909  0.2777
  463SOL    HW1 1850   1.050   0.086   0.586 -0.5807 -3.8038 -1.0479
  463SOL    HW2 1851   0.910   0.090   0.650  3.6591 -0.2968  0.2851
  463SOL     MW 1852   0.997   0.083   0.655  0.4030 -0.4741  0.1038
  464SOL     OW 1853   0.773   3.023   2.218  0.1481  0.0574  0.5544
  464SOL    HW1 1854   0.788   2.929   2.231  1.1234 -0.2997  1.3761
  464SOL    HW2 1855   0.806   3.059   2.301  0.2272 -1.5968  2.7681
  464SOL     MW 1856   0.779   3.015   2.231  0.2872 -0.2079  0.9549
  465SOL     OW 1857   0.881   0.265   0.432  0.3491  0.2340 -0.0574
  465SOL    HW1 1858   0.807   0.236   0.489  0.1212 -0.7489 -2.3237
  465SOL    HW2 1859   0.847   0.244   0.343 -2.5262  0.6507 -2.4623
  465SOL     MW 1860   0.867   0.258   0.428 -0.0604  0.1593 -0.6737
  466SOL     OW 1861   0.986   2.023   0.805  0.5609  0.0521  0.1145
  466SOL    HW1 1862   1.007   1.954   0.745  0.4132 -1.7899  0.1232
  466SOL    HW2 1863   0.999   2.099   0.742  3.0330  0.7533 -0.4787
  466SOL     MW 1864   0.990   2.024   0.789  0.8676 -0.0984  0.0374
  467SOL     OW 1865   1.266   2.341   0.994 -0.0426  0.2752  0.8684
  467SOL    HW1 1866   1.354   2.374   0.969  1.0500 -1.6934  0.4181
  467SOL    HW2 1867   1.274   2.248   0.956 -0.5608 -1.1464  0.6568
  467SOL     MW 1868   1.278   2.333   0.985  0.0332 -0.1721  0.7811
  468SOL     OW 1869   0.487   2.663   1.924  0.2053 -0.2879 -0.0218
  468SOL    HW1 1870   0.468   2.578   1.889  0.8118  1.6222 -1.0245
  468SOL    HW2 1871   0.467   2.727   1.855  1.4030  1.3557 -1.5748
  468SOL     MW 1872   0.482   2.660   1.910  0.4434  0.1809 -0.3590
  469SOL     OW 1873   0.387   2.125   1.832 -0.4229 -0.2323  0.2163
  469SOL    HW1 1874   0.322   2.057   1.850  0.0106 -1.0889  2.5125
  469SOL    HW2 1875   0.454   2.082   1.771  2.2871 -3.0326  0.5153
  469SOL     MW 1876   0.387   2.111   1.826 -0.0082 -0.7148  0.5587
  470SOL     OW 1877   3.062   2.575   0.156  0.6947 -0.1403  0.4656
  470SOL    HW1 1878   2.975   2.561   0.205  1.8228  1.2206  2.2020
  470SOL    HW2 1879   3.044   2.602   0.066 -0.2980  0.9113 -0.8133
  470SOL     MW 1880   3.048   2.577   0.151  0.7126  0.1780  0.5259
  471SOL     OW 1881   1.180   2.621   1.399  0.3927 -0.5759  0.2162
  471SOL    HW1 1882   1.139   2.581   1.475  1.4127  0.6191 -0.6800
  471SOL    HW2 1883   1.120   2.604   1.326  4.2489 -0.2785 -1.6443
  471SOL     MW 1884   1.167   2.613   1.399  1.0361 -0.3790 -0.1475
  472SOL     OW 1885   2.796   2.103   0.367 -0.3834  0.0616  0.3062
  472SOL    HW1 1886   2.822   2.066   0.282 -1.4516 -0.8112 -2.4569
  472SOL    HW2 1887   2.752   2.026   0.410 -0.6563 -2.2665 -0.0640
  472SOL     MW 1888   2.794   2.088   0.361 -0.5603 -0.3607 -0.1072
  473SOL     OW 1889   0.773   2.556   1.323  0.5084 -0.0812  0.0250
  473SOL    HW1 1890   0.771   2.475   1.276 -2.4113  0.1603  1.5049
  473SOL    HW2 1891   0.804   2.536   1.411  0.7535 -1.8901 -1.5159
  473SOL     MW 1892   0.777   2.543   1.329  0.1555 -0.2880  0.0170
  474SOL     OW 1893   0.768   2.214   1.772 -1.1303 -0.0415  0.1761
  474SOL    HW1 1894   0.840   2.236   1.836 -1.6838 -0.4217  2.5809
  474SOL    HW2 1895   0.812   2.215   1.687 -0.1506  0.9759 -1.3856
  474SOL     MW 1896   0.783   2.217   1.769 -1.0740  0.0426  0.2873
  475SOL     OW 1897   1.635   3.022   1.467 -0.1705  0.1477 -0.5343
  475SOL    HW1 1898   1.573   3.044   1.402 -0.6462  3.8954  0.2599
  475SOL    HW2 1899   1.599   2.939   1.508 -1.1058 -0.6185 -1.7510
  475SOL     MW 1900   1.622   3.014   1.464 -0.3566  0.5411 -0.5900
  476SOL     OW 1901   1.388   2.614   1.050  0.1335  0.0858 -0.2108
  476SOL    HW1 1902   1.314   2.671   1.080  0.6525  1.4028  1.2659
  476SOL    HW2 1903   1.436   2.667   0.986  3.5799  1.4016 -0.2135
  476SOL     MW 1904   1.385   2.629   1.045  0.6567  0.4331 -0.0163
  477SOL     OW 1905   0.806   2.510   0.685 -0.6836  0.1511  0.1547
  477SOL    HW1 1906   0.872   2.563   0.633  1.0528 -1.2105  1.7281
  477SOL    HW2 1907   0.782   2.431   0.634 -1.6787 -1.1086 -1.3923
  477SOL     MW 1908   0.812   2.507   0.671 -0.5858 -0.1948  0.1582
  478SOL     OW 1909   0.173   2.694   0.910  0.1731 -0.3029 -0.4053
  478SOL    HW1 1910   0.212   2.786   0.917  0.3656 -1.3364  0.4871
  478SOL    HW2 1911   0.216   2.631   0.850 -0.0681  0.7123 -1.5886
  478SOL     MW 1912   0.184   2.697   0.903  0.1667 -0.3053 -0.4437
  479SOL     OW 1913   1.469   2.018   1.269 -0.1387 -0.1120  0.0251
  479SOL    HW1 1914   1.471   2.032   1.367  0.7152 -1.1325  1.4075
  479SOL    HW2 1915   1.488   1.927   1.266  0.4645 -1.9871  1.2031
  479SOL     MW 1916   1.472   2.008   1.282  0.0536 -0.4940  0.3629
  480SOL     OW 1917   1.929   2.461   1.252 -0.0904 -0.0965  0.2027
  480SOL    HW1 1918   1.872   2.396   1.289 -0.0708 -0.2449 -3.1665
  480SOL    HW2 1919   1.984   2.406   1.195 -1.2909  1.5773 -1.5502
  480SOL     MW 1920   1.929   2.445   1.249 -0.2462  0.1048 -0.4731
  481SOL     OW 1921   1.054   0.004   1.084 -0.0541  0.1280  0.3252
  481SOL    HW1 1922   1.099  -0.031   1.010 -0.6465  0.8750  0.6407
  481SOL    HW2 1923   1.094   0.091   1.093  2.3863  0.4800  0.2229
  481SOL     MW 1924   1.065   0.011   1.075  0.1897  0.2730  0.3533
  482SOL     OW 1925   1.084   3.053   0.257 -0.4501  0.2801 -0.1055
  482SOL    HW1 1926   1.034   2.975   0.290 -0.5588 -2.8170  0.9783
  482SOL    HW2 1927   1.093   3.111   0.332  3.0631  1.1458 -2.0093
  482SOL     MW 1928   1.079   3.050   0.271 -0.0009 -0.0143 -0.2137
  483SOL     OW 1929   0.389   2.951   0.445 -0.1121 -0.5626  0.1787
  483SOL    HW1 1930   0.323   2.986   0.384 -1.5813 -0.1309  2.1003
  483SOL    HW2 1931   0.363   2.978   0.534 -0.2372  0.0875 -0.2757
  483SOL     MW 1932   0.377   2.959   0.449 -0.3225 -0.4199  0.3723
  484SOL     OW 1933   1.851   1.898   1.501  0.7450 -0.4945  0.2196
  484SOL    HW1 1934   1.836   1.986   1.456 -0.8728  0.7056  0.7735
  484SOL    HW2 1935   1.831   1.924   1.592  0.4597  0.1055 -0.4107
  484SOL     MW 1936   1.847   1.913   1.507  0.4939 -0.2570  0.2095
  485SOL     OW 1937   0.496   2.348   0.185  0.6097  0.1519 -0.4861
  485SOL    HW1 1938   0.507   2.293   0.265  1.2862 -2.4535  1.4648
  485SOL    HW2 1939   0.432   2.418   0.218  0.0953  0.3209  2.8107
  485SOL     MW 1940   0.489   2.350   0.200  0.6311 -0.1696  0.2063
  486SOL     OW 1941   0.183   2.362   1.501 -0.0643 -0.0502  0.0061
  486SOL    HW1 1942   0.190   2.435   1.442 -1.6736 -0.0361  2.4831
  486SOL    HW2 1943   0.176   2.403   1.586  1.8442  0.2072  0.7401
  486SOL     MW 1944   0.183   2.377   1.504 -0.0248 -0.0144  0.4298
  487SOL     OW 1945   1.209   1.674   1.037 -0.1272  0.2235  0.4553
  487SOL    HW1 1946   1.211   1.756   1.095  1.1430 -0.4567  1.8012
  487SOL    HW2 1947   1.286   1.678   0.977 -0.1042  1.5577  0.1480
  487SOL     MW 1948   1.220   1.685   1.037  0.0434  0.3098  0.5924
  488SOL     OW 1949   1.618   1.858   0.490 -0.5358 -0.0523 -0.2993
  488SOL    HW1 1950   1.692   1.875   0.440 -2.8406  0.2270  0.6060
  488SOL    HW2 1951   1.565   1.942   0.479 -2.3197  1.1109 -1.5513
  488SOL     MW 1952   1.621   1.871   0.482 -1.0752  0.1381 -0.3450
  489SOL     OW 1953   0.756   0.779   0.566  0.1892  0.0870 -0.3145
  489SOL    HW1 1954   0.792   0.693   0.537 -0.0302 -0.9479  1.6986
  489SOL    HW2 1955   0.729   0.771   0.661 -4.7565 -0.5910  1.1396
  489SOL     MW 1956   0.757   0.767   0.575 -0.4923 -0.1390  0.1430
  490SOL     OW 1957   1.452   2.076   0.473 -0.3370  0.0367 -0.3542
  490SOL    HW1 1958   1.484   2.169   0.438  1.1523  3.0864  3.6514
  490SOL    HW2 1959   1.362   2.080   0.448  1.3911 -0.2177 -2.1353
  490SOL     MW 1960   1.444   2.089   0.465  0.0875  0.4055 -0.0607
  491SOL     OW 1961   1.333   2.966   0.355 -0.7399  0.8818 -0.0344
  491SOL    HW1 1962   1.391   3.042   0.385  0.4180  0.2969  2.5766
  491SOL    HW2 1963   1.273   2.997   0.288  0.3723 -1.7415  0.2875
  491SOL     MW 1964   1.333   2.980   0.350 -0.4404  0.4585  0.3526
  492SOL     OW 1965   1.491   2.142   0.738 -0.2314  0.8002 -0.0663
  492SOL    HW1 1966   1.472   2.108   0.647  1.2004  0.4397  1.7167
  492SOL    HW2 1967   1.407   2.122   0.790 -0.2409 -0.7555  1.6383
  492SOL     MW 1968   1.477   2.135   0.733 -0.0437  0.5473  0.3938
  493SOL     OW 1969   0.191   3.008   0.277 -0.3177  0.8175 -0.0073
  493SOL    HW1 1970   0.148   3.049   0.354  0.2462 -1.7031  1.9480
  493SOL    HW2 1971   0.192   3.074   0.202  1.2690  1.0581 -0.1079
  493SOL     MW 1972   0.185   3.022   0.277 -0.0339  0.5167  0.2374
  494SOL     OW 1973   0.389   2.398   1.775 -0.0499  0.4969 -0.4214
  494SOL    HW1 1974   0.383   2.301   1.795 -1.3248  1.8600  0.6552
  494SOL    HW2 1975   0.429   2.411   1.690 -0.5262  2.8590  2.8397
  494SOL     MW 1976   0.393   2.387   1.766 -0.2810  0.9884  0.1509
  495SOL     OW 1977   2.934   1.639   2.644  0.0909  0.1217  0.3114
  495SOL    HW1 1978   2.925   1.721   2.594  1.2762 -0.6149 -0.2450
  495SOL    HW2 1979   2.879   1.646   2.723  2.6467 -1.1839 -0.4370
  495SOL     MW 1980   2.926   1.651   2.648  0.5845 -0.1478  0.1392
  496SOL     OW 1981   2.931   2.353   2.670 -0.3758  0.6713 -0.3073
  496SOL    HW1 1982   2.976   2.283   2.710  1.4963 -1.0255  1.0839
  496SOL    HW2 1983   3.004   2.417   2.666  1.2529 -0.8366 -2.6023
  496SOL     MW 1984   2.946   2.352   2.675  0.0861  0.2485 -0.4265
  497SOL     OW 1985   1.565   2.277   2.666  0.9527 -0.4294  0.2500
  497SOL    HW1 1986   1.533   2.232   2.585  1.1412  0.4937 -0.3239
  497SOL    HW2 1987   1.536   2.206   2.724  0.1965 -1.8177 -2.2708
  497SOL     MW 1988   1.557   2.261   2.663  0.8778 -0.4908 -0.1583
  498SOL     OW 1989   1.481   2.723   2.321 -0.3799 -0.7084 -0.1214
  498SOL    HW1 1990   1.443   2.641   2.311 -1.1201  0.7324  2.2217
  498SOL    HW2 1991   1.571   2.713   2.362 -0.1311  2.0460  2.3863
  498SOL     MW 1992   1.488   2.711   2.325 -0.4448 -0.1549  0.5186
  499SOL     OW 1993   0.960   0.141   0.066  0.4097  0.5073 -0.1473
  499SOL    HW1 1994   0.877   0.177   0.097  4.2847 -0.4353 -2.9671
  499SOL    HW2 1995   0.973   0.069   0.122  2.2509 -0.8329 -2.5811
  499SOL     MW 1996   0.951   0.136   0.077  1.1639  0.2061 -0.8405
  500SOL     OW 1997   1.084   2.560   2.820  0.1870 -0.1291  0.6427
  500SOL    HW1 1998   1.129   2.522   2.898  0.2153  1.0144 -1.4889
  500SOL    HW2 1999   1.006   2.596   2.857 -1.3364 -1.7683  0.7173
  500SOL     MW 2000   1.080   2.560   2.835 -0.0102 -0.1945  0.3713
  501SOL     OW 2001   1.775   2.183   3.058  0.5413 -0.0422  0.3333
  501SOL    HW1 2002   1.775   2.267   3.089  1.9476 -3.6378 -0.1673
  501SOL    HW2 2003   1.869   2.160   3.044 -0.8087 -0.5430 -1.6142
  501SOL     MW 2004   1.788   2.191   3.060  0.5488 -0.5827  0.0103
  502SOL     OW 2005   0.151   2.815   3.034 -0.1207 -0.3403  0.6534
  502SOL    HW1 2006   0.078   2.766   2.992 -0.5678  1.3400  1.2722
  502SOL    HW2 2007   0.192   2.862   2.959 -0.4635 -0.1797 -2.0096
  502SOL     MW 2008   0.147   2.814   3.019 -0.2249 -0.0974  0.3837
  503SOL     OW 2009   1.135   2.777   2.133  0.0345  0.2387  0.0333
  503SOL    HW1 2010   1.104   2.688   2.111 -1.1294 -2.0627  1.1512
  503SOL    HW2 2011   1.084   2.839   2.084  3.3250  1.5769 -1.3525
  503SOL     MW 2012   1.124   2.773   2.124  0.3151  0.1117 -0.0021
  504SOL     OW 2013   0.110   2.691   2.136  0.3222 -0.4121  0.2745
  504SOL    HW1 2014   0.131   2.597   2.129  0.2148  0.6908  1.0276
  504SOL    HW2 2015   0.017   2.694   2.116 -1.3155  1.8198 -1.7546
  504SOL     MW 2016   0.101   2.679   2.133  0.0920  0.0279  0.1061
  505SOL     OW 2017   1.699   2.713   2.784 -0.4427  0.2075 -0.5467
  505SOL    HW1 2018   1.714   2.709   2.690 -0.5790  1.5131 -3.1675
  505SOL    HW2 2019   1.619   2.763   2.807 -0.6755  2.5570 -1.6817
  505SOL     MW 2020   1.690   2.719   2.775 -0.4914  0.6898 -1.0422
  506SOL     OW 2021   1.584   3.077   2.844  0.1325 -0.0960  0.0561
  506SOL    HW1 2022   1.619   3.061   2.933  1.4343 -1.4952 -0.4161
  506SOL    HW2 2023   1.656   3.055   2.783  1.4818  0.8690  2.1507
  506SOL     MW 2024   1.598   3.072   2.848  0.4823 -0.1533  0.2701
  507SOL     OW 2025   0.881   2.778   2.863 -0.2918  0.1706  0.0039
  507SOL    HW1 2026   0.903   2.873   2.841 -4.1257  6.3787 -1.0830
  507SOL    HW2 2027   0.783   2.785   2.862  0.3583  0.1976  0.5826
  507SOL     MW 2028   0.871   2.791   2.860 -0.7119  0.9933 -0.0632
  508SOL     OW 2029   1.150   2.095   2.524  0.2153 -0.2948 -0.0186
  508SOL    HW1 2030   1.225   2.076   2.581 -1.3800  0.6982  0.7795
  508SOL    HW2 2031   1.132   2.187   2.551 -1.8678  2.2112  2.6226
  508SOL     MW 2032   1.157   2.104   2.535 -0.2700  0.1669  0.4352
  509SOL     OW 2033   0.672   2.588   2.749 -0.8403  0.0918  0.0970
  509SOL    HW1 2034   0.652   2.549   2.670  0.4113 -0.1305  0.9938
  509SOL    HW2 2035   0.607   2.554   2.811 -1.2899  0.6334  2.2832
  509SOL     MW 2036   0.661   2.579   2.747 -0.7345  0.1339  0.5038
  510SOL     OW 2037   1.523   2.562   1.686  0.1765 -0.1861 -0.1337
  510SOL    HW1 2038   1.514   2.652   1.677  2.3686  0.5453  1.2935
  510SOL    HW2 2039   1.466   2.552   1.767 -0.8154  2.7117  0.3927
  510SOL     MW 2040   1.514   2.572   1.695  0.3348  0.2927  0.1241
  511SOL     OW 2041   0.425   2.645   2.435  0.7634 -0.1992 -0.2974
  511SOL    HW1 2042   0.504   2.609   2.457  2.9758  0.4124 -0.4160
  511SOL    HW2 2043   0.455   2.685   2.352  1.8826  0.4871 -3.1928
  511SOL     MW 2044   0.440   2.646   2.427  1.2030 -0.0280 -0.6950
  512SOL     OW 2045   1.063   2.012   2.815 -0.0983 -0.5221 -0.0239
  512SOL    HW1 2046   0.982   2.060   2.842  1.4529  1.3087  0.0644
  512SOL    HW2 2047   1.063   1.932   2.872 -1.3514 -1.4297  0.2970
  512SOL     MW 2048   1.052   2.008   2.826 -0.0589 -0.4003  0.0301
  513SOL     OW 2049   1.537   2.439   2.275  0.6846  0.5593 -0.3678
  513SOL    HW1 2050   1.623   2.455   2.240 -0.2416  2.0861  3.4726
  513SOL    HW2 2051   1.561   2.452   2.364  1.1395 -0.5939 -1.7857
  513SOL     MW 2052   1.552   2.443   2.282  0.6224  0.6086 -0.0482
  514SOL     OW 2053   0.277   2.507   2.621 -0.2686  0.6915  0.8221
  514SOL    HW1 2054   0.339   2.557   2.568  1.4745 -0.1363 -0.9517
  514SOL    HW2 2055   0.306   2.519   2.714 -0.0153  0.2526  1.9096
  514SOL     MW 2056   0.289   2.516   2.626 -0.0052  0.5244  0.7315
  515SOL     OW 2057   1.149   2.111   1.853 -0.3559  1.0496 -1.2550
  515SOL    HW1 2058   1.094   2.187   1.867 -1.1736 -0.3918  0.2454
  515SOL    HW2 2059   1.206   2.099   1.929 -0.6889  0.4363  0.4321
  515SOL     MW 2060   1.149   2.119   1.865 -0.5077  0.7785 -0.8345
  516SOL     OW 2061   1.470   2.453   3.068  0.4661 -0.9394 -0.7780
  516SOL    HW1 2062   1.519   2.460   2.988  0.4394 -0.8544 -2.8492
  516SOL    HW2 2063   1.379   2.452   3.029  0.4327  0.0683 -0.8472
  516SOL     MW 2064   1.465   2.454   3.052  0.4581 -0.7952 -1.0604
  517SOL     OW 2065   0.594   2.482   2.144 -0.1457  0.1425  0.0017
  517SOL    HW1 2066   0.551   2.558   2.106  0.5489  0.3119  1.6167
  517SOL    HW2 2067   0.529   2.407   2.114 -0.5957 -0.7860 -0.3551
  517SOL     MW 2068   0.580   2.482   2.135 -0.1134  0.0423  0.1677
  518SOL     OW 2069   1.849   0.215   3.037  0.5815 -0.2154 -0.3951
  518SOL    HW1 2070   1.802   0.272   2.973 -0.4468 -1.0677 -1.5643
  518SOL    HW2 2071   1.808   0.216   3.126  1.2206  1.5125  1.6810
  518SOL     MW 2072   1.838   0.223   3.040  0.5302 -0.0999 -0.2754
  519SOL     OW 2073   0.699   2.466   1.720 -0.8926  1.6168  0.0202
  519SOL    HW1 2074   0.722   2.370   1.749  0.3659  1.1923 -0.0129
  519SOL    HW2 2075   0.620   2.446   1.678  1.4966  1.0535 -1.4641
  519SOL     MW 2076   0.692   2.451   1.718 -0.4114  1.4865 -0.1800
  520SOL     OW 2077   1.277   2.122   2.918  0.4805 -0.0144 -0.1010
  520SOL    HW1 2078   1.199   2.062   2.885 -1.3236  0.9643 -0.0087
  520SOL    HW2 2079   1.329   2.069   2.977 -0.4071 -1.0879 -2.9580
  520SOL     MW 2080   1.274   2.107   2.921  0.1254 -0.0269 -0.4657
  521SOL     OW 2081   1.704   2.054   2.264  0.0301 -0.5295  0.8010
  521SOL    HW1 2082   1.742   2.106   2.190 -0.4969  2.8337  0.8862
  521SOL    HW2 2083   1.705   1.962   2.235  1.2907 -0.0024  1.0601
  521SOL     MW 2084   1.709   2.048   2.250  0.1269 -0.0162  0.8464
  522SOL     OW 2085   2.846   2.556   2.169  0.3757  0.0067 -0.4349
  522SOL    HW1 2086   2.923   2.527   2.217  1.6404 -0.8539 -1.7564
  522SOL    HW2 2087   2.781   2.565   2.231  1.7510 -1.1609 -0.6938
  522SOL     MW 2088   2.848   2.553   2.184  0.7240 -0.2609 -0.6434
  523SOL     OW 2089   0.858   1.504   2.157  0.1373  0.3241  0.1506
  523SOL    HW1 2090   0.844   1.563   2.082  1.4391  0.8537  0.3786
  523SOL    HW2 2091   0.924   1.440   2.125  0.3366 -2.0989 -1.5231
  523SOL     MW 2092   0.865   1.504   2.143  0.3353  0.0743 -0.0402
  524SOL     OW 2093   0.747   2.380   2.920  1.0305 -0.3760  0.3350
  524SOL    HW1 2094   0.761   2.431   2.838 -1.0839  0.8546 -0.5397
  524SOL    HW2 2095   0.779   2.290   2.904  0.7040 -2.1232 -2.5663
  524SOL     MW 2096   0.753   2.375   2.907  0.7084 -0.4442 -0.1632
  525SOL     OW 2097   0.413   2.270   2.079  0.1217 -0.5206  0.3898
  525SOL    HW1 2098   0.391   2.202   2.143  0.7194  3.1199  0.8473
  525SOL    HW2 2099   0.405   2.227   1.995  1.6771 -2.5479 -0.7637
  525SOL     MW 2100   0.409   2.255   2.076  0.4058 -0.3078  0.2980
  526SOL     OW 2101   0.658   2.095   2.037  0.2138 -0.2991  0.1365
  526SOL    HW1 2102   0.690   2.133   1.952 -0.8275 -3.2837 -1.8311
  526SOL    HW2 2103   0.662   2.162   2.102  1.5899  1.0431  1.1332
  526SOL     MW 2104   0.663   2.109   2.035  0.2580 -0.5158  0.0084
  527SOL     OW 2105   1.369   2.010   2.022 -0.2444 -0.3407  0.2167
  527SOL    HW1 2106   1.363   1.982   2.116  1.4342 -0.9518  1.4634
  527SOL    HW2 2107   1.397   1.934   1.975  1.6417  2.2547 -1.6835
  527SOL     MW 2108   1.372   1.996   2.028  0.2259 -0.0789  0.1305
  528SOL     OW 2109   0.630   2.873   2.933  0.5163 -0.1143 -0.4572
  528SOL    HW1 2110   0.679   2.948   2.942 -1.0712  0.2618  0.8593
  528SOL    HW2 2111   0.567   2.906   2.869  1.4864 -0.7506  1.0805
  528SOL     MW 2112   0.628   2.887   2.925  0.4348 -0.1486 -0.0807
  529SOL     OW 2113   1.004   2.338   1.875 -0.5436  0.0902  0.0135
  529SOL    HW1 2114   1.028   2.344   1.970 -0.5369 -0.0161  1.8843
  529SOL    HW2 2115   1.032   2.413   1.826  3.5052  1.8214 -1.6105
  529SOL     MW 2116   1.011   2.349   1.881 -0.0085  0.3046  0.0461
  530SOL     OW 2117   1.205   2.418   3.029  0.1417  0.5936 -0.0078
  530SOL    HW1 2118   1.154   2.433   3.114 -2.2194  0.4283 -1.4123
  530SOL    HW2 2119   1.202   2.321   3.014 -3.8403 -0.5690 -0.3774
  530SOL     MW 2120   1.198   2.407   3.038 -0.6952  0.4184 -0.2419
  531SOL     OW 2121   0.950   1.880   2.572  0.3211 -0.4457  0.1836
  531SOL    HW1 2122   1.009   1.952   2.575  0.2164 -4.9541 -2.6072
  531SOL    HW2 2123   0.923   1.867   2.669  1.7486  1.2541 -1.3511
  531SOL     MW 2124   0.954   1.888   2.585  0.4956 -0.8163 -0.3871
  532SOL     OW 2125   1.737   0.321   2.792 -0.2952  0.2033  0.1188
  532SOL    HW1 2126   1.725   0.238   2.750 -1.5795  1.4587 -0.5002
  532SOL    HW2 2127   1.824   0.347   2.766  1.2717  3.4876  0.4705
  532SOL     MW 2128   1.747   0.313   2.783 -0.2579  0.8023  0.0836
  533SOL     OW 2129   1.877   2.629   3.060 -0.1327  0.4533 -0.3816
  533SOL    HW1 2130   1.877   2.568   3.142 -0.0374  1.0275 -0.2522
  533SOL    HW2 2131   1.789   2.618   3.020  1.6268 -0.0310 -1.0764
  533SOL     MW 2132   1.866   2.620   3.065  0.1120  0.4652 -0.4562
  534SOL     OW 2133   1.773   2.435   2.517 -0.1285  0.1803  0.3213
  534SOL    HW1 2134   1.710   2.377   2.565  0.0400 -1.3422  1.2451
  534SOL    HW2 2135   1.848   2.439   2.580 -1.0696 -2.8949  0.5240
  534SOL     MW 2136   1.774   2.428   2.531 -0.2304 -0.4263  0.4699
  535SOL     OW 2137   1.915   2.382   1.897 -0.5822  0.6639  0.5170
  535SOL    HW1 2138   1.853   2.403   1.826 -2.7603 -1.1958 -1.0215
  535SOL    HW2 2139   2.004   2.380   1.859 -0.7246  1.0136 -1.2277
  535SOL     MW 2140   1.919   2.385   1.883 -0.8884  0.4647  0.0838
  536SOL     OW 2141   0.466   1.829   2.072  0.3131 -0.1758 -0.2742
  536SOL    HW1 2142   0.448   1.785   1.987  0.6949 -0.2201 -1.4631
  536SOL    HW2 2143   0.511   1.912   2.057  0.2375 -1.2652  2.1609
  536SOL     MW 2144   0.469   1.834   2.059  0.3535 -0.3254 -0.1098
  537SOL     OW 2145   1.095   0.201   2.850 -0.0262 -0.6600 -0.5185
  537SOL    HW1 2146   1.022   0.227   2.902 -0.6069 -0.6861  1.2000
  537SOL    HW2 2147   1.098   0.260   2.773  1.7006  0.2591  0.8852
  537SOL     MW 2148   1.086   0.213   2.847  0.1250 -0.5422 -0.1066
  538SOL     OW 2149   1.387   0.052   3.064  0.1391  0.3908 -0.1188
  538SOL    HW1 2150   1.379   0.142   3.046  1.5718  0.4188 -1.9824
  538SOL    HW2 2151   1.317   0.012   3.015  0.4353  1.1085  2.5767
  538SOL     MW 2152   1.377   0.058   3.055  0.3672  0.4892 -0.0090
  539SOL     OW 2153   0.768   2.777   2.574 -0.0004  0.7172  0.3987
  539SOL    HW1 2154   0.842   2.836   2.586  0.8885 -1.0089  2.1819
  539SOL    HW2 2155   0.767   2.720   2.650 -2.3004  3.4513  0.0842
  539SOL     MW 2156   0.778   2.777   2.585 -0.1866  0.8502  0.5925
  540SOL     OW 2157   0.376   2.529   2.911 -0.3436  0.3820 -0.1039
  540SOL    HW1 2158   0.377   2.578   2.994  0.6720  1.3676 -0.6193
  540SOL    HW2 2159   0.349   2.443   2.936 -1.7495 -1.8215 -0.5294
  540SOL     MW 2160   0.373   2.524   2.926 -0.3951  0.2213 -0.2281
  541SOL     OW 2161   0.190   2.957   2.215 -0.2820 -0.0778  0.2895
  541SOL    HW1 2162   0.164   2.874   2.174 -1.8824  3.3034  0.6880
  541SOL    HW2 2163   0.226   2.934   2.302  0.1709  3.1676 -2.1154
  541SOL     MW 2164   0.192   2.943   2.221 -0.4334  0.7965  0.0248
  542SOL     OW 2165   1.080   2.319   2.683  0.1053  0.0526  0.1307
  542SOL    HW1 2166   1.082   2.247   2.745  0.0577  0.0070 -0.4242
  542SOL    HW2 2167   1.069   2.399   2.733 -0.3576 -1.9341 -0.3888
  542SOL     MW 2168   1.079   2.320   2.698  0.0379 -0.2155 -0.0110
  543SOL     OW 2169   1.670   2.451   2.841 -0.1983 -0.6820  0.4110
  543SOL    HW1 2170   1.634   2.393   2.776  1.5897  1.5282 -2.1850
  543SOL    HW2 2171   1.681   2.540   2.808  0.4741 -0.5698  0.2006
  543SOL     MW 2172   1.667   2.455   2.828  0.1263 -0.3756  0.0407
  544SOL     OW 2173   0.711   0.200   2.709  0.1101 -0.6670 -0.1183
  544SOL    HW1 2174   0.621   0.224   2.723  1.4847 -2.0160 -2.0344
  544SOL    HW2 2175   0.730   0.157   2.625  1.3615 -0.1857 -0.5561
  544SOL     MW 2176   0.702   0.198   2.699  0.4566 -0.7815 -0.4289
  545SOL     OW 2177   1.486   2.175   2.396 -0.5245 -0.3522  0.4632
  545SOL    HW1 2178   1.484   2.260   2.347 -0.1044  1.8554  0.7124
  545SOL    HW2 2179   1.569   2.121   2.364  0.8073 -1.2849  2.0378
  545SOL     MW 2180   1.497   2.179   2.385 -0.2933 -0.1840  0.7038
  546SOL     OW 2181   2.889   2.004   0.090 -0.7660 -0.4991 -0.0098
  546SOL    HW1 2182   2.875   2.087   0.052 -1.0102  0.1797  1.6320
  546SOL    HW2 2183   2.960   1.972   0.034 -1.5520  0.3366 -0.2891
  546SOL     MW 2184   2.896   2.011   0.078 -0.9019 -0.2992  0.1700
  547SOL     OW 2185   0.157   0.091   0.088 -0.2171 -0.2849  0.7513
  547SOL    HW1 2186   0.197   0.153   0.027  0.4011  0.6415 -2.8621
  547SOL    HW2 2187   0.111   0.030   0.030 -0.9449  1.1411  1.8241
  547SOL     MW 2188   0.156   0.091   0.072 -0.2315  0.0255  0.4161
  548SOL     OW 2189   0.306   2.511   0.297 -0.0019  0.0655 -0.1351
  548SOL    HW1 2190   0.319   2.580   0.225  0.9950  4.4075 -0.5470
  548SOL    HW2 2191   0.241   2.457   0.253 -1.3842 -2.8532  0.0074
  548SOL     MW 2192   0.299   2.513   0.282 -0.0528  0.2533 -0.1706
  549SOL     OW 2193   0.820   1.890   2.192  0.6272  0.5645  0.1535
  549SOL    HW1 2194   0.754   1.926   2.129  0.2170 -0.0536 -0.5938
  549SOL    HW2 2195   0.772   1.872   2.274 -0.2247  1.3030  1.5305
  549SOL     MW 2196   0.805   1.892   2.195  0.4607  0.5804  0.2366
  550SOL     OW 2197   1.805   1.710   2.534  0.1993 -0.1908  0.3131
  550SOL    HW1 2198   1.799   1.723   2.442  0.1597  1.1634 -0.6143
  550SOL    HW2 2199   1.803   1.801   2.572 -1.3606  0.3386 -0.2450
  550SOL     MW 2200   1.804   1.724   2.527 -0.0118  0.0577  0.1171
  551SOL     OW 2201   0.914   2.331   0.212 -0.2451 -0.2537  0.2807
  551SOL    HW1 2202   1.003   2.324   0.183 -2.9036 -0.1207  1.3617
  551SOL    HW2 2203   0.863   2.270   0.162  0.1644  3.7678 -1.4891
  551SOL     MW 2204   0.919   2.322   0.202 -0.5418  0.2944  0.1898
  552SOL     OW 2205   1.768   1.783   2.254  0.0919  0.6022  0.1149
  552SOL    HW1 2206   1.671   1.765   2.274 -1.0964 -1.7134  0.2926
  552SOL    HW2 2207   1.808   1.724   2.194 -0.6328  2.7362 -2.8024
  552SOL     MW 2208   1.760   1.773   2.249 -0.1605  0.5782 -0.2466
  553SOL     OW 2209   1.273   2.269   1.541  0.1544 -0.4229 -0.3689
  553SOL    HW1 2210   1.305   2.180   1.549 -0.9053 -0.7517 -0.0090
  553SOL    HW2 2211   1.334   2.327   1.495 -2.6459 -1.5952  1.9770
  553SOL     MW 2212   1.285   2.265   1.536 -0.3549 -0.6209 -0.0119
  554SOL     OW 2213   0.532   2.944   2.647 -0.0276 -0.3747  0.4142
  554SOL    HW1 2214   0.499   3.018   2.602  0.5822 -1.0600 -1.1082
  554SOL    HW2 2215   0.590   2.891   2.587 -1.5716 -0.4481 -1.7061
  554SOL     MW 2216   0.536   2.947   2.633 -0.1509 -0.4748 -0.0664
  555SOL     OW 2217   0.631   2.430   2.506  0.2486  0.1042  0.2828
  555SOL    HW1 2218   0.616   2.344   2.543  0.0981 -1.5759 -1.4665
  555SOL    HW2 2219   0.726   2.436   2.473  1.9691 -1.2265 -1.9152
  555SOL     MW 2220   0.641   2.419   2.506  0.4558 -0.2931 -0.2380
  556SOL     OW 2221   1.003   1.889   0.093  0.4041 -0.0530  0.1901
  556SOL    HW1 2222   1.036   1.830   0.021  1.7129  0.7156  0.8517
  556SOL    HW2 2223   1.079   1.897   0.145 -1.1129 -0.5130 -2.2487
  556SOL     MW 2224   1.018   1.882   0.090  0.3766 -0.0123 -0.0444
  557SOL     OW 2225   0.969   2.629   0.499  0.6806  0.5841 -0.6904
  557SOL    HW1 2226   1.023   2.595   0.424 -2.1467  0.6555  0.8097
  557SOL    HW2 2227   0.914   2.689   0.451 -0.9100 -1.8041 -0.0323
  557SOL     MW 2228   0.969   2.633   0.483  0.0977  0.2784 -0.4056
  558SOL     OW 2229   0.203   2.302   2.984  0.0079 -0.2096 -0.7041
  558SOL    HW1 2230   0.127   2.269   2.938  0.6552 -2.1286  2.3120
  558SOL    HW2 2231   0.170   2.329   3.069 -1.5802 -1.2133  2.4212
  558SOL     MW 2232   0.189   2.301   2.989 -0.1162 -0.5952  0.1062
  559SOL     OW 2233   1.060   2.329   2.138 -0.7229 -0.4245  0.7151
  559SOL    HW1 2234   1.153   2.326   2.115 -0.7365  2.9157  0.3383
  559SOL    HW2 2235   1.042   2.273   2.213 -0.8580 -1.1094 -0.5930
  559SOL     MW 2236   1.070   2.321   2.145 -0.7426 -0.0742  0.4928
  560SOL     OW 2237   1.940   2.894   0.072 -0.3218 -0.4070  0.4135
  560SOL    HW1 2238   2.000   2.919   0.002 -1.5305 -0.7500  0.3970
  560SOL    HW2 2239   1.915   2.804   0.045 -1.4766 -1.1727 -1.6599
  560SOL     MW 2240   1.945   2.885   0.059 -0.6337 -0.5533  0.1377
  561SOL     OW 2241   0.332   2.135   0.089  0.0874  0.4078  0.3075
  561SOL    HW1 2242   0.284   2.164   0.010  1.4663 -2.0450 -1.1977
  561SOL    HW2 2243   0.389   2.208   0.123  1.9591 -1.1623  0.7261
  561SOL     MW 2244   0.333   2.149   0.083  0.5163 -0.1230  0.1641
  562SOL     OW 2245   0.698   2.223   2.287  0.3536 -0.5284 -0.2014
  562SOL    HW1 2246   0.696   2.307   2.331 -1.3551  2.3119 -0.2707
  562SOL    HW2 2247   0.796   2.207   2.288  0.6493  0.5613 -1.2676
  562SOL     MW 2248   0.711   2.232   2.293  0.1672 -0.0099 -0.3512
  563SOL     OW 2249   1.237   0.427   0.562 -0.2065  0.2736 -0.2030
  563SOL    HW1 2250   1.202   0.354   0.510  0.3508  0.6675 -2.2024
  563SOL    HW2 2251   1.222   0.406   0.651 -0.8057  1.3239  0.7580
  563SOL     MW 2252   1.231   0.414   0.567 -0.2120  0.4642 -0.3400
  564SOL     OW 2253   1.147   2.628   2.378 -0.3722  0.3629  0.0946
  564SOL    HW1 2254   1.156   2.702   2.325 -0.9142 -2.6865  4.0034
  564SOL    HW2 2255   1.144   2.669   2.466  0.0226  1.1942  1.2232
  564SOL     MW 2256   1.148   2.643   2.382 -0.3917  0.0702  0.7593
  565SOL     OW 2257   2.732   2.745   2.611  0.0304  0.1609 -0.1459
  565SOL    HW1 2258   2.792   2.810   2.577  0.3250  0.9332  0.4523
  565SOL    HW2 2259   2.721   2.689   2.538  1.0367  1.0001 -1.6042
  565SOL     MW 2260   2.738   2.747   2.597  0.2020  0.3735 -0.2594
  566SOL     OW 2261   2.125   1.868   2.428  0.1376  0.5413 -0.1994
  566SOL    HW1 2262   2.143   1.817   2.350  0.8626  0.3374  0.5416
  566SOL    HW2 2263   2.186   1.945   2.426  3.9555 -0.0063 -1.6912
  566SOL     MW 2264   2.135   1.872   2.417  0.7370  0.4421 -0.2985
  567SOL     OW 2265   1.141   3.009   3.041  0.5923  0.5987  0.0184
  567SOL    HW1 2266   1.180   3.040   3.124  0.5636 -0.0370  2.1156
  567SOL    HW2 2267   1.180   2.918   3.022 -1.2219  2.5128  2.7799
  567SOL     MW 2268   1.151   3.001   3.049  0.3491  0.7673  0.6594
  568SOL     OW 2269   1.614   2.054   2.883 -0.5825 -0.6183 -0.8957
  568SOL    HW1 2270   1.643   2.119   2.942 -2.7006  0.1182 -0.6002
  568SOL    HW2 2271   1.692   2.035   2.824  2.0086 -2.8770 -0.5033
  568SOL     MW 2272   1.628   2.060   2.883 -0.5201 -0.8192 -0.8049
  569SOL     OW 2273   0.167   2.294   2.500 -0.3008  0.2364 -0.5543
  569SOL    HW1 2274   0.084   2.337   2.478 -1.4502 -2.4027 -2.1797
  569SOL    HW2 2275   0.225   2.364   2.534 -1.1943  0.6027  1.3144
  569SOL     MW 2276   0.164   2.309   2.502 -0.5703 -0.0635 -0.5222
  570SOL     OW 2277   1.507   0.348   0.525  0.2240 -0.1690 -0.9916
  570SOL    HW1 2278   1.417   0.374   0.554 -2.2016  0.5136 -0.3677
  570SOL    HW2 2279   1.564   0.379   0.595 -2.4939  1.2175  0.7735
  570SOL     MW 2280   1.503   0.355   0.538 -0.4546  0.1040 -0.6764
  571SOL     OW 2281   1.337   2.369   2.104 -0.1262 -0.3431  0.2229
  571SOL    HW1 2282   1.389   2.392   2.182 -0.0990 -0.1840  0.2452
  571SOL    HW2 2283   1.412   2.333   2.052  1.9848 -1.1193  1.7932
  571SOL     MW 2284   1.354   2.367   2.107  0.1559 -0.4245  0.4330
  572SOL     OW 2285   0.998   2.568   0.086 -1.3227 -0.2901 -0.2443
  572SOL    HW1 2286   0.968   2.662   0.077 -0.8580 -0.5051  1.4650
  572SOL    HW2 2287   0.926   2.518   0.118  2.5178 -0.1783  1.4269
  572SOL     MW 2288   0.985   2.573   0.089 -0.7547 -0.3037  0.2017
  573SOL     OW 2289   1.198   2.313   0.196 -0.3456 -0.0517  0.3642
  573SOL    HW1 2290   1.290   2.298   0.168  0.0445 -0.2556 -1.6464
  573SOL    HW2 2291   1.185   2.398   0.252  1.0533  0.4992 -3.6992
  573SOL     MW 2292   1.208   2.322   0.200 -0.1096 -0.0059 -0.4372
  574SOL     OW 2293   1.152   2.545   0.310 -1.0393 -0.4378 -0.1997
  574SOL    HW1 2294   1.231   2.609   0.299  0.8616  1.6355 -0.0519
  574SOL    HW2 2295   1.102   2.545   0.226 -1.1730 -1.7041 -0.5441
  574SOL     MW 2296   1.155   2.554   0.298 -0.8062 -0.3313 -0.2257
  575SOL     OW 2297   3.036   2.220   1.745 -0.3443  0.4260 -0.0984
  575SOL    HW1 2298   3.079   2.136   1.717  2.1693 -1.0232  3.3835
  575SOL    HW2 2299   3.104   2.274   1.776 -0.9721 -1.6323  0.8677
  575SOL     MW 2300   3.050   2.216   1.745 -0.0955 -0.0368  0.4884
  576SOL     OW 2301   2.841   1.825   2.019  0.3302  0.1124 -0.0321
  576SOL    HW1 2302   2.885   1.910   1.998 -0.0085  1.0694  0.2101
  576SOL    HW2 2303   2.754   1.825   1.986  3.0396  0.0347  2.0764
  576SOL     MW 2304   2.835   1.836   2.012  0.6430  0.2284  0.2780
  577SOL     OW 2305   2.081   0.228   0.111 -0.0861 -0.3138 -0.1059
  577SOL    HW1 2306   2.023   0.239   0.037  1.9108  0.6161  0.0295
  577SOL    HW2 2307   2.028   0.162   0.159  1.3499 -0.1675 -0.4067
  577SOL     MW 2308   2.066   0.221   0.108  0.3668 -0.1718 -0.1277
  578SOL     OW 2309   1.918   2.036   2.417 -0.4243 -0.0199  0.2303
  578SOL    HW1 2310   1.842   2.030   2.355  1.1741  0.7415  2.9473
  578SOL    HW2 2311   1.974   1.963   2.396 -0.4986  0.8302  0.2845
  578SOL     MW 2312   1.915   2.026   2.406 -0.2232  0.1927  0.5960
  579SOL     OW 2313   0.917   2.425   2.465 -0.8520 -0.3008  0.3408
  579SOL    HW1 2314   0.956   2.375   2.544 -1.1626  0.4067  1.4375
  579SOL    HW2 2315   0.985   2.464   2.419  0.9779  2.1485  0.2879
  579SOL     MW 2316   0.931   2.423   2.469 -0.6515  0.1157  0.4785
  580SOL     OW 2317   0.942   2.846   0.029  0.1612  0.1169 -0.0229
  580SOL    HW1 2318   1.008   2.911   0.021 -0.2761 -0.7012  1.5612
  580SOL    HW2 2319   0.929   2.820  -0.063  2.2419  1.2287 -1.8015
  580SOL     MW 2320   0.949   2.851   0.015  0.3780  0.1556 -0.0485
  581SOL     OW 2321   1.147   2.501   1.680 -0.0268 -0.0068  0.0299
  581SOL    HW1 2322   1.211   2.523   1.743 -1.5069  3.4173  0.9800
  581SOL    HW2 2323   1.179   2.422   1.626  1.0757  0.9518 -1.4162
  581SOL     MW 2324   1.159   2.494   1.681 -0.0766  0.5715 -0.0355
  582SOL     OW 2325   0.044   2.808   2.739  0.5326 -0.3497  0.8450
  582SOL    HW1 2326  -0.020   2.885   2.732  0.1674  0.5513  1.2444
  582SOL    HW2 2327   0.127   2.847   2.713  0.0644  0.1517 -1.1342
  582SOL     MW 2328   0.046   2.823   2.734  0.4226 -0.1647  0.6366
  583SOL     OW 2329   2.002   2.435   2.692  0.3046 -0.0503 -0.0023
  583SOL    HW1 2330   2.064   2.458   2.621 -0.8603 -0.3577  0.9927
  583SOL    HW2 2331   2.001   2.344   2.689 -0.6960  3.0843 -2.2089
  583SOL     MW 2332   2.010   2.426   2.682  0.0189  0.3227 -0.1621
  584SOL     OW 2333   0.053   1.899   2.228 -0.2066  0.1368 -0.0090
  584SOL    HW1 2334   0.098   1.837   2.292  2.8692 -0.7681  0.6259
  584SOL    HW2 2335   0.108   1.975   2.246  1.7241 -1.7483  2.0192
  584SOL     MW 2336   0.066   1.901   2.239  0.4540 -0.2313  0.3424
  585SOL     OW 2337   1.572   2.600   0.177  0.3598  0.8023 -0.3775
  585SOL    HW1 2338   1.525   2.575   0.099  0.1711 -0.3327 -2.5896
  585SOL    HW2 2339   1.513   2.610   0.253 -1.4927  1.9564  1.5307
  585SOL     MW 2340   1.558   2.598   0.177  0.0905  0.8048 -0.4176
  586SOL     OW 2341   1.399   2.821   2.588 -0.4535  0.1118  0.0417
  586SOL    HW1 2342   1.416   2.782   2.503 -0.5631  0.5844 -2.0928
  586SOL    HW2 2343   1.397   2.910   2.569  0.1506  1.6326  0.8606
  586SOL     MW 2344   1.401   2.827   2.574 -0.3883  0.3748 -0.1319
  587SOL     OW 2345   1.373   1.503   2.149 -0.0642 -0.7376 -0.0754
  587SOL    HW1 2346   1.317   1.444   2.200 -0.2397 -1.2488  0.9220
  587SOL    HW2 2347   1.417   1.453   2.078 -0.0597  0.0070 -1.7331
  587SOL     MW 2348   1.372   1.489   2.147 -0.0868 -0.7068 -0.1625
  588SOL     OW 2349   1.366   2.028   2.677  0.3538 -0.1350 -0.8177
  588SOL    HW1 2350   1.364   1.934   2.670  1.8021 -0.6406  2.1764
  588SOL    HW2 2351   1.334   2.054   2.766 -0.7733 -1.8519  0.5228
  588SOL     MW 2352   1.361   2.019   2.688  0.3961 -0.4283 -0.2458
  589SOL     OW 2353   1.408   2.009   0.040  0.6753 -0.2955 -0.5437
  589SOL    HW1 2354   1.429   2.097   0.072  0.0705 -0.5762  0.9483
  589SOL    HW2 2355   1.347   1.968   0.107  1.1856 -0.1287 -2.2025
  589SOL     MW 2356   1.403   2.016   0.053  0.6628 -0.3105 -0.5657
  590SOL     OW 2357   0.490   2.767   2.187  0.1232 -0.3359 -0.3919
  590SOL    HW1 2358   0.475   2.755   2.091 -2.5201  0.0512  0.1432
  590SOL    HW2 2359   0.583   2.776   2.212  0.1402  1.5898  1.3785
  590SOL     MW 2360   0.500   2.767   2.178 -0.2233 -0.0307 -0.0877
  591SOL     OW 2361   2.260   0.682   0.033 -0.2787  0.1839  0.5322
  591SOL    HW1 2362   2.189   0.718  -0.015  1.3449  0.7197 -3.7525
  591SOL    HW2 2363   2.334   0.688  -0.031  0.2211  2.9175 -0.9176
  591SOL     MW 2364   2.261   0.687   0.018  0.0014  0.6153 -0.2244
  592SOL     OW 2365   1.740   2.937   0.748 -0.3166 -0.4465  0.5137
  592SOL    HW1 2366   1.760   3.000   0.679  1.0234 -0.5516 -1.2998
  592SOL    HW2 2367   1.793   2.951   0.828  0.8067 -2.7660  1.3443
  592SOL     MW 2368   1.750   2.947   0.749  0.0084 -0.7664  0.3840
  593SOL     OW 2369   1.961   0.688   0.834  0.3672  0.3671 -0.4818
  593SOL    HW1 2370   1.878   0.682   0.784 -2.4276 -1.1524  2.0232
  593SOL    HW2 2371   2.004   0.610   0.799  0.0375  0.5199 -2.9455
  593SOL     MW 2372   1.956   0.677   0.823 -0.0450  0.1867 -0.4764
  594SOL     OW 2373   2.783   1.094   1.406 -0.1905 -0.6937 -0.3521
  594SOL    HW1 2374   2.872   1.111   1.394  0.2069 -1.6630  1.2765
  594SOL    HW2 2375   2.752   1.061   1.322 -0.0787  1.6378  0.0983
  594SOL     MW 2376   2.790   1.092   1.393 -0.1233 -0.5140 -0.0778
  595SOL     OW 2377   0.467   0.928   0.823 -0.1282 -0.0048 -0.2974
  595SOL    HW1 2378   0.480   1.004   0.762 -0.4911  0.7368  1.0887
  595SOL    HW2 2379   0.481   0.972   0.912 -0.9895 -4.2298  0.7854
  595SOL     MW 2380   0.470   0.944   0.827 -0.2898 -0.4644  0.0283
  596SOL     OW 2381   2.472   1.323   0.512  0.0511  0.2098  0.0726
  596SOL    HW1 2382   2.542   1.380   0.489 -0.8219  0.6687 -2.2052
  596SOL    HW2 2383   2.492   1.296   0.597 -0.9421 -1.9362 -1.4099
  596SOL     MW 2384   2.484   1.327   0.520 -0.1951 -0.0128 -0.4235
  597SOL     OW 2385   2.172   0.666   1.614  0.6159  0.3722  0.2607
  597SOL    HW1 2386   2.205   0.608   1.681  3.0202 -1.2847 -0.2138
  597SOL    HW2 2387   2.104   0.611   1.568 -2.4067 -3.8841  0.6956
  597SOL     MW 2388   2.167   0.651   1.617  0.5343 -0.4080  0.2555
  598SOL     OW 2389   2.575   1.057   2.860 -0.0423  0.2210  0.5551
  598SOL    HW1 2390   2.590   0.966   2.843  2.2912 -0.2698 -2.1411
  598SOL    HW2 2391   2.662   1.091   2.837 -1.0434  2.3924 -0.6752
  598SOL     MW 2392   2.589   1.050   2.855  0.1335  0.4427  0.0370
  599SOL     OW 2393   2.986   0.425   2.153 -0.0845  0.3761  0.6075
  599SOL    HW1 2394   3.025   0.439   2.237 -1.5903  1.8608 -1.3996
  599SOL    HW2 2395   3.000   0.504   2.100  1.9795  0.0557  1.3920
  599SOL     MW 2396   2.993   0.437   2.157 -0.0108  0.5297  0.4462
  600SOL     OW 2397   1.850   1.623   0.899  0.2472 -0.1382 -0.0509
  600SOL    HW1 2398   1.909   1.668   0.961  2.0560 -1.1317 -1.4838
  600SOL    HW2 2399   1.793   1.694   0.871  0.6997  0.7950 -1.2273
  600SOL     MW 2400   1.850   1.639   0.903  0.5455 -0.1462 -0.3952
  601SOL     OW 2401   2.540   0.722   0.810  0.6828  0.2316  0.0658
  601SOL    HW1 2402   2.546   0.734   0.908 -0.2321 -1.1477  1.3480
  601SOL    HW2 2403   2.466   0.662   0.800 -1.7486 -1.6440  0.0230
  601SOL     MW 2404   2.531   0.716   0.821  0.2413 -0.1979  0.2293
  602SOL     OW 2405   2.310   1.928   0.766  0.1515 -0.2933  0.1832
  602SOL    HW1 2406   2.269   1.840   0.751 -2.8964 -0.8574  1.4140
  602SOL    HW2 2407   2.245   1.993   0.737  0.0795  1.0811 -4.3766
  602SOL     MW 2408   2.296   1.925   0.760 -0.2602 -0.1864 -0.2560
  603SOL     OW 2409   2.980   1.371   1.978 -0.6537 -0.5890  0.3543
  603SOL    HW1 2410   3.061   1.419   1.982  2.5869 -1.8005  1.7701
  603SOL    HW2 2411   2.998   1.280   1.979  1.0672  0.8150  1.8149
  603SOL     MW 2412   2.993   1.366   1.979  0.0009 -0.5636  0.7338
  604SOL     OW 2413   2.027   1.466   0.446  0.0565 -0.2346 -0.5424
  604SOL    HW1 2414   2.058   1.374   0.479  1.4020 -1.1561  2.1745
  604SOL    HW2 2415   1.990   1.514   0.519 -3.3959 -0.5078 -0.2132
  604SOL     MW 2416   2.026   1.460   0.460 -0.2215 -0.3922 -0.1405
  605SOL     OW 2417   2.506   1.486   0.895 -0.6485  0.6483  0.4454
  605SOL    HW1 2418   2.494   1.554   0.824  0.0067 -3.5809 -0.4564
  605SOL    HW2 2419   2.501   1.400   0.851  0.6926 -1.3421  0.1485
  605SOL     MW 2420   2.504   1.484   0.880 -0.3851 -0.1723  0.2873
  606SOL     OW 2421   2.562   1.811   1.969  0.4750  0.2245 -0.7772
  606SOL    HW1 2422   2.470   1.807   1.952  0.8058  0.3990 -0.8596
  606SOL    HW2 2423   2.591   1.738   1.913 -0.6379  0.1927  1.2708
  606SOL     MW 2424   2.554   1.801   1.959  0.3718  0.2433 -0.5179
  607SOL     OW 2425   2.372   0.980   3.032  0.1829  0.6493  0.0728
  607SOL    HW1 2426   2.441   1.021   2.983  1.0376  0.9084 -2.0316
  607SOL    HW2 2427   2.382   1.010   3.122 -0.0456 -0.7264  1.6717
  607SOL     MW 2428   2.382   0.989   3.037  0.2655  0.5020  0.0061
  608SOL     OW 2429   1.843   0.257   0.533  0.2859  0.1340 -0.0065
  608SOL    HW1 2430   1.837   0.314   0.460 -1.1091  1.9487 -0.6395
  608SOL    HW2 2431   1.832   0.168   0.512 -0.4053 -2.1938  0.7933
  608SOL     MW 2432   1.841   0.253   0.521  0.0107  0.0663  0.0155
  609SOL     OW 2433   2.135   1.927   3.029  0.0713  0.3387  0.2951
  609SOL    HW1 2434   2.060   1.879   2.979 -2.3696  3.3784  0.2317
  609SOL    HW2 2435   2.134   1.902   3.126 -0.0754 -0.2450  1.3069
  609SOL     MW 2436   2.125   1.917   3.035 -0.2701  0.6627  0.4202
  610SOL     OW 2437   1.792   0.947   1.233 -0.3868 -0.1021 -0.4797
  610SOL    HW1 2438   1.813   0.871   1.173  1.6060 -0.3300  0.5315
  610SOL    HW2 2439   1.694   0.957   1.223  2.2435  0.2097 -1.2900
  610SOL     MW 2440   1.782   0.938   1.223  0.2232 -0.0910 -0.4532
  611SOL     OW 2441   2.471   1.659   0.694 -0.4550  0.0904  0.0939
  611SOL    HW1 2442   2.483   1.692   0.602 -2.8036  1.5015 -1.3532
  611SOL    HW2 2443   2.375   1.641   0.702 -0.8279  0.5091  0.9730
  611SOL     MW 2444   2.460   1.661   0.683 -0.8141  0.3318  0.0189
  612SOL     OW 2445   2.857   2.950   0.365  0.6351  0.0985 -0.8409
  612SOL    HW1 2446   2.891   2.969   0.456  1.0315  0.2898  0.9661
  612SOL    HW2 2447   2.939   2.914   0.338 -0.5681 -0.6409  1.5445
  612SOL     MW 2448   2.873   2.948   0.373  0.5286  0.0262 -0.2877
  613SOL     OW 2449   1.491   1.046   0.947  0.6664  0.1288  0.4164
  613SOL    HW1 2450   1.519   1.121   0.996 -0.4018  1.9089  0.7362
  613SOL    HW2 2451   1.501   0.979   1.009  0.3734 -0.4624 -1.4013
  613SOL     MW 2452   1.496   1.047   0.961  0.4868  0.2857  0.2188
  614SOL     OW 2453   2.003   0.511   1.448  0.3376 -0.1633 -1.0981
  614SOL    HW1 2454   2.022   0.423   1.492 -1.0654  1.4233 -1.1468
  614SOL    HW2 2455   1.929   0.496   1.385 -1.0716  0.6801  0.5779
  614SOL     MW 2456   1.996   0.497   1.445 -0.0335  0.1574 -0.8834
  615SOL     OW 2457   2.399   0.720   0.296  0.2635 -0.2107  0.2286
  615SOL    HW1 2458   2.466   0.648   0.284  3.8875 -1.2753 -2.2213
  615SOL    HW2 2459   2.344   0.722   0.212 -0.1336  1.7689 -0.6123
  615SOL     MW 2460   2.400   0.711   0.284  0.6892 -0.0900 -0.2056
  616SOL     OW 2461   2.499   0.452   1.627 -0.2686 -0.0400 -0.4482
  616SOL    HW1 2462   2.554   0.387   1.577  3.0017  2.0323  0.2311
  616SOL    HW2 2463   2.480   0.517   1.563  0.3770 -1.3679 -1.6132
  616SOL     MW 2464   2.504   0.452   1.612  0.2481  0.0582 -0.5123
  617SOL     OW 2465   2.854   0.623   1.737  0.4981  0.3321  0.6331
  617SOL    HW1 2466   2.776   0.644   1.793 -0.1524 -0.9010  3.3761
  617SOL    HW2 2467   2.864   0.533   1.762 -0.5553  0.0031 -1.0600
  617SOL     MW 2468   2.845   0.614   1.747  0.2733  0.1260  0.7716
  618SOL     OW 2469   2.723   0.361   2.021 -0.0093 -0.6424  0.0001
  618SOL    HW1 2470   2.680   0.450   2.008  0.9285 -3.1274  0.7422
  618SOL    HW2 2471   2.811   0.381   2.057  1.5624 -0.4271 -1.4588
  618SOL     MW 2472   2.729   0.376   2.024  0.3218 -0.9419 -0.0945
  619SOL     OW 2473   2.630   0.706   0.076 -0.1952  0.3017  0.1805
  619SOL    HW1 2474   2.696   0.782   0.081  2.3695 -0.9458  0.6602
  619SOL    HW2 2475   2.640   0.651   0.152  0.1330 -3.1747 -3.7316
  619SOL     MW 2476   2.640   0.708   0.086  0.1865 -0.3216 -0.2724
  620SOL     OW 2477   2.253   1.086   0.922  0.2351 -0.2704 -0.3987
  620SOL    HW1 2478   2.339   1.059   0.889  0.3560  0.7098  1.3372
  620SOL    HW2 2479   2.191   1.020   0.891 -2.6662  0.2244  1.2474
  620SOL     MW 2480   2.256   1.074   0.914 -0.1318 -0.0758  0.0475
  621SOL     OW 2481   1.498   2.228   1.949 -0.4676 -0.4461 -0.2186
  621SOL    HW1 2482   1.443   2.154   1.960 -1.8325  1.8424  0.1425
  621SOL    HW2 2483   1.587   2.205   1.978 -0.5636  0.4665  1.5445
  621SOL     MW 2484   1.502   2.215   1.954 -0.6603 -0.0237  0.0616
  622SOL     OW 2485   2.621   0.247   0.288  0.1580  0.1016  0.3891
  622SOL    HW1 2486   2.708   0.293   0.274  0.2497 -0.2082  0.4822
  622SOL    HW2 2487   2.641   0.155   0.296  1.8081  1.9641 -0.2839
  622SOL     MW 2488   2.635   0.241   0.287  0.3878  0.3065  0.3126
  623SOL     OW 2489   2.433   2.734   0.879 -0.2768  0.0294  0.0204
  623SOL    HW1 2490   2.488   2.806   0.858 -2.8213 -1.6760  0.4796
  623SOL    HW2 2491   2.370   2.758   0.943  1.8544 -0.8514  3.5705
  623SOL     MW 2492   2.432   2.747   0.885 -0.3313 -0.3118  0.5494
  624SOL     OW 2493   2.138   1.605   3.045  0.4596 -0.1906  0.2632
  624SOL    HW1 2494   2.077   1.533   3.035  2.5024  2.1402 -0.3351
  624SOL    HW2 2495   2.106   1.673   2.980 -0.9139 -0.2319 -1.1930
  624SOL     MW 2496   2.126   1.605   3.035  0.5479  0.1115 -0.0079
  625SOL     OW 2497   2.250   1.903   1.088  0.0747 -0.2755 -0.8154
  625SOL    HW1 2498   2.324   1.856   1.136 -0.9326 -1.6778 -0.0859
  625SOL    HW2 2499   2.286   1.899   1.001  1.5687 -1.1837  1.7929
  625SOL     MW 2500   2.264   1.896   1.083  0.1389 -0.5804 -0.3750
  626SOL     OW 2501   0.200   1.811   2.442 -0.7615  0.2530 -0.2371
  626SOL    HW1 2502   0.154   1.737   2.482 -2.8273  1.5923  0.0824
  626SOL    HW2 2503   0.149   1.887   2.483 -0.5032 -1.6356  2.7558
  626SOL     MW 2504   0.187   1.811   2.453 -1.0000  0.1805  0.1999
  627SOL     OW 2505   2.537   0.797   2.564 -0.1039  0.3939 -0.4096
  627SOL    HW1 2506   2.456   0.837   2.591  0.5962  0.9237 -0.8513
  627SOL    HW2 2507   2.514   0.740   2.489 -0.5421 -0.0128  2.5056
  627SOL     MW 2508   2.524   0.795   2.557 -0.0694  0.4101 -0.0833
  628SOL     OW 2509   2.230   1.367   1.344 -0.2234 -0.0103  0.2014
  628SOL    HW1 2510   2.187   1.288   1.316 -1.5524 -0.5430 -1.3557
  628SOL    HW2 2511   2.304   1.374   1.286  0.8832  1.2159 -1.3135
  628SOL     MW 2512   2.234   1.358   1.333 -0.2527  0.0812 -0.2039
  629SOL     OW 2513   1.783   0.474   1.293 -0.3814  0.1571  0.2510
  629SOL    HW1 2514   1.783   0.551   1.227 -1.8148  3.8487  0.5855
  629SOL    HW2 2515   1.697   0.431   1.279 -1.7879  2.3598  1.8176
  629SOL     MW 2516   1.772   0.478   1.282 -0.7561  0.9348  0.5019
  630SOL     OW 2517   2.422   1.863   2.988 -0.3834  0.0291  0.0831
  630SOL    HW1 2518   2.424   1.954   2.940  1.3571  1.7450 -1.2180
  630SOL    HW2 2519   2.332   1.840   3.013  0.7634  1.3028  1.1228
  630SOL     MW 2520   2.410   1.872   2.985 -0.0025  0.4236  0.0486
  631SOL     OW 2521   2.065   1.667   1.540 -0.1520  0.6442 -0.1774
  631SOL    HW1 2522   2.055   1.598   1.611  2.5565 -1.6917 -0.8532
  631SOL    HW2 2523   1.978   1.712   1.526  0.6040 -1.1656  0.1579
  631SOL     MW 2524   2.052   1.664   1.547  0.3051  0.0972 -0.2223
  632SOL     OW 2525   0.258   1.943   1.497  0.4016  0.1350  0.0523
  632SOL    HW1 2526   0.169   1.957   1.547  0.4522  0.3289  0.1299
  632SOL    HW2 2527   0.275   1.850   1.521  1.0776  0.8709  0.9939
  632SOL     MW 2528   0.249   1.933   1.507  0.4974  0.2577  0.1868
  633SOL     OW 2529   2.622   0.542   0.283  0.3540  0.5010 -0.0496
  633SOL    HW1 2530   2.658   0.531   0.372  1.1137 -1.3985 -2.0872
  633SOL    HW2 2531   2.583   0.450   0.276  2.7400 -1.3379  2.5264
  633SOL     MW 2532   2.622   0.529   0.294  0.7691  0.0078  0.0214
  634SOL     OW 2533   2.688   3.050   0.616 -0.1920  0.3744 -0.5015
  634SOL    HW1 2534   2.721   3.140   0.635 -0.5791 -2.9122  0.9655
  634SOL    HW2 2535   2.633   3.069   0.538 -0.9632  0.9495  0.2023
  634SOL     MW 2536   2.685   3.064   0.608 -0.3448  0.0166 -0.2151
  635SOL     OW 2537   2.608   0.128   1.857  0.8172 -0.1332  0.3843
  635SOL    HW1 2538   2.662   0.087   1.787 -0.0774 -0.5973 -1.4927
  635SOL    HW2 2539   2.635   0.217   1.888  0.4967  3.2921  1.3495
  635SOL     MW 2540   2.619   0.134   1.852  0.6569  0.2575  0.2640
  636SOL     OW 2541   2.770   1.606   0.869 -0.1331 -0.5688  0.1171
  636SOL    HW1 2542   2.712   1.565   0.928 -0.2638 -2.3562 -2.4364
  636SOL    HW2 2543   2.755   1.702   0.879 -0.7244 -0.1223  0.0136
  636SOL     MW 2544   2.760   1.613   0.878 -0.2284 -0.7457 -0.2335
  637SOL     OW 2545   2.881   1.543   0.637 -0.2840  0.0319  0.5211
  637SOL    HW1 2546   2.957   1.601   0.615  1.4106 -0.7817 -1.9018
  637SOL    HW2 2547   2.846   1.581   0.719 -1.9385  0.5914 -1.6929
  637SOL     MW 2548   2.886   1.556   0.645 -0.2787 -0.0016 -0.0907
  638SOL     OW 2549   2.720   0.507   0.528  0.6183 -0.1385 -0.2547
  638SOL    HW1 2550   2.802   0.545   0.493  0.0682  0.6500  0.1349
  638SOL    HW2 2551   2.729   0.497   0.626  1.0138  2.6533 -0.0634
  638SOL     MW 2552   2.732   0.511   0.536  0.5979  0.3339 -0.1781
  639SOL     OW 2553   1.758   3.094   0.530 -0.4066 -0.0309 -0.2072
  639SOL    HW1 2554   1.663   3.122   0.515  1.6686  0.4331 -1.2118
  639SOL    HW2 2555   1.751   3.004   0.486 -2.0548 -0.6150 -0.3150
  639SOL     MW 2556   1.744   3.086   0.522 -0.3502 -0.0467 -0.3540
  640SOL     OW 2557   0.346   1.346   0.076  0.6054  0.0146  0.1630
  640SOL    HW1 2558   0.385   1.339  -0.015 -1.5402  4.6051 -0.5080
  640SOL    HW2 2559   0.353   1.258   0.120  1.6815 -1.2785  0.4949
  640SOL     MW 2560   0.352   1.333   0.070  0.4643  0.4497  0.1182
  641SOL     OW 2561   2.217   0.418   0.360 -0.1099 -0.6486 -0.9754
  641SOL    HW1 2562   2.241   0.455   0.274  2.4256 -0.1150 -2.1122
  641SOL    HW2 2563   2.286   0.359   0.368 -0.0573 -1.3644  0.2290
  641SOL     MW 2564   2.229   0.415   0.350  0.2316 -0.6727 -0.9665
  642SOL     OW 2565   0.086   0.026   0.497  0.0080 -0.1693  0.2007
  642SOL    HW1 2566   0.057   0.119   0.480  0.4121 -3.9578 -1.8811
  642SOL    HW2 2567   0.004  -0.008   0.541 -1.8664  2.1702  2.9742
  642SOL     MW 2568   0.071   0.034   0.501 -0.1860 -0.3605  0.2920
  643SOL     OW 2569   2.051   0.323   1.707  0.2441 -0.0739  0.0420
  643SOL    HW1 2570   1.977   0.297   1.759  0.6465  0.8958 -2.0277
  643SOL    HW2 2571   2.045   0.257   1.633  4.0486 -0.1471  0.1528
  643SOL     MW 2572   2.040   0.311   1.704  0.7991  0.0444 -0.2164
  644SOL     OW 2573   2.677   1.852   0.983 -0.0938  0.8403  0.1461
  644SOL    HW1 2574   2.682   1.799   1.060  1.9749  1.1879 -2.7534
  644SOL    HW2 2575   2.587   1.882   0.985 -1.3445  1.6076  0.8557
  644SOL     MW 2576   2.666   1.849   0.994  0.0141  0.9874 -0.1428
  645SOL     OW 2577   2.846   0.809   0.751 -0.1531  0.0045 -0.5525
  645SOL    HW1 2578   2.918   0.753   0.739 -2.6171 -0.2800  0.5412
  645SOL    HW2 2579   2.774   0.756   0.722 -0.2921  2.6229  0.2757
  645SOL     MW 2580   2.846   0.794   0.745 -0.4965  0.3125 -0.2989
  646SOL     OW 2581   0.070   2.313   0.829  0.5889  0.1283  0.2664
  646SOL    HW1 2582   0.119   2.233   0.845 -1.5399 -0.5103  0.1973
  646SOL    HW2 2583   0.045   2.324   0.732  0.6116 -2.6987 -1.1358
  646SOL     MW 2584   0.073   2.304   0.818  0.3110 -0.3290  0.0723
  647SOL     OW 2585   2.705   0.506   3.004 -0.2041  0.3986  0.4659
  647SOL    HW1 2586   2.639   0.449   3.040  0.9793  0.0752  1.0611
  647SOL    HW2 2587   2.714   0.585   3.058 -1.0985  0.9695  0.1941
  647SOL     MW 2588   2.697   0.509   3.016 -0.1660  0.4313  0.5086
  648SOL     OW 2589   2.261   0.740   1.113  0.1816 -0.2253 -0.6972
  648SOL    HW1 2590   2.206   0.665   1.129  4.4153 -1.0780  0.0229
  648SOL    HW2 2591   2.237   0.806   1.175 -2.5217 -1.1630  0.2529
  648SOL     MW 2592   2.250   0.739   1.123  0.3835 -0.4615 -0.4768
  649SOL     OW 2593   2.423   2.729   1.276  0.3012  0.5117 -0.5831
  649SOL    HW1 2594   2.508   2.774   1.275  0.6030  1.7550  0.6936
  649SOL    HW2 2595   2.435   2.633   1.248 -1.1936 -0.4419 -5.2560
  649SOL     MW 2596   2.436   2.722   1.272  0.1438  0.5500 -1.0312
  650SOL     OW 2597   2.767   0.194   0.642 -0.2583 -0.3734  0.3464
  650SOL    HW1 2598   2.749   0.271   0.692  0.4470  0.6406 -1.5254
  650SOL    HW2 2599   2.849   0.216   0.589 -0.1564 -1.6824 -0.7563
  650SOL     MW 2600   2.776   0.207   0.642 -0.1518 -0.4123 -0.0461
  651SOL     OW 2601   0.000   0.454   0.997 -0.2218  0.2963 -0.1762
  651SOL    HW1 2602   0.075   0.501   0.953  0.5047 -0.6043  1.9202
  651SOL    HW2 2603  -0.071   0.518   1.000 -1.8493 -0.3236  3.9688
  651SOL     MW 2604   0.001   0.468   0.991 -0.3407  0.0957  0.6473
  652SOL     OW 2605   2.379   1.435   3.006 -0.5203 -0.6191 -0.4081
  652SOL    HW1 2606   2.434   1.472   2.938 -2.4170 -0.4737 -1.3195
  652SOL    HW2 2607   2.313   1.497   3.013  0.0213 -3.9016  0.4801
  652SOL     MW 2608   2.378   1.448   2.998 -0.6991 -1.0330 -0.4112
  653SOL     OW 2609   1.794   0.428   0.316 -0.6689  0.0968 -0.1890
  653SOL    HW1 2610   1.779   0.341   0.278  0.1031 -0.7935 -3.1858
  653SOL    HW2 2611   1.870   0.458   0.268  0.4039 -0.5528  2.1062
  653SOL     MW 2612   1.802   0.421   0.304 -0.4255 -0.1064 -0.2816
  654SOL     OW 2613   2.428   0.968   0.751 -0.3334 -0.3984  0.2707
  654SOL    HW1 2614   2.388   0.976   0.660  0.2157 -0.6542 -0.4525
  654SOL    HW2 2615   2.470   0.874   0.762  1.0347  0.1838 -1.5756
  654SOL     MW 2616   2.428   0.956   0.741 -0.0804 -0.3553 -0.0683
  655SOL     OW 2617   2.890   0.881   0.391  0.4197  0.5281 -0.0225
  655SOL    HW1 2618   2.889   0.926   0.472 -2.0973  0.3233 -0.6049
  655SOL    HW2 2619   2.903   0.791   0.412  2.5985  1.5739 -0.3105
  655SOL     MW 2620   2.891   0.875   0.404  0.3751  0.6391 -0.1374
  656SOL     OW 2621   1.774   2.646   1.375 -0.0459  0.4053  0.1196
  656SOL    HW1 2622   1.807   2.736   1.382  0.1110  0.9406  0.1358
  656SOL    HW2 2623   1.837   2.605   1.318 -0.9425  1.5354  0.5924
  656SOL     MW 2624   1.787   2.653   1.368 -0.1435  0.6250  0.1841
  657SOL     OW 2625   0.119   1.759   1.165  0.3972  0.8038  0.5598
  657SOL    HW1 2626   0.198   1.809   1.155 -1.4214 -1.0284  2.4597
  657SOL    HW2 2627   0.147   1.672   1.190  0.4942  0.2599  1.3735
  657SOL     MW 2628   0.133   1.754   1.167  0.1701  0.4903  0.9178
  658SOL     OW 2629   2.687   1.329   0.244  0.9810  0.1471  0.5641
  658SOL    HW1 2630   2.668   1.261   0.308 -0.1455  1.3358 -3.3160
  658SOL    HW2 2631   2.711   1.402   0.303  1.8148  0.5221 -0.0212
  658SOL     MW 2632   2.688   1.330   0.260  0.9424  0.3534 -0.0251
  659SOL     OW 2633   2.197   1.550   0.997 -0.3994 -0.0399 -0.2382
  659SOL    HW1 2634   2.290   1.550   0.997 -1.5647 -1.4828  1.1701
  659SOL    HW2 2635   2.175   1.579   1.081 -0.4443 -4.4578  1.7399
  659SOL     MW 2636   2.207   1.553   1.008 -0.5591 -0.8132  0.2086
  660SOL     OW 2637   2.100   1.463   1.701  0.0756 -0.1202 -0.3777
  660SOL    HW1 2638   2.094   1.487   1.797 -0.0471  1.2905  2.3389
  660SOL    HW2 2639   2.016   1.419   1.677 -1.8084 -2.1820  1.7147
  660SOL     MW 2640   2.088   1.460   1.711 -0.1892 -0.2061  0.2568
  661SOL     OW 2641   2.456   0.969   0.205 -0.6600  0.3173  0.0316
  661SOL    HW1 2642   2.498   1.007   0.284  1.3684 -1.0517  2.9634
  661SOL    HW2 2643   2.438   0.876   0.230 -3.1413 -2.7676  3.0083
  661SOL     MW 2644   2.459   0.962   0.219 -0.7198 -0.2704  0.8112
  662SOL     OW 2645   2.599   2.962   0.857 -0.1159 -0.3878  0.5592
  662SOL    HW1 2646   2.540   3.029   0.896  1.0054 -0.3546 -0.7560
  662SOL    HW2 2647   2.642   3.002   0.777 -1.4431  0.4021 -0.4143
  662SOL     MW 2648   2.597   2.976   0.852 -0.1431 -0.2792  0.2572
  663SOL     OW 2649   2.688   1.506   0.446 -0.0601  0.4174 -0.2858
  663SOL    HW1 2650   2.646   1.590   0.414  0.3094  2.5352 -2.5591
  663SOL    HW2 2651   2.749   1.532   0.518  1.3502  4.1854 -0.1168
  663SOL     MW 2652   2.691   1.520   0.451  0.1747  1.1940 -0.5634
  664SOL     OW 2653   2.547   1.516   1.624 -0.5805  0.8369 -0.4165
  664SOL    HW1 2654   2.520   1.594   1.583  2.1526  1.6506  1.6040
  664SOL    HW2 2655   2.476   1.461   1.618  1.4929  2.5045  1.2658
  664SOL     MW 2656   2.534   1.519   1.618  0.0537  1.1642  0.0720
  665SOL     OW 2657   2.777   0.772   2.091  0.3238  0.0881 -0.3322
  665SOL    HW1 2658   2.786   0.830   2.011 -2.4698 -0.1283 -0.5711
  665SOL    HW2 2659   2.859   0.731   2.109  0.3986 -0.2436 -2.4226
  665SOL     MW 2660   2.789   0.774   2.083 -0.0349  0.0158 -0.6395
  666SOL     OW 2661   2.772   3.050   1.713 -0.0246 -0.0485  0.0296
  666SOL    HW1 2662   2.818   3.033   1.631 -3.6564 -1.4848 -0.9311
  666SOL    HW2 2663   2.720   2.974   1.740  2.0858 -0.9776 -0.0057
  666SOL     MW 2664   2.771   3.038   1.706 -0.2253 -0.3606 -0.1018
  667SOL     OW 2665   1.995   2.702   1.739  0.0706 -0.3382  0.6207
  667SOL    HW1 2666   2.035   2.642   1.802 -0.6238  0.4101  2.7644
  667SOL    HW2 2667   2.062   2.771   1.733  1.2386  0.7276  0.0469
  667SOL     MW 2668   2.009   2.703   1.747  0.1331 -0.0988  0.8279
  668SOL     OW 2669   2.740   0.539   0.814  0.3827  0.7141  0.0564
  668SOL    HW1 2670   2.823   0.572   0.865  0.4738  1.0557  1.9004
  668SOL    HW2 2671   2.663   0.601   0.826  2.4533 -0.2482  2.7925
  668SOL     MW 2672   2.741   0.551   0.823  0.6679  0.6322  0.6607
  669SOL     OW 2673   0.159   0.880   0.788  0.7945  0.4192 -0.1414
  669SOL    HW1 2674   0.156   0.976   0.765 -0.5191  0.9588  0.0996
  669SOL    HW2 2675   0.199   0.859   0.872 -1.5879 -0.2327  0.3334
  669SOL     MW 2676   0.163   0.890   0.796  0.3069  0.4044 -0.0469
  670SOL     OW 2677   2.904   0.323   0.251 -0.0681 -0.0735 -0.0712
  670SOL    HW1 2678   2.923   0.265   0.174 -0.3437  1.8635 -0.6885
  670SOL    HW2 2679   2.938   0.410   0.221  0.6489  1.5393  0.6587
  670SOL     MW 2680   2.911   0.327   0.237 -0.0098  0.3948 -0.0564
  671SOL     OW 2681   2.006   3.018   1.564  0.1321 -0.2992  0.2108
  671SOL    HW1 2682   1.950   2.978   1.500 -2.4261  0.7172  0.1784
  671SOL    HW2 2683   1.948   3.045   1.637 -0.6002  0.2692 -1.2361
  671SOL     MW 2684   1.991   3.016   1.565 -0.3021 -0.0901  0.0156
  672SOL     OW 2685   1.811   1.701   1.275 -0.4053  0.6641  0.1458
  672SOL    HW1 2686   1.819   1.759   1.348 -3.5248  1.6878 -2.2630
  672SOL    HW2 2687   1.872   1.726   1.206  0.4547 -1.0008 -0.9160
  672SOL     MW 2688   1.820   1.712   1.276 -0.7034  0.5795 -0.3121
  673SOL     OW 2689   2.743   1.060   0.628  0.5204 -0.4160  0.0637
  673SOL    HW1 2690   2.774   0.992   0.686  1.5351 -1.8476  0.3831
  673SOL    HW2 2691   2.805   1.131   0.630 -4.8176 -0.1688 -0.5736
  673SOL     MW 2692   2.755   1.060   0.636 -0.0500 -0.5723  0.0218
  674SOL     OW 2693   2.458   3.083   1.279 -0.1471  0.1120 -0.4564
  674SOL    HW1 2694   2.437   3.101   1.185 -0.1884 -0.3209 -0.6402
  674SOL    HW2 2695   2.519   3.009   1.275 -0.2716 -1.4135 -1.2045
  674SOL     MW 2696   2.463   3.076   1.266 -0.1690 -0.1464 -0.5794
  675SOL     OW 2697   2.927   0.919   1.031 -0.3323  0.5660  0.2750
  675SOL    HW1 2698   3.013   0.910   1.076 -1.6875  1.4308 -0.8201
  675SOL    HW2 2699   2.950   0.965   0.945  1.2667 -0.2405 -0.3603
  675SOL     MW 2700   2.941   0.924   1.026 -0.3001  0.5737  0.0467
  676SOL     OW 2701   2.953   1.418   1.696  0.3414  0.2346 -0.3327
  676SOL    HW1 2702   2.867   1.371   1.668 -1.8065  0.1399  0.7442
  676SOL    HW2 2703   2.969   1.415   1.788 -4.8608  2.8402 -0.0428
  676SOL     MW 2704   2.944   1.412   1.705 -0.6284  0.5659 -0.1524
  677SOL     OW 2705   2.361   0.542   2.034  0.4871  0.1967  0.3383
  677SOL    HW1 2706   2.317   0.494   1.955  2.0476 -1.5412  0.6100
  677SOL    HW2 2707   2.314   0.630   2.031  0.0977  0.5612  0.9928
  677SOL     MW 2708   2.349   0.548   2.023  0.6416  0.0155  0.4605
  678SOL     OW 2709   2.475   1.654   0.314  0.5686 -0.0453 -0.2417
  678SOL    HW1 2710   2.386   1.675   0.347 -0.6333 -2.2446 -0.9072
  678SOL    HW2 2711   2.447   1.573   0.272 -1.6208 -1.9864  1.5109
  678SOL     MW 2712   2.459   1.646   0.313  0.1211 -0.5916 -0.0983
  679SOL     OW 2713   2.226   0.464   1.281 -0.1543 -0.4330 -0.3338
  679SOL    HW1 2714   2.223   0.371   1.293  0.8111 -0.7229  1.6782
  679SOL    HW2 2715   2.167   0.504   1.347 -2.9595 -1.9971 -1.1456
  679SOL     MW 2716   2.218   0.457   1.291 -0.3970 -0.6776 -0.1754
  680SOL     OW 2717   2.319   0.167   1.498 -0.3434 -0.0102 -0.0434
  680SOL    HW1 2718   2.225   0.153   1.486  1.3724  0.1818 -1.0578
  680SOL    HW2 2719   2.370   0.137   1.425  4.1621 -1.7722 -1.2618
  680SOL     MW 2720   2.314   0.161   1.487  0.4774 -0.2173 -0.3380
  681SOL     OW 2721   0.237   0.556   1.542 -0.2028 -0.2471 -0.9034
  681SOL    HW1 2722   0.222   0.494   1.620  0.7477 -1.3251 -2.8531
  681SOL    HW2 2723   0.216   0.508   1.459 -3.0277  2.4754 -3.3881
  681SOL     MW 2724   0.232   0.541   1.541 -0.4501 -0.0301 -1.4885
  682SOL     OW 2725   0.170   2.845   1.543 -0.2505  0.7597 -0.0287
  682SOL    HW1 2726   0.216   2.929   1.559  0.6368  1.4564 -0.7959
  682SOL    HW2 2727   0.075   2.868   1.542  0.0708  1.5525 -2.6175
  682SOL     MW 2728   0.164   2.859   1.545 -0.0910  0.9562 -0.4715
  683SOL     OW 2729   2.099   0.833   2.981  0.1026 -0.4269 -0.0686
  683SOL    HW1 2730   2.031   0.771   3.005  0.5793  0.2795  1.9987
  683SOL    HW2 2731   2.089   0.918   3.026  0.6856  0.8768  2.2242
  683SOL     MW 2732   2.089   0.836   2.990  0.2424 -0.1617  0.5067
  684SOL     OW 2733   2.188   1.698   0.692 -0.1642  0.2211 -0.2936
  684SOL    HW1 2734   2.182   1.701   0.591  0.3805 -1.2485 -0.5513
  684SOL    HW2 2735   2.143   1.617   0.712  3.2301 -1.6243  1.6196
  684SOL     MW 2736   2.182   1.688   0.681  0.3555 -0.2163 -0.0752
  685SOL     OW 2737   2.711   1.662   1.199 -0.0152 -0.2952  0.0948
  685SOL    HW1 2738   2.780   1.718   1.224  2.3586  0.2735 -1.4444
  685SOL    HW2 2739   2.710   1.586   1.261 -0.0773 -2.2913 -0.2198
  685SOL     MW 2740   2.720   1.659   1.210  0.2898 -0.4835 -0.1498
  686SOL     OW 2741   2.866   0.730   1.488  0.1522 -0.3238  0.4157
  686SOL    HW1 2742   2.838   0.678   1.570 -1.6771  0.8214  1.5223
  686SOL    HW2 2743   2.963   0.746   1.496  3.5346  0.9204  1.3359
  686SOL     MW 2744   2.875   0.725   1.500  0.3571 -0.0085  0.6831
  687SOL     OW 2745   2.129   0.152   1.189  0.0367 -0.2700 -0.9095
  687SOL    HW1 2746   2.214   0.130   1.146 -1.1772 -1.4217 -0.0908
  687SOL    HW2 2747   2.080   0.216   1.125  1.0360  0.1463 -0.9041
  687SOL     MW 2748   2.134   0.157   1.175  0.0084 -0.3670 -0.8008
  688SOL     OW 2749   2.401   0.627   1.434  0.1392 -0.0916  0.1099
  688SOL    HW1 2750   2.336   0.584   1.384  1.1901  1.4653  2.6325
  688SOL    HW2 2751   2.355   0.669   1.506  0.1864 -0.1863 -0.9182
  688SOL     MW 2752   2.387   0.627   1.437  0.2841  0.1013  0.3071
  689SOL     OW 2753   2.481   0.715   2.952  1.1286 -0.1803  0.7150
  689SOL    HW1 2754   2.473   0.811   2.973 -0.5892 -0.2556  0.3250
  689SOL    HW2 2755   2.535   0.684   3.023 -2.7288  1.6340  3.1969
  689SOL     MW 2756   2.487   0.724   2.964  0.3930  0.0491  0.9911
  690SOL     OW 2757   2.059   0.900   1.849  0.0717 -0.4855  0.3351
  690SOL    HW1 2758   1.998   0.830   1.855  1.1479  0.4036  0.8607
  690SOL    HW2 2759   2.071   0.920   1.753 -1.5672  0.6799  0.3513
  690SOL     MW 2760   2.053   0.893   1.837 -0.0025 -0.2144  0.4066
  691SOL     OW 2761   2.414   0.227   0.837  0.1894 -0.0456 -0.1481
  691SOL    HW1 2762   2.490   0.270   0.877 -1.1454 -0.0214 -2.3569
  691SOL    HW2 2763   2.347   0.291   0.822  0.8769 -0.9831  2.6383
  691SOL     MW 2764   2.415   0.241   0.840  0.1040 -0.1661 -0.0719
  692SOL     OW 2765   2.916   1.605   1.473 -0.4326  0.2008 -0.7112
  692SOL    HW1 2766   2.941   1.561   1.553 -0.5520 -0.7403  0.9878
  692SOL    HW2 2767   2.904   1.697   1.503 -3.2189 -2.4765 -1.7041
  692SOL     MW 2768   2.918   1.612   1.487 -0.8160 -0.2766 -0.6180
  693SOL     OW 2769   2.300   0.432   0.109  1.0367  0.2921  0.8169
  693SOL    HW1 2770   2.229   0.369   0.103  1.6854 -0.3929 -1.4115
  693SOL    HW2 2771   2.271   0.520   0.082  0.0014 -0.9978  1.4708
  693SOL     MW 2772   2.287   0.435   0.105  0.9857  0.0315  0.6092
  694SOL     OW 2773   1.915   1.133   1.060 -0.2841 -0.5286 -0.3098
  694SOL    HW1 2774   2.011   1.131   1.095 -0.3256 -2.2729  0.2555
  694SOL    HW2 2775   1.868   1.067   1.107  0.1611 -0.6716 -0.4945
  694SOL     MW 2776   1.922   1.124   1.071 -0.2308 -0.7776 -0.2596
  695SOL     OW 2777   2.994   1.422   1.273  0.4935 -0.8280 -0.7136
  695SOL    HW1 2778   2.963   1.427   1.180  1.1939  0.5238 -1.8206
  695SOL    HW2 2779   2.948   1.496   1.327  0.4500  1.3938 -0.8325
  695SOL     MW 2780   2.984   1.432   1.268  0.5802 -0.3565 -0.8753
  696SOL     OW 2781   2.097   1.413   0.783  0.0375  0.6879  0.0336
  696SOL    HW1 2782   2.135   1.448   0.866  1.2927  2.1525  2.1992
  696SOL    HW2 2783   2.022   1.350   0.802 -0.5186 -1.4093  1.7298
  696SOL     MW 2784   2.092   1.409   0.796  0.1298  0.6045  0.5431
  697SOL     OW 2785   2.863   1.005   2.237 -0.1989 -0.3791  0.5412
  697SOL    HW1 2786   2.793   1.056   2.191 -2.5739 -0.9660 -3.2686
  697SOL    HW2 2787   2.833   0.913   2.223 -2.3646 -1.3866  2.5931
  697SOL     MW 2788   2.850   0.999   2.229 -0.7980 -0.5895  0.3093
  698SOL     OW 2789   2.525   0.338   0.017 -0.4122 -0.1344 -0.0487
  698SOL    HW1 2790   2.433   0.370   0.044  0.3762  1.8376 -2.9176
  698SOL    HW2 2791   2.568   0.316   0.096  2.0818  1.3786  1.7564
  698SOL     MW 2792   2.518   0.340   0.031  0.0209  0.3254 -0.1891
  699SOL     OW 2793   1.888   1.622   2.065 -0.3043 -0.6715  0.7881
  699SOL    HW1 2794   1.843   1.543   2.033 -1.8924  5.3072 -2.0900
  699SOL    HW2 2795   1.979   1.587   2.064 -0.5260  1.9755  2.5206
  699SOL     MW 2796   1.894   1.607   2.061 -0.5431  0.4666  0.6369
  700SOL     OW 2797   2.688   0.904   1.602 -0.7888 -0.3495  0.1280
  700SOL    HW1 2798   2.696   0.973   1.536 -0.6156 -0.1049 -2.8518
  700SOL    HW2 2799   2.771   0.857   1.580  1.0960  2.0113 -0.9760
  700SOL     MW 2800   2.700   0.907   1.591 -0.5173 -0.0057 -0.4108
  701SOL     OW 2801   1.699   1.171   2.480  0.3224 -0.3266  0.4146
  701SOL    HW1 2802   1.797   1.181   2.473  1.5581 -0.8841  1.5732
  701SOL    HW2 2803   1.676   1.255   2.529 -1.9621  0.3382 -1.8898
  701SOL     MW 2804   1.709   1.184   2.485  0.1840 -0.3124  0.2634
  702SOL     OW 2805   2.155   0.423   0.832 -0.0769  0.1918  0.2219
  702SOL    HW1 2806   2.132   0.357   0.769 -0.1103  0.0258 -1.8878
  702SOL    HW2 2807   2.223   0.481   0.796 -0.1892 -1.2600  0.8452
  702SOL     MW 2808   2.161   0.422   0.819 -0.0961 -0.0217  0.0258
  703SOL     OW 2809   2.712   1.251   1.033  0.2974  0.4622 -0.3500
  703SOL    HW1 2810   2.691   1.228   0.940  0.3047 -0.7746 -1.2502
  703SOL    HW2 2811   2.720   1.163   1.075  2.3325 -1.0868 -0.1244
  703SOL     MW 2812   2.711   1.236   1.026  0.5669  0.0946 -0.4390
  704SOL     OW 2813   3.042   1.261   0.126 -0.5568  0.5678 -0.2192
  704SOL    HW1 2814   2.962   1.227   0.088  1.5670 -0.5387  1.7508
  704SOL    HW2 2815   3.031   1.251   0.221 -1.5080  0.8639  1.7184
  704SOL     MW 2816   3.030   1.255   0.133 -0.4021  0.4608  0.2963
  705SOL     OW 2817   2.188   1.628   1.303  0.2865  0.1143 -0.6044
  705SOL    HW1 2818   2.130   1.681   1.362 -1.6902  1.8661 -0.4768
  705SOL    HW2 2819   2.183   1.538   1.330 -0.4180  1.0299 -0.1888
  705SOL     MW 2820   2.180   1.623   1.315 -0.0673  0.4662 -0.5327
  706SOL     OW 2821   2.936   1.266   0.645 -0.0192  0.1902 -0.2959
  706SOL    HW1 2822   2.978   1.257   0.563  1.5012 -0.7750  1.1666
  706SOL    HW2 2823   2.897   1.356   0.661 -0.4288 -2.8060  0.7782
  706SOL     MW 2824   2.936   1.277   0.636  0.1274 -0.3325  0.0388
  707SOL     OW 2825   2.329   0.037   1.034  0.3827  0.0688  0.0531
  707SOL    HW1 2826   2.361   0.085   0.960 -2.6284  0.6589  2.3814
  707SOL    HW2 2827   2.246  -0.009   1.004 -0.8896 -0.2600 -0.4888
  707SOL     MW 2828   2.322   0.037   1.021 -0.1824  0.1033  0.2888
  708SOL     OW 2829   2.432   1.408   0.193 -0.1147 -0.3859  0.3976
  708SOL    HW1 2830   2.523   1.379   0.178 -0.1684 -0.9608 -2.4546
  708SOL    HW2 2831   2.391   1.407   0.103  0.9782  1.6040 -0.4742
  708SOL     MW 2832   2.438   1.404   0.179  0.0224 -0.1992 -0.0938
  709SOL     OW 2833   1.767   1.649   0.229 -0.4556 -0.7628 -0.0396
  709SOL    HW1 2834   1.760   1.645   0.132 -0.6759  1.2265 -1.6430
  709SOL    HW2 2835   1.683   1.643   0.268 -1.7838 -1.3936 -1.0566
  709SOL     MW 2836   1.755   1.648   0.221 -0.6599 -0.5835 -0.3853
  710SOL     OW 2837   2.164   1.120   1.206 -0.3304  1.0376 -0.2816
  710SOL    HW1 2838   2.217   1.134   1.125 -2.6728  1.2034 -0.6547
  710SOL    HW2 2839   2.180   1.037   1.250  1.6477 -3.1723 -2.3569
  710SOL     MW 2840   2.173   1.111   1.201 -0.3784  0.5040 -0.6046
  711SOL     OW 2841   2.335   0.084   1.756 -0.0595  0.0186  0.0047
  711SOL    HW1 2842   2.433   0.090   1.784  0.7278 -0.8007  2.0658
  711SOL    HW2 2843   2.334   0.106   1.663 -0.6929  0.6119  1.2047
  711SOL     MW 2844   2.348   0.088   1.748 -0.0392 -0.0112  0.4350
  712SOL     OW 2845   1.944   0.630   3.073  0.0492  0.2508 -0.3139
  712SOL    HW1 2846   1.852   0.636   3.040  1.0766 -1.3510  0.7020
  712SOL    HW2 2847   1.937   0.658   3.166 -0.6190 -0.6094  1.7571
  712SOL     MW 2848   1.931   0.635   3.081  0.0966 -0.0740  0.0934
  713SOL     OW 2849   2.554   0.733   1.084  0.1210 -0.3347  0.2225
  713SOL    HW1 2850   2.576   0.650   1.127 -1.6588 -0.0745 -0.7849
  713SOL    HW2 2851   2.461   0.747   1.104 -3.6512 -1.9094 -2.4811
  713SOL     MW 2852   2.545   0.724   1.092 -0.6115 -0.5081 -0.2671
  714SOL     OW 2853   2.188   0.148   2.011 -0.0256  0.4453  0.1837
  714SOL    HW1 2854   2.244   0.086   2.065  0.0673 -0.0550  0.8949
  714SOL    HW2 2855   2.221   0.140   1.917  1.3468 -2.0783 -1.0954
  714SOL     MW 2856   2.200   0.139   2.005  0.1677  0.0463  0.1088
  715SOL     OW 2857   1.831   2.034   1.734 -0.0643  0.4941 -0.2959
  715SOL    HW1 2858   1.913   2.084   1.718 -1.8430 -1.0605  0.2758
  715SOL    HW2 2859   1.855   1.957   1.789 -0.2078 -0.1043  1.9007
  715SOL     MW 2860   1.845   2.030   1.739 -0.3179  0.2101  0.0694
  716SOL     OW 2861   2.343   0.557   0.709 -0.6484 -0.6699 -0.7165
  716SOL    HW1 2862   2.396   0.497   0.662 -0.7855  0.0321  1.3956
  716SOL    HW2 2863   2.278   0.602   0.655 -1.0458  2.7639  1.0149
  716SOL     MW 2864   2.341   0.555   0.696 -0.7189 -0.1243 -0.2094
  717SOL     OW 2865   2.807   1.655   2.888  0.1291 -0.1901 -0.3514
  717SOL    HW1 2866   2.879   1.627   2.940 -2.9115  1.1565 -0.0463
  717SOL    HW2 2867   2.765   1.711   2.960 -2.2423 -0.1213  1.5035
  717SOL     MW 2868   2.811   1.659   2.904 -0.5849 -0.0034 -0.0664
  718SOL     OW 2869   2.674   1.411   1.326 -0.5110 -0.1291 -0.5149
  718SOL    HW1 2870   2.675   1.390   1.418 -0.4628  0.5456 -1.5208
  718SOL    HW2 2871   2.737   1.349   1.290  1.3748 -0.8504 -0.3277
  718SOL     MW 2872   2.683   1.400   1.333 -0.2558 -0.1352 -0.6229
  719SOL     OW 2873   2.172   1.246   0.556  0.2262 -0.7062  0.4513
  719SOL    HW1 2874   2.246   1.279   0.496 -2.4346 -0.5266 -1.4147
  719SOL    HW2 2875   2.166   1.313   0.625 -1.3844  1.9270  1.5599
  719SOL     MW 2876   2.181   1.259   0.558 -0.3374 -0.3351  0.3514
  720SOL     OW 2877   2.806   1.184   0.042 -0.0638 -0.4709  0.1818
  720SOL    HW1 2878   2.784   1.092   0.058  0.9117 -0.6477 -0.0403
  720SOL    HW2 2879   2.751   1.243   0.098 -0.3366 -0.5785 -0.2844
  720SOL     MW 2880   2.796   1.179   0.051  0.0289 -0.5084  0.0910
  721SOL     OW 2881   2.484   0.885   1.419  0.3103 -0.0493  0.4521
  721SOL    HW1 2882   2.455   0.797   1.396  1.6266 -0.3983  1.2307
  721SOL    HW2 2883   2.544   0.881   1.489  0.1167  0.3443 -1.8733
  721SOL     MW 2884   2.488   0.873   1.425  0.4584 -0.0434  0.2480
  722SOL     OW 2885   2.598   1.124   0.416  0.1454 -0.0334 -0.8116
  722SOL    HW1 2886   2.540   1.193   0.444 -3.1325  1.0419 -1.4059
  722SOL    HW2 2887   2.633   1.082   0.495 -0.2494 -1.2866  0.2527
  722SOL     MW 2888   2.595   1.127   0.430 -0.3392 -0.0569 -0.7496
  723SOL     OW 2889   2.328   1.353   1.596  0.3534  0.1007  0.3921
  723SOL    HW1 2890   2.298   1.356   1.504 -3.5984 -1.5304  0.7361
  723SOL    HW2 2891   2.243   1.371   1.643 -0.8648 -3.3968 -1.5486
  723SOL     MW 2892   2.313   1.356   1.590 -0.3287 -0.5760  0.1814
  724SOL     OW 2893   2.458   0.343   0.564  0.2164 -0.5553  0.3762
  724SOL    HW1 2894   2.432   0.269   0.620 -0.4075 -0.2888 -1.6438
  724SOL    HW2 2895   2.548   0.312   0.548 -0.5744  0.0340  1.2991
  724SOL     MW 2896   2.467   0.329   0.569  0.0297 -0.4424  0.2315
  725SOL     OW 2897   2.590   0.419   1.226  0.1928 -0.7630  0.2128
  725SOL    HW1 2898   2.677   0.456   1.251  1.0753 -0.3441 -0.6286
  725SOL    HW2 2899   2.526   0.443   1.290  1.0002  1.7482 -0.0174
  725SOL     MW 2900   2.593   0.427   1.238  0.4158 -0.3764  0.0714
  726SOL     OW 2901   2.525   2.498   0.515 -0.2018  0.0694 -0.1367
  726SOL    HW1 2902   2.517   2.578   0.467 -1.9032 -0.5893  0.8329
  726SOL    HW2 2903   2.513   2.512   0.610  2.1396 -0.7339  1.5962
  726SOL     MW 2904   2.522   2.510   0.521 -0.1174 -0.1235  0.2198
  727SOL     OW 2905   2.867   0.342   1.781 -0.2715 -0.1814  0.1031
  727SOL    HW1 2906   2.810   0.303   1.715  1.2230 -0.3396 -0.3856
  727SOL    HW2 2907   2.812   0.329   1.866 -1.0497 -0.8463  0.1135
  727SOL     MW 2908   2.852   0.335   1.784 -0.1770 -0.2900  0.0400
  728SOL     OW 2909   2.834   1.144   2.878  0.1299  0.1760 -0.1701
  728SOL    HW1 2910   2.831   1.222   2.816 -0.8877 -1.7241 -1.1495
  728SOL    HW2 2911   2.827   1.169   2.968 -0.5051 -2.2382 -1.6386
  728SOL     MW 2912   2.833   1.157   2.882 -0.0881 -0.3933 -0.4931
  729SOL     OW 2913   2.447   1.467   1.154  0.6491  0.2879 -0.3784
  729SOL    HW1 2914   2.531   1.443   1.191 -0.1236  0.6533  0.4308
  729SOL    HW2 2915   2.460   1.451   1.059  2.3935 -2.3633 -0.2025
  729SOL     MW 2916   2.460   1.461   1.146  0.7773 -0.0137 -0.2484
  730SOL     OW 2917   2.283   1.196   0.285 -0.0215  0.1678  0.2002
  730SOL    HW1 2918   2.330   1.112   0.263  2.9972 -2.8927 -2.3102
  730SOL    HW2 2919   2.332   1.269   0.246 -2.2549  3.3108 -1.2422
  730SOL     MW 2920   2.296   1.194   0.277  0.0821  0.1787 -0.3214
  731SOL     OW 2921   2.798   2.065   2.893 -0.2019 -0.0156 -0.4314
  731SOL    HW1 2922   2.757   2.027   2.819 -1.9531 -0.1065 -0.2958
  731SOL    HW2 2923   2.891   2.067   2.866  1.6438 -0.4869 -1.1795
  731SOL     MW 2924   2.805   2.060   2.880 -0.1894 -0.0898 -0.5122
  732SOL     OW 2925   2.227   0.894   1.341  0.2728  0.3574  0.1765
  732SOL    HW1 2926   2.182   0.896   1.424  1.7492  0.2989 -0.2140
  732SOL    HW2 2927   2.323   0.925   1.355  3.1625  0.1731  1.1918
  732SOL     MW 2928   2.234   0.898   1.354  0.8488  0.3254  0.2589
  733SOL     OW 2929   2.415   2.822   3.005  0.5284 -0.1788  0.5994
  733SOL    HW1 2930   2.328   2.871   3.005  0.5777  1.0285 -3.0714
  733SOL    HW2 2931   2.384   2.728   3.009  1.7201 -0.0387  3.0305
  733SOL     MW 2932   2.399   2.816   3.006  0.6921 -0.0010  0.4359
  734SOL     OW 2933   1.489   0.305   2.513  0.3078  0.1702  0.9220
  734SOL    HW1 2934   1.461   0.252   2.589 -0.2532 -1.9541  1.6726
  734SOL    HW2 2935   1.526   0.250   2.448  1.1845 -0.7267  0.4185
  734SOL     MW 2936   1.490   0.291   2.515  0.3494 -0.2284  0.9546
  735SOL     OW 2937   2.925   0.896   2.608  0.4383  0.2753 -0.1515
  735SOL    HW1 2938   2.918   0.803   2.624  2.7304  1.4132  2.0620
  735SOL    HW2 2939   2.963   0.913   2.694 -0.4135 -0.9001 -0.5289
  735SOL     MW 2940   2.929   0.886   2.622  0.6283  0.2704  0.0908
  736SOL     OW 2941   0.084   0.610   2.542  0.0877  0.2308  0.2639
  736SOL    HW1 2942   0.097   0.694   2.499  0.4610  0.9420  2.1488
  736SOL    HW2 2943   0.084   0.547   2.467  0.0459  0.9771  1.8319
  736SOL     MW 2944   0.085   0.613   2.527  0.1314  0.4231  0.7195
  737SOL     OW 2945   2.927   0.605   2.659 -0.3368  0.4223  0.3825
  737SOL    HW1 2946   2.864   0.583   2.587  0.7252 -1.0648 -3.5344
  737SOL    HW2 2947   3.014   0.609   2.619 -0.6434  0.1962  0.1604
  737SOL     MW 2948   2.930   0.603   2.644 -0.2371  0.1963 -0.1636
  738SOL     OW 2949   0.203   0.589   1.934  0.0840  0.3873 -0.0724
  738SOL    HW1 2950   0.294   0.602   1.913  0.3222 -0.2824 -1.6038
  738SOL    HW2 2951   0.173   0.527   1.867 -1.4089 -0.3731  0.7141
  738SOL     MW 2952   0.211   0.582   1.922 -0.0816  0.1986 -0.1707
  739SOL     OW 2953   2.484   1.006   2.071  0.1962  0.4101 -0.1510
  739SOL    HW1 2954   2.472   0.917   2.035  0.5852 -2.4718  0.3005
  739SOL    HW2 2955   2.466   1.069   1.998 -0.7926  1.2445 -2.5522
  739SOL     MW 2956   2.480   1.003   2.057  0.1171  0.1399 -0.4083
  740SOL     OW 2957   0.185   1.744   2.914 -0.5448  0.3745  0.0021
  740SOL    HW1 2958   0.137   1.663   2.911 -0.6779 -1.4263  0.2319
  740SOL    HW2 2959   0.275   1.734   2.948  0.5437  2.8165 -2.0795
  740SOL     MW 2960   0.190   1.732   2.918 -0.4188  0.4591 -0.2423
  741SOL     OW 2961   2.179   1.229   2.683 -0.1529 -0.1535  0.4316
  741SOL    HW1 2962   2.158   1.303   2.619  0.8149 -2.3700 -1.1680
  741SOL    HW2 2963   2.140   1.240   2.768  0.4648 -0.3825  1.1378
  741SOL     MW 2964   2.171   1.240   2.686  0.0563 -0.4762  0.3137
  742SOL     OW 2965   1.661   1.242   2.222  0.4690  0.2961 -0.4974
  742SOL    HW1 2966   1.582   1.186   2.199 -0.1782 -0.4975 -1.6231
  742SOL    HW2 2967   1.668   1.221   2.316  2.2101 -0.4609 -0.1125
  742SOL     MW 2968   1.651   1.232   2.231  0.6134  0.0915 -0.5951
  743SOL     OW 2969   2.464   1.276   2.730  0.6157 -0.4862  0.0916
  743SOL    HW1 2970   2.378   1.268   2.686  1.5409 -1.7982  0.9646
  743SOL    HW2 2971   2.476   1.187   2.751  1.6496 -4.1824 -0.2194
  743SOL     MW 2972   2.454   1.264   2.727  0.8742 -1.1470  0.1658
  744SOL     OW 2973   2.744   0.934   1.874  0.4459 -0.0365 -0.4644
  744SOL    HW1 2974   2.680   1.005   1.870  4.0672  0.2102  0.2873
  744SOL    HW2 2975   2.730   0.912   1.781 -0.0132 -1.1347  0.1941
  744SOL     MW 2976   2.734   0.941   1.861  0.8631 -0.1489 -0.2783
  745SOL     OW 2977   1.749   0.408   2.515  0.0133  0.1279  0.2433
  745SOL    HW1 2978   1.705   0.448   2.438  0.8586 -0.2517  0.2409
  745SOL    HW2 2979   1.675   0.385   2.571  0.7970 -2.2237 -0.5402
  745SOL     MW 2980   1.734   0.410   2.512  0.2282 -0.2325  0.1396
  746SOL     OW 2981   1.595   1.482   1.659  0.2184  0.2794 -0.4022
  746SOL    HW1 2982   1.673   1.424   1.652 -0.8423 -3.9883  0.8085
  746SOL    HW2 2983   1.558   1.452   1.741  0.1532 -0.1893 -1.7359
  746SOL     MW 2984   1.600   1.470   1.669  0.0699 -0.3455 -0.4184
  747SOL     OW 2985   2.584   1.131   1.801  0.3435  0.0676  0.4841
  747SOL    HW1 2986   2.509   1.138   1.743  0.8677  2.1471 -3.6642
  747SOL    HW2 2987   2.584   1.214   1.857 -0.6858  0.8251  0.9735
  747SOL     MW 2988   2.574   1.143   1.801  0.2769  0.4419  0.0014
  748SOL     OW 2989   0.098   0.022   1.886 -0.4482 -0.3957  0.1646
  748SOL    HW1 2990   0.182   0.046   1.847  0.1461 -2.1537 -0.5617
  748SOL    HW2 2991   0.094   0.075   1.962  1.2614 -2.8793 -0.5579
  748SOL     MW 2992   0.108   0.033   1.891 -0.1442 -0.9554 -0.0266
  749SOL     OW 2993   2.506   0.576   2.719 -0.1969  1.0491 -0.0157
  749SOL    HW1 2994   2.522   0.651   2.660  1.0679  1.4942  0.1079
  749SOL    HW2 2995   2.508   0.628   2.804  1.5148 -0.0880  1.0964
  749SOL     MW 2996   2.508   0.592   2.722  0.1958  0.9578  0.1473
  750SOL     OW 2997   2.041   3.026   1.969 -0.0026  0.0142 -0.1692
  750SOL    HW1 2998   2.075   3.113   1.994  0.6896  0.8917  1.5323
  750SOL    HW2 2999   2.125   2.972   1.962  2.0247 -1.0989 -0.4253
  750SOL     MW 3000   2.056   3.030   1.971  0.3562 -0.0169  0.0215
  751SOL     OW 3001   0.046   0.433   2.356 -0.0451 -0.3106 -0.2097
  751SOL    HW1 3002   0.048   0.354   2.413 -0.7408 -1.6077  0.7487
  751SOL    HW2 3003   0.126   0.426   2.311 -2.8057 -1.2258 -1.2562
  751SOL     MW 3004   0.057   0.422   2.358 -0.5012 -0.6025 -0.2213
  752SOL     OW 3005   2.133   0.758   2.721 -0.2110 -0.1627  0.1709
  752SOL    HW1 3006   2.195   0.824   2.689  1.6053 -1.4564 -0.7932
  752SOL    HW2 3007   2.129   0.782   2.815  2.1965 -2.5855  0.7820
  752SOL     MW 3008   2.141   0.770   2.729  0.3463 -0.6531  0.1243
  753SOL     OW 3009   2.909   0.268   2.448 -0.0351 -0.4716  0.1230
  753SOL    HW1 3010   2.851   0.209   2.404 -1.6665 -1.5265 -3.0286
  753SOL    HW2 3011   2.882   0.359   2.436  1.2144 -2.9941 -0.0769
  753SOL     MW 3012   2.898   0.272   2.440 -0.0855 -0.9436 -0.3192
  754SOL     OW 3013   2.270   2.981   2.598  0.0765  0.6045  0.1150
  754SOL    HW1 3014   2.286   2.965   2.509  3.1840 -1.2882  1.3245
  754SOL    HW2 3015   2.344   2.924   2.634  3.4073 -0.9632 -1.1941
  754SOL     MW 3016   2.282   2.971   2.591  0.9260  0.1480  0.1019
  755SOL     OW 3017   2.725   1.528   2.479  0.0680 -0.3289 -0.4195
  755SOL    HW1 3018   2.699   1.444   2.510  0.6746 -1.4870 -1.8723
  755SOL    HW2 3019   2.793   1.566   2.543 -0.1136  1.0733 -1.9006
  755SOL     MW 3020   2.731   1.522   2.492  0.1241 -0.2967 -0.8066
  756SOL     OW 3021   2.214   1.188   3.006 -0.4845 -0.1242 -0.2439
  756SOL    HW1 3022   2.274   1.264   2.995 -0.5687 -0.6409 -1.9750
  756SOL    HW2 3023   2.265   1.104   3.005  1.4153 -0.5373  0.3443
  756SOL     MW 3024   2.228   1.187   3.004 -0.2449 -0.2469 -0.3947
  757SOL     OW 3025   2.116   0.944   1.587 -0.5053 -0.3553  0.3068
  757SOL    HW1 3026   2.144   0.852   1.601 -1.3432 -0.2479  0.2608
  757SOL    HW2 3027   2.026   0.926   1.551  0.6778  0.3326 -0.0481
  757SOL     MW 3028   2.108   0.929   1.584 -0.4597 -0.2504  0.2539
  758SOL     OW 3029   2.210   1.745   2.660  0.4635  1.2806 -0.0209
  758SOL    HW1 3030   2.168   1.757   2.577  0.7104 -2.9517  0.8780
  758SOL    HW2 3031   2.310   1.748   2.660 -2.8851 -0.3627  0.4121
  758SOL     MW 3032   2.218   1.747   2.649  0.0542  0.5054  0.1549
  759SOL     OW 3033   1.604   1.354   2.667 -0.7245 -0.2582  0.0657
  759SOL    HW1 3034   1.568   1.440   2.640 -0.3606  1.3081 -0.5164
  759SOL    HW2 3035   1.657   1.368   2.745 -0.3150 -1.0898  0.1176
  759SOL     MW 3036   1.606   1.367   2.673 -0.6224 -0.1613 -0.0043
  760SOL     OW 3037   2.610   1.983   2.711 -0.1765  0.2546 -0.1074
  760SOL    HW1 3038   2.567   1.899   2.702 -3.1531  0.9471 -1.2334
  760SOL    HW2 3039   2.571   2.033   2.636 -0.5933 -0.2683 -0.6541
  760SOL     MW 3040   2.599   1.978   2.700 -0.6242  0.2770 -0.3281
  761SOL     OW 3041   2.191   0.356   2.437 -0.1505  0.1788 -0.1159
  761SOL    HW1 3042   2.101   0.320   2.449  1.1650  1.7588 -0.3140
  761SOL    HW2 3043   2.215   0.388   2.523 -1.1139  0.7758 -1.2066
  761SOL     MW 3044   2.182   0.356   2.450 -0.1040  0.4660 -0.2859
  762SOL     OW 3045   0.067   0.180   2.112  0.7995  0.1900  0.6024
  762SOL    HW1 3046   0.018   0.123   2.169 -2.0085 -0.4144  1.7848
  762SOL    HW2 3047   0.023   0.262   2.110 -1.0005  1.4202  1.6398
  762SOL     MW 3048   0.054   0.183   2.120  0.1915  0.2725  0.8953
  763SOL     OW 3049   2.378   1.029   2.322 -0.2430 -0.5843  0.9390
  763SOL    HW1 3050   2.433   0.986   2.258 -0.4517 -0.7156  0.6080
  763SOL    HW2 3051   2.430   1.097   2.375 -0.3171 -0.6421  1.5299
  763SOL     MW 3052   2.392   1.032   2.320 -0.2803 -0.6092  0.9733
  764SOL     OW 3053   0.441   0.256   2.787  0.1550 -0.6342  0.2466
  764SOL    HW1 3054   0.370   0.198   2.789 -0.0562  0.0695  2.0616
  764SOL    HW2 3055   0.425   0.329   2.841  0.8213 -2.1880  1.2423
  764SOL     MW 3056   0.429   0.258   2.794  0.2150 -0.7464  0.6174
  765SOL     OW 3057   2.763   0.047   2.325  0.1017 -0.5092  0.1784
  765SOL    HW1 3058   2.708   0.035   2.239  0.1760  2.2802 -0.2530
  765SOL    HW2 3059   2.786  -0.042   2.353  1.5176  1.1069  0.8327
  765SOL     MW 3060   2.759   0.034   2.317  0.2983  0.0720  0.2078
  766SOL     OW 3061   1.849   2.983   2.148  0.7416  0.3751 -0.5473
  766SOL    HW1 3062   1.895   3.012   2.074 -2.1958 -1.0115 -1.8184
  766SOL    HW2 3063   1.813   2.895   2.120 -0.4042 -1.3749 -1.1429
  766SOL     MW 3064   1.850   2.975   2.135  0.2029 -0.0388 -0.7936
  767SOL     OW 3065   2.639   0.598   1.927 -0.5400 -0.4580  0.9937
  767SOL    HW1 3066   2.643   0.647   2.007 -0.3789  0.7860  0.3260
  767SOL    HW2 3067   2.544   0.580   1.924 -0.6860 -1.1112  0.4866
  767SOL     MW 3068   2.627   0.602   1.937 -0.5380 -0.3800  0.8387
  768SOL     OW 3069   0.007   1.554   2.946 -0.0400 -0.3578 -0.5839
  768SOL    HW1 3070   0.027   1.516   3.030  0.3283  1.0522  2.0038
  768SOL    HW2 3071   0.005   1.483   2.888 -0.9268  2.1201  1.3532
  768SOL     MW 3072   0.009   1.539   2.949 -0.1084  0.1552  0.0131
  769SOL     OW 3073   2.460   0.654   2.335  0.1254  0.4199  0.5700
  769SOL    HW1 3074   2.368   0.653   2.324 -1.0479  1.3261 -2.1381
  769SOL    HW2 3075   2.498   0.575   2.299  1.3965  3.0420  1.0383
  769SOL     MW 3076   2.453   0.643   2.329  0.1383  0.8855  0.2745
  770SOL     OW 3077   0.093   1.595   2.615 -0.4466  0.1426  0.0608
  770SOL    HW1 3078  -0.001   1.617   2.641  1.4032  1.7908 -1.4687
  770SOL    HW2 3079   0.099   1.511   2.654 -0.3456  0.8992  0.2349
  770SOL     MW 3080   0.082   1.587   2.623 -0.1892  0.4599 -0.1181
  771SOL     OW 3081   3.048   0.650   1.993  0.5565  0.1780  0.5341
  771SOL    HW1 3082   3.005   0.655   1.912  0.2421  0.6117  2.7592
  771SOL    HW2 3083   3.141   0.643   1.966 -1.5977  0.3649  1.2434
  771SOL     MW 3084   3.055   0.650   1.979  0.2308  0.2599  0.9212
  772SOL     OW 3085   3.087   0.020   2.339  0.3455  0.3390  0.0106
  772SOL    HW1 3086   3.003  -0.022   2.347  1.8265 -0.8738 -0.1607
  772SOL    HW2 3087   3.141  -0.049   2.303 -1.3022  2.1304 -0.4642
  772SOL     MW 3088   3.083   0.005   2.335  0.3235  0.4154 -0.0746
  773SOL     OW 3089   2.468   2.847   2.731 -0.2047 -0.1338 -0.5629
  773SOL    HW1 3090   2.483   2.768   2.683 -2.4847  1.6052 -0.7182
  773SOL    HW2 3091   2.437   2.828   2.822 -0.5033  0.1537 -0.1010
  773SOL     MW 3092   2.466   2.834   2.737 -0.5450  0.1336 -0.5224
  774SOL     OW 3093   2.307   1.130   1.711 -0.2323 -0.6058  0.3475
  774SOL    HW1 3094   2.317   1.215   1.659 -3.0409  1.5763  0.2845
  774SOL    HW2 3095   2.256   1.072   1.664  0.3937  0.5473  3.7011
  774SOL     MW 3096   2.302   1.134   1.698 -0.5203 -0.1658  0.7817
  775SOL     OW 3097   2.271   2.895   2.314 -0.0434 -0.1676  0.2633
  775SOL    HW1 3098   2.285   2.975   2.262 -2.3849 -0.4297 -1.5666
  775SOL    HW2 3099   2.348   2.836   2.301 -1.2271 -1.8734  0.2658
  775SOL     MW 3100   2.283   2.898   2.306 -0.5085 -0.4272  0.0222
  776SOL     OW 3101   0.109   1.470   0.102  0.3497 -0.3861  0.3103
  776SOL    HW1 3102   0.194   1.438   0.076 -5.8306  2.1591 -0.6705
  776SOL    HW2 3103   0.048   1.398   0.123  0.4631 -0.5921 -0.7563
  776SOL     MW 3104   0.112   1.457   0.101 -0.4508 -0.0775  0.0401
  777SOL     OW 3105   2.948   1.104   1.773 -0.3624  0.9631 -0.0650
  777SOL    HW1 3106   2.905   1.153   1.706 -1.8447 -0.4845 -0.9248
  777SOL    HW2 3107   2.877   1.056   1.821 -1.5087 -1.9364  0.6808
  777SOL     MW 3108   2.933   1.104   1.771 -0.7092  0.3895 -0.0800
  778SOL     OW 3109   2.887   0.412   2.840 -0.3701  0.2613 -0.0346
  778SOL    HW1 3110   2.817   0.447   2.900  0.7519 -0.8137 -1.7686
  778SOL    HW2 3111   2.893   0.481   2.767 -1.8084  0.3320 -1.1565
  778SOL     MW 3112   2.879   0.426   2.838 -0.4118  0.1288 -0.4114
  779SOL     OW 3113   2.152   0.620   2.344 -0.2520 -0.1253  0.0976
  779SOL    HW1 3114   2.059   0.624   2.341  6.2025  0.3772 -0.5538
  779SOL    HW2 3115   2.168   0.531   2.366  1.1490  1.1539  0.6819
  779SOL     MW 3116   2.142   0.609   2.346  0.7844  0.1098  0.0887
  780SOL     OW 3117   0.237   0.085   2.756  0.0151  0.4164 -0.6739
  780SOL    HW1 3118   0.178   0.137   2.811 -0.4143 -0.5489 -0.7933
  780SOL    HW2 3119   0.212   0.107   2.669 -0.6124 -2.3823 -1.5694
  780SOL     MW 3120   0.226   0.095   2.752 -0.1244 -0.0802 -0.8078
  781SOL     OW 3121   3.044   1.288   2.492  0.3920 -0.1579  0.4066
  781SOL    HW1 3122   3.011   1.329   2.412 -0.0882  0.5040 -0.4364
  781SOL    HW2 3123   3.079   1.202   2.467  1.5234  0.0297 -2.5016
  781SOL     MW 3124   3.045   1.282   2.478  0.4779 -0.0458 -0.0883
  782SOL     OW 3125   0.556   1.506   3.052 -0.5415 -0.5658 -0.1411
  782SOL    HW1 3126   0.530   1.597   3.034  0.5392  1.0435 -1.0616
  782SOL    HW2 3127   0.541   1.503   3.142 -3.3080  2.2473 -1.5503
  782SOL     MW 3128   0.551   1.517   3.061 -0.7640  0.0177 -0.4485
  783SOL     OW 3129   2.780   0.492   2.449  0.3093  0.0411  0.0670
  783SOL    HW1 3130   2.718   0.489   2.374  1.1821 -0.2988  0.0935
  783SOL    HW2 3131   2.730   0.468   2.527 -1.2188 -0.2745 -0.9416
  783SOL     MW 3132   2.765   0.488   2.449  0.2229 -0.0454 -0.0626
  784SOL     OW 3133   0.295   0.938   2.878 -0.5103 -0.1394 -0.0535
  784SOL    HW1 3134   0.236   0.986   2.931  2.2556  3.2797  3.2594
  784SOL    HW2 3135   0.276   0.977   2.785 -0.8588  0.7769 -0.6305
  784SOL     MW 3136   0.285   0.950   2.873 -0.1914  0.4326  0.3075
  785SOL     OW 3137   0.443   0.546   2.177  0.0842 -0.6315 -0.4427
  785SOL    HW1 3138   0.438   0.578   2.080 -0.0998  0.1893  0.8974
  785SOL    HW2 3139   0.380   0.470   2.189  0.1032  0.0227  3.7953
  785SOL     MW 3140   0.434   0.541   2.166  0.0624 -0.4369  0.2933
  786SOL     OW 3141   1.995   0.471   2.810 -0.0458  0.0938 -0.5144
  786SOL    HW1 3142   2.019   0.496   2.893  0.2601  3.0767 -1.5691
  786SOL    HW2 3143   2.087   0.464   2.768  5.0538 -0.5464 -0.1683
  786SOL     MW 3144   2.010   0.474   2.815  0.6674  0.4029 -0.6079
  787SOL     OW 3145   2.435   0.131   2.950 -0.1325 -0.3180  0.4851
  787SOL    HW1 3146   2.508   0.098   2.894  0.6489  0.1619 -0.8228
  787SOL    HW2 3147   2.475   0.208   2.996  3.4544  0.8930 -1.1368
  787SOL     MW 3148   2.450   0.137   2.949  0.4439 -0.0949  0.0986
  788SOL     OW 3149   2.858   2.890   2.360  0.0640 -0.9239 -0.2847
  788SOL    HW1 3150   2.820   2.835   2.297 -0.5294  3.9677  0.0219
  788SOL    HW2 3151   2.930   2.843   2.402 -2.9484  0.1850 -1.4946
  788SOL     MW 3152   2.862   2.877   2.357 -0.4117 -0.1322 -0.4038
  789SOL     OW 3153   0.100   0.276   2.948 -0.5046 -0.2757 -0.0337
  789SOL    HW1 3154   0.027   0.243   2.996  0.8749  1.5873 -1.4753
  789SOL    HW2 3155   0.070   0.368   2.951  1.8221 -1.4480 -0.7814
  789SOL     MW 3156   0.086   0.284   2.955 -0.0156 -0.1846 -0.3226
  790SOL     OW 3157   3.073   1.032   2.427 -0.1439 -0.1351  0.3358
  790SOL    HW1 3158   3.046   0.983   2.513  2.4060 -0.1094  1.8205
  790SOL    HW2 3159   2.991   1.034   2.380  3.0304  1.9772  0.8162
  790SOL     MW 3160   3.058   1.026   2.432  0.6114  0.1470  0.5951
  791SOL     OW 3161   2.653   0.366   2.691 -0.0405  0.0542  0.1060
  791SOL    HW1 3162   2.584   0.432   2.707 -1.2837 -0.3754 -0.1722
  791SOL    HW2 3163   2.731   0.376   2.745  0.0794  0.4043 -0.6887
  791SOL     MW 3164   2.654   0.376   2.700 -0.1887  0.0437 -0.0355
  792SOL     OW 3165   2.418   0.232   2.358  0.6262 -0.2731  0.2630
  792SOL    HW1 3166   2.333   0.248   2.396  2.0613  1.9499 -0.0990
  792SOL    HW2 3167   2.474   0.170   2.410  2.3260 -3.2887  1.5674
  792SOL     MW 3168   2.414   0.226   2.370  1.0398 -0.3777  0.3873
  793SOL     OW 3169   1.811   1.055   1.939 -0.5694 -0.0897  0.3173
  793SOL    HW1 3170   1.747   1.097   1.875 -0.2431 -1.5726 -0.2855
  793SOL    HW2 3171   1.872   1.017   1.884  0.8198 -1.6439  2.9619
  793SOL     MW 3172   1.810   1.056   1.923 -0.3430 -0.4904  0.5867
  794SOL     OW 3173   1.477   2.258   0.136  0.1788  0.6349 -0.6315
  794SOL    HW1 3174   1.504   2.328   0.071  0.3299 -1.4662 -1.5106
  794SOL    HW2 3175   1.520   2.278   0.224  0.5684 -0.1754  0.4098
  794SOL     MW 3176   1.486   2.270   0.139  0.2502  0.2508 -0.6101
  795SOL     OW 3177   2.305   0.949   2.610 -0.4667  0.1315  0.0149
  795SOL    HW1 3178   2.260   1.020   2.652  0.3104  1.2435  1.0409
  795SOL    HW2 3179   2.286   0.945   2.513 -0.7431  0.9038 -1.6561
  795SOL     MW 3180   2.297   0.958   2.602 -0.4006  0.3801 -0.0702
  796SOL     OW 3181   0.252   0.647   2.770  0.1575 -0.0342 -0.2085
  796SOL    HW1 3182   0.250   0.743   2.778  0.9240  0.8226 -1.1663
  796SOL    HW2 3183   0.191   0.633   2.695  0.2425  1.8449  0.5851
  796SOL     MW 3184   0.243   0.658   2.761  0.2698  0.3268 -0.2302
  797SOL     OW 3185   2.604   0.128   2.534 -0.0793  0.2328  0.3081
  797SOL    HW1 3186   2.624   0.201   2.583  0.1513  0.9883  1.3127
  797SOL    HW2 3187   2.674   0.107   2.471 -1.2924 -0.9226  2.1658
  797SOL     MW 3188   2.616   0.135   2.532 -0.2089  0.1800  0.6857
  798SOL     OW 3189   2.355   0.014   2.185 -0.2525  0.1373  0.1688
  798SOL    HW1 3190   2.365   0.087   2.243 -2.1155 -1.8253  0.4613
  798SOL    HW2 3191   2.448   0.014   2.161  0.6754  0.3178 -1.7517
  798SOL     MW 3192   2.369   0.024   2.190 -0.3759 -0.0979 -0.0460
  799SOL     OW 3193   2.453   2.938   0.177 -0.1792 -0.0878  0.1919
  799SOL    HW1 3194   2.463   2.894   0.093  4.0760  0.7914 -0.9272
  799SOL    HW2 3195   2.411   3.019   0.160  0.8954  1.2048  1.1168
  799SOL     MW 3196   2.449   2.943   0.164  0.5240  0.1987  0.1663
  800SOL     OW 3197   1.851   3.069   1.798  0.1684 -0.2548 -0.1620
  800SOL    HW1 3198   1.808   2.984   1.781  0.7643 -1.7927  1.7784
  800SOL    HW2 3199   1.930   3.051   1.855  0.0532 -0.1755  0.4648
  800SOL     MW 3200   1.855   3.055   1.804  0.2318 -0.4472  0.1767
  801SOL     OW 3201   2.800   1.269   2.638  0.5071  0.3292 -0.2651
  801SOL    HW1 3202   2.752   1.196   2.595  1.5280  1.2118 -0.3699
  801SOL    HW2 3203   2.887   1.275   2.590 -2.1596  0.0262  0.5620
  801SOL     MW 3204   2.805   1.260   2.626  0.2900  0.4057 -0.1698
  802SOL     OW 3205   2.556   1.532   2.811  0.1213 -0.1354  0.2867
  802SOL    HW1 3206   2.563   1.440   2.777  0.7176 -1.4781 -1.3215
  802SOL    HW2 3207   2.641   1.541   2.863 -1.9924 -2.5260 -0.7310
  802SOL     MW 3208   2.568   1.521   2.814 -0.0789 -0.6280 -0.0598
  803SOL     OW 3209   2.325   1.288   1.973  0.1473 -0.6521 -0.3075
  803SOL    HW1 3210   2.270   1.262   2.044  2.1763 -2.9810 -0.2172
  803SOL    HW2 3211   2.301   1.232   1.901 -1.5057  2.6844 -1.3342
  803SOL     MW 3212   2.315   1.277   1.972  0.1969 -0.5192 -0.4310
  804SOL     OW 3213   2.296   0.078   0.062 -0.4190  0.5124 -0.4091
  804SOL    HW1 3214   2.218   0.138   0.064  0.0680  1.1062 -1.5435
  804SOL    HW2 3215   2.357   0.086  -0.017 -2.1971  1.0522 -0.3482
  804SOL     MW 3216   2.294   0.087   0.052 -0.5893  0.6619 -0.5507
  805SOL     OW 3217   2.671   1.038   2.550 -0.6469 -0.7256  0.4215
  805SOL    HW1 3218   2.613   0.962   2.551 -0.7326  0.0787 -0.4974
  805SOL    HW2 3219   2.762   1.010   2.528 -0.9369  0.0322  1.5582
  805SOL     MW 3220   2.676   1.025   2.547 -0.6965 -0.5195  0.4502
  806SOL     OW 3221   2.578   0.434   2.253  0.4877  0.2318  0.3207
  806SOL    HW1 3222   2.502   0.380   2.291  2.1394 -0.3459  0.9927
  806SOL    HW2 3223   2.608   0.382   2.175  0.1446  1.0289  0.3280
  806SOL     MW 3224   2.572   0.420   2.248  0.6603  0.2607  0.4103
  807SOL     OW 3225   3.096   1.102   2.107  0.1737 -0.2855  0.1147
  807SOL    HW1 3226   3.145   1.028   2.077 -0.3902 -1.2543  2.4528
  807SOL    HW2 3227   3.018   1.068   2.162  0.5648 -1.5993 -1.9817
  807SOL     MW 3228   3.092   1.088   2.110  0.1509 -0.5867  0.1466
  808SOL     OW 3229   2.592   3.073   2.783  0.8627 -0.2801 -0.5048
  808SOL    HW1 3230   2.569   2.981   2.765 -0.3617  1.5691  2.5371
  808SOL    HW2 3231   2.590   3.117   2.702  0.1733  0.6062 -0.8834
  808SOL     MW 3232   2.589   3.067   2.770  0.6102  0.0808 -0.1534
  809SOL     OW 3233   2.542   1.224   2.402  0.2156  0.3388  0.2361
  809SOL    HW1 3234   2.591   1.183   2.466 -0.7843  0.6970 -2.8966
  809SOL    HW2 3235   2.605   1.242   2.330 -0.6273 -2.0616 -1.4479
  809SOL     MW 3236   2.557   1.221   2.401 -0.0275  0.0694 -0.3994
  810SOL     OW 3237   2.197   1.246   2.195 -0.4333 -0.6362 -0.0278
  810SOL    HW1 3238   2.247   1.175   2.235  0.2441  0.2466 -1.0428
  810SOL    HW2 3239   2.104   1.218   2.188  2.0770  2.1616  0.3799
  810SOL     MW 3240   2.191   1.233   2.200 -0.0127 -0.1506 -0.1079
  811SOL     OW 3241   1.542   0.073   2.288  0.6861 -0.0797 -0.2684
  811SOL    HW1 3242   1.615   0.029   2.343  2.7302 -3.3246  3.6480
  811SOL    HW2 3243   1.575   0.077   2.194 -1.1934  1.0218 -1.4850
  811SOL     MW 3244   1.556   0.067   2.283  0.7078 -0.3625  0.0878
  812SOL     OW 3245   1.447   2.787   2.046 -0.4916  0.3577 -0.0646
  812SOL    HW1 3246   1.544   2.766   2.058  0.9509 -1.4904 -3.2878
  812SOL    HW2 3247   1.419   2.800   2.137  1.0137  0.6830 -0.5428
  812SOL     MW 3248   1.456   2.786   2.059 -0.1026  0.1568 -0.5530
  813SOL     OW 3249   1.794   0.724   2.210  0.0201  0.6427  0.0294
  813SOL    HW1 3250   1.736   0.641   2.216  0.8537  0.0222 -2.4108
  813SOL    HW2 3251   1.835   0.733   2.298  4.3500  0.7113 -2.7997
  813SOL     MW 3252   1.791   0.714   2.223  0.7014  0.5699 -0.6658
  814SOL     OW 3253   2.751   1.260   1.622  0.0464  0.0199 -0.0126
  814SOL    HW1 3254   2.686   1.225   1.688 -2.9619  1.3548 -2.8687
  814SOL    HW2 3255   2.758   1.205   1.545  1.2885 -2.2544  0.1004
  814SOL     MW 3256   2.743   1.248   1.620 -0.1867 -0.1040 -0.3745
  815SOL     OW 3257   2.502   1.651   2.401 -0.5931  0.0212 -0.0241
  815SOL    HW1 3258   2.456   1.580   2.364  4.3080 -0.9599  0.9529
  815SOL    HW2 3259   2.595   1.625   2.417  0.6343 -0.7600  1.2121
  815SOL     MW 3260   2.508   1.638   2.398  0.2155 -0.2113  0.2679
  816SOL     OW 3261   0.753   0.665   2.732 -0.0466  0.6633 -0.2657
  816SOL    HW1 3262   0.744   0.621   2.815 -1.5356 -2.2813  0.0602
  816SOL    HW2 3263   0.665   0.658   2.691 -1.4327 -0.7487  1.5302
  816SOL     MW 3264   0.740   0.658   2.737 -0.4259  0.0885  0.0143
  817SOL     OW 3265   3.053   1.153   1.373 -0.0492 -0.1660  0.1315
  817SOL    HW1 3266   3.103   1.177   1.451 -1.0188  0.9610 -2.1381
  817SOL    HW2 3267   3.027   1.242   1.348  1.8061 -1.2963  1.0157
  817SOL     MW 3268   3.056   1.168   1.380  0.0677 -0.1664 -0.0513
  818SOL     OW 3269   1.906   1.037   2.718 -0.3425  0.0323 -0.1358
  818SOL    HW1 3270   1.932   1.044   2.626  1.1391 -0.6946  0.0769
  818SOL    HW2 3271   1.882   0.949   2.726  0.5446  1.7555 -0.5301
  818SOL     MW 3272   1.906   1.026   2.707 -0.0300  0.1637 -0.1598
  819SOL     OW 3273   1.941   0.223   2.443 -1.3544 -0.5876 -0.6777
  819SOL    HW1 3274   1.880   0.297   2.446  1.9281 -0.8061 -4.9487
  819SOL    HW2 3275   1.956   0.198   2.538  0.3358 -0.3634  0.1617
  819SOL     MW 3276   1.935   0.229   2.456 -0.6983 -0.5868 -1.1305
  820SOL     OW 3277   2.485   1.752   2.656 -0.0626  0.1051 -0.0059
  820SOL    HW1 3278   2.513   1.672   2.699  1.0699 -0.1918 -0.4792
  820SOL    HW2 3279   2.491   1.735   2.564  1.0865 -2.9305  3.5087
  820SOL     MW 3280   2.490   1.739   2.649  0.2384 -0.3346  0.3954
  821SOL     OW 3281   2.593   1.352   1.949 -0.2002  0.0649 -0.8615
  821SOL    HW1 3282   2.627   1.439   1.920 -0.7188  0.3862  1.7938
  821SOL    HW2 3283   2.503   1.374   1.973  0.1520 -0.4402 -0.7003
  821SOL     MW 3284   2.586   1.366   1.948 -0.2221  0.0406 -0.4899
  822SOL     OW 3285   2.849   2.697   1.454  0.1412  0.4091 -0.0530
  822SOL    HW1 3286   2.801   2.712   1.531 -0.2725  0.9546  0.0990
  822SOL    HW2 3287   2.794   2.734   1.385 -1.0942 -0.0481 -1.3855
  822SOL     MW 3288   2.835   2.704   1.455 -0.0764  0.4208 -0.2087
  823SOL     OW 3289   2.273   0.459   1.802 -0.0785 -0.2190 -0.7674
  823SOL    HW1 3290   2.352   0.425   1.747  1.5603  1.8675 -2.8636
  823SOL    HW2 3291   2.194   0.406   1.766 -1.5933  4.2839 -0.8804
  823SOL     MW 3292   2.273   0.448   1.790 -0.0621  0.6504 -1.0589
  824SOL     OW 3293   2.089   1.398   2.515 -0.4831  0.2504 -0.1747
  824SOL    HW1 3294   2.166   1.438   2.482  2.0669  1.6937  3.3761
  824SOL    HW2 3295   2.066   1.467   2.580  0.1717  0.9848  0.2636
  824SOL     MW 3296   2.096   1.413   2.519 -0.0603  0.5377  0.3516
  825SOL     OW 3297   2.099   2.547   0.367  0.5448  0.1497  0.2728
  825SOL    HW1 3298   2.034   2.482   0.382  1.1816 -2.3613 -0.4745
  825SOL    HW2 3299   2.181   2.493   0.379 -0.6775 -1.3783  1.4915
  825SOL     MW 3300   2.102   2.531   0.371  0.4676 -0.3832  0.3350
  826SOL     OW 3301   1.830   2.389   0.469 -0.9229 -0.0280 -0.0995
  826SOL    HW1 3302   1.828   2.314   0.530  0.3307  1.4843  0.5345
  826SOL    HW2 3303   1.857   2.470   0.513 -2.2918 -2.8594 -0.5274
  826SOL     MW 3304   1.834   2.390   0.483 -0.9381 -0.2021 -0.0723
  827SOL     OW 3305   1.960   2.184   0.848 -0.3545  0.7655  0.6841
  827SOL    HW1 3306   1.893   2.183   0.777  0.9955  1.3803  0.8211
  827SOL    HW2 3307   1.930   2.115   0.911 -2.0704  0.6767 -3.1525
  827SOL     MW 3308   1.947   2.175   0.847 -0.4028  0.8349  0.1959
  828SOL     OW 3309   0.069   2.602   0.513  0.7128 -0.3720  0.2624
  828SOL    HW1 3310   0.160   2.621   0.522  2.5544 -1.4655 -1.4248
  828SOL    HW2 3311   0.039   2.670   0.453  0.0888 -1.0611  1.3960
  828SOL     MW 3312   0.077   2.614   0.507  0.8734 -0.6072  0.1894
  829SOL     OW 3313   3.003   2.910   1.210 -0.1010 -0.5233  0.1837
  829SOL    HW1 3314   2.936   2.892   1.149 -0.5126 -0.0567 -1.0906
  829SOL    HW2 3315   3.062   2.831   1.203  1.7104 -0.6273 -0.5982
  829SOL     MW 3316   3.002   2.897   1.201  0.0836 -0.4755 -0.0876
  830SOL     OW 3317   2.523   2.837   2.030  0.9296 -0.7808  0.0200
  830SOL    HW1 3318   2.430   2.866   2.010 -2.5696  1.3427  1.9848
  830SOL    HW2 3319   2.556   2.824   1.942 -3.2088  0.5709  0.8279
  830SOL     MW 3320   2.515   2.839   2.015 -0.0781 -0.3223  0.3858
  831SOL     OW 3321   2.440   2.436   1.220  0.7635 -0.1682 -0.0979
  831SOL    HW1 3322   2.398   2.376   1.280 -1.9292  0.1830 -3.8048
  831SOL    HW2 3323   2.525   2.393   1.203  3.5295  0.0066 -1.7215
  831SOL     MW 3324   2.446   2.423   1.226  0.7731 -0.0988 -0.8012
  832SOL     OW 3325   2.396   2.123   1.791  0.2873 -0.3488  0.0769
  832SOL    HW1 3326   2.406   2.218   1.818  0.6081  0.5580  0.2062
  832SOL    HW2 3327   2.482   2.098   1.760 -2.4682 -0.2465  1.1169
  832SOL     MW 3328   2.409   2.132   1.791 -0.0339 -0.2156  0.2312
  833SOL     OW 3329   1.768   2.526   0.925  0.1276  0.4414 -0.0552
  833SOL    HW1 3330   1.684   2.484   0.948 -3.6497 -4.7122 -1.1510
  833SOL    HW2 3331   1.769   2.597   0.994  0.4775  4.6065 -0.1173
  833SOL     MW 3332   1.757   2.530   0.937 -0.3246  0.3110 -0.2079
  834SOL     OW 3333   2.264   2.371   0.587  0.5994 -1.0714  0.1470
  834SOL    HW1 3334   2.272   2.289   0.633  1.4195  1.5444  0.8583
  834SOL    HW2 3335   2.331   2.361   0.524 -0.7997  1.2507  3.5723
  834SOL     MW 3336   2.274   2.359   0.585  0.5230 -0.4199  0.6928
  835SOL     OW 3337   1.830   2.590   0.674  0.7080  0.1929  0.2548
  835SOL    HW1 3338   1.795   2.576   0.765 -0.5943  1.2876  0.5543
  835SOL    HW2 3339   1.908   2.636   0.692  0.7340 -1.5180 -1.6105
  835SOL     MW 3340   1.835   2.594   0.688  0.5396  0.1116  0.0482
  836SOL     OW 3341   2.062   2.207   1.623  0.3625 -0.0605  0.0074
  836SOL    HW1 3342   2.134   2.141   1.605 -0.6762 -1.9629 -0.2971
  836SOL    HW2 3343   2.105   2.294   1.625 -0.2091 -0.1111  0.2833
  836SOL     MW 3344   2.078   2.210   1.621  0.1500 -0.3182  0.0036
  837SOL     OW 3345   2.060   0.167   0.700  0.2721  0.4921 -0.2196
  837SOL    HW1 3346   1.973   0.175   0.660  3.5764 -0.1049  0.3770
  837SOL    HW2 3347   2.116   0.158   0.622 -0.5591  0.8623  2.0556
  837SOL     MW 3348   2.056   0.167   0.684  0.5984  0.4622  0.1593
  838SOL     OW 3349   2.865   2.067   0.959 -0.2031  0.2661  0.1264
  838SOL    HW1 3350   2.795   2.006   0.967  0.4559  1.3147 -1.6638
  838SOL    HW2 3351   2.928   2.042   1.025 -0.7081  0.4866  2.4671
  838SOL     MW 3352   2.864   2.056   0.969 -0.1828  0.4335  0.1990
  839SOL     OW 3353   1.528   2.393   0.958 -0.2546 -0.1681  0.2524
  839SOL    HW1 3354   1.499   2.459   1.016  2.3307 -1.5939  2.9774
  839SOL    HW2 3355   1.560   2.318   1.007  1.4283  0.8668  0.2474
  839SOL     MW 3356   1.529   2.392   0.972  0.3085 -0.2197  0.6113
  840SOL     OW 3357   2.269   2.122   2.437  0.2827  0.2526  0.1407
  840SOL    HW1 3358   2.235   2.190   2.366 -2.1620  3.4771 -0.1456
  840SOL    HW2 3359   2.359   2.147   2.459  1.8074  2.2636  0.6826
  840SOL     MW 3360   2.276   2.135   2.431  0.1613  0.9434  0.1745
  841SOL     OW 3361   2.277   2.424   0.062 -0.0505 -0.1521 -0.3261
  841SOL    HW1 3362   2.288   2.478  -0.012 -0.7674 -0.8265  1.7060
  841SOL    HW2 3363   2.196   2.382   0.044  0.2439 -1.1247  0.1716
  841SOL     MW 3364   2.268   2.426   0.050 -0.1062 -0.3694  0.0077
  842SOL     OW 3365   2.662   1.995   1.457  0.0972 -0.5604 -0.8875
  842SOL    HW1 3366   2.606   1.919   1.453 -0.2206 -2.0978  1.9181
  842SOL    HW2 3367   2.654   2.044   1.382 -0.5953  1.4145  0.1349
  842SOL     MW 3368   2.654   1.991   1.447 -0.0361 -0.5027 -0.3824
  843SOL     OW 3369   2.640   2.776   1.786  0.7046 -0.3402 -0.1647
  843SOL    HW1 3370   2.729   2.739   1.799  0.8857 -0.5623  2.0198
  843SOL    HW2 3371   2.581   2.701   1.761  1.0621 -2.6105 -0.9834
  843SOL     MW 3372   2.644   2.761   1.784  0.7756 -0.6691  0.0155
  844SOL     OW 3373   2.697   2.344   1.175  0.5297 -0.1081 -0.1819
  844SOL    HW1 3374   2.727   2.362   1.087  2.0660  0.6920  0.5274
  844SOL    HW2 3375   2.769   2.372   1.235 -2.4543 -2.1240 -0.6660
  844SOL     MW 3376   2.710   2.350   1.171  0.3387 -0.2685 -0.1522
  845SOL     OW 3377   2.850   2.597   0.344 -0.5435 -0.1149 -0.5849
  845SOL    HW1 3378   2.822   2.510   0.358  1.2850  2.8498 -0.1499
  845SOL    HW2 3379   2.847   2.637   0.430 -1.2389  2.4402 -0.4767
  845SOL     MW 3380   2.846   2.591   0.357 -0.3940  0.6134 -0.5132
  846SOL     OW 3381   1.520   2.807   0.839  0.3165 -0.1284  0.1264
  846SOL    HW1 3382   1.601   2.853   0.811  2.4340 -0.3026 -0.5776
  846SOL    HW2 3383   1.453   2.872   0.810 -0.6404  2.3099  3.5630
  846SOL     MW 3384   1.522   2.821   0.831  0.4697  0.1703  0.4870
  847SOL     OW 3385   2.472   1.898   0.170  0.3674 -0.5462 -0.8082
  847SOL    HW1 3386   2.473   1.819   0.230  0.3919  0.9671 -1.7975
  847SOL    HW2 3387   2.480   1.870   0.076  1.4200  0.0031 -0.3289
  847SOL     MW 3388   2.473   1.884   0.165  0.5095 -0.2741 -0.8755
  848SOL     OW 3389   2.543   2.107   1.178  0.0131  0.4037  0.5720
  848SOL    HW1 3390   2.613   2.173   1.163  1.1141  0.0949  0.1635
  848SOL    HW2 3391   2.506   2.102   1.088 -0.0294  0.3867  0.7370
  848SOL     MW 3392   2.547   2.115   1.164  0.1527  0.3607  0.5399
  849SOL     OW 3393   2.041   2.784   0.802 -0.3643 -0.9430 -0.0127
  849SOL    HW1 3394   2.021   2.725   0.873 -2.0362 -2.4438 -0.8759
  849SOL    HW2 3395   2.136   2.768   0.781 -0.8494  0.0434  1.7588
  849SOL     MW 3396   2.051   2.774   0.809 -0.6489 -1.0108  0.1071
  850SOL     OW 3397   2.302   1.797   1.635  0.9838 -0.1402  0.3593
  850SOL    HW1 3398   2.236   1.749   1.589  0.3050 -1.9699 -1.2759
  850SOL    HW2 3399   2.274   1.893   1.631 -0.5241 -0.3220  1.0189
  850SOL     MW 3400   2.289   1.803   1.628  0.6953 -0.4056  0.2306
  851SOL     OW 3401   2.371   2.352   0.296 -0.1242 -0.0979  0.7250
  851SOL    HW1 3402   2.350   2.383   0.206  3.2463  0.0444 -0.2335
  851SOL    HW2 3403   2.447   2.402   0.325 -2.2752  0.9130  0.5464
  851SOL     MW 3404   2.378   2.363   0.288  0.0367  0.0542  0.5750
  852SOL     OW 3405   2.337   2.082   0.323 -0.3212  0.1906 -0.1917
  852SOL    HW1 3406   2.366   2.169   0.298 -1.2304  0.1448 -2.0486
  852SOL    HW2 3407   2.389   2.034   0.256 -0.7575  0.1890  1.2047
  852SOL     MW 3408   2.347   2.087   0.311 -0.4987  0.1843 -0.2525
  853SOL     OW 3409   2.462   2.355   1.893  0.2227 -0.1213  0.4385
  853SOL    HW1 3410   2.477   2.421   1.827 -1.6461 -2.8888  0.4722
  853SOL    HW2 3411   2.541   2.363   1.946 -1.7287 -0.1365  0.3854
  853SOL     MW 3412   2.475   2.365   1.892 -0.2813 -0.4884  0.4359
  854SOL     OW 3413   2.851   2.232   0.728  0.1391 -0.0688  0.0665
  854SOL    HW1 3414   2.761   2.212   0.696  0.0318 -0.9347  0.4764
  854SOL    HW2 3415   2.863   2.178   0.811  3.3816  0.9616 -0.3343
  854SOL     MW 3416   2.841   2.222   0.735  0.5527 -0.0471  0.0677
  855SOL     OW 3417   2.711   2.361   0.360  0.5164  0.1068  0.2256
  855SOL    HW1 3418   2.636   2.380   0.424  1.1905  0.6349  0.8203
  855SOL    HW2 3419   2.726   2.267   0.360 -0.7162  0.9023  0.3348
  855SOL     MW 3420   2.703   2.351   0.369  0.4427  0.2814  0.3185
  856SOL     OW 3421   2.133   1.893   0.232 -0.7756 -0.2000 -0.8563
  856SOL    HW1 3422   2.038   1.878   0.249  0.3580 -3.6453 -0.2053
  856SOL    HW2 3423   2.160   1.984   0.244 -0.1275 -0.3103  1.4990
  856SOL     MW 3424   2.124   1.903   0.236 -0.5405 -0.6691 -0.4597
  857SOL     OW 3425   2.479   1.955   0.537  0.3227 -0.1061  0.6116
  857SOL    HW1 3426   2.427   1.989   0.462  2.0268  0.6746 -2.0160
  857SOL    HW2 3427   2.410   1.920   0.595  1.2254 -1.8216 -0.9454
  857SOL     MW 3428   2.463   1.955   0.535  0.6666 -0.2295  0.0595
  858SOL     OW 3429   2.902   2.661   1.791 -0.5651 -0.2853 -0.0206
  858SOL    HW1 3430   2.992   2.674   1.755 -1.7609 -0.5332  0.2389
  858SOL    HW2 3431   2.892   2.564   1.805  1.7528 -1.2268  0.8150
  858SOL     MW 3432   2.913   2.650   1.788 -0.4170 -0.4422  0.1239
  859SOL     OW 3433   2.012   2.672   1.070 -1.7790  1.2632  0.0818
  859SOL    HW1 3434   2.037   2.577   1.073 -0.0191 -0.0745 -0.6999
  859SOL    HW2 3435   2.093   2.727   1.090  0.4682 -1.0604  0.9486
  859SOL     MW 3436   2.026   2.667   1.073 -1.2503  0.7802  0.0930
  860SOL     OW 3437   2.670   2.650   0.146 -0.2570  0.1970  0.5649
  860SOL    HW1 3438   2.750   2.634   0.209 -1.5152 -0.8318 -0.4226
  860SOL    HW2 3439   2.698   2.729   0.091 -1.1910  0.6739  0.9418
  860SOL     MW 3440   2.684   2.658   0.147 -0.5462  0.1242  0.4843
  861SOL     OW 3441   1.632   2.186   1.119 -0.0155  0.5905  0.1538
  861SOL    HW1 3442   1.666   2.261   1.168  1.0068  1.0111  1.8224
  861SOL    HW2 3443   1.579   2.145   1.188  2.1654  1.0751  2.7278
  861SOL     MW 3444   1.630   2.190   1.135  0.4072  0.7099  0.7136
  862SOL     OW 3445   2.512   1.774   1.481  0.3651 -0.2100 -0.1965
  862SOL    HW1 3446   2.431   1.794   1.526 -0.0983  2.1539  0.4982
  862SOL    HW2 3447   2.484   1.761   1.390 -3.7402  0.4406  1.5542
  862SOL     MW 3448   2.498   1.775   1.475 -0.2377  0.1878  0.1261
  863SOL     OW 3449   2.982   1.785   1.026  0.0370  0.1494 -0.1911
  863SOL    HW1 3450   3.068   1.777   1.067 -0.9382  1.3338 -1.9325
  863SOL    HW2 3451   2.936   1.840   1.085  0.5110 -1.7398 -0.7096
  863SOL     MW 3452   2.987   1.791   1.039 -0.0291  0.0564 -0.4893
  864SOL     OW 3453   0.067   1.834   0.822 -0.1956  0.1653 -0.4678
  864SOL    HW1 3454  -0.016   1.808   0.855  2.5341 -1.3681 -0.2145
  864SOL    HW2 3455   0.061   1.823   0.730  0.9584 -0.2935  1.9540
  864SOL     MW 3456   0.055   1.829   0.814  0.3168 -0.0975 -0.1148
  865SOL     OW 3457   2.609   2.156   0.041  0.7729  0.0214  0.4072
  865SOL    HW1 3458   2.601   2.076   0.096  0.0165  0.3629  1.7704
  865SOL    HW2 3459   2.551   2.159  -0.037 -0.8460 -1.9295  0.7691
  865SOL     MW 3460   2.600   2.146   0.038  0.4595 -0.1909  0.6348
  866SOL     OW 3461   2.633   2.338   1.593 -0.3167  0.5116 -0.0821
  866SOL    HW1 3462   2.631   2.247   1.631 -2.3538 -0.3263 -0.0096
  866SOL    HW2 3463   2.700   2.339   1.525 -3.2888 -0.0098  1.1103
  866SOL     MW 3464   2.641   2.326   1.589 -0.9776  0.3323  0.0848
  867SOL     OW 3465   0.079   2.691   1.750 -0.0255  0.5298  0.2245
  867SOL    HW1 3466   0.155   2.711   1.806 -1.0139 -0.9462  0.1825
  867SOL    HW2 3467   0.105   2.748   1.670  1.1980 -2.6953 -2.5559
  867SOL     MW 3468   0.092   2.701   1.747  0.0055 -0.0905 -0.1479
  868SOL     OW 3469   2.750   2.693   0.581 -0.3789 -0.1848 -0.1510
  868SOL    HW1 3470   2.707   2.604   0.583  0.2693 -0.5182  0.6800
  868SOL    HW2 3471   2.687   2.739   0.529 -1.6260 -0.6976 -1.8363
  868SOL     MW 3472   2.736   2.687   0.574 -0.4579 -0.2964 -0.2637
  869SOL     OW 3473   2.101   2.397   1.016  0.0779  0.6743 -0.4463
  869SOL    HW1 3474   2.191   2.378   0.984  1.5519  0.5092  1.7815
  869SOL    HW2 3475   2.051   2.344   0.955  2.1996  0.2400 -0.0858
  869SOL     MW 3476   2.106   2.388   1.004  0.5523  0.5952 -0.1048
  870SOL     OW 3477   2.173   0.082   0.474  0.2126  0.4026 -0.1736
  870SOL    HW1 3478   2.231   0.124   0.402  1.1233  0.1773 -1.9073
  870SOL    HW2 3479   2.209  -0.008   0.469 -2.5943  1.3655 -0.6977
  870SOL     MW 3480   2.186   0.076   0.464 -0.0376  0.4999 -0.4715
  871SOL     OW 3481   2.466   2.086   0.932  0.4372  0.6598 -0.5851
  871SOL    HW1 3482   2.423   2.026   0.869 -2.0120 -1.8090  0.3772
  871SOL    HW2 3483   2.422   2.173   0.926 -0.6460 -1.9207 -1.1941
  871SOL     MW 3484   2.455   2.090   0.923 -0.0289 -0.0064 -0.5385
  872SOL     OW 3485   2.059   2.542   1.507 -0.2568  0.4840 -0.2203
  872SOL    HW1 3486   2.011   2.614   1.543  1.8485  1.2765  0.8318
  872SOL    HW2 3487   2.030   2.526   1.417  2.2638  1.0955  1.5710
  872SOL     MW 3488   2.049   2.550   1.500  0.3535  0.6692  0.1549
  873SOL     OW 3489   2.849   2.120   1.917  0.0718  0.1023 -1.1686
  873SOL    HW1 3490   2.839   2.179   1.991  0.5277  3.0054  0.2102
  873SOL    HW2 3491   2.921   2.158   1.865  1.0423 -2.1793 -0.4314
  873SOL     MW 3492   2.857   2.133   1.920  0.2600  0.1843 -0.8894
  874SOL     OW 3493   2.339   1.430   2.365 -0.0144  0.2607 -0.7749
  874SOL    HW1 3494   2.311   1.364   2.303 -0.9497  0.5064  0.4002
  874SOL    HW2 3495   2.407   1.380   2.413 -0.5266 -2.5730 -0.6229
  874SOL     MW 3496   2.344   1.415   2.363 -0.2054 -0.0807 -0.5998
  875SOL     OW 3497   2.366   2.333   0.973  0.0336 -0.2231 -0.0003
  875SOL    HW1 3498   2.416   2.400   0.925 -0.1481 -1.2015  0.8098
  875SOL    HW2 3499   2.370   2.352   1.069  0.4043 -2.2587  1.2594
  875SOL     MW 3500   2.373   2.345   0.980  0.0585 -0.6208  0.2728
  876SOL     OW 3501   3.068   2.252   1.310 -0.2728 -0.6098 -1.1398
  876SOL    HW1 3502   3.101   2.313   1.247  0.2077  2.0436 -0.6408
  876SOL    HW2 3503   3.125   2.261   1.386  0.4118  3.3315 -2.2697
  876SOL     MW 3504   3.080   2.261   1.312 -0.1191  0.2603 -1.2230
  877SOL     OW 3505   0.010   2.815   0.321 -0.1189  0.0967 -0.1198
  877SOL    HW1 3506   0.073   2.877   0.291 -0.8163 -0.3817  1.0252
  877SOL    HW2 3507  -0.001   2.744   0.260 -0.1419 -1.9339  0.6084
  877SOL     MW 3508   0.017   2.814   0.309 -0.2140 -0.2343  0.1274
  878SOL     OW 3509   2.423   1.751   1.225 -0.1728 -0.6606  0.1654
  878SOL    HW1 3510   2.341   1.709   1.261 -0.9154 -2.2987  0.9124
  878SOL    HW2 3511   2.479   1.676   1.212 -2.8274  0.3995  0.9356
  878SOL     MW 3512   2.419   1.735   1.228 -0.6210 -0.7369  0.3656
  879SOL     OW 3513   2.775   2.434   0.923 -0.0186 -0.5268 -0.7868
  879SOL    HW1 3514   2.853   2.489   0.924  2.0892 -1.9272  1.4230
  879SOL    HW2 3515   2.802   2.366   0.854  1.2750 -0.5264 -3.7488
  879SOL     MW 3516   2.789   2.432   0.914  0.4302 -0.7115 -0.8861
  880SOL     OW 3517   2.580   2.197   0.655 -0.4331  0.4289 -0.3989
  880SOL    HW1 3518   2.550   2.173   0.744 -1.9804 -0.8115  2.3203
  880SOL    HW2 3519   2.567   2.107   0.607 -0.7832 -4.6088 -2.0816
  880SOL     MW 3520   2.574   2.182   0.661 -0.6834 -0.3995 -0.2621
  881SOL     OW 3521   3.006   2.739   0.690  0.1120  0.1850  0.1637
  881SOL    HW1 3522   2.926   2.723   0.642 -1.3198  0.4707  3.2883
  881SOL    HW2 3523   3.069   2.683   0.635 -0.1251 -1.9818 -2.9532
  881SOL     MW 3524   3.004   2.730   0.676 -0.1082 -0.0632  0.1647
  882SOL     OW 3525   2.259   2.862   1.950 -0.0580  0.4650  0.3357
  882SOL    HW1 3526   2.248   2.884   1.854  1.2662  1.1593 -1.4541
  882SOL    HW2 3527   2.219   2.770   1.961 -3.1209  0.4319 -0.9768
  882SOL     MW 3528   2.253   2.852   1.939 -0.2874  0.5522 -0.0736
  883SOL     OW 3529   2.362   2.203   1.354  0.4849  0.0197  0.0261
  883SOL    HW1 3530   2.422   2.149   1.289 -2.6628 -0.3306  0.3844
  883SOL    HW2 3531   2.267   2.192   1.324  0.3445 -0.7439  0.5827
  883SOL     MW 3532   2.358   2.195   1.341  0.0511 -0.1272  0.1468
  884SOL     OW 3533   1.990   1.799   1.059  0.7115  0.0603  0.4343
  884SOL    HW1 3534   1.944   1.877   1.030  1.4158 -0.7834 -0.5881
  884SOL    HW2 3535   2.080   1.822   1.059  0.9654 -0.7736 -1.5767
  884SOL     MW 3536   1.996   1.812   1.055  0.8379 -0.1611  0.0341
  885SOL     OW 3537   2.829   2.400   1.776 -0.4476  0.1584 -0.4246
  885SOL    HW1 3538   2.910   2.341   1.764  0.3605  0.1841  0.3534
  885SOL    HW2 3539   2.761   2.369   1.716  0.8201 -0.4455  1.2525
  885SOL     MW 3540   2.830   2.388   1.767 -0.1737  0.0821 -0.1007
  886SOL     OW 3541   2.847   2.422   1.392  0.2385 -0.1897  0.1451
  886SOL    HW1 3542   2.927   2.379   1.376  0.3457 -2.9321 -1.1684
  886SOL    HW2 3543   2.871   2.513   1.397  2.4302 -1.3235 -2.5258
  886SOL     MW 3544   2.861   2.428   1.390  0.5419 -0.7011 -0.3806
  887SOL     OW 3545   2.293   2.685   1.515  0.1268  0.5150 -0.5906
  887SOL    HW1 3546   2.343   2.680   1.432  0.0811 -0.8950 -2.4368
  887SOL    HW2 3547   2.218   2.629   1.493  0.2867 -1.7773  0.6703
  887SOL     MW 3548   2.289   2.677   1.501  0.1419  0.0265 -0.6678
  888SOL     OW 3549   1.913   2.187   1.383  0.3465  0.3380 -0.0591
  888SOL    HW1 3550   1.993   2.185   1.324 -0.3518  1.9064 -1.6322
  888SOL    HW2 3551   1.949   2.204   1.474 -0.5519  0.7462 -0.3020
  888SOL     MW 3552   1.928   2.189   1.387  0.1358  0.5988 -0.2987
  889SOL     OW 3553   2.347   1.989   2.046 -0.1586  0.2029 -0.4132
  889SOL    HW1 3554   2.432   1.979   2.090  1.4328  1.1740  0.9808
  889SOL    HW2 3555   2.362   2.051   1.972  1.4250 -0.7534 -1.3006
  889SOL     MW 3556   2.360   1.996   2.042  0.2603  0.2049 -0.3464
  890SOL     OW 3557   0.131   2.359   0.160 -0.1365 -0.9447  0.3576
  890SOL    HW1 3558   0.085   2.449   0.157  2.3695  1.1942 -0.8348
  890SOL    HW2 3559   0.085   2.313   0.233 -1.0499  2.1365 -0.8314
  890SOL     MW 3560   0.119   2.365   0.169  0.0736 -0.2560  0.0434
  891SOL     OW 3561   3.017   1.977   1.230 -0.2728  0.2540 -0.1093
  891SOL    HW1 3562   3.108   1.955   1.207 -2.2660 -0.5362  0.5146
  891SOL    HW2 3563   3.036   2.071   1.248 -4.1272  1.8990 -0.2673
  891SOL     MW 3564   3.032   1.987   1.229 -1.0443  0.3667 -0.0478
  892SOL     OW 3565   2.466   2.368   2.771  0.1466 -0.4886  0.8420
  892SOL    HW1 3566   2.432   2.306   2.832 -1.2630  3.4178 -0.8674
  892SOL    HW2 3567   2.560   2.382   2.792 -0.6164 -0.6851 -3.2718
  892SOL     MW 3568   2.474   2.362   2.782 -0.1400  0.0009  0.0737
  893SOL     OW 3569   1.648   2.423   1.291 -0.3924 -0.5499  0.9797
  893SOL    HW1 3570   1.565   2.434   1.341  1.1403 -0.1280  1.9096
  893SOL    HW2 3571   1.684   2.509   1.316  0.3366 -0.2340  0.0990
  893SOL     MW 3572   1.642   2.435   1.301 -0.0940 -0.4525  0.9862
  894SOL     OW 3573   2.732   1.845   0.463  0.1743 -0.5623 -0.4304
  894SOL    HW1 3574   2.642   1.864   0.485 -3.2905 -1.1897  1.2188
  894SOL    HW2 3575   2.727   1.825   0.374  0.6551 -1.3252 -1.5296
  894SOL     MW 3576   2.719   1.845   0.454 -0.2194 -0.7458 -0.3579
  895SOL     OW 3577   2.118   2.182   1.221  0.4610 -0.0174 -0.5721
  895SOL    HW1 3578   2.143   2.235   1.148 -0.6923 -0.8278 -1.3929
  895SOL    HW2 3579   2.150   2.097   1.188 -0.3132 -0.1123  0.7782
  895SOL     MW 3580   2.125   2.178   1.207  0.2067 -0.1368 -0.5022
  896SOL     OW 3581   2.238   2.845   1.101  0.0429  0.0451 -0.1271
  896SOL    HW1 3582   2.298   2.827   1.178  0.1446 -2.3121 -0.5372
  896SOL    HW2 3583   2.166   2.913   1.127  0.1136 -2.6620  0.3134
  896SOL     MW 3584   2.236   2.852   1.115  0.0656 -0.6231 -0.1231
  897SOL     OW 3585   3.082   3.032   3.054  0.4930  0.2810  0.1031
  897SOL    HW1 3586   3.142   2.952   3.060 -1.6663 -2.5107 -1.8580
  897SOL    HW2 3587   3.005   3.020   3.002  1.4186 -2.6660  3.2040
  897SOL     MW 3588   3.080   3.020   3.048  0.3303 -0.4761  0.2535
  898SOL     OW 3589   2.030   0.176   1.450 -0.2843 -0.0759 -0.2518
  898SOL    HW1 3590   2.009   0.087   1.484 -1.6009 -0.2101 -0.3047
  898SOL    HW2 3591   2.046   0.165   1.356  0.3995 -2.3860 -1.6852
  898SOL     MW 3592   2.029   0.163   1.442 -0.3678 -0.3984 -0.4479
  899SOL     OW 3593   2.976   3.000   0.609  0.2171  0.7249 -0.2443
  899SOL    HW1 3594   2.987   2.912   0.652 -0.3493 -1.3334  1.9519
  899SOL    HW2 3595   2.896   3.040   0.645 -0.2444  1.3383  0.5881
  899SOL     MW 3596   2.967   2.994   0.620  0.0815  0.5343  0.1553
  900SOL     OW 3597   0.046   2.415   1.098  0.5837 -0.0456  0.2339
  900SOL    HW1 3598   0.042   2.511   1.124  1.5013  0.5535 -0.0710
  900SOL    HW2 3599   0.037   2.419   1.001  1.1666 -0.4485  0.3312
  900SOL     MW 3600   0.045   2.428   1.088  0.7817 -0.0197  0.2065
  901SOL     OW 3601   1.751   2.783   1.782  0.0902  0.2852 -0.3317
  901SOL    HW1 3602   1.831   2.741   1.763 -3.2923 -0.0430  0.4985
  901SOL    HW2 3603   1.689   2.781   1.710 -0.0378 -1.7776  0.9797
  901SOL     MW 3604   1.754   2.777   1.770 -0.3730 -0.0303 -0.0491
  902SOL     OW 3605   2.647   2.097   1.724  0.0436  0.3328 -0.6435
  902SOL    HW1 3606   2.662   2.023   1.658  0.4769  1.4260 -0.7439
  902SOL    HW2 3607   2.713   2.082   1.793  1.1666 -1.7523 -2.6811
  902SOL     MW 3608   2.658   2.085   1.724  0.2489  0.2020 -0.9256
  903SOL     OW 3609   1.568   2.617   0.639 -0.5801 -0.3821  0.0040
  903SOL    HW1 3610   1.663   2.610   0.641 -0.4918  3.2032 -1.7733
  903SOL    HW2 3611   1.569   2.678   0.711 -1.9826 -1.3528  0.0315
  903SOL     MW 3612   1.580   2.624   0.648 -0.7535 -0.0371 -0.2269
  904SOL     OW 3613   2.472   2.557   1.701  0.2853 -0.7442  0.4251
  904SOL    HW1 3614   2.426   2.601   1.628  1.6181  1.1266 -0.4766
  904SOL    HW2 3615   2.535   2.505   1.656 -0.1003  0.8108  3.0729
  904SOL     MW 3616   2.474   2.556   1.686  0.4103 -0.2922  0.6555
  905SOL     OW 3617   2.318   2.495   2.091 -0.4137  0.0797 -0.1350
  905SOL    HW1 3618   2.368   2.450   2.027  2.4876 -2.3024  0.6959
  905SOL    HW2 3619   2.284   2.414   2.133  1.3060  0.4040 -1.6071
  905SOL     MW 3620   2.320   2.479   2.088  0.1960 -0.1918 -0.2196
  906SOL     OW 3621   2.529   2.494   0.826 -0.1699  0.9715  0.1836
  906SOL    HW1 3622   2.619   2.475   0.849 -0.0896 -2.9590 -0.7547
  906SOL    HW2 3623   2.510   2.580   0.861 -3.8894  0.4168 -2.7727
  906SOL     MW 3624   2.538   2.503   0.833 -0.6500  0.3797 -0.3303
  907SOL     OW 3625   2.651   2.877   1.282 -0.0254 -0.3265 -0.6880
  907SOL    HW1 3626   2.707   2.945   1.324 -0.8452  1.2489  2.2961
  907SOL    HW2 3627   2.704   2.868   1.199  0.3140  2.1644  0.8188
  907SOL     MW 3628   2.665   2.884   1.276 -0.0888  0.2100 -0.0955
  908SOL     OW 3629   2.717   2.404   0.003  0.0093  0.2280 -0.3769
  908SOL    HW1 3630   2.691   2.312   0.026  0.8664 -1.0134 -0.0978
  908SOL    HW2 3631   2.670   2.469   0.058  0.5071  0.2613 -0.9818
  908SOL     MW 3632   2.707   2.400   0.013  0.1880  0.0686 -0.4199
  909SOL     OW 3633   1.765   0.090   1.186 -0.1881  0.2902  0.7329
  909SOL    HW1 3634   1.737   0.165   1.140  0.1231 -1.4027  1.2348
  909SOL    HW2 3635   1.746   0.116   1.272  0.3904 -0.5016 -2.0306
  909SOL     MW 3636   1.759   0.104   1.192 -0.0707 -0.0376  0.4345
  910SOL     OW 3637   2.214   1.708   0.409 -0.2425 -0.2247  0.2758
  910SOL    HW1 3638   2.168   1.623   0.398  0.2401  0.4259  0.3945
  910SOL    HW2 3639   2.167   1.767   0.345 -0.1442  0.1559  0.7262
  910SOL     MW 3640   2.201   1.705   0.399 -0.1659 -0.0887  0.3509
  911SOL     OW 3641   2.271   2.057   1.564  0.4741  0.1704 -0.3993
  911SOL    HW1 3642   2.323   2.086   1.639 -2.1495  1.0530 -1.0091
  911SOL    HW2 3643   2.312   2.106   1.486  0.0903 -0.4883  1.0335
  911SOL     MW 3644   2.284   2.067   1.564  0.0773  0.1999 -0.2907
  912SOL     OW 3645   2.927   1.905   1.487 -0.3950 -0.0048 -0.5933
  912SOL    HW1 3646   2.968   1.929   1.397 -1.9060 -1.6657 -0.7912
  912SOL    HW2 3647   2.834   1.926   1.470  0.9381 -1.3496  2.1524
  912SOL     MW 3648   2.920   1.911   1.473 -0.4184 -0.4014 -0.2571
  913SOL     OW 3649   2.629   3.084   0.362  0.6230 -0.0409 -0.2969
  913SOL    HW1 3650   2.714   3.044   0.352  0.4319 -1.3337 -1.9824
  913SOL    HW2 3651   2.562   3.024   0.320 -0.2710 -0.4157 -0.9749
  913SOL     MW 3652   2.632   3.071   0.355  0.4799 -0.2609 -0.6087
  914SOL     OW 3653   2.686   1.845   3.032 -0.0565  0.7945  0.4263
  914SOL    HW1 3654   2.733   1.922   3.008 -0.3417  1.1609  2.0456
  914SOL    HW2 3655   2.593   1.863   3.014  1.7957  0.5421  2.2137
  914SOL     MW 3656   2.680   1.858   3.027  0.1502  0.8095  0.8758
  915SOL     OW 3657   1.767   0.168   0.224  0.5426 -0.6321 -0.4107
  915SOL    HW1 3658   1.847   0.106   0.237 -1.1671  0.2936  0.3447
  915SOL    HW2 3659   1.691   0.107   0.218 -1.1221 -1.6184 -1.0528
  915SOL     MW 3660   1.768   0.152   0.225  0.0973 -0.6401 -0.3957
  916SOL     OW 3661   1.768   2.164   1.989 -0.5115  0.3527  0.2107
  916SOL    HW1 3662   1.819   2.240   1.956 -1.4020  0.4893 -1.6058
  916SOL    HW2 3663   1.817   2.093   1.946 -0.9001  0.1639  1.6451
  916SOL     MW 3664   1.781   2.165   1.979 -0.6803  0.3458  0.1603
  917SOL     OW 3665   2.504   2.204   2.546  0.0453  0.0146 -0.1561
  917SOL    HW1 3666   2.472   2.261   2.614 -0.3160  0.0169  1.3021
  917SOL    HW2 3667   2.585   2.239   2.511  1.8206  0.6970 -0.6775
  917SOL     MW 3668   2.510   2.216   2.550  0.2319  0.1049 -0.0325
  918SOL     OW 3669   1.998   1.602   2.693  0.6753  0.2592 -0.0190
  918SOL    HW1 3670   1.937   1.634   2.623  0.3563 -0.8791 -0.4261
  918SOL    HW2 3671   2.075   1.658   2.692 -0.5188  1.5334 -2.8686
  918SOL     MW 3672   2.000   1.614   2.684  0.4757  0.2771 -0.4487
  919SOL     OW 3673   3.054   2.413   2.301 -0.4625  0.1091 -0.6645
  919SOL    HW1 3674   2.990   2.340   2.295 -0.0148  1.3720 -1.4868
  919SOL    HW2 3675   3.130   2.406   2.232  3.3656  1.1032 -0.4383
  919SOL     MW 3676   3.056   2.403   2.291  0.1017  0.4069 -0.7432
  920SOL     OW 3677   2.693   2.866   3.070 -0.2043 -0.2070 -0.4399
  920SOL    HW1 3678   2.601   2.845   3.056 -2.3869  0.4744  2.2525
  920SOL    HW2 3679   2.732   2.787   3.031  0.2794 -3.7641  0.2922
  920SOL     MW 3680   2.686   2.853   3.063 -0.4285 -0.5864  0.0119
  921SOL     OW 3681   2.446   2.601   2.599 -0.6412 -0.3059  0.1321
  921SOL    HW1 3682   2.523   2.612   2.543  0.2012  2.2307  1.9704
  921SOL    HW2 3683   2.460   2.531   2.656 -0.3513  1.1101  0.5042
  921SOL     MW 3684   2.458   2.594   2.599 -0.4918  0.2156  0.4238
  922SOL     OW 3685   2.021   2.803   0.324  0.2515 -0.2920  0.5115
  922SOL    HW1 3686   2.030   2.818   0.229  0.5069  1.3036  0.8082
  922SOL    HW2 3687   2.061   2.710   0.333  0.7960 -1.8047 -0.4577
  922SOL     MW 3688   2.027   2.792   0.313  0.3571 -0.2811  0.4228
  923SOL     OW 3689   2.210   2.877   1.697 -0.2370 -0.0395 -0.2922
  923SOL    HW1 3690   2.253   2.832   1.623  1.3730  0.1277  1.7191
  923SOL    HW2 3691   2.164   2.952   1.666  1.1482 -0.0828 -0.4083
  923SOL     MW 3692   2.210   2.881   1.684  0.1582 -0.0231 -0.0422
  924SOL     OW 3693   1.142   2.763   2.636 -0.0390 -0.0110  0.0854
  924SOL    HW1 3694   1.236   2.780   2.626 -0.2911 -1.5216 -2.6820
  924SOL    HW2 3695   1.135   2.692   2.692 -3.6093  1.4345  0.8605
  924SOL     MW 3696   1.153   2.756   2.642 -0.5433 -0.0196 -0.1775
  925SOL     OW 3697   3.045   0.218   2.686 -0.0057  0.2191  0.1995
  925SOL    HW1 3698   2.989   0.250   2.607 -2.2534 -0.3220  1.0485
  925SOL    HW2 3699   3.018   0.273   2.758  0.8115 -1.4391 -2.2576
  925SOL     MW 3700   3.034   0.229   2.685 -0.1945 -0.0711 -0.0127
  926SOL     OW 3701   2.701   2.381   2.027 -0.1622 -0.8253 -0.0018
  926SOL    HW1 3702   2.736   2.458   2.081 -0.5390  2.2559  1.1089
  926SOL    HW2 3703   2.758   2.399   1.946 -0.0923  1.6643 -2.1311
  926SOL     MW 3704   2.713   2.394   2.023 -0.2027 -0.0903 -0.1362
  927SOL     OW 3705   2.357   0.189   0.304 -0.3491  0.3475 -0.2579
  927SOL    HW1 3706   2.441   0.233   0.308  0.3252 -0.5756  0.9358
  927SOL    HW2 3707   2.352   0.144   0.212 -1.6282  0.6326 -1.0838
  927SOL     MW 3708   2.368   0.189   0.293 -0.4289  0.2633 -0.2094
  928SOL     OW 3709   2.161   2.441   1.758  0.2910 -0.0506  0.0191
  928SOL    HW1 3710   2.103   2.477   1.688  3.6788  2.6731  0.7950
  928SOL    HW2 3711   2.233   2.501   1.770  1.3567 -0.3099  0.9363
  928SOL     MW 3712   2.163   2.454   1.750  0.8786  0.2745  0.2425
  929SOL     OW 3713   2.730   2.344   2.470  0.0530  0.2589 -0.2410
  929SOL    HW1 3714   2.776   2.298   2.392  2.7758 -0.3789  1.5485
  929SOL    HW2 3715   2.801   2.375   2.534  2.5592 -1.4028  1.8042
  929SOL     MW 3716   2.745   2.342   2.468  0.7429 -0.0445  0.2649
  930SOL     OW 3717   2.016   2.830   2.627 -0.5500  0.0359 -0.4591
  930SOL    HW1 3718   2.032   2.767   2.708  0.3195 -0.0358 -1.2275
  930SOL    HW2 3719   2.088   2.889   2.627 -1.0182 -0.2245 -0.1752
  930SOL     MW 3720   2.027   2.830   2.637 -0.4970 -0.0079 -0.5230
  931SOL     OW 3721   3.058   2.750   2.477  0.6590  0.0631  0.1350
  931SOL    HW1 3722   3.075   2.781   2.566  1.7537 -0.9543  1.5190
  931SOL    HW2 3723   3.152   2.740   2.443 -1.1330  2.2078 -1.5764
  931SOL     MW 3724   3.072   2.753   2.484  0.5670  0.2118  0.0918
  932SOL     OW 3725   2.910   1.851   2.489 -0.3725 -0.1113  0.0302
  932SOL    HW1 3726   2.970   1.923   2.502  0.8132 -1.3712 -1.4835
  932SOL    HW2 3727   2.872   1.874   2.406  1.8106  1.4957 -0.8565
  932SOL     MW 3728   2.913   1.864   2.480  0.0720 -0.0655 -0.2865
  933SOL     OW 3729   2.034   2.800   2.206  0.2084 -0.8290  0.0961
  933SOL    HW1 3730   2.109   2.845   2.239 -2.6269 -3.9088  1.4100
  933SOL    HW2 3731   1.970   2.865   2.184 -0.9560 -0.5132  0.5104
  933SOL     MW 3732   2.036   2.815   2.207 -0.3193 -1.1936  0.3241
  934SOL     OW 3733   1.990   2.646   2.424 -0.1105  0.0210 -0.5248
  934SOL    HW1 3734   2.020   2.693   2.505  1.5434  2.1260  2.3466
  934SOL    HW2 3735   1.996   2.705   2.349 -2.4366 -2.2016 -0.7416
  934SOL     MW 3736   1.995   2.660   2.424 -0.1992  0.0055 -0.1746
  935SOL     OW 3737   2.671   1.596   1.847  0.1937 -0.2028 -0.6529
  935SOL    HW1 3738   2.760   1.568   1.863  0.8508 -0.8027 -0.2500
  935SOL    HW2 3739   2.651   1.557   1.767 -1.7469 -2.8608  3.4680
  935SOL     MW 3740   2.680   1.587   1.838  0.0244 -0.6327 -0.0560
  936SOL     OW 3741   2.990   2.279   0.003  0.1102  0.2492  0.4180
  936SOL    HW1 3742   3.059   2.284   0.062 -0.3252 -0.8704 -2.0745
  936SOL    HW2 3743   2.924   2.346   0.023  0.4990  1.3841  1.4824
  936SOL     MW 3744   2.990   2.288   0.014  0.1040  0.2513  0.2296
  937SOL     OW 3745   2.015   2.165   2.668 -0.0010 -0.1128  0.7353
  937SOL    HW1 3746   2.097   2.122   2.698  2.5158 -3.9159  1.1034
  937SOL    HW2 3747   2.021   2.145   2.570 -0.8397  1.5049  0.3981
  937SOL     MW 3748   2.027   2.157   2.659  0.2204 -0.4012  0.7394
  938SOL     OW 3749   2.274   1.772   1.913  0.0976  0.0198 -0.5311
  938SOL    HW1 3750   2.287   1.784   1.820  0.0220 -0.6887  0.0848
  938SOL    HW2 3751   2.281   1.859   1.957 -3.1764 -1.1706 -0.4712
  938SOL     MW 3752   2.277   1.785   1.907 -0.3443 -0.2307 -0.4419
  939SOL     OW 3753   2.785   1.969   2.258 -0.1230  0.0400  0.0951
  939SOL    HW1 3754   2.792   1.898   2.194 -1.2035  1.5856  0.9768
  939SOL    HW2 3755   2.698   1.954   2.294  2.2337  1.2921 -3.7371
  939SOL     MW 3756   2.775   1.957   2.255  0.0454  0.4091 -0.2942
  940SOL     OW 3757   2.290   0.126   2.709 -0.1474 -0.4962 -0.7619
  940SOL    HW1 3758   2.292   0.034   2.670  0.8814  1.0555  1.2696
  940SOL    HW2 3759   2.335   0.126   2.794 -2.3529 -1.7247 -0.6484
  940SOL     MW 3760   2.296   0.114   2.715 -0.3027 -0.4535 -0.4789
  941SOL     OW 3761   0.144   2.426   2.069  0.3908 -0.2550 -0.3270
  941SOL    HW1 3762   0.222   2.381   2.084 -2.0703  2.3919  0.2217
  941SOL    HW2 3763   0.127   2.416   1.972 -2.6843  0.8707 -0.1007
  941SOL     MW 3764   0.152   2.419   2.058 -0.3397  0.2427 -0.2247
  942SOL     OW 3765   2.836   2.238   2.261  0.2401  0.1629  0.6137
  942SOL    HW1 3766   2.769   2.266   2.200  1.0177 -2.4408 -1.0632
  942SOL    HW2 3767   2.815   2.135   2.258 -2.5000  0.5271  2.9247
  942SOL     MW 3768   2.824   2.228   2.252 -0.0188 -0.1326  0.6973
  943SOL     OW 3769   0.228   2.127   2.283 -0.0627 -0.4267  0.4102
  943SOL    HW1 3770   0.211   2.187   2.354 -0.0559  0.1454 -0.5545
  943SOL    HW2 3771   0.324   2.094   2.290  1.7913  0.5410  0.8146
  943SOL     MW 3772   0.239   2.130   2.293  0.1828 -0.2235  0.3363
  944SOL     OW 3773   2.109   2.628   2.005  0.1467 -0.2212  0.6472
  944SOL    HW1 3774   2.174   2.569   2.048 -0.7576  1.3187  0.0084
  944SOL    HW2 3775   2.064   2.679   2.072 -2.3428  1.6725  1.3264
  944SOL     MW 3776   2.112   2.627   2.020 -0.3011  0.2319  0.6525
  945SOL     OW 3777   2.792   2.685   2.873  0.0308  0.3955 -0.8050
  945SOL    HW1 3778   2.762   2.599   2.856  2.4029  2.8991 -0.9020
  945SOL    HW2 3779   2.770   2.729   2.789 -1.3559 -0.1001 -3.0986
  945SOL     MW 3780   2.785   2.680   2.859  0.1608  0.6604 -1.1204
  946SOL     OW 3781   2.446   2.694   2.250  0.0791 -0.2407 -0.6846
  946SOL    HW1 3782   2.473   2.724   2.171 -3.3383 -1.4456  1.8205
  946SOL    HW2 3783   2.393   2.623   2.218 -1.4549 -2.1273  0.2393
  946SOL     MW 3784   2.443   2.688   2.236 -0.5742 -0.6486 -0.2322
  947SOL     OW 3785   1.977   3.106   0.269  0.2651  0.1447  0.1324
  947SOL    HW1 3786   1.960   3.019   0.238  0.5780 -2.0134 -0.4816
  947SOL    HW2 3787   2.012   3.094   0.361 -0.4516 -2.0389 -0.8909
  947SOL     MW 3788   1.979   3.093   0.277  0.2118 -0.4282 -0.0837
  948SOL     OW 3789   1.781   3.007   2.695  0.0253  0.0038  0.3551
  948SOL    HW1 3790   1.846   2.938   2.707  0.7261 -3.4683 -0.4255
  948SOL    HW2 3791   1.781   3.037   2.606  1.9530 -1.0716  1.6074
  948SOL     MW 3792   1.789   3.002   2.685  0.3721 -0.5962  0.4174
  949SOL     OW 3793   2.532   1.950   2.333  0.1900  0.5421 -0.2292
  949SOL    HW1 3794   2.506   1.860   2.322 -1.1937 -0.7350 -0.0501
  949SOL    HW2 3795   2.456   2.003   2.358  0.5994  0.5334 -0.6497
  949SOL     MW 3796   2.519   1.945   2.335  0.0615  0.3724 -0.2611
  950SOL     OW 3797   2.289   2.584   2.942 -0.2103 -0.0449 -0.0041
  950SOL    HW1 3798   2.322   2.534   2.868 -0.5775  0.7210  1.4177
  950SOL    HW2 3799   2.213   2.635   2.899  1.9409 -0.8955 -0.3222
  950SOL     MW 3800   2.283   2.584   2.927  0.0251 -0.0561  0.1415
  951SOL     OW 3801   3.070   2.184   2.844  0.0394  0.6441 -0.2952
  951SOL    HW1 3802   3.030   2.220   2.927  1.1141  1.3647 -2.2011
  951SOL    HW2 3803   3.069   2.088   2.856  0.6378  0.5624  0.5913
  951SOL     MW 3804   3.065   2.176   2.857  0.2601  0.7284 -0.4297
  952SOL     OW 3805   3.070   1.649   2.102 -0.3260 -0.0637 -0.2411
  952SOL    HW1 3806   2.987   1.644   2.054 -0.5936  0.3275 -0.7136
  952SOL    HW2 3807   3.092   1.740   2.121  0.5802  1.0101 -0.8058
  952SOL     MW 3808   3.062   1.661   2.098 -0.2417  0.1296 -0.3779
  953SOL     OW 3809   1.938   1.776   2.879  0.0935  0.3620 -1.0795
  953SOL    HW1 3810   1.884   1.726   2.936  1.4820  2.2919 -1.5619
  953SOL    HW2 3811   1.954   1.725   2.801 -1.1591  0.6514  3.0683
  953SOL     MW 3812   1.933   1.763   2.876  0.1114  0.6548 -0.5959
  954SOL     OW 3813   2.446   2.123   2.899  0.7145  0.4481  1.0339
  954SOL    HW1 3814   2.369   2.100   2.834 -0.9161 -0.7615 -2.2440
  954SOL    HW2 3815   2.521   2.086   2.846  0.2188 -1.9673 -3.8677
  954SOL     MW 3816   2.446   2.115   2.884  0.4340 -0.0302 -0.0453
  955SOL     OW 3817   1.550   1.630   2.528  0.1882  0.0120 -0.1734
  955SOL    HW1 3818   1.533   1.625   2.436 -1.6127 -2.5477  0.4117
  955SOL    HW2 3819   1.647   1.665   2.534  2.1246  2.7991 -1.2573
  955SOL     MW 3820   1.561   1.634   2.516  0.2061  0.0420 -0.2392
  956SOL     OW 3821   2.720   2.432   2.825 -0.1928  0.6149  0.1791
  956SOL    HW1 3822   2.721   2.404   2.914  1.3764  3.2046 -4.2304
  956SOL    HW2 3823   2.801   2.400   2.784 -1.1719 -0.6174  3.7802
  956SOL     MW 3824   2.731   2.424   2.831 -0.1149  0.7940  0.0724
  957SOL     OW 3825   2.225   2.923   0.455  0.7106 -0.1795  0.1364
  957SOL    HW1 3826   2.172   2.877   0.387 -2.6820  3.2219 -3.3451
  957SOL    HW2 3827   2.211   2.876   0.538 -1.3472  3.6589  0.6661
  957SOL     MW 3828   2.217   2.910   0.457 -0.0085  0.7757 -0.2531
  958SOL     OW 3829   2.039   2.661   2.837 -0.4558  0.2347 -0.0789
  958SOL    HW1 3830   2.021   2.577   2.789  1.4698  2.7545  0.4390
  958SOL    HW2 3831   1.973   2.655   2.907  0.7712 -1.2075 -2.0261
  958SOL     MW 3832   2.028   2.649   2.840 -0.0398  0.3769 -0.2675
  959SOL     OW 3833   2.505   2.788   0.419 -0.0119  0.4765  0.4019
  959SOL    HW1 3834   2.528   2.798   0.326  1.3325 -0.9324 -1.8736
  959SOL    HW2 3835   2.429   2.839   0.434  0.9699  2.7472  2.7351
  959SOL     MW 3836   2.498   2.796   0.408  0.2951  0.5902  0.4095
  960SOL     OW 3837   1.921   2.298   2.325  0.7947 -0.7787  0.3942
  960SOL    HW1 3838   1.926   2.204   2.345  0.3443  1.1359 -0.1107
  960SOL    HW2 3839   1.870   2.342   2.394  2.2850 -0.7793  1.3124
  960SOL     MW 3840   1.915   2.292   2.337  0.9319 -0.5261  0.4487
  961SOL     OW 3841   2.183   2.332   2.272  0.4846 -0.1911  0.3514
  961SOL    HW1 3842   2.085   2.328   2.281  0.8484  0.3793 -3.6261
  961SOL    HW2 3843   2.203   2.393   2.341  1.3174  1.7213 -0.0640
  961SOL     MW 3844   2.173   2.340   2.282  0.6425  0.1365 -0.2282
  962SOL     OW 3845   2.247   2.016   2.763 -0.4075 -0.6382 -0.7856
  962SOL    HW1 3846   2.214   1.984   2.848  3.2188 -1.6310 -0.1739
  962SOL    HW2 3847   2.223   1.944   2.710  0.7417  2.8808 -0.3307
  962SOL     MW 3848   2.239   2.002   2.767  0.2226 -0.3049 -0.6449
  963SOL     OW 3849   1.793   2.482   2.137 -0.4300 -0.2117 -0.2987
  963SOL    HW1 3850   1.830   2.427   2.204  0.9591  0.9216 -1.5387
  963SOL    HW2 3851   1.813   2.435   2.057  0.2316  0.6277 -0.2367
  963SOL     MW 3852   1.801   2.469   2.136 -0.1594  0.0486 -0.4541
  964SOL     OW 3853   1.820   1.967   2.735  0.6248  0.2039  0.1408
  964SOL    HW1 3854   1.868   2.046   2.720 -0.6026 -0.0686  1.1075
  964SOL    HW2 3855   1.876   1.916   2.796 -0.3243  1.7499 -3.3581
  964SOL     MW 3856   1.834   1.971   2.741  0.3376  0.3719 -0.1933
  965SOL     OW 3857   2.263   2.721   0.649 -0.3882  0.0438  0.4058
  965SOL    HW1 3858   2.237   2.632   0.624 -0.2448  0.2845  1.1962
  965SOL    HW2 3859   2.325   2.721   0.722 -0.8757  1.1630 -0.5739
  965SOL     MW 3860   2.268   2.709   0.656 -0.4336  0.2233  0.3808
  966SOL     OW 3861   2.656   2.605   2.386  0.0666  0.1868  0.0589
  966SOL    HW1 3862   2.578   2.637   2.334 -0.8459  1.0003  0.6165
  966SOL    HW2 3863   2.664   2.508   2.396 -0.6550 -2.3286 -2.4798
  966SOL     MW 3864   2.647   2.597   2.380 -0.1490 -0.0378 -0.2024
  967SOL     OW 3865   2.819   3.069   2.934  0.1085  0.1196 -0.1450
  967SOL    HW1 3866   2.786   2.990   2.986 -1.5188  0.3813 -2.6163
  967SOL    HW2 3867   2.740   3.072   2.880 -0.5691 -0.4955 -0.9730
  967SOL     MW 3868   2.805   3.059   2.934 -0.1956  0.0730 -0.5803
  968SOL     OW 3869   3.033   2.619   2.994  0.5023  0.1644 -0.0752
  968SOL    HW1 3870   2.943   2.626   2.965  0.2615 -1.5271 -2.0251
  968SOL    HW2 3871   3.083   2.562   2.928 -2.2979 -0.7177 -0.5089
  968SOL     MW 3872   3.028   2.613   2.982  0.1010 -0.1751 -0.3897
  969SOL     OW 3873   1.610   2.186   1.679 -0.0590  0.4045  0.1787
  969SOL    HW1 3874   1.684   2.139   1.714 -1.0482 -0.4120  1.2185
  969SOL    HW2 3875   1.553   2.221   1.751 -1.0415 -1.7332 -0.5612
  969SOL     MW 3876   1.612   2.184   1.693 -0.3192  0.0148  0.2183
  970SOL     OW 3877   1.783   1.825   1.912 -0.0461 -0.0607  0.2515
  970SOL    HW1 3878   1.829   1.761   1.965  0.7306 -0.3073 -3.9633
  970SOL    HW2 3879   1.687   1.815   1.922 -1.2255 -2.0082 -2.4027
  970SOL     MW 3880   1.776   1.815   1.920 -0.0993 -0.3502 -0.6548
  971SOL     OW 3881   1.767   3.080   2.407 -0.3484 -0.1855  0.1467
  971SOL    HW1 3882   1.778   3.051   2.311  0.7788  0.2736 -2.8554
  971SOL    HW2 3883   1.843   3.133   2.419 -2.3209  0.5514 -0.0964
  971SOL     MW 3884   1.779   3.083   2.396 -0.4599 -0.0277 -0.2815
  972SOL     OW 3885   0.264   2.879   2.479 -0.1165 -0.4337 -0.2449
  972SOL    HW1 3886   0.331   2.813   2.470 -0.8891  0.6948  0.7530
  972SOL    HW2 3887   0.306   2.972   2.493  2.3764  1.9715 -0.9167
  972SOL     MW 3888   0.278   2.883   2.480  0.1105  0.0325 -0.2019
  973SOL     OW 3889   2.613   3.070   2.109  0.1540 -0.3579  0.2086
  973SOL    HW1 3890   2.587   2.977   2.079 -0.9270  0.1527 -0.5014
  973SOL    HW2 3891   2.633   3.116   2.029 -0.0849 -0.3263  2.8614
  973SOL     MW 3892   2.612   3.064   2.095 -0.0202 -0.2864  0.4650
  974SOL     OW 3893   2.018   0.157   2.707 -1.0034 -0.3548 -0.4534
  974SOL    HW1 3894   2.117   0.159   2.701 -0.9069  1.3589  0.9727
  974SOL    HW2 3895   2.000   0.090   2.773  1.2063 -1.5836  1.4478
  974SOL     MW 3896   2.029   0.149   2.715 -0.6991 -0.2908 -0.0144
  975SOL     OW 3897   2.200   2.478   2.494  0.4473 -0.1780 -0.0574
  975SOL    HW1 3898   2.272   2.534   2.521 -0.1166 -1.1781  0.1975
  975SOL    HW2 3899   2.128   2.535   2.454 -2.3856 -0.1826  2.0119
  975SOL     MW 3900   2.200   2.493   2.492 -0.0009 -0.3106  0.2493
  976SOL     OW 3901   0.154   0.392   1.744  0.1067 -0.7517 -0.1735
  976SOL    HW1 3902   0.229   0.331   1.762 -2.2943  0.5117 -0.0701
  976SOL    HW2 3903   0.072   0.346   1.765 -3.1843 -0.9055  1.0284
  976SOL     MW 3904   0.153   0.378   1.749 -0.6443 -0.6053 -0.0013
  977SOL     OW 3905   1.693   2.699   2.496 -0.2196  0.2122 -0.4197
  977SOL    HW1 3906   1.723   2.605   2.487  2.0419 -0.0837 -1.8335
  977SOL    HW2 3907   1.765   2.763   2.502 -0.7031 -0.3579 -0.0714
  977SOL     MW 3908   1.706   2.695   2.496  0.0150  0.0979 -0.5603
   3.10000   3.10000   3.10000
