977 TIP4P/2005f water molecules t=   0.57000 step= 570
 3908
    1SOL     OW    1   0.208   0.840   0.023 -0.6576  0.4711  0.1060
    1SOL    HW1    2   0.183   0.840  -0.068 -0.4945  0.7691  0.5294
    1SOL    HW2    3   0.172   0.761   0.053  2.8855  0.3011  0.0896
    1SOL     MW    4   0.200   0.830   0.015 -0.1686  0.4880  0.1597
    2SOL     OW    5   0.256   3.018   1.164 -0.3257 -0.1149  0.4383
    2SOL    HW1    6   0.294   3.095   1.130 -0.1699  1.7837  1.1563
    2SOL    HW2    7   0.163   3.034   1.146 -0.9196 -1.5376 -0.6236
    2SOL     MW    8   0.249   3.030   1.158 -0.3835 -0.0521  0.3929
    3SOL     OW    9   2.685   0.391   0.917 -0.5970  0.0137 -0.2479
    3SOL    HW1   10   2.714   0.468   0.870 -0.0384  3.9864  0.1535
    3SOL    HW2   11   2.659   0.421   1.007  0.0149  2.1783 -0.1933
    3SOL     MW   12   2.686   0.405   0.923 -0.4426  0.8235 -0.1877
    4SOL     OW   13   3.046   1.761   0.587 -0.3593 -0.0531 -0.0903
    4SOL    HW1   14   2.966   1.789   0.542 -0.3347 -0.5683  2.1788
    4SOL    HW2   15   3.097   1.695   0.537 -1.2333  2.1063  0.7079
    4SOL     MW   16   3.042   1.756   0.574 -0.4714  0.1638  0.3144
    5SOL     OW   17   1.729   1.507   0.556 -0.0055  0.4270 -0.6017
    5SOL    HW1   18   1.755   1.458   0.636  1.3835  0.5118 -2.6226
    5SOL    HW2   19   1.633   1.494   0.554  1.6112  1.6383 -0.1058
    5SOL     MW   20   1.719   1.499   0.566  0.3911  0.5980 -0.8029
    6SOL     OW   21   0.855   1.384   0.688 -0.2914 -0.2454  0.2626
    6SOL    HW1   22   0.763   1.396   0.673  1.1621  1.4504 -1.2647
    6SOL    HW2   23   0.883   1.292   0.670 -0.5814 -1.3945  2.0311
    6SOL     MW   24   0.846   1.374   0.684 -0.1379 -0.1733  0.2944
    7SOL     OW   25   2.013   1.145   0.027  0.0516  0.7705 -0.3285
    7SOL    HW1   26   2.061   1.229   0.012  1.0294  0.2327 -0.2680
    7SOL    HW2   27   2.032   1.126   0.117  2.2720  0.8397 -0.4658
    7SOL     MW   28   2.022   1.154   0.037  0.4736  0.7087 -0.3387
    8SOL     OW   29   0.942   1.372   1.019 -0.0123 -0.3540 -0.2821
    8SOL    HW1   30   0.941   1.318   0.945  2.0857  0.4212  2.3954
    8SOL    HW2   31   0.963   1.315   1.091 -0.2642  2.6782  3.4650
    8SOL     MW   32   0.945   1.357   1.019  0.2312  0.1484  0.5655
    9SOL     OW   33   1.073   0.464   1.381  0.2054  0.1291  0.2382
    9SOL    HW1   34   1.003   0.399   1.361  1.9760 -3.6562  2.1400
    9SOL    HW2   35   1.113   0.428   1.460  0.7394 -1.6376 -2.1266
    9SOL     MW   36   1.069   0.450   1.389  0.5095 -0.6035  0.1771
   10SOL     OW   37   0.253   0.789   0.425  0.0651 -0.1093 -0.1421
   10SOL    HW1   38   0.343   0.806   0.408  2.2337  0.6392 -0.3702
   10SOL    HW2   39   0.237   0.829   0.512 -2.3965  0.2496  1.2109
   10SOL     MW   40   0.263   0.797   0.434  0.0264  0.0368  0.0064
   11SOL     OW   41   0.778   1.146   1.665 -0.0411  0.6106  0.0972
   11SOL    HW1   42   0.806   1.126   1.758 -1.0299  0.5353 -0.8185
   11SOL    HW2   43   0.768   1.060   1.625  1.6232  3.8887  2.3520
   11SOL     MW   44   0.780   1.132   1.672  0.0480  1.0332  0.2738
   12SOL     OW   45   0.014   1.055   0.863 -0.5658  0.5435  0.5096
   12SOL    HW1   46   0.049   1.125   0.922  0.0498 -3.8073  0.5309
   12SOL    HW2   47  -0.044   1.099   0.800 -1.4589 -5.3670 -2.1607
   12SOL     MW   48   0.011   1.070   0.863 -0.6024 -0.8104  0.1601
   13SOL     OW   49   1.845   1.417   1.320 -0.4126 -0.2046  0.1247
   13SOL    HW1   50   1.876   1.378   1.242 -0.8319  0.0698 -0.2871
   13SOL    HW2   51   1.851   1.517   1.309  1.1799  1.5234  0.1998
   13SOL     MW   52   1.850   1.425   1.308 -0.2578  0.0596  0.0803
   14SOL     OW   53   0.587   0.327   1.812  0.2601  0.1624 -0.3538
   14SOL    HW1   54   0.577   0.259   1.743 -0.6712  0.1322  0.9370
   14SOL    HW2   55   0.676   0.321   1.849  2.2106 -2.0548 -1.1650
   14SOL     MW   56   0.597   0.317   1.808  0.3945 -0.1341 -0.2905
   15SOL     OW   57   1.928   0.514   0.976 -0.6743 -0.5102  0.2608
   15SOL    HW1   58   1.948   0.547   1.068  0.2075 -0.7154  0.6732
   15SOL    HW2   59   2.016   0.484   0.953 -0.8347  0.1371 -0.3069
   15SOL     MW   60   1.942   0.514   0.985 -0.5791 -0.4519  0.2403
   16SOL     OW   61   0.254   1.792   0.324  0.4803  0.7757  0.0883
   16SOL    HW1   62   0.330   1.736   0.350 -1.1072 -1.0128 -1.3552
   16SOL    HW2   63   0.264   1.873   0.370  1.1881  0.3242 -2.0809
   16SOL     MW   64   0.266   1.795   0.334  0.3642  0.4802 -0.3883
   17SOL     OW   65   1.004   0.848   1.493  0.1555  0.2117 -0.0403
   17SOL    HW1   66   1.049   0.829   1.575  0.1854  0.5489  0.6551
   17SOL    HW2   67   0.910   0.850   1.504  1.3764 -1.1562 -0.4173
   17SOL     MW   68   0.997   0.846   1.505  0.3205  0.0757  0.0017
   18SOL     OW   69   0.090   1.584   0.417 -0.0242  0.1034 -0.7511
   18SOL    HW1   70   0.139   1.655   0.373  1.1368  0.4563  0.2356
   18SOL    HW2   71   0.066   1.519   0.345  1.8218 -0.0838 -3.0722
   18SOL     MW   72   0.094   1.585   0.402  0.3725  0.1253 -0.9272
   19SOL     OW   73   0.083   1.296   1.008  0.1246 -0.1110  0.4591
   19SOL    HW1   74   0.131   1.356   0.947 -1.0779  0.1004 -0.0179
   19SOL    HW2   75  -0.005   1.336   1.013 -2.1842  1.0190 -2.1104
   19SOL     MW   76   0.077   1.309   1.000 -0.3387  0.0660  0.0572
   20SOL     OW   77   0.414   2.125   1.288 -0.3317  0.0407 -0.7775
   20SOL    HW1   78   0.365   2.060   1.234 -1.1206  1.2560  0.9865
   20SOL    HW2   79   0.345   2.157   1.354 -0.9355 -0.9919 -2.1633
   20SOL     MW   80   0.398   2.121   1.289 -0.5155  0.0648 -0.7276
   21SOL     OW   81   0.521   0.818   0.377 -0.1562 -0.3111 -0.2492
   21SOL    HW1   82   0.598   0.798   0.426  0.0212 -2.4157  0.7305
   21SOL    HW2   83   0.538   0.777   0.294  1.8618 -0.2134  1.0640
   21SOL     MW   84   0.533   0.810   0.373  0.1335 -0.5759  0.0533
   22SOL     OW   85   1.508   0.556   1.112 -0.3664 -0.4769 -0.2332
   22SOL    HW1   86   1.574   0.507   1.057 -3.3826  1.6161  0.3046
   22SOL    HW2   87   1.444   0.603   1.057 -0.4774  0.9340  0.0998
   22SOL     MW   88   1.508   0.555   1.097 -0.7790 -0.0146 -0.1183
   23SOL     OW   89   3.083   0.768   0.658  0.0009  0.0658 -0.8956
   23SOL    HW1   90   3.128   0.702   0.710 -0.6562  0.4958  0.2010
   23SOL    HW2   91   3.151   0.842   0.650 -1.8470  1.4153  0.7622
   23SOL     MW   92   3.098   0.769   0.664 -0.3296  0.3006 -0.5322
   24SOL     OW   93   1.996   2.207   0.093  0.4254  0.0467  0.6397
   24SOL    HW1   94   2.012   2.173   0.183 -0.7949  0.2122 -0.5452
   24SOL    HW2   95   2.041   2.148   0.034  1.5947 -0.9398 -0.4851
   24SOL     MW   96   2.004   2.195   0.097  0.4187 -0.0616  0.3350
   25SOL     OW   97   0.263   1.397   0.540 -0.2800 -0.6136  0.2654
   25SOL    HW1   98   0.198   1.468   0.508 -1.9372 -0.9585 -0.3380
   25SOL    HW2   99   0.333   1.415   0.487 -1.2844  2.8139  0.3259
   25SOL     MW  100   0.264   1.409   0.529 -0.6312 -0.2069  0.1938
   26SOL     OW  101   2.021   0.916   0.458  0.1643  0.2973  0.2873
   26SOL    HW1  102   1.934   0.952   0.461 -0.5523  3.1898 -4.3495
   26SOL    HW2  103   2.047   0.971   0.383 -2.0961 -2.7554 -0.1280
   26SOL     MW  104   2.013   0.928   0.449 -0.2285  0.2762 -0.3793
   27SOL     OW  105   2.061   1.388   0.249  0.3588  0.0695 -0.6250
   27SOL    HW1  106   1.968   1.386   0.274 -0.1353  1.4359 -0.2932
   27SOL    HW2  107   2.095   1.449   0.313 -0.8049 -1.3298 -0.3765
   27SOL     MW  108   2.053   1.396   0.261  0.1401  0.0651 -0.5485
   28SOL     OW  109   0.405   1.096   1.962  0.9293 -0.0467  0.2780
   28SOL    HW1  110   0.455   1.036   1.906  0.4805  0.2164 -1.9154
   28SOL    HW2  111   0.361   1.050   2.037 -3.4018  3.8997 -0.1932
   28SOL     MW  112   0.406   1.082   1.964  0.2986  0.5087 -0.0736
   29SOL     OW  113   0.277   1.433   0.819  0.3752  0.0842  0.2400
   29SOL    HW1  114   0.271   1.526   0.798  0.7087 -1.0041  2.2595
   29SOL    HW2  115   0.266   1.398   0.732 -1.4785 -0.3468  1.0266
   29SOL     MW  116   0.275   1.440   0.805  0.1746 -0.1163  0.6102
   30SOL     OW  117   0.857   1.141   1.233 -0.2743  0.6763 -0.2826
   30SOL    HW1  118   0.778   1.178   1.279 -0.5389  0.3281 -0.6929
   30SOL    HW2  119   0.928   1.144   1.303 -1.3207  0.1733  2.0428
   30SOL     MW  120   0.856   1.146   1.248 -0.4473  0.5640 -0.0299
   31SOL     OW  121   0.385   0.220   0.165 -0.0217 -0.9183 -0.4775
   31SOL    HW1  122   0.402   0.154   0.232  0.8113 -1.0135  0.1251
   31SOL    HW2  123   0.368   0.167   0.089  0.1981 -4.4630 -1.1169
   31SOL     MW  124   0.385   0.204   0.164  0.1172 -1.3985 -0.4823
   32SOL     OW  125   2.766   1.022   1.140  0.1123 -0.3034  0.2042
   32SOL    HW1  126   2.694   0.963   1.118 -0.2694  3.3429 -0.2432
   32SOL    HW2  127   2.849   0.971   1.133 -0.3561 -1.1147  1.9406
   32SOL     MW  128   2.768   1.008   1.136  0.0001  0.0706  0.3743
   33SOL     OW  129   1.794   1.339   0.357  0.0877 -0.7713  0.3239
   33SOL    HW1  130   1.801   1.257   0.407  0.4762 -0.2979  1.9161
   33SOL    HW2  131   1.755   1.402   0.420  1.8374  0.6848  1.2172
   33SOL     MW  132   1.790   1.337   0.372  0.3698 -0.5167  0.6518
   34SOL     OW  133   1.217   1.879   1.106  0.0006 -0.4805  0.2707
   34SOL    HW1  134   1.123   1.916   1.118  1.6608  0.0303 -1.9798
   34SOL    HW2  135   1.260   1.870   1.192 -2.9575  1.5824 -0.2671
   34SOL     MW  136   1.210   1.883   1.119 -0.1706 -0.1409 -0.0972
   35SOL     OW  137   0.355   0.126   1.831  0.1480 -0.0308  0.8283
   35SOL    HW1  138   0.354   0.095   1.922  1.6328  0.7301 -1.2714
   35SOL    HW2  139   0.365   0.044   1.774  1.4651  1.0084  0.7697
   35SOL     MW  140   0.356   0.111   1.835  0.5177  0.2067  0.5436
   36SOL     OW  141   1.841   1.917   0.472 -0.0975  0.2896  0.1071
   36SOL    HW1  142   1.880   1.935   0.391 -2.8962 -3.5287  1.1166
   36SOL    HW2  143   1.890   1.842   0.497  0.8300 -1.7195  0.2454
   36SOL     MW  144   1.853   1.909   0.465 -0.3444 -0.4792  0.2585
   37SOL     OW  145   1.773   2.022   1.055  0.0185 -0.6052  0.4245
   37SOL    HW1  146   1.716   1.978   0.991 -1.9567 -4.6040  0.2584
   37SOL    HW2  147   1.710   2.079   1.105  1.0330  0.6162  0.5233
   37SOL     MW  148   1.757   2.023   1.053 -0.1082 -0.9717  0.4156
   38SOL     OW  149   2.822   0.923   0.165  0.6082 -0.3082 -0.1092
   38SOL    HW1  150   2.869   0.925   0.250  0.1799  1.8773  0.8551
   38SOL    HW2  151   2.879   0.901   0.095 -0.6434  1.7125 -1.5952
   38SOL     MW  152   2.836   0.920   0.167  0.3866  0.2468 -0.1781
   39SOL     OW  153   1.397   0.619   0.803 -0.2708  0.1935 -0.0540
   39SOL    HW1  154   1.405   0.525   0.817 -1.5755 -1.0245 -0.7371
   39SOL    HW2  155   1.305   0.645   0.820 -0.0149  0.7863 -1.0659
   39SOL     MW  156   1.386   0.610   0.807 -0.4092  0.1110 -0.2776
   40SOL     OW  157   1.198   1.886   0.254 -0.2971  0.2103  0.4808
   40SOL    HW1  158   1.243   1.823   0.309 -0.3695  0.2837 -1.8295
   40SOL    HW2  159   1.198   1.966   0.307  0.3585  1.4119 -0.3382
   40SOL     MW  160   1.204   1.888   0.268 -0.2202  0.3785  0.0679
   41SOL     OW  161   0.607   0.482   1.563  0.0330 -0.3138 -0.2456
   41SOL    HW1  162   0.699   0.502   1.557 -0.8422  1.3490  1.3830
   41SOL    HW2  163   0.603   0.431   1.647 -0.0146 -2.0865  0.2531
   41SOL     MW  164   0.618   0.478   1.573 -0.0887 -0.3283  0.0351
   42SOL     OW  165   1.253   2.990   2.001 -0.1438  0.1196  0.6348
   42SOL    HW1  166   1.164   2.968   2.018 -0.3784  1.3157 -2.1723
   42SOL    HW2  167   1.307   2.909   1.997 -0.4265  0.7796  1.6698
   42SOL     MW  168   1.248   2.977   2.003 -0.2121  0.3645  0.4010
   43SOL     OW  169   1.527   0.150   1.741  0.5023 -0.1626  0.4282
   43SOL    HW1  170   1.552   0.133   1.653 -1.2203 -0.7752  1.5432
   43SOL    HW2  171   1.450   0.094   1.728  2.0227 -2.3915 -0.6594
   43SOL     MW  172   1.520   0.141   1.728  0.4756 -0.5375  0.4318
   44SOL     OW  173   1.249   0.746   1.089 -0.1949 -0.0211  0.0152
   44SOL    HW1  174   1.243   0.844   1.063 -0.6213  0.6840 -0.8468
   44SOL    HW2  175   1.238   0.740   1.185  0.1479 -0.5087  0.6590
   44SOL     MW  176   1.247   0.758   1.098 -0.2059  0.0076 -0.0136
   45SOL     OW  177   1.139   0.721   0.779 -0.3561 -0.3462 -0.7265
   45SOL    HW1  178   1.088   0.686   0.845  1.7587 -0.8314 -2.1977
   45SOL    HW2  179   1.097   0.694   0.702 -1.2227 -1.0070  1.3063
   45SOL     MW  180   1.127   0.713   0.777 -0.1914 -0.4974 -0.6524
   46SOL     OW  181   0.541   1.189   0.538  0.0694  0.4400 -0.2485
   46SOL    HW1  182   0.489   1.213   0.461  1.0101 -0.8629  2.6299
   46SOL    HW2  183   0.616   1.144   0.506 -0.1886  2.7529  0.2208
   46SOL     MW  184   0.544   1.186   0.524  0.1594  0.5733  0.1932
   47SOL     OW  185   0.190   1.945   1.780 -0.6880  0.3866  0.0415
   47SOL    HW1  186   0.236   1.857   1.756 -2.5435  1.3194 -2.6578
   47SOL    HW2  187   0.165   1.931   1.875 -0.2486 -0.7534 -1.6765
   47SOL     MW  188   0.192   1.932   1.790 -0.8748  0.3593 -0.5413
   48SOL     OW  189   1.038   0.589   1.019  0.4704 -0.0232 -0.0434
   48SOL    HW1  190   0.986   0.586   1.098 -1.3504 -2.8402  0.3188
   48SOL    HW2  191   1.119   0.638   1.043 -1.5741 -1.4149  4.1789
   48SOL     MW  192   1.042   0.595   1.033 -0.0395 -0.5785  0.5615
   49SOL     OW  193   1.793   0.755   1.538  0.0580  0.4300  0.2151
   49SOL    HW1  194   1.725   0.749   1.611 -3.4270 -0.2992  0.9376
   49SOL    HW2  195   1.858   0.683   1.541  1.4928 -0.8986 -2.1750
   49SOL     MW  196   1.792   0.745   1.548 -0.2125  0.1585 -0.0049
   50SOL     OW  197   1.171   1.059   0.498  0.2343 -0.1547 -0.0562
   50SOL    HW1  198   1.163   1.127   0.566 -1.1144  1.0925  0.2940
   50SOL    HW2  199   1.233   0.991   0.523  0.3866  1.6385 -0.2618
   50SOL     MW  200   1.178   1.059   0.510  0.0764  0.2464 -0.0371
   51SOL     OW  201   0.353   2.883   0.946 -0.4201  0.4053 -0.7100
   51SOL    HW1  202   0.440   2.846   0.950 -0.8375  2.1566  0.3744
   51SOL    HW2  203   0.340   2.914   1.034 -0.9141  1.5137 -1.8057
   51SOL     MW  204   0.363   2.882   0.958 -0.5404  0.7826 -0.7115
   52SOL     OW  205   0.822   1.798   0.408  0.1947  0.3165  0.2806
   52SOL    HW1  206   0.785   1.885   0.422  0.0965 -1.3963  3.7869
   52SOL    HW2  207   0.855   1.794   0.319  0.3448 -1.6042  1.8174
   52SOL     MW  208   0.821   1.809   0.398  0.2016 -0.1629  0.9460
   53SOL     OW  209   0.504   2.149   0.603 -0.6004 -0.0069  0.3030
   53SOL    HW1  210   0.421   2.137   0.566  2.6806 -0.8736 -1.9675
   53SOL    HW2  211   0.501   2.246   0.583  0.7877  1.2201  1.3814
   53SOL     MW  212   0.493   2.160   0.596  0.0156  0.0406  0.1457
   54SOL     OW  213   2.188   0.835   0.855 -0.1303  0.5992 -0.1992
   54SOL    HW1  214   2.194   0.879   0.769  0.2745 -0.7720 -2.8643
   54SOL    HW2  215   2.092   0.808   0.861 -1.8621  1.4600 -3.0230
   54SOL     MW  216   2.176   0.837   0.844 -0.3054  0.5319 -0.9234
   55SOL     OW  217   0.575   1.481   1.596 -0.2241 -0.1754  0.7194
   55SOL    HW1  218   0.522   1.526   1.528 -0.1175  3.1896  1.3319
   55SOL    HW2  219   0.648   1.443   1.547  1.8906  0.1952 -0.0324
   55SOL     MW  220   0.578   1.482   1.580  0.0690  0.3175  0.7010
   56SOL     OW  221   0.547   0.756   0.090 -0.1934 -0.0542 -0.0787
   56SOL    HW1  222   0.555   0.830   0.036 -2.3902  2.1555  1.7541
   56SOL    HW2  223   0.457   0.723   0.072 -2.0038  1.2225  1.4214
   56SOL     MW  224   0.536   0.761   0.081 -0.7221  0.4058  0.3610
   57SOL     OW  225   1.257   1.222   1.193 -0.0616 -0.0351 -0.4309
   57SOL    HW1  226   1.341   1.223   1.142 -1.4316  0.7539 -0.4015
   57SOL    HW2  227   1.290   1.215   1.282 -0.0288 -0.1841  0.1612
   57SOL     MW  228   1.272   1.221   1.198 -0.2380  0.0493 -0.3489
   58SOL     OW  229   0.562   1.153   1.293 -0.3681  0.1110  0.5168
   58SOL    HW1  230   0.550   1.243   1.259  0.5645 -0.2327  0.7595
   58SOL    HW2  231   0.557   1.158   1.392 -0.4949 -0.3610  2.5691
   58SOL     MW  232   0.560   1.165   1.302 -0.2618  0.0034  0.8196
   59SOL     OW  233   1.570   1.653   0.367 -0.4832  0.7182 -0.1104
   59SOL    HW1  234   1.617   1.699   0.430 -0.1694  0.0320 -2.3804
   59SOL    HW2  235   1.484   1.683   0.385  0.1599  1.4440 -1.3291
   59SOL     MW  236   1.565   1.663   0.378 -0.3570  0.7234 -0.5707
   60SOL     OW  237   0.078   0.210   1.698  0.7264 -0.1462 -0.3598
   60SOL    HW1  238  -0.017   0.220   1.710 -1.8569  0.7822  1.7533
   60SOL    HW2  239   0.108   0.142   1.757 -1.9641 -1.5678 -1.1460
   60SOL     MW  240   0.069   0.202   1.707  0.0306 -0.2113 -0.1848
   61SOL     OW  241   2.043   1.456   3.077  0.0689 -0.0953 -0.6469
   61SOL    HW1  242   2.040   1.476   3.173  0.5735  0.0031 -0.2977
   61SOL    HW2  243   2.133   1.420   3.056  1.3388  1.4289 -2.2369
   61SOL     MW  244   2.054   1.454   3.087  0.3030  0.1188 -0.8106
   62SOL     OW  245   0.628   1.702   0.622 -0.8839  0.4442  0.3212
   62SOL    HW1  246   0.714   1.702   0.592  0.8114  3.0087 -1.7854
   62SOL    HW2  247   0.602   1.605   0.644  0.7806 -0.3809 -0.0131
   62SOL     MW  248   0.636   1.689   0.621 -0.4406  0.6737 -0.0008
   63SOL     OW  249   1.651   0.739   0.708 -0.1020 -0.0984 -0.0173
   63SOL    HW1  250   1.638   0.798   0.636 -0.9493 -0.0537  0.0888
   63SOL    HW2  251   1.561   0.718   0.734 -0.3400 -0.2046 -0.9424
   63SOL     MW  252   1.637   0.744   0.702 -0.2452 -0.1065 -0.1253
   64SOL     OW  253   0.264   1.701   0.723  0.2107  0.0551 -0.2666
   64SOL    HW1  254   0.336   1.763   0.744  0.9522 -0.8075  0.1514
   64SOL    HW2  255   0.190   1.755   0.707 -2.6788  1.6268 -0.5014
   64SOL     MW  256   0.264   1.716   0.724 -0.0727  0.1487 -0.2424
   65SOL     OW  257   1.542   2.338   0.364  0.1379  0.2005 -0.1473
   65SOL    HW1  258   1.637   2.319   0.374  0.3455  1.0408  0.2463
   65SOL    HW2  259   1.510   2.393   0.446  1.7434  0.7924  1.3001
   65SOL     MW  260   1.550   2.343   0.376  0.3771  0.3895  0.0956
   66SOL     OW  261   0.303   0.528   0.521  0.2769  0.6143  0.4700
   66SOL    HW1  262   0.364   0.477   0.469 -2.1832  1.2947  0.7482
   66SOL    HW2  263   0.279   0.610   0.475  1.0326  0.0553 -3.6485
   66SOL     MW  264   0.308   0.532   0.508  0.0520  0.6303 -0.0367
   67SOL     OW  265   1.456   0.098   2.043 -0.6323 -0.3494 -0.3247
   67SOL    HW1  266   1.498   0.101   1.957 -0.5652  1.1668 -0.4946
   67SOL    HW2  267   1.391   0.032   2.035  1.9378  0.2473 -0.6082
   67SOL     MW  268   1.453   0.090   2.031 -0.2844 -0.0706 -0.3845
   68SOL     OW  269   0.617   0.089   2.989  0.2751  0.3009 -0.3996
   68SOL    HW1  270   0.632   0.120   2.899  0.7449 -0.3942 -0.7603
   68SOL    HW2  271   0.627   0.174   3.030 -0.0700 -1.2346  0.5822
   68SOL     MW  272   0.621   0.104   2.983  0.2916  0.0066 -0.3177
   69SOL     OW  273   1.000   0.194   1.977  0.6020 -0.2655  0.5879
   69SOL    HW1  274   1.090   0.231   1.992  1.2604 -1.1461 -1.6332
   69SOL    HW2  275   1.005   0.096   2.005 -0.3192 -1.1950  0.5360
   69SOL     MW  276   1.012   0.186   1.982  0.5673 -0.5044  0.2880
   70SOL     OW  277   0.557   1.745   1.120 -0.7894 -0.8163  0.4162
   70SOL    HW1  278   0.608   1.678   1.164  0.9570  1.2629 -2.7399
   70SOL    HW2  279   0.623   1.761   1.052  1.2063  0.7321 -1.4130
   70SOL     MW  280   0.572   1.738   1.117 -0.2957 -0.3377 -0.2415
   71SOL     OW  281   1.709   0.584   1.345 -0.6561 -0.7414  0.2792
   71SOL    HW1  282   1.739   0.651   1.410 -0.1574  1.0393 -0.0851
   71SOL    HW2  283   1.639   0.632   1.308 -0.3411 -1.8404  0.0952
   71SOL     MW  284   1.704   0.599   1.349 -0.5487 -0.6514  0.2069
   72SOL     OW  285   0.782   1.759   0.964 -0.0781  0.1039 -0.2947
   72SOL    HW1  286   0.753   1.810   0.883 -0.8666  0.3915 -1.1017
   72SOL    HW2  287   0.760   1.667   0.947  1.8459  0.6677 -1.2308
   72SOL     MW  288   0.775   1.754   0.951  0.0717  0.2163 -0.5247
   73SOL     OW  289   1.201   0.700   1.362 -0.5981 -0.1827  0.2576
   73SOL    HW1  290   1.153   0.617   1.372 -1.0982  0.3280  0.5291
   73SOL    HW2  291   1.138   0.771   1.381 -2.3007 -1.3615 -1.2849
   73SOL     MW  292   1.186   0.698   1.366 -0.8888 -0.2709  0.0899
   74SOL     OW  293   2.884   0.193   0.959 -0.2976 -0.2193 -0.0571
   74SOL    HW1  294   2.866   0.125   0.895 -0.4660  0.1690 -2.8474
   74SOL    HW2  295   2.813   0.254   0.944 -0.1089 -1.4795 -1.6850
   74SOL     MW  296   2.872   0.192   0.948 -0.2949 -0.3343 -0.6401
   75SOL     OW  297   1.631   1.396   0.142  0.7353  0.0781  0.0472
   75SOL    HW1  298   1.667   1.399   0.229  2.4572  0.2917 -0.6021
   75SOL    HW2  299   1.668   1.311   0.103 -0.8544 -2.5216 -1.3719
   75SOL     MW  300   1.641   1.385   0.148  0.7528 -0.2367 -0.2257
   76SOL     OW  301   3.026   0.627   0.441 -0.1082 -0.2824 -0.1358
   76SOL    HW1  302   3.062   0.674   0.517 -0.0817  1.0266  0.7182
   76SOL    HW2  303   3.092   0.562   0.419  0.2309  0.7057  3.6381
   76SOL     MW  304   3.039   0.624   0.448 -0.0600  0.0207  0.4748
   77SOL     OW  305   0.812   0.532   0.392 -0.4396 -0.2245 -0.7978
   77SOL    HW1  306   0.772   0.542   0.305 -0.2951  0.4857  0.7567
   77SOL    HW2  307   0.765   0.463   0.437 -1.4584  2.3052  0.0623
   77SOL     MW  308   0.801   0.524   0.387 -0.5549  0.2030 -0.4792
   78SOL     OW  309   0.753   0.828   1.244 -0.0731  0.7563  0.1181
   78SOL    HW1  310   0.674   0.834   1.196  3.0733  0.4120  1.3217
   78SOL    HW2  311   0.794   0.913   1.231  0.9744 -0.9037  1.2668
   78SOL     MW  312   0.748   0.840   1.236  0.4803  0.4918  0.4285
   79SOL     OW  313   1.926   1.693   0.618 -0.2283 -0.2861  0.1172
   79SOL    HW1  314   1.842   1.646   0.606 -2.8285 -0.6960  0.8617
   79SOL    HW2  315   1.940   1.707   0.708 -2.5882 -1.4077 -3.7482
   79SOL     MW  316   1.917   1.689   0.629 -0.8828 -0.4882 -0.2945
   80SOL     OW  317   0.123   0.998   0.319 -0.3197  0.1068  0.0806
   80SOL    HW1  318   0.028   0.970   0.341 -2.2582 -3.2315 -2.2153
   80SOL    HW2  319   0.175   0.918   0.349  0.2954 -1.5439 -1.4569
   80SOL     MW  320   0.117   0.983   0.326 -0.4943 -0.5514 -0.4252
   81SOL     OW  321   1.911   1.924   0.204 -0.3910 -0.0494 -0.1205
   81SOL    HW1  322   1.857   1.838   0.198  0.7166 -3.6160  0.7280
   81SOL    HW2  323   1.840   1.992   0.214  0.7165 -1.7037 -0.6171
   81SOL     MW  324   1.895   1.921   0.205 -0.0988 -0.7383 -0.0741
   82SOL     OW  325   0.823   1.068   0.518  0.1315  0.5756 -0.3476
   82SOL    HW1  326   0.835   1.095   0.428 -1.1179 -0.9540 -3.5101
   82SOL    HW2  327   0.807   0.979   0.512 -1.0554  3.8165  1.8276
   82SOL     MW  328   0.822   1.060   0.506 -0.1899  0.8014 -0.4778
   83SOL     OW  329   0.202   0.608   1.291 -0.0762  0.2361 -0.0493
   83SOL    HW1  330   0.158   0.697   1.300 -3.0490  2.1605 -1.0956
   83SOL    HW2  331   0.244   0.609   1.379 -2.2932  0.7631  1.5822
   83SOL     MW  332   0.202   0.620   1.304 -0.7609  0.5595  0.0279
   84SOL     OW  333   0.071   0.197   0.904  0.2570  0.2153  0.1217
   84SOL    HW1  334   0.005   0.261   0.883  1.1669 -1.8967 -0.1683
   84SOL    HW2  335   0.046   0.170   0.995  0.4021 -1.6929  0.1425
   84SOL     MW  336   0.059   0.202   0.913  0.3962 -0.3151  0.0862
   85SOL     OW  337   0.477   0.453   0.763  0.1045 -0.3088 -0.0841
   85SOL    HW1  338   0.440   0.462   0.680  1.2045  0.8864 -0.1178
   85SOL    HW2  339   0.480   0.355   0.766 -1.0501  0.3116 -0.8888
   85SOL     MW  340   0.473   0.441   0.752  0.0973 -0.0692 -0.1947
   86SOL     OW  341   1.228   0.388   1.066 -0.4521 -0.0923  0.4111
   86SOL    HW1  342   1.144   0.430   1.040  1.4193  1.0858 -0.1310
   86SOL    HW2  343   1.235   0.405   1.159 -0.2452  1.1112 -1.6936
   86SOL     MW  344   1.218   0.396   1.074 -0.1779  0.2219  0.0619
   87SOL     OW  345   1.153   1.472   1.256 -0.3141 -0.3572  0.0039
   87SOL    HW1  346   1.163   1.529   1.176 -1.3686  1.7818 -0.8570
   87SOL    HW2  347   1.186   1.383   1.223 -0.9954 -0.4385 -0.6557
   87SOL     MW  348   1.158   1.468   1.241 -0.5431 -0.0857 -0.1967
   88SOL     OW  349   1.223   1.012   1.013 -0.1661  0.1276 -0.9106
   88SOL    HW1  350   1.315   0.990   0.988  0.7251  0.9173 -1.5645
   88SOL    HW2  351   1.218   1.086   1.080  0.0855 -0.9528 -0.2584
   88SOL     MW  352   1.234   1.019   1.018 -0.0153  0.0893 -0.9108
   89SOL     OW  353   1.758   0.669   0.291 -0.3837  0.0733 -0.3501
   89SOL    HW1  354   1.800   0.603   0.352 -0.1249 -1.5477  1.5082
   89SOL    HW2  355   1.837   0.716   0.261 -1.4474  2.3629 -0.6894
   89SOL     MW  356   1.774   0.666   0.295 -0.4899  0.1615 -0.1497
   90SOL     OW  357   0.686   1.177   2.835  0.4775 -0.3470 -0.0885
   90SOL    HW1  358   0.729   1.097   2.834  0.4856  0.7111 -0.7917
   90SOL    HW2  359   0.677   1.208   2.928 -1.2326  2.2382  1.9341
   90SOL     MW  360   0.690   1.170   2.847  0.2530  0.1337  0.0856
   91SOL     OW  361   2.234   0.669   0.553  0.1064 -0.6821  0.1351
   91SOL    HW1  362   2.207   0.740   0.493  0.9107  0.2215 -2.3432
   91SOL    HW2  363   2.221   0.583   0.510  0.3228 -0.7064  2.0221
   91SOL     MW  364   2.229   0.667   0.539  0.2411 -0.5661  0.0571
   92SOL     OW  365   1.623   0.899   0.459  0.1644  0.2546  0.3949
   92SOL    HW1  366   1.526   0.894   0.493  0.6241  0.9039  1.1305
   92SOL    HW2  367   1.647   0.810   0.424  0.1117 -0.0755  0.7514
   92SOL     MW  368   1.613   0.887   0.459  0.2181  0.2967  0.5390
   93SOL     OW  369   1.032   0.301   0.368 -0.1164 -0.0337  0.2046
   93SOL    HW1  370   0.971   0.372   0.357 -0.8789 -0.5905  1.0963
   93SOL    HW2  371   1.087   0.308   0.287 -0.8564  0.4214 -2.5679
   93SOL     MW  372   1.031   0.311   0.356 -0.3146 -0.0471 -0.0436
   94SOL     OW  373   1.910   1.354   1.587 -0.4151  0.2544  0.2727
   94SOL    HW1  374   1.904   1.367   1.489 -0.4295 -3.0549 -0.0299
   94SOL    HW2  375   1.891   1.265   1.609  2.2973  2.3812 -1.3402
   94SOL     MW  376   1.907   1.344   1.577 -0.0592  0.0984  0.0200
   95SOL     OW  377   0.713   1.498   0.976 -0.1554 -0.0721  0.4517
   95SOL    HW1  378   0.804   1.455   0.981 -1.2228 -1.2994  0.3785
   95SOL    HW2  379   0.657   1.422   0.986  1.5871  1.4732 -2.2722
   95SOL     MW  380   0.718   1.483   0.978 -0.0663 -0.0301  0.0826
   96SOL     OW  381   1.222   1.802   1.563  0.0493 -0.3341 -0.0189
   96SOL    HW1  382   1.132   1.759   1.589  0.5871 -2.1941  0.5937
   96SOL    HW2  383   1.259   1.740   1.503  1.7805 -3.1953 -0.2774
   96SOL     MW  384   1.215   1.788   1.559  0.3487 -0.9570  0.0278
   97SOL     OW  385   1.227   1.453   0.767  0.6374  0.5518  0.7214
   97SOL    HW1  386   1.240   1.498   0.851  1.0808  0.0938 -0.3084
   97SOL    HW2  387   1.136   1.481   0.743 -2.2369  1.7392  1.3757
   97SOL     MW  388   1.216   1.463   0.775  0.3167  0.6480  0.6719
   98SOL     OW  389   1.483   1.292   1.056 -0.0774  0.4616  0.1178
   98SOL    HW1  390   1.496   1.358   1.121 -0.7202 -0.9887 -3.1973
   98SOL    HW2  391   1.524   1.341   0.987  0.3501 -1.5691 -1.3187
   98SOL     MW  392   1.490   1.307   1.056 -0.1058  0.0023 -0.5091
   99SOL     OW  393   1.429   0.382   1.294 -0.4371  0.4661  0.1074
   99SOL    HW1  394   1.476   0.452   1.246 -3.3482  1.4887 -0.8650
   99SOL    HW2  395   1.450   0.397   1.389  1.5939 -0.1570  2.1268
   99SOL     MW  396   1.438   0.393   1.300 -0.5532  0.5188  0.2456
  100SOL     OW  397   1.045   1.125   1.453  0.0476  0.4084 -0.5854
  100SOL    HW1  398   0.995   1.128   1.532  3.1831  2.0426  1.6177
  100SOL    HW2  399   1.042   1.032   1.437  1.2574 -0.4625  0.1571
  100SOL     MW  400   1.038   1.113   1.461  0.6209  0.5091 -0.1967
  101SOL     OW  401   0.552   1.069   0.259 -0.2854 -0.1210  0.0733
  101SOL    HW1  402   0.533   0.991   0.315  1.7243  0.8094  0.3296
  101SOL    HW2  403   0.497   1.054   0.176 -0.8815 -0.2908  0.6935
  101SOL     MW  404   0.542   1.057   0.256 -0.0989 -0.0206  0.1890
  102SOL     OW  405   2.974   0.653   0.950 -0.6693 -0.1557 -0.8894
  102SOL    HW1  406   3.017   0.737   0.986  0.3942 -0.7489  1.5361
  102SOL    HW2  407   3.013   0.594   1.016 -1.2459 -0.0138  2.8732
  102SOL     MW  408   2.985   0.656   0.964 -0.6051 -0.2153 -0.0729
  103SOL     OW  409   1.710   0.374   1.843  0.6537  0.2415 -0.0591
  103SOL    HW1  410   1.658   0.294   1.812  0.1821 -1.2449 -0.3510
  103SOL    HW2  411   1.787   0.332   1.889  4.2932  0.7580  1.3909
  103SOL     MW  412   1.714   0.358   1.845  1.0717  0.1136  0.0937
  104SOL     OW  413   0.172   1.790   1.512 -0.0580 -0.2193  0.5404
  104SOL    HW1  414   0.109   1.710   1.525 -1.6975 -0.0844 -2.4521
  104SOL    HW2  415   0.237   1.778   1.446 -2.4266 -0.1812  0.7845
  104SOL     MW  416   0.172   1.778   1.505 -0.5868 -0.1965  0.1777
  105SOL     OW  417   0.062   1.214   0.502 -1.3524 -0.9644  0.1550
  105SOL    HW1  418   0.116   1.152   0.447 -0.1729  0.3809  1.0699
  105SOL    HW2  419   0.123   1.286   0.520 -0.6607 -2.4544 -0.1233
  105SOL     MW  420   0.077   1.215   0.497 -1.1055 -0.9835  0.2390
  106SOL     OW  421   0.854   0.358   0.998  0.2316  0.6964  0.3272
  106SOL    HW1  422   0.810   0.439   0.966  1.6746  2.2862  0.0733
  106SOL    HW2  423   0.912   0.335   0.927 -0.3301  3.4639 -0.7069
  106SOL     MW  424   0.856   0.366   0.984  0.3479  1.2713  0.1573
  107SOL     OW  425   0.815   2.163   2.980  0.1371 -0.2357  0.0497
  107SOL    HW1  426   0.740   2.133   2.931 -0.6766  2.8704  1.3201
  107SOL    HW2  427   0.796   2.132   3.069 -1.0259 -2.8963 -0.8878
  107SOL     MW  428   0.803   2.155   2.985 -0.1237 -0.1769  0.0936
  108SOL     OW  429   1.337   1.587   1.440  0.0675  0.1004  0.5697
  108SOL    HW1  430   1.245   1.548   1.422 -2.0140 -0.1018  3.1398
  108SOL    HW2  431   1.383   1.533   1.502  2.2878 -1.1179  1.3506
  108SOL     MW  432   1.331   1.575   1.446  0.0858 -0.0870  1.0119
  109SOL     OW  433   2.001   0.762   0.199  0.2282 -0.6282 -0.1736
  109SOL    HW1  434   2.038   0.807   0.119 -2.3274  1.2061  2.1121
  109SOL    HW2  435   2.066   0.751   0.270  0.2567  4.5118  1.5490
  109SOL     MW  436   2.014   0.766   0.198 -0.1052  0.2920  0.3552
  110SOL     OW  437   0.499   1.891   0.776  0.6255 -0.4166 -0.1855
  110SOL    HW1  438   0.567   1.837   0.731 -2.4846  0.4873 -0.0750
  110SOL    HW2  439   0.499   1.968   0.713  0.8490  2.7819 -1.5535
  110SOL     MW  440   0.508   1.894   0.762  0.2447  0.1247 -0.3514
  111SOL     OW  441   0.730   0.903   1.511  0.7607  0.7212  0.2393
  111SOL    HW1  442   0.730   0.868   1.421  1.8178 -0.0181 -0.0632
  111SOL    HW2  443   0.645   0.872   1.549 -0.5262 -0.7003 -2.1814
  111SOL     MW  444   0.719   0.894   1.504  0.7304  0.4361 -0.1200
  112SOL     OW  445   1.302   1.063   1.693 -0.2142  0.0500 -1.1439
  112SOL    HW1  446   1.239   1.136   1.692 -1.1325  2.1440  0.8893
  112SOL    HW2  447   1.248   0.986   1.720  1.3226 -0.0275  1.0201
  112SOL     MW  448   1.286   1.063   1.697 -0.1326  0.3161 -0.5901
  113SOL     OW  449   1.301   3.091   1.756 -0.4523  0.5546  0.3387
  113SOL    HW1  450   1.280   3.047   1.840  0.0471  0.4261 -0.9724
  113SOL    HW2  451   1.281   3.028   1.683 -1.9330  0.2056 -0.6190
  113SOL     MW  452   1.295   3.077   1.758 -0.5817  0.4916  0.0394
  114SOL     OW  453   0.466   2.831   1.939 -0.3274  0.4059  0.0101
  114SOL    HW1  454   0.409   2.898   1.975  0.1075  1.2462 -0.6168
  114SOL    HW2  455   0.437   2.835   1.852 -0.6241 -1.5077  2.3716
  114SOL     MW  456   0.454   2.841   1.932 -0.3092  0.2643  0.2390
  115SOL     OW  457   0.482   0.811   1.115 -0.1926  0.3609 -0.2567
  115SOL    HW1  458   0.507   0.719   1.131 -1.3515 -0.1797  1.4338
  115SOL    HW2  459   0.448   0.828   1.200  1.0754 -0.0312 -0.1862
  115SOL     MW  460   0.481   0.801   1.128 -0.1782  0.2378 -0.0243
  116SOL     OW  461   0.778   1.007   0.989 -0.7505 -0.6930  0.4416
  116SOL    HW1  462   0.822   1.030   0.907  4.2998  0.2580  0.9131
  116SOL    HW2  463   0.797   1.077   1.050  1.3697 -0.7474  1.2860
  116SOL     MW  464   0.787   1.020   0.986  0.1955 -0.5747  0.6152
  117SOL     OW  465   1.201   1.158   0.787 -0.2684  0.2087  0.2183
  117SOL    HW1  466   1.210   1.103   0.865 -1.8041 -0.1928 -2.4273
  117SOL    HW2  467   1.238   1.240   0.805 -1.6363  0.8446  0.3729
  117SOL     MW  468   1.207   1.161   0.800 -0.6515  0.2397 -0.1104
  118SOL     OW  469   3.032   2.902   1.693 -0.3376 -0.2962 -0.1637
  118SOL    HW1  470   3.087   2.936   1.761 -2.8170 -1.5939  1.0948
  118SOL    HW2  471   2.940   2.941   1.706  0.1441  0.4176 -0.0905
  118SOL     MW  472   3.027   2.912   1.704 -0.6012 -0.3732  0.0120
  119SOL     OW  473   0.473   1.398   1.210 -0.1113  0.7489 -0.0607
  119SOL    HW1  474   0.482   1.409   1.118  0.0618  2.6355  1.7822
  119SOL    HW2  475   0.382   1.372   1.225  2.8889  0.6799  0.1077
  119SOL     MW  476   0.463   1.396   1.200  0.3074  0.9887  0.2046
  120SOL     OW  477   0.202   0.687   1.016  1.0152 -0.1071  0.5875
  120SOL    HW1  478   0.220   0.595   1.037 -0.2219 -2.5395 -0.5490
  120SOL    HW2  479   0.255   0.730   1.085  2.4138 -2.2420  1.6379
  120SOL     MW  480   0.211   0.681   1.028  1.0365 -0.7097  0.5761
  121SOL     OW  481   1.825   1.089   1.697 -0.5945 -0.3253 -0.1266
  121SOL    HW1  482   1.742   1.064   1.741 -0.6904 -0.8448 -0.8021
  121SOL    HW2  483   1.831   1.043   1.611 -0.0189  0.3710 -1.6123
  121SOL     MW  484   1.815   1.080   1.692 -0.5312 -0.3020 -0.4118
  122SOL     OW  485   0.134   0.559   0.768 -0.4874  0.1285  0.6865
  122SOL    HW1  486   0.184   0.537   0.690  1.2081  0.4622  0.8980
  122SOL    HW2  487   0.187   0.601   0.835 -1.2486 -0.9876  0.4665
  122SOL     MW  488   0.148   0.562   0.767 -0.3641  0.0253  0.6854
  123SOL     OW  489   1.814   1.099   0.492 -0.3497  0.1240  0.4914
  123SOL    HW1  490   1.737   1.036   0.487 -0.7946  2.4153  0.5377
  123SOL    HW2  491   1.836   1.097   0.586 -1.9417 -1.0821 -1.9829
  123SOL     MW  492   1.807   1.091   0.504 -0.6184  0.2672  0.1710
  124SOL     OW  493   0.661   0.566   0.939  0.6025  0.1048  0.5524
  124SOL    HW1  494   0.594   0.530   0.876 -0.1874 -1.9362  0.0762
  124SOL    HW2  495   0.707   0.638   0.887 -0.2766  1.6197  0.0572
  124SOL     MW  496   0.658   0.571   0.924  0.3823  0.0354  0.4243
  125SOL     OW  497   0.687   1.758   1.704  0.3649  0.6011 -0.0742
  125SOL    HW1  498   0.629   1.701   1.658  0.2399 -0.6745  1.9896
  125SOL    HW2  499   0.639   1.843   1.706  2.2648 -0.9710 -1.9796
  125SOL     MW  500   0.673   1.762   1.698  0.5991  0.2254 -0.0533
  126SOL     OW  501   2.094   1.625   1.967 -0.2447  0.6228 -0.0827
  126SOL    HW1  502   2.164   1.682   1.930  0.8471  0.1399  1.2794
  126SOL    HW2  503   2.154   1.554   1.983 -0.4247  1.0033  0.6862
  126SOL     MW  504   2.111   1.623   1.964 -0.1244  0.6093  0.1985
  127SOL     OW  505   0.642   0.761   1.873  0.1923  0.3205 -0.4828
  127SOL    HW1  506   0.720   0.709   1.903  2.1427 -0.3484  0.5644
  127SOL    HW2  507   0.647   0.848   1.908 -0.9988 -0.0610 -1.6041
  127SOL     MW  508   0.653   0.766   1.882  0.2925  0.1819 -0.4926
  128SOL     OW  509   1.841   0.784   2.852  0.3001 -0.3398 -0.1315
  128SOL    HW1  510   1.820   0.767   2.759 -4.0133 -1.0242 -0.1306
  128SOL    HW2  511   1.775   0.855   2.880 -0.4746 -2.7815  1.2567
  128SOL     MW  512   1.829   0.791   2.844 -0.3712 -0.7523  0.0518
  129SOL     OW  513   1.578   0.960   0.206  0.7898 -0.7913  0.2229
  129SOL    HW1  514   1.528   0.882   0.201  0.3008 -3.3890  2.4676
  129SOL    HW2  515   1.608   0.962   0.297 -1.3345  1.1699 -0.8679
  129SOL     MW  516   1.576   0.950   0.217  0.4450 -0.8753  0.3752
  130SOL     OW  517   0.787   1.410   0.420  0.5686  0.0762 -0.3494
  130SOL    HW1  518   0.852   1.423   0.496 -0.7327  0.5015  0.1042
  130SOL    HW2  519   0.812   1.478   0.357  1.1049  0.1721  2.2104
  130SOL     MW  520   0.799   1.421   0.422  0.4677  0.1449  0.0482
  131SOL     OW  521   3.021   0.815   3.080 -0.3785  0.1675 -0.1074
  131SOL    HW1  522   3.004   0.874   3.004 -0.0379  0.3163  0.6496
  131SOL    HW2  523   3.111   0.837   3.123  2.7084 -1.8858 -2.0210
  131SOL     MW  524   3.030   0.826   3.076  0.0737 -0.0838 -0.2600
  132SOL     OW  525   2.806   0.132   1.225  0.1818  0.3509 -0.3407
  132SOL    HW1  526   2.842   0.138   1.139  1.6044 -2.1611  0.9072
  132SOL    HW2  527   2.711   0.130   1.219  1.4553 -2.1952 -0.4182
  132SOL     MW  528   2.799   0.132   1.213  0.5375 -0.3165 -0.1863
  133SOL     OW  529   1.057   0.152   1.707 -0.2543  0.4837 -0.1347
  133SOL    HW1  530   1.130   0.095   1.729 -2.5479 -0.8361 -0.5584
  133SOL    HW2  531   1.013   0.182   1.790 -0.9598  1.5271 -0.6507
  133SOL     MW  532   1.061   0.148   1.720 -0.6500  0.4473 -0.2587
  134SOL     OW  533   1.422   2.518   1.432  0.4913 -0.0599  0.0852
  134SOL    HW1  534   1.354   2.585   1.415 -0.8633  0.6428 -1.1916
  134SOL    HW2  535   1.446   2.536   1.525  0.3669 -0.8336 -1.6775
  134SOL     MW  536   1.416   2.530   1.442  0.2961 -0.0693 -0.3158
  135SOL     OW  537   3.018   1.023   2.871 -0.1779  0.6115 -0.5491
  135SOL    HW1  538   3.101   1.077   2.882  3.5010 -0.9507 -0.0946
  135SOL    HW2  539   2.951   1.078   2.914 -2.6419 -3.7700 -0.4213
  135SOL     MW  540   3.020   1.037   2.878 -0.0176 -0.1727 -0.4723
  136SOL     OW  541   0.260   2.031   0.869 -0.2588  0.5544  0.6580
  136SOL    HW1  542   0.187   1.968   0.857  0.7403  2.9899 -2.9651
  136SOL    HW2  543   0.330   1.981   0.832 -2.5201  0.5739  1.8606
  136SOL     MW  544   0.260   2.016   0.863 -0.4253  0.8783  0.3386
  137SOL     OW  545   0.734   2.048   0.522 -0.5775  0.2451  0.1544
  137SOL    HW1  546   0.760   2.027   0.611 -0.9401 -0.0335 -0.9807
  137SOL    HW2  547   0.648   2.094   0.542  0.8244  0.4712  3.7352
  137SOL     MW  548   0.726   2.051   0.537 -0.4404  0.2382  0.4771
  138SOL     OW  549   0.520   0.555   1.172  0.5091 -0.1850  0.0527
  138SOL    HW1  550   0.430   0.522   1.135 -1.4561  1.2989 -3.4217
  138SOL    HW2  551   0.581   0.549   1.103 -2.1906  1.7096  0.0509
  138SOL     MW  552   0.516   0.550   1.158 -0.1064  0.2608 -0.4060
  139SOL     OW  553   2.663   0.528   1.409 -0.0390  0.5657 -0.5948
  139SOL    HW1  554   2.747   0.494   1.378 -2.5086  0.1423 -0.2318
  139SOL    HW2  555   2.676   0.622   1.405  0.9877 -1.3327  1.2716
  139SOL     MW  556   2.676   0.536   1.404 -0.2294  0.2594 -0.3006
  140SOL     OW  557   0.838   0.377   2.099 -0.2292 -0.1825  0.2027
  140SOL    HW1  558   0.893   0.303   2.058  0.4711  0.0869 -0.2754
  140SOL    HW2  559   0.870   0.379   2.187  0.8655  0.7534 -0.2744
  140SOL     MW  560   0.849   0.367   2.105  0.0077 -0.0235  0.0767
  141SOL     OW  561   1.083   0.567   1.763 -0.2370 -0.9206  0.2715
  141SOL    HW1  562   1.134   0.497   1.734  0.7554  1.1022 -0.6096
  141SOL    HW2  563   1.123   0.647   1.722 -1.0190  1.6402  1.0120
  141SOL     MW  564   1.095   0.568   1.754 -0.2092 -0.3159  0.2529
  142SOL     OW  565   0.942   1.112   0.767 -0.3144  0.6969 -0.0505
  142SOL    HW1  566   0.913   1.085   0.678 -0.0344  1.1657 -0.4669
  142SOL    HW2  567   1.040   1.127   0.769  2.5213 -1.5963 -0.3232
  142SOL     MW  568   0.951   1.110   0.756  0.0967  0.4562 -0.1414
  143SOL     OW  569   1.784   0.774   1.098 -0.1627 -0.2578 -0.2406
  143SOL    HW1  570   1.826   0.767   1.011 -1.7123  0.3688 -0.8523
  143SOL    HW2  571   1.699   0.740   1.089  1.1476  2.5404  0.5337
  143SOL     MW  572   1.778   0.768   1.085 -0.1943  0.1941 -0.2192
  144SOL     OW  573   0.183   1.222   1.541 -0.1476 -0.1374 -0.1181
  144SOL    HW1  574   0.279   1.206   1.548  0.2601 -1.6622 -0.6786
  144SOL    HW2  575   0.161   1.247   1.635 -1.0156 -2.1269  2.1033
  144SOL     MW  576   0.192   1.223   1.555 -0.2083 -0.6011  0.1011
  145SOL     OW  577   0.297   0.425   1.062 -0.7611 -0.4254 -0.5314
  145SOL    HW1  578   0.273   0.356   1.128  2.3170 -0.4870 -3.4163
  145SOL    HW2  579   0.289   0.391   0.977  2.0924  0.7392  4.7827
  145SOL     MW  580   0.293   0.411   1.060  0.0215 -0.2799 -0.2109
  146SOL     OW  581   0.871   1.936   1.385 -0.3032 -0.3177 -0.1662
  146SOL    HW1  582   0.903   1.912   1.293 -0.3716 -0.9833  1.8561
  146SOL    HW2  583   0.781   1.922   1.374  4.2988  2.3207 -2.0190
  146SOL     MW  584   0.863   1.931   1.371  0.2950 -0.0574 -0.1438
  147SOL     OW  585   0.372   0.390   2.950  0.0483 -0.5478  0.3338
  147SOL    HW1  586   0.325   0.389   3.035  1.8171  1.6548  1.5363
  147SOL    HW2  587   0.314   0.450   2.896 -2.0071 -1.6468 -0.1949
  147SOL     MW  588   0.358   0.398   2.954  0.0105 -0.4022  0.4227
  148SOL     OW  589   0.111   0.866   1.351  0.4807 -0.0173 -0.5657
  148SOL    HW1  590   0.190   0.914   1.329 -0.7640 -4.5893 -0.2387
  148SOL    HW2  591   0.092   0.903   1.434  0.4561  1.8016  0.5460
  148SOL     MW  592   0.119   0.877   1.359  0.3133 -0.3806 -0.3759
  149SOL     OW  593   1.393   1.185   1.419  0.2176  0.1887 -0.8833
  149SOL    HW1  594   1.393   1.157   1.511 -2.2080  1.0434  0.4620
  149SOL    HW2  595   1.479   1.224   1.415  0.4431 -2.3722  1.8415
  149SOL     MW  596   1.405   1.186   1.430 -0.0727 -0.0364 -0.3463
  150SOL     OW  597   1.871   1.352   0.746  0.0331 -0.1178 -0.1641
  150SOL    HW1  598   1.889   1.261   0.766  0.9000  0.6436  1.2355
  150SOL    HW2  599   1.945   1.400   0.777  0.3967 -0.1668  0.0051
  150SOL     MW  600   1.883   1.346   0.753  0.1954 -0.0238  0.0429
  151SOL     OW  601   1.655   1.864   0.852 -0.2738  0.0723 -0.2331
  151SOL    HW1  602   1.617   1.894   0.770  0.9655  1.9595 -0.7723
  151SOL    HW2  603   1.592   1.802   0.880  4.9900 -2.0483  0.2485
  151SOL     MW  604   1.641   1.859   0.845  0.5842  0.0415 -0.2407
  152SOL     OW  605   0.765   1.339   1.473 -0.2154 -0.4945 -0.1205
  152SOL    HW1  606   0.767   1.274   1.540 -2.3391 -1.7825  1.2352
  152SOL    HW2  607   0.861   1.364   1.465  0.1137 -1.3485  2.6990
  152SOL     MW  608   0.778   1.334   1.481 -0.4522 -0.7771  0.4304
  153SOL     OW  609   2.634   1.283   0.766  0.2000 -0.0609 -0.0013
  153SOL    HW1  610   2.701   1.252   0.710  2.9849 -0.2897  1.7548
  153SOL    HW2  611   2.572   1.208   0.753 -0.3698  1.9499  1.2316
  153SOL     MW  612   2.635   1.269   0.757  0.4923  0.1742  0.3931
  154SOL     OW  613   0.370   1.731   1.695  0.3078  0.1143  0.3033
  154SOL    HW1  614   0.335   1.712   1.607  0.2240  0.7773  2.3765
  154SOL    HW2  615   0.366   1.651   1.741 -0.8951  3.6443 -0.2086
  154SOL     MW  616   0.365   1.718   1.689  0.1380  0.6675  0.5093
  155SOL     OW  617   1.109   0.671   0.288  0.6380  0.9151 -0.2660
  155SOL    HW1  618   1.096   0.646   0.382  0.7368  1.2447  1.5266
  155SOL    HW2  619   1.061   0.756   0.274 -0.9212  0.9820 -0.1102
  155SOL     MW  620   1.101   0.679   0.299  0.4453  0.9674 -0.0089
  156SOL     OW  621   1.575   3.011   1.081  0.7216 -0.5329  0.2544
  156SOL    HW1  622   1.613   3.101   1.093  1.4610  0.3647  1.1738
  156SOL    HW2  623   1.602   2.953   1.151 -0.7829  1.5395 -1.2003
  156SOL     MW  624   1.583   3.015   1.092  0.6207 -0.1410  0.1838
  157SOL     OW  625   1.406   1.152   0.130  0.2443 -0.6267 -0.1831
  157SOL    HW1  626   1.465   1.076   0.151 -0.2070  1.7949 -1.9658
  157SOL    HW2  627   1.457   1.217   0.082  0.5819  0.3109  0.6753
  157SOL     MW  628   1.421   1.150   0.126  0.2293 -0.1835 -0.3050
  158SOL     OW  629   0.464   1.659   2.236  0.3837  0.2132  0.3484
  158SOL    HW1  630   0.460   1.702   2.151 -0.3007 -2.1847 -0.9197
  158SOL    HW2  631   0.375   1.656   2.266 -1.0336 -0.5185 -0.2931
  158SOL     MW  632   0.452   1.664   2.229  0.1064 -0.1997  0.0965
  159SOL     OW  633   1.285   1.714   0.451 -0.5393  0.0153 -0.5460
  159SOL    HW1  634   1.277   1.637   0.396 -2.4865  0.9966 -1.8641
  159SOL    HW2  635   1.188   1.733   0.477  2.1322  1.5280 -1.9716
  159SOL     MW  636   1.271   1.706   0.447 -0.4437  0.3444 -0.9080
  160SOL     OW  637   0.470   1.121   1.568 -0.0772  0.2687  0.0544
  160SOL    HW1  638   0.481   1.027   1.584 -1.4567  2.1273 -1.5746
  160SOL    HW2  639   0.511   1.164   1.646 -2.2990 -1.0488 -1.0031
  160SOL     MW  640   0.477   1.114   1.580 -0.5524  0.3401 -0.3001
  161SOL     OW  641   0.541   2.168   2.614 -0.2281  0.6551 -0.5911
  161SOL    HW1  642   0.447   2.158   2.631 -0.4482  0.6192  1.1939
  161SOL    HW2  643   0.565   2.148   2.524  0.9630 -0.1893 -0.1603
  161SOL     MW  644   0.531   2.164   2.605 -0.0999  0.5389 -0.2987
  162SOL     OW  645   1.021   1.730   1.755  1.0029 -0.0022  0.4391
  162SOL    HW1  646   1.027   1.826   1.776 -1.1890  3.1184 -2.2064
  162SOL    HW2  647   0.933   1.701   1.791 -0.9734  0.3566  1.2305
  162SOL     MW  648   1.010   1.739   1.763  0.4530  0.4569  0.1944
  163SOL     OW  649   2.100   0.077   0.987 -0.2343 -0.5974 -0.2760
  163SOL    HW1  650   2.103   0.070   0.895  1.1126  0.2604 -0.8220
  163SOL    HW2  651   2.012   0.042   1.011  1.0374 -0.6661  1.5056
  163SOL     MW  652   2.089   0.071   0.978  0.1112 -0.4933 -0.1130
  164SOL     OW  653   0.330   0.200   0.785  0.6877 -0.0536  0.8490
  164SOL    HW1  654   0.235   0.212   0.807 -1.1782  0.7595  0.5904
  164SOL    HW2  655   0.339   0.112   0.753  0.3840 -0.3893  2.5125
  164SOL     MW  656   0.318   0.190   0.784  0.4015  0.0094  1.0343
  165SOL     OW  657   1.332   1.248   0.404 -0.4701 -0.3634 -0.3812
  165SOL    HW1  658   1.276   1.170   0.432  0.9927  1.3640  1.6276
  165SOL    HW2  659   1.344   1.222   0.317 -1.8890  1.3770 -0.9995
  165SOL     MW  660   1.326   1.234   0.397 -0.4643  0.0942 -0.1977
  166SOL     OW  661   0.509   1.058   0.943  0.1070 -0.0732  0.5220
  166SOL    HW1  662   0.466   1.006   1.013 -0.9822  2.6803 -1.1140
  166SOL    HW2  663   0.605   1.045   0.961 -0.4196  1.0939  0.4668
  166SOL     MW  664   0.516   1.049   0.955 -0.1062  0.4441  0.2988
  167SOL     OW  665   0.838   1.124   0.259 -0.2138 -0.6667  0.1735
  167SOL    HW1  666   0.747   1.115   0.238  3.5270 -1.6677  0.9625
  167SOL    HW2  667   0.864   1.196   0.207 -3.1760 -0.3432  1.1667
  167SOL     MW  668   0.830   1.132   0.249 -0.1111 -0.7561  0.4086
  168SOL     OW  669   1.678   1.700   2.920 -0.7265 -0.7559  0.1662
  168SOL    HW1  670   1.584   1.708   2.911 -0.1103  0.7965  0.8814
  168SOL    HW2  671   1.700   1.607   2.940 -1.0664  1.4277 -4.1680
  168SOL     MW  672   1.668   1.689   2.922 -0.6900 -0.2630 -0.3113
  169SOL     OW  673   0.358   0.972   1.294  0.2090  0.0439  0.1877
  169SOL    HW1  674   0.385   0.932   1.379  1.2241 -0.2147 -1.6631
  169SOL    HW2  675   0.425   1.044   1.277  0.0801 -0.9388 -2.4967
  169SOL     MW  676   0.370   0.976   1.303  0.3259 -0.1199 -0.4107
  170SOL     OW  677   1.006   1.451   1.473 -0.7236 -0.2070 -0.3436
  170SOL    HW1  678   0.977   1.545   1.472 -0.3735 -0.8225  1.3227
  170SOL    HW2  679   1.049   1.443   1.379  2.0135 -0.3608  3.8400
  170SOL     MW  680   1.008   1.462   1.460 -0.3163 -0.3085  0.4282
  171SOL     OW  681   0.587   1.433   0.684  0.5630  0.3296 -0.6287
  171SOL    HW1  682   0.560   1.412   0.775  0.1122  0.5809  1.1777
  171SOL    HW2  683   0.570   1.354   0.633  1.6272 -0.1728 -1.1050
  171SOL     MW  684   0.581   1.420   0.690  0.6439  0.2965 -0.4532
  172SOL     OW  685   0.860   0.339   1.274 -0.4884  0.2759  0.0725
  172SOL    HW1  686   0.849   0.380   1.185 -2.5820  1.9652 -0.1977
  172SOL    HW2  687   0.767   0.311   1.299 -0.4121 -0.8480 -0.6913
  172SOL     MW  688   0.847   0.341   1.266 -0.7546  0.3505 -0.0639
  173SOL     OW  689   0.480   1.661   0.405 -0.0408  0.3595  0.2928
  173SOL    HW1  690   0.503   1.568   0.385  2.2715 -2.2244 -2.0465
  173SOL    HW2  691   0.527   1.682   0.491  1.3621 -2.0391  0.1066
  173SOL     MW  692   0.489   1.651   0.414  0.4493 -0.2979 -0.0404
  174SOL     OW  693   1.965   0.972   1.465 -0.4622  0.6326  0.3726
  174SOL    HW1  694   1.931   0.881   1.492 -0.0989  0.4038  1.0866
  174SOL    HW2  695   1.926   1.003   1.382  0.5791  2.7100 -0.6163
  174SOL     MW  696   1.956   0.964   1.458 -0.2769  0.8765  0.3364
  175SOL     OW  697   0.475   1.391   0.328 -0.0923 -0.7832  0.0837
  175SOL    HW1  698   0.438   1.394   0.241 -1.5195 -1.7455  0.8553
  175SOL    HW2  699   0.555   1.349   0.325 -3.7255  0.3914  1.1851
  175SOL     MW  700   0.481   1.386   0.316 -0.7600 -0.7552  0.3308
  176SOL     OW  701   0.213   1.325   1.261 -1.2237  0.4418 -0.3160
  176SOL    HW1  702   0.154   1.285   1.196  2.5784  1.1458 -2.0680
  176SOL    HW2  703   0.180   1.292   1.346 -1.4380  3.7770 -1.7373
  176SOL     MW  704   0.201   1.316   1.264 -0.7503  0.9747 -0.7347
  177SOL     OW  705   0.584   0.316   1.308 -0.0087 -0.3261  0.4534
  177SOL    HW1  706   0.561   0.397   1.261  0.4499 -0.7678 -0.5750
  177SOL    HW2  707   0.583   0.350   1.392 -0.4377  0.2822  0.0450
  177SOL     MW  708   0.581   0.331   1.313 -0.0048 -0.3041  0.2639
  178SOL     OW  709   3.026   0.407   2.886 -0.4240 -0.0975 -0.1736
  178SOL    HW1  710   2.988   0.446   2.969 -0.4929  0.9779 -1.4390
  178SOL    HW2  711   2.960   0.416   2.819  2.0175  3.9039 -0.9795
  178SOL     MW  712   3.012   0.413   2.888 -0.1110  0.5723 -0.4469
  179SOL     OW  713   1.612   1.330   1.450 -0.7180  0.4772  0.3744
  179SOL    HW1  714   1.582   1.370   1.531  0.6338  4.1617 -2.1196
  179SOL    HW2  715   1.707   1.360   1.432  0.6658 -2.9147  0.3791
  179SOL     MW  716   1.620   1.339   1.458 -0.3571  0.5158  0.0459
  180SOL     OW  717   2.985   0.195   0.443 -0.0792  0.5218  0.3732
  180SOL    HW1  718   2.951   0.205   0.355 -0.4145 -1.8100 -0.1073
  180SOL    HW2  719   3.043   0.277   0.453  1.3682  1.9602 -0.1891
  180SOL     MW  720   2.988   0.207   0.433  0.0675  0.4039  0.2356
  181SOL     OW  721   1.145   1.414   3.036  0.5152 -1.0461  0.1853
  181SOL    HW1  722   1.217   1.401   3.095  0.3982  1.0399  0.3806
  181SOL    HW2  723   1.183   1.442   2.957 -2.3542  0.2797  0.3312
  181SOL     MW  724   1.160   1.416   3.034  0.1212 -0.5959  0.2303
  182SOL     OW  725   0.500   0.865   1.669  0.1803  0.0469  0.7337
  182SOL    HW1  726   0.425   0.814   1.643  0.4307 -2.1565  0.0551
  182SOL    HW2  727   0.546   0.819   1.742 -1.0836 -0.2046  0.4214
  182SOL     MW  728   0.496   0.852   1.675  0.0466 -0.2770  0.6030
  183SOL     OW  729   1.499   1.506   1.253 -0.5587  0.4035  0.0058
  183SOL    HW1  730   1.430   1.549   1.308  0.4818 -0.2045 -0.1162
  183SOL    HW2  731   1.546   1.452   1.320  0.6735 -0.4164  2.2731
  183SOL     MW  732   1.496   1.504   1.269 -0.2588  0.2151  0.2888
  184SOL     OW  733   0.885   0.639   1.966  0.7791  0.1812  0.2112
  184SOL    HW1  734   0.956   0.626   1.902 -0.7319 -1.9678 -0.6754
  184SOL    HW2  735   0.856   0.552   1.981  2.3598 -0.1388  0.7947
  184SOL     MW  736   0.890   0.626   1.960  0.7883 -0.1446  0.1712
  185SOL     OW  737   1.191   0.947   1.970 -0.4500 -0.0556 -0.0290
  185SOL    HW1  738   1.199   0.862   2.007 -0.1699  1.7015  3.3075
  185SOL    HW2  739   1.279   0.989   1.984 -0.9703 -0.3866 -1.8414
  185SOL     MW  740   1.204   0.942   1.977 -0.4817  0.1325  0.1721
  186SOL     OW  741   0.430   1.661   1.420  0.4224 -0.3280  0.2704
  186SOL    HW1  742   0.497   1.645   1.354 -0.6027 -0.0802 -0.1695
  186SOL    HW2  743   0.351   1.630   1.379 -1.2678 -0.5161 -1.4896
  186SOL     MW  744   0.428   1.655   1.406  0.0641 -0.3201 -0.0199
  187SOL     OW  745   1.450   0.769   1.449 -0.0913  0.0947  0.0939
  187SOL    HW1  746   1.450   0.741   1.540  1.0873 -1.9489  0.6113
  187SOL    HW2  747   1.361   0.747   1.418  1.2724  0.2971 -0.9028
  187SOL     MW  748   1.438   0.762   1.457  0.2441 -0.1482  0.0307
  188SOL     OW  749   1.896   1.078   0.786  0.0515  0.5469  0.4635
  188SOL    HW1  750   1.875   1.056   0.879  1.2694  1.3006  3.4575
  188SOL    HW2  751   1.983   1.049   0.764 -0.4784  2.6583  0.8404
  188SOL     MW  752   1.905   1.071   0.795  0.1423  0.9249  0.9083
  189SOL     OW  753   0.735   0.793   0.769  0.1983 -0.7056  0.3482
  189SOL    HW1  754   0.651   0.829   0.736  1.3724 -0.5963 -0.8012
  189SOL    HW2  755   0.768   0.848   0.846  0.2976 -2.2167  1.3868
  189SOL     MW  756   0.728   0.805   0.775  0.3663 -0.8905  0.3336
  190SOL     OW  757   1.874   0.200   2.033 -0.5209 -0.4704 -0.2117
  190SOL    HW1  758   1.822   0.126   2.065  2.4166  0.4040  1.2086
  190SOL    HW2  759   1.948   0.171   1.976  1.3281  0.1492  1.6349
  190SOL     MW  760   1.877   0.187   2.030  0.1106 -0.2733  0.2194
  191SOL     OW  761   1.481   0.951   1.256 -0.7703  0.1302 -0.6937
  191SOL    HW1  762   1.464   1.015   1.326 -1.2921 -0.8237 -0.3303
  191SOL    HW2  763   1.464   0.865   1.299  1.8319 -0.2651 -1.5244
  191SOL     MW  764   1.476   0.948   1.271 -0.4958 -0.0478 -0.7554
  192SOL     OW  765   0.636   2.031   2.825 -0.6844  0.2711 -0.2033
  192SOL    HW1  766   0.604   2.089   2.754  1.2799 -0.9089  2.8790
  192SOL    HW2  767   0.605   1.946   2.800 -0.4060  3.3370 -0.1381
  192SOL     MW  768   0.628   2.028   2.812 -0.3885  0.5199  0.2120
  193SOL     OW  769   1.011   1.604   0.724  0.2288 -0.8995 -0.0989
  193SOL    HW1  770   0.978   1.647   0.807  2.0618 -1.5935 -1.4871
  193SOL    HW2  771   0.943   1.535   0.711  0.3394  1.0856  1.2444
  193SOL     MW  772   0.997   1.601   0.733  0.4852 -0.7291 -0.1048
  194SOL     OW  773   0.511   1.331   0.920 -0.7263  0.3127 -0.3890
  194SOL    HW1  774   0.513   1.229   0.928 -2.1383  3.0463  0.9753
  194SOL    HW2  775   0.424   1.355   0.887  1.5200 -0.2377 -0.1435
  194SOL     MW  776   0.500   1.320   0.917 -0.6162  0.6008 -0.1766
  195SOL     OW  777   1.284   1.089   2.964  0.1200 -0.0380  0.4089
  195SOL    HW1  778   1.329   1.076   3.049 -1.6404 -1.4935 -1.1464
  195SOL    HW2  779   1.194   1.065   2.991 -2.9295  0.9433 -1.0856
  195SOL     MW  780   1.278   1.084   2.979 -0.5146 -0.1005  0.0065
  196SOL     OW  781   2.184   1.038   0.626 -0.2814 -0.8652  0.2747
  196SOL    HW1  782   2.136   1.003   0.550  0.6838 -0.7092  1.0803
  196SOL    HW2  783   2.154   1.130   0.630 -2.7979 -1.5617  0.4853
  196SOL     MW  784   2.174   1.046   0.617 -0.4861 -0.9365  0.4088
  197SOL     OW  785   0.672   1.283   2.013  0.9789 -0.0999  0.4041
  197SOL    HW1  786   0.653   1.194   2.026  2.8487  1.6601 -3.2439
  197SOL    HW2  787   0.614   1.309   1.944 -0.2740 -0.4956  1.0319
  197SOL     MW  788   0.662   1.275   2.005  1.0603  0.0801  0.0056
  198SOL     OW  789   2.945   1.469   1.047  0.0845 -0.3961  0.1537
  198SOL    HW1  790   2.937   1.566   1.026  0.2657  0.3485 -1.4919
  198SOL    HW2  791   2.857   1.430   1.023 -1.0442 -1.5311 -1.8669
  198SOL     MW  792   2.932   1.477   1.041 -0.0405 -0.4476 -0.3300
  199SOL     OW  793   0.503   1.323   1.797  0.2434  0.8658 -0.4400
  199SOL    HW1  794   0.409   1.301   1.787  1.3120 -0.9649 -2.5364
  199SOL    HW2  795   0.522   1.382   1.719  0.9911 -0.9279 -0.3722
  199SOL     MW  796   0.493   1.328   1.785  0.4830  0.3876 -0.7077
  200SOL     OW  797   1.911   3.077   1.361  0.0619 -0.3039 -0.0268
  200SOL    HW1  798   1.867   3.070   1.278 -2.2572  0.9451  1.2548
  200SOL    HW2  799   1.845   3.112   1.417 -1.7123 -1.8436 -1.9377
  200SOL     MW  800   1.897   3.080   1.357 -0.4782 -0.3422 -0.1098
  201SOL     OW  801   1.038   0.251   0.808 -0.7334 -0.2379  0.2885
  201SOL    HW1  802   1.000   0.163   0.801 -1.5251 -2.6984 -0.8178
  201SOL    HW2  803   1.054   0.276   0.718 -2.4687  0.0317  3.2970
  201SOL     MW  804   1.035   0.243   0.795 -1.0668 -0.5270  0.5394
  202SOL     OW  805   1.546   1.666   1.000 -0.2874 -0.6543 -0.6206
  202SOL    HW1  806   1.580   1.594   0.941 -2.4567  0.9634 -1.5648
  202SOL    HW2  807   1.541   1.623   1.086  1.3160  1.0156  0.8290
  202SOL     MW  808   1.550   1.651   1.004 -0.3620 -0.2206 -0.5540
  203SOL     OW  809  -0.003   0.458   1.153  0.0492 -0.6893 -0.0972
  203SOL    HW1  810   0.030   0.370   1.135  1.4108  1.7582  0.2745
  203SOL    HW2  811   0.058   0.499   1.217  0.0484  0.5468 -1.6816
  203SOL     MW  812   0.009   0.452   1.159  0.2287 -0.2033 -0.2572
  204SOL     OW  813   1.047   1.795   0.535  0.0924  0.5138  0.2255
  204SOL    HW1  814   1.035   1.712   0.590  2.2664 -0.0838 -0.2696
  204SOL    HW2  815   0.972   1.794   0.472 -0.9972  0.2137  0.2827
  204SOL     MW  816   1.036   1.784   0.534  0.2355  0.3953  0.1678
  205SOL     OW  817   1.359   0.099   1.334  0.1453  0.0046 -0.3737
  205SOL    HW1  818   1.294   0.074   1.267 -3.8340 -0.7617  2.3233
  205SOL    HW2  819   1.385   0.190   1.314  1.7134  0.8732 -1.0831
  205SOL     MW  820   1.354   0.108   1.322 -0.1728  0.0181 -0.1115
  206SOL     OW  821   0.418   3.078   1.435  0.3772 -0.4395  0.1437
  206SOL    HW1  822   0.333   3.063   1.389 -0.6369 -0.3086 -1.6301
  206SOL    HW2  823   0.460   3.000   1.397 -3.7825  1.1103  1.4968
  206SOL     MW  824   0.412   3.066   1.424 -0.3054 -0.2177  0.0882
  207SOL     OW  825   0.966   1.532   0.199 -0.1705  0.5390  0.2979
  207SOL    HW1  826   0.965   1.625   0.180  0.0004  0.4297 -0.2840
  207SOL    HW2  827   1.050   1.518   0.233 -2.9110 -1.3763 -2.2467
  207SOL     MW  828   0.977   1.542   0.201 -0.5095  0.2719 -0.1146
  208SOL     OW  829   0.685   1.585   1.312 -0.4844  0.2104  0.4332
  208SOL    HW1  830   0.759   1.625   1.366  1.6573  0.9925 -0.2888
  208SOL    HW2  831   0.722   1.500   1.289 -0.5639  1.6970 -0.7080
  208SOL     MW  832   0.700   1.579   1.316 -0.2123  0.5098  0.1874
  209SOL     OW  833   1.579   0.546   2.845  0.4962 -0.3182  0.0439
  209SOL    HW1  834   1.610   0.599   2.919 -0.7535  0.5459  1.1627
  209SOL    HW2  835   1.651   0.480   2.825 -1.0988  2.7053  2.1627
  209SOL     MW  836   1.592   0.544   2.852  0.1209  0.1947  0.4711
  210SOL     OW  837   1.623   1.440   0.868 -0.1128 -0.2575 -0.1699
  210SOL    HW1  838   1.706   1.402   0.838  2.0104 -1.7638  0.4780
  210SOL    HW2  839   1.568   1.438   0.786 -1.4932  1.5302  0.2397
  210SOL     MW  840   1.627   1.435   0.853 -0.0148 -0.2204 -0.0304
  211SOL     OW  841   1.682   0.372   0.954 -0.2022  0.2171  0.0517
  211SOL    HW1  842   1.663   0.354   0.864 -0.4592  1.8283 -1.3991
  211SOL    HW2  843   1.773   0.417   0.952 -0.1517  1.9106  0.9333
  211SOL     MW  844   1.692   0.376   0.942 -0.2295  0.6531 -0.0234
  212SOL     OW  845   0.260   1.120   0.084  0.3102 -0.0170  0.2924
  212SOL    HW1  846   0.213   1.086   0.160  0.9670  0.2427  0.0432
  212SOL    HW2  847   0.293   1.043   0.040 -1.5088  0.4168 -1.5599
  212SOL     MW  848   0.258   1.106   0.088  0.1569  0.0745  0.0151
  213SOL     OW  849   0.385   1.766   3.036 -0.1594 -0.1179 -0.1508
  213SOL    HW1  850   0.423   1.820   3.104  0.4829 -1.9961  1.8751
  213SOL    HW2  851   0.431   1.783   2.954  1.0262 -0.4957 -0.3270
  213SOL     MW  852   0.396   1.775   3.034  0.0818 -0.4156  0.0932
  214SOL     OW  853   0.626   0.295   2.225 -0.4173 -0.1013  0.0756
  214SOL    HW1  854   0.546   0.344   2.202 -0.5453  1.9328 -1.9191
  214SOL    HW2  855   0.696   0.324   2.163  1.0015 -1.1361 -4.2749
  214SOL     MW  856   0.625   0.305   2.213 -0.2470  0.0305 -0.7616
  215SOL     OW  857   0.465   0.679   2.632  0.1782 -0.5788 -0.0924
  215SOL    HW1  858   0.441   0.647   2.544 -1.4504 -0.9113 -0.3733
  215SOL    HW2  859   0.404   0.647   2.704  0.8974  0.6622  1.1546
  215SOL     MW  860   0.454   0.670   2.630  0.0582 -0.4589  0.0351
  216SOL     OW  861   3.040   3.042   2.651 -0.1376  0.7924  0.1464
  216SOL    HW1  862   2.978   3.047   2.731  1.3829 -1.2812  0.8409
  216SOL    HW2  863   3.048   3.136   2.625  1.5581  1.9922  0.1904
  216SOL     MW  864   3.033   3.055   2.658  0.2867  0.6771  0.2438
  217SOL     OW  865   0.943   1.249   0.021 -0.9567 -0.3467  0.1728
  217SOL    HW1  866   0.978   1.163  -0.012 -2.1712  1.1771  2.8067
  217SOL    HW2  867   1.021   1.305   0.011  0.6391  0.3820 -3.2769
  217SOL     MW  868   0.958   1.245   0.015 -0.9064 -0.0495  0.0652
  218SOL     OW  869   0.900   1.302   2.516 -0.1496 -0.7246  0.0594
  218SOL    HW1  870   0.917   1.224   2.561  2.6808  1.0014 -1.2505
  218SOL    HW2  871   0.970   1.357   2.542 -2.3588 -2.4899  1.5620
  218SOL     MW  872   0.912   1.299   2.525 -0.0677 -0.7297  0.0849
  219SOL     OW  873   1.086   0.456   2.538  0.4270  0.2711  0.5653
  219SOL    HW1  874   1.161   0.490   2.583 -1.4766 -1.1656  2.5992
  219SOL    HW2  875   1.022   0.525   2.543  2.1783 -1.9250 -1.5578
  219SOL     MW  876   1.087   0.470   2.544  0.4069 -0.2082  0.5535
  220SOL     OW  877   1.773   0.414   2.180 -0.0113  0.0379  0.2335
  220SOL    HW1  878   1.712   0.476   2.140  0.7289 -1.0026  2.5753
  220SOL    HW2  879   1.826   0.365   2.115  0.8230 -2.7864  1.3509
  220SOL     MW  880   1.772   0.415   2.166  0.1964 -0.4720  0.6899
  221SOL     OW  881   0.362   1.318   2.867  0.2255 -0.0748 -0.0793
  221SOL    HW1  882   0.409   1.234   2.860  2.4533  2.2363  2.0953
  221SOL    HW2  883   0.370   1.365   2.780  1.5594  0.2558 -0.6530
  221SOL     MW  884   0.369   1.313   2.855  0.6955  0.2737  0.1319
  222SOL     OW  885   0.300   0.892   2.658  0.6103  0.1186  0.0426
  222SOL    HW1  886   0.268   0.918   2.569  1.0997 -0.5551 -2.7219
  222SOL    HW2  887   0.368   0.830   2.637  0.6402  2.3229  1.6743
  222SOL     MW  888   0.305   0.888   2.643  0.6788  0.3205 -0.1068
  223SOL     OW  889   0.039   2.068   2.610 -0.0919  0.2443 -0.1884
  223SOL    HW1  890   0.089   1.993   2.634  2.7447  0.0831 -0.8435
  223SOL    HW2  891   0.105   2.098   2.549 -0.7633 -0.1713  2.3450
  223SOL     MW  892   0.055   2.062   2.605  0.1938  0.1682  0.0594
  224SOL     OW  893   1.498   0.808   2.608  0.3551 -0.1015 -0.0378
  224SOL    HW1  894   1.478   0.824   2.695  0.0102 -1.0387  2.0293
  224SOL    HW2  895   1.489   0.892   2.565 -1.5059  0.7505 -0.1947
  224SOL     MW  896   1.494   0.821   2.614  0.0641 -0.1127  0.2142
  225SOL     OW  897   2.981   1.524   2.289  0.2475  0.1355  0.0947
  225SOL    HW1  898   3.002   1.605   2.242  0.0569  0.9538  0.9072
  225SOL    HW2  899   2.940   1.554   2.371  0.6664 -1.2318  1.1068
  225SOL     MW  900   2.978   1.538   2.294  0.2776  0.0630  0.3354
  226SOL     OW  901   0.406   1.416   2.618 -0.3876  0.1607 -0.0009
  226SOL    HW1  902   0.498   1.428   2.636  1.1126 -2.0748  0.1884
  226SOL    HW2  903   0.379   1.506   2.594 -0.5931 -0.6623  0.0926
  226SOL     MW  904   0.414   1.429   2.617 -0.2168 -0.2428  0.0364
  227SOL     OW  905   0.418   1.066   2.811 -0.5288 -0.1091  0.1992
  227SOL    HW1  906   0.509   1.093   2.798 -4.2684  0.2015 -0.3811
  227SOL    HW2  907   0.384   1.003   2.751  1.4726  3.9646  0.8476
  227SOL     MW  908   0.425   1.061   2.801 -0.7581  0.4694  0.2082
  228SOL     OW  909   0.658   0.998   2.005  0.7000  0.1112  0.0893
  228SOL    HW1  910   0.754   1.019   1.988  2.0182  1.0818  1.2009
  228SOL    HW2  911   0.666   0.944   2.083 -1.4691 -2.0381  1.5787
  228SOL     MW  912   0.672   0.994   2.013  0.5877 -0.0443  0.4324
  229SOL     OW  913   0.154   0.545   3.087 -0.8045 -0.5939  0.3450
  229SOL    HW1  914   0.079   0.529   3.034  0.5517  1.9894  0.2108
  229SOL    HW2  915   0.136   0.502   3.168  2.0661  0.5472 -2.2708
  229SOL     MW  916   0.142   0.537   3.091 -0.2468 -0.1025 -0.0178
  230SOL     OW  917   1.750   1.393   2.033 -0.0655  0.0308  0.1134
  230SOL    HW1  918   1.717   1.389   2.127  0.0287 -1.5933  0.7044
  230SOL    HW2  919   1.825   1.331   2.022 -0.9586 -0.1479 -1.2662
  230SOL     MW  920   1.756   1.384   2.044 -0.1709 -0.2071  0.0094
  231SOL     OW  921   2.761   1.341   2.256 -0.3794 -0.0210  0.2968
  231SOL    HW1  922   2.835   1.403   2.256  1.8752 -0.9831  1.6014
  231SOL    HW2  923   2.707   1.366   2.173 -2.1926 -2.4036 -1.1086
  231SOL     MW  924   2.763   1.353   2.245 -0.3212 -0.4623  0.2835
  232SOL     OW  925   2.238   0.869   2.145  0.0865 -0.3754  0.4212
  232SOL    HW1  926   2.197   0.902   2.058 -1.9280  1.6265  1.9482
  232SOL    HW2  927   2.173   0.862   2.216 -0.0674 -2.1510  2.1504
  232SOL     MW  928   2.224   0.872   2.143 -0.1996 -0.3455  0.8508
  233SOL     OW  929   2.036   0.535   1.967 -0.2999  0.1749 -0.1540
  233SOL    HW1  930   2.062   0.477   1.892  2.7371  0.6909  1.7036
  233SOL    HW2  931   2.103   0.502   2.030 -1.5615  1.9600  2.5232
  233SOL     MW  932   2.048   0.523   1.965 -0.0657  0.4785  0.4443
  234SOL     OW  933   0.284   1.001   2.368 -0.2863 -0.0040 -0.0329
  234SOL    HW1  934   0.223   1.057   2.325 -1.2901  0.0413 -0.1591
  234SOL    HW2  935   0.354   1.062   2.399  0.3638  2.0835 -1.6209
  234SOL     MW  936   0.285   1.016   2.366 -0.3329  0.2774 -0.2591
  235SOL     OW  937   1.090   3.088   2.739  0.0209 -0.2483 -0.2502
  235SOL    HW1  938   1.134   3.030   2.801 -0.1086 -0.5500 -0.2649
  235SOL    HW2  939   1.080   3.173   2.780  2.3628  3.4410 -3.6163
  235SOL     MW  940   1.094   3.092   2.752  0.3128  0.1987 -0.6963
  236SOL     OW  941   2.955   0.534   0.033  0.1116 -0.2951  0.1410
  236SOL    HW1  942   2.867   0.524  -0.007  0.9851  0.3217 -2.3992
  236SOL    HW2  943   2.979   0.626   0.034 -0.7808 -0.2352 -0.7956
  236SOL     MW  944   2.947   0.545   0.028  0.1091 -0.2058 -0.3177
  237SOL     OW  945   1.848   0.975   2.158  0.9709  0.2034  0.0816
  237SOL    HW1  946   1.861   1.060   2.109  1.8028  2.1340  1.5275
  237SOL    HW2  947   1.852   0.982   2.254 -1.0617  0.1331 -1.5898
  237SOL     MW  948   1.850   0.987   2.164  0.8125  0.4488  0.0519
  238SOL     OW  949   1.074   1.778   3.018  0.3074  0.5579  0.4966
  238SOL    HW1  950   1.030   1.688   3.001  0.2641  0.5432  1.0693
  238SOL    HW2  951   1.165   1.748   3.011  0.7440  1.5049  1.8637
  238SOL     MW  952   1.080   1.762   3.015  0.3593  0.6809  0.7525
  239SOL     OW  953   1.252   1.419   2.344  0.8595 -0.2944 -0.2178
  239SOL    HW1  954   1.190   1.468   2.404 -0.3098 -1.8517 -0.0089
  239SOL    HW2  955   1.235   1.330   2.384 -1.3962 -0.1948  3.1861
  239SOL     MW  956   1.242   1.413   2.358  0.4076 -0.4867  0.2589
  240SOL     OW  957   0.693   0.831   2.230  0.0602 -0.7608  0.3537
  240SOL    HW1  958   0.683   0.899   2.300  0.8458 -0.4946  0.5585
  240SOL    HW2  959   0.787   0.805   2.221  1.9878 -2.6336 -1.6754
  240SOL     MW  960   0.704   0.837   2.238  0.4182 -0.9727  0.1130
  241SOL     OW  961   0.648   0.366   3.086  0.2875  0.1821  0.1511
  241SOL    HW1  962   0.681   0.433   3.151  1.8662  0.2125  0.8602
  241SOL    HW2  963   0.583   0.402   3.028  0.6721  1.8016  1.4776
  241SOL     MW  964   0.644   0.379   3.087  0.5465  0.3998  0.4196
  242SOL     OW  965   1.492   1.701   2.263 -0.6836 -0.6733  0.3187
  242SOL    HW1  966   1.437   1.770   2.297  1.1592 -1.9058 -2.1142
  242SOL    HW2  967   1.427   1.642   2.219 -2.4159 -0.7535  2.9586
  242SOL     MW  968   1.476   1.703   2.261 -0.6690 -0.8465  0.3460
  243SOL     OW  969   1.008   0.233   2.411  0.4785 -0.1953  0.5497
  243SOL    HW1  970   1.090   0.213   2.372 -2.6335  3.3845  0.3567
  243SOL    HW2  971   1.039   0.301   2.469 -0.8681  1.7414 -0.8831
  243SOL     MW  972   1.023   0.239   2.414 -0.1098  0.5325  0.3352
  244SOL     OW  973   0.242   0.738   2.390  0.4777  0.3776  0.5079
  244SOL    HW1  974   0.240   0.837   2.374 -0.4202  0.5429 -1.2376
  244SOL    HW2  975   0.315   0.700   2.332  0.3132 -1.5494 -1.1862
  244SOL     MW  976   0.252   0.746   2.380  0.3375  0.1451  0.0541
  245SOL     OW  977   1.265   0.231   2.328  0.4536 -0.0856  0.0356
  245SOL    HW1  978   1.308   0.143   2.329  0.9692 -0.2384  2.0580
  245SOL    HW2  979   1.322   0.297   2.376  0.0234  0.0756  0.2902
  245SOL     MW  980   1.278   0.228   2.335  0.4649 -0.0845  0.3360
  246SOL     OW  981   1.205   1.219   2.121 -0.6828  0.4981 -0.5121
  246SOL    HW1  982   1.145   1.170   2.181  0.2599  0.4409 -0.5697
  246SOL    HW2  983   1.268   1.256   2.175  0.0821  0.6537  2.4210
  246SOL     MW  984   1.205   1.218   2.136 -0.4575  0.5111 -0.1327
  247SOL     OW  985   0.752   0.566   0.139  0.2856  0.3397  0.8243
  247SOL    HW1  986   0.704   0.638   0.100  2.8254  0.3888  1.0306
  247SOL    HW2  987   0.843   0.572   0.114 -0.2626  0.2055 -1.6283
  247SOL     MW  988   0.757   0.576   0.130  0.5484  0.3285  0.5279
  248SOL     OW  989   0.468   1.177   2.474 -0.2002 -0.3941  0.2312
  248SOL    HW1  990   0.472   1.236   2.394 -2.1335  0.9816 -2.1499
  248SOL    HW2  991   0.423   1.237   2.539  0.2296 -0.5475  1.7968
  248SOL     MW  992   0.462   1.193   2.472 -0.3986 -0.2328  0.1236
  249SOL     OW  993   0.184   1.863   2.693 -0.3279 -0.2795  0.2460
  249SOL    HW1  994   0.135   1.778   2.681  1.5164  2.5311  1.0043
  249SOL    HW2  995   0.202   1.865   2.786  0.4219  0.5035  1.4435
  249SOL     MW  996   0.180   1.852   2.704  0.0144  0.1946  0.5041
  250SOL     OW  997   2.132   0.856   2.422  0.0055  0.5522  0.2034
  250SOL    HW1  998   2.147   0.772   2.450  1.1957  1.6509  0.6950
  250SOL    HW2  999   2.196   0.910   2.471 -0.2635 -1.0561  1.8373
  250SOL     MW 1000   2.142   0.852   2.432  0.1270  0.4850  0.4839
  251SOL     OW 1001   0.198   0.839   2.069 -0.3646  0.4282 -0.0668
  251SOL    HW1 1002   0.172   0.764   2.121  2.0933 -0.0181 -4.5637
  251SOL    HW2 1003   0.201   0.806   1.983 -0.9908  2.1018  0.9244
  251SOL     MW 1004   0.195   0.825   2.065 -0.1229  0.5901 -0.5293
  252SOL     OW 1005   1.674   1.018   2.884 -0.2592 -0.0868  0.4669
  252SOL    HW1 1006   1.670   1.082   2.957 -0.3592  1.7640  0.3768
  252SOL    HW2 1007   1.733   1.053   2.813 -0.8373 -0.3560  0.9917
  252SOL     MW 1008   1.681   1.031   2.884 -0.3486  0.1218  0.5243
  253SOL     OW 1009   1.140   1.743   2.559  0.3369 -0.0189  0.1366
  253SOL    HW1 1010   1.117   1.760   2.470  0.1954 -0.3505  2.3797
  253SOL    HW2 1011   1.062   1.779   2.614 -0.5354  0.7785  0.7543
  253SOL     MW 1012   1.127   1.750   2.554  0.2031  0.0425  0.5141
  254SOL     OW 1013   1.001   1.081   2.243 -0.4644 -0.0983  0.6373
  254SOL    HW1 1014   0.977   0.989   2.219  0.0883 -0.5131 -2.0607
  254SOL    HW2 1015   0.914   1.136   2.247 -0.8830  0.5771 -2.1048
  254SOL     MW 1016   0.986   1.076   2.241 -0.4467 -0.0639 -0.0804
  255SOL     OW 1017   0.834   2.503   2.177 -0.1644  0.6486  0.7833
  255SOL    HW1 1018   0.766   2.460   2.226  1.4423  1.9117  2.1292
  255SOL    HW2 1019   0.901   2.516   2.247 -1.0371  1.4459  2.3960
  255SOL     MW 1020   0.834   2.499   2.192 -0.0675  0.9204  1.1736
  256SOL     OW 1021   1.200   2.844   2.849  0.6211 -0.1351 -0.0329
  256SOL    HW1 1022   1.176   2.789   2.770 -0.6804  0.7322 -0.3695
  256SOL    HW2 1023   1.298   2.836   2.856  1.5908  2.0857  0.3514
  256SOL     MW 1024   1.209   2.836   2.839  0.5773  0.2723 -0.0266
  257SOL     OW 1025   0.154   1.939   0.097 -0.0996 -0.2663 -0.1398
  257SOL    HW1 1026   0.176   1.863   0.157 -1.0729 -4.2293 -2.2026
  257SOL    HW2 1027   0.142   1.893   0.014  0.2866 -0.3807  1.7720
  257SOL     MW 1028   0.156   1.923   0.094 -0.1771 -0.8043 -0.1597
  258SOL     OW 1029   0.717   1.031   2.492  0.2065 -0.3893 -0.4141
  258SOL    HW1 1030   0.741   1.087   2.421 -1.2803  0.6023 -3.4301
  258SOL    HW2 1031   0.634   1.072   2.517 -2.3773  1.4633  1.0148
  258SOL     MW 1032   0.709   1.044   2.486 -0.3306 -0.0140 -0.6235
  259SOL     OW 1033   0.759   0.512   2.330  0.3955  0.1485 -0.0850
  259SOL    HW1 1034   0.670   0.552   2.348 -1.6890 -3.1807 -0.3877
  259SOL    HW2 1035   0.736   0.428   2.365 -0.6754  0.2410  0.5857
  259SOL     MW 1036   0.744   0.506   2.337 -0.0208 -0.2786 -0.0365
  260SOL     OW 1037   0.587   0.154   1.586 -0.1109  0.3280 -0.1879
  260SOL    HW1 1038   0.539   0.106   1.520  1.3867  2.2824 -2.6086
  260SOL    HW2 1039   0.668   0.109   1.590 -1.1625  0.6740  0.4476
  260SOL     MW 1040   0.591   0.142   1.578 -0.0520  0.6315 -0.4234
  261SOL     OW 1041   1.213   0.670   2.022  0.1234  0.5445 -0.3293
  261SOL    HW1 1042   1.250   0.658   2.112  0.0984 -0.4990 -1.4904
  261SOL    HW2 1043   1.244   0.596   1.972  0.4990 -0.9631  1.1879
  261SOL     MW 1044   1.222   0.659   2.028  0.1696  0.2079 -0.2823
  262SOL     OW 1045   1.161   0.312   0.126 -0.0736 -0.2964  0.1668
  262SOL    HW1 1046   1.256   0.304   0.112 -0.7279 -2.2203  3.3074
  262SOL    HW2 1047   1.120   0.235   0.074 -1.4884 -2.0277  0.5550
  262SOL     MW 1048   1.168   0.301   0.117 -0.3466 -0.7787  0.6324
  263SOL     OW 1049   0.417   3.053   2.519 -0.4250  0.1346 -0.2425
  263SOL    HW1 1050   0.356   3.127   2.513 -0.9587 -0.6994  0.5525
  263SOL    HW2 1051   0.450   3.063   2.430  0.5147  1.2296  1.4551
  263SOL     MW 1052   0.413   3.064   2.507 -0.3715  0.1690  0.0864
  264SOL     OW 1053   1.522   1.288   1.915 -0.0136 -0.3362 -0.0801
  264SOL    HW1 1054   1.459   1.312   1.984 -0.3562  2.0620 -2.2682
  264SOL    HW2 1055   1.604   1.328   1.954 -1.2904  0.1412 -1.2253
  264SOL     MW 1056   1.524   1.297   1.929 -0.2272  0.0432 -0.5199
  265SOL     OW 1057   0.661   2.739   2.252  1.0500  0.3890  0.0794
  265SOL    HW1 1058   0.691   2.654   2.216 -1.2181  1.9237  0.0721
  265SOL    HW2 1059   0.680   2.721   2.344 -2.7539  0.1109 -2.0238
  265SOL     MW 1060   0.668   2.725   2.260  0.2489  0.5548 -0.1991
  266SOL     OW 1061   0.984   0.799   2.160  0.4453 -0.1501  0.1257
  266SOL    HW1 1062   0.944   0.747   2.091 -0.4971 -1.2744 -1.1952
  266SOL    HW2 1063   1.073   0.757   2.150  2.1286 -2.0653 -3.4302
  266SOL     MW 1064   0.990   0.787   2.150  0.5430 -0.5511 -0.5177
  267SOL     OW 1065   1.377   1.661   2.706  0.1549 -0.2693 -0.0744
  267SOL    HW1 1066   1.447   1.647   2.646  0.2637 -0.3854  2.7755
  267SOL    HW2 1067   1.318   1.700   2.644 -1.3056  0.9096 -1.4868
  267SOL     MW 1068   1.378   1.664   2.690 -0.0235 -0.1291  0.1153
  268SOL     OW 1069   0.255   0.773   1.790  0.6625 -0.0303  0.8266
  268SOL    HW1 1070   0.202   0.820   1.724 -0.4292  0.2120 -2.7451
  268SOL    HW2 1071   0.230   0.680   1.791 -1.2552 -0.9544  0.4964
  268SOL     MW 1072   0.245   0.767   1.781  0.2654 -0.1203  0.3118
  269SOL     OW 1073   1.392   1.927   2.383 -0.0267 -0.0751 -0.6957
  269SOL    HW1 1074   1.423   2.008   2.337  0.6065 -0.7305  1.5003
  269SOL    HW2 1075   1.334   1.955   2.457 -0.8877 -0.3539  3.3111
  269SOL     MW 1076   1.388   1.942   2.387 -0.0568 -0.1984  0.1227
  270SOL     OW 1077   1.200   0.376   1.604  0.2217  0.3548 -0.0440
  270SOL    HW1 1078   1.165   0.288   1.622 -0.0842 -0.0780 -1.0430
  270SOL    HW2 1079   1.301   0.375   1.610  0.4828  1.3944  0.0670
  270SOL     MW 1080   1.208   0.364   1.607  0.2158  0.4349 -0.1612
  271SOL     OW 1081   0.881   3.090   2.413  0.2764  0.4640  0.5732
  271SOL    HW1 1082   0.945   3.056   2.478  1.6344  1.3491  2.8149
  271SOL    HW2 1083   0.915   3.182   2.415  1.8907  0.0824 -1.5884
  271SOL     MW 1084   0.894   3.097   2.422  0.6686  0.5304  0.5838
  272SOL     OW 1085   1.459   2.848   2.779 -0.1181  0.0982  0.3211
  272SOL    HW1 1086   1.443   2.929   2.713  3.1156 -1.0829 -4.7591
  272SOL    HW2 1087   1.492   2.885   2.862  0.1398  5.9869  0.3324
  272SOL     MW 1088   1.461   2.864   2.781  0.3426  0.7193 -0.3477
  273SOL     OW 1089   1.431   0.862   2.870  0.0636  0.3949  0.2095
  273SOL    HW1 1090   1.521   0.905   2.883  0.3957  0.3807  0.2250
  273SOL    HW2 1091   1.381   0.935   2.901 -0.4525 -0.0918 -0.5918
  273SOL     MW 1092   1.436   0.877   2.876  0.0393  0.3288  0.1058
  274SOL     OW 1093   1.387   0.734   0.193 -0.2341  0.0250 -0.5129
  274SOL    HW1 1094   1.442   0.655   0.210 -1.5969 -0.6869 -1.2985
  274SOL    HW2 1095   1.310   0.724   0.255 -1.7152  0.9624 -0.1479
  274SOL     MW 1096   1.384   0.723   0.204 -0.6093  0.0547 -0.5684
  275SOL     OW 1097   1.683   0.671   1.796  0.2905 -0.1939  0.3505
  275SOL    HW1 1098   1.753   0.715   1.846 -0.3292 -2.4596 -0.5908
  275SOL    HW2 1099   1.695   0.578   1.812 -0.9895 -2.3665 -0.2111
  275SOL     MW 1100   1.694   0.665   1.805  0.0399 -0.7795  0.1522
  276SOL     OW 1101   0.253   1.258   1.816  0.1576 -0.0261  0.2270
  276SOL    HW1 1102   0.293   1.187   1.873 -0.2709  0.8818 -0.7509
  276SOL    HW2 1103   0.208   1.314   1.872  1.9225 -1.0894  0.2175
  276SOL     MW 1104   0.252   1.256   1.831  0.3339 -0.0466  0.0967
  277SOL     OW 1105   1.896   1.306   2.563 -0.1698 -1.0256 -0.0347
  277SOL    HW1 1106   1.970   1.372   2.567 -1.3695 -2.2073  0.1333
  277SOL    HW2 1107   1.923   1.229   2.609  0.4795  0.2890  0.2391
  277SOL     MW 1108   1.910   1.305   2.570 -0.2424 -1.0081  0.0236
  278SOL     OW 1109   1.422   0.682   1.726 -0.4138  0.0066 -0.8224
  278SOL    HW1 1110   1.407   0.623   1.801 -4.6207 -2.2267  1.1552
  278SOL    HW2 1111   1.516   0.705   1.741  0.4264 -0.8114 -1.2732
  278SOL     MW 1112   1.433   0.678   1.738 -0.8580 -0.3960 -0.6210
  279SOL     OW 1113   0.531   0.037   2.245 -0.1316  0.2884  0.3744
  279SOL    HW1 1114   0.595  -0.026   2.212  0.0175  1.0072 -1.0483
  279SOL    HW2 1115   0.586   0.112   2.270  2.6104 -1.1196  1.2715
  279SOL     MW 1116   0.547   0.039   2.244  0.2498  0.1975  0.3051
  280SOL     OW 1117   1.508   1.116   2.200  0.2253  0.0583 -0.3825
  280SOL    HW1 1118   1.558   1.042   2.168 -0.0886 -1.1691  0.0141
  280SOL    HW2 1119   1.491   1.090   2.290 -0.5843 -1.2717 -2.6224
  280SOL     MW 1120   1.512   1.103   2.208  0.0771 -0.2791 -0.6257
  281SOL     OW 1121   1.303   1.279   2.756 -0.0887 -0.0397 -0.7539
  281SOL    HW1 1122   1.392   1.313   2.774  1.5596 -2.7851 -0.1900
  281SOL    HW2 1123   1.303   1.206   2.821  1.3858 -0.1907 -0.7102
  281SOL     MW 1124   1.315   1.274   2.767  0.3233 -0.4219 -0.6737
  282SOL     OW 1125   1.135   1.285   1.693  0.2569 -0.4300 -0.6093
  282SOL    HW1 1126   1.068   1.290   1.622  2.6268 -0.7462  2.4551
  282SOL    HW2 1127   1.080   1.282   1.770  2.3646  0.4299  0.4680
  282SOL     MW 1128   1.119   1.285   1.693  0.8477 -0.3583 -0.0628
  283SOL     OW 1129   0.674   1.289   3.078 -0.2450  0.6533 -0.0638
  283SOL    HW1 1130   0.768   1.281   3.102  0.1303  0.7249  0.3714
  283SOL    HW2 1131   0.655   1.380   3.106 -1.0018 -0.2797 -1.6088
  283SOL     MW 1132   0.684   1.300   3.085 -0.2954  0.5396 -0.2102
  284SOL     OW 1133   0.524   0.659   2.341 -0.0939  0.2525 -0.1511
  284SOL    HW1 1134   0.580   0.720   2.292 -1.2768  2.7892  1.2400
  284SOL    HW2 1135   0.485   0.596   2.285 -1.2517  2.3164 -0.0349
  284SOL     MW 1136   0.527   0.659   2.327 -0.4027  0.8595  0.0478
  285SOL     OW 1137   0.843   0.957   2.871 -0.2145  0.0674 -0.8697
  285SOL    HW1 1138   0.917   0.980   2.810  0.7449 -2.4087 -0.0213
  285SOL    HW2 1139   0.803   0.868   2.846 -0.7258 -1.2241  0.2842
  285SOL     MW 1140   0.848   0.948   2.860 -0.1554 -0.4297 -0.6055
  286SOL     OW 1141   1.101   1.466   2.601 -0.3219  0.4708 -0.0062
  286SOL    HW1 1142   1.168   1.453   2.668 -2.7846  0.8567  0.0654
  286SOL    HW2 1143   1.094   1.561   2.598  0.7217  0.7054 -1.1535
  286SOL     MW 1144   1.109   1.477   2.610 -0.5091  0.5527 -0.1481
  287SOL     OW 1145   0.998   0.921   0.305  0.5572 -0.1123 -0.1687
  287SOL    HW1 1146   1.070   0.958   0.357  1.4694  1.9670  0.6503
  287SOL    HW2 1147   0.947   1.002   0.275 -0.3121  0.4355  1.5598
  287SOL     MW 1148   1.001   0.936   0.307  0.5628  0.2343  0.1674
  288SOL     OW 1149   1.594   0.593   2.113  0.1056 -0.2931  0.2313
  288SOL    HW1 1150   1.558   0.601   2.204  0.2724  2.2244 -0.7769
  288SOL    HW2 1151   1.599   0.685   2.081 -1.4323  1.6582  1.6814
  288SOL     MW 1152   1.590   0.607   2.121 -0.0753  0.2965  0.2896
  289SOL     OW 1153   0.946   1.049   2.637  0.5545 -0.3568  0.0965
  289SOL    HW1 1154   1.002   0.987   2.595 -0.7033  3.8410 -0.3438
  289SOL    HW2 1155   0.859   1.032   2.602 -0.4711  1.4855  0.4438
  289SOL     MW 1156   0.942   1.038   2.627  0.2532  0.4401  0.0842
  290SOL     OW 1157   0.883   0.534   1.573  0.6948  0.1345  0.3340
  290SOL    HW1 1158   0.933   0.535   1.490  2.1878 -0.5594  1.6279
  290SOL    HW2 1159   0.942   0.540   1.645 -1.6948 -1.7449 -0.0288
  290SOL     MW 1160   0.897   0.535   1.571  0.5765 -0.2050  0.4568
  291SOL     OW 1161   0.137   0.337   0.161  0.0787  0.3079 -0.5148
  291SOL    HW1 1162   0.219   0.294   0.159  0.8895 -0.2075 -0.5296
  291SOL    HW2 1163   0.100   0.291   0.088 -0.0586 -0.2581  1.0658
  291SOL     MW 1164   0.143   0.325   0.152  0.1676  0.1652 -0.3082
  292SOL     OW 1165   1.020   0.530   0.067  0.7297  0.3041 -0.1976
  292SOL    HW1 1166   1.058   0.586   0.139  1.7596  1.7674  1.3518
  292SOL    HW2 1167   1.076   0.450   0.081  2.4229 -0.9832  2.6252
  292SOL     MW 1168   1.033   0.527   0.079  1.0890  0.3273  0.3792
  293SOL     OW 1169   0.224   0.149   2.458 -0.1333  0.1600 -0.2464
  293SOL    HW1 1170   0.148   0.102   2.418 -1.7449  0.2525  1.8734
  293SOL    HW2 1171   0.182   0.200   2.528  1.2363 -1.8560  0.9173
  293SOL     MW 1172   0.208   0.149   2.462 -0.1652 -0.0938  0.1868
  294SOL     OW 1173   1.519   0.622   2.384 -0.0183 -0.2206  0.0256
  294SOL    HW1 1174   1.513   0.673   2.461 -0.7153 -0.7082 -1.8460
  294SOL    HW2 1175   1.510   0.527   2.412 -1.2157  2.3996 -2.2597
  294SOL     MW 1176   1.517   0.617   2.398 -0.2682  0.0608 -0.5229
  295SOL     OW 1177   0.906   0.675   2.492 -0.2221 -0.3597 -0.7330
  295SOL    HW1 1178   0.860   0.636   2.423  0.4750  0.4321  4.7154
  295SOL    HW2 1179   0.843   0.676   2.564  0.7067  0.5897  0.8454
  295SOL     MW 1180   0.892   0.670   2.493 -0.0076 -0.1300  0.1941
  296SOL     OW 1181   1.248   0.302   2.067 -0.6440 -0.4849 -0.4809
  296SOL    HW1 1182   1.318   0.234   2.037 -1.5425 -1.8163  1.0121
  296SOL    HW2 1183   1.237   0.289   2.166 -1.0682  0.7190 -0.0710
  296SOL     MW 1184   1.256   0.291   2.076 -0.8185 -0.5017 -0.2299
  297SOL     OW 1185   1.460   0.383   1.610 -0.7005 -0.4385 -0.1991
  297SOL    HW1 1186   1.464   0.464   1.665 -1.3273 -0.4182  1.7923
  297SOL    HW2 1187   1.463   0.316   1.681  1.0158 -0.2267  1.3394
  297SOL     MW 1188   1.461   0.385   1.627 -0.5568 -0.4078  0.2666
  298SOL     OW 1189   1.623   0.891   2.037  0.7303  0.1632 -0.2726
  298SOL    HW1 1190   1.606   0.949   1.965  1.6551  0.1115 -0.1454
  298SOL    HW2 1191   1.708   0.906   2.076  1.1525 -1.7758  0.9881
  298SOL     MW 1192   1.632   0.901   2.033  0.9081 -0.0994 -0.0895
  299SOL     OW 1193   0.514   1.052   3.065  0.3530  0.1921 -0.0506
  299SOL    HW1 1194   0.539   1.141   3.082 -0.7235  0.4219 -0.3694
  299SOL    HW2 1195   0.477   1.055   2.980 -1.2222 -1.5232  3.1809
  299SOL     MW 1196   0.512   1.064   3.056  0.0031 -0.0039  0.3337
  300SOL     OW 1197   1.234   1.188   2.497 -0.1384  0.0887  0.0342
  300SOL    HW1 1198   1.152   1.140   2.514  2.2909 -0.7886 -0.7304
  300SOL    HW2 1199   1.259   1.202   2.583 -0.1296 -2.2504 -2.0243
  300SOL     MW 1200   1.226   1.183   2.511  0.1832 -0.3356 -0.3383
  301SOL     OW 1201   1.389   0.884   0.577 -0.0611  0.4224  0.3603
  301SOL    HW1 1202   1.405   0.936   0.657 -0.9872  0.1189 -1.3851
  301SOL    HW2 1203   1.328   0.817   0.605  1.3797  3.1928  1.7101
  301SOL     MW 1204   1.383   0.882   0.591  0.0068  0.7479  0.3081
  302SOL     OW 1205   0.072   1.491   2.032  0.0835 -0.2790  0.6619
  302SOL    HW1 1206   0.076   1.444   2.111 -1.5735  1.3425  1.5017
  302SOL    HW2 1207   0.024   1.570   2.058 -1.7045  2.2859 -1.7263
  302SOL     MW 1208   0.066   1.495   2.046 -0.3710  0.2734  0.4576
  303SOL     OW 1209   0.385   1.685   2.552  0.5185 -0.0297  1.0055
  303SOL    HW1 1210   0.327   1.674   2.475 -0.4522  0.0733  2.4509
  303SOL    HW2 1211   0.325   1.735   2.605  0.3901 -0.4243  0.6254
  303SOL     MW 1212   0.369   1.690   2.549  0.3735 -0.0682  1.1461
  304SOL     OW 1213   0.662   2.042   2.398  0.4302 -0.1829 -0.1438
  304SOL    HW1 1214   0.701   2.113   2.347  1.0423 -1.2716 -3.1509
  304SOL    HW2 1215   0.730   1.988   2.430 -1.7961 -0.1673 -1.3026
  304SOL     MW 1216   0.676   2.044   2.395  0.2173 -0.3245 -0.6934
  305SOL     OW 1217   1.075   0.557   0.548  0.1032  0.2005  0.0704
  305SOL    HW1 1218   0.977   0.543   0.512  0.6750 -0.1156 -3.2530
  305SOL    HW2 1219   1.108   0.472   0.573  2.3057  1.5005  1.1641
  305SOL     MW 1220   1.066   0.544   0.547  0.4692  0.3303 -0.2238
  306SOL     OW 1221   1.218   1.486   0.292  0.3648  0.0760  0.1656
  306SOL    HW1 1222   1.247   1.407   0.333  0.6462  2.7337  4.1869
  306SOL    HW2 1223   1.285   1.494   0.220  0.9223  0.2315 -0.0729
  306SOL     MW 1224   1.230   1.477   0.288  0.4755  0.4472  0.6647
  307SOL     OW 1225   1.409   0.495   1.943  0.4874  0.0330  0.1872
  307SOL    HW1 1226   1.343   0.441   2.002 -2.7083  0.6074  3.3169
  307SOL    HW2 1227   1.474   0.525   2.007 -0.7151  1.2248  0.1913
  307SOL     MW 1228   1.409   0.492   1.959 -0.0929  0.2660  0.6007
  308SOL     OW 1229   2.144   0.632   2.679  0.3426  0.0002  0.3939
  308SOL    HW1 1230   2.230   0.612   2.707 -0.5554 -0.0144  1.5439
  308SOL    HW2 1231   2.139   0.733   2.696  1.9988 -0.9230 -0.3982
  308SOL     MW 1232   2.155   0.643   2.685  0.4427 -0.1236  0.4411
  309SOL     OW 1233   0.473   0.371   0.393 -0.9534 -0.1041  0.1035
  309SOL    HW1 1234   0.543   0.326   0.437 -1.7191  1.7429  0.4058
  309SOL    HW2 1235   0.458   0.322   0.311 -0.2656  0.2783  0.7475
  309SOL     MW 1236   0.480   0.359   0.388 -0.9637  0.1901  0.2284
  310SOL     OW 1237   0.452   0.549   1.907 -0.3825  0.7797  0.3708
  310SOL    HW1 1238   0.491   0.467   1.876  1.7164  0.0233 -0.0084
  310SOL    HW2 1239   0.506   0.624   1.886 -0.9841  1.4051  4.4480
  310SOL     MW 1240   0.464   0.548   1.900 -0.1850  0.7624  0.8587
  311SOL     OW 1241   1.898   0.769   1.962 -0.3872 -0.6241  0.0763
  311SOL    HW1 1242   1.896   0.816   2.044  0.4820 -0.8583  0.4579
  311SOL    HW2 1243   1.955   0.686   1.980 -1.3990 -1.4727  0.5862
  311SOL     MW 1244   1.906   0.764   1.976 -0.4060 -0.7669  0.1939
  312SOL     OW 1245   1.677   2.483   0.060 -0.1456 -0.4264 -0.1034
  312SOL    HW1 1246   1.722   2.496   0.146 -0.6684 -3.3946  0.8443
  312SOL    HW2 1247   1.612   2.556   0.064  0.4267  2.2064 -0.7633
  312SOL     MW 1248   1.674   2.494   0.072 -0.1391 -0.4707 -0.0655
  313SOL     OW 1249   0.122   1.222   2.959 -0.3266  0.5586  0.2783
  313SOL    HW1 1250   0.173   1.196   3.040  1.7675  0.5699 -0.1282
  313SOL    HW2 1251   0.195   1.262   2.898  0.2451 -0.3258 -3.2105
  313SOL     MW 1252   0.138   1.224   2.962  0.0251  0.4434 -0.2356
  314SOL     OW 1253   2.140   2.971   3.008 -0.0237 -0.4259  0.4964
  314SOL    HW1 1254   2.088   3.006   2.937  0.5656 -0.8156 -0.8483
  314SOL    HW2 1255   2.161   3.046   3.056 -0.3868 -2.0277 -1.4447
  314SOL     MW 1256   2.136   2.985   3.005  0.0061 -0.6887  0.0629
  315SOL     OW 1257   1.500   1.882   3.086 -0.1232 -0.1182  0.1840
  315SOL    HW1 1258   1.446   1.964   3.100 -0.0481  2.4279  3.4606
  315SOL    HW2 1259   1.557   1.917   3.013 -1.6699 -0.6608  2.8805
  315SOL     MW 1260   1.500   1.898   3.078 -0.3173  0.1461  0.9721
  316SOL     OW 1261   1.245   0.606   2.691  0.0496  0.3215 -0.5301
  316SOL    HW1 1262   1.321   0.658   2.714  0.3605 -0.7516 -0.6247
  316SOL    HW2 1263   1.240   0.558   2.775  2.3528 -0.7515  1.5633
  316SOL     MW 1264   1.255   0.607   2.705  0.3945  0.0383 -0.2664
  317SOL     OW 1265   0.672   1.464   2.591  0.5082  0.2773  0.0557
  317SOL    HW1 1266   0.721   1.382   2.579 -0.2280  0.8629 -1.3063
  317SOL    HW2 1267   0.667   1.514   2.500  1.7573  2.4538 -1.8965
  317SOL     MW 1268   0.678   1.459   2.577  0.5759  0.6417 -0.3816
  318SOL     OW 1269   1.358   0.396   2.925 -0.1139  0.1333  0.3604
  318SOL    HW1 1270   1.274   0.429   2.949 -0.4609 -0.9964 -0.8562
  318SOL    HW2 1271   1.420   0.467   2.906 -0.0783  1.9806  0.5005
  318SOL     MW 1272   1.355   0.409   2.926 -0.1550  0.2280  0.2184
  319SOL     OW 1273   0.809   0.434   2.830 -0.5515 -0.5327  0.4983
  319SOL    HW1 1274   0.802   0.383   2.752 -2.2812 -0.4724 -0.3646
  319SOL    HW2 1275   0.780   0.375   2.896  0.3063 -2.4095 -1.3042
  319SOL     MW 1276   0.804   0.420   2.829 -0.6665 -0.7723  0.1466
  320SOL     OW 1277   1.029   1.344   1.966 -0.1813  0.0170  0.2994
  320SOL    HW1 1278   1.095   1.300   2.019 -1.5017 -0.7260  1.0933
  320SOL    HW2 1279   1.073   1.413   1.922  0.2919 -1.1956 -0.1792
  320SOL     MW 1280   1.044   1.347   1.967 -0.2931 -0.2410  0.3410
  321SOL     OW 1281   1.049   1.014   3.058  0.5087 -0.3196 -0.0886
  321SOL    HW1 1282   0.994   0.974   2.993  1.7636 -1.4313 -0.3505
  321SOL    HW2 1283   1.109   0.939   3.084  3.8885  2.6468  1.1247
  321SOL     MW 1284   1.050   0.999   3.053  1.1202 -0.0749  0.0369
  322SOL     OW 1285   1.178   0.828   1.710  0.2273  0.0768 -0.4483
  322SOL    HW1 1286   1.270   0.806   1.694  1.5317 -1.5937 -1.1298
  322SOL    HW2 1287   1.174   0.839   1.807  0.4147 -1.9389  0.9297
  322SOL     MW 1288   1.190   0.826   1.721  0.4241 -0.4096 -0.3564
  323SOL     OW 1289   1.214   1.528   1.841 -0.0143 -0.0153  0.4242
  323SOL    HW1 1290   1.234   1.462   1.775 -0.6729  4.3407 -0.3374
  323SOL    HW2 1291   1.153   1.585   1.795  0.1165  1.0833  0.3436
  323SOL     MW 1292   1.209   1.527   1.826 -0.0839  0.7044  0.3131
  324SOL     OW 1293   1.473   1.030   2.458 -0.9758 -0.3763 -0.0149
  324SOL    HW1 1294   1.382   1.075   2.464 -1.6156  0.1276 -0.7141
  324SOL    HW2 1295   1.539   1.097   2.498 -0.3161 -3.0869  0.4429
  324SOL     MW 1296   1.470   1.045   2.464 -0.9732 -0.6675 -0.0467
  325SOL     OW 1297   1.100   0.508   2.912  0.0704  0.6786  0.0208
  325SOL    HW1 1298   1.083   0.553   2.997  1.7965  1.2290 -0.1447
  325SOL    HW2 1299   1.020   0.516   2.861 -3.0501 -1.5851 -0.2077
  325SOL     MW 1300   1.087   0.515   2.916 -0.1136  0.4526 -0.0311
  326SOL     OW 1301   0.472   1.350   2.211  0.4128  0.3223 -0.0985
  326SOL    HW1 1302   0.529   1.328   2.134 -0.9169 -0.8938 -0.2293
  326SOL    HW2 1303   0.480   1.445   2.218 -0.8893  1.0348 -2.4300
  326SOL     MW 1304   0.481   1.360   2.202  0.0655  0.2559 -0.4234
  327SOL     OW 1305   1.880   0.893   2.467  0.4811 -0.1295 -0.3281
  327SOL    HW1 1306   1.845   0.806   2.506  1.2365  2.5787  1.9314
  327SOL    HW2 1307   1.976   0.879   2.453  0.8513 -0.6586 -1.0503
  327SOL     MW 1308   1.888   0.880   2.470  0.6296  0.1580 -0.1253
  328SOL     OW 1309   0.202   1.304   2.235 -0.4013  0.3397  0.0468
  328SOL    HW1 1310   0.158   1.237   2.172 -2.0853 -0.9341  0.5534
  328SOL    HW2 1311   0.299   1.313   2.224 -2.5635 -0.2956  0.5919
  328SOL     MW 1312   0.209   1.296   2.225 -0.9087  0.0878  0.1855
  329SOL     OW 1313   0.110   0.119   1.431 -0.0435 -0.1346 -0.2307
  329SOL    HW1 1314   0.099   0.149   1.526 -0.2567  0.7214  2.8863
  329SOL    HW2 1315   0.191   0.159   1.391  2.8046  0.5412 -0.3446
  329SOL     MW 1316   0.119   0.128   1.438  0.3042  0.0675  0.1655
  330SOL     OW 1317   0.326   3.042   2.079 -0.7736  0.5053  0.1032
  330SOL    HW1 1318   0.398   3.084   2.125  2.7901  0.1001 -0.0130
  330SOL    HW2 1319   0.300   2.982   2.146  1.6939  1.3866 -3.6869
  330SOL     MW 1320   0.332   3.040   2.094  0.0222  0.5681 -0.4122
  331SOL     OW 1321   0.786   1.220   2.298  0.3849 -0.1472  0.1681
  331SOL    HW1 1322   0.753   1.301   2.259  0.3505  1.1395 -0.3315
  331SOL    HW2 1323   0.822   1.255   2.385  0.1090  0.2805 -1.4563
  331SOL     MW 1324   0.786   1.235   2.304  0.3440  0.0790 -0.1121
  332SOL     OW 1325   1.330   1.682   2.970  0.1269  0.0195 -0.0405
  332SOL    HW1 1326   1.341   1.687   2.876 -1.4274 -0.3463 -0.2862
  332SOL    HW2 1327   1.393   1.752   3.010  3.1635  0.1610  0.0801
  332SOL     MW 1328   1.340   1.692   2.963  0.3225 -0.0101 -0.0570
  333SOL     OW 1329   1.750   1.453   3.001  0.7644 -0.0136 -0.1699
  333SOL    HW1 1330   1.844   1.441   2.994  0.2068  2.4701 -1.5949
  333SOL    HW2 1331   1.720   1.471   3.094  1.4222 -1.8947 -2.1975
  333SOL     MW 1332   1.759   1.454   3.012  0.7776  0.0659 -0.6254
  334SOL     OW 1333   1.368   3.074   2.613  0.2225  0.4748  0.1306
  334SOL    HW1 1334   1.278   3.069   2.640 -0.5965  0.3769 -2.6288
  334SOL    HW2 1335   1.397   3.163   2.638  1.6109 -1.9073 -1.1498
  334SOL     MW 1336   1.360   3.085   2.620  0.2976  0.1476 -0.4024
  335SOL     OW 1337   1.210   0.803   3.077  0.1516 -0.0443  0.5200
  335SOL    HW1 1338   1.247   0.777   3.161  1.0300 -0.6379 -2.0372
  335SOL    HW2 1339   1.291   0.795   3.026  2.3535 -1.8978  1.3945
  335SOL     MW 1340   1.226   0.798   3.081  0.5580 -0.3672  0.2980
  336SOL     OW 1341   0.902   1.076   1.918  0.5867 -0.3025 -0.2116
  336SOL    HW1 1342   0.933   1.155   1.953 -0.2759 -2.9382  0.5684
  336SOL    HW2 1343   0.959   1.012   1.954 -2.2080 -2.2542 -0.3221
  336SOL     MW 1344   0.913   1.078   1.928  0.1042 -0.9077 -0.1233
  337SOL     OW 1345   0.540   1.743   2.775  0.6957 -0.4792  0.0407
  337SOL    HW1 1346   0.496   1.757   2.689 -1.0930 -2.1701 -3.1315
  337SOL    HW2 1347   0.625   1.698   2.757  0.3151  0.8875 -1.5288
  337SOL     MW 1348   0.545   1.739   2.761  0.4095 -0.5220 -0.5849
  338SOL     OW 1349   1.119   0.851   2.543  0.1676 -0.0688  0.5146
  338SOL    HW1 1350   1.042   0.796   2.518 -0.3557  2.4086 -2.7200
  338SOL    HW2 1351   1.149   0.804   2.619 -0.8471  0.4476 -0.6914
  338SOL     MW 1352   1.113   0.838   2.550 -0.0353  0.3262 -0.0713
  339SOL     OW 1353   1.554   1.052   1.800  0.0722  0.3198  0.0244
  339SOL    HW1 1354   1.478   1.041   1.749 -1.2970  0.6508 -0.3731
  339SOL    HW2 1355   1.537   1.139   1.851 -0.4064  2.2597  0.4816
  339SOL     MW 1356   1.542   1.062   1.800 -0.1716  0.6194  0.0323
  340SOL     OW 1357   1.393   1.498   0.081 -0.0407 -0.1099 -0.5567
  340SOL    HW1 1358   1.395   1.562   0.013  0.6687 -0.4141  1.5711
  340SOL    HW2 1359   1.484   1.468   0.106  1.2149  1.6602  1.9537
  340SOL     MW 1360   1.405   1.503   0.075  0.2186  0.0835  0.0553
  341SOL     OW 1361   0.142   1.351   2.657  0.1042  0.1434  0.1587
  341SOL    HW1 1362   0.230   1.344   2.623 -1.9574 -0.6975 -0.6829
  341SOL    HW2 1363   0.075   1.325   2.591  0.1982 -0.1013  2.6399
  341SOL     MW 1364   0.144   1.347   2.644 -0.1554  0.0002  0.3750
  342SOL     OW 1365   1.442   0.317   0.073 -0.2824  0.1843  0.2957
  342SOL    HW1 1366   1.504   0.386   0.105 -0.1024 -1.9668  1.9526
  342SOL    HW2 1367   1.436   0.322  -0.022  0.9479 -1.6991  0.5338
  342SOL     MW 1368   1.450   0.327   0.065 -0.0963 -0.3480  0.5457
  343SOL     OW 1369   0.219   0.309   2.236 -0.4305  0.4395 -0.0934
  343SOL    HW1 1370   0.218   0.243   2.306  0.7470 -2.8411 -0.4187
  343SOL    HW2 1371   0.199   0.254   2.158  0.8139  1.3354 -1.6088
  343SOL     MW 1372   0.216   0.293   2.235 -0.1109  0.1249 -0.3362
  344SOL     OW 1373   1.679   2.067   0.230  0.1374  0.4301 -0.1787
  344SOL    HW1 1374   1.691   2.119   0.150 -1.1440 -1.1888 -0.7937
  344SOL    HW2 1375   1.607   2.010   0.207 -1.5343 -2.0031 -2.4487
  344SOL     MW 1376   1.671   2.066   0.216 -0.2522 -0.1045 -0.5594
  345SOL     OW 1377   0.712   1.624   2.345 -0.2193  0.5338 -0.7640
  345SOL    HW1 1378   0.634   1.652   2.294 -1.6331  2.7659 -1.9714
  345SOL    HW2 1379   0.765   1.561   2.286 -1.4100  2.7061 -3.8196
  345SOL     MW 1380   0.709   1.620   2.330 -0.5629  1.1149 -1.3265
  346SOL     OW 1381   1.725   1.150   0.038 -0.2086  0.1746  0.2003
  346SOL    HW1 1382   1.818   1.126   0.020 -0.3760 -0.4651 -0.1924
  346SOL    HW2 1383   1.696   1.085   0.103  0.7727 -0.8539 -1.0188
  346SOL     MW 1384   1.733   1.139   0.044 -0.1012 -0.0455 -0.0124
  347SOL     OW 1385   1.266   0.728   2.300  0.7210  0.2091 -0.3052
  347SOL    HW1 1386   1.347   0.702   2.334 -1.6339  0.3787  0.1114
  347SOL    HW2 1387   1.224   0.784   2.361 -3.5513 -1.3395  0.0439
  347SOL     MW 1388   1.271   0.732   2.312 -0.1534  0.0272 -0.2042
  348SOL     OW 1389   1.320   2.583   1.869  0.2313  0.0491 -0.5953
  348SOL    HW1 1390   1.374   2.514   1.926 -1.1245 -0.8773  3.0869
  348SOL    HW2 1391   1.348   2.668   1.911  1.3949  0.2251  1.0783
  348SOL     MW 1392   1.331   2.585   1.882  0.2059 -0.0499  0.1113
  349SOL     OW 1393   1.438   0.242   2.719 -0.3552 -0.5201  0.4549
  349SOL    HW1 1394   1.392   0.278   2.794 -0.4278  1.6287  0.8258
  349SOL    HW2 1395   1.531   0.270   2.733  0.4263  1.0494 -0.0861
  349SOL     MW 1396   1.444   0.251   2.730 -0.2616 -0.0295  0.4325
  350SOL     OW 1397   1.865   0.647   2.604 -0.0151  0.0715  0.4813
  350SOL    HW1 1398   1.843   0.559   2.571  0.5624 -2.6952  1.1200
  350SOL    HW2 1399   1.956   0.633   2.634 -2.0787  1.4888 -0.3432
  350SOL     MW 1400   1.874   0.634   2.604 -0.2112 -0.1065  0.4568
  351SOL     OW 1401   0.129   0.967   1.632  0.0676  0.6566 -0.4549
  351SOL    HW1 1402   0.060   1.010   1.685 -0.4959  0.2461 -0.2041
  351SOL    HW2 1403   0.176   1.042   1.593 -0.5327  2.7704  0.3004
  351SOL     MW 1404   0.126   0.982   1.634 -0.0859  0.8813 -0.3221
  352SOL     OW 1405   0.789   1.650   2.763  0.4709  0.1049 -0.3640
  352SOL    HW1 1406   0.831   1.613   2.845  1.0502 -0.2272  0.8832
  352SOL    HW2 1407   0.767   1.582   2.694  3.6449  2.9719 -2.6699
  352SOL     MW 1408   0.792   1.636   2.765  0.9661  0.4394 -0.5037
  353SOL     OW 1409   3.007   2.429   2.680  0.1304  0.8104 -0.5777
  353SOL    HW1 1410   3.094   2.394   2.653  1.5800 -4.5642  0.2025
  353SOL    HW2 1411   2.976   2.490   2.611 -0.5461 -0.3420  0.1229
  353SOL     MW 1412   3.014   2.433   2.668  0.2324 -0.0507 -0.3823
  354SOL     OW 1413   0.391   2.442   0.841 -0.8851  0.1017 -0.0168
  354SOL    HW1 1414   0.413   2.420   0.933  0.0679  0.5372  1.3801
  354SOL    HW2 1415   0.319   2.397   0.802  1.1525  0.2924  0.9355
  354SOL     MW 1416   0.384   2.433   0.848 -0.4905  0.1843  0.2931
  355SOL     OW 1417   0.037   2.179   0.409  0.0134  0.1385 -0.1053
  355SOL    HW1 1418  -0.054   2.139   0.389 -1.0805  0.4515 -2.0026
  355SOL    HW2 1419   0.005   2.215   0.491 -0.4337 -2.1234  1.7810
  355SOL     MW 1420   0.020   2.179   0.417 -0.1899 -0.1186 -0.1067
  356SOL     OW 1421   0.835   2.884   1.042  0.3076 -0.5630  0.3321
  356SOL    HW1 1422   0.862   2.878   0.947  0.3196 -1.2062 -1.0542
  356SOL    HW2 1423   0.744   2.848   1.043  4.0698  1.7813  1.5477
  356SOL     MW 1424   0.827   2.879   1.030  0.8056 -0.3385  0.3096
  357SOL     OW 1425   1.774   2.923   0.363 -0.2264 -0.4148 -0.4197
  357SOL    HW1 1426   1.709   2.856   0.407 -2.2907  0.4248 -1.6621
  357SOL    HW2 1427   1.867   2.894   0.361 -0.6227  2.4915 -0.3056
  357SOL     MW 1428   1.777   2.911   0.369 -0.5510  0.0795 -0.5686
  358SOL     OW 1429   0.393   0.115   1.017 -0.5338 -0.2923 -0.2266
  358SOL    HW1 1430   0.480   0.157   1.020  0.1758  0.9477 -0.4529
  358SOL    HW2 1431   0.362   0.134   0.925 -1.1309  0.6586  0.6708
  358SOL     MW 1432   0.401   0.123   1.005 -0.5190 -0.0032 -0.1380
  359SOL     OW 1433   0.930   2.888   1.801 -0.8570  0.0604 -1.1643
  359SOL    HW1 1434   0.921   2.800   1.856  0.5890 -0.9230 -1.6252
  359SOL    HW2 1435   0.984   2.872   1.728  0.0048  0.4494 -0.2469
  359SOL     MW 1436   0.936   2.874   1.799 -0.5525 -0.0180 -1.1041
  360SOL     OW 1437   0.599   2.787   1.017  0.4249 -0.1143  0.3334
  360SOL    HW1 1438   0.624   2.746   0.933 -1.1520  0.8142 -1.1215
  360SOL    HW2 1439   0.565   2.724   1.085  0.5473 -0.7311  1.2783
  360SOL     MW 1440   0.598   2.773   1.015  0.2330 -0.0732  0.2661
  361SOL     OW 1441   0.197   2.697   1.313  0.4179 -0.0553 -0.2071
  361SOL    HW1 1442   0.184   2.784   1.353  0.0641  2.1117 -1.2371
  361SOL    HW2 1443   0.290   2.698   1.321  1.7105 -0.9552  1.8985
  361SOL     MW 1444   0.208   2.709   1.319  0.5417  0.1119 -0.0652
  362SOL     OW 1445   1.472   2.421   0.627 -0.1679 -0.4942  0.8659
  362SOL    HW1 1446   1.465   2.334   0.670 -1.2435  2.3655 -0.4310
  362SOL    HW2 1447   1.491   2.488   0.695 -0.4585 -0.6412  0.0769
  362SOL     MW 1448   1.474   2.418   0.641 -0.3482 -0.1363  0.5907
  363SOL     OW 1449   0.300   3.031   0.720  0.0985  0.1238 -0.2089
  363SOL    HW1 1450   0.324   2.988   0.806  1.7581 -2.9880 -1.3146
  363SOL    HW2 1451   0.206   3.028   0.698 -0.1453  1.1838 -3.2961
  363SOL     MW 1452   0.291   3.025   0.728  0.2853 -0.1469 -0.7621
  364SOL     OW 1453   0.754   0.175   0.254  0.2480  0.0002 -0.1229
  364SOL    HW1 1454   0.706   0.098   0.244  1.6666  0.4877 -2.3278
  364SOL    HW2 1455   0.709   0.245   0.205  0.5798  4.3100  0.4131
  364SOL     MW 1456   0.742   0.174   0.246  0.4790  0.6331 -0.3431
  365SOL     OW 1457   0.947   1.940   1.119  0.4351  0.0047 -0.0332
  365SOL    HW1 1458   0.895   2.014   1.084  1.0400  0.5773 -3.6610
  365SOL    HW2 1459   0.900   1.867   1.073 -0.0010  1.0035 -0.4754
  365SOL     MW 1460   0.934   1.940   1.108  0.4574  0.2121 -0.5702
  366SOL     OW 1461   2.877   2.617   1.009 -0.2056  0.2039 -0.2487
  366SOL    HW1 1462   2.945   2.641   1.070 -2.0589 -2.3180  0.3438
  366SOL    HW2 1463   2.925   2.642   0.922  0.2341  1.4893 -1.1164
  366SOL     MW 1464   2.892   2.624   1.005 -0.3921  0.0408 -0.2850
  367SOL     OW 1465   1.242   2.807   0.887 -0.4665  0.2214  0.2766
  367SOL    HW1 1466   1.153   2.821   0.876  1.5578 -1.0978 -0.0006
  367SOL    HW2 1467   1.265   2.758   0.807  0.0763  0.0246 -1.0259
  367SOL     MW 1468   1.234   2.802   0.875 -0.1278  0.0214  0.0682
  368SOL     OW 1469   1.677   0.455   0.686  0.0985 -0.4251  0.7845
  368SOL    HW1 1470   1.769   0.420   0.665  0.3406  1.8847 -1.2982
  368SOL    HW2 1471   1.678   0.542   0.720 -0.9497  0.4614  1.3504
  368SOL     MW 1472   1.689   0.462   0.688 -0.0079 -0.0034  0.5844
  369SOL     OW 1473   0.153   2.460   1.704  0.0889  0.1340 -0.3053
  369SOL    HW1 1474   0.249   2.452   1.719  2.1485 -0.9235 -2.7838
  369SOL    HW2 1475   0.132   2.544   1.742  1.4439  0.5327 -0.8896
  369SOL     MW 1476   0.163   2.470   1.711  0.5394  0.0471 -0.7094
  370SOL     OW 1477   0.751   0.078   0.994  0.2702 -0.1018 -0.1139
  370SOL    HW1 1478   0.799   0.143   1.039 -0.5134 -1.3269  2.4860
  370SOL    HW2 1479   0.762  -0.003   1.041 -1.2775  0.9958  3.0874
  370SOL     MW 1480   0.759   0.076   1.006 -0.0374 -0.1186  0.6515
  371SOL     OW 1481   1.341   2.966   1.505  0.8780 -0.1925  0.0086
  371SOL    HW1 1482   1.323   2.892   1.448 -0.6785 -0.6557 -0.0383
  371SOL    HW2 1483   1.332   3.040   1.445 -2.0812 -3.1343  1.3250
  371SOL     MW 1484   1.337   2.966   1.490  0.2822 -0.6418  0.1761
  372SOL     OW 1485   0.830   2.302   0.468 -0.0791  0.4161  0.0459
  372SOL    HW1 1486   0.797   2.211   0.483 -1.4023  1.9529  0.3636
  372SOL    HW2 1487   0.843   2.310   0.370 -1.0742 -0.1497 -0.8136
  372SOL     MW 1488   0.828   2.291   0.457 -0.3850  0.5442 -0.0256
  373SOL     OW 1489   2.797   3.003   1.395 -0.4466  0.2797 -0.0957
  373SOL    HW1 1490   2.854   2.940   1.347 -1.8098 -0.9427  1.5992
  373SOL    HW2 1491   2.831   3.085   1.352 -0.1673  0.0036  0.2875
  373SOL     MW 1492   2.809   3.005   1.383 -0.5896  0.0820  0.1785
  374SOL     OW 1493   1.531   0.511   0.244  0.3561  0.2587 -0.5045
  374SOL    HW1 1494   1.605   0.561   0.261 -2.0245  1.5534 -0.5915
  374SOL    HW2 1495   1.490   0.486   0.327  2.4794  1.4316 -0.2865
  374SOL     MW 1496   1.535   0.514   0.257  0.3221  0.5843 -0.4872
  375SOL     OW 1497   1.135   2.103   2.292  0.1035 -0.5828 -0.3576
  375SOL    HW1 1498   1.142   2.121   2.389 -0.5193  0.8245 -1.9975
  375SOL    HW2 1499   1.139   2.008   2.285 -1.6684  0.4290 -0.1245
  375SOL     MW 1500   1.136   2.093   2.304 -0.2124 -0.2636 -0.5432
  376SOL     OW 1501   0.705   2.493   0.048  0.2412  0.2959  0.0958
  376SOL    HW1 1502   0.744   2.439   0.115  0.5188 -0.7832 -2.8926
  376SOL    HW2 1503   0.648   2.427  -0.003 -1.1779  0.2290 -1.3667
  376SOL     MW 1504   0.703   2.477   0.050  0.0906  0.1447 -0.4914
  377SOL     OW 1505   1.313   1.971   0.859  0.1929  0.5844 -0.2051
  377SOL    HW1 1506   1.231   1.948   0.814 -0.1151  0.2986  0.9614
  377SOL    HW2 1507   1.303   1.933   0.948  0.1835  0.2329 -0.0096
  377SOL     MW 1508   1.301   1.963   0.865  0.1510  0.5003 -0.0254
  378SOL     OW 1509   1.054   2.814   1.564 -0.2044  0.1960  0.3882
  378SOL    HW1 1510   0.997   2.734   1.563 -0.5580 -0.4217 -1.8662
  378SOL    HW2 1511   1.000   2.871   1.505  1.3391  1.5223 -0.2361
  378SOL     MW 1512   1.039   2.811   1.556 -0.0474  0.2895  0.0084
  379SOL     OW 1513   1.122   1.810   2.265  0.3536  0.1150  0.3144
  379SOL    HW1 1514   1.024   1.820   2.287 -1.9105  1.6341  0.8405
  379SOL    HW2 1515   1.118   1.722   2.228  0.0221  0.3935  0.5935
  379SOL     MW 1516   1.109   1.799   2.263  0.0111  0.3522  0.4207
  380SOL     OW 1517   0.856   0.039   1.553  0.0788 -0.0616 -0.5941
  380SOL    HW1 1518   0.924   0.056   1.492  1.3964  1.5500  0.9998
  380SOL    HW2 1519   0.899   0.071   1.635  1.3358  0.9732  2.2130
  380SOL     MW 1520   0.871   0.046   1.556  0.4185  0.2876 -0.0134
  381SOL     OW 1521   0.798   1.963   0.786  0.2206  0.1110  0.1061
  381SOL    HW1 1522   0.896   1.964   0.777  0.6781  0.5263  0.7436
  381SOL    HW2 1523   0.781   2.034   0.844  1.1481  2.1253  0.9443
  381SOL     MW 1524   0.809   1.972   0.792  0.4033  0.4316  0.3008
  382SOL     OW 1525   0.713   0.066   0.728 -0.4394  0.0729  0.0121
  382SOL    HW1 1526   0.709   0.058   0.827  2.5072 -3.5437  2.7361
  382SOL    HW2 1527   0.689  -0.023   0.691  1.2829 -1.0576 -0.8954
  382SOL     MW 1528   0.710   0.053   0.736  0.1766 -0.5535  0.2518
  383SOL     OW 1529   0.462   0.041   0.353  0.2949 -0.0623 -0.5644
  383SOL    HW1 1530   0.519  -0.020   0.319 -0.9700 -1.5955  1.2875
  383SOL    HW2 1531   0.394  -0.001   0.406  0.8330  0.8429  1.4219
  383SOL     MW 1532   0.461   0.027   0.355  0.1990 -0.1451 -0.0580
  384SOL     OW 1533   0.648   2.904   0.668  0.1275  0.2761 -0.3165
  384SOL    HW1 1534   0.648   2.823   0.724 -0.9990 -3.6532  2.1433
  384SOL    HW2 1535   0.579   2.890   0.605  2.0326 -1.2983  0.8267
  384SOL     MW 1536   0.639   2.891   0.667  0.2302 -0.4500  0.1589
  385SOL     OW 1537   1.316   2.061   1.510  0.1516  0.1097 -0.1095
  385SOL    HW1 1538   1.387   2.078   1.572 -0.3825 -0.3158 -0.4164
  385SOL    HW2 1539   1.272   1.974   1.536  2.4758  1.0926 -2.4511
  385SOL     MW 1540   1.320   2.052   1.522  0.3878  0.1833 -0.4589
  386SOL     OW 1541   1.394   0.337   0.821  0.4139  0.6647 -0.1722
  386SOL    HW1 1542   1.316   0.299   0.769 -2.5878 -2.8556  2.1575
  386SOL    HW2 1543   1.352   0.355   0.907  0.8900 -4.1199  2.0839
  386SOL     MW 1544   1.378   0.334   0.826  0.0807 -0.4310  0.4328
  387SOL     OW 1545   0.822   2.214   1.453  0.0626  0.1215 -0.3415
  387SOL    HW1 1546   0.899   2.259   1.416  0.2554  0.7832 -0.9800
  387SOL    HW2 1547   0.847   2.123   1.450  1.7359  0.2474 -0.2593
  387SOL     MW 1548   0.836   2.208   1.448  0.3088  0.2254 -0.4149
  388SOL     OW 1549   1.567   2.785   1.247 -0.0565  0.2985 -0.2461
  388SOL    HW1 1550   1.481   2.761   1.213  0.7231  1.4514 -1.2665
  388SOL    HW2 1551   1.628   2.722   1.201  0.5489  0.6764 -2.5753
  388SOL     MW 1552   1.563   2.773   1.236  0.1263  0.5005 -0.6881
  389SOL     OW 1553   0.362   0.035   3.044 -0.4179  0.0782 -0.8053
  389SOL    HW1 1554   0.458   0.032   3.033  0.1161  0.5195  0.8534
  389SOL    HW2 1555   0.335   0.095   2.979  1.3867 -2.5555  2.9756
  389SOL     MW 1556   0.371   0.043   3.034 -0.1093 -0.2110 -0.0876
  390SOL     OW 1557   1.278   0.025   0.608 -0.4526  0.7885  0.1243
  390SOL    HW1 1558   1.361   0.053   0.573  0.9085  0.3020  1.4821
  390SOL    HW2 1559   1.303   0.032   0.699  2.1312  1.3538  0.4214
  390SOL     MW 1560   1.292   0.029   0.615  0.0679  0.7989  0.3427
  391SOL     OW 1561   0.284   2.268   1.472  0.0495 -0.6568 -1.0101
  391SOL    HW1 1562   0.229   2.194   1.497 -0.6262 -0.2781  0.1192
  391SOL    HW2 1563   0.218   2.339   1.446  0.4514  0.0150 -0.7635
  391SOL     MW 1564   0.268   2.268   1.472  0.0134 -0.5182 -0.8286
  392SOL     OW 1565   2.048   2.158   0.366  0.6388 -0.3114 -0.4036
  392SOL    HW1 1566   2.027   2.218   0.434  2.2872 -2.7060  1.7465
  392SOL    HW2 1567   2.092   2.085   0.406 -2.3034  0.8079  0.1892
  392SOL     MW 1568   2.051   2.156   0.380  0.4681 -0.4797 -0.0417
  393SOL     OW 1569   0.211   3.000   2.802 -0.3040 -0.0381 -0.2060
  393SOL    HW1 1570   0.279   3.065   2.818 -1.8009  0.4813 -1.5415
  393SOL    HW2 1571   0.132   3.047   2.768 -3.1149  2.3582 -1.8041
  393SOL     MW 1572   0.210   3.015   2.800 -0.8723  0.3466 -0.5930
  394SOL     OW 1573   0.880   1.697   1.490 -0.0386  0.0612  0.1988
  394SOL    HW1 1574   0.831   1.712   1.573  0.4734  0.5098  2.0586
  394SOL    HW2 1575   0.890   1.784   1.448 -2.1460  2.6969  0.7633
  394SOL     MW 1576   0.875   1.710   1.495 -0.2491  0.4681  0.5186
  395SOL     OW 1577   0.950   2.854   2.626 -0.3985  0.1802  0.0834
  395SOL    HW1 1578   0.994   2.937   2.655  2.8611  0.1097  0.2538
  395SOL    HW2 1579   1.025   2.796   2.586  0.2658 -2.4796  0.3822
  395SOL     MW 1580   0.966   2.857   2.625  0.1192 -0.1800  0.1453
  396SOL     OW 1581   0.872   1.843   2.383  0.3557  0.0266 -0.2463
  396SOL    HW1 1582   0.884   1.857   2.481  0.7616 -0.7074  0.1305
  396SOL    HW2 1583   0.811   1.772   2.370 -0.5749  2.9761  0.8563
  396SOL     MW 1584   0.865   1.835   2.394  0.2865  0.3189 -0.0511
  397SOL     OW 1585   1.025   2.376   1.373  0.4057  0.1618 -0.4099
  397SOL    HW1 1586   1.060   2.370   1.284 -0.4532  1.3761 -0.6521
  397SOL    HW2 1587   1.102   2.375   1.438 -0.8014 -1.1512  2.7986
  397SOL     MW 1588   1.040   2.375   1.370  0.1331  0.1488 -0.0186
  398SOL     OW 1589   0.654   2.667   0.782 -0.1090  0.1358 -0.1938
  398SOL    HW1 1590   0.579   2.602   0.801 -0.7432  2.0975  0.9174
  398SOL    HW2 1591   0.733   2.619   0.751 -0.5893  1.2993  0.8357
  398SOL     MW 1592   0.654   2.652   0.780 -0.2560  0.5481  0.0886
  399SOL     OW 1593   0.289   2.060   0.456 -0.0266  0.7782  0.4708
  399SOL    HW1 1594   0.188   2.075   0.456 -1.3875  1.8146  0.4795
  399SOL    HW2 1595   0.316   2.081   0.364  2.4812 -0.7464 -0.0892
  399SOL     MW 1596   0.279   2.065   0.444  0.1248  0.7138  0.3980
  400SOL     OW 1597   0.548   1.832   0.196 -0.1198 -0.5059  0.2518
  400SOL    HW1 1598   0.503   1.913   0.213 -0.5408  0.8275 -0.9443
  400SOL    HW2 1599   0.527   1.778   0.266 -0.6152  2.1842 -2.0941
  400SOL     MW 1600   0.539   1.836   0.208 -0.2407  0.0250 -0.2155
  401SOL     OW 1601   0.916   2.076   0.182  0.1837  0.4538 -0.4799
  401SOL    HW1 1602   0.910   1.979   0.185 -1.0165 -2.3827 -1.1873
  401SOL    HW2 1603   0.996   2.101   0.223  1.1115 -0.7087  0.8987
  401SOL     MW 1604   0.926   2.067   0.188  0.1478 -0.0738 -0.3914
  402SOL     OW 1605   0.692   2.976   1.670 -0.1686 -0.7088 -0.0485
  402SOL    HW1 1606   0.734   2.936   1.746  0.3799  0.6426  2.0407
  402SOL    HW2 1607   0.764   3.007   1.615 -2.3511 -0.8213  1.3675
  402SOL     MW 1608   0.707   2.975   1.673 -0.3842 -0.5454  0.4140
  403SOL     OW 1609   0.069   0.394   0.411 -0.3632 -0.2263 -0.4880
  403SOL    HW1 1610   0.152   0.415   0.456 -2.0339  2.9470 -1.9172
  403SOL    HW2 1611   0.096   0.377   0.323 -3.1630  0.0315 -0.8169
  403SOL     MW 1612   0.083   0.394   0.406 -0.9531  0.2264 -0.7200
  404SOL     OW 1613   0.977   2.865   0.797  0.0996 -0.5557  0.2853
  404SOL    HW1 1614   1.001   2.815   0.721 -2.1503 -1.1111  0.8201
  404SOL    HW2 1615   0.975   2.959   0.767  0.8583  0.3858 -0.2576
  404SOL     MW 1616   0.980   2.871   0.783 -0.0971 -0.5048  0.2842
  405SOL     OW 1617   0.519   2.421   1.552  0.3017  0.1397 -0.5661
  405SOL    HW1 1618   0.514   2.500   1.504  1.7182 -1.2100  0.1226
  405SOL    HW2 1619   0.439   2.365   1.521 -1.8925 -2.7387 -0.4033
  405SOL     MW 1620   0.508   2.424   1.541  0.1991 -0.4182 -0.4538
  406SOL     OW 1621   0.367   2.340   1.103 -0.1872  0.2609  0.1400
  406SOL    HW1 1622   0.269   2.329   1.080 -3.0635  1.1065 -0.8526
  406SOL    HW2 1623   0.397   2.259   1.155 -2.4434  0.8719 -0.0555
  406SOL     MW 1624   0.358   2.328   1.107 -0.8644  0.4531 -0.0168
  407SOL     OW 1625   0.033   2.741   1.099  0.4979  0.2437 -0.1325
  407SOL    HW1 1626   0.088   2.710   1.169 -2.1037 -0.3258  0.2554
  407SOL    HW2 1627   0.089   2.715   1.013  2.2220 -0.4855 -0.4131
  407SOL     MW 1628   0.047   2.733   1.097  0.3821  0.0723 -0.1183
  408SOL     OW 1629   2.083   2.056   0.676 -0.1361  0.3341 -0.0862
  408SOL    HW1 1630   2.039   2.112   0.741  1.2782 -1.5642  2.4166
  408SOL    HW2 1631   2.014   1.986   0.660 -1.4331 -2.3927  2.5322
  408SOL     MW 1632   2.068   2.054   0.683 -0.1206 -0.2761  0.5895
  409SOL     OW 1633   1.385   0.040   0.906 -0.1494 -0.7777  0.0525
  409SOL    HW1 1634   1.422   0.128   0.918  0.4060 -2.1024 -0.6852
  409SOL    HW2 1635   1.448  -0.014   0.949  1.4672  0.0130 -1.2152
  409SOL     MW 1636   1.398   0.045   0.914  0.1372 -0.8482 -0.2121
  410SOL     OW 1637   1.102   2.437   1.076  0.4072 -0.3546 -0.7206
  410SOL    HW1 1638   1.023   2.462   1.031 -1.9663 -2.5757 -0.8629
  410SOL    HW2 1639   1.125   2.349   1.043 -2.5673 -0.0348  0.5900
  410SOL     MW 1640   1.095   2.428   1.066 -0.2984 -0.6054 -0.5665
  411SOL     OW 1641   1.973   0.043   2.868  0.1387  0.0992 -0.6744
  411SOL    HW1 1642   1.938  -0.002   2.788  2.4216  3.0462  0.2081
  411SOL    HW2 1643   1.902   0.041   2.930 -0.0285 -1.6660  0.9143
  411SOL     MW 1644   1.959   0.037   2.866  0.4179  0.2551 -0.3484
  412SOL     OW 1645   1.053   2.233   0.584 -0.1688  0.4855 -0.1088
  412SOL    HW1 1646   1.090   2.313   0.622 -5.0252 -0.3783 -1.5194
  412SOL    HW2 1647   0.971   2.261   0.547 -0.0963 -1.4835  1.8524
  412SOL     MW 1648   1.047   2.247   0.584 -0.7999  0.1117 -0.0361
  413SOL     OW 1649   0.537   2.770   0.048  0.1042 -0.1409 -0.7248
  413SOL    HW1 1650   0.550   2.677   0.051 -2.4285  0.1287 -0.5679
  413SOL    HW2 1651   0.531   2.781  -0.045  0.9132  0.1429  0.4456
  413SOL     MW 1652   0.538   2.759   0.036 -0.1232 -0.0679 -0.5497
  414SOL     OW 1653   1.924   2.992   1.071 -0.6059 -0.3304  0.2123
  414SOL    HW1 1654   1.898   3.005   0.981 -1.1457  1.1893  1.3767
  414SOL    HW2 1655   2.019   2.967   1.060 -0.0835  2.1903  0.5319
  414SOL     MW 1656   1.933   2.990   1.058 -0.6082  0.2027  0.4081
  415SOL     OW 1657   1.729   2.590   1.129  0.5705 -0.9757  0.5107
  415SOL    HW1 1658   1.678   2.520   1.187 -2.9263  1.0683  1.0880
  415SOL    HW2 1659   1.820   2.595   1.170  0.9469 -0.7205  1.2096
  415SOL     MW 1660   1.734   2.582   1.142  0.1588 -0.6723  0.6791
  416SOL     OW 1661   0.577   1.923   1.345 -0.0699  0.2234  0.3350
  416SOL    HW1 1662   0.511   1.997   1.329 -2.9114 -1.0236  0.2945
  416SOL    HW2 1663   0.560   1.860   1.278 -0.8656 -0.0150  0.3146
  416SOL     MW 1664   0.566   1.925   1.334 -0.5498  0.0274  0.3269
  417SOL     OW 1665   0.987   3.021   2.037 -0.3186 -0.0306  0.0994
  417SOL    HW1 1666   0.908   3.009   2.098  2.2464 -0.3631  3.4081
  417SOL    HW2 1667   0.965   2.968   1.956 -0.6848 -0.6287 -1.7915
  417SOL     MW 1668   0.973   3.012   2.034 -0.0285 -0.1534  0.2865
  418SOL     OW 1669   0.641   2.997   0.201 -0.1422 -0.1526 -0.5501
  418SOL    HW1 1670   0.727   2.990   0.145  0.1136  1.6081 -1.8779
  418SOL    HW2 1671   0.594   2.932   0.146  3.4981  1.9316 -0.9795
  418SOL     MW 1672   0.646   2.988   0.186  0.3719  0.3547 -0.7819
  419SOL     OW 1673   0.478   2.637   1.384  0.0711 -0.2250 -0.2001
  419SOL    HW1 1674   0.547   2.712   1.391  0.1455 -0.7448  1.8751
  419SOL    HW2 1675   0.505   2.582   1.306  0.0428 -0.3707  0.2435
  419SOL     MW 1676   0.491   2.640   1.375  0.0772 -0.3128  0.1322
  420SOL     OW 1677   0.765   2.144   0.992  0.3081  0.2049 -0.4567
  420SOL    HW1 1678   0.720   2.165   1.079  1.3862  0.6759 -1.0690
  420SOL    HW2 1679   0.786   2.228   0.954  2.7489 -1.0582  2.1729
  420SOL     MW 1680   0.762   2.158   0.999  0.7724  0.1004 -0.1906
  421SOL     OW 1681   2.937   0.089   0.044 -0.2746 -0.0302  0.2533
  421SOL    HW1 1682   2.888   0.041  -0.024 -1.8212 -1.4601  1.9695
  421SOL    HW2 1683   2.995   0.017   0.074  3.2797 -0.5299 -0.6085
  421SOL     MW 1684   2.938   0.073   0.039 -0.0097 -0.2848  0.3660
  422SOL     OW 1685   0.838   2.436   0.979  0.2853 -0.5207 -0.8009
  422SOL    HW1 1686   0.814   2.515   1.027  2.5715  0.5017 -2.5093
  422SOL    HW2 1687   0.845   2.459   0.887 -1.3301  1.4603  0.0971
  422SOL     MW 1688   0.835   2.450   0.973  0.3738 -0.1244 -0.9078
  423SOL     OW 1689   1.507   0.140   0.512 -0.1609 -0.2322 -0.4208
  423SOL    HW1 1690   1.518   0.139   0.414 -0.6123  3.1520  0.2804
  423SOL    HW2 1691   1.505   0.230   0.545  0.6015  2.1984  1.3649
  423SOL     MW 1692   1.508   0.152   0.504 -0.1198  0.5350 -0.0927
  424SOL     OW 1693   0.670   2.228   1.228 -0.4659 -0.1666  0.0049
  424SOL    HW1 1694   0.586   2.197   1.252 -2.5651  0.5576  1.9553
  424SOL    HW2 1695   0.720   2.226   1.309 -2.1859 -0.2763 -1.1738
  424SOL     MW 1696   0.665   2.224   1.242 -0.9698 -0.0855  0.1067
  425SOL     OW 1697   1.708   2.818   1.923 -0.2344  0.1022  0.0306
  425SOL    HW1 1698   1.751   2.821   1.832  1.9390 -1.7072  0.1349
  425SOL    HW2 1699   1.760   2.744   1.965 -0.0084  0.0022 -1.4575
  425SOL     MW 1700   1.721   2.809   1.917  0.0822 -0.1497 -0.1520
  426SOL     OW 1701   0.795   1.699   1.934 -0.2502 -0.7111 -0.0426
  426SOL    HW1 1702   0.752   1.694   1.852  1.5348 -0.2551  0.1382
  426SOL    HW2 1703   0.770   1.774   1.989  0.6611 -3.2439  0.9330
  426SOL     MW 1704   0.786   1.708   1.931  0.1056 -0.9851  0.1100
  427SOL     OW 1705   0.340   1.537   1.892  0.3487 -0.1122  0.3658
  427SOL    HW1 1706   0.393   1.452   1.885  0.0680 -0.0563 -2.1647
  427SOL    HW2 1707   0.289   1.523   1.967  1.5933 -2.1641 -2.0042
  427SOL     MW 1708   0.340   1.524   1.901  0.4759 -0.3755 -0.2807
  428SOL     OW 1709   0.535   2.545   1.141  0.0615  0.1625  0.4002
  428SOL    HW1 1710   0.618   2.510   1.171 -0.9884  0.0974  0.1357
  428SOL    HW2 1711   0.473   2.470   1.135 -0.4342  0.5048  1.4392
  428SOL     MW 1712   0.537   2.531   1.144 -0.1424  0.1991  0.5024
  429SOL     OW 1713   1.331   2.610   1.073 -0.4364  0.3017 -0.4067
  429SOL    HW1 1714   1.246   2.565   1.084  1.0233 -0.0114  0.1167
  429SOL    HW2 1715   1.301   2.688   1.016 -0.7029  0.0247 -0.4201
  429SOL     MW 1716   1.316   2.615   1.067 -0.2790  0.2239 -0.3394
  430SOL     OW 1717   1.119   2.684   0.632  0.1046 -0.0324  0.3209
  430SOL    HW1 1718   1.142   2.595   0.652 -0.0012  0.3233 -1.9678
  430SOL    HW2 1719   1.047   2.676   0.568  1.2384 -0.0588  1.3279
  430SOL     MW 1720   1.112   2.671   0.626  0.2402  0.0110  0.1518
  431SOL     OW 1721   0.316   1.930   1.101 -0.3725 -0.1522  0.3727
  431SOL    HW1 1722   0.387   1.861   1.107 -0.7519 -1.9674  2.3546
  431SOL    HW2 1723   0.310   1.974   1.013 -0.0793 -1.1564 -2.5804
  431SOL     MW 1724   0.325   1.927   1.090 -0.3839 -0.5242  0.2446
  432SOL     OW 1725   0.025   0.117   1.158 -0.0770  0.1398 -0.2940
  432SOL    HW1 1726   0.023   0.119   1.254 -0.7889  0.9122  0.7126
  432SOL    HW2 1727  -0.050   0.053   1.136 -2.3926  0.6337 -1.7459
  432SOL     MW 1728   0.015   0.109   1.168 -0.4764  0.3069 -0.3528
  433SOL     OW 1729   0.600   2.872   1.413 -0.1251 -0.1163  0.3581
  433SOL    HW1 1730   0.613   2.874   1.508  0.1358  0.4215 -1.6127
  433SOL    HW2 1731   0.692   2.884   1.387 -1.9724 -0.3412  1.7787
  433SOL     MW 1732   0.614   2.874   1.422 -0.3344 -0.0750  0.2855
  434SOL     OW 1733   1.563   2.833   1.538  0.0240  0.5815 -0.1094
  434SOL    HW1 1734   1.485   2.896   1.539 -2.5069 -0.7757 -0.0177
  434SOL    HW2 1735   1.548   2.803   1.451 -1.1398 -2.2151  3.5601
  434SOL     MW 1736   1.551   2.837   1.527 -0.4635  0.0334  0.3868
  435SOL     OW 1737   2.843   1.774   0.157 -0.2537  0.0574 -0.2794
  435SOL    HW1 1738   2.905   1.832   0.112  1.9530 -0.9948  0.6886
  435SOL    HW2 1739   2.808   1.716   0.091 -0.7417 -0.5468  0.1826
  435SOL     MW 1740   2.847   1.774   0.143 -0.0269 -0.1611 -0.0907
  436SOL     OW 1741   1.355   2.733   0.311 -0.3805 -0.1862 -0.3846
  436SOL    HW1 1742   1.423   2.693   0.363 -1.7179 -2.0541  0.3948
  436SOL    HW2 1743   1.326   2.811   0.367 -2.5438 -0.3150 -0.2054
  436SOL     MW 1744   1.360   2.738   0.325 -0.8424 -0.4496 -0.2581
  437SOL     OW 1745   0.866   2.898   1.374  0.1347  0.2129 -0.0586
  437SOL    HW1 1746   0.899   2.975   1.326  1.2336 -0.9362 -0.6121
  437SOL    HW2 1747   0.899   2.825   1.325 -2.9427 -0.3757 -0.2738
  437SOL     MW 1748   0.875   2.898   1.361 -0.1263 -0.0164 -0.1600
  438SOL     OW 1749   0.921   2.641   1.938 -0.0853 -0.2357 -0.4305
  438SOL    HW1 1750   0.885   2.582   2.010  1.7993 -0.3750 -0.1224
  438SOL    HW2 1751   0.871   2.596   1.869 -2.5466 -0.6649  0.9463
  438SOL     MW 1752   0.910   2.627   1.938 -0.1614 -0.3107 -0.2082
  439SOL     OW 1753   1.136   2.140   0.345 -0.2155 -1.0419 -0.0406
  439SOL    HW1 1754   1.109   2.160   0.437 -0.3969  0.3902 -1.3226
  439SOL    HW2 1755   1.162   2.223   0.294 -0.5790 -1.0138  0.8108
  439SOL     MW 1756   1.136   2.154   0.350 -0.2874 -0.8492 -0.0974
  440SOL     OW 1757   1.592   2.901   3.026 -0.0763 -0.1588  0.1135
  440SOL    HW1 1758   1.553   2.886   3.111  1.1252 -0.3849 -1.0594
  440SOL    HW2 1759   1.630   2.819   3.011 -1.4300  1.5940 -0.2880
  440SOL     MW 1760   1.592   2.888   3.035 -0.0963  0.0427 -0.0942
  441SOL     OW 1761   0.321   2.585   0.541 -0.2421  0.6253  0.3261
  441SOL    HW1 1762   0.341   2.567   0.450 -1.3304  1.4075 -0.2524
  441SOL    HW2 1763   0.343   2.674   0.555  1.6818 -1.6302  0.0533
  441SOL     MW 1764   0.326   2.594   0.531 -0.1318  0.4309  0.2138
  442SOL     OW 1765   3.043   2.311   0.638 -0.4831  1.1218 -0.1894
  442SOL    HW1 1766   3.061   2.407   0.644 -1.2454  1.2958 -0.0260
  442SOL    HW2 1767   2.952   2.301   0.672  1.1044 -0.6966  2.5219
  442SOL     MW 1768   3.033   2.323   0.643 -0.3742  0.9048  0.1899
  443SOL     OW 1769   1.400   1.777   1.839  0.8885  0.3879 -0.0978
  443SOL    HW1 1770   1.371   1.813   1.760 -0.8260 -2.2252  2.4167
  443SOL    HW2 1771   1.348   1.697   1.835  1.0340  2.0387  0.2713
  443SOL     MW 1772   1.390   1.771   1.828  0.6815  0.2609  0.2827
  444SOL     OW 1773   0.895   2.581   1.544  0.4986  0.2244 -0.0808
  444SOL    HW1 1774   0.974   2.525   1.573 -1.7042  0.9424  1.2305
  444SOL    HW2 1775   0.822   2.545   1.596 -0.1903 -2.7031 -2.8192
  444SOL     MW 1776   0.896   2.569   1.555  0.1171 -0.0671 -0.2691
  445SOL     OW 1777   0.958   0.070   1.278 -0.5188 -0.6047  0.5841
  445SOL    HW1 1778   0.923   0.160   1.267 -3.5173  0.9685 -0.0282
  445SOL    HW2 1779   1.023   0.061   1.206  2.3475  1.4087 -0.0350
  445SOL     MW 1780   0.962   0.081   1.267 -0.5362 -0.1315  0.4216
  446SOL     OW 1781   2.692   2.796   1.087  0.0054 -0.1096  0.3854
  446SOL    HW1 1782   2.651   2.815   1.003  0.4362  0.7876  0.6465
  446SOL    HW2 1783   2.741   2.710   1.074 -2.4952 -2.8338 -0.8116
  446SOL     MW 1784   2.693   2.787   1.074 -0.2677 -0.3507  0.2619
  447SOL     OW 1785   3.041   2.022   1.710 -0.0021 -0.2708 -0.0834
  447SOL    HW1 1786   3.113   1.959   1.712  0.2341  2.4437  0.3038
  447SOL    HW2 1787   2.968   1.979   1.655  0.3284  1.2410 -2.0971
  447SOL     MW 1788   3.041   2.008   1.703  0.0726  0.2868 -0.2980
  448SOL     OW 1789   1.673   2.387   1.665 -0.0048  0.3400  0.3256
  448SOL    HW1 1790   1.612   2.319   1.645  0.8239  3.0497 -0.0733
  448SOL    HW2 1791   1.612   2.465   1.671  2.7963 -2.4007  2.2715
  448SOL     MW 1792   1.657   2.388   1.663  0.4741  0.3359  0.5297
  449SOL     OW 1793   0.787   2.956   0.421  0.0368  0.0238 -0.3331
  449SOL    HW1 1794   0.713   2.953   0.357 -1.2188  0.9752  0.8852
  449SOL    HW2 1795   0.751   2.930   0.507 -0.2864  1.8704 -1.0133
  449SOL     MW 1796   0.772   2.952   0.424 -0.1715  0.3929 -0.2621
  450SOL     OW 1797   1.207   2.425   0.713 -0.4496  0.3577  0.1017
  450SOL    HW1 1798   1.213   2.346   0.775 -1.9776  1.7044  2.0300
  450SOL    HW2 1799   1.291   2.467   0.690 -1.3113 -1.6443  0.2324
  450SOL     MW 1800   1.219   2.420   0.718 -0.7649  0.2712  0.3734
  451SOL     OW 1801   0.585   2.025   1.655 -0.1861 -0.3117 -0.0494
  451SOL    HW1 1802   0.665   2.080   1.655 -2.0471 -2.6025  0.4430
  451SOL    HW2 1803   0.582   1.962   1.584  1.2959  1.4626 -0.0779
  451SOL     MW 1804   0.596   2.024   1.646 -0.2361 -0.3798  0.0118
  452SOL     OW 1805   0.262   2.748   0.098  0.4453 -0.0246 -0.2458
  452SOL    HW1 1806   0.351   2.755   0.084  0.6011 -1.1893  0.4264
  452SOL    HW2 1807   0.224   2.760   0.008 -1.5508  0.8645 -1.7499
  452SOL     MW 1808   0.269   2.750   0.084  0.2025 -0.0610 -0.3556
  453SOL     OW 1809   0.412   3.002   1.694  0.2802  0.1236 -0.3095
  453SOL    HW1 1810   0.515   3.011   1.695  1.5632 -1.0298  0.0314
  453SOL    HW2 1811   0.385   3.016   1.605 -0.5920  1.1509  1.7066
  453SOL     MW 1812   0.422   3.005   1.683  0.3344  0.1069  0.0015
  454SOL     OW 1813   1.000   2.718   1.193 -0.3570 -1.1092  0.2575
  454SOL    HW1 1814   0.934   2.653   1.223 -0.6548  1.9826  2.1650
  454SOL    HW2 1815   0.955   2.783   1.138 -1.4816 -0.5698  0.3328
  454SOL     MW 1816   0.985   2.718   1.190 -0.5447 -0.6301  0.5191
  455SOL     OW 1817   1.532   2.954   0.210  0.3092  0.1525  0.3744
  455SOL    HW1 1818   1.604   2.924   0.266  0.1878 -1.4981  0.0371
  455SOL    HW2 1819   1.457   2.903   0.242  1.3019  0.7027 -2.6432
  455SOL     MW 1820   1.532   2.943   0.222  0.4242  0.0073 -0.0682
  456SOL     OW 1821   2.880   0.390   1.315 -0.1382 -0.1332 -0.2454
  456SOL    HW1 1822   2.855   0.301   1.284 -1.3193 -2.9790 -2.4756
  456SOL    HW2 1823   2.940   0.430   1.253  1.0600  1.4073  3.0575
  456SOL     MW 1824   2.885   0.384   1.303 -0.1360 -0.3054 -0.1039
  457SOL     OW 1825   0.913   1.561   3.001 -0.3074  0.0727 -0.4393
  457SOL    HW1 1826   0.827   1.555   3.046  3.0654 -1.1117 -1.8593
  457SOL    HW2 1827   0.961   1.493   3.047  1.4457  0.7865  2.5384
  457SOL     MW 1828   0.908   1.551   3.013  0.3689  0.0106 -0.2338
  458SOL     OW 1829   1.455   1.420   0.636 -0.2743 -0.0263 -0.0269
  458SOL    HW1 1830   1.368   1.435   0.681 -1.0896  0.4033  0.1021
  458SOL    HW2 1831   1.436   1.370   0.559 -0.6498 -0.1840 -3.7935
  458SOL     MW 1832   1.441   1.415   0.632 -0.4314  0.0095 -0.5069
  459SOL     OW 1833   1.576   0.125   0.227 -0.4680 -0.8425 -0.0713
  459SOL    HW1 1834   1.559   0.029   0.222  0.2993 -1.1752  1.3565
  459SOL    HW2 1835   1.512   0.162   0.160  1.1605 -0.1366 -1.3151
  459SOL     MW 1836   1.566   0.117   0.218 -0.1519 -0.7932 -0.0470
  460SOL     OW 1837   1.747   2.165   0.646  0.8160 -0.1827 -0.0341
  460SOL    HW1 1838   1.647   2.183   0.658 -2.0407  0.5043  0.4506
  460SOL    HW2 1839   1.756   2.086   0.588  3.2034  0.1868  3.1410
  460SOL     MW 1840   1.735   2.157   0.640  0.7541 -0.0433  0.4488
  461SOL     OW 1841   0.547   2.425   0.604 -0.0966 -0.2188  0.1106
  461SOL    HW1 1842   0.492   2.500   0.582  0.2586 -0.5164 -2.1248
  461SOL    HW2 1843   0.507   2.403   0.691 -0.7537  2.4655 -1.6415
  461SOL     MW 1844   0.535   2.432   0.612 -0.1364  0.0961 -0.4155
  462SOL     OW 1845   0.294   0.243   1.278  0.4624  0.1912  0.2634
  462SOL    HW1 1846   0.292   0.174   1.204  1.8063 -2.2271 -2.7832
  462SOL    HW2 1847   0.381   0.259   1.296 -2.7170 -2.1434  1.6335
  462SOL     MW 1848   0.305   0.236   1.271  0.2202 -0.4359  0.0422
  463SOL     OW 1849   0.980   0.002   0.698 -0.4815 -0.3580  0.0062
  463SOL    HW1 1850   1.000   0.019   0.607 -0.9209 -0.3628  0.1018
  463SOL    HW2 1851   0.890   0.028   0.715 -0.4345  0.3303 -0.4882
  463SOL     MW 1852   0.971   0.007   0.688 -0.5333 -0.2678 -0.0464
  464SOL     OW 1853   0.779   2.992   2.200 -0.6330  0.5690  0.7405
  464SOL    HW1 1854   0.753   2.904   2.216  1.6807  4.8883 -0.2333
  464SOL    HW2 1855   0.823   3.022   2.280  5.1920 -1.5014  0.6731
  464SOL     MW 1856   0.781   2.984   2.212  0.4408  0.8657  0.6031
  465SOL     OW 1857   0.715   0.304   0.537 -0.1846  0.7456 -0.0676
  465SOL    HW1 1858   0.701   0.258   0.618  0.0335 -1.1751 -2.0063
  465SOL    HW2 1859   0.736   0.229   0.482  0.1683  1.9164 -0.2675
  465SOL     MW 1860   0.716   0.288   0.540 -0.1093  0.6467 -0.3498
  466SOL     OW 1861   1.058   1.986   0.731 -0.1757  0.1759 -0.0358
  466SOL    HW1 1862   1.065   1.916   0.662  0.7126 -0.9265  0.1745
  466SOL    HW2 1863   1.077   2.068   0.682  1.9081  1.1611  1.9138
  466SOL     MW 1864   1.061   1.988   0.716  0.2164  0.1604  0.2492
  467SOL     OW 1865   1.243   2.239   0.906  0.4028 -0.3169 -0.5407
  467SOL    HW1 1866   1.327   2.289   0.922  0.5534  2.2742  1.6396
  467SOL    HW2 1867   1.281   2.152   0.912 -0.1900  1.8499 -0.6965
  467SOL     MW 1868   1.259   2.234   0.909  0.3445  0.3109 -0.2736
  468SOL     OW 1869   0.343   2.587   2.011 -0.0206  0.1262  0.1341
  468SOL    HW1 1870   0.371   2.530   1.937  0.2465 -1.1044 -0.7389
  468SOL    HW2 1871   0.399   2.671   2.002 -4.5179  0.3197  0.6901
  468SOL     MW 1872   0.354   2.591   2.000 -0.5788 -0.0106  0.0922
  469SOL     OW 1873   0.366   2.132   1.808 -0.0384 -0.4047 -0.5370
  469SOL    HW1 1874   0.298   2.066   1.796  0.2128 -0.7705  0.9897
  469SOL    HW2 1875   0.441   2.089   1.766  1.2016 -1.0311  2.0867
  469SOL     MW 1876   0.367   2.117   1.801  0.1583 -0.5356  0.0106
  470SOL     OW 1877   3.029   2.575   0.134  0.3495  0.5654 -0.3626
  470SOL    HW1 1878   2.942   2.558   0.169 -0.0362  0.6566 -0.0226
  470SOL    HW2 1879   3.022   2.570   0.036 -2.4657  0.5047 -1.3247
  470SOL     MW 1880   3.016   2.572   0.125 -0.0729  0.5694 -0.4447
  471SOL     OW 1881   1.258   2.737   1.402 -0.1228 -0.0340  0.2345
  471SOL    HW1 1882   1.213   2.744   1.489 -0.4212 -2.0062  1.8653
  471SOL    HW2 1883   1.194   2.724   1.336 -0.5997  0.5611  0.9468
  471SOL     MW 1884   1.244   2.736   1.405 -0.2251 -0.2157  0.5436
  472SOL     OW 1885   2.897   2.089   0.356 -0.2733 -0.1811  0.9096
  472SOL    HW1 1886   2.887   2.064   0.255 -1.6780 -2.2010 -1.6282
  472SOL    HW2 1887   2.878   1.996   0.390 -2.0219 -1.7787  1.3279
  472SOL     MW 1888   2.893   2.074   0.347 -0.6893 -0.6584  0.6300
  473SOL     OW 1889   0.806   2.556   1.259  0.2371 -0.4201  0.0889
  473SOL    HW1 1890   0.843   2.469   1.244  0.4709  1.3741 -0.6202
  473SOL    HW2 1891   0.804   2.561   1.363  2.1993  4.5645  0.3855
  473SOL     MW 1892   0.810   2.545   1.271  0.5268  0.4743  0.0345
  474SOL     OW 1893   0.755   2.249   1.723 -0.1951  0.2335 -0.0162
  474SOL    HW1 1894   0.833   2.237   1.776 -0.2810  2.4819  1.3638
  474SOL    HW2 1895   0.774   2.250   1.632  0.5569 -1.4912  0.1380
  474SOL     MW 1896   0.768   2.247   1.718 -0.1072  0.3026  0.1862
  475SOL     OW 1897   1.613   0.032   1.443 -0.2114  0.7392  0.1740
  475SOL    HW1 1898   1.525   0.045   1.408  1.8134  0.3540  1.7794
  475SOL    HW2 1899   1.628  -0.061   1.447  1.3845  1.0516 -0.5981
  475SOL     MW 1900   1.604   0.022   1.439  0.2663  0.7296  0.2839
  476SOL     OW 1901   1.493   2.635   0.831  0.2901  0.4335  0.2999
  476SOL    HW1 1902   1.448   2.648   0.913 -0.5475  3.8039  1.4847
  476SOL    HW2 1903   1.520   2.721   0.797 -0.9926  2.6889  0.7751
  476SOL     MW 1904   1.490   2.648   0.837  0.0103  1.1757  0.5189
  477SOL     OW 1905   0.850   2.486   0.691 -0.1432 -0.2850  0.2712
  477SOL    HW1 1906   0.881   2.564   0.635  1.3799  4.2107 -1.1991
  477SOL    HW2 1907   0.814   2.419   0.631 -2.6361  0.4901  0.1310
  477SOL     MW 1908   0.849   2.488   0.676 -0.2712  0.4105  0.0587
  478SOL     OW 1909   0.207   2.655   0.911 -0.9007 -0.1160  0.1708
  478SOL    HW1 1910   0.267   2.730   0.931  0.1931  2.4335  0.8653
  478SOL    HW2 1911   0.277   2.595   0.885 -1.3085 -1.6882 -2.2382
  478SOL     MW 1912   0.224   2.657   0.910 -0.8102  0.0129 -0.0554
  479SOL     OW 1913   1.433   1.932   1.296  0.6984 -0.0142 -0.1065
  479SOL    HW1 1914   1.390   1.967   1.373  0.1173 -0.3303  1.4430
  479SOL    HW2 1915   1.509   1.881   1.326  1.4609  0.2505 -0.7825
  479SOL     MW 1916   1.437   1.930   1.310  0.7223 -0.0210  0.0088
  480SOL     OW 1917   1.843   2.389   1.332  0.2292 -0.3866  0.9629
  480SOL    HW1 1918   1.888   2.311   1.357  0.4695  1.0802 -0.5151
  480SOL    HW2 1919   1.863   2.396   1.239 -2.1158  1.0824  1.9450
  480SOL     MW 1920   1.852   2.379   1.323 -0.0485  0.0007  0.8975
  481SOL     OW 1921   1.182   0.114   1.117  0.0400 -0.3625  0.0567
  481SOL    HW1 1922   1.213   0.066   1.036  0.1828  1.3379 -2.7367
  481SOL    HW2 1923   1.190   0.205   1.092 -0.0995 -0.0684 -1.2316
  481SOL     MW 1924   1.187   0.119   1.103  0.0405 -0.0993 -0.4818
  482SOL     OW 1925   1.002   0.032   0.410 -1.3989 -0.1381 -0.4358
  482SOL    HW1 1926   0.923  -0.022   0.400 -2.0844 -2.5082  0.6923
  482SOL    HW2 1927   0.985   0.121   0.378 -1.0836 -0.0532 -2.1398
  482SOL     MW 1928   0.990   0.036   0.405 -1.4477 -0.4396 -0.5118
  483SOL     OW 1929   0.410   2.859   0.520 -0.0571  0.0409 -0.3789
  483SOL    HW1 1930   0.334   2.874   0.467 -0.9010 -0.8547 -2.7048
  483SOL    HW2 1931   0.387   2.929   0.582  0.2289 -0.0090 -1.7664
  483SOL     MW 1932   0.397   2.870   0.521 -0.1307 -0.0838 -0.8688
  484SOL     OW 1933   1.666   1.873   1.434  0.0899  0.6704 -0.1763
  484SOL    HW1 1934   1.736   1.938   1.401  2.3585  1.6081 -1.4234
  484SOL    HW2 1935   1.678   1.859   1.528 -1.0361  0.1686 -0.7573
  484SOL     MW 1936   1.677   1.880   1.442  0.2406  0.7279 -0.4175
  485SOL     OW 1937   0.556   2.308   0.343  0.0803  0.3959 -0.4555
  485SOL    HW1 1938   0.626   2.338   0.407 -2.2155  1.9227  1.5309
  485SOL    HW2 1939   0.478   2.360   0.327  4.4927  3.1318 -0.4291
  485SOL     MW 1940   0.555   2.318   0.349  0.3595  0.9583 -0.1899
  486SOL     OW 1941   0.095   2.454   1.440 -0.1179  0.0071  0.0320
  486SOL    HW1 1942   0.121   2.537   1.392 -0.0636 -0.1011  1.6505
  486SOL    HW2 1943   0.084   2.464   1.534 -1.0303  2.0689 -1.4161
  486SOL     MW 1944   0.097   2.467   1.446 -0.2311  0.2649  0.0545
  487SOL     OW 1945   1.247   1.630   1.011 -0.0500 -0.3080  0.6726
  487SOL    HW1 1946   1.201   1.717   1.017 -2.5659  0.4007 -0.8121
  487SOL    HW2 1947   1.343   1.650   1.014  1.6169  0.5558  0.5586
  487SOL     MW 1948   1.254   1.644   1.012 -0.1620 -0.1005  0.4617
  488SOL     OW 1949   1.545   1.870   0.551  0.0655 -0.3346 -0.1293
  488SOL    HW1 1950   1.581   1.910   0.471  1.9544 -1.9111 -1.8001
  488SOL    HW2 1951   1.460   1.831   0.531 -0.5629 -0.2686  0.2278
  488SOL     MW 1952   1.539   1.870   0.538  0.2318 -0.5339 -0.3027
  489SOL     OW 1953   0.764   0.797   0.511  0.1821 -0.0516 -0.4015
  489SOL    HW1 1954   0.789   0.729   0.455  0.3394  2.1307 -1.6267
  489SOL    HW2 1955   0.770   0.771   0.603 -0.9928 -1.0395 -0.6371
  489SOL     MW 1956   0.768   0.785   0.516  0.0479  0.1060 -0.5943
  490SOL     OW 1957   1.394   2.104   0.408 -0.1321  0.1453  0.3248
  490SOL    HW1 1958   1.436   2.190   0.390  1.3501 -0.1174 -1.4920
  490SOL    HW2 1959   1.297   2.116   0.403 -2.0101 -0.2816  1.7159
  490SOL     MW 1960   1.387   2.117   0.405 -0.1843  0.0543  0.2686
  491SOL     OW 1961   1.229   2.958   0.402 -0.2450 -0.1094  0.2558
  491SOL    HW1 1962   1.255   3.002   0.481  0.3419  0.7280 -0.2661
  491SOL    HW2 1963   1.141   2.999   0.379  2.0201  2.5204 -0.5788
  491SOL     MW 1964   1.221   2.969   0.409  0.1313  0.3480  0.0768
  492SOL     OW 1965   1.473   2.150   0.692 -0.0807  0.2543 -0.1717
  492SOL    HW1 1966   1.430   2.114   0.611 -1.0035 -0.3537 -1.2474
  492SOL    HW2 1967   1.427   2.093   0.755 -1.1272  1.0715  0.1881
  492SOL     MW 1968   1.461   2.137   0.689 -0.3406  0.2819 -0.2662
  493SOL     OW 1969   0.168   2.960   0.423  0.2769 -0.5837  0.9962
  493SOL    HW1 1970   0.102   3.010   0.477 -1.1936 -1.3733 -0.8504
  493SOL    HW2 1971   0.160   3.002   0.334 -0.9132  0.4768  0.3645
  493SOL     MW 1972   0.158   2.972   0.419 -0.0741 -0.5479  0.6692
  494SOL     OW 1973   0.405   2.402   1.798  0.5607  0.2571 -0.3623
  494SOL    HW1 1974   0.377   2.304   1.808  0.2203 -1.9169  0.3636
  494SOL    HW2 1975   0.457   2.396   1.725 -0.0764 -1.3461  2.0279
  494SOL     MW 1976   0.408   2.388   1.790  0.4317 -0.2413  0.0489
  495SOL     OW 1977   2.912   1.652   2.725  0.1403 -0.1640  0.4060
  495SOL    HW1 1978   2.869   1.715   2.776  0.8509 -0.6784 -1.2458
  495SOL    HW2 1979   2.897   1.570   2.775  1.3917 -0.5381 -0.0596
  495SOL     MW 1980   2.905   1.649   2.739  0.3991 -0.2812  0.1266
  496SOL     OW 1981   2.797   2.289   2.677  0.5730  0.2055 -0.8401
  496SOL    HW1 1982   2.832   2.202   2.697 -1.0865  0.8170 -1.0354
  496SOL    HW2 1983   2.878   2.348   2.681  1.6493  2.0863  0.3721
  496SOL     MW 1984   2.812   2.285   2.680  0.4961  0.5343 -0.7059
  497SOL     OW 1985   1.489   2.309   2.504 -0.0678 -0.2342 -0.5838
  497SOL    HW1 1986   1.488   2.241   2.430  0.1452 -1.9358  0.1252
  497SOL    HW2 1987   1.470   2.262   2.585 -1.7020 -0.3367  2.6086
  497SOL     MW 1988   1.487   2.294   2.505 -0.2553 -0.4722 -0.0691
  498SOL     OW 1989   1.571   2.755   2.245  0.3221 -0.3805 -1.0926
  498SOL    HW1 1990   1.594   2.664   2.213  0.9186 -1.3118 -1.6448
  498SOL    HW2 1991   1.625   2.762   2.332  0.6551 -1.9823  0.4343
  498SOL     MW 1992   1.581   2.744   2.252  0.4447 -0.7147 -0.9640
  499SOL     OW 1993   0.906   0.144   0.019 -0.1646 -0.2068  0.1415
  499SOL    HW1 1994   0.870   0.156   0.106 -1.3173  0.0821  0.6317
  499SOL    HW2 1995   0.893   0.051   0.007 -2.0030 -0.9783 -3.0986
  499SOL     MW 1996   0.900   0.133   0.029 -0.5592 -0.2705 -0.2213
  500SOL     OW 1997   1.028   2.467   2.758 -0.0543 -0.0146  0.0853
  500SOL    HW1 1998   1.077   2.451   2.839  0.3514  0.3885 -0.7252
  500SOL    HW2 1999   0.969   2.543   2.771  0.2683 -0.5410 -0.2077
  500SOL     MW 2000   1.026   2.475   2.770  0.0418 -0.0309 -0.0603
  501SOL     OW 2001   1.730   2.220   0.016 -0.3836  0.5085 -0.2807
  501SOL    HW1 2002   1.704   2.314   0.016 -1.2950 -0.1213 -0.6620
  501SOL    HW2 2003   1.827   2.222   0.023 -0.3617  0.0468  0.3607
  501SOL     MW 2004   1.740   2.232   0.017 -0.5009  0.3645 -0.2464
  502SOL     OW 2005   0.169   2.772   2.935 -0.2903  0.9245 -1.0383
  502SOL    HW1 2006   0.076   2.749   2.933 -0.0484 -1.9022  0.5253
  502SOL    HW2 2007   0.184   2.838   2.868 -2.2126  1.2808 -0.7976
  502SOL     MW 2008   0.159   2.778   2.926 -0.5120  0.5985 -0.8003
  503SOL     OW 2009   1.156   2.605   2.094  0.2101 -0.0929  0.4203
  503SOL    HW1 2010   1.223   2.596   2.028 -0.9735 -1.7137 -2.9019
  503SOL    HW2 2011   1.083   2.634   2.037  1.2995  0.9794 -1.8417
  503SOL     MW 2012   1.155   2.608   2.078  0.1976 -0.1653 -0.3165
  504SOL     OW 2013   0.088   2.635   2.077  0.1244  0.3954 -0.1012
  504SOL    HW1 2014   0.172   2.601   2.052 -0.4111 -2.7786  0.0034
  504SOL    HW2 2015   0.037   2.559   2.107  0.8041  1.4941  0.4574
  504SOL     MW 2016   0.092   2.620   2.078  0.1434  0.1216 -0.0137
  505SOL     OW 2017   1.643   2.664   2.716  0.2452  0.1359  0.5194
  505SOL    HW1 2018   1.690   2.685   2.626  1.4021  0.1536 -0.9739
  505SOL    HW2 2019   1.566   2.723   2.723  3.1470 -1.8087  0.2298
  505SOL     MW 2020   1.639   2.675   2.705  0.7807 -0.1184  0.2842
  506SOL     OW 2021   1.597   0.026   2.864 -0.2460 -0.1568  0.5134
  506SOL    HW1 2022   1.622  -0.020   2.938 -0.9915 -1.4493  1.3154
  506SOL    HW2 2023   1.655   0.001   2.793  1.4301  1.9535  0.5272
  506SOL     MW 2024   1.608   0.017   2.864 -0.1232 -0.0489  0.6211
  507SOL     OW 2025   0.883   2.677   2.848  0.0175 -0.1936 -0.1923
  507SOL    HW1 2026   0.897   2.747   2.780 -2.5936  0.8253 -0.8824
  507SOL    HW2 2027   0.793   2.691   2.871  1.8650 -0.4386  3.1372
  507SOL     MW 2028   0.873   2.688   2.842 -0.0833 -0.0915  0.1559
  508SOL     OW 2029   1.183   2.107   2.563  1.1620  0.2002 -0.2208
  508SOL    HW1 2030   1.258   2.138   2.606 -0.6077  2.2377 -0.9132
  508SOL    HW2 2031   1.107   2.138   2.621  1.0357  1.8577 -1.2721
  508SOL     MW 2032   1.183   2.115   2.576  0.9118  0.6877 -0.4509
  509SOL     OW 2033   0.587   2.580   2.821 -0.1536  0.7264 -0.1968
  509SOL    HW1 2034   0.596   2.539   2.734  1.1442 -1.6352 -0.3943
  509SOL    HW2 2035   0.570   2.670   2.793  0.5831  0.0188  0.9930
  509SOL     MW 2036   0.586   2.586   2.806  0.1148  0.3215 -0.0659
  510SOL     OW 2037   1.494   2.596   1.676  0.1283  0.0658 -0.2531
  510SOL    HW1 2038   1.517   2.691   1.641  0.1371  1.4302 -2.1656
  510SOL    HW2 2039   1.433   2.605   1.752 -0.6743 -0.1839  2.0742
  510SOL     MW 2040   1.489   2.610   1.681  0.0236  0.2129 -0.1984
  511SOL     OW 2041   0.323   2.554   2.538 -0.0080  0.4136  0.2470
  511SOL    HW1 2042   0.401   2.505   2.581  0.4891 -0.9432  0.1672
  511SOL    HW2 2043   0.346   2.538   2.445 -1.1388 -1.6117  0.9153
  511SOL     MW 2044   0.337   2.546   2.531 -0.0916 -0.0326  0.3246
  512SOL     OW 2045   1.017   2.015   2.877 -0.6924 -0.0249  0.4379
  512SOL    HW1 2046   0.962   2.084   2.914  0.2301  0.7291  0.7603
  512SOL    HW2 2047   1.028   1.951   2.949  0.7250  1.7462  0.8844
  512SOL     MW 2048   1.011   2.016   2.892 -0.3837  0.3083  0.5394
  513SOL     OW 2049   1.649   2.520   2.186  0.3300 -0.5374  0.1386
  513SOL    HW1 2050   1.723   2.552   2.112  2.3731 -0.3907  0.5328
  513SOL    HW2 2051   1.699   2.515   2.264 -0.2953  0.3206 -1.0006
  513SOL     MW 2052   1.665   2.524   2.186  0.5171 -0.4048  0.0403
  514SOL     OW 2053   0.183   2.346   2.659  0.7213 -0.0143  0.0209
  514SOL    HW1 2054   0.220   2.423   2.607 -1.6907  1.3122 -1.9463
  514SOL    HW2 2055   0.233   2.340   2.740  0.2234 -1.2251  0.3884
  514SOL     MW 2056   0.195   2.355   2.663  0.3373  0.0010 -0.1902
  515SOL     OW 2057   1.073   1.977   1.881  0.1438  1.3798  0.9844
  515SOL    HW1 2058   1.047   2.064   1.896 -2.1632 -1.6236 -1.4237
  515SOL    HW2 2059   1.139   1.955   1.953  0.9889  0.8581  2.2027
  515SOL     MW 2060   1.078   1.986   1.892 -0.0490  0.9147  0.8274
  516SOL     OW 2061   1.395   2.537   2.944 -0.0690 -0.0947  0.2769
  516SOL    HW1 2062   1.407   2.533   2.847 -0.5738 -2.8694 -1.3087
  516SOL    HW2 2063   1.307   2.497   2.960 -0.2749 -1.0259 -0.7884
  516SOL     MW 2064   1.385   2.531   2.934 -0.1628 -0.5836 -0.0729
  517SOL     OW 2065   0.613   2.368   2.280  0.3837  0.4619 -0.2768
  517SOL    HW1 2066   0.536   2.424   2.308 -1.8071 -2.8689 -0.2518
  517SOL    HW2 2067   0.575   2.310   2.221 -3.0932  1.4661  2.7068
  517SOL     MW 2068   0.598   2.368   2.276 -0.3641  0.1549  0.1201
  518SOL     OW 2069   1.773   0.020   3.068 -0.6363 -0.0277  0.2593
  518SOL    HW1 2070   1.773   0.092   3.131  2.7361 -1.7036 -1.1174
  518SOL    HW2 2071   1.714  -0.052   3.091  1.3500 -0.6017 -1.4931
  518SOL     MW 2072   1.765   0.020   3.080  0.0707 -0.3246 -0.1535
  519SOL     OW 2073   0.722   2.522   1.770 -0.2453  0.5700 -0.4505
  519SOL    HW1 2074   0.736   2.428   1.750  0.1977 -2.6059  1.4385
  519SOL    HW2 2075   0.631   2.538   1.755  1.3374  1.3581 -0.7566
  519SOL     MW 2076   0.712   2.512   1.765  0.0220  0.2550 -0.2417
  520SOL     OW 2077   1.218   2.199   2.945  0.2049 -0.0674 -0.0165
  520SOL    HW1 2078   1.152   2.124   2.920 -1.3976 -0.1424  1.3202
  520SOL    HW2 2079   1.273   2.151   3.013 -0.4631  0.0067 -0.4086
  520SOL     MW 2080   1.216   2.182   2.951 -0.0946 -0.0675  0.1081
  521SOL     OW 2081   1.770   2.061   2.211 -0.0908 -0.0662  0.4173
  521SOL    HW1 2082   1.754   2.055   2.116  1.0847 -1.1316  1.1147
  521SOL    HW2 2083   1.762   1.964   2.236 -0.9684  0.9848  2.0660
  521SOL     MW 2084   1.767   2.047   2.202 -0.0515 -0.0681  0.7268
  522SOL     OW 2085   2.903   2.522   2.271  0.3535 -0.1586  0.2183
  522SOL    HW1 2086   2.989   2.482   2.288 -2.2549  1.2618 -1.5848
  522SOL    HW2 2087   2.909   2.618   2.276 -0.3396 -2.2164  2.8396
  522SOL     MW 2088   2.915   2.529   2.274 -0.0821 -0.2427  0.3262
  523SOL     OW 2089   0.885   1.506   2.146  0.6278 -0.2786 -0.1438
  523SOL    HW1 2090   0.858   1.575   2.082 -0.9887  1.7158  0.2175
  523SOL    HW2 2091   0.906   1.428   2.095  0.7894  0.8362 -0.1434
  523SOL     MW 2092   0.884   1.505   2.131  0.4359  0.1316 -0.0961
  524SOL     OW 2093   0.581   2.338   2.959  0.3260  0.2607 -0.4120
  524SOL    HW1 2094   0.577   2.422   2.916 -0.3005  0.4572 -1.7851
  524SOL    HW2 2095   0.672   2.309   2.974 -3.0130 -1.0186 -0.8031
  524SOL     MW 2096   0.592   2.345   2.955 -0.1972  0.1178 -0.6448
  525SOL     OW 2097   0.472   2.187   2.117 -0.5154 -0.1389 -0.4984
  525SOL    HW1 2098   0.472   2.122   2.181  0.3482 -1.4143 -0.8798
  525SOL    HW2 2099   0.551   2.168   2.056 -2.3090  0.2036  0.0676
  525SOL     MW 2100   0.482   2.176   2.117 -0.6381 -0.2620 -0.4741
  526SOL     OW 2101   0.686   2.148   1.964  0.4690  0.4180 -0.2460
  526SOL    HW1 2102   0.677   2.178   1.877 -3.0823 -0.3595 -1.8813
  526SOL    HW2 2103   0.768   2.191   2.006 -2.1436 -1.3992 -1.2557
  526SOL     MW 2104   0.696   2.158   1.958 -0.3443  0.0757 -0.5949
  527SOL     OW 2105   1.298   1.933   2.054 -0.0468  0.1083 -0.1575
  527SOL    HW1 2106   1.284   1.869   2.118 -0.0969 -0.9199 -0.8454
  527SOL    HW2 2107   1.335   1.883   1.987 -2.0707  1.1073  0.6187
  527SOL     MW 2108   1.301   1.918   2.054 -0.3204  0.1044 -0.1458
  528SOL     OW 2109   0.653   2.912   2.922 -0.1925  0.0511  0.1458
  528SOL    HW1 2110   0.642   3.002   2.953  1.2852 -0.1139  1.3199
  528SOL    HW2 2111   0.628   2.909   2.827 -3.9230 -2.2911 -1.0544
  528SOL     MW 2112   0.648   2.923   2.914 -0.4898 -0.2797  0.1423
  529SOL     OW 2113   0.989   2.230   1.899  0.0215  0.1847  0.9733
  529SOL    HW1 2114   1.038   2.231   1.982 -1.5559  1.1039  0.3717
  529SOL    HW2 2115   1.039   2.277   1.832 -2.3200 -1.2877 -0.2881
  529SOL     MW 2116   1.002   2.236   1.901 -0.4955  0.1117  0.7275
  530SOL     OW 2117   1.123   2.444   3.037  0.3892  0.6263  0.4444
  530SOL    HW1 2118   1.097   2.449   3.129 -4.4272 -1.9004  2.1855
  530SOL    HW2 2119   1.155   2.352   3.023  1.4361  2.1724  1.2889
  530SOL     MW 2120   1.124   2.432   3.048 -0.1081  0.4970  0.7855
  531SOL     OW 2121   0.898   1.867   2.644 -0.3686  0.3924 -0.1168
  531SOL    HW1 2122   0.918   1.903   2.729  0.0200 -0.3319  0.5684
  531SOL    HW2 2123   0.867   1.784   2.680  0.4081 -0.4120  3.9750
  531SOL     MW 2124   0.896   1.861   2.660 -0.2148  0.1907  0.5135
  532SOL     OW 2125   1.701   0.287   2.824 -0.0904  0.2024 -0.4910
  532SOL    HW1 2126   1.662   0.198   2.853  0.0541  0.5310 -0.4851
  532SOL    HW2 2127   1.765   0.313   2.892 -0.0121  0.4924  0.6398
  532SOL     MW 2128   1.704   0.279   2.837 -0.0610  0.2841 -0.3410
  533SOL     OW 2129   1.767   2.673   2.974  0.0131 -0.6151 -0.2261
  533SOL    HW1 2130   1.718   2.592   3.002 -1.6308 -2.3874  1.6811
  533SOL    HW2 2131   1.729   2.683   2.882  0.9794 -1.0048 -1.5926
  533SOL     MW 2132   1.755   2.664   2.965 -0.0763 -0.9004 -0.1547
  534SOL     OW 2133   1.727   2.458   2.434  0.3897 -0.2521  0.6463
  534SOL    HW1 2134   1.652   2.405   2.452 -0.0342  0.8777 -2.8052
  534SOL    HW2 2135   1.796   2.453   2.505 -2.6387  0.6803  0.9096
  534SOL     MW 2136   1.727   2.451   2.446 -0.0658  0.0200  0.2257
  535SOL     OW 2137   1.845   2.326   1.919 -0.3753 -0.0119 -0.2146
  535SOL    HW1 2138   1.786   2.339   1.847  1.5155  0.6715  0.6233
  535SOL    HW2 2139   1.936   2.350   1.888  1.4349 -0.1176  0.6538
  535SOL     MW 2140   1.849   2.331   1.906  0.1130  0.0643  0.0105
  536SOL     OW 2141   0.451   1.791   2.010 -0.1314 -0.4038 -0.7085
  536SOL    HW1 2142   0.454   1.741   1.926 -0.0838 -1.6423 -1.5267
  536SOL    HW2 2143   0.537   1.834   2.024  0.2013  0.3547  1.8323
  536SOL     MW 2144   0.463   1.790   2.001 -0.0812 -0.4672 -0.4812
  537SOL     OW 2145   1.074   0.206   2.901 -0.0807 -0.3752 -0.0860
  537SOL    HW1 2146   1.018   0.193   2.977  0.7170 -0.3288 -0.8813
  537SOL    HW2 2147   1.059   0.304   2.878  2.1086  1.5959 -2.8491
  537SOL     MW 2148   1.065   0.217   2.908  0.3134 -0.1090 -0.5555
  538SOL     OW 2149   1.301   0.021   2.975  0.2295 -0.4704 -0.1490
  538SOL    HW1 2150   1.255   0.095   2.935  1.8961 -1.8325  1.4805
  538SOL    HW2 2151   1.393   0.033   2.958  1.1837  1.8093  2.0103
  538SOL     MW 2152   1.307   0.032   2.967  0.5753 -0.3494  0.3509
  539SOL     OW 2153   0.767   2.696   2.492  0.5557  0.7924 -0.1556
  539SOL    HW1 2154   0.827   2.757   2.531  0.6145  1.2495  1.0785
  539SOL    HW2 2155   0.814   2.617   2.506 -1.1418  4.2044  0.8911
  539SOL     MW 2156   0.781   2.694   2.499  0.3395  1.3029  0.1453
  540SOL     OW 2157   0.335   2.268   2.864  0.0363  0.1236 -0.2412
  540SOL    HW1 2158   0.414   2.286   2.912 -0.3077 -3.4947  2.2041
  540SOL    HW2 2159   0.284   2.241   2.941  0.4510 -0.7876  0.8289
  540SOL     MW 2160   0.339   2.267   2.880  0.0457 -0.4741  0.2226
  541SOL     OW 2161   0.161   2.872   2.211 -0.2185  0.2680 -0.6549
  541SOL    HW1 2162   0.148   2.790   2.161  2.7035 -0.5763 -1.1162
  541SOL    HW2 2163   0.198   2.844   2.299 -0.0311  1.7211  0.7550
  541SOL     MW 2164   0.164   2.858   2.216  0.1917  0.3484 -0.5297
  542SOL     OW 2165   0.950   2.224   2.667  0.0870 -0.6170  0.0493
  542SOL    HW1 2166   0.894   2.191   2.736  1.2847  0.1236 -4.0126
  542SOL    HW2 2167   0.985   2.306   2.701 -0.6188  0.9870  0.9702
  542SOL     MW 2168   0.947   2.230   2.681  0.1519 -0.3077 -0.3651
  543SOL     OW 2169   1.414   2.528   2.670  0.9536 -0.4615  0.2006
  543SOL    HW1 2170   1.428   2.458   2.606 -1.8199 -0.3681  1.4314
  543SOL    HW2 2171   1.499   2.572   2.667  0.6458  1.7217 -1.9760
  543SOL     MW 2172   1.427   2.524   2.661  0.5471 -0.1612  0.0758
  544SOL     OW 2173   0.590   0.217   2.724 -0.3310  0.0845 -0.0377
  544SOL    HW1 2174   0.499   0.223   2.766 -2.3353  2.4428  3.1571
  544SOL    HW2 2175   0.582   0.158   2.651 -3.2921 -0.4858 -0.2174
  544SOL     MW 2176   0.577   0.210   2.720 -0.9861  0.3204  0.3601
  545SOL     OW 2177   1.510   2.143   2.282 -0.3328  0.6151 -0.6704
  545SOL    HW1 2178   1.469   2.153   2.195  0.4422 -2.9130 -3.4682
  545SOL    HW2 2179   1.595   2.104   2.254 -0.6137 -0.0273 -3.4209
  545SOL     MW 2180   1.516   2.139   2.267 -0.2676  0.0649 -1.4024
  546SOL     OW 2181   2.989   1.997   0.104 -0.5349  0.0379 -0.0799
  546SOL    HW1 2182   2.984   2.082   0.067 -1.0680 -2.0204  0.6136
  546SOL    HW2 2183   3.083   1.978   0.109 -1.4421  2.2001 -1.6113
  546SOL     MW 2184   3.001   2.005   0.100 -0.7249  0.0516 -0.1904
  547SOL     OW 2185   0.199   2.999   0.118 -0.1778  0.2685  0.5827
  547SOL    HW1 2186   0.251   3.042   0.045  2.9047 -0.5894 -0.9806
  547SOL    HW2 2187   0.220   2.905   0.114 -2.0284 -1.0134 -0.5255
  547SOL     MW 2188   0.209   2.993   0.108 -0.0153 -0.0138  0.2302
  548SOL     OW 2189   0.323   2.536   0.255 -0.0364 -0.1919  0.2155
  548SOL    HW1 2190   0.290   2.616   0.211  2.1991 -0.1938 -1.5600
  548SOL    HW2 2191   0.256   2.473   0.224  1.5443  3.0334 -1.4002
  548SOL     MW 2192   0.310   2.538   0.245  0.4671  0.2334 -0.2319
  549SOL     OW 2193   0.709   1.911   2.068  0.1814  0.1485  0.1588
  549SOL    HW1 2194   0.708   2.003   2.046  0.2851 -2.5663  1.0940
  549SOL    HW2 2195   0.734   1.910   2.164 -0.0927 -0.7538  0.7479
  549SOL     MW 2196   0.712   1.923   2.078  0.1589 -0.3287  0.3599
  550SOL     OW 2197   1.846   1.761   2.555  0.4350  0.2414 -0.7780
  550SOL    HW1 2198   1.834   1.772   2.460 -1.3534 -0.5617  1.0212
  550SOL    HW2 2199   1.851   1.851   2.601 -0.3386  0.3004 -1.4987
  550SOL     MW 2200   1.845   1.774   2.549  0.0970  0.1432 -0.6357
  551SOL     OW 2201   0.870   2.346   0.205  0.2547 -0.3370  0.1872
  551SOL    HW1 2202   0.966   2.372   0.193  0.0536 -1.7829 -0.2398
  551SOL    HW2 2203   0.861   2.259   0.162 -2.5573  0.3463 -2.7892
  551SOL     MW 2204   0.882   2.338   0.197 -0.1428 -0.4376 -0.2618
  552SOL     OW 2205   1.781   1.807   2.283  0.1233 -0.5496 -0.0077
  552SOL    HW1 2206   1.688   1.779   2.303 -0.5217 -2.2294  1.0160
  552SOL    HW2 2207   1.815   1.744   2.203  1.2281  0.7163  1.2772
  552SOL     MW 2208   1.774   1.795   2.275  0.1840 -0.6042  0.2969
  553SOL     OW 2209   1.257   2.333   1.531 -0.1431  0.3358  0.2489
  553SOL    HW1 2210   1.266   2.238   1.521  0.9967  2.8284 -1.4859
  553SOL    HW2 2211   1.328   2.370   1.481  0.5287 -2.1400 -0.0527
  553SOL     MW 2212   1.267   2.325   1.523  0.0959  0.3380 -0.0198
  554SOL     OW 2213   0.588   2.860   2.658  0.4294  0.0041  0.1387
  554SOL    HW1 2214   0.549   2.926   2.599  0.4465  1.5405 -2.6243
  554SOL    HW2 2215   0.632   2.794   2.599  0.7283 -2.2284 -0.2465
  554SOL     MW 2216   0.589   2.860   2.642  0.4711 -0.0877 -0.2766
  555SOL     OW 2217   0.574   2.450   2.593  0.3178 -0.3957 -0.0179
  555SOL    HW1 2218   0.561   2.357   2.614 -4.3866  1.2638  1.2259
  555SOL    HW2 2219   0.638   2.450   2.517 -1.9844  3.4087  1.6391
  555SOL     MW 2220   0.580   2.438   2.586 -0.6066  0.3252  0.3649
  556SOL     OW 2221   0.958   1.794   0.164 -0.2799 -0.4100 -0.0368
  556SOL    HW1 2222   0.986   1.781   0.073 -0.6699  2.5273 -0.4326
  556SOL    HW2 2223   1.042   1.840   0.191 -0.5519  0.9479 -0.7678
  556SOL     MW 2224   0.973   1.798   0.156 -0.3673  0.1567 -0.1855
  557SOL     OW 2225   0.891   2.706   0.484  0.1953 -0.3197  0.7573
  557SOL    HW1 2226   0.946   2.682   0.406  0.0416  0.9278 -1.2924
  557SOL    HW2 2227   0.867   2.791   0.465  2.4329 -1.8578  0.2340
  557SOL     MW 2228   0.895   2.714   0.471  0.4702 -0.3580  0.4178
  558SOL     OW 2229   0.266   2.179   0.060 -0.0211  0.4250  0.3484
  558SOL    HW1 2230   0.241   2.087   0.037  0.5548  1.6531 -2.9657
  558SOL    HW2 2231   0.194   2.228   0.103 -0.7150 -0.4998 -1.0890
  558SOL     MW 2232   0.253   2.173   0.063 -0.0367  0.4650 -0.2785
  559SOL     OW 2233   1.174   2.303   2.120 -0.4116 -0.3357 -0.3911
  559SOL    HW1 2234   1.179   2.390   2.164 -2.2323 -0.1030  2.5147
  559SOL    HW2 2235   1.158   2.238   2.185 -1.1396 -0.3647  1.1218
  559SOL     MW 2236   1.173   2.306   2.134 -0.7479 -0.3088  0.1919
  560SOL     OW 2237   1.970   2.797   0.036 -0.2667  0.2835 -0.3293
  560SOL    HW1 2238   2.021   2.859  -0.008 -1.5634  0.5479 -0.4880
  560SOL    HW2 2239   1.902   2.772  -0.024  0.6011  0.5752 -0.1858
  560SOL     MW 2240   1.968   2.802   0.022 -0.3233  0.3569 -0.3313
  561SOL     OW 2241   0.449   2.070   0.229  0.2208 -0.2196  0.1599
  561SOL    HW1 2242   0.396   2.115   0.162 -1.5209  0.6659 -1.0297
  561SOL    HW2 2243   0.497   2.140   0.254 -2.1597 -1.7189  0.7342
  561SOL     MW 2244   0.448   2.085   0.223 -0.3231 -0.3006  0.0787
  562SOL     OW 2245   0.884   2.207   2.174 -0.3303  0.1907  0.2048
  562SOL    HW1 2246   0.912   2.300   2.175 -1.8490  1.4997  0.4590
  562SOL    HW2 2247   0.957   2.153   2.202 -2.1431  2.4891 -2.2452
  562SOL     MW 2248   0.898   2.212   2.178 -0.7699  0.6667 -0.0849
  563SOL     OW 2249   1.198   0.296   0.582  0.0065 -0.0814  0.3375
  563SOL    HW1 2250   1.152   0.303   0.494 -2.4961  1.6320 -0.0108
  563SOL    HW2 2251   1.200   0.199   0.585 -0.0278 -1.4599  0.2250
  563SOL     MW 2252   1.192   0.284   0.570 -0.3282 -0.0372  0.2767
  564SOL     OW 2253   1.105   2.553   2.366 -0.0478 -0.1116 -0.1369
  564SOL    HW1 2254   1.134   2.589   2.278 -0.2580  0.8670  0.6571
  564SOL    HW2 2255   1.154   2.614   2.429  1.1832 -0.7168 -1.6857
  564SOL     MW 2256   1.115   2.566   2.363  0.0869 -0.0624 -0.2365
  565SOL     OW 2257   2.859   2.677   2.584  0.1129 -0.5080  0.3814
  565SOL    HW1 2258   2.915   2.726   2.525 -1.6844 -0.4829 -0.7341
  565SOL    HW2 2259   2.774   2.667   2.537  4.6917  1.5080  1.4083
  565SOL     MW 2260   2.855   2.682   2.570  0.4799 -0.2387  0.3697
  566SOL     OW 2261   2.246   1.889   2.382 -0.6596 -0.1689  0.3514
  566SOL    HW1 2262   2.254   1.877   2.287 -2.2992 -0.8434  0.5933
  566SOL    HW2 2263   2.300   1.970   2.394  0.7057  1.2722 -1.5045
  566SOL     MW 2264   2.254   1.898   2.371 -0.6958 -0.0678  0.1384
  567SOL     OW 2265   1.128   2.904   0.035 -0.5182  0.5709 -0.5554
  567SOL    HW1 2266   1.201   2.964   0.057  2.0976  0.7277 -0.4036
  567SOL    HW2 2267   1.152   2.888  -0.056 -1.5793 -0.4837 -0.6710
  567SOL     MW 2268   1.141   2.910   0.026 -0.3131  0.4525 -0.5506
  568SOL     OW 2269   1.634   2.044   2.917 -0.3079 -0.8426  0.4869
  568SOL    HW1 2270   1.665   2.119   2.972 -0.8080 -0.2928 -0.7322
  568SOL    HW2 2271   1.706   2.000   2.863 -0.0916 -3.6525 -0.6870
  568SOL     MW 2272   1.648   2.048   2.917 -0.3453 -1.1408  0.1712
  569SOL     OW 2273   0.224   2.210   2.435 -0.1104  0.4100  0.1126
  569SOL    HW1 2274   0.165   2.263   2.371 -0.4990  0.3330  0.1162
  569SOL    HW2 2275   0.207   2.246   2.521  2.1118 -0.3564 -0.7804
  569SOL     MW 2276   0.214   2.221   2.438  0.1315  0.2987 -0.0047
  570SOL     OW 2277   1.462   0.451   0.492  0.0116  0.2104 -0.6813
  570SOL    HW1 2278   1.390   0.483   0.544 -1.3856  0.9130  0.4973
  570SOL    HW2 2279   1.541   0.483   0.542  1.5583 -0.6286  0.8714
  570SOL     MW 2280   1.463   0.459   0.506  0.0313  0.1924 -0.3209
  571SOL     OW 2281   1.491   2.406   1.979  0.2293  0.6388  0.7216
  571SOL    HW1 2282   1.531   2.413   2.066  3.2707 -2.1106 -1.9878
  571SOL    HW2 2283   1.465   2.312   1.969 -2.0596  0.4045  1.1023
  571SOL     MW 2284   1.493   2.395   1.989  0.3286  0.2451  0.4143
  572SOL     OW 2285   0.924   2.686   0.082 -0.2207  0.0940 -0.0608
  572SOL    HW1 2286   0.971   2.692  -0.000 -2.9093 -0.6952  0.2369
  572SOL    HW2 2287   0.847   2.638   0.058 -0.0067 -0.7342  0.4420
  572SOL     MW 2288   0.920   2.680   0.068 -0.5472 -0.1194  0.0448
  573SOL     OW 2289   1.151   2.373   0.210  0.8536 -0.3576  0.3250
  573SOL    HW1 2290   1.245   2.377   0.183 -4.0219 -1.0953 -0.3052
  573SOL    HW2 2291   1.131   2.461   0.250  1.5098 -0.4592 -0.1196
  573SOL     MW 2292   1.160   2.385   0.212  0.2969 -0.4683  0.1832
  574SOL     OW 2293   1.088   2.629   0.296 -0.7369 -0.1232  0.2447
  574SOL    HW1 2294   1.184   2.665   0.297  1.3680 -0.1822 -1.3041
  574SOL    HW2 2295   1.053   2.653   0.208  0.6595 -1.8810  1.2325
  574SOL     MW 2296   1.096   2.637   0.284 -0.2749 -0.3629  0.1707
  575SOL     OW 2297   3.066   2.298   1.798  0.0702 -0.3643 -0.1267
  575SOL    HW1 2298   3.057   2.217   1.750  0.1541  2.2738  0.3925
  575SOL    HW2 2299   3.143   2.352   1.765 -0.1832  0.8434 -0.4766
  575SOL     MW 2300   3.075   2.294   1.787  0.0478  0.1431 -0.1044
  576SOL     OW 2301   2.828   1.823   2.047 -0.5455  0.1859 -0.7153
  576SOL    HW1 2302   2.842   1.906   1.999  1.2979  2.0773  4.2418
  576SOL    HW2 2303   2.753   1.777   2.013  0.0171 -0.2440  1.3260
  576SOL     MW 2304   2.820   1.828   2.036 -0.2281  0.3787  0.2081
  577SOL     OW 2305   2.093   0.312   0.063 -0.4441 -0.2084  0.2698
  577SOL    HW1 2306   2.048   0.331  -0.022  1.3991 -1.6623 -0.1513
  577SOL    HW2 2307   2.033   0.259   0.108  1.9923  2.7312  0.3470
  577SOL     MW 2308   2.079   0.308   0.058  0.1206 -0.0124  0.2244
  578SOL     OW 2309   1.992   2.020   2.462 -0.3893 -0.0726  0.7106
  578SOL    HW1 2310   1.927   2.017   2.397 -0.2725 -1.9907  0.1050
  578SOL    HW2 2311   2.074   1.987   2.422 -1.8631 -0.3630  0.9077
  578SOL     MW 2312   1.994   2.016   2.448 -0.5684 -0.3640  0.6567
  579SOL     OW 2313   0.879   2.437   2.499  0.3873  0.2108  0.0208
  579SOL    HW1 2314   0.899   2.375   2.569  2.7336  1.0937  0.2965
  579SOL    HW2 2315   0.962   2.467   2.456  0.3032  0.8082  0.6380
  579SOL     MW 2316   0.892   2.433   2.503  0.6858  0.4061  0.1386
  580SOL     OW 2317   0.851   2.974   0.047 -0.0975  0.2997  0.4823
  580SOL    HW1 2318   0.934   2.926   0.085  1.2873 -2.3027  0.3052
  580SOL    HW2 2319   0.818   2.924  -0.027 -1.7614 -0.8858  0.2838
  580SOL     MW 2320   0.857   2.961   0.042 -0.1344 -0.2001  0.4328
  581SOL     OW 2321   1.087   2.431   1.712  0.7379 -0.1146  0.1976
  581SOL    HW1 2322   1.129   2.452   1.794  3.4855 -3.4140 -0.7082
  581SOL    HW2 2323   1.158   2.397   1.658 -0.9659 -0.1805  1.0026
  581SOL     MW 2324   1.102   2.430   1.716  0.8756 -0.5586  0.1843
  582SOL     OW 2325   3.089   2.815   2.501 -0.2758 -0.2414  0.1935
  582SOL    HW1 2326   3.073   2.896   2.560 -0.2410  1.3815  2.0755
  582SOL    HW2 2327   3.187   2.821   2.501 -1.8550 -0.0800 -2.7172
  582SOL     MW 2328   3.100   2.826   2.509 -0.4796 -0.0059  0.0578
  583SOL     OW 2329   1.948   2.444   2.639  0.1145 -0.1706  0.0310
  583SOL    HW1 2330   2.030   2.463   2.592 -0.2616  0.9936 -0.5320
  583SOL    HW2 2331   1.980   2.364   2.691 -0.1487 -1.1523 -0.7587
  583SOL     MW 2332   1.963   2.436   2.639  0.0302 -0.1465 -0.1475
  584SOL     OW 2333   0.200   1.895   2.065 -0.4177  0.0512 -0.2622
  584SOL    HW1 2334   0.285   1.865   2.033 -0.0653 -3.5286 -1.6094
  584SOL    HW2 2335   0.223   1.944   2.146  2.1431 -0.0995 -1.8236
  584SOL     MW 2336   0.214   1.898   2.071 -0.0333 -0.4410 -0.6459
  585SOL     OW 2337   1.485   2.677   0.057 -0.2521  0.2047  0.1119
  585SOL    HW1 2338   1.432   2.671  -0.021 -0.9500 -1.5292 -3.1661
  585SOL    HW2 2339   1.420   2.691   0.130 -3.7431  1.0221 -0.2393
  585SOL     MW 2340   1.469   2.678   0.056 -0.8048  0.0837 -0.3670
  586SOL     OW 2341   1.358   2.844   2.379  0.6706 -0.2883  0.2256
  586SOL    HW1 2342   1.425   2.815   2.318  0.0415  0.4772 -0.4121
  586SOL    HW2 2343   1.390   2.924   2.430  0.1875 -0.9314  0.8051
  586SOL     MW 2344   1.371   2.851   2.378  0.5238 -0.2722  0.2179
  587SOL     OW 2345   1.281   1.571   2.128  0.2626 -0.4118  0.5045
  587SOL    HW1 2346   1.276   1.515   2.210  1.3365 -0.7029 -0.1073
  587SOL    HW2 2347   1.236   1.523   2.057 -1.8440 -2.5961 -1.3537
  587SOL     MW 2348   1.275   1.557   2.130  0.1263 -0.7384  0.1786
  588SOL     OW 2349   1.414   2.171   2.731  0.0296  0.1641  0.4421
  588SOL    HW1 2350   1.474   2.120   2.787 -2.5283 -3.7748 -0.2179
  588SOL    HW2 2351   1.366   2.225   2.791 -0.7628  0.0056 -2.7943
  588SOL     MW 2352   1.416   2.172   2.747 -0.4124 -0.3765 -0.0720
  589SOL     OW 2353   1.371   2.109   0.058  0.0062  0.5643 -0.0404
  589SOL    HW1 2354   1.392   2.200   0.085  0.5857 -0.7292  0.8329
  589SOL    HW2 2355   1.359   2.056   0.137 -1.7944 -1.4836 -0.8985
  589SOL     MW 2356   1.372   2.114   0.072 -0.1549  0.1234 -0.0384
  590SOL     OW 2357   0.419   2.557   2.283  0.3275 -0.4544  0.1693
  590SOL    HW1 2358   0.387   2.530   2.194  1.1402 -1.8599 -0.2040
  590SOL    HW2 2359   0.479   2.632   2.272 -1.9981  1.4251  2.2249
  590SOL     MW 2360   0.423   2.564   2.270  0.1279 -0.3918  0.3913
  591SOL     OW 2361   2.291   0.698   0.024  0.0467  0.0342 -0.3588
  591SOL    HW1 2362   2.232   0.747  -0.031  1.0788 -1.1618  1.3114
  591SOL    HW2 2363   2.377   0.725  -0.000 -1.2448 -1.6749  2.6521
  591SOL     MW 2364   2.294   0.708   0.014  0.0125 -0.3491  0.2589
  592SOL     OW 2365   1.875   3.024   0.780 -0.1850 -0.4747 -0.3386
  592SOL    HW1 2366   1.866   3.067   0.694  0.3565 -2.4177 -0.0781
  592SOL    HW2 2367   1.922   2.941   0.756 -0.6720 -0.3568 -0.7783
  592SOL     MW 2368   1.880   3.019   0.765 -0.1778 -0.7155 -0.3622
  593SOL     OW 2369   1.896   0.765   0.859  0.2200  0.3789  0.0217
  593SOL    HW1 2370   1.820   0.767   0.804  2.3416 -0.9270  0.1919
  593SOL    HW2 2371   1.899   0.671   0.882  0.1635 -0.2602  1.1942
  593SOL     MW 2372   1.886   0.753   0.855  0.4925  0.1223  0.1988
  594SOL     OW 2373   2.751   1.131   1.377  0.6120  0.3356 -0.1296
  594SOL    HW1 2374   2.842   1.141   1.411 -0.1675 -0.7376  1.0840
  594SOL    HW2 2375   2.759   1.081   1.296  2.0692  0.0257  0.6690
  594SOL     MW 2376   2.764   1.126   1.371  0.7014  0.1531  0.1359
  595SOL     OW 2377   0.485   0.935   0.704  0.0021 -0.3859  0.9271
  595SOL    HW1 2378   0.504   1.008   0.643 -1.0894  0.8840 -1.1109
  595SOL    HW2 2379   0.482   0.976   0.794  2.5474 -0.3209  1.5808
  595SOL     MW 2380   0.487   0.950   0.708  0.1939 -0.2097  0.7445
  596SOL     OW 2381   2.454   1.397   0.532  0.0201 -0.0555 -0.4739
  596SOL    HW1 2382   2.499   1.477   0.501 -1.1285 -3.2236  0.4606
  596SOL    HW2 2383   2.504   1.385   0.614  1.7341 -0.0443 -1.5301
  596SOL     MW 2384   2.467   1.406   0.539  0.0947 -0.4720 -0.4900
  597SOL     OW 2385   2.194   0.663   1.660 -0.3470  0.2437 -0.5686
  597SOL    HW1 2386   2.246   0.608   1.724 -0.4526  0.6642 -1.3125
  597SOL    HW2 2387   2.119   0.609   1.623 -0.8563 -0.4538 -0.2715
  597SOL     MW 2388   2.191   0.648   1.663 -0.4281  0.2072 -0.6275
  598SOL     OW 2389   2.631   1.005   2.865 -0.1528  0.1881  1.0760
  598SOL    HW1 2390   2.675   0.963   2.781 -0.6179 -1.0189  0.8598
  598SOL    HW2 2391   2.697   1.065   2.913 -0.0935  0.1412  2.5614
  598SOL     MW 2392   2.645   1.007   2.860 -0.2064  0.0226  1.2435
  599SOL     OW 2393   2.936   0.345   2.079  0.0983  0.5210 -0.0479
  599SOL    HW1 2394   2.901   0.380   2.164  0.4881  0.7534 -1.4472
  599SOL    HW2 2395   2.975   0.419   2.028  1.4704  0.3952 -0.6176
  599SOL     MW 2396   2.937   0.359   2.084  0.3308  0.5351 -0.3077
  600SOL     OW 2397   1.899   1.744   0.887 -0.1600  0.6002  0.1064
  600SOL    HW1 2398   1.912   1.784   0.975  0.7651  1.1428  1.6961
  600SOL    HW2 2399   1.807   1.772   0.868  0.6653 -0.0947 -0.5756
  600SOL     MW 2400   1.889   1.753   0.896  0.0710  0.5801  0.2261
  601SOL     OW 2401   2.505   0.805   0.813  0.3832 -0.3374 -0.0367
  601SOL    HW1 2402   2.501   0.808   0.909 -1.0496  2.4320 -0.2557
  601SOL    HW2 2403   2.436   0.734   0.792 -0.9070 -0.3455  2.6253
  601SOL     MW 2404   2.495   0.796   0.823  0.0240  0.0269  0.2856
  602SOL     OW 2405   2.324   1.953   0.811 -0.5368 -0.1151  0.5906
  602SOL    HW1 2406   2.267   1.881   0.850 -1.0284 -1.2127  0.6934
  602SOL    HW2 2407   2.264   2.001   0.762  0.7602 -2.2933 -0.1764
  602SOL     MW 2408   2.309   1.949   0.810 -0.4305 -0.5473  0.5029
  603SOL     OW 2409   3.091   1.386   1.780  0.7059 -0.1216  0.0140
  603SOL    HW1 2410   3.105   1.433   1.865 -1.6628  1.5030  1.4440
  603SOL    HW2 2411   3.086   1.295   1.813  0.0227  0.4004 -2.4274
  603SOL     MW 2412   3.092   1.380   1.795  0.3032  0.1616 -0.1195
  604SOL     OW 2413   2.103   1.578   0.461 -0.2308  0.0681  0.3731
  604SOL    HW1 2414   2.125   1.493   0.497 -0.9908 -0.4331 -2.6151
  604SOL    HW2 2415   2.042   1.632   0.515  2.4348 -0.2821 -0.1062
  604SOL     MW 2416   2.098   1.574   0.473  0.0206 -0.0442 -0.0844
  605SOL     OW 2417   2.668   1.544   0.845 -0.5715 -0.0036  0.4168
  605SOL    HW1 2418   2.612   1.613   0.808 -0.0702 -1.8668 -1.1301
  605SOL    HW2 2419   2.643   1.464   0.796 -1.5142 -0.4141 -1.2753
  605SOL     MW 2420   2.658   1.542   0.833 -0.6297 -0.3036 -0.0105
  606SOL     OW 2421   2.570   1.808   1.841  0.0595  0.3137  0.6242
  606SOL    HW1 2422   2.474   1.806   1.850  0.5370  0.8370  0.0655
  606SOL    HW2 2423   2.588   1.720   1.802 -0.5027  0.2200 -1.7103
  606SOL     MW 2424   2.559   1.796   1.837  0.0483  0.3703  0.2425
  607SOL     OW 2425   2.377   1.013   2.987  0.4426  0.1509  0.6080
  607SOL    HW1 2426   2.465   1.013   2.950 -2.7320 -0.2470 -0.5003
  607SOL    HW2 2427   2.388   1.005   3.087 -0.6707  2.5927  1.1518
  607SOL     MW 2428   2.390   1.012   2.995 -0.1232  0.4206  0.5335
  608SOL     OW 2429   1.886   0.314   0.581  0.8106  0.0654  0.1540
  608SOL    HW1 2430   1.907   0.344   0.493  0.8862 -2.3020 -1.2480
  608SOL    HW2 2431   1.831   0.231   0.562  0.0904  1.4399  2.6805
  608SOL     MW 2432   1.881   0.307   0.567  0.7256 -0.0656  0.3024
  609SOL     OW 2433   2.130   1.966   3.052 -0.2345 -0.0420 -0.3394
  609SOL    HW1 2434   2.040   1.934   3.068 -0.8455  1.5136  0.1492
  609SOL    HW2 2435   2.181   1.965   3.137 -0.6385  0.0365 -0.8855
  609SOL     MW 2436   2.125   1.962   3.065 -0.3684  0.1736 -0.3470
  610SOL     OW 2437   1.766   1.021   1.238  0.4261  0.1675  0.0636
  610SOL    HW1 2438   1.811   0.948   1.196 -0.4601  0.9298 -0.1383
  610SOL    HW2 2439   1.679   0.998   1.254  0.0505  0.2182 -0.1749
  610SOL     MW 2440   1.761   1.008   1.235  0.2596  0.2748  0.0055
  611SOL     OW 2441   2.479   1.688   0.717  0.3734  0.4825 -0.4007
  611SOL    HW1 2442   2.453   1.742   0.794  0.0526 -0.6233  1.1697
  611SOL    HW2 2443   2.445   1.715   0.630  1.1476  1.4064 -3.1965
  611SOL     MW 2444   2.471   1.699   0.716  0.4332  0.4585 -0.5624
  612SOL     OW 2445   2.796   2.823   0.418  0.2418 -0.0467 -0.6635
  612SOL    HW1 2446   2.849   2.862   0.489 -0.1620 -0.7793  0.1100
  612SOL    HW2 2447   2.864   2.803   0.356  1.2812  2.1609  0.9145
  612SOL     MW 2448   2.812   2.825   0.419  0.3257  0.1479 -0.3533
  613SOL     OW 2449   1.487   1.001   0.973 -0.0874 -0.8040 -0.1350
  613SOL    HW1 2450   1.525   1.090   0.987 -2.4552  1.7886  0.7863
  613SOL    HW2 2451   1.494   0.966   1.067 -2.8058 -0.5323 -0.1584
  613SOL     MW 2452   1.493   1.008   0.987 -0.7585 -0.4261 -0.0166
  614SOL     OW 2453   1.985   0.538   1.539 -0.0911  0.0476 -0.5627
  614SOL    HW1 2454   1.980   0.454   1.584  0.4141 -1.3868  1.2948
  614SOL    HW2 2455   2.003   0.513   1.448 -0.9741 -0.2844 -1.8790
  614SOL     MW 2456   1.987   0.524   1.533 -0.1409 -0.1855 -0.4913
  615SOL     OW 2457   2.287   0.767   0.292  0.3693 -0.7901 -0.2025
  615SOL    HW1 2458   2.366   0.733   0.332  0.1423 -0.1844 -1.6504
  615SOL    HW2 2459   2.284   0.718   0.208  1.3752 -1.6934 -0.7308
  615SOL     MW 2460   2.297   0.756   0.286  0.4720 -0.8294 -0.4632
  616SOL     OW 2461   2.536   0.368   1.583 -0.4771 -0.0584 -0.5726
  616SOL    HW1 2462   2.461   0.319   1.543  1.8980 -1.3779 -1.6153
  616SOL    HW2 2463   2.561   0.442   1.530 -0.9785  0.1669  0.8892
  616SOL     MW 2464   2.529   0.371   1.570 -0.2299 -0.2028 -0.5173
  617SOL     OW 2465   2.896   0.554   1.726  0.8455  0.5636  0.4230
  617SOL    HW1 2466   2.820   0.562   1.789  1.5082  1.3010  0.5284
  617SOL    HW2 2467   2.877   0.471   1.676  1.6771 -1.3649  3.4942
  617SOL     MW 2468   2.884   0.544   1.728  1.0427  0.4065  0.8421
  618SOL     OW 2469   2.654   0.328   1.978 -0.2119 -0.2111  0.0675
  618SOL    HW1 2470   2.645   0.420   1.959 -1.4560 -0.8381  1.9253
  618SOL    HW2 2471   2.743   0.319   2.021  1.6540 -0.4139 -0.3269
  618SOL     MW 2472   2.664   0.339   1.981 -0.1298 -0.3206  0.2606
  619SOL     OW 2473   2.653   0.722   0.146  0.3538 -0.4557 -0.1900
  619SOL    HW1 2474   2.703   0.793   0.188 -1.4115  0.3309 -1.6206
  619SOL    HW2 2475   2.599   0.677   0.206 -0.6572 -0.5114 -1.4482
  619SOL     MW 2476   2.653   0.726   0.160 -0.0125 -0.3593 -0.5447
  620SOL     OW 2477   2.332   1.050   0.999 -0.1549  0.0812  0.3657
  620SOL    HW1 2478   2.421   1.076   0.978  1.2737 -0.6251 -0.8948
  620SOL    HW2 2479   2.293   1.002   0.926 -1.6838 -0.8907  0.3880
  620SOL     MW 2480   2.338   1.047   0.987 -0.1681 -0.1402  0.2023
  621SOL     OW 2481   1.452   2.129   2.003 -0.3797  0.3514  0.2607
  621SOL    HW1 2482   1.384   2.070   2.038 -1.7918 -1.6344 -0.4720
  621SOL    HW2 2483   1.533   2.083   2.000  2.0120  1.1952 -1.1798
  621SOL     MW 2484   1.453   2.115   2.007 -0.2504  0.2007 -0.0260
  622SOL     OW 2485   2.622   0.157   0.276 -0.3871  0.1231  0.2332
  622SOL    HW1 2486   2.699   0.204   0.303  0.5917 -1.4994  0.3344
  622SOL    HW2 2487   2.624   0.063   0.284 -1.4067 -1.3879 -1.2316
  622SOL     MW 2488   2.633   0.151   0.280 -0.3925 -0.2903  0.0533
  623SOL     OW 2489   2.335   2.756   0.904  0.6345  0.6248 -0.2488
  623SOL    HW1 2490   2.403   2.827   0.897  2.9352  1.5270 -0.1918
  623SOL    HW2 2491   2.263   2.789   0.965  0.0786  0.4215 -0.4765
  623SOL     MW 2492   2.334   2.770   0.911  0.8647  0.7170 -0.2713
  624SOL     OW 2493   2.202   1.679   2.994  0.1789 -0.0388 -0.0396
  624SOL    HW1 2494   2.135   1.607   3.003 -2.4123  0.2976  2.8090
  624SOL    HW2 2495   2.156   1.762   3.007 -1.9824  2.5826 -1.2054
  624SOL     MW 2496   2.188   1.681   2.997 -0.4481  0.3515  0.1824
  625SOL     OW 2497   2.207   2.023   1.121 -0.0017  0.2337 -0.0278
  625SOL    HW1 2498   2.284   1.982   1.093  0.2048  0.5590 -2.1877
  625SOL    HW2 2499   2.234   2.114   1.093 -1.7008  0.5681  1.3556
  625SOL     MW 2500   2.221   2.030   1.113 -0.1987  0.3208 -0.1303
  626SOL     OW 2501   0.217   1.612   2.353 -0.5002 -1.0563 -0.2583
  626SOL    HW1 2502   0.194   1.521   2.326  1.8830 -1.2080  2.4133
  626SOL    HW2 2503   0.151   1.621   2.423 -4.1813 -0.4590 -1.0128
  626SOL     MW 2504   0.206   1.601   2.359 -0.6714 -0.9975 -0.0054
  627SOL     OW 2505   2.475   0.810   2.638 -0.0899 -0.1332  0.4185
  627SOL    HW1 2506   2.416   0.885   2.626 -0.0393  0.5711 -0.0801
  627SOL    HW2 2507   2.443   0.753   2.564 -3.6068 -2.6995  0.2713
  627SOL     MW 2508   2.463   0.813   2.627 -0.5473 -0.3789  0.3333
  628SOL     OW 2509   2.240   1.344   1.367  0.0932 -0.2961  0.7783
  628SOL    HW1 2510   2.210   1.281   1.302 -1.8189 -0.3324 -1.1831
  628SOL    HW2 2511   2.333   1.331   1.382 -1.3190 -0.9152 -1.4471
  628SOL     MW 2512   2.248   1.334   1.360 -0.3454 -0.3826  0.2259
  629SOL     OW 2513   1.958   0.569   1.243 -0.2125 -0.1723 -0.2644
  629SOL    HW1 2514   1.986   0.656   1.214  1.0282  0.7222  0.3469
  629SOL    HW2 2515   1.868   0.571   1.274  0.7376 -1.3732 -0.8872
  629SOL     MW 2516   1.950   0.581   1.243  0.0765 -0.2127 -0.2659
  630SOL     OW 2517   2.453   1.829   3.062 -0.5587 -0.2107  0.1661
  630SOL    HW1 2518   2.453   1.871   2.975 -0.6866 -0.1876 -2.0370
  630SOL    HW2 2519   2.357   1.807   3.074  1.0042  0.4777  1.2221
  630SOL     MW 2520   2.440   1.832   3.052 -0.3694 -0.1168  0.0147
  631SOL     OW 2521   1.979   1.822   1.569 -0.4586 -0.2407 -0.2889
  631SOL    HW1 2522   1.986   1.733   1.607  1.9211 -0.6944  1.2806
  631SOL    HW2 2523   1.968   1.811   1.473  2.4092 -0.2536 -0.1423
  631SOL     MW 2524   1.978   1.809   1.561  0.2338 -0.3023 -0.0625
  632SOL     OW 2525   0.078   2.056   1.471  0.2587 -0.5931 -0.2641
  632SOL    HW1 2526   0.028   2.058   1.550  0.0311 -3.2647 -0.5470
  632SOL    HW2 2527   0.119   1.971   1.476 -1.3141  2.9526  2.8309
  632SOL     MW 2528   0.077   2.045   1.482  0.0212 -0.4778  0.1069
  633SOL     OW 2529   2.530   0.652   0.381  0.7798 -0.6827  0.7362
  633SOL    HW1 2530   2.605   0.680   0.427 -0.0082 -2.4253 -0.8029
  633SOL    HW2 2531   2.509   0.569   0.418 -1.4935 -1.2124 -1.7224
  633SOL     MW 2532   2.537   0.644   0.392  0.3759 -0.9825  0.2088
  634SOL     OW 2533   2.664   3.034   0.661  0.1662 -0.5194 -0.4787
  634SOL    HW1 2534   2.692   3.129   0.660  0.8810  1.8887  0.7915
  634SOL    HW2 2535   2.613   3.022   0.577 -2.1730  0.8496 -0.0599
  634SOL     MW 2536   2.661   3.045   0.650 -0.0481 -0.0210 -0.2558
  635SOL     OW 2537   2.589   0.094   1.838  0.1460 -0.8339  0.6559
  635SOL    HW1 2538   2.624   0.059   1.749 -1.2535  0.0797 -1.1918
  635SOL    HW2 2539   2.633   0.182   1.854  0.8794  1.0780 -0.0565
  635SOL     MW 2540   2.600   0.101   1.828  0.0581 -0.4611  0.3181
  636SOL     OW 2541   2.917   1.741   1.066  0.4270 -0.6038  0.5940
  636SOL    HW1 2542   2.861   1.820   1.047 -0.1290 -1.3407 -0.4699
  636SOL    HW2 2543   2.990   1.779   1.113 -1.2073  0.7302  0.3565
  636SOL     MW 2544   2.919   1.757   1.070  0.1380 -0.5250  0.4223
  637SOL     OW 2545   2.904   1.506   0.637  0.0730 -0.3978 -0.3368
  637SOL    HW1 2546   2.971   1.571   0.624 -0.8878 -1.2190 -0.2755
  637SOL    HW2 2547   2.835   1.556   0.675  0.1693 -0.6174 -2.8520
  637SOL     MW 2548   2.904   1.521   0.640 -0.0411 -0.5351 -0.6606
  638SOL     OW 2549   2.748   0.543   0.538  0.7387 -0.4540  0.1390
  638SOL    HW1 2550   2.817   0.540   0.476 -2.6368 -2.0190  0.0902
  638SOL    HW2 2551   2.785   0.581   0.620  0.1967  0.2237 -2.0403
  638SOL     MW 2552   2.762   0.548   0.540  0.2219 -0.5711 -0.1549
  639SOL     OW 2553   1.780   0.045   0.552  0.1900 -0.1487  0.9718
  639SOL    HW1 2554   1.689   0.076   0.539 -1.2891  0.8354  1.2629
  639SOL    HW2 2555   1.794  -0.013   0.476 -0.4214  2.2854 -1.4176
  639SOL     MW 2556   1.770   0.041   0.540 -0.0858  0.3023  0.6949
  640SOL     OW 2557   0.355   1.390   0.061  0.3728 -0.0052  0.1254
  640SOL    HW1 2558   0.372   1.375  -0.031 -0.2636 -3.5572  1.0374
  640SOL    HW2 2559   0.343   1.294   0.080  2.0402 -1.5403 -0.6782
  640SOL     MW 2560   0.356   1.376   0.051  0.5088 -0.6764  0.1397
  641SOL     OW 2561   2.218   0.451   0.383  0.4723 -0.2931 -0.3968
  641SOL    HW1 2562   2.272   0.480   0.314 -0.2365  0.0027 -1.1782
  641SOL    HW2 2563   2.258   0.366   0.408  2.4738 -0.8670 -1.3215
  641SOL     MW 2564   2.231   0.444   0.377  0.6428 -0.3298 -0.6219
  642SOL     OW 2565   3.104   3.079   0.607 -0.1045 -0.0757  0.2721
  642SOL    HW1 2566   3.070   3.158   0.562 -0.1061 -0.6900 -0.6175
  642SOL    HW2 2567   3.030   3.024   0.620 -0.1835  0.1139 -3.4089
  642SOL     MW 2568   3.090   3.083   0.603 -0.1152 -0.1317 -0.3309
  643SOL     OW 2569   2.079   0.346   1.703  0.4506 -0.5685  0.1687
  643SOL    HW1 2570   2.069   0.284   1.778 -1.6784 -2.0008 -1.2437
  643SOL    HW2 2571   2.064   0.283   1.631 -1.7588 -1.1852  2.7769
  643SOL     MW 2572   2.076   0.330   1.704 -0.1218 -0.8389  0.3265
  644SOL     OW 2573   2.712   1.960   1.065  0.3783 -0.1764  0.0786
  644SOL    HW1 2574   2.679   1.908   1.145 -0.3760 -0.5045  2.6239
  644SOL    HW2 2575   2.636   2.011   1.040  1.4908  1.1778  1.9961
  644SOL     MW 2576   2.698   1.960   1.072  0.4256 -0.0410  0.6674
  645SOL     OW 2577   2.834   0.879   0.682  0.0715 -0.4759  0.0055
  645SOL    HW1 2578   2.927   0.859   0.686 -1.5139  0.9772  1.6061
  645SOL    HW2 2579   2.795   0.796   0.699  1.2678 -0.6811  1.7941
  645SOL     MW 2580   2.841   0.866   0.685  0.0202 -0.3112  0.4526
  646SOL     OW 2581   0.175   2.293   0.777  0.3081  0.4238 -0.0707
  646SOL    HW1 2582   0.221   2.203   0.800  4.2144 -1.5018 -0.4263
  646SOL    HW2 2583   0.091   2.279   0.721  1.3521 -1.2024 -0.6956
  646SOL     MW 2584   0.170   2.279   0.773  0.9612 -0.0449 -0.2001
  647SOL     OW 2585   2.725   0.495   2.966 -0.1599 -0.0028 -0.1869
  647SOL    HW1 2586   2.665   0.442   3.022 -0.9953  0.8365 -1.7255
  647SOL    HW2 2587   2.677   0.583   2.947  0.5822 -0.6728 -0.0827
  647SOL     MW 2588   2.711   0.500   2.971 -0.1722  0.0195 -0.3762
  648SOL     OW 2589   2.140   0.743   1.118  0.1584 -0.6867 -0.2178
  648SOL    HW1 2590   2.174   0.796   1.048 -0.5675  0.2818  0.8385
  648SOL    HW2 2591   2.158   0.796   1.196 -0.7911 -0.5458  2.7217
  648SOL     MW 2592   2.147   0.757   1.119 -0.0626 -0.5403  0.3094
  649SOL     OW 2593   2.342   2.768   1.297 -0.0866 -0.2956  0.0203
  649SOL    HW1 2594   2.420   2.826   1.289 -1.1246 -0.5601 -1.7637
  649SOL    HW2 2595   2.368   2.676   1.277 -0.6790  0.4563 -1.5367
  649SOL     MW 2596   2.356   2.763   1.293 -0.3017 -0.2313 -0.4205
  650SOL     OW 2597   2.820   0.171   0.675 -0.2915  0.0131 -0.1782
  650SOL    HW1 2598   2.871   0.235   0.730  3.0437 -2.8371  2.0782
  650SOL    HW2 2599   2.868   0.176   0.591 -1.5356 -1.5187  0.1074
  650SOL     MW 2600   2.833   0.180   0.671 -0.0156 -0.5651  0.1572
  651SOL     OW 2601   3.004   0.427   0.766  0.3996  0.4665 -0.3103
  651SOL    HW1 2602   3.088   0.468   0.767 -1.4704  2.3029 -1.1749
  651SOL    HW2 2603   2.962   0.489   0.822 -0.9345 -1.1316  0.2225
  651SOL     MW 2604   3.010   0.441   0.773 -0.0232  0.4979 -0.3541
  652SOL     OW 2605   2.418   1.474   3.020 -0.6571 -0.1626  0.1108
  652SOL    HW1 2606   2.481   1.498   2.957 -0.0461 -2.0102  1.8447
  652SOL    HW2 2607   2.362   1.550   3.026  1.1300 -1.0352  0.1225
  652SOL     MW 2608   2.419   1.487   3.012 -0.3407 -0.5215  0.3411
  653SOL     OW 2609   1.939   0.452   0.350  0.2781 -0.0242  0.3548
  653SOL    HW1 2610   1.907   0.395   0.282 -0.7301  1.1403  1.4810
  653SOL    HW2 2611   2.022   0.468   0.316 -1.0399  0.8538  0.3371
  653SOL     MW 2612   1.946   0.446   0.337 -0.0288  0.2453  0.5010
  654SOL     OW 2613   2.455   1.061   0.715 -0.1206  0.1837  0.2431
  654SOL    HW1 2614   2.377   1.059   0.660  0.8830 -2.7075 -0.3247
  654SOL    HW2 2615   2.460   0.967   0.746  0.6607 -0.2926  1.1619
  654SOL     MW 2616   2.445   1.049   0.712  0.1149 -0.2606  0.2894
  655SOL     OW 2617   2.979   0.908   0.392 -0.6210 -0.3601 -0.0508
  655SOL    HW1 2618   2.935   0.937   0.472  2.8403  1.2212  0.8052
  655SOL    HW2 2619   2.967   0.810   0.389  0.0775  0.1503 -0.0504
  655SOL     MW 2620   2.972   0.899   0.402 -0.0721 -0.0841  0.0622
  656SOL     OW 2621   1.953   2.698   1.225 -0.1618  0.7010  0.4507
  656SOL    HW1 2622   1.937   2.789   1.235  0.2072 -1.2107 -0.8053
  656SOL    HW2 2623   1.989   2.669   1.306 -1.1993 -0.6315  1.2987
  656SOL     MW 2624   1.955   2.706   1.237 -0.2500  0.2729  0.3969
  657SOL     OW 2625   0.170   1.593   1.281 -0.2295  0.3625  0.2527
  657SOL    HW1 2626   0.078   1.608   1.279 -0.7966 -0.1559  0.7949
  657SOL    HW2 2627   0.176   1.497   1.265  0.9823  0.5506 -0.1523
  657SOL     MW 2628   0.159   1.582   1.278 -0.1445  0.3189  0.2708
  658SOL     OW 2629   2.695   1.338   0.183  0.3950 -0.6674 -0.1334
  658SOL    HW1 2630   2.647   1.265   0.227 -0.4462  1.2657  1.5679
  658SOL    HW2 2631   2.730   1.389   0.256  1.6793 -1.6161  1.4705
  658SOL     MW 2632   2.693   1.335   0.199  0.4534 -0.5375  0.3027
  659SOL     OW 2633   2.311   1.524   1.031  0.0790  0.0584  0.4686
  659SOL    HW1 2634   2.398   1.533   1.053 -3.5778  0.3043 -0.8462
  659SOL    HW2 2635   2.269   1.521   1.117 -1.2744 -2.4550 -2.3887
  659SOL     MW 2636   2.317   1.525   1.046 -0.5821 -0.2408 -0.0819
  660SOL     OW 2637   2.027   1.580   1.686  0.1370  0.2815  0.1580
  660SOL    HW1 2638   2.026   1.582   1.784 -2.2416  1.3849 -2.1800
  660SOL    HW2 2639   1.962   1.515   1.658  0.2761  1.6254 -0.4583
  660SOL     MW 2640   2.018   1.572   1.695 -0.1585  0.6044 -0.2318
  661SOL     OW 2641   2.362   1.020   0.221  0.0156 -0.2216 -0.4068
  661SOL    HW1 2642   2.429   1.052   0.291  0.8269 -0.0810  0.7891
  661SOL    HW2 2643   2.344   0.928   0.252  1.4159  0.2995 -1.6496
  661SOL     MW 2644   2.368   1.012   0.234  0.3074 -0.1343 -0.4130
  662SOL     OW 2645   2.522   2.929   0.886  0.1747  0.7165 -0.2584
  662SOL    HW1 2646   2.471   3.002   0.916  1.7216 -0.5094  0.4745
  662SOL    HW2 2647   2.571   2.959   0.810  1.6035  0.6982 -0.1825
  662SOL     MW 2648   2.522   2.942   0.880  0.5673  0.5523 -0.1517
  663SOL     OW 2649   2.838   1.485   0.349 -0.1662 -0.0536  0.0775
  663SOL    HW1 2650   2.818   1.575   0.382 -2.8934 -1.3329  1.2504
  663SOL    HW2 2651   2.881   1.441   0.416 -1.8411  1.1480 -1.7932
  663SOL     MW 2652   2.841   1.491   0.362 -0.7470 -0.0639 -0.0146
  664SOL     OW 2653   2.472   1.530   1.589  0.0654 -0.9777  0.3201
  664SOL    HW1 2654   2.460   1.630   1.597 -0.1221 -2.2933  1.9583
  664SOL    HW2 2655   2.402   1.484   1.636 -2.1600 -0.6822 -2.2188
  664SOL     MW 2656   2.462   1.537   1.596 -0.2530 -1.1123  0.2013
  665SOL     OW 2657   2.871   0.842   2.035  0.5394  0.2420 -0.5846
  665SOL    HW1 2658   2.854   0.899   1.953 -1.9677  0.8289 -0.1065
  665SOL    HW2 2659   2.932   0.771   2.027 -0.3099 -3.3203  1.0301
  665SOL     MW 2660   2.877   0.840   2.023  0.0965 -0.1506 -0.3085
  666SOL     OW 2661   2.736   3.018   1.667  0.4348 -0.0474 -0.2063
  666SOL    HW1 2662   2.750   3.010   1.569 -1.4770 -0.0633 -1.7082
  666SOL    HW2 2663   2.699   2.937   1.706  0.6041 -1.9088 -3.5822
  666SOL     MW 2664   2.733   3.007   1.660  0.2049 -0.2951 -0.8499
  667SOL     OW 2665   1.980   2.665   1.666 -0.0060 -0.2444 -0.0474
  667SOL    HW1 2666   1.982   2.611   1.743  1.8252  0.2011 -1.7000
  667SOL    HW2 2667   2.061   2.719   1.671  0.3239  0.0324  2.3121
  667SOL     MW 2668   1.991   2.665   1.677  0.2791 -0.1491  0.0459
  668SOL     OW 2669   2.727   0.636   0.799 -0.1483  0.3822  0.1885
  668SOL    HW1 2670   2.797   0.680   0.856  1.4106 -0.6193  1.2966
  668SOL    HW2 2671   2.659   0.703   0.798  2.1763  0.0083  1.0939
  668SOL     MW 2672   2.727   0.651   0.807  0.3641  0.2007  0.4542
  669SOL     OW 2673   0.190   0.944   0.654  0.4244 -0.0585 -0.1866
  669SOL    HW1 2674   0.162   0.999   0.719  3.0891 -1.3603 -0.4347
  669SOL    HW2 2675   0.284   0.921   0.678  2.6435  1.6820  1.8899
  669SOL     MW 2676   0.198   0.948   0.666  1.0688 -0.0006  0.0546
  670SOL     OW 2677   2.885   0.308   0.198 -0.1150 -0.3640  0.3594
  670SOL    HW1 2678   2.920   0.233   0.141 -0.4771  0.8122 -0.8059
  670SOL    HW2 2679   2.929   0.394   0.186 -1.6860  0.3085 -2.0526
  670SOL     MW 2680   2.895   0.310   0.189 -0.3700 -0.1201 -0.1126
  671SOL     OW 2681   2.112   2.984   1.531 -0.4797 -0.7921  0.0463
  671SOL    HW1 2682   2.115   3.031   1.446  0.5406  0.9849 -3.1309
  671SOL    HW2 2683   2.049   3.029   1.583 -0.2525 -0.0700  1.4228
  671SOL     MW 2684   2.104   2.996   1.526 -0.3151 -0.4624 -0.1913
  672SOL     OW 2685   1.855   1.703   1.311  0.2393  0.5340  0.0178
  672SOL    HW1 2686   1.777   1.751   1.335  0.5519 -1.5673  1.3101
  672SOL    HW2 2687   1.896   1.760   1.239  0.9403  0.8849 -0.2389
  672SOL     MW 2688   1.850   1.716   1.305  0.3730  0.3030  0.1545
  673SOL     OW 2689   2.778   1.095   0.531 -0.2821  0.0021  0.5258
  673SOL    HW1 2690   2.768   1.025   0.597 -0.9852  0.3255  2.2409
  673SOL    HW2 2691   2.851   1.146   0.568 -1.7084  0.8502 -0.7055
  673SOL     MW 2692   2.786   1.092   0.545 -0.5631  0.1567  0.5897
  674SOL     OW 2693   2.515   0.078   1.221  0.2016 -0.6162  0.4414
  674SOL    HW1 2694   2.479   0.079   1.130  1.6723  0.5463 -2.4988
  674SOL    HW2 2695   2.542  -0.011   1.234 -2.0403 -0.3927 -1.2151
  674SOL     MW 2696   2.514   0.066   1.211  0.0998 -0.4333 -0.1651
  675SOL     OW 2697   3.019   0.908   1.098  0.2511 -0.6000 -0.5069
  675SOL    HW1 2698   3.097   0.895   1.153  1.2557 -0.1244  1.1626
  675SOL    HW2 2699   3.062   0.940   1.017 -0.7503  0.9534  0.0074
  675SOL     MW 2700   3.035   0.911   1.094  0.2515 -0.3323 -0.2188
  676SOL     OW 2701   2.858   1.480   1.667 -0.3094 -0.7243 -0.1327
  676SOL    HW1 2702   2.800   1.399   1.660  0.1870  1.4036 -0.4852
  676SOL    HW2 2703   2.945   1.449   1.693 -1.5576  3.4833  0.9878
  676SOL     MW 2704   2.861   1.465   1.669 -0.4086  0.1116 -0.0314
  677SOL     OW 2705   2.423   0.695   1.958 -0.4488 -0.5687  0.3606
  677SOL    HW1 2706   2.399   0.618   1.916 -0.7172 -1.8497  2.3484
  677SOL    HW2 2707   2.345   0.745   1.991 -1.0284 -0.9317  1.4345
  677SOL     MW 2708   2.410   0.691   1.957 -0.5607 -0.7856  0.7646
  678SOL     OW 2709   2.545   1.616   0.422  0.2885  0.3398  0.6150
  678SOL    HW1 2710   2.455   1.660   0.406 -1.3450  0.2823  0.4338
  678SOL    HW2 2711   2.574   1.597   0.332  0.0274 -1.7460 -1.8656
  678SOL     MW 2712   2.537   1.619   0.408  0.0385  0.0570  0.2638
  679SOL     OW 2713   2.307   0.530   1.193 -0.2789  0.3065  0.5448
  679SOL    HW1 2714   2.253   0.454   1.160  0.9496  1.5233 -2.7128
  679SOL    HW2 2715   2.269   0.605   1.151  0.4689  0.7745  0.2415
  679SOL     MW 2716   2.295   0.530   1.183 -0.0182  0.5288  0.0750
  680SOL     OW 2717   2.368   0.236   1.424  0.0157 -0.2072  0.6105
  680SOL    HW1 2718   2.271   0.208   1.404 -4.8358  0.3121 -0.4416
  680SOL    HW2 2719   2.426   0.195   1.357  1.4328 -0.3314  3.3870
  680SOL     MW 2720   2.363   0.227   1.412 -0.4375 -0.1551  0.8380
  681SOL     OW 2721   0.349   0.596   1.547 -0.1608 -0.1048  0.1408
  681SOL    HW1 2722   0.310   0.528   1.609 -0.9273 -2.0610 -0.1124
  681SOL    HW2 2723   0.444   0.579   1.559 -0.5065 -0.1700 -1.2722
  681SOL     MW 2724   0.356   0.585   1.557 -0.3075 -0.3715 -0.0791
  682SOL     OW 2725   0.137   2.946   1.461 -0.1588 -0.4114 -0.0035
  682SOL    HW1 2726   0.137   3.037   1.444 -0.4042  1.7584 -1.1564
  682SOL    HW2 2727   0.069   2.924   1.525 -0.8584 -0.1912  2.8601
  682SOL     MW 2728   0.128   2.955   1.467 -0.2835 -0.0961  0.2222
  683SOL     OW 2729   2.049   0.859   3.029 -0.4008 -0.1399 -0.1693
  683SOL    HW1 2730   1.968   0.848   2.977  1.6637 -0.4207 -3.1930
  683SOL    HW2 2731   2.051   0.952   3.040 -1.1932 -1.4115  0.5943
  683SOL     MW 2732   2.039   0.870   3.023 -0.2329 -0.3447 -0.4675
  684SOL     OW 2733   2.179   1.745   0.935  0.1009 -0.3582  0.3134
  684SOL    HW1 2734   2.087   1.720   0.916  0.3395  1.9149  3.0701
  684SOL    HW2 2735   2.228   1.657   0.935  0.2752 -0.9230 -2.0713
  684SOL     MW 2736   2.173   1.730   0.932  0.1554 -0.1328  0.3625
  685SOL     OW 2737   2.656   1.752   1.231  0.3288  0.4772  0.1307
  685SOL    HW1 2738   2.736   1.709   1.261  1.2482 -2.3036 -2.6880
  685SOL    HW2 2739   2.623   1.672   1.184 -0.0085  0.1718 -1.1817
  685SOL     MW 2740   2.662   1.736   1.229  0.4056  0.0700 -0.4144
  686SOL     OW 2741   2.895   0.715   1.473  0.4143  0.5187  0.5752
  686SOL    HW1 2742   2.897   0.677   1.565  0.9712 -0.5579 -0.4129
  686SOL    HW2 2743   2.986   0.743   1.464 -1.1778 -2.8310  2.3111
  686SOL     MW 2744   2.907   0.713   1.484  0.2777 -0.0653  0.6739
  687SOL     OW 2745   2.106   0.297   1.163 -0.8725  0.3319 -0.9394
  687SOL    HW1 2746   2.105   0.222   1.101 -2.5400  0.8765 -0.2847
  687SOL    HW2 2747   2.019   0.334   1.163  0.8675 -0.8305  2.9307
  687SOL     MW 2748   2.094   0.292   1.155 -0.8630  0.2504 -0.3424
  688SOL     OW 2749   2.370   0.638   1.440  0.0334 -0.3342 -0.5054
  688SOL    HW1 2750   2.335   0.577   1.372  0.3528  0.5433 -3.9868
  688SOL    HW2 2751   2.302   0.632   1.513 -3.3548 -0.7204 -1.3687
  688SOL     MW 2752   2.356   0.629   1.441 -0.3715 -0.2694 -1.0786
  689SOL     OW 2753   2.544   0.726   3.009 -0.0675 -0.4623 -0.0483
  689SOL    HW1 2754   2.560   0.802   2.951 -1.1404  1.0206  0.4125
  689SOL    HW2 2755   2.604   0.747   3.086  1.0052  0.9185  2.7886
  689SOL     MW 2756   2.554   0.739   3.012 -0.0675 -0.0845  0.3868
  690SOL     OW 2757   2.114   0.923   1.906 -0.1576 -0.1367 -0.4555
  690SOL    HW1 2758   2.039   0.863   1.906  0.0273  1.3608 -1.2377
  690SOL    HW2 2759   2.140   0.923   1.815 -0.5588  2.1592 -0.1185
  690SOL     MW 2760   2.108   0.915   1.894 -0.1861  0.3638 -0.5142
  691SOL     OW 2761   2.471   0.267   0.814  0.5829 -0.1567 -0.4431
  691SOL    HW1 2762   2.548   0.312   0.854 -0.7074 -1.2664 -0.4657
  691SOL    HW2 2763   2.387   0.317   0.845 -1.0587  2.0253  1.3753
  691SOL     MW 2764   2.470   0.279   0.823  0.1960 -0.0152 -0.2062
  692SOL     OW 2765   2.828   1.640   1.430  0.3579 -0.9960 -0.2740
  692SOL    HW1 2766   2.827   1.592   1.507 -3.1766  0.7303 -5.2869
  692SOL    HW2 2767   2.819   1.728   1.464  0.6102  1.3449  1.4675
  692SOL     MW 2768   2.826   1.645   1.445 -0.0752 -0.4594 -0.7056
  693SOL     OW 2769   2.326   0.438   0.124  0.3592  0.6781  0.1337
  693SOL    HW1 2770   2.246   0.384   0.125 -0.6004  0.9628 -1.0732
  693SOL    HW2 2771   2.311   0.511   0.073  1.3358 -1.4499  0.0213
  693SOL     MW 2772   2.313   0.440   0.117  0.3614  0.4349 -0.0404
  694SOL     OW 2773   1.909   1.264   1.094 -0.1622 -0.6437  0.1599
  694SOL    HW1 2774   1.994   1.226   1.115 -1.7306  0.0763  0.8037
  694SOL    HW2 2775   1.844   1.209   1.139  0.2354  0.4226  0.5404
  694SOL     MW 2776   1.911   1.252   1.103 -0.3167 -0.4080  0.2951
  695SOL     OW 2777   2.988   1.447   1.317 -0.0195  0.3712  0.7313
  695SOL    HW1 2778   2.966   1.441   1.225  1.4140 -0.5652 -0.4529
  695SOL    HW2 2779   2.941   1.518   1.361  2.0277 -0.2940 -0.3550
  695SOL     MW 2780   2.979   1.455   1.311  0.4397  0.1599  0.4317
  696SOL     OW 2781   2.098   1.385   0.892 -0.0278 -0.1670 -0.1742
  696SOL    HW1 2782   2.173   1.419   0.949  0.3206 -0.5661 -0.9193
  696SOL    HW2 2783   2.039   1.352   0.960 -0.1013  1.4077  0.8742
  696SOL     MW 2784   2.100   1.385   0.908  0.0084 -0.0119 -0.1341
  697SOL     OW 2785   2.913   1.099   2.132  0.3258  0.3228  0.2513
  697SOL    HW1 2786   2.834   1.146   2.175 -3.5187 -2.2584  2.0026
  697SOL    HW2 2787   2.882   1.004   2.113  1.1065 -1.8536 -0.7248
  697SOL     MW 2788   2.898   1.092   2.135 -0.0784 -0.3049  0.3535
  698SOL     OW 2789   2.570   0.323   0.015 -0.0571  0.5207  0.3265
  698SOL    HW1 2790   2.485   0.348   0.050 -2.0259 -1.4173  3.1462
  698SOL    HW2 2791   2.610   0.258   0.081 -1.1300  1.1362 -2.4281
  698SOL     MW 2792   2.564   0.318   0.028 -0.4584  0.3462  0.3351
  699SOL     OW 2793   1.836   1.675   2.054  0.4610  0.5434 -0.4423
  699SOL    HW1 2794   1.812   1.577   2.067  2.3462 -1.0955 -1.8724
  699SOL    HW2 2795   1.932   1.669   2.030 -0.2534 -1.9910 -0.6559
  699SOL     MW 2796   1.845   1.661   2.053  0.6155 -0.0072 -0.6592
  700SOL     OW 2797   2.722   0.926   1.570 -0.0152 -0.2281 -0.4813
  700SOL    HW1 2798   2.754   0.986   1.502 -3.2243 -0.9867  0.3981
  700SOL    HW2 2799   2.768   0.848   1.535  0.4314  3.4383 -1.4356
  700SOL     MW 2800   2.732   0.923   1.556 -0.3797  0.1556 -0.4912
  701SOL     OW 2801   1.618   1.275   2.526 -0.5085  0.2720 -0.4721
  701SOL    HW1 2802   1.706   1.286   2.494 -0.4001 -4.3340  0.2203
  701SOL    HW2 2803   1.607   1.330   2.603  1.6074 -1.4619 -1.2964
  701SOL     MW 2804   1.628   1.284   2.532 -0.2150 -0.5645 -0.4895
  702SOL     OW 2805   2.195   0.393   0.859  0.4475  0.3646  0.3489
  702SOL    HW1 2806   2.143   0.327   0.812  2.2040 -2.0410 -1.7011
  702SOL    HW2 2807   2.222   0.449   0.790 -2.9179 -0.7888 -0.6037
  702SOL     MW 2808   2.192   0.392   0.844  0.2352 -0.1049 -0.0473
  703SOL     OW 2809   2.705   1.278   1.037  0.8282 -0.0304  0.2077
  703SOL    HW1 2810   2.682   1.261   0.940 -1.4146  0.8521 -0.0771
  703SOL    HW2 2811   2.733   1.197   1.087  0.3203 -0.3696 -0.3278
  703SOL     MW 2812   2.706   1.265   1.031  0.4653  0.0413  0.0994
  704SOL     OW 2813   3.082   1.325   0.263 -0.3219  0.0390 -0.2934
  704SOL    HW1 2814   3.026   1.263   0.219  1.3755 -1.6733  1.6404
  704SOL    HW2 2815   3.122   1.269   0.334  1.4912 -3.6347  2.4491
  704SOL     MW 2816   3.080   1.309   0.267  0.1413 -0.6716  0.3236
  705SOL     OW 2817   2.209   1.626   1.289  0.9036  0.2497  0.2808
  705SOL    HW1 2818   2.140   1.674   1.324 -5.1793  1.9685 -0.2954
  705SOL    HW2 2819   2.211   1.543   1.334  1.4476  2.6314 -1.1092
  705SOL     MW 2820   2.200   1.622   1.299  0.1728  0.7907  0.0214
  706SOL     OW 2821   2.955   1.228   0.697  0.4249 -0.0657 -0.1204
  706SOL    HW1 2822   3.026   1.206   0.632  3.2157 -0.0905 -2.9803
  706SOL    HW2 2823   2.946   1.324   0.692 -1.0080 -0.0115 -0.5409
  706SOL     MW 2824   2.964   1.238   0.688  0.6040 -0.0618 -0.5532
  707SOL     OW 2825   2.377   0.062   0.968  0.0411 -0.3861 -0.4021
  707SOL    HW1 2826   2.412   0.133   0.904  0.9307  1.1413 -1.1092
  707SOL    HW2 2827   2.281   0.072   0.978  0.4776  0.9864  0.8393
  707SOL     MW 2828   2.369   0.073   0.961  0.2160 -0.0035 -0.3316
  708SOL     OW 2829   2.564   1.567   0.138  0.3482  0.1051 -0.1524
  708SOL    HW1 2830   2.583   1.474   0.149 -0.2973  0.4132  0.3401
  708SOL    HW2 2831   2.491   1.555   0.075 -2.0366  1.1065 -0.7473
  708SOL     MW 2832   2.557   1.553   0.131 -0.0516  0.2779 -0.1659
  709SOL     OW 2833   1.727   1.726   0.158 -0.0329 -0.0379  0.1895
  709SOL    HW1 2834   1.672   1.741   0.086  3.1487  1.4368  0.1910
  709SOL    HW2 2835   1.671   1.676   0.215 -1.4663 -1.8448 -0.3432
  709SOL     MW 2836   1.712   1.722   0.156  0.1978 -0.0817  0.1194
  710SOL     OW 2837   2.162   1.167   1.193  0.6646  0.1782 -0.8131
  710SOL    HW1 2838   2.225   1.141   1.124 -0.6105  1.3870  0.0329
  710SOL    HW2 2839   2.166   1.087   1.242 -0.3309  1.3565 -1.0780
  710SOL     MW 2840   2.171   1.153   1.190  0.3651  0.4932 -0.7364
  711SOL     OW 2841   2.335   0.127   1.773  0.2392  0.0088 -0.3750
  711SOL    HW1 2842   2.433   0.113   1.806  0.0414  0.5150  0.1791
  711SOL    HW2 2843   2.330   0.112   1.682 -1.0031 -0.4381  1.3813
  711SOL     MW 2844   2.347   0.123   1.765  0.0492  0.0166 -0.0701
  712SOL     OW 2845   1.844   0.616   3.065  0.7769  0.9336  0.3201
  712SOL    HW1 2846   1.849   0.687   3.007  2.5744  0.5522  1.2202
  712SOL    HW2 2847   1.826   0.653   3.151  0.1304 -2.5269 -1.6792
  712SOL     MW 2848   1.842   0.630   3.069  0.9288  0.4267  0.1751
  713SOL     OW 2849   2.587   0.824   1.085 -0.2577 -0.3861 -0.0779
  713SOL    HW1 2850   2.594   0.725   1.080 -3.2271  0.8537 -1.8280
  713SOL    HW2 2851   2.534   0.838   1.164 -0.3524 -1.4521  1.7138
  713SOL     MW 2852   2.581   0.812   1.095 -0.6620 -0.3632 -0.0724
  714SOL     OW 2853   2.167   0.220   1.959  0.0737  0.1799  0.3105
  714SOL    HW1 2854   2.211   0.185   2.037 -0.6054 -1.0462 -1.4080
  714SOL    HW2 2855   2.227   0.201   1.892 -0.4295  1.8404  0.5445
  714SOL     MW 2856   2.181   0.213   1.961 -0.0823  0.2372  0.1147
  715SOL     OW 2857   1.724   1.904   1.729 -0.0383 -0.2543 -0.3873
  715SOL    HW1 2858   1.805   1.897   1.682 -3.2779  2.8786 -1.1962
  715SOL    HW2 2859   1.713   1.813   1.766 -2.1144 -2.0689  0.6900
  715SOL     MW 2860   1.734   1.891   1.728 -0.7396 -0.0804 -0.3519
  716SOL     OW 2861   2.385   0.566   0.734 -0.4417  0.0655  0.0526
  716SOL    HW1 2862   2.439   0.514   0.677 -0.7617  2.3889  0.9885
  716SOL    HW2 2863   2.315   0.600   0.674 -1.7907 -1.0015 -0.6259
  716SOL     MW 2864   2.383   0.564   0.719 -0.6619  0.2313  0.0866
  717SOL     OW 2865   2.865   1.418   2.903 -0.1190 -0.2294  0.0582
  717SOL    HW1 2866   2.963   1.430   2.916 -1.3653  0.4818 -1.1376
  717SOL    HW2 2867   2.830   1.479   2.975  0.6668  0.0372  1.1310
  717SOL     MW 2868   2.873   1.428   2.914 -0.1798 -0.1004  0.0420
  718SOL     OW 2869   2.506   1.357   1.375 -0.1216  0.4790 -0.1792
  718SOL    HW1 2870   2.503   1.434   1.435 -2.0190 -2.3049 -0.5826
  718SOL    HW2 2871   2.590   1.320   1.392 -0.9431  1.4548 -0.0057
  718SOL     MW 2872   2.517   1.363   1.385 -0.4803  0.2405 -0.2096
  719SOL     OW 2873   2.179   1.349   0.573  0.5976 -0.0376  0.1693
  719SOL    HW1 2874   2.274   1.352   0.575  0.6060  0.9344  0.5320
  719SOL    HW2 2875   2.142   1.361   0.662  2.6552  0.6825  1.9308
  719SOL     MW 2876   2.187   1.351   0.585  0.8702  0.1857  0.4496
  720SOL     OW 2877   2.895   1.176   0.139  0.1869 -0.2662 -0.5130
  720SOL    HW1 2878   2.851   1.095   0.164 -0.4321  2.8782  0.5076
  720SOL    HW2 2879   2.824   1.246   0.147  1.6007 -2.4447  1.4449
  720SOL     MW 2880   2.880   1.174   0.143  0.2918 -0.1388 -0.1200
  721SOL     OW 2881   2.512   0.843   1.364  0.3887  0.8423 -0.2524
  721SOL    HW1 2882   2.472   0.766   1.401 -0.8741  3.6521  2.8379
  721SOL    HW2 2883   2.559   0.864   1.440 -2.8971  1.9523 -0.3226
  721SOL     MW 2884   2.513   0.835   1.379 -0.2114  1.3595  0.1461
  722SOL     OW 2885   2.556   1.162   0.359  0.0128 -0.8667  0.2895
  722SOL    HW1 2886   2.516   1.239   0.412  1.8261  0.8922 -0.5942
  722SOL    HW2 2887   2.629   1.132   0.417  4.2740 -2.1795  0.6794
  722SOL     MW 2888   2.560   1.168   0.374  0.8143 -0.8079  0.2244
  723SOL     OW 2889   2.233   1.381   1.647  0.5807  0.5455 -0.2217
  723SOL    HW1 2890   2.219   1.366   1.555 -1.1224  1.0268  0.5950
  723SOL    HW2 2891   2.168   1.444   1.675 -1.6902 -2.6400  0.5859
  723SOL     MW 2892   2.222   1.387   1.638  0.0564  0.1887 -0.0074
  724SOL     OW 2893   2.504   0.394   0.555  0.3059  0.4811  0.3069
  724SOL    HW1 2894   2.500   0.321   0.620  1.3287 -0.9907  0.7740
  724SOL    HW2 2895   2.592   0.438   0.561  0.7943  1.5348 -2.2186
  724SOL     MW 2896   2.515   0.390   0.564  0.5053  0.4260  0.0353
  725SOL     OW 2897   2.573   0.531   1.132 -0.0873  0.3112 -0.0299
  725SOL    HW1 2898   2.589   0.516   1.226 -0.5815 -2.0625  4.5663
  725SOL    HW2 2899   2.477   0.536   1.140  1.0738 -0.7887  2.6259
  725SOL     MW 2900   2.562   0.530   1.145  0.0007 -0.1471  0.9270
  726SOL     OW 2901   2.594   2.426   0.549 -0.0633  0.1116 -0.1855
  726SOL    HW1 2902   2.523   2.478   0.521  2.6721  0.4933  1.7947
  726SOL    HW2 2903   2.559   2.356   0.600  1.9207  1.3646 -0.4526
  726SOL     MW 2904   2.580   2.424   0.552  0.5594  0.3273  0.0405
  727SOL     OW 2905   2.920   0.261   1.577  0.3960 -0.1744 -0.2008
  727SOL    HW1 2906   2.921   0.294   1.483 -1.3687 -0.2200 -0.2867
  727SOL    HW2 2907   2.837   0.213   1.582  2.1825 -3.1238 -0.5468
  727SOL     MW 2908   2.909   0.259   1.565  0.3989 -0.5696 -0.2578
  728SOL     OW 2909   2.814   1.171   2.978 -0.0870  0.1572  0.2899
  728SOL    HW1 2910   2.824   1.263   2.944  4.9792  0.2920 -1.0774
  728SOL    HW2 2911   2.839   1.177   3.073 -1.9512 -4.0643 -1.1742
  728SOL     MW 2912   2.819   1.184   2.986  0.3355 -0.3820 -0.0837
  729SOL     OW 2913   2.565   1.514   1.145 -0.0538  0.1440 -0.3477
  729SOL    HW1 2914   2.551   1.445   1.210  3.4660  1.6733 -1.9268
  729SOL    HW2 2915   2.619   1.474   1.070 -3.8328 -1.6099 -2.1832
  729SOL     MW 2916   2.570   1.500   1.144 -0.0880  0.1144 -0.7982
  730SOL     OW 2917   2.116   1.119   0.292 -0.1780  0.2209  0.0128
  730SOL    HW1 2918   2.201   1.100   0.250 -1.9676 -2.9106 -0.6928
  730SOL    HW2 2919   2.111   1.214   0.288  1.6377  1.5199  0.2081
  730SOL     MW 2920   2.126   1.129   0.286 -0.1745 -0.0208 -0.0545
  731SOL     OW 2921   2.804   1.852   2.875  0.0164  0.3836 -0.4312
  731SOL    HW1 2922   2.767   1.912   2.809  2.0894 -3.0029 -1.0640
  731SOL    HW2 2923   2.888   1.894   2.891 -1.1609  0.7102  0.5072
  731SOL     MW 2924   2.810   1.866   2.869  0.1346 -0.0201 -0.3908
  732SOL     OW 2925   2.231   0.905   1.296  0.1237 -0.1419  0.5489
  732SOL    HW1 2926   2.182   0.894   1.379 -0.2799 -4.8219 -0.8662
  732SOL    HW2 2927   2.326   0.900   1.315 -0.8533 -0.9907 -2.6532
  732SOL     MW 2928   2.237   0.903   1.310 -0.0584 -0.8714 -0.0603
  733SOL     OW 2929   2.368   2.816   3.042  0.4866  0.0528 -0.4639
  733SOL    HW1 2930   2.302   2.886   3.051 -1.8270  0.2063 -0.0641
  733SOL    HW2 2931   2.325   2.731   3.040  1.7407  1.3701 -1.3357
  733SOL     MW 2932   2.354   2.814   3.043  0.3468  0.2468 -0.5262
  734SOL     OW 2933   1.497   0.360   2.473  0.3083 -0.0846 -0.3066
  734SOL    HW1 2934   1.466   0.318   2.558  0.1274 -0.3594  1.1655
  734SOL    HW2 2935   1.529   0.287   2.413 -1.0813  2.2406 -0.3222
  734SOL     MW 2936   1.497   0.345   2.476  0.1011  0.1859 -0.1145
  735SOL     OW 2937   3.004   0.945   2.586 -0.3607 -0.8327 -0.4350
  735SOL    HW1 2938   2.986   0.853   2.598  0.4169 -0.2541  0.3654
  735SOL    HW2 2939   3.010   0.976   2.679 -2.8291 -2.4213  0.5582
  735SOL     MW 2940   3.002   0.937   2.600 -0.5838 -0.9660 -0.1983
  736SOL     OW 2941   0.069   0.600   2.551  0.4098  0.3225  0.2910
  736SOL    HW1 2942   0.129   0.657   2.500  2.6103  1.4787  1.7571
  736SOL    HW2 2943   0.040   0.526   2.491  0.6465  2.1326 -3.5804
  736SOL     MW 2944   0.073   0.598   2.537  0.7314  0.7139 -0.0264
  737SOL     OW 2945   2.924   0.694   2.623 -0.3096 -0.1922  0.0062
  737SOL    HW1 2946   2.873   0.683   2.541 -0.0508 -0.6667  0.9647
  737SOL    HW2 2947   3.007   0.651   2.605  0.3610  2.3974  0.1807
  737SOL     MW 2948   2.928   0.687   2.610 -0.1870  0.0868  0.1557
  738SOL     OW 2949   0.164   0.530   1.960  0.3382  0.1614 -0.2147
  738SOL    HW1 2950   0.252   0.561   1.977 -0.8193 -0.6717  2.1938
  738SOL    HW2 2951   0.175   0.487   1.872 -4.3618 -1.6552  1.5238
  738SOL     MW 2952   0.177   0.528   1.951 -0.4346 -0.1882  0.3325
  739SOL     OW 2953   2.523   0.975   2.162 -0.1715  0.5469  0.0775
  739SOL    HW1 2954   2.440   0.927   2.152  0.6830  1.4455  0.6575
  739SOL    HW2 2955   2.526   1.027   2.081 -2.5868  0.7884  1.1121
  739SOL     MW 2956   2.513   0.976   2.150 -0.3774  0.6973  0.2906
  740SOL     OW 2957   0.129   1.776   2.958  0.5007 -0.2771  0.0352
  740SOL    HW1 2958   0.094   1.690   2.939 -1.5311  0.4333  2.4480
  740SOL    HW2 2959   0.222   1.757   2.986  0.8198  2.9777  0.6090
  740SOL     MW 2960   0.137   1.762   2.959  0.2747  0.2461  0.4292
  741SOL     OW 2961   2.232   1.232   2.690  0.1042  0.7870 -0.8348
  741SOL    HW1 2962   2.203   1.310   2.643 -1.6291 -2.2560  0.5546
  741SOL    HW2 2963   2.245   1.260   2.781  0.9040 -1.9505 -0.2259
  741SOL     MW 2964   2.230   1.246   2.696 -0.0189  0.0243 -0.5712
  742SOL     OW 2965   1.635   1.373   2.273 -0.4678 -0.2647 -0.2755
  742SOL    HW1 2966   1.599   1.287   2.251 -0.7688 -0.2035 -0.8671
  742SOL    HW2 2967   1.611   1.383   2.362 -2.2107 -1.4411 -0.4221
  742SOL     MW 2968   1.627   1.363   2.282 -0.7375 -0.4118 -0.3729
  743SOL     OW 2969   2.515   1.243   2.726  0.0117 -0.7380  0.2474
  743SOL    HW1 2970   2.423   1.229   2.708  2.4322  2.0489  0.5990
  743SOL    HW2 2971   2.551   1.171   2.761  0.1063  2.2782  0.7740
  743SOL     MW 2972   2.507   1.232   2.728  0.3436  0.0277  0.3633
  744SOL     OW 2973   2.799   0.992   1.834 -0.2441  0.3350 -0.3240
  744SOL    HW1 2974   2.718   1.036   1.865  0.6039  1.1054 -0.8938
  744SOL    HW2 2975   2.776   0.961   1.746 -1.0234 -2.5295 -0.0380
  744SOL     MW 2976   2.785   0.994   1.827 -0.2350  0.0587 -0.3615
  745SOL     OW 2977   1.787   0.436   2.461 -0.4592 -0.2917 -0.1398
  745SOL    HW1 2978   1.775   0.429   2.365 -1.0572  2.4593 -0.5988
  745SOL    HW2 2979   1.701   0.406   2.497  1.2600 -3.2705  1.4208
  745SOL     MW 2980   1.774   0.431   2.453 -0.3112 -0.3218  0.0055
  746SOL     OW 2981   1.505   1.469   1.677  0.1954 -0.4007 -0.2681
  746SOL    HW1 2982   1.553   1.543   1.712 -2.3782 -0.3717  0.5721
  746SOL    HW2 2983   1.492   1.400   1.747 -1.7004 -3.3422 -2.0515
  746SOL     MW 2984   1.509   1.470   1.691 -0.3943 -0.7849 -0.3926
  747SOL     OW 2985   2.549   1.134   1.907  0.0404  0.3021  0.0213
  747SOL    HW1 2986   2.456   1.115   1.882  1.8258 -0.0736 -1.1053
  747SOL    HW2 2987   2.546   1.221   1.949 -1.1051 -0.3422 -1.0418
  747SOL     MW 2988   2.536   1.143   1.909  0.1248  0.1675 -0.2676
  748SOL     OW 2989   0.080   3.054   1.904  0.1419 -0.2681 -0.5533
  748SOL    HW1 2990   0.163   3.033   1.946  0.6765  3.2227  0.8229
  748SOL    HW2 2991   0.043   3.117   1.959 -1.4048 -2.6813 -1.2757
  748SOL     MW 2992   0.086   3.059   1.917  0.0084 -0.1259 -0.4671
  749SOL     OW 2993   2.460   0.574   2.772 -0.2546 -0.3223  0.3090
  749SOL    HW1 2994   2.495   0.654   2.727  1.8700  0.4259 -1.8627
  749SOL    HW2 2995   2.462   0.596   2.860 -0.1669  0.1266 -3.0344
  749SOL     MW 2996   2.465   0.588   2.778  0.0373 -0.1643 -0.4187
  750SOL     OW 2997   2.073   3.060   1.948  0.6145  0.1211 -0.3694
  750SOL    HW1 2998   2.125   3.138   1.947 -2.9044 -1.9177  1.7185
  750SOL    HW2 2999   2.145   2.989   1.968 -0.0807 -1.2456 -1.3674
  750SOL     MW 3000   2.089   3.061   1.951  0.0585 -0.3282 -0.2256
  751SOL     OW 3001   0.012   0.371   2.399  0.1650 -0.2952 -0.0908
  751SOL    HW1 3002  -0.073   0.381   2.364 -0.1175 -1.3108  0.9843
  751SOL    HW2 3003   0.078   0.378   2.328 -0.9052 -0.8886  0.4705
  751SOL     MW 3004   0.009   0.373   2.385 -0.0135 -0.5075  0.1251
  752SOL     OW 3005   2.131   0.899   2.751  0.2436 -0.3086 -0.2342
  752SOL    HW1 3006   2.221   0.922   2.729 -1.4114  0.4202 -0.7437
  752SOL    HW2 3007   2.126   0.884   2.849  0.1978 -0.4876 -1.3603
  752SOL     MW 3008   2.142   0.900   2.761  0.0192 -0.2361 -0.4500
  753SOL     OW 3009   2.858   0.429   2.339  0.5581  0.0036  0.4568
  753SOL    HW1 3010   2.801   0.353   2.347  1.4719 -0.0136  2.0986
  753SOL    HW2 3011   2.802   0.508   2.349 -0.2852 -2.0597  2.0189
  753SOL     MW 3012   2.843   0.430   2.341  0.5674 -0.2709  0.8795
  754SOL     OW 3013   2.253   3.005   2.598 -0.2644  0.1739 -0.0732
  754SOL    HW1 3014   2.275   2.999   2.500 -0.4885 -1.1332 -0.7020
  754SOL    HW2 3015   2.326   2.961   2.651  0.8308  0.6654  0.5566
  754SOL     MW 3016   2.265   2.999   2.592 -0.1495  0.0663 -0.0731
  755SOL     OW 3017   2.781   1.599   2.493  0.2340 -0.1108  0.1466
  755SOL    HW1 3018   2.752   1.508   2.513 -3.3332  0.4685  0.3798
  755SOL    HW2 3019   2.823   1.624   2.574 -1.9328 -1.5930  1.1351
  755SOL     MW 3020   2.782   1.590   2.506 -0.5225 -0.2299  0.3078
  756SOL     OW 3021   2.251   1.271   2.983  0.2141  0.0297  0.3570
  756SOL    HW1 3022   2.310   1.349   2.986  2.2591  1.9103  0.1887
  756SOL    HW2 3023   2.294   1.188   2.998 -0.3777  0.2468  0.1573
  756SOL     MW 3024   2.265   1.270   2.986  0.4058  0.3065  0.3084
  757SOL     OW 3025   2.192   0.939   1.643 -0.3714  0.2315 -0.0751
  757SOL    HW1 3026   2.206   0.843   1.649  0.1528 -1.9626  0.3509
  757SOL    HW2 3027   2.113   0.965   1.597 -0.2128 -0.0717  2.8377
  757SOL     MW 3028   2.183   0.930   1.638 -0.2813 -0.0980  0.3654
  758SOL     OW 3029   2.261   1.781   2.630  0.0896 -0.6175  0.0046
  758SOL    HW1 3030   2.269   1.824   2.542 -0.6177 -0.5330  1.5999
  758SOL    HW2 3031   2.351   1.771   2.656  1.8027  1.1154  0.6985
  758SOL     MW 3032   2.274   1.785   2.622  0.2223 -0.3777  0.3066
  759SOL     OW 3033   1.542   1.425   2.788  0.3509 -0.0857  0.0750
  759SOL    HW1 3034   1.525   1.523   2.770 -1.0032 -0.4937  0.6074
  759SOL    HW2 3035   1.609   1.419   2.853 -2.0402  1.2873  3.0226
  759SOL     MW 3036   1.549   1.437   2.794 -0.1433  0.0416  0.5341
  760SOL     OW 3037   2.675   1.982   2.670  1.1017  0.0197 -0.2754
  760SOL    HW1 3038   2.643   1.893   2.658  0.5222  3.8656  1.4950
  760SOL    HW2 3039   2.755   1.973   2.623 -1.5531  1.4815 -0.0295
  760SOL     MW 3040   2.681   1.969   2.662  0.6750  0.7200 -0.0093
  761SOL     OW 3041   2.168   0.447   2.448 -0.4366 -0.2753  0.2379
  761SOL    HW1 3042   2.109   0.371   2.461 -0.1270 -4.0050  1.6221
  761SOL    HW2 3043   2.143   0.521   2.515  1.6917  1.5559 -0.2392
  761SOL     MW 3044   2.157   0.447   2.459 -0.1150 -0.5258  0.3576
  762SOL     OW 3045   0.022   0.158   2.095  0.0434  0.2101  0.1610
  762SOL    HW1 3046   0.019   0.090   2.164  0.3413 -0.3834 -0.7285
  762SOL    HW2 3047  -0.059   0.208   2.104  0.9402  0.8806  2.1164
  762SOL     MW 3048   0.011   0.155   2.105  0.2010  0.2202  0.3017
  763SOL     OW 3049   2.457   1.153   2.361 -0.0393 -0.4432 -0.3171
  763SOL    HW1 3050   2.499   1.089   2.301 -3.5607  0.0878 -2.5085
  763SOL    HW2 3051   2.510   1.229   2.358  0.3101 -0.0958  0.5816
  763SOL     MW 3052   2.470   1.154   2.353 -0.4578 -0.3273 -0.4876
  764SOL     OW 3053   0.328   0.180   2.806 -0.3121 -0.4313  0.3848
  764SOL    HW1 3054   0.265   0.208   2.745  0.3948 -0.1940  1.6447
  764SOL    HW2 3055   0.323   0.253   2.865  0.5885  2.3173 -2.2539
  764SOL     MW 3056   0.319   0.194   2.805 -0.1000 -0.0373  0.2029
  765SOL     OW 3057   2.752   0.167   2.315 -0.2164 -0.3541 -0.0900
  765SOL    HW1 3058   2.695   0.123   2.248  0.3128 -0.0864  0.7748
  765SOL    HW2 3059   2.808   0.095   2.355  0.7690 -2.3578 -2.4180
  765SOL     MW 3060   2.752   0.151   2.311 -0.0166 -0.5831 -0.2831
  766SOL     OW 3061   1.844   2.998   2.104 -0.0824  0.0026  0.3121
  766SOL    HW1 3062   1.895   3.026   2.030 -1.0617 -1.2269  0.8558
  766SOL    HW2 3063   1.797   2.932   2.055  0.7001  1.2021 -0.5799
  766SOL     MW 3064   1.844   2.993   2.088 -0.1084 -0.0013  0.2661
  767SOL     OW 3065   2.693   0.614   1.901 -0.5307 -0.1780 -0.8147
  767SOL    HW1 3066   2.737   0.681   1.959  1.0433  0.2562 -0.6143
  767SOL    HW2 3067   2.611   0.654   1.873  0.9377 -1.1512 -2.1851
  767SOL     MW 3068   2.688   0.628   1.905 -0.1293 -0.2491 -0.9691
  768SOL     OW 3069   0.021   1.487   2.950 -0.1779  0.7521 -0.3009
  768SOL    HW1 3070   0.036   1.477   3.047 -0.3760  2.3715 -0.0670
  768SOL    HW2 3071   0.062   1.410   2.914 -2.9786 -0.1219 -0.8442
  768SOL     MW 3072   0.028   1.476   2.958 -0.5735  0.8505 -0.3417
  769SOL     OW 3073   2.376   0.623   2.464 -0.4959 -0.5656 -0.7296
  769SOL    HW1 3074   2.325   0.538   2.453 -0.3280 -0.0925  0.3943
  769SOL    HW2 3075   2.424   0.635   2.385  0.4010  1.3762  0.2733
  769SOL     MW 3076   2.375   0.614   2.452 -0.3554 -0.2470 -0.4490
  770SOL     OW 3077   0.057   1.606   2.590  0.0224 -0.2055 -0.8045
  770SOL    HW1 3078  -0.025   1.629   2.635  0.3866  1.8228 -1.1049
  770SOL    HW2 3079   0.078   1.518   2.626 -1.4725  1.1127 -3.4231
  770SOL     MW 3080   0.049   1.597   2.601 -0.1268  0.2361 -1.1896
  771SOL     OW 3081   3.009   0.591   1.971  0.6120  0.5379  0.1071
  771SOL    HW1 3082   2.980   0.603   1.877  1.3159 -0.6750 -1.6023
  771SOL    HW2 3083   3.101   0.573   1.975 -3.8632  0.4904  0.5212
  771SOL     MW 3084   3.018   0.591   1.960  0.1144  0.3716 -0.0638
  772SOL     OW 3085   0.042   3.104   2.311  0.2249  0.3641  0.3143
  772SOL    HW1 3086  -0.051   3.091   2.330  0.2992  1.1062  1.6023
  772SOL    HW2 3087   0.088   3.023   2.286  0.8950  2.0306 -0.1646
  772SOL     MW 3088   0.036   3.091   2.310  0.3231  0.6819  0.4211
  773SOL     OW 3089   2.430   2.881   2.783 -0.9218  1.0677 -0.3638
  773SOL    HW1 3090   2.448   2.798   2.741 -0.1793 -1.9490 -0.9234
  773SOL    HW2 3091   2.411   2.853   2.874  0.2634  0.5721 -0.4876
  773SOL     MW 3092   2.430   2.866   2.789 -0.6675  0.6043 -0.4540
  774SOL     OW 3093   2.300   1.174   1.807 -0.0319 -0.0830 -0.3535
  774SOL    HW1 3094   2.278   1.254   1.753  1.2863  2.0319  1.2483
  774SOL    HW2 3095   2.248   1.108   1.758  2.0520  1.4324  1.1858
  774SOL     MW 3096   2.290   1.175   1.793  0.4170  0.3960  0.0609
  775SOL     OW 3097   2.319   2.979   2.331  0.6813 -0.5623 -0.0052
  775SOL    HW1 3098   2.332   3.055   2.267 -1.7332 -0.3705 -0.0981
  775SOL    HW2 3099   2.375   2.907   2.310  0.4635 -0.1936 -0.5658
  775SOL     MW 3100   2.328   2.980   2.320  0.3340 -0.4884 -0.0914
  776SOL     OW 3101   0.105   1.500   0.097  0.1231  0.0528 -0.7456
  776SOL    HW1 3102   0.200   1.468   0.088  1.9364  3.5384 -0.8869
  776SOL    HW2 3103   0.055   1.434   0.144  1.1828  0.7345 -0.0305
  776SOL     MW 3104   0.111   1.487   0.102  0.5022  0.6026 -0.6699
  777SOL     OW 3105   3.006   1.112   1.716 -0.2432 -0.6281 -0.0595
  777SOL    HW1 3106   2.981   1.171   1.652 -0.2026  0.1823  2.3550
  777SOL    HW2 3107   2.925   1.074   1.741 -0.0198  0.8423 -0.5536
  777SOL     MW 3108   2.992   1.115   1.711 -0.2084 -0.3272  0.1938
  778SOL     OW 3109   2.822   0.447   2.723  0.1749  0.6445  0.5591
  778SOL    HW1 3110   2.784   0.448   2.812  2.3224  0.1562 -1.2778
  778SOL    HW2 3111   2.852   0.538   2.706  1.8481 -2.1936  0.0652
  778SOL     MW 3112   2.821   0.460   2.733  0.6790  0.2056  0.2516
  779SOL     OW 3113   2.252   0.550   2.199  0.5208 -0.1170 -0.0627
  779SOL    HW1 3114   2.221   0.642   2.206 -2.8851 -1.7796 -0.0049
  779SOL    HW2 3115   2.214   0.510   2.271 -0.4493  2.1743 -0.1277
  779SOL     MW 3116   2.243   0.557   2.209 -0.0565 -0.0341 -0.0636
  780SOL     OW 3117   0.127   0.313   2.672  0.6473 -0.0266  0.0364
  780SOL    HW1 3118   0.071   0.352   2.742 -0.3981  1.3170 -2.0145
  780SOL    HW2 3119   0.153   0.394   2.623 -0.9492 -1.2700  0.6595
  780SOL     MW 3120   0.123   0.329   2.675  0.2988 -0.0134 -0.1520
  781SOL     OW 3121   3.074   1.294   2.463 -0.4481  0.1428  0.1358
  781SOL    HW1 3122   3.056   1.360   2.398  2.2160  0.6335  0.6375
  781SOL    HW2 3123   3.089   1.211   2.418  0.0516 -0.6953  0.5389
  781SOL     MW 3124   3.073   1.292   2.448 -0.0307  0.0970  0.2552
  782SOL     OW 3125   0.661   1.582   0.013  0.4256  0.0141  0.2575
  782SOL    HW1 3126   0.583   1.629  -0.017 -4.1735 -0.1436 -2.8727
  782SOL    HW2 3127   0.669   1.608   0.100 -0.6492 -0.7960 -1.7207
  782SOL     MW 3128   0.651   1.592   0.021 -0.3230 -0.1136 -0.4165
  783SOL     OW 3129   2.690   0.638   2.446  0.2264 -0.0349 -0.3900
  783SOL    HW1 3130   2.653   0.657   2.361 -3.0137  0.9282  0.1175
  783SOL    HW2 3131   2.648   0.558   2.487  0.6385 -0.7197  3.5043
  783SOL     MW 3132   2.679   0.630   2.440 -0.1467  0.0018  0.1908
  784SOL     OW 3133   0.140   0.817   2.859 -0.4499 -0.6773 -0.0252
  784SOL    HW1 3134   0.067   0.871   2.855 -0.5728  0.0879  1.3036
  784SOL    HW2 3135   0.198   0.849   2.784 -1.8783 -1.0255 -1.9006
  784SOL     MW 3136   0.138   0.828   2.848 -0.6546 -0.6223 -0.0973
  785SOL     OW 3137   0.417   0.474   2.173 -0.1241  0.3430 -0.1930
  785SOL    HW1 3138   0.436   0.468   2.081 -2.2006 -0.4917  2.6862
  785SOL    HW2 3139   0.343   0.418   2.190  3.2424  1.2442 -1.9186
  785SOL     MW 3140   0.409   0.466   2.163  0.0461  0.3518 -0.0408
  786SOL     OW 3141   1.920   0.384   2.961  0.3778 -0.4989  0.2422
  786SOL    HW1 3142   1.898   0.472   2.992  1.9105 -2.3285 -1.2920
  786SOL    HW2 3143   1.974   0.376   2.884 -1.3791 -2.1363 -1.5140
  786SOL     MW 3144   1.924   0.394   2.955  0.3482 -0.9563 -0.1919
  787SOL     OW 3145   2.467   0.094   2.974  0.1657  0.2548 -0.3318
  787SOL    HW1 3146   2.538   0.032   2.948 -0.9594  1.1210  0.1162
  787SOL    HW2 3147   2.521   0.161   3.018  1.0288 -0.9500  1.5069
  787SOL     MW 3148   2.484   0.095   2.976  0.1311  0.2101 -0.0301
  788SOL     OW 3149   2.863   3.031   2.426 -0.0780 -0.1241 -0.5864
  788SOL    HW1 3150   2.908   3.002   2.507 -2.9065 -2.3594 -1.5535
  788SOL    HW2 3151   2.861   2.963   2.362  0.5172  0.1708 -0.9978
  788SOL     MW 3152   2.869   3.018   2.428 -0.3726 -0.3801 -0.7682
  789SOL     OW 3153   0.073   0.198   3.035  0.2974  0.1277 -0.0921
  789SOL    HW1 3154   0.017   0.137   3.086  1.9691  0.4975  0.2435
  789SOL    HW2 3155   0.014   0.245   2.980  0.9651  0.8302  2.9602
  789SOL     MW 3156   0.058   0.196   3.035  0.6060  0.2692  0.3549
  790SOL     OW 3157   3.102   1.064   2.331  0.4935 -0.2564 -0.2712
  790SOL    HW1 3158   3.060   1.010   2.394 -1.5645  1.3688 -0.4342
  790SOL    HW2 3159   3.039   1.065   2.255 -0.1841  1.5605 -2.5323
  790SOL     MW 3160   3.088   1.057   2.329  0.1326  0.1978 -0.5911
  791SOL     OW 3161   2.578   0.419   2.576  0.7614 -0.4377 -0.0396
  791SOL    HW1 3162   2.500   0.456   2.628 -1.5253 -3.4437  1.1231
  791SOL    HW2 3163   2.658   0.439   2.630  2.5851  2.9584  0.2585
  791SOL     MW 3164   2.578   0.426   2.590  0.7003 -0.3862  0.1531
  792SOL     OW 3165   2.336   0.193   2.411  0.2036  0.0809 -0.0329
  792SOL    HW1 3166   2.311   0.281   2.428 -2.2974 -0.0260  0.4559
  792SOL    HW2 3167   2.363   0.173   2.499 -0.1647  2.2698 -0.9674
  792SOL     MW 3168   2.336   0.202   2.425 -0.1750  0.3556 -0.0917
  793SOL     OW 3169   1.965   1.212   1.975  0.1431  0.2433 -0.4038
  793SOL    HW1 3170   1.919   1.230   1.897 -0.9546  1.5349  2.5968
  793SOL    HW2 3171   2.033   1.144   1.958  0.9390 -1.4373  0.6866
  793SOL     MW 3172   1.968   1.205   1.963  0.1033  0.1919  0.1360
  794SOL     OW 3173   1.402   2.370   0.132 -0.5222  0.0310 -0.0063
  794SOL    HW1 3174   1.453   2.426   0.083  0.4265 -4.1318 -1.6195
  794SOL    HW2 3175   1.450   2.367   0.220  1.4706  1.3857 -0.1602
  794SOL     MW 3176   1.415   2.377   0.137 -0.1341 -0.3395 -0.2395
  795SOL     OW 3177   2.305   1.008   2.550 -0.2281  0.7002  0.2040
  795SOL    HW1 3178   2.263   1.087   2.588  2.3829  0.8754 -0.0759
  795SOL    HW2 3179   2.368   1.038   2.487  0.2294  2.5946  1.5752
  795SOL     MW 3180   2.308   1.023   2.547  0.1768  0.9733  0.3480
  796SOL     OW 3181   0.235   0.572   2.779 -0.4914 -0.7552 -0.0714
  796SOL    HW1 3182   0.202   0.644   2.841 -0.2881  0.0111  2.8390
  796SOL    HW2 3183   0.169   0.572   2.709 -0.8792 -1.0788 -1.3889
  796SOL     MW 3184   0.222   0.582   2.778 -0.5157 -0.6968  0.1387
  797SOL     OW 3185   2.612   0.149   2.584  0.3278 -0.5438 -0.0242
  797SOL    HW1 3186   2.564   0.234   2.598 -2.8259  1.9675  3.1691
  797SOL    HW2 3187   2.617   0.140   2.493 -0.6792  0.3014  0.1823
  797SOL     MW 3188   2.607   0.159   2.573 -0.2212 -0.1009  0.4244
  798SOL     OW 3189   2.305   0.103   2.167 -0.7229  0.2911  0.4806
  798SOL    HW1 3190   2.299   0.137   2.256  2.5919  4.5592 -2.4772
  798SOL    HW2 3191   2.401   0.095   2.150 -0.8315  1.7172  2.2490
  798SOL     MW 3192   2.317   0.106   2.176 -0.2998  1.0424  0.3236
  799SOL     OW 3193   2.561   2.930   0.114 -0.0007 -0.4739 -0.2019
  799SOL    HW1 3194   2.489   2.894   0.058 -0.0003  1.4815 -2.3380
  799SOL    HW2 3195   2.532   2.961   0.199 -1.7100 -0.4409  1.5117
  799SOL     MW 3196   2.548   2.929   0.118 -0.2262 -0.2115 -0.2577
  800SOL     OW 3197   1.925   0.027   1.698  0.4415 -0.4648 -0.1762
  800SOL    HW1 3198   1.866  -0.045   1.683  0.4881 -0.9337  1.2337
  800SOL    HW2 3199   1.981   0.001   1.773 -0.3440  1.4308 -1.5621
  800SOL     MW 3200   1.925   0.014   1.706  0.3440 -0.2766 -0.1730
  801SOL     OW 3201   2.815   1.258   2.613 -0.0380  0.0595 -0.3132
  801SOL    HW1 3202   2.803   1.164   2.610 -1.0697  1.1596 -1.3329
  801SOL    HW2 3203   2.892   1.275   2.563  1.7292  1.9967  0.8759
  801SOL     MW 3204   2.823   1.248   2.606  0.0590  0.4603 -0.2909
  802SOL     OW 3205   2.586   1.488   2.804  0.7242  0.6259 -0.7956
  802SOL    HW1 3206   2.564   1.416   2.739 -0.5814 -0.2094 -0.4965
  802SOL    HW2 3207   2.681   1.471   2.832 -1.1387  1.4625  2.1393
  802SOL     MW 3208   2.596   1.477   2.799  0.3061  0.6261 -0.3689
  803SOL     OW 3209   2.251   1.404   2.016  0.8042  0.2001 -0.1301
  803SOL    HW1 3210   2.214   1.355   2.091  0.2920 -1.7744 -2.8994
  803SOL    HW2 3211   2.266   1.326   1.963 -2.2839 -0.0615  1.0309
  803SOL     MW 3212   2.248   1.387   2.019  0.3291 -0.0950 -0.3423
  804SOL     OW 3213   2.260   0.105   0.039 -0.0046 -0.0093  0.5714
  804SOL    HW1 3214   2.225   0.190  -0.001  0.4864 -2.4578 -1.5264
  804SOL    HW2 3215   2.342   0.085  -0.011 -0.9186  2.4844  0.6738
  804SOL     MW 3216   2.266   0.114   0.027 -0.0604 -0.0034  0.3081
  805SOL     OW 3217   2.721   0.982   2.600  0.2549  0.6816 -0.7145
  805SOL    HW1 3218   2.666   0.903   2.591  0.5290  0.7833 -0.9925
  805SOL    HW2 3219   2.814   0.959   2.580 -0.5824  2.1607 -1.0327
  805SOL     MW 3220   2.726   0.968   2.596  0.1806  0.8902 -0.7932
  806SOL     OW 3221   2.556   0.628   2.217  0.0353 -0.0432 -0.1560
  806SOL    HW1 3222   2.532   0.552   2.172  3.9858 -0.6602 -0.2556
  806SOL    HW2 3223   2.541   0.695   2.150  1.0101  1.3192  0.8023
  806SOL     MW 3224   2.551   0.626   2.202  0.6851  0.0552 -0.0427
  807SOL     OW 3225   0.086   1.140   2.068 -0.4613  0.9326  0.0612
  807SOL    HW1 3226   0.112   1.053   2.090 -2.6983  0.0229  0.5222
  807SOL    HW2 3227  -0.005   1.143   2.067  2.3668  1.8298 -0.4720
  807SOL     MW 3228   0.078   1.129   2.071 -0.3833  0.9309  0.0517
  808SOL     OW 3229   2.665   3.037   2.804 -0.1319  0.0244  0.5181
  808SOL    HW1 3230   2.609   2.961   2.785  0.1192 -2.5600 -2.4267
  808SOL    HW2 3231   2.641   3.093   2.734  1.9368 -0.9944  1.1425
  808SOL     MW 3232   2.654   3.034   2.792  0.1742 -0.4510  0.2119
  809SOL     OW 3233   2.600   1.371   2.461  0.2528 -0.0104  0.2802
  809SOL    HW1 3234   2.634   1.298   2.513  1.9192 -1.8107  1.9981
  809SOL    HW2 3235   2.650   1.358   2.374 -0.6614 -0.1328  0.6083
  809SOL     MW 3236   2.611   1.360   2.456  0.3521 -0.2640  0.5501
  810SOL     OW 3237   2.220   1.326   2.291  0.1129  0.1805 -0.2080
  810SOL    HW1 3238   2.291   1.267   2.300 -0.9873 -0.1169 -0.1792
  810SOL    HW2 3239   2.170   1.317   2.368 -0.2756 -0.8373 -2.5178
  810SOL     MW 3240   2.223   1.317   2.302 -0.0835  0.0070 -0.5090
  811SOL     OW 3241   1.543   0.140   2.303  0.1822  0.0296 -0.3082
  811SOL    HW1 3242   1.624   0.088   2.313 -1.1521 -1.7408  1.2730
  811SOL    HW2 3243   1.526   0.140   2.207  0.8004 -2.0561 -0.3285
  811SOL     MW 3244   1.552   0.133   2.292  0.0877 -0.4792 -0.1023
  812SOL     OW 3245   1.451   2.789   2.004  0.0957 -0.2700 -0.1678
  812SOL    HW1 3246   1.541   2.800   1.967 -0.7061  0.7743  2.3085
  812SOL    HW2 3247   1.470   2.790   2.097 -0.4883  2.6954 -1.5723
  812SOL     MW 3248   1.465   2.790   2.012 -0.0872  0.2590 -0.0264
  813SOL     OW 3249   1.956   0.689   2.261 -0.6939  0.9019  0.1047
  813SOL    HW1 3250   1.889   0.620   2.230  0.2814 -1.0742 -1.5602
  813SOL    HW2 3251   1.914   0.747   2.321  1.3922 -0.9863  1.3340
  813SOL     MW 3252   1.942   0.687   2.265 -0.2900  0.3920  0.0472
  814SOL     OW 3253   2.696   1.281   1.644  0.2310 -0.3210  0.0292
  814SOL    HW1 3254   2.686   1.233   1.726 -1.4392  2.7862 -2.4266
  814SOL    HW2 3255   2.711   1.219   1.578 -1.9065  1.7265  2.1570
  814SOL     MW 3256   2.697   1.266   1.646 -0.2714  0.3591 -0.0141
  815SOL     OW 3257   2.568   1.726   2.418 -0.6426 -0.4746  0.5259
  815SOL    HW1 3258   2.502   1.673   2.383 -1.8126  2.0161 -0.3888
  815SOL    HW2 3259   2.649   1.673   2.423  3.7026  0.7176 -2.1046
  815SOL     MW 3260   2.570   1.712   2.414 -0.2236  0.0113  0.0581
  816SOL     OW 3261   0.726   0.717   2.732  0.9182  0.2399  0.3823
  816SOL    HW1 3262   0.718   0.647   2.798 -2.7088 -0.3643  2.3686
  816SOL    HW2 3263   0.647   0.726   2.682 -0.4765  1.3305  2.1943
  816SOL     MW 3264   0.715   0.709   2.734  0.2556  0.3041  0.8834
  817SOL     OW 3265   3.017   1.216   1.455  0.1659  0.2067 -0.1615
  817SOL    HW1 3266   3.112   1.204   1.473 -2.6303 -4.0461  0.7157
  817SOL    HW2 3267   3.014   1.298   1.399 -0.6549  2.5889  0.6192
  817SOL     MW 3268   3.029   1.225   1.450 -0.3113 -0.0401  0.0572
  818SOL     OW 3269   1.890   1.048   2.715 -0.3025  0.8078 -0.2674
  818SOL    HW1 3270   1.871   0.996   2.630 -0.9470 -0.0441 -0.2114
  818SOL    HW2 3271   1.973   1.009   2.746 -0.6266  0.7197 -0.7169
  818SOL     MW 3272   1.898   1.036   2.708 -0.4303  0.6838 -0.3193
  819SOL     OW 3273   1.971   0.236   2.502 -0.4041 -0.4512 -0.6338
  819SOL    HW1 3274   1.891   0.294   2.490  0.2529 -1.8462 -2.0045
  819SOL    HW2 3275   1.992   0.252   2.595 -2.7891  0.0376  0.2596
  819SOL     MW 3276   1.963   0.246   2.513 -0.6321 -0.5708 -0.6968
  820SOL     OW 3277   2.534   1.741   2.706  0.4184 -0.5969  0.3355
  820SOL    HW1 3278   2.569   1.658   2.743  0.0319 -2.9951  0.9097
  820SOL    HW2 3279   2.551   1.721   2.611 -1.8817  1.4923 -1.8658
  820SOL     MW 3280   2.541   1.728   2.698  0.0639 -0.6377  0.1208
  821SOL     OW 3281   2.590   1.401   2.034  0.3682  1.0103 -0.0048
  821SOL    HW1 3282   2.619   1.450   1.954  1.3665 -2.5273  0.8696
  821SOL    HW2 3283   2.509   1.451   2.046 -3.8798 -1.7838  1.2136
  821SOL     MW 3284   2.583   1.414   2.025 -0.0606  0.1749  0.2713
  822SOL     OW 3285   2.753   2.655   1.387 -0.4137  0.2442  0.2700
  822SOL    HW1 3286   2.787   2.664   1.475 -1.1246  1.5128 -2.1308
  822SOL    HW2 3287   2.670   2.692   1.388  0.5747  0.0834  0.5775
  822SOL     MW 3288   2.747   2.661   1.399 -0.3771  0.3904 -0.0062
  823SOL     OW 3289   2.364   0.478   1.761 -0.0506 -0.1401  0.0627
  823SOL    HW1 3290   2.421   0.461   1.690 -1.6660  1.0377  4.4796
  823SOL    HW2 3291   2.293   0.414   1.747 -1.9908 -1.0237  2.2168
  823SOL     MW 3292   2.362   0.468   1.750 -0.5197 -0.1013  0.9297
  824SOL     OW 3293   2.143   1.464   2.550  0.0509  0.2264  0.2707
  824SOL    HW1 3294   2.221   1.508   2.517 -1.4673  1.6124  0.4878
  824SOL    HW2 3295   2.111   1.522   2.618  0.9109 -3.5800  0.7578
  824SOL     MW 3296   2.149   1.478   2.554 -0.0359 -0.0930  0.3636
  825SOL     OW 3297   1.858   2.537   0.273  0.1638 -0.2975  0.5414
  825SOL    HW1 3298   1.835   2.487   0.354  1.1992 -1.4105  2.5765
  825SOL    HW2 3299   1.937   2.495   0.231  2.0071  2.2606  1.8598
  825SOL     MW 3300   1.865   2.525   0.278  0.5437 -0.1069  0.9839
  826SOL     OW 3301   1.858   2.388   0.545 -0.1028  0.4270 -0.0747
  826SOL    HW1 3302   1.829   2.305   0.588 -2.7592  0.3700 -0.0123
  826SOL    HW2 3303   1.815   2.459   0.594  1.2200 -2.1211  0.7985
  826SOL     MW 3304   1.849   2.387   0.557 -0.2787  0.0833  0.0488
  827SOL     OW 3305   1.942   2.178   0.903  0.1569  0.4909  0.6361
  827SOL    HW1 3306   1.864   2.206   0.849 -0.0302 -0.7744 -0.7866
  827SOL    HW2 3307   1.908   2.107   0.963  1.5434  1.4898  0.2122
  827SOL     MW 3308   1.927   2.173   0.904  0.3152  0.4558  0.3924
  828SOL     OW 3309   0.059   2.569   0.608  0.2506  0.1536  0.2586
  828SOL    HW1 3310   0.153   2.566   0.611 -0.8630 -1.8843 -0.2907
  828SOL    HW2 3311   0.023   2.600   0.527 -3.7137 -2.7214  1.1715
  828SOL     MW 3312   0.066   2.573   0.598 -0.4194 -0.4946  0.3065
  829SOL     OW 3313   2.975   2.973   1.149 -0.3204  0.1415  0.0864
  829SOL    HW1 3314   2.888   2.955   1.119 -1.5582 -2.2595 -0.3142
  829SOL    HW2 3315   3.031   2.900   1.122  1.5987  1.7053 -2.1275
  829SOL     MW 3316   2.971   2.961   1.142 -0.2305  0.0310 -0.2586
  830SOL     OW 3317   2.539   2.856   2.028 -0.4756  0.6570 -0.1127
  830SOL    HW1 3318   2.444   2.857   2.000 -2.5432  2.7273 -0.8224
  830SOL    HW2 3319   2.582   2.828   1.945 -0.6275 -2.5364  1.5988
  830SOL     MW 3320   2.532   2.853   2.013 -0.7684  0.5088  0.0195
  831SOL     OW 3321   2.395   2.500   1.232  0.4970 -0.0546  0.3081
  831SOL    HW1 3322   2.356   2.443   1.304 -1.7818 -1.8038  0.1015
  831SOL    HW2 3323   2.473   2.450   1.212 -2.4065  2.0077  1.0789
  831SOL     MW 3324   2.400   2.486   1.239 -0.1868 -0.0133  0.3825
  832SOL     OW 3325   2.372   2.202   1.923 -0.2960 -0.1515  0.0555
  832SOL    HW1 3326   2.407   2.294   1.939  1.5081  1.1561  1.1895
  832SOL    HW2 3327   2.449   2.139   1.903 -0.2705 -0.0716  1.1242
  832SOL     MW 3328   2.387   2.206   1.923 -0.0546  0.0315  0.3462
  833SOL     OW 3329   1.751   2.440   0.902  0.4941 -0.6070  0.0297
  833SOL    HW1 3330   1.672   2.385   0.922 -0.9903 -0.5484 -1.7092
  833SOL    HW2 3331   1.762   2.503   0.967 -3.1291 -0.1347 -5.7198
  833SOL     MW 3332   1.742   2.441   0.913 -0.1798 -0.5370 -0.9583
  834SOL     OW 3333   2.109   2.467   0.593  0.6887  0.5611  0.1678
  834SOL    HW1 3334   2.013   2.448   0.572  0.0405 -0.6922 -2.8672
  834SOL    HW2 3335   2.170   2.442   0.522 -2.3569 -1.0532 -1.2245
  834SOL     MW 3336   2.105   2.461   0.581  0.2013  0.1827 -0.4163
  835SOL     OW 3337   1.763   2.602   0.681  0.1522 -0.2058 -0.8898
  835SOL    HW1 3338   1.737   2.555   0.765 -0.1349  0.5675  0.9044
  835SOL    HW2 3339   1.836   2.653   0.703 -3.3737 -2.0277  0.4571
  835SOL     MW 3340   1.769   2.602   0.695 -0.3509 -0.3442 -0.4753
  836SOL     OW 3341   1.904   2.209   1.630 -0.1343 -0.0797 -0.3721
  836SOL    HW1 3342   1.992   2.225   1.665  0.0380 -0.4447 -1.0266
  836SOL    HW2 3343   1.839   2.276   1.656 -2.1744 -3.3204  0.2215
  836SOL     MW 3344   1.907   2.220   1.638 -0.3807 -0.5554 -0.3802
  837SOL     OW 3345   2.081   0.144   0.696  0.2337 -0.1003  0.2644
  837SOL    HW1 3346   2.016   0.199   0.643 -2.2882  0.0403  1.3247
  837SOL    HW2 3347   2.110   0.082   0.627 -0.0339 -5.0934  1.8035
  837SOL     MW 3348   2.076   0.143   0.680 -0.1343 -0.7406  0.6074
  838SOL     OW 3349   2.926   2.081   0.931  0.2631  0.1880  0.1683
  838SOL    HW1 3350   2.856   2.051   0.989  0.0898  2.6554  1.0979
  838SOL    HW2 3351   2.993   2.012   0.927 -0.8933 -0.3122  0.1683
  838SOL     MW 3352   2.925   2.068   0.938  0.0876  0.4475  0.2910
  839SOL     OW 3353   1.507   2.325   0.972 -0.0102  0.0279 -0.3719
  839SOL    HW1 3354   1.510   2.403   1.032 -0.2152 -0.9108  1.7625
  839SOL    HW2 3355   1.545   2.248   1.019 -0.1271  1.9262  1.0655
  839SOL     MW 3356   1.513   2.325   0.986 -0.0526  0.1545  0.0994
  840SOL     OW 3357   2.375   2.121   2.432  0.0492 -0.1573 -0.1563
  840SOL    HW1 3358   2.316   2.177   2.394 -1.9533 -1.8477  4.9364
  840SOL    HW2 3359   2.413   2.176   2.503 -1.4289  1.1024  0.2174
  840SOL     MW 3360   2.372   2.135   2.437 -0.4100 -0.2141  0.5649
  841SOL     OW 3361   2.074   2.462   0.139 -0.5492  0.9360 -0.1043
  841SOL    HW1 3362   2.129   2.498   0.066  0.7868 -0.3528  1.4799
  841SOL    HW2 3363   2.057   2.367   0.120  1.4719  0.1396  0.8925
  841SOL     MW 3364   2.079   2.454   0.127 -0.1063  0.6609  0.2362
  842SOL     OW 3365   2.565   2.069   1.526  0.1233 -0.5938  0.4453
  842SOL    HW1 3366   2.508   1.999   1.564 -0.8418 -2.3581 -2.3122
  842SOL    HW2 3367   2.515   2.099   1.456  1.0508  2.7606  0.7076
  842SOL     MW 3368   2.551   2.064   1.522  0.1183 -0.3840  0.1161
  843SOL     OW 3369   2.647   2.783   1.767 -0.2186  0.2385  0.6639
  843SOL    HW1 3370   2.724   2.735   1.725  3.7571 -1.0124 -1.7108
  843SOL    HW2 3371   2.566   2.734   1.732 -1.8778 -1.7122 -1.5284
  843SOL     MW 3372   2.647   2.770   1.757  0.0871 -0.1839  0.0613
  844SOL     OW 3373   2.596   2.332   1.173  0.1574  0.0445  0.4889
  844SOL    HW1 3374   2.632   2.356   1.085 -0.7867 -2.0714  2.1229
  844SOL    HW2 3375   2.656   2.350   1.249 -0.7261  1.4526 -0.3784
  844SOL     MW 3376   2.608   2.337   1.171 -0.0838 -0.0489  0.5901
  845SOL     OW 3377   2.830   2.477   0.296  0.3203  0.4823 -0.5147
  845SOL    HW1 3378   2.790   2.390   0.315  1.6548  0.5128 -1.5505
  845SOL    HW2 3379   2.844   2.509   0.387 -1.7068 -0.1358  0.6240
  845SOL     MW 3380   2.827   2.470   0.310  0.2289  0.4047 -0.5011
  846SOL     OW 3381   1.518   2.899   0.742 -0.2141 -0.0026  0.5372
  846SOL    HW1 3382   1.575   2.961   0.783 -2.5115 -0.6901  0.6976
  846SOL    HW2 3383   1.431   2.926   0.755  1.6221  0.4992 -2.4856
  846SOL     MW 3384   1.514   2.911   0.749 -0.2749 -0.0271  0.1595
  847SOL     OW 3385   2.625   1.926   0.180 -0.2893  0.1075 -0.2394
  847SOL    HW1 3386   2.705   1.870   0.186  2.1296 -0.4188  1.2944
  847SOL    HW2 3387   2.552   1.874   0.135 -0.8216  3.7942  1.4938
  847SOL     MW 3388   2.626   1.912   0.175 -0.0404  0.5245  0.1917
  848SOL     OW 3389   2.422   2.110   1.289  0.2511  0.0818  0.3000
  848SOL    HW1 3390   2.491   2.139   1.227  1.7864 -0.5884 -1.6969
  848SOL    HW2 3391   2.396   2.025   1.256  1.8117 -1.0583  0.4866
  848SOL     MW 3392   2.427   2.103   1.277  0.6596 -0.1571  0.0612
  849SOL     OW 3393   1.989   2.767   0.742  0.7462 -0.5318  0.2133
  849SOL    HW1 3394   2.011   2.751   0.835 -1.5137 -0.2657 -0.5226
  849SOL    HW2 3395   2.063   2.749   0.693 -1.7857  5.2522  0.8555
  849SOL     MW 3396   2.001   2.763   0.748  0.1140  0.2665  0.2010
  850SOL     OW 3397   2.201   1.988   1.706  0.3716 -0.2587  0.4074
  850SOL    HW1 3398   2.121   1.957   1.658 -1.5252  1.4993  1.8898
  850SOL    HW2 3399   2.207   2.081   1.711  1.1278 -0.8815  1.2496
  850SOL     MW 3400   2.191   1.996   1.701  0.2211 -0.1089  0.7141
  851SOL     OW 3401   2.252   2.421   0.357 -0.1326  0.0197 -0.1886
  851SOL    HW1 3402   2.197   2.458   0.278  0.6385  2.4123 -1.4081
  851SOL    HW2 3403   2.331   2.480   0.352  2.5989  0.7012  1.4986
  851SOL     MW 3404   2.255   2.434   0.346  0.3295  0.4253 -0.1269
  852SOL     OW 3405   2.323   2.158   0.206  0.6123  0.1982  0.3989
  852SOL    HW1 3406   2.298   2.239   0.245 -0.5543  0.5810  1.9839
  852SOL    HW2 3407   2.414   2.169   0.180 -3.5188  0.8103  1.2824
  852SOL     MW 3408   2.331   2.170   0.208 -0.0867  0.3295  0.7246
  853SOL     OW 3409   2.445   2.454   1.969  0.1140 -0.0124  0.3313
  853SOL    HW1 3410   2.443   2.494   1.883  1.5323  0.1915  0.4581
  853SOL    HW2 3411   2.536   2.444   1.992  1.0420 -0.6789 -2.4923
  853SOL     MW 3412   2.457   2.458   1.961  0.4236 -0.0734 -0.0245
  854SOL     OW 3413   2.817   2.270   0.768  0.2958  0.1986 -0.1534
  854SOL    HW1 3414   2.734   2.230   0.745  0.2905  0.3867 -0.9861
  854SOL    HW2 3415   2.865   2.209   0.828 -0.0097  1.3730 -0.0078
  854SOL     MW 3416   2.812   2.257   0.773  0.2548  0.3784 -0.2441
  855SOL     OW 3417   2.679   2.263   0.359  0.2632  0.3154  0.6226
  855SOL    HW1 3418   2.660   2.312   0.446 -0.7251  2.7611  0.1412
  855SOL    HW2 3419   2.758   2.211   0.377 -0.1812  0.2071 -1.1647
  855SOL     MW 3420   2.687   2.263   0.373  0.0742  0.6238  0.3233
  856SOL     OW 3421   2.195   1.913   0.214  0.3403 -0.2739 -0.4320
  856SOL    HW1 3422   2.100   1.933   0.204 -0.8505  1.7397  0.5667
  856SOL    HW2 3423   2.231   2.005   0.230  0.4814  1.5898 -3.1109
  856SOL     MW 3424   2.187   1.928   0.215  0.2018  0.2376 -0.6537
  857SOL     OW 3425   2.588   2.001   0.475 -0.0296 -0.6250 -0.2863
  857SOL    HW1 3426   2.603   2.085   0.427 -0.0601  1.7300 -2.0919
  857SOL    HW2 3427   2.544   1.950   0.401 -1.3978  1.5253  0.3230
  857SOL     MW 3428   2.584   2.006   0.459 -0.2142 -0.0306 -0.4441
  858SOL     OW 3429   2.882   2.648   1.664 -0.6446  0.5992 -0.6586
  858SOL    HW1 3430   2.962   2.677   1.705  0.4475 -3.4435  0.8772
  858SOL    HW2 3431   2.868   2.567   1.714  0.2313  0.3570 -0.5424
  858SOL     MW 3432   2.891   2.641   1.676 -0.3850  0.0338 -0.4406
  859SOL     OW 3433   2.105   2.527   0.876 -0.2171  0.2304  0.1260
  859SOL    HW1 3434   2.087   2.491   0.789  0.8723  1.7675  0.5650
  859SOL    HW2 3435   2.197   2.524   0.878 -2.3118  3.0955 -0.5921
  859SOL     MW 3436   2.115   2.522   0.865 -0.3498  0.8112  0.0891
  860SOL     OW 3437   2.651   2.579   0.138 -0.0996 -0.2171  0.0613
  860SOL    HW1 3438   2.720   2.556   0.202  0.2555  0.6655 -1.1278
  860SOL    HW2 3439   2.683   2.650   0.082 -1.5502 -0.0815  0.7782
  860SOL     MW 3440   2.665   2.586   0.139 -0.2441 -0.0827 -0.0010
  861SOL     OW 3441   1.536   2.148   1.163 -0.3221 -0.5461 -0.5448
  861SOL    HW1 3442   1.541   2.246   1.196 -1.1923  2.6012  1.3350
  861SOL    HW2 3443   1.483   2.105   1.225 -1.0735 -1.4560  1.5677
  861SOL     MW 3444   1.530   2.155   1.175 -0.5361 -0.2509 -0.0181
  862SOL     OW 3445   2.436   1.794   1.564  0.0316 -0.4609  0.1206
  862SOL    HW1 3446   2.346   1.797   1.585  1.4728 -1.5929  0.8697
  862SOL    HW2 3447   2.435   1.784   1.470 -3.1202 -0.7681  2.6891
  862SOL     MW 3448   2.424   1.793   1.554 -0.1941 -0.6508  0.5583
  863SOL     OW 3449   0.052   1.874   1.150  0.6450  1.0086 -0.2345
  863SOL    HW1 3450   0.145   1.874   1.142 -0.1090 -0.2417  2.2651
  863SOL    HW2 3451   0.025   1.934   1.216  2.0697  3.3791  0.7104
  863SOL     MW 3452   0.061   1.882   1.158  0.7335  1.1564  0.2200
  864SOL     OW 3453   0.028   1.869   0.853 -0.1035  0.5873  0.1973
  864SOL    HW1 3454   0.024   1.803   0.921  1.5686  1.7227 -0.4781
  864SOL    HW2 3455  -0.033   1.836   0.781  2.6991 -1.9853  2.3450
  864SOL     MW 3456   0.019   1.856   0.853  0.4869  0.3977  0.3916
  865SOL     OW 3457   2.586   2.159   0.032  0.4829 -0.3577 -0.2618
  865SOL    HW1 3458   2.616   2.083   0.083  1.0294  1.2344 -0.0782
  865SOL    HW2 3459   2.534   2.120  -0.038  2.3256  0.6428 -0.5396
  865SOL     MW 3460   2.583   2.144   0.029  0.7981 -0.0156 -0.2742
  866SOL     OW 3461   2.646   2.320   1.624  0.5458 -0.6779 -0.0869
  866SOL    HW1 3462   2.608   2.230   1.623  0.0656  0.9594 -2.4927
  866SOL    HW2 3463   2.703   2.315   1.545 -1.3525  1.1503 -3.0960
  866SOL     MW 3464   2.648   2.307   1.613  0.2320 -0.2207 -0.8014
  867SOL     OW 3465   0.029   2.660   1.809 -0.2816 -0.3071 -0.4874
  867SOL    HW1 3466   0.027   2.688   1.904  1.0875 -0.1880  1.8863
  867SOL    HW2 3467   0.034   2.738   1.756 -1.3321 -2.5251 -0.5277
  867SOL     MW 3468   0.029   2.674   1.815 -0.2395 -0.5841 -0.1795
  868SOL     OW 3469   2.807   2.589   0.544  0.3446 -0.0732  0.1623
  868SOL    HW1 3470   2.729   2.531   0.542 -0.2034  0.2928  3.1508
  868SOL    HW2 3471   2.790   2.662   0.486  3.6723  1.4451  2.7261
  868SOL     MW 3472   2.795   2.591   0.536  0.7113  0.1754  0.8949
  869SOL     OW 3473   1.983   2.395   1.090  0.3308  0.1741  0.5757
  869SOL    HW1 3474   2.013   2.459   1.023 -0.8299  1.2660 -1.3029
  869SOL    HW2 3475   1.938   2.320   1.040 -0.7357 -3.0033 -0.9754
  869SOL     MW 3476   1.981   2.394   1.075  0.0369 -0.1011  0.1232
  870SOL     OW 3477   2.176   0.021   0.459 -0.1779  0.2688 -0.1318
  870SOL    HW1 3478   2.231   0.093   0.414 -2.1546  0.0809  0.1389
  870SOL    HW2 3479   2.219  -0.064   0.435 -1.6450  1.5698 -1.2141
  870SOL     MW 3480   2.189   0.019   0.450 -0.6323  0.4157 -0.2388
  871SOL     OW 3481   2.509   2.104   0.961 -0.4688  1.0002  0.4133
  871SOL    HW1 3482   2.443   2.057   0.909 -1.6350  2.9034  0.9182
  871SOL    HW2 3483   2.452   2.168   1.004 -1.8042  1.3447  0.6346
  871SOL     MW 3484   2.493   2.106   0.960 -0.7989  1.2968  0.5091
  872SOL     OW 3485   2.056   2.558   1.433 -0.0533  0.5286  0.1398
  872SOL    HW1 3486   2.024   2.587   1.523  0.1902  0.0054  0.5414
  872SOL    HW2 3487   1.987   2.498   1.406 -1.8229 -0.4230  0.8933
  872SOL     MW 3488   2.042   2.554   1.442 -0.2547  0.3340  0.2922
  873SOL     OW 3489   2.907   2.083   1.935  0.6672 -0.0560 -0.3355
  873SOL    HW1 3490   2.949   2.145   1.996 -0.9285  1.5621  1.2504
  873SOL    HW2 3491   2.974   2.076   1.860  0.2638 -2.7140 -1.0197
  873SOL     MW 3492   2.921   2.091   1.933  0.4034 -0.1932 -0.2165
  874SOL     OW 3493   2.381   1.542   2.400  0.0224 -0.3201 -0.8038
  874SOL    HW1 3494   2.314   1.488   2.351  0.3613 -1.9486 -0.2138
  874SOL    HW2 3495   2.455   1.487   2.423  3.3346 -1.6730 -1.7946
  874SOL     MW 3496   2.382   1.527   2.397  0.5041 -0.7135 -0.8567
  875SOL     OW 3497   2.287   2.279   1.053  0.3382 -0.3402  0.2468
  875SOL    HW1 3498   2.207   2.316   1.016 -0.5712  0.5766  0.6137
  875SOL    HW2 3499   2.328   2.368   1.066 -1.4941  1.0259  0.5528
  875SOL     MW 3500   2.282   2.296   1.050 -0.0235 -0.0390  0.3356
  876SOL     OW 3501   3.033   2.331   1.235 -0.1645 -0.4353 -0.1611
  876SOL    HW1 3502   3.085   2.361   1.152  0.1242  2.8190 -1.5133
  876SOL    HW2 3503   3.080   2.360   1.311  1.6511 -3.4846  0.6144
  876SOL     MW 3504   3.046   2.339   1.234  0.1132 -0.4083 -0.2372
  877SOL     OW 3505   3.074   2.768   0.396  0.3188 -0.2130 -0.1643
  877SOL    HW1 3506   3.158   2.805   0.419  0.5660 -0.8066  2.9385
  877SOL    HW2 3507   3.094   2.722   0.316 -0.2224  1.6879 -0.8521
  877SOL     MW 3508   3.088   2.766   0.388  0.2800 -0.0405  0.1543
  878SOL     OW 3509   2.397   1.825   1.244  0.3335 -0.1996 -0.0369
  878SOL    HW1 3510   2.333   1.752   1.244  2.8636 -2.4155  2.2384
  878SOL    HW2 3511   2.481   1.785   1.226  0.3161 -2.9827  0.4407
  878SOL     MW 3512   2.400   1.810   1.241  0.6650 -0.8592  0.3263
  879SOL     OW 3513   2.671   2.457   0.930  0.0923  0.1121  0.3246
  879SOL    HW1 3514   2.750   2.503   0.955  1.2489 -1.4574  0.9562
  879SOL    HW2 3515   2.716   2.403   0.861  0.2563 -2.9675  0.4031
  879SOL     MW 3516   2.687   2.456   0.925  0.2665 -0.5013  0.4183
  880SOL     OW 3517   2.560   2.191   0.675 -1.0037 -0.6537 -0.0526
  880SOL    HW1 3518   2.521   2.176   0.759  0.3330 -1.0890 -3.8134
  880SOL    HW2 3519   2.535   2.117   0.622  0.0202 -3.7574  0.6838
  880SOL     MW 3520   2.552   2.180   0.679 -0.6923 -1.1207 -0.4517
  881SOL     OW 3521   2.950   2.671   0.747 -0.1262 -0.4975  0.0270
  881SOL    HW1 3522   2.876   2.646   0.687 -3.1795 -1.8949  1.0941
  881SOL    HW2 3523   3.031   2.640   0.703  0.0656 -1.6998 -1.5889
  881SOL     MW 3524   2.951   2.664   0.733 -0.5037 -0.8405 -0.0454
  882SOL     OW 3525   2.265   2.843   1.977 -0.6603  0.3126 -0.1916
  882SOL    HW1 3526   2.245   2.856   1.882 -0.1485  4.3028  1.0713
  882SOL    HW2 3527   2.215   2.770   2.021 -1.5478  1.7875  1.8987
  882SOL     MW 3528   2.256   2.835   1.970 -0.7099  1.0336  0.2508
  883SOL     OW 3529   2.307   2.315   1.435  0.4872  0.2020  0.0995
  883SOL    HW1 3530   2.370   2.256   1.392  2.0950  0.4159 -0.4069
  883SOL    HW2 3531   2.218   2.292   1.397 -0.1377  1.0017  1.2226
  883SOL     MW 3532   2.304   2.304   1.424  0.6169  0.3357  0.1808
  884SOL     OW 3533   1.969   1.858   1.124  0.9394 -0.4641 -0.0083
  884SOL    HW1 3534   1.904   1.932   1.105 -0.9973 -0.1937 -0.5231
  884SOL    HW2 3535   2.053   1.885   1.087  0.3172 -1.6811  0.7748
  884SOL     MW 3536   1.971   1.872   1.117  0.6018 -0.5890  0.0271
  885SOL     OW 3537   2.840   2.426   1.814 -0.1951  0.2932  0.7836
  885SOL    HW1 3538   2.927   2.374   1.808 -0.7493  0.5399  0.2287
  885SOL    HW2 3539   2.773   2.382   1.751 -1.0084  0.0702 -0.3412
  885SOL     MW 3540   2.842   2.413   1.805 -0.3755  0.2963  0.5620
  886SOL     OW 3541   2.795   2.371   1.349  0.5625 -0.4324 -0.8559
  886SOL    HW1 3542   2.877   2.355   1.305 -0.5758 -2.2470  0.2710
  886SOL    HW2 3543   2.788   2.465   1.367 -0.0915 -0.8568  2.1146
  886SOL     MW 3544   2.805   2.381   1.346  0.3260 -0.7278 -0.3153
  887SOL     OW 3545   2.319   2.618   1.531 -0.5905 -0.2366  0.6590
  887SOL    HW1 3546   2.335   2.694   1.463  1.8871 -0.5702  2.0682
  887SOL    HW2 3547   2.264   2.554   1.487 -0.3600  0.4368  0.8792
  887SOL     MW 3548   2.314   2.620   1.516 -0.2332 -0.1918  0.8740
  888SOL     OW 3549   1.876   2.064   1.386 -0.3457  0.3064 -0.4347
  888SOL    HW1 3550   1.965   2.092   1.361 -1.2782  1.3539  1.5850
  888SOL    HW2 3551   1.876   2.101   1.475 -1.8781 -0.3770  2.1650
  888SOL     MW 3552   1.888   2.073   1.394 -0.6709  0.3544  0.1748
  889SOL     OW 3553   2.308   1.987   2.118 -0.0533 -0.0353 -0.1127
  889SOL    HW1 3554   2.390   1.987   2.166  0.3633 -0.6752  1.0499
  889SOL    HW2 3555   2.318   2.066   2.067 -0.3069  0.3279  0.3831
  889SOL     MW 3556   2.320   1.997   2.117 -0.0318 -0.0718  0.1061
  890SOL     OW 3557   0.088   2.361   0.209 -0.1298  0.6120  0.2781
  890SOL    HW1 3558   0.031   2.437   0.202 -3.0600  1.9773 -1.6344
  890SOL    HW2 3559   0.059   2.303   0.282  1.7728 -1.4284 -0.7792
  890SOL     MW 3560   0.077   2.364   0.218 -0.2653  0.5230 -0.1137
  891SOL     OW 3561   2.981   2.041   1.296  0.0040  0.4311  0.0585
  891SOL    HW1 3562   3.057   2.052   1.360 -0.9593 -0.8947 -0.2324
  891SOL    HW2 3563   2.969   2.128   1.251  1.8605  0.3493 -0.4888
  891SOL     MW 3564   2.990   2.054   1.299  0.1218  0.2453 -0.0521
  892SOL     OW 3565   2.418   2.366   2.872  0.3858  0.0756 -0.5747
  892SOL    HW1 3566   2.440   2.273   2.893  0.1155  1.0641 -0.8999
  892SOL    HW2 3567   2.503   2.404   2.883  0.4637 -1.2239 -1.0601
  892SOL     MW 3568   2.432   2.358   2.876  0.3604  0.0345 -0.6817
  893SOL     OW 3569   1.588   2.406   1.255  0.1234 -0.4542  0.3447
  893SOL    HW1 3570   1.534   2.450   1.328  0.4888 -1.2596  1.0049
  893SOL    HW2 3571   1.675   2.381   1.287 -1.0422  1.5404 -1.6019
  893SOL     MW 3572   1.593   2.408   1.269  0.0178 -0.2973  0.1750
  894SOL     OW 3573   2.819   1.832   0.434  0.3600 -0.2545 -0.2804
  894SOL    HW1 3574   2.727   1.860   0.464 -5.8205 -1.6218  2.6956
  894SOL    HW2 3575   2.813   1.814   0.342 -0.9669  0.2389  1.4864
  894SOL     MW 3576   2.806   1.834   0.426 -0.6306 -0.3698  0.3453
  895SOL     OW 3577   2.081   2.226   1.295 -0.5827  0.1694  0.4551
  895SOL    HW1 3578   2.057   2.288   1.229 -0.9201 -1.1824  3.0625
  895SOL    HW2 3579   2.139   2.156   1.253 -0.7785  0.7905 -0.1287
  895SOL     MW 3580   2.085   2.225   1.281 -0.6531  0.0730  0.7221
  896SOL     OW 3581   2.160   2.825   1.092 -0.7167 -0.0321 -0.1233
  896SOL    HW1 3582   2.212   2.828   1.169 -1.5991 -1.0044 -2.6217
  896SOL    HW2 3583   2.090   2.762   1.118 -0.3384  1.4068  1.2822
  896SOL     MW 3584   2.158   2.817   1.106 -0.7832  0.0295 -0.2675
  897SOL     OW 3585   2.986   2.904   0.098 -0.0432  0.1570 -0.2798
  897SOL    HW1 3586   3.052   2.837   0.094  3.9632  2.2063 -0.0618
  897SOL    HW2 3587   2.907   2.854   0.095  2.9587  2.0195 -2.3027
  897SOL     MW 3588   2.985   2.889   0.097  0.8815  0.6731 -0.5179
  898SOL     OW 3589   2.093   0.211   1.431  0.1306  1.0682 -0.1862
  898SOL    HW1 3590   2.034   0.140   1.415 -0.5158  0.3341 -0.8278
  898SOL    HW2 3591   2.109   0.248   1.342 -0.6020 -0.4229 -1.0119
  898SOL     MW 3592   2.088   0.206   1.417 -0.0513  0.7746 -0.3798
  899SOL     OW 3593   2.907   2.925   0.663  0.4453 -0.3025 -0.0158
  899SOL    HW1 3594   2.922   2.836   0.700  0.0463 -0.8971 -1.8757
  899SOL    HW2 3595   2.810   2.941   0.672 -0.1605 -2.0714 -0.0408
  899SOL     MW 3596   2.896   2.915   0.669  0.3127 -0.6143 -0.2645
  900SOL     OW 3597   0.114   2.389   1.032 -0.5061 -0.1558  0.1559
  900SOL    HW1 3598   0.101   2.474   0.995  0.8122 -1.1936  0.3561
  900SOL    HW2 3599   0.124   2.328   0.956 -0.8346 -1.0181  0.5650
  900SOL     MW 3600   0.114   2.393   1.017 -0.3755 -0.4065  0.2363
  901SOL     OW 3601   1.801   2.865   1.665  0.1124 -0.6238  0.1714
  901SOL    HW1 3602   1.858   2.789   1.652 -1.9194 -0.1980 -0.6016
  901SOL    HW2 3603   1.719   2.850   1.610 -1.1349 -1.9602 -0.9834
  901SOL     MW 3604   1.798   2.853   1.656 -0.3202 -0.7439 -0.0830
  902SOL     OW 3605   2.614   2.079   1.861  0.7842  0.2459 -0.1701
  902SOL    HW1 3606   2.608   1.985   1.848  2.6670  1.3850 -1.4283
  902SOL    HW2 3607   2.704   2.100   1.894  1.1439  2.2481  1.1456
  902SOL     MW 3608   2.625   2.069   1.864  1.0801  0.6604 -0.1625
  903SOL     OW 3609   1.604   2.772   0.520  0.5780  0.1845  0.4224
  903SOL    HW1 3610   1.664   2.708   0.569 -0.6777 -1.4239 -0.4949
  903SOL    HW2 3611   1.562   2.822   0.588 -2.0218  0.0488 -1.6277
  903SOL     MW 3612   1.606   2.771   0.535  0.0693 -0.0456  0.0309
  904SOL     OW 3613   2.495   2.540   1.719 -0.1259 -0.3361  0.0390
  904SOL    HW1 3614   2.422   2.552   1.659  0.7555 -1.1007  1.4488
  904SOL    HW2 3615   2.543   2.467   1.682 -2.2564  2.5788 -0.5277
  904SOL     MW 3616   2.492   2.532   1.706 -0.2907 -0.0524  0.1503
  905SOL     OW 3617   2.320   2.505   2.209 -0.0238  0.3429  0.0608
  905SOL    HW1 3618   2.359   2.463   2.131 -1.6528  0.6762 -1.8225
  905SOL    HW2 3619   2.279   2.428   2.260  0.1244  3.4188 -0.7525
  905SOL     MW 3620   2.320   2.489   2.206 -0.2191  0.7927 -0.2950
  906SOL     OW 3621   2.403   2.499   0.870 -0.0014  0.0961  0.5383
  906SOL    HW1 3622   2.495   2.476   0.863  0.7837  2.3404 -1.1912
  906SOL    HW2 3623   2.408   2.593   0.882  1.5477  0.9507  0.5266
  906SOL     MW 3624   2.416   2.508   0.871  0.3066  0.5050  0.3086
  907SOL     OW 3625   2.568   2.926   1.280 -0.1703  0.2604  0.1506
  907SOL    HW1 3626   2.648   2.950   1.331 -0.7493 -1.7596  1.4539
  907SOL    HW2 3627   2.593   2.882   1.198 -1.0271 -0.8733  4.1808
  907SOL     MW 3628   2.582   2.923   1.276 -0.3597 -0.1557  0.8543
  908SOL     OW 3629   2.763   2.389   3.078 -0.0176 -0.2501  0.3522
  908SOL    HW1 3630   2.715   2.305   3.106  0.2197  1.8693 -2.3768
  908SOL    HW2 3631   2.711   2.458   3.119 -0.2886  2.1644 -2.9687
  908SOL     MW 3632   2.750   2.387   3.087 -0.0220  0.3481 -0.4460
  909SOL     OW 3633   1.592   0.184   1.111  0.0810 -0.1822  0.5304
  909SOL    HW1 3634   1.614   0.255   1.050 -1.2198 -0.4438  2.8190
  909SOL    HW2 3635   1.551   0.226   1.190  0.9150  0.8933  3.2171
  909SOL     MW 3636   1.589   0.199   1.114  0.0194 -0.0748  1.1869
  910SOL     OW 3637   2.291   1.749   0.419 -0.0961  0.3977  0.7215
  910SOL    HW1 3638   2.217   1.694   0.437  0.4346 -0.0275  0.6840
  910SOL    HW2 3639   2.259   1.811   0.348 -0.0169  1.0159 -1.0254
  910SOL     MW 3640   2.277   1.750   0.412 -0.0156  0.4231  0.4861
  911SOL     OW 3641   2.214   2.254   1.701 -0.3240 -0.0926  0.4911
  911SOL    HW1 3642   2.283   2.247   1.770 -2.5922  1.2868 -0.4359
  911SOL    HW2 3643   2.254   2.261   1.609 -0.9881  1.1474 -0.8099
  911SOL     MW 3644   2.229   2.254   1.698 -0.7109  0.2530  0.1971
  912SOL     OW 3645   2.842   1.955   1.531  0.0111 -0.1689  0.0742
  912SOL    HW1 3646   2.883   2.004   1.460  1.7455  1.8287 -0.6940
  912SOL    HW2 3647   2.750   1.978   1.538  0.4599 -0.5902  1.6794
  912SOL     MW 3648   2.835   1.964   1.523  0.2991  0.0391  0.1847
  913SOL     OW 3649   2.556   2.978   0.400  0.2261  0.3325 -0.7115
  913SOL    HW1 3650   2.631   2.915   0.397  1.5380  0.5198  1.2273
  913SOL    HW2 3651   2.473   2.935   0.415  1.1927 -1.0483 -1.0555
  913SOL     MW 3652   2.555   2.964   0.402  0.5267  0.1750 -0.5011
  914SOL     OW 3653   2.757   1.626   3.062 -0.0084  0.0656 -0.4085
  914SOL    HW1 3654   2.734   1.700   3.006  2.4838 -1.9248  0.2784
  914SOL    HW2 3655   2.669   1.603   3.113  2.5111 -1.8270  0.6385
  914SOL     MW 3656   2.742   1.633   3.061  0.6528 -0.4467 -0.1797
  915SOL     OW 3657   1.810   0.258   0.170  0.1884  0.2595 -0.1248
  915SOL    HW1 3658   1.880   0.197   0.180 -2.0784 -0.0924  0.7037
  915SOL    HW2 3659   1.732   0.216   0.206 -0.0890 -0.0546 -1.7198
  915SOL     MW 3660   1.809   0.244   0.176 -0.1473  0.1716 -0.2259
  916SOL     OW 3661   1.725   2.091   1.955  0.0152 -0.1027 -0.0314
  916SOL    HW1 3662   1.794   2.163   1.954 -1.4705  1.0844 -2.5980
  916SOL    HW2 3663   1.749   2.034   1.880  1.1612  1.7004 -2.8284
  916SOL     MW 3664   1.737   2.093   1.945 -0.0296  0.2918 -0.7391
  917SOL     OW 3665   2.436   2.315   2.598 -0.5511 -0.4340 -0.5381
  917SOL    HW1 3666   2.437   2.308   2.694  2.0922  1.0282  0.2517
  917SOL    HW2 3667   2.528   2.321   2.573 -1.4360  1.1215 -1.7904
  917SOL     MW 3668   2.448   2.315   2.607 -0.3191 -0.0359 -0.5992
  918SOL     OW 3669   2.036   1.652   2.710 -1.4505  0.0549  0.2392
  918SOL    HW1 3670   1.970   1.697   2.655  0.0101  1.6460  2.8339
  918SOL    HW2 3671   2.123   1.698   2.698  3.2409 -1.1927  0.1470
  918SOL     MW 3672   2.039   1.664   2.701 -0.6388  0.1002  0.5693
  919SOL     OW 3673   0.062   2.358   2.261 -0.0709 -0.1173  0.3078
  919SOL    HW1 3674  -0.020   2.300   2.243  0.2557  0.2218 -0.2240
  919SOL    HW2 3675   0.121   2.351   2.183 -0.9116 -0.3837 -0.0469
  919SOL     MW 3676   0.059   2.350   2.248 -0.1387 -0.1077  0.1908
  920SOL     OW 3677   2.763   2.799   3.093 -0.3545  0.0749  0.1477
  920SOL    HW1 3678   2.679   2.835   3.131  1.4109 -1.4069  0.5444
  920SOL    HW2 3679   2.751   2.783   2.994 -0.4522  0.5166 -2.9053
  920SOL     MW 3680   2.750   2.801   3.085 -0.1344 -0.0624 -0.2028
  921SOL     OW 3681   2.456   2.621   2.682 -0.0289 -0.1402  0.2998
  921SOL    HW1 3682   2.485   2.610   2.588 -2.9721  1.6904  0.6804
  921SOL    HW2 3683   2.478   2.545   2.727 -3.6818  0.5178  1.2545
  921SOL     MW 3684   2.463   2.609   2.676 -0.8992  0.1882  0.4760
  922SOL     OW 3685   1.988   2.780   0.326  0.4548 -0.1559  0.3410
  922SOL    HW1 3686   1.997   2.806   0.236 -0.5828 -0.7452 -0.8544
  922SOL    HW2 3687   1.944   2.700   0.315  0.8586  3.9624  0.7830
  922SOL     MW 3688   1.984   2.773   0.313  0.3712  0.3097  0.2416
  923SOL     OW 3689   2.220   2.812   1.693  0.0643 -0.4286 -0.0491
  923SOL    HW1 3690   2.241   2.738   1.629  0.9428 -1.0562  1.2089
  923SOL    HW2 3691   2.198   2.883   1.626 -2.3043 -1.0144 -1.8391
  923SOL     MW 3692   2.220   2.811   1.676 -0.1323 -0.5887 -0.1193
  924SOL     OW 3693   1.197   2.713   2.576 -0.4845 -0.3720 -0.3784
  924SOL    HW1 3694   1.258   2.763   2.517  0.2588 -3.2419 -1.6122
  924SOL    HW2 3695   1.259   2.649   2.613  0.0838 -1.5918 -0.0372
  924SOL     MW 3696   1.214   2.711   2.573 -0.3115 -0.9116 -0.4962
  925SOL     OW 3697   2.961   0.226   2.575 -0.2524  0.2036  0.0386
  925SOL    HW1 3698   3.048   0.278   2.566  2.9257  1.9327 -0.1597
  925SOL    HW2 3699   2.902   0.280   2.626  1.9476  0.4694 -0.0156
  925SOL     MW 3700   2.964   0.240   2.580  0.4572  0.4668  0.0053
  926SOL     OW 3701   2.729   2.409   2.061  0.5863 -0.0203 -0.5544
  926SOL    HW1 3702   2.784   2.470   2.107 -1.2951 -0.0360  1.3128
  926SOL    HW2 3703   2.770   2.389   1.978 -0.2646  0.3540  0.3600
  926SOL     MW 3704   2.741   2.415   2.056  0.2258  0.0270 -0.1874
  927SOL     OW 3705   2.342   0.171   0.309 -0.6223  0.3140 -0.1473
  927SOL    HW1 3706   2.437   0.181   0.320  0.4735  0.8499 -0.9157
  927SOL    HW2 3707   2.336   0.141   0.220 -1.4057  0.4809 -1.6202
  927SOL     MW 3708   2.354   0.168   0.299 -0.5810  0.4067 -0.4430
  928SOL     OW 3709   2.077   2.442   1.845  0.1228 -0.5144  0.2342
  928SOL    HW1 3710   2.136   2.379   1.802  1.0435  0.9204 -0.7925
  928SOL    HW2 3711   2.121   2.470   1.924  0.0246 -0.7337  2.3151
  928SOL     MW 3712   2.091   2.438   1.849  0.2313 -0.3540  0.3733
  929SOL     OW 3713   2.661   2.365   2.436  0.1556 -0.4419  0.0214
  929SOL    HW1 3714   2.707   2.366   2.350  0.8514 -0.0988 -1.8460
  929SOL    HW2 3715   2.720   2.342   2.505 -1.5535  1.0667 -1.1351
  929SOL     MW 3716   2.675   2.362   2.434  0.0219 -0.1976 -0.3776
  930SOL     OW 3717   2.017   2.876   2.661  0.1245 -0.5042  0.3013
  930SOL    HW1 3718   2.034   2.808   2.736 -0.2081 -1.4025  2.3192
  930SOL    HW2 3719   2.092   2.929   2.646 -2.3467 -1.0821  2.4075
  930SOL     MW 3720   2.029   2.874   2.669 -0.2454 -0.6990  0.8454
  931SOL     OW 3721   2.951   2.813   2.253  0.1543  0.1611  0.1186
  931SOL    HW1 3722   3.012   2.798   2.328 -1.0209 -0.0066  2.6401
  931SOL    HW2 3723   3.016   2.849   2.185  0.2520 -1.3803 -2.0416
  931SOL     MW 3724   2.968   2.816   2.254  0.0121 -0.0644  0.1663
  932SOL     OW 3725   2.911   1.946   2.537  0.2988  0.4702 -0.3778
  932SOL    HW1 3726   2.990   1.997   2.569 -2.9714  4.8439 -0.3135
  932SOL    HW2 3727   2.899   1.964   2.443 -0.2488  0.3802 -0.4233
  932SOL     MW 3728   2.920   1.955   2.529 -0.2049  1.0354 -0.3753
  933SOL     OW 3729   2.088   2.886   2.229  0.1948  0.5636  0.0191
  933SOL    HW1 3730   2.158   2.948   2.250  0.5953  1.1866  0.0061
  933SOL    HW2 3731   2.021   2.933   2.184 -1.1575 -1.2363  0.3516
  933SOL     MW 3732   2.088   2.900   2.226  0.0692  0.4083  0.0612
  934SOL     OW 3733   2.000   2.727   2.447 -0.0909 -0.4624 -0.2580
  934SOL    HW1 3734   2.014   2.789   2.526  2.2437 -0.6844  0.3190
  934SOL    HW2 3735   2.013   2.783   2.371 -0.7462  1.5292 -0.4808
  934SOL     MW 3736   2.003   2.742   2.447  0.1307 -0.2289 -0.2112
  935SOL     OW 3737   2.647   1.541   1.796 -0.1631  0.3839  0.9805
  935SOL    HW1 3738   2.738   1.518   1.755 -0.4950  0.3576 -0.5401
  935SOL    HW2 3739   2.592   1.542   1.714 -2.3032  2.6764 -0.9432
  935SOL     MW 3740   2.652   1.538   1.780 -0.4893  0.6829  0.5261
  936SOL     OW 3741   3.005   2.232   3.086  0.4013  0.2005 -0.1804
  936SOL    HW1 3742   3.047   2.291   3.149  2.0633 -1.4798 -0.8088
  936SOL    HW2 3743   2.924   2.286   3.069  0.2193 -0.0085 -0.1785
  936SOL     MW 3744   3.000   2.247   3.092  0.5966 -0.0488 -0.2630
  937SOL     OW 3745   2.031   2.180   2.690 -0.5605 -0.3563 -0.0500
  937SOL    HW1 3746   2.099   2.131   2.727 -0.9082  0.0765  0.0982
  937SOL    HW2 3747   2.026   2.146   2.598  2.0055 -0.6883  0.7672
  937SOL     MW 3748   2.040   2.169   2.683 -0.2678 -0.3430  0.0774
  938SOL     OW 3749   2.298   1.798   1.901 -0.1676 -0.0595 -0.7784
  938SOL    HW1 3750   2.250   1.867   1.848  0.4789 -1.2179 -0.3661
  938SOL    HW2 3751   2.293   1.846   1.983 -0.2228 -0.2866 -0.6172
  938SOL     MW 3752   2.291   1.814   1.905 -0.0896 -0.2423 -0.7027
  939SOL     OW 3753   2.823   1.994   2.271  0.5245  0.1417 -1.0365
  939SOL    HW1 3754   2.843   1.947   2.189 -0.0935  1.7494 -1.7497
  939SOL    HW2 3755   2.726   2.001   2.264  1.4166  1.7979  3.1220
  939SOL     MW 3756   2.813   1.989   2.259  0.5607  0.5723 -0.5820
  940SOL     OW 3757   2.307   0.157   2.695 -0.1125  0.4178 -0.4729
  940SOL    HW1 3758   2.283   0.065   2.661 -1.5829 -1.2066  0.6057
  940SOL    HW2 3759   2.373   0.138   2.769  0.1279  0.2913  1.3808
  940SOL     MW 3760   2.312   0.142   2.700 -0.2748  0.1868 -0.0860
  941SOL     OW 3761   0.213   2.292   2.043  0.7135 -0.7360 -0.2678
  941SOL    HW1 3762   0.304   2.273   2.058 -4.4143  1.2585  1.1514
  941SOL    HW2 3763   0.212   2.361   1.969 -1.2095 -2.5571 -0.0367
  941SOL     MW 3764   0.225   2.299   2.035 -0.2168 -0.7131 -0.0500
  942SOL     OW 3765   2.943   2.228   2.181 -0.3973 -0.6683 -0.1382
  942SOL    HW1 3766   2.873   2.290   2.151 -0.8409  1.5595 -0.9926
  942SOL    HW2 3767   2.904   2.155   2.227  2.4210  2.7923 -0.4975
  942SOL     MW 3768   2.929   2.227   2.183 -0.0840  0.0822 -0.2984
  943SOL     OW 3769   0.400   1.998   2.293 -0.4815  0.4479  0.8108
  943SOL    HW1 3770   0.347   2.065   2.332 -0.5031 -2.6338  0.4180
  943SOL    HW2 3771   0.486   1.995   2.337  1.0839 -1.8771  1.8541
  943SOL     MW 3772   0.404   2.006   2.304 -0.2778 -0.2654  0.8966
  944SOL     OW 3773   2.109   2.650   2.095  0.1177  0.0886 -0.2395
  944SOL    HW1 3774   2.176   2.591   2.135 -1.2954  0.8160 -1.2068
  944SOL    HW2 3775   2.103   2.729   2.151  2.0004  0.1342 -0.8722
  944SOL     MW 3776   2.117   2.653   2.108  0.1797  0.1906 -0.4506
  945SOL     OW 3777   2.786   2.705   2.825 -0.3159 -0.0165  0.0198
  945SOL    HW1 3778   2.718   2.633   2.833  1.9246 -2.2176  0.8121
  945SOL    HW2 3779   2.808   2.696   2.728 -1.0008  0.4448  1.5356
  945SOL     MW 3780   2.780   2.694   2.813 -0.1107 -0.2460  0.3243
  946SOL     OW 3781   2.451   2.734   2.267  0.0044  0.0134 -0.2598
  946SOL    HW1 3782   2.502   2.748   2.191  1.1475  1.2895  1.1053
  946SOL    HW2 3783   2.408   2.652   2.250 -0.5660  2.3784  1.3974
  946SOL     MW 3784   2.452   2.725   2.255  0.0799  0.4938  0.1390
  947SOL     OW 3785   2.008   0.080   0.236  0.7391  0.3171  0.2234
  947SOL    HW1 3786   2.075   0.056   0.168 -2.2781  0.3280  1.7024
  947SOL    HW2 3787   2.058   0.071   0.314 -1.0920  1.6677 -3.8008
  947SOL     MW 3788   2.023   0.076   0.237  0.0994  0.4967 -0.1124
  948SOL     OW 3789   1.797   3.060   2.662  0.1771 -0.5526  0.1931
  948SOL    HW1 3790   1.857   2.980   2.643 -1.7832 -1.4483 -1.4184
  948SOL    HW2 3791   1.751   3.067   2.580 -1.3752  1.4739  0.4753
  948SOL     MW 3792   1.799   3.050   2.649 -0.2864 -0.4034  0.0177
  949SOL     OW 3793   2.552   1.975   2.285 -0.0547  0.2136 -0.4430
  949SOL    HW1 3794   2.560   1.893   2.329 -0.6868 -1.7367  0.1279
  949SOL    HW2 3795   2.533   2.047   2.344  0.2355  1.5794 -0.6821
  949SOL     MW 3796   2.551   1.974   2.298 -0.0998  0.1365 -0.3992
  950SOL     OW 3797   2.255   2.549   3.021 -0.4010 -0.5214  0.0574
  950SOL    HW1 3798   2.287   2.466   2.979  0.1656 -0.6284  0.9076
  950SOL    HW2 3799   2.176   2.580   2.966 -1.0503  1.2630 -2.5522
  950SOL     MW 3800   2.249   2.542   3.008 -0.4119 -0.3001 -0.1748
  951SOL     OW 3801   2.965   2.102   2.831 -0.0835  0.2464 -0.1798
  951SOL    HW1 3802   2.984   2.145   2.918 -3.5207  1.3497  2.2146
  951SOL    HW2 3803   3.030   2.119   2.763  1.1839  1.8254  0.6247
  951SOL     MW 3804   2.976   2.110   2.833 -0.3698  0.6003  0.2423
  952SOL     OW 3805   3.075   1.750   2.137  0.7528  0.6969  0.6693
  952SOL    HW1 3806   2.986   1.772   2.101  1.2638  0.3240 -0.4489
  952SOL    HW2 3807   3.128   1.815   2.097 -1.5508 -0.0461  1.1718
  952SOL     MW 3808   3.070   1.761   2.127  0.5163  0.5497  0.5881
  953SOL     OW 3809   1.930   1.780   2.925  0.3344  0.0217 -0.2364
  953SOL    HW1 3810   1.827   1.760   2.921 -1.5506  1.1315 -2.6487
  953SOL    HW2 3811   1.964   1.718   2.853  2.3184 -2.2551 -1.1073
  953SOL     MW 3812   1.921   1.769   2.915  0.3474 -0.1323 -0.6696
  954SOL     OW 3813   2.482   2.071   2.885  0.2812 -0.3433 -0.0109
  954SOL    HW1 3814   2.392   2.045   2.851  1.3933 -1.3932  2.5718
  954SOL    HW2 3815   2.547   2.049   2.816  2.5783 -1.5852  1.1823
  954SOL     MW 3816   2.478   2.064   2.871  0.7310 -0.6457  0.4873
  955SOL     OW 3817   1.595   1.633   2.540  0.3282  0.0394  0.2302
  955SOL    HW1 3818   1.557   1.653   2.450  0.2972  0.3058  1.7304
  955SOL    HW2 3819   1.675   1.681   2.545 -4.6145 -1.8041  0.6589
  955SOL     MW 3820   1.600   1.642   2.529 -0.3280 -0.1687  0.4847
  956SOL     OW 3821   2.669   2.465   2.847  0.2858  0.1436  0.3118
  956SOL    HW1 3822   2.723   2.437   2.927  1.1625 -0.5253 -3.3346
  956SOL    HW2 3823   2.697   2.403   2.780 -1.2915 -4.2706  1.5724
  956SOL     MW 3824   2.680   2.453   2.849  0.1934 -0.5271 -0.0030
  957SOL     OW 3825   2.245   2.857   0.396 -0.1050  0.6723 -0.1716
  957SOL    HW1 3826   2.154   2.846   0.365 -2.1242  3.0754  0.7072
  957SOL    HW2 3827   2.246   2.820   0.482 -0.1079  2.5717 -1.0540
  957SOL     MW 3828   2.233   2.851   0.403 -0.3718  1.2400 -0.1721
  958SOL     OW 3829   2.000   2.659   2.826 -0.0082 -0.6512  0.0775
  958SOL    HW1 3830   2.001   2.579   2.780  4.4431  4.4002 -2.1465
  958SOL    HW2 3831   1.926   2.662   2.887 -0.8896 -2.2015 -1.6018
  958SOL     MW 3832   1.990   2.649   2.828  0.4628 -0.1893 -0.4375
  959SOL     OW 3833   2.450   2.608   0.333 -0.5020  0.4575  0.7979
  959SOL    HW1 3834   2.500   2.580   0.254  2.6674 -0.1063 -3.0102
  959SOL    HW2 3835   2.429   2.699   0.316  0.3848 -0.0498  1.2257
  959SOL     MW 3836   2.454   2.616   0.320  0.0332  0.3162  0.3519
  960SOL     OW 3837   1.915   2.334   2.268  0.3044  0.0188 -0.4880
  960SOL    HW1 3838   1.860   2.262   2.233  1.5172  0.4964 -2.9349
  960SOL    HW2 3839   1.868   2.388   2.329  1.0721 -2.0582  2.1384
  960SOL     MW 3840   1.902   2.331   2.271  0.5657 -0.1922 -0.4643
  961SOL     OW 3841   2.181   2.323   2.359  0.6211 -0.1396 -0.1996
  961SOL    HW1 3842   2.092   2.319   2.343  2.5088  0.8257  0.7812
  961SOL    HW2 3843   2.186   2.395   2.426 -0.7043 -1.3733  1.7808
  961SOL     MW 3844   2.170   2.332   2.365  0.6953 -0.1750  0.1911
  962SOL     OW 3845   2.234   1.987   2.802 -0.4567  0.0309  0.1896
  962SOL    HW1 3846   2.203   1.959   2.888 -0.0058 -0.6485 -2.0141
  962SOL    HW2 3847   2.242   1.909   2.743 -3.1569  1.0015 -0.3534
  962SOL     MW 3848   2.231   1.973   2.805 -0.7534  0.0693 -0.1728
  963SOL     OW 3849   1.832   2.583   1.996 -0.2405  0.2875 -0.1314
  963SOL    HW1 3850   1.925   2.590   2.024  1.9382 -1.3204 -0.9108
  963SOL    HW2 3851   1.828   2.488   1.958  2.6919  0.3959 -2.4684
  963SOL     MW 3852   1.843   2.572   1.995  0.4339  0.0897 -0.5426
  964SOL     OW 3853   1.847   1.977   2.751 -0.4810  0.0867  0.4083
  964SOL    HW1 3854   1.912   2.060   2.729 -0.9277  0.6275 -2.1219
  964SOL    HW2 3855   1.902   1.921   2.809  0.1914  1.2547 -2.6578
  964SOL     MW 3856   1.863   1.980   2.755 -0.4512  0.3122 -0.3301
  965SOL     OW 3857   2.250   2.741   0.626 -0.0108 -0.2566 -0.3533
  965SOL    HW1 3858   2.233   2.643   0.614 -1.7818 -0.1824  1.5973
  965SOL    HW2 3859   2.283   2.742   0.717  0.1027 -0.8902 -0.6528
  965SOL     MW 3860   2.252   2.728   0.636 -0.2295 -0.3304 -0.1355
  966SOL     OW 3861   2.632   2.645   2.460 -0.3042  0.4226 -0.0337
  966SOL    HW1 3862   2.586   2.696   2.397 -1.2403 -1.3761  1.3402
  966SOL    HW2 3863   2.625   2.546   2.435 -0.3688 -2.7954 -2.2622
  966SOL     MW 3864   2.625   2.639   2.449 -0.4362 -0.2393 -0.1464
  967SOL     OW 3865   2.916   3.024   2.899  0.1080 -0.2132  0.2099
  967SOL    HW1 3866   2.921   2.946   2.959  1.7814 -2.7436 -2.1507
  967SOL    HW2 3867   2.822   3.027   2.873 -0.8416  1.4048 -0.8480
  967SOL     MW 3868   2.904   3.014   2.904  0.2035 -0.3336 -0.2411
  968SOL     OW 3869   2.996   2.603   2.951 -0.1764 -0.0453  0.5390
  968SOL    HW1 3870   2.920   2.649   2.900 -1.3565  0.2860 -0.5337
  968SOL    HW2 3871   3.038   2.546   2.892 -1.9804  0.3227  2.8440
  968SOL     MW 3872   2.991   2.602   2.937 -0.5701  0.0470  0.7016
  969SOL     OW 3873   1.511   2.117   1.686  0.4170 -0.1065 -0.1593
  969SOL    HW1 3874   1.603   2.083   1.691 -2.0164  0.0358  0.2603
  969SOL    HW2 3875   1.483   2.117   1.779  0.3677 -1.9176  1.3231
  969SOL     MW 3876   1.519   2.112   1.699  0.0895 -0.3267  0.0916
  970SOL     OW 3877   1.671   1.648   1.807 -0.3518  0.3450 -0.1970
  970SOL    HW1 3878   1.715   1.629   1.886 -2.9768 -0.1928 -0.0251
  970SOL    HW2 3879   1.586   1.686   1.839  0.6866 -2.0583 -0.5542
  970SOL     MW 3880   1.665   1.650   1.821 -0.5612 -0.0431 -0.2214
  971SOL     OW 3881   1.770   0.012   2.372 -0.1213 -0.1094  0.1160
  971SOL    HW1 3882   1.799  -0.032   2.280 -1.8818  1.4128 -2.0067
  971SOL    HW2 3883   1.843   0.072   2.416  3.5018 -0.5737  1.6389
  971SOL     MW 3884   1.784   0.014   2.366  0.1245  0.0302  0.0368
  972SOL     OW 3885   0.256   2.826   2.448  0.3975  0.3151  0.0140
  972SOL    HW1 3886   0.298   2.740   2.462  0.8645  0.7096 -2.4920
  972SOL    HW2 3887   0.294   2.901   2.494 -0.2385 -0.1361 -1.4145
  972SOL     MW 3888   0.267   2.825   2.456  0.3752  0.3076 -0.5051
  973SOL     OW 3889   2.583   0.020   2.121 -0.2951 -0.0320  0.1329
  973SOL    HW1 3890   2.603  -0.072   2.125 -0.3447  0.5128 -2.8265
  973SOL    HW2 3891   2.587   0.037   2.031 -1.4240  0.4018  1.0296
  973SOL     MW 3892   2.586   0.010   2.110 -0.4506  0.0971 -0.1392
  974SOL     OW 3893   2.072   0.271   2.748 -0.1010 -0.6096 -0.7461
  974SOL    HW1 3894   2.160   0.240   2.715  2.4238  0.6647 -0.9991
  974SOL    HW2 3895   2.033   0.194   2.799  0.6649  1.2731 -0.4349
  974SOL     MW 3896   2.078   0.257   2.750  0.3332 -0.1931 -0.7384
  975SOL     OW 3897   2.166   2.534   2.525  0.3249 -0.6217  0.0102
  975SOL    HW1 3898   2.252   2.554   2.557 -3.1221 -1.9813  1.4275
  975SOL    HW2 3899   2.129   2.616   2.489  0.5496  0.7559  2.4327
  975SOL     MW 3900   2.173   2.548   2.524 -0.1002 -0.6193  0.5168
  976SOL     OW 3901   0.263   0.400   1.734  0.0527 -0.3746 -0.5388
  976SOL    HW1 3902   0.319   0.335   1.764 -1.3567 -0.1311 -0.1817
  976SOL    HW2 3903   0.186   0.343   1.734  0.0645 -2.1103 -1.7466
  976SOL     MW 3904   0.260   0.384   1.738 -0.1317 -0.5715 -0.6510
  977SOL     OW 3905   1.718   2.723   2.464 -0.2415 -0.5581  0.6175
  977SOL    HW1 3906   1.713   2.627   2.458 -0.5076  0.8544  2.6508
  977SOL    HW2 3907   1.812   2.739   2.455  0.8888  0.2474  0.5538
  977SOL     MW 3908   1.730   2.712   2.462 -0.1275 -0.2655  0.8774
   3.10000   3.10000   3.10000
