977 TIP4P/2005f water molecules t=   1.53000 step= 1530
 3908
    1SOL     OW    1   0.375   0.839   0.082  0.7003 -0.2504  0.5454
    1SOL    HW1    2   0.332   0.816  -0.004 -0.1280 -2.8158 -0.1759
    1SOL    HW2    3   0.399   0.749   0.108 -0.8260 -1.5581 -2.0674
    1SOL     MW    4   0.372   0.824   0.074  0.3897 -0.7614  0.1055
    2SOL     OW    5   0.308   3.027   1.093  0.3845 -0.5418 -0.3031
    2SOL    HW1    6   0.345   3.107   1.051 -1.3398  1.8326 -0.5704
    2SOL    HW2    7   0.216   3.049   1.105  2.5834  2.6647  1.2894
    2SOL     MW    8   0.301   3.040   1.089  0.4471  0.1945 -0.1282
    3SOL     OW    9   2.630   0.332   0.970  0.4889 -0.0679  0.1446
    3SOL    HW1   10   2.694   0.400   0.946 -4.8472 -1.5502  1.4986
    3SOL    HW2   11   2.608   0.362   1.057 -0.8369  0.7731 -0.8036
    3SOL     MW   12   2.636   0.345   0.978 -0.3901 -0.1525  0.1982
    4SOL     OW   13   3.023   1.716   0.528 -1.0654  0.1534  0.0633
    4SOL    HW1   14   2.957   1.762   0.480  0.3491 -0.1716 -0.0950
    4SOL    HW2   15   3.070   1.665   0.465  0.4423  0.6497 -1.1767
    4SOL     MW   16   3.020   1.715   0.514 -0.6799  0.1760 -0.1212
    5SOL     OW   17   1.636   1.436   0.637  0.5273 -0.9677 -0.4393
    5SOL    HW1   18   1.665   1.422   0.725 -0.3555 -0.2610  2.9379
    5SOL    HW2   19   1.542   1.463   0.658 -0.6112  1.5757 -0.8578
    5SOL     MW   20   1.628   1.438   0.651  0.2606 -0.5389 -0.0489
    6SOL     OW   21   0.779   1.434   0.589  0.1787 -0.0371  0.4664
    6SOL    HW1   22   0.682   1.430   0.569 -2.3196  1.7982 -0.3151
    6SOL    HW2   23   0.796   1.354   0.634  0.2847 -0.1394 -2.9656
    6SOL     MW   24   0.769   1.423   0.593 -0.1369  0.1915 -0.0895
    7SOL     OW   25   1.958   1.043   0.036 -0.6514 -0.2676  0.0227
    7SOL    HW1   26   2.040   1.098   0.042  1.3069 -0.5681  2.5318
    7SOL    HW2   27   1.938   1.034   0.128 -0.9218  0.7517  0.3155
    7SOL     MW   28   1.966   1.049   0.049 -0.4287 -0.1727  0.3924
    8SOL     OW   29   0.776   1.491   1.150 -0.0312 -0.3335 -0.1483
    8SOL    HW1   30   0.862   1.520   1.119 -1.2657  1.3395  1.2877
    8SOL    HW2   31   0.787   1.413   1.206  2.7057 -1.1623 -0.3184
    8SOL     MW   32   0.789   1.485   1.153  0.1670 -0.2221  0.0188
    9SOL     OW   33   1.010   0.480   1.311 -0.4617  0.2294  0.3597
    9SOL    HW1   34   0.969   0.406   1.277  0.6245  0.8817  0.8394
    9SOL    HW2   35   1.045   0.435   1.392 -0.8836 -0.8950 -1.2749
    9SOL     MW   36   1.009   0.464   1.317 -0.3740  0.1671  0.2074
   10SOL     OW   37   0.282   0.868   0.499  0.0090  0.1669 -0.3397
   10SOL    HW1   38   0.381   0.874   0.483 -0.2789 -1.6557  0.3340
   10SOL    HW2   39   0.249   0.933   0.561  1.3509 -2.0506  1.0579
   10SOL     MW   40   0.290   0.877   0.505  0.1481 -0.3661 -0.0664
   11SOL     OW   41   0.771   1.127   1.554  0.8313 -0.2674 -0.3170
   11SOL    HW1   42   0.829   1.118   1.632 -2.3053  1.5120 -1.5237
   11SOL    HW2   43   0.825   1.072   1.489 -0.6366  0.7452  0.0266
   11SOL     MW   44   0.786   1.119   1.556  0.2238  0.1010 -0.4309
   12SOL     OW   45   3.082   1.113   0.857 -0.5636 -0.3681  0.3325
   12SOL    HW1   46   3.123   1.189   0.897 -1.7269 -0.7597  0.1534
   12SOL    HW2   47   3.023   1.169   0.797 -1.3638 -0.5925 -0.1107
   12SOL     MW   48   3.080   1.131   0.855 -0.8227 -0.4493  0.2504
   13SOL     OW   49   1.841   1.429   1.284 -0.3149  0.1856 -0.3471
   13SOL    HW1   50   1.850   1.384   1.197 -0.3683  0.6207 -0.9672
   13SOL    HW2   51   1.914   1.485   1.290  0.5439  0.4248  1.6433
   13SOL     MW   52   1.852   1.430   1.273 -0.2087  0.2746 -0.1663
   14SOL     OW   53   0.541   0.364   1.847 -0.8670  0.5442 -1.0180
   14SOL    HW1   54   0.469   0.300   1.849  2.4566  0.5209 -1.4465
   14SOL    HW2   55   0.599   0.335   1.776 -0.3523 -3.4637 -0.5532
   14SOL     MW   56   0.539   0.352   1.838 -0.3606  0.0123 -1.0132
   15SOL     OW   57   2.002   0.387   1.070 -0.3415  0.2756 -0.4258
   15SOL    HW1   58   1.950   0.467   1.083  0.0853  1.5597 -2.0251
   15SOL    HW2   59   2.062   0.420   1.006  1.9838  0.2356  0.9543
   15SOL     MW   60   2.003   0.402   1.063  0.0216  0.4398 -0.4547
   16SOL     OW   61   0.284   1.841   0.253  0.0115  0.2119  0.3821
   16SOL    HW1   62   0.372   1.819   0.278 -1.3684 -1.8635  1.5369
   16SOL    HW2   63   0.263   1.933   0.283  1.8962  0.0712  0.3500
   16SOL     MW   64   0.293   1.850   0.260  0.0781 -0.0805  0.5303
   17SOL     OW   65   1.108   0.901   1.408  0.0833 -0.1057  0.2260
   17SOL    HW1   66   1.127   0.881   1.496  2.5111  0.4795 -1.0739
   17SOL    HW2   67   1.013   0.888   1.404  0.1148  0.4007  0.7237
   17SOL     MW   68   1.098   0.897   1.419  0.4078  0.0383  0.1202
   18SOL     OW   69   0.117   1.607   0.327  0.0166  0.4133 -0.0122
   18SOL    HW1   70   0.194   1.666   0.308  4.3600  0.4521 -0.4657
   18SOL    HW2   71   0.092   1.568   0.239  0.3727 -2.0801 -3.2107
   18SOL     MW   72   0.124   1.609   0.313  0.6367  0.0895 -0.4940
   19SOL     OW   73   0.095   1.350   0.939  0.2519  0.0627  0.3181
   19SOL    HW1   74   0.158   1.362   0.863  0.4869 -1.1227  1.8763
   19SOL    HW2   75   0.013   1.388   0.927  0.9967 -2.1965  2.4153
   19SOL     MW   76   0.093   1.357   0.928  0.3812 -0.3918  0.8004
   20SOL     OW   77   0.451   2.141   1.248 -0.0621 -0.7760  0.6089
   20SOL    HW1   78   0.405   2.069   1.196  0.2494 -3.1310 -1.1658
   20SOL    HW2   79   0.423   2.143   1.339  1.2637  0.4817 -0.4379
   20SOL     MW   80   0.441   2.131   1.253  0.1539 -0.9208  0.2366
   21SOL     OW   81   0.539   0.872   0.430  0.3229 -0.2959 -0.1831
   21SOL    HW1   82   0.602   0.852   0.498  0.2974  2.6279  2.5022
   21SOL    HW2   83   0.571   0.851   0.338 -0.0099 -2.3764 -2.6298
   21SOL     MW   84   0.552   0.866   0.427  0.2756 -0.1846 -0.1517
   22SOL     OW   85   1.552   0.696   0.993 -0.5551 -0.0374  0.4704
   22SOL    HW1   86   1.540   0.657   0.909  1.1071  1.3937 -1.1187
   22SOL    HW2   87   1.473   0.751   0.995  1.0516  0.0142  0.5840
   22SOL     MW   88   1.540   0.698   0.982 -0.1238  0.1583  0.2757
   23SOL     OW   89   0.002   0.756   0.708 -0.2593  0.7429 -0.3045
   23SOL    HW1   90   0.051   0.686   0.753 -0.2531 -1.2822 -2.2073
   23SOL    HW2   91   0.055   0.837   0.714 -2.7359  0.6168 -1.3179
   23SOL     MW   92   0.016   0.758   0.715 -0.5853  0.4591 -0.6893
   24SOL     OW   93   2.088   2.179   0.018 -0.0267 -0.1966 -0.2532
   24SOL    HW1   94   2.087   2.187   0.116 -0.6638  0.2142 -2.7059
   24SOL    HW2   95   2.085   2.085  -0.002  3.0356 -2.0622  4.0284
   24SOL     MW   96   2.087   2.168   0.028  0.2933 -0.3886 -0.0119
   25SOL     OW   97   0.200   1.358   0.442 -0.2420  0.7065  0.1598
   25SOL    HW1   98   0.163   1.441   0.408  0.1149  1.0663  0.5550
   25SOL    HW2   99   0.274   1.326   0.387  2.1796  1.8454  0.2613
   25SOL     MW  100   0.205   1.365   0.431  0.1246  0.9042  0.2253
   26SOL     OW  101   2.007   1.002   0.301 -0.0224  0.3872  0.0710
   26SOL    HW1  102   1.952   1.041   0.370 -1.7233 -0.7150 -2.0230
   26SOL    HW2  103   2.079   1.059   0.286 -2.6053 -2.7616 -3.5585
   26SOL     MW  104   2.009   1.015   0.308 -0.5876 -0.1737 -0.6842
   27SOL     OW  105   1.880   1.334   0.170  0.5013  0.0294  0.4338
   27SOL    HW1  106   1.811   1.396   0.186  1.1206 -0.8980 -0.0278
   27SOL    HW2  107   1.931   1.343   0.250 -0.6214  0.7079  2.3771
   27SOL     MW  108   1.878   1.343   0.182  0.4349 -0.0034  0.6293
   28SOL     OW  109   0.416   0.935   1.993 -0.3450 -0.6688  0.2815
   28SOL    HW1  110   0.465   0.903   2.066  0.6596 -0.4928 -1.5722
   28SOL    HW2  111   0.329   0.924   2.023  1.9713 -0.1974 -0.4460
   28SOL     MW  112   0.411   0.929   2.006  0.0932 -0.5834 -0.0591
   29SOL     OW  113   0.242   1.378   0.710 -0.3257  0.1441 -0.2948
   29SOL    HW1  114   0.226   1.471   0.719 -1.8482 -1.9917  0.6758
   29SOL    HW2  115   0.241   1.362   0.618 -4.3762 -0.4009  0.1882
   29SOL     MW  116   0.239   1.388   0.699 -1.0610 -0.2096 -0.1030
   30SOL     OW  117   0.802   1.243   1.255 -0.7058 -0.0195 -0.2656
   30SOL    HW1  118   0.728   1.228   1.315  2.4526 -0.7788  2.3869
   30SOL    HW2  119   0.879   1.220   1.306 -3.7215 -0.3084 -0.8462
   30SOL     MW  120   0.802   1.238   1.270 -0.6870 -0.1578  0.0078
   31SOL     OW  121   0.470   0.289   0.172  0.7927  0.0212  0.4749
   31SOL    HW1  122   0.499   0.234   0.243  1.5679 -0.6715 -0.0947
   31SOL    HW2  123   0.493   0.243   0.088 -0.3429 -0.5997  0.0990
   31SOL     MW  124   0.477   0.275   0.170  0.7451 -0.1521  0.3502
   32SOL     OW  125   2.709   1.001   1.116  0.3613 -0.1192 -0.6520
   32SOL    HW1  126   2.679   0.913   1.118  1.8527  3.1424 -1.1897
   32SOL    HW2  127   2.807   0.996   1.128  0.2623  0.5610 -0.5052
   32SOL     MW  128   2.718   0.989   1.118  0.5450  0.4009 -0.7036
   33SOL     OW  129   1.662   1.284   0.392  0.2622 -0.1444  0.0424
   33SOL    HW1  130   1.739   1.227   0.394 -3.6814 -1.0766 -0.8400
   33SOL    HW2  131   1.651   1.331   0.476  0.3288 -0.0599  1.4118
   33SOL     MW  132   1.671   1.283   0.403 -0.2493 -0.2562  0.1067
   34SOL     OW  133   1.218   1.919   1.168 -0.4310 -0.4174 -0.1555
   34SOL    HW1  134   1.146   1.980   1.160 -0.2004  3.4467  0.1690
   34SOL    HW2  135   1.282   1.967   1.228 -0.2793  0.4209  3.4501
   34SOL     MW  136   1.217   1.933   1.175 -0.3806  0.2030  0.3630
   35SOL     OW  137   0.346   0.140   1.828  0.5423 -0.2438 -0.2159
   35SOL    HW1  138   0.369   0.075   1.895 -0.5450 -0.0908 -0.9219
   35SOL    HW2  139   0.354   0.099   1.743 -0.4214  3.6685 -0.6006
   35SOL     MW  140   0.350   0.126   1.825  0.2717  0.2925 -0.3598
   36SOL     OW  141   1.935   1.951   0.573 -0.4515  0.1586 -0.3713
   36SOL    HW1  142   1.908   1.925   0.486  1.2945  1.9547  0.9415
   36SOL    HW2  143   1.934   1.880   0.632  2.8311 -1.2337 -0.1916
   36SOL     MW  144   1.931   1.938   0.569  0.2119  0.2119 -0.1744
   37SOL     OW  145   1.836   2.049   1.035  0.0946  0.2232 -0.5162
   37SOL    HW1  146   1.767   2.015   0.978 -1.5356  1.8369  1.1663
   37SOL    HW2  147   1.784   2.077   1.112 -3.0581 -1.0506  1.1871
   37SOL     MW  148   1.820   2.048   1.038 -0.5364  0.2680 -0.0695
   38SOL     OW  149   2.859   0.943   0.170  0.1191  0.3679 -0.1609
   38SOL    HW1  150   2.860   0.945   0.266  0.6001 -0.4810  0.1408
   38SOL    HW2  151   2.954   0.917   0.144  0.3546  2.9730 -2.6156
   38SOL     MW  152   2.872   0.939   0.180  0.2136  0.5996 -0.4450
   39SOL     OW  153   1.472   0.597   0.758 -0.3343  0.0708  0.1242
   39SOL    HW1  154   1.434   0.509   0.782  3.0036 -1.4916  0.8752
   39SOL    HW2  155   1.404   0.657   0.749  0.6156 -0.8421  0.8626
   39SOL     MW  156   1.458   0.593   0.760  0.2314 -0.2558  0.3207
   40SOL     OW  157   1.272   1.877   0.270 -0.4523 -0.2132 -0.0204
   40SOL    HW1  158   1.338   1.806   0.291 -0.8039 -2.2803  0.9677
   40SOL    HW2  159   1.257   1.920   0.353 -1.0968 -2.1944  0.5367
   40SOL     MW  160   1.279   1.874   0.284 -0.5837 -0.7474  0.1834
   41SOL     OW  161   0.546   0.545   1.614 -0.3010  0.0439 -0.0790
   41SOL    HW1  162   0.622   0.589   1.567 -1.5096  3.5132 -0.6511
   41SOL    HW2  163   0.462   0.587   1.582  1.5317 -2.5488 -0.2223
   41SOL     MW  164   0.545   0.556   1.604 -0.2187  0.1596 -0.1734
   42SOL     OW  165   1.242   2.979   1.944 -0.2957 -0.5885  0.2012
   42SOL    HW1  166   1.155   2.962   1.975 -0.4495  0.6625 -0.1729
   42SOL    HW2  167   1.303   2.917   1.984  0.8927 -0.0989 -0.1537
   42SOL     MW  168   1.238   2.969   1.953 -0.1592 -0.3588  0.1050
   43SOL     OW  169   1.480   0.128   1.687 -0.1628  0.2816  0.2586
   43SOL    HW1  170   1.542   0.109   1.619 -3.1869  0.9147 -3.6462
   43SOL    HW2  171   1.418   0.058   1.671 -0.1720  0.3665  0.5677
   43SOL     MW  172   1.480   0.116   1.676 -0.5631  0.3764 -0.2158
   44SOL     OW  173   1.254   0.781   1.058 -0.0906  0.1207  0.1113
   44SOL    HW1  174   1.243   0.879   1.054 -1.3066  0.7178 -0.7646
   44SOL    HW2  175   1.268   0.747   1.148 -1.9078  0.1914  1.5191
   44SOL     MW  176   1.255   0.789   1.070 -0.4908  0.2088  0.1815
   45SOL     OW  177   1.279   0.791   0.763  0.3401  0.4185 -0.1043
   45SOL    HW1  178   1.256   0.780   0.855 -2.2727  1.8082 -0.0997
   45SOL    HW2  179   1.209   0.758   0.701 -3.2748  2.7659  0.5431
   45SOL     MW  180   1.267   0.785   0.767 -0.4816  0.9116 -0.0183
   46SOL     OW  181   0.494   1.074   0.644 -0.1620  0.1670 -0.0889
   46SOL    HW1  182   0.534   1.073   0.556 -0.9781 -1.9094  1.3101
   46SOL    HW2  183   0.541   1.139   0.700 -2.6353 -0.3758  0.4833
   46SOL     MW  184   0.505   1.082   0.640 -0.5960 -0.1786  0.1712
   47SOL     OW  185   0.143   2.005   1.902 -0.0688  1.1331 -0.9015
   47SOL    HW1  186   0.122   1.926   1.848  3.0389  0.5189  0.6760
   47SOL    HW2  187   0.121   1.979   1.991 -0.4659 -0.4288  2.4448
   47SOL     MW  188   0.137   1.992   1.906  0.2889  0.8460 -0.2518
   48SOL     OW  189   1.175   0.506   1.029  0.1886  0.2102 -0.1122
   48SOL    HW1  190   1.084   0.504   1.016 -1.0692 -0.6778  1.5294
   48SOL    HW2  191   1.189   0.602   1.053 -1.4460  1.0501  1.2791
   48SOL     MW  192   1.165   0.519   1.030 -0.1930  0.2039  0.2880
   49SOL     OW  193   1.692   0.659   1.548 -0.4266 -0.1333 -0.1275
   49SOL    HW1  194   1.738   0.615   1.620 -1.4488  1.0690 -0.1876
   49SOL    HW2  195   1.724   0.620   1.466  1.2727  0.1063 -0.3590
   49SOL     MW  196   1.703   0.648   1.546 -0.3373  0.0570 -0.1660
   50SOL     OW  197   1.270   1.233   0.596 -0.2469 -0.1592  0.1628
   50SOL    HW1  198   1.217   1.231   0.670 -2.3978  0.9649  0.3885
   50SOL    HW2  199   1.336   1.169   0.618  0.4957 -3.2647  1.0041
   50SOL     MW  200   1.272   1.224   0.608 -0.4327 -0.4207  0.3036
   51SOL     OW  201   0.319   2.888   0.844 -0.3797 -0.5195 -0.3883
   51SOL    HW1  202   0.403   2.837   0.834  0.8694  1.2259  2.7182
   51SOL    HW2  203   0.306   2.920   0.932  2.0423  0.0802 -0.1391
   51SOL     MW  204   0.328   2.886   0.854  0.1047 -0.2101  0.0544
   52SOL     OW  205   0.813   1.811   0.462 -0.0229 -0.5010  0.1457
   52SOL    HW1  206   0.775   1.901   0.473 -0.8182 -1.7121  0.9856
   52SOL    HW2  207   0.840   1.796   0.371  0.6093 -0.8331 -0.3964
   52SOL     MW  208   0.812   1.821   0.452 -0.0444 -0.7046  0.1850
   53SOL     OW  209   0.445   2.173   0.511  0.0417 -0.7204 -0.0999
   53SOL    HW1  210   0.373   2.187   0.448  1.2439 -0.4317 -3.5275
   53SOL    HW2  211   0.451   2.264   0.558 -0.9661 -1.6777  1.5318
   53SOL     MW  212   0.436   2.187   0.509  0.0674 -0.8086 -0.3369
   54SOL     OW  213   2.040   0.972   0.723 -0.5407  0.2289 -0.3871
   54SOL    HW1  214   2.110   0.962   0.657  0.4881  0.4455  1.4266
   54SOL    HW2  215   2.011   0.884   0.732  0.0145  0.0012 -1.5416
   54SOL     MW  216   2.046   0.959   0.715 -0.3317  0.2275 -0.3001
   55SOL     OW  217   0.470   1.519   1.677 -0.3838 -0.4815 -0.1863
   55SOL    HW1  218   0.455   1.584   1.612 -2.2395 -2.1614  0.2234
   55SOL    HW2  219   0.537   1.461   1.650 -0.5336  0.3279  0.1894
   55SOL     MW  220   0.476   1.520   1.665 -0.6484 -0.5964 -0.0827
   56SOL     OW  221   0.645   0.893   0.179 -0.1792  0.3500 -0.2813
   56SOL    HW1  222   0.663   0.985   0.199 -0.7926 -1.3831  3.0986
   56SOL    HW2  223   0.558   0.883   0.141  0.1443 -0.3723 -3.1684
   56SOL     MW  224   0.636   0.904   0.177 -0.2175  0.0260 -0.2163
   57SOL     OW  225   1.119   1.256   1.125 -1.0707  0.0811 -0.4617
   57SOL    HW1  226   1.200   1.311   1.149 -1.1303 -0.7080  1.9995
   57SOL    HW2  227   1.095   1.238   1.220  2.2050 -2.1140  0.4409
   57SOL     MW  228   1.127   1.261   1.141 -0.6464 -0.3126 -0.0179
   58SOL     OW  229   0.476   1.250   1.260 -0.6009 -0.1746  0.4313
   58SOL    HW1  230   0.467   1.345   1.249 -1.3108 -1.0796  1.4384
   58SOL    HW2  231   0.465   1.251   1.351 -1.4876 -0.5914 -0.8765
   58SOL     MW  232   0.473   1.263   1.271 -0.8116 -0.3490  0.3916
   59SOL     OW  233   1.439   1.695   0.360 -0.1419  0.4521  0.8168
   59SOL    HW1  234   1.510   1.710   0.425  1.8203  1.3788  0.7155
   59SOL    HW2  235   1.369   1.641   0.395 -0.9270 -1.5294  1.6304
   59SOL     MW  236   1.439   1.690   0.373  0.0134  0.3130  0.9108
   60SOL     OW  237   3.064   0.192   1.682  0.8192 -0.0071 -0.8318
   60SOL    HW1  238   2.984   0.245   1.712 -0.2857  1.6696 -0.2214
   60SOL    HW2  239   3.052   0.100   1.710 -1.0617  4.5448  0.9731
   60SOL     MW  240   3.052   0.187   1.690  0.4253  0.8147 -0.5131
   61SOL     OW  241   1.970   1.399   2.998  0.3793 -0.1384 -0.6294
   61SOL    HW1  242   1.963   1.371   3.093 -3.6370 -1.2556  1.1531
   61SOL    HW2  243   2.017   1.322   2.973 -1.2839  1.5431  1.2082
   61SOL     MW  244   1.975   1.385   3.007 -0.3701 -0.0639 -0.1517
   62SOL     OW  245   0.572   1.724   0.596  0.7730 -0.1396  0.1169
   62SOL    HW1  246   0.665   1.740   0.573  1.3600  1.2466  0.2524
   62SOL    HW2  247   0.551   1.632   0.576  0.1532 -2.8791 -0.9662
   62SOL     MW  248   0.582   1.714   0.590  0.7687 -0.3182 -0.0081
   63SOL     OW  249   1.736   0.676   0.648  0.2026  0.4602 -0.0950
   63SOL    HW1  250   1.738   0.769   0.614  1.2665 -0.3821 -1.2053
   63SOL    HW2  251   1.648   0.668   0.691  0.3411  0.2200  0.2043
   63SOL     MW  252   1.725   0.687   0.649  0.3612  0.3174 -0.2020
   64SOL     OW  253   0.227   1.652   0.763 -0.1198  0.3883 -0.0474
   64SOL    HW1  254   0.290   1.705   0.716  1.6710 -1.9074 -2.5059
   64SOL    HW2  255   0.155   1.711   0.777 -1.1808 -2.4299  1.2379
   64SOL     MW  256   0.226   1.667   0.758 -0.0235 -0.2865 -0.2022
   65SOL     OW  257   1.505   2.318   0.350 -0.1961 -0.1027  0.1118
   65SOL    HW1  258   1.593   2.344   0.365 -0.7278  0.9343 -0.0067
   65SOL    HW2  259   1.450   2.356   0.420 -4.1712  0.5377  1.4197
   65SOL     MW  260   1.509   2.326   0.361 -0.7907  0.1186  0.2687
   66SOL     OW  261   0.345   0.592   0.478  0.4463  0.6678  0.2020
   66SOL    HW1  262   0.404   0.615   0.408  0.6714  2.9301  2.3113
   66SOL    HW2  263   0.312   0.687   0.489 -0.3751 -1.0547  1.7398
   66SOL     MW  264   0.348   0.608   0.470  0.3676  0.7390  0.6832
   67SOL     OW  265   1.480   0.066   1.980  0.1424 -0.4209  0.3049
   67SOL    HW1  266   1.491   0.079   1.888  1.0281 -0.6458 -1.3636
   67SOL    HW2  267   1.407   0.001   1.984 -0.0473  2.6167  2.1157
   67SOL     MW  268   1.472   0.059   1.969  0.2342 -0.0498  0.3237
   68SOL     OW  269   0.801   3.081   2.985 -0.0550 -0.3325  0.7211
   68SOL    HW1  270   0.776   3.147   2.919  1.3755 -1.4535  0.5593
   68SOL    HW2  271   0.880   3.125   3.013  1.7328  0.6302 -0.8222
   68SOL     MW  272   0.808   3.096   2.980  0.3697 -0.3534  0.4962
   69SOL     OW  273   0.975   0.218   1.952  0.5383  0.1597 -0.3728
   69SOL    HW1  274   1.069   0.215   1.961  0.3312  0.2615  0.2740
   69SOL    HW2  275   0.951   0.142   2.004  1.9858  4.0085  1.7257
   69SOL     MW  276   0.984   0.208   1.960  0.7020  0.6810 -0.0106
   70SOL     OW  277   0.497   1.754   1.064  0.1395  0.2181  0.0437
   70SOL    HW1  278   0.570   1.809   1.093 -0.7073  2.8699  1.6645
   70SOL    HW2  279   0.538   1.693   1.003 -2.8221  0.7281  0.2888
   70SOL     MW  280   0.512   1.753   1.060 -0.3630  0.6352  0.2899
   71SOL     OW  281   1.480   0.536   1.193  0.3329  0.1799  0.4225
   71SOL    HW1  282   1.476   0.595   1.269  0.9660  1.3352  0.9418
   71SOL    HW2  283   1.518   0.595   1.128 -0.7584  0.1810  1.0660
   71SOL     MW  284   1.484   0.551   1.195  0.2725  0.3324  0.5759
   72SOL     OW  285   0.743   1.852   1.029  0.2142 -0.2311 -0.2075
   72SOL    HW1  286   0.719   1.921   0.967  3.5171  2.0756  0.2272
   72SOL    HW2  287   0.773   1.780   0.980 -0.3108  2.0072 -0.3580
   72SOL     MW  288   0.744   1.852   1.015  0.5807  0.3685 -0.1700
   73SOL     OW  289   1.215   0.676   1.336 -0.2782 -0.0474 -0.7310
   73SOL    HW1  290   1.158   0.594   1.329 -2.5093 -4.2703  1.2529
   73SOL    HW2  291   1.160   0.759   1.354  1.3452  1.0228  1.5720
   73SOL     MW  292   1.200   0.676   1.338 -0.3584 -0.4634 -0.1654
   74SOL     OW  293   2.875   0.162   1.028 -0.5179 -0.6748 -0.5531
   74SOL    HW1  294   2.952   0.136   0.984 -3.5939 -2.4255 -0.3410
   74SOL    HW2  295   2.837   0.236   0.986  0.8679 -0.2644  2.1489
   74SOL     MW  296   2.880   0.169   1.017 -0.7409 -0.8517 -0.1686
   75SOL     OW  297   1.584   1.345   0.153 -0.3166 -0.0168  0.5106
   75SOL    HW1  298   1.650   1.290   0.117 -0.3295  1.2940 -0.6658
   75SOL    HW2  299   1.607   1.346   0.252  0.7965 -1.0097 -0.9751
   75SOL     MW  300   1.596   1.338   0.161 -0.1715  0.0252  0.1594
   76SOL     OW  301   2.990   0.631   0.470 -0.0288  0.0011  0.7546
   76SOL    HW1  302   3.046   0.660   0.545 -0.6118  3.4944  0.1891
   76SOL    HW2  303   3.057   0.579   0.416 -0.9639  1.6714  0.4482
   76SOL     MW  304   3.006   0.628   0.473 -0.2291  0.6824  0.6396
   77SOL     OW  305   0.872   0.598   0.419  0.0190 -0.0941  0.0617
   77SOL    HW1  306   0.847   0.636   0.335  1.7460  0.0462  0.4790
   77SOL    HW2  307   0.877   0.504   0.413  1.4455  0.1676  1.8303
   77SOL     MW  308   0.870   0.591   0.407  0.4350 -0.0411  0.3501
   78SOL     OW  309   0.732   0.851   1.118  0.4688 -0.1123 -0.6329
   78SOL    HW1  310   0.734   0.940   1.074 -0.8151 -1.9844 -1.2743
   78SOL    HW2  311   0.660   0.838   1.175  0.1793 -1.4598 -0.4555
   78SOL     MW  312   0.723   0.861   1.120  0.2612 -0.5371 -0.6942
   79SOL     OW  313   1.858   1.584   0.570  0.1251 -0.6713 -0.2280
   79SOL    HW1  314   1.769   1.554   0.588 -3.3109 -1.0393  1.1959
   79SOL    HW2  315   1.887   1.617   0.656  2.2200  0.9096  1.3753
   79SOL     MW  316   1.850   1.584   0.584 -0.0519 -0.5112  0.1714
   80SOL     OW  317   0.090   0.979   0.354 -0.0211  0.0648 -0.3864
   80SOL    HW1  318   0.018   0.918   0.376 -0.3081 -2.9456  0.1836
   80SOL    HW2  319   0.156   0.937   0.407 -1.3522 -1.4186 -1.1338
   80SOL     MW  320   0.089   0.965   0.364 -0.2346 -0.5281 -0.4098
   81SOL     OW  321   1.819   1.841   0.333 -0.4643  0.2634  0.0310
   81SOL    HW1  322   1.793   1.756   0.309  2.4724  2.1832  1.2331
   81SOL    HW2  323   1.772   1.899   0.273  0.9182 -0.7424  0.0192
   81SOL     MW  324   1.809   1.838   0.322  0.1056  0.3840  0.1881
   82SOL     OW  325   0.887   1.020   0.518  0.0862  0.1427 -0.0422
   82SOL    HW1  326   0.821   1.041   0.450 -0.5944  1.2500  1.9429
   82SOL    HW2  327   0.849   0.937   0.552  2.3661 -0.2252  0.0065
   82SOL     MW  328   0.873   1.012   0.513  0.2972  0.2403  0.2262
   83SOL     OW  329   0.038   0.775   1.530  0.2921 -0.1901  0.7652
   83SOL    HW1  330   0.031   0.803   1.438  1.0193  0.1594 -1.0599
   83SOL    HW2  331   0.110   0.709   1.533  2.8900 -1.7627  2.4126
   83SOL     MW  332   0.047   0.770   1.518  0.7308 -0.3515  0.7418
   84SOL     OW  333   0.050   0.205   0.915  0.1821  0.3757 -0.1841
   84SOL    HW1  334   0.011   0.292   0.937 -1.1347  0.5432  1.1103
   84SOL    HW2  335   0.054   0.145   0.992 -1.4454 -1.3558  0.9326
   84SOL     MW  336   0.046   0.209   0.928 -0.2064  0.1694  0.1341
   85SOL     OW  337   0.398   0.463   0.717 -0.3301 -0.1844 -0.0309
   85SOL    HW1  338   0.372   0.500   0.633  1.1252  0.6894 -0.4200
   85SOL    HW2  339   0.385   0.369   0.710 -1.1805  2.1517 -1.5507
   85SOL     MW  340   0.393   0.455   0.705 -0.2503  0.2391 -0.2828
   86SOL     OW  341   1.200   0.244   1.140  0.4850  0.0880  0.4302
   86SOL    HW1  342   1.180   0.330   1.103 -0.9121  0.3556 -0.4121
   86SOL    HW2  343   1.287   0.253   1.179 -2.4182  0.7534 -0.3740
   86SOL     MW  344   1.209   0.257   1.140 -0.0824  0.2111  0.2130
   87SOL     OW  345   1.045   1.512   1.203  0.0680  0.3018  0.6202
   87SOL    HW1  346   1.111   1.572   1.161 -0.4288 -2.4733 -0.1314
   87SOL    HW2  347   1.060   1.431   1.153  0.8707 -0.2514 -1.0080
   87SOL     MW  348   1.055   1.509   1.191  0.1084 -0.1373  0.3062
   88SOL     OW  349   1.254   1.059   1.029  0.1583  0.4641  0.2494
   88SOL    HW1  350   1.340   1.098   1.018  1.8741  2.2133 -0.4870
   88SOL    HW2  351   1.202   1.131   1.073 -1.3612  0.6593  0.7386
   88SOL     MW  352   1.259   1.074   1.033  0.1842  0.7206  0.2168
   89SOL     OW  353   1.741   0.734   0.293 -0.3999 -0.1639 -0.4129
   89SOL    HW1  354   1.717   0.669   0.356  0.0997 -1.4705 -0.7513
   89SOL    HW2  355   1.839   0.726   0.276 -0.3851 -0.9085 -1.0071
   89SOL     MW  356   1.751   0.725   0.299 -0.3320 -0.4345 -0.5360
   90SOL     OW  357   0.841   1.204   2.900 -0.0935  0.4516  0.0841
   90SOL    HW1  358   0.903   1.134   2.900  0.2614 -1.0787  1.4086
   90SOL    HW2  359   0.848   1.261   2.981  0.9728 -3.0486  1.2166
   90SOL     MW  360   0.850   1.202   2.911  0.0940 -0.2121  0.4083
   91SOL     OW  361   2.189   0.644   0.445 -0.0132 -0.6357 -0.0941
   91SOL    HW1  362   2.267   0.669   0.383  0.8724  0.5102 -3.3163
   91SOL    HW2  363   2.158   0.558   0.421  0.2937  0.7203  0.6508
   91SOL     MW  364   2.195   0.636   0.434  0.1442 -0.3056 -0.4210
   92SOL     OW  365   1.636   0.949   0.580 -0.2854  0.4192 -0.0667
   92SOL    HW1  366   1.554   0.987   0.611  0.9009 -0.6373  0.2431
   92SOL    HW2  367   1.624   0.932   0.485  2.5123  1.8649 -1.9392
   92SOL     MW  368   1.624   0.952   0.572  0.2402  0.4706 -0.2729
   93SOL     OW  369   1.093   0.222   0.374 -0.2008  0.4926 -0.7948
   93SOL    HW1  370   1.006   0.258   0.402  1.0779  0.4977 -4.1890
   93SOL    HW2  371   1.094   0.267   0.285 -0.5294  1.0873  0.0479
   93SOL     MW  372   1.082   0.233   0.366 -0.0754  0.5717 -1.1315
   94SOL     OW  373   1.829   1.363   1.543 -0.4056 -0.4003  0.5797
   94SOL    HW1  374   1.838   1.380   1.448  2.1512  2.0101 -0.9991
   94SOL    HW2  375   1.820   1.267   1.549  1.6642 -1.8246  0.6803
   94SOL     MW  376   1.829   1.353   1.531  0.2048 -0.2702  0.3847
   95SOL     OW  377   0.641   1.540   0.930 -0.6273  0.0173  0.0937
   95SOL    HW1  378   0.666   1.498   1.017 -0.0293 -0.1076 -3.0761
   95SOL    HW2  379   0.572   1.487   0.884 -0.8904  1.9614  0.4277
   95SOL     MW  380   0.635   1.528   0.936 -0.5831  0.2574 -0.2804
   96SOL     OW  381   1.348   1.853   1.684 -0.3711  0.0585 -0.8228
   96SOL    HW1  382   1.260   1.855   1.731 -0.8915 -0.6120 -2.1944
   96SOL    HW2  383   1.351   1.758   1.668  0.4572 -0.5550 -3.3810
   96SOL     MW  384   1.336   1.841   1.688 -0.3305 -0.1109 -1.3413
   97SOL     OW  385   1.072   1.469   0.929 -0.0139  0.1109  0.6943
   97SOL    HW1  386   1.138   1.538   0.941  2.3943 -1.0230 -1.7372
   97SOL    HW2  387   0.992   1.517   0.903 -1.1096  1.7187 -0.0414
   97SOL     MW  388   1.070   1.484   0.927  0.1593  0.1734  0.2764
   98SOL     OW  389   1.364   1.359   1.163 -0.3890  0.3746  0.4544
   98SOL    HW1  390   1.394   1.378   1.250  1.0475  0.0736 -2.4981
   98SOL    HW2  391   1.419   1.413   1.107  2.3536  0.3237  1.6466
   98SOL     MW  392   1.375   1.368   1.167  0.1624  0.3282  0.2222
   99SOL     OW  393   1.450   0.278   1.271  0.6810 -0.3456  0.0386
   99SOL    HW1  394   1.477   0.372   1.250 -0.1983 -2.8250  1.4795
   99SOL    HW2  395   1.441   0.274   1.368 -3.1029  0.4350  2.1745
   99SOL     MW  396   1.452   0.290   1.281  0.0657 -0.5697  0.5105
  100SOL     OW  397   1.043   1.174   1.367  0.7148  0.0642 -0.7129
  100SOL    HW1  398   1.086   1.217   1.446 -1.3927  0.6364  1.0079
  100SOL    HW2  399   1.085   1.088   1.368  0.1790 -2.0491  0.5537
  100SOL     MW  400   1.054   1.169   1.377  0.3661 -0.1391 -0.3188
  101SOL     OW  401   0.529   1.199   0.387 -0.4571 -0.0420  0.2296
  101SOL    HW1  402   0.447   1.162   0.347 -2.0522  1.6147  1.2223
  101SOL    HW2  403   0.603   1.187   0.325  3.5920  1.2696  1.7581
  101SOL     MW  404   0.528   1.192   0.374 -0.1333  0.3496  0.5623
  102SOL     OW  405   2.900   0.662   1.069  0.1476 -0.4135  0.3376
  102SOL    HW1  406   2.930   0.758   1.058 -0.6417  1.3372 -1.6086
  102SOL    HW2  407   2.878   0.657   1.159  2.7811 -0.0280  2.8688
  102SOL     MW  408   2.901   0.674   1.079  0.3909 -0.1316  0.4148
  103SOL     OW  409   1.841   0.253   1.815  0.4769  0.2228  0.5931
  103SOL    HW1  410   1.832   0.158   1.790 -1.1369 -2.1355  2.0338
  103SOL    HW2  411   1.853   0.245   1.911  0.8441 -0.2138 -0.3485
  103SOL     MW  412   1.841   0.239   1.824  0.3124 -0.1460  0.6589
  104SOL     OW  413   0.070   1.524   1.643 -0.1407  0.2822  0.4418
  104SOL    HW1  414   0.124   1.449   1.681  1.8255 -1.0020 -0.2232
  104SOL    HW2  415  -0.029   1.509   1.651  3.0579 -0.1315 -0.8716
  104SOL     MW  416   0.064   1.512   1.649  0.5407  0.0582  0.1807
  105SOL     OW  417   3.065   1.223   0.410 -0.1780  0.0961 -0.0125
  105SOL    HW1  418   3.088   1.134   0.379 -1.1568  2.4616 -1.5316
  105SOL    HW2  419   3.147   1.261   0.430 -1.3205  1.2246 -2.0411
  105SOL     MW  420   3.079   1.216   0.408 -0.4579  0.5571 -0.4806
  106SOL     OW  421   0.764   0.402   0.875  0.7214 -0.7463 -0.3268
  106SOL    HW1  422   0.695   0.449   0.923  1.5415 -2.5729  0.7474
  106SOL    HW2  423   0.805   0.460   0.815 -0.4684  1.1985 -1.0295
  106SOL     MW  424   0.760   0.416   0.874  0.6726 -0.7307 -0.2778
  107SOL     OW  425   0.821   2.160   2.891  0.2778  0.3310 -0.4599
  107SOL    HW1  426   0.730   2.138   2.866  2.3051  2.4217 -0.9700
  107SOL    HW2  427   0.828   2.151   2.988  2.9989  1.8253 -0.0879
  107SOL     MW  428   0.810   2.156   2.901  0.9043  0.8040 -0.4781
  108SOL     OW  429   1.352   1.590   1.638 -0.0999 -0.1780 -0.0537
  108SOL    HW1  430   1.334   1.563   1.550 -0.3950  1.9116  4.4172
  108SOL    HW2  431   1.428   1.538   1.651 -1.3067 -1.7953  1.4438
  108SOL     MW  432   1.360   1.580   1.628 -0.2980 -0.1157  0.7338
  109SOL     OW  433   2.010   0.734   0.248  0.6708  0.8687 -0.3699
  109SOL    HW1  434   2.010   0.834   0.266 -1.1818  2.1545  0.4038
  109SOL    HW2  435   2.062   0.694   0.322  1.7686 -1.2199  0.4781
  109SOL     MW  436   2.017   0.742   0.260  0.5712  0.7628 -0.1559
  110SOL     OW  437   0.423   1.972   0.704  0.1163  0.4337 -0.1347
  110SOL    HW1  438   0.476   1.904   0.660 -0.9792 -1.9703 -0.6070
  110SOL    HW2  439   0.414   2.048   0.648  0.1986  4.8482  0.8346
  110SOL     MW  440   0.429   1.973   0.691 -0.0174  0.6990 -0.0691
  111SOL     OW  441   0.827   0.905   1.380  0.3837  0.0088 -0.4160
  111SOL    HW1  442   0.803   0.905   1.288  0.0455 -0.2384 -0.0320
  111SOL    HW2  443   0.800   0.815   1.418 -1.1979  0.8895  0.5402
  111SOL     MW  444   0.820   0.893   1.373  0.1304  0.0924 -0.2392
  112SOL     OW  445   1.375   1.067   1.596  0.3582  0.4286 -0.1306
  112SOL    HW1  446   1.300   1.133   1.594  0.5070 -1.1246  3.0100
  112SOL    HW2  447   1.324   0.990   1.622  1.6227  0.8433 -0.1912
  112SOL     MW  448   1.358   1.065   1.599  0.5446  0.2784  0.2758
  113SOL     OW  449   1.267   3.063   1.682 -0.0978 -0.3945  0.0410
  113SOL    HW1  450   1.253   3.018   1.768 -1.0061 -0.3079  1.4806
  113SOL    HW2  451   1.244   2.992   1.620  1.4984 -1.1173 -0.0072
  113SOL     MW  452   1.262   3.048   1.685 -0.0071 -0.4784  0.2246
  114SOL     OW  453   0.269   2.876   1.890 -0.0972  0.4225  0.2740
  114SOL    HW1  454   0.341   2.936   1.855  1.4511 -1.3359  2.9643
  114SOL    HW2  455   0.211   2.941   1.925  1.1919 -0.4502 -3.6675
  114SOL     MW  456   0.271   2.893   1.890  0.2771  0.0754  0.1089
  115SOL     OW  457   0.459   0.809   1.192 -0.3036  0.6010  0.1254
  115SOL    HW1  458   0.466   0.710   1.207 -1.3570  1.8314  4.4601
  115SOL    HW2  459   0.402   0.841   1.258 -2.0939 -0.0189  0.3337
  115SOL     MW  460   0.453   0.800   1.203 -0.6788  0.6815  0.7248
  116SOL     OW  461   0.780   1.089   0.985 -0.0573  0.2971 -0.4343
  116SOL    HW1  462   0.812   1.126   0.896 -2.2138 -2.1596 -2.8401
  116SOL    HW2  463   0.824   1.132   1.060 -0.0889  0.0805  2.0012
  116SOL     MW  464   0.790   1.099   0.983 -0.3460 -0.0556 -0.4304
  117SOL     OW  465   1.125   1.218   0.829  0.1478  0.4595 -0.0792
  117SOL    HW1  466   1.137   1.150   0.898  0.3205 -2.8267 -0.9692
  117SOL    HW2  467   1.091   1.305   0.866 -0.9316  2.8460  0.5675
  117SOL     MW  468   1.122   1.221   0.843  0.0282  0.3408 -0.1113
  118SOL     OW  469   3.010   2.938   1.715 -0.1263  0.3051  0.1768
  118SOL    HW1  470   3.040   2.967   1.801 -0.9958  1.0227  2.9940
  118SOL    HW2  471   2.924   2.976   1.705 -2.5052  0.7647  2.0675
  118SOL     MW  472   3.003   2.947   1.725 -0.5549  0.4604  0.7979
  119SOL     OW  473   0.410   1.530   1.243 -0.1363  0.5265 -0.7967
  119SOL    HW1  474   0.438   1.600   1.186 -0.6474  2.1360  0.1308
  119SOL    HW2  475   0.318   1.512   1.225  0.9250 -0.6529  2.6495
  119SOL     MW  476   0.402   1.537   1.233 -0.0637  0.5832 -0.2196
  120SOL     OW  477   0.241   0.778   0.987 -0.1087  0.6218  0.0362
  120SOL    HW1  478   0.254   0.769   1.082  6.6178  1.2844  0.2575
  120SOL    HW2  479   0.327   0.817   0.953  2.2859 -0.6067 -0.7312
  120SOL     MW  480   0.254   0.782   0.995  1.0948  0.5471 -0.0358
  121SOL     OW  481   1.786   1.104   1.630  0.1797  0.2178 -0.8767
  121SOL    HW1  482   1.716   1.101   1.561  4.3459  1.9626 -0.1344
  121SOL    HW2  483   1.847   1.031   1.614  2.3890 -0.9454  1.2458
  121SOL     MW  484   1.784   1.094   1.619  1.0209  0.2945 -0.4987
  122SOL     OW  485   0.181   0.578   0.827  0.3035 -0.1503 -0.2979
  122SOL    HW1  486   0.258   0.528   0.794 -2.1859 -0.3859  1.2933
  122SOL    HW2  487   0.214   0.647   0.886 -1.1190  0.6991  1.9903
  122SOL     MW  488   0.196   0.580   0.830 -0.2126 -0.0693  0.2140
  123SOL     OW  489   1.860   1.114   0.512  0.1918 -0.1663  0.3393
  123SOL    HW1  490   1.783   1.073   0.556 -0.6467 -1.3850 -1.6192
  123SOL    HW2  491   1.887   1.186   0.570  0.1906  1.7347  0.6223
  123SOL     MW  492   1.853   1.118   0.525  0.0810 -0.0763  0.1182
  124SOL     OW  493   0.525   0.540   0.963 -0.1150  0.1995  0.4140
  124SOL    HW1  494   0.497   0.526   0.871  0.9633  1.5995 -1.0079
  124SOL    HW2  495   0.588   0.612   0.956  1.8769 -1.2398  0.2196
  124SOL     MW  496   0.530   0.548   0.950  0.2901  0.1943  0.2007
  125SOL     OW  497   0.725   1.728   1.768 -0.3878 -0.0208  0.2863
  125SOL    HW1  498   0.646   1.678   1.756 -0.3124 -0.5604  2.9620
  125SOL    HW2  499   0.692   1.808   1.742 -2.4541 -2.8572 -0.0240
  125SOL     MW  500   0.710   1.732   1.763 -0.6505 -0.4662  0.5983
  126SOL     OW  501   2.139   1.513   1.959  0.0747  0.4607 -0.0161
  126SOL    HW1  502   2.219   1.559   1.941 -2.6681  0.7515  1.4408
  126SOL    HW2  503   2.161   1.423   1.963  1.2821  1.3608 -0.8542
  126SOL     MW  504   2.152   1.507   1.957 -0.1279  0.6178  0.0655
  127SOL     OW  505   0.561   0.854   1.770 -0.4060 -0.4665 -0.1235
  127SOL    HW1  506   0.650   0.817   1.783  0.9182 -1.6204  0.1805
  127SOL    HW2  507   0.530   0.892   1.859  2.5273  0.4269  1.5370
  127SOL     MW  508   0.568   0.854   1.784  0.1558 -0.5009  0.1357
  128SOL     OW  509   1.731   0.714   2.881  0.4761 -0.3544 -0.5480
  128SOL    HW1  510   1.738   0.679   2.785 -1.4931 -0.1415 -3.6101
  128SOL    HW2  511   1.701   0.807   2.881 -1.5339 -1.4798  5.1081
  128SOL     MW  512   1.728   0.722   2.869 -0.0489 -0.4748 -0.2058
  129SOL     OW  513   1.585   0.935   0.203 -0.8123  0.5214 -0.5205
  129SOL    HW1  514   1.544   0.849   0.179  0.2028  1.1292 -0.1209
  129SOL    HW2  515   1.658   0.893   0.246 -1.0936 -0.7287  1.5574
  129SOL     MW  516   1.589   0.918   0.206 -0.7155  0.4366 -0.1936
  130SOL     OW  517   0.801   1.410   0.326  0.7592  0.3227  0.0425
  130SOL    HW1  518   0.805   1.439   0.427  1.3084  3.5211 -0.2996
  130SOL    HW2  519   0.876   1.447   0.288 -0.3668 -1.0164 -0.0382
  130SOL     MW  520   0.811   1.419   0.334  0.6831  0.5680 -0.0133
  131SOL     OW  521   3.091   0.796   0.027  0.4977 -0.4559  0.6117
  131SOL    HW1  522   3.068   0.859  -0.048 -1.3444  0.2703  1.9939
  131SOL    HW2  523   3.183   0.795   0.021 -0.9631 -1.2620 -0.2997
  131SOL     MW  524   3.100   0.804   0.016  0.0619 -0.4664  0.6738
  132SOL     OW  525   2.735   0.134   1.271  0.0621 -0.3857 -0.4662
  132SOL    HW1  526   2.788   0.144   1.191  1.7161  1.9772 -0.8665
  132SOL    HW2  527   2.640   0.095   1.244 -0.6881 -1.3895  2.2714
  132SOL     MW  528   2.729   0.130   1.257  0.1813 -0.2064 -0.1578
  133SOL     OW  529   1.010   0.100   1.678 -0.1590 -0.0349 -0.4748
  133SOL    HW1  530   1.099   0.055   1.676  2.8179 -0.8707  1.0756
  133SOL    HW2  531   1.000   0.141   1.766 -0.7942 -1.9072  1.5261
  133SOL     MW  532   1.020   0.099   1.689  0.1500 -0.3922 -0.0062
  134SOL     OW  533   1.423   2.416   1.474 -0.0142  0.3737  0.0971
  134SOL    HW1  534   1.358   2.474   1.427 -2.0481  0.7737 -0.9989
  134SOL    HW2  535   1.454   2.448   1.562  0.5236 -0.8175  0.6403
  134SOL     MW  536   1.418   2.428   1.480 -0.2116  0.2693  0.0241
  135SOL     OW  537   3.015   0.980   2.943 -0.4612 -0.1251  0.6802
  135SOL    HW1  538   3.094   1.037   2.966  0.7540  0.9269  1.9684
  135SOL    HW2  539   2.961   1.050   2.901  0.7902  1.6974 -2.1186
  135SOL     MW  540   3.018   0.997   2.940 -0.1358  0.2541  0.4809
  136SOL     OW  541   0.211   2.004   0.885 -0.1789 -0.7028 -0.1407
  136SOL    HW1  542   0.148   1.963   0.821  1.7368  2.8659 -0.4658
  136SOL    HW2  543   0.291   1.997   0.836 -0.1664 -0.1543  0.5399
  136SOL     MW  544   0.213   1.998   0.870  0.0755 -0.1596 -0.0938
  137SOL     OW  545   0.701   2.049   0.568 -0.0531 -0.3972  0.5444
  137SOL    HW1  546   0.708   2.055   0.664  1.3280 -3.8077  0.2508
  137SOL    HW2  547   0.608   2.078   0.542 -1.0348 -2.5388  0.7248
  137SOL     MW  548   0.690   2.054   0.577 -0.0004 -1.1297  0.5294
  138SOL     OW  549   0.428   0.539   1.209  0.0843  0.0623  0.0941
  138SOL    HW1  550   0.334   0.521   1.224  2.3127  1.1978 -2.5329
  138SOL    HW2  551   0.447   0.511   1.121 -1.4327 -1.7951  0.8100
  138SOL     MW  552   0.418   0.533   1.200  0.1782 -0.0330 -0.1580
  139SOL     OW  553   2.809   0.568   1.352  0.0970  0.1629  0.1646
  139SOL    HW1  554   2.865   0.486   1.343 -0.9633 -0.5844  0.2792
  139SOL    HW2  555   2.847   0.600   1.437  0.2048 -0.6319  0.5040
  139SOL     MW  556   2.822   0.562   1.362 -0.0287 -0.0405  0.2245
  140SOL     OW  557   0.876   0.488   1.975  0.5037  0.1261 -0.6114
  140SOL    HW1  558   0.909   0.400   1.966  1.0521 -0.9367  0.9306
  140SOL    HW2  559   0.854   0.506   2.066  0.8437  0.3016  0.1562
  140SOL     MW  560   0.877   0.478   1.986  0.6209  0.0090 -0.3067
  141SOL     OW  561   1.008   0.674   1.662  0.6352  0.3972 -0.1783
  141SOL    HW1  562   1.056   0.596   1.642  0.5370  0.8170 -0.7122
  141SOL    HW2  563   1.076   0.742   1.675 -1.6835  0.1124 -0.5052
  141SOL     MW  564   1.023   0.672   1.661  0.3163  0.4150 -0.2919
  142SOL     OW  565   0.874   1.214   0.724  0.2918  0.2710 -0.0711
  142SOL    HW1  566   0.876   1.149   0.650  0.5893  1.5505 -2.6808
  142SOL    HW2  567   0.966   1.231   0.745  0.8933 -2.2295  0.8274
  142SOL     MW  568   0.886   1.208   0.717  0.4104  0.1099 -0.2969
  143SOL     OW  569   1.862   0.673   1.060 -0.1981 -0.3742 -0.0291
  143SOL    HW1  570   1.923   0.657   0.982  3.7838 -0.1488  1.6616
  143SOL    HW2  571   1.772   0.687   1.031 -0.7803  1.3375  0.0042
  143SOL     MW  572   1.858   0.673   1.046  0.2505 -0.1186  0.1983
  144SOL     OW  573   0.269   1.311   1.722  0.1411  0.0142  0.4572
  144SOL    HW1  574   0.330   1.382   1.701 -3.4605 -2.4636 -0.6945
  144SOL    HW2  575   0.288   1.288   1.813 -0.2127 -3.2716  1.7197
  144SOL     MW  576   0.280   1.317   1.731 -0.3807 -0.7462  0.4718
  145SOL     OW  577   0.178   0.440   1.255  0.0761  0.1690  0.1625
  145SOL    HW1  578   0.251   0.368   1.268  1.2408  0.3285 -0.2948
  145SOL    HW2  579   0.122   0.399   1.190  1.1743  0.8281  0.4726
  145SOL     MW  580   0.180   0.426   1.248  0.3747  0.2770  0.1431
  146SOL     OW  581   0.849   1.884   1.370 -0.8254 -0.2498  0.8319
  146SOL    HW1  582   0.886   1.939   1.295 -2.5619  1.2347  0.2456
  146SOL    HW2  583   0.763   1.863   1.344 -0.4852  0.0741  0.9811
  146SOL     MW  584   0.843   1.889   1.356 -1.0096 -0.0112  0.7742
  147SOL     OW  585   0.429   0.490   2.915  0.1920 -0.1203 -0.3001
  147SOL    HW1  586   0.352   0.505   2.971 -1.3404 -2.5018 -3.2966
  147SOL    HW2  587   0.430   0.563   2.852 -0.0771 -0.5833  0.8507
  147SOL     MW  588   0.419   0.502   2.914 -0.0457 -0.4956 -0.5436
  148SOL     OW  589   0.059   0.929   1.268  0.6156  0.2988  0.7691
  148SOL    HW1  590   0.141   0.947   1.305 -0.4893  0.8451 -2.6281
  148SOL    HW2  591   0.006   0.988   1.315 -1.3264 -1.9605 -0.3017
  148SOL     MW  592   0.063   0.939   1.279  0.2136  0.0728  0.1796
  149SOL     OW  593   1.576   1.174   1.466 -0.1119  0.3247  0.2407
  149SOL    HW1  594   1.492   1.136   1.517  0.4823 -2.3928 -0.4144
  149SOL    HW2  595   1.562   1.265   1.437 -0.5002 -0.7194 -0.3319
  149SOL     MW  596   1.563   1.181   1.469 -0.0847 -0.1716  0.0787
  150SOL     OW  597   1.722   1.393   0.885 -0.5698  0.2920  0.0597
  150SOL    HW1  598   1.800   1.337   0.872  1.1999 -0.2860  0.0036
  150SOL    HW2  599   1.766   1.475   0.904  3.3082 -1.6806  0.0689
  150SOL     MW  600   1.738   1.397   0.886  0.1754 -0.0446  0.0535
  151SOL     OW  601   1.683   1.835   0.817 -0.3121  0.6841 -0.1378
  151SOL    HW1  602   1.647   1.834   0.727 -0.2623 -0.4063  0.1179
  151SOL    HW2  603   1.614   1.802   0.869  1.8980 -0.6153  0.1891
  151SOL     MW  604   1.669   1.830   0.812 -0.0140  0.3688 -0.0609
  152SOL     OW  605   0.731   1.444   1.616 -0.8051 -0.1093 -0.4623
  152SOL    HW1  606   0.743   1.496   1.531  1.4915 -2.6425 -2.1071
  152SOL    HW2  607   0.739   1.349   1.584 -0.2151 -2.0349 -1.2094
  152SOL     MW  608   0.734   1.438   1.601 -0.4242 -0.6976 -0.7779
  153SOL     OW  609   2.574   1.224   0.749  0.1370  0.2228  0.0648
  153SOL    HW1  610   2.631   1.172   0.690 -2.2006 -0.3836  0.7229
  153SOL    HW2  611   2.522   1.147   0.786  0.9088  2.3730  1.9279
  153SOL     MW  612   2.575   1.207   0.746 -0.0696  0.4265  0.3975
  154SOL     OW  613   0.103   1.758   1.778 -0.0754 -0.1487 -0.2576
  154SOL    HW1  614   0.095   1.672   1.751 -0.6453  0.8579 -0.5051
  154SOL    HW2  615   0.200   1.756   1.805 -2.8578  0.7453 -0.4856
  154SOL     MW  616   0.114   1.746   1.778 -0.5177  0.1020 -0.3204
  155SOL     OW  617   1.210   0.766   0.309  0.3270  0.0641 -0.2853
  155SOL    HW1  618   1.170   0.736   0.395  0.4487 -0.3305  0.5152
  155SOL    HW2  619   1.221   0.859   0.331  1.7423 -0.8119 -0.3603
  155SOL     MW  620   1.206   0.775   0.323  0.5298 -0.1036 -0.1896
  156SOL     OW  621   1.555   3.082   1.109 -0.3319  0.7894 -0.1761
  156SOL    HW1  622   1.624   3.136   1.149  2.0216 -3.1337  0.2068
  156SOL    HW2  623   1.593   2.998   1.093 -0.5287  0.3663  0.1974
  156SOL     MW  624   1.569   3.078   1.112 -0.0473  0.2160 -0.0763
  157SOL     OW  625   1.411   1.137   0.119  0.4614 -0.2808  0.5863
  157SOL    HW1  626   1.466   1.055   0.142  0.3817 -2.0510 -1.7060
  157SOL    HW2  627   1.454   1.219   0.138  0.1156 -2.0514 -1.5151
  157SOL     MW  628   1.424   1.137   0.125  0.4053 -0.7480  0.0066
  158SOL     OW  629   0.444   1.700   2.281 -0.0690 -0.2711 -0.0481
  158SOL    HW1  630   0.455   1.747   2.198  3.3734 -0.7412 -0.8419
  158SOL    HW2  631   0.352   1.699   2.304  0.2755  0.7281 -2.1413
  158SOL     MW  632   0.433   1.706   2.273  0.4306 -0.2013 -0.4290
  159SOL     OW  633   1.198   1.612   0.494 -0.3562  0.2688  0.2138
  159SOL    HW1  634   1.133   1.591   0.424 -0.2149  0.1782 -1.4231
  159SOL    HW2  635   1.157   1.687   0.545  0.3620 -0.0087  1.1073
  159SOL     MW  636   1.184   1.619   0.491 -0.2428  0.2203  0.1157
  160SOL     OW  637   0.515   1.226   1.548 -0.4537 -0.5786 -0.1646
  160SOL    HW1  638   0.450   1.161   1.585 -1.0168 -1.0227 -0.6208
  160SOL    HW2  639   0.599   1.177   1.556  0.3052  1.2376  1.5803
  160SOL     MW  640   0.517   1.211   1.554 -0.4279 -0.3976  0.0054
  161SOL     OW  641   0.446   2.243   2.594 -0.6547  0.8034  1.1874
  161SOL    HW1  642   0.359   2.287   2.565 -0.5055 -3.4049 -0.9190
  161SOL    HW2  643   0.468   2.165   2.529  2.9576 -0.1304 -2.1931
  161SOL     MW  644   0.437   2.239   2.582 -0.1584  0.1249  0.4634
  162SOL     OW  645   1.077   1.816   1.804  0.1121 -0.6486  0.0425
  162SOL    HW1  646   1.071   1.909   1.807 -3.3575 -1.2915 -1.3894
  162SOL    HW2  647   1.012   1.794   1.870 -2.1081 -0.1529 -3.0466
  162SOL     MW  648   1.068   1.825   1.813 -0.6386 -0.6680 -0.5540
  163SOL     OW  649   2.109   3.073   0.852  0.4324  0.4513 -0.2405
  163SOL    HW1  650   2.112   3.146   0.782  0.3785 -2.5949 -0.7299
  163SOL    HW2  651   2.062   2.995   0.814  0.7311 -1.0573 -1.1304
  163SOL     MW  652   2.104   3.073   0.838  0.4647 -0.1496 -0.4225
  164SOL     OW  653   0.293   0.199   0.785  0.0443  0.0659 -0.0577
  164SOL    HW1  654   0.202   0.199   0.813 -1.0489 -0.4584  0.0478
  164SOL    HW2  655   0.296   0.118   0.741 -0.0607  1.2471  1.1311
  164SOL     MW  656   0.281   0.189   0.783 -0.1138  0.1526  0.1131
  165SOL     OW  657   1.189   1.315   0.324 -0.1179 -0.3482 -0.1921
  165SOL    HW1  658   1.217   1.276   0.411  2.6002 -2.1383  0.8723
  165SOL    HW2  659   1.229   1.251   0.268 -0.0166  1.6656  0.4757
  165SOL     MW  660   1.198   1.301   0.328  0.2541 -0.3187  0.0364
  166SOL     OW  661   0.527   1.140   1.025 -0.7740 -0.4562  0.7200
  166SOL    HW1  662   0.503   1.171   1.110  2.5961 -0.1037  0.3247
  166SOL    HW2  663   0.630   1.126   1.018 -0.6410 -0.5718  1.1363
  166SOL     MW  664   0.538   1.142   1.035 -0.3118 -0.4249  0.7228
  167SOL     OW  665   0.792   1.158   0.255 -0.2082  0.4541  0.4101
  167SOL    HW1  666   0.790   1.258   0.267  0.6737 -0.7834 -0.3229
  167SOL    HW2  667   0.880   1.148   0.213  1.3419  0.6818  0.0500
  167SOL     MW  668   0.803   1.170   0.251  0.1126  0.3209  0.2659
  168SOL     OW  669   1.735   1.648   3.042 -0.6447 -0.9918  0.0934
  168SOL    HW1  670   1.670   1.710   3.007 -0.7517  1.7271 -1.1024
  168SOL    HW2  671   1.712   1.566   2.995 -1.0798  0.2993 -1.9612
  168SOL     MW  672   1.723   1.646   3.031 -0.7162 -0.4628 -0.3354
  169SOL     OW  673   0.315   0.947   1.358  0.5356  0.3642  0.4906
  169SOL    HW1  674   0.344   0.956   1.456  3.7094  1.3022  0.1993
  169SOL    HW2  675   0.376   0.994   1.302 -0.8099 -2.5745 -1.6246
  169SOL     MW  676   0.327   0.955   1.364  0.7768  0.1002  0.1731
  170SOL     OW  677   1.183   1.499   1.445 -0.3343  0.3786  0.0463
  170SOL    HW1  678   1.132   1.559   1.495 -0.4474  1.7231 -1.1658
  170SOL    HW2  679   1.144   1.516   1.360 -3.1276 -0.9798  0.2391
  170SOL     MW  680   1.171   1.509   1.440 -0.7178  0.3768 -0.0882
  171SOL     OW  681   0.534   1.446   0.489  0.0777  0.9670 -0.6156
  171SOL    HW1  682   0.462   1.436   0.542  3.1795 -1.5830  0.3811
  171SOL    HW2  683   0.535   1.360   0.442 -1.2327 -1.8599  0.4272
  171SOL     MW  684   0.524   1.433   0.490  0.3141  0.2576 -0.3465
  172SOL     OW  685   0.783   0.236   1.242 -0.5220  0.0022  0.1444
  172SOL    HW1  686   0.759   0.185   1.161 -0.7824 -2.6588 -2.2414
  172SOL    HW2  687   0.824   0.169   1.304 -2.1037  0.4370  3.0536
  172SOL     MW  688   0.786   0.221   1.239 -0.7650 -0.2915  0.2135
  173SOL     OW  689   0.521   1.753   0.304  0.6719 -0.9541  0.7474
  173SOL    HW1  690   0.547   1.663   0.265 -1.2539 -0.4839  2.3434
  173SOL    HW2  691   0.535   1.753   0.396  2.0711  0.2431 -0.2451
  173SOL     MW  692   0.526   1.741   0.311  0.6024 -0.7341  0.8270
  174SOL     OW  693   1.848   0.864   1.499  0.6959  0.0706  0.8096
  174SOL    HW1  694   1.796   0.786   1.529  0.3211 -0.5813 -0.1963
  174SOL    HW2  695   1.823   0.882   1.404  1.1929  2.3739  0.0989
  174SOL     MW  696   1.838   0.856   1.490  0.7120  0.2885  0.5831
  175SOL     OW  697   0.556   1.517   0.146 -0.3707 -0.4606 -0.1517
  175SOL    HW1  698   0.488   1.445   0.163  2.9262 -2.9874 -2.1206
  175SOL    HW2  699   0.637   1.484   0.178  0.4495  2.2969 -4.1619
  175SOL     MW  700   0.558   1.503   0.152  0.1725 -0.4302 -0.9406
  176SOL     OW  701   0.157   1.470   1.165 -0.0809  0.4016  0.2115
  176SOL    HW1  702   0.145   1.423   1.073 -1.9467 -1.4427 -2.9368
  176SOL    HW2  703   0.090   1.436   1.219  0.5627 -0.6750 -0.3619
  176SOL     MW  704   0.147   1.459   1.160 -0.2421  0.0162 -0.2795
  177SOL     OW  705   0.526   0.328   1.460  0.4585  0.2260  0.2612
  177SOL    HW1  706   0.573   0.352   1.383  0.1904 -0.3117  1.8681
  177SOL    HW2  707   0.519   0.410   1.511  0.3372  1.9002 -1.3955
  177SOL     MW  708   0.531   0.342   1.456  0.4071  0.3759  0.2546
  178SOL     OW  709   0.010   0.483   2.990 -0.2481  0.2660 -0.0621
  178SOL    HW1  710  -0.036   0.502   3.067  0.4019  0.2135  2.3131
  178SOL    HW2  711  -0.064   0.480   2.928  2.0771 -0.2854 -2.4392
  178SOL     MW  712  -0.006   0.485   2.992  0.1445  0.1863 -0.0624
  179SOL     OW  713   1.553   1.441   1.387  0.3898  0.5467 -0.1298
  179SOL    HW1  714   1.555   1.459   1.483 -0.1160 -0.3037 -0.1156
  179SOL    HW2  715   1.636   1.442   1.346 -2.1338 -0.6943 -0.3879
  179SOL     MW  716   1.564   1.443   1.394 -0.0099  0.2708 -0.1620
  180SOL     OW  717   3.012   0.293   0.474  0.6268  0.3892 -1.0042
  180SOL    HW1  718   2.963   0.299   0.395  2.0400 -0.1751  1.2661
  180SOL    HW2  719   3.083   0.352   0.459 -3.6649  1.6455 -0.4790
  180SOL     MW  720   3.015   0.302   0.462  0.2470  0.4805 -0.6354
  181SOL     OW  721   1.124   1.282   3.089 -0.1385 -0.0609 -0.0150
  181SOL    HW1  722   1.193   1.341   3.127  0.0257 -1.9681  1.6913
  181SOL    HW2  723   1.146   1.247   3.006 -1.8529 -0.2661  3.1339
  181SOL     MW  724   1.136   1.285   3.083 -0.3430 -0.3396  0.6256
  182SOL     OW  725   0.375   0.984   1.624 -0.3057 -0.1210  0.0287
  182SOL    HW1  726   0.295   0.957   1.678 -0.2686 -2.2931 -1.4116
  182SOL    HW2  727   0.449   0.945   1.670 -1.1546  0.0278  2.7656
  182SOL     MW  728   0.374   0.975   1.637 -0.4128 -0.3880  0.1998
  183SOL     OW  729   1.534   1.715   1.262  0.0723  0.0130 -0.6693
  183SOL    HW1  730   1.627   1.710   1.278 -2.5881 -0.3170 -0.5468
  183SOL    HW2  731   1.483   1.656   1.317  0.0517 -0.4562  1.0030
  183SOL     MW  732   1.540   1.706   1.272 -0.2814 -0.0924 -0.4325
  184SOL     OW  733   0.796   0.711   1.829 -0.0716  0.3400 -0.6027
  184SOL    HW1  734   0.873   0.697   1.775 -0.9359  1.0361  0.9867
  184SOL    HW2  735   0.763   0.620   1.846 -1.0654 -0.6116 -1.9393
  184SOL     MW  736   0.802   0.697   1.824 -0.3167  0.3063 -0.5693
  185SOL     OW  737   1.064   0.940   1.874 -0.0189 -0.0713  0.4003
  185SOL    HW1  738   1.062   0.860   1.926  2.0096  2.9546  2.1756
  185SOL    HW2  739   1.126   0.989   1.927  0.1808 -1.0083  1.2237
  185SOL     MW  740   1.072   0.936   1.888  0.2751  0.2043  0.7432
  186SOL     OW  741   0.314   1.649   1.481  0.1446 -0.0888  0.4521
  186SOL    HW1  742   0.345   1.609   1.400 -3.5209 -0.6191  0.7795
  186SOL    HW2  743   0.238   1.604   1.516  0.7153  0.5365 -2.7674
  186SOL     MW  744   0.308   1.638   1.475 -0.2637 -0.0762  0.0705
  187SOL     OW  745   1.469   0.766   1.384 -0.6174  0.4459  0.1864
  187SOL    HW1  746   1.515   0.720   1.454 -0.1714 -1.2754 -0.1602
  187SOL    HW2  747   1.373   0.749   1.381 -0.0734  0.2331 -2.2213
  187SOL     MW  748   1.462   0.758   1.393 -0.4868  0.1907 -0.1770
  188SOL     OW  749   1.947   1.211   0.831 -0.5171 -0.2366  0.0711
  188SOL    HW1  750   1.934   1.162   0.919 -1.2806 -0.5072  1.6652
  188SOL    HW2  751   1.973   1.136   0.782  0.4343 -0.7745  1.4489
  188SOL     MW  752   1.949   1.195   0.836 -0.4923 -0.3432  0.4632
  189SOL     OW  753   0.694   0.742   0.838 -0.2155 -0.2901  0.5210
  189SOL    HW1  754   0.615   0.792   0.839 -2.3130 -0.0685  0.8556
  189SOL    HW2  755   0.746   0.763   0.917  0.3304 -1.5037  1.9293
  189SOL     MW  756   0.690   0.752   0.848 -0.4202 -0.4210  0.7509
  190SOL     OW  757   1.878   0.298   2.101 -0.3182 -0.3703 -0.4318
  190SOL    HW1  758   1.881   0.250   2.186  2.7894 -2.0901 -1.3005
  190SOL    HW2  759   1.966   0.336   2.112 -0.9440 -4.4540  1.3265
  190SOL     MW  760   1.890   0.297   2.114  0.0093 -1.1360 -0.3144
  191SOL     OW  761   1.528   1.005   1.254  0.1094 -0.6588 -0.6389
  191SOL    HW1  762   1.550   1.069   1.324  0.2679 -0.6029 -0.4810
  191SOL    HW2  763   1.496   0.926   1.302 -1.9636  0.9127  2.2111
  191SOL     MW  764   1.527   1.003   1.269 -0.1432 -0.4441 -0.2420
  192SOL     OW  765   0.522   2.156   2.881 -0.4066  0.3882 -0.2289
  192SOL    HW1  766   0.478   2.166   2.801 -0.5234 -0.7160  1.0905
  192SOL    HW2  767   0.523   2.064   2.896  1.8750  0.8388  2.5230
  192SOL     MW  768   0.516   2.145   2.872 -0.1210  0.3019  0.3082
  193SOL     OW  769   0.874   1.600   0.798 -0.4546  0.2457 -0.6951
  193SOL    HW1  770   0.788   1.587   0.828  2.4029 -0.4575  2.9999
  193SOL    HW2  771   0.886   1.561   0.712 -1.2261  1.2379  1.7739
  193SOL     MW  772   0.864   1.593   0.791 -0.1794  0.2838  0.1182
  194SOL     OW  773   0.497   1.306   0.817 -0.0801  0.2659 -0.2678
  194SOL    HW1  774   0.498   1.254   0.900  1.3006 -1.2500  0.2378
  194SOL    HW2  775   0.408   1.303   0.783  1.3765  1.9225  0.5541
  194SOL     MW  776   0.486   1.299   0.824  0.2942  0.2845 -0.0927
  195SOL     OW  777   1.300   1.098   2.935  0.2464 -0.0051  0.2713
  195SOL    HW1  778   1.342   1.125   3.013 -0.4623 -2.4631 -0.4364
  195SOL    HW2  779   1.236   1.028   2.953 -1.7068  1.1247  0.2788
  195SOL     MW  780   1.297   1.092   2.948 -0.1048 -0.1803  0.1789
  196SOL     OW  781   2.270   0.984   0.564  0.0100  0.3957  0.2063
  196SOL    HW1  782   2.222   0.929   0.508  1.5602  1.3648  2.9298
  196SOL    HW2  783   2.234   1.074   0.549  0.3244  2.1865 -1.5467
  196SOL     MW  784   2.259   0.989   0.555  0.2560  0.7599  0.3343
  197SOL     OW  785   0.606   1.282   2.215  0.7873  0.2991 -0.0724
  197SOL    HW1  786   0.636   1.201   2.173 -1.6650  1.9567  0.5373
  197SOL    HW2  787   0.672   1.338   2.178  2.3654 -0.9086  0.0255
  197SOL     MW  788   0.619   1.279   2.204  0.6719  0.3585  0.0210
  198SOL     OW  789   2.917   1.423   1.021 -0.5240 -0.6864 -0.6821
  198SOL    HW1  790   2.873   1.503   0.987 -0.3082  1.1279  0.6681
  198SOL    HW2  791   2.847   1.351   1.015 -3.1051  1.5465 -0.8593
  198SOL     MW  792   2.902   1.424   1.016 -0.8361 -0.1524 -0.5273
  199SOL     OW  793   0.747   1.319   1.856 -0.0954 -0.2120  0.0161
  199SOL    HW1  794   0.654   1.297   1.863 -0.8477 -1.7064  2.8776
  199SOL    HW2  795   0.745   1.385   1.786 -0.7814 -0.1811  0.8525
  199SOL     MW  796   0.734   1.325   1.848 -0.2851 -0.4051  0.5040
  200SOL     OW  797   1.838   2.922   1.362 -0.1589  0.0150 -0.2351
  200SOL    HW1  798   1.902   2.961   1.293  0.5123  0.6735 -0.6691
  200SOL    HW2  799   1.777   2.986   1.379  5.1908 -2.1962 -2.7483
  200SOL     MW  800   1.838   2.936   1.355  0.6355 -0.1899 -0.6240
  201SOL     OW  801   1.108   0.329   0.750  0.6927  0.2142  0.7945
  201SOL    HW1  802   1.080   0.241   0.776 -0.4863  1.3819  0.2805
  201SOL    HW2  803   1.203   0.338   0.777  0.7204 -2.8041  1.0793
  201SOL     MW  804   1.117   0.318   0.757  0.5408 -0.0300  0.7643
  202SOL     OW  805   1.481   1.774   0.994  0.3553 -0.2356  0.6293
  202SOL    HW1  806   1.488   1.676   0.973 -0.9017 -0.5593  0.6265
  202SOL    HW2  807   1.495   1.770   1.086 -1.3583  0.2232 -2.2823
  202SOL     MW  808   1.484   1.760   1.004 -0.0366 -0.2178  0.2448
  203SOL     OW  809   2.986   0.360   1.362  0.1592 -0.4257 -0.7461
  203SOL    HW1  810   3.038   0.280   1.349 -2.7924 -1.9008  1.9397
  203SOL    HW2  811   3.054   0.404   1.415 -0.3989  2.7094 -2.6502
  203SOL     MW  812   3.002   0.355   1.367 -0.3039 -0.2067 -0.6430
  204SOL     OW  813   1.046   1.781   0.624 -0.2730 -0.1043  0.1122
  204SOL    HW1  814   1.030   1.725   0.696 -1.5193 -0.7133 -1.4759
  204SOL    HW2  815   0.965   1.780   0.571  0.4813  0.6691 -0.9515
  204SOL     MW  816   1.033   1.773   0.627 -0.3379 -0.0826 -0.2377
  205SOL     OW  817   1.362   3.028   1.331  0.6769 -0.2485  0.0705
  205SOL    HW1  818   1.396   3.064   1.249  3.8711 -0.2940 -0.4079
  205SOL    HW2  819   1.289   3.085   1.364  0.4744  1.0498 -1.3460
  205SOL     MW  820   1.357   3.040   1.324  1.0716 -0.0832 -0.1795
  206SOL     OW  821   0.418   3.037   1.357 -0.2301 -0.9521 -0.3905
  206SOL    HW1  822   0.392   3.037   1.266 -1.9339  1.7360  0.9737
  206SOL    HW2  823   0.514   3.042   1.367  0.9783  0.5070 -0.5784
  206SOL     MW  824   0.427   3.037   1.347 -0.2955 -0.4049 -0.2353
  207SOL     OW  825   0.892   1.731   0.183 -0.0998  0.7827  0.4154
  207SOL    HW1  826   0.932   1.810   0.150  2.1188  1.0069  4.1796
  207SOL    HW2  827   0.961   1.667   0.189 -0.0775  0.1694  2.6996
  207SOL     MW  828   0.907   1.733   0.179  0.1959  0.7313  1.2134
  208SOL     OW  829   0.777   1.597   1.395  1.0308  0.4658 -0.2660
  208SOL    HW1  830   0.863   1.621   1.418 -0.1538 -1.9064  0.2885
  208SOL    HW2  831   0.790   1.589   1.295  2.3355 -1.9024 -0.9121
  208SOL     MW  832   0.790   1.599   1.385  1.0466 -0.1597 -0.2781
  209SOL     OW  833   1.520   0.511   2.850  0.2050  0.1197 -0.0021
  209SOL    HW1  834   1.568   0.598   2.861 -0.3681  0.8053  0.4782
  209SOL    HW2  835   1.589   0.442   2.866  1.5384  0.2834  0.9801
  209SOL     MW  836   1.536   0.513   2.854  0.3053  0.2317  0.1909
  210SOL     OW  837   1.488   1.523   0.958  0.3170 -0.4938  0.3535
  210SOL    HW1  838   1.575   1.488   0.944  0.8185  2.0526  2.4338
  210SOL    HW2  839   1.443   1.506   0.872  0.7842  0.7942 -1.8411
  210SOL     MW  840   1.494   1.516   0.945  0.4448  0.0121  0.3384
  211SOL     OW  841   1.734   0.314   0.975  0.5134  0.6767 -0.2579
  211SOL    HW1  842   1.739   0.350   0.887 -1.4282  0.4556 -0.6699
  211SOL    HW2  843   1.821   0.327   1.021  1.7676 -2.0762  0.7040
  211SOL     MW  844   1.746   0.321   0.969  0.4227  0.2843 -0.1853
  212SOL     OW  845   0.310   1.104   0.260  0.1179  0.2215  0.6160
  212SOL    HW1  846   0.229   1.056   0.288  0.1101 -0.3672  2.0264
  212SOL    HW2  847   0.334   1.046   0.184  0.1206  0.3778  2.6157
  212SOL     MW  848   0.303   1.090   0.253  0.1172  0.1645  1.0659
  213SOL     OW  849   0.385   1.820   3.027 -0.6594  0.8350  0.1993
  213SOL    HW1  850   0.434   1.857   3.106  1.3139  0.0659  2.5632
  213SOL    HW2  851   0.441   1.846   2.947 -1.1099 -0.1814 -0.2926
  213SOL     MW  852   0.399   1.828   3.027 -0.4585  0.5995  0.4463
  214SOL     OW  853   0.614   0.307   2.125 -0.6443 -0.2846 -0.2469
  214SOL    HW1  854   0.552   0.388   2.135 -0.3687 -2.4987  2.1809
  214SOL    HW2  855   0.646   0.293   2.033  0.8253 -0.8097  1.0900
  214SOL     MW  856   0.610   0.316   2.114 -0.4141 -0.6460  0.2498
  215SOL     OW  857   0.493   0.563   2.559 -0.2294 -0.4418 -0.5732
  215SOL    HW1  858   0.509   0.590   2.465  0.0181 -0.7609 -0.3723
  215SOL    HW2  859   0.413   0.613   2.574  0.9303 -1.4371  1.1924
  215SOL     MW  860   0.485   0.573   2.549 -0.0437 -0.6152 -0.3137
  216SOL     OW  861   2.952   3.066   2.713 -0.6104 -0.3614  0.2119
  216SOL    HW1  862   2.914   3.045   2.801  0.4968  1.3066  1.0049
  216SOL    HW2  863   2.962   3.166   2.711 -0.5151  2.6497  0.6570
  216SOL     MW  864   2.948   3.076   2.724 -0.4517  0.2560  0.3752
  217SOL     OW  865   1.032   1.072   0.144  0.2589 -0.0699  0.2187
  217SOL    HW1  866   1.033   1.006   0.071  1.1151  2.5431  1.3253
  217SOL    HW2  867   1.064   1.150   0.095 -0.4935  1.2526 -1.3837
  217SOL     MW  868   1.037   1.074   0.128  0.2726  0.4493  0.1533
  218SOL     OW  869   0.851   1.385   2.679  0.1669 -0.3852 -0.4596
  218SOL    HW1  870   0.857   1.331   2.757 -3.0894 -0.5086  0.5221
  218SOL    HW2  871   0.932   1.435   2.660  0.5995  0.7430 -0.9150
  218SOL     MW  872   0.863   1.384   2.687 -0.2056 -0.2526 -0.3901
  219SOL     OW  873   1.046   0.407   2.614  0.1048  0.1905  0.3057
  219SOL    HW1  874   1.116   0.472   2.643 -1.8989  0.7105 -1.4653
  219SOL    HW2  875   0.968   0.462   2.596 -0.8865  2.4358 -1.3118
  219SOL     MW  876   1.045   0.423   2.616 -0.2903  0.5554 -0.1413
  220SOL     OW  877   1.708   0.533   2.200  0.0351 -0.1064 -0.4694
  220SOL    HW1  878   1.629   0.556   2.147 -1.4683 -0.5603 -1.8538
  220SOL    HW2  879   1.749   0.466   2.140  2.3082 -1.5559 -0.6130
  220SOL     MW  880   1.703   0.527   2.185  0.1367 -0.3575 -0.6710
  221SOL     OW  881   0.345   1.305   2.922  0.0927  0.4615  0.4314
  221SOL    HW1  882   0.429   1.261   2.908 -1.8745  0.1481  1.0010
  221SOL    HW2  883   0.362   1.392   2.898 -1.1694 -0.9928  0.1294
  221SOL     MW  884   0.358   1.311   2.917 -0.3334  0.2283  0.4667
  222SOL     OW  885   0.506   0.969   2.687 -0.1372  0.5229  0.2811
  222SOL    HW1  886   0.429   1.001   2.642  1.3150  1.0091 -0.1825
  222SOL    HW2  887   0.496   0.880   2.707  1.1280  0.2843 -0.1392
  222SOL     MW  888   0.494   0.961   2.684  0.2213  0.5555  0.1645
  223SOL     OW  889  -0.002   2.032   2.575  0.2444  0.4029 -0.1277
  223SOL    HW1  890   0.052   1.999   2.648  0.3768 -0.5777 -1.3469
  223SOL    HW2  891   0.034   2.114   2.558  0.3392  0.4652 -0.2265
  223SOL     MW  892   0.010   2.039   2.583  0.2744  0.2817 -0.3016
  224SOL     OW  893   1.440   0.709   2.469 -0.2497 -0.2503 -0.3023
  224SOL    HW1  894   1.479   0.718   2.558  2.6933 -2.2156  2.0357
  224SOL    HW2  895   1.430   0.805   2.443 -2.0478  1.7391 -1.7246
  224SOL     MW  896   1.444   0.723   2.478 -0.0986 -0.2471 -0.1815
  225SOL     OW  897   2.960   1.443   2.270 -0.0568  0.4484 -0.1424
  225SOL    HW1  898   2.990   1.515   2.211 -0.0148 -0.6543 -0.3858
  225SOL    HW2  899   2.912   1.488   2.344 -1.2107 -1.9627  0.9738
  225SOL     MW  900   2.957   1.459   2.272 -0.2035 -0.0152 -0.0272
  226SOL     OW  901   0.398   1.499   2.713 -0.0092 -0.5851 -0.1708
  226SOL    HW1  902   0.490   1.500   2.687  0.2285  1.1070 -2.1880
  226SOL    HW2  903   0.371   1.594   2.725  1.9033 -1.2338  1.2492
  226SOL     MW  904   0.407   1.512   2.711  0.2745 -0.4475 -0.2496
  227SOL     OW  905   0.587   1.127   2.888 -0.2711 -0.3191 -0.0305
  227SOL    HW1  906   0.680   1.161   2.883 -1.4716  0.6022  1.1336
  227SOL    HW2  907   0.574   1.058   2.825  1.7337 -0.5307 -1.7912
  227SOL     MW  908   0.597   1.123   2.879 -0.1650 -0.2254 -0.1093
  228SOL     OW  909   0.767   1.126   2.048  0.4276 -0.2862  0.0440
  228SOL    HW1  910   0.775   1.202   1.988 -1.1827 -0.0251  2.4312
  228SOL    HW2  911   0.827   1.150   2.123 -2.2150 -0.4789  2.1432
  228SOL     MW  912   0.776   1.139   2.050 -0.1335 -0.2771  0.6360
  229SOL     OW  913   0.235   0.593   3.095  0.0589 -0.0901 -0.1068
  229SOL    HW1  914   0.152   0.574   3.034  0.6241 -4.6425 -1.6376
  229SOL    HW2  915   0.223   0.518   3.154 -0.8608 -1.1454 -0.0075
  229SOL     MW  916   0.222   0.581   3.095  0.0122 -0.8300 -0.2957
  230SOL     OW  917   1.806   1.366   1.984  0.1888  0.3114  0.3765
  230SOL    HW1  918   1.779   1.330   2.071 -2.1839 -1.5144  2.7120
  230SOL    HW2  919   1.830   1.299   1.922 -4.9279  0.5824  0.9625
  230SOL     MW  920   1.805   1.353   1.987 -0.7993  0.1062  0.7620
  231SOL     OW  921   2.734   1.283   2.226 -0.1958 -0.3435  0.7705
  231SOL    HW1  922   2.821   1.317   2.238 -1.6656 -1.4624 -0.1498
  231SOL    HW2  923   2.703   1.306   2.136  3.2125  1.0375  1.2079
  231SOL     MW  924   2.742   1.290   2.216  0.0600 -0.3089  0.7068
  232SOL     OW  925   2.297   0.817   1.972  0.2124  0.1071 -0.0418
  232SOL    HW1  926   2.231   0.836   1.910 -0.5106 -2.0815 -1.2221
  232SOL    HW2  927   2.254   0.818   2.060  0.7510 -2.3928  0.2660
  232SOL     MW  928   2.283   0.819   1.975  0.1880 -0.5115 -0.1570
  233SOL     OW  929   2.111   0.442   2.095 -0.0249 -0.3393  0.1741
  233SOL    HW1  930   2.160   0.363   2.068  1.8731  0.4131 -0.3173
  233SOL    HW2  931   2.185   0.509   2.119  0.9231  2.4334 -0.7587
  233SOL     MW  932   2.127   0.440   2.095  0.3506  0.1258 -0.0138
  234SOL     OW  933   0.258   1.029   2.607 -0.2750  0.2386  0.1398
  234SOL    HW1  934   0.184   1.008   2.546  2.8270 -0.6659 -2.2360
  234SOL    HW2  935   0.278   1.115   2.573 -1.1124 -0.7574  1.2144
  234SOL     MW  936   0.250   1.037   2.594  0.0238 -0.0122 -0.0319
  235SOL     OW  937   1.040   3.011   2.814  0.7258 -0.4129  0.0463
  235SOL    HW1  938   1.117   2.985   2.856 -0.1924 -0.7062 -0.8974
  235SOL    HW2  939   1.036   3.102   2.846  0.1964 -0.1702  0.9215
  235SOL     MW  940   1.050   3.019   2.824  0.5348 -0.4196  0.0372
  236SOL     OW  941   2.935   0.605   0.164  0.3784  0.1087  0.5509
  236SOL    HW1  942   2.937   0.642   0.253  0.6793  1.1860  0.0045
  236SOL    HW2  943   2.981   0.661   0.100  1.0813  1.1267  0.6802
  236SOL     MW  944   2.941   0.617   0.167  0.5109  0.3852  0.4959
  237SOL     OW  945   1.958   1.052   2.154  0.0299  0.0852 -0.5334
  237SOL    HW1  946   1.874   1.036   2.112  1.7404  0.5232  0.8929
  237SOL    HW2  947   2.010   0.985   2.112 -2.5303  2.1507  1.4826
  237SOL     MW  948   1.954   1.041   2.142 -0.0822  0.4155 -0.0792
  238SOL     OW  949   1.083   1.764   2.968  0.3659  0.3328  0.2828
  238SOL    HW1  950   1.037   1.712   2.899 -1.0589 -0.1352 -0.5204
  238SOL    HW2  951   1.167   1.717   2.967  0.8338 -0.3180 -0.6243
  238SOL     MW  952   1.088   1.751   2.959  0.2397  0.1852  0.0572
  239SOL     OW  953   1.181   1.298   2.264  0.0574  0.0899  0.0740
  239SOL    HW1  954   1.089   1.275   2.246 -0.2298 -0.5177 -0.1878
  239SOL    HW2  955   1.178   1.281   2.355  0.8512  1.5676 -1.4041
  239SOL     MW  956   1.169   1.293   2.274  0.1242  0.2047 -0.1555
  240SOL     OW  957   0.608   0.871   2.202 -0.3302  0.4170  0.4493
  240SOL    HW1  958   0.615   0.924   2.289 -0.1207 -0.6416 -0.8376
  240SOL    HW2  959   0.701   0.842   2.183  0.5047 -0.5268 -3.1019
  240SOL     MW  960   0.622   0.874   2.211 -0.1924  0.1528 -0.1890
  241SOL     OW  961   0.690   0.458   3.046  0.0110 -0.1625  0.1947
  241SOL    HW1  962   0.699   0.537   3.097 -0.4158 -1.4364 -1.5527
  241SOL    HW2  963   0.606   0.458   3.008  0.3110 -1.3918 -0.3556
  241SOL     MW  964   0.680   0.468   3.048 -0.0058 -0.4928 -0.1085
  242SOL     OW  965   1.507   1.690   2.300 -0.2825  0.1780  0.4188
  242SOL    HW1  966   1.448   1.763   2.312 -2.3654  0.0997  0.9305
  242SOL    HW2  967   1.451   1.623   2.252  1.5375  0.6461  0.5165
  242SOL     MW  968   1.492   1.691   2.295 -0.3172  0.2294  0.4992
  243SOL     OW  969   1.017   0.337   2.366  0.4822  0.1548 -0.3275
  243SOL    HW1  970   1.103   0.345   2.322  2.9640 -2.8666 -1.6207
  243SOL    HW2  971   1.037   0.357   2.459  1.5762 -0.2995  2.4091
  243SOL     MW  972   1.031   0.341   2.373  0.9540 -0.3038 -0.1370
  244SOL     OW  973   0.127   0.764   2.378 -0.4949 -0.2024  0.2616
  244SOL    HW1  974   0.094   0.851   2.387 -1.7343  2.2767  1.3928
  244SOL    HW2  975   0.220   0.778   2.355 -1.1663 -0.6497 -1.3659
  244SOL     MW  976   0.135   0.778   2.376 -0.7470  0.0657  0.1961
  245SOL     OW  977   1.281   0.209   2.359  0.3331  0.2648  0.3694
  245SOL    HW1  978   1.376   0.194   2.332  1.2504 -1.1747  1.4451
  245SOL    HW2  979   1.258   0.128   2.397  1.1365  0.0973 -0.4464
  245SOL     MW  980   1.290   0.196   2.361  0.5601  0.0528  0.4037
  246SOL     OW  981   1.232   1.099   2.031 -0.0014 -0.4653  0.2458
  246SOL    HW1  982   1.150   1.114   2.085 -1.8159 -0.8849  1.4629
  246SOL    HW2  983   1.310   1.088   2.096  1.9517  1.1899  0.8061
  246SOL     MW  984   1.231   1.100   2.047  0.0169 -0.3023  0.4803
  247SOL     OW  985   0.782   0.654   0.152 -0.4043 -0.2875 -0.3414
  247SOL    HW1  986   0.762   0.748   0.147 -1.6003  1.2842 -1.3427
  247SOL    HW2  987   0.880   0.645   0.142 -1.9853  0.5452 -2.1423
  247SOL     MW  988   0.793   0.665   0.150 -0.7707  0.0297 -0.7111
  248SOL     OW  989   0.332   1.294   2.550 -0.1308 -0.1242  0.1648
  248SOL    HW1  990   0.317   1.339   2.469 -0.8042 -1.2853 -0.5497
  248SOL    HW2  991   0.381   1.352   2.616 -1.8497 -1.8762  2.3101
  248SOL     MW  992   0.336   1.308   2.548 -0.4465 -0.5085  0.3536
  249SOL     OW  993   2.989   1.921   2.825  0.0042  0.1379 -0.4970
  249SOL    HW1  994   2.964   1.863   2.754 -0.7420  1.3442 -2.1454
  249SOL    HW2  995   3.053   1.878   2.879 -1.9762  0.0783  0.7962
  249SOL     MW  996   2.994   1.908   2.823 -0.3555  0.2892 -0.5438
  250SOL     OW  997   2.161   0.837   2.203  0.8094 -0.6931  0.0825
  250SOL    HW1  998   2.144   0.757   2.244 -1.8255 -0.2034 -0.2809
  250SOL    HW2  999   2.247   0.862   2.240  2.8833  3.1882 -4.5271
  250SOL     MW 1000   2.170   0.830   2.214  0.7354 -0.1164 -0.5736
  251SOL     OW 1001   0.148   0.900   2.036 -0.3389  0.2193  0.2855
  251SOL    HW1 1002   0.131   0.817   2.074 -0.5467  2.5096 -0.9288
  251SOL    HW2 1003   0.143   0.891   1.940 -0.6341 -3.1495 -0.3610
  251SOL     MW 1004   0.145   0.888   2.029 -0.4053  0.0770  0.0400
  252SOL     OW 1005   1.661   0.961   2.814  0.6606  0.2370  0.1221
  252SOL    HW1 1006   1.635   1.001   2.896 -1.7773  0.0156 -0.6470
  252SOL    HW2 1007   1.748   1.007   2.793  3.0314  1.1025 -1.9410
  252SOL     MW 1008   1.669   0.972   2.822  0.6517  0.3220 -0.2516
  253SOL     OW 1009   1.147   1.691   2.444  0.1309  0.0688  0.7178
  253SOL    HW1 1010   1.130   1.687   2.348 -1.5667  3.3136 -2.4228
  253SOL    HW2 1011   1.080   1.743   2.479  1.6085  0.9745 -1.0275
  253SOL     MW 1012   1.136   1.697   2.436  0.1019  0.6164  0.0732
  254SOL     OW 1013   0.948   1.138   2.239  0.0929  0.2402 -0.2062
  254SOL    HW1 1014   0.927   1.043   2.219 -1.0229 -2.1980 -1.6166
  254SOL    HW2 1015   0.907   1.151   2.325 -2.6512 -1.1282 -0.7782
  254SOL     MW 1016   0.940   1.127   2.248 -0.4164 -0.2620 -0.4678
  255SOL     OW 1017   0.858   2.573   2.155 -0.4648 -0.2834 -0.9898
  255SOL    HW1 1018   0.776   2.517   2.155 -4.3852 -0.6152  0.5664
  255SOL    HW2 1019   0.929   2.521   2.183  1.5823  0.0439  0.5381
  255SOL     MW 1020   0.856   2.559   2.159 -0.7120 -0.2840 -0.5828
  256SOL     OW 1021   1.224   2.760   2.994 -0.5546 -0.1575  0.5197
  256SOL    HW1 1022   1.187   2.679   2.963 -0.1636  1.8106 -0.5773
  256SOL    HW2 1023   1.305   2.776   2.945  3.0915  0.1537  1.0462
  256SOL     MW 1024   1.230   2.751   2.984 -0.0219  0.1433  0.4444
  257SOL     OW 1025   0.054   1.884   0.113  0.1980 -0.4452 -0.2865
  257SOL    HW1 1026   0.111   1.841   0.168 -1.3450  0.2635  1.3638
  257SOL    HW2 1027   0.078   1.875   0.023  1.7207 -1.6935  0.4313
  257SOL     MW 1028   0.065   1.877   0.108  0.1953 -0.5164  0.0259
  258SOL     OW 1029   0.655   0.988   2.461 -0.2507  0.6855 -0.2259
  258SOL    HW1 1030   0.684   1.074   2.449 -1.5971 -2.0943 -1.2296
  258SOL    HW2 1031   0.598   0.986   2.535 -2.9228  0.1910 -5.2542
  258SOL     MW 1032   0.651   0.999   2.469 -0.7809  0.2535 -1.0217
  259SOL     OW 1033   0.808   0.485   2.272  0.5939  0.8770  0.6505
  259SOL    HW1 1034   0.734   0.428   2.245 -0.9373 -0.3131  1.4645
  259SOL    HW2 1035   0.874   0.418   2.296 -0.6651 -0.3522 -1.0329
  259SOL     MW 1036   0.807   0.469   2.272  0.2258  0.5578  0.5358
  260SOL     OW 1037   0.654   0.097   1.548 -0.1752  0.4255 -0.1213
  260SOL    HW1 1038   0.628   0.167   1.494  1.6511 -1.5281  0.0683
  260SOL    HW2 1039   0.721   0.050   1.498 -1.4954 -0.1290  1.5058
  260SOL     MW 1040   0.660   0.100   1.534 -0.1084  0.0946  0.1184
  261SOL     OW 1041   1.063   0.703   1.996 -1.2054  0.6231 -0.0418
  261SOL    HW1 1042   1.112   0.709   2.087  2.1402  0.6473  0.9514
  261SOL    HW2 1043   1.021   0.615   1.998 -1.9725 -1.7708 -2.0544
  261SOL     MW 1044   1.064   0.692   2.008 -0.8652  0.3104 -0.1763
  262SOL     OW 1045   1.126   0.337   0.138  0.3183 -0.4211 -0.3396
  262SOL    HW1 1046   1.221   0.317   0.131  1.2559 -1.9706 -0.5693
  262SOL    HW2 1047   1.075   0.313   0.063  0.4829  4.7233 -0.4291
  262SOL     MW 1048   1.132   0.331   0.127  0.4638  0.0533 -0.3817
  263SOL     OW 1049   0.366   3.087   2.497  0.1699  0.4025 -0.0277
  263SOL    HW1 1050   0.287   3.133   2.523 -2.3501 -0.4819  0.8987
  263SOL    HW2 1051   0.426   3.142   2.444 -1.9024  0.6248 -1.5116
  263SOL     MW 1052   0.364   3.101   2.494 -0.4360  0.3152 -0.1013
  264SOL     OW 1053   1.536   1.401   1.914  0.1326  0.0876  0.2291
  264SOL    HW1 1054   1.497   1.315   1.896  0.8504 -0.5913 -1.3944
  264SOL    HW2 1055   1.632   1.379   1.922  0.1634  0.6252  1.0124
  264SOL     MW 1056   1.544   1.387   1.912  0.2314  0.0690  0.1182
  265SOL     OW 1057   0.736   2.800   2.297  0.1622  0.6104 -0.0412
  265SOL    HW1 1058   0.801   2.733   2.280 -1.1871  0.2215 -2.5337
  265SOL    HW2 1059   0.715   2.796   2.391 -0.6815  3.2034 -0.2696
  265SOL     MW 1060   0.742   2.790   2.307 -0.1272  0.9012 -0.4002
  266SOL     OW 1061   0.865   0.901   2.122  0.3288  0.6667 -0.6717
  266SOL    HW1 1062   0.818   0.957   2.059 -2.2484 -1.6622 -1.3015
  266SOL    HW2 1063   0.902   0.832   2.073 -0.1139 -2.1758 -0.6912
  266SOL     MW 1064   0.864   0.900   2.108 -0.0697 -0.0156 -0.7574
  267SOL     OW 1065   1.372   1.707   2.651  0.3426 -0.5813 -0.0491
  267SOL    HW1 1066   1.438   1.673   2.595 -0.5493  0.9348  2.2397
  267SOL    HW2 1067   1.292   1.691   2.601 -0.5894 -3.9368  1.7738
  267SOL     MW 1068   1.370   1.701   2.637  0.1020 -0.8240  0.4934
  268SOL     OW 1069   0.132   0.900   1.745  0.4535 -0.2831 -0.2474
  268SOL    HW1 1070   0.112   0.990   1.716  2.5826 -0.5569  0.7081
  268SOL    HW2 1071   0.091   0.848   1.673  0.8860 -1.7188  3.1846
  268SOL     MW 1072   0.124   0.905   1.732  0.7915 -0.5086  0.3315
  269SOL     OW 1073   1.333   1.918   2.294  0.0016 -0.7587 -0.1020
  269SOL    HW1 1074   1.363   1.985   2.362  1.2986  2.7253  0.2668
  269SOL    HW2 1075   1.250   1.881   2.315 -1.1457 -3.0517 -0.8138
  269SOL     MW 1076   1.326   1.922   2.306  0.0213 -0.6016 -0.1472
  270SOL     OW 1077   1.122   0.413   1.582 -0.0549 -0.7621 -0.2185
  270SOL    HW1 1078   1.097   0.329   1.614  1.1310  0.1245 -1.1230
  270SOL    HW2 1079   1.215   0.422   1.601 -0.3927 -0.8058 -0.9580
  270SOL     MW 1080   1.131   0.403   1.589  0.0570 -0.6509 -0.4354
  271SOL     OW 1081   0.861   0.118   2.467  0.3778  0.1064 -0.0695
  271SOL    HW1 1082   0.916   0.043   2.481 -0.9143 -1.3861 -1.5056
  271SOL    HW2 1083   0.917   0.195   2.435  2.2313  0.9785  2.4060
  271SOL     MW 1084   0.876   0.118   2.465  0.4519  0.0245  0.0676
  272SOL     OW 1085   1.438   2.827   2.837  0.3255 -0.0529 -0.2785
  272SOL    HW1 1086   1.412   2.822   2.746  0.4163 -1.8320  0.5723
  272SOL    HW2 1087   1.477   2.914   2.851  0.8622 -2.1976  0.2900
  272SOL     MW 1088   1.440   2.838   2.827  0.4083 -0.5706 -0.0912
  273SOL     OW 1089   1.412   0.813   2.765 -0.2712 -0.4011 -0.3593
  273SOL    HW1 1090   1.476   0.887   2.750 -0.3242  2.5465 -2.2589
  273SOL    HW2 1091   1.328   0.842   2.734  0.8470 -1.0102  0.8260
  273SOL     MW 1092   1.409   0.827   2.759 -0.1307 -0.0925 -0.4535
  274SOL     OW 1093   1.436   0.713   0.164  0.4304 -0.0596  0.2925
  274SOL    HW1 1094   1.470   0.635   0.205  1.6579  0.9253 -0.7172
  274SOL    HW2 1095   1.363   0.741   0.217  0.9917  0.7513 -0.5483
  274SOL     MW 1096   1.431   0.706   0.176  0.6664  0.1773  0.0483
  275SOL     OW 1097   1.781   0.510   1.758  0.1444  0.4643 -0.4083
  275SOL    HW1 1098   1.842   0.536   1.826  1.1803  2.6833 -0.0840
  275SOL    HW2 1099   1.784   0.414   1.768  1.9255  2.0192  0.1661
  275SOL     MW 1100   1.790   0.501   1.768  0.5160  0.9622 -0.2897
  276SOL     OW 1101   0.471   1.206   1.923 -0.1438  0.1116 -0.4398
  276SOL    HW1 1102   0.449   1.115   1.924 -1.3373  1.8504  1.8026
  276SOL    HW2 1103   0.434   1.232   2.005 -0.4371 -3.9230 -0.6436
  276SOL     MW 1104   0.463   1.198   1.934 -0.3399 -0.1913 -0.1708
  277SOL     OW 1105   2.006   1.090   2.439 -0.1380  0.0179 -0.2186
  277SOL    HW1 1106   2.046   1.175   2.468  3.1765 -2.5488  0.7339
  277SOL    HW2 1107   1.991   1.091   2.344 -1.5165  1.8862 -0.2483
  277SOL     MW 1108   2.009   1.101   2.430  0.1174 -0.0743 -0.0968
  278SOL     OW 1109   1.438   0.672   1.731  0.2988  0.2046 -1.0724
  278SOL    HW1 1110   1.407   0.592   1.784 -1.0047 -1.2101  4.1043
  278SOL    HW2 1111   1.530   0.656   1.696  1.2243 -0.0644  0.4189
  278SOL     MW 1112   1.446   0.659   1.733  0.2490 -0.0175 -0.1926
  279SOL     OW 1113   0.529   0.088   2.257  0.5367 -0.4711  0.1421
  279SOL    HW1 1114   0.602   0.028   2.282 -1.9148 -2.0314  3.9248
  279SOL    HW2 1115   0.572   0.162   2.208 -1.3267 -1.0966 -0.4931
  279SOL     MW 1116   0.544   0.090   2.254 -0.0326 -0.7595  0.5574
  280SOL     OW 1117   1.454   1.124   2.196  0.0525 -0.2277  0.2317
  280SOL    HW1 1118   1.482   1.036   2.170  0.2005 -1.2006 -1.0945
  280SOL    HW2 1119   1.419   1.116   2.290  0.7145 -0.0331  2.5987
  280SOL     MW 1120   1.453   1.111   2.205  0.1594 -0.3304  0.3690
  281SOL     OW 1121   1.373   1.132   2.668 -0.7166 -0.4633 -0.1646
  281SOL    HW1 1122   1.421   1.222   2.666 -1.8014  3.0458  1.0106
  281SOL    HW2 1123   1.355   1.123   2.762  0.3482  0.8321 -0.4249
  281SOL     MW 1124   1.377   1.143   2.680 -0.7192  0.1706 -0.0438
  282SOL     OW 1125   1.178   1.265   1.579  0.2925  0.6624  0.0363
  282SOL    HW1 1126   1.183   1.361   1.558  1.5085 -1.7016  1.8879
  282SOL    HW2 1127   1.094   1.247   1.635 -0.6326 -2.1661  0.1231
  282SOL     MW 1128   1.167   1.276   1.584  0.3309 -0.0227  0.2920
  283SOL     OW 1129   0.858   1.366   0.012 -0.3739  0.7559  0.2469
  283SOL    HW1 1130   0.953   1.379   0.025  0.2370 -0.3905 -1.5705
  283SOL    HW2 1131   0.844   1.447  -0.043 -2.4228  0.9861 -0.2161
  283SOL     MW 1132   0.868   1.378   0.007 -0.5636  0.6350 -0.0539
  284SOL     OW 1133   0.401   0.732   2.311  0.1525 -0.7274  0.3275
  284SOL    HW1 1134   0.475   0.778   2.267 -1.3315  0.3357 -4.7203
  284SOL    HW2 1135   0.395   0.656   2.249  0.8451  0.8950 -1.4142
  284SOL     MW 1136   0.410   0.728   2.297  0.0481 -0.3731 -0.5683
  285SOL     OW 1137   0.885   0.873   2.856 -0.0938 -0.7107  0.4439
  285SOL    HW1 1138   0.903   0.931   2.778 -0.5851 -1.7446 -0.3905
  285SOL    HW2 1139   0.841   0.799   2.823 -0.4936  2.0532 -0.2724
  285SOL     MW 1140   0.882   0.871   2.842 -0.2113 -0.4825  0.2393
  286SOL     OW 1141   1.130   1.458   2.588  0.2168 -0.7493 -0.5666
  286SOL    HW1 1142   1.129   1.362   2.575  0.3888  1.6261  0.0920
  286SOL    HW2 1143   1.153   1.502   2.510  0.7444  0.2461  2.3890
  286SOL     MW 1144   1.133   1.451   2.576  0.3091 -0.3046 -0.0897
  287SOL     OW 1145   1.200   1.015   0.361 -0.4405 -0.1227 -0.0660
  287SOL    HW1 1146   1.166   1.052   0.438  0.9348 -0.1120  1.4034
  287SOL    HW2 1147   1.143   1.021   0.285  1.3733 -2.8910 -1.0355
  287SOL     MW 1148   1.188   1.021   0.361 -0.0197 -0.4865 -0.0000
  288SOL     OW 1149   1.475   0.626   2.097 -0.3612  0.0533  0.4809
  288SOL    HW1 1150   1.430   0.598   2.171  2.3774 -0.8329 -0.7330
  288SOL    HW2 1151   1.501   0.726   2.095  1.1977  1.0114  1.7884
  288SOL     MW 1152   1.472   0.636   2.107  0.2058  0.0628  0.4932
  289SOL     OW 1153   0.935   0.974   2.609  0.1587 -0.3409 -0.0951
  289SOL    HW1 1154   0.985   0.896   2.578  2.2991 -2.1542 -1.9917
  289SOL    HW2 1155   0.858   0.978   2.557 -0.0725 -1.9709 -0.5213
  289SOL     MW 1156   0.931   0.964   2.598  0.4106 -0.7952 -0.4015
  290SOL     OW 1157   0.815   0.639   1.461  0.0712 -0.0579 -0.2423
  290SOL    HW1 1158   0.849   0.572   1.399 -2.1956 -0.6039  0.1985
  290SOL    HW2 1159   0.888   0.659   1.520 -0.6495 -0.4114  0.4081
  290SOL     MW 1160   0.829   0.633   1.460 -0.3230 -0.1766 -0.0983
  291SOL     OW 1161   0.197   0.372   0.165 -0.2100  0.0315  0.0907
  291SOL    HW1 1162   0.287   0.332   0.176  1.0491 -1.7250  1.7377
  291SOL    HW2 1163   0.143   0.296   0.144 -1.3157  0.3522  1.3937
  291SOL     MW 1164   0.202   0.356   0.164 -0.1898 -0.1579  0.4799
  292SOL     OW 1165   1.046   0.626   0.104  0.0746  0.8094 -0.1654
  292SOL    HW1 1166   1.094   0.707   0.140  2.3151 -0.3491 -2.5195
  292SOL    HW2 1167   1.087   0.551   0.148 -0.7871 -1.3996 -0.1788
  292SOL     MW 1168   1.058   0.627   0.115  0.2565  0.3651 -0.4778
  293SOL     OW 1169   0.098   0.136   2.550 -0.2482 -0.6733  0.2659
  293SOL    HW1 1170   0.052   0.095   2.476 -0.2456 -1.4634 -0.0319
  293SOL    HW2 1171   0.029   0.162   2.606 -0.1668  1.1529  0.6357
  293SOL     MW 1172   0.083   0.134   2.548 -0.2371 -0.5366  0.2754
  294SOL     OW 1173   1.305   0.520   2.344  0.1365 -0.5008  0.1451
  294SOL    HW1 1174   1.362   0.586   2.383  0.5264 -0.3921 -0.9153
  294SOL    HW2 1175   1.308   0.454   2.409 -2.2546  2.7433  3.4628
  294SOL     MW 1176   1.312   0.520   2.357 -0.1276 -0.0585  0.4429
  295SOL     OW 1177   0.832   0.567   2.530 -0.5775  0.3464  0.3125
  295SOL    HW1 1178   0.801   0.542   2.442 -1.5973  1.2629  0.1893
  295SOL    HW2 1179   0.764   0.610   2.576 -0.7963  0.3318 -0.8182
  295SOL     MW 1180   0.819   0.569   2.525 -0.7409  0.4654  0.1470
  296SOL     OW 1181   1.258   0.212   2.046  0.1900  0.2547  0.1080
  296SOL    HW1 1182   1.332   0.156   2.021  2.4171  0.8327  4.5979
  296SOL    HW2 1183   1.263   0.222   2.144 -3.2765  2.4958 -0.2864
  296SOL     MW 1184   1.269   0.206   2.055  0.0264  0.6266  0.6484
  297SOL     OW 1185   1.423   0.382   1.562  0.4154  0.0902  0.6607
  297SOL    HW1 1186   1.461   0.450   1.623 -1.4352 -0.2319  3.9040
  297SOL    HW2 1187   1.440   0.302   1.611 -3.0074 -2.6160 -0.3856
  297SOL     MW 1188   1.430   0.380   1.576 -0.2804 -0.3093  0.9506
  298SOL     OW 1189   1.581   0.881   2.074 -0.0601 -0.2080 -0.0167
  298SOL    HW1 1190   1.625   0.933   2.006  0.7430 -0.7757  0.2067
  298SOL    HW2 1191   1.658   0.823   2.095 -1.4607  0.0896  2.7401
  298SOL     MW 1192   1.597   0.880   2.068 -0.1389 -0.2437  0.3765
  299SOL     OW 1193   0.572   1.166   0.084  0.0741  0.1143  0.2931
  299SOL    HW1 1194   0.562   1.136  -0.004  4.3978  2.7229  1.9015
  299SOL    HW2 1195   0.650   1.218   0.081 -2.0936 -0.0517 -0.0094
  299SOL     MW 1196   0.581   1.169   0.072  0.3586  0.4366  0.4654
  300SOL     OW 1197   1.110   1.181   2.536 -0.2192  0.6501  0.7398
  300SOL    HW1 1198   1.043   1.108   2.536 -1.9071  0.9793  1.7802
  300SOL    HW2 1199   1.189   1.136   2.567 -0.1628 -1.8216  1.5220
  300SOL     MW 1200   1.111   1.165   2.540 -0.4345  0.3675  0.9803
  301SOL     OW 1201   1.428   1.040   0.729  0.5426  0.7755  0.1516
  301SOL    HW1 1202   1.465   1.063   0.815  0.8235 -0.4067  1.4475
  301SOL    HW2 1203   1.369   0.964   0.738 -0.2461 -1.6805 -2.2016
  301SOL     MW 1204   1.425   1.033   0.742  0.4756  0.2955  0.0121
  302SOL     OW 1205   0.177   1.565   2.037 -0.4757  0.1405  0.1485
  302SOL    HW1 1206   0.184   1.469   2.022 -0.0424 -0.2940 -1.8387
  302SOL    HW2 1207   0.082   1.569   2.049 -0.0400 -3.4036  0.2350
  302SOL     MW 1208   0.165   1.553   2.037 -0.3611 -0.3845 -0.1023
  303SOL     OW 1209   0.358   1.764   2.669 -0.1539  0.0184 -0.3686
  303SOL    HW1 1210   0.353   1.811   2.584 -2.1502 -1.2021  1.5165
  303SOL    HW2 1211   0.280   1.797   2.714  2.0533  0.0711 -2.4554
  303SOL     MW 1212   0.347   1.775   2.664 -0.1261 -0.1357 -0.3952
  304SOL     OW 1213   0.487   2.057   2.404 -0.3748 -0.0259  0.3518
  304SOL    HW1 1214   0.541   2.125   2.355  1.4451 -1.5903  1.3351
  304SOL    HW2 1215   0.553   1.986   2.415  0.5507  1.1619 -0.2389
  304SOL     MW 1216   0.503   2.056   2.399 -0.0126 -0.0756  0.4036
  305SOL     OW 1217   1.110   0.663   0.562 -0.1546  0.0586 -0.4853
  305SOL    HW1 1218   1.029   0.666   0.509  0.7574 -0.6957  1.3116
  305SOL    HW2 1219   1.142   0.581   0.533  0.4733  1.6573  0.4201
  305SOL     MW 1220   1.104   0.652   0.551  0.0486  0.1700 -0.1288
  306SOL     OW 1221   1.079   1.556   0.248 -0.3275 -0.3883  0.2584
  306SOL    HW1 1222   1.103   1.462   0.271 -0.6189 -1.5146  1.7076
  306SOL    HW2 1223   1.130   1.576   0.167 -0.8519  2.5376 -1.0368
  306SOL     MW 1224   1.088   1.546   0.240 -0.4352 -0.1508  0.2787
  307SOL     OW 1225   1.366   0.445   1.904  0.3006  0.2485  0.2497
  307SOL    HW1 1226   1.329   0.366   1.941  1.6052 -0.2516 -0.3471
  307SOL    HW2 1227   1.368   0.507   1.979  1.1516 -1.3905  1.7308
  307SOL     MW 1228   1.362   0.442   1.919  0.5850 -0.0338  0.3664
  308SOL     OW 1229   2.219   0.501   2.664 -0.4072 -0.1652  0.3205
  308SOL    HW1 1230   2.311   0.519   2.694  1.8756 -2.2040 -1.0885
  308SOL    HW2 1231   2.180   0.593   2.667 -0.2746 -0.6525  0.0224
  308SOL     MW 1232   2.226   0.516   2.669 -0.0885 -0.4985  0.0952
  309SOL     OW 1233   0.492   0.587   0.248  0.4317 -0.0319 -0.0567
  309SOL    HW1 1234   0.569   0.613   0.201  0.7187 -0.2289  0.6231
  309SOL    HW2 1235   0.473   0.493   0.230 -1.9123  0.3748 -0.0437
  309SOL     MW 1236   0.500   0.578   0.239  0.1603 -0.0042  0.0347
  310SOL     OW 1237   0.457   0.631   1.905 -0.4265 -0.8339 -0.4299
  310SOL    HW1 1238   0.485   0.567   1.843 -1.3864  2.8233  2.1838
  310SOL    HW2 1239   0.498   0.708   1.862  1.1704 -0.0605 -1.4562
  310SOL     MW 1240   0.466   0.633   1.891 -0.3424 -0.2493 -0.2205
  311SOL     OW 1241   1.945   0.641   1.962  0.1935 -0.1400 -0.6336
  311SOL    HW1 1242   1.894   0.657   2.039 -0.1280 -1.2689  1.5460
  311SOL    HW2 1243   2.003   0.566   1.993  0.0470 -2.6948  1.7562
  311SOL     MW 1244   1.946   0.633   1.976  0.1317 -0.6260 -0.0307
  312SOL     OW 1245   1.764   2.443   0.115 -0.6659  0.0733 -0.3673
  312SOL    HW1 1246   1.751   2.401   0.201 -0.8230 -2.3156 -1.0170
  312SOL    HW2 1247   1.716   2.526   0.117  0.6335  1.4031  1.3720
  312SOL     MW 1248   1.756   2.449   0.127 -0.5152 -0.0665 -0.2235
  313SOL     OW 1249   0.121   1.130   3.039 -0.2125  0.0537  0.1818
  313SOL    HW1 1250   0.082   1.181   3.112  0.1177 -2.3352  0.0843
  313SOL    HW2 1251   0.181   1.184   2.992 -0.3343 -0.6526 -0.6953
  313SOL     MW 1252   0.124   1.144   3.042 -0.1850 -0.3547  0.0532
  314SOL     OW 1253   2.153   2.937   3.090  0.1541  0.3757  0.5869
  314SOL    HW1 1254   2.098   2.959   3.017 -1.0137  2.2919 -1.8333
  314SOL    HW2 1255   2.204   3.016   3.107 -0.5116  1.7685 -1.3578
  314SOL     MW 1256   2.153   2.950   3.082 -0.0878  0.8123  0.0110
  315SOL     OW 1257   1.538   1.816   2.973 -0.1219 -0.2630  0.0372
  315SOL    HW1 1258   1.511   1.871   3.057  0.2809 -1.0893  0.7694
  315SOL    HW2 1259   1.570   1.892   2.922 -0.5738 -0.9125  0.8801
  315SOL     MW 1260   1.539   1.833   2.977 -0.1284 -0.4577  0.2450
  316SOL     OW 1261   1.211   0.584   2.724 -0.4722  0.4467 -0.1434
  316SOL    HW1 1262   1.304   0.588   2.758  0.8532  2.4930  1.1349
  316SOL    HW2 1263   1.156   0.581   2.809 -0.0111 -0.0132 -0.5289
  316SOL     MW 1264   1.216   0.584   2.740 -0.2365  0.6560 -0.0256
  317SOL     OW 1265   0.686   1.585   2.661 -0.4176  0.3488 -0.2450
  317SOL    HW1 1266   0.735   1.507   2.666 -0.1766  2.4067  0.2542
  317SOL    HW2 1267   0.656   1.595   2.568 -1.1457  1.2154 -2.5508
  317SOL     MW 1268   0.688   1.576   2.650 -0.4819  0.7347 -0.4833
  318SOL     OW 1269   1.328   0.382   2.969 -0.1361  0.4288 -0.1526
  318SOL    HW1 1270   1.251   0.440   2.994 -1.0327  2.8689 -0.7296
  318SOL    HW2 1271   1.389   0.451   2.925 -0.6623 -0.5957 -0.0371
  318SOL     MW 1272   1.326   0.399   2.966 -0.3239  0.6156 -0.2135
  319SOL     OW 1273   0.860   0.387   2.858 -0.9610  0.3807 -0.8234
  319SOL    HW1 1274   0.832   0.303   2.826  0.1589  2.5634 -2.1440
  319SOL    HW2 1275   0.800   0.404   2.926 -0.9374  1.3853  2.0190
  319SOL     MW 1276   0.848   0.378   2.863 -0.8102  0.8013 -0.6226
  320SOL     OW 1277   1.060   1.402   1.969 -0.4327 -0.4298  0.1619
  320SOL    HW1 1278   1.114   1.323   1.955  1.2874 -1.1400 -2.5162
  320SOL    HW2 1279   1.127   1.468   1.951  0.0306 -1.9859 -0.2133
  320SOL     MW 1280   1.076   1.401   1.964 -0.1446 -0.7288 -0.2409
  321SOL     OW 1281   1.120   0.914   3.014  0.1496 -0.5719  0.5016
  321SOL    HW1 1282   1.035   0.886   2.981  1.2074  1.5388  1.3928
  321SOL    HW2 1283   1.175   0.833   3.028 -0.6569 -1.2394  1.4911
  321SOL     MW 1284   1.116   0.900   3.012  0.1828 -0.3815  0.7497
  322SOL     OW 1285   1.220   0.823   1.693  0.0401 -0.8418 -0.0972
  322SOL    HW1 1286   1.294   0.775   1.726 -0.0409 -0.8055  1.9695
  322SOL    HW2 1287   1.189   0.874   1.765  0.6720  0.4144  0.0223
  322SOL     MW 1288   1.225   0.823   1.707  0.1128 -0.6713  0.1912
  323SOL     OW 1289   1.225   1.607   1.900  0.0189 -0.2925 -0.5239
  323SOL    HW1 1290   1.261   1.587   1.816  1.2574  0.5171  0.6206
  323SOL    HW2 1291   1.172   1.685   1.881  2.4438  2.7792  1.4217
  323SOL     MW 1292   1.223   1.614   1.886  0.5023  0.2196 -0.1162
  324SOL     OW 1293   1.448   0.997   2.455 -0.5754 -0.3759  0.3797
  324SOL    HW1 1294   1.432   1.041   2.539  1.1761  3.6179  1.7957
  324SOL    HW2 1295   1.541   1.030   2.443  0.2254  1.4418  2.0541
  324SOL     MW 1296   1.458   1.007   2.465 -0.2387  0.3909  0.7874
  325SOL     OW 1297   1.079   0.505   2.946 -0.5095  0.4593 -0.5572
  325SOL    HW1 1298   1.073   0.562   3.022  0.5273 -2.0746 -1.8292
  325SOL    HW2 1299   0.996   0.467   2.928 -0.3456  0.9112 -0.6990
  325SOL     MW 1300   1.068   0.508   2.954 -0.3510  0.1846 -0.7437
  326SOL     OW 1301   0.333   1.370   2.259 -0.5360  0.2996  0.0882
  326SOL    HW1 1302   0.419   1.341   2.246 -1.4919  1.3169 -1.9809
  326SOL    HW2 1303   0.345   1.464   2.235 -0.4751  0.0773 -0.6591
  326SOL     MW 1304   0.346   1.379   2.254 -0.6541  0.4045 -0.2834
  327SOL     OW 1305   1.969   0.792   2.435 -0.4705  0.3249 -0.0209
  327SOL    HW1 1306   1.898   0.768   2.502 -0.5837  2.9620  0.9595
  327SOL    HW2 1307   2.011   0.879   2.454 -1.3680 -1.2568  0.7446
  327SOL     MW 1308   1.965   0.800   2.446 -0.6039  0.4641  0.2095
  328SOL     OW 1309   0.212   1.266   2.049 -0.8497  0.4518  0.0490
  328SOL    HW1 1310   0.139   1.210   2.062 -1.5325  0.9066  0.8133
  328SOL    HW2 1311   0.248   1.288   2.133  2.0482  0.1142  0.0647
  328SOL     MW 1312   0.207   1.262   2.062 -0.5574  0.4673  0.1519
  329SOL     OW 1313   0.050   0.135   1.371 -0.1697 -0.5286  0.3018
  329SOL    HW1 1314   0.048   0.076   1.444 -0.1083  1.1816  0.1237
  329SOL    HW2 1315   0.148   0.168   1.368  0.6537  0.5629  2.9305
  329SOL     MW 1316   0.063   0.131   1.380 -0.0530 -0.1590  0.6251
  330SOL     OW 1317   0.399   3.085   2.064 -0.2956 -0.1609  0.2038
  330SOL    HW1 1318   0.459   3.120   2.135  0.3672  1.0002 -0.8754
  330SOL    HW2 1319   0.341   3.015   2.105  0.4575  0.1501  2.4086
  330SOL     MW 1320   0.399   3.080   2.079 -0.1088  0.0333  0.3523
  331SOL     OW 1321   0.796   1.224   2.443 -0.4672 -0.2679 -0.3177
  331SOL    HW1 1322   0.731   1.270   2.386  2.7011  1.6202 -0.7109
  331SOL    HW2 1323   0.817   1.287   2.513 -0.1857 -1.1456 -0.8311
  331SOL     MW 1324   0.790   1.238   2.445 -0.0120 -0.1346 -0.4373
  332SOL     OW 1325   1.337   1.643   2.907  0.3103 -0.0970  0.1279
  332SOL    HW1 1326   1.351   1.652   2.813 -1.6887 -1.3701 -1.7188
  332SOL    HW2 1327   1.404   1.712   2.935  0.5044  1.8740 -0.4639
  332SOL     MW 1328   1.347   1.653   2.898  0.0722 -0.0049 -0.1938
  333SOL     OW 1329   1.697   1.398   2.929 -0.4339  0.2047  0.1199
  333SOL    HW1 1330   1.799   1.390   2.923  1.4384  0.7171 -0.5249
  333SOL    HW2 1331   1.662   1.320   2.980  0.5139 -1.9980  0.0043
  333SOL     MW 1332   1.706   1.387   2.935 -0.0618 -0.0183  0.0195
  334SOL     OW 1333   1.272   3.062   2.665  0.5188 -0.3950 -0.5098
  334SOL    HW1 1334   1.185   3.053   2.703  3.2551 -1.3407  0.3139
  334SOL    HW2 1335   1.315   3.151   2.692 -0.2142  0.8844 -0.4332
  334SOL     MW 1336   1.266   3.073   2.674  0.7831 -0.3510 -0.3910
  335SOL     OW 1337   1.307   0.705   3.026 -1.1499 -0.1093  0.2942
  335SOL    HW1 1338   1.322   0.687   3.114 -0.0250  0.6609 -3.2781
  335SOL    HW2 1339   1.383   0.733   2.985  0.7365 -1.2047  1.4090
  335SOL     MW 1340   1.319   0.706   3.032 -0.7526 -0.1522 -0.0300
  336SOL     OW 1341   0.972   1.157   1.740 -0.0012 -0.5465 -0.8581
  336SOL    HW1 1342   0.928   1.227   1.791 -0.5977  3.2086  0.8098
  336SOL    HW2 1343   0.990   1.080   1.794 -0.1816 -0.9036 -3.5390
  336SOL     MW 1344   0.968   1.156   1.754 -0.1037 -0.0981 -0.9917
  337SOL     OW 1345   0.563   1.874   2.828 -0.0999  0.5813  0.6351
  337SOL    HW1 1346   0.508   1.825   2.765  0.4941  1.0487 -0.4073
  337SOL    HW2 1347   0.647   1.831   2.835  1.3842  0.1900  1.0995
  337SOL     MW 1348   0.567   1.862   2.821  0.1743  0.5914  0.5588
  338SOL     OW 1349   1.051   0.743   2.501  0.4255 -0.0392 -0.3619
  338SOL    HW1 1350   0.972   0.684   2.514  0.7262  0.1697  0.6642
  338SOL    HW2 1351   1.120   0.701   2.564 -0.4076  0.8758 -0.6767
  338SOL     MW 1352   1.050   0.729   2.511  0.3552  0.1091 -0.2680
  339SOL     OW 1353   1.438   1.157   1.867  0.0182  0.8174 -0.5839
  339SOL    HW1 1354   1.430   1.121   1.779 -0.3027 -0.6704  0.1420
  339SOL    HW2 1355   1.358   1.131   1.913 -1.2363 -0.5564 -1.8255
  339SOL     MW 1356   1.426   1.149   1.861 -0.1897  0.4398 -0.6519
  340SOL     OW 1357   1.282   1.508   0.041 -0.5899 -0.0087  0.7474
  340SOL    HW1 1358   1.294   1.539  -0.049 -3.1871  1.7455  1.3356
  340SOL    HW2 1359   1.364   1.486   0.076 -2.5716 -3.1299 -4.1288
  340SOL     MW 1360   1.294   1.509   0.034 -1.1940 -0.1891  0.1817
  341SOL     OW 1361   0.055   1.350   2.796  0.6546  0.3516  0.3387
  341SOL    HW1 1362   0.145   1.330   2.776  2.0609  1.2931  1.6831
  341SOL    HW2 1363   0.006   1.317   2.723 -0.4564 -1.8026 -1.5396
  341SOL     MW 1364   0.061   1.343   2.783  0.6935  0.1916  0.2683
  342SOL     OW 1365   1.407   0.312   0.112  0.2411 -0.1976  0.3232
  342SOL    HW1 1366   1.480   0.358   0.158 -1.7652 -0.7034  0.8776
  342SOL    HW2 1367   1.394   0.344   0.021 -1.5865 -0.7198  1.6491
  342SOL     MW 1368   1.415   0.322   0.106 -0.2647 -0.3332  0.5713
  343SOL     OW 1369   0.291   0.284   2.227 -0.2514 -0.4550  0.0564
  343SOL    HW1 1370   0.343   0.205   2.244 -1.8200  1.2141 -0.7571
  343SOL    HW2 1371   0.231   0.253   2.156 -1.7426  3.1002 -2.3583
  343SOL     MW 1372   0.290   0.269   2.220 -0.6551  0.2343 -0.3695
  344SOL     OW 1373   1.720   2.006   0.148 -0.2810 -0.2357 -0.4994
  344SOL    HW1 1374   1.752   2.071   0.088  2.5089 -0.0244 -1.4433
  344SOL    HW2 1375   1.628   1.992   0.110  0.0043 -0.0911  1.2236
  344SOL     MW 1376   1.712   2.013   0.135  0.1247 -0.1888 -0.3966
  345SOL     OW 1377   0.692   1.587   2.369 -0.0906  0.5755  0.0777
  345SOL    HW1 1378   0.606   1.596   2.323  0.1163  1.4437  1.9193
  345SOL    HW2 1379   0.754   1.580   2.296  0.0910 -0.6008 -1.4597
  345SOL     MW 1380   0.689   1.587   2.353 -0.0393  0.5349  0.1178
  346SOL     OW 1381   1.685   1.090   3.065 -0.4330 -0.2414  0.8131
  346SOL    HW1 1382   1.775   1.073   3.077 -1.1977  0.2531 -0.1617
  346SOL    HW2 1383   1.651   1.055   3.144  0.1172  0.7135 -1.8890
  346SOL     MW 1384   1.692   1.083   3.077 -0.4613 -0.0502  0.3279
  347SOL     OW 1385   1.142   0.707   2.243  0.0349 -0.5396  0.2394
  347SOL    HW1 1386   1.182   0.617   2.260  0.0864 -0.7585  3.2215
  347SOL    HW2 1387   1.100   0.729   2.327  2.1121  1.6717 -1.5191
  347SOL     MW 1388   1.141   0.698   2.256  0.3158 -0.2767  0.4009
  348SOL     OW 1389   1.349   2.552   1.926 -0.3627 -0.5184  0.4871
  348SOL    HW1 1390   1.343   2.498   2.005  1.1300 -0.2116 -2.0487
  348SOL    HW2 1391   1.368   2.642   1.962 -0.7403  1.4373 -0.0773
  348SOL     MW 1392   1.351   2.556   1.942 -0.2155 -0.2199  0.0781
  349SOL     OW 1393   1.406   0.183   2.754  0.6571  0.1243 -0.2149
  349SOL    HW1 1394   1.355   0.242   2.807  0.7995  0.3322  2.6715
  349SOL    HW2 1395   1.469   0.137   2.810 -1.0339 -1.5755  2.3055
  349SOL     MW 1396   1.407   0.184   2.768  0.4528 -0.0725  0.4985
  350SOL     OW 1397   1.826   0.664   2.631  0.4355  0.2654 -0.1369
  350SOL    HW1 1398   1.800   0.587   2.571 -0.2249  1.0296  0.4384
  350SOL    HW2 1399   1.908   0.639   2.686  2.1457 -1.8826  0.1916
  350SOL     MW 1400   1.833   0.651   2.630  0.5740  0.0828 -0.0176
  351SOL     OW 1401   0.088   1.143   1.640  0.6313 -0.3009  0.2210
  351SOL    HW1 1402   0.011   1.179   1.684  0.8211  0.9043  0.7443
  351SOL    HW2 1403   0.151   1.215   1.652 -3.9952  0.8011 -0.9413
  351SOL     MW 1404   0.086   1.157   1.648  0.0460  0.0035  0.1367
  352SOL     OW 1405   0.842   1.760   2.805 -0.2015  0.1762 -0.3283
  352SOL    HW1 1406   0.836   1.736   2.906 -1.9243  0.6399  0.2822
  352SOL    HW2 1407   0.772   1.708   2.758 -1.3465  0.9190 -2.7616
  352SOL     MW 1408   0.832   1.750   2.812 -0.5799  0.3354 -0.5688
  353SOL     OW 1409   0.023   2.590   2.733  0.2313 -0.3464 -0.3913
  353SOL    HW1 1410   0.096   2.593   2.674  0.4673 -0.3494  0.3502
  353SOL    HW2 1411  -0.028   2.671   2.727  0.4920  0.1396  0.6421
  353SOL     MW 1412   0.026   2.601   2.724  0.2968 -0.2827 -0.1571
  354SOL     OW 1413   0.353   2.437   0.880 -0.1223 -0.3233  0.5001
  354SOL    HW1 1414   0.374   2.427   0.974  3.2842  2.2580  0.0487
  354SOL    HW2 1415   0.271   2.380   0.851  0.5380 -1.3145 -2.5572
  354SOL     MW 1416   0.345   2.428   0.888  0.4143 -0.1135  0.0371
  355SOL     OW 1417   3.064   2.176   0.368  0.3594  0.2463  0.3576
  355SOL    HW1 1418   2.976   2.154   0.378  0.4062 -0.2626 -0.1523
  355SOL    HW2 1419   3.078   2.230   0.453 -0.5341 -0.7952 -1.2934
  355SOL     MW 1420   3.054   2.180   0.380  0.2477  0.0417  0.0725
  356SOL     OW 1421   0.804   2.841   0.985 -0.7321  0.8921  0.4270
  356SOL    HW1 1422   0.859   2.852   0.905 -1.1370 -0.9409  1.2807
  356SOL    HW2 1423   0.716   2.827   0.950 -1.9767 -0.1883  1.3036
  356SOL     MW 1424   0.800   2.840   0.970 -0.9497  0.5077  0.6553
  357SOL     OW 1425   1.824   2.803   0.482  0.0427  0.1410  0.1304
  357SOL    HW1 1426   1.816   2.728   0.540 -0.3852 -1.7738 -2.4853
  357SOL    HW2 1427   1.916   2.792   0.457  0.7330  0.7242  0.3923
  357SOL     MW 1428   1.835   2.791   0.486  0.0773 -0.0347 -0.1802
  358SOL     OW 1429   0.453   0.183   1.044 -0.3110 -0.0784  0.0469
  358SOL    HW1 1430   0.546   0.206   1.044 -2.4103 -1.1133  1.2319
  358SOL    HW2 1431   0.420   0.214   0.960  0.9635  0.0005 -1.2504
  358SOL     MW 1432   0.461   0.190   1.033 -0.4198 -0.2045  0.0321
  359SOL     OW 1433   0.870   2.984   1.824  0.6402  0.4705  0.0087
  359SOL    HW1 1434   0.870   2.894   1.860 -0.6094 -2.6755 -0.9517
  359SOL    HW2 1435   0.896   2.977   1.727  0.5554  2.4275 -3.5771
  359SOL     MW 1436   0.873   2.971   1.816  0.4642  0.3136 -0.5911
  360SOL     OW 1437   0.550   2.764   0.877  0.1047  0.1177  0.9526
  360SOL    HW1 1438   0.586   2.720   0.798  1.7109  1.7126 -1.4317
  360SOL    HW2 1439   0.531   2.694   0.940  1.0704  0.0005 -2.1622
  360SOL     MW 1440   0.552   2.749   0.875  0.4440  0.3127  0.2271
  361SOL     OW 1441   0.218   2.648   1.396  0.1319  0.0015 -0.4673
  361SOL    HW1 1442   0.208   2.737   1.422  0.4333 -0.3200 -0.7339
  361SOL    HW2 1443   0.309   2.626   1.432  0.4823 -1.9635 -0.0758
  361SOL     MW 1444   0.228   2.656   1.405  0.2179 -0.3002 -0.4508
  362SOL     OW 1445   1.384   2.397   0.597  0.1673  0.5288  0.5427
  362SOL    HW1 1446   1.431   2.339   0.654  0.3194 -1.9815 -0.1748
  362SOL    HW2 1447   1.435   2.482   0.608  0.0051 -0.4837  1.2607
  362SOL     MW 1448   1.397   2.401   0.606  0.1660  0.0640  0.5427
  363SOL     OW 1449   0.311   3.077   0.624 -0.2722  0.5105 -0.4233
  363SOL    HW1 1450   0.327   3.022   0.702  0.9177  1.1274 -0.6517
  363SOL    HW2 1451   0.219   3.100   0.612  2.3745  1.8006 -3.0983
  363SOL     MW 1452   0.301   3.073   0.633  0.2340  0.7621 -0.8064
  364SOL     OW 1453   0.780   0.257   0.125  0.1180  0.1801 -0.1498
  364SOL    HW1 1454   0.704   0.213   0.155  1.2477  0.0108  0.6372
  364SOL    HW2 1455   0.758   0.337   0.074  1.2400  0.2751 -0.3519
  364SOL     MW 1456   0.767   0.262   0.122  0.4151  0.1703 -0.0726
  365SOL     OW 1457   0.912   2.022   1.143 -0.8071 -0.1186  0.0473
  365SOL    HW1 1458   0.881   2.108   1.119  1.4911 -1.0870  0.2923
  365SOL    HW2 1459   0.854   1.960   1.095  2.5418  2.8572  1.8015
  365SOL     MW 1460   0.900   2.025   1.134 -0.0621  0.1463  0.3111
  366SOL     OW 1461   2.953   2.632   0.936 -0.3994 -0.4527  0.0587
  366SOL    HW1 1462   3.048   2.655   0.944 -0.5343 -0.7593 -0.0675
  366SOL    HW2 1463   2.936   2.680   0.848 -0.4389  1.2921 -1.4068
  366SOL     MW 1464   2.963   2.641   0.926 -0.4224 -0.2629 -0.1513
  367SOL     OW 1465   1.221   2.981   0.930 -0.0413  0.0699 -0.0220
  367SOL    HW1 1466   1.261   3.049   0.870  1.7806 -0.7416 -3.4515
  367SOL    HW2 1467   1.161   2.936   0.874  0.2955  0.0866 -1.7121
  367SOL     MW 1468   1.218   2.984   0.915  0.2435 -0.0350 -0.6975
  368SOL     OW 1469   1.746   0.404   0.721  0.2657 -0.1424 -0.3449
  368SOL    HW1 1470   1.790   0.346   0.662 -1.4657  1.9720  1.7030
  368SOL    HW2 1471   1.761   0.492   0.689 -2.3881  0.7628  1.4803
  368SOL     MW 1472   1.754   0.408   0.709 -0.3129  0.2560  0.1661
  369SOL     OW 1473   0.128   2.404   1.777  0.3682 -0.4509 -0.3497
  369SOL    HW1 1474   0.226   2.383   1.785 -0.4293  0.3998  1.0732
  369SOL    HW2 1475   0.144   2.496   1.770 -1.8836 -2.0585 -1.3522
  369SOL     MW 1476   0.143   2.413   1.777 -0.0341 -0.5507 -0.2942
  370SOL     OW 1477   0.726   0.156   0.994  0.1500  0.1721  0.2172
  370SOL    HW1 1478   0.740   0.244   0.960 -1.0604  1.2856  0.2536
  370SOL    HW2 1479   0.813   0.107   0.982 -0.5184  0.0746  0.8703
  370SOL     MW 1480   0.740   0.161   0.988 -0.0979  0.3062  0.3081
  371SOL     OW 1481   1.215   2.812   1.509  0.3956 -0.5132 -0.1583
  371SOL    HW1 1482   1.210   2.717   1.498 -0.6623  0.2028 -0.6631
  371SOL    HW2 1483   1.207   2.847   1.422 -3.3953 -0.5486  2.1037
  371SOL     MW 1484   1.214   2.804   1.496 -0.2441 -0.4234  0.0735
  372SOL     OW 1485   0.812   2.300   0.511 -0.7622  0.5381 -0.0669
  372SOL    HW1 1486   0.779   2.213   0.530  1.3303  0.8893  0.2879
  372SOL    HW2 1487   0.840   2.282   0.423  3.3322 -0.1190 -0.7104
  372SOL     MW 1488   0.811   2.286   0.502  0.0541  0.4978 -0.1050
  373SOL     OW 1489   2.867   3.018   1.403 -0.2631 -0.2021  0.0800
  373SOL    HW1 1490   2.941   2.979   1.351  1.8726  2.1395 -0.1896
  373SOL    HW2 1491   2.846   3.101   1.359 -1.4475  0.4181  2.4813
  373SOL     MW 1492   2.874   3.024   1.390 -0.1376  0.1887  0.3612
  374SOL     OW 1493   1.600   0.450   0.294  0.5240 -0.1078  0.0379
  374SOL    HW1 1494   1.694   0.433   0.286  1.1935  0.4545  0.9929
  374SOL    HW2 1495   1.566   0.403   0.370  2.1690 -3.3431  2.1292
  374SOL     MW 1496   1.608   0.441   0.303  0.8294 -0.4605  0.4398
  375SOL     OW 1497   0.931   2.166   2.338 -0.0379  0.1003 -0.6640
  375SOL    HW1 1498   0.981   2.155   2.423 -0.5480  0.7943  2.2238
  375SOL    HW2 1499   0.909   2.081   2.297 -0.1811  1.7059  0.3495
  375SOL     MW 1500   0.935   2.153   2.344 -0.1241  0.4037 -0.1493
  376SOL     OW 1501   0.699   2.522   0.046  0.3531  0.7544 -0.0350
  376SOL    HW1 1502   0.691   2.440   0.092  1.7285 -1.8256  1.4542
  376SOL    HW2 1503   0.720   2.495  -0.047 -2.4758 -0.5092 -2.5427
  376SOL     MW 1504   0.701   2.508   0.040  0.1613  0.2473 -0.1694
  377SOL     OW 1505   1.280   2.085   0.911  0.3560 -0.1090  0.0656
  377SOL    HW1 1506   1.214   2.062   0.847  0.3442  0.5495 -0.3870
  377SOL    HW2 1507   1.274   2.019   0.982  1.0007 -0.9103 -0.0983
  377SOL     MW 1508   1.270   2.074   0.912  0.4395 -0.1279 -0.0157
  378SOL     OW 1509   0.942   2.893   1.578  0.0502 -0.4648 -0.7402
  378SOL    HW1 1510   0.966   2.799   1.591  1.1928 -0.4304 -1.9425
  378SOL    HW2 1511   1.015   2.906   1.521  1.9418 -2.2428  2.2889
  378SOL     MW 1512   0.955   2.882   1.572  0.4506 -0.6949 -0.4992
  379SOL     OW 1513   1.116   1.657   2.191  0.1126 -0.0970  0.4888
  379SOL    HW1 1514   1.045   1.606   2.150  0.9913  0.5256  0.0729
  379SOL    HW2 1515   1.195   1.604   2.166  0.9791 -0.4011 -2.0049
  379SOL     MW 1516   1.117   1.643   2.182  0.3428 -0.0550  0.1049
  380SOL     OW 1517   0.895   0.070   1.410  0.1579 -0.0827 -0.4401
  380SOL    HW1 1518   0.929  -0.018   1.381  0.3085 -1.5643 -1.7213
  380SOL    HW2 1519   0.929   0.083   1.500 -2.2740  2.7374  0.0603
  380SOL     MW 1520   0.904   0.060   1.418 -0.1431  0.0939 -0.5431
  381SOL     OW 1521   0.781   2.051   0.818  0.0981 -0.5281 -0.0207
  381SOL    HW1 1522   0.872   2.045   0.790 -1.0143 -0.0808 -0.2200
  381SOL    HW2 1523   0.765   2.141   0.864  0.6160 -0.4083  1.4705
  381SOL     MW 1524   0.791   2.062   0.820  0.0196 -0.4533  0.1498
  382SOL     OW 1525   0.785   0.141   0.652  0.4136 -0.3633  0.2717
  382SOL    HW1 1526   0.737   0.166   0.730 -0.1287  1.7869 -2.5909
  382SOL    HW2 1527   0.756   0.054   0.626  1.7162 -0.8652  1.5180
  382SOL     MW 1528   0.775   0.133   0.659  0.5139 -0.1458  0.0585
  383SOL     OW 1529   0.578   0.061   0.285  0.1480  0.1413  0.1633
  383SOL    HW1 1530   0.631  -0.012   0.249 -0.1584 -1.0918 -2.2998
  383SOL    HW2 1531   0.511   0.013   0.332 -0.7049  1.0907  1.7690
  383SOL     MW 1532   0.576   0.045   0.287 -0.0050  0.1039  0.0501
  384SOL     OW 1533   0.744   2.964   0.605 -0.0004  0.1707  0.2823
  384SOL    HW1 1534   0.799   2.932   0.683  2.0080  0.5933 -1.2211
  384SOL    HW2 1535   0.674   2.894   0.594  0.9029  1.4110  0.1665
  384SOL     MW 1536   0.742   2.950   0.614  0.3838  0.3901  0.0687
  385SOL     OW 1537   1.435   2.056   1.544 -0.4792  0.7206  0.0691
  385SOL    HW1 1538   1.496   2.114   1.597  0.5686 -1.2376  1.1636
  385SOL    HW2 1539   1.415   1.975   1.599  1.8910 -0.5146 -3.0952
  385SOL     MW 1540   1.441   2.053   1.558 -0.0282  0.2993 -0.2040
  386SOL     OW 1541   1.376   0.372   0.849  1.2670  0.2918  0.0958
  386SOL    HW1 1542   1.330   0.411   0.924  3.0509  2.2067  0.1134
  386SOL    HW2 1543   1.421   0.294   0.880 -1.0412 -1.2732 -0.8017
  386SOL     MW 1544   1.376   0.367   0.863  1.1978  0.3379 -0.0203
  387SOL     OW 1545   0.798   2.132   1.506  0.5111  0.0007  0.7581
  387SOL    HW1 1546   0.863   2.205   1.486 -1.8412 -1.7270 -0.2995
  387SOL    HW2 1547   0.834   2.050   1.469 -0.2269 -0.3506 -2.0021
  387SOL     MW 1548   0.812   2.131   1.498  0.1033 -0.2736  0.2544
  388SOL     OW 1549   1.471   2.756   1.297 -0.4368  0.4493  0.1425
  388SOL    HW1 1550   1.397   2.822   1.301 -1.5100 -1.5399 -2.2581
  388SOL    HW2 1551   1.437   2.698   1.235 -0.3738  2.0349  2.1859
  388SOL     MW 1552   1.456   2.757   1.290 -0.5701  0.3960  0.0954
  389SOL     OW 1553   0.563   0.135   3.050 -0.3138  0.0380 -0.0477
  389SOL    HW1 1554   0.645   0.078   3.049 -1.7350  0.6020  0.2854
  389SOL    HW2 1555   0.543   0.162   2.959  1.5242 -0.1797  1.3209
  389SOL     MW 1556   0.571   0.131   3.038 -0.2588  0.0837  0.1768
  390SOL     OW 1557   1.345   0.036   0.723 -0.0877 -0.2627  0.7200
  390SOL    HW1 1558   1.398   0.014   0.642 -0.0084 -2.2970 -1.1565
  390SOL    HW2 1559   1.417   0.055   0.779 -2.8851 -3.0154  2.7939
  390SOL     MW 1560   1.362   0.035   0.720 -0.4463 -0.8943  0.7461
  391SOL     OW 1561   0.367   2.174   1.517 -0.5698 -0.4713  0.2939
  391SOL    HW1 1562   0.326   2.084   1.520 -0.0132 -0.8274  1.0660
  391SOL    HW2 1563   0.291   2.230   1.499  0.9073 -0.4070 -2.2785
  391SOL     MW 1564   0.351   2.169   1.515 -0.3015 -0.5098  0.0564
  392SOL     OW 1565   2.055   2.225   0.297 -0.1623  0.0559  0.2822
  392SOL    HW1 1566   2.136   2.269   0.321 -1.9009  0.2014  0.9543
  392SOL    HW2 1567   1.989   2.295   0.319  0.3357 -1.6997  3.5783
  392SOL     MW 1568   2.057   2.240   0.303 -0.3260 -0.1566  0.8058
  393SOL     OW 1569   0.258   2.949   2.863 -0.2882  0.0742  0.0308
  393SOL    HW1 1570   0.349   2.930   2.830  1.3919  0.2209 -0.0245
  393SOL    HW2 1571   0.243   3.042   2.842 -0.7908  1.0335 -1.3645
  393SOL     MW 1572   0.268   2.959   2.856 -0.1329  0.2201 -0.1606
  394SOL     OW 1573   0.989   1.710   1.545  0.0514 -0.0069 -0.5330
  394SOL    HW1 1574   0.951   1.710   1.631  1.7710 -3.0027 -3.2475
  394SOL    HW2 1575   0.959   1.788   1.499  2.2109  3.6048  1.1669
  394SOL     MW 1576   0.980   1.720   1.550  0.5632  0.0743 -0.6668
  395SOL     OW 1577   0.963   2.969   2.551 -0.1289  0.4784  0.5839
  395SOL    HW1 1578   0.966   2.995   2.641 -1.6451 -3.1535 -0.1991
  395SOL    HW2 1579   1.019   2.891   2.544  2.0413 -0.5073  0.5090
  395SOL     MW 1580   0.971   2.962   2.562 -0.0426 -0.1308  0.4707
  396SOL     OW 1581   0.721   1.858   2.436 -0.2740 -0.8023  0.0374
  396SOL    HW1 1582   0.807   1.865   2.483 -0.4347  3.5345 -0.0593
  396SOL    HW2 1583   0.715   1.767   2.406  2.1531 -0.3670 -1.9831
  396SOL     MW 1584   0.732   1.847   2.438  0.0250 -0.1727 -0.2420
  397SOL     OW 1585   0.973   2.308   1.420 -0.7614 -0.3531 -0.3710
  397SOL    HW1 1586   0.988   2.351   1.331 -0.9536  1.5851 -1.3346
  397SOL    HW2 1587   1.065   2.292   1.450  0.3443 -0.1268  2.9062
  397SOL     MW 1588   0.987   2.312   1.412 -0.6409 -0.0675 -0.0658
  398SOL     OW 1589   0.596   2.733   0.593 -0.1800 -0.1472 -0.0926
  398SOL    HW1 1590   0.512   2.692   0.563  2.4147 -1.9135  0.1191
  398SOL    HW2 1591   0.666   2.668   0.589  0.9239  0.6695 -0.1886
  398SOL     MW 1592   0.594   2.719   0.588  0.3080 -0.2725 -0.0773
  399SOL     OW 1593   0.213   2.092   0.320  0.3913 -0.1682  0.3732
  399SOL    HW1 1594   0.122   2.101   0.338  2.7440 -0.1154 -1.6202
  399SOL    HW2 1595   0.225   2.145   0.237 -0.9776 -0.4323 -1.1241
  399SOL     MW 1596   0.202   2.100   0.312  0.5211 -0.1961 -0.0874
  400SOL     OW 1597   0.570   1.933   0.100  0.1653 -0.5121 -0.3225
  400SOL    HW1 1598   0.494   1.993   0.097 -1.5312 -0.6177  2.5942
  400SOL    HW2 1599   0.562   1.877   0.173  0.6163  2.5205  0.0056
  400SOL     MW 1600   0.559   1.934   0.109  0.0009 -0.1259  0.1057
  401SOL     OW 1601   0.823   2.065   0.045 -0.2694 -0.3194 -0.0097
  401SOL    HW1 1602   0.907   2.042   0.087 -0.8750 -5.2709 -0.6692
  401SOL    HW2 1603   0.763   1.993   0.056  0.1244 -0.1098 -0.9240
  401SOL     MW 1604   0.826   2.052   0.052 -0.2973 -0.9450 -0.2174
  402SOL     OW 1605   0.550   2.986   1.720 -0.5896  0.4433 -0.3255
  402SOL    HW1 1606   0.602   2.964   1.795  2.0269 -0.3032 -1.1230
  402SOL    HW2 1607   0.588   3.067   1.683  0.4019  2.4419  0.9649
  402SOL     MW 1608   0.562   2.993   1.725 -0.1136  0.6085 -0.2605
  403SOL     OW 1609   0.095   0.518   0.361  0.0705 -0.4617 -0.6616
  403SOL    HW1 1610   0.167   0.536   0.427  2.7165  1.1230  0.6926
  403SOL    HW2 1611   0.137   0.473   0.293 -0.0946  0.9584  0.3173
  403SOL     MW 1612   0.110   0.514   0.361  0.3978 -0.0653 -0.3538
  404SOL     OW 1613   0.979   2.898   0.776  0.2605 -0.1315  0.2789
  404SOL    HW1 1614   1.041   2.834   0.743 -0.0469  0.5177 -0.7366
  404SOL    HW2 1615   1.001   2.993   0.755  0.3829 -2.8423  1.1607
  404SOL     MW 1616   0.990   2.902   0.769  0.2361 -0.4035  0.2612
  405SOL     OW 1617   0.472   2.483   1.524 -0.6432  0.1650 -0.1590
  405SOL    HW1 1618   0.512   2.553   1.474  0.6671 -1.7108  3.3005
  405SOL    HW2 1619   0.500   2.399   1.476  1.0457 -0.9363  2.0790
  405SOL     MW 1620   0.481   2.482   1.511 -0.2475 -0.2278  0.5927
  406SOL     OW 1621   0.355   2.390   1.158 -0.0787  0.1043  0.1981
  406SOL    HW1 1622   0.256   2.373   1.165  0.2579  0.3907 -0.5373
  406SOL    HW2 1623   0.392   2.301   1.175  1.1357 -0.0029 -0.0046
  406SOL     MW 1624   0.347   2.376   1.161  0.1260  0.1280  0.0744
  407SOL     OW 1625   0.079   2.665   1.163 -0.1076 -0.0551  0.3667
  407SOL    HW1 1626   0.134   2.630   1.236  0.2452 -0.0663  0.2813
  407SOL    HW2 1627   0.123   2.649   1.079  1.4198  0.2752 -0.8733
  407SOL     MW 1628   0.092   2.658   1.161  0.1405 -0.0130  0.1918
  408SOL     OW 1629   2.105   2.110   0.736 -0.0128  0.1852  0.7461
  408SOL    HW1 1630   2.044   2.152   0.795 -2.4088 -1.5486 -1.0871
  408SOL    HW2 1631   2.047   2.065   0.676  0.9931  2.0643  4.4005
  408SOL     MW 1632   2.089   2.109   0.736 -0.1962  0.2044  0.9864
  409SOL     OW 1633   1.542   0.140   0.892  0.5323  0.1909 -0.2826
  409SOL    HW1 1634   1.631   0.179   0.916 -0.0422  0.0170  0.4325
  409SOL    HW2 1635   1.516   0.091   0.974  0.9419 -0.6101  2.2159
  409SOL     MW 1636   1.550   0.139   0.906  0.5106  0.0623  0.1414
  410SOL     OW 1637   1.041   2.459   1.168  0.0295  0.1829 -0.4040
  410SOL    HW1 1638   0.984   2.464   1.093 -0.5725 -3.0474  0.5839
  410SOL    HW2 1639   1.124   2.414   1.140  0.9375 -0.1310  1.2855
  410SOL     MW 1640   1.044   2.454   1.155  0.0698 -0.2847 -0.0507
  411SOL     OW 1641   2.013   3.016   2.894  0.1713 -0.7728 -0.4684
  411SOL    HW1 1642   1.942   2.983   2.837  1.0873  0.6400 -1.4200
  411SOL    HW2 1643   1.993   3.107   2.904  3.0493  0.3235 -2.7589
  411SOL     MW 1644   2.001   3.024   2.888  0.6719 -0.4418 -0.8962
  412SOL     OW 1645   1.066   2.278   0.609  0.3538  0.3035  0.5014
  412SOL    HW1 1646   1.079   2.342   0.680 -2.9399  1.8677 -2.1791
  412SOL    HW2 1647   0.973   2.298   0.585  0.8742 -0.2484  1.0402
  412SOL     MW 1648   1.056   2.289   0.615 -0.0121  0.4371  0.2188
  413SOL     OW 1649   0.593   2.762   0.070  0.2275 -0.0472  0.2263
  413SOL    HW1 1650   0.652   2.680   0.067  2.9153 -2.2940 -0.4035
  413SOL    HW2 1651   0.608   2.795  -0.021 -0.4312  2.0548  2.8980
  413SOL     MW 1652   0.602   2.756   0.058  0.4952 -0.0663  0.4957
  414SOL     OW 1653   2.019   3.035   1.168 -0.5778  0.6564 -0.1817
  414SOL    HW1 1654   2.087   3.104   1.174 -0.0251 -1.5686 -2.2890
  414SOL    HW2 1655   2.005   3.010   1.079 -0.7079 -0.4824  1.2842
  414SOL     MW 1656   2.026   3.041   1.157 -0.5220  0.2126 -0.2663
  415SOL     OW 1657   1.642   2.795   1.086 -0.2074  0.0232  0.4517
  415SOL    HW1 1658   1.591   2.792   1.168  0.6206 -0.5928  0.3184
  415SOL    HW2 1659   1.733   2.822   1.100 -0.3877  0.4307 -1.2633
  415SOL     MW 1660   1.647   2.798   1.099 -0.1219 -0.0043  0.2078
  416SOL     OW 1661   0.588   1.782   1.463  0.2999 -0.3803  0.5505
  416SOL    HW1 1662   0.522   1.778   1.390  1.5393  0.3892  1.3766
  416SOL    HW2 1663   0.650   1.715   1.439  0.3326 -0.2864 -2.0310
  416SOL     MW 1664   0.587   1.772   1.450  0.4677 -0.2664  0.3189
  417SOL     OW 1665   0.988   3.031   2.059  0.3193  0.2781  0.6702
  417SOL    HW1 1666   0.922   3.052   2.125 -1.6638 -0.8119  0.2479
  417SOL    HW2 1667   0.930   3.024   1.973 -2.4235 -0.0630  0.8441
  417SOL     MW 1668   0.972   3.033   2.056 -0.3042  0.0893  0.6374
  418SOL     OW 1669   0.728   2.968   0.165 -0.2622  0.7259 -0.4685
  418SOL    HW1 1670   0.810   2.944   0.119 -0.7036 -3.8012  1.4299
  418SOL    HW2 1671   0.677   2.890   0.147  0.5388 -0.4738  1.5528
  418SOL     MW 1672   0.732   2.955   0.157 -0.2148 -0.0297  0.0487
  419SOL     OW 1673   0.551   2.685   1.351  0.4801  0.5128  0.0243
  419SOL    HW1 1674   0.582   2.766   1.390 -1.4517  1.6265  0.2570
  419SOL    HW2 1675   0.637   2.643   1.344  0.3442 -0.9046  0.1634
  419SOL     MW 1676   0.567   2.690   1.355  0.2073  0.4727  0.0733
  420SOL     OW 1677   0.761   2.251   1.059  0.1773  0.1280 -0.3527
  420SOL    HW1 1678   0.733   2.286   1.144 -0.9320 -0.4887 -0.7963
  420SOL    HW2 1679   0.778   2.337   1.007 -1.9902  1.3552 -0.3552
  420SOL     MW 1680   0.760   2.267   1.063 -0.2550  0.2085 -0.4116
  421SOL     OW 1681   2.934   0.157   3.084  0.0048  0.3090 -0.1347
  421SOL    HW1 1682   2.860   0.109   3.039 -1.2533  0.1636  0.1804
  421SOL    HW2 1683   2.997   0.088   3.105 -0.6369 -0.0751  4.8532
  421SOL     MW 1684   2.932   0.141   3.081 -0.2458  0.2391  0.5650
  422SOL     OW 1685   0.819   2.488   0.973 -0.0266  0.4175  0.3388
  422SOL    HW1 1686   0.749   2.538   1.017 -0.4839 -1.4678 -1.6389
  422SOL    HW2 1687   0.849   2.544   0.900  1.8046  0.7630  1.5068
  422SOL     MW 1688   0.813   2.502   0.969  0.1547  0.2143  0.2320
  423SOL     OW 1689   1.454   0.062   0.465 -0.5006  0.2544  0.4476
  423SOL    HW1 1690   1.497   0.065   0.385 -0.3955 -0.5789  1.2544
  423SOL    HW2 1691   1.456   0.155   0.484  0.5502 -1.5304 -0.0783
  423SOL     MW 1692   1.460   0.074   0.457 -0.3481 -0.0911  0.4847
  424SOL     OW 1693   0.646   2.296   1.345 -0.0323 -0.0364  0.5946
  424SOL    HW1 1694   0.569   2.239   1.323 -1.5164 -0.5924 -1.8977
  424SOL    HW2 1695   0.710   2.231   1.378  3.0658  1.1568 -1.8023
  424SOL     MW 1696   0.644   2.280   1.346  0.1806  0.0477 -0.0505
  425SOL     OW 1697   1.689   2.775   2.064 -0.3847 -0.1379  0.0873
  425SOL    HW1 1698   1.680   2.767   1.967  1.2194  0.4253 -1.8572
  425SOL    HW2 1699   1.728   2.693   2.106  0.1119  2.2475 -0.3301
  425SOL     MW 1700   1.693   2.763   2.056 -0.1075  0.2511 -0.2243
  426SOL     OW 1701   0.884   1.752   1.995  1.2848 -0.0571 -0.0138
  426SOL    HW1 1702   0.812   1.748   1.931 -1.7282  0.5572  0.7776
  426SOL    HW2 1703   0.863   1.836   2.038 -0.0809 -2.1815 -0.8778
  426SOL     MW 1704   0.872   1.762   1.992  0.7071 -0.2564 -0.0234
  427SOL     OW 1705   0.348   1.706   1.869 -0.0356  0.1968 -0.0899
  427SOL    HW1 1706   0.395   1.634   1.818  2.0635 -1.9895  0.3345
  427SOL    HW2 1707   0.289   1.658   1.941 -2.9057  0.9389 -1.0238
  427SOL     MW 1708   0.346   1.690   1.872 -0.1373  0.0063 -0.1571
  428SOL     OW 1709   0.566   2.582   1.093  0.4456  0.0753 -0.4741
  428SOL    HW1 1710   0.485   2.538   1.127 -1.7434  0.1335  0.9864
  428SOL    HW2 1711   0.568   2.649   1.171  1.0109  2.7950 -1.0494
  428SOL     MW 1712   0.556   2.585   1.108  0.2314  0.4418 -0.3573
  429SOL     OW 1713   1.195   2.747   1.147 -0.4537 -0.1256 -0.2154
  429SOL    HW1 1714   1.102   2.731   1.167 -1.8685  1.0569  0.9105
  429SOL    HW2 1715   1.191   2.813   1.081 -1.0355 -1.0639 -1.3257
  429SOL     MW 1716   1.182   2.754   1.141 -0.7171 -0.0934 -0.2133
  430SOL     OW 1717   1.172   2.721   0.711 -0.2963  0.6768 -0.2532
  430SOL    HW1 1718   1.182   2.629   0.738 -1.1990 -1.0631 -1.0327
  430SOL    HW2 1719   1.142   2.703   0.618  1.1645  1.4090  2.6636
  430SOL     MW 1720   1.169   2.707   0.703 -0.2227  0.5438  0.0288
  431SOL     OW 1721   0.296   1.932   1.146 -0.2094 -0.5157 -0.0804
  431SOL    HW1 1722   0.368   1.861   1.130  0.4272 -0.6726  0.1385
  431SOL    HW2 1723   0.263   1.949   1.053 -2.8180  1.2067  0.5305
  431SOL     MW 1724   0.301   1.925   1.132 -0.4696 -0.3091  0.0291
  432SOL     OW 1725   0.049   0.029   1.119  0.3078  0.0968  0.3654
  432SOL    HW1 1726   0.044   0.068   1.206  1.4192 -0.2954 -0.5153
  432SOL    HW2 1727  -0.011  -0.050   1.122  1.9169 -1.2548 -0.5082
  432SOL     MW 1728   0.040   0.023   1.131  0.6667 -0.1333  0.1339
  433SOL     OW 1729   0.662   2.894   1.466 -0.3853 -0.0180 -0.2224
  433SOL    HW1 1730   0.605   2.925   1.543  0.6311  0.2758 -0.3056
  433SOL    HW2 1731   0.756   2.919   1.500  0.6974  0.8789  0.2710
  433SOL     MW 1732   0.667   2.901   1.481 -0.1083  0.1391 -0.1683
  434SOL     OW 1733   1.545   2.813   1.582 -0.7952  1.0325 -0.0317
  434SOL    HW1 1734   1.463   2.857   1.558 -2.2997  0.9326 -1.2160
  434SOL    HW2 1735   1.559   2.755   1.507 -0.8547 -0.0726  0.6046
  434SOL     MW 1736   1.536   2.811   1.569 -1.0016  0.8735 -0.1040
  435SOL     OW 1737   2.756   1.772   0.222 -0.0214  0.3272  0.1782
  435SOL    HW1 1738   2.817   1.819   0.164 -1.8349 -1.3681  4.7038
  435SOL    HW2 1739   2.671   1.805   0.199  0.1565  1.9901 -0.5443
  435SOL     MW 1740   2.753   1.783   0.211 -0.2372  0.3229  0.6800
  436SOL     OW 1741   1.403   2.701   0.346 -0.1666 -0.2353 -0.7638
  436SOL    HW1 1742   1.447   2.686   0.434 -2.9019 -0.1052  0.3567
  436SOL    HW2 1743   1.354   2.786   0.358  0.5498  0.0084  0.8457
  436SOL     MW 1744   1.402   2.710   0.359 -0.4330 -0.1860 -0.4036
  437SOL     OW 1745   1.061   2.979   1.323 -0.2915  0.4597 -0.4047
  437SOL    HW1 1746   1.076   3.028   1.240 -1.1035 -1.5926  0.3406
  437SOL    HW2 1747   1.030   2.896   1.286 -0.0763  1.8318  0.9112
  437SOL     MW 1748   1.059   2.974   1.307 -0.3702  0.3699 -0.1327
  438SOL     OW 1749   0.879   2.730   1.922  0.2304  0.0597  0.0898
  438SOL    HW1 1750   0.838   2.682   2.000  1.6118  2.2317  2.6662
  438SOL    HW2 1751   0.869   2.671   1.852  1.8243 -0.7263  1.7770
  438SOL     MW 1752   0.873   2.716   1.923  0.6230  0.2425  0.6524
  439SOL     OW 1753   1.163   2.082   0.422  0.2671 -0.1937 -0.5616
  439SOL    HW1 1754   1.128   2.141   0.491  3.2322 -0.4598  0.2084
  439SOL    HW2 1755   1.155   2.132   0.336  0.8097 -2.3604  0.2450
  439SOL     MW 1756   1.157   2.097   0.420  0.7299 -0.5147 -0.3536
  440SOL     OW 1757   1.766   2.955   3.079  0.5013  0.1398  0.1378
  440SOL    HW1 1758   1.728   2.904   3.150  0.7159 -0.1748 -0.4098
  440SOL    HW2 1759   1.859   2.925   3.068  0.5205 -0.3671 -0.8633
  440SOL     MW 1760   1.773   2.944   3.087  0.5322  0.0314 -0.0666
  441SOL     OW 1761   0.345   2.659   0.487 -0.4036  0.3715 -0.5703
  441SOL    HW1 1762   0.351   2.600   0.403 -1.5002 -0.5019 -3.0634
  441SOL    HW2 1763   0.363   2.751   0.460  0.4525 -0.2881  0.1640
  441SOL     MW 1764   0.348   2.663   0.472 -0.4353  0.1693 -0.8023
  442SOL     OW 1765   3.089   2.302   0.594 -0.0356 -0.8561  0.3136
  442SOL    HW1 1766   3.095   2.401   0.610  0.1146 -1.2957 -0.7207
  442SOL    HW2 1767   3.002   2.277   0.627 -0.0464  1.6017 -1.1013
  442SOL     MW 1768   3.078   2.312   0.600 -0.0172 -0.5898 -0.0095
  443SOL     OW 1769   1.496   1.764   1.892  0.4306  0.2537  0.2613
  443SOL    HW1 1770   1.445   1.800   1.817 -0.6443 -0.7370 -2.1449
  443SOL    HW2 1771   1.462   1.673   1.902 -2.7022  1.3339 -1.6062
  443SOL     MW 1772   1.485   1.757   1.884 -0.1245  0.2655 -0.3026
  444SOL     OW 1773   0.955   2.609   1.605  0.8445  0.1628  0.4140
  444SOL    HW1 1774   1.012   2.570   1.673  2.4751 -0.1360  1.0354
  444SOL    HW2 1775   0.865   2.584   1.633 -0.6331  0.1968 -1.9741
  444SOL     MW 1776   0.950   2.600   1.618  0.8647  0.1279  0.1809
  445SOL     OW 1777   1.210   0.148   1.430  0.0556 -0.0763  0.2283
  445SOL    HW1 1778   1.237   0.221   1.483  2.4171 -1.6407 -2.4562
  445SOL    HW2 1779   1.165   0.190   1.357 -0.6549  1.2565  2.2769
  445SOL     MW 1780   1.208   0.163   1.427  0.2734 -0.1069  0.1444
  446SOL     OW 1781   2.792   2.858   1.033  0.0544 -0.1432 -0.0519
  446SOL    HW1 1782   2.728   2.899   0.973 -0.1655 -0.7643  2.6360
  446SOL    HW2 1783   2.822   2.770   1.006 -4.2528  0.6688 -0.3461
  446SOL     MW 1784   2.787   2.852   1.021 -0.5429 -0.1180  0.2639
  447SOL     OW 1785   0.010   1.967   1.582  0.2680 -0.3810 -0.4351
  447SOL    HW1 1786   0.021   1.893   1.641 -2.0759 -0.5071  0.8844
  447SOL    HW2 1787  -0.053   1.932   1.506 -0.8087 -0.1780 -0.8954
  447SOL     MW 1788   0.003   1.952   1.580 -0.1833 -0.3709 -0.3217
  448SOL     OW 1789   1.787   2.441   1.675  0.1347 -0.2912 -0.2080
  448SOL    HW1 1790   1.733   2.362   1.647  1.4461  0.3392  1.7359
  448SOL    HW2 1791   1.723   2.515   1.676 -1.7627  0.4010 -0.1539
  448SOL     MW 1792   1.771   2.440   1.671  0.0574 -0.1167  0.0556
  449SOL     OW 1793   0.897   2.955   0.387 -0.5927 -0.2970  0.8049
  449SOL    HW1 1794   0.837   2.949   0.310  0.1322 -0.3958  2.1876
  449SOL    HW2 1795   0.839   2.955   0.465  1.7450  2.0530  0.1037
  449SOL     MW 1796   0.881   2.954   0.387 -0.1886  0.0000  0.8948
  450SOL     OW 1797   1.180   2.462   0.768  0.0692  0.2656 -0.0751
  450SOL    HW1 1798   1.210   2.420   0.847 -3.0665  0.7523  0.1121
  450SOL    HW2 1799   1.242   2.430   0.699 -0.7713 -1.4251  0.3327
  450SOL     MW 1800   1.192   2.452   0.769 -0.4554  0.1067  0.0034
  451SOL     OW 1801   0.562   2.003   1.716 -0.6202 -0.0827  0.0083
  451SOL    HW1 1802   0.608   2.049   1.645 -1.9942 -0.0626  2.4651
  451SOL    HW2 1803   0.514   1.939   1.667  0.1257  0.2056  2.5652
  451SOL     MW 1804   0.562   2.001   1.700 -0.7030 -0.0420  0.6698
  452SOL     OW 1805   0.362   2.646   0.050 -0.0263  0.1608 -0.1077
  452SOL    HW1 1806   0.449   2.698   0.071  2.5251 -0.0820  1.7076
  452SOL    HW2 1807   0.297   2.719   0.028 -2.6308  3.3166 -1.0481
  452SOL     MW 1808   0.365   2.663   0.050 -0.0333  0.5452  0.0077
  453SOL     OW 1809   0.298   3.087   1.590 -0.5826  0.1802  0.2964
  453SOL    HW1 1810   0.367   3.036   1.632  1.9027 -0.8553  0.0434
  453SOL    HW2 1811   0.325   3.083   1.497  0.1409 -0.1684 -2.2314
  453SOL     MW 1812   0.311   3.080   1.584 -0.1593 -0.0024 -0.0705
  454SOL     OW 1813   0.938   2.747   1.230  0.2015  0.3770  0.6653
  454SOL    HW1 1814   0.889   2.671   1.265 -2.6034 -1.6384  1.1559
  454SOL    HW2 1815   0.877   2.776   1.162 -0.1701 -3.0012 -0.9078
  454SOL     MW 1816   0.923   2.741   1.226 -0.2176 -0.3346  0.5224
  455SOL     OW 1817   1.658   2.889   0.249  0.2505  0.0717 -0.2390
  455SOL    HW1 1818   1.730   2.855   0.306  0.3699 -3.5183  0.1983
  455SOL    HW2 1819   1.625   2.805   0.221  2.3143 -1.5164 -1.1047
  455SOL     MW 1820   1.663   2.874   0.253  0.5386 -0.6115 -0.2955
  456SOL     OW 1821   2.743   0.290   1.497  0.3017 -0.1292 -0.1173
  456SOL    HW1 1822   2.709   0.218   1.444  0.9729 -0.8306 -1.1774
  456SOL    HW2 1823   2.823   0.312   1.458  1.2526  1.5012  1.5479
  456SOL     MW 1824   2.749   0.283   1.485  0.5157 -0.0066 -0.0375
  457SOL     OW 1825   0.789   1.646   3.037 -0.4388  0.3197 -0.0996
  457SOL    HW1 1826   0.691   1.637   3.035  0.5185  1.1476  3.3377
  457SOL    HW2 1827   0.805   1.681   3.127  2.0079 -0.1153 -2.0819
  457SOL     MW 1828   0.778   1.649   3.048  0.0103  0.3715  0.0923
  458SOL     OW 1829   1.383   1.497   0.675  0.0371  0.7434  0.3426
  458SOL    HW1 1830   1.315   1.543   0.616 -2.3393  0.9949 -2.1957
  458SOL    HW2 1831   1.348   1.412   0.671 -1.2802  3.0499 -1.2828
  458SOL     MW 1832   1.369   1.492   0.667 -0.4502  1.0809 -0.2067
  459SOL     OW 1833   1.558   0.019   0.208  0.2618 -0.2112  0.0868
  459SOL    HW1 1834   1.593  -0.070   0.212 -2.5279  0.0239  1.4382
  459SOL    HW2 1835   1.508   0.018   0.124  0.3467  0.7735  1.0039
  459SOL     MW 1836   1.556   0.007   0.198 -0.0951 -0.0503  0.3861
  460SOL     OW 1837   1.773   2.189   0.683 -0.4170  0.2722 -0.1127
  460SOL    HW1 1838   1.674   2.173   0.684  0.0779  1.9375 -1.5962
  460SOL    HW2 1839   1.809   2.106   0.654 -1.4740 -0.4157  1.2677
  460SOL     MW 1840   1.765   2.176   0.680 -0.4912  0.4012 -0.1263
  461SOL     OW 1841   0.471   2.410   0.616  0.2022  0.2553  0.4550
  461SOL    HW1 1842   0.429   2.489   0.585 -3.3656  1.0829  1.7508
  461SOL    HW2 1843   0.463   2.421   0.709  1.3261  0.4487 -0.7997
  461SOL     MW 1844   0.465   2.422   0.624 -0.1203  0.3900  0.4604
  462SOL     OW 1845   0.311   0.214   1.296 -1.0248 -0.7390  0.1507
  462SOL    HW1 1846   0.366   0.210   1.214  0.8791 -0.8595  2.0747
  462SOL    HW2 1847   0.369   0.240   1.373  0.5555 -0.6082 -1.6322
  462SOL     MW 1848   0.326   0.217   1.295 -0.5651 -0.7376  0.1693
  463SOL     OW 1849   1.043   0.065   0.716  0.3155  0.0101 -0.2076
  463SOL    HW1 1850   1.119   0.079   0.661  3.4806 -2.0796  1.7250
  463SOL    HW2 1851   0.959   0.102   0.669  0.7768 -0.3931  0.9568
  463SOL     MW 1852   1.042   0.072   0.702  0.7939 -0.3188  0.2010
  464SOL     OW 1853   0.778   3.053   2.248 -0.4646  0.6542  0.4414
  464SOL    HW1 1854   0.778   2.960   2.275  1.0811  1.4332 -1.2758
  464SOL    HW2 1855   0.812   3.104   2.321  1.7799  3.3101  1.2613
  464SOL     MW 1856   0.783   3.047   2.262  0.0355  1.1074  0.3230
  465SOL     OW 1857   0.857   0.338   0.408 -0.9585  0.6403  0.0008
  465SOL    HW1 1858   0.800   0.291   0.466 -1.1537 -0.4058 -0.5879
  465SOL    HW2 1859   0.825   0.298   0.317 -0.2434 -5.2373  0.8091
  465SOL     MW 1860   0.845   0.326   0.403 -0.8899 -0.2732  0.0298
  466SOL     OW 1861   1.056   2.043   0.742  0.6784 -0.4552 -0.3517
  466SOL    HW1 1862   1.068   1.974   0.678  0.6293 -1.3828 -1.2551
  466SOL    HW2 1863   1.065   2.133   0.689 -0.5546  0.8810 -2.1493
  466SOL     MW 1864   1.059   2.045   0.727  0.5093 -0.4013 -0.7080
  467SOL     OW 1865   1.266   2.345   1.007  0.3422 -0.4944  0.0384
  467SOL    HW1 1866   1.358   2.374   1.004  0.2664  0.4495  0.3851
  467SOL    HW2 1867   1.270   2.253   0.976 -0.7425 -1.8213 -0.6508
  467SOL     MW 1868   1.278   2.337   1.002  0.1891 -0.5449 -0.0067
  468SOL     OW 1869   0.446   2.672   1.869 -0.1354 -0.4617 -0.1316
  468SOL    HW1 1870   0.399   2.591   1.852  1.5532  0.2027 -1.2473
  468SOL    HW2 1871   0.380   2.744   1.876 -1.4081  2.6977 -1.7143
  468SOL     MW 1872   0.431   2.671   1.868 -0.0805  0.0428 -0.4876
  469SOL     OW 1873   0.392   2.146   1.876 -0.0291 -0.6071  0.0719
  469SOL    HW1 1874   0.310   2.090   1.863 -1.2809  1.3781 -3.6393
  469SOL    HW2 1875   0.444   2.113   1.803 -1.4284  1.0441 -0.3297
  469SOL     MW 1876   0.388   2.134   1.865 -0.3789 -0.1273 -0.4707
  470SOL     OW 1877   3.084   2.593   0.147 -0.0998  0.1934 -0.0770
  470SOL    HW1 1878   3.001   2.590   0.200  0.5152 -0.5850  0.1729
  470SOL    HW2 1879   3.054   2.603   0.059 -2.9789  0.9174 -0.5042
  470SOL     MW 1880   3.069   2.594   0.142 -0.3985  0.1862 -0.1004
  471SOL     OW 1881   1.182   2.536   1.401 -0.1189 -0.3989  0.9015
  471SOL    HW1 1882   1.108   2.523   1.461  1.0102 -0.3420  0.6656
  471SOL    HW2 1883   1.133   2.511   1.319 -0.9722  1.9301 -2.2522
  471SOL     MW 1884   1.166   2.531   1.398 -0.0825 -0.0841  0.4543
  472SOL     OW 1885   2.793   2.087   0.370  0.2093  0.3041  0.2419
  472SOL    HW1 1886   2.813   2.074   0.276  1.2431  0.0460 -1.3386
  472SOL    HW2 1887   2.795   1.995   0.404 -0.1310  0.8388 -1.2262
  472SOL     MW 1888   2.796   2.073   0.362  0.3008  0.3406 -0.1604
  473SOL     OW 1889   0.769   2.559   1.365  0.1302  0.3158  0.3229
  473SOL    HW1 1890   0.750   2.468   1.347  1.9901 -0.4639 -0.9318
  473SOL    HW2 1891   0.826   2.554   1.441  1.9144  0.0589  2.1935
  473SOL     MW 1892   0.774   2.546   1.373  0.6110  0.1791  0.4042
  474SOL     OW 1893   0.717   2.287   1.738 -0.1246 -0.2492 -0.6258
  474SOL    HW1 1894   0.781   2.309   1.807  2.0645  1.3339 -0.7535
  474SOL    HW2 1895   0.766   2.227   1.679 -2.5015 -0.2106  1.5209
  474SOL     MW 1896   0.732   2.282   1.739 -0.1494 -0.0352 -0.3594
  475SOL     OW 1897   1.611   3.095   1.470 -0.2713  0.1154  0.5178
  475SOL    HW1 1898   1.521   3.098   1.431 -2.4913 -1.2956  1.4612
  475SOL    HW2 1899   1.613   3.029   1.538 -0.9170 -3.3047 -1.9543
  475SOL     MW 1900   1.600   3.086   1.474 -0.6494 -0.5220  0.3161
  476SOL     OW 1901   1.431   2.606   1.077  0.2014 -0.4347  0.3525
  476SOL    HW1 1902   1.338   2.636   1.087 -0.5164 -0.0831 -3.1895
  476SOL    HW2 1903   1.467   2.682   1.024 -0.4002  1.6058  0.6301
  476SOL     MW 1904   1.424   2.620   1.071  0.0273 -0.1191 -0.0782
  477SOL     OW 1905   0.806   2.564   0.648  0.4891  0.0985  0.3629
  477SOL    HW1 1906   0.868   2.600   0.585 -1.4319  0.2498 -1.1474
  477SOL    HW2 1907   0.784   2.474   0.626  0.4782  3.3008  0.8085
  477SOL     MW 1908   0.811   2.557   0.637  0.2342  0.5410  0.2224
  478SOL     OW 1909   0.139   2.687   0.897 -0.0177  0.0500  0.0663
  478SOL    HW1 1910   0.203   2.752   0.870  2.6742 -2.3545  1.4355
  478SOL    HW2 1911   0.181   2.604   0.880  2.1007 -0.1812  1.7613
  478SOL     MW 1912   0.153   2.685   0.891  0.6169 -0.2978  0.4706
  479SOL     OW 1913   1.444   2.002   1.290 -0.3043  0.0491  0.1654
  479SOL    HW1 1914   1.443   2.030   1.382  0.3918  0.2313  2.0902
  479SOL    HW2 1915   1.484   1.913   1.288 -0.4068 -2.5441 -0.1494
  479SOL     MW 1916   1.449   1.994   1.302 -0.2260 -0.2690  0.3778
  480SOL     OW 1917   1.999   2.449   1.292  0.8056  0.2124  0.8784
  480SOL    HW1 1918   1.974   2.359   1.303  0.6837 -0.7362 -1.2624
  480SOL    HW2 1919   2.017   2.461   1.199 -0.5884  1.2114 -0.1286
  480SOL     MW 1920   1.998   2.439   1.281  0.6056  0.2191  0.4631
  481SOL     OW 1921   1.054   0.037   1.091 -0.5025  0.3550  0.2185
  481SOL    HW1 1922   1.100  -0.025   1.031  1.6276  0.4222 -0.3615
  481SOL    HW2 1923   1.118   0.113   1.107  0.3722  2.2577 -3.8563
  481SOL     MW 1924   1.068   0.038   1.085 -0.1060  0.6149 -0.3957
  482SOL     OW 1925   1.095   3.078   0.264  0.5021 -0.1857  0.3637
  482SOL    HW1 1926   1.021   3.040   0.312 -0.1997 -0.1884  0.1657
  482SOL    HW2 1927   1.094   3.170   0.301  0.7887 -2.8460 -0.3915
  482SOL     MW 1928   1.085   3.086   0.275  0.4473 -0.5371  0.2379
  483SOL     OW 1929   0.426   2.922   0.399  0.2718  0.3787 -0.3537
  483SOL    HW1 1930   0.337   2.965   0.373 -1.6137  2.6579  0.2926
  483SOL    HW2 1931   0.440   2.954   0.488 -0.6079 -0.6839 -0.0582
  483SOL     MW 1932   0.416   2.932   0.407 -0.0930  0.5392 -0.2294
  484SOL     OW 1933   1.897   1.941   1.480 -0.2724 -0.0339 -0.1621
  484SOL    HW1 1934   1.930   2.022   1.446 -2.4879  0.3812  1.8874
  484SOL    HW2 1935   1.833   1.971   1.541  0.5956 -1.1236  3.2256
  484SOL     MW 1936   1.893   1.956   1.484 -0.4502 -0.1229  0.5553
  485SOL     OW 1937   0.552   2.305   0.256  0.4451 -0.5877  0.2074
  485SOL    HW1 1938   0.574   2.291   0.352  1.0158  0.4048  3.4315
  485SOL    HW2 1939   0.477   2.369   0.260 -0.9982 -0.3821  0.9240
  485SOL     MW 1940   0.545   2.312   0.269  0.3300 -0.4297  0.7273
  486SOL     OW 1941   0.151   2.344   1.484 -0.0838  0.4302  0.4803
  486SOL    HW1 1942   0.183   2.423   1.437  1.2882  1.3326 -0.5454
  486SOL    HW2 1943   0.109   2.381   1.560  1.7685  1.6038  1.7011
  486SOL     MW 1944   0.150   2.360   1.488  0.3416  0.7041  0.5060
  487SOL     OW 1945   1.228   1.674   1.059  0.1823  0.3462 -0.3534
  487SOL    HW1 1946   1.217   1.758   1.112  2.0267 -1.2756 -1.2075
  487SOL    HW2 1947   1.323   1.673   1.035  0.1970  1.3523  3.1760
  487SOL     MW 1948   1.239   1.685   1.063  0.4276  0.2650 -0.0005
  488SOL     OW 1949   1.616   1.858   0.537 -0.0384 -0.9063  0.4062
  488SOL    HW1 1950   1.684   1.855   0.466 -2.5043  0.7422  0.4783
  488SOL    HW2 1951   1.556   1.919   0.491  0.4097 -0.7720  1.6263
  488SOL     MW 1952   1.617   1.866   0.521 -0.3046 -0.6711  0.5767
  489SOL     OW 1953   0.768   0.779   0.589  0.1363  0.6236  0.9911
  489SOL    HW1 1954   0.781   0.697   0.539 -0.5481 -0.8529  2.6876
  489SOL    HW2 1955   0.741   0.752   0.681 -2.6363  2.1501 -1.1149
  489SOL     MW 1956   0.766   0.764   0.595 -0.3198  0.6302  0.9371
  490SOL     OW 1957   1.440   2.075   0.474  0.5014  0.1784 -0.6002
  490SOL    HW1 1958   1.461   2.152   0.423  0.8151 -2.1788  0.8372
  490SOL    HW2 1959   1.346   2.058   0.452 -2.0609 -0.9191  1.6423
  490SOL     MW 1960   1.430   2.083   0.464  0.2047 -0.2774 -0.1147
  491SOL     OW 1961   1.269   2.934   0.399 -0.1717 -0.0235  0.3157
  491SOL    HW1 1962   1.333   3.005   0.428  2.7517 -1.2326  1.0524
  491SOL    HW2 1963   1.206   2.983   0.343 -1.0866 -0.8028  0.3213
  491SOL     MW 1964   1.269   2.950   0.395  0.0933 -0.2859  0.4137
  492SOL     OW 1965   1.516   2.163   0.720 -0.0575  0.4058  0.2572
  492SOL    HW1 1966   1.492   2.116   0.637 -0.5184  0.3808  1.3513
  492SOL    HW2 1967   1.481   2.122   0.793  0.4665  2.8425  1.4132
  492SOL     MW 1968   1.508   2.151   0.719 -0.0492  0.7240  0.5541
  493SOL     OW 1969   0.192   3.030   0.325 -0.0243  0.1669  0.8710
  493SOL    HW1 1970   0.130   3.065   0.389  0.1859  1.7866  0.4430
  493SOL    HW2 1971   0.180   3.079   0.237  2.9531  3.2419  3.4092
  493SOL     MW 1972   0.182   3.041   0.322  0.3963  0.7863  1.1494
  494SOL     OW 1973   0.414   2.405   1.783  0.1666 -0.0726 -0.1160
  494SOL    HW1 1974   0.423   2.313   1.806  2.1499  0.7659  1.5624
  494SOL    HW2 1975   0.447   2.416   1.691 -1.8346  1.4478  0.4759
  494SOL     MW 1976   0.420   2.395   1.774  0.1643  0.2386  0.1835
  495SOL     OW 1977   2.892   1.644   2.626 -0.7831  0.2675 -0.2064
  495SOL    HW1 1978   2.869   1.724   2.584 -0.4064  1.6011 -1.0670
  495SOL    HW2 1979   2.870   1.644   2.723  2.2151 -1.8414  1.1434
  495SOL     MW 1980   2.886   1.655   2.633 -0.3378  0.1652 -0.1419
  496SOL     OW 1981   2.910   2.379   2.701  0.0020  0.2450  0.4092
  496SOL    HW1 1982   2.971   2.301   2.732  0.9713 -1.4596 -0.1105
  496SOL    HW2 1983   2.974   2.448   2.694  1.2771 -1.7487 -0.4431
  496SOL     MW 1984   2.927   2.378   2.704  0.2982 -0.2430  0.2282
  497SOL     OW 1985   1.639   2.214   2.601  0.3524 -0.2281 -0.0462
  497SOL    HW1 1986   1.583   2.183   2.532 -1.3595  0.6744  1.2091
  497SOL    HW2 1987   1.617   2.155   2.670  0.5934 -1.6513 -0.1942
  497SOL     MW 1988   1.629   2.202   2.601  0.1583 -0.2968  0.0999
  498SOL     OW 1989   1.443   2.711   2.318  0.1032  0.1131  0.3761
  498SOL    HW1 1990   1.435   2.610   2.311 -0.0615  1.2249  2.3775
  498SOL    HW2 1991   1.533   2.716   2.358  0.9857  1.8632 -0.5714
  498SOL     MW 1992   1.454   2.698   2.322  0.1979  0.4907  0.5152
  499SOL     OW 1993   0.994   0.151   3.081  0.3933  0.1452 -0.0607
  499SOL    HW1 1994   0.907   0.174   3.135 -2.7330 -0.9385 -1.4391
  499SOL    HW2 1995   1.040   0.077   3.132 -3.8776 -1.4904  0.1811
  499SOL     MW 1996   0.988   0.145   3.095 -0.5827 -0.2136 -0.2107
  500SOL     OW 1997   1.090   2.531   2.805  0.6898 -0.8919  0.0521
  500SOL    HW1 1998   1.146   2.481   2.872  0.3121 -0.1693  1.3248
  500SOL    HW2 1999   1.000   2.526   2.842  0.6521 -0.4041 -0.7575
  500SOL     MW 2000   1.085   2.524   2.818  0.6350 -0.7322  0.1132
  501SOL     OW 2001   1.815   2.220   3.064 -0.4334  0.3121  0.2932
  501SOL    HW1 2002   1.796   2.312   3.097 -0.3463 -2.3260  0.8506
  501SOL    HW2 2003   1.909   2.209   3.050  0.6383 -0.9010 -2.2047
  501SOL     MW 2004   1.825   2.231   3.066 -0.2805 -0.1960  0.0372
  502SOL     OW 2005   0.159   2.812   3.069  0.0290 -0.2497  0.4075
  502SOL    HW1 2006   0.107   2.756   3.015 -0.7042 -0.3225  0.7949
  502SOL    HW2 2007   0.208   2.856   2.995  0.4068 -3.2891  1.0608
  502SOL     MW 2008   0.159   2.810   3.052 -0.0179 -0.6603  0.5448
  503SOL     OW 2009   1.063   2.776   2.165 -0.7029  0.2154  0.3913
  503SOL    HW1 2010   1.005   2.742   2.092 -1.1307 -3.0276 -1.5468
  503SOL    HW2 2011   1.053   2.868   2.143 -0.1978  2.3823  0.6093
  503SOL     MW 2012   1.054   2.784   2.152 -0.6927  0.0734  0.1644
  504SOL     OW 2013   0.080   2.679   2.115 -0.3276 -0.2115 -0.2241
  504SOL    HW1 2014   0.124   2.607   2.068 -0.7055 -1.7767  0.1753
  504SOL    HW2 2015   0.065   2.629   2.199  0.0602 -0.1891 -1.1012
  504SOL     MW 2016   0.084   2.663   2.120 -0.3263 -0.4151 -0.2871
  505SOL     OW 2017   1.691   2.687   2.704  0.4229  0.1202 -0.5519
  505SOL    HW1 2018   1.697   2.683   2.603 -2.5071  1.2053 -1.8395
  505SOL    HW2 2019   1.650   2.770   2.725 -2.5869 -1.6880 -2.1372
  505SOL     MW 2020   1.687   2.697   2.693 -0.3608  0.0248 -0.9310
  506SOL     OW 2021   1.586   3.047   2.836  0.3510 -0.0783 -0.0131
  506SOL    HW1 2022   1.624   3.040   2.923  0.2673 -0.6120 -0.5425
  506SOL    HW2 2023   1.659   3.042   2.770  2.9260 -0.5541  0.9703
  506SOL     MW 2024   1.601   3.045   2.838  0.6797 -0.2115  0.0468
  507SOL     OW 2025   0.862   2.754   2.859  0.0909 -0.6017 -0.0584
  507SOL    HW1 2026   0.911   2.820   2.811 -3.4632 -2.4948  3.6612
  507SOL    HW2 2027   0.769   2.784   2.852 -0.9679 -1.1233  0.1255
  507SOL     MW 2028   0.857   2.767   2.851 -0.5177 -0.9203  0.4567
  508SOL     OW 2029   1.130   2.079   2.521 -0.0182  0.0410  0.0375
  508SOL    HW1 2030   1.223   2.058   2.536 -0.1397  2.9558 -1.9777
  508SOL    HW2 2031   1.124   2.154   2.585 -2.1545 -1.2065 -1.0107
  508SOL     MW 2032   1.142   2.086   2.532 -0.3161  0.2610 -0.3667
  509SOL     OW 2033   0.618   2.522   2.821  0.6300 -0.7615  0.5579
  509SOL    HW1 2034   0.626   2.495   2.732  1.5449 -0.6065 -0.8820
  509SOL    HW2 2035   0.529   2.521   2.847  2.9849  0.0726  0.6278
  509SOL     MW 2036   0.607   2.518   2.812  1.0614 -0.6310  0.3772
  510SOL     OW 2037   1.537   2.562   1.700  0.0469 -0.3853  0.1947
  510SOL    HW1 2038   1.538   2.662   1.693  1.0505  1.2950  0.4755
  510SOL    HW2 2039   1.485   2.557   1.785  0.7263 -0.1992 -1.2125
  510SOL     MW 2040   1.530   2.574   1.711  0.2689 -0.1391  0.0461
  511SOL     OW 2041   0.480   2.645   2.447  0.3681 -0.6940  0.0976
  511SOL    HW1 2042   0.535   2.567   2.466  2.0618  1.6397 -1.0050
  511SOL    HW2 2043   0.466   2.627   2.354 -1.2595  1.4660  3.6743
  511SOL     MW 2044   0.485   2.632   2.437  0.3769 -0.1011  0.4241
  512SOL     OW 2045   1.059   2.007   2.842 -0.4452  0.0510  0.6994
  512SOL    HW1 2046   0.966   2.024   2.846 -0.2546  1.6003 -0.2289
  512SOL    HW2 2047   1.078   1.929   2.900 -2.6972 -0.0420  1.8723
  512SOL     MW 2048   1.049   1.999   2.850 -0.7172  0.2432  0.7317
  513SOL     OW 2049   1.519   2.445   2.321 -0.3065  0.1081  0.3019
  513SOL    HW1 2050   1.603   2.446   2.360 -1.1930 -3.5130  2.2361
  513SOL    HW2 2051   1.505   2.352   2.335  0.1837  0.9031 -1.9406
  513SOL     MW 2052   1.528   2.433   2.328 -0.3588 -0.2648  0.2612
  514SOL     OW 2053   0.264   2.525   2.589 -0.4673 -0.7505 -0.3921
  514SOL    HW1 2054   0.338   2.570   2.545 -2.1754 -0.1851  2.0551
  514SOL    HW2 2055   0.296   2.495   2.676 -0.0012  1.9241 -0.0659
  514SOL     MW 2056   0.278   2.527   2.595 -0.6311 -0.3230 -0.0262
  515SOL     OW 2057   1.076   2.090   1.783 -0.6711 -0.2186  0.4115
  515SOL    HW1 2058   0.996   2.125   1.813  1.4996  0.4404 -0.6632
  515SOL    HW2 2059   1.140   2.101   1.857 -0.4803  1.0781  1.2487
  515SOL     MW 2060   1.074   2.096   1.797 -0.3595  0.0394  0.3802
  516SOL     OW 2061   1.464   2.481   3.044 -0.2323  0.3905 -0.0162
  516SOL    HW1 2062   1.509   2.458   2.961 -1.8495  0.0581 -3.9202
  516SOL    HW2 2063   1.376   2.498   3.015  1.4646 -1.4096  0.2007
  516SOL     MW 2064   1.458   2.480   3.029 -0.2218  0.1092 -0.5027
  517SOL     OW 2065   0.618   2.451   2.158 -0.2662 -0.8825 -0.2073
  517SOL    HW1 2066   0.556   2.526   2.164 -0.7930  1.1748  1.8312
  517SOL    HW2 2067   0.564   2.386   2.116  0.1093 -3.0731 -1.5908
  517SOL     MW 2068   0.603   2.452   2.153 -0.2862 -0.9001 -0.1209
  518SOL     OW 2069   1.905   0.162   2.986  0.6043 -0.0850 -0.2999
  518SOL    HW1 2070   1.836   0.179   2.925  0.6272  0.1138  0.2098
  518SOL    HW2 2071   1.861   0.146   3.072 -2.4255 -1.2390 -2.8233
  518SOL     MW 2072   1.890   0.162   2.989  0.2076 -0.2111 -0.5656
  519SOL     OW 2073   0.719   2.555   1.694  0.2625  0.3784  0.0389
  519SOL    HW1 2074   0.716   2.463   1.695  1.9623  1.1979 -0.3625
  519SOL    HW2 2075   0.636   2.578   1.736  3.2617  1.9663  0.8300
  519SOL     MW 2076   0.708   2.546   1.700  0.8825  0.6960  0.0903
  520SOL     OW 2077   1.289   2.146   2.926 -0.0701  0.0554  0.5490
  520SOL    HW1 2078   1.198   2.114   2.910 -0.2646  0.7882 -1.6724
  520SOL    HW2 2079   1.318   2.071   2.975 -1.4159  0.6061 -2.3123
  520SOL     MW 2080   1.281   2.132   2.930 -0.2734  0.2247 -0.1216
  521SOL     OW 2081   1.719   2.068   2.313  0.3680 -0.3439  0.4758
  521SOL    HW1 2082   1.747   2.096   2.223  0.8194 -1.2562 -0.2151
  521SOL    HW2 2083   1.714   1.971   2.312  1.7439  0.5502  0.0286
  521SOL     MW 2084   1.722   2.059   2.301  0.6091 -0.3463  0.3256
  522SOL     OW 2085   2.848   2.549   2.167 -0.0002 -0.3941 -0.3802
  522SOL    HW1 2086   2.941   2.525   2.178  2.8478 -0.4445  0.6220
  522SOL    HW2 2087   2.820   2.576   2.255 -0.9268 -0.3029  1.2341
  522SOL     MW 2088   2.857   2.550   2.180  0.2533 -0.3887 -0.0350
  523SOL     OW 2089   0.870   1.515   2.129 -0.1582 -0.2100 -0.2469
  523SOL    HW1 2090   0.861   1.590   2.073 -0.4064 -0.7539  2.1480
  523SOL    HW2 2091   0.913   1.452   2.072 -0.0599  3.3164 -0.2650
  523SOL     MW 2092   0.875   1.517   2.114 -0.1780  0.1835  0.0667
  524SOL     OW 2093   0.839   2.418   2.893 -0.6289  0.3678 -0.3013
  524SOL    HW1 2094   0.758   2.467   2.870 -0.0031  1.0508 -0.5441
  524SOL    HW2 2095   0.825   2.326   2.869  0.1510  1.8841 -1.3484
  524SOL     MW 2096   0.826   2.412   2.887 -0.4434  0.6580 -0.4715
  525SOL     OW 2097   0.399   2.256   2.120  0.9189  0.1769  0.0984
  525SOL    HW1 2098   0.373   2.188   2.176 -1.0507  1.5808 -0.3486
  525SOL    HW2 2099   0.391   2.221   2.027 -0.5479  0.5085  0.9573
  525SOL     MW 2100   0.395   2.243   2.115  0.4655  0.4059  0.1527
  526SOL     OW 2101   0.692   2.078   2.000  0.2523  0.6350 -0.6551
  526SOL    HW1 2102   0.639   2.098   1.919  1.7122  1.1486 -0.3195
  526SOL    HW2 2103   0.644   2.134   2.066  1.9955  2.0631 -0.2917
  526SOL     MW 2104   0.679   2.088   1.998  0.6749  0.8912 -0.5629
  527SOL     OW 2105   1.314   1.977   2.007  0.0883 -0.4266  0.3463
  527SOL    HW1 2106   1.307   1.941   2.097 -2.6413 -0.2499  1.5533
  527SOL    HW2 2107   1.349   1.899   1.969 -2.5260  0.2551 -2.7347
  527SOL     MW 2108   1.317   1.962   2.014 -0.6168 -0.3133  0.0990
  528SOL     OW 2109   0.633   2.862   2.914  0.0091  0.5428 -0.0786
  528SOL    HW1 2110   0.675   2.946   2.923 -2.4511 -0.9058 -1.3391
  528SOL    HW2 2111   0.566   2.873   2.845 -1.6196 -1.0434 -0.3815
  528SOL     MW 2112   0.630   2.875   2.906 -0.5304  0.1424 -0.2849
  529SOL     OW 2113   0.949   2.366   1.892 -0.2545 -0.1299 -0.5748
  529SOL    HW1 2114   0.951   2.356   1.992  2.2514 -0.7395  0.6733
  529SOL    HW2 2115   1.031   2.411   1.878 -3.9581  0.2300 -0.1113
  529SOL     MW 2116   0.960   2.371   1.904 -0.4125 -0.1629 -0.3489
  530SOL     OW 2117   1.185   2.417   3.008  0.0509  0.0260 -0.5154
  530SOL    HW1 2118   1.109   2.448   3.048  2.4034 -0.4081 -1.1435
  530SOL    HW2 2119   1.207   2.326   3.031  0.4884 -1.0930 -0.2801
  530SOL     MW 2120   1.178   2.409   3.016  0.4190 -0.1789 -0.5672
  531SOL     OW 2121   0.974   1.866   2.573  0.3271 -0.2642  0.6855
  531SOL    HW1 2122   1.036   1.942   2.566 -0.4117  0.1956 -1.6988
  531SOL    HW2 2123   0.964   1.849   2.659  1.5638 -0.0679 -1.2344
  531SOL     MW 2124   0.981   1.874   2.584  0.3928 -0.1777  0.1176
  532SOL     OW 2125   1.725   0.327   2.831 -0.2145 -0.0041 -0.1119
  532SOL    HW1 2126   1.696   0.332   2.743 -1.0809  1.1295 -0.9859
  532SOL    HW2 2127   1.810   0.365   2.834  1.6950 -0.6710  0.1863
  532SOL     MW 2128   1.732   0.333   2.820 -0.0769  0.0575 -0.1879
  533SOL     OW 2129   1.842   2.670   3.023  0.0515  0.4362 -0.6780
  533SOL    HW1 2130   1.823   2.582   3.004 -0.4657 -1.7299 -0.0098
  533SOL    HW2 2131   1.771   2.716   2.981  1.5190 -0.2091  0.9059
  533SOL     MW 2132   1.830   2.665   3.015  0.1769  0.0653 -0.3809
  534SOL     OW 2133   1.773   2.439   2.513 -0.3307 -0.2226  0.0830
  534SOL    HW1 2134   1.729   2.365   2.561 -1.6778 -1.6360  2.3850
  534SOL    HW2 2135   1.854   2.449   2.559 -1.9268 -1.0251 -0.7096
  534SOL     MW 2136   1.778   2.431   2.526 -0.7190 -0.5150  0.2822
  535SOL     OW 2137   1.912   2.402   1.903 -0.1851 -0.0852  0.1793
  535SOL    HW1 2138   1.856   2.415   1.823  1.4619 -0.5415  1.4538
  535SOL    HW2 2139   2.000   2.415   1.865  0.8998 -2.1331 -0.4726
  535SOL     MW 2140   1.916   2.405   1.888  0.1753 -0.4156  0.2615
  536SOL     OW 2141   0.555   1.814   2.049  0.3748 -0.3632  0.3552
  536SOL    HW1 2142   0.494   1.799   1.979  0.9128 -0.1796  1.5703
  536SOL    HW2 2143   0.603   1.900   2.034  1.2725 -0.4133 -0.1002
  536SOL     MW 2144   0.553   1.824   2.038  0.5642 -0.3456  0.4554
  537SOL     OW 2145   1.082   0.196   2.817  0.0190  0.0301 -0.4790
  537SOL    HW1 2146   1.094   0.218   2.908 -0.3053 -0.1140  0.1000
  537SOL    HW2 2147   1.087   0.283   2.773  0.7551 -1.7226 -0.4882
  537SOL     MW 2148   1.084   0.210   2.823  0.0734 -0.2202 -0.4038
  538SOL     OW 2149   1.432   0.063   3.067  0.5102 -0.4418 -0.2610
  538SOL    HW1 2150   1.417   0.143   3.121  0.8725 -1.6060 -1.2454
  538SOL    HW2 2151   1.344   0.016   3.064 -0.5314 -1.8038  1.6120
  538SOL     MW 2152   1.418   0.067   3.073  0.4206 -0.7751 -0.1438
  539SOL     OW 2153   0.734   2.809   2.570 -0.7047 -0.3523 -0.1293
  539SOL    HW1 2154   0.800   2.879   2.569  2.1145 -0.6620  0.4664
  539SOL    HW2 2155   0.773   2.734   2.613 -0.9860  3.2365  1.0934
  539SOL     MW 2156   0.747   2.808   2.575 -0.3698  0.0803  0.1106
  540SOL     OW 2157   0.352   2.498   2.901 -0.3935  0.1750 -0.4802
  540SOL    HW1 2158   0.349   2.547   2.984  0.9881  0.3767  1.6984
  540SOL    HW2 2159   0.312   2.418   2.939  1.8992 -3.0809  3.1131
  540SOL     MW 2160   0.346   2.494   2.917  0.0913 -0.2280  0.2813
  541SOL     OW 2161   0.212   2.941   2.189  0.1274 -0.3362 -0.4090
  541SOL    HW1 2162   0.181   2.858   2.153  1.7426 -0.7018 -3.2108
  541SOL    HW2 2163   0.255   2.918   2.275 -0.2213  2.1335  1.8093
  541SOL     MW 2164   0.214   2.927   2.196  0.2945 -0.0586 -0.4860
  542SOL     OW 2165   1.046   2.275   2.686 -0.3740 -0.3491  0.1722
  542SOL    HW1 2166   1.009   2.237   2.766 -1.0772  0.4382  1.0653
  542SOL    HW2 2167   1.069   2.367   2.710  0.2536 -0.1391 -0.3331
  542SOL     MW 2168   1.044   2.282   2.700 -0.3840 -0.2175  0.2233
  543SOL     OW 2169   1.712   2.426   2.820 -0.2632 -0.6329  0.1098
  543SOL    HW1 2170   1.702   2.366   2.748  1.5742  0.5689  2.1576
  543SOL    HW2 2171   1.716   2.511   2.782  0.5193  0.9714  0.8350
  543SOL     MW 2172   1.711   2.429   2.805  0.0825 -0.2626  0.4757
  544SOL     OW 2173   0.772   0.138   2.760  0.1783  0.4760 -0.2596
  544SOL    HW1 2174   0.675   0.150   2.749 -2.0901  0.7996  0.5686
  544SOL    HW2 2175   0.819   0.141   2.679  1.7691 -1.4928  1.1940
  544SOL     MW 2176   0.765   0.140   2.748  0.0889  0.2590  0.0415
  545SOL     OW 2177   1.449   2.178   2.362 -0.6449 -0.2301 -0.6164
  545SOL    HW1 2178   1.378   2.181   2.294 -0.3815 -2.4133 -1.7230
  545SOL    HW2 2179   1.533   2.151   2.316  2.6286  0.3316 -1.7744
  545SOL     MW 2180   1.450   2.175   2.347 -0.1782 -0.4440 -0.9152
  546SOL     OW 2181   2.906   2.012   0.118 -0.2847  0.3225 -0.1368
  546SOL    HW1 2182   2.921   2.091   0.066 -1.7442 -1.6771 -0.3100
  546SOL    HW2 2183   2.994   1.969   0.119 -0.5633  1.3203 -0.2199
  546SOL     MW 2184   2.920   2.017   0.111 -0.5140  0.1903 -0.1707
  547SOL     OW 2185   0.181   0.072   0.096  0.3462 -0.2207 -0.1273
  547SOL    HW1 2186   0.248   0.109   0.033  3.0415  1.0522 -1.5288
  547SOL    HW2 2187   0.117   0.025   0.041  1.7296 -0.0653 -1.4746
  547SOL     MW 2188   0.181   0.070   0.081  0.8843 -0.0323 -0.4899
  548SOL     OW 2189   0.318   2.481   0.268 -0.3013 -0.6899 -0.5848
  548SOL    HW1 2190   0.346   2.529   0.186 -0.4766 -2.4758  0.7404
  548SOL    HW2 2191   0.268   2.414   0.233  0.6610  1.7304  2.2306
  548SOL     MW 2192   0.315   2.478   0.253 -0.1974 -0.6062 -0.0385
  549SOL     OW 2193   0.849   1.937   2.204 -0.0724  0.3887 -0.1742
  549SOL    HW1 2194   0.805   2.008   2.160  1.2781  2.5575 -1.3262
  549SOL    HW2 2195   0.792   1.898   2.263  1.3024 -1.4110 -1.1146
  549SOL     MW 2196   0.835   1.941   2.206  0.2872  0.4374 -0.4503
  550SOL     OW 2197   1.815   1.721   2.547 -0.6124 -0.6528 -0.0608
  550SOL    HW1 2198   1.816   1.740   2.454  3.9701  1.7215 -0.6626
  550SOL    HW2 2199   1.791   1.803   2.587 -1.2977  0.2320 -0.7183
  550SOL     MW 2200   1.812   1.735   2.540 -0.0982 -0.2228 -0.2270
  551SOL     OW 2201   0.907   2.258   0.263 -0.0371 -0.1176  0.3374
  551SOL    HW1 2202   0.986   2.284   0.213 -1.3398 -4.0449  0.5240
  551SOL    HW2 2203   0.863   2.208   0.193 -0.9305 -1.6424 -1.9314
  551SOL     MW 2204   0.912   2.255   0.247 -0.3268 -0.8370  0.0627
  552SOL     OW 2205   1.759   1.789   2.274 -0.3051  0.4232 -0.1571
  552SOL    HW1 2206   1.667   1.757   2.274  2.0861 -0.3390 -2.0777
  552SOL    HW2 2207   1.804   1.715   2.226 -0.9730 -3.0669 -3.4154
  552SOL     MW 2208   1.753   1.775   2.268 -0.0777 -0.1379 -0.8404
  553SOL     OW 2209   1.213   2.239   1.546 -0.7700 -0.2691  0.2687
  553SOL    HW1 2210   1.258   2.161   1.564 -1.8206 -0.3360 -2.3708
  553SOL    HW2 2211   1.283   2.298   1.507  1.4642  1.4330 -0.1961
  553SOL     MW 2212   1.228   2.237   1.544 -0.6138 -0.0534 -0.1409
  554SOL     OW 2213   0.486   2.926   2.691 -0.1739 -0.3907  0.9585
  554SOL    HW1 2214   0.444   2.992   2.635  3.2783 -1.4889  1.0108
  554SOL    HW2 2215   0.556   2.888   2.634 -0.9198  0.5073  0.4690
  554SOL     MW 2216   0.490   2.930   2.676  0.1832 -0.4171  0.9008
  555SOL     OW 2217   0.626   2.452   2.547  0.0652  0.4949  0.4293
  555SOL    HW1 2218   0.591   2.366   2.559  1.9352  0.9122  2.2479
  555SOL    HW2 2219   0.718   2.454   2.515 -0.9249  0.7270 -0.3391
  555SOL     MW 2220   0.634   2.441   2.544  0.1813  0.5806  0.5678
  556SOL     OW 2221   1.050   1.929   0.092 -0.1688 -0.1420 -0.7244
  556SOL    HW1 2222   1.061   1.866   0.025  0.4557  1.5495  1.3633
  556SOL    HW2 2223   1.117   1.907   0.159  3.1207 -1.9920 -1.8564
  556SOL     MW 2224   1.061   1.917   0.092  0.3476 -0.1629 -0.5983
  557SOL     OW 2225   0.983   2.684   0.483  0.7526  0.4527 -0.5406
  557SOL    HW1 2226   1.040   2.642   0.416  0.2901  1.4972  0.7849
  557SOL    HW2 2227   0.963   2.777   0.452  3.0958 -0.7081 -1.2634
  557SOL     MW 2228   0.988   2.690   0.470  1.0008  0.4374 -0.4611
  558SOL     OW 2229   0.216   2.270   2.994 -0.3856 -0.5793  0.3722
  558SOL    HW1 2230   0.156   2.215   2.939 -2.6888 -1.2311 -0.3765
  558SOL    HW2 2231   0.154   2.277   3.067  0.8210  0.5698 -0.7753
  558SOL     MW 2232   0.200   2.264   2.997 -0.5303 -0.5137  0.1220
  559SOL     OW 2233   1.050   2.368   2.173  0.5047  0.5357  0.3847
  559SOL    HW1 2234   1.140   2.347   2.181 -1.1076  0.5190  2.1316
  559SOL    HW2 2235   1.005   2.306   2.227  2.0029  2.1094  2.0944
  559SOL     MW 2236   1.056   2.357   2.181  0.4896  0.7411  0.8407
  560SOL     OW 2237   1.953   2.807   0.144  0.1911 -0.9063  0.5712
  560SOL    HW1 2238   2.033   2.831   0.101  0.1046  0.2046  1.5763
  560SOL    HW2 2239   1.903   2.757   0.076  1.1438 -0.2314 -1.1614
  560SOL     MW 2240   1.957   2.803   0.129  0.3054 -0.6707  0.4752
  561SOL     OW 2241   0.370   2.147   0.095  1.2257 -0.2218  0.0422
  561SOL    HW1 2242   0.330   2.189   0.014 -1.7628  0.4458 -0.4306
  561SOL    HW2 2243   0.447   2.198   0.124  1.7091  0.7823 -0.3439
  561SOL     MW 2244   0.375   2.160   0.088  0.8952 -0.0012 -0.0711
  562SOL     OW 2245   0.667   2.195   2.252 -0.4539  0.2963  0.1129
  562SOL    HW1 2246   0.651   2.288   2.247 -0.6575 -2.7493 -1.6141
  562SOL    HW2 2247   0.754   2.195   2.292  2.0055 -3.1305  0.8448
  562SOL     MW 2248   0.676   2.207   2.257 -0.1562 -0.5576 -0.0184
  563SOL     OW 2249   1.208   0.417   0.520 -0.0801 -0.1810  0.3192
  563SOL    HW1 2250   1.162   0.352   0.467  0.0042  0.8102 -0.7896
  563SOL    HW2 2251   1.176   0.408   0.607  4.1085 -0.2144 -1.8993
  563SOL     MW 2252   1.197   0.407   0.524  0.4836 -0.0546 -0.1198
  564SOL     OW 2253   1.060   2.606   2.388 -0.0184  0.0970 -0.0103
  564SOL    HW1 2254   1.048   2.678   2.316  0.4898  1.5330  0.2729
  564SOL    HW2 2255   1.075   2.654   2.467  0.9286 -0.5179 -0.1089
  564SOL     MW 2256   1.060   2.622   2.389  0.1736  0.2053  0.0141
  565SOL     OW 2257   2.752   2.827   2.554  0.0649  0.2575 -0.1326
  565SOL    HW1 2258   2.836   2.838   2.506 -0.7735  2.4969 -1.6910
  565SOL    HW2 2259   2.705   2.754   2.509  2.6492  0.7720 -0.0824
  565SOL     MW 2260   2.757   2.819   2.542  0.2952  0.6209 -0.3316
  566SOL     OW 2261   2.165   1.906   2.321  0.1002  0.3444 -0.6503
  566SOL    HW1 2262   2.184   1.905   2.229  0.8144  0.7725 -0.4506
  566SOL    HW2 2263   2.212   1.979   2.356  0.7351  2.1783 -1.1478
  566SOL     MW 2264   2.173   1.916   2.313  0.2782  0.6429 -0.6896
  567SOL     OW 2265   1.202   3.022   0.030 -0.1420  0.1704 -0.2931
  567SOL    HW1 2266   1.177   3.033   0.121  3.3939 -1.3028 -0.4169
  567SOL    HW2 2267   1.241   2.932   0.016 -1.3959 -0.0211  2.2327
  567SOL     MW 2268   1.204   3.011   0.040  0.1591 -0.0492  0.0238
  568SOL     OW 2269   1.628   2.071   2.856  0.3569  0.7461  0.3588
  568SOL    HW1 2270   1.658   2.140   2.910  1.2571 -0.7477 -2.1763
  568SOL    HW2 2271   1.708   2.035   2.822 -0.6930  2.1002  2.1504
  568SOL     MW 2272   1.643   2.075   2.859  0.3371  0.7277  0.2607
  569SOL     OW 2273   0.119   2.309   2.452  0.0930 -0.2856  0.1027
  569SOL    HW1 2274   0.064   2.334   2.378 -1.9426 -2.2762 -0.1363
  569SOL    HW2 2275   0.156   2.389   2.493  3.0651 -0.8341 -1.4650
  569SOL     MW 2276   0.117   2.323   2.448  0.2165 -0.6206 -0.1357
  570SOL     OW 2277   1.482   0.365   0.528  0.1516  0.0577  0.4169
  570SOL    HW1 2278   1.399   0.405   0.520  0.7089  0.2977 -2.9152
  570SOL    HW2 2279   1.538   0.407   0.589 -0.0151  0.2266 -0.0222
  570SOL     MW 2280   1.478   0.376   0.535  0.2031  0.1117 -0.0807
  571SOL     OW 2281   1.333   2.356   2.146 -0.2342  0.3112  0.1145
  571SOL    HW1 2282   1.412   2.397   2.181  0.3531 -1.7744 -0.1654
  571SOL    HW2 2283   1.368   2.308   2.066  0.5103  0.6302 -2.6719
  571SOL     MW 2284   1.348   2.355   2.140 -0.0584  0.0781 -0.2901
  572SOL     OW 2285   0.994   2.575   0.059  0.2602  0.1918 -0.0951
  572SOL    HW1 2286   0.985   2.669   0.065  2.2477 -3.4215  0.7136
  572SOL    HW2 2287   0.906   2.539   0.056 -0.3067 -2.5251  0.0054
  572SOL     MW 2288   0.981   2.582   0.059  0.4476 -0.6434  0.0248
  573SOL     OW 2289   1.170   2.270   0.214 -0.3208  0.0555  0.4772
  573SOL    HW1 2290   1.250   2.254   0.165  0.7038  1.3777 -1.1959
  573SOL    HW2 2291   1.175   2.360   0.246  2.4496 -0.2723 -0.7237
  573SOL     MW 2292   1.181   2.279   0.211  0.1799  0.1867  0.0980
  574SOL     OW 2293   1.149   2.537   0.296  0.1471  0.0201  0.7080
  574SOL    HW1 2294   1.208   2.597   0.259  2.6084 -0.0511 -1.1436
  574SOL    HW2 2295   1.072   2.556   0.238  1.0476  1.9674 -0.2597
  574SOL     MW 2296   1.147   2.547   0.283  0.5906  0.2676  0.3360
  575SOL     OW 2297   3.030   2.211   1.698  0.3348 -0.4550 -0.4692
  575SOL    HW1 2298   3.077   2.145   1.641  0.5474 -0.2846  0.8385
  575SOL    HW2 2299   3.111   2.236   1.748  1.4835 -0.2620 -1.0439
  575SOL     MW 2300   3.047   2.206   1.697  0.5144 -0.4070 -0.3725
  576SOL     OW 2301   2.843   1.843   2.018 -0.1087  0.0667 -0.1358
  576SOL    HW1 2302   2.901   1.902   1.978  1.5468 -2.8436  2.1911
  576SOL    HW2 2303   2.764   1.832   1.959 -0.8115 -2.2750  0.5331
  576SOL     MW 2304   2.840   1.849   2.005  0.0170 -0.6262  0.2595
  577SOL     OW 2305   2.101   0.260   0.070  0.0135 -0.3585 -0.7221
  577SOL    HW1 2306   2.037   0.261   0.003  0.5971 -2.1559  0.5965
  577SOL    HW2 2307   2.068   0.202   0.134  2.5945 -0.3923 -0.0013
  577SOL     MW 2308   2.088   0.252   0.069  0.4310 -0.6001 -0.4530
  578SOL     OW 2309   1.962   2.072   2.421  0.6669  0.2270 -1.0360
  578SOL    HW1 2310   1.874   2.052   2.396  1.4227  3.8041  0.7137
  578SOL    HW2 2311   2.019   1.998   2.389 -0.0780  0.9446  1.3711
  578SOL     MW 2312   1.958   2.060   2.413  0.6683  0.7937 -0.4875
  579SOL     OW 2313   0.868   2.427   2.496 -0.9650  0.0583  0.0012
  579SOL    HW1 2314   0.919   2.363   2.544  2.7195  0.3513  3.2384
  579SOL    HW2 2315   0.928   2.503   2.460 -0.3612  0.5708 -0.2975
  579SOL     MW 2316   0.883   2.429   2.498 -0.3992  0.1646  0.3889
  580SOL     OW 2317   0.959   2.845   0.013  0.4505  0.3108 -0.4661
  580SOL    HW1 2318   1.050   2.861   0.013  0.7961 -1.3126  0.3155
  580SOL    HW2 2319   0.940   2.808  -0.074 -0.9999  0.1193 -0.8857
  580SOL     MW 2320   0.968   2.842   0.001  0.3047  0.0714 -0.4184
  581SOL     OW 2321   1.165   2.437   1.736 -0.4354 -0.3717  0.6069
  581SOL    HW1 2322   1.247   2.466   1.783 -1.6206 -0.1812 -1.6793
  581SOL    HW2 2323   1.186   2.359   1.683 -1.2907 -3.5841  0.0592
  581SOL     MW 2324   1.179   2.431   1.735 -0.7046 -0.7704  0.2330
  582SOL     OW 2325   0.034   2.860   2.731 -0.1496  0.6362  0.1864
  582SOL    HW1 2326  -0.045   2.917   2.742 -0.0592  0.4775 -0.1339
  582SOL    HW2 2327   0.108   2.891   2.788  0.4335 -2.0657  1.2180
  582SOL     MW 2328   0.033   2.871   2.740 -0.0607  0.2588  0.2802
  583SOL     OW 2329   2.016   2.445   2.678 -0.1708 -0.4234 -0.0309
  583SOL    HW1 2330   2.086   2.428   2.616 -2.3055  1.9429  0.0267
  583SOL    HW2 2331   1.992   2.359   2.705 -0.8449 -0.4354 -2.5051
  583SOL     MW 2332   2.022   2.432   2.673 -0.5414 -0.1128 -0.3497
  584SOL     OW 2333   0.084   1.906   2.189  0.2895  0.4384 -0.1152
  584SOL    HW1 2334   0.108   1.854   2.271  1.2689 -1.1760  1.7824
  584SOL    HW2 2335   0.152   1.979   2.197  1.5420  0.0984  2.4572
  584SOL     MW 2336   0.096   1.909   2.201  0.5840  0.1805  0.4746
  585SOL     OW 2337   1.581   2.650   0.130 -0.0922  0.0553  0.3368
  585SOL    HW1 2338   1.546   2.612   0.048 -0.4284  1.9087  1.6500
  585SOL    HW2 2339   1.513   2.653   0.200 -2.9899  0.9768  0.7369
  585SOL     MW 2340   1.567   2.645   0.128 -0.5189  0.4214  0.5628
  586SOL     OW 2341   1.359   2.803   2.573  0.1892  0.5475 -0.3290
  586SOL    HW1 2342   1.371   2.790   2.473  1.5520  2.1900  0.6337
  586SOL    HW2 2343   1.326   2.890   2.578 -2.6964  0.9169 -0.3250
  586SOL     MW 2344   1.356   2.813   2.560 -0.0117  0.8130 -0.2015
  587SOL     OW 2345   1.367   1.468   2.187 -0.5179 -0.0641  0.2725
  587SOL    HW1 2346   1.291   1.404   2.206 -0.7650  0.6126 -0.7088
  587SOL    HW2 2347   1.415   1.434   2.111  1.2778  1.0001  1.7171
  587SOL     MW 2348   1.363   1.455   2.180 -0.3136  0.1656  0.3336
  588SOL     OW 2349   1.379   1.977   2.628  0.1889 -0.2133  0.0449
  588SOL    HW1 2350   1.378   1.880   2.649  1.0992 -1.9219  2.1899
  588SOL    HW2 2351   1.399   2.025   2.708 -0.2752  1.2621 -0.1203
  588SOL     MW 2352   1.382   1.970   2.642  0.2477 -0.2441  0.3061
  589SOL     OW 2353   1.413   1.974   0.040  0.1259  0.3407 -0.0958
  589SOL    HW1 2354   1.419   2.070   0.040  0.2146  1.4866  0.3452
  589SOL    HW2 2355   1.367   1.948   0.120  1.3885  0.8071 -0.5126
  589SOL     MW 2356   1.408   1.983   0.050  0.3042  0.5534 -0.0926
  590SOL     OW 2357   0.498   2.677   2.177 -0.0702 -0.4826  0.0602
  590SOL    HW1 2358   0.481   2.677   2.080  1.6007  1.8124 -0.9753
  590SOL    HW2 2359   0.583   2.721   2.198 -0.8784 -0.5813 -0.0843
  590SOL     MW 2360   0.507   2.683   2.167  0.0436 -0.1928 -0.0955
  591SOL     OW 2361   2.283   0.712   0.061 -0.5024 -0.4594 -0.0472
  591SOL    HW1 2362   2.192   0.720   0.098  2.1782 -3.2703  0.7319
  591SOL    HW2 2363   2.282   0.756  -0.026 -0.5623  2.2223  0.9310
  591SOL     MW 2364   2.271   0.718   0.055 -0.1566 -0.4764  0.1846
  592SOL     OW 2365   1.725   2.925   0.802 -0.7720  0.4686 -0.1221
  592SOL    HW1 2366   1.725   3.012   0.770  0.7124  1.8178  0.0133
  592SOL    HW2 2367   1.811   2.890   0.773 -0.7562  0.0810  2.4064
  592SOL     MW 2368   1.736   2.932   0.794 -0.5741  0.5955  0.2293
  593SOL     OW 2369   1.970   0.670   0.804  0.5753  0.2977 -0.6456
  593SOL    HW1 2370   1.883   0.668   0.760  0.5937  0.1190  1.5628
  593SOL    HW2 2371   1.993   0.577   0.807 -0.7198 -0.4843 -2.1614
  593SOL     MW 2372   1.961   0.658   0.799  0.4068  0.1710 -0.5542
  594SOL     OW 2373   2.750   1.071   1.391 -1.1798 -0.0380 -0.1232
  594SOL    HW1 2374   2.842   1.110   1.386 -2.1095  2.1390 -2.6292
  594SOL    HW2 2375   2.735   1.048   1.302  1.4081 -1.1310  0.9348
  594SOL     MW 2376   2.760   1.073   1.379 -0.9610  0.1050 -0.3142
  595SOL     OW 2377   0.461   0.899   0.843  0.1281 -0.0550  0.1129
  595SOL    HW1 2378   0.461   0.943   0.758  3.8522  0.1262  2.2705
  595SOL    HW2 2379   0.476   0.977   0.902 -1.4881 -0.3677  1.4966
  595SOL     MW 2380   0.463   0.915   0.840  0.4062 -0.0724  0.5801
  596SOL     OW 2381   2.465   1.323   0.518 -0.5170 -0.2875 -0.1246
  596SOL    HW1 2382   2.525   1.397   0.502  0.4023 -0.5392 -1.8950
  596SOL    HW2 2383   2.500   1.282   0.598  1.2350 -0.9127  0.5030
  596SOL     MW 2384   2.478   1.327   0.527 -0.1646 -0.4032 -0.2753
  597SOL     OW 2385   2.189   0.643   1.570  0.3025  0.3054  0.0616
  597SOL    HW1 2386   2.206   0.587   1.644 -1.0353 -2.5937  0.7283
  597SOL    HW2 2387   2.119   0.588   1.511 -0.5502 -1.1556 -2.1410
  597SOL     MW 2388   2.182   0.628   1.572  0.0135 -0.2699 -0.1410
  598SOL     OW 2389   2.602   1.021   2.866 -0.0887  0.6365  0.0302
  598SOL    HW1 2390   2.597   0.926   2.861  0.0842 -0.0568  1.2924
  598SOL    HW2 2391   2.696   1.041   2.873  0.8680 -1.5450 -0.7347
  598SOL     MW 2392   2.613   1.011   2.866  0.0603  0.2572  0.0959
  599SOL     OW 2393   2.992   0.425   2.160  1.0014 -0.1977  0.3420
  599SOL    HW1 2394   3.031   0.451   2.249 -0.8041  3.0555  1.9239
  599SOL    HW2 2395   3.018   0.503   2.116 -2.4719  1.5713  1.2025
  599SOL     MW 2396   3.000   0.439   2.166  0.3049  0.4649  0.6642
  600SOL     OW 2397   1.839   1.636   0.897  0.0886  0.3309 -0.2762
  600SOL    HW1 2398   1.915   1.660   0.951  1.6703  1.1488 -0.9123
  600SOL    HW2 2399   1.787   1.714   0.874 -1.1019 -0.0726  0.6643
  600SOL     MW 2400   1.842   1.650   0.901  0.1402  0.3856 -0.2361
  601SOL     OW 2401   2.527   0.688   0.808  0.2722 -0.0128  0.3102
  601SOL    HW1 2402   2.499   0.690   0.900 -0.8535 -2.0464  1.0121
  601SOL    HW2 2403   2.455   0.631   0.757 -2.1641  0.4886 -2.2799
  601SOL     MW 2404   2.514   0.681   0.813 -0.1977 -0.2150  0.0611
  602SOL     OW 2405   2.305   1.927   0.760 -0.1830  0.5260 -0.3677
  602SOL    HW1 2406   2.282   1.834   0.740 -0.6453  0.1797  1.0258
  602SOL    HW2 2407   2.219   1.962   0.757  1.5536 -2.6542  1.6145
  602SOL     MW 2408   2.291   1.919   0.757 -0.0148  0.0608  0.0777
  603SOL     OW 2409   2.956   1.365   1.980  0.0052  0.2938 -0.0509
  603SOL    HW1 2410   2.932   1.406   2.064  1.8339  2.6297 -2.0800
  603SOL    HW2 2411   3.010   1.292   1.984 -1.5328  1.3339 -1.8925
  603SOL     MW 2412   2.960   1.361   1.992  0.0436  0.7392 -0.5616
  604SOL     OW 2413   2.013   1.421   0.423 -0.5235 -0.9206 -0.9620
  604SOL    HW1 2414   2.079   1.367   0.467  2.5393  1.9078  0.1245
  604SOL    HW2 2415   1.969   1.478   0.492 -0.2309 -0.3847  0.9120
  604SOL     MW 2416   2.016   1.421   0.438 -0.0808 -0.4767 -0.5714
  605SOL     OW 2417   2.469   1.437   0.854 -0.1616 -0.3877 -1.0523
  605SOL    HW1 2418   2.459   1.487   0.777 -0.6147  1.4196 -0.2176
  605SOL    HW2 2419   2.503   1.352   0.825 -0.6088  1.1510 -1.6819
  605SOL     MW 2420   2.472   1.432   0.840 -0.2804  0.0538 -1.0252
  606SOL     OW 2421   2.604   1.804   1.881 -0.2273  0.0558 -0.2360
  606SOL    HW1 2422   2.517   1.781   1.911 -1.4171 -0.6213 -2.1954
  606SOL    HW2 2423   2.635   1.711   1.854 -1.9283  0.9835 -0.1552
  606SOL     MW 2424   2.597   1.789   1.882 -0.6087  0.0889 -0.4838
  607SOL     OW 2425   2.393   1.038   3.059  0.6049 -0.1577  0.0635
  607SOL    HW1 2426   2.482   1.045   3.030  1.4968  2.5872  3.5995
  607SOL    HW2 2427   2.406   1.016   3.149  0.6229  1.8302 -1.5380
  607SOL     MW 2428   2.407   1.036   3.067  0.7250  0.4668  0.3187
  608SOL     OW 2429   1.859   0.238   0.530 -0.4132 -0.3464 -0.0959
  608SOL    HW1 2430   1.846   0.277   0.437  3.6470 -1.7971  0.5736
  608SOL    HW2 2431   1.826   0.141   0.533  1.7484 -0.7789 -0.2411
  608SOL     MW 2432   1.853   0.231   0.518  0.4077 -0.5949 -0.0267
  609SOL     OW 2433   2.133   1.918   3.054 -0.1904  0.0685  0.5327
  609SOL    HW1 2434   2.063   1.856   3.032  0.3291  0.9567  3.0623
  609SOL    HW2 2435   2.142   1.901   3.146 -1.7809 -1.5969  1.5602
  609SOL     MW 2436   2.125   1.908   3.063 -0.3317 -0.0340  1.0020
  610SOL     OW 2437   1.782   0.920   1.234 -0.1508 -0.0902 -0.2204
  610SOL    HW1 2438   1.814   0.840   1.197  1.8893 -0.1438  2.3790
  610SOL    HW2 2439   1.688   0.933   1.209  0.6297  0.7017  0.2422
  610SOL     MW 2440   1.774   0.912   1.226  0.2214  0.0072  0.1836
  611SOL     OW 2441   2.506   1.646   0.630  0.1927 -0.8030 -0.0919
  611SOL    HW1 2442   2.574   1.595   0.582  0.8447  1.2034 -1.1357
  611SOL    HW2 2443   2.443   1.668   0.558  0.4871  2.0334 -2.8092
  611SOL     MW 2444   2.507   1.642   0.614  0.3176 -0.1640 -0.5881
  612SOL     OW 2445   2.938   2.968   0.333  0.6724 -0.0685 -0.0911
  612SOL    HW1 2446   2.942   2.994   0.428  1.3880 -0.6672 -4.2081
  612SOL    HW2 2447   3.012   2.907   0.339  0.5959  0.1016  1.5122
  612SOL     MW 2448   2.948   2.963   0.346  0.7567 -0.1250 -0.4227
  613SOL     OW 2449   1.524   1.122   1.004  0.0741  0.5084  0.3790
  613SOL    HW1 2450   1.585   1.198   1.003 -0.6375  2.1700  1.8463
  613SOL    HW2 2451   1.543   1.086   1.093 -0.3295 -1.3061  0.0924
  613SOL     MW 2452   1.535   1.127   1.016 -0.0730  0.4882  0.5348
  614SOL     OW 2453   2.041   0.478   1.435 -0.1362 -0.0641 -0.6593
  614SOL    HW1 2454   2.024   0.413   1.505  0.0236  1.8560 -1.6058
  614SOL    HW2 2455   1.960   0.522   1.412 -0.4289  0.2534 -1.7129
  614SOL     MW 2456   2.028   0.475   1.441 -0.1538  0.2311 -0.9232
  615SOL     OW 2457   2.422   0.717   0.331 -0.1009 -0.0143  0.9114
  615SOL    HW1 2458   2.486   0.641   0.346 -3.2989 -0.3883 -1.4018
  615SOL    HW2 2459   2.414   0.713   0.236 -0.6262 -0.0243 -2.0518
  615SOL     MW 2460   2.430   0.707   0.321 -0.5921 -0.0650  0.2152
  616SOL     OW 2461   2.498   0.430   1.609 -0.1320  0.0405  0.0140
  616SOL    HW1 2462   2.585   0.399   1.588  1.1830  2.6861 -2.6399
  616SOL    HW2 2463   2.467   0.469   1.526  1.0865 -1.1351 -0.6287
  616SOL     MW 2464   2.505   0.431   1.596  0.2023  0.2345 -0.4210
  617SOL     OW 2465   2.873   0.582   1.855 -0.1038 -0.2601  0.4449
  617SOL    HW1 2466   2.791   0.590   1.899 -0.1886 -2.1649 -0.2454
  617SOL    HW2 2467   2.871   0.499   1.809 -0.7904 -2.1902  1.9909
  617SOL     MW 2468   2.862   0.572   1.854 -0.2056 -0.7660  0.5578
  618SOL     OW 2469   2.758   0.288   2.019  0.1434 -0.2624 -0.3363
  618SOL    HW1 2470   2.743   0.379   2.013  1.1830  0.8113 -0.4063
  618SOL    HW2 2471   2.817   0.280   2.096  0.4634 -0.8756  2.4932
  618SOL     MW 2472   2.764   0.299   2.028  0.3228 -0.2016  0.0278
  619SOL     OW 2473   2.665   0.734   0.090  0.3744  0.1664 -0.5524
  619SOL    HW1 2474   2.724   0.813   0.096 -1.0720  0.3334  0.8621
  619SOL    HW2 2475   2.670   0.694   0.177 -0.0809 -1.1089  1.3543
  619SOL     MW 2476   2.673   0.739   0.102  0.1235  0.0202 -0.1142
  620SOL     OW 2477   2.229   1.071   0.920 -0.3940 -0.0324  0.0285
  620SOL    HW1 2478   2.319   1.036   0.930  0.5802  0.2513  0.9023
  620SOL    HW2 2479   2.193   1.017   0.852 -2.0956  0.6696  2.4266
  620SOL     MW 2480   2.236   1.059   0.913 -0.4900  0.0977  0.4602
  621SOL     OW 2481   1.462   2.206   1.956  0.2570  0.0113  0.2061
  621SOL    HW1 2482   1.414   2.118   1.968 -1.3873 -0.0902  1.5000
  621SOL    HW2 2483   1.558   2.197   1.989  0.9141  0.0230 -0.6949
  621SOL     MW 2484   1.469   2.193   1.962  0.1268 -0.0005  0.2579
  622SOL     OW 2485   2.660   0.250   0.271  0.1608 -0.1425  0.3766
  622SOL    HW1 2486   2.750   0.283   0.242  1.7326  1.1701 -2.7002
  622SOL    HW2 2487   2.676   0.157   0.294  1.8216  0.4761 -0.9582
  622SOL     MW 2488   2.674   0.242   0.270  0.5873  0.1123 -0.2055
  623SOL     OW 2489   2.416   2.752   0.881  0.2238  0.2170  0.0055
  623SOL    HW1 2490   2.473   2.826   0.886 -1.2649 -2.2570  0.1004
  623SOL    HW2 2491   2.372   2.753   0.971 -0.1260 -0.0204  1.7872
  623SOL     MW 2492   2.418   2.762   0.893 -0.0188 -0.1408  0.2531
  624SOL     OW 2493   2.156   1.591   3.041 -0.1219 -0.0190 -0.1704
  624SOL    HW1 2494   2.090   1.519   3.050 -4.2530 -0.6122  0.4452
  624SOL    HW2 2495   2.116   1.646   2.975  1.0598 -2.5862  0.7059
  624SOL     MW 2496   2.142   1.589   3.033 -0.5110 -0.4360  0.0264
  625SOL     OW 2497   2.233   1.923   1.062 -0.2818 -0.0044 -0.1110
  625SOL    HW1 2498   2.286   1.861   1.108 -3.5329  1.1969 -1.1648
  625SOL    HW2 2499   2.235   1.890   0.972 -1.1816  2.1230  0.2617
  625SOL     MW 2500   2.240   1.911   1.056 -0.8295  0.4348 -0.2009
  626SOL     OW 2501   0.120   1.788   2.437 -0.1120  0.0695  0.2739
  626SOL    HW1 2502   0.096   1.717   2.489  2.1786 -0.0595  0.7038
  626SOL    HW2 2503   0.073   1.867   2.468 -0.6283 -2.0703  2.0919
  626SOL     MW 2504   0.111   1.789   2.448  0.1221 -0.2298  0.5704
  627SOL     OW 2505   2.502   0.831   2.581  0.2720 -0.0972 -0.1608
  627SOL    HW1 2506   2.406   0.851   2.576 -1.3246  0.1467  0.7917
  627SOL    HW2 2507   2.520   0.784   2.499  1.0530 -0.6641  0.8657
  627SOL     MW 2508   2.492   0.827   2.570  0.1644 -0.1398  0.1003
  628SOL     OW 2509   2.260   1.367   1.325 -0.0004  0.1819 -0.2451
  628SOL    HW1 2510   2.212   1.312   1.267  3.9345  0.3197 -0.3779
  628SOL    HW2 2511   2.337   1.397   1.278  0.9326 -0.1275  1.9904
  628SOL     MW 2512   2.264   1.364   1.311  0.6419  0.1593  0.0324
  629SOL     OW 2513   1.764   0.555   1.305  0.0434  0.6074  0.5540
  629SOL    HW1 2514   1.832   0.598   1.257 -0.6098 -1.4490  0.8069
  629SOL    HW2 2515   1.689   0.534   1.245 -0.3134  1.4892 -0.0048
  629SOL     MW 2516   1.763   0.558   1.290 -0.0898  0.4524  0.5137
  630SOL     OW 2517   2.410   1.866   3.016  0.0178  0.1348  0.0394
  630SOL    HW1 2518   2.434   1.952   2.977  1.4265 -0.5631 -0.4324
  630SOL    HW2 2519   2.316   1.853   3.028 -0.3347  0.5382  1.9180
  630SOL     MW 2520   2.401   1.876   3.012  0.1572  0.0960  0.2250
  631SOL     OW 2521   2.095   1.722   1.530  0.1093  0.4716  0.1341
  631SOL    HW1 2522   2.071   1.646   1.583 -0.3292  1.0835 -1.4984
  631SOL    HW2 2523   2.033   1.788   1.553  1.1828  1.3383 -2.1228
  631SOL     MW 2524   2.084   1.721   1.540  0.1931  0.6667 -0.3791
  632SOL     OW 2525   0.280   1.925   1.516 -0.0726  0.0710  0.3972
  632SOL    HW1 2526   0.189   1.935   1.524  4.1467  1.9190  0.1254
  632SOL    HW2 2527   0.288   1.828   1.523 -3.1405  0.5294 -0.8008
  632SOL     MW 2528   0.269   1.914   1.518  0.0793  0.3753  0.2033
  633SOL     OW 2529   2.627   0.541   0.364 -0.0237  0.2112  0.7801
  633SOL    HW1 2530   2.653   0.547   0.455 -1.0210  1.4701 -0.7306
  633SOL    HW2 2531   2.643   0.451   0.337  0.4298 -2.7498  1.6010
  633SOL     MW 2532   2.633   0.530   0.372 -0.0954 -0.0134  0.6891
  634SOL     OW 2533   2.653   3.074   0.636 -0.3127  0.8832 -0.0226
  634SOL    HW1 2534   2.692   3.165   0.638 -0.0418  0.6740  1.5739
  634SOL    HW2 2535   2.591   3.082   0.565 -2.0789  0.1646  0.9817
  634SOL     MW 2536   2.650   3.087   0.627 -0.5100  0.7608  0.3206
  635SOL     OW 2537   2.622   0.078   1.884  0.3456 -0.6684  0.3996
  635SOL    HW1 2538   2.679   0.023   1.822 -0.6115 -0.1275  0.0032
  635SOL    HW2 2539   2.672   0.148   1.930 -2.4797 -2.1034 -0.8101
  635SOL     MW 2540   2.636   0.080   1.882 -0.1534 -0.7864  0.1877
  636SOL     OW 2541   2.721   1.645   0.847  0.1291  0.6883 -0.9827
  636SOL    HW1 2542   2.642   1.637   0.800  2.6943  0.1458 -2.1469
  636SOL    HW2 2543   2.710   1.725   0.902  0.8018 -0.3645  3.0955
  636SOL     MW 2544   2.709   1.654   0.848  0.5563  0.4778 -0.5982
  637SOL     OW 2545   2.871   1.531   0.647 -0.2833 -0.4698  0.4016
  637SOL    HW1 2546   2.928   1.608   0.620 -0.5539  0.1597 -1.4831
  637SOL    HW2 2547   2.824   1.562   0.730 -1.7151 -0.3392  1.8270
  637SOL     MW 2548   2.872   1.545   0.655 -0.5079 -0.3695  0.3410
  638SOL     OW 2549   2.794   0.491   0.597  0.1956 -0.3206  0.3704
  638SOL    HW1 2550   2.878   0.530   0.564  0.0515  0.7259  2.9294
  638SOL    HW2 2551   2.789   0.521   0.683  0.3931 -0.5573 -0.8170
  638SOL     MW 2552   2.805   0.500   0.604  0.2026 -0.2138  0.5513
  639SOL     OW 2553   1.745   3.080   0.554 -0.6206 -0.1523  0.1767
  639SOL    HW1 2554   1.670   3.097   0.503 -1.6876 -1.7716  1.3589
  639SOL    HW2 2555   1.752   2.986   0.555  2.6496  1.6635  0.8110
  639SOL     MW 2556   1.736   3.070   0.548 -0.3299 -0.1264  0.4164
  640SOL     OW 2557   0.333   1.367   0.113  0.2214  0.4618 -0.0859
  640SOL    HW1 2558   0.358   1.363   0.019 -0.3504  1.0739 -1.9501
  640SOL    HW2 2559   0.341   1.272   0.149 -0.2572  1.2365  1.3172
  640SOL     MW 2560   0.337   1.354   0.106  0.0828  0.6448 -0.1467
  641SOL     OW 2561   2.099   0.392   0.381 -0.0245 -0.2913  0.2359
  641SOL    HW1 2562   2.168   0.352   0.330 -2.0675 -0.4134  1.9324
  641SOL    HW2 2563   2.051   0.320   0.421 -2.9763 -1.6163 -1.1476
  641SOL     MW 2564   2.102   0.377   0.379 -0.6835 -0.4822  0.2772
  642SOL     OW 2565   0.051   0.054   0.573  0.0846 -0.7501  0.5394
  642SOL    HW1 2566  -0.009   0.124   0.535 -1.9889  1.6890  1.0911
  642SOL    HW2 2567  -0.016   0.018   0.629 -0.4078  0.8476 -0.8834
  642SOL     MW 2568   0.034   0.058   0.576 -0.2539 -0.2175  0.4245
  643SOL     OW 2569   2.064   0.319   1.656  0.0121 -0.1244  0.3933
  643SOL    HW1 2570   1.994   0.299   1.717 -1.4914 -0.0550  0.7403
  643SOL    HW2 2571   2.071   0.244   1.599  1.9812  0.5425  1.6982
  643SOL     MW 2572   2.055   0.307   1.657  0.0735 -0.0272  0.6113
  644SOL     OW 2573   2.671   1.899   1.002  0.0025  0.1781  0.1420
  644SOL    HW1 2574   2.651   1.822   1.059  0.7253  1.6938  0.9346
  644SOL    HW2 2575   2.607   1.904   0.933 -1.8151 -1.8767 -0.7314
  644SOL     MW 2576   2.660   1.889   1.000 -0.1420  0.1070  0.1313
  645SOL     OW 2577   2.803   0.859   0.683 -0.5010  0.5101 -0.2550
  645SOL    HW1 2578   2.881   0.828   0.735 -0.3795 -1.4633  2.2872
  645SOL    HW2 2579   2.743   0.791   0.704 -1.5558  0.4710  1.5177
  645SOL     MW 2580   2.805   0.846   0.693 -0.6242  0.2446  0.3143
  646SOL     OW 2581   0.143   2.277   0.820  0.5782  0.0316 -0.3732
  646SOL    HW1 2582   0.170   2.185   0.846  0.2664 -1.0073 -1.9645
  646SOL    HW2 2583   0.092   2.257   0.740  0.6130 -1.5437  1.7466
  646SOL     MW 2584   0.140   2.262   0.813  0.5417 -0.3133 -0.3035
  647SOL     OW 2585   2.723   0.507   3.030  0.1932  0.0235 -0.1327
  647SOL    HW1 2586   2.669   0.429   3.047 -1.0702 -2.0650  2.0686
  647SOL    HW2 2587   2.715   0.570   3.100  0.7396 -0.0869  1.1619
  647SOL     MW 2588   2.714   0.505   3.042  0.0986 -0.2667  0.3285
  648SOL     OW 2589   2.256   0.675   1.115 -0.0353 -0.2463  0.1697
  648SOL    HW1 2590   2.238   0.587   1.158  1.8139  1.1689 -0.6329
  648SOL    HW2 2591   2.181   0.730   1.124 -0.3601 -0.9546  0.3724
  648SOL     MW 2592   2.244   0.671   1.122  0.1658 -0.1530  0.0906
  649SOL     OW 2593   2.432   2.714   1.242 -0.4761 -0.2181  0.1567
  649SOL    HW1 2594   2.510   2.773   1.258  0.2630  0.2170  0.0585
  649SOL    HW2 2595   2.460   2.629   1.214  0.5728  1.2389  1.3439
  649SOL     MW 2596   2.446   2.711   1.241 -0.2402  0.0315  0.3004
  650SOL     OW 2597   2.758   0.224   0.649  0.0274  0.1421 -0.5333
  650SOL    HW1 2598   2.788   0.315   0.632  2.2425 -0.6651  0.8684
  650SOL    HW2 2599   2.839   0.180   0.665 -1.2242  0.7442 -0.8949
  650SOL     MW 2600   2.773   0.230   0.649  0.1546  0.1150 -0.3961
  651SOL     OW 2601   3.080   0.452   1.003 -0.7900  0.1132  0.1366
  651SOL    HW1 2602   3.143   0.491   0.938  0.3159 -2.0887 -3.0916
  651SOL    HW2 2603   3.037   0.525   1.045  1.1000 -2.4128  0.7182
  651SOL     MW 2604   3.083   0.467   1.000 -0.3947 -0.5106 -0.2126
  652SOL     OW 2605   2.365   1.394   3.016 -0.1402  0.1614  0.0915
  652SOL    HW1 2606   2.430   1.398   2.943  1.6663 -0.6788  0.6833
  652SOL    HW2 2607   2.323   1.482   3.014 -1.4485 -2.5647 -3.3439
  652SOL     MW 2608   2.368   1.406   3.006 -0.0745 -0.3091 -0.2837
  653SOL     OW 2609   1.855   0.370   0.289  0.5712 -0.5231 -0.1903
  653SOL    HW1 2610   1.831   0.302   0.225  0.7339  0.7964 -0.6481
  653SOL    HW2 2611   1.939   0.402   0.256 -0.4836 -1.4509 -0.3236
  653SOL     MW 2612   1.863   0.365   0.276  0.4535 -0.4714 -0.2683
  654SOL     OW 2613   2.451   0.961   0.779  0.7953 -0.3229  0.0775
  654SOL    HW1 2614   2.388   0.951   0.702 -0.3480 -0.5215 -0.1432
  654SOL    HW2 2615   2.485   0.875   0.798 -1.7130 -1.9842 -0.3017
  654SOL     MW 2616   2.447   0.948   0.771  0.3135 -0.5683 -0.0017
  655SOL     OW 2617   2.921   0.914   0.447  0.5942  0.4233 -0.1129
  655SOL    HW1 2618   2.867   0.925   0.524  1.5988  2.0501  0.0493
  655SOL    HW2 2619   2.919   0.818   0.446  1.1017 -0.4486  3.0359
  655SOL     MW 2620   2.913   0.903   0.457  0.7937  0.5229  0.3240
  656SOL     OW 2621   1.813   2.629   1.415  0.3658  0.2724  0.0557
  656SOL    HW1 2622   1.816   2.712   1.370 -0.3170  0.4111 -1.1648
  656SOL    HW2 2623   1.882   2.572   1.374 -0.4893 -1.1939  0.1513
  656SOL     MW 2624   1.823   2.632   1.404  0.1629  0.0972 -0.0927
  657SOL     OW 2625   0.074   1.822   1.248 -0.2077 -0.1490 -0.1505
  657SOL    HW1 2626   0.161   1.854   1.222  0.5985 -1.2629  3.9229
  657SOL    HW2 2627   0.095   1.743   1.300  1.4700  0.4882  2.5916
  657SOL     MW 2628   0.088   1.816   1.251  0.1200 -0.2119  0.7487
  658SOL     OW 2629   2.724   1.333   0.241 -0.5921  0.2842  0.1963
  658SOL    HW1 2630   2.663   1.263   0.278 -0.0044 -1.3913 -1.0150
  658SOL    HW2 2631   2.731   1.399   0.316  2.8232  0.8573 -1.2199
  658SOL     MW 2632   2.717   1.333   0.256 -0.0639  0.1388 -0.1503
  659SOL     OW 2633   2.175   1.505   1.013  0.2459 -0.1727  0.5462
  659SOL    HW1 2634   2.250   1.454   1.016 -3.7064 -0.9727  0.7138
  659SOL    HW2 2635   2.171   1.555   1.091  0.0620  0.1947 -2.5478
  659SOL     MW 2636   2.185   1.505   1.023 -0.2998 -0.2298  0.1601
  660SOL     OW 2637   2.092   1.505   1.681 -0.2678  0.1622 -0.4967
  660SOL    HW1 2638   2.099   1.523   1.774  3.2276  1.5112  1.1906
  660SOL    HW2 2639   2.004   1.470   1.664 -2.2129  1.0546  1.4843
  660SOL     MW 2640   2.081   1.502   1.691 -0.0632  0.4579 -0.0127
  661SOL     OW 2641   2.416   0.985   0.239 -0.2981  0.3517  0.0034
  661SOL    HW1 2642   2.471   1.041   0.290 -1.1984 -1.3326 -2.9448
  661SOL    HW2 2643   2.399   0.903   0.291 -1.0599 -1.8133  2.4888
  661SOL     MW 2644   2.421   0.982   0.253 -0.5174 -0.1562 -0.0577
  662SOL     OW 2645   2.570   2.979   0.897  0.1000 -0.0294  0.2694
  662SOL    HW1 2646   2.481   3.025   0.924 -1.7156 -2.0284  0.9262
  662SOL    HW2 2647   2.595   3.011   0.804 -0.9214  1.5377 -1.3824
  662SOL     MW 2648   2.562   2.990   0.888 -0.2743 -0.0864  0.1381
  663SOL     OW 2649   2.672   1.514   0.467 -0.0413 -0.2338  0.2156
  663SOL    HW1 2650   2.674   1.584   0.398  0.0149  0.7184 -1.8439
  663SOL    HW2 2651   2.744   1.529   0.527  0.8192  0.2130  0.2121
  663SOL     MW 2652   2.682   1.525   0.466  0.0797 -0.0492 -0.0566
  664SOL     OW 2653   2.556   1.483   1.572 -0.1502  0.0504 -0.7266
  664SOL    HW1 2654   2.523   1.560   1.536 -0.6530 -0.3705 -1.5398
  664SOL    HW2 2655   2.494   1.413   1.576  1.1992 -2.1786  1.8219
  664SOL     MW 2656   2.543   1.484   1.567 -0.0385 -0.2992 -0.4976
  665SOL     OW 2657   2.830   0.797   2.096  0.3779  0.3351  0.3064
  665SOL    HW1 2658   2.832   0.846   2.012 -0.2901 -0.8932 -0.1352
  665SOL    HW2 2659   2.919   0.756   2.099  0.8045  0.6446 -1.7844
  665SOL     MW 2660   2.842   0.798   2.086  0.3460  0.2139 -0.0277
  666SOL     OW 2661   2.751   3.021   1.684  0.3572  0.1165 -0.1969
  666SOL    HW1 2662   2.780   3.007   1.596 -0.9879  0.0861 -0.6993
  666SOL    HW2 2663   2.705   2.944   1.718 -0.0462 -1.0816 -0.6450
  666SOL     MW 2664   2.749   3.009   1.677  0.1265 -0.0456 -0.3223
  667SOL     OW 2665   1.980   2.698   1.743  0.4329 -0.1639 -0.1745
  667SOL    HW1 2666   2.001   2.682   1.836 -1.7421  1.2837  0.8863
  667SOL    HW2 2667   2.064   2.740   1.712  0.0821 -0.8430 -0.9651
  667SOL     MW 2668   1.994   2.701   1.751  0.0996 -0.0625 -0.1388
  668SOL     OW 2669   2.759   0.563   0.864 -0.2286  0.6082  0.2180
  668SOL    HW1 2670   2.818   0.611   0.932  2.3361  4.1993  0.7605
  668SOL    HW2 2671   2.680   0.614   0.866  1.6874 -0.3824  0.9952
  668SOL     MW 2672   2.757   0.576   0.873  0.3625  0.9513  0.3922
  669SOL     OW 2673   0.156   0.978   0.724  0.6683 -0.0071 -0.1008
  669SOL    HW1 2674   0.083   1.036   0.751 -0.8130 -1.6598 -0.8011
  669SOL    HW2 2675   0.223   0.961   0.788  1.8147  1.3898 -1.8721
  669SOL     MW 2676   0.155   0.983   0.736  0.6241 -0.0409 -0.4269
  670SOL     OW 2677   2.907   0.334   0.217  0.2405  0.5445  0.4146
  670SOL    HW1 2678   2.928   0.276   0.142  1.0622 -1.8919  0.7130
  670SOL    HW2 2679   2.899   0.423   0.182 -1.7810 -0.8069  1.2969
  670SOL     MW 2680   2.908   0.338   0.202  0.0822  0.0448  0.5704
  671SOL     OW 2681   2.026   3.018   1.549 -0.1071 -0.4923 -0.1326
  671SOL    HW1 2682   1.963   2.955   1.513  1.2786  1.0109 -0.9887
  671SOL    HW2 2683   1.985   3.037   1.636 -0.4900  0.3066 -1.5540
  671SOL     MW 2684   2.012   3.012   1.556  0.0252 -0.1885 -0.4331
  672SOL     OW 2685   1.803   1.730   1.296  0.6374  0.0335  0.4807
  672SOL    HW1 2686   1.844   1.779   1.370  0.9948 -0.5739 -0.7219
  672SOL    HW2 2687   1.853   1.742   1.215 -1.9760 -0.9250  0.8596
  672SOL     MW 2688   1.815   1.738   1.295  0.3397 -0.1731  0.3720
  673SOL     OW 2689   2.746   1.101   0.598  0.5107  0.5489  0.0964
  673SOL    HW1 2690   2.755   1.015   0.647 -3.4809 -4.1155  0.1039
  673SOL    HW2 2691   2.827   1.156   0.625  2.6892  0.8401 -0.8066
  673SOL     MW 2692   2.758   1.097   0.608  0.2715 -0.0281 -0.0218
  674SOL     OW 2693   2.499   0.038   1.234 -0.0662 -0.2088 -1.0435
  674SOL    HW1 2694   2.438   0.044   1.160  1.3334 -1.0379  0.1496
  674SOL    HW2 2695   2.498  -0.053   1.261 -1.6531  1.9632  1.8337
  674SOL     MW 2696   2.491   0.027   1.228 -0.0909 -0.0316 -0.5064
  675SOL     OW 2697   2.985   0.924   1.048 -0.0105  0.1665 -0.2285
  675SOL    HW1 2698   3.062   0.919   1.102  1.8856  1.0543 -3.1828
  675SOL    HW2 2699   3.011   0.979   0.979  0.7517 -2.1338 -0.0162
  675SOL     MW 2700   2.998   0.931   1.046  0.3403 -0.0198 -0.5903
  676SOL     OW 2701   2.918   1.452   1.709  0.0801 -1.1558  0.2531
  676SOL    HW1 2702   2.882   1.387   1.647  2.1593  1.3575  0.4417
  676SOL    HW2 2703   2.930   1.422   1.799 -0.8472  0.5153  2.1782
  676SOL     MW 2704   2.915   1.439   1.713  0.2321 -0.6037  0.5320
  677SOL     OW 2705   2.403   0.547   2.038  0.5260  0.6300 -0.1703
  677SOL    HW1 2706   2.361   0.496   1.969  1.2761  0.2258  3.4700
  677SOL    HW2 2707   2.376   0.635   2.000  1.7525  0.2239 -1.8012
  677SOL     MW 2708   2.394   0.552   2.024  0.7868  0.5231  0.0949
  678SOL     OW 2709   2.415   1.638   0.266 -0.0124 -0.3150 -0.1440
  678SOL    HW1 2710   2.325   1.628   0.306 -1.4686 -0.7462 -2.8338
  678SOL    HW2 2711   2.432   1.539   0.250  0.2533  0.4660 -1.9778
  678SOL     MW 2712   2.406   1.623   0.269 -0.1695 -0.2688 -0.7408
  679SOL     OW 2713   2.239   0.434   1.233 -0.2626 -0.0282  0.3468
  679SOL    HW1 2714   2.241   0.340   1.214 -0.9497 -0.1155 -2.8630
  679SOL    HW2 2715   2.170   0.454   1.296  0.5721 -0.9633 -1.6717
  679SOL     MW 2716   2.230   0.424   1.239 -0.2431 -0.1631 -0.3430
  680SOL     OW 2717   2.351   0.122   1.467  1.1484 -0.4344  0.0538
  680SOL    HW1 2718   2.262   0.153   1.439  0.1058 -1.0857  0.0261
  680SOL    HW2 2719   2.399   0.091   1.399  0.1126  0.6628  2.9027
  680SOL     MW 2720   2.346   0.122   1.455  0.8742 -0.3756  0.4260
  681SOL     OW 2721   0.219   0.561   1.502 -0.5242  1.1938 -0.3430
  681SOL    HW1 2722   0.205   0.495   1.573  2.4374  1.0512  4.9420
  681SOL    HW2 2723   0.210   0.517   1.415  0.5864 -1.2682  2.2243
  681SOL     MW 2724   0.216   0.547   1.500  0.0131  0.8502  0.6930
  682SOL     OW 2725   0.118   2.908   1.494 -0.4500  0.7289  0.1820
  682SOL    HW1 2726   0.184   2.975   1.521 -0.4374 -0.1736  1.5248
  682SOL    HW2 2727   0.040   2.920   1.544  1.8701 -1.2915  0.3430
  682SOL     MW 2728   0.116   2.918   1.504 -0.1422  0.3433  0.3804
  683SOL     OW 2729   2.053   0.831   2.978 -0.4468 -0.4369  0.1562
  683SOL    HW1 2730   1.999   0.764   3.016  1.7658  2.3584  0.1248
  683SOL    HW2 2731   2.018   0.906   3.028 -1.7543 -1.6054  0.6974
  683SOL     MW 2732   2.041   0.832   2.990 -0.3274 -0.2222  0.2235
  684SOL     OW 2733   2.135   1.726   0.669 -0.2650  0.1242 -0.3296
  684SOL    HW1 2734   2.151   1.701   0.579 -1.4471  2.1776  1.9387
  684SOL    HW2 2735   2.098   1.644   0.701 -0.4781  1.5890 -0.5443
  684SOL     MW 2736   2.132   1.712   0.661 -0.4491  0.5884 -0.0587
  685SOL     OW 2737   2.707   1.675   1.169 -0.2965  0.5078 -0.2249
  685SOL    HW1 2738   2.754   1.647   1.250  1.3806 -2.8557  0.4421
  685SOL    HW2 2739   2.637   1.609   1.173 -2.5336 -0.6181 -1.3478
  685SOL     MW 2740   2.704   1.662   1.181 -0.3704 -0.0846 -0.2850
  686SOL     OW 2741   2.908   0.648   1.601  0.2233 -0.8216  0.5999
  686SOL    HW1 2742   2.882   0.651   1.695 -0.6152  1.6455 -2.2606
  686SOL    HW2 2743   2.986   0.701   1.588 -1.0437  4.6534 -2.2660
  686SOL     MW 2744   2.915   0.656   1.612 -0.0545  0.2263 -0.1557
  687SOL     OW 2745   2.159   0.162   1.151  0.4845 -0.0478 -0.3868
  687SOL    HW1 2746   2.211   0.152   1.072 -0.9348 -0.5607 -0.5600
  687SOL    HW2 2747   2.103   0.244   1.131 -2.6007  1.1851 -1.3982
  687SOL     MW 2748   2.158   0.172   1.138 -0.1098  0.0472 -0.5431
  688SOL     OW 2749   2.403   0.582   1.391  0.2406 -0.1030  0.2143
  688SOL    HW1 2750   2.385   0.522   1.319  3.2426 -2.9032  1.4869
  688SOL    HW2 2751   2.321   0.602   1.444  2.1791 -0.9699 -0.0681
  688SOL     MW 2752   2.390   0.577   1.389  0.8924 -0.5868  0.3449
  689SOL     OW 2753   2.479   0.791   2.940  0.1256 -0.1642  0.1532
  689SOL    HW1 2754   2.434   0.870   2.961  2.1572 -0.2961  3.1498
  689SOL    HW2 2755   2.525   0.758   3.019  0.8844 -2.4860 -1.0366
  689SOL     MW 2756   2.479   0.797   2.953  0.4938 -0.4880  0.3916
  690SOL     OW 2757   2.029   0.894   1.887  0.4661 -0.6263 -0.0481
  690SOL    HW1 2758   2.009   0.805   1.908 -0.4220  1.1578  0.3651
  690SOL    HW2 2759   2.040   0.901   1.791 -0.5482 -1.0753  1.6611
  690SOL     MW 2760   2.028   0.883   1.877  0.2151 -0.4501  0.2320
  691SOL     OW 2761   2.390   0.250   0.853 -1.3747  0.0639 -0.0064
  691SOL    HW1 2762   2.482   0.289   0.884  1.7380 -0.8416  0.9526
  691SOL    HW2 2763   2.325   0.320   0.854  0.6134  1.1474  0.0527
  691SOL     MW 2764   2.393   0.265   0.857 -0.7017  0.0874  0.1279
  692SOL     OW 2765   2.891   1.590   1.421  0.0650  0.1629  0.1907
  692SOL    HW1 2766   2.857   1.570   1.510  1.4990 -1.3052  2.0014
  692SOL    HW2 2767   2.903   1.684   1.423 -1.5012 -0.4582  0.5724
  692SOL     MW 2768   2.888   1.600   1.433  0.0476 -0.1127  0.4800
  693SOL     OW 2769   2.316   0.409   0.081  0.3887 -0.3536 -0.3953
  693SOL    HW1 2770   2.228   0.370   0.088  1.2380  2.1285 -0.3239
  693SOL    HW2 2771   2.294   0.497   0.045  1.6770  2.0906  0.2636
  693SOL     MW 2772   2.302   0.415   0.077  0.6707  0.2964 -0.2989
  694SOL     OW 2773   1.883   1.133   1.080 -0.2971  0.7400  0.3239
  694SOL    HW1 2774   1.961   1.178   1.127  2.1471  2.1719  0.0644
  694SOL    HW2 2775   1.829   1.079   1.147 -0.3923 -2.3271  2.2954
  694SOL     MW 2776   1.886   1.132   1.095  0.0128  0.5242  0.5498
  695SOL     OW 2777   2.964   1.365   1.272 -0.0020  0.0601  0.1826
  695SOL    HW1 2778   2.959   1.391   1.182 -4.2359 -0.2712 -2.5140
  695SOL    HW2 2779   2.944   1.441   1.334  2.3350  1.6076  0.2354
  695SOL     MW 2780   2.960   1.379   1.269 -0.2523  0.2205 -0.1662
  696SOL     OW 2781   2.108   1.438   0.775 -0.0653  0.3040  0.2932
  696SOL    HW1 2782   2.152   1.463   0.856  0.6084  0.2599 -1.1728
  696SOL    HW2 2783   2.041   1.375   0.802  1.2610  0.2323 -1.0864
  696SOL     MW 2784   2.105   1.433   0.789  0.1986  0.2887 -0.0822
  697SOL     OW 2785   2.900   1.003   2.266  0.8134  0.4673  0.6574
  697SOL    HW1 2786   2.823   1.052   2.278 -0.8770  2.1897 -1.5330
  697SOL    HW2 2787   2.862   0.925   2.213 -0.5034  2.1024 -1.9547
  697SOL     MW 2788   2.885   0.999   2.260  0.4167  0.9103  0.0238
  698SOL     OW 2789   2.571   0.276   0.007 -0.5054  0.1606 -0.7772
  698SOL    HW1 2790   2.482   0.315   0.004 -0.8069 -0.4276  1.2118
  698SOL    HW2 2791   2.602   0.266   0.102  0.4590  2.2937 -1.1047
  698SOL     MW 2792   2.563   0.280   0.019 -0.4180  0.3645 -0.5580
  699SOL     OW 2793   1.930   1.629   2.076 -0.3110 -0.0575 -0.3300
  699SOL    HW1 2794   1.898   1.533   2.077 -2.0540 -1.5632  1.2849
  699SOL    HW2 2795   2.022   1.614   2.040  1.9149  1.9135  0.7180
  699SOL     MW 2796   1.938   1.615   2.072 -0.2473  0.0039  0.0213
  700SOL     OW 2797   2.705   0.850   1.569 -0.1014 -0.8990 -0.0392
  700SOL    HW1 2798   2.742   0.924   1.512  0.6801 -0.7458 -0.6476
  700SOL    HW2 2799   2.772   0.781   1.565 -1.0013 -1.8375 -0.8758
  700SOL     MW 2800   2.719   0.851   1.561 -0.1170 -1.0026 -0.2298
  701SOL     OW 2801   1.675   1.172   2.515  0.0519  0.1530  0.3531
  701SOL    HW1 2802   1.742   1.123   2.564 -0.9823  0.3232  0.3788
  701SOL    HW2 2803   1.647   1.232   2.580  0.2677 -1.5206 -1.0077
  701SOL     MW 2804   1.680   1.173   2.530 -0.0561 -0.0454  0.1769
  702SOL     OW 2805   2.165   0.437   0.827 -0.1839 -0.2101 -0.0940
  702SOL    HW1 2806   2.148   0.359   0.773  0.3688  0.5596 -0.3408
  702SOL    HW2 2807   2.230   0.484   0.776  0.1714 -2.4487  0.6974
  702SOL     MW 2808   2.171   0.433   0.813 -0.0641 -0.4039 -0.0222
  703SOL     OW 2809   2.730   1.230   0.968  0.3248 -0.1584 -0.2204
  703SOL    HW1 2810   2.668   1.224   0.895 -0.3807 -1.6352 -0.9459
  703SOL    HW2 2811   2.716   1.158   1.028  0.7908  0.6037  1.1860
  703SOL     MW 2812   2.720   1.220   0.966  0.2932 -0.2527 -0.1306
  704SOL     OW 2813   3.051   1.261   0.116  0.0423 -0.6204 -0.6590
  704SOL    HW1 2814   2.968   1.230   0.069  0.8240 -0.9870 -0.5451
  704SOL    HW2 2815   3.030   1.246   0.211 -0.5707 -1.9534  0.1175
  704SOL     MW 2816   3.037   1.255   0.122  0.0646 -0.8446 -0.5415
  705SOL     OW 2817   2.117   1.579   1.276 -0.1429 -0.4158 -0.4145
  705SOL    HW1 2818   2.114   1.651   1.345 -1.3131 -2.1573 -1.2876
  705SOL    HW2 2819   2.155   1.500   1.312  0.5213  0.1681  0.0015
  705SOL     MW 2820   2.121   1.578   1.290 -0.2097 -0.5685 -0.4748
  706SOL     OW 2821   2.961   1.257   0.668  0.1614  0.4138  0.7907
  706SOL    HW1 2822   2.998   1.242   0.577 -0.9881 -0.7267 -1.5227
  706SOL    HW2 2823   2.928   1.349   0.665 -2.0530 -3.1356  1.3377
  706SOL     MW 2824   2.962   1.267   0.655 -0.2824 -0.2049  0.5576
  707SOL     OW 2825   2.354   0.005   0.978  0.1672  0.7580 -0.4322
  707SOL    HW1 2826   2.388   0.093   0.945  2.5707  0.0631  2.7242
  707SOL    HW2 2827   2.269  -0.016   0.929  1.4895  0.1671 -0.9322
  707SOL     MW 2828   2.347   0.014   0.967  0.6588  0.5884 -0.0817
  708SOL     OW 2829   2.475   1.391   0.167  0.2699  0.0847  0.5533
  708SOL    HW1 2830   2.572   1.392   0.169 -0.2446  0.1584 -2.6616
  708SOL    HW2 2831   2.453   1.406   0.073  0.0016 -2.9448 -0.9234
  708SOL     MW 2832   2.485   1.393   0.155  0.1666 -0.3053 -0.0657
  709SOL     OW 2833   1.704   1.622   0.221  0.0275 -0.1564 -0.0432
  709SOL    HW1 2834   1.725   1.645   0.133 -0.7542 -0.1267  0.6738
  709SOL    HW2 2835   1.611   1.597   0.228 -2.1885 -3.6763  1.5900
  709SOL     MW 2836   1.695   1.622   0.211 -0.3680 -0.6169  0.2669
  710SOL     OW 2837   2.140   1.181   1.160 -0.3051  0.2630 -0.6837
  710SOL    HW1 2838   2.182   1.149   1.081 -0.9554 -0.0820  0.9997
  710SOL    HW2 2839   2.161   1.108   1.214 -0.5695  0.9960  0.3239
  710SOL     MW 2840   2.148   1.167   1.157 -0.4258  0.3142 -0.3286
  711SOL     OW 2841   2.376   0.154   1.795  0.0854  0.6720 -0.3009
  711SOL    HW1 2842   2.461   0.128   1.825  0.0927  0.2054  0.2546
  711SOL    HW2 2843   2.369   0.122   1.708 -2.1176  3.1885  0.5007
  711SOL     MW 2844   2.386   0.147   1.787 -0.2043  0.9424 -0.1219
  712SOL     OW 2845   1.907   0.630   3.076  0.5306 -0.0559  0.5756
  712SOL    HW1 2846   1.853   0.662   3.001  1.0397  0.4456  0.0304
  712SOL    HW2 2847   1.847   0.652   3.147 -3.4379  1.5880  0.0365
  712SOL     MW 2848   1.892   0.637   3.076  0.0742  0.2272  0.4325
  713SOL     OW 2849   2.550   0.708   1.081 -0.1764 -0.2388 -0.0989
  713SOL    HW1 2850   2.540   0.623   1.114  0.4014  0.8717 -0.2919
  713SOL    HW2 2851   2.463   0.748   1.086 -1.8404  1.5225 -2.1081
  713SOL     MW 2852   2.537   0.702   1.086 -0.3197  0.1401 -0.3895
  714SOL     OW 2853   2.214   0.211   2.012  0.3803 -0.5341  0.3318
  714SOL    HW1 2854   2.262   0.173   2.082  0.5041  0.1473 -0.9887
  714SOL    HW2 2855   2.275   0.186   1.937  1.0192 -0.2830 -1.3264
  714SOL     MW 2856   2.229   0.202   2.011  0.4810 -0.4111 -0.0612
  715SOL     OW 2857   1.817   2.047   1.752 -0.0115 -0.0078  0.2631
  715SOL    HW1 2858   1.904   2.076   1.735  1.3863 -0.7575  0.3026
  715SOL    HW2 2859   1.822   1.978   1.823 -2.3083  1.8624  0.8626
  715SOL     MW 2860   1.829   2.042   1.759 -0.1301  0.1400  0.3474
  716SOL     OW 2861   2.353   0.556   0.667  0.8110  0.0117 -0.0443
  716SOL    HW1 2862   2.403   0.477   0.644  0.6390  0.5465  2.8451
  716SOL    HW2 2863   2.296   0.579   0.583 -2.7722 -2.3910  0.5710
  716SOL     MW 2864   2.352   0.548   0.652  0.3155 -0.2348  0.4181
  717SOL     OW 2865   2.826   1.612   2.877 -0.2181 -0.8723 -0.5951
  717SOL    HW1 2866   2.908   1.609   2.932 -0.7435 -1.2966  1.4512
  717SOL    HW2 2867   2.788   1.700   2.911 -1.1633  2.4864 -1.8948
  717SOL     MW 2868   2.832   1.623   2.889 -0.4121 -0.4851 -0.4966
  718SOL     OW 2869   2.661   1.371   1.312 -0.5832 -0.1834 -0.3983
  718SOL    HW1 2870   2.646   1.378   1.405 -0.2292 -0.7342 -0.9050
  718SOL    HW2 2871   2.757   1.387   1.304 -0.6334 -0.5569 -0.6057
  718SOL     MW 2872   2.672   1.374   1.323 -0.5431 -0.3053 -0.4925
  719SOL     OW 2873   2.207   1.269   0.583  0.5227 -0.0268 -0.1433
  719SOL    HW1 2874   2.294   1.307   0.560  2.6356  0.9691  0.1388
  719SOL    HW2 2875   2.186   1.323   0.670 -0.9279  0.8537  3.3864
  719SOL     MW 2876   2.216   1.281   0.592  0.6101  0.2208  0.3596
  720SOL     OW 2877   2.782   1.190   0.028  0.1487  0.7675  0.1581
  720SOL    HW1 2878   2.828   1.113   0.069 -1.1133 -0.8160 -0.0877
  720SOL    HW2 2879   2.760   1.243   0.106  2.6931 -0.8105  0.1424
  720SOL     MW 2880   2.785   1.187   0.044  0.3179  0.3504  0.1236
  721SOL     OW 2881   2.479   0.847   1.375 -0.3975 -0.3486 -0.7302
  721SOL    HW1 2882   2.449   0.759   1.373  1.9067  1.8369  1.0383
  721SOL    HW2 2883   2.540   0.854   1.450  2.4808  3.1133  1.3485
  721SOL     MW 2884   2.483   0.836   1.384  0.2863  0.3965 -0.2226
  722SOL     OW 2885   2.571   1.154   0.361 -0.2488  0.8787  0.1968
  722SOL    HW1 2886   2.515   1.209   0.409 -0.0034 -0.2393 -0.7922
  722SOL    HW2 2887   2.646   1.122   0.420 -0.2597  0.2319 -2.9792
  722SOL     MW 2888   2.574   1.157   0.375 -0.2178  0.6458 -0.3527
  723SOL     OW 2889   2.313   1.330   1.588 -0.1940 -0.5159  0.4407
  723SOL    HW1 2890   2.309   1.339   1.490  0.5153 -3.0931 -1.1409
  723SOL    HW2 2891   2.241   1.380   1.624  1.4150  0.1596  3.9642
  723SOL     MW 2892   2.303   1.338   1.580  0.1119 -0.7668  0.6969
  724SOL     OW 2893   2.485   0.309   0.599  0.0367  0.0942  0.0568
  724SOL    HW1 2894   2.464   0.276   0.688 -0.1536 -1.3703  0.9774
  724SOL    HW2 2895   2.580   0.320   0.601 -0.8742  0.0381  1.4985
  724SOL     MW 2896   2.495   0.306   0.611 -0.1086 -0.1064  0.3685
  725SOL     OW 2897   2.601   0.413   1.225  0.5852 -0.2239  0.1232
  725SOL    HW1 2898   2.654   0.480   1.270  1.0628  0.7590  1.6704
  725SOL    HW2 2899   2.619   0.339   1.280 -1.6130 -0.1931  2.7338
  725SOL     MW 2900   2.610   0.412   1.238  0.3582 -0.0901  0.6718
  726SOL     OW 2901   2.528   2.526   0.504  0.0074 -0.0933 -0.4186
  726SOL    HW1 2902   2.498   2.618   0.489 -2.8330 -0.7852 -0.4202
  726SOL    HW2 2903   2.513   2.511   0.596  0.1717 -0.9906 -0.4364
  726SOL     MW 2904   2.522   2.536   0.514 -0.3457 -0.3030 -0.4212
  727SOL     OW 2905   2.842   0.337   1.757 -0.3219 -0.2022 -0.1212
  727SOL    HW1 2906   2.801   0.300   1.672 -1.0509 -0.4318 -0.7567
  727SOL    HW2 2907   2.804   0.287   1.826 -0.4854 -0.4497 -1.6796
  727SOL     MW 2908   2.831   0.325   1.755 -0.4397 -0.2651 -0.4107
  728SOL     OW 2909   2.842   1.178   2.866 -0.5610  0.4116 -0.3642
  728SOL    HW1 2910   2.825   1.256   2.818  0.6875 -1.0689  1.2141
  728SOL    HW2 2911   2.822   1.196   2.963 -0.0367 -0.5891  1.4519
  728SOL     MW 2912   2.837   1.191   2.873 -0.3271  0.0842  0.0836
  729SOL     OW 2913   2.484   1.470   1.136  0.6730  0.0641  0.3160
  729SOL    HW1 2914   2.534   1.403   1.180  2.9521  0.8680 -1.0534
  729SOL    HW2 2915   2.486   1.446   1.039 -0.8490  0.7421 -0.4791
  729SOL     MW 2916   2.491   1.458   1.129  0.7729  0.2596  0.0304
  730SOL     OW 2917   2.214   1.182   0.277 -0.3630 -0.3322 -0.5298
  730SOL    HW1 2918   2.273   1.115   0.235 -1.3931 -1.4590 -0.3625
  730SOL    HW2 2919   2.263   1.259   0.278  0.2335 -1.0221 -0.1691
  730SOL     MW 2920   2.229   1.184   0.272 -0.4202 -0.5719 -0.4601
  731SOL     OW 2921   2.771   2.088   2.864 -0.6816  0.4483  0.0830
  731SOL    HW1 2922   2.731   2.040   2.787  1.8350  0.3982 -2.4268
  731SOL    HW2 2923   2.854   2.042   2.857 -0.1039  0.8036 -0.1861
  731SOL     MW 2924   2.777   2.075   2.853 -0.2734  0.4886 -0.2837
  732SOL     OW 2925   2.211   0.978   1.332  0.0683 -0.4391  0.6408
  732SOL    HW1 2926   2.200   0.941   1.418 -1.4521  2.4813 -0.5028
  732SOL    HW2 2927   2.305   0.981   1.311  2.1966  2.2121  1.5176
  732SOL     MW 2928   2.222   0.973   1.341  0.1485  0.2960  0.6056
  733SOL     OW 2929   2.395   2.811   3.024  0.3988 -0.3395  0.0024
  733SOL    HW1 2930   2.303   2.842   3.037 -0.0783  0.3725  1.9692
  733SOL    HW2 2931   2.374   2.715   3.023  0.6790 -1.3190  2.4700
  733SOL     MW 2932   2.380   2.802   3.026  0.3728 -0.3748  0.5875
  734SOL     OW 2933   1.548   0.259   2.523  0.5146 -0.1902  0.0547
  734SOL    HW1 2934   1.483   0.231   2.589 -0.4221  0.9259  0.5008
  734SOL    HW2 2935   1.547   0.205   2.445 -0.3304  0.7394 -0.7915
  734SOL     MW 2936   1.539   0.248   2.521  0.2795  0.0797  0.0019
  735SOL     OW 2937   2.982   0.948   2.662  0.7201  0.1515  0.3865
  735SOL    HW1 2938   2.956   0.851   2.653 -0.2718 -0.1839  1.2771
  735SOL    HW2 2939   3.021   0.944   2.750 -0.7963 -0.4857  0.7765
  735SOL     MW 2940   2.984   0.935   2.673  0.3892  0.0232  0.5555
  736SOL     OW 2941   0.105   0.601   2.595  0.4745 -0.2419  0.3964
  736SOL    HW1 2942   0.118   0.671   2.526 -0.4875  0.4670 -0.5076
  736SOL    HW2 2943   0.088   0.522   2.540  1.2343 -2.2884  0.7419
  736SOL     MW 2944   0.104   0.600   2.579  0.4478 -0.4184  0.3227
  737SOL     OW 2945   2.932   0.687   2.631  0.5824  0.5447 -0.3560
  737SOL    HW1 2946   2.879   0.642   2.565  0.4563  0.2331 -2.1035
  737SOL    HW2 2947   3.023   0.673   2.599 -2.6129  1.0770 -1.5878
  737SOL     MW 2948   2.937   0.679   2.618  0.1442  0.5738 -0.7491
  738SOL     OW 2949   0.186   0.563   1.887 -0.0070 -0.8093 -0.4617
  738SOL    HW1 2950   0.273   0.609   1.871 -0.1771  0.6127 -0.1896
  738SOL    HW2 2951   0.179   0.495   1.819 -0.7724  0.9000 -1.8672
  738SOL     MW 2952   0.197   0.560   1.876 -0.1304 -0.3962 -0.6112
  739SOL     OW 2953   2.460   1.006   2.091 -0.2850 -0.1461  0.5161
  739SOL    HW1 2954   2.432   0.920   2.053 -1.9215 -1.9101 -1.5646
  739SOL    HW2 2955   2.392   1.062   2.060  1.7734  2.4101  2.8567
  739SOL     MW 2956   2.447   1.002   2.082 -0.2294 -0.0416  0.5504
  740SOL     OW 2957   0.121   1.827   2.934  0.0999  0.5550  0.5717
  740SOL    HW1 2958   0.081   1.738   2.942 -1.6444 -0.4758 -0.9897
  740SOL    HW2 2959   0.213   1.817   2.961 -1.2743  0.1605 -0.6560
  740SOL     MW 2960   0.128   1.814   2.939 -0.3116  0.3670  0.2037
  741SOL     OW 2961   2.238   1.210   2.705  0.5596 -0.0866  0.0273
  741SOL    HW1 2962   2.183   1.253   2.638  0.3781  2.3048  0.6905
  741SOL    HW2 2963   2.219   1.236   2.794  3.2730  1.1388 -2.0921
  741SOL     MW 2964   2.228   1.219   2.708  0.8936  0.3906 -0.1648
  742SOL     OW 2965   1.711   1.252   2.235  0.1882  0.1360 -0.3504
  742SOL    HW1 2966   1.620   1.235   2.207 -0.6173  1.0227 -2.4677
  742SOL    HW2 2967   1.701   1.240   2.327 -0.8615 -2.1798 -1.2138
  742SOL     MW 2968   1.697   1.248   2.243 -0.0566 -0.0526 -0.7437
  743SOL     OW 2969   2.508   1.248   2.691  0.2582 -0.2866 -0.4849
  743SOL    HW1 2970   2.412   1.228   2.699 -1.4546  1.0571  0.6355
  743SOL    HW2 2971   2.527   1.176   2.753 -0.6809 -0.5860 -1.9497
  743SOL     MW 2972   2.498   1.236   2.701 -0.0917 -0.1488 -0.5303
  744SOL     OW 2973   2.794   0.949   1.863 -0.1416  0.0566  0.3319
  744SOL    HW1 2974   2.726   1.021   1.858 -1.7823  0.9323 -0.6133
  744SOL    HW2 2975   2.798   0.934   1.769  0.3479 -0.2446  0.5681
  744SOL     MW 2976   2.786   0.956   1.850 -0.2935  0.1324  0.2384
  745SOL     OW 2977   1.707   0.464   2.479 -0.7253  0.4350 -0.1021
  745SOL    HW1 2978   1.682   0.494   2.390  1.7565  1.0682 -0.2490
  745SOL    HW2 2979   1.640   0.401   2.515  1.1366 -0.8839 -0.7238
  745SOL     MW 2980   1.695   0.460   2.472 -0.1522  0.3445 -0.2035
  746SOL     OW 2981   1.576   1.444   1.662  0.1045 -0.2279 -0.8326
  746SOL    HW1 2982   1.665   1.433   1.641 -1.6899 -0.0075 -0.1553
  746SOL    HW2 2983   1.568   1.426   1.758  0.3958 -0.0594 -0.3922
  746SOL     MW 2984   1.586   1.440   1.672 -0.0938 -0.1766 -0.6851
  747SOL     OW 2985   2.587   1.126   1.816 -0.0490  0.4692  0.2179
  747SOL    HW1 2986   2.513   1.067   1.813  0.4564  0.4448  0.4877
  747SOL    HW2 2987   2.567   1.191   1.886  2.5063 -0.0495  2.7296
  747SOL     MW 2988   2.574   1.127   1.825  0.3548  0.3975  0.5849
  748SOL     OW 2989   0.088   0.014   1.916 -0.0573 -0.0299 -0.2217
  748SOL    HW1 2990   0.130   0.091   1.870  0.9998  2.7681 -1.9917
  748SOL    HW2 2991   0.041   0.052   1.994 -2.4029 -0.2069  0.9989
  748SOL     MW 2992   0.087   0.029   1.920 -0.2273  0.3159 -0.2942
  749SOL     OW 2993   2.479   0.602   2.732 -0.5235  0.5722  0.1688
  749SOL    HW1 2994   2.497   0.684   2.684  3.0005  1.5555 -1.4466
  749SOL    HW2 2995   2.476   0.646   2.815  1.0221 -1.8225  0.3387
  749SOL     MW 2996   2.481   0.619   2.737  0.1454  0.3860 -0.0219
  750SOL     OW 2997   2.049   3.087   1.980  0.0343  0.3850  0.2669
  750SOL    HW1 2998   2.093   3.161   2.015  0.9856 -1.2952 -0.0500
  750SOL    HW2 2999   2.126   3.037   1.962 -0.1002  2.3499  0.3231
  750SOL     MW 3000   2.065   3.090   1.982  0.1421  0.4226  0.2325
  751SOL     OW 3001   0.109   0.411   2.408  0.3934 -0.4683  0.6596
  751SOL    HW1 3002   0.098   0.329   2.451  0.7093  0.0532  0.5029
  751SOL    HW2 3003   0.184   0.400   2.352 -3.3637  0.5709 -0.5956
  751SOL     MW 3004   0.117   0.399   2.406 -0.0607 -0.2624  0.4733
  752SOL     OW 3005   2.115   0.742   2.734 -0.8295  0.1281  0.2899
  752SOL    HW1 3006   2.150   0.812   2.675  1.8490  0.0716 -0.5517
  752SOL    HW2 3007   2.097   0.788   2.816  0.1767 -0.8750  1.0436
  752SOL     MW 3008   2.117   0.757   2.737 -0.3434 -0.0117  0.2783
  753SOL     OW 3009   2.895   0.232   2.435 -0.0422  0.0796 -0.2178
  753SOL    HW1 3010   2.851   0.170   2.374  1.0149 -1.6932  1.5634
  753SOL    HW2 3011   2.862   0.321   2.438  1.2508 -2.4064 -0.5805
  753SOL     MW 3012   2.884   0.236   2.427  0.2678 -0.4823 -0.0307
  754SOL     OW 3013   2.236   2.980   2.590  0.0629  0.2624  0.1902
  754SOL    HW1 3014   2.280   2.970   2.507  1.2410 -0.4364  0.1157
  754SOL    HW2 3015   2.311   2.951   2.646 -1.0174  4.0363 -0.6066
  754SOL     MW 3016   2.251   2.975   2.587  0.0758  0.6681  0.0752
  755SOL     OW 3017   2.690   1.523   2.461 -0.0685 -0.1584  0.1828
  755SOL    HW1 3018   2.698   1.429   2.491 -1.6419  2.4322  0.5428
  755SOL    HW2 3019   2.750   1.574   2.518  0.4023 -0.1944 -1.7452
  755SOL     MW 3020   2.699   1.517   2.472 -0.2140  0.1787 -0.0240
  756SOL     OW 3021   2.171   1.191   3.001 -0.6821  0.8480  0.3026
  756SOL    HW1 3022   2.234   1.269   3.015 -0.2310  1.4039  1.5952
  756SOL    HW2 3023   2.233   1.122   3.011  0.6405  3.1681 -1.1700
  756SOL     MW 3024   2.187   1.192   3.005 -0.4481  1.2275  0.2788
  757SOL     OW 3025   2.096   0.907   1.620 -0.1979 -0.4587 -0.4080
  757SOL    HW1 3026   2.138   0.819   1.611  1.0195 -1.3199 -1.0510
  757SOL    HW2 3027   2.003   0.895   1.584  0.4107  0.6028 -0.5919
  757SOL     MW 3028   2.089   0.894   1.614  0.0430 -0.4322 -0.5171
  758SOL     OW 3029   2.241   1.814   2.604 -0.1797  0.6296  0.0067
  758SOL    HW1 3030   2.229   1.814   2.515  0.8611  0.8771 -1.5055
  758SOL    HW2 3031   2.337   1.803   2.634  1.2322  1.3114  1.2174
  758SOL     MW 3032   2.252   1.813   2.596  0.1439  0.7522 -0.0331
  759SOL     OW 3033   1.560   1.356   2.677  0.2934 -0.5307  0.5848
  759SOL    HW1 3034   1.555   1.443   2.636  2.7595  0.5059  0.5488
  759SOL    HW2 3035   1.583   1.368   2.771  0.5009 -0.1117  0.4055
  759SOL     MW 3036   1.562   1.369   2.684  0.6461 -0.3386  0.5564
  760SOL     OW 3037   2.576   1.984   2.710 -0.2446 -0.0450  0.5413
  760SOL    HW1 3038   2.578   1.892   2.680  1.3584  1.7402 -1.0551
  760SOL    HW2 3039   2.573   2.029   2.630  0.2983 -1.2544 -2.3765
  760SOL     MW 3040   2.576   1.978   2.696  0.0386  0.0310 -0.0543
  761SOL     OW 3041   2.173   0.329   2.436 -1.1027 -0.0935  0.2993
  761SOL    HW1 3042   2.103   0.269   2.449  1.3851  1.2289  1.0467
  761SOL    HW2 3043   2.211   0.356   2.520 -0.8835  0.5396 -1.8223
  761SOL     MW 3044   2.169   0.325   2.449 -0.7455  0.1645  0.1180
  762SOL     OW 3045   0.009   0.190   2.109 -0.5340 -0.1223 -0.3920
  762SOL    HW1 3046  -0.008   0.150   2.194  1.4445 -1.9537  2.8558
  762SOL    HW2 3047  -0.043   0.265   2.102 -0.4542 -2.3584  1.3883
  762SOL     MW 3048  -0.000   0.195   2.119 -0.2624 -0.6589  0.2714
  763SOL     OW 3049   2.346   1.003   2.329  0.1268 -0.1202 -0.5849
  763SOL    HW1 3050   2.412   0.960   2.270 -0.9943 -1.6546  0.5010
  763SOL    HW2 3051   2.393   1.080   2.377  1.1183  0.7107 -1.0849
  763SOL     MW 3052   2.361   1.007   2.328  0.1097 -0.2130 -0.5076
  764SOL     OW 3053   0.497   0.224   2.787  0.7166  0.1094 -0.2862
  764SOL    HW1 3054   0.411   0.182   2.787 -2.4350  0.1308 -1.1958
  764SOL    HW2 3055   0.483   0.309   2.823 -1.2980 -3.0802  1.8323
  764SOL     MW 3056   0.484   0.230   2.792  0.0350 -0.3086 -0.1267
  765SOL     OW 3057   2.743   3.088   2.353 -0.1680 -0.3033  0.0044
  765SOL    HW1 3058   2.675   3.053   2.287 -0.7951  0.1034  1.3053
  765SOL    HW2 3059   2.808   3.014   2.353  1.1420  1.0473  1.8775
  765SOL     MW 3060   2.743   3.073   2.344 -0.0779 -0.0714  0.4232
  766SOL     OW 3061   1.865   2.966   2.159 -0.1321 -0.1643  0.2511
  766SOL    HW1 3062   1.911   3.008   2.092  2.0654 -1.3421  0.3343
  766SOL    HW2 3063   1.800   2.907   2.115 -0.5503  1.4549 -0.8085
  766SOL     MW 3064   1.863   2.964   2.144  0.1026 -0.1060  0.1223
  767SOL     OW 3065   2.662   0.560   2.023  0.2084 -0.1588  0.3943
  767SOL    HW1 3066   2.683   0.648   2.058 -0.3881  0.3937 -0.4248
  767SOL    HW2 3067   2.566   0.563   2.043  0.5544  1.3233 -0.0255
  767SOL     MW 3068   2.652   0.572   2.030  0.1754  0.1097  0.2309
  768SOL     OW 3069   3.087   1.607   2.977  0.5488  0.3091 -0.1253
  768SOL    HW1 3070   3.124   1.576   3.068  0.3210 -0.4697  2.1212
  768SOL    HW2 3071   3.112   1.539   2.926 -3.4525  2.9592 -1.2117
  768SOL     MW 3072   3.095   1.594   2.983 -0.0092  0.5560  0.0278
  769SOL     OW 3073   2.433   0.705   2.314  0.0178  0.0724 -0.1816
  769SOL    HW1 3074   2.356   0.652   2.339  2.2148  0.4075  4.4316
  769SOL    HW2 3075   2.487   0.633   2.287  1.3035  3.1689 -0.2265
  769SOL     MW 3076   2.430   0.688   2.313  0.4773  0.5252  0.4212
  770SOL     OW 3077   0.055   1.579   2.613  0.0021 -0.1960  0.3439
  770SOL    HW1 3078  -0.045   1.589   2.629  1.4304  1.3417 -1.2094
  770SOL    HW2 3079   0.074   1.492   2.638 -1.3475 -1.3912 -3.2658
  770SOL     MW 3080   0.044   1.569   2.618  0.0124 -0.1508 -0.3373
  771SOL     OW 3081   3.076   0.657   2.017  0.5700 -0.3315  0.3939
  771SOL    HW1 3082   3.017   0.615   1.953 -1.4901 -1.1980  1.8030
  771SOL    HW2 3083   3.165   0.625   1.984 -1.3675  2.0242  0.3515
  771SOL     MW 3084   3.080   0.647   2.004  0.0425 -0.1350  0.5742
  772SOL     OW 3085   0.001   3.091   2.319  0.4132 -0.0674 -0.0988
  772SOL    HW1 3086  -0.061   3.021   2.333  2.6231 -2.0355 -1.4045
  772SOL    HW2 3087   0.073   3.054   2.263  0.6736 -1.6930 -1.9834
  772SOL     MW 3088   0.002   3.077   2.314  0.7391 -0.5415 -0.5197
  773SOL     OW 3089   2.414   2.852   2.757 -0.5462  0.0045 -0.0664
  773SOL    HW1 3090   2.426   2.780   2.694 -0.5560 -0.4505 -1.6120
  773SOL    HW2 3091   2.400   2.821   2.846 -1.1469  2.7848 -1.2907
  773SOL     MW 3092   2.414   2.839   2.760 -0.6267  0.3113 -0.4319
  774SOL     OW 3093   2.305   1.089   1.728  0.2339  0.7172 -0.3493
  774SOL    HW1 3094   2.313   1.175   1.677  0.6085  0.8945 -1.2674
  774SOL    HW2 3095   2.247   1.026   1.678  0.3762  1.0105  2.0534
  774SOL     MW 3096   2.298   1.092   1.715  0.3021  0.7793 -0.1535
  775SOL     OW 3097   2.282   2.880   2.302 -0.1814  0.2904  0.0304
  775SOL    HW1 3098   2.302   2.960   2.247  2.2116  0.6168 -0.1773
  775SOL    HW2 3099   2.345   2.805   2.288 -0.4626 -0.4735  0.1380
  775SOL     MW 3100   2.293   2.881   2.293  0.0972  0.2327  0.0172
  776SOL     OW 3101   0.086   1.490   0.097 -0.5281  0.5709  0.0501
  776SOL    HW1 3102   0.176   1.443   0.098 -1.5129  2.0998 -0.1664
  776SOL    HW2 3103   0.020   1.419   0.079 -0.1811 -2.6159 -2.2340
  776SOL     MW 3104   0.089   1.475   0.094 -0.6123  0.3522 -0.2798
  777SOL     OW 3105   2.933   1.162   1.740  0.1009 -0.0779 -0.3731
  777SOL    HW1 3106   2.871   1.180   1.669  1.5447  0.2742  0.3233
  777SOL    HW2 3107   2.901   1.091   1.794  2.1384 -0.4581 -2.5269
  777SOL     MW 3108   2.921   1.155   1.738  0.5602 -0.0816 -0.5654
  778SOL     OW 3109   2.899   0.480   2.821  0.0005  0.1122  0.1726
  778SOL    HW1 3110   2.838   0.498   2.893 -0.8264  2.1963 -1.3135
  778SOL    HW2 3111   2.911   0.559   2.766  2.2748 -0.3783  3.0223
  778SOL     MW 3112   2.892   0.493   2.823  0.1914  0.3225  0.3525
  779SOL     OW 3113   2.153   0.603   2.357  0.2290 -0.9210 -0.1046
  779SOL    HW1 3114   2.081   0.666   2.380 -1.3104  3.6106 -0.5271
  779SOL    HW2 3115   2.141   0.519   2.401 -0.1812  1.1449 -1.7160
  779SOL     MW 3116   2.142   0.600   2.366 -0.0282 -0.0506 -0.3730
  780SOL     OW 3117   0.254   0.116   2.791  0.0720  0.9797  0.6600
  780SOL    HW1 3118   0.200   0.159   2.860  1.2063 -0.4654 -0.5512
  780SOL    HW2 3119   0.193   0.107   2.718  2.0182 -1.8447 -1.1180
  780SOL     MW 3120   0.239   0.120   2.791  0.4784  0.4164  0.2656
  781SOL     OW 3121   3.067   1.286   2.511 -0.5930  0.2884  0.4241
  781SOL    HW1 3122   3.053   1.329   2.427  1.3096 -1.1943 -1.2713
  781SOL    HW2 3123   3.086   1.193   2.492  1.5145 -1.2911  0.9268
  781SOL     MW 3124   3.067   1.279   2.498 -0.0639 -0.1156  0.2667
  782SOL     OW 3125   0.510   1.594   2.992  0.0359  0.7963 -0.1106
  782SOL    HW1 3126   0.468   1.682   3.002 -0.5376 -0.3260 -0.2665
  782SOL    HW2 3127   0.534   1.570   3.089  3.2570 -0.0121  1.8357
  782SOL     MW 3128   0.508   1.602   3.006  0.3852  0.5416  0.1257
  783SOL     OW 3129   2.811   0.484   2.457 -0.0438  0.2615 -0.0227
  783SOL    HW1 3130   2.749   0.472   2.379 -0.4664  0.2164  2.9184
  783SOL    HW2 3131   2.764   0.460   2.538  1.0508  2.6451 -1.2313
  783SOL     MW 3132   2.797   0.479   2.457  0.0448  0.5700  0.2059
  784SOL     OW 3133   0.237   0.897   2.899  0.2770  0.3297 -0.0132
  784SOL    HW1 3134   0.225   0.973   2.969 -1.6584  0.2814 -0.5047
  784SOL    HW2 3135   0.232   0.947   2.818 -0.3605  0.4601  1.1085
  784SOL     MW 3136   0.234   0.914   2.898 -0.0625  0.3405  0.0700
  785SOL     OW 3137   0.448   0.515   2.152 -0.2815 -0.1467 -0.3584
  785SOL    HW1 3138   0.451   0.556   2.060 -1.1512  0.1519  1.0336
  785SOL    HW2 3139   0.395   0.435   2.147  1.3468  0.3719 -0.2496
  785SOL     MW 3140   0.441   0.510   2.139 -0.1814 -0.0389 -0.1604
  786SOL     OW 3141   2.003   0.480   2.854  0.1428 -0.0456  0.3984
  786SOL    HW1 3142   2.014   0.539   2.926  0.2821 -0.0084 -4.4760
  786SOL    HW2 3143   2.087   0.488   2.816 -3.0047 -0.0066 -0.5892
  786SOL     MW 3144   2.015   0.489   2.859 -0.2541 -0.0356 -0.3751
  787SOL     OW 3145   2.435   0.114   2.894 -0.1481  0.1682 -0.3286
  787SOL    HW1 3146   2.482   0.035   2.858 -0.3034  0.5757  0.2861
  787SOL    HW2 3147   2.501   0.166   2.948 -1.0689 -0.8942 -0.3470
  787SOL     MW 3148   2.450   0.110   2.897 -0.2901  0.0818 -0.2499
  788SOL     OW 3149   2.931   2.868   2.322  0.7011  0.3349 -0.4848
  788SOL    HW1 3150   2.922   2.830   2.239 -0.2286  1.7423 -2.3077
  788SOL    HW2 3151   3.001   2.815   2.368  2.1533 -2.0461  0.7162
  788SOL     MW 3152   2.939   2.856   2.317  0.7700  0.2064 -0.5668
  789SOL     OW 3153   0.078   0.224   2.966  0.1225 -0.4419  0.1646
  789SOL    HW1 3154  -0.020   0.205   2.977 -1.2805 -1.1760  2.3368
  789SOL    HW2 3155   0.068   0.319   2.967  0.6051  0.0910  0.6313
  789SOL     MW 3156   0.063   0.234   2.968  0.0011 -0.4684  0.5127
  790SOL     OW 3157   0.021   1.009   2.452  0.1791 -0.2891 -0.3331
  790SOL    HW1 3158  -0.031   0.975   2.528  0.4873  1.3022  1.6968
  790SOL    HW2 3159  -0.055   0.991   2.390 -1.3435 -1.0537 -1.2375
  790SOL     MW 3160   0.004   1.003   2.454  0.0189 -0.1800 -0.1846
  791SOL     OW 3161   2.667   0.397   2.693  0.6811 -0.2966  0.0320
  791SOL    HW1 3162   2.594   0.464   2.710  0.2736  0.4176 -1.2100
  791SOL    HW2 3163   2.742   0.422   2.745 -0.2246 -0.3032 -2.1047
  791SOL     MW 3164   2.667   0.409   2.702  0.5078 -0.2032 -0.4138
  792SOL     OW 3165   2.421   0.253   2.351  0.2048 -0.3020 -0.1545
  792SOL    HW1 3166   2.327   0.267   2.375 -1.3335  1.0171  0.0971
  792SOL    HW2 3167   2.476   0.222   2.433  1.0387 -2.1958  0.1556
  792SOL     MW 3168   2.416   0.251   2.365  0.1118 -0.3778 -0.0804
  793SOL     OW 3169   1.775   1.004   1.911 -0.5505 -0.0251  0.1129
  793SOL    HW1 3170   1.754   1.063   1.844 -2.0085  1.1798  0.5107
  793SOL    HW2 3171   1.857   0.957   1.882  0.9696 -1.1470 -1.4227
  793SOL     MW 3172   1.783   1.006   1.898 -0.5423 -0.0142 -0.0372
  794SOL     OW 3173   1.418   2.240   0.090 -0.4358 -0.3209 -0.2524
  794SOL    HW1 3174   1.427   2.322   0.034  1.3331  0.3634  0.7882
  794SOL    HW2 3175   1.458   2.270   0.171  0.4754  1.9748  0.2430
  794SOL     MW 3176   1.424   2.255   0.093 -0.0822  0.0723 -0.0497
  795SOL     OW 3177   2.231   0.948   2.573 -0.1750 -0.2176 -0.1837
  795SOL    HW1 3178   2.233   1.025   2.629 -1.3528  0.8695  0.1473
  795SOL    HW2 3179   2.240   0.976   2.484 -0.4274 -0.3193  1.2196
  795SOL     MW 3180   2.232   0.961   2.569 -0.3637 -0.0876  0.0451
  796SOL     OW 3181   0.337   0.699   2.744  0.2517 -0.1934 -0.4261
  796SOL    HW1 3182   0.303   0.768   2.806 -1.8315 -0.9975 -0.1566
  796SOL    HW2 3183   0.254   0.668   2.711  4.0293 -0.4839 -2.3363
  796SOL     MW 3184   0.321   0.704   2.748  0.4753 -0.3378 -0.6426
  797SOL     OW 3185   2.603   0.125   2.552 -0.2099 -0.4938  0.3882
  797SOL    HW1 3186   2.647   0.177   2.611 -1.0123 -2.8673 -1.5311
  797SOL    HW2 3187   2.668   0.087   2.488  0.2911  2.9238 -1.1097
  797SOL     MW 3188   2.617   0.127   2.551 -0.2497 -0.3560 -0.0627
  798SOL     OW 3189   2.335   0.035   2.210 -0.2777  0.8506  0.1759
  798SOL    HW1 3190   2.364   0.100   2.275 -0.7118 -2.5532 -3.0240
  798SOL    HW2 3191   2.421  -0.009   2.186 -1.3590 -2.0473  0.1979
  798SOL     MW 3192   2.350   0.038   2.215 -0.4776  0.0191 -0.2434
  799SOL     OW 3193   2.451   2.933   0.196  0.3452 -0.5017 -0.2079
  799SOL    HW1 3194   2.441   2.848   0.158  0.3559  0.2217  2.5833
  799SOL    HW2 3195   2.428   2.997   0.130 -1.6168  0.3554 -0.1645
  799SOL     MW 3196   2.447   2.930   0.182  0.0877 -0.2931  0.1661
  800SOL     OW 3197   1.863   3.063   1.772  0.0255  0.1400 -0.1523
  800SOL    HW1 3198   1.803   2.998   1.804  3.1255 -0.8896  0.3418
  800SOL    HW2 3199   1.928   3.068   1.842 -0.4767 -1.0727  0.5281
  800SOL     MW 3200   1.864   3.055   1.786  0.3683 -0.1558  0.0027
  801SOL     OW 3201   2.814   1.317   2.625  0.4570  0.4286 -0.1654
  801SOL    HW1 3202   2.774   1.225   2.614 -1.0956 -1.3265  1.8608
  801SOL    HW2 3203   2.902   1.306   2.587 -0.1592  1.9855 -0.4285
  801SOL     MW 3204   2.820   1.304   2.618  0.1708  0.4025  0.0672
  802SOL     OW 3205   2.554   1.506   2.830  0.1359  0.2033 -0.0465
  802SOL    HW1 3206   2.564   1.427   2.773  1.2869 -0.4144 -1.5269
  802SOL    HW2 3207   2.644   1.513   2.874  4.6374 -2.4356  2.1953
  802SOL     MW 3208   2.567   1.496   2.828  0.8817 -0.2264  0.0540
  803SOL     OW 3209   2.316   1.262   1.955  0.5082  0.1238 -0.4465
  803SOL    HW1 3210   2.270   1.226   2.034 -1.9361 -0.0576 -2.2486
  803SOL    HW2 3211   2.311   1.199   1.885  2.0544 -0.8773 -2.8072
  803SOL     MW 3212   2.309   1.249   1.956  0.3897 -0.0322 -0.9957
  804SOL     OW 3213   2.301   0.076   0.025  0.0392 -0.2870 -0.1451
  804SOL    HW1 3214   2.237   0.143   0.035  0.7737  0.1127  0.6575
  804SOL    HW2 3215   2.349   0.085  -0.056 -1.3854  0.6430 -0.7655
  804SOL     MW 3216   2.299   0.086   0.016 -0.0519 -0.1115 -0.1211
  805SOL     OW 3217   2.721   1.046   2.584 -0.0023 -0.0372 -0.6035
  805SOL    HW1 3218   2.645   0.993   2.601  0.1651 -2.7678 -1.7993
  805SOL    HW2 3219   2.797   0.995   2.609 -1.5620  0.2645 -0.6256
  805SOL     MW 3220   2.721   1.032   2.590 -0.1860 -0.3577 -0.7642
  806SOL     OW 3221   2.629   0.407   2.272 -0.0350 -0.1765 -0.1807
  806SOL    HW1 3222   2.560   0.338   2.295  1.1038 -1.3622  0.9719
  806SOL    HW2 3223   2.628   0.420   2.174  0.7055  2.7410  0.1585
  806SOL     MW 3224   2.620   0.400   2.263  0.2129  0.0520  0.0161
  807SOL     OW 3225   3.087   1.109   2.090  0.6771  0.3754 -0.9756
  807SOL    HW1 3226   3.133   1.025   2.076 -0.7138 -1.9577 -0.2558
  807SOL    HW2 3227   3.016   1.082   2.151  0.1809 -0.7330  0.0451
  807SOL     MW 3228   3.083   1.095   2.096  0.4281 -0.0787 -0.7459
  808SOL     OW 3229   2.618   3.032   2.774 -0.2737  0.2209 -0.2643
  808SOL    HW1 3230   2.556   2.962   2.757  0.2813 -0.0093 -0.1762
  808SOL    HW2 3231   2.623   3.080   2.692 -1.5778 -1.1949  2.8412
  808SOL     MW 3232   2.611   3.029   2.761 -0.3725  0.0037  0.1570
  809SOL     OW 3233   2.491   1.231   2.409 -0.4336  0.5230  0.5727
  809SOL    HW1 3234   2.523   1.227   2.508  2.2831 -1.7207  0.9424
  809SOL    HW2 3235   2.562   1.256   2.350 -2.9372  0.0532 -1.4760
  809SOL     MW 3236   2.504   1.233   2.414 -0.4055  0.1650  0.3512
  810SOL     OW 3237   2.200   1.194   2.185 -0.6691 -0.0944  0.2454
  810SOL    HW1 3238   2.255   1.118   2.218  3.0497 -0.6122 -1.3472
  810SOL    HW2 3239   2.109   1.166   2.182 -0.5869  2.0431  2.2069
  810SOL     MW 3240   2.195   1.180   2.189 -0.1676  0.1193  0.2941
  811SOL     OW 3241   1.521   0.112   2.288  0.0323 -0.4337 -0.0589
  811SOL    HW1 3242   1.574   0.032   2.306 -1.7474  2.7576  0.1247
  811SOL    HW2 3243   1.522   0.103   2.185 -0.2412 -0.2624 -2.1706
  811SOL     MW 3244   1.528   0.100   2.277 -0.2386  0.0100 -0.3133
  812SOL     OW 3245   1.406   2.785   2.062 -0.1111  0.1770  0.1899
  812SOL    HW1 3246   1.494   2.767   2.087 -0.1636  1.1379  1.5076
  812SOL    HW2 3247   1.370   2.778   2.152 -3.5223 -0.7848 -0.6097
  812SOL     MW 3248   1.412   2.782   2.077 -0.5681  0.1769  0.2583
  813SOL     OW 3249   1.844   0.764   2.182 -0.0422  0.9972  0.4712
  813SOL    HW1 3250   1.795   0.691   2.219  0.9806  2.3711 -0.7311
  813SOL    HW2 3251   1.903   0.787   2.257  0.4696  3.2370 -0.8819
  813SOL     MW 3252   1.845   0.758   2.196  0.1603  1.4740  0.1341
  814SOL     OW 3253   2.741   1.272   1.592  0.2284  0.0696  0.2489
  814SOL    HW1 3254   2.696   1.255   1.680 -0.5233 -1.3406  0.6468
  814SOL    HW2 3255   2.707   1.212   1.528  0.0991  0.8744  0.2017
  814SOL     MW 3256   2.731   1.262   1.595  0.1121 -0.0103  0.2951
  815SOL     OW 3257   2.487   1.677   2.381 -0.4106  0.3683 -0.3354
  815SOL    HW1 3258   2.432   1.607   2.336 -1.2445  0.6186 -1.0340
  815SOL    HW2 3259   2.574   1.631   2.380 -1.0587  0.3457 -3.1987
  815SOL     MW 3260   2.491   1.661   2.375 -0.6061  0.3983 -0.8054
  816SOL     OW 3261   0.672   0.622   2.756 -0.3021 -0.1807  0.3981
  816SOL    HW1 3262   0.708   0.538   2.790 -1.1833 -2.4307 -1.9026
  816SOL    HW2 3263   0.588   0.614   2.710 -2.4613  1.6845 -0.4395
  816SOL     MW 3264   0.666   0.610   2.754 -0.7032 -0.2315 -0.0160
  817SOL     OW 3265   3.012   1.149   1.421  0.7645  0.3032 -0.2861
  817SOL    HW1 3266   3.082   1.146   1.489 -2.4425 -2.2164  0.6387
  817SOL    HW2 3267   3.016   1.236   1.371  0.1649 -1.3405 -0.9858
  817SOL     MW 3268   3.022   1.160   1.423  0.2622 -0.2461 -0.2564
  818SOL     OW 3269   1.920   1.006   2.741  0.1349 -0.1163 -0.0283
  818SOL    HW1 3270   1.985   1.052   2.692 -0.5423 -1.5813 -0.0525
  818SOL    HW2 3271   1.945   0.915   2.734 -0.1796 -2.4108 -0.8291
  818SOL     MW 3272   1.931   1.000   2.733  0.0041 -0.6123 -0.1372
  819SOL     OW 3273   1.838   0.241   2.392 -0.4405  0.2074 -0.7740
  819SOL    HW1 3274   1.783   0.307   2.429 -0.6273  0.7289 -0.9563
  819SOL    HW2 3275   1.887   0.195   2.465  1.9476 -2.4755 -0.6526
  819SOL     MW 3276   1.837   0.244   2.407 -0.1501 -0.0778 -0.7820
  820SOL     OW 3277   2.499   1.725   2.660 -0.2026 -0.1054 -0.5113
  820SOL    HW1 3278   2.522   1.642   2.702  0.1121 -1.5894 -0.6956
  820SOL    HW2 3279   2.502   1.699   2.573  2.0339 -1.8982  0.2573
  820SOL     MW 3280   2.503   1.710   2.654  0.1340 -0.5378 -0.4342
  821SOL     OW 3281   2.592   1.365   2.001 -0.0055  0.0822  0.1471
  821SOL    HW1 3282   2.616   1.440   1.952 -1.6504 -1.3829 -1.9929
  821SOL    HW2 3283   2.499   1.356   1.993  0.7306 -0.8473 -1.3927
  821SOL     MW 3284   2.583   1.374   1.994 -0.1254 -0.2337 -0.3384
  822SOL     OW 3285   2.858   2.667   1.412  0.1473 -0.2333 -0.7124
  822SOL    HW1 3286   2.885   2.692   1.503 -1.4812 -2.7502  3.3972
  822SOL    HW2 3287   2.780   2.716   1.391 -0.6766  0.6572  0.3246
  822SOL     MW 3288   2.851   2.676   1.421 -0.1763 -0.4479 -0.0334
  823SOL     OW 3289   2.285   0.467   1.783 -0.1091 -0.3332 -0.3153
  823SOL    HW1 3290   2.362   0.446   1.729 -1.4683 -0.4878 -3.5159
  823SOL    HW2 3291   2.236   0.392   1.763  0.5660  0.4964 -2.5427
  823SOL     MW 3292   2.288   0.454   1.773 -0.1994 -0.2441 -1.0315
  824SOL     OW 3293   2.109   1.331   2.519  0.3001 -0.2212  0.0318
  824SOL    HW1 3294   2.164   1.380   2.451 -0.3081 -1.2894  3.5435
  824SOL    HW2 3295   2.067   1.402   2.562  2.0923  0.2419  0.1429
  824SOL     MW 3296   2.111   1.347   2.516  0.4563 -0.3010  0.5098
  825SOL     OW 3297   2.158   2.483   0.418 -0.1550 -0.2154  0.6765
  825SOL    HW1 3298   2.235   2.463   0.357  3.5887 -2.6453  0.2704
  825SOL    HW2 3299   2.160   2.414   0.489  2.7790 -0.3250  0.4406
  825SOL     MW 3300   2.169   2.471   0.420  0.7260 -0.5504  0.5918
  826SOL     OW 3301   1.775   2.367   0.437 -0.4302 -0.4343 -0.9408
  826SOL    HW1 3302   1.783   2.318   0.516 -0.0247 -0.8957 -0.7001
  826SOL    HW2 3303   1.807   2.455   0.461 -0.8426  1.6478  1.8144
  826SOL     MW 3304   1.781   2.372   0.451 -0.4311 -0.2205 -0.5455
  827SOL     OW 3305   1.948   2.252   0.893  0.7694  0.1865 -0.0260
  827SOL    HW1 3306   1.878   2.267   0.832  0.6072 -0.6487  1.7660
  827SOL    HW2 3307   1.908   2.188   0.948 -2.2257  4.1268  0.9876
  827SOL     MW 3308   1.934   2.246   0.892  0.3528  0.5962  0.3442
  828SOL     OW 3309   0.073   2.641   0.575  0.4841 -0.3438  0.4702
  828SOL    HW1 3310   0.168   2.623   0.573 -0.4093 -0.6721 -2.9389
  828SOL    HW2 3311   0.060   2.688   0.495 -0.9906  0.1605  0.4209
  828SOL     MW 3312   0.084   2.645   0.564  0.1716 -0.3206  0.0139
  829SOL     OW 3313   3.018   2.899   1.182 -0.1070 -0.0704 -0.0162
  829SOL    HW1 3314   2.947   2.880   1.129  2.1888  0.8926  0.5922
  829SOL    HW2 3315   3.068   2.822   1.189 -2.1517  2.3063  0.0845
  829SOL     MW 3316   3.015   2.886   1.176 -0.0739  0.3702  0.0773
  830SOL     OW 3317   2.548   2.795   2.031 -0.2038 -0.1907 -0.4643
  830SOL    HW1 3318   2.471   2.805   1.984  0.0978 -1.5476 -3.0600
  830SOL    HW2 3319   2.604   2.775   1.958  1.7310 -2.8469  0.1666
  830SOL     MW 3320   2.545   2.794   2.015  0.0913 -0.7202 -0.7235
  831SOL     OW 3321   2.501   2.443   1.184  0.2062  0.1981 -0.4132
  831SOL    HW1 3322   2.457   2.398   1.251 -0.6811 -2.5327  0.5110
  831SOL    HW2 3323   2.587   2.399   1.162 -0.1835  0.1973 -2.3332
  831SOL     MW 3324   2.507   2.431   1.190  0.0377 -0.1623 -0.5446
  832SOL     OW 3325   2.435   2.115   1.809 -0.4949 -0.0210  0.5431
  832SOL    HW1 3326   2.455   2.202   1.856  1.4194 -0.8957  0.1020
  832SOL    HW2 3327   2.510   2.102   1.752  0.2594  1.1056  0.9703
  832SOL     MW 3328   2.448   2.125   1.808 -0.1428  0.0123  0.5413
  833SOL     OW 3329   1.718   2.596   0.900 -0.9552  0.1699 -0.4501
  833SOL    HW1 3330   1.652   2.520   0.924  2.2639  2.2499 -1.7886
  833SOL    HW2 3331   1.695   2.671   0.955  3.4272  0.5576 -0.1611
  833SOL     MW 3332   1.706   2.596   0.911  0.0478  0.4955 -0.5886
  834SOL     OW 3333   2.283   2.353   0.644 -0.3291  0.1550  0.1800
  834SOL    HW1 3334   2.248   2.297   0.717  0.1249  1.2225  1.3450
  834SOL    HW2 3335   2.363   2.305   0.622 -2.5184  1.7561 -0.6711
  834SOL     MW 3336   2.289   2.340   0.651 -0.5581  0.5071  0.2214
  835SOL     OW 3337   1.808   2.567   0.657 -0.7630 -0.1736  0.2092
  835SOL    HW1 3338   1.773   2.596   0.744  2.6496 -0.5649  0.9869
  835SOL    HW2 3339   1.823   2.474   0.658 -1.9402  0.8852 -1.4821
  835SOL     MW 3340   1.805   2.558   0.668 -0.4681 -0.0856  0.0886
  836SOL     OW 3341   2.052   2.154   1.659 -0.2173 -0.3987  0.1801
  836SOL    HW1 3342   2.145   2.140   1.623 -0.3243 -1.3676 -0.2857
  836SOL    HW2 3343   2.054   2.243   1.693 -2.3377  0.1171 -0.3503
  836SOL     MW 3344   2.065   2.164   1.658 -0.5112 -0.4585  0.0487
  837SOL     OW 3345   2.104   0.180   0.676  0.5261 -0.0271 -0.0752
  837SOL    HW1 3346   2.016   0.168   0.645  4.0540 -1.3002 -0.0446
  837SOL    HW2 3347   2.152   0.136   0.604 -2.8357 -0.3565  0.0829
  837SOL     MW 3348   2.099   0.173   0.663  0.5480 -0.2385 -0.0503
  838SOL     OW 3349   2.871   2.100   0.943 -0.0273 -0.1268 -0.3588
  838SOL    HW1 3350   2.809   2.029   0.949  0.6204 -1.2059 -1.0430
  838SOL    HW2 3351   2.898   2.102   1.033  0.2977 -0.8663  0.3328
  838SOL     MW 3352   2.866   2.091   0.955  0.1011 -0.3668 -0.3578
  839SOL     OW 3353   1.551   2.377   0.992  0.2294 -0.4942  0.4975
  839SOL    HW1 3354   1.539   2.443   1.072  2.0515 -0.8751 -0.1228
  839SOL    HW2 3355   1.579   2.298   1.026  1.0588 -0.4220 -0.6919
  839SOL     MW 3356   1.553   2.375   1.007  0.5792 -0.5349  0.2587
  840SOL     OW 3357   2.358   2.093   2.426  0.5367 -0.5386 -0.3896
  840SOL    HW1 3358   2.311   2.159   2.365  0.0639 -0.7583 -2.4450
  840SOL    HW2 3359   2.399   2.148   2.495 -0.2879  0.0940  2.0868
  840SOL     MW 3360   2.357   2.109   2.427  0.3655 -0.4841 -0.3340
  841SOL     OW 3361   2.310   2.397   0.064  0.6205  0.1801  0.2572
  841SOL    HW1 3362   2.312   2.468  -0.007  0.6558  0.5152 -1.4986
  841SOL    HW2 3363   2.248   2.333   0.027  0.8600 -0.9841  2.8545
  841SOL     MW 3364   2.302   2.398   0.050  0.6568  0.0707  0.3682
  842SOL     OW 3365   2.694   1.974   1.405  0.0370 -0.4615 -0.0488
  842SOL    HW1 3366   2.643   1.894   1.409  0.2458 -0.4285  0.7996
  842SOL    HW2 3367   2.674   2.024   1.318 -0.1205  1.2008 -3.2869
  842SOL     MW 3368   2.685   1.970   1.394  0.0437 -0.2378 -0.3641
  843SOL     OW 3369   2.653   2.768   1.750 -0.3720 -0.1318 -0.1080
  843SOL    HW1 3370   2.744   2.739   1.767 -0.6476  1.5631  0.0130
  843SOL    HW2 3371   2.597   2.694   1.732  3.0152 -1.2909  1.4385
  843SOL     MW 3372   2.658   2.755   1.750  0.0385 -0.0611  0.1120
  844SOL     OW 3373   2.742   2.335   1.149  0.0519  0.1187  0.1403
  844SOL    HW1 3374   2.786   2.364   1.068 -2.1556  0.6197  0.4156
  844SOL    HW2 3375   2.794   2.355   1.221 -1.2512  3.5856 -1.1058
  844SOL     MW 3376   2.754   2.341   1.148 -0.4113  0.6423  0.0122
  845SOL     OW 3377   2.838   2.584   0.287 -0.6722 -0.3127 -0.1127
  845SOL    HW1 3378   2.822   2.492   0.316  1.0994 -2.8574  0.3550
  845SOL    HW2 3379   2.813   2.641   0.363  1.8626 -0.4046 -0.5253
  845SOL     MW 3380   2.832   2.580   0.301 -0.1040 -0.6606 -0.1054
  846SOL     OW 3381   1.461   2.831   0.808 -0.5997  0.3959 -0.2937
  846SOL    HW1 3382   1.547   2.859   0.842  1.2183  1.8312 -0.9356
  846SOL    HW2 3383   1.395   2.879   0.861 -0.2262 -1.9418  0.9607
  846SOL     MW 3384   1.463   2.841   0.820 -0.3106  0.2768 -0.2129
  847SOL     OW 3385   2.507   1.887   0.167  0.5304 -0.1722  0.4870
  847SOL    HW1 3386   2.454   1.812   0.212 -1.0161 -3.0159  1.1012
  847SOL    HW2 3387   2.475   1.889   0.074  1.2207 -0.3810  1.5503
  847SOL     MW 3388   2.496   1.877   0.160  0.4175 -0.5750  0.7083
  848SOL     OW 3389   2.583   2.108   1.183  0.2854 -0.4801  0.0687
  848SOL    HW1 3390   2.648   2.173   1.172  0.3310  1.1093  3.0994
  848SOL    HW2 3391   2.601   2.055   1.105 -0.9913  0.4284 -1.2303
  848SOL     MW 3392   2.594   2.109   1.171  0.1229 -0.1505  0.2972
  849SOL     OW 3393   2.009   2.843   0.785 -0.2324  0.6581  0.1855
  849SOL    HW1 3394   1.986   2.822   0.881 -1.0830  0.6166  0.4977
  849SOL    HW2 3395   2.060   2.773   0.746  2.1964  3.3697 -0.2766
  849SOL     MW 3396   2.013   2.831   0.793 -0.0241  1.0104  0.1657
  850SOL     OW 3397   2.347   1.819   1.643  0.0900  0.4638  0.2906
  850SOL    HW1 3398   2.262   1.790   1.608 -3.1855  1.5642  1.5264
  850SOL    HW2 3399   2.360   1.908   1.612  2.3002  0.2804  1.9770
  850SOL     MW 3400   2.337   1.827   1.634 -0.0506  0.5848  0.6762
  851SOL     OW 3401   2.386   2.302   0.304  0.3084 -0.6093 -0.4916
  851SOL    HW1 3402   2.366   2.334   0.216  1.8707 -0.9285 -1.3030
  851SOL    HW2 3403   2.467   2.348   0.326 -1.0505 -2.6635 -0.2316
  851SOL     MW 3404   2.394   2.312   0.295  0.3352 -0.9225 -0.5643
  852SOL     OW 3405   2.326   2.040   0.348 -0.1891 -0.4790  0.2569
  852SOL    HW1 3406   2.330   2.134   0.331 -0.8242  0.1807  2.6705
  852SOL    HW2 3407   2.382   2.010   0.277 -1.8317  1.2455  1.1895
  852SOL     MW 3408   2.334   2.048   0.336 -0.4896 -0.1644  0.6984
  853SOL     OW 3409   2.513   2.366   1.914  0.5751  0.6410  0.0529
  853SOL    HW1 3410   2.500   2.438   1.857 -0.4754  2.2879  1.8232
  853SOL    HW2 3411   2.605   2.367   1.945  2.5389 -1.0308  0.1298
  853SOL     MW 3412   2.523   2.375   1.911  0.6956  0.6377  0.2966
  854SOL     OW 3413   2.845   2.232   0.708  0.0963  0.7410  0.2274
  854SOL    HW1 3414   2.761   2.206   0.666  0.6376  0.2575 -1.1357
  854SOL    HW2 3415   2.851   2.174   0.786  1.4047  1.4818 -1.1224
  854SOL     MW 3416   2.835   2.221   0.713  0.3404  0.7750 -0.1305
  855SOL     OW 3417   2.769   2.357   0.428  0.3272  0.3575  0.3420
  855SOL    HW1 3418   2.698   2.365   0.494  0.2910 -1.4670  2.3398
  855SOL    HW2 3419   2.768   2.265   0.399 -0.1590 -0.2362 -2.1481
  855SOL     MW 3420   2.759   2.346   0.433  0.2583  0.0385  0.2770
  856SOL     OW 3421   2.097   1.880   0.229 -0.2850  0.1006  0.7896
  856SOL    HW1 3422   2.002   1.879   0.243  1.6005 -2.0186 -0.8572
  856SOL    HW2 3423   2.136   1.950   0.282  2.2642  0.4006 -2.2314
  856SOL     MW 3424   2.090   1.889   0.238  0.3001 -0.1395  0.1737
  857SOL     OW 3425   2.512   1.950   0.521  0.3250  0.3566 -0.1526
  857SOL    HW1 3426   2.456   1.993   0.457 -0.6484  1.6705  1.0258
  857SOL    HW2 3427   2.434   1.928   0.579 -1.9263 -0.8413 -1.4712
  857SOL     MW 3428   2.494   1.953   0.520 -0.1005  0.3719 -0.1711
  858SOL     OW 3429   2.886   2.661   1.791 -0.5732  0.0852  0.0125
  858SOL    HW1 3430   2.975   2.690   1.807  0.1493 -2.2800  0.3386
  858SOL    HW2 3431   2.885   2.568   1.772  2.0811  0.4141 -2.2892
  858SOL     MW 3432   2.898   2.653   1.791 -0.1276 -0.1834 -0.2481
  859SOL     OW 3433   1.920   2.741   1.055 -0.3333  0.2190 -0.4561
  859SOL    HW1 3434   1.871   2.671   1.015  0.2751 -1.5610  0.1948
  859SOL    HW2 3435   2.008   2.706   1.064 -0.4761 -4.8621 -0.1031
  859SOL     MW 3436   1.925   2.727   1.051 -0.2718 -0.6862 -0.3236
  860SOL     OW 3437   2.616   2.645   0.148  0.1068 -0.3368  0.5014
  860SOL    HW1 3438   2.684   2.637   0.228  1.2147 -1.5825 -0.3962
  860SOL    HW2 3439   2.666   2.700   0.090 -0.5242 -1.2658 -1.1037
  860SOL     MW 3440   2.632   2.651   0.151  0.1697 -0.6237  0.1712
  861SOL     OW 3441   1.647   2.156   1.197  0.0649  0.0716  0.4116
  861SOL    HW1 3442   1.644   2.242   1.248  2.4146  1.0177  1.6346
  861SOL    HW2 3443   1.574   2.106   1.234 -1.7984  3.3236  1.1838
  861SOL     MW 3444   1.637   2.161   1.209  0.1291  0.6255  0.6748
  862SOL     OW 3445   2.519   1.742   1.435 -0.0311 -0.6864 -0.4965
  862SOL    HW1 3446   2.452   1.781   1.492 -0.3610 -0.9802 -0.1816
  862SOL    HW2 3447   2.488   1.760   1.344  1.9580  2.9237  1.2068
  862SOL     MW 3448   2.506   1.749   1.431  0.1878 -0.2489 -0.2302
  863SOL     OW 3449   3.005   1.735   0.992 -0.0850 -0.5597 -0.6540
  863SOL    HW1 3450   3.080   1.738   1.053 -1.1421 -1.7496  0.1275
  863SOL    HW2 3451   2.934   1.767   1.047  2.1763  1.2804  1.7134
  863SOL     MW 3452   3.005   1.740   1.007  0.0739 -0.4739 -0.2385
  864SOL     OW 3453   0.037   1.838   0.751 -0.2770 -0.2208 -0.3144
  864SOL    HW1 3454  -0.028   1.836   0.818  1.3378 -1.2589 -1.2752
  864SOL    HW2 3455  -0.003   1.803   0.670 -0.4932  0.5528 -0.9664
  864SOL     MW 3456   0.024   1.833   0.749 -0.0925 -0.2557 -0.5272
  865SOL     OW 3457   2.637   2.183   0.064 -0.3394  0.4509  0.2132
  865SOL    HW1 3458   2.577   2.131   0.118  1.5837  0.8383 -0.3765
  865SOL    HW2 3459   2.622   2.169  -0.031  1.9780  4.2231 -1.1632
  865SOL     MW 3460   2.627   2.174   0.058  0.2201  0.9997 -0.0462
  866SOL     OW 3461   2.628   2.393   1.547 -0.1599  0.7413  0.0391
  866SOL    HW1 3462   2.635   2.296   1.581 -0.2999 -1.0063  1.9604
  866SOL    HW2 3463   2.690   2.410   1.478 -3.0849  0.1832  1.2844
  866SOL     MW 3464   2.637   2.382   1.542 -0.5643  0.4371  0.4569
  867SOL     OW 3465   0.115   2.689   1.768  0.4391 -0.8148 -0.0454
  867SOL    HW1 3466   0.175   2.761   1.788 -0.8137  0.4636  0.0253
  867SOL    HW2 3467   0.070   2.726   1.690 -0.7351  3.2934 -1.4343
  867SOL     MW 3468   0.117   2.703   1.761  0.1189 -0.1041 -0.2194
  868SOL     OW 3469   2.769   2.674   0.530  0.5473  0.2311 -0.6930
  868SOL    HW1 3470   2.701   2.599   0.532 -3.4781 -0.6373 -1.6698
  868SOL    HW2 3471   2.708   2.748   0.511 -0.9339 -2.7841  1.4269
  868SOL     MW 3472   2.752   2.674   0.528 -0.1792 -0.2813 -0.5422
  869SOL     OW 3473   2.063   2.470   1.034 -0.0617  0.4628 -0.0670
  869SOL    HW1 3474   2.157   2.465   1.015  0.4644  1.4139 -0.0552
  869SOL    HW2 3475   2.029   2.386   1.010 -1.7450  1.9422  1.2947
  869SOL     MW 3476   2.071   2.458   1.028 -0.2144  0.7835  0.1142
  870SOL     OW 3477   2.200   0.035   0.461  0.2463 -0.7004 -0.2534
  870SOL    HW1 3478   2.264   0.084   0.403  1.4355  1.6364 -1.1957
  870SOL    HW2 3479   2.249  -0.042   0.475 -2.7924  2.1710  0.2718
  870SOL     MW 3480   2.215   0.031   0.455  0.0023 -0.0132 -0.3084
  871SOL     OW 3481   2.508   2.096   0.882 -0.4768 -0.2463 -0.7806
  871SOL    HW1 3482   2.430   2.044   0.850  1.6419 -0.3829 -0.2537
  871SOL    HW2 3483   2.474   2.159   0.945  0.6147  0.4542  0.5415
  871SOL     MW 3484   2.493   2.097   0.886 -0.0532 -0.1719 -0.5366
  872SOL     OW 3485   2.105   2.576   1.513  0.6624 -0.5083  0.3507
  872SOL    HW1 3486   2.019   2.593   1.551  1.4550  3.0205  1.5257
  872SOL    HW2 3487   2.090   2.521   1.431 -0.0736 -1.2887 -1.3462
  872SOL     MW 3488   2.092   2.571   1.507  0.6699 -0.1456  0.2818
  873SOL     OW 3489   2.829   2.086   1.825  0.3137  0.0220 -0.7640
  873SOL    HW1 3490   2.798   2.134   1.903  0.5911  3.2330 -0.1893
  873SOL    HW2 3491   2.905   2.138   1.796  0.7479 -0.3177  2.3414
  873SOL     MW 3492   2.835   2.099   1.831  0.4076  0.4009 -0.2784
  874SOL     OW 3493   2.304   1.411   2.328 -0.3097 -0.2297  0.0269
  874SOL    HW1 3494   2.279   1.379   2.242  0.7646  0.9632  0.5170
  874SOL    HW2 3495   2.381   1.359   2.353 -0.1622 -2.4166  1.5664
  874SOL     MW 3496   2.311   1.400   2.320 -0.1485 -0.3608  0.2946
  875SOL     OW 3497   2.349   2.341   0.978 -0.2149 -0.0252  0.3680
  875SOL    HW1 3498   2.375   2.395   0.904 -1.2507 -1.5510  1.3560
  875SOL    HW2 3499   2.406   2.367   1.055 -1.8659 -1.5766  0.2854
  875SOL     MW 3500   2.360   2.352   0.978 -0.5694 -0.4312  0.4874
  876SOL     OW 3501   3.076   2.249   1.312 -0.0667 -0.2521  0.1134
  876SOL    HW1 3502   3.125   2.280   1.236  2.1671 -2.5689  0.2740
  876SOL    HW2 3503   3.133   2.281   1.388 -0.7115  4.1394 -2.1032
  876SOL     MW 3504   3.090   2.257   1.312  0.1429  0.0217 -0.1579
  877SOL     OW 3505   0.054   2.791   0.339 -0.0813 -0.0552 -0.4947
  877SOL    HW1 3506   0.125   2.856   0.333 -1.2995 -2.6314  1.0067
  877SOL    HW2 3507   0.041   2.741   0.258  1.2482  0.9756  0.7488
  877SOL     MW 3508   0.062   2.793   0.327 -0.0666 -0.2591 -0.1326
  878SOL     OW 3509   2.356   1.710   1.195 -0.9786 -0.6748 -0.0534
  878SOL    HW1 3510   2.288   1.672   1.255 -0.4617 -1.8489  1.2289
  878SOL    HW2 3511   2.409   1.632   1.167  1.9995 -1.0395  0.3166
  878SOL     MW 3512   2.354   1.695   1.199 -0.5175 -0.8779  0.1646
  879SOL     OW 3513   2.765   2.460   0.877  0.2707  0.5526 -0.3690
  879SOL    HW1 3514   2.837   2.524   0.884  1.0394 -0.9688  0.5693
  879SOL    HW2 3515   2.813   2.402   0.818  1.0311 -1.0631 -2.2437
  879SOL     MW 3516   2.781   2.461   0.870  0.4725  0.1387 -0.4925
  880SOL     OW 3517   2.584   2.200   0.625 -0.0843  0.0060  0.3188
  880SOL    HW1 3518   2.543   2.174   0.711 -2.1136  0.6651  1.0336
  880SOL    HW2 3519   2.581   2.122   0.559  0.6840 -4.3432 -3.1101
  880SOL     MW 3520   2.578   2.186   0.627 -0.2507 -0.4809 -0.0393
  881SOL     OW 3521   2.967   2.756   0.702 -0.5907  0.5932  0.2942
  881SOL    HW1 3522   2.909   2.710   0.647 -1.2592  0.2083  2.1598
  881SOL    HW2 3523   3.059   2.733   0.666  0.3150  1.0571  1.8626
  881SOL     MW 3524   2.971   2.747   0.690 -0.5594  0.6036  0.7473
  882SOL     OW 3525   2.295   2.847   1.928  0.3966  0.2265 -0.1150
  882SOL    HW1 3526   2.274   2.859   1.831 -0.7353 -0.9597 -0.9452
  882SOL    HW2 3527   2.234   2.777   1.951 -0.1125  1.2806  1.0265
  882SOL     MW 3528   2.284   2.839   1.919  0.1801  0.2091 -0.0739
  883SOL     OW 3529   2.370   2.245   1.322  0.5082  0.0624 -0.4425
  883SOL    HW1 3530   2.451   2.191   1.304 -0.2279 -0.2772 -0.4457
  883SOL    HW2 3531   2.294   2.209   1.269 -1.7452 -4.9546  0.4402
  883SOL     MW 3532   2.371   2.233   1.313  0.1138 -0.6444 -0.3265
  884SOL     OW 3533   1.976   1.815   1.068 -0.1634 -0.1510 -0.1053
  884SOL    HW1 3534   1.908   1.880   1.065 -0.6507 -0.2824 -1.3681
  884SOL    HW2 3535   2.051   1.872   1.093 -2.7142  1.8709 -0.5418
  884SOL     MW 3536   1.977   1.831   1.071 -0.5643  0.0984 -0.3295
  885SOL     OW 3537   2.823   2.394   1.738  0.4403  0.4832 -0.4315
  885SOL    HW1 3538   2.892   2.327   1.710 -1.4104 -0.5620  0.1043
  885SOL    HW2 3539   2.757   2.397   1.669 -0.5425 -1.1200  0.2152
  885SOL     MW 3540   2.823   2.385   1.725  0.0664  0.1338 -0.2755
  886SOL     OW 3541   2.867   2.405   1.390  0.4209  0.2191 -0.5207
  886SOL    HW1 3542   2.958   2.374   1.372  0.2014  1.3470  2.5099
  886SOL    HW2 3543   2.888   2.502   1.398 -0.1666 -1.4704 -0.6067
  886SOL     MW 3544   2.882   2.414   1.389  0.3145  0.1450 -0.1322
  887SOL     OW 3545   2.342   2.685   1.503 -0.1644  0.1205 -0.2107
  887SOL    HW1 3546   2.371   2.657   1.419  0.4261  1.9528  1.4840
  887SOL    HW2 3547   2.253   2.652   1.490  0.4183  3.1384 -0.8597
  887SOL     MW 3548   2.334   2.677   1.490 -0.0096  0.7605 -0.0727
  888SOL     OW 3549   1.987   2.159   1.363  1.2988  0.0065 -0.2863
  888SOL    HW1 3550   2.066   2.144   1.311  0.6368 -1.2329 -2.2147
  888SOL    HW2 3551   2.014   2.194   1.447  1.5653  0.2756 -2.7711
  888SOL     MW 3552   2.001   2.162   1.367  1.2466 -0.1215 -0.8686
  889SOL     OW 3553   2.311   1.955   2.071 -0.5290 -0.5469 -0.0560
  889SOL    HW1 3554   2.387   1.952   2.129 -0.0753 -1.2343 -0.9184
  889SOL    HW2 3555   2.329   2.002   1.990 -0.9993 -1.0412  1.1237
  889SOL     MW 3556   2.323   1.961   2.068 -0.5312 -0.7028 -0.0141
  890SOL     OW 3557   0.075   2.328   0.138 -0.9711  0.1467  0.2635
  890SOL    HW1 3558   0.059   2.420   0.151  0.7466 -1.8413  3.1366
  890SOL    HW2 3559   0.047   2.291   0.223  1.1325  0.7007  3.0702
  890SOL     MW 3560   0.069   2.336   0.151 -0.4670 -0.0425  1.0129
  891SOL     OW 3561   2.983   2.027   1.187 -0.0670  1.0913 -0.2064
  891SOL    HW1 3562   3.063   1.983   1.162  1.5617  1.7216 -0.8084
  891SOL    HW2 3563   3.003   2.102   1.239 -3.5624 -1.6516  1.0587
  891SOL     MW 3564   2.996   2.031   1.191 -0.3133  0.8125 -0.1189
  892SOL     OW 3565   2.463   2.397   2.834  0.4839 -0.0651  0.7434
  892SOL    HW1 3566   2.443   2.320   2.884 -0.4547 -0.3662 -0.6921
  892SOL    HW2 3567   2.541   2.432   2.867 -1.3852  3.0682 -0.7615
  892SOL     MW 3568   2.471   2.392   2.845  0.1134  0.3086  0.3554
  893SOL     OW 3569   1.667   2.386   1.355  0.2330 -0.4373  0.1431
  893SOL    HW1 3570   1.584   2.396   1.397  0.3828 -0.9339 -3.3648
  893SOL    HW2 3571   1.697   2.475   1.353  0.2806 -0.5268  0.7022
  893SOL     MW 3572   1.660   2.399   1.361  0.2591 -0.5146 -0.2460
  894SOL     OW 3573   2.766   1.838   0.476  0.7876 -0.4158 -0.3982
  894SOL    HW1 3574   2.673   1.878   0.493 -1.9093  2.1066  0.5078
  894SOL    HW2 3575   2.771   1.823   0.376 -1.6945  2.1164  0.3316
  894SOL     MW 3576   2.754   1.841   0.465  0.1043  0.2511 -0.1823
  895SOL     OW 3577   2.192   2.165   1.133  0.4051  0.3485 -0.0633
  895SOL    HW1 3578   2.241   2.220   1.074  0.6783 -1.7228 -0.5165
  895SOL    HW2 3579   2.210   2.084   1.084 -1.5258  0.7585 -0.1033
  895SOL     MW 3580   2.201   2.162   1.119  0.1863  0.1293 -0.1283
  896SOL     OW 3581   2.219   2.785   1.101  0.0530 -0.7165 -0.1044
  896SOL    HW1 3582   2.297   2.773   1.159  0.1786 -0.5137  1.4113
  896SOL    HW2 3583   2.187   2.872   1.105  1.0781 -1.4905  1.7213
  896SOL     MW 3584   2.225   2.795   1.109  0.2048 -0.7918  0.3364
  897SOL     OW 3585   3.087   3.010   3.085 -0.6768 -0.3431  0.1698
  897SOL    HW1 3586   3.142   2.934   3.087  0.7913  0.0017 -2.4927
  897SOL    HW2 3587   3.008   2.990   3.042  2.0153  0.1457  1.3577
  897SOL     MW 3588   3.084   2.997   3.079 -0.1279 -0.2331 -0.0248
  898SOL     OW 3589   2.053   0.155   1.420  0.2419  0.0097 -0.1144
  898SOL    HW1 3590   2.044   0.060   1.441  0.4557 -0.4936 -1.3578
  898SOL    HW2 3591   2.078   0.162   1.330  0.9155 -1.2349 -1.2082
  898SOL     MW 3592   2.055   0.143   1.411  0.3590 -0.2209 -0.4228
  899SOL     OW 3593   2.924   3.000   0.595 -0.0839  0.0743 -0.1160
  899SOL    HW1 3594   2.948   2.939   0.668 -1.6326 -1.5884  2.7491
  899SOL    HW2 3595   2.827   3.004   0.607  0.4496 -0.9250 -0.1723
  899SOL     MW 3596   2.914   2.992   0.606 -0.2178 -0.2769  0.2546
  900SOL     OW 3597   0.097   2.374   1.092 -0.0602 -0.5464  0.2738
  900SOL    HW1 3598   0.044   2.453   1.109 -0.7211 -1.3830 -0.8709
  900SOL    HW2 3599   0.110   2.369   0.998  1.1871 -0.7776  1.5338
  900SOL     MW 3600   0.092   2.384   1.082  0.0171 -0.6873  0.2890
  901SOL     OW 3601   1.725   2.794   1.781 -0.3071  0.6519  0.7107
  901SOL    HW1 3602   1.815   2.747   1.759  1.2645  0.1062 -1.0795
  901SOL    HW2 3603   1.678   2.809   1.697  2.3530 -0.3224 -1.6828
  901SOL     MW 3604   1.731   2.790   1.767  0.2512  0.4513  0.1587
  902SOL     OW 3605   2.652   2.133   1.636  0.1111  0.4642 -0.4696
  902SOL    HW1 3606   2.688   2.075   1.562  1.0158 -1.6140 -1.2141
  902SOL    HW2 3607   2.714   2.102   1.709 -1.2667 -0.3194 -0.2013
  902SOL     MW 3608   2.665   2.121   1.636  0.0487  0.0866 -0.5324
  903SOL     OW 3609   1.498   2.650   0.594 -0.5042 -0.1022 -0.9528
  903SOL    HW1 3610   1.589   2.647   0.618 -2.0408 -2.4912  1.9583
  903SOL    HW2 3611   1.460   2.704   0.672  2.4437  1.5424 -1.9957
  903SOL     MW 3612   1.505   2.656   0.607 -0.3180 -0.2004 -0.7063
  904SOL     OW 3613   2.469   2.553   1.694  0.8004 -0.8057 -0.3856
  904SOL    HW1 3614   2.416   2.616   1.634 -1.2993 -1.4231 -0.6630
  904SOL    HW2 3615   2.523   2.499   1.634 -0.5692  1.4172 -0.0742
  904SOL     MW 3616   2.469   2.554   1.678  0.3427 -0.5939 -0.3811
  905SOL     OW 3617   2.311   2.457   2.099  0.3972  0.0112 -0.1293
  905SOL    HW1 3618   2.376   2.399   2.061 -0.8714 -1.3129  0.3203
  905SOL    HW2 3619   2.287   2.393   2.173  0.4310 -1.7265  3.3359
  905SOL     MW 3620   2.316   2.441   2.104  0.2343 -0.3928  0.3872
  906SOL     OW 3621   2.504   2.518   0.799  0.2351  0.3361 -0.4296
  906SOL    HW1 3622   2.588   2.500   0.842  2.6162 -0.1385  1.2955
  906SOL    HW2 3623   2.472   2.606   0.824 -2.9498  0.4103 -1.1745
  906SOL     MW 3624   2.511   2.527   0.808  0.1290  0.2833 -0.3002
  907SOL     OW 3625   2.659   2.867   1.270  0.2063 -0.1961  0.1723
  907SOL    HW1 3626   2.723   2.926   1.312  0.3456  5.2651 -0.5406
  907SOL    HW2 3627   2.696   2.861   1.182 -3.7511 -1.5220 -2.6249
  907SOL     MW 3628   2.673   2.874   1.264 -0.2974  0.3495 -0.2908
  908SOL     OW 3629   2.721   2.437   0.033 -0.3275 -0.0105 -0.2978
  908SOL    HW1 3630   2.689   2.348   0.061 -1.8262  0.4049 -0.9311
  908SOL    HW2 3631   2.670   2.505   0.081 -2.9206  0.0753  0.8888
  908SOL     MW 3632   2.710   2.434   0.043 -0.8674  0.0556 -0.2248
  909SOL     OW 3633   1.729   0.135   1.236 -0.5528  0.2452  0.1188
  909SOL    HW1 3634   1.687   0.212   1.194  0.5213 -1.2917  1.6675
  909SOL    HW2 3635   1.687   0.114   1.317  0.0342 -0.4404 -0.3600
  909SOL     MW 3636   1.718   0.143   1.241 -0.3336 -0.0480  0.2600
  910SOL     OW 3637   2.152   1.673   0.392 -0.5703  0.0685 -0.2785
  910SOL    HW1 3638   2.082   1.609   0.378 -2.2192  0.4541  0.5930
  910SOL    HW2 3639   2.121   1.744   0.335 -0.2302  0.0799 -0.5661
  910SOL     MW 3640   2.139   1.674   0.382 -0.7430  0.1209 -0.2015
  911SOL     OW 3641   2.292   2.102   1.563  0.3205  0.3750  0.1850
  911SOL    HW1 3642   2.328   2.136   1.647  0.7096  3.0599  1.3285
  911SOL    HW2 3643   2.325   2.165   1.490  2.3936  0.3289 -1.5154
  911SOL     MW 3644   2.301   2.115   1.564  0.6454  0.7232  0.1115
  912SOL     OW 3645   2.937   1.867   1.418  0.7447  0.2519 -0.4567
  912SOL    HW1 3646   2.973   1.896   1.324  1.1861  0.4280  1.0387
  912SOL    HW2 3647   2.859   1.923   1.427 -3.3132 -1.4201 -0.6575
  912SOL     MW 3648   2.931   1.878   1.407  0.2676  0.0545 -0.2859
  913SOL     OW 3649   2.690   3.067   0.273  0.1249 -0.3607 -0.2369
  913SOL    HW1 3650   2.779   3.028   0.277 -0.2266 -3.2993  0.2410
  913SOL    HW2 3651   2.632   3.002   0.238  2.0992  0.9225 -0.4847
  913SOL     MW 3652   2.694   3.053   0.269  0.3390 -0.5791 -0.2065
  914SOL     OW 3653   2.682   1.820   2.956  0.8686 -0.2042 -0.3430
  914SOL    HW1 3654   2.689   1.914   2.952 -0.2861 -0.3470 -2.7740
  914SOL    HW2 3655   2.590   1.799   2.987 -3.6593 -0.9831 -1.2305
  914SOL     MW 3656   2.671   1.830   2.960  0.1188 -0.3258 -0.7809
  915SOL     OW 3657   1.789   0.154   0.138  0.6610  0.0012 -0.0631
  915SOL    HW1 3658   1.855   0.099   0.179 -0.8072  2.1368 -1.1752
  915SOL    HW2 3659   1.705   0.107   0.157  0.5620 -3.0669 -0.1325
  915SOL     MW 3660   1.787   0.140   0.146  0.4542 -0.1218 -0.2190
  916SOL     OW 3661   1.725   2.190   2.035  0.0393  0.0828 -0.6050
  916SOL    HW1 3662   1.786   2.265   2.028 -0.3144  0.5813 -0.7637
  916SOL    HW2 3663   1.759   2.140   1.959  0.5829  1.1123  0.1126
  916SOL     MW 3664   1.737   2.193   2.024  0.0644  0.2844 -0.5313
  917SOL     OW 3665   2.519   2.273   2.585  0.3224  0.2756  0.2207
  917SOL    HW1 3666   2.500   2.305   2.670  2.3658  1.5949 -0.8469
  917SOL    HW2 3667   2.597   2.315   2.559 -1.2662  0.4960  0.3387
  917SOL     MW 3668   2.527   2.283   2.593  0.3824  0.4788  0.0954
  918SOL     OW 3669   2.035   1.615   2.663  0.4864 -0.4471 -0.5252
  918SOL    HW1 3670   1.954   1.627   2.611  0.0125 -1.9648 -1.8950
  918SOL    HW2 3671   2.100   1.677   2.628  2.9477  0.4862 -0.1256
  918SOL     MW 3672   2.033   1.625   2.651  0.7486 -0.5242 -0.6532
  919SOL     OW 3673   3.070   2.408   2.232 -0.0579  0.5390  0.3125
  919SOL    HW1 3674   3.011   2.336   2.219 -1.4383  1.4018 -1.3961
  919SOL    HW2 3675   3.134   2.402   2.160  0.2079  1.1009 -2.5170
  919SOL     MW 3676   3.071   2.398   2.221 -0.2049  0.7270 -0.2863
  920SOL     OW 3677   2.688   2.817   3.047 -0.3271 -0.2486 -0.5249
  920SOL    HW1 3678   2.597   2.840   3.029 -0.2776 -2.5303 -0.8420
  920SOL    HW2 3679   2.702   2.765   2.975 -0.4255  0.2602  0.4638
  920SOL     MW 3680   2.678   2.813   3.035 -0.3335 -0.4825 -0.4363
  921SOL     OW 3681   2.453   2.612   2.625  0.5290  0.7535  0.3612
  921SOL    HW1 3682   2.542   2.592   2.598 -0.3304  1.1768 -1.8355
  921SOL    HW2 3683   2.433   2.546   2.691 -0.0236 -0.1265  0.2162
  921SOL     MW 3684   2.462   2.601   2.630  0.3427  0.6932  0.0522
  922SOL     OW 3685   2.068   2.745   0.372  0.3898 -0.7198  0.2683
  922SOL    HW1 3686   2.020   2.756   0.291  1.7862 -0.9029  2.2360
  922SOL    HW2 3687   2.106   2.652   0.383  6.1238 -0.9340 -0.8673
  922SOL     MW 3688   2.066   2.734   0.363  1.3306 -0.7723  0.3781
  923SOL     OW 3689   2.206   2.848   1.687  0.1195 -0.2070 -0.4329
  923SOL    HW1 3690   2.245   2.802   1.616  0.8159  1.6991 -1.7921
  923SOL    HW2 3691   2.151   2.916   1.650  0.4903  0.5949  1.2742
  923SOL     MW 3692   2.204   2.851   1.673  0.2603  0.1503 -0.3870
  924SOL     OW 3693   1.097   2.736   2.610 -0.7143 -0.1461 -0.6903
  924SOL    HW1 3694   1.195   2.747   2.599 -4.2208  0.6677 -0.2060
  924SOL    HW2 3695   1.090   2.662   2.668 -0.6197 -1.3331 -0.3466
  924SOL     MW 3696   1.109   2.727   2.616 -1.1645 -0.1954 -0.5811
  925SOL     OW 3697   2.982   0.229   2.692 -0.5934  0.3780 -0.5407
  925SOL    HW1 3698   2.939   0.231   2.606  1.2994  0.1267  0.7361
  925SOL    HW2 3699   2.985   0.323   2.723  1.3348  3.5420  0.7773
  925SOL     MW 3700   2.977   0.242   2.685 -0.0892  0.7623 -0.1983
  926SOL     OW 3701   2.775   2.350   2.002  0.3141  0.6653 -0.2330
  926SOL    HW1 3702   2.795   2.438   2.031 -1.9112 -0.8857 -2.1431
  926SOL    HW2 3703   2.794   2.356   1.909  0.0174 -1.0908  0.5857
  926SOL     MW 3704   2.780   2.362   1.993 -0.0186  0.2290 -0.3770
  927SOL     OW 3705   2.385   0.158   0.303 -0.2530 -0.3552  0.1460
  927SOL    HW1 3706   2.470   0.198   0.319 -0.9084  2.0628 -2.9007
  927SOL    HW2 3707   2.384   0.131   0.211  1.6297  0.5642  2.3375
  927SOL     MW 3708   2.396   0.159   0.293 -0.0911  0.0852  0.0331
  928SOL     OW 3709   2.156   2.403   1.720 -0.4081 -0.0818 -0.2978
  928SOL    HW1 3710   2.155   2.475   1.654 -2.0300 -0.3194 -0.9517
  928SOL    HW2 3711   2.232   2.402   1.779 -1.0342  0.4905 -0.7677
  928SOL     MW 3712   2.166   2.413   1.719 -0.7047 -0.0377 -0.4461
  929SOL     OW 3713   2.745   2.346   2.455 -0.0192 -0.0528  0.1126
  929SOL    HW1 3714   2.776   2.282   2.396 -1.2260  2.0432  3.5047
  929SOL    HW2 3715   2.815   2.359   2.514  1.5427 -2.1235 -1.0554
  929SOL     MW 3716   2.758   2.340   2.455  0.0276 -0.0495  0.4060
  930SOL     OW 3717   2.004   2.814   2.639  0.0414 -0.2429  0.6324
  930SOL    HW1 3718   2.012   2.743   2.704 -0.2107 -0.2165  1.0607
  930SOL    HW2 3719   2.079   2.869   2.647  2.9670 -2.1550 -0.4103
  930SOL     MW 3720   2.015   2.812   2.649  0.3941 -0.4917  0.5513
  931SOL     OW 3721   0.030   2.793   2.476  0.0457  0.0179 -0.0009
  931SOL    HW1 3722   0.031   2.821   2.565 -1.0199 -0.2398 -3.3221
  931SOL    HW2 3723   0.118   2.821   2.461  0.8506  0.7574 -1.3825
  931SOL     MW 3724   0.041   2.800   2.486  0.0113  0.0815 -0.6214
  932SOL     OW 3725   2.866   1.889   2.499 -0.5511  0.1897  0.4644
  932SOL    HW1 3726   2.946   1.943   2.514  0.1642 -0.0055 -0.5165
  932SOL    HW2 3727   2.833   1.913   2.409  0.4183  1.7603 -0.9493
  932SOL     MW 3728   2.872   1.899   2.489 -0.3288  0.3712  0.1484
  933SOL     OW 3729   2.045   2.777   2.225  0.3820  0.4891 -0.5096
  933SOL    HW1 3730   2.135   2.818   2.263  2.6961  1.5525  2.8349
  933SOL    HW2 3731   1.987   2.852   2.203  0.7769  0.6442  0.7785
  933SOL     MW 3732   2.049   2.793   2.227  0.7394  0.6499  0.1017
  934SOL     OW 3733   1.993   2.633   2.441  0.6488  0.2729  0.4229
  934SOL    HW1 3734   2.000   2.699   2.504 -3.4112 -1.2276  0.3372
  934SOL    HW2 3735   2.027   2.659   2.355  0.2685  0.8258  2.4563
  934SOL     MW 3736   1.998   2.645   2.438  0.0629  0.1479  0.6799
  935SOL     OW 3737   2.686   1.567   1.809 -0.8992 -0.7956  0.3592
  935SOL    HW1 3738   2.772   1.531   1.793 -4.4777 -0.0827 -0.8949
  935SOL    HW2 3739   2.655   1.543   1.726  0.6280  0.1450 -2.5345
  935SOL     MW 3740   2.693   1.559   1.796 -1.1699 -0.5774 -0.1881
  936SOL     OW 3741   2.946   2.270   3.091  0.0684 -0.6727 -0.0199
  936SOL    HW1 3742   3.027   2.281   3.143 -3.0157 -0.3712  1.6773
  936SOL    HW2 3743   2.891   2.348   3.112 -0.3920  1.4293 -1.0961
  936SOL     MW 3744   2.950   2.282   3.100 -0.3993 -0.3556  0.0620
  937SOL     OW 3745   1.996   2.153   2.719 -0.6091 -0.7001  0.1285
  937SOL    HW1 3746   2.084   2.123   2.753  0.9950  0.5920  0.1725
  937SOL    HW2 3747   1.982   2.122   2.629 -0.5970  1.9777  1.4137
  937SOL     MW 3748   2.005   2.145   2.711 -0.3959 -0.1763  0.3039
  938SOL     OW 3749   2.340   1.726   1.925  0.6555 -0.3860 -0.2908
  938SOL    HW1 3750   2.353   1.760   1.835  3.7227 -0.0255 -0.1087
  938SOL    HW2 3751   2.321   1.799   1.986  1.4936 -2.6926  1.2564
  938SOL     MW 3752   2.339   1.740   1.921  1.1708 -0.6428 -0.0627
  939SOL     OW 3753   2.760   1.980   2.250 -0.8072 -0.3901 -0.1564
  939SOL    HW1 3754   2.786   1.935   2.164  1.1051  0.7613 -0.8213
  939SOL    HW2 3755   2.666   1.969   2.253 -1.3577  3.4909 -0.4200
  939SOL     MW 3756   2.751   1.972   2.239 -0.6275  0.2738 -0.2789
  940SOL     OW 3757   2.232   0.153   2.663 -0.1102 -0.2647  0.0423
  940SOL    HW1 3758   2.234   0.060   2.643  2.2036 -1.0393 -0.2780
  940SOL    HW2 3759   2.296   0.177   2.728 -0.4972 -1.5968 -0.3572
  940SOL     MW 3760   2.241   0.144   2.669  0.1440 -0.5427 -0.0527
  941SOL     OW 3761   0.190   2.422   2.046  0.2988  0.3417 -0.3217
  941SOL    HW1 3762   0.258   2.365   2.063 -0.4967  3.7913 -2.9142
  941SOL    HW2 3763   0.150   2.405   1.964 -1.6374  2.3680 -0.4479
  941SOL     MW 3764   0.194   2.412   2.037 -0.0616  1.0642 -0.6804
  942SOL     OW 3765   2.869   2.223   2.252  0.2597 -0.5142 -0.4516
  942SOL    HW1 3766   2.827   2.259   2.180  1.5772  1.1182  1.0883
  942SOL    HW2 3767   2.834   2.132   2.253 -2.2700 -1.1203  2.0411
  942SOL     MW 3768   2.859   2.216   2.243  0.0997 -0.3788  0.0804
  943SOL     OW 3769   0.235   2.101   2.291 -0.1876 -0.2357  0.6355
  943SOL    HW1 3770   0.223   2.187   2.340  0.0458  3.0814 -1.7396
  943SOL    HW2 3771   0.307   2.059   2.345 -0.4675  1.4817 -2.3624
  943SOL     MW 3772   0.243   2.107   2.305 -0.1937  0.4285 -0.0734
  944SOL     OW 3773   2.099   2.668   1.995 -0.0958 -0.1890 -0.8776
  944SOL    HW1 3774   2.141   2.585   2.015 -0.5439  2.4763  2.2215
  944SOL    HW2 3775   2.075   2.709   2.077 -0.6609  1.5120 -1.5533
  944SOL     MW 3776   2.102   2.663   2.009 -0.2295  0.3871 -0.5578
  945SOL     OW 3777   2.848   2.735   2.804 -0.3955  0.3850 -0.1171
  945SOL    HW1 3778   2.784   2.672   2.790  1.2945  1.6755  0.5264
  945SOL    HW2 3779   2.834   2.798   2.731 -0.7747 -0.1102 -0.3443
  945SOL     MW 3780   2.838   2.735   2.792 -0.2226  0.4899 -0.0622
  946SOL     OW 3781   2.450   2.658   2.234 -0.1461 -0.5023  0.1854
  946SOL    HW1 3782   2.494   2.696   2.155  2.8170  0.2665 -4.6225
  946SOL    HW2 3783   2.386   2.601   2.185  0.1278 -2.1328 -2.6454
  946SOL     MW 3784   2.447   2.656   2.217  0.2810 -0.6160 -0.8224
  947SOL     OW 3785   2.024   0.063   0.242  0.2363  0.5100 -0.1622
  947SOL    HW1 3786   2.019  -0.023   0.214  0.8212 -0.1106  0.0639
  947SOL    HW2 3787   2.077   0.063   0.321 -0.1960 -0.0992 -0.1916
  947SOL     MW 3788   2.031   0.051   0.249  0.2564  0.3478 -0.1363
  948SOL     OW 3789   1.825   2.990   2.660  0.1896 -0.1023 -0.2565
  948SOL    HW1 3790   1.894   2.917   2.646 -1.3120  0.2002 -0.1393
  948SOL    HW2 3791   1.785   3.014   2.575 -0.3372  0.6287 -0.2788
  948SOL     MW 3792   1.829   2.984   2.647 -0.0781  0.0340 -0.2440
  949SOL     OW 3793   2.500   1.929   2.253  0.4679 -1.0798 -0.4719
  949SOL    HW1 3794   2.479   1.844   2.286 -0.8132  1.1801 -1.8283
  949SOL    HW2 3795   2.455   1.992   2.313  0.9702 -0.6630  1.4384
  949SOL     MW 3796   2.491   1.926   2.265  0.3652 -0.7266 -0.3988
  950SOL     OW 3797   2.298   2.570   2.952  0.0826 -0.1357  0.8862
  950SOL    HW1 3798   2.342   2.505   2.896  2.2778  1.7931 -1.4773
  950SOL    HW2 3799   2.212   2.589   2.899 -2.0630  1.2386 -2.7649
  950SOL     MW 3800   2.293   2.564   2.937  0.0892  0.3001  0.0927
  951SOL     OW 3801   3.076   2.206   2.844 -0.2058 -0.4774 -0.2345
  951SOL    HW1 3802   3.032   2.238   2.927 -3.9663  1.5556 -1.3240
  951SOL    HW2 3803   3.053   2.112   2.833 -0.2347 -0.6260  0.8916
  951SOL     MW 3804   3.067   2.198   2.854 -0.7058 -0.2288 -0.2297
  952SOL     OW 3805   3.031   1.663   2.140 -0.1474  0.3593  0.3532
  952SOL    HW1 3806   2.956   1.692   2.086 -1.2793 -2.8114 -1.1262
  952SOL    HW2 3807   3.049   1.728   2.206  0.3945 -0.1727 -2.4008
  952SOL     MW 3808   3.024   1.675   2.142 -0.2253 -0.1293 -0.2054
  953SOL     OW 3809   1.971   1.733   2.893  0.3982 -0.6895  0.5941
  953SOL    HW1 3810   1.899   1.686   2.926 -0.1618 -0.3090 -1.0944
  953SOL    HW2 3811   1.985   1.673   2.816 -0.7411 -2.6782 -1.6743
  953SOL     MW 3812   1.963   1.719   2.887  0.1740 -0.9017  0.0720
  954SOL     OW 3813   2.473   2.147   2.940  0.1282 -0.0966 -0.0912
  954SOL    HW1 3814   2.386   2.127   2.909 -0.4497  2.2318  1.5569
  954SOL    HW2 3815   2.532   2.106   2.886  0.9499  1.6261  1.7801
  954SOL     MW 3816   2.469   2.139   2.929  0.1604  0.4379  0.3732
  955SOL     OW 3817   1.592   1.602   2.537  0.9857  0.0034 -0.0043
  955SOL    HW1 3818   1.577   1.614   2.438  0.8450  0.7216 -0.8595
  955SOL    HW2 3819   1.676   1.650   2.550 -1.6672 -0.8521  0.1839
  955SOL     MW 3820   1.601   1.610   2.526  0.6171 -0.0147 -0.0923
  956SOL     OW 3821   2.710   2.493   2.863 -0.1293  0.4525  0.8898
  956SOL    HW1 3822   2.735   2.467   2.959  2.4238 -0.6611  3.7046
  956SOL    HW2 3823   2.775   2.448   2.811  0.5611 -0.7655 -0.1395
  956SOL     MW 3824   2.722   2.484   2.869  0.2987  0.1449  1.1254
  957SOL     OW 3825   2.251   2.878   0.523  0.0852 -0.2723  0.2646
  957SOL    HW1 3826   2.183   2.828   0.473  0.5773 -1.5022  1.6499
  957SOL    HW2 3827   2.258   2.842   0.610 -1.1271  0.4753  3.6391
  957SOL     MW 3828   2.243   2.867   0.528 -0.0099 -0.3360  0.8926
  958SOL     OW 3829   2.055   2.652   2.851  0.0395 -0.0127  1.1431
  958SOL    HW1 3830   2.039   2.584   2.786 -1.0936 -0.2855 -0.4940
  958SOL    HW2 3831   1.981   2.663   2.913  0.5687  0.0880  0.0694
  958SOL     MW 3832   2.043   2.644   2.851 -0.0402 -0.0354  0.7854
  959SOL     OW 3833   2.518   2.802   0.448  0.0439  0.1533 -0.2559
  959SOL    HW1 3834   2.536   2.870   0.383 -0.0374  1.1718 -0.0176
  959SOL    HW2 3835   2.419   2.816   0.458  0.1562  0.3159 -1.1392
  959SOL     MW 3836   2.507   2.813   0.441  0.0480  0.3091 -0.3410
  960SOL     OW 3837   1.940   2.343   2.311  0.1667 -0.1719 -0.5857
  960SOL    HW1 3838   1.951   2.252   2.345 -3.3116 -0.8072  0.5844
  960SOL    HW2 3839   1.893   2.391   2.381 -0.5969  1.5707 -1.4234
  960SOL     MW 3840   1.935   2.337   2.325 -0.3930 -0.0258 -0.5418
  961SOL     OW 3841   2.208   2.286   2.296 -0.1534 -0.4716  0.3392
  961SOL    HW1 3842   2.117   2.282   2.271  0.1516 -2.2056 -0.5551
  961SOL    HW2 3843   2.220   2.346   2.371 -0.1851  0.6563 -4.3935
  961SOL     MW 3844   2.198   2.293   2.303 -0.1174 -0.5515 -0.4032
  962SOL     OW 3845   2.221   2.070   2.832 -0.3919  0.2080  0.3353
  962SOL    HW1 3846   2.182   2.040   2.914 -1.4673  0.3813  1.3955
  962SOL    HW2 3847   2.225   1.995   2.775 -1.7206 -1.8850 -4.8149
  962SOL     MW 3848   2.216   2.056   2.835 -0.7091 -0.0453 -0.2044
  963SOL     OW 3849   1.817   2.528   2.155  0.3202  0.5646 -0.4102
  963SOL    HW1 3850   1.861   2.467   2.221  0.5291  3.3182  1.4534
  963SOL    HW2 3851   1.843   2.490   2.066  2.7185  1.7004 -0.8833
  963SOL     MW 3852   1.826   2.515   2.152  0.6642  1.0778 -0.2267
  964SOL     OW 3853   1.836   1.943   2.765  0.1790  0.2651  0.4734
  964SOL    HW1 3854   1.903   2.018   2.755  0.4019  2.2441 -2.0574
  964SOL    HW2 3855   1.871   1.869   2.826  1.9972  0.6358  2.4911
  964SOL     MW 3856   1.850   1.943   2.772  0.4483  0.5751  0.4057
  965SOL     OW 3857   2.215   2.667   0.695  0.0534 -1.3489  0.4309
  965SOL    HW1 3858   2.227   2.573   0.675 -2.9878 -0.8647 -0.8897
  965SOL    HW2 3859   2.298   2.694   0.740 -0.7990 -1.0703  0.4663
  965SOL     MW 3860   2.227   2.658   0.698 -0.4603 -1.2482  0.2613
  966SOL     OW 3861   2.671   2.607   2.380 -0.0967 -0.1580  0.6078
  966SOL    HW1 3862   2.595   2.612   2.323  1.2003 -0.5085  3.3006
  966SOL    HW2 3863   2.681   2.520   2.410  0.7036  1.3681  0.4111
  966SOL     MW 3864   2.662   2.596   2.376  0.1800 -0.0029  0.9371
  967SOL     OW 3865   2.818   3.034   2.952 -0.4910 -1.0464  0.0137
  967SOL    HW1 3866   2.795   2.950   2.995  0.5165  2.2868  1.1216
  967SOL    HW2 3867   2.734   3.043   2.898 -1.3653  0.4133 -1.6533
  967SOL     MW 3868   2.804   3.024   2.951 -0.4735 -0.4140 -0.0601
  968SOL     OW 3869   3.041   2.631   2.980  0.3716  0.1548 -0.5638
  968SOL    HW1 3870   2.964   2.669   2.940  2.5924  0.8174 -0.9180
  968SOL    HW2 3871   3.095   2.598   2.910  0.1790  0.8560 -0.9331
  968SOL     MW 3872   3.038   2.632   2.966  0.6392  0.3347 -0.6593
  969SOL     OW 3873   1.610   2.222   1.679 -0.2851  0.2782  0.0992
  969SOL    HW1 3874   1.688   2.170   1.707 -0.6249 -0.4124  0.6026
  969SOL    HW2 3875   1.552   2.227   1.752  0.9745 -0.7681 -2.1090
  969SOL     MW 3876   1.613   2.216   1.692 -0.1638  0.0490 -0.1258
  970SOL     OW 3877   1.805   1.823   1.925  0.2571 -0.2964  0.3116
  970SOL    HW1 3878   1.840   1.770   2.000  1.2560  1.7429  0.5064
  970SOL    HW2 3879   1.735   1.775   1.882 -1.1138  0.9786  0.5473
  970SOL     MW 3880   1.800   1.810   1.929  0.2081  0.1409  0.3684
  971SOL     OW 3881   1.759   3.047   2.400 -0.5622  0.6232 -0.8636
  971SOL    HW1 3882   1.793   3.011   2.318 -1.1828  2.2482  0.6670
  971SOL    HW2 3883   1.783   3.136   2.401 -0.4688  3.0792 -1.7436
  971SOL     MW 3884   1.767   3.054   2.389 -0.6318  1.1616 -0.7777
  972SOL     OW 3885   0.276   2.834   2.433  0.0168  0.5401 -0.7611
  972SOL    HW1 3886   0.346   2.771   2.439  2.6909  0.6865 -0.2906
  972SOL    HW2 3887   0.318   2.918   2.462  0.4615  0.5312 -2.3601
  972SOL     MW 3888   0.291   2.837   2.437  0.4283  0.5582 -0.9100
  973SOL     OW 3889   2.583   3.038   2.145 -0.1627  0.0496 -0.1828
  973SOL    HW1 3890   2.568   2.946   2.110 -2.0095  1.3970  1.6373
  973SOL    HW2 3891   2.597   3.094   2.066  0.7181  1.4573 -0.4586
  973SOL     MW 3892   2.583   3.033   2.130 -0.2902  0.4131  0.0210
  974SOL     OW 3893   1.952   0.135   2.618 -0.5456 -0.1103 -0.3237
  974SOL    HW1 3894   2.041   0.156   2.654 -0.9817  1.0018  0.3400
  974SOL    HW2 3895   1.928   0.048   2.647 -0.5962 -0.9331 -0.2942
  974SOL     MW 3896   1.961   0.126   2.626 -0.6098 -0.0721 -0.2322
  975SOL     OW 3897   2.216   2.488   2.500  0.1331  0.0733  0.1248
  975SOL    HW1 3898   2.288   2.524   2.553  2.4740 -0.4290 -0.7537
  975SOL    HW2 3899   2.145   2.556   2.489 -1.0423 -0.5223 -0.4244
  975SOL     MW 3900   2.216   2.502   2.505  0.2869 -0.0716 -0.0636
  976SOL     OW 3901   0.167   0.380   1.692 -0.3275 -0.1010 -0.4262
  976SOL    HW1 3902   0.243   0.327   1.720  0.8280 -2.8303  1.6821
  976SOL    HW2 3903   0.103   0.310   1.673  0.4941  1.1888  0.1261
  976SOL     MW 3904   0.169   0.364   1.693 -0.0666 -0.2909 -0.0752
  977SOL     OW 3905   1.705   2.711   2.425 -0.0133  0.6943 -0.7318
  977SOL    HW1 3906   1.797   2.682   2.416 -1.2961 -2.3169  0.8811
  977SOL    HW2 3907   1.699   2.795   2.383 -1.5906 -0.5537  0.3092
  977SOL     MW 3908   1.716   2.719   2.418 -0.3907  0.1323 -0.3816
   3.10000   3.10000   3.10000
