977 TIP4P/2005f water molecules t=   0.96000 step= 960
 3908
    1SOL     OW    1   0.373   0.801   3.088 -0.3798 -0.1797  0.2042
    1SOL    HW1    2   0.330   0.819   3.008  3.4697 -2.0806 -0.1276
    1SOL    HW2    3   0.327   0.732   3.126  1.1126  0.4154  0.3665
    1SOL     MW    4   0.361   0.794   3.083  0.3251 -0.3520  0.1818
    2SOL     OW    5   0.319   3.023   1.171  0.1762 -0.2778 -0.0894
    2SOL    HW1    6   0.349   3.111   1.147 -2.2311  3.4586 -0.8066
    2SOL    HW2    7   0.222   3.014   1.179  1.4624 -2.1003  0.7176
    2SOL     MW    8   0.310   3.033   1.169  0.0283 -0.0253 -0.0776
    3SOL     OW    9   2.638   0.420   0.959  0.0883  0.4835  0.4050
    3SOL    HW1   10   2.687   0.474   0.902  1.2961 -0.2712 -0.1779
    3SOL    HW2   11   2.641   0.468   1.052 -1.5241 -0.8096  0.6970
    3SOL     MW   12   2.645   0.433   0.964  0.0350  0.2133  0.3666
    4SOL     OW   13   2.948   1.666   0.599 -1.1917  0.6774 -0.5521
    4SOL    HW1   14   2.885   1.715   0.541 -0.6087  0.7228  0.7379
    4SOL    HW2   15   2.994   1.617   0.527 -0.2227 -1.1297 -2.4187
    4SOL     MW   16   2.946   1.666   0.582 -0.9870  0.4450 -0.6282
    5SOL     OW   17   1.769   1.506   0.512  0.7030 -0.4246 -0.1213
    5SOL    HW1   18   1.777   1.462   0.597 -0.1735  1.3325  0.1194
    5SOL    HW2   19   1.679   1.505   0.502  0.8920  1.6496 -0.5712
    5SOL     MW   20   1.758   1.500   0.522  0.6123  0.0809 -0.1489
    6SOL     OW   21   0.806   1.431   0.599  0.2675 -0.4574 -0.1558
    6SOL    HW1   22   0.728   1.461   0.646  1.3433 -1.0279  0.1038
    6SOL    HW2   23   0.835   1.361   0.652 -2.0805  0.4178 -0.1030
    6SOL     MW   24   0.800   1.426   0.613  0.0996 -0.4172 -0.1146
    7SOL     OW   25   2.059   1.080   3.064  0.2734 -0.4026  0.6454
    7SOL    HW1   26   2.048   1.154   3.011 -1.7305  0.5177  1.8246
    7SOL    HW2   27   2.119   1.104   3.133 -0.0782 -0.9679 -0.1325
    7SOL     MW   28   2.065   1.093   3.066 -0.0374 -0.3557  0.6983
    8SOL     OW   29   0.919   1.408   1.076  0.4275  0.1749  0.5222
    8SOL    HW1   30   1.008   1.370   1.085 -2.0626  0.0653  1.7236
    8SOL    HW2   31   0.868   1.351   1.141 -0.7050 -0.1711  0.6551
    8SOL     MW   32   0.924   1.395   1.085 -0.0505  0.1148  0.6982
    9SOL     OW   33   1.012   0.532   1.412 -0.1910  0.1417  0.0060
    9SOL    HW1   34   0.972   0.462   1.354 -0.3655 -1.7324 -1.3881
    9SOL    HW2   35   1.052   0.478   1.484 -1.5989 -0.0684  2.4830
    9SOL     MW   36   1.012   0.515   1.414 -0.3998 -0.1333  0.1489
   10SOL     OW   37   0.226   0.771   0.461 -0.5443  0.2191  0.4579
   10SOL    HW1   38   0.315   0.790   0.425 -0.0658 -2.5425 -1.5810
   10SOL    HW2   39   0.212   0.834   0.536 -2.5530  0.7221  0.9794
   10SOL     MW   40   0.236   0.781   0.466 -0.7462 -0.0789  0.2577
   11SOL     OW   41   0.811   1.144   1.729  0.0307 -0.3422 -0.3220
   11SOL    HW1   42   0.837   1.116   1.815 -0.0016  0.5139  1.5431
   11SOL    HW2   43   0.840   1.070   1.684 -1.0401  1.4349 -1.5976
   11SOL     MW   44   0.818   1.130   1.734 -0.1149  0.0052 -0.2442
   12SOL     OW   45   0.046   1.083   0.869 -0.4012 -0.5236  0.0148
   12SOL    HW1   46   0.054   1.159   0.928 -2.2481  2.1273  1.7621
   12SOL    HW2   47   0.012   1.120   0.786 -2.6421  2.0289  1.3979
   12SOL     MW   48   0.043   1.098   0.866 -0.9406  0.1629  0.4278
   13SOL     OW   49   1.880   1.417   1.336  0.1883 -0.6405  0.1775
   13SOL    HW1   50   1.890   1.347   1.270 -0.6767  0.9004  1.4764
   13SOL    HW2   51   1.897   1.501   1.293  2.2177 -1.7488 -0.3518
   13SOL     MW   52   1.883   1.419   1.322  0.3419 -0.5834  0.2791
   14SOL     OW   53   0.630   0.409   1.878 -0.2846 -0.2716 -0.0231
   14SOL    HW1   54   0.594   0.324   1.901  0.5274 -2.1074 -0.3314
   14SOL    HW2   55   0.725   0.388   1.898 -2.9755 -2.3530 -3.5558
   14SOL     MW   56   0.638   0.395   1.883 -0.5325 -0.7884 -0.5299
   15SOL     OW   57   1.938   0.349   1.004 -0.0094 -0.1471  0.3116
   15SOL    HW1   58   1.922   0.416   1.071 -3.7104  0.9296 -1.6100
   15SOL    HW2   59   2.011   0.388   0.952  0.7179 -0.9276  0.8256
   15SOL     MW   60   1.946   0.363   1.006 -0.4017 -0.1080  0.1259
   16SOL     OW   61   0.196   1.801   0.319  0.2853 -0.3524 -0.0030
   16SOL    HW1   62   0.279   1.753   0.339  0.8683 -0.4522  1.3944
   16SOL    HW2   63   0.215   1.887   0.353  0.2470 -1.9417 -1.3926
   16SOL     MW   64   0.210   1.806   0.326  0.3571 -0.5752 -0.0020
   17SOL     OW   65   1.128   0.902   1.433 -0.5693 -0.0962 -0.2968
   17SOL    HW1   66   1.166   0.890   1.522  0.9890 -0.1054  2.0025
   17SOL    HW2   67   1.036   0.922   1.450  1.7117  1.7257 -3.4539
   17SOL     MW   68   1.121   0.903   1.447 -0.0627  0.1430 -0.4100
   18SOL     OW   69   0.047   1.590   0.409  0.5769  0.2658  0.1632
   18SOL    HW1   70   0.086   1.676   0.399 -1.7843 -1.2900 -0.5936
   18SOL    HW2   71   0.052   1.549   0.325  0.0746  0.7565 -1.7884
   18SOL     MW   72   0.053   1.596   0.397  0.1991  0.1253 -0.1942
   19SOL     OW   73   0.105   1.298   1.028  0.0754  0.4230  0.2084
   19SOL    HW1   74   0.142   1.348   0.957  4.2752 -2.3870 -1.0065
   19SOL    HW2   75   0.009   1.311   1.045 -3.3420 -3.4762 -0.2629
   19SOL     MW   76   0.097   1.307   1.021  0.1786 -0.4623 -0.0141
   20SOL     OW   77   0.465   2.148   1.190  0.2085  0.8260  0.2379
   20SOL    HW1   78   0.414   2.078   1.149 -0.3571 -1.5110 -0.5056
   20SOL    HW2   79   0.415   2.168   1.274  1.5833 -0.1884 -0.9124
   20SOL     MW   80   0.451   2.141   1.196  0.3153  0.3838 -0.0120
   21SOL     OW   81   0.487   0.837   0.389 -0.5151  0.4124  0.2530
   21SOL    HW1   82   0.549   0.801   0.453 -0.4869 -3.7851 -0.4887
   21SOL    HW2   83   0.537   0.827   0.310  1.1901  0.1000  2.6500
   21SOL     MW   84   0.501   0.831   0.387 -0.2864 -0.1826  0.4714
   22SOL     OW   85   1.571   0.690   1.035  0.2068 -0.7174 -0.8771
   22SOL    HW1   86   1.522   0.678   0.953  0.6086 -1.4538  1.7880
   22SOL    HW2   87   1.499   0.721   1.093  1.9222 -2.2163 -0.0609
   22SOL     MW   88   1.555   0.692   1.032  0.4861 -1.0123 -0.4178
   23SOL     OW   89  -0.003   0.757   0.662 -0.7008 -0.3224  0.0525
   23SOL    HW1   90   0.044   0.678   0.700  3.1510  0.3364 -0.7784
   23SOL    HW2   91   0.069   0.817   0.660 -0.7187 -2.8773 -0.5862
   23SOL     MW   92   0.013   0.755   0.667 -0.1950 -0.5726 -0.1414
   24SOL     OW   93   1.981   2.234   0.063 -0.4389  0.4075 -0.5629
   24SOL    HW1   94   2.002   2.207   0.158  2.0912  1.3636  1.5369
   24SOL    HW2   95   2.000   2.163   0.001  0.5512 -0.1703 -0.9307
   24SOL     MW   96   1.986   2.221   0.068  0.0256  0.4574 -0.3344
   25SOL     OW   97   0.259   1.408   0.525 -0.8706  0.1973  0.3029
   25SOL    HW1   98   0.217   1.488   0.502  1.9221 -0.2695 -1.7771
   25SOL    HW2   99   0.349   1.431   0.555  2.9603 -2.6371  3.2673
   25SOL     MW  100   0.265   1.422   0.526  0.0033 -0.2383  0.4196
   26SOL     OW  101   2.057   0.992   0.351  0.9901  0.0420  0.1752
   26SOL    HW1  102   2.003   1.055   0.397  1.8804 -3.5086 -0.6392
   26SOL    HW2  103   2.090   1.052   0.287 -0.2350  1.6113  2.8095
   26SOL     MW  104   2.055   1.008   0.349  0.9459 -0.2194  0.4153
   27SOL     OW  105   2.035   1.430   0.251 -0.1768  0.2275 -0.1013
   27SOL    HW1  106   1.953   1.395   0.285 -1.2024  0.7415 -1.3259
   27SOL    HW2  107   2.074   1.479   0.322 -0.3977 -1.0547 -0.6377
   27SOL     MW  108   2.030   1.432   0.265 -0.3412  0.1261 -0.3337
   28SOL     OW  109   0.452   0.981   1.970  0.4170 -0.4199 -0.4374
   28SOL    HW1  110   0.539   0.942   1.961 -1.8144  3.0573  0.5897
   28SOL    HW2  111   0.386   0.916   1.968 -2.5748  1.7261 -0.5207
   28SOL     MW  112   0.455   0.967   1.969 -0.2721  0.3221 -0.3129
   29SOL     OW  113   0.275   1.436   0.810 -0.1614 -0.0368  0.1998
   29SOL    HW1  114   0.258   1.532   0.826  0.4933  0.7072 -2.7542
   29SOL    HW2  115   0.242   1.425   0.723 -0.1884 -1.9136 -0.3490
   29SOL     MW  116   0.268   1.447   0.800 -0.0786 -0.1862 -0.2624
   30SOL     OW  117   0.828   1.198   1.215 -0.2674  0.3713  0.0663
   30SOL    HW1  118   0.755   1.224   1.268 -1.7254 -1.3443 -0.4731
   30SOL    HW2  119   0.900   1.186   1.284  3.1776  0.5742  1.2363
   30SOL     MW  120   0.828   1.200   1.231 -0.0053  0.1717  0.1495
   31SOL     OW  121   0.386   0.169   0.201  0.2230  1.1294  0.0385
   31SOL    HW1  122   0.390   0.077   0.227 -1.2356 -0.8343 -0.0789
   31SOL    HW2  123   0.408   0.172   0.110 -2.9960  0.1531  2.2471
   31SOL     MW  124   0.389   0.158   0.193 -0.3942  0.7415  0.3144
   32SOL     OW  125   2.807   0.972   1.146  0.0120 -0.2460  0.9716
   32SOL    HW1  126   2.772   0.891   1.112  0.8515 -2.0927 -1.1320
   32SOL    HW2  127   2.899   0.952   1.141  0.8393  0.2999 -0.8856
   32SOL     MW  128   2.815   0.959   1.141  0.2319 -0.4176  0.4490
   33SOL     OW  129   1.744   1.297   0.325 -0.3978  0.3464  0.1336
   33SOL    HW1  130   1.791   1.226   0.369 -0.0990 -1.0799  0.6908
   33SOL    HW2  131   1.749   1.366   0.391  2.0500  1.1071 -1.4729
   33SOL     MW  132   1.751   1.297   0.340 -0.0354  0.2586 -0.0048
   34SOL     OW  133   1.230   1.855   1.098 -0.1738  0.3529  0.6307
   34SOL    HW1  134   1.151   1.909   1.104 -2.2721 -0.2619  1.2699
   34SOL    HW2  135   1.286   1.885   1.167  1.7013  0.8781  0.0772
   34SOL     MW  136   1.227   1.866   1.108 -0.2033  0.3411  0.6420
   35SOL     OW  137   0.423   0.216   1.819 -0.1821 -0.2305 -0.0404
   35SOL    HW1  138   0.431   0.138   1.869 -1.3956  0.6548  0.7717
   35SOL    HW2  139   0.445   0.195   1.732 -0.9356 -3.0424  1.2248
   35SOL     MW  140   0.427   0.203   1.814 -0.4416 -0.4847  0.2337
   36SOL     OW  141   1.939   1.975   0.567  0.2940 -0.1549  0.5591
   36SOL    HW1  142   1.948   1.982   0.472  2.2375 -0.3839  2.1161
   36SOL    HW2  143   1.958   1.875   0.576 -1.8394  0.9686  2.7413
   36SOL     MW  144   1.943   1.963   0.556  0.2689 -0.0369  1.0524
   37SOL     OW  145   1.760   1.970   0.986 -0.6343 -0.6859 -0.2004
   37SOL    HW1  146   1.717   1.908   0.920 -2.0767 -0.3025 -1.2115
   37SOL    HW2  147   1.697   2.026   1.026  1.6740  1.5255  0.6902
   37SOL     MW  148   1.746   1.969   0.983 -0.5201 -0.3436 -0.2163
   38SOL     OW  149   2.813   0.888   0.129 -0.0869  0.1198  0.4068
   38SOL    HW1  150   2.860   0.889   0.213  0.6422 -1.7025  1.6579
   38SOL    HW2  151   2.880   0.905   0.061 -2.5461 -0.2817 -1.0814
   38SOL     MW  152   2.828   0.891   0.131 -0.3152 -0.1736  0.3755
   39SOL     OW  153   1.429   0.634   0.799 -0.0536  0.5636  0.2870
   39SOL    HW1  154   1.384   0.556   0.831 -1.9811 -0.0900 -0.3130
   39SOL    HW2  155   1.356   0.667   0.738 -2.0820 -0.3124 -2.1768
   39SOL     MW  156   1.413   0.628   0.795 -0.5755  0.3618 -0.1172
   40SOL     OW  157   1.146   1.904   0.316 -0.0044  0.0777 -0.0350
   40SOL    HW1  158   1.192   1.828   0.357  0.6789  0.0464 -4.0068
   40SOL    HW2  159   1.126   1.976   0.376  0.4841 -0.7430 -0.5820
   40SOL     MW  160   1.149   1.904   0.329  0.1502 -0.0348 -0.6312
   41SOL     OW  161   0.555   0.569   1.666  0.3785  0.1128  0.4190
   41SOL    HW1  162   0.635   0.620   1.654  2.1453 -1.5486  0.1291
   41SOL    HW2  163   0.588   0.510   1.730  1.0470  0.7468  2.2424
   41SOL     MW  164   0.570   0.568   1.673  0.6998 -0.0228  0.6214
   42SOL     OW  165   1.279   3.005   1.977 -0.4667  0.0626 -0.3184
   42SOL    HW1  166   1.201   3.036   2.021  1.4129  0.6923 -0.3420
   42SOL    HW2  167   1.310   2.933   2.033 -2.6523 -0.4585 -1.0058
   42SOL     MW  168   1.273   3.000   1.990 -0.5071  0.0769 -0.4122
   43SOL     OW  169   1.537   0.135   1.711 -0.6581  0.5234  0.1256
   43SOL    HW1  170   1.558   0.124   1.619 -2.3097  4.8441  1.6237
   43SOL    HW2  171   1.455   0.083   1.723 -1.6190  2.1651 -1.0528
   43SOL     MW  172   1.529   0.127   1.700 -1.0028  1.3101  0.1678
   44SOL     OW  173   1.042   0.789   1.011  0.2158 -0.2654  0.1577
   44SOL    HW1  174   1.048   0.884   1.006 -1.8872 -0.0595  0.1984
   44SOL    HW2  175   1.110   0.774   1.078 -0.5869 -2.4849  1.0867
   44SOL     MW  176   1.051   0.800   1.019 -0.1676 -0.5311  0.2857
   45SOL     OW  177   1.216   0.767   0.660 -0.1116  0.0921 -0.0257
   45SOL    HW1  178   1.163   0.797   0.733  1.3247 -0.5793  2.9893
   45SOL    HW2  179   1.162   0.734   0.590  0.6265  0.3948 -3.0625
   45SOL     MW  180   1.202   0.766   0.660  0.1753  0.0434 -0.0286
   46SOL     OW  181   0.552   1.195   0.598  0.3484  0.2102 -0.0244
   46SOL    HW1  182   0.520   1.173   0.506  1.4941 -1.3484 -0.5825
   46SOL    HW2  183   0.614   1.127   0.609 -1.4697  3.0160 -3.1279
   46SOL     MW  184   0.556   1.183   0.588  0.2597  0.3748 -0.5075
   47SOL     OW  185   0.181   1.989   1.963  0.3367  0.4439  0.6968
   47SOL    HW1  186   0.276   1.971   1.963 -0.7540 -0.3202  0.9108
   47SOL    HW2  187   0.167   1.973   2.054  4.0237 -1.0656  1.6281
   47SOL     MW  188   0.192   1.985   1.975  0.6792  0.1439  0.8479
   48SOL     OW  189   1.076   0.525   0.989  0.0139  0.4684  0.5228
   48SOL    HW1  190   0.993   0.483   1.015  0.0595 -1.2712  0.9016
   48SOL    HW2  191   1.059   0.612   0.992  0.1069 -0.7958  0.1784
   48SOL     MW  192   1.063   0.531   0.993  0.0322  0.0721  0.5273
   49SOL     OW  193   1.800   0.723   1.554 -0.4758 -0.0357 -0.1350
   49SOL    HW1  194   1.773   0.640   1.589 -0.7086  1.5617 -2.3942
   49SOL    HW2  195   1.866   0.697   1.487  0.6597 -0.9376 -0.5959
   49SOL     MW  196   1.805   0.708   1.550 -0.3567  0.0561 -0.4939
   50SOL     OW  197   1.279   1.058   0.502  0.3726 -0.1115 -0.3549
   50SOL    HW1  198   1.226   1.075   0.581 -2.9442 -0.0904  1.1000
   50SOL    HW2  199   1.360   1.028   0.547  1.4702 -0.7844  1.4837
   50SOL     MW  200   1.283   1.056   0.518  0.0798 -0.1975  0.0796
   51SOL     OW  201   0.325   2.899   0.914  0.5782  0.5466  0.2243
   51SOL    HW1  202   0.410   2.852   0.924 -1.3251  1.0140 -3.3602
   51SOL    HW2  203   0.315   2.933   1.005 -2.8115  1.0969 -0.2275
   51SOL     MW  204   0.335   2.897   0.927 -0.1202  0.6809 -0.3082
   52SOL     OW  205   0.789   1.788   0.460 -0.0528 -1.0551 -0.4893
   52SOL    HW1  206   0.765   1.880   0.443 -0.7077 -1.8241  0.2097
   52SOL    HW2  207   0.784   1.732   0.384  1.4429  0.3723 -1.8355
   52SOL     MW  208   0.785   1.793   0.448  0.0582 -0.9682 -0.5747
   53SOL     OW  209   0.455   2.118   0.543  0.2907 -0.1197 -0.1314
   53SOL    HW1  210   0.392   2.105   0.469  0.8563  2.0319  0.6350
   53SOL    HW2  211   0.442   2.210   0.572 -0.6912  1.9308 -3.2999
   53SOL     MW  212   0.445   2.129   0.537  0.2358  0.4348 -0.4483
   54SOL     OW  213   2.022   0.947   0.797 -0.4822  0.0173 -0.0465
   54SOL    HW1  214   2.074   0.969   0.721 -1.0084  1.3984  0.4391
   54SOL    HW2  215   2.034   0.852   0.810  2.1038  0.1010 -0.9030
   54SOL     MW  216   2.031   0.937   0.789 -0.2105  0.2105 -0.0954
   55SOL     OW  217   0.523   1.564   1.618  0.0662 -0.0686 -0.1661
   55SOL    HW1  218   0.471   1.592   1.542 -1.2560  0.0620  2.4894
   55SOL    HW2  219   0.594   1.510   1.581  0.7852 -0.1708 -1.7333
   55SOL     MW  220   0.525   1.561   1.603 -0.0134 -0.0649 -0.0225
   56SOL     OW  221   0.606   0.789   0.141  0.2374  0.2748  0.9119
   56SOL    HW1  222   0.656   0.872   0.143  0.1652  1.5544  0.9622
   56SOL    HW2  223   0.540   0.802   0.070  0.8930  1.5951 -0.1529
   56SOL     MW  224   0.604   0.802   0.132  0.3143  0.6178  0.7781
   57SOL     OW  225   1.166   1.283   1.138 -0.5011  0.1853  0.8303
   57SOL    HW1  226   1.255   1.288   1.086  1.0042  2.1843  0.4545
   57SOL    HW2  227   1.195   1.224   1.205  3.7652 -0.3699 -0.6685
   57SOL     MW  228   1.182   1.275   1.140  0.2604  0.3758  0.5830
   58SOL     OW  229   0.568   1.166   1.349  0.1537  0.2101  0.4153
   58SOL    HW1  230   0.566   1.262   1.362  2.4494 -2.6503  3.0010
   58SOL    HW2  231   0.568   1.144   1.440 -1.0655 -0.2910  0.4117
   58SOL     MW  232   0.567   1.176   1.363  0.2957 -0.2334  0.7560
   59SOL     OW  233   1.557   1.720   0.362  0.1270  0.1635  0.2608
   59SOL    HW1  234   1.595   1.786   0.426  0.5840  1.6528 -0.1134
   59SOL    HW2  235   1.465   1.720   0.378  2.6927  0.5117 -1.9925
   59SOL     MW  236   1.550   1.729   0.372  0.5258  0.4060 -0.0859
   60SOL     OW  237   0.066   0.210   1.579 -0.1973  0.1503  0.0313
   60SOL    HW1  238  -0.014   0.248   1.606 -0.7301 -2.2947  1.6196
   60SOL    HW2  239   0.101   0.143   1.646 -0.2606 -0.1780  2.5927
   60SOL     MW  240   0.060   0.206   1.592 -0.2760 -0.2156  0.5788
   61SOL     OW  241   2.029   1.495   3.092 -1.0665  0.0806  0.2866
   61SOL    HW1  242   2.035   1.490   3.192  2.7952 -3.4652 -0.0528
   61SOL    HW2  243   2.093   1.432   3.055  0.8665  1.4088 -0.6811
   61SOL     MW  244   2.039   1.486   3.101 -0.3019 -0.2120  0.1141
   62SOL     OW  245   0.566   1.720   0.619 -0.3154 -0.2297  0.2107
   62SOL    HW1  246   0.653   1.751   0.575  1.9889 -1.9465 -2.6055
   62SOL    HW2  247   0.554   1.627   0.622 -2.3192 -0.4103 -1.7195
   62SOL     MW  248   0.576   1.712   0.613 -0.2757 -0.4800 -0.4155
   63SOL     OW  249   1.698   0.674   0.695 -0.3428 -0.6639 -0.1590
   63SOL    HW1  250   1.720   0.763   0.656  1.5300  0.4380  1.7419
   63SOL    HW2  251   1.611   0.682   0.736  0.1670 -0.4134  1.0347
   63SOL     MW  252   1.689   0.687   0.695 -0.0284 -0.4854  0.2493
   64SOL     OW  253   0.189   1.690   0.830  0.6043  0.1105  0.2833
   64SOL    HW1  254   0.251   1.745   0.779 -2.0443 -3.4607 -1.8297
   64SOL    HW2  255   0.103   1.706   0.787  1.7729 -1.0953  1.3323
   64SOL     MW  256   0.186   1.700   0.818  0.4090 -0.5197  0.1429
   65SOL     OW  257   1.605   2.294   0.397 -0.0977  0.0917 -0.2338
   65SOL    HW1  258   1.698   2.316   0.398  1.6255  0.7700 -1.7888
   65SOL    HW2  259   1.573   2.340   0.476 -0.1372  1.1252  0.5855
   65SOL     MW  260   1.613   2.303   0.407  0.1245  0.3176 -0.3309
   66SOL     OW  261   0.276   0.526   0.553  0.2389  0.4036 -0.1452
   66SOL    HW1  262   0.347   0.486   0.495 -0.0321 -1.4891 -0.2702
   66SOL    HW2  263   0.258   0.611   0.521  1.5264 -2.2371  2.3547
   66SOL     MW  264   0.283   0.532   0.541  0.3730 -0.1946  0.1682
   67SOL     OW  265   1.536   0.070   2.037 -0.4764  0.4337  0.1678
   67SOL    HW1  266   1.612   0.064   1.984 -0.0756 -0.9295  0.2970
   67SOL    HW2  267   1.519  -0.020   2.072  0.5061  0.9716 -2.1379
   67SOL     MW  268   1.544   0.057   2.034 -0.2939  0.3248 -0.1194
   68SOL     OW  269   0.727   0.055   2.916 -0.3653 -0.4815 -0.1811
   68SOL    HW1  270   0.742   0.092   2.826  0.4578 -2.7154 -0.0772
   68SOL    HW2  271   0.773   0.112   2.973 -0.8106 -2.4042  0.2819
   68SOL     MW  272   0.735   0.068   2.912 -0.3154 -1.0299 -0.1063
   69SOL     OW  273   1.055   0.220   1.974  0.3297 -0.3448 -0.0324
   69SOL    HW1  274   1.146   0.242   1.990 -0.1868 -2.3196 -0.2168
   69SOL    HW2  275   1.034   0.139   2.020 -0.7887  0.6639  4.3023
   69SOL     MW  276   1.064   0.212   1.982  0.1140 -0.4723  0.5152
   70SOL     OW  277   0.549   1.740   1.122  0.3296  0.0058 -0.0408
   70SOL    HW1  278   0.616   1.715   1.187  1.4798 -1.2178 -2.6762
   70SOL    HW2  279   0.604   1.781   1.057  1.6684  0.4388  0.8054
   70SOL     MW  280   0.565   1.742   1.122  0.6580 -0.0985 -0.2769
   71SOL     OW  281   1.582   0.489   1.246 -0.0315 -0.1431  0.1407
   71SOL    HW1  282   1.563   0.559   1.308 -0.6973  1.2354  0.0047
   71SOL    HW2  283   1.569   0.529   1.160 -0.3497 -0.0223 -0.6061
   71SOL     MW  284   1.578   0.504   1.243 -0.1614  0.0547  0.0242
   72SOL     OW  285   0.745   1.843   0.962 -0.1261  0.6289  0.5193
   72SOL    HW1  286   0.760   1.897   0.882  0.5087 -0.4164  0.7575
   72SOL    HW2  287   0.759   1.755   0.926  2.2780 -0.1847 -1.9308
   72SOL     MW  288   0.749   1.838   0.947  0.2748  0.3837  0.2275
   73SOL     OW  289   1.204   0.694   1.260  0.1414 -0.4478 -0.1155
   73SOL    HW1  290   1.146   0.625   1.289 -0.8567  0.5319 -1.2996
   73SOL    HW2  291   1.170   0.770   1.316 -2.4109  0.5939 -1.3532
   73SOL     MW  292   1.192   0.695   1.271 -0.3270 -0.1811 -0.4350
   74SOL     OW  293   2.706   0.147   0.967  0.0181  0.4745  0.3068
   74SOL    HW1  294   2.799   0.132   0.939  0.4022 -0.8416  0.8775
   74SOL    HW2  295   2.683   0.240   0.960  0.8912 -0.1217  0.7055
   74SOL     MW  296   2.715   0.157   0.963  0.1840  0.2222  0.4347
   75SOL     OW  297   1.616   1.407   0.118 -0.1940  0.8444  0.5008
   75SOL    HW1  298   1.647   1.498   0.132 -0.0733 -0.2499  3.4201
   75SOL    HW2  299   1.655   1.361   0.196  0.2689  0.7746 -2.0585
   75SOL     MW  300   1.625   1.413   0.130 -0.1170  0.6908  0.5483
   76SOL     OW  301   2.970   0.557   0.477 -0.6483 -0.3475 -0.1044
   76SOL    HW1  302   3.025   0.620   0.525 -0.3433  0.9351 -0.3564
   76SOL    HW2  303   3.033   0.492   0.437 -0.5604  1.3612 -0.6462
   76SOL     MW  304   2.985   0.556   0.478 -0.5965  0.0472 -0.2091
   77SOL     OW  305   0.817   0.545   0.471  0.2048  0.0079 -0.2305
   77SOL    HW1  306   0.794   0.559   0.377 -0.2917  0.3859 -0.5374
   77SOL    HW2  307   0.775   0.466   0.495  1.1407  0.8735 -1.4490
   77SOL     MW  308   0.808   0.536   0.462  0.2628  0.1720 -0.4317
   78SOL     OW  309   0.731   0.894   1.288  0.3152 -0.2161 -0.2874
   78SOL    HW1  310   0.703   0.987   1.269  1.1708  0.3456 -0.1607
   78SOL    HW2  311   0.716   0.854   1.204  0.3749  2.4958  0.8588
   78SOL     MW  312   0.725   0.901   1.274  0.4360  0.2158 -0.1195
   79SOL     OW  313   1.961   1.692   0.592  0.1648  0.4561 -0.5947
   79SOL    HW1  314   1.887   1.654   0.540 -2.6850 -0.2030  2.4062
   79SOL    HW2  315   1.937   1.668   0.685 -1.2167  1.1886 -0.0277
   79SOL     MW  316   1.948   1.684   0.597 -0.3935  0.4658 -0.1239
   80SOL     OW  317   0.085   0.956   0.329 -0.2278  0.4420  0.0183
   80SOL    HW1  318  -0.007   0.926   0.314  1.0940  1.1762  0.1257
   80SOL    HW2  319   0.121   0.881   0.375 -0.0931 -1.5610 -0.4756
   80SOL     MW  320   0.078   0.942   0.333 -0.0356  0.2746 -0.0327
   81SOL     OW  321   1.902   1.875   0.279 -0.0682  0.1899  0.3696
   81SOL    HW1  322   1.853   1.795   0.296 -2.1956  1.5631  1.6249
   81SOL    HW2  323   1.837   1.937   0.242 -2.8568  0.9768 -0.9199
   81SOL     MW  324   1.887   1.873   0.277 -0.7168  0.4749  0.3651
   82SOL     OW  325   0.776   1.020   0.563 -0.4570  0.3268  0.1298
   82SOL    HW1  326   0.778   1.027   0.461  0.4691 -0.2940  1.7592
   82SOL    HW2  327   0.744   0.931   0.569  1.0741 -0.0431  0.7043
   82SOL     MW  328   0.772   1.009   0.550 -0.1328  0.1961  0.4206
   83SOL     OW  329   0.062   0.629   1.453 -0.0929 -0.2414 -0.0619
   83SOL    HW1  330   0.076   0.709   1.395  1.0453 -0.0887  0.4573
   83SOL    HW2  331   0.146   0.578   1.445  1.2876  0.0053 -0.4810
   83SOL     MW  332   0.075   0.633   1.445  0.2394 -0.1887 -0.0487
   84SOL     OW  333   0.118   0.233   1.032  0.2022  0.1112 -0.0489
   84SOL    HW1  334   0.060   0.299   0.992  1.2263 -1.2870  2.1677
   84SOL    HW2  335   0.064   0.196   1.101 -0.7557 -1.6405 -1.5096
   84SOL     MW  336   0.103   0.237   1.036  0.2109 -0.3044  0.0508
   85SOL     OW  337   0.476   0.435   0.753  0.1620 -0.4299  0.7404
   85SOL    HW1  338   0.412   0.475   0.689 -1.6993  1.0747 -0.4429
   85SOL    HW2  339   0.427   0.354   0.779  0.5290 -0.5628  0.3200
   85SOL     MW  340   0.461   0.429   0.748 -0.0351 -0.2489  0.5288
   86SOL     OW  341   1.173   0.256   1.135  0.0941 -0.1851 -0.1894
   86SOL    HW1  342   1.124   0.340   1.124  0.1393  0.9934  0.9988
   86SOL    HW2  343   1.231   0.285   1.204 -2.4186 -2.5439  1.8543
   86SOL     MW  344   1.174   0.271   1.143 -0.2315 -0.3409  0.2370
   87SOL     OW  345   1.283   1.477   1.305  0.0467  0.0666 -0.1744
   87SOL    HW1  346   1.285   1.516   1.215 -0.4500 -0.1459 -1.2676
   87SOL    HW2  347   1.251   1.392   1.287  0.9718  0.4191 -1.4830
   87SOL     MW  348   1.279   1.471   1.291  0.1032  0.0851 -0.4913
   88SOL     OW  349   1.186   1.042   0.975  0.0490  0.7935 -0.2474
   88SOL    HW1  350   1.282   1.032   0.969 -0.8847 -1.3761 -1.5031
   88SOL    HW2  351   1.160   1.120   1.022  1.8556 -0.9632 -2.2102
   88SOL     MW  352   1.195   1.051   0.981  0.1642  0.2754 -0.6721
   89SOL     OW  353   1.740   0.718   0.357 -0.5773  0.3104  0.1033
   89SOL    HW1  354   1.757   0.626   0.384 -0.3604  1.8916  1.1938
   89SOL    HW2  355   1.825   0.746   0.319  1.1012 -2.0141 -0.8728
   89SOL     MW  356   1.753   0.710   0.356 -0.3272  0.2124  0.1184
   90SOL     OW  357   0.769   1.123   2.725  0.3341 -0.6837 -0.5992
   90SOL    HW1  358   0.781   1.043   2.775  2.7816 -2.6885  1.0448
   90SOL    HW2  359   0.802   1.181   2.794  1.3060  0.6467  4.0992
   90SOL     MW  360   0.775   1.120   2.741  0.7853 -0.7727  0.2376
   91SOL     OW  361   2.209   0.668   0.437  0.2157 -0.0187 -0.3431
   91SOL    HW1  362   2.229   0.702   0.352 -1.5921  0.0830 -0.1965
   91SOL    HW2  363   2.172   0.580   0.431 -2.4671  0.0921  0.6094
   91SOL     MW  364   2.207   0.661   0.425 -0.3768  0.0093 -0.1981
   92SOL     OW  365   1.732   0.908   0.564  0.5868  0.1966 -0.2973
   92SOL    HW1  366   1.632   0.923   0.571  1.0552  3.5215 -1.5853
   92SOL    HW2  367   1.731   0.842   0.494  0.5511  3.1109 -0.4869
   92SOL     MW  368   1.718   0.902   0.555  0.6439  1.0198 -0.4923
   93SOL     OW  369   0.980   0.239   0.405  0.0067  0.0308  0.1602
   93SOL    HW1  370   0.895   0.283   0.417  0.7971  1.2904 -0.5376
   93SOL    HW2  371   0.999   0.256   0.312 -2.5922 -2.2512 -0.8209
   93SOL     MW  372   0.971   0.247   0.394 -0.2319 -0.1041 -0.0613
   94SOL     OW  373   1.826   1.406   1.628  0.0804 -0.4968 -0.3589
   94SOL    HW1  374   1.832   1.394   1.531  1.5907  0.5475 -3.9695
   94SOL    HW2  375   1.791   1.321   1.660 -1.7721 -2.8029 -3.2298
   94SOL     MW  376   1.822   1.393   1.619  0.0352 -0.6633 -1.2141
   95SOL     OW  377   0.765   1.580   0.924  0.7100 -0.4166  0.1854
   95SOL    HW1  378   0.805   1.545   1.000  1.8366  1.0118  0.4595
   95SOL    HW2  379   0.672   1.561   0.942  0.7300 -1.7723 -1.1368
   95SOL     MW  380   0.758   1.573   0.936  0.8613 -0.4070  0.0471
   96SOL     OW  381   1.266   1.867   1.641 -0.6785 -0.1343 -0.1661
   96SOL    HW1  382   1.178   1.857   1.685  2.6238  0.3389  0.3316
   96SOL    HW2  383   1.307   1.779   1.639 -0.1565  5.2186 -0.5822
   96SOL     MW  384   1.260   1.854   1.646 -0.1739  0.6344 -0.1554
   97SOL     OW  385   1.245   1.465   0.756 -0.1645  0.2550  0.2966
   97SOL    HW1  386   1.299   1.521   0.813 -1.9951 -0.1063  1.0246
   97SOL    HW2  387   1.155   1.499   0.777 -0.3488  1.1669  1.7637
   97SOL     MW  388   1.240   1.477   0.766 -0.4303  0.3276  0.5862
   98SOL     OW  389   1.414   1.263   1.047 -0.1732 -0.1983  0.2955
   98SOL    HW1  390   1.459   1.299   1.125 -2.1200 -3.2342 -0.5593
   98SOL    HW2  391   1.464   1.296   0.971 -1.0710  0.6731 -0.0179
   98SOL     MW  392   1.426   1.272   1.048 -0.5485 -0.4839  0.1413
   99SOL     OW  393   1.334   0.335   1.351  0.0112  0.4817  0.0085
   99SOL    HW1  394   1.406   0.393   1.342  0.9157 -2.5340  2.9476
   99SOL    HW2  395   1.293   0.350   1.437 -1.7571 -0.5998  0.7550
   99SOL     MW  396   1.338   0.344   1.361 -0.1028 -0.0589  0.4947
  100SOL     OW  397   0.998   1.173   1.454  0.1467 -0.1590  0.1125
  100SOL    HW1  398   1.019   1.204   1.544 -1.9056 -2.7472  0.0117
  100SOL    HW2  399   1.067   1.116   1.425 -1.0497 -0.5069 -1.4147
  100SOL     MW  400   1.010   1.169   1.462 -0.2819 -0.5464 -0.1023
  101SOL     OW  401   0.487   1.116   0.364  0.0103  0.3189  0.0758
  101SOL    HW1  402   0.497   1.020   0.368  0.5530 -2.0917  0.4844
  101SOL    HW2  403   0.442   1.146   0.280  0.4170  0.5415 -0.7617
  101SOL     MW  404   0.482   1.107   0.353  0.1356  0.0302  0.0192
  102SOL     OW  405   2.923   0.650   1.066 -0.1549  0.3844 -0.3748
  102SOL    HW1  406   2.965   0.736   1.068 -0.7031  0.0614 -3.1178
  102SOL    HW2  407   2.902   0.629   1.155 -2.1168 -1.5400 -1.9923
  102SOL     MW  408   2.926   0.658   1.078 -0.4861  0.0879 -0.9501
  103SOL     OW  409   1.753   0.300   1.824 -1.2997 -0.2619  0.6671
  103SOL    HW1  410   1.670   0.249   1.801  1.4365  0.7239  2.0317
  103SOL    HW2  411   1.809   0.237   1.865  0.7384 -2.7679  0.0904
  103SOL     MW  412   1.749   0.285   1.827 -0.6698 -0.4625  0.7710
  104SOL     OW  413   0.140   1.603   1.499  0.3610 -0.5709  0.7005
  104SOL    HW1  414   0.125   1.537   1.559 -2.4272 -1.8258 -2.3140
  104SOL    HW2  415   0.055   1.603   1.441 -1.8920  0.2084 -0.8780
  104SOL     MW  416   0.127   1.594   1.500 -0.3041 -0.6337  0.0945
  105SOL     OW  417   0.048   1.224   0.429  0.8323  0.3354 -0.0907
  105SOL    HW1  418   0.081   1.131   0.408  1.1714 -0.0179 -2.3544
  105SOL    HW2  419   0.119   1.285   0.444 -0.7152 -1.4261 -0.3870
  105SOL     MW  420   0.062   1.219   0.428  0.6729  0.0563 -0.4284
  106SOL     OW  421   0.857   0.348   0.981 -0.0081 -0.3299 -0.3028
  106SOL    HW1  422   0.809   0.414   0.929 -0.3872  0.5600  0.5708
  106SOL    HW2  423   0.924   0.302   0.925 -0.8243 -0.3872 -0.3984
  106SOL     MW  424   0.860   0.351   0.967 -0.1658 -0.2201 -0.2001
  107SOL     OW  425   0.804   2.184   2.973  0.2927 -0.0770 -1.0764
  107SOL    HW1  426   0.738   2.138   2.921 -0.8429 -0.5688  0.1350
  107SOL    HW2  427   0.803   2.134   3.058  1.5760  0.6892  0.5161
  107SOL     MW  428   0.795   2.171   2.977  0.3122 -0.0408 -0.7064
  108SOL     OW  429   1.325   1.615   1.649  0.1472  0.0814 -0.1955
  108SOL    HW1  430   1.269   1.608   1.573  2.9015  2.5204  3.1011
  108SOL    HW2  431   1.411   1.579   1.635 -1.8595 -1.5804  0.9170
  108SOL     MW  432   1.329   1.610   1.637  0.2459  0.1839  0.3863
  109SOL     OW  433   1.953   0.786   0.211 -0.4253 -0.3656  0.3439
  109SOL    HW1  434   1.951   0.863   0.157  2.1466 -3.2660 -0.5907
  109SOL    HW2  435   2.007   0.834   0.278 -0.7879  2.4166  0.4173
  109SOL     MW  436   1.960   0.803   0.213 -0.1338 -0.3812  0.2303
  110SOL     OW  437   0.357   1.872   0.682 -0.6719 -0.2547 -0.6530
  110SOL    HW1  438   0.434   1.813   0.668  0.4807 -1.3297 -0.9856
  110SOL    HW2  439   0.382   1.951   0.634  1.6193 -0.6843 -0.5571
  110SOL     MW  440   0.371   1.875   0.674 -0.2175 -0.4532 -0.6842
  111SOL     OW  441   0.862   0.908   1.536  0.2502 -0.1117 -0.1915
  111SOL    HW1  442   0.814   0.927   1.451 -1.9457  3.5951 -2.4595
  111SOL    HW2  443   0.834   0.816   1.549  0.5646  0.4126 -1.2617
  111SOL     MW  444   0.852   0.898   1.526  0.0020  0.4465 -0.6319
  112SOL     OW  445   1.341   1.125   1.621 -0.3702  0.3489  0.3190
  112SOL    HW1  446   1.278   1.192   1.657 -0.4097  0.9898 -1.7419
  112SOL    HW2  447   1.298   1.045   1.650 -1.8214 -1.3547 -0.9765
  112SOL     MW  448   1.327   1.123   1.629 -0.5669  0.2087 -0.1239
  113SOL     OW  449   1.286   3.097   1.716  0.0015 -0.4936  0.3443
  113SOL    HW1  450   1.304   3.089   1.811  0.7343  0.7335  1.0379
  113SOL    HW2  451   1.322   3.011   1.686 -1.1083 -2.9715 -0.3783
  113SOL     MW  452   1.293   3.084   1.725 -0.0483 -0.6587  0.3405
  114SOL     OW  453   0.292   2.872   1.959  0.5710  0.3447  0.2095
  114SOL    HW1  454   0.351   2.950   1.978  1.5538  3.7696  0.4393
  114SOL    HW2  455   0.292   2.868   1.861 -1.7001 -0.5998  1.2263
  114SOL     MW  456   0.300   2.882   1.949  0.4010  0.6720  0.3740
  115SOL     OW  457   0.496   0.855   1.106 -0.0640 -0.4354 -0.1943
  115SOL    HW1  458   0.515   0.761   1.121  1.3654  1.0216 -0.8492
  115SOL    HW2  459   0.490   0.888   1.197  3.0739 -0.0278  2.4007
  115SOL     MW  460   0.497   0.847   1.120  0.5386 -0.1894  0.0617
  116SOL     OW  461   0.784   1.092   0.929 -0.0108  0.0415  0.4771
  116SOL    HW1  462   0.823   1.156   0.864  0.5451  1.9923  0.5183
  116SOL    HW2  463   0.837   1.118   1.008 -0.3898  2.4733 -2.3074
  116SOL     MW  464   0.796   1.104   0.931  0.0126  0.6198  0.1151
  117SOL     OW  465   1.187   1.173   0.735  0.7892 -0.0531 -0.0762
  117SOL    HW1  466   1.175   1.129   0.823  0.1788  1.0131  0.3325
  117SOL    HW2  467   1.215   1.259   0.748  0.0869 -0.3280 -2.7143
  117SOL     MW  468   1.189   1.178   0.748  0.6160  0.0513 -0.3704
  118SOL     OW  469   3.046   2.976   1.713 -0.3757 -0.2363 -0.0369
  118SOL    HW1  470   3.116   3.045   1.716 -2.1003  2.2980 -0.9761
  118SOL    HW2  471   2.968   3.029   1.746 -0.2539  0.9213 -0.9781
  118SOL     MW  472   3.045   2.992   1.718 -0.5872  0.2508 -0.2850
  119SOL     OW  473   0.432   1.494   1.292  0.3749  0.3156  0.2159
  119SOL    HW1  474   0.464   1.521   1.206  1.4139  0.8781  0.8795
  119SOL    HW2  475   0.340   1.482   1.269 -0.5234 -1.2862  2.7790
  119SOL     MW  476   0.424   1.496   1.278  0.3935  0.1785  0.6416
  120SOL     OW  477   0.258   0.695   0.999  0.4593  0.0991  0.4147
  120SOL    HW1  478   0.236   0.642   1.078 -0.6263 -1.5900  0.4480
  120SOL    HW2  479   0.337   0.744   1.019 -0.9580 -0.6856  1.0517
  120SOL     MW  480   0.266   0.695   1.012  0.1291 -0.2273  0.5032
  121SOL     OW  481   1.716   1.170   1.740  0.3313 -0.4175  0.0062
  121SOL    HW1  482   1.623   1.150   1.765 -2.0609 -1.0736  3.1083
  121SOL    HW2  483   1.747   1.100   1.681  0.1061  2.1585  0.6935
  121SOL     MW  484   1.708   1.158   1.735 -0.0140 -0.1642  0.5062
  122SOL     OW  485   0.127   0.558   0.771 -0.4236  0.0171 -0.1014
  122SOL    HW1  486   0.185   0.550   0.694  0.0417 -1.0527  0.3260
  122SOL    HW2  487   0.188   0.579   0.846 -1.4054  0.4654 -0.2103
  122SOL     MW  488   0.142   0.559   0.771 -0.4917 -0.0649 -0.0594
  123SOL     OW  489   1.892   1.141   0.503 -0.2430  0.4653 -0.0051
  123SOL    HW1  490   1.831   1.070   0.525 -0.3741 -0.4932 -0.3619
  123SOL    HW2  491   1.870   1.214   0.561 -1.7414  2.5745  0.4218
  123SOL     MW  492   1.881   1.142   0.513 -0.4580  0.6171  0.0042
  124SOL     OW  493   0.678   0.551   0.898 -0.0076  0.2536  0.8063
  124SOL    HW1  494   0.598   0.518   0.845 -1.9176 -1.0247  1.8980
  124SOL    HW2  495   0.679   0.645   0.880 -0.7749  0.8065 -0.0555
  124SOL     MW  496   0.668   0.559   0.889 -0.3608  0.1579  0.8366
  125SOL     OW  497   0.644   1.786   1.703 -0.7991 -0.0900  0.0908
  125SOL    HW1  498   0.596   1.718   1.652  2.2387  0.6529  0.2877
  125SOL    HW2  499   0.597   1.871   1.686 -1.8468  3.2591  0.5825
  125SOL     MW  500   0.632   1.788   1.694 -0.5365  0.4499  0.1816
  126SOL     OW  501   2.066   1.581   1.946  0.0349 -0.5600  0.0379
  126SOL    HW1  502   2.107   1.669   1.942 -1.3533 -0.7647 -1.6378
  126SOL    HW2  503   2.142   1.530   1.973 -0.0316  0.6668 -0.0130
  126SOL     MW  504   2.082   1.586   1.949 -0.1570 -0.4252 -0.1899
  127SOL     OW  505   0.667   0.798   1.839 -0.5044  0.0350  0.0560
  127SOL    HW1  506   0.729   0.725   1.858 -1.8403  0.2272 -1.3928
  127SOL    HW2  507   0.720   0.867   1.881  2.0999 -0.6106 -0.5326
  127SOL     MW  508   0.682   0.797   1.847 -0.3370 -0.0248 -0.2128
  128SOL     OW  509   1.786   0.723   2.934 -0.1255  0.5912 -0.0440
  128SOL    HW1  510   1.801   0.681   2.848 -1.5647 -2.1916  1.0362
  128SOL    HW2  511   1.754   0.813   2.912 -0.4057 -0.8870 -0.3202
  128SOL     MW  512   1.784   0.730   2.920 -0.3523  0.0290  0.0621
  129SOL     OW  513   1.592   0.945   0.193 -0.4940 -0.1200  0.4224
  129SOL    HW1  514   1.554   0.857   0.170 -0.0883  0.6795  1.8164
  129SOL    HW2  515   1.589   0.948   0.287 -0.5785 -2.3964  2.1510
  129SOL     MW  516   1.586   0.934   0.203 -0.4516 -0.3149  0.8344
  130SOL     OW  517   0.760   1.381   0.337  0.3166  0.0741 -0.3886
  130SOL    HW1  518   0.788   1.381   0.432 -1.7356 -0.4159  2.4447
  130SOL    HW2  519   0.825   1.437   0.297 -3.6417 -2.3955  1.2273
  130SOL     MW  520   0.773   1.388   0.344 -0.4764 -0.3164  0.1985
  131SOL     OW  521   3.066   0.806   0.010  0.5188 -0.2340  0.1767
  131SOL    HW1  522   3.053   0.789  -0.086 -1.8672  0.3974  2.3346
  131SOL    HW2  523   3.151   0.763   0.017 -2.5043 -1.5709  0.6998
  131SOL     MW  524   3.076   0.798  -0.002 -0.1949 -0.3271  0.5304
  132SOL     OW  525   2.686   0.123   1.257 -0.0575  0.3162  0.0312
  132SOL    HW1  526   2.690   0.111   1.154 -0.5218 -0.7306 -0.7723
  132SOL    HW2  527   2.590   0.119   1.270  1.7560  1.1249 -0.8738
  132SOL     MW  528   2.674   0.121   1.245  0.1205  0.2848 -0.1942
  133SOL     OW  529   1.039   0.169   1.710  0.3124 -0.0394 -0.5915
  133SOL    HW1  530   1.096   0.095   1.687  1.5040 -0.2613  0.0854
  133SOL    HW2  531   1.039   0.175   1.808  1.1968 -0.7350 -1.8567
  133SOL     MW  532   1.047   0.160   1.720  0.5863 -0.1605 -0.6691
  134SOL     OW  533   1.357   2.529   1.440  0.2577  0.4844 -0.1942
  134SOL    HW1  534   1.285   2.591   1.454 -1.8256  0.7728 -3.1016
  134SOL    HW2  535   1.420   2.552   1.513  1.7046 -2.6238  0.7153
  134SOL     MW  536   1.356   2.540   1.452  0.1737  0.1124 -0.4578
  135SOL     OW  537   3.011   0.968   2.859 -0.2571  0.4762 -0.3004
  135SOL    HW1  538   3.079   1.016   2.904 -0.4499 -2.0758 -2.1159
  135SOL    HW2  539   2.945   1.040   2.847 -3.6904 -2.2910 -0.5478
  135SOL     MW  540   3.011   0.984   2.863 -0.7355 -0.2256 -0.5726
  136SOL     OW  541   0.173   2.034   0.831 -0.4935 -0.0870 -0.3206
  136SOL    HW1  542   0.117   1.955   0.830 -0.0898  0.1813  1.4179
  136SOL    HW2  543   0.242   2.016   0.769  1.7010  0.1936 -0.5741
  136SOL     MW  544   0.175   2.021   0.823 -0.1507 -0.0146 -0.1247
  137SOL     OW  545   0.704   2.034   0.504 -0.0677 -0.0050  0.0949
  137SOL    HW1  546   0.752   2.035   0.592 -2.5731  0.9560  0.9774
  137SOL    HW2  547   0.605   2.050   0.522  3.7254  1.6140  3.2811
  137SOL     MW  548   0.697   2.036   0.518  0.1022  0.3354  0.6317
  138SOL     OW  549   0.538   0.573   1.125 -0.4562  0.2523  0.0031
  138SOL    HW1  550   0.464   0.519   1.110  0.4508  0.2876 -0.5169
  138SOL    HW2  551   0.601   0.552   1.054 -2.3914  1.8481 -0.1152
  138SOL     MW  552   0.536   0.563   1.113 -0.5919  0.4675 -0.0811
  139SOL     OW  553   2.783   0.618   1.344 -0.3616  0.3607 -0.4838
  139SOL    HW1  554   2.778   0.523   1.379  2.0364 -1.3447  0.4540
  139SOL    HW2  555   2.828   0.666   1.408 -0.5174  1.7163 -1.0214
  139SOL     MW  556   2.788   0.612   1.357 -0.0658  0.3146 -0.4310
  140SOL     OW  557   0.851   0.391   2.078  0.6693  0.2314  0.0123
  140SOL    HW1  558   0.930   0.345   2.045 -0.6723  1.9812  0.2739
  140SOL    HW2  559   0.866   0.420   2.167 -2.0596 -0.4479 -1.2129
  140SOL     MW  560   0.864   0.389   2.085  0.1323  0.3726 -0.1148
  141SOL     OW  561   1.068   0.666   1.735  0.0714  0.0956  0.2133
  141SOL    HW1  562   1.087   0.573   1.720  0.5539  0.7724 -2.3765
  141SOL    HW2  563   1.144   0.717   1.709 -1.4264 -1.5956  1.8872
  141SOL     MW  564   1.080   0.660   1.730 -0.0626 -0.0382  0.0925
  142SOL     OW  565   0.922   1.199   0.720  0.2030 -0.5155 -0.0351
  142SOL    HW1  566   0.870   1.125   0.685  0.1812  0.4885 -0.0281
  142SOL    HW2  567   1.018   1.186   0.707 -1.7813 -1.2557 -2.0469
  142SOL     MW  568   0.928   1.188   0.714 -0.0617 -0.4807 -0.2996
  143SOL     OW  569   1.806   0.806   1.111  0.5841 -0.1361  0.0011
  143SOL    HW1  570   1.884   0.788   1.065 -0.4578  1.2471 -2.6194
  143SOL    HW2  571   1.736   0.749   1.076 -1.1294 -0.2800 -0.4644
  143SOL     MW  572   1.807   0.796   1.101  0.2206  0.0274 -0.4061
  144SOL     OW  573   0.262   1.191   1.602  0.3386  0.3219  0.4960
  144SOL    HW1  574   0.356   1.183   1.624  0.3587 -1.2278  1.3974
  144SOL    HW2  575   0.235   1.204   1.692  0.4397  0.3448 -0.2629
  144SOL     MW  576   0.271   1.192   1.617  0.3546  0.1204  0.5148
  145SOL     OW  577   0.222   0.471   1.182  0.2180  0.2436 -0.1435
  145SOL    HW1  578   0.276   0.419   1.241  0.1377 -1.8416  3.6930
  145SOL    HW2  579   0.199   0.389   1.125  1.0565 -1.2099 -1.2227
  145SOL     MW  580   0.226   0.454   1.182  0.3180 -0.2233  0.2203
  146SOL     OW  581   0.875   1.949   1.350 -0.1880 -0.3364  0.0923
  146SOL    HW1  582   0.926   1.960   1.264  2.1156  3.7823  2.0232
  146SOL    HW2  583   0.787   1.920   1.322 -0.4040  3.7065  0.2389
  146SOL     MW  584   0.870   1.947   1.335  0.0874  0.7404  0.3664
  147SOL     OW  585   0.435   0.460   2.936  0.1652  0.1605  0.0668
  147SOL    HW1  586   0.351   0.437   2.980 -0.0504  1.5043  0.9578
  147SOL    HW2  587   0.397   0.514   2.865  0.1065  0.3123 -0.7039
  147SOL     MW  588   0.419   0.464   2.933  0.1290  0.3578  0.0827
  148SOL     OW  589   0.146   0.841   1.286  0.2718  0.2735 -0.2475
  148SOL    HW1  590   0.242   0.878   1.281  0.4931  1.9100  0.7296
  148SOL    HW2  591   0.106   0.903   1.352  0.8648  2.1200  1.2610
  148SOL     MW  592   0.154   0.854   1.294  0.3793  0.7330  0.0805
  149SOL     OW  593   1.320   1.151   1.328 -0.0136  0.7543 -0.1180
  149SOL    HW1  594   1.314   1.130   1.424 -0.6251  1.1139 -0.1768
  149SOL    HW2  595   1.390   1.218   1.330 -1.2536  3.2255 -1.7675
  149SOL     MW  596   1.329   1.157   1.341 -0.2579  1.1278 -0.3434
  150SOL     OW  597   1.826   1.336   0.719 -0.1581 -0.4460  0.6500
  150SOL    HW1  598   1.860   1.268   0.770 -1.0336 -0.7206 -0.7759
  150SOL    HW2  599   1.855   1.412   0.769 -0.5445  0.1978 -1.2506
  150SOL     MW  600   1.834   1.337   0.732 -0.3246 -0.3973  0.2111
  151SOL     OW  601   1.659   1.791   0.816 -0.0271  0.1165  0.4231
  151SOL    HW1  602   1.654   1.808   0.721  0.0113 -1.8936  0.4143
  151SOL    HW2  603   1.574   1.735   0.818 -3.6592  0.5981  0.1211
  151SOL     MW  604   1.647   1.786   0.804 -0.5013 -0.0852  0.3821
  152SOL     OW  605   0.756   1.365   1.496  0.1989 -0.1154  0.2068
  152SOL    HW1  606   0.763   1.305   1.568  0.1947  1.6046  1.7476
  152SOL    HW2  607   0.837   1.412   1.490  0.3577 -0.8031 -3.0416
  152SOL     MW  608   0.768   1.363   1.505  0.2193  0.0208 -0.0185
  153SOL     OW  609   2.620   1.218   0.779 -0.1825 -0.3812  0.3000
  153SOL    HW1  610   2.685   1.174   0.712 -0.6137  2.6156  0.9532
  153SOL    HW2  611   2.552   1.146   0.797 -1.1464 -1.4031 -0.1833
  153SOL     MW  612   2.620   1.202   0.772 -0.3666 -0.1207  0.3224
  154SOL     OW  613   0.228   1.810   1.697 -0.2393 -0.2888 -0.2248
  154SOL    HW1  614   0.262   1.795   1.610 -1.4953 -0.9116  2.2463
  154SOL    HW2  615   0.278   1.762   1.762 -0.8102  1.3614  0.3456
  154SOL     MW  616   0.239   1.802   1.694 -0.4804 -0.1532  0.1765
  155SOL     OW  617   1.213   0.696   0.232 -0.1547  0.0230 -0.7572
  155SOL    HW1  618   1.206   0.636   0.309  3.8853 -2.9019  0.4596
  155SOL    HW2  619   1.169   0.781   0.263 -2.9954  0.3570 -1.4215
  155SOL     MW  620   1.206   0.700   0.246  0.0036 -0.3188 -0.6843
  156SOL     OW  621   1.484   3.079   1.128  0.1204 -0.3717  0.3967
  156SOL    HW1  622   1.563   3.138   1.113  1.2228 -1.3239 -0.5522
  156SOL    HW2  623   1.522   2.992   1.138 -0.8373  0.4493 -3.9326
  156SOL     MW  624   1.499   3.075   1.127  0.1395 -0.3890 -0.2997
  157SOL     OW  625   1.448   1.155   0.108 -0.0482  0.2590  0.6298
  157SOL    HW1  626   1.498   1.076   0.152  0.6737 -2.4512  0.6085
  157SOL    HW2  627   1.519   1.226   0.098  3.0678  0.9583 -2.0924
  157SOL     MW  628   1.464   1.154   0.112  0.4582 -0.0063  0.2678
  158SOL     OW  629   0.539   1.658   2.210  0.3011 -0.1929  0.1359
  158SOL    HW1  630   0.511   1.724   2.150  0.0124  1.6608  0.8420
  158SOL    HW2  631   0.462   1.636   2.264  2.0425  0.0773 -3.5522
  158SOL     MW  632   0.525   1.663   2.209  0.4928  0.0873 -0.2575
  159SOL     OW  633   1.291   1.679   0.425  0.0554 -0.3610  0.3599
  159SOL    HW1  634   1.248   1.607   0.382  1.6777 -0.0278  0.8558
  159SOL    HW2  635   1.244   1.683   0.512 -0.8787  0.4939  1.7987
  159SOL     MW  636   1.279   1.670   0.431  0.1462 -0.2043  0.6152
  160SOL     OW  637   0.539   1.135   1.625 -0.2664  0.4814 -0.1650
  160SOL    HW1  638   0.501   1.043   1.639 -0.0547  2.4717  0.0715
  160SOL    HW2  639   0.630   1.125   1.655  2.9452  0.5042 -2.7546
  160SOL     MW  640   0.546   1.121   1.631  0.1853  0.7470 -0.4755
  161SOL     OW  641   0.497   2.248   2.562  0.3282  0.2568  0.1019
  161SOL    HW1  642   0.406   2.229   2.562 -1.6167  0.3424 -2.0376
  161SOL    HW2  643   0.539   2.192   2.494  4.1405 -0.5716 -0.9402
  161SOL     MW  644   0.491   2.238   2.553  0.5746  0.1588 -0.3179
  162SOL     OW  645   1.053   1.758   1.872  0.0272  0.5027  0.4436
  162SOL    HW1  646   1.082   1.821   1.939 -3.5801  0.9518  1.8516
  162SOL    HW2  647   0.959   1.745   1.891  0.5159 -0.3884  2.8223
  162SOL     MW  648   1.045   1.765   1.883 -0.3843  0.4443  0.9432
  163SOL     OW  649   2.142   0.016   0.930 -0.6114  0.2521 -0.2601
  163SOL    HW1  650   2.120   0.074   0.853  1.2240  4.0462  1.1682
  163SOL    HW2  651   2.149  -0.080   0.910 -0.3036  0.2763 -1.4406
  163SOL     MW  652   2.140   0.011   0.917 -0.3287  0.7559 -0.2274
  164SOL     OW  653   0.351   0.191   0.854 -0.2215  0.3141 -0.3077
  164SOL    HW1  654   0.263   0.183   0.897 -2.0590  0.6954  0.6683
  164SOL    HW2  655   0.353   0.123   0.789  0.1335  1.4509  1.3450
  164SOL     MW  656   0.339   0.181   0.851 -0.4171  0.5144  0.0391
  165SOL     OW  657   1.344   1.261   0.351  0.1618  0.4174  0.3937
  165SOL    HW1  658   1.318   1.183   0.404  0.1195 -2.2775 -0.2717
  165SOL    HW2  659   1.373   1.216   0.268  0.6403 -1.9418  0.2401
  165SOL     MW  660   1.345   1.245   0.347  0.2193 -0.2495  0.2856
  166SOL     OW  661   0.529   1.178   1.029 -0.2590  0.6926 -0.6824
  166SOL    HW1  662   0.497   1.123   1.103  2.6909 -2.1747  1.5167
  166SOL    HW2  663   0.614   1.136   1.015 -1.2001 -1.2797 -1.2929
  166SOL     MW  664   0.536   1.165   1.037  0.0061  0.0541 -0.4728
  167SOL     OW  665   0.799   1.015   0.276  0.1159  0.0148  0.6912
  167SOL    HW1  666   0.728   1.076   0.260 -1.6274  3.8535 -2.2941
  167SOL    HW2  667   0.877   1.054   0.234  1.7540  1.3583 -0.8659
  167SOL     MW  668   0.800   1.028   0.268  0.1020  0.6986  0.0919
  168SOL     OW  669   1.703   1.644   3.041 -0.4739 -0.1822  0.2463
  168SOL    HW1  670   1.616   1.683   3.038  0.6970  0.0756 -0.3134
  168SOL    HW2  671   1.703   1.563   3.002 -1.8741  2.8567  1.0845
  168SOL     MW  672   1.692   1.639   3.036 -0.5042  0.2528  0.2830
  169SOL     OW  673   0.408   0.933   1.349 -0.3993  0.5209  0.2994
  169SOL    HW1  674   0.418   0.912   1.440  1.2643  0.3318 -3.5920
  169SOL    HW2  675   0.443   1.020   1.355  0.4829 -0.9532  0.3966
  169SOL     MW  676   0.414   0.942   1.362 -0.0634  0.3015 -0.2012
  170SOL     OW  677   1.029   1.496   1.518 -0.0439  0.4059  0.4589
  170SOL    HW1  678   1.000   1.590   1.521 -1.0517  0.6650 -0.8468
  170SOL    HW2  679   1.092   1.486   1.441  2.6811  1.7840 -0.6526
  170SOL     MW  680   1.034   1.507   1.508  0.1826  0.6219  0.1400
  171SOL     OW  681   0.519   1.458   0.633 -0.5650 -0.2534 -0.0091
  171SOL    HW1  682   0.489   1.451   0.728 -1.6623 -0.1632  2.5127
  171SOL    HW2  683   0.533   1.362   0.600  1.9085  1.3983 -3.3373
  171SOL     MW  684   0.517   1.444   0.641 -0.3834 -0.0236 -0.1155
  172SOL     OW  685   0.848   0.336   1.258  0.2975  0.4651 -0.4018
  172SOL    HW1  686   0.835   0.347   1.160 -2.4091  1.0887 -2.5086
  172SOL    HW2  687   0.768   0.351   1.316  1.7350  0.0273 -0.6197
  172SOL     MW  688   0.836   0.340   1.252  0.1301  0.4896 -0.7085
  173SOL     OW  689   0.432   1.709   0.385 -0.3348 -0.7098 -0.0667
  173SOL    HW1  690   0.465   1.620   0.364  0.1859 -0.2055 -1.1337
  173SOL    HW2  691   0.472   1.745   0.468  0.1148  2.9486 -0.4717
  173SOL     MW  692   0.441   1.702   0.393 -0.2068 -0.1606 -0.2609
  174SOL     OW  693   1.816   0.991   1.553  0.0992 -0.5443 -0.5879
  174SOL    HW1  694   1.792   0.896   1.568  0.0281 -1.6246  1.6663
  174SOL    HW2  695   1.828   0.991   1.459 -0.6656 -0.3851  1.0278
  174SOL     MW  696   1.815   0.978   1.543 -0.0111 -0.6659 -0.0773
  175SOL     OW  697   0.519   1.480   0.255 -0.5739  0.0958 -0.1355
  175SOL    HW1  698   0.453   1.425   0.222  0.9999  2.6193 -0.7852
  175SOL    HW2  699   0.598   1.427   0.270 -0.1278  0.9589 -0.2128
  175SOL     MW  700   0.521   1.466   0.253 -0.3074  0.5426 -0.2314
  176SOL     OW  701   0.171   1.485   1.223  0.0889  0.3100 -0.2936
  176SOL    HW1  702   0.146   1.415   1.164  0.1225 -0.7549 -0.1090
  176SOL    HW2  703   0.104   1.483   1.300  1.6055  1.4341 -1.5597
  176SOL     MW  704   0.159   1.475   1.226  0.2934  0.3178 -0.4363
  177SOL     OW  705   0.643   0.438   1.384  0.6693  0.3934  0.6660
  177SOL    HW1  706   0.606   0.482   1.305  0.3001  0.4801  0.8646
  177SOL    HW2  707   0.610   0.491   1.461 -0.2324 -0.4246 -1.5552
  177SOL     MW  708   0.633   0.451   1.384  0.5016  0.2969  0.3992
  178SOL     OW  709   3.069   0.509   2.952 -0.3786  0.6567 -0.0813
  178SOL    HW1  710   3.023   0.510   3.039  0.5376  0.7700 -0.7775
  178SOL    HW2  711   3.010   0.524   2.874  0.0982 -0.5469  0.1952
  178SOL     MW  712   3.055   0.511   2.953 -0.1948  0.5128 -0.1366
  179SOL     OW  713   1.589   1.330   1.344  0.0748 -0.2966 -0.6122
  179SOL    HW1  714   1.568   1.349   1.439  0.6191  0.0643 -0.3615
  179SOL    HW2  715   1.687   1.340   1.348 -0.7386  0.3877 -1.9374
  179SOL     MW  716   1.599   1.334   1.357  0.0393 -0.1587 -0.7540
  180SOL     OW  717   3.035   0.198   0.426 -0.8221 -0.2278 -0.3222
  180SOL    HW1  718   2.980   0.188   0.344 -0.2476  3.6984 -0.4904
  180SOL    HW2  719   3.096   0.267   0.390  0.2306 -0.7430 -0.4810
  180SOL     MW  720   3.036   0.206   0.410 -0.6074  0.2223 -0.3653
  181SOL     OW  721   1.112   1.308   3.088 -0.3145  0.0583  0.1467
  181SOL    HW1  722   1.154   1.353   3.154  0.5920 -2.6459  0.3812
  181SOL    HW2  723   1.184   1.254   3.045 -0.0020  0.9807 -0.0352
  181SOL     MW  724   1.127   1.306   3.091 -0.1537 -0.1768  0.1537
  182SOL     OW  725   0.456   0.887   1.629 -0.2361 -0.7352 -0.5722
  182SOL    HW1  726   0.366   0.849   1.645 -0.4019  2.9085 -1.0529
  182SOL    HW2  727   0.528   0.833   1.665  0.6768 -1.5148  0.2440
  182SOL     MW  728   0.453   0.875   1.636 -0.1375 -0.3573 -0.5279
  183SOL     OW  729   1.588   1.524   1.134  0.0646  0.2714  0.0156
  183SOL    HW1  730   1.576   1.596   1.197  0.8005  1.1677  0.3244
  183SOL    HW2  731   1.600   1.447   1.194  0.6214  1.2437 -0.4849
  183SOL     MW  732   1.588   1.523   1.150  0.2352  0.5180 -0.0097
  184SOL     OW  733   0.885   0.650   1.954 -0.9872  0.5138  0.1846
  184SOL    HW1  734   0.959   0.665   1.895 -1.9657  0.8717 -3.9872
  184SOL    HW2  735   0.886   0.556   1.981  0.8568  0.1125 -1.5536
  184SOL     MW  736   0.895   0.639   1.950 -0.8730  0.5081 -0.5952
  185SOL     OW  737   1.226   1.005   1.932 -0.6048 -0.3928  0.2135
  185SOL    HW1  738   1.219   0.917   1.972  0.5142 -2.4024 -0.5561
  185SOL    HW2  739   1.250   1.051   2.009  1.3515 -0.1582 -3.3066
  185SOL     MW  740   1.228   0.999   1.948 -0.1990 -0.6270 -0.3524
  186SOL     OW  741   0.385   1.705   1.444  0.0547  0.3908  0.0545
  186SOL    HW1  742   0.420   1.640   1.380  0.5896  1.0000 -3.1318
  186SOL    HW2  743   0.293   1.668   1.448  0.3876 -0.5161 -2.3526
  186SOL     MW  744   0.377   1.692   1.436  0.1692  0.3515 -0.6835
  187SOL     OW  745   1.437   0.695   1.388  0.2469 -0.2784 -0.5550
  187SOL    HW1  746   1.420   0.649   1.470 -0.8879  1.8888  0.6748
  187SOL    HW2  747   1.355   0.691   1.342  0.9057 -0.9554 -0.1686
  187SOL     MW  748   1.424   0.688   1.393  0.1841 -0.0818 -0.3418
  188SOL     OW  749   1.901   1.156   0.935 -0.0731  0.0656  0.4401
  188SOL    HW1  750   1.936   1.167   1.030  1.6123  0.0927 -0.0292
  188SOL    HW2  751   1.933   1.069   0.898 -1.8383 -0.7861 -1.3681
  188SOL     MW  752   1.910   1.146   0.942 -0.0836 -0.0432  0.1396
  189SOL     OW  753   0.659   0.812   0.831  0.3079 -0.3486 -0.5877
  189SOL    HW1  754   0.575   0.841   0.865 -2.1111  0.6255 -0.4829
  189SOL    HW2  755   0.713   0.893   0.847 -1.1225  0.8881 -0.8400
  189SOL     MW  756   0.655   0.827   0.838 -0.2000 -0.0569 -0.6071
  190SOL     OW  757   1.892   0.245   2.139  0.4057 -0.7691  0.3448
  190SOL    HW1  758   1.932   0.209   2.216 -0.6589 -1.7934  1.0407
  190SOL    HW2  759   1.952   0.316   2.113  0.8416 -0.1241  0.7750
  190SOL     MW  760   1.906   0.249   2.146  0.3227 -0.8192  0.4934
  191SOL     OW  761   1.500   0.938   1.236 -0.6539  0.0667 -0.1044
  191SOL    HW1  762   1.425   0.992   1.270 -1.3929 -0.7718 -0.6535
  191SOL    HW2  763   1.501   0.863   1.298  0.3509  3.4534  1.3843
  191SOL     MW  764   1.491   0.935   1.249 -0.6189  0.4029  0.0196
  192SOL     OW  765   0.614   2.118   2.793  0.3449  0.9494 -0.0757
  192SOL    HW1  766   0.548   2.132   2.731 -0.0930 -1.1878  0.2755
  192SOL    HW2  767   0.615   2.021   2.804  0.7037 -2.0012 -0.8333
  192SOL     MW  768   0.605   2.107   2.786  0.3345  0.2781 -0.1293
  193SOL     OW  769   0.996   1.561   0.728  0.2177 -0.2350  0.2279
  193SOL    HW1  770   0.947   1.604   0.806 -0.3641 -1.5590 -2.7477
  193SOL    HW2  771   0.922   1.508   0.685 -1.9527  1.5187 -2.2415
  193SOL     MW  772   0.980   1.560   0.733 -0.1454 -0.1783 -0.4905
  194SOL     OW  773   0.510   1.446   0.932 -0.0973  0.2617 -0.2012
  194SOL    HW1  774   0.516   1.354   0.967 -0.0297 -0.8449 -1.0126
  194SOL    HW2  775   0.415   1.458   0.917  1.3196  0.3647  0.0524
  194SOL     MW  776   0.498   1.435   0.935  0.0986  0.1293 -0.2748
  195SOL     OW  777   1.298   1.126   2.983 -0.1409 -0.0100 -0.0720
  195SOL    HW1  778   1.372   1.133   3.045  0.6189  1.2353 -0.6842
  195SOL    HW2  779   1.256   1.038   3.000  2.8332 -4.7544 -1.5307
  195SOL     MW  780   1.302   1.116   2.993  0.3518 -0.4717 -0.3452
  196SOL     OW  781   2.208   1.004   0.583  0.2058  0.1450  0.2629
  196SOL    HW1  782   2.174   0.983   0.493  1.1096  2.1408  1.0750
  196SOL    HW2  783   2.182   1.098   0.582 -1.9581  1.4038  0.9002
  196SOL     MW  784   2.200   1.014   0.571  0.0395  0.5744  0.4542
  197SOL     OW  785   0.646   1.220   2.092  0.2213 -0.5458  0.1196
  197SOL    HW1  786   0.613   1.136   2.079 -2.4097  2.7718 -2.5293
  197SOL    HW2  787   0.624   1.259   2.010 -0.8424  1.0780 -0.8069
  197SOL     MW  788   0.639   1.214   2.080 -0.2662  0.1062 -0.3521
  198SOL     OW  789   2.963   1.369   1.089 -0.5041 -0.0129 -0.2118
  198SOL    HW1  790   2.936   1.458   1.068  0.7422  1.3218 -0.1247
  198SOL    HW2  791   2.888   1.313   1.071  2.2520 -0.3023  1.9938
  198SOL     MW  792   2.949   1.374   1.084  0.0240  0.1250  0.0907
  199SOL     OW  793   0.545   1.407   1.892 -0.4441  0.3486 -0.2561
  199SOL    HW1  794   0.459   1.373   1.892  0.9486  3.9592 -1.5127
  199SOL    HW2  795   0.591   1.351   1.827  0.9574 -1.7244 -0.2653
  199SOL     MW  796   0.540   1.395   1.883 -0.0754  0.5515 -0.4231
  200SOL     OW  797   1.867   3.002   1.314 -0.0982 -0.2965  0.0421
  200SOL    HW1  798   1.878   2.983   1.223 -0.8982 -2.8721  2.4736
  200SOL    HW2  799   1.795   3.059   1.326  0.9884 -1.8656  1.9203
  200SOL     MW  800   1.859   3.007   1.304 -0.0604 -0.8434  0.6107
  201SOL     OW  801   1.035   0.202   0.846  0.3494  0.1498  0.1071
  201SOL    HW1  802   0.984   0.163   0.771 -0.4856  1.8511 -1.9718
  201SOL    HW2  803   1.105   0.255   0.813  2.6669  1.8136 -0.9608
  201SOL     MW  804   1.038   0.204   0.832  0.5450  0.5938 -0.3081
  202SOL     OW  805   1.508   1.568   0.877 -0.0939  0.2577 -0.2884
  202SOL    HW1  806   1.523   1.476   0.845 -0.5625 -0.2080 -0.6809
  202SOL    HW2  807   1.546   1.555   0.963 -2.6880 -1.6382  0.9277
  202SOL     MW  808   1.515   1.554   0.884 -0.4980 -0.0539 -0.1797
  203SOL     OW  809   3.066   0.440   1.291 -0.7913 -0.1939  0.4260
  203SOL    HW1  810   3.149   0.393   1.271  1.6693 -4.9878  0.4330
  203SOL    HW2  811   3.083   0.518   1.347 -2.8807 -0.2271  0.4885
  203SOL     MW  812   3.079   0.444   1.296 -0.7423 -0.8308  0.4351
  204SOL     OW  813   1.049   1.743   0.540  0.2156  0.3125  0.0179
  204SOL    HW1  814   1.028   1.676   0.613 -2.8298  1.1761  1.7838
  204SOL    HW2  815   0.960   1.773   0.505 -2.3870 -3.6159 -0.9520
  204SOL     MW  816   1.034   1.738   0.545 -0.5296 -0.0919  0.1229
  205SOL     OW  817   1.368   0.066   1.356  0.6280 -0.4184 -0.0561
  205SOL    HW1  818   1.379   0.038   1.265 -2.5084 -1.4038 -2.2853
  205SOL    HW2  819   1.344   0.161   1.350 -1.3367 -0.9957  0.5235
  205SOL     MW  820   1.366   0.075   1.343 -0.0450 -0.6246 -0.2738
  206SOL     OW  821   0.414   3.003   1.421 -0.4016 -0.0472 -0.1379
  206SOL    HW1  822   0.368   3.002   1.329  1.7932  1.2844 -0.1528
  206SOL    HW2  823   0.505   2.979   1.397  0.7609 -1.4811 -2.5827
  206SOL     MW  824   0.420   3.000   1.406  0.0414 -0.0607 -0.4624
  207SOL     OW  825   0.908   1.553   0.186 -0.2150  1.0947  0.0451
  207SOL    HW1  826   0.926   1.650   0.185  1.0167  0.1250 -3.6281
  207SOL    HW2  827   0.996   1.514   0.179  0.2530 -1.1776 -4.5885
  207SOL     MW  828   0.922   1.561   0.185  0.0093  0.6670 -1.0509
  208SOL     OW  829   0.687   1.673   1.372  0.0578  0.0406  0.0888
  208SOL    HW1  830   0.746   1.709   1.439 -0.2731  0.6983 -1.2571
  208SOL    HW2  831   0.699   1.578   1.386  1.6819 -1.4662 -1.6320
  208SOL     MW  832   0.696   1.666   1.383  0.2285 -0.0714 -0.3158
  209SOL     OW  833   1.536   0.497   3.005 -0.1200 -0.0922 -0.2936
  209SOL    HW1  834   1.575   0.583   3.008 -0.3836 -2.2194  2.6296
  209SOL    HW2  835   1.605   0.445   2.969  1.2189  0.9835 -3.4763
  209SOL     MW  836   1.551   0.502   3.000  0.0219 -0.2309 -0.3278
  210SOL     OW  837   1.550   1.277   0.796 -0.3634 -0.5651 -0.4072
  210SOL    HW1  838   1.649   1.278   0.791 -1.4861 -1.4131  2.3671
  210SOL    HW2  839   1.523   1.279   0.703 -0.3199  2.4416 -1.6979
  210SOL     MW  840   1.560   1.278   0.783 -0.5058 -0.2803 -0.2115
  211SOL     OW  841   1.675   0.327   0.937  0.3997 -0.5930 -0.5341
  211SOL    HW1  842   1.659   0.375   0.851  1.7500  1.5830 -1.1812
  211SOL    HW2  843   1.771   0.342   0.943  1.7758  0.9888  1.5398
  211SOL     MW  844   1.685   0.335   0.927  0.7594 -0.0972 -0.3458
  212SOL     OW  845   0.258   1.024   0.127  0.6195  0.1744  0.3185
  212SOL    HW1  846   0.207   0.981   0.196 -1.2531  4.3234  0.4884
  212SOL    HW2  847   0.300   0.953   0.074  0.1131 -1.7855  0.6504
  212SOL     MW  848   0.257   1.009   0.129  0.3056  0.4632  0.3847
  213SOL     OW  849   0.533   1.706   3.041 -0.0452 -0.4985  0.6482
  213SOL    HW1  850   0.535   1.781   3.106  1.5764 -0.4451 -1.2873
  213SOL    HW2  851   0.571   1.727   2.957 -0.9705 -0.1240 -0.2483
  213SOL     MW  852   0.538   1.718   3.038  0.0466 -0.4421  0.2745
  214SOL     OW  853   0.611   0.304   2.208  0.3053  0.2251 -0.9010
  214SOL    HW1  854   0.532   0.359   2.216  1.3884 -1.7646 -0.5457
  214SOL    HW2  855   0.670   0.342   2.148 -0.4596 -1.6898  0.3091
  214SOL     MW  856   0.609   0.316   2.201  0.3473 -0.2901 -0.6945
  215SOL     OW  857   0.506   0.713   2.667 -0.1474  0.3926  0.2202
  215SOL    HW1  858   0.488   0.689   2.574  1.2690 -3.9639  0.0733
  215SOL    HW2  859   0.444   0.657   2.710 -2.3969 -0.0555 -5.4228
  215SOL     MW  860   0.495   0.702   2.660 -0.2573 -0.2413 -0.5437
  216SOL     OW  861   2.912   3.038   2.659  0.0999 -0.3387  0.1251
  216SOL    HW1  862   2.887   3.034   2.750  1.1837  5.0887 -2.5532
  216SOL    HW2  863   2.937   3.130   2.644 -0.5285 -1.3831  1.3537
  216SOL     MW  864   2.912   3.049   2.669  0.1600  0.2396 -0.0662
  217SOL     OW  865   0.989   1.090   0.089  0.3290 -0.0191  0.8146
  217SOL    HW1  866   1.040   1.016   0.054 -2.5176  1.0592  0.0238
  217SOL    HW2  867   1.026   1.172   0.048  2.8881  0.2916 -0.8971
  217SOL     MW  868   1.000   1.091   0.079  0.2911  0.1642  0.4845
  218SOL     OW  869   0.965   1.308   2.555 -0.2709  0.1073  0.1374
  218SOL    HW1  870   0.995   1.221   2.585 -0.3179 -2.1029  1.0708
  218SOL    HW2  871   1.040   1.365   2.536  1.3594 -1.4671  0.1027
  218SOL     MW  872   0.979   1.304   2.557 -0.0620 -0.3921  0.2560
  219SOL     OW  873   1.146   0.433   2.644  0.2943  0.0837  0.0404
  219SOL    HW1  874   1.189   0.510   2.686 -0.8969  0.1094  1.5234
  219SOL    HW2  875   1.073   0.485   2.607 -1.2983  3.1595 -0.5991
  219SOL     MW  876   1.142   0.450   2.645 -0.0730  0.4929  0.1517
  220SOL     OW  877   1.759   0.484   2.226  0.8948  0.3593  0.2925
  220SOL    HW1  878   1.678   0.505   2.173 -2.3375  3.2208 -0.5182
  220SOL    HW2  879   1.783   0.389   2.205 -0.3073 -1.7203 -2.6969
  220SOL     MW  880   1.752   0.474   2.216  0.3097  0.4624 -0.2088
  221SOL     OW  881   0.402   1.327   2.966 -0.2616 -0.7774  0.5618
  221SOL    HW1  882   0.454   1.255   2.922 -0.5775  2.9911  1.3296
  221SOL    HW2  883   0.407   1.401   2.908  2.0524 -0.0150  0.9500
  221SOL     MW  884   0.409   1.327   2.952  0.0021 -0.1796  0.7143
  222SOL     OW  885   0.361   0.944   2.678 -0.3367  0.0864 -0.1963
  222SOL    HW1  886   0.321   0.973   2.601  0.0184 -0.1556  0.7452
  222SOL    HW2  887   0.418   0.873   2.650  0.0874 -1.0698 -1.0877
  222SOL     MW  888   0.363   0.938   2.664 -0.2339 -0.0980 -0.1897
  223SOL     OW  889   0.010   2.024   2.516  0.0542 -0.1832 -0.2423
  223SOL    HW1  890   0.072   1.971   2.566  3.0323  1.9001 -0.5520
  223SOL    HW2  891   0.051   2.110   2.518 -1.9881 -0.4905  0.5007
  223SOL     MW  892   0.024   2.028   2.523  0.1776  0.0511 -0.1851
  224SOL     OW  893   1.503   0.783   2.608  0.0765 -0.7039 -0.6302
  224SOL    HW1  894   1.532   0.828   2.682  0.5075 -1.1156 -1.4462
  224SOL    HW2  895   1.472   0.864   2.552 -0.3831  2.0856 -0.6243
  224SOL     MW  896   1.503   0.799   2.610  0.0727 -0.3902 -0.7371
  225SOL     OW  897   2.908   1.444   2.282  0.4561  0.1691 -0.7738
  225SOL    HW1  898   2.952   1.504   2.229 -0.0936 -0.5217 -0.4567
  225SOL    HW2  899   2.850   1.502   2.332 -0.5146 -0.1792  0.4636
  225SOL     MW  900   2.906   1.460   2.282  0.2555  0.0320 -0.5687
  226SOL     OW  901   0.467   1.486   2.697 -0.5008 -0.0888  0.0094
  226SOL    HW1  902   0.549   1.471   2.646 -1.1317  0.9021  0.3762
  226SOL    HW2  903   0.437   1.577   2.687  1.7580  2.0677 -1.4391
  226SOL     MW  904   0.474   1.496   2.689 -0.2860  0.3265 -0.1333
  227SOL     OW  905   0.498   1.110   2.831  0.5543  0.5111  0.2646
  227SOL    HW1  906   0.592   1.099   2.806  1.8624  1.3638 -1.9037
  227SOL    HW2  907   0.451   1.052   2.765  0.5298 -1.1592  1.2118
  227SOL     MW  908   0.504   1.101   2.819  0.7236  0.4032  0.1035
  228SOL     OW  909   0.727   0.963   2.050  0.3936  0.3372 -0.1739
  228SOL    HW1  910   0.818   0.990   2.034 -0.0298 -1.1614 -1.9657
  228SOL    HW2  911   0.728   0.912   2.134 -0.0127 -1.1786  1.8897
  228SOL     MW  912   0.739   0.960   2.059  0.2841 -0.0605 -0.1381
  229SOL     OW  913   0.158   0.619   0.002 -0.1539 -0.1778 -0.4100
  229SOL    HW1  914   0.103   0.585  -0.069  2.9115 -0.7182 -0.8054
  229SOL    HW2  915   0.188   0.539   0.044  0.5802  0.4039 -1.6264
  229SOL     MW  916   0.155   0.604  -0.002  0.3474 -0.1723 -0.6226
  230SOL     OW  917   1.688   1.351   2.046 -0.0361 -0.2544  0.3810
  230SOL    HW1  918   1.628   1.321   2.117  0.5063  0.9956  1.0154
  230SOL    HW2  919   1.709   1.276   1.993  0.1455  0.5790 -0.5280
  230SOL     MW  920   1.683   1.337   2.049  0.0594  0.0205  0.3447
  231SOL     OW  921   2.721   1.252   2.195 -0.2048 -0.0439  0.6405
  231SOL    HW1  922   2.774   1.322   2.236 -2.2875 -3.7237 -2.5740
  231SOL    HW2  923   2.701   1.309   2.118 -2.1150  3.6138  0.7564
  231SOL     MW  924   2.725   1.269   2.190 -0.7316 -0.0468  0.2316
  232SOL     OW  925   2.277   0.833   2.007 -0.5785 -0.3370 -0.1617
  232SOL    HW1  926   2.217   0.897   1.968 -1.7998 -0.2805 -2.1296
  232SOL    HW2  927   2.242   0.825   2.093 -2.0064  1.1879  0.5813
  232SOL     MW  928   2.264   0.840   2.014 -0.9281 -0.1283 -0.3233
  233SOL     OW  929   2.038   0.444   2.048 -0.0003  0.0328  0.3912
  233SOL    HW1  930   2.120   0.416   2.004  1.9508  3.4785 -1.2797
  233SOL    HW2  931   2.071   0.497   2.119 -0.3812  0.1271 -0.3328
  233SOL     MW  932   2.053   0.447   2.051  0.2069  0.4998  0.0752
  234SOL     OW  933   0.274   1.067   2.411 -0.7170  0.0103 -0.0744
  234SOL    HW1  934   0.178   1.078   2.411  1.7961 -1.9716 -0.4916
  234SOL    HW2  935   0.309   1.148   2.448 -1.5784 -0.4528  2.4416
  234SOL     MW  936   0.266   1.079   2.416 -0.4991 -0.3123  0.2025
  235SOL     OW  937   1.121   3.056   2.726  0.2249  0.1174  0.6324
  235SOL    HW1  938   1.145   2.988   2.790  0.8649 -1.3770  0.3960
  235SOL    HW2  939   1.086   3.120   2.785 -2.4623 -0.1594  0.0599
  235SOL     MW  940   1.119   3.056   2.742 -0.0452 -0.1163  0.5256
  236SOL     OW  941   2.937   0.565   0.096  0.0532 -0.1757  0.8501
  236SOL    HW1  942   2.855   0.617   0.109  2.5732  0.0556  2.5378
  236SOL    HW2  943   3.011   0.625   0.095  2.8345 -1.2844  2.5231
  236SOL     MW  944   2.936   0.580   0.097  0.7527 -0.2914  1.2935
  237SOL     OW  945   2.016   1.115   2.190 -0.0858  0.1909  0.0641
  237SOL    HW1  946   1.931   1.118   2.142 -2.7838 -0.2082  1.0336
  237SOL    HW2  947   2.056   1.031   2.174  0.3355 -0.6099 -0.1885
  237SOL     MW  948   2.010   1.104   2.182 -0.3862  0.0326  0.1587
  238SOL     OW  949   1.059   1.840   3.000  0.5913  0.1336  0.6902
  238SOL    HW1  950   1.003   1.766   2.975  0.4465  0.7878  1.5410
  238SOL    HW2  951   1.146   1.811   3.006 -1.1877  1.7044 -0.4815
  238SOL     MW  952   1.063   1.827   2.997  0.3375  0.4272  0.6479
  239SOL     OW  953   1.272   1.363   2.362  0.1888  0.1844  0.1081
  239SOL    HW1  954   1.247   1.416   2.439  0.9434 -0.4898  2.2965
  239SOL    HW2  955   1.299   1.281   2.401 -0.1183  2.4453  1.1244
  239SOL     MW  956   1.272   1.359   2.377  0.2479  0.3937  0.5309
  240SOL     OW  957   0.708   0.822   2.267  0.3777  0.1023  0.2274
  240SOL    HW1  958   0.726   0.884   2.334  3.4624  1.5885 -2.4687
  240SOL    HW2  959   0.795   0.778   2.270  1.9457  2.0812 -1.9638
  240SOL     MW  960   0.722   0.825   2.277  0.9916  0.5595 -0.4174
  241SOL     OW  961   0.657   0.376   0.028  0.2608  0.1195  0.2094
  241SOL    HW1  962   0.677   0.447   0.088  3.6749  0.1816 -2.2781
  241SOL    HW2  963   0.570   0.399  -0.015 -1.2352  1.2510  1.0717
  241SOL     MW  964   0.649   0.388   0.030  0.5139  0.2770 -0.0050
  242SOL     OW  965   1.514   1.689   2.334  0.4640  0.4470  0.1633
  242SOL    HW1  966   1.484   1.783   2.333 -1.4663  0.9194  0.7939
  242SOL    HW2  967   1.437   1.655   2.290 -0.7148  2.0506 -0.0801
  242SOL     MW  968   1.500   1.697   2.328  0.0538  0.7209  0.2144
  243SOL     OW  969   1.046   0.216   2.508 -0.1169  0.1316  0.2251
  243SOL    HW1  970   1.119   0.205   2.445  1.9330 -1.6908 -0.6164
  243SOL    HW2  971   1.085   0.264   2.579  1.9672 -0.6487  0.7979
  243SOL     MW  972   1.061   0.221   2.509  0.4286 -0.2118  0.1896
  244SOL     OW  973   0.269   0.788   2.435 -0.2965 -0.3243  0.1287
  244SOL    HW1  974   0.256   0.876   2.404  0.7777 -0.4137 -1.4103
  244SOL    HW2  975   0.352   0.757   2.395  1.1503  0.4256  0.2748
  244SOL     MW  976   0.278   0.796   2.426  0.0361 -0.2371 -0.0550
  245SOL     OW  977   1.246   0.212   2.309  0.6501 -0.3421 -0.4910
  245SOL    HW1  978   1.273   0.122   2.304  0.1011  1.3824  0.5831
  245SOL    HW2  979   1.303   0.259   2.365 -2.9567 -0.3793  0.8993
  245SOL     MW  980   1.257   0.207   2.316  0.1018 -0.1195 -0.1658
  246SOL     OW  981   1.237   1.209   2.152 -0.1129 -0.4247 -0.1518
  246SOL    HW1  982   1.190   1.134   2.204  2.4269  1.9020  1.1654
  246SOL    HW2  983   1.276   1.259   2.217  1.8120 -1.0205  0.1511
  246SOL     MW  984   1.236   1.206   2.168  0.4762 -0.1963  0.0620
  247SOL     OW  985   0.759   0.584   0.200  0.3699 -0.0289  0.3681
  247SOL    HW1  986   0.709   0.658   0.174  3.8747  0.8270 -0.6419
  247SOL    HW2  987   0.841   0.597   0.147 -0.6373  0.6305 -1.4242
  247SOL     MW  988   0.764   0.596   0.190  0.6994  0.1710 -0.0016
  248SOL     OW  989   0.325   1.363   2.503 -0.2020  0.3618  0.4367
  248SOL    HW1  990   0.383   1.360   2.425  1.4059  1.6614  1.2298
  248SOL    HW2  991   0.384   1.403   2.572 -0.5426 -0.3324  0.6784
  248SOL     MW  992   0.340   1.368   2.502 -0.0348  0.4417  0.5732
  249SOL     OW  993   0.180   1.908   2.728 -0.2479 -0.4843  0.0067
  249SOL    HW1  994   0.120   1.842   2.702  1.0387  2.4996  2.3263
  249SOL    HW2  995   0.197   1.895   2.825  1.9252  1.0279 -0.9246
  249SOL     MW  996   0.175   1.897   2.737  0.2086  0.1089  0.1899
  250SOL     OW  997   2.171   0.897   2.275  0.1833  0.3335 -0.1620
  250SOL    HW1  998   2.256   0.843   2.296 -1.7731  1.5887 -0.9135
  250SOL    HW2  999   2.205   0.985   2.295  2.2443  0.1694  0.8045
  250SOL     MW 1000   2.187   0.902   2.281  0.1971  0.4775 -0.1336
  251SOL     OW 1001   0.139   0.865   1.984 -0.1438 -0.2933 -0.1443
  251SOL    HW1 1002   0.166   0.789   2.031  1.7082  4.6623 -0.7465
  251SOL    HW2 1003   0.161   0.842   1.895 -2.3507 -1.0229  1.3856
  251SOL     MW 1004   0.146   0.852   1.978 -0.1907  0.2642 -0.0219
  252SOL     OW 1005   1.722   1.001   2.856  0.0703 -0.1463  0.0631
  252SOL    HW1 1006   1.739   1.038   2.944 -0.2837 -0.1330  1.9037
  252SOL    HW2 1007   1.794   1.026   2.797  1.6768 -0.0345  0.3678
  252SOL     MW 1008   1.734   1.009   2.860  0.2356 -0.1298  0.3461
  253SOL     OW 1009   1.213   1.768   2.563 -1.1343 -0.5028  0.0648
  253SOL    HW1 1010   1.228   1.761   2.468  1.8362  0.9172  0.2663
  253SOL    HW2 1011   1.130   1.812   2.547  0.9253  0.3338  0.0472
  253SOL     MW 1012   1.204   1.773   2.549 -0.4706 -0.2050  0.0891
  254SOL     OW 1013   1.078   1.013   2.236  0.0427  0.4535 -0.1503
  254SOL    HW1 1014   1.047   0.925   2.255  2.1255 -0.3160 -2.3947
  254SOL    HW2 1015   1.010   1.076   2.268 -1.7955  1.1403  3.3603
  254SOL     MW 1016   1.065   1.010   2.243  0.0750  0.4426  0.0168
  255SOL     OW 1017   0.772   2.576   2.158  0.3883  0.0222  0.1408
  255SOL    HW1 1018   0.707   2.530   2.208  0.0390 -0.8396 -0.8544
  255SOL    HW2 1019   0.852   2.568   2.213 -0.4906 -0.3152  2.6048
  255SOL     MW 1020   0.774   2.569   2.172  0.2263 -0.1360  0.3346
  256SOL     OW 1021   1.335   2.668   2.952  0.5983  0.3116 -0.0833
  256SOL    HW1 1022   1.349   2.600   2.884  0.6548  1.3290  3.0607
  256SOL    HW2 1023   1.392   2.740   2.922  1.7299 -0.2110 -0.2804
  256SOL     MW 1024   1.344   2.669   2.939  0.7551  0.3769  0.3055
  257SOL     OW 1025   0.128   1.883   0.068  0.5503 -0.3501  0.3586
  257SOL    HW1 1026   0.162   1.863   0.159  1.5651  0.6479  0.8308
  257SOL    HW2 1027   0.184   1.847  -0.002 -1.3363  0.4543 -0.3403
  257SOL     MW 1028   0.140   1.876   0.070  0.4353 -0.1123  0.3287
  258SOL     OW 1029   0.766   1.045   2.443  0.3719  0.1724  0.2920
  258SOL    HW1 1030   0.802   1.110   2.372  1.3030  0.4168 -1.5013
  258SOL    HW2 1031   0.758   1.081   2.532  0.1950  0.2742  0.7876
  258SOL     MW 1032   0.770   1.059   2.446  0.4714  0.2181  0.1208
  259SOL     OW 1033   0.832   0.376   2.370  0.4892  0.6958  0.2772
  259SOL    HW1 1034   0.763   0.308   2.374 -1.1820 -0.1055 -3.9888
  259SOL    HW2 1035   0.908   0.328   2.404 -3.0584 -2.4560  2.2504
  259SOL     MW 1036   0.833   0.361   2.375 -0.1994  0.1742 -0.0253
  260SOL     OW 1037   0.496   0.141   1.556  0.3976  0.1068 -0.0937
  260SOL    HW1 1038   0.458   0.077   1.494  0.8642 -0.9689  1.0339
  260SOL    HW2 1039   0.596   0.126   1.555  3.1499  0.8380  1.0537
  260SOL     MW 1040   0.505   0.131   1.547  0.8223  0.0613  0.2065
  261SOL     OW 1041   1.165   0.753   2.017 -1.2880 -0.1748  0.1063
  261SOL    HW1 1042   1.210   0.741   2.098 -0.7982 -2.8268 -1.3639
  261SOL    HW2 1043   1.187   0.671   1.976  1.1847 -1.4650 -1.5235
  261SOL     MW 1044   1.174   0.740   2.023 -0.8972 -0.6949 -0.3027
  262SOL     OW 1045   1.027   0.326   0.149 -0.3606 -0.5581 -0.2963
  262SOL    HW1 1046   1.122   0.335   0.124  0.8856 -1.9463  1.2223
  262SOL    HW2 1047   0.989   0.252   0.096 -1.2901 -1.3661  0.7265
  262SOL     MW 1048   1.034   0.317   0.139 -0.3188 -0.8478  0.0390
  263SOL     OW 1049   0.410   0.004   2.492 -0.0173  0.6805 -0.7005
  263SOL    HW1 1050   0.324   0.043   2.471 -2.5641 -0.8775 -0.7776
  263SOL    HW2 1051   0.464   0.019   2.414 -0.9394  1.4996 -1.9566
  263SOL     MW 1052   0.406   0.011   2.479 -0.4750  0.5830 -0.8764
  264SOL     OW 1053   1.475   1.348   1.866 -0.3345  0.2939 -0.9403
  264SOL    HW1 1054   1.399   1.347   1.921 -0.0954 -1.0058  0.6388
  264SOL    HW2 1055   1.543   1.364   1.930  0.2407  2.6662  0.1323
  264SOL     MW 1056   1.474   1.350   1.882 -0.2270  0.4354 -0.5904
  265SOL     OW 1057   0.708   2.809   2.279  0.2469 -0.4736 -0.2316
  265SOL    HW1 1058   0.736   2.729   2.230 -0.2056 -0.1299 -1.4654
  265SOL    HW2 1059   0.720   2.784   2.372  1.3843  2.2904  2.9389
  265SOL     MW 1060   0.714   2.795   2.285  0.3372 -0.0635  0.0240
  266SOL     OW 1061   0.966   0.749   2.223 -0.7046  0.5993 -0.2260
  266SOL    HW1 1062   0.947   0.747   2.129 -1.4246 -3.3505  2.1851
  266SOL    HW2 1063   1.058   0.724   2.226 -2.9889 -0.1885 -0.0568
  266SOL     MW 1064   0.976   0.746   2.211 -1.1010 -0.0258  0.1144
  267SOL     OW 1065   1.443   1.779   2.759 -0.1823  0.0153 -0.6703
  267SOL    HW1 1066   1.463   1.692   2.725 -0.1394 -0.0874 -3.2753
  267SOL    HW2 1067   1.387   1.819   2.697  2.1711 -0.1534  1.8017
  267SOL     MW 1068   1.438   1.773   2.747  0.1338 -0.0205 -0.6878
  268SOL     OW 1069   0.192   0.823   1.661  0.5370  0.2265 -0.1676
  268SOL    HW1 1070   0.138   0.881   1.604 -2.8115  1.3265  1.3912
  268SOL    HW2 1071   0.179   0.728   1.638 -2.2306  1.3696 -1.0238
  268SOL     MW 1072   0.183   0.818   1.650 -0.2700  0.5225 -0.0749
  269SOL     OW 1073   1.419   1.947   2.364  0.1377  0.4526 -0.1810
  269SOL    HW1 1074   1.483   2.020   2.363 -0.7040  0.1028  0.0135
  269SOL    HW2 1075   1.345   1.977   2.409  1.6340 -0.0075  0.2414
  269SOL     MW 1076   1.417   1.960   2.370  0.2240  0.3457 -0.0996
  270SOL     OW 1077   1.119   0.402   1.650 -0.1226  0.3827  0.0075
  270SOL    HW1 1078   1.082   0.315   1.669 -0.6633 -1.5642 -1.8087
  270SOL    HW2 1079   1.208   0.390   1.675  0.3004  1.4785  0.1217
  270SOL     MW 1080   1.126   0.389   1.656 -0.1382  0.2704 -0.2170
  271SOL     OW 1081   0.862   0.015   2.544 -0.7701 -0.1401  0.2159
  271SOL    HW1 1082   0.892  -0.050   2.605 -2.0273  0.1434 -1.6692
  271SOL    HW2 1083   0.937   0.077   2.544  1.8643  0.2094  1.5165
  271SOL     MW 1084   0.876   0.014   2.552 -0.5884 -0.0566  0.1388
  272SOL     OW 1085   1.478   2.862   2.823 -0.7598 -0.5702 -0.6177
  272SOL    HW1 1086   1.430   2.868   2.745 -0.2291  2.5869 -0.4042
  272SOL    HW2 1087   1.518   2.946   2.834 -0.3340  1.2246  2.4834
  272SOL     MW 1088   1.477   2.874   2.814 -0.6336  0.0832 -0.1803
  273SOL     OW 1089   1.450   0.982   2.820  0.1157 -0.4608 -0.1695
  273SOL    HW1 1090   1.540   1.010   2.830 -1.5904 -1.6954 -0.4579
  273SOL    HW2 1091   1.397   1.038   2.878  1.5008  0.4072  1.4597
  273SOL     MW 1092   1.455   0.993   2.829  0.0734 -0.5092  0.0074
  274SOL     OW 1093   1.472   0.715   0.111 -0.6648 -0.2215 -0.4354
  274SOL    HW1 1094   1.498   0.638   0.163 -3.1151  1.6248  1.8307
  274SOL    HW2 1095   1.373   0.709   0.114  2.6346 -0.7786 -0.6856
  274SOL     MW 1096   1.462   0.704   0.118 -0.5528 -0.0514 -0.1695
  275SOL     OW 1097   1.715   0.552   1.745 -0.4033  0.9523 -0.4688
  275SOL    HW1 1098   1.783   0.604   1.786 -0.0241  0.5919 -0.1002
  275SOL    HW2 1099   1.729   0.462   1.777 -0.4995  0.3207  3.1910
  275SOL     MW 1100   1.726   0.547   1.755 -0.3659  0.8214  0.0627
  276SOL     OW 1101   0.323   1.202   1.904  0.0334  0.0479  0.2260
  276SOL    HW1 1102   0.363   1.111   1.918  2.5225 -1.7360 -2.2433
  276SOL    HW2 1103   0.264   1.208   1.981  1.6603  0.2795  1.2385
  276SOL     MW 1104   0.321   1.191   1.916  0.5765 -0.1569  0.0338
  277SOL     OW 1105   1.892   1.266   2.403  0.1978 -0.4664 -0.4784
  277SOL    HW1 1106   1.954   1.331   2.449  2.4309 -2.0400  1.6630
  277SOL    HW2 1107   1.946   1.218   2.337  2.0716 -3.4538  1.5710
  277SOL     MW 1108   1.907   1.268   2.400  0.7397 -1.0681  0.0746
  278SOL     OW 1109   1.451   0.601   1.727 -0.2598 -0.2912 -0.4629
  278SOL    HW1 1110   1.407   0.587   1.815  0.7325  0.7219  0.4687
  278SOL    HW2 1111   1.544   0.598   1.754  0.7665  0.8312  1.1696
  278SOL     MW 1112   1.458   0.599   1.742  0.0065 -0.0094 -0.1246
  279SOL     OW 1113   0.582   0.033   2.261  0.7392  0.2438 -0.0897
  279SOL    HW1 1114   0.672  -0.007   2.266  4.1060  0.6863  0.6866
  279SOL    HW2 1115   0.607   0.124   2.256  1.0840 -1.5295  3.1357
  279SOL     MW 1116   0.597   0.040   2.261  1.2289  0.0682  0.4383
  280SOL     OW 1117   1.488   0.962   2.152  0.4023  0.0459  0.2392
  280SOL    HW1 1118   1.559   0.903   2.123 -0.6168  1.3639  2.2584
  280SOL    HW2 1119   1.485   0.951   2.250  2.7992  1.8200 -0.2265
  280SOL     MW 1120   1.497   0.953   2.161  0.5841  0.4538  0.4442
  281SOL     OW 1121   1.302   1.355   2.776  0.8252 -0.1327  0.0976
  281SOL    HW1 1122   1.394   1.333   2.774 -2.1350  1.3586  0.3747
  281SOL    HW2 1123   1.265   1.292   2.839 -0.5850  1.3331 -0.7177
  281SOL     MW 1124   1.309   1.344   2.784  0.2486  0.2575  0.0266
  282SOL     OW 1125   1.107   1.298   1.691  0.6544 -0.0891 -0.1940
  282SOL    HW1 1126   1.088   1.375   1.630 -2.9694 -1.6763  0.7269
  282SOL    HW2 1127   1.032   1.289   1.752 -2.9822 -0.3035 -1.6446
  282SOL     MW 1128   1.094   1.307   1.691 -0.3035 -0.3268 -0.2639
  283SOL     OW 1129   0.821   1.196   2.992  0.0648  0.0455 -0.3088
  283SOL    HW1 1130   0.867   1.143   3.058  3.4880  1.1023  2.4638
  283SOL    HW2 1131   0.822   1.280   3.036  1.0451  1.0512  1.0307
  283SOL     MW 1132   0.827   1.200   3.007  0.6458  0.3176  0.2337
  284SOL     OW 1133   0.517   0.661   2.391 -0.4749  0.2589 -0.2669
  284SOL    HW1 1134   0.596   0.710   2.349  1.3903 -1.9999  2.1942
  284SOL    HW2 1135   0.491   0.600   2.324 -0.4210 -1.8764  2.6279
  284SOL     MW 1136   0.524   0.659   2.377 -0.2217 -0.3208  0.4398
  285SOL     OW 1137   0.947   0.927   2.815  0.1828 -0.5423 -0.1865
  285SOL    HW1 1138   0.947   0.980   2.736 -0.8023 -0.3708  0.2909
  285SOL    HW2 1139   0.896   0.842   2.806  0.9716 -1.0000  0.8694
  285SOL     MW 1140   0.940   0.923   2.804  0.1569 -0.5800  0.0158
  286SOL     OW 1141   1.167   1.502   2.581 -0.3268  0.4471 -0.2643
  286SOL    HW1 1142   1.188   1.477   2.669 -2.2952  1.7139 -1.8462
  286SOL    HW2 1143   1.195   1.587   2.595  0.2335 -0.6207 -1.2622
  286SOL     MW 1144   1.173   1.510   2.594 -0.5126  0.4734 -0.6047
  287SOL     OW 1145   1.129   0.928   0.305  0.4182  0.0014  0.9033
  287SOL    HW1 1146   1.184   0.966   0.375  2.3546 -2.0500 -2.3528
  287SOL    HW2 1147   1.045   0.969   0.316  1.3872  1.9653  0.0475
  287SOL     MW 1148   1.125   0.939   0.316  0.8016 -0.0101  0.3608
  288SOL     OW 1149   1.533   0.585   2.099 -0.0597  0.4626 -0.3370
  288SOL    HW1 1150   1.548   0.621   2.187  1.5201  0.3231  1.7757
  288SOL    HW2 1151   1.562   0.651   2.034 -0.7058  0.5888  0.7425
  288SOL     MW 1152   1.539   0.598   2.102  0.0635  0.4609  0.0842
  289SOL     OW 1153   1.046   1.031   2.574  0.7906  0.0372  0.0124
  289SOL    HW1 1154   1.069   0.940   2.563  2.4858  1.7672  1.7390
  289SOL    HW2 1155   0.968   1.039   2.522  2.3082  1.9568 -0.3936
  289SOL     MW 1156   1.038   1.020   2.566  1.2145  0.5187  0.1867
  290SOL     OW 1157   0.831   0.654   1.593  0.4940 -0.5034 -0.1376
  290SOL    HW1 1158   0.865   0.623   1.510 -1.2483  0.9108  0.0994
  290SOL    HW2 1159   0.907   0.678   1.648  0.0004 -0.3541  0.4513
  290SOL     MW 1160   0.846   0.653   1.589  0.1990 -0.2971 -0.0286
  291SOL     OW 1161   0.221   0.372   0.111  0.0377  0.6205 -0.1684
  291SOL    HW1 1162   0.278   0.317   0.169  0.1176 -0.5036 -0.2730
  291SOL    HW2 1163   0.183   0.327   0.035 -0.7930  2.4214 -2.9643
  291SOL     MW 1164   0.224   0.359   0.109 -0.0614  0.7098 -0.5511
  292SOL     OW 1165   1.009   0.592   0.100 -0.3460  0.1429  0.0839
  292SOL    HW1 1166   1.086   0.632   0.143  1.9697  0.6531  1.0693
  292SOL    HW2 1167   1.003   0.496   0.117 -1.8467  0.3119  1.7284
  292SOL     MW 1168   1.019   0.585   0.108 -0.2384  0.2325  0.4309
  293SOL     OW 1169   0.159   0.132   2.430 -0.4631  0.0492 -0.3437
  293SOL    HW1 1170   0.085   0.082   2.389 -0.1052  0.0377 -1.0989
  293SOL    HW2 1171   0.123   0.214   2.459  0.0379  1.4049 -0.0450
  293SOL     MW 1172   0.144   0.137   2.428 -0.3498  0.2266 -0.4040
  294SOL     OW 1173   1.485   0.640   2.365 -0.7072 -0.0715  0.1063
  294SOL    HW1 1174   1.513   0.705   2.435  3.5848  4.1821 -0.2723
  294SOL    HW2 1175   1.474   0.554   2.396 -0.8834 -0.4061 -3.2197
  294SOL     MW 1176   1.488   0.637   2.379 -0.1642  0.4456 -0.3825
  295SOL     OW 1177   0.929   0.586   2.525  0.8292 -0.3819  0.1976
  295SOL    HW1 1178   0.873   0.537   2.461 -2.1616 -3.3191 -1.1529
  295SOL    HW2 1179   0.880   0.627   2.595 -0.0180  0.4833 -3.3845
  295SOL     MW 1180   0.915   0.585   2.526  0.3228 -0.6553 -0.4532
  296SOL     OW 1181   1.316   0.261   2.055  0.1706 -0.0555 -0.0527
  296SOL    HW1 1182   1.378   0.190   2.053 -0.1422  0.1582  1.2973
  296SOL    HW2 1183   1.285   0.255   2.152  0.6953  0.0097 -1.2154
  296SOL     MW 1184   1.320   0.251   2.067  0.1986 -0.0187 -0.0280
  297SOL     OW 1185   1.380   0.358   1.624  0.4685 -0.2685 -0.1471
  297SOL    HW1 1186   1.432   0.430   1.664  1.9282  0.8171  1.6334
  297SOL    HW2 1187   1.425   0.276   1.647 -1.3980 -0.4207 -3.1008
  297SOL     MW 1188   1.393   0.357   1.633  0.4149 -0.1454 -0.3019
  298SOL     OW 1189   1.647   0.795   1.983 -0.2865 -0.0081  0.3414
  298SOL    HW1 1190   1.655   0.870   1.927  1.8756 -1.5250  0.2766
  298SOL    HW2 1191   1.730   0.789   2.038  2.3005 -1.1659 -3.1082
  298SOL     MW 1192   1.659   0.804   1.983  0.3401 -0.3610 -0.1223
  299SOL     OW 1193   0.572   1.080   0.054  0.0697 -0.2686  0.2602
  299SOL    HW1 1194   0.639   1.115   0.003 -2.9012 -1.3353 -1.0438
  299SOL    HW2 1195   0.487   1.112   0.026 -1.0920 -1.3068  0.7638
  299SOL     MW 1196   0.570   1.089   0.043 -0.4755 -0.5463  0.1546
  300SOL     OW 1197   1.306   1.133   2.528 -0.5425 -0.1643  0.1843
  300SOL    HW1 1198   1.229   1.079   2.529 -1.1256 -1.2628 -0.1015
  300SOL    HW2 1199   1.330   1.139   2.619  3.9592 -0.4018 -2.9653
  300SOL     MW 1200   1.299   1.127   2.540 -0.0255 -0.3406 -0.2690
  301SOL     OW 1201   1.470   0.913   0.641 -0.2628 -0.2897  0.2603
  301SOL    HW1 1202   1.484   0.925   0.737  2.0062 -0.2783 -2.4913
  301SOL    HW2 1203   1.410   0.843   0.628  0.9337  2.0557 -0.6982
  301SOL     MW 1204   1.464   0.905   0.652  0.1945  0.0212 -0.2292
  302SOL     OW 1205   0.117   1.513   2.004  0.0982  0.6046 -0.1571
  302SOL    HW1 1206   0.117   1.456   2.080 -0.3392 -0.9865  0.9729
  302SOL    HW2 1207   0.060   1.594   2.031 -1.2181  1.3420 -2.8836
  302SOL     MW 1208   0.109   1.516   2.018 -0.1332  0.4919 -0.3677
  303SOL     OW 1209   0.391   1.741   2.605  0.5123  0.3553 -0.6869
  303SOL    HW1 1210   0.382   1.679   2.530  2.3977  0.3006 -1.2218
  303SOL    HW2 1211   0.304   1.781   2.626 -2.4937  1.1016 -0.5651
  303SOL     MW 1212   0.378   1.738   2.598  0.3644  0.4466 -0.7414
  304SOL     OW 1213   0.567   2.073   2.362  0.5793  0.2639  0.2952
  304SOL    HW1 1214   0.627   2.112   2.294 -0.1496 -1.6989  1.8740
  304SOL    HW2 1215   0.599   1.981   2.378  0.8218 -0.2647 -0.2349
  304SOL     MW 1216   0.579   2.066   2.355  0.5151 -0.0648  0.4335
  305SOL     OW 1217   1.119   0.583   0.453 -0.4412 -0.1600 -0.1549
  305SOL    HW1 1218   1.023   0.567   0.455 -2.0023  0.3502 -0.2639
  305SOL    HW2 1219   1.143   0.501   0.499 -2.5037 -2.4369  0.0625
  305SOL     MW 1220   1.110   0.570   0.459 -0.9193 -0.3931 -0.1406
  306SOL     OW 1221   1.159   1.459   0.270  0.1553 -0.2504  0.0344
  306SOL    HW1 1222   1.203   1.379   0.308 -0.0191  0.6403 -0.4006
  306SOL    HW2 1223   1.228   1.490   0.211  0.5059 -2.7111  4.8823
  306SOL     MW 1224   1.174   1.452   0.267  0.1786 -0.4575  0.6166
  307SOL     OW 1225   1.318   0.517   1.958 -0.4299  0.6459 -0.0409
  307SOL    HW1 1226   1.314   0.422   1.985  1.5467 -2.4899 -0.6113
  307SOL    HW2 1227   1.401   0.557   1.998  0.9727  0.0593  0.3632
  307SOL     MW 1228   1.329   0.510   1.967  0.0160  0.1548 -0.0628
  308SOL     OW 1229   2.147   0.545   2.725  0.3088 -0.2201 -0.1688
  308SOL    HW1 1230   2.238   0.538   2.727 -2.1093  3.3968  0.5433
  308SOL    HW2 1231   2.122   0.640   2.728 -1.2986 -1.2335 -0.7981
  308SOL     MW 1232   2.156   0.556   2.725 -0.2223  0.1234 -0.1579
  309SOL     OW 1233   0.460   0.422   0.353  0.1214  0.2822 -0.2823
  309SOL    HW1 1234   0.519   0.381   0.414  0.6110  1.4888  0.4215
  309SOL    HW2 1235   0.498   0.394   0.270 -0.5304  1.5584 -1.5600
  309SOL     MW 1236   0.473   0.413   0.350  0.1000  0.6098 -0.3581
  310SOL     OW 1237   0.470   0.634   1.939 -0.7242  0.3285  0.0513
  310SOL    HW1 1238   0.528   0.562   1.899 -1.5600  1.1142 -2.0245
  310SOL    HW2 1239   0.526   0.710   1.928 -0.0927  4.0644 -2.0300
  310SOL     MW 1240   0.485   0.634   1.932 -0.7512  0.9251 -0.4972
  311SOL     OW 1241   1.929   0.649   1.900  0.0166 -0.8494  0.1138
  311SOL    HW1 1242   1.898   0.660   1.991 -1.0857 -0.9830  3.0849
  311SOL    HW2 1243   1.969   0.563   1.916  0.4104  1.0820  0.7135
  311SOL     MW 1244   1.930   0.639   1.914 -0.0769 -0.6122  0.5849
  312SOL     OW 1245   1.768   2.527   0.129  0.9179 -0.8944 -0.3070
  312SOL    HW1 1246   1.842   2.535   0.190  1.1946 -0.0576 -0.6049
  312SOL    HW2 1247   1.689   2.578   0.169 -1.1577 -1.4027  0.9489
  312SOL     MW 1248   1.767   2.535   0.143  0.6806 -0.8510 -0.1806
  313SOL     OW 1249   0.117   1.102   2.984  0.5875 -0.6987 -0.4520
  313SOL    HW1 1250   0.055   1.118   3.055  0.1464 -0.4543 -0.2749
  313SOL    HW2 1251   0.151   1.185   2.956  0.8190 -2.3093  0.7938
  313SOL     MW 1252   0.113   1.115   2.990  0.5599 -0.8790 -0.2643
  314SOL     OW 1253   2.179   2.939   2.963  0.3703  0.6469 -0.5235
  314SOL    HW1 1254   2.114   2.993   2.921  1.3162 -1.8980  1.0876
  314SOL    HW2 1255   2.238   2.995   3.012 -0.5691 -1.5604  0.3515
  314SOL     MW 1256   2.178   2.953   2.964  0.3711  0.0199 -0.1955
  315SOL     OW 1257   1.508   1.964   0.022 -0.3112 -0.3670  0.3824
  315SOL    HW1 1258   1.443   1.990   0.088 -0.1389  0.3085  0.1770
  315SOL    HW2 1259   1.502   2.015  -0.056  1.2484  0.4962 -1.6938
  315SOL     MW 1260   1.498   1.974   0.021 -0.0827 -0.1640  0.0814
  316SOL     OW 1261   1.262   0.657   2.716 -0.2756 -0.6268 -0.2064
  316SOL    HW1 1262   1.344   0.685   2.683 -0.4463  0.4900 -1.1783
  316SOL    HW2 1263   1.275   0.679   2.807 -1.0944 -0.1535  1.8465
  316SOL     MW 1264   1.275   0.664   2.723 -0.4062 -0.4170 -0.0638
  317SOL     OW 1265   0.720   1.423   2.578 -0.3224 -0.7573 -0.4699
  317SOL    HW1 1266   0.807   1.374   2.579  0.1472  1.1881 -0.8684
  317SOL    HW2 1267   0.734   1.472   2.488  0.1993 -0.5083 -1.6752
  317SOL     MW 1268   0.733   1.423   2.567 -0.1916 -0.4678 -0.6815
  318SOL     OW 1269   1.330   0.354   2.917  0.5341 -0.2347 -0.0069
  318SOL    HW1 1270   1.231   0.383   2.923 -1.8656  1.3509  1.1917
  318SOL    HW2 1271   1.392   0.426   2.947 -0.0470  1.2555 -0.9574
  318SOL     MW 1272   1.325   0.367   2.922  0.1408  0.1711  0.0258
  319SOL     OW 1273   0.801   0.432   2.886  0.2213  0.2193  0.3252
  319SOL    HW1 1274   0.788   0.365   2.819  2.0822 -0.0302  1.3592
  319SOL    HW2 1275   0.740   0.420   2.958  1.8912  2.7339 -0.5387
  319SOL     MW 1276   0.791   0.421   2.887  0.6871  0.5182  0.3477
  320SOL     OW 1277   1.059   1.349   1.987 -0.4194 -0.1450  0.9116
  320SOL    HW1 1278   1.128   1.297   2.029 -0.2869  0.6418 -1.1396
  320SOL    HW2 1279   1.113   1.416   1.944  1.8544  0.5573  2.1906
  320SOL     MW 1280   1.075   1.351   1.987 -0.1019  0.0515  0.8097
  321SOL     OW 1281   1.154   0.914   3.036  1.0087  0.1085 -0.1355
  321SOL    HW1 1282   1.092   0.910   2.968 -1.2144 -0.2848  2.3122
  321SOL    HW2 1283   1.220   0.844   3.027  0.4006 -0.5122  1.2251
  321SOL     MW 1284   1.155   0.904   3.026  0.6352 -0.0252  0.3670
  322SOL     OW 1285   1.268   0.859   1.686 -0.1878  0.0562  0.1047
  322SOL    HW1 1286   1.356   0.823   1.702 -2.0429  1.4036 -0.3836
  322SOL    HW2 1287   1.242   0.912   1.765 -0.1762  2.2428 -2.2156
  322SOL     MW 1288   1.276   0.861   1.699 -0.4310  0.5225 -0.2659
  323SOL     OW 1289   1.233   1.572   1.909 -0.1058 -0.4576  0.4342
  323SOL    HW1 1290   1.275   1.546   1.822 -1.6917 -0.3052 -2.9382
  323SOL    HW2 1291   1.159   1.634   1.886 -1.2139 -0.7513 -0.9407
  323SOL     MW 1292   1.229   1.577   1.894 -0.4612 -0.4762 -0.1922
  324SOL     OW 1293   1.473   0.970   2.420 -0.4138 -0.0373  0.1217
  324SOL    HW1 1294   1.404   1.039   2.423  3.3130 -3.6549 -2.5498
  324SOL    HW2 1295   1.550   1.018   2.456 -0.1848 -2.3241  0.0115
  324SOL     MW 1296   1.474   0.986   2.425  0.1081 -0.8164 -0.2454
  325SOL     OW 1297   1.051   0.460   2.972 -0.5518  0.7248 -0.4301
  325SOL    HW1 1298   1.059   0.511   3.052 -2.0617 -1.1018  1.9083
  325SOL    HW2 1299   0.954   0.452   2.938  1.1718  0.0709 -1.2191
  325SOL     MW 1300   1.039   0.466   2.978 -0.5236  0.3975 -0.2257
  326SOL     OW 1301   0.485   1.381   2.255 -0.4481  0.3445  1.3931
  326SOL    HW1 1302   0.537   1.332   2.192 -1.7310  0.8469  0.7799
  326SOL    HW2 1303   0.513   1.466   2.235 -3.1024 -0.9021  1.3418
  326SOL     MW 1304   0.495   1.386   2.244 -0.9676  0.2463  1.3055
  327SOL     OW 1305   1.935   0.796   2.431  0.2442  0.3432  0.4403
  327SOL    HW1 1306   1.905   0.777   2.520  0.3039 -2.9480  1.3688
  327SOL    HW2 1307   2.014   0.843   2.439 -2.4891  1.1958  0.2378
  327SOL     MW 1308   1.941   0.800   2.444 -0.1086  0.0214  0.5361
  328SOL     OW 1309   0.179   1.330   2.248  0.3576  0.7667  0.3671
  328SOL    HW1 1310   0.145   1.257   2.197  1.3327  2.6540  1.1518
  328SOL    HW2 1311   0.275   1.318   2.253  3.0749  0.9490 -1.0422
  328SOL     MW 1312   0.187   1.319   2.242  0.8448  1.0397  0.2847
  329SOL     OW 1313   0.148   0.216   1.324  0.0894  0.3014  0.5937
  329SOL    HW1 1314   0.118   0.224   1.416  2.7281 -1.3609 -1.2556
  329SOL    HW2 1315   0.237   0.241   1.334 -3.9927  3.3674  0.0104
  329SOL     MW 1316   0.156   0.220   1.338 -0.1011  0.4866  0.2727
  330SOL     OW 1317   0.387   0.006   2.072 -0.4235  0.2065  0.0015
  330SOL    HW1 1318   0.458   0.023   2.138  0.7313 -0.5163  1.6548
  330SOL    HW2 1319   0.318  -0.046   2.123 -1.4505 -1.7479  0.2611
  330SOL     MW 1320   0.388   0.002   2.087 -0.4066 -0.1467  0.2539
  331SOL     OW 1321   0.884   1.218   2.282  0.6288  0.1626 -0.2699
  331SOL    HW1 1322   0.800   1.219   2.224 -1.9052 -1.5955  2.1049
  331SOL    HW2 1323   0.881   1.296   2.346  1.0907  1.2367  0.0755
  331SOL     MW 1324   0.873   1.228   2.283  0.3554  0.0723  0.0890
  332SOL     OW 1325   1.332   1.757   3.012 -0.0087  0.5454 -0.6653
  332SOL    HW1 1326   1.365   1.750   2.921  1.4555 -1.4629 -0.6974
  332SOL    HW2 1327   1.367   1.841   3.041  0.3928 -3.1143 -1.5085
  332SOL     MW 1328   1.341   1.767   3.004  0.2374 -0.2025 -0.7808
  333SOL     OW 1329   1.767   1.388   2.982  0.8435 -0.0856 -0.0422
  333SOL    HW1 1330   1.849   1.407   3.012 -0.6933  2.1751 -1.3891
  333SOL    HW2 1331   1.718   1.387   3.065 -0.1913 -0.9511  1.2570
  333SOL     MW 1332   1.771   1.390   2.997  0.5042  0.0985 -0.0485
  334SOL     OW 1333   1.388   0.003   2.619 -0.1466  0.2012  0.0033
  334SOL    HW1 1334   1.298  -0.015   2.645 -1.0930 -2.8465 -2.5869
  334SOL    HW2 1335   1.399   0.093   2.650 -1.7643  0.6700  0.4095
  334SOL     MW 1336   1.378   0.013   2.627 -0.4849 -0.1391 -0.2849
  335SOL     OW 1337   1.366   0.763   2.947  0.2465 -0.2339 -0.0475
  335SOL    HW1 1338   1.427   0.734   3.012  0.4359 -1.1914 -0.4338
  335SOL    HW2 1339   1.399   0.838   2.899 -1.4169  2.9212 -0.1456
  335SOL     MW 1340   1.378   0.769   2.949  0.0520  0.0560 -0.1114
  336SOL     OW 1341   0.958   1.085   1.953  0.4875  0.8514 -0.7341
  336SOL    HW1 1342   0.956   1.172   2.004 -0.8350  1.7920 -0.6480
  336SOL    HW2 1343   1.039   1.035   1.969 -1.5780 -0.3291  0.7430
  336SOL     MW 1344   0.969   1.090   1.962  0.0404  0.8197 -0.5278
  337SOL     OW 1345   0.590   1.838   2.794 -0.2286 -0.2820 -0.1125
  337SOL    HW1 1346   0.515   1.828   2.741  0.4065  2.1726  0.9889
  337SOL    HW2 1347   0.656   1.788   2.742  1.1502  0.2793 -1.0514
  337SOL     MW 1348   0.589   1.830   2.780  0.0371  0.1159 -0.0910
  338SOL     OW 1349   1.119   0.787   2.536  0.1047 -0.7538  0.1491
  338SOL    HW1 1350   1.048   0.719   2.514 -1.9690 -2.0382 -0.7342
  338SOL    HW2 1351   1.176   0.756   2.614  2.5458 -0.0072  1.2479
  338SOL     MW 1352   1.117   0.774   2.543  0.1532 -0.8248  0.1776
  339SOL     OW 1353   1.488   1.031   1.823 -1.1271 -0.3608  0.3612
  339SOL    HW1 1354   1.441   1.056   1.746 -1.1101  0.6892  0.8109
  339SOL    HW2 1355   1.435   1.047   1.897  0.0187  2.0527 -0.4862
  339SOL     MW 1356   1.475   1.036   1.822 -0.9737  0.0961  0.3087
  340SOL     OW 1357   1.314   1.546   0.068 -0.6417  0.0828 -0.0876
  340SOL    HW1 1358   1.303   1.610   0.002  0.1065  1.3626  0.0485
  340SOL    HW2 1359   1.407   1.527   0.063 -1.2334  1.6906 -0.0313
  340SOL     MW 1360   1.324   1.552   0.059 -0.6210  0.4638 -0.0622
  341SOL     OW 1361   0.156   1.425   2.750 -0.3223  0.0706  0.1993
  341SOL    HW1 1362   0.238   1.385   2.736 -0.6584 -0.3324  1.2482
  341SOL    HW2 1363   0.098   1.381   2.685  1.6726 -1.6651 -2.1439
  341SOL     MW 1364   0.159   1.414   2.740 -0.1035 -0.2115  0.0286
  342SOL     OW 1365   1.298   0.343   0.082  0.2610 -0.2506  0.2073
  342SOL    HW1 1366   1.359   0.402   0.119 -0.3076 -0.0930  0.3561
  342SOL    HW2 1367   1.310   0.348  -0.013 -2.0692 -0.8943 -0.5783
  342SOL     MW 1368   1.307   0.352   0.075 -0.1215 -0.3147  0.1233
  343SOL     OW 1369   0.227   0.287   2.150  0.7864 -0.1444  0.2336
  343SOL    HW1 1370   0.227   0.212   2.218 -0.0659 -0.6647  0.7161
  343SOL    HW2 1371   0.231   0.240   2.067 -2.0984 -1.5814  0.6428
  343SOL     MW 1372   0.228   0.271   2.148  0.2933 -0.4026  0.3513
  344SOL     OW 1373   1.740   2.062   0.174  0.5039 -0.3306 -0.5549
  344SOL    HW1 1374   1.750   2.153   0.148  0.5522 -1.8452  0.8377
  344SOL    HW2 1375   1.661   2.042   0.127  0.5280  0.0878  5.5813
  344SOL     MW 1376   1.731   2.072   0.164  0.5135 -0.4752  0.4384
  345SOL     OW 1377   0.779   1.584   2.345 -0.1632 -0.3292 -0.6441
  345SOL    HW1 1378   0.702   1.612   2.301  1.3422 -1.5522  2.5072
  345SOL    HW2 1379   0.838   1.577   2.273  1.1110  0.0821  1.5033
  345SOL     MW 1380   0.777   1.587   2.330  0.2036 -0.4363  0.0550
  346SOL     OW 1381   1.770   1.050   0.007  0.3270  0.3949 -0.1699
  346SOL    HW1 1382   1.858   1.016   0.004  1.1599  0.4057  4.0631
  346SOL    HW2 1383   1.722   1.003   0.074  1.0692 -0.5963 -1.4151
  346SOL     MW 1384   1.775   1.039   0.015  0.5348  0.2656  0.2243
  347SOL     OW 1385   1.234   0.714   2.284 -0.1751 -0.4345  0.2650
  347SOL    HW1 1386   1.316   0.669   2.303  1.7573 -0.6220  1.0554
  347SOL    HW2 1387   1.212   0.755   2.370 -1.3594  0.9540  1.3178
  347SOL     MW 1388   1.242   0.714   2.298 -0.0764 -0.2760  0.5082
  348SOL     OW 1389   1.412   2.681   1.916 -0.5186  0.6444  0.3111
  348SOL    HW1 1390   1.449   2.594   1.949  0.0817  0.9142 -0.6436
  348SOL    HW2 1391   1.423   2.736   1.991 -0.5644 -3.5399  1.4496
  348SOL     MW 1392   1.418   2.677   1.930 -0.4455  0.1279  0.3353
  349SOL     OW 1393   1.483   0.278   2.705 -0.6878 -0.2049 -0.2247
  349SOL    HW1 1394   1.418   0.307   2.766 -0.3896  1.3013 -0.6786
  349SOL    HW2 1395   1.570   0.288   2.754  0.4693 -2.2043  4.3431
  349SOL     MW 1396   1.486   0.283   2.719 -0.4958 -0.2699  0.3181
  350SOL     OW 1397   1.842   0.640   2.675 -0.8379 -0.0111 -0.5767
  350SOL    HW1 1398   1.786   0.572   2.626  2.1607 -1.3123 -0.6404
  350SOL    HW2 1399   1.924   0.592   2.674  1.6432 -1.4196 -0.0682
  350SOL     MW 1400   1.845   0.624   2.669 -0.1149 -0.3686 -0.5180
  351SOL     OW 1401   0.063   1.000   1.494  0.2442  0.0499  0.5359
  351SOL    HW1 1402  -0.013   1.031   1.551  1.3827  4.5258  0.6626
  351SOL    HW2 1403   0.130   1.066   1.503  0.6012  3.3642  1.2193
  351SOL     MW 1404   0.062   1.013   1.503  0.4415  1.0777  0.6428
  352SOL     OW 1405   0.820   1.651   2.678 -0.0353 -0.4232 -0.1956
  352SOL    HW1 1406   0.891   1.631   2.744  1.3141  0.1972  1.3651
  352SOL    HW2 1407   0.790   1.564   2.650 -0.1563  1.8818  2.0555
  352SOL     MW 1408   0.826   1.637   2.683  0.1268 -0.0372  0.3073
  353SOL     OW 1409   3.058   2.510   2.638 -0.0566  0.7440  0.2582
  353SOL    HW1 1410   3.150   2.533   2.628 -1.7156 -0.3162 -0.2439
  353SOL    HW2 1411   3.002   2.588   2.615 -3.2319  1.2230 -1.6537
  353SOL     MW 1412   3.063   2.524   2.634 -0.6944  0.6673 -0.0603
  354SOL     OW 1413   0.286   2.509   0.794 -0.3362 -0.2831 -0.3410
  354SOL    HW1 1414   0.337   2.481   0.874  1.0735 -2.2968  0.1641
  354SOL    HW2 1415   0.218   2.440   0.799 -0.1540 -2.3716 -1.0539
  354SOL     MW 1416   0.283   2.496   0.805 -0.1262 -0.8244 -0.3684
  355SOL     OW 1417   0.074   2.274   0.379 -0.4412 -0.3536  0.1404
  355SOL    HW1 1418  -0.010   2.224   0.378  0.1814 -0.1316  2.9361
  355SOL    HW2 1419   0.057   2.327   0.458 -0.6933  0.7372  0.2326
  355SOL     MW 1420   0.061   2.274   0.389 -0.3923 -0.1804  0.5214
  356SOL     OW 1421   0.808   2.804   0.958 -0.1066  0.4260  0.3096
  356SOL    HW1 1422   0.832   2.854   0.874 -0.8007 -0.5925 -1.5868
  356SOL    HW2 1423   0.712   2.798   0.951  2.7245  0.6623 -0.8592
  356SOL     MW 1424   0.798   2.810   0.946  0.1754  0.3228 -0.0948
  357SOL     OW 1425   1.785   2.922   0.418  0.0274 -0.4586 -0.0389
  357SOL    HW1 1426   1.721   2.872   0.476 -1.6194  0.4671  1.0214
  357SOL    HW2 1427   1.867   2.880   0.390  2.9059 -0.1313  1.5752
  357SOL     MW 1428   1.787   2.910   0.422  0.1899 -0.2933  0.3140
  358SOL     OW 1429   0.472   0.154   1.092  0.0924  0.7663 -0.4864
  358SOL    HW1 1430   0.559   0.117   1.064 -0.5835 -1.0702 -0.9570
  358SOL    HW2 1431   0.431   0.176   0.999 -1.5116  2.0108  0.7239
  358SOL     MW 1432   0.478   0.152   1.076 -0.2084  0.6882 -0.3888
  359SOL     OW 1433   0.877   2.946   1.878  0.0174 -0.6898  0.3416
  359SOL    HW1 1434   0.875   2.850   1.887  0.8873  1.6120  0.5899
  359SOL    HW2 1435   0.910   2.969   1.791  1.2580  4.4991  0.5109
  359SOL     MW 1436   0.881   2.936   1.868  0.2958  0.2985  0.3967
  360SOL     OW 1437   0.546   2.761   0.953  0.5774  0.4023 -0.5415
  360SOL    HW1 1438   0.526   2.724   0.868 -0.1011  0.2881 -1.0736
  360SOL    HW2 1439   0.541   2.693   1.023  1.2114 -1.9285  0.2752
  360SOL     MW 1440   0.542   2.747   0.951  0.5715  0.0797 -0.5040
  361SOL     OW 1441   0.166   2.669   1.362  0.3176 -0.6498  0.6283
  361SOL    HW1 1442   0.137   2.747   1.414  0.8053 -0.0849  0.7586
  361SOL    HW2 1443   0.261   2.680   1.361 -0.5247 -2.2080 -0.7086
  361SOL     MW 1444   0.175   2.681   1.369  0.2708 -0.7809  0.4691
  362SOL     OW 1445   1.491   2.421   0.609  0.3422 -0.3004  0.1172
  362SOL    HW1 1446   1.547   2.365   0.665 -2.2004 -1.7086  1.8624
  362SOL    HW2 1447   1.489   2.501   0.656 -2.4259 -1.5974 -1.3314
  362SOL     MW 1448   1.498   2.424   0.623 -0.3585 -0.6573  0.1563
  363SOL     OW 1449   0.341   3.060   0.692  0.1143 -0.0650 -0.0256
  363SOL    HW1 1450   0.338   2.994   0.769  0.3460 -0.1346  1.4643
  363SOL    HW2 1451   0.253   3.064   0.666 -0.6863 -1.5333 -1.1116
  363SOL     MW 1452   0.329   3.052   0.699  0.0392 -0.2679  0.0277
  364SOL     OW 1453   0.713   0.186   0.220  0.0741  0.1024  0.8103
  364SOL    HW1 1454   0.632   0.131   0.235 -1.9832  0.9618 -1.2515
  364SOL    HW2 1455   0.686   0.261   0.172  1.7386  0.4319  2.0104
  364SOL     MW 1456   0.699   0.189   0.216  0.0223  0.2593  0.6966
  365SOL     OW 1457   0.972   1.988   1.088  0.1573 -0.0528 -0.2032
  365SOL    HW1 1458   0.954   2.082   1.088 -0.3450  2.9914  1.3222
  365SOL    HW2 1459   0.894   1.943   1.056  0.5866 -0.2804  0.4506
  365SOL     MW 1460   0.959   1.995   1.084  0.1477  0.3188  0.0843
  366SOL     OW 1461   2.818   2.654   1.014 -0.0738  0.5242  0.1193
  366SOL    HW1 1462   2.903   2.648   1.071 -0.5209 -0.0381 -0.5467
  366SOL    HW2 1463   2.838   2.681   0.926 -1.6268 -1.7270  1.8842
  366SOL     MW 1464   2.832   2.657   1.010 -0.3377  0.1530  0.2643
  367SOL     OW 1465   1.273   2.948   0.842  0.1770  0.6757  0.1045
  367SOL    HW1 1466   1.241   3.029   0.810  0.0015  0.0621 -4.0296
  367SOL    HW2 1467   1.226   2.877   0.788  0.6361  0.9598 -0.6332
  367SOL     MW 1468   1.263   2.949   0.831  0.2144  0.6322 -0.5383
  368SOL     OW 1469   1.643   0.418   0.688 -0.8129  0.4222 -0.2843
  368SOL    HW1 1470   1.718   0.369   0.649  3.0087  0.2458 -0.5209
  368SOL    HW2 1471   1.664   0.509   0.672 -2.0352 -1.1074  2.1832
  368SOL     MW 1472   1.655   0.424   0.681 -0.4700  0.1971  0.0101
  369SOL     OW 1473   0.119   2.525   1.676  0.3259  0.0701  0.6036
  369SOL    HW1 1474   0.216   2.529   1.701 -1.4750  3.5619  0.6016
  369SOL    HW2 1475   0.094   2.604   1.718  2.1037 -1.2190 -0.2069
  369SOL     MW 1476   0.128   2.536   1.685  0.3229  0.3607  0.4964
  370SOL     OW 1477   0.716   0.082   0.994 -0.5779  0.0518  0.9966
  370SOL    HW1 1478   0.769   0.165   0.999 -1.3477  1.1244  2.5496
  370SOL    HW2 1479   0.779   0.019   1.024  2.5486  3.0598 -1.9417
  370SOL     MW 1480   0.731   0.085   0.999 -0.2669  0.5902  0.8138
  371SOL     OW 1481   1.333   2.904   1.527 -0.8813 -0.1100  0.3501
  371SOL    HW1 1482   1.267   2.843   1.489 -1.2173 -2.5745  1.8037
  371SOL    HW2 1483   1.320   2.990   1.480 -2.2643  1.1540 -0.9445
  371SOL     MW 1484   1.323   2.907   1.516 -1.1081 -0.2684  0.3711
  372SOL     OW 1485   0.760   2.308   0.457  0.1987  0.2580 -0.3431
  372SOL    HW1 1486   0.742   2.215   0.484 -2.3627  2.7694  0.4478
  372SOL    HW2 1487   0.798   2.299   0.370  1.1018 -1.2950 -2.5566
  372SOL     MW 1488   0.762   2.294   0.449 -0.0201  0.3844 -0.5308
  373SOL     OW 1489   2.755   3.018   1.435 -0.0668 -0.4216  0.4821
  373SOL    HW1 1490   2.836   3.009   1.389 -0.5732  0.6647  3.0753
  373SOL    HW2 1491   2.712   3.089   1.390  2.2564 -1.4750 -0.3939
  373SOL     MW 1492   2.760   3.026   1.423  0.1729 -0.4172  0.7087
  374SOL     OW 1493   1.496   0.465   0.241  0.2555 -0.0599  0.8144
  374SOL    HW1 1494   1.553   0.398   0.199  0.0431 -2.1644 -1.1859
  374SOL    HW2 1495   1.481   0.426   0.329  0.3853  0.0107  1.4638
  374SOL     MW 1496   1.501   0.451   0.247  0.2446 -0.3283  0.6361
  375SOL     OW 1497   0.992   2.085   2.304 -1.2928  0.2044 -0.2521
  375SOL    HW1 1498   1.035   2.071   2.394  1.1954  1.7642  0.1985
  375SOL    HW2 1499   1.007   2.004   2.253  2.1660 -0.7198 -4.4112
  375SOL     MW 1500   1.000   2.073   2.309 -0.5081  0.2883 -0.7414
  376SOL     OW 1501   0.668   2.576   0.064  0.5644 -0.5022  0.3274
  376SOL    HW1 1502   0.635   2.539   0.146  3.2046  2.7022 -4.3952
  376SOL    HW2 1503   0.670   2.501   0.007 -2.1362  2.6687 -1.8839
  376SOL     MW 1504   0.664   2.562   0.067  0.5565  0.3390 -0.5875
  377SOL     OW 1505   1.281   2.026   0.867 -0.2251 -0.4904 -0.0361
  377SOL    HW1 1506   1.202   2.021   0.813 -0.2311 -1.8278  0.7380
  377SOL    HW2 1507   1.275   1.973   0.946 -0.0685  3.3845  0.1310
  377SOL     MW 1508   1.270   2.019   0.871 -0.2052 -0.1556  0.0881
  378SOL     OW 1509   0.960   2.793   1.613 -0.6987 -0.0835 -0.5839
  378SOL    HW1 1510   0.920   2.710   1.597 -0.7762  1.2953 -2.1290
  378SOL    HW2 1511   0.908   2.852   1.556 -0.2000  2.9293 -1.1251
  378SOL     MW 1512   0.948   2.790   1.604 -0.6431  0.4959 -0.8592
  379SOL     OW 1513   1.166   1.771   2.268  0.3065 -0.2129  0.1876
  379SOL    HW1 1514   1.074   1.752   2.273  0.7535 -0.7126  0.4777
  379SOL    HW2 1515   1.208   1.688   2.243 -2.6042 -1.6430 -0.4611
  379SOL     MW 1516   1.159   1.758   2.265 -0.0186 -0.4675  0.1403
  380SOL     OW 1517   0.773   0.081   1.575  0.0554  0.6130  0.7791
  380SOL    HW1 1518   0.778   0.070   1.476 -1.2632 -2.7375 -0.9181
  380SOL    HW2 1519   0.864   0.110   1.596 -0.3549  2.1164 -1.7633
  380SOL     MW 1520   0.786   0.083   1.565 -0.1727  0.3693  0.2197
  381SOL     OW 1521   0.810   2.042   0.779  0.0798 -0.2643  0.0927
  381SOL    HW1 1522   0.902   2.029   0.765 -0.8211 -2.9629  0.5797
  381SOL    HW2 1523   0.815   2.129   0.827 -0.7459  3.7334 -1.9381
  381SOL     MW 1524   0.823   2.052   0.784 -0.1480 -0.0929 -0.1110
  382SOL     OW 1525   0.660   0.113   0.715  0.5192 -0.3679  0.5192
  382SOL    HW1 1526   0.651   0.110   0.818 -1.2119 -0.3524  0.5578
  382SOL    HW2 1527   0.626   0.027   0.696  0.2817 -0.8479 -1.1698
  382SOL     MW 1528   0.654   0.101   0.726  0.2595 -0.4292  0.3014
  383SOL     OW 1529   0.561   3.040   0.300 -0.5374  0.4467 -0.1422
  383SOL    HW1 1530   0.607   2.989   0.234 -0.9826 -1.2323 -0.3008
  383SOL    HW2 1531   0.504   2.984   0.342  1.4507 -1.3285 -0.6541
  383SOL     MW 1532   0.560   3.026   0.297 -0.3338 -0.0090 -0.2306
  384SOL     OW 1533   0.628   2.904   0.624 -0.0587 -0.2248  0.2257
  384SOL    HW1 1534   0.707   2.887   0.675  0.1049 -1.2578  1.8556
  384SOL    HW2 1535   0.578   2.820   0.635  0.6134 -1.6103 -0.2354
  384SOL     MW 1536   0.632   2.891   0.632  0.0515 -0.5439  0.3799
  385SOL     OW 1537   1.339   2.096   1.528  0.3105 -0.2896 -0.0349
  385SOL    HW1 1538   1.429   2.115   1.567  2.0942  0.3904 -1.4814
  385SOL    HW2 1539   1.322   2.017   1.578 -0.9000  2.0695 -0.6100
  385SOL     MW 1540   1.349   2.088   1.540  0.3861  0.1114 -0.3016
  386SOL     OW 1541   1.309   0.399   0.866  0.0198  0.4018  0.3640
  386SOL    HW1 1542   1.238   0.429   0.922  1.3440  1.1048  2.0144
  386SOL    HW2 1543   1.337   0.329   0.926 -0.0274  2.2227  0.6209
  386SOL     MW 1544   1.304   0.393   0.881  0.1883  0.7348  0.6156
  387SOL     OW 1545   0.840   2.178   1.484 -0.4423  0.2701  0.2106
  387SOL    HW1 1546   0.897   2.237   1.437  0.0988  1.4046  0.4976
  387SOL    HW2 1547   0.844   2.099   1.429 -1.8802  2.5389 -1.2599
  387SOL     MW 1548   0.848   2.176   1.471 -0.5607  0.7191  0.0545
  388SOL     OW 1549   1.567   2.807   1.227 -0.2130 -0.0742 -0.0817
  388SOL    HW1 1550   1.481   2.774   1.219  1.0908  1.4771 -1.2827
  388SOL    HW2 1551   1.634   2.746   1.196 -0.0628 -0.7359 -1.0708
  388SOL     MW 1552   1.564   2.795   1.222 -0.0211  0.0432 -0.3707
  389SOL     OW 1553   0.457   0.073   3.023  0.2065  0.4326 -0.9614
  389SOL    HW1 1554   0.545   0.050   2.999 -3.6783  1.3990 -0.8738
  389SOL    HW2 1555   0.427   0.098   2.937 -0.8339 -0.0625  2.2999
  389SOL     MW 1556   0.465   0.073   3.009 -0.4433  0.4948 -0.5195
  390SOL     OW 1557   1.282   0.095   0.689 -0.2536 -0.3542  1.0256
  390SOL    HW1 1558   1.356   0.088   0.631  3.0509 -2.6200  4.0701
  390SOL    HW2 1559   1.321   0.112   0.772 -0.7957  0.2076 -1.4805
  390SOL     MW 1560   1.297   0.096   0.693  0.1109 -0.5790  1.0967
  391SOL     OW 1561   0.313   2.216   1.407  0.0987  0.0963  0.2441
  391SOL    HW1 1562   0.266   2.126   1.423 -2.7734  0.4622 -1.1731
  391SOL    HW2 1563   0.252   2.292   1.410  0.4877  0.2783  0.6777
  391SOL     MW 1564   0.299   2.214   1.409 -0.2289  0.1686  0.1144
  392SOL     OW 1565   2.083   2.190   0.332  0.2558  0.2761 -0.3027
  392SOL    HW1 1566   2.173   2.162   0.348  0.5768  1.7307  0.0745
  392SOL    HW2 1567   2.059   2.269   0.385 -0.2159 -1.0357 -0.7932
  392SOL     MW 1568   2.092   2.196   0.341  0.2359  0.2949 -0.3176
  393SOL     OW 1569   0.164   3.023   2.743  0.4665  0.0981 -0.2589
  393SOL    HW1 1570   0.255   3.026   2.728 -1.1793  1.0470  3.4529
  393SOL    HW2 1571   0.138   3.112   2.766  1.9597  1.1416 -0.4576
  393SOL     MW 1572   0.173   3.035   2.744  0.4463  0.3610  0.2046
  394SOL     OW 1573   0.865   1.770   1.556 -0.2459 -0.2990  0.3135
  394SOL    HW1 1574   0.791   1.781   1.621  3.3040 -0.8162  0.4633
  394SOL    HW2 1575   0.875   1.849   1.496  0.8053  0.8717 -0.8088
  394SOL     MW 1576   0.857   1.782   1.556  0.3611 -0.2128  0.1852
  395SOL     OW 1577   1.028   2.801   2.602 -0.4643  0.3449  0.4573
  395SOL    HW1 1578   1.101   2.866   2.608 -0.7744  1.4389 -0.5035
  395SOL    HW2 1579   1.062   2.722   2.566  0.2276  0.0513  2.0477
  395SOL     MW 1580   1.042   2.799   2.598 -0.4139  0.4505  0.5404
  396SOL     OW 1581   0.738   1.870   2.397 -0.0110  0.2754  0.2685
  396SOL    HW1 1582   0.816   1.884   2.453 -0.1895  4.3355 -1.5806
  396SOL    HW2 1583   0.735   1.770   2.386  0.7377 -0.7854  1.2122
  396SOL     MW 1584   0.748   1.859   2.403  0.0643  0.6711  0.1491
  397SOL     OW 1585   0.995   2.300   1.254 -0.4697 -0.3567  0.2967
  397SOL    HW1 1586   1.041   2.350   1.181 -0.6199  1.8997  0.3691
  397SOL    HW2 1587   1.070   2.308   1.319 -1.3732  1.3573  1.9052
  397SOL     MW 1588   1.011   2.308   1.253 -0.6087  0.1671  0.5185
  398SOL     OW 1589   0.531   2.668   0.691  0.1690  0.1168 -0.2103
  398SOL    HW1 1590   0.465   2.645   0.629  1.0245  0.8574 -2.7215
  398SOL    HW2 1591   0.611   2.613   0.671 -1.2281 -2.0465 -0.2792
  398SOL     MW 1592   0.532   2.658   0.680  0.0976 -0.0709 -0.5507
  399SOL     OW 1593   0.259   2.062   0.385 -0.3857 -0.2452 -0.9049
  399SOL    HW1 1594   0.193   2.123   0.416  0.3361  0.5525  3.0154
  399SOL    HW2 1595   0.301   2.110   0.318  3.5324  0.0776 -0.6249
  399SOL     MW 1596   0.256   2.076   0.380  0.2265 -0.0973 -0.3507
  400SOL     OW 1597   0.491   1.916   0.169 -0.3075  0.3396 -0.6010
  400SOL    HW1 1598   0.445   2.001   0.176  2.7592  1.7127  0.3550
  400SOL    HW2 1599   0.492   1.869   0.250 -1.0015 -0.8001 -1.8264
  400SOL     MW 1600   0.485   1.921   0.180  0.0056  0.3704 -0.6365
  401SOL     OW 1601   0.780   2.018   0.108 -0.5952  0.1748 -0.1593
  401SOL    HW1 1602   0.828   1.934   0.099  0.0526 -2.2615 -1.6678
  401SOL    HW2 1603   0.689   1.993   0.131  1.0333 -1.6303  1.4431
  401SOL     MW 1604   0.774   2.004   0.110 -0.2949 -0.3848 -0.1469
  402SOL     OW 1605   0.609   2.992   1.795 -0.1175 -0.1576  0.2581
  402SOL    HW1 1606   0.690   2.970   1.842 -2.0549 -0.7112  0.4972
  402SOL    HW2 1607   0.610   3.084   1.791 -2.4977 -1.0904  1.8013
  402SOL     MW 1608   0.619   3.001   1.801 -0.6872 -0.3537  0.4933
  403SOL     OW 1609   0.080   0.413   0.339 -0.4754  0.0861 -0.5547
  403SOL    HW1 1610   0.139   0.465   0.390 -0.7823  1.8412 -0.7258
  403SOL    HW2 1611   0.113   0.424   0.251 -0.4650  1.6329 -0.2109
  403SOL     MW 1612   0.092   0.422   0.334 -0.5145  0.5217 -0.5319
  404SOL     OW 1613   0.895   2.914   0.725  0.2241  0.5488  0.5895
  404SOL    HW1 1614   0.988   2.894   0.726  1.3813  0.9509  1.7557
  404SOL    HW2 1615   0.898   3.002   0.684  3.4019  0.8597 -0.9106
  404SOL     MW 1616   0.908   2.923   0.720  0.7961  0.6429  0.5454
  405SOL     OW 1617   0.511   2.382   1.496  0.2255  0.2728  0.2444
  405SOL    HW1 1618   0.489   2.458   1.448 -1.7176  1.8005  0.6996
  405SOL    HW2 1619   0.442   2.322   1.479 -1.4488 -0.3829 -1.7617
  405SOL     MW 1620   0.499   2.384   1.487 -0.2517  0.3878  0.0397
  406SOL     OW 1621   0.390   2.394   1.015  0.2520  0.2493  0.2724
  406SOL    HW1 1622   0.303   2.386   1.052  2.2252 -1.0364 -0.2067
  406SOL    HW2 1623   0.432   2.310   1.042  1.1617  0.4589 -2.5073
  406SOL     MW 1624   0.384   2.382   1.023  0.6324  0.1073 -0.1575
  407SOL     OW 1625   3.053   2.697   1.146 -0.1693 -0.2940  0.0090
  407SOL    HW1 1626   3.114   2.695   1.227 -0.2315  0.1204  2.5737
  407SOL    HW2 1627   3.112   2.704   1.070 -0.6986 -0.6764 -1.6673
  407SOL     MW 1628   3.069   2.697   1.146 -0.2473 -0.2898  0.1262
  408SOL     OW 1629   2.135   2.088   0.753 -0.4376  0.5513 -0.9935
  408SOL    HW1 1630   2.080   2.146   0.811  0.8236  0.2422  0.0499
  408SOL    HW2 1631   2.067   2.038   0.713 -3.3495  0.8065  4.5848
  408SOL     MW 1632   2.119   2.089   0.755 -0.6554  0.5442 -0.1198
  409SOL     OW 1633   1.469   0.126   0.894  0.4484  0.3905 -0.2201
  409SOL    HW1 1634   1.540   0.190   0.905  0.2689  0.1188 -2.0488
  409SOL    HW2 1635   1.484   0.066   0.966  0.1993  0.4996  1.7892
  409SOL     MW 1636   1.481   0.126   0.905  0.3919  0.3690 -0.1962
  410SOL     OW 1637   1.098   2.475   1.045  0.0229  0.0873 -0.0798
  410SOL    HW1 1638   1.045   2.536   0.987 -1.3978  1.4723 -1.7677
  410SOL    HW2 1639   1.148   2.421   0.984  0.6034  0.8469 -1.3045
  410SOL     MW 1640   1.098   2.476   1.029 -0.0880  0.3703 -0.4641
  411SOL     OW 1641   1.978   0.025   2.892  0.1646 -0.2109  0.2981
  411SOL    HW1 1642   1.926   0.003   2.816  2.5866  0.6462  0.0791
  411SOL    HW2 1643   1.919   0.076   2.945  0.5247  0.1266 -0.3101
  411SOL     MW 1644   1.964   0.029   2.889  0.5317 -0.0533  0.1889
  412SOL     OW 1645   1.001   2.278   0.612 -0.0230  0.3160 -0.0279
  412SOL    HW1 1646   1.051   2.361   0.619  2.8195  2.3099 -1.5635
  412SOL    HW2 1647   0.928   2.305   0.568 -1.1276 -1.8507  1.5820
  412SOL     MW 1648   0.998   2.293   0.607  0.2063  0.2932 -0.0181
  413SOL     OW 1649   0.533   2.805   3.045  0.5576 -0.5762  0.1159
  413SOL    HW1 1650   0.572   2.729   3.086  0.3228 -0.1838  2.4263
  413SOL    HW2 1651   0.584   2.827   2.975  1.1845  0.7606  0.5989
  413SOL     MW 1652   0.545   2.798   3.041  0.6094 -0.3481  0.4845
  414SOL     OW 1653   1.918   2.861   1.059  0.0196  0.7771 -0.5506
  414SOL    HW1 1654   1.899   2.926   0.988  0.4594  2.0369  0.5981
  414SOL    HW2 1655   2.012   2.858   1.070 -1.2944  1.6290 -1.0062
  414SOL     MW 1656   1.928   2.869   1.051 -0.0958  1.0557 -0.4592
  415SOL     OW 1657   1.777   2.630   1.089  0.0936 -0.3624 -0.3435
  415SOL    HW1 1658   1.813   2.652   1.173  2.4014  0.6602  0.1121
  415SOL    HW2 1659   1.785   2.718   1.050 -0.5009  1.1179  2.0143
  415SOL     MW 1660   1.783   2.644   1.095  0.3197 -0.0322  0.0277
  416SOL     OW 1661   0.530   1.920   1.390  0.8752 -0.0660  0.8308
  416SOL    HW1 1662   0.518   1.943   1.298 -1.5709 -1.4451  0.0944
  416SOL    HW2 1663   0.469   1.839   1.401 -1.8645  0.0322  0.1241
  416SOL     MW 1664   0.521   1.912   1.380  0.1910 -0.2350  0.6404
  417SOL     OW 1665   1.017   3.085   2.080 -0.5566 -0.1328  0.2230
  417SOL    HW1 1666   0.962   3.070   2.158 -0.3718  1.1104 -3.3035
  417SOL    HW2 1667   0.966   3.052   1.996 -2.8356 -2.5378 -1.5857
  417SOL     MW 1668   1.003   3.078   2.079 -0.8329 -0.2861 -0.4809
  418SOL     OW 1669   0.733   2.904   0.138  0.0846 -0.1260 -0.4105
  418SOL    HW1 1670   0.814   2.863   0.106 -0.7208  0.4087 -3.0012
  418SOL    HW2 1671   0.662   2.875   0.083  0.1857  0.3888  2.2585
  418SOL     MW 1672   0.734   2.895   0.126 -0.0083  0.0124 -0.4001
  419SOL     OW 1673   0.433   2.651   1.390  0.3101 -0.0761 -0.1184
  419SOL    HW1 1674   0.500   2.690   1.452 -2.1523 -1.1818 -1.6621
  419SOL    HW2 1675   0.484   2.641   1.308 -2.0315 -1.8398  0.6875
  419SOL     MW 1676   0.449   2.655   1.387 -0.3238 -0.4547 -0.2158
  420SOL     OW 1677   0.882   2.277   0.968 -0.4523  0.6585  0.1478
  420SOL    HW1 1678   0.825   2.277   1.047  0.9852 -2.2444  1.0768
  420SOL    HW2 1679   0.937   2.358   0.977  0.4465 -1.7019  0.8202
  420SOL     MW 1680   0.881   2.288   0.980 -0.1441 -0.0359  0.3591
  421SOL     OW 1681   2.926   0.069   3.081  0.0170  1.6146  0.6438
  421SOL    HW1 1682   2.858   0.047   3.018 -0.4267 -0.2744 -1.3021
  421SOL    HW2 1683   2.945  -0.019   3.121 -0.6207  0.6696 -0.9507
  421SOL     MW 1684   2.920   0.054   3.078 -0.1257  1.2407  0.1767
  422SOL     OW 1685   0.889   2.556   0.888  0.1647 -0.7125 -0.1772
  422SOL    HW1 1686   0.853   2.637   0.926  3.4943  0.1816  0.9283
  422SOL    HW2 1687   0.852   2.552   0.803 -1.0035 -4.7213  4.1403
  422SOL     MW 1688   0.879   2.566   0.882  0.4499 -1.1234  0.5384
  423SOL     OW 1689   1.490   0.104   0.505 -0.1294  0.0916  0.1815
  423SOL    HW1 1690   1.461   0.068   0.420  3.6735 -1.9323  1.4539
  423SOL    HW2 1691   1.467   0.199   0.499 -0.7851 -0.6444 -3.1526
  423SOL     MW 1692   1.483   0.112   0.493  0.2858 -0.2725 -0.0905
  424SOL     OW 1693   0.720   2.269   1.188  0.2910 -0.0394  0.0021
  424SOL    HW1 1694   0.635   2.233   1.179 -1.1136  0.9641  0.5178
  424SOL    HW2 1695   0.734   2.279   1.284 -0.1729  0.5039  0.1839
  424SOL     MW 1696   0.711   2.265   1.200  0.0445  0.1647  0.0941
  425SOL     OW 1697   1.743   2.827   2.017 -0.1221  0.1850  0.3686
  425SOL    HW1 1698   1.738   2.845   1.923  0.7507 -0.8165  0.8279
  425SOL    HW2 1699   1.756   2.733   2.015  0.3586 -1.6839  2.1575
  425SOL     MW 1700   1.744   2.817   2.004  0.0565 -0.1937  0.6652
  426SOL     OW 1701   0.807   1.696   1.944 -0.4199 -0.1066 -0.1191
  426SOL    HW1 1702   0.729   1.699   1.884  1.7793 -2.0560 -0.7421
  426SOL    HW2 1703   0.795   1.770   2.005  4.2114  0.4765 -1.0733
  426SOL     MW 1704   0.795   1.706   1.944  0.4813 -0.2868 -0.3272
  427SOL     OW 1705   0.364   1.646   1.930 -0.2411  0.2427  0.1003
  427SOL    HW1 1706   0.433   1.600   1.879 -0.5352 -1.4187  1.1304
  427SOL    HW2 1707   0.298   1.579   1.959 -2.0115 -0.3599 -1.8966
  427SOL     MW 1708   0.364   1.631   1.927 -0.5135 -0.0560 -0.0272
  428SOL     OW 1709   0.575   2.590   1.173  0.0670  0.3525 -0.2739
  428SOL    HW1 1710   0.677   2.594   1.158 -0.4184  0.6745  1.0405
  428SOL    HW2 1711   0.552   2.508   1.127 -2.6131 -2.0876  0.4177
  428SOL     MW 1712   0.586   2.580   1.165 -0.3507  0.0730 -0.0092
  429SOL     OW 1713   1.303   2.773   1.089 -0.3758  0.2580 -0.4061
  429SOL    HW1 1714   1.216   2.744   1.112 -1.4567  3.4014 -1.3097
  429SOL    HW2 1715   1.294   2.829   1.009 -0.5742 -1.7751 -2.1310
  429SOL     MW 1716   1.290   2.777   1.082 -0.5446  0.4045 -0.7529
  430SOL     OW 1717   1.146   2.734   0.733 -0.4047  0.0748 -0.3673
  430SOL    HW1 1718   1.193   2.652   0.748 -0.9301 -1.6949 -0.9703
  430SOL    HW2 1719   1.098   2.714   0.646 -1.0742 -0.8413 -1.0781
  430SOL     MW 1720   1.146   2.721   0.723 -0.5623 -0.2796 -0.5406
  431SOL     OW 1721   0.358   1.917   1.057  0.4069 -0.0789 -0.5983
  431SOL    HW1 1722   0.437   1.866   1.069  1.3646  0.0254 -0.5674
  431SOL    HW2 1723   0.334   1.933   0.964 -0.3801 -0.1219 -0.2251
  431SOL     MW 1724   0.365   1.912   1.046  0.4295 -0.0708 -0.5450
  432SOL     OW 1725   0.061  -0.001   1.193  0.2164  0.3163  0.8324
  432SOL    HW1 1726   0.101   0.064   1.252 -1.2662  0.9376 -2.1469
  432SOL    HW2 1727  -0.012  -0.046   1.230 -0.2440  1.9170  0.9446
  432SOL     MW 1728   0.057   0.002   1.206 -0.0399  0.6094  0.4541
  433SOL     OW 1729   0.637   2.833   1.532 -0.1827 -0.6243 -0.1514
  433SOL    HW1 1730   0.639   2.868   1.615  1.0684 -3.8872  0.0039
  433SOL    HW2 1731   0.712   2.866   1.479  1.6161  2.7947  2.1222
  433SOL     MW 1732   0.647   2.842   1.536  0.2197 -0.6037  0.1691
  434SOL     OW 1733   1.583   2.833   1.530  0.4200 -0.0049  0.1674
  434SOL    HW1 1734   1.483   2.850   1.545 -0.5142 -0.7569 -0.9871
  434SOL    HW2 1735   1.573   2.815   1.434  0.1006 -0.7959  0.1176
  434SOL     MW 1736   1.568   2.833   1.519  0.2546 -0.2085  0.0085
  435SOL     OW 1737   2.841   1.806   0.229  0.1001 -0.4559  0.0276
  435SOL    HW1 1738   2.899   1.871   0.178 -0.8064  0.3581 -0.1690
  435SOL    HW2 1739   2.784   1.767   0.162  1.7410  2.0406  0.7892
  435SOL     MW 1740   2.841   1.809   0.214  0.1970 -0.0191  0.1022
  436SOL     OW 1741   1.334   2.750   0.391 -0.4931 -0.8912 -0.1750
  436SOL    HW1 1742   1.423   2.770   0.431  1.3929 -1.3636 -1.4560
  436SOL    HW2 1743   1.281   2.835   0.418 -1.3573  0.5808 -0.2369
  436SOL     MW 1744   1.339   2.763   0.400 -0.3583 -0.7593 -0.3522
  437SOL     OW 1745   0.839   2.923   1.389 -0.1928  0.6396 -0.6471
  437SOL    HW1 1746   0.882   3.005   1.366 -0.6500  0.5800  0.9374
  437SOL    HW2 1747   0.882   2.859   1.332  1.3923  0.1369 -0.7086
  437SOL     MW 1748   0.850   2.926   1.379 -0.0440  0.5654 -0.4462
  438SOL     OW 1749   0.858   2.680   1.900  0.0496  0.0623 -0.2089
  438SOL    HW1 1750   0.836   2.633   1.974 -0.3933 -0.9034 -3.5687
  438SOL    HW2 1751   0.826   2.626   1.830  1.3850  1.6737  1.0675
  438SOL     MW 1752   0.851   2.667   1.900  0.1673  0.1475 -0.4838
  439SOL     OW 1753   1.178   2.150   0.454  0.8205  0.4883  0.2453
  439SOL    HW1 1754   1.130   2.187   0.534 -0.7571 -0.7339  2.8902
  439SOL    HW2 1755   1.164   2.216   0.382 -0.2143  0.2524 -0.1602
  439SOL     MW 1756   1.170   2.163   0.455  0.4758  0.2959  0.5408
  440SOL     OW 1757   1.736   2.987   0.008  0.9510  0.2595 -0.2985
  440SOL    HW1 1758   1.683   2.967   0.086  2.8367 -1.0412 -2.6314
  440SOL    HW2 1759   1.820   2.941   0.023 -0.4559  1.5549 -1.0813
  440SOL     MW 1760   1.740   2.978   0.020  1.0142  0.2588 -0.7096
  441SOL     OW 1761   0.341   2.636   0.489  0.0395 -0.2663 -0.2059
  441SOL    HW1 1762   0.308   2.614   0.407  3.0196  1.1699  1.3748
  441SOL    HW2 1763   0.354   2.736   0.482  1.1854  0.0860  0.8841
  441SOL     MW 1764   0.339   2.646   0.477  0.5839 -0.0303  0.1465
  442SOL     OW 1765   3.060   2.410   0.606 -0.2620  0.4251 -0.5619
  442SOL    HW1 1766   3.067   2.501   0.608 -0.7646 -4.2843 -1.5957
  442SOL    HW2 1767   2.980   2.391   0.649 -0.7778  1.7792 -0.3955
  442SOL     MW 1768   3.051   2.420   0.612 -0.3963 -0.0176 -0.6764
  443SOL     OW 1769   1.403   1.778   1.926 -0.1769 -0.3375 -0.1667
  443SOL    HW1 1770   1.337   1.812   1.865  0.9589  1.5695 -1.4280
  443SOL    HW2 1771   1.378   1.686   1.945 -0.5455 -2.3761  1.2529
  443SOL     MW 1772   1.391   1.771   1.920 -0.0756 -0.3549 -0.1458
  444SOL     OW 1773   0.893   2.523   1.584  0.3778 -0.3038 -0.0874
  444SOL    HW1 1774   0.981   2.515   1.625  0.2406  1.6894 -2.0032
  444SOL    HW2 1775   0.835   2.467   1.639  0.5315 -2.3584  2.7912
  444SOL     MW 1776   0.897   2.515   1.597  0.3800 -0.3119  0.0397
  445SOL     OW 1777   0.951   0.079   1.349  0.7927 -0.4154  0.0270
  445SOL    HW1 1778   0.926   0.168   1.319  1.9514  1.2574  2.8650
  445SOL    HW2 1779   1.027   0.056   1.294  3.8959  0.9448 -1.2174
  445SOL     MW 1780   0.958   0.088   1.338  1.3550 -0.0153  0.2373
  446SOL     OW 1781   2.725   2.885   1.096 -0.3168 -0.0619  0.1628
  446SOL    HW1 1782   2.677   2.928   1.029  1.0728 -1.4232 -0.6748
  446SOL    HW2 1783   2.767   2.806   1.052  2.2048  1.5835  0.4909
  446SOL     MW 1784   2.725   2.880   1.082  0.1992 -0.0245  0.0956
  447SOL     OW 1785   0.075   2.030   1.654  0.6401  0.1419 -0.2818
  447SOL    HW1 1786   0.110   1.948   1.701  1.9686 -2.9509 -1.8407
  447SOL    HW2 1787  -0.013   2.005   1.622 -1.1021 -1.0187 -4.6886
  447SOL     MW 1788   0.068   2.016   1.656  0.5855 -0.4193 -1.0689
  448SOL     OW 1789   1.704   2.403   1.632  0.3693  0.0469 -0.8181
  448SOL    HW1 1790   1.667   2.320   1.619  2.3989 -0.0938 -0.0994
  448SOL    HW2 1791   1.633   2.461   1.669 -1.0442  1.7119  2.0076
  448SOL     MW 1792   1.690   2.400   1.636  0.4506  0.2481 -0.3505
  449SOL     OW 1793   0.786   2.815   0.399  0.5914 -0.0492 -0.5882
  449SOL    HW1 1794   0.756   2.833   0.306 -1.8037  1.1733  0.0028
  449SOL    HW2 1795   0.714   2.853   0.446 -1.2161 -2.3442 -1.6588
  449SOL     MW 1796   0.772   2.822   0.393  0.0369 -0.1907 -0.6515
  450SOL     OW 1797   1.208   2.444   0.685  0.0335  0.2246  0.0784
  450SOL    HW1 1798   1.223   2.391   0.768 -2.8631  1.1806 -3.7245
  450SOL    HW2 1799   1.293   2.434   0.645 -1.5272  0.2807  2.9030
  450SOL     MW 1800   1.221   2.435   0.691 -0.5546  0.3582 -0.0507
  451SOL     OW 1801   0.564   2.039   1.615  0.6465  0.4177 -0.0058
  451SOL    HW1 1802   0.645   2.087   1.591 -1.1573  0.3520 -0.2739
  451SOL    HW2 1803   0.536   1.995   1.536  1.1057  1.0437 -0.3346
  451SOL     MW 1804   0.571   2.040   1.601  0.4691  0.4916 -0.0846
  452SOL     OW 1805   0.271   2.749   0.016  0.3793 -0.5134 -0.1580
  452SOL    HW1 1806   0.354   2.756  -0.034  1.9475  0.0114 -1.9622
  452SOL    HW2 1807   0.200   2.793  -0.037  1.3191 -0.8073  1.7857
  452SOL     MW 1808   0.273   2.756   0.002  0.7102 -0.4829 -0.1396
  453SOL     OW 1809   0.349   2.890   1.693  0.1820  0.1944  0.1876
  453SOL    HW1 1810   0.434   2.910   1.731 -0.2354 -0.8586 -2.0268
  453SOL    HW2 1811   0.373   2.892   1.600 -1.1396  0.8981 -2.2452
  453SOL     MW 1812   0.363   2.893   1.685 -0.0475  0.1483 -0.4256
  454SOL     OW 1813   1.009   2.744   1.195  0.2550  0.3108  0.0215
  454SOL    HW1 1814   0.945   2.680   1.229 -1.0556  0.2907  0.5224
  454SOL    HW2 1815   0.968   2.791   1.125  0.7344 -0.9908  1.3962
  454SOL     MW 1816   0.995   2.742   1.190  0.1453  0.1364  0.2690
  455SOL     OW 1817   1.597   2.923   0.224  0.0084  0.4803 -0.2190
  455SOL    HW1 1818   1.668   2.915   0.286 -2.2391 -0.4054 -0.0493
  455SOL    HW2 1819   1.566   2.822   0.210 -0.1137 -0.6236  1.7422
  455SOL     MW 1820   1.603   2.908   0.230 -0.3043  0.2178  0.0622
  456SOL     OW 1821   2.831   0.344   1.388 -0.3944  0.2492  0.2316
  456SOL    HW1 1822   2.809   0.273   1.328  2.8486  1.3690  1.6401
  456SOL    HW2 1823   2.919   0.374   1.348  1.1644 -1.6082  1.0658
  456SOL     MW 1824   2.840   0.339   1.375  0.2391  0.1519  0.5275
  457SOL     OW 1825   0.974   1.573   2.910  0.3222 -0.2334 -0.0811
  457SOL    HW1 1826   0.889   1.568   2.957 -1.5607  2.9954 -2.3641
  457SOL    HW2 1827   1.019   1.491   2.920  0.8359 -1.0487 -0.7124
  457SOL     MW 1828   0.968   1.561   2.917  0.1416  0.0850 -0.4656
  458SOL     OW 1829   1.493   1.410   0.538 -0.2889  0.1821 -0.3072
  458SOL    HW1 1830   1.423   1.446   0.589 -0.7040 -1.8352 -0.6305
  458SOL    HW2 1831   1.450   1.360   0.464 -0.6161 -0.9592 -0.1490
  458SOL     MW 1832   1.478   1.408   0.535 -0.3868 -0.2346 -0.3290
  459SOL     OW 1833   1.469   0.056   0.228 -0.4151  0.4370 -0.3065
  459SOL    HW1 1834   1.496  -0.038   0.230 -0.0248  0.5266 -1.9723
  459SOL    HW2 1835   1.424   0.082   0.148  0.3884  0.9876 -2.0600
  459SOL     MW 1836   1.467   0.047   0.218 -0.2576  0.5214 -0.7576
  460SOL     OW 1837   1.779   2.203   0.594  0.0923 -0.2086  0.1369
  460SOL    HW1 1838   1.695   2.169   0.622 -0.1473  0.9669  0.3194
  460SOL    HW2 1839   1.836   2.126   0.600 -0.2953  0.4040 -0.9142
  460SOL     MW 1840   1.775   2.188   0.598  0.0095  0.0273  0.0223
  461SOL     OW 1841   0.383   2.384   0.583  0.1331 -0.1806 -0.0976
  461SOL    HW1 1842   0.342   2.457   0.538 -4.3966 -1.6826 -0.9876
  461SOL    HW2 1843   0.365   2.427   0.672 -4.1576  0.2447  1.4777
  461SOL     MW 1844   0.375   2.399   0.589 -1.0307 -0.3226 -0.0072
  462SOL     OW 1845   0.407   0.331   1.294  0.2759  0.3226 -0.6405
  462SOL    HW1 1846   0.447   0.271   1.232 -2.2194 -1.0932 -0.7232
  462SOL    HW2 1847   0.474   0.357   1.360 -2.8455  0.5458 -0.8034
  462SOL     MW 1848   0.421   0.327   1.294 -0.4651  0.1652 -0.6729
  463SOL     OW 1849   0.907   0.062   0.628  0.1632 -0.1048 -0.2588
  463SOL    HW1 1850   0.919   0.071   0.531  0.6403 -0.0721  0.0539
  463SOL    HW2 1851   0.814   0.077   0.649 -1.3364  2.6839 -1.4718
  463SOL     MW 1852   0.897   0.065   0.618  0.0283  0.2674 -0.3776
  464SOL     OW 1853   0.850   3.037   2.287  0.0292  0.7395 -0.0531
  464SOL    HW1 1854   0.802   2.954   2.288  0.8525  1.4497 -1.0927
  464SOL    HW2 1855   0.863   3.054   2.382 -0.8426 -1.7582  4.6367
  464SOL     MW 1856   0.845   3.028   2.299  0.0228  0.5037  0.4285
  465SOL     OW 1857   0.669   0.291   0.475  0.4208 -0.2205 -0.6946
  465SOL    HW1 1858   0.667   0.232   0.549  1.1551  0.0674 -1.0649
  465SOL    HW2 1859   0.671   0.227   0.403 -1.3917  0.1225 -1.9483
  465SOL     MW 1860   0.669   0.275   0.475  0.2786 -0.1372 -0.9088
  466SOL     OW 1861   1.072   1.965   0.695 -0.1500  0.0152  0.1552
  466SOL    HW1 1862   1.074   1.890   0.630 -2.0472 -1.6535 -1.3271
  466SOL    HW2 1863   1.055   2.045   0.639  2.1295 -0.3468 -0.1156
  466SOL     MW 1864   1.070   1.966   0.679 -0.0996 -0.2528 -0.0761
  467SOL     OW 1865   1.262   2.298   0.906 -0.1436  0.2575  0.8107
  467SOL    HW1 1866   1.350   2.330   0.919  0.2441  3.4414 -2.5864
  467SOL    HW2 1867   1.262   2.200   0.914  0.3359  0.9696  1.5986
  467SOL     MW 1868   1.273   2.289   0.909 -0.0292  0.7715  0.4665
  468SOL     OW 1869   0.394   2.621   1.989  0.1439 -0.1638  0.0623
  468SOL    HW1 1870   0.402   2.575   1.906  1.4699 -0.5371 -1.9857
  468SOL    HW2 1871   0.365   2.714   1.980  0.9725 -1.8577  1.5332
  468SOL     MW 1872   0.391   2.627   1.977  0.4281 -0.4365 -0.0139
  469SOL     OW 1873   0.370   2.176   1.785 -0.2299 -0.0174 -0.3232
  469SOL    HW1 1874   0.295   2.135   1.821  0.6121  1.5776  1.6737
  469SOL    HW2 1875   0.413   2.109   1.728 -0.3354 -1.2618 -2.7188
  469SOL     MW 1876   0.366   2.161   1.782 -0.1327  0.0288 -0.3758
  470SOL     OW 1877   3.043   2.607   0.072  0.4914  0.5826 -0.6076
  470SOL    HW1 1878   2.966   2.569   0.110  1.1928  2.3547  0.5132
  470SOL    HW2 1879   3.035   2.604  -0.027 -3.4225  0.0997 -0.8020
  470SOL     MW 1880   3.032   2.602   0.064  0.0676  0.7527 -0.4853
  471SOL     OW 1881   1.166   2.712   1.431 -0.2733 -0.1197  0.2997
  471SOL    HW1 1882   1.098   2.727   1.496 -0.8748  0.2724 -0.4102
  471SOL    HW2 1883   1.125   2.713   1.346  1.0057  1.0320  1.8110
  471SOL     MW 1884   1.152   2.714   1.428 -0.1839  0.0840  0.4055
  472SOL     OW 1885   2.956   2.103   0.375 -0.3249  0.3947  0.2286
  472SOL    HW1 1886   2.972   2.066   0.282  4.3132 -2.0090 -1.8517
  472SOL    HW2 1887   2.930   2.028   0.428 -0.8270  0.7382 -1.1193
  472SOL     MW 1888   2.955   2.088   0.370  0.2208  0.1229 -0.2237
  473SOL     OW 1889   0.877   2.554   1.314 -0.0048 -0.0302  0.1283
  473SOL    HW1 1890   0.932   2.476   1.296  1.9271  0.1874  0.9977
  473SOL    HW2 1891   0.869   2.552   1.408  0.8628 -1.6922 -0.4823
  473SOL     MW 1892   0.883   2.544   1.324  0.3645 -0.2208  0.1624
  474SOL     OW 1893   0.819   2.165   1.777  0.2273 -0.6238  0.2330
  474SOL    HW1 1894   0.916   2.183   1.800  0.4063  0.7869 -2.3305
  474SOL    HW2 1895   0.817   2.153   1.685 -1.0058  0.5951  1.7073
  474SOL     MW 1896   0.832   2.166   1.768  0.0882 -0.2768  0.0893
  475SOL     OW 1897   1.651   0.020   1.436  0.4785  0.1659 -0.4674
  475SOL    HW1 1898   1.577   0.046   1.387 -0.7194  0.3055  1.2628
  475SOL    HW2 1899   1.640  -0.072   1.440  1.1814  0.6611 -1.9060
  475SOL     MW 1900   1.640   0.011   1.430  0.4132  0.2496 -0.4289
  476SOL     OW 1901   1.437   2.608   0.890 -0.3948  0.1474  0.3182
  476SOL    HW1 1902   1.356   2.647   0.941 -2.5891 -1.5975  0.6664
  476SOL    HW2 1903   1.476   2.689   0.856  0.7649  0.9211  2.1565
  476SOL     MW 1904   1.431   2.624   0.892 -0.5313  0.0193  0.6067
  477SOL     OW 1905   0.773   2.533   0.637  0.5450  0.0718 -0.2918
  477SOL    HW1 1906   0.846   2.578   0.598  1.1209 -0.2555 -0.3862
  477SOL    HW2 1907   0.765   2.458   0.578 -0.8617  0.9425 -1.8101
  477SOL     MW 1908   0.781   2.529   0.624  0.4354  0.1435 -0.5046
  478SOL     OW 1909   0.117   2.711   0.924 -0.0302  0.0709 -0.4574
  478SOL    HW1 1910   0.175   2.792   0.908  2.8022  1.6874 -0.1841
  478SOL    HW2 1911   0.175   2.633   0.906 -0.8973  1.5856  4.4472
  478SOL     MW 1912   0.132   2.712   0.919  0.2291  0.4840  0.2258
  479SOL     OW 1913   1.425   1.964   1.301  0.1769  0.0885  0.3894
  479SOL    HW1 1914   1.375   2.009   1.368  0.5445 -2.0658 -1.8862
  479SOL    HW2 1915   1.492   1.910   1.353  0.7168  1.6826 -1.2682
  479SOL     MW 1916   1.427   1.963   1.317  0.2966  0.0146 -0.1295
  480SOL     OW 1917   1.897   2.323   1.356 -0.0855 -0.3053 -0.3021
  480SOL    HW1 1918   1.905   2.226   1.361 -2.6905 -0.2342  0.5433
  480SOL    HW2 1919   1.953   2.355   1.283  0.4099 -3.3288  1.0826
  480SOL     MW 1920   1.906   2.314   1.347 -0.3638 -0.6949 -0.0079
  481SOL     OW 1921   1.106   3.072   1.110 -1.2446  0.3844 -0.3906
  481SOL    HW1 1922   1.169   3.014   1.075 -2.9194 -0.3768  1.8034
  481SOL    HW2 1923   1.143   3.159   1.107  0.3027 -3.1535  1.4539
  481SOL     MW 1924   1.119   3.076   1.105 -1.2614 -0.1828  0.1422
  482SOL     OW 1925   0.955   3.049   0.344  0.2797 -0.2021 -0.4823
  482SOL    HW1 1926   0.893   2.975   0.359  1.1055  0.9136  0.4308
  482SOL    HW2 1927   0.905   3.124   0.311  0.9779 -1.8733 -2.1267
  482SOL     MW 1928   0.940   3.049   0.342  0.4808 -0.2754 -0.5788
  483SOL     OW 1929   0.374   2.901   0.468  0.4962 -0.4956 -0.3938
  483SOL    HW1 1930   0.284   2.909   0.421 -0.2647  0.0427 -0.8938
  483SOL    HW2 1931   0.373   2.961   0.548  0.1553 -0.2044  0.9121
  483SOL     MW 1932   0.362   2.910   0.472  0.3509 -0.3862 -0.2874
  484SOL     OW 1933   1.660   1.834   1.401 -0.4353  0.6577  0.1380
  484SOL    HW1 1934   1.699   1.920   1.383 -0.9213  0.7870  0.7706
  484SOL    HW2 1935   1.672   1.821   1.494 -1.3037  0.7108 -0.5065
  484SOL     MW 1936   1.667   1.843   1.411 -0.6140  0.6818  0.1364
  485SOL     OW 1937   0.538   2.455   0.287  0.4662  0.2892 -0.8262
  485SOL    HW1 1938   0.578   2.412   0.371 -0.9805  0.9273 -1.3077
  485SOL    HW2 1939   0.459   2.508   0.304 -1.1138 -1.1091  1.3081
  485SOL     MW 1940   0.533   2.457   0.301  0.0668  0.1889 -0.6081
  486SOL     OW 1941   0.124   2.400   1.422 -0.2820 -0.2390  0.2096
  486SOL    HW1 1942   0.164   2.486   1.399  1.3178  0.5202  1.8457
  486SOL    HW2 1943   0.087   2.423   1.507  1.9472  3.2648 -1.8391
  486SOL     MW 1944   0.125   2.414   1.430  0.2232  0.3235  0.1552
  487SOL     OW 1945   1.279   1.586   1.054  0.2337  0.3692 -0.6513
  487SOL    HW1 1946   1.227   1.664   1.065  2.0652  1.4471 -0.7095
  487SOL    HW2 1947   1.371   1.612   1.021  0.0080  0.2644  2.2282
  487SOL     MW 1948   1.284   1.600   1.051  0.4456  0.4976 -0.2791
  488SOL     OW 1949   1.692   1.873   0.541  0.1151 -0.5483 -0.5595
  488SOL    HW1 1950   1.776   1.912   0.520 -2.2551  0.5190  0.9748
  488SOL    HW2 1951   1.634   1.939   0.583  1.0157 -0.3353  1.4011
  488SOL     MW 1952   1.695   1.887   0.544 -0.0788 -0.3794 -0.0984
  489SOL     OW 1953   0.676   0.760   0.557 -0.2839  0.1300 -0.3330
  489SOL    HW1 1954   0.737   0.692   0.531  1.2655  1.0289 -2.0397
  489SOL    HW2 1955   0.682   0.758   0.652  0.8249  3.7587  2.5124
  489SOL     MW 1956   0.685   0.751   0.566  0.0668  0.7273 -0.1828
  490SOL     OW 1957   1.431   2.032   0.402  0.0996 -0.8064 -0.0660
  490SOL    HW1 1958   1.484   2.113   0.373  2.9824 -1.4330  0.6941
  490SOL    HW2 1959   1.352   2.065   0.438  1.7890 -0.4207  1.4691
  490SOL     MW 1960   1.427   2.047   0.403  0.7028 -0.8382  0.2368
  491SOL     OW 1961   1.184   2.969   0.475 -0.0561 -0.6044  0.0617
  491SOL    HW1 1962   1.191   3.054   0.521 -1.9364  1.5762 -0.4041
  491SOL    HW2 1963   1.106   2.979   0.423  2.8080 -0.2366  0.1574
  491SOL     MW 1964   1.175   2.981   0.474  0.0737 -0.2681  0.0128
  492SOL     OW 1965   1.538   2.059   0.680 -0.4916 -0.0241  0.4216
  492SOL    HW1 1966   1.490   2.048   0.602  1.6515 -3.1523 -0.2572
  492SOL    HW2 1967   1.473   2.052   0.751 -2.1493  0.0945 -3.0371
  492SOL     MW 1968   1.523   2.057   0.679 -0.4276 -0.4212 -0.1243
  493SOL     OW 1969   0.124   2.925   0.345  0.5381  0.5613 -0.1989
  493SOL    HW1 1970   0.088   2.997   0.403  0.8582  1.3489  0.1529
  493SOL    HW2 1971   0.152   2.955   0.259 -1.3269 -2.3122 -0.4244
  493SOL     MW 1972   0.123   2.938   0.341  0.3343  0.2861 -0.1823
  494SOL     OW 1973   0.391   2.456   1.721 -0.2394  0.3452  0.5033
  494SOL    HW1 1974   0.363   2.370   1.762 -0.1582 -0.4293 -1.1046
  494SOL    HW2 1975   0.446   2.427   1.647  2.0908  0.5969 -1.5032
  494SOL     MW 1976   0.395   2.441   1.717  0.0788  0.2762  0.0264
  495SOL     OW 1977   2.923   1.708   2.665  0.0034  0.0703 -0.6504
  495SOL    HW1 1978   2.871   1.784   2.692  0.1689  1.3774 -1.4760
  495SOL    HW2 1979   2.931   1.657   2.749  2.8028  0.1348 -1.2074
  495SOL     MW 1980   2.917   1.711   2.680  0.3946  0.2512 -0.8328
  496SOL     OW 1981   2.869   2.292   2.665 -0.2462 -0.6093 -0.0963
  496SOL    HW1 1982   2.911   2.213   2.695 -1.1484  2.4516  2.8780
  496SOL    HW2 1983   2.956   2.344   2.657  2.6225 -0.2913 -1.3010
  496SOL     MW 1984   2.886   2.288   2.668  0.0133 -0.1635  0.1371
  497SOL     OW 1985   1.576   2.280   2.627  0.4483 -0.1306  0.2904
  497SOL    HW1 1986   1.566   2.227   2.548  0.9893 -1.1433 -0.5646
  497SOL    HW2 1987   1.635   2.235   2.690 -1.4705  1.1028  1.2937
  497SOL     MW 1988   1.583   2.267   2.625  0.2665 -0.1015  0.3099
  498SOL     OW 1989   1.537   2.729   2.371 -0.0228 -0.1828  0.1773
  498SOL    HW1 1990   1.507   2.647   2.349 -1.2287  0.5026  4.1473
  498SOL    HW2 1991   1.610   2.695   2.433  0.5046 -1.1115  1.6767
  498SOL     MW 1992   1.542   2.714   2.377 -0.1124 -0.2149  0.8989
  499SOL     OW 1993   0.896   0.102   0.049  0.5374 -0.2980  0.1562
  499SOL    HW1 1994   0.826   0.128   0.105  1.3227 -1.0995 -1.0031
  499SOL    HW2 1995   0.887   0.001   0.036 -1.5985  0.1846  0.2472
  499SOL     MW 1996   0.885   0.092   0.054  0.3592 -0.3400  0.0152
  500SOL     OW 1997   1.105   2.467   2.770  0.2029  0.5052 -0.5136
  500SOL    HW1 1998   1.111   2.431   2.858  2.9953  1.8613  0.3072
  500SOL    HW2 1999   1.046   2.535   2.784  0.6019  1.4785 -0.8156
  500SOL     MW 2000   1.098   2.471   2.783  0.6240  0.8126 -0.4452
  501SOL     OW 2001   1.731   2.284   0.019  0.6491 -0.7237  0.1776
  501SOL    HW1 2002   1.724   2.381   0.043 -1.0312  0.8195 -0.4683
  501SOL    HW2 2003   1.823   2.260   0.020  0.4776 -4.6750  1.4988
  501SOL     MW 2004   1.742   2.294   0.022  0.4048 -1.0414  0.2667
  502SOL     OW 2005   0.078   2.839   2.957 -0.2244 -0.7690  0.2984
  502SOL    HW1 2006   0.033   2.760   2.915 -1.5323 -0.3403  0.9558
  502SOL    HW2 2007   0.099   2.900   2.884 -1.2735  0.6917 -2.3716
  502SOL     MW 2008   0.075   2.837   2.942 -0.5354 -0.5197  0.0328
  503SOL     OW 2009   1.129   2.639   1.974 -1.0637  0.3531 -0.1567
  503SOL    HW1 2010   1.200   2.689   1.932  3.4760  1.3757  0.2791
  503SOL    HW2 2011   1.057   2.661   1.918 -0.6821  0.8963 -1.8460
  503SOL     MW 2012   1.129   2.648   1.961 -0.4143  0.5597 -0.3221
  504SOL     OW 2013   0.048   2.678   2.094 -0.2090  0.4130 -0.2503
  504SOL    HW1 2014   0.115   2.606   2.092 -1.4691  2.4061  0.2400
  504SOL    HW2 2015  -0.041   2.643   2.097 -0.8355  1.6538 -0.2552
  504SOL     MW 2016   0.045   2.664   2.094 -0.4580  0.8397 -0.1863
  505SOL     OW 2017   1.645   2.659   2.777  0.0943 -0.3552  0.3952
  505SOL    HW1 2018   1.687   2.652   2.692 -0.2161  0.3461  1.7859
  505SOL    HW2 2019   1.597   2.741   2.784  1.1476 -0.0297  1.9785
  505SOL     MW 2020   1.644   2.669   2.766  0.1923 -0.2197  0.7876
  506SOL     OW 2021   1.621   3.093   2.858 -0.3828 -0.0653 -0.1180
  506SOL    HW1 2022   1.672   3.035   2.915 -1.3544  1.1881  0.0196
  506SOL    HW2 2023   1.670   3.099   2.768 -1.6503 -1.1474 -1.7168
  506SOL     MW 2024   1.634   3.086   2.854 -0.6782 -0.0427 -0.3108
  507SOL     OW 2025   0.936   2.705   2.858 -0.2769 -0.2594  0.1396
  507SOL    HW1 2026   1.003   2.749   2.803  2.2910 -1.0984 -0.8319
  507SOL    HW2 2027   0.855   2.744   2.828 -0.3338 -1.1088  0.1241
  507SOL     MW 2028   0.934   2.716   2.847  0.0544 -0.4822  0.0094
  508SOL     OW 2029   1.232   2.120   2.496 -0.2575  0.3014 -0.0078
  508SOL    HW1 2030   1.276   2.109   2.589 -1.8785 -2.9765  0.5477
  508SOL    HW2 2031   1.163   2.173   2.525 -2.1072  1.1224  0.9467
  508SOL     MW 2032   1.228   2.126   2.512 -0.7154 -0.0228  0.1914
  509SOL     OW 2033   0.626   2.591   2.797 -0.1860  0.2119 -0.5082
  509SOL    HW1 2034   0.622   2.558   2.712 -1.6943  1.6980  0.5360
  509SOL    HW2 2035   0.535   2.616   2.819 -2.4965  0.1292  0.2090
  509SOL     MW 2036   0.614   2.590   2.789 -0.6898  0.3971 -0.2758
  510SOL     OW 2037   1.525   2.616   1.673 -0.4003 -0.1556  0.2278
  510SOL    HW1 2038   1.552   2.698   1.613 -2.6579  4.0600  1.3196
  510SOL    HW2 2039   1.482   2.651   1.754  0.6331 -1.8949 -0.0360
  510SOL     MW 2040   1.523   2.631   1.676 -0.5618  0.1711  0.3370
  511SOL     OW 2041   0.428   2.644   2.434  0.3002  0.0119 -0.0902
  511SOL    HW1 2042   0.505   2.584   2.469  0.4724 -2.3926  0.2258
  511SOL    HW2 2043   0.453   2.681   2.344 -2.8752 -2.9402  0.5079
  511SOL     MW 2044   0.441   2.641   2.427 -0.0960 -0.6949  0.0304
  512SOL     OW 2045   0.959   2.021   2.800 -0.5662  0.2278 -0.0703
  512SOL    HW1 2046   0.892   2.076   2.847 -1.5148 -1.3439 -2.3193
  512SOL    HW2 2047   0.989   1.945   2.856  1.1208  1.4070 -0.6801
  512SOL     MW 2048   0.954   2.018   2.814 -0.4688  0.1760 -0.4475
  513SOL     OW 2049   1.625   2.483   2.238 -0.0531  0.2859  0.3335
  513SOL    HW1 2050   1.711   2.490   2.199 -1.3340  1.7764  2.3912
  513SOL    HW2 2051   1.613   2.398   2.279 -0.6661  0.2651  2.2823
  513SOL     MW 2052   1.635   2.473   2.238 -0.3030  0.4798  0.8621
  514SOL     OW 2053   0.251   2.494   2.595  0.6404  0.2477  0.2295
  514SOL    HW1 2054   0.316   2.547   2.543  1.4049  3.4795  0.0920
  514SOL    HW2 2055   0.299   2.466   2.672 -2.8912 -0.9241 -2.0108
  514SOL     MW 2056   0.266   2.497   2.598  0.2753  0.5195 -0.0842
  515SOL     OW 2057   1.137   2.013   2.006  0.3245 -0.0476 -0.2192
  515SOL    HW1 2058   1.124   2.099   1.969  0.2466  1.3373  1.0473
  515SOL    HW2 2059   1.216   2.022   2.060  1.5271 -1.1246  3.7043
  515SOL     MW 2060   1.146   2.026   2.008  0.4729 -0.0070  0.4656
  516SOL     OW 2061   1.470   2.453   3.092 -0.4991  0.5511  0.3466
  516SOL    HW1 2062   1.512   2.419   3.016  1.8491 -1.1485  1.4995
  516SOL    HW2 2063   1.403   2.514   3.063  0.4051 -0.7402 -1.2345
  516SOL     MW 2064   1.467   2.457   3.078 -0.0700  0.1565  0.2901
  517SOL     OW 2065   0.542   2.461   2.251 -0.1615 -0.0339 -0.4532
  517SOL    HW1 2066   0.514   2.435   2.335  0.9762  2.6027 -1.0401
  517SOL    HW2 2067   0.509   2.400   2.177  0.4202  1.7654  0.7851
  517SOL     MW 2068   0.534   2.449   2.252  0.0654  0.5514 -0.3673
  518SOL     OW 2069   1.798   0.153   3.084  0.0065 -0.0849  0.0823
  518SOL    HW1 2070   1.759   0.201   3.159  2.8978  1.4986  0.2821
  518SOL    HW2 2071   1.774   0.058   3.101 -2.3899  0.1362 -1.6739
  518SOL     MW 2072   1.790   0.147   3.096  0.0718  0.1532 -0.1231
  519SOL     OW 2073   0.720   2.401   1.761  0.5336 -0.0187  0.0244
  519SOL    HW1 2074   0.734   2.308   1.773 -0.4729  0.2103  0.8855
  519SOL    HW2 2075   0.625   2.413   1.772 -1.9991 -2.8042 -2.9804
  519SOL     MW 2076   0.710   2.391   1.764  0.0666 -0.3560 -0.2585
  520SOL     OW 2077   1.174   2.130   2.957  0.1548 -0.5430 -0.2308
  520SOL    HW1 2078   1.087   2.100   2.926  1.0990 -1.1043 -1.1109
  520SOL    HW2 2079   1.186   2.105   3.048 -0.1483  0.1734  0.9207
  520SOL     MW 2080   1.164   2.123   2.965  0.2394 -0.5225 -0.1950
  521SOL     OW 2081   1.749   1.983   2.168  0.3240 -0.4443 -0.1674
  521SOL    HW1 2082   1.771   2.012   2.082 -1.5128 -0.4432  1.0711
  521SOL    HW2 2083   1.773   1.892   2.184 -4.3431 -1.3307 -1.7847
  521SOL     MW 2084   1.755   1.975   2.158 -0.5342 -0.5611 -0.2174
  522SOL     OW 2085   2.915   2.521   2.252 -0.1325  0.1275  0.1527
  522SOL    HW1 2086   3.000   2.465   2.261  0.0925  1.5073  0.7269
  522SOL    HW2 2087   2.938   2.600   2.296 -3.0141 -1.2112 -1.2023
  522SOL     MW 2088   2.929   2.524   2.259 -0.4830  0.1330  0.0497
  523SOL     OW 2089   0.939   1.531   2.141 -0.0491  0.6998  0.1167
  523SOL    HW1 2090   0.890   1.578   2.079  0.9236  0.4513 -0.1533
  523SOL    HW2 2091   0.983   1.457   2.093  0.0197  0.3117  0.5789
  523SOL     MW 2092   0.939   1.528   2.127  0.0883  0.6158  0.1420
  524SOL     OW 2093   0.626   2.389   2.969  0.3820  0.4477  0.3583
  524SOL    HW1 2094   0.661   2.463   2.916 -0.2902 -1.3128  0.6201
  524SOL    HW2 2095   0.685   2.308   2.974 -1.9902  1.0214 -0.5249
  524SOL     MW 2096   0.639   2.388   2.962 -0.0197  0.2911  0.2763
  525SOL     OW 2097   0.444   2.289   2.036  0.2167  0.3719  0.2181
  525SOL    HW1 2098   0.382   2.239   2.089 -0.4163  0.9699 -1.9741
  525SOL    HW2 2099   0.440   2.238   1.956 -0.0220 -2.9401 -2.5624
  525SOL     MW 2100   0.435   2.276   2.033  0.1017  0.0138 -0.4380
  526SOL     OW 2101   0.656   2.043   1.977  0.2810 -0.5261 -0.5382
  526SOL    HW1 2102   0.713   2.067   1.911 -1.0877 -3.5794  1.2848
  526SOL    HW2 2103   0.675   2.108   2.047 -0.3036 -1.0270  1.6066
  526SOL     MW 2104   0.666   2.054   1.977  0.0233 -0.9950 -0.0147
  527SOL     OW 2105   1.412   2.019   2.107  0.1826  0.3033  0.0380
  527SOL    HW1 2106   1.412   1.993   2.204  1.4380  0.3624  1.6597
  527SOL    HW2 2107   1.409   1.929   2.078  2.1644  0.4414  1.7936
  527SOL     MW 2108   1.412   2.003   2.116  0.6097  0.3293  0.4836
  528SOL     OW 2109   0.710   2.873   2.861  0.1657 -0.1766  0.1134
  528SOL    HW1 2110   0.721   2.967   2.867 -1.8426  0.7218 -1.0775
  528SOL    HW2 2111   0.645   2.855   2.794 -0.7641 -0.3532  0.5998
  528SOL     MW 2112   0.703   2.883   2.853 -0.2220 -0.0813  0.0204
  529SOL     OW 2113   1.084   2.274   1.872  0.8972 -0.3202  0.7968
  529SOL    HW1 2114   1.047   2.317   1.949 -1.5439  1.1856 -0.7772
  529SOL    HW2 2115   1.064   2.333   1.797 -5.3187 -0.9883 -3.5275
  529SOL     MW 2116   1.077   2.287   1.872 -0.2450 -0.2097  0.0186
  530SOL     OW 2117   1.152   2.435   3.052 -0.3444 -0.1138 -0.4056
  530SOL    HW1 2118   1.097   2.429   3.129  2.4784 -0.5454  0.3018
  530SOL    HW2 2119   1.200   2.352   3.051 -1.2791 -0.9261  1.4793
  530SOL     MW 2120   1.151   2.424   3.062 -0.0953 -0.2779 -0.0636
  531SOL     OW 2121   0.956   1.864   2.564 -0.4863 -0.0824 -0.2763
  531SOL    HW1 2122   0.948   1.941   2.620  0.0326  1.9689 -0.7842
  531SOL    HW2 2123   0.911   1.795   2.619 -0.0407  2.0308  0.8364
  531SOL     MW 2124   0.949   1.865   2.578 -0.3590  0.4670 -0.1965
  532SOL     OW 2125   1.699   0.345   2.863  0.1373  0.3769 -0.5666
  532SOL    HW1 2126   1.699   0.257   2.900 -0.7290  1.6937 -2.7987
  532SOL    HW2 2127   1.797   0.365   2.841  0.7713  0.0153 -1.0307
  532SOL     MW 2128   1.712   0.336   2.865  0.1066  0.5029 -0.9223
  533SOL     OW 2129   1.840   2.679   2.976  0.2806  0.2217 -0.0459
  533SOL    HW1 2130   1.811   2.629   3.048 -2.3260 -2.0184  0.2605
  533SOL    HW2 2131   1.769   2.682   2.908  1.6683  0.6211  0.6708
  533SOL     MW 2132   1.826   2.673   2.976  0.1198 -0.0212  0.0890
  534SOL     OW 2133   1.810   2.349   2.465  0.1032  0.0829  0.0963
  534SOL    HW1 2134   1.725   2.323   2.508 -1.0419 -0.9231  1.0830
  534SOL    HW2 2135   1.885   2.315   2.518 -0.9277  0.8653 -1.0986
  534SOL     MW 2136   1.809   2.341   2.477 -0.1839  0.0534  0.0688
  535SOL     OW 2137   1.861   2.365   1.875 -0.2036  0.2328 -0.6262
  535SOL    HW1 2138   1.830   2.389   1.787  1.0076 -0.4683  0.4286
  535SOL    HW2 2139   1.958   2.383   1.878 -0.2425  0.1855 -3.7320
  535SOL     MW 2140   1.870   2.370   1.864 -0.0489  0.1341 -0.8968
  536SOL     OW 2141   0.435   1.887   2.023 -0.2643  0.0786  0.1277
  536SOL    HW1 2142   0.431   1.798   1.990 -1.5952 -2.2774 -0.0132
  536SOL    HW2 2143   0.520   1.933   1.995  0.2543  1.3839 -0.8324
  536SOL     MW 2144   0.446   1.881   2.015 -0.3715 -0.0600 -0.0175
  537SOL     OW 2145   1.007   0.158   2.886 -0.1928 -0.3008 -0.1687
  537SOL    HW1 2146   0.980   0.127   2.970  1.7281  2.4847 -1.2127
  537SOL    HW2 2147   1.029   0.255   2.898  0.8769  1.8393 -3.0081
  537SOL     MW 2148   1.007   0.167   2.898  0.2018  0.3491 -0.6811
  538SOL     OW 2149   1.370   0.066   2.977  0.0640 -0.2646  0.0145
  538SOL    HW1 2150   1.340   0.153   2.954  0.9689 -0.4106  1.2239
  538SOL    HW2 2151   1.455   0.057   2.935 -1.2478 -2.9113 -0.5835
  538SOL     MW 2152   1.377   0.076   2.969  0.0103 -0.6331  0.0952
  539SOL     OW 2153   0.757   2.777   2.545 -0.0681 -0.5598 -0.1914
  539SOL    HW1 2154   0.860   2.783   2.554  0.3163  1.2253 -1.2924
  539SOL    HW2 2155   0.731   2.691   2.580  0.2068  0.4211 -0.1493
  539SOL     MW 2156   0.768   2.767   2.551  0.0189 -0.1949 -0.3311
  540SOL     OW 2157   0.375   2.396   2.838  0.5052 -0.0091  0.0663
  540SOL    HW1 2158   0.458   2.377   2.887 -0.1109  0.6295 -3.1862
  540SOL    HW2 2159   0.315   2.341   2.888  0.2591  2.0466  0.4842
  540SOL     MW 2160   0.378   2.386   2.851  0.3915  0.3464 -0.3077
  541SOL     OW 2161   0.179   2.938   2.218 -0.0964  0.3207  0.0771
  541SOL    HW1 2162   0.177   2.876   2.145  0.2413  1.5686 -2.9412
  541SOL    HW2 2163   0.226   2.892   2.284 -0.5084 -1.5400  1.8517
  541SOL     MW 2164   0.185   2.924   2.217 -0.1062  0.2398 -0.0870
  542SOL     OW 2165   0.998   2.242   2.603  0.0808  0.1169  0.8239
  542SOL    HW1 2166   0.964   2.182   2.664 -0.0915 -0.0968 -3.2682
  542SOL    HW2 2167   1.032   2.313   2.663  1.2349  1.2927  0.6842
  542SOL     MW 2168   0.998   2.244   2.619  0.2103  0.2439  0.2656
  543SOL     OW 2169   1.440   2.468   2.793 -0.2687 -0.3623  0.6481
  543SOL    HW1 2170   1.449   2.387   2.741 -0.5220 -1.5571 -1.2862
  543SOL    HW2 2171   1.523   2.521   2.784  0.6289  1.1368  3.2730
  543SOL     MW 2172   1.452   2.464   2.785 -0.1837 -0.3222  0.7392
  544SOL     OW 2173   0.719   0.212   2.686  0.6937 -0.3713  0.3117
  544SOL    HW1 2174   0.634   0.192   2.664 -0.3434 -2.7464 -0.3583
  544SOL    HW2 2175   0.773   0.156   2.629  1.5447 -1.8038  2.2474
  544SOL     MW 2176   0.715   0.202   2.676  0.6691 -0.8737  0.4787
  545SOL     OW 2177   1.572   2.173   2.325 -0.3789  0.2729  0.2503
  545SOL    HW1 2178   1.499   2.183   2.262 -0.6495 -1.1345 -1.3715
  545SOL    HW2 2179   1.636   2.121   2.270 -1.0451  1.5174 -0.1363
  545SOL     MW 2180   1.571   2.168   2.310 -0.5025  0.2514 -0.0147
  546SOL     OW 2181   3.003   2.014   0.138  0.0902 -0.1134 -0.1359
  546SOL    HW1 2182   2.976   2.092   0.087  0.7722 -2.2136 -0.5561
  546SOL    HW2 2183   3.079   1.969   0.097  2.1223  0.7188 -0.6774
  546SOL     MW 2184   3.010   2.018   0.126  0.4483 -0.2807 -0.2628
  547SOL     OW 2185   0.298   2.978   0.118 -0.0758  0.6479  0.0483
  547SOL    HW1 2186   0.365   3.021   0.058  4.3014  3.1027 -0.4012
  547SOL    HW2 2187   0.285   2.886   0.076 -0.7237 -0.5704  0.7459
  547SOL     MW 2188   0.305   2.972   0.104  0.4162  0.8111  0.0810
  548SOL     OW 2189   0.276   2.552   0.225 -0.1776 -0.2496 -0.7525
  548SOL    HW1 2190   0.279   2.611   0.151  0.6866 -2.8031 -0.1712
  548SOL    HW2 2191   0.188   2.509   0.217 -2.0808  2.2789 -0.8390
  548SOL     MW 2192   0.265   2.554   0.215 -0.3147 -0.2529 -0.6872
  549SOL     OW 2193   0.857   1.880   2.155  0.5350 -0.0008  0.5573
  549SOL    HW1 2194   0.849   1.957   2.094 -0.8363 -1.0976 -2.5793
  549SOL    HW2 2195   0.813   1.893   2.239  1.3300 -0.9742  2.6559
  549SOL     MW 2196   0.850   1.892   2.158  0.4590 -0.2740  0.4204
  550SOL     OW 2197   1.792   1.711   2.559 -0.1410 -0.0639  0.5692
  550SOL    HW1 2198   1.802   1.730   2.461 -1.8985 -1.4029  0.6437
  550SOL    HW2 2199   1.786   1.799   2.595 -0.1457 -1.5543  0.3466
  550SOL     MW 2200   1.793   1.725   2.550 -0.3735 -0.4372  0.5496
  551SOL     OW 2201   0.881   2.251   0.231  0.0767  0.4132  0.6893
  551SOL    HW1 2202   0.971   2.245   0.205  0.0430  0.5588  1.5827
  551SOL    HW2 2203   0.842   2.179   0.179 -0.5650  0.7640 -2.0887
  551SOL     MW 2204   0.888   2.241   0.221 -0.0124  0.4787  0.4407
  552SOL     OW 2205   1.772   1.737   2.287  0.2696 -0.0777  0.2744
  552SOL    HW1 2206   1.671   1.719   2.310  1.9869 -0.2914  1.8696
  552SOL    HW2 2207   1.783   1.685   2.195 -0.1514 -2.6899 -1.8373
  552SOL     MW 2208   1.761   1.728   2.278  0.4407 -0.4505  0.2063
  553SOL     OW 2209   1.195   2.317   1.445  0.2548  0.0069  0.2569
  553SOL    HW1 2210   1.238   2.237   1.470 -3.4165  1.4101 -0.5016
  553SOL    HW2 2211   1.269   2.379   1.451  1.1848 -2.3066  1.0611
  553SOL     MW 2212   1.210   2.315   1.449 -0.1069 -0.1132  0.2629
  554SOL     OW 2213   0.541   2.923   2.642 -0.1278 -0.3026 -0.2088
  554SOL    HW1 2214   0.506   2.995   2.587  0.2428 -2.9968  1.3054
  554SOL    HW2 2215   0.606   2.873   2.595  0.4893  1.4220  0.3676
  554SOL     MW 2216   0.545   2.926   2.629  0.0025 -0.4306  0.0670
  555SOL     OW 2217   0.633   2.488   2.541  0.1117  0.6275 -0.6344
  555SOL    HW1 2218   0.599   2.408   2.577  2.5862  2.4447 -3.2812
  555SOL    HW2 2219   0.704   2.465   2.481  0.8218  2.9929  2.9486
  555SOL     MW 2220   0.638   2.474   2.538  0.5319  1.1793 -0.5109
  556SOL     OW 2221   0.964   1.817   0.159  0.2612 -0.2473 -0.1463
  556SOL    HW1 2222   1.008   1.807   0.072 -0.0943  1.2417 -2.8856
  556SOL    HW2 2223   1.031   1.838   0.223  0.2198 -1.2157 -2.2016
  556SOL     MW 2224   0.979   1.818   0.156  0.2088 -0.1786 -0.7789
  557SOL     OW 2225   0.978   2.670   0.515  0.0641 -0.3433  0.7449
  557SOL    HW1 2226   1.019   2.622   0.441 -0.4400  2.2029 -0.4959
  557SOL    HW2 2227   0.900   2.717   0.472 -0.4204 -0.8911 -0.1981
  557SOL     MW 2228   0.973   2.670   0.500 -0.0663 -0.0796  0.4568
  558SOL     OW 2229   0.271   2.224   3.027  0.2364  0.9815 -0.4481
  558SOL    HW1 2230   0.273   2.131   3.047 -2.6884  1.0818 -1.4597
  558SOL    HW2 2231   0.216   2.272   3.090 -1.6018  1.2207  1.0724
  558SOL     MW 2232   0.264   2.218   3.038 -0.3920  1.0263 -0.3809
  559SOL     OW 2233   1.014   2.337   2.125 -0.2526  0.2159  0.1160
  559SOL    HW1 2234   1.023   2.421   2.170  0.4486  0.6659 -2.6315
  559SOL    HW2 2235   1.040   2.268   2.196 -0.5026  0.5983  3.3276
  559SOL     MW 2236   1.018   2.339   2.140 -0.1931  0.3258  0.1772
  560SOL     OW 2237   1.969   2.850   0.035  0.2527  0.3153  0.0825
  560SOL    HW1 2238   2.033   2.893  -0.019 -0.8040  0.9248  1.0936
  560SOL    HW2 2239   1.930   2.777  -0.008  3.7340 -2.6837  1.9213
  560SOL     MW 2240   1.972   2.846   0.022  0.5726  0.0000  0.4585
  561SOL     OW 2241   0.411   2.199   0.180 -0.3292  0.0227 -0.3331
  561SOL    HW1 2242   0.385   2.225   0.086 -0.6775  4.1192 -3.7042
  561SOL    HW2 2243   0.456   2.274   0.208 -2.4380  0.0888  0.1842
  561SOL     MW 2244   0.414   2.212   0.172 -0.6534  0.5719 -0.7097
  562SOL     OW 2245   0.742   2.196   2.201 -0.7072 -0.6849 -0.3409
  562SOL    HW1 2246   0.770   2.284   2.183 -0.9188 -0.6586  2.1543
  562SOL    HW2 2247   0.822   2.163   2.244  0.4674 -0.9034  1.1012
  562SOL     MW 2248   0.756   2.203   2.204 -0.5801 -0.7103  0.1786
  563SOL     OW 2249   1.178   0.312   0.558  0.1604 -0.5879 -0.0503
  563SOL    HW1 2250   1.102   0.292   0.499 -0.9674  2.1745  1.8191
  563SOL    HW2 2251   1.211   0.235   0.608  2.4077 -0.2658 -2.4815
  563SOL     MW 2252   1.173   0.299   0.557  0.3081 -0.1809 -0.1244
  564SOL     OW 2253   1.046   2.610   2.240  0.1207 -0.4848  0.1353
  564SOL    HW1 2254   1.082   2.616   2.143  0.6397 -1.1170  2.2182
  564SOL    HW2 2255   1.101   2.672   2.286  0.4882 -1.0464  2.7930
  564SOL     MW 2256   1.058   2.619   2.233  0.2377 -0.6423  0.7608
  565SOL     OW 2257   2.893   2.734   2.672 -0.3156 -0.0066  0.2805
  565SOL    HW1 2258   2.945   2.801   2.624  0.2654 -0.7377 -0.8146
  565SOL    HW2 2259   2.810   2.728   2.624 -1.9610  0.7304 -0.8582
  565SOL     MW 2260   2.889   2.742   2.659 -0.4560 -0.0058 -0.0142
  566SOL     OW 2261   2.162   1.875   2.365  0.7039 -0.3962 -0.1645
  566SOL    HW1 2262   2.181   1.848   2.275  0.8962  0.0532 -0.1641
  566SOL    HW2 2263   2.216   1.960   2.379  3.4573 -2.9698 -1.3276
  566SOL     MW 2264   2.172   1.883   2.355  1.0926 -0.6765 -0.3179
  567SOL     OW 2265   1.188   2.900   2.919  0.2587  0.1463 -0.3353
  567SOL    HW1 2266   1.252   2.960   2.947 -1.6134 -1.8898 -2.3213
  567SOL    HW2 2267   1.239   2.825   2.940  1.2991  1.8006  3.7527
  567SOL     MW 2268   1.203   2.898   2.925  0.1489  0.0959 -0.0580
  568SOL     OW 2269   1.607   2.152   2.879  0.0813 -0.1660 -0.2790
  568SOL    HW1 2270   1.664   2.202   2.942 -1.4990  0.0828  0.4179
  568SOL    HW2 2271   1.656   2.076   2.846  0.3658  3.7654  1.3927
  568SOL     MW 2272   1.621   2.148   2.883 -0.0896  0.3856  0.0335
  569SOL     OW 2273   0.192   2.250   2.486  0.3067 -0.3062 -0.1402
  569SOL    HW1 2274   0.127   2.284   2.425 -1.4608  1.5036 -1.1698
  569SOL    HW2 2275   0.225   2.332   2.531  1.0853  2.0101 -4.2998
  569SOL     MW 2276   0.188   2.265   2.484  0.1762  0.2382 -0.8249
  570SOL     OW 2277   1.438   0.386   0.491  0.7900  0.2141  0.1765
  570SOL    HW1 2278   1.347   0.354   0.510 -2.1113 -1.0768  0.3474
  570SOL    HW2 2279   1.477   0.425   0.571  3.6553 -0.9486 -1.5782
  570SOL     MW 2280   1.431   0.387   0.504  0.7852 -0.1096 -0.0325
  571SOL     OW 2281   1.503   2.441   2.005  0.2589  0.2556  0.3179
  571SOL    HW1 2282   1.548   2.460   2.092  1.8564 -0.9468  0.8601
  571SOL    HW2 2283   1.523   2.356   1.970  0.8775  1.7608  1.3201
  571SOL     MW 2284   1.512   2.432   2.012  0.5513  0.2955  0.5217
  572SOL     OW 2285   0.976   2.666   0.044  0.5489  0.3654  0.6709
  572SOL    HW1 2286   0.946   2.683  -0.046 -0.1303 -3.9680 -0.8028
  572SOL    HW2 2287   0.900   2.636   0.087  1.2686  1.4039 -0.3384
  572SOL     MW 2288   0.962   2.664   0.038  0.5542 -0.0693  0.3433
  573SOL     OW 2289   1.148   2.313   0.224 -0.1724  0.0464 -0.3162
  573SOL    HW1 2290   1.234   2.310   0.192  0.3920 -0.2553 -1.7449
  573SOL    HW2 2291   1.120   2.407   0.230 -1.1977 -1.8816 -0.6207
  573SOL     MW 2292   1.156   2.325   0.221 -0.2332 -0.2478 -0.5449
  574SOL     OW 2293   1.118   2.599   0.288 -0.1985 -0.7423  0.2528
  574SOL    HW1 2294   1.185   2.653   0.323 -0.8322  1.5192  3.8921
  574SOL    HW2 2295   1.101   2.631   0.197 -0.3530  1.0550 -2.7297
  574SOL     MW 2296   1.124   2.611   0.281 -0.3025 -0.2067  0.3394
  575SOL     OW 2297   0.056   2.288   1.814  0.1659 -0.6293  0.3861
  575SOL    HW1 2298   0.073   2.199   1.789 -1.5732 -2.2039  2.7355
  575SOL    HW2 2299   0.079   2.358   1.749  2.4310 -0.8708  0.3521
  575SOL     MW 2300   0.061   2.286   1.802  0.2353 -0.8689  0.6916
  576SOL     OW 2301   2.804   1.814   2.107  0.1052 -0.4899  0.1324
  576SOL    HW1 2302   2.827   1.853   2.023 -0.8747 -1.0376  2.5762
  576SOL    HW2 2303   2.716   1.779   2.079  0.1677 -1.6147  1.6805
  576SOL     MW 2304   2.796   1.814   2.092 -0.0158 -0.7106  0.6591
  577SOL     OW 2305   2.084   0.198   0.108  0.0839  0.1418  0.0236
  577SOL    HW1 2306   2.028   0.242   0.050  1.4559 -1.5610 -0.0205
  577SOL    HW2 2307   2.027   0.156   0.174 -0.8989 -1.0020  0.7940
  577SOL     MW 2308   2.069   0.198   0.109  0.1353 -0.2338  0.1194
  578SOL     OW 2309   1.935   2.015   2.375 -0.3902 -0.2256 -0.3511
  578SOL    HW1 2310   1.857   1.983   2.333 -0.3506  1.2183 -1.4555
  578SOL    HW2 2311   2.008   1.958   2.343  2.2209  0.2120 -0.4247
  578SOL     MW 2312   1.934   2.003   2.365 -0.0405  0.0226 -0.5065
  579SOL     OW 2313   0.870   2.437   2.404 -0.0499 -0.6933 -0.2184
  579SOL    HW1 2314   0.906   2.361   2.458 -0.1283  0.3047 -0.9963
  579SOL    HW2 2315   0.938   2.503   2.394  0.4537  0.3106  0.3828
  579SOL     MW 2316   0.884   2.436   2.410  0.0062 -0.4292 -0.2417
  580SOL     OW 2317   0.944   2.934   3.059  0.6140 -0.8347  0.0678
  580SOL    HW1 2318   1.031   2.888   3.051  0.2243 -0.9471 -0.8932
  580SOL    HW2 2319   0.904   2.922   2.976  0.1238  0.0719 -0.4842
  580SOL     MW 2320   0.950   2.926   3.047  0.4979 -0.7299 -0.1318
  581SOL     OW 2321   1.156   2.478   1.693 -0.6434 -0.4856 -0.0496
  581SOL    HW1 2322   1.216   2.483   1.761 -1.7577  3.8565 -0.0035
  581SOL    HW2 2323   1.181   2.410   1.632 -0.8527 -1.2138 -1.5675
  581SOL     MW 2324   1.167   2.470   1.694 -0.8181 -0.0088 -0.2438
  582SOL     OW 2325   0.016   2.867   2.570  0.3368 -0.1820 -0.1678
  582SOL    HW1 2326   0.023   2.935   2.640  0.0770 -0.8504  2.1501
  582SOL    HW2 2327   0.099   2.828   2.553 -0.9799 -1.2065  0.5347
  582SOL     MW 2328   0.028   2.871   2.577  0.1288 -0.4053  0.2308
  583SOL     OW 2329   2.009   2.391   2.677 -0.4484  0.7072 -0.5463
  583SOL    HW1 2330   2.088   2.397   2.625  0.9249 -0.7205  0.6403
  583SOL    HW2 2331   1.996   2.295   2.702 -0.7728 -1.2588  2.5039
  583SOL     MW 2332   2.018   2.379   2.673 -0.3100  0.2594  0.0127
  584SOL     OW 2333   0.235   1.845   2.222 -0.3918  0.4595  0.0518
  584SOL    HW1 2334   0.302   1.850   2.149  2.0433 -0.5670  1.2326
  584SOL    HW2 2335   0.245   1.931   2.260 -1.9161  1.5431 -0.4620
  584SOL     MW 2336   0.245   1.857   2.217 -0.2716  0.4670  0.1398
  585SOL     OW 2337   1.537   2.662   0.174 -0.3089  0.1451  0.3200
  585SOL    HW1 2338   1.507   2.603   0.106 -0.7430 -1.1987  3.2559
  585SOL    HW2 2339   1.457   2.680   0.219  0.7399  0.0543  1.6252
  585SOL     MW 2340   1.522   2.657   0.171 -0.2278 -0.0441  0.8796
  586SOL     OW 2341   1.342   2.843   2.525 -0.1515  0.3860  0.4185
  586SOL    HW1 2342   1.420   2.820   2.462  1.7155 -1.4510 -0.7638
  586SOL    HW2 2343   1.361   2.935   2.541 -0.5102 -1.8177 -0.9113
  586SOL     MW 2344   1.354   2.852   2.519  0.0475 -0.1471  0.0870
  587SOL     OW 2345   1.324   1.561   2.192 -0.3677  0.3184 -0.4781
  587SOL    HW1 2346   1.317   1.474   2.241 -1.6212  0.4340  0.5500
  587SOL    HW2 2347   1.280   1.552   2.109  1.3286 -0.1526 -0.0621
  587SOL     MW 2348   1.318   1.548   2.187 -0.3093  0.2715 -0.2876
  588SOL     OW 2349   1.336   2.095   2.755 -0.6904 -0.1529  0.2193
  588SOL    HW1 2350   1.414   2.126   2.793  0.7103 -1.9337 -1.4343
  588SOL    HW2 2351   1.271   2.098   2.835  0.2775 -2.3819  0.7958
  588SOL     MW 2352   1.338   2.099   2.771 -0.3779 -0.6819  0.0772
  589SOL     OW 2353   1.267   2.038   0.107  0.5732 -0.0646  0.0416
  589SOL    HW1 2354   1.305   2.120   0.143  0.2466 -0.2611  1.2550
  589SOL    HW2 2355   1.241   1.988   0.185 -0.4618  1.3948 -0.3236
  589SOL     MW 2356   1.269   2.042   0.122  0.3936  0.1020  0.1535
  590SOL     OW 2357   0.458   2.777   2.213  0.2337  0.2390 -0.1212
  590SOL    HW1 2358   0.474   2.717   2.144 -0.7580  3.1181  2.1634
  590SOL    HW2 2359   0.545   2.809   2.235 -1.1275 -1.5820  1.7772
  590SOL     MW 2360   0.472   2.773   2.207 -0.0767  0.3786  0.4307
  591SOL     OW 2361   2.253   0.658   0.010 -0.1582 -0.3780  0.5585
  591SOL    HW1 2362   2.177   0.706  -0.024 -0.9002 -2.0196 -0.6073
  591SOL    HW2 2363   2.335   0.677  -0.048  3.5812 -0.6419 -3.9786
  591SOL     MW 2364   2.254   0.667  -0.002  0.2373 -0.6294 -0.1939
  592SOL     OW 2365   1.769   2.955   0.827  0.6999 -0.2943  0.3886
  592SOL    HW1 2366   1.765   3.031   0.763 -2.3017  3.5225 -0.7708
  592SOL    HW2 2367   1.808   2.886   0.775  0.9406  0.7760  1.0418
  592SOL     MW 2368   1.774   2.956   0.812  0.3356  0.3505  0.3218
  593SOL     OW 2369   1.965   0.674   0.839  0.7706 -0.3905 -0.3642
  593SOL    HW1 2370   1.884   0.655   0.792 -0.5288 -0.0457 -1.9620
  593SOL    HW2 2371   2.003   0.587   0.857 -4.8563 -2.2838  2.9613
  593SOL     MW 2372   1.959   0.660   0.835 -0.1433 -0.5948 -0.1363
  594SOL     OW 2373   2.837   1.147   1.361  0.1241  0.1038 -0.4178
  594SOL    HW1 2374   2.931   1.180   1.376 -0.2464  0.0302  1.4485
  594SOL    HW2 2375   2.848   1.106   1.274  1.1317  3.2195  1.3171
  594SOL     MW 2376   2.851   1.146   1.351  0.2082  0.5052  0.0573
  595SOL     OW 2377   0.416   1.015   0.836 -0.8406  0.3155  0.1794
  595SOL    HW1 2378   0.476   1.045   0.766  1.1551 -0.6261  0.3661
  595SOL    HW2 2379   0.430   1.067   0.921 -0.3712 -0.5980  0.1971
  595SOL     MW 2380   0.426   1.026   0.838 -0.5153  0.0708  0.2063
  596SOL     OW 2381   2.452   1.316   0.596  0.2150 -0.2295 -0.6258
  596SOL    HW1 2382   2.510   1.377   0.553 -1.5159  0.7456 -0.2294
  596SOL    HW2 2383   2.492   1.285   0.677  2.3777 -0.5473  0.6548
  596SOL     MW 2384   2.465   1.320   0.601  0.2720 -0.1428 -0.4046
  597SOL     OW 2385   2.207   0.709   1.605 -0.0723 -0.3865 -0.0651
  597SOL    HW1 2386   2.222   0.637   1.670  0.9185 -1.0858  0.3107
  597SOL    HW2 2387   2.132   0.668   1.552 -0.1161 -0.2551 -0.6535
  597SOL     MW 2388   2.199   0.694   1.607  0.0526 -0.4614 -0.0931
  598SOL     OW 2389   2.603   1.003   2.863 -0.2343 -0.1330 -0.3610
  598SOL    HW1 2390   2.582   0.986   2.770 -1.4728 -0.4661 -0.4935
  598SOL    HW2 2391   2.700   1.024   2.868  3.0843 -1.0572  0.4284
  598SOL     MW 2392   2.613   1.004   2.852  0.0402 -0.2989 -0.2743
  599SOL     OW 2393   2.953   0.409   2.076 -0.5814  0.1543  0.1737
  599SOL    HW1 2394   3.022   0.420   2.147 -0.1857 -1.0932  1.3011
  599SOL    HW2 2395   2.977   0.487   2.020  0.1552 -0.1854  0.2425
  599SOL     MW 2396   2.965   0.421   2.078 -0.4320 -0.0552  0.3316
  600SOL     OW 2397   1.876   1.601   0.831 -0.6601 -0.1970 -0.1399
  600SOL    HW1 2398   1.904   1.641   0.913  2.0041 -0.0946 -0.6222
  600SOL    HW2 2399   1.788   1.636   0.816 -1.8088 -0.9604 -0.4669
  600SOL     MW 2400   1.868   1.611   0.840 -0.4601 -0.2842 -0.2467
  601SOL     OW 2401   2.488   0.763   0.826  0.7761 -0.2104 -0.6864
  601SOL    HW1 2402   2.469   0.767   0.925 -1.2732 -0.2368  2.2555
  601SOL    HW2 2403   2.415   0.722   0.782 -0.1317  1.2152  1.9249
  601SOL     MW 2404   2.476   0.758   0.833  0.3859 -0.0258  0.0463
  602SOL     OW 2405   2.351   1.936   0.817 -0.0492 -0.1735 -0.2272
  602SOL    HW1 2406   2.304   1.855   0.796  0.4753 -0.3560 -2.1957
  602SOL    HW2 2407   2.290   2.005   0.797  0.9260 -0.6045 -1.3369
  602SOL     MW 2408   2.337   1.934   0.812  0.1487 -0.2545 -0.6334
  603SOL     OW 2409   3.092   1.353   1.816  0.3988 -0.3899  0.0833
  603SOL    HW1 2410   3.151   1.410   1.869 -2.5783  0.9790 -0.1895
  603SOL    HW2 2411   3.075   1.272   1.860 -2.5069 -0.3854  0.5470
  603SOL     MW 2412   3.098   1.350   1.829 -0.3774 -0.2087  0.1085
  604SOL     OW 2413   2.171   1.577   0.452 -0.0712 -1.0049  0.0389
  604SOL    HW1 2414   2.185   1.485   0.476 -0.7524 -1.7330 -1.8581
  604SOL    HW2 2415   2.093   1.618   0.509 -0.6170  1.7969  2.1184
  604SOL     MW 2416   2.163   1.570   0.463 -0.2331 -0.7313  0.0630
  605SOL     OW 2417   2.606   1.499   0.842 -0.0213 -0.6813  0.1248
  605SOL    HW1 2418   2.566   1.554   0.768 -1.8936 -0.5853 -1.1028
  605SOL    HW2 2419   2.588   1.408   0.811  3.3318 -1.0305  0.2960
  605SOL     MW 2420   2.598   1.494   0.828  0.1741 -0.7147 -0.0146
  606SOL     OW 2421   2.582   1.723   2.002  0.3297 -1.0969  0.1344
  606SOL    HW1 2422   2.487   1.741   2.006  1.1917  0.0315  1.3462
  606SOL    HW2 2423   2.602   1.660   1.933 -0.8727 -0.7592 -2.0101
  606SOL     MW 2424   2.572   1.717   1.993  0.2848 -0.9035  0.0114
  607SOL     OW 2425   2.389   1.127   3.050  0.0246 -0.0639 -0.1243
  607SOL    HW1 2426   2.453   1.094   2.987  1.7773  0.5802 -0.7676
  607SOL    HW2 2427   2.407   1.082   3.134  0.5513 -1.8598  1.6801
  607SOL     MW 2428   2.400   1.117   3.053  0.3254 -0.2159  0.0289
  608SOL     OW 2429   1.854   0.271   0.623  0.1248  0.1634 -0.5843
  608SOL    HW1 2430   1.867   0.315   0.538 -0.1995 -0.2424  0.7215
  608SOL    HW2 2431   1.808   0.191   0.599 -2.5183  0.1314  1.5787
  608SOL     MW 2432   1.850   0.266   0.609 -0.2667  0.1056 -0.1266
  609SOL     OW 2433   2.046   2.001   3.022  0.0710 -0.5540 -0.3074
  609SOL    HW1 2434   1.978   1.944   3.000 -1.0497  0.9611 -2.9013
  609SOL    HW2 2435   2.090   1.969   3.107  2.2942 -0.9390  1.9993
  609SOL     MW 2436   2.043   1.989   3.030  0.2164 -0.4049 -0.3453
  610SOL     OW 2437   1.787   0.991   1.283  0.2575 -0.1264  0.0775
  610SOL    HW1 2438   1.803   0.926   1.215 -3.8993  0.1435  1.5506
  610SOL    HW2 2439   1.694   0.994   1.287  1.2507 -0.9226  2.2011
  610SOL     MW 2440   1.777   0.983   1.274 -0.1599 -0.1958  0.5521
  611SOL     OW 2441   2.537   1.719   0.693 -0.0830 -0.1606 -0.4066
  611SOL    HW1 2442   2.559   1.808   0.719  1.8413  1.2529  0.6406
  611SOL    HW2 2443   2.442   1.710   0.669 -0.2179 -2.5290  1.9451
  611SOL     MW 2444   2.527   1.729   0.693  0.1531 -0.2866  0.0419
  612SOL     OW 2445   2.805   2.833   0.418  0.7562 -0.1126 -0.1514
  612SOL    HW1 2446   2.842   2.896   0.486  1.4888 -1.8041 -0.4361
  612SOL    HW2 2447   2.884   2.806   0.364 -0.4861 -1.7642 -0.9750
  612SOL     MW 2448   2.820   2.838   0.420  0.6889 -0.5537 -0.2977
  613SOL     OW 2449   1.476   1.012   0.915  0.2686  0.7520 -0.1979
  613SOL    HW1 2450   1.501   1.100   0.893 -2.8276  1.0514 -0.9362
  613SOL    HW2 2451   1.498   0.994   1.008  0.1991 -2.6582 -2.9866
  613SOL     MW 2452   1.482   1.021   0.924 -0.1491  0.3415 -0.6632
  614SOL     OW 2453   2.024   0.569   1.461  0.1248  0.3777  0.0476
  614SOL    HW1 2454   2.016   0.481   1.504 -0.1196  0.1725 -2.1158
  614SOL    HW2 2455   1.966   0.561   1.384  3.1786 -3.8174  2.6454
  614SOL     MW 2456   2.015   0.556   1.456  0.4955 -0.2029  0.1049
  615SOL     OW 2457   2.385   0.743   0.244  0.0618 -0.0862 -0.1850
  615SOL    HW1 2458   2.406   0.661   0.292  0.4940 -0.4777  0.9175
  615SOL    HW2 2459   2.332   0.733   0.158 -3.9395  3.2854 -2.5359
  615SOL     MW 2460   2.380   0.731   0.239 -0.4091  0.3070 -0.3497
  616SOL     OW 2461   2.543   0.406   1.651  0.2517  0.0246  0.0902
  616SOL    HW1 2462   2.524   0.337   1.593 -2.8257  2.1593 -0.3473
  616SOL    HW2 2463   2.521   0.491   1.610  1.0989  1.5088  0.8883
  616SOL     MW 2464   2.537   0.408   1.638 -0.0426  0.5021  0.1378
  617SOL     OW 2465   2.815   0.654   1.737 -0.6667 -0.4358 -0.5252
  617SOL    HW1 2466   2.744   0.661   1.797 -0.3355 -2.0019  1.5419
  617SOL    HW2 2467   2.834   0.566   1.708  0.6477  2.1444 -3.6311
  617SOL     MW 2468   2.808   0.644   1.741 -0.4496 -0.3020 -0.6622
  618SOL     OW 2469   2.738   0.355   1.927  0.4057 -0.0581  0.4363
  618SOL    HW1 2470   2.680   0.433   1.911 -0.2394 -0.1636  2.2701
  618SOL    HW2 2471   2.788   0.369   2.009  2.2413 -1.3330  0.0497
  618SOL     MW 2472   2.737   0.367   1.936  0.5627 -0.2402  0.6272
  619SOL     OW 2473   2.667   0.676   0.086 -0.3016  0.5876  0.1247
  619SOL    HW1 2474   2.704   0.769   0.099 -0.0800  1.7782 -0.5011
  619SOL    HW2 2475   2.614   0.669   0.167 -0.2247  0.0508  0.3523
  619SOL     MW 2476   2.665   0.687   0.099 -0.2622  0.6739  0.0721
  620SOL     OW 2477   2.214   1.059   0.977 -0.2259 -0.0419 -1.1900
  620SOL    HW1 2478   2.286   1.072   0.913 -2.7342 -3.2012 -1.1856
  620SOL    HW2 2479   2.142   1.024   0.932 -0.3413  1.0535 -0.1424
  620SOL     MW 2480   2.214   1.056   0.962 -0.5720 -0.3142 -1.0512
  621SOL     OW 2481   1.554   2.176   1.907 -0.4047  0.4364 -0.5778
  621SOL    HW1 2482   1.492   2.113   1.955  0.9854  0.1225  1.0381
  621SOL    HW2 2483   1.641   2.155   1.933  3.0126 -1.5285 -0.3329
  621SOL     MW 2484   1.557   2.165   1.917  0.2296  0.1357 -0.3323
  622SOL     OW 2485   2.623   0.173   0.231  0.0016 -0.0135 -0.1855
  622SOL    HW1 2486   2.712   0.208   0.230 -0.5146  0.7682  0.2561
  622SOL    HW2 2487   2.637   0.081   0.259 -0.0314  0.6520 -0.0839
  622SOL     MW 2488   2.636   0.165   0.235 -0.0708  0.1775 -0.1138
  623SOL     OW 2489   2.373   2.769   0.842  0.7150  0.3599 -0.1703
  623SOL    HW1 2490   2.434   2.846   0.854 -1.8500  1.1525  0.5832
  623SOL    HW2 2491   2.321   2.781   0.921  3.0450 -0.9312  0.0046
  623SOL     MW 2492   2.374   2.781   0.854  0.6840  0.2941 -0.0478
  624SOL     OW 2493   2.165   1.708   2.979 -0.9470 -0.6186 -0.0467
  624SOL    HW1 2494   2.150   1.653   3.051  0.4425 -0.0591 -0.7941
  624SOL    HW2 2495   2.081   1.742   2.978  2.3258  0.3197  0.1185
  624SOL     MW 2496   2.152   1.705   2.988 -0.3319 -0.4210 -0.1235
  625SOL     OW 2497   2.207   1.902   1.078 -0.1653 -0.0746 -0.7925
  625SOL    HW1 2498   2.283   1.886   1.141 -0.3438  1.0054 -2.9801
  625SOL    HW2 2499   2.245   1.886   0.992 -0.7008  0.6898  0.0721
  625SOL     MW 2500   2.222   1.898   1.075 -0.2595  0.1687 -0.9671
  626SOL     OW 2501   0.315   1.598   2.361 -0.2903  0.4564  0.7692
  626SOL    HW1 2502   0.265   1.520   2.384 -0.5303 -2.2027  2.2920
  626SOL    HW2 2503   0.254   1.665   2.336  2.2851  2.2548  0.3719
  626SOL     MW 2504   0.300   1.596   2.361  0.0178  0.3428  0.9177
  627SOL     OW 2505   2.441   0.706   2.573 -0.1501  0.1908 -0.2517
  627SOL    HW1 2506   2.412   0.794   2.605 -0.8962 -0.8222 -0.3124
  627SOL    HW2 2507   2.424   0.697   2.481  2.5032 -1.0440  1.2778
  627SOL     MW 2508   2.435   0.716   2.565  0.1016 -0.1057 -0.0579
  628SOL     OW 2509   2.344   1.418   1.343  0.2930  0.5718 -0.2370
  628SOL    HW1 2510   2.287   1.356   1.295  1.3441  0.6292  1.5667
  628SOL    HW2 2511   2.425   1.419   1.289 -2.0155 -1.2343  0.4626
  628SOL     MW 2512   2.347   1.410   1.330  0.1271  0.3411  0.0933
  629SOL     OW 2513   1.867   0.524   1.244  0.3112  0.3393 -0.4384
  629SOL    HW1 2514   1.862   0.617   1.224 -1.0496  1.1139  0.5785
  629SOL    HW2 2515   1.774   0.491   1.235 -2.5643 -0.3297  1.4483
  629SOL     MW 2516   1.854   0.532   1.240 -0.2478  0.3533 -0.0553
  630SOL     OW 2517   2.406   1.818   3.028  0.1546 -0.4086  0.8327
  630SOL    HW1 2518   2.412   1.892   2.965  0.3239 -1.2918  2.8500
  630SOL    HW2 2519   2.308   1.806   3.025 -2.2671 -0.3709  0.8383
  630SOL     MW 2520   2.394   1.826   3.019 -0.1426 -0.5201  1.0996
  631SOL     OW 2521   2.015   1.825   1.594  0.7736 -0.1459 -0.4859
  631SOL    HW1 2522   2.004   1.732   1.604  0.5980  2.5718  1.0095
  631SOL    HW2 2523   2.017   1.837   1.497  1.7006  0.8472  0.3462
  631SOL     MW 2524   2.014   1.814   1.583  0.8727  0.3437 -0.1788
  632SOL     OW 2525   0.180   1.942   1.400 -0.1533 -0.4714 -0.6439
  632SOL    HW1 2526   0.133   1.946   1.487 -0.3331  0.8722  2.1913
  632SOL    HW2 2527   0.160   1.863   1.350  1.0231  3.0010  0.5998
  632SOL     MW 2528   0.171   1.932   1.405 -0.0218  0.1641 -0.1057
  633SOL     OW 2529   2.558   0.498   0.309 -0.1903  0.4873 -0.3094
  633SOL    HW1 2530   2.613   0.517   0.388  0.5349  2.5287  0.3981
  633SOL    HW2 2531   2.503   0.424   0.327  0.5410  0.0980 -0.6270
  633SOL     MW 2532   2.558   0.491   0.322  0.0019  0.7053 -0.2579
  634SOL     OW 2533   2.646   0.047   0.661  0.2450  0.1966 -0.2237
  634SOL    HW1 2534   2.689   0.123   0.622 -1.3060  0.7923  0.9989
  634SOL    HW2 2535   2.638   0.002   0.578  0.6850  3.0562 -2.8523
  634SOL     MW 2536   2.651   0.051   0.644  0.0984  0.6525 -0.4092
  635SOL     OW 2537   2.603   0.117   1.849 -0.1092 -0.2154  0.0535
  635SOL    HW1 2538   2.663   0.047   1.827 -3.8070  0.4033 -0.7747
  635SOL    HW2 2539   2.650   0.194   1.862 -1.2817 -1.0350  0.5638
  635SOL     MW 2540   2.617   0.118   1.847 -0.7518 -0.2419  0.0116
  636SOL     OW 2541   2.826   1.600   1.021 -0.4132 -0.2063 -0.9085
  636SOL    HW1 2542   2.746   1.627   1.065 -0.9919 -0.0603 -0.8153
  636SOL    HW2 2543   2.875   1.686   1.008 -1.5825 -2.3864 -4.1757
  636SOL     MW 2544   2.822   1.615   1.025 -0.6438 -0.4747 -1.3273
  637SOL     OW 2545   2.875   1.464   0.747 -0.0635 -0.1192 -0.1051
  637SOL    HW1 2546   2.914   1.547   0.725 -0.9678 -1.2359  0.2516
  637SOL    HW2 2547   2.799   1.488   0.805  0.5210  0.2447 -0.5830
  637SOL     MW 2548   2.870   1.478   0.752 -0.1057 -0.2186 -0.1211
  638SOL     OW 2549   2.700   0.515   0.587 -0.3254 -0.0943  0.0359
  638SOL    HW1 2550   2.771   0.541   0.524 -0.4938 -0.5390  0.5962
  638SOL    HW2 2551   2.725   0.558   0.667 -0.2757  0.0856 -2.0526
  638SOL     MW 2552   2.712   0.524   0.589 -0.3410 -0.1292 -0.1657
  639SOL     OW 2553   1.743   0.024   0.589 -0.6496  0.1631 -0.5420
  639SOL    HW1 2554   1.652   0.034   0.582 -1.3242  1.4873  1.5409
  639SOL    HW2 2555   1.759  -0.053   0.537 -1.2789  0.3394 -1.9982
  639SOL     MW 2556   1.733   0.015   0.581 -0.8216  0.3611 -0.4593
  640SOL     OW 2557   0.327   1.299   0.132 -0.4739 -0.1044 -0.3911
  640SOL    HW1 2558   0.367   1.312   0.039  2.1296  2.5110  0.6902
  640SOL    HW2 2559   0.300   1.202   0.134 -0.3537 -2.9595 -0.0199
  640SOL     MW 2560   0.329   1.288   0.120 -0.1145 -0.1360 -0.1995
  641SOL     OW 2561   2.172   0.390   0.391  0.3880  0.1093  0.2626
  641SOL    HW1 2562   2.201   0.386   0.294 -0.7345 -1.3451  0.7755
  641SOL    HW2 2563   2.232   0.332   0.431 -0.9279  1.8307  1.6904
  641SOL     MW 2564   2.184   0.382   0.383  0.0663  0.1445  0.5187
  642SOL     OW 2565   0.058   3.088   0.563 -0.5960 -0.2231  0.0085
  642SOL    HW1 2566   0.039   3.181   0.530  0.3189  2.7475 -0.1842
  642SOL    HW2 2567  -0.026   3.043   0.574  1.7560 -0.1663  0.9642
  642SOL     MW 2568   0.045   3.095   0.560 -0.1650  0.1763  0.1092
  643SOL     OW 2569   1.979   0.349   1.620  0.3827  0.6008  0.0460
  643SOL    HW1 2570   1.898   0.306   1.660 -1.9900  0.3709  0.6397
  643SOL    HW2 2571   2.016   0.280   1.556 -0.7574 -1.7421  1.5859
  643SOL     MW 2572   1.974   0.334   1.616 -0.0808  0.2613  0.3275
  644SOL     OW 2573   2.762   1.996   1.058  0.4016 -0.6491  0.2036
  644SOL    HW1 2574   2.736   1.939   1.132 -1.9590 -1.0962 -0.5973
  644SOL    HW2 2575   2.678   2.034   1.022 -0.9240  1.4490  1.3290
  644SOL     MW 2576   2.747   1.993   1.063 -0.0847 -0.4313  0.2464
  645SOL     OW 2577   2.842   0.847   0.628 -0.0238 -0.2519  0.2998
  645SOL    HW1 2578   2.928   0.823   0.654 -0.5412 -0.6688  1.3266
  645SOL    HW2 2579   2.787   0.780   0.675 -2.1578  0.1944  1.4376
  645SOL     MW 2580   2.846   0.835   0.638 -0.3736 -0.2481  0.5854
  646SOL     OW 2581   0.101   2.292   0.843 -0.4672 -0.8967  0.2578
  646SOL    HW1 2582   0.124   2.194   0.852  2.3721  0.8739 -0.0784
  646SOL    HW2 2583   0.037   2.294   0.771 -1.8092  2.7493  3.2310
  646SOL     MW 2584   0.096   2.279   0.835 -0.2697 -0.1821  0.6057
  647SOL     OW 2585   2.695   0.465   2.900 -0.2055  0.1667 -0.3624
  647SOL    HW1 2586   2.679   0.451   2.991 -0.0937  1.8179 -0.7762
  647SOL    HW2 2587   2.604   0.473   2.865 -1.7866 -2.8001  3.7082
  647SOL     MW 2588   2.681   0.464   2.907 -0.3993 -0.0069  0.1201
  648SOL     OW 2589   2.103   0.736   1.187  0.2122  0.0533 -0.1872
  648SOL    HW1 2590   2.159   0.667   1.209 -1.8011 -1.5352  2.9453
  648SOL    HW2 2591   2.161   0.816   1.174  4.1834  0.5932 -0.2681
  648SOL     MW 2592   2.118   0.738   1.188  0.4706 -0.0850  0.2154
  649SOL     OW 2593   2.386   2.664   1.272 -0.4088 -0.2159  0.2416
  649SOL    HW1 2594   2.473   2.697   1.293  1.5600  0.3929  0.1630
  649SOL    HW2 2595   2.412   2.573   1.267  2.9697 -2.1598 -1.6634
  649SOL     MW 2596   2.401   2.656   1.274  0.2967 -0.3920 -0.0201
  650SOL     OW 2597   2.854   0.227   0.616 -0.3320  0.1947  0.3551
  650SOL    HW1 2598   2.894   0.288   0.676  2.3718  0.3431 -1.6955
  650SOL    HW2 2599   2.930   0.211   0.548  2.7726 -0.2782 -0.5337
  650SOL     MW 2600   2.869   0.233   0.615  0.4344  0.1519 -0.0327
  651SOL     OW 2601   3.047   0.429   0.943  0.7957  0.0198  0.4211
  651SOL    HW1 2602   3.104   0.451   0.867  1.3628  1.0037 -1.7056
  651SOL    HW2 2603   3.019   0.514   0.981 -1.0738 -0.4578  2.8029
  651SOL     MW 2604   3.051   0.443   0.938  0.6239  0.0866  0.4548
  652SOL     OW 2605   2.448   1.533   3.023 -0.7109  0.8601  0.4966
  652SOL    HW1 2606   2.528   1.511   2.969 -0.2134  2.7650  0.6183
  652SOL    HW2 2607   2.439   1.631   3.025  0.6998 -2.2947  1.2232
  652SOL     MW 2608   2.458   1.543   3.016 -0.4591  0.6952  0.6085
  653SOL     OW 2609   1.800   0.430   0.399  0.4595  0.6652  0.0410
  653SOL    HW1 2610   1.732   0.374   0.355  0.3704 -1.1915 -3.0880
  653SOL    HW2 2611   1.874   0.436   0.334 -1.2908 -0.6013 -0.4179
  653SOL     MW 2612   1.801   0.423   0.385  0.2168  0.2531 -0.4323
  654SOL     OW 2613   2.419   1.035   0.774  0.2068  0.4002 -0.1322
  654SOL    HW1 2614   2.351   1.019   0.707  1.9164 -2.5797  0.8094
  654SOL    HW2 2615   2.451   0.937   0.779  0.8779  1.6516  0.5180
  654SOL     MW 2616   2.415   1.020   0.766  0.5209  0.1722  0.0779
  655SOL     OW 2617   2.934   0.841   0.374  0.5103 -0.1945 -0.2030
  655SOL    HW1 2618   2.898   0.857   0.461  0.7952  0.2709  0.2111
  655SOL    HW2 2619   2.931   0.749   0.365 -0.9875 -1.0577  0.1482
  655SOL     MW 2620   2.929   0.831   0.384  0.3503 -0.2470 -0.1021
  656SOL     OW 2621   1.885   2.732   1.340 -0.3202 -0.3323  0.3655
  656SOL    HW1 2622   1.885   2.826   1.336  2.7724 -2.2133 -1.5885
  656SOL    HW2 2623   1.941   2.704   1.410  2.6332 -2.3194  1.9233
  656SOL     MW 2624   1.893   2.741   1.349  0.4775 -0.8426  0.3132
  657SOL     OW 2625   0.141   1.767   1.176 -0.8791  0.6482  0.3522
  657SOL    HW1 2626   0.211   1.814   1.137 -0.4418 -2.8606  0.2730
  657SOL    HW2 2627   0.163   1.671   1.186 -0.9425 -1.4553 -0.8159
  657SOL     MW 2628   0.153   1.760   1.172 -0.8297 -0.0923  0.1877
  658SOL     OW 2629   2.683   1.355   0.255 -0.1663 -0.1511  0.0133
  658SOL    HW1 2630   2.641   1.272   0.302 -0.2423 -2.4053  2.7294
  658SOL    HW2 2631   2.697   1.423   0.320  1.2296  1.8182  0.0313
  658SOL     MW 2632   2.679   1.353   0.270  0.0078 -0.1887  0.3740
  659SOL     OW 2633   2.276   1.548   1.028 -0.1734 -0.1524 -0.6844
  659SOL    HW1 2634   2.367   1.515   1.057  1.0184 -0.7310 -0.4206
  659SOL    HW2 2635   2.224   1.572   1.099  0.0962  1.7040 -2.2122
  659SOL     MW 2636   2.281   1.547   1.041  0.0194  0.0162 -0.8512
  660SOL     OW 2637   2.053   1.570   1.670  0.3534  0.5341  0.1715
  660SOL    HW1 2638   2.049   1.583   1.769 -1.1546  2.8622 -0.1233
  660SOL    HW2 2639   1.986   1.499   1.650  0.3024 -0.4691 -2.3702
  660SOL     MW 2640   2.044   1.563   1.680  0.1477  0.7089 -0.2028
  661SOL     OW 2641   2.456   1.022   0.182 -0.1407 -0.2175 -0.2455
  661SOL    HW1 2642   2.511   1.048   0.259  2.2888 -3.3362 -0.2988
  661SOL    HW2 2643   2.413   0.940   0.210  0.8368  0.9461 -1.2039
  661SOL     MW 2644   2.457   1.015   0.196  0.3088 -0.4755 -0.3790
  662SOL     OW 2645   2.558   2.979   0.891  0.0204  0.0127  0.6578
  662SOL    HW1 2646   2.507   3.043   0.946 -2.1508 -2.1063 -0.6091
  662SOL    HW2 2647   2.602   3.034   0.824 -1.7755  0.3255  0.2275
  662SOL     MW 2648   2.557   2.994   0.889 -0.5030 -0.2256  0.4339
  663SOL     OW 2649   2.644   1.496   0.509 -0.0403  0.1797 -0.1210
  663SOL    HW1 2650   2.618   1.582   0.484 -0.0097  2.9175 -1.7306
  663SOL    HW2 2651   2.707   1.494   0.579 -1.5704 -2.7391 -0.1481
  663SOL     MW 2652   2.649   1.507   0.515 -0.2381  0.1558 -0.3370
  664SOL     OW 2653   2.540   1.514   1.547  0.1264  0.3511 -0.2229
  664SOL    HW1 2654   2.500   1.600   1.552 -1.3205 -1.0586  2.5520
  664SOL    HW2 2655   2.474   1.460   1.586  0.0433  0.2222  0.6318
  664SOL     MW 2656   2.526   1.518   1.553 -0.0755  0.1481  0.2560
  665SOL     OW 2657   2.852   0.861   2.006  0.1534  0.1138 -0.1415
  665SOL    HW1 2658   2.856   0.909   1.927 -1.3627  1.4522  1.3968
  665SOL    HW2 2659   2.908   0.786   1.999 -2.1389  0.0121 -0.5621
  665SOL     MW 2660   2.860   0.858   1.994 -0.3490  0.2770  0.0059
  666SOL     OW 2661   2.783   3.051   1.726  0.6754  0.1624  0.2034
  666SOL    HW1 2662   2.779   3.037   1.631  2.1042 -1.8047  0.5640
  666SOL    HW2 2663   2.744   2.974   1.758 -1.9200  0.4696 -2.9343
  666SOL     MW 2664   2.777   3.039   1.717  0.5214 -0.0566 -0.1630
  667SOL     OW 2665   1.959   2.676   1.790 -0.2978 -0.4381  0.4355
  667SOL    HW1 2666   1.927   2.693   1.879 -1.1839 -0.8595  1.7915
  667SOL    HW2 2667   2.021   2.745   1.761 -1.5352  0.1218 -0.3985
  667SOL     MW 2668   1.963   2.687   1.798 -0.5780 -0.4198  0.5044
  668SOL     OW 2669   2.753   0.654   0.832 -0.5138  0.1824  0.4127
  668SOL    HW1 2670   2.816   0.678   0.906 -1.4901  0.7095 -2.1515
  668SOL    HW2 2671   2.667   0.685   0.847  1.6952 -3.4906 -1.6526
  668SOL     MW 2672   2.750   0.661   0.844 -0.3512 -0.2327 -0.1981
  669SOL     OW 2673   0.207   0.940   0.676  0.3410 -0.6004 -0.2004
  669SOL    HW1 2674   0.144   0.973   0.732  1.5731 -0.3233  0.9297
  669SOL    HW2 2675   0.279   0.936   0.733 -1.6504 -2.7228 -2.0974
  669SOL     MW 2676   0.208   0.944   0.691  0.2408 -0.8439 -0.3016
  670SOL     OW 2677   2.892   0.247   0.208  0.0525  0.4192  0.0576
  670SOL    HW1 2678   2.909   0.185   0.135  2.6638  1.5674 -2.2646
  670SOL    HW2 2679   2.896   0.339   0.185  0.5541 -0.9129 -2.3892
  670SOL     MW 2680   2.895   0.251   0.195  0.4632  0.3950 -0.5716
  671SOL     OW 2681   2.052   3.032   1.524  0.6750 -0.0845  0.2199
  671SOL    HW1 2682   1.992   3.018   1.447 -1.0918  0.6080 -0.6496
  671SOL    HW2 2683   1.990   3.068   1.592 -2.0284  0.8429 -0.3843
  671SOL     MW 2684   2.036   3.035   1.523  0.0852  0.1292  0.0255
  672SOL     OW 2685   1.914   1.720   1.317 -0.3353  0.4229  0.1591
  672SOL    HW1 2686   1.840   1.758   1.358 -1.1000  0.2894 -0.7105
  672SOL    HW2 2687   1.926   1.757   1.232 -0.3050  0.9942  0.7291
  672SOL     MW 2688   1.906   1.730   1.311 -0.4322  0.4807  0.1196
  673SOL     OW 2689   2.775   1.096   0.599  0.1693  0.2541  0.2413
  673SOL    HW1 2690   2.809   1.007   0.608 -2.0638  1.6225 -0.4739
  673SOL    HW2 2691   2.848   1.142   0.631  0.2596 -0.3603  0.6308
  673SOL     MW 2692   2.789   1.090   0.604 -0.1135  0.3536  0.1983
  674SOL     OW 2693   2.439   3.078   1.299  0.2327 -0.6334  0.7003
  674SOL    HW1 2694   2.413   3.091   1.205  0.2564 -1.4926  1.5788
  674SOL    HW2 2695   2.444   2.983   1.306 -2.4605 -0.6846 -0.8442
  674SOL     MW 2696   2.437   3.067   1.287 -0.1195 -0.7535  0.6124
  675SOL     OW 2697   3.073   0.905   1.063  0.4631  0.1271 -0.1866
  675SOL    HW1 2698   3.158   0.891   1.099 -2.9186 -1.3365 -1.5461
  675SOL    HW2 2699   3.093   0.969   0.992  0.1522  0.6248  0.5167
  675SOL     MW 2700   3.087   0.912   1.058 -0.0241 -0.0004 -0.2731
  676SOL     OW 2701   2.907   1.498   1.672  0.2507 -0.2314  0.5374
  676SOL    HW1 2702   2.841   1.426   1.655 -1.3110  2.4165 -0.8551
  676SOL    HW2 2703   2.981   1.468   1.718 -0.4086 -1.8076 -0.7444
  676SOL     MW 2704   2.908   1.485   1.676 -0.0424 -0.0900  0.1845
  677SOL     OW 2705   2.389   0.572   1.996 -0.6147  0.8365  0.5352
  677SOL    HW1 2706   2.328   0.532   1.930 -2.2331 -1.5028  1.3880
  677SOL    HW2 2707   2.357   0.660   2.005 -0.0392  3.0453  2.1544
  677SOL     MW 2708   2.377   0.578   1.988 -0.7523  0.8193  0.8613
  678SOL     OW 2709   2.556   1.669   0.284 -0.2488 -0.0757 -0.4456
  678SOL    HW1 2710   2.498   1.695   0.363 -0.1362  0.7813  1.1156
  678SOL    HW2 2711   2.508   1.596   0.237 -0.4736 -2.4937 -1.3836
  678SOL     MW 2712   2.542   1.663   0.288 -0.2636 -0.2816 -0.3633
  679SOL     OW 2713   2.210   0.463   1.286 -0.1449 -0.1852  0.8346
  679SOL    HW1 2714   2.211   0.369   1.263  0.3916 -0.3743  0.1563
  679SOL    HW2 2715   2.121   0.490   1.308  0.8436  1.6173  1.0838
  679SOL     MW 2716   2.199   0.454   1.286  0.0563  0.0277  0.7780
  680SOL     OW 2717   2.358   0.175   1.502  0.0438 -0.0973 -0.5693
  680SOL    HW1 2718   2.261   0.181   1.481  3.3846  1.7710  0.9025
  680SOL    HW2 2719   2.389   0.102   1.443  0.0354 -2.6082 -3.2627
  680SOL     MW 2720   2.350   0.166   1.491  0.4835 -0.1821 -0.7305
  681SOL     OW 2721   0.308   0.517   1.537 -0.6332 -0.6157 -0.1062
  681SOL    HW1 2722   0.273   0.457   1.596 -0.9518 -0.5206 -0.4904
  681SOL    HW2 2723   0.380   0.560   1.583 -1.5683 -2.3525 -1.6444
  681SOL     MW 2724   0.313   0.515   1.551 -0.7986 -0.8323 -0.3599
  682SOL     OW 2725   0.087   2.884   1.493  0.6656 -0.2909 -0.2233
  682SOL    HW1 2726   0.136   2.872   1.573 -1.0411  2.3282  1.8484
  682SOL    HW2 2727   0.002   2.907   1.534  1.4448 -1.1176 -1.0665
  682SOL     MW 2728   0.082   2.886   1.509  0.5432 -0.0544 -0.0612
  683SOL     OW 2729   2.079   0.823   2.981  0.6228 -0.4320 -0.4056
  683SOL    HW1 2730   1.985   0.802   2.983  0.1336 -0.1742 -0.4795
  683SOL    HW2 2731   2.080   0.918   2.996  0.3728 -1.1314  3.1477
  683SOL     MW 2732   2.067   0.833   2.983  0.5253 -0.4902  0.0535
  684SOL     OW 2733   2.220   1.666   0.804  0.2331  0.1706 -0.5931
  684SOL    HW1 2734   2.177   1.599   0.753 -0.6264 -1.4169 -2.0999
  684SOL    HW2 2735   2.252   1.617   0.887 -1.1889  0.2369  1.3052
  684SOL     MW 2736   2.219   1.650   0.808 -0.0679 -0.0301 -0.5414
  685SOL     OW 2737   2.611   1.750   1.226 -0.2811 -0.4117  0.3115
  685SOL    HW1 2738   2.689   1.734   1.281  0.3956  0.3211  0.3120
  685SOL    HW2 2739   2.595   1.665   1.185  0.7321  0.3091  2.5569
  685SOL     MW 2740   2.619   1.736   1.228 -0.0581 -0.2199  0.6078
  686SOL     OW 2741   2.891   0.814   1.517  0.1335 -0.1488  0.2729
  686SOL    HW1 2742   2.866   0.779   1.604 -3.0837  1.4670  0.3999
  686SOL    HW2 2743   2.974   0.769   1.497  1.5134  1.8128 -0.2594
  686SOL     MW 2744   2.898   0.804   1.525 -0.1089  0.3232  0.2195
  687SOL     OW 2745   2.156   0.192   1.173  0.0223 -0.4873 -0.0482
  687SOL    HW1 2746   2.183   0.120   1.120  2.3956 -3.1033  1.8640
  687SOL    HW2 2747   2.095   0.239   1.111 -0.8995  0.7160 -0.4439
  687SOL     MW 2748   2.151   0.188   1.158  0.2138 -0.6737  0.1519
  688SOL     OW 2749   2.386   0.585   1.453  0.2823 -0.1976 -0.1936
  688SOL    HW1 2750   2.320   0.510   1.435 -1.4230 -1.7469 -2.0317
  688SOL    HW2 2751   2.328   0.644   1.510 -2.6877  0.1692  1.3111
  688SOL     MW 2752   2.370   0.583   1.458 -0.3345 -0.3536 -0.2376
  689SOL     OW 2753   2.486   0.772   2.989 -0.9695 -0.0808 -0.3525
  689SOL    HW1 2754   2.532   0.853   2.963  0.5015  1.0426  2.3094
  689SOL    HW2 2755   2.555   0.735   3.054  0.3439  2.8021 -2.6633
  689SOL     MW 2756   2.501   0.778   2.994 -0.6021  0.4478 -0.3062
  690SOL     OW 2757   2.038   0.920   1.889  0.2844 -0.6076 -0.3014
  690SOL    HW1 2758   1.997   0.834   1.892 -1.2225 -1.0118 -1.0408
  690SOL    HW2 2759   2.069   0.939   1.798 -1.2124  1.1535 -0.1491
  690SOL     MW 2760   2.037   0.911   1.878 -0.1119 -0.4285 -0.3789
  691SOL     OW 2761   2.394   0.315   0.910  0.0174  0.1672  0.1827
  691SOL    HW1 2762   2.477   0.356   0.929  0.7022  0.8355  1.8277
  691SOL    HW2 2763   2.333   0.385   0.889 -1.0812 -0.9093 -0.3623
  691SOL     MW 2764   2.397   0.329   0.910 -0.0372  0.1133  0.3278
  692SOL     OW 2765   2.851   1.709   1.383 -0.5550  0.0146 -0.5319
  692SOL    HW1 2766   2.804   1.649   1.441  0.1186  2.2394 -0.3590
  692SOL    HW2 2767   2.872   1.789   1.436  1.0888  1.9375  2.0789
  692SOL     MW 2768   2.847   1.712   1.398 -0.2492  0.5619 -0.1646
  693SOL     OW 2769   2.278   0.411   0.140 -0.6492 -0.1362  0.2944
  693SOL    HW1 2770   2.215   0.348   0.108  1.0074  1.5243  1.8023
  693SOL    HW2 2771   2.276   0.488   0.085 -2.7062  2.1807 -1.3133
  693SOL     MW 2772   2.270   0.413   0.129 -0.7020  0.3886  0.2812
  694SOL     OW 2773   1.919   1.201   1.201 -0.4760  0.6478  0.4149
  694SOL    HW1 2774   2.013   1.194   1.216  0.0766  1.8655  2.0372
  694SOL    HW2 2775   1.885   1.122   1.245  0.9351  0.9767  0.7612
  694SOL     MW 2776   1.927   1.189   1.209 -0.2169  0.8519  0.6746
  695SOL     OW 2777   3.031   1.505   1.338  0.2266 -0.1135 -0.2993
  695SOL    HW1 2778   3.000   1.470   1.255  1.9689 -0.6357 -0.0918
  695SOL    HW2 2779   2.970   1.569   1.374  2.6248 -0.4686 -2.3346
  695SOL     MW 2780   3.019   1.509   1.332  0.7729 -0.2292 -0.5404
  696SOL     OW 2781   2.134   1.317   0.842 -0.2228 -0.3367 -0.2207
  696SOL    HW1 2782   2.167   1.353   0.931 -0.6587  1.5867  3.4926
  696SOL    HW2 2783   2.108   1.233   0.876 -1.3882 -0.2970 -0.7479
  696SOL     MW 2784   2.135   1.310   0.858 -0.4341 -0.0777  0.1997
  697SOL     OW 2785   2.925   1.036   2.217 -0.5118 -0.1202 -0.0578
  697SOL    HW1 2786   2.861   1.108   2.195 -0.8467 -1.9786 -0.9819
  697SOL    HW2 2787   2.894   0.969   2.160  2.2611 -1.0388  1.3968
  697SOL     MW 2788   2.912   1.037   2.207 -0.1901 -0.4866  0.0122
  698SOL     OW 2789   2.539   0.309   0.009  0.5949  0.4180  0.1561
  698SOL    HW1 2790   2.475   0.358   0.061  0.6478  0.8385 -1.2903
  698SOL    HW2 2791   2.582   0.250   0.071  1.6692  1.1341 -3.4895
  698SOL     MW 2792   2.536   0.308   0.024  0.7436  0.5680 -0.5157
  699SOL     OW 2793   1.806   1.604   2.032 -0.8448 -0.8375  0.8321
  699SOL    HW1 2794   1.758   1.514   2.031 -0.7149  0.0871 -1.1017
  699SOL    HW2 2795   1.908   1.595   2.017  0.4907 -2.6112 -0.2931
  699SOL     MW 2796   1.813   1.591   2.030 -0.6515 -0.9495  0.4285
  700SOL     OW 2797   2.671   0.965   1.493  0.1739 -0.5445 -0.0829
  700SOL    HW1 2798   2.710   1.031   1.437  0.2377  0.7503  0.8044
  700SOL    HW2 2799   2.743   0.897   1.489 -0.0550 -2.7280  0.7834
  700SOL     MW 2800   2.685   0.965   1.485  0.1521 -0.6617  0.1485
  701SOL     OW 2801   1.641   1.177   2.445  0.0743  0.0027 -0.3720
  701SOL    HW1 2802   1.733   1.199   2.431 -2.2880  0.6639 -1.4536
  701SOL    HW2 2803   1.613   1.253   2.501 -0.8939  0.1806 -1.2009
  701SOL     MW 2804   1.650   1.190   2.451 -0.3652  0.1134 -0.6241
  702SOL     OW 2805   2.131   0.451   0.841 -0.6221 -0.2238  0.1630
  702SOL    HW1 2806   2.140   0.367   0.787 -1.3602 -1.2221  3.1675
  702SOL    HW2 2807   2.177   0.511   0.782 -1.3124 -0.1585  0.6041
  702SOL     MW 2808   2.139   0.448   0.826 -0.8106 -0.3469  0.6176
  703SOL     OW 2809   2.734   1.218   1.028 -0.0780  0.1834  0.2861
  703SOL    HW1 2810   2.692   1.229   0.936 -2.5314 -1.0638 -2.5813
  703SOL    HW2 2811   2.752   1.123   1.035 -0.4503  1.5063  3.4204
  703SOL     MW 2812   2.731   1.207   1.016 -0.4508  0.1934  0.3213
  704SOL     OW 2813   3.024   1.188   0.107 -0.2334 -0.4060 -0.2405
  704SOL    HW1 2814   2.929   1.205   0.079 -2.5030  1.8934 -2.4296
  704SOL    HW2 2815   3.025   1.148   0.193  1.0569  0.6300 -3.5630
  704SOL     MW 2816   3.012   1.185   0.115 -0.3626  0.0341 -0.9677
  705SOL     OW 2817   2.173   1.645   1.282  0.5634 -0.5537 -0.3486
  705SOL    HW1 2818   2.094   1.668   1.330 -2.3217 -1.9826  2.5346
  705SOL    HW2 2819   2.237   1.591   1.334  0.5915 -0.6776 -2.0465
  705SOL     MW 2820   2.171   1.641   1.295  0.1865 -0.7585 -0.1922
  706SOL     OW 2821   3.008   1.209   0.672 -0.0770  0.1013 -0.0085
  706SOL    HW1 2822   3.063   1.223   0.589  3.1488 -0.1162 -0.8723
  706SOL    HW2 2823   2.980   1.298   0.694  3.4499 -1.0145 -1.1778
  706SOL     MW 2824   3.012   1.223   0.664  0.8139 -0.0746 -0.2767
  707SOL     OW 2825   2.389   0.060   1.010 -0.5936  0.4650  0.0188
  707SOL    HW1 2826   2.397   0.151   0.980 -1.0383  1.5816 -3.7582
  707SOL    HW2 2827   2.292   0.048   0.985 -1.0801  0.6557  2.3697
  707SOL     MW 2828   2.377   0.071   1.003 -0.7165  0.6375 -0.1693
  708SOL     OW 2829   2.436   1.455   0.198 -0.1891  0.2424  0.3617
  708SOL    HW1 2830   2.525   1.423   0.211  1.2665 -1.7305  0.3471
  708SOL    HW2 2831   2.415   1.483   0.109 -0.7264 -0.1772 -0.5405
  708SOL     MW 2832   2.445   1.454   0.188 -0.0679 -0.0733  0.2408
  709SOL     OW 2833   1.782   1.653   0.228  0.0089 -0.0464  0.1539
  709SOL    HW1 2834   1.791   1.682   0.140 -0.0453 -0.8729  3.3683
  709SOL    HW2 2835   1.691   1.670   0.257 -0.9885 -1.2756  0.7069
  709SOL     MW 2836   1.772   1.659   0.220 -0.1298 -0.3176  0.6510
  710SOL     OW 2837   2.219   1.230   1.210  0.1617 -0.1557 -0.2563
  710SOL    HW1 2838   2.258   1.183   1.133  0.2255  0.2655 -0.7005
  710SOL    HW2 2839   2.221   1.156   1.279 -0.3459 -1.7402 -0.2093
  710SOL     MW 2840   2.225   1.214   1.209  0.1032 -0.3092 -0.3087
  711SOL     OW 2841   2.335   0.132   1.784 -0.1775  0.1920 -0.2924
  711SOL    HW1 2842   2.421   0.101   1.815  0.7437 -0.7549 -0.9681
  711SOL    HW2 2843   2.340   0.111   1.686 -0.0371 -0.6666 -0.7645
  711SOL     MW 2844   2.347   0.125   1.775 -0.0374 -0.0462 -0.4438
  712SOL     OW 2845   1.923   0.509   0.107 -0.3612 -0.2766  0.2727
  712SOL    HW1 2846   1.831   0.507   0.099 -1.1250 -0.2599  0.1621
  712SOL    HW2 2847   1.955   0.597   0.142  0.5553  0.2260  0.9117
  712SOL     MW 2848   1.915   0.520   0.111 -0.3410 -0.2081  0.3424
  713SOL     OW 2849   2.557   0.839   1.082 -0.0534  0.4875  0.4224
  713SOL    HW1 2850   2.531   0.761   1.135  1.9900  0.8767 -1.9588
  713SOL    HW2 2851   2.565   0.912   1.138  2.5494 -0.9937 -2.4867
  713SOL     MW 2852   2.554   0.838   1.096  0.5596  0.3435 -0.2756
  714SOL     OW 2853   2.237   0.228   2.009 -0.0443  0.4042  0.5831
  714SOL    HW1 2854   2.238   0.157   2.067  0.4650 -0.1849 -2.6994
  714SOL    HW2 2855   2.265   0.202   1.920  2.4601 -3.1814  1.1637
  714SOL     MW 2856   2.241   0.215   2.005  0.3533 -0.1466  0.2266
  715SOL     OW 2857   1.762   1.893   1.647 -0.2726 -0.4593  0.2096
  715SOL    HW1 2858   1.858   1.887   1.638  1.1404 -1.3599 -1.0609
  715SOL    HW2 2859   1.740   1.850   1.730  0.0003 -1.3363 -1.7652
  715SOL     MW 2860   1.771   1.887   1.656 -0.0502 -0.6938 -0.2186
  716SOL     OW 2861   2.295   0.613   0.670  0.0613 -0.4465 -0.2009
  716SOL    HW1 2862   2.361   0.545   0.648 -0.8549  0.0370  0.1472
  716SOL    HW2 2863   2.267   0.644   0.578 -0.8287 -0.7845  0.4651
  716SOL     MW 2864   2.300   0.608   0.655 -0.1770 -0.4273 -0.0671
  717SOL     OW 2865   2.867   1.563   2.917 -0.0220  0.5942 -0.6206
  717SOL    HW1 2866   2.953   1.571   2.963 -0.9022  1.5052  0.0055
  717SOL    HW2 2867   2.811   1.582   2.993  0.3455 -3.2982  0.2718
  717SOL     MW 2868   2.871   1.567   2.933 -0.0897  0.2008 -0.4203
  718SOL     OW 2869   2.689   1.392   1.318 -0.1373 -0.0692 -0.2322
  718SOL    HW1 2870   2.658   1.404   1.409  0.0560  0.8660 -0.1362
  718SOL    HW2 2871   2.730   1.307   1.309 -0.8047  3.2215 -0.3814
  718SOL     MW 2872   2.690   1.382   1.329 -0.1999  0.4884 -0.2392
  719SOL     OW 2873   2.184   1.293   0.568  0.1065  0.2538 -0.3523
  719SOL    HW1 2874   2.277   1.290   0.569 -1.0884 -0.7468  0.2757
  719SOL    HW2 2875   2.153   1.306   0.659  1.4845  0.0892 -1.3526
  719SOL     MW 2876   2.192   1.295   0.580  0.1306  0.1000 -0.4015
  720SOL     OW 2877   2.747   1.216   0.023  0.2243 -0.3540  0.0172
  720SOL    HW1 2878   2.703   1.134   0.057 -3.6057  1.1076 -0.3398
  720SOL    HW2 2879   2.736   1.291   0.089 -2.4788  1.6786  1.2940
  720SOL     MW 2880   2.740   1.215   0.037 -0.6377  0.1070  0.1386
  721SOL     OW 2881   2.431   0.848   1.365 -0.3099 -0.0393 -0.3664
  721SOL    HW1 2882   2.432   0.758   1.399 -0.0600 -0.5647  3.7106
  721SOL    HW2 2883   2.506   0.894   1.411 -1.5318  1.2519 -1.2839
  721SOL     MW 2884   2.441   0.843   1.376 -0.4382  0.0617  0.0505
  722SOL     OW 2885   2.587   1.151   0.388 -0.0917  0.3924  0.9897
  722SOL    HW1 2886   2.518   1.180   0.451 -0.7138 -1.7027 -1.4561
  722SOL    HW2 2887   2.658   1.113   0.446 -1.3044  1.5673  1.1473
  722SOL     MW 2888   2.587   1.150   0.404 -0.3338  0.2710  0.6878
  723SOL     OW 2889   2.244   1.389   1.606  1.2776 -0.7121 -0.7463
  723SOL    HW1 2890   2.278   1.388   1.515 -0.6647  1.8308  0.2592
  723SOL    HW2 2891   2.174   1.462   1.621 -2.3904 -1.1473  1.8503
  723SOL     MW 2892   2.239   1.398   1.596  0.5373 -0.4340 -0.2710
  724SOL     OW 2893   2.456   0.380   0.633  0.1351  0.2188 -0.4609
  724SOL    HW1 2894   2.441   0.321   0.707  1.0346 -0.3873  2.3628
  724SOL    HW2 2895   2.546   0.412   0.641 -0.2322 -1.0289 -0.9639
  724SOL     MW 2896   2.465   0.377   0.644  0.2053 -0.0258 -0.1547
  725SOL     OW 2897   2.536   0.603   1.187 -0.3314 -0.5160 -0.1620
  725SOL    HW1 2898   2.604   0.607   1.250 -0.4187  1.2913  0.5608
  725SOL    HW2 2899   2.463   0.565   1.242  0.7695  0.2671  0.4581
  725SOL     MW 2900   2.535   0.599   1.203 -0.1977 -0.1742  0.0152
  726SOL     OW 2901   2.608   2.462   0.546  0.1026  0.2609  0.0435
  726SOL    HW1 2902   2.553   2.521   0.492  0.4720  0.0061 -0.8939
  726SOL    HW2 2903   2.566   2.457   0.635  1.9590 -0.3313  4.3843
  726SOL     MW 2904   2.595   2.469   0.551  0.3963  0.1492  0.4926
  727SOL     OW 2905   2.874   0.343   1.660  0.3576  0.7134  0.4352
  727SOL    HW1 2906   2.836   0.354   1.567  0.5055  1.5796  0.4300
  727SOL    HW2 2907   2.809   0.323   1.726  1.4036  0.1811  1.9334
  727SOL     MW 2908   2.861   0.342   1.656  0.5151  0.7574  0.6322
  728SOL     OW 2909   2.829   1.175   2.846  0.4430  0.2083  0.2653
  728SOL    HW1 2910   2.810   1.233   2.776 -1.5685 -1.3200  1.3570
  728SOL    HW2 2911   2.822   1.230   2.928  0.4316  0.8795 -1.2425
  728SOL     MW 2912   2.826   1.190   2.848  0.1761  0.0952  0.2104
  729SOL     OW 2913   2.546   1.484   1.107 -0.7447  0.0166  0.7541
  729SOL    HW1 2914   2.614   1.431   1.161  2.0478  0.3992  1.0300
  729SOL    HW2 2915   2.580   1.499   1.016  0.8157 -1.9554 -0.6423
  729SOL     MW 2916   2.560   1.479   1.102 -0.1704 -0.1931  0.6062
  730SOL     OW 2917   2.193   1.171   0.198  0.5843  0.0326 -0.7470
  730SOL    HW1 2918   2.288   1.158   0.174 -0.8352 -1.6773  0.7200
  730SOL    HW2 2919   2.183   1.254   0.242  1.8699  2.5050 -2.1331
  730SOL     MW 2920   2.204   1.180   0.201  0.5666  0.1332 -0.7363
  731SOL     OW 2921   2.784   1.914   2.858 -0.9650 -0.3681 -0.3735
  731SOL    HW1 2922   2.711   1.927   2.793 -2.1442  0.1267  0.8842
  731SOL    HW2 2923   2.850   1.982   2.857  1.3800  0.8757 -1.0726
  731SOL     MW 2924   2.783   1.925   2.849 -0.8112 -0.1387 -0.2998
  732SOL     OW 2925   2.213   1.008   1.346 -0.0856 -0.2157  1.0090
  732SOL    HW1 2926   2.174   1.001   1.431 -1.1028 -0.4202  0.6488
  732SOL    HW2 2927   2.295   0.963   1.356  0.3700 -0.6615  1.3267
  732SOL     MW 2928   2.218   1.001   1.359 -0.1597 -0.3015  1.0034
  733SOL     OW 2929   2.358   2.745   3.023  0.5053  0.3470 -0.1534
  733SOL    HW1 2930   2.272   2.790   2.991 -0.2135  0.0564 -0.8297
  733SOL    HW2 2931   2.346   2.650   3.024 -2.0164  0.8784 -0.5112
  733SOL     MW 2932   2.345   2.738   3.019  0.0778  0.3788 -0.2898
  734SOL     OW 2933   1.457   0.369   2.446  0.1371 -1.0538  0.1362
  734SOL    HW1 2934   1.437   0.339   2.534 -0.7356  1.5621 -0.0425
  734SOL    HW2 2935   1.499   0.293   2.394 -0.5282 -2.3017  0.0981
  734SOL     MW 2936   1.460   0.355   2.451 -0.0658 -0.8733  0.1076
  735SOL     OW 2937   2.915   0.887   2.609 -0.1190  0.3577  0.5243
  735SOL    HW1 2938   2.905   0.792   2.594  0.2865  0.4204 -0.2534
  735SOL    HW2 2939   2.963   0.898   2.696  3.8391 -1.1248 -2.6497
  735SOL     MW 2940   2.920   0.876   2.619  0.4567  0.1704  0.0029
  736SOL     OW 2941   0.106   0.572   2.496 -0.5355  0.0335 -0.5567
  736SOL    HW1 2942   0.155   0.645   2.469 -2.3921  0.9786 -1.1758
  736SOL    HW2 2943   0.084   0.526   2.417 -1.2444 -0.4534 -0.4305
  736SOL     MW 2944   0.110   0.576   2.482 -0.8740  0.0940 -0.6217
  737SOL     OW 2945   2.925   0.619   2.545 -0.1025  0.1756 -0.2034
  737SOL    HW1 2946   2.881   0.590   2.463  1.9508 -0.5332  0.8514
  737SOL    HW2 2947   3.014   0.603   2.518 -0.8593 -0.1787  1.6869
  737SOL     MW 2948   2.931   0.613   2.531  0.0686  0.0353  0.1852
  738SOL     OW 2949   0.207   0.590   1.867 -0.2554  0.9518  0.2093
  738SOL    HW1 2950   0.295   0.588   1.898 -0.1994 -0.6240  1.1847
  738SOL    HW2 2951   0.201   0.502   1.820 -0.2239  0.4714  0.7921
  738SOL     MW 2952   0.218   0.578   1.865 -0.2438  0.6805  0.4149
  739SOL     OW 2953   2.437   1.044   2.059  0.2119 -0.5589  0.0598
  739SOL    HW1 2954   2.390   0.956   2.050 -0.6400  0.8104 -2.1140
  739SOL    HW2 2955   2.484   1.058   1.976 -2.4167 -0.8058 -2.1316
  739SOL     MW 2956   2.437   1.034   2.047 -0.2473 -0.4108 -0.5162
  740SOL     OW 2957   0.273   1.761   2.980  0.6196 -0.1753 -0.5154
  740SOL    HW1 2958   0.221   1.682   2.980  1.2860  0.3130  0.2035
  740SOL    HW2 2959   0.358   1.726   3.015  0.8602  0.4283  0.9629
  740SOL     MW 2960   0.278   1.746   2.985  0.7393 -0.0312 -0.2255
  741SOL     OW 2961   2.259   1.198   2.734 -0.2999 -0.9142  0.4365
  741SOL    HW1 2962   2.184   1.237   2.689 -2.8955 -1.9990 -0.3633
  741SOL    HW2 2963   2.276   1.256   2.812  2.7793  3.9988 -1.5351
  741SOL     MW 2964   2.251   1.211   2.739 -0.2361 -0.4091  0.0708
  742SOL     OW 2965   1.509   1.255   2.221 -0.0808 -0.4145  0.3496
  742SOL    HW1 2966   1.492   1.167   2.190  3.0280  0.5319 -0.5942
  742SOL    HW2 2967   1.553   1.245   2.306 -0.8751  0.7765 -0.6340
  742SOL     MW 2968   1.513   1.242   2.228  0.2246 -0.1325  0.0953
  743SOL     OW 2969   2.534   1.265   2.747  0.0146  0.2451 -0.4388
  743SOL    HW1 2970   2.439   1.241   2.725 -1.1077 -0.6635 -1.6814
  743SOL    HW2 2971   2.576   1.194   2.787 -1.4539  3.9559 -3.8801
  743SOL     MW 2972   2.527   1.253   2.749 -0.3272  0.6148 -1.0568
  744SOL     OW 2973   2.754   0.956   1.764 -0.5328  0.0520  0.5784
  744SOL    HW1 2974   2.683   0.995   1.816  1.7186 -1.1203  0.7613
  744SOL    HW2 2975   2.712   0.959   1.674  1.3739  0.5237 -0.3031
  744SOL     MW 2976   2.739   0.961   1.759  0.0158 -0.0404  0.4862
  745SOL     OW 2977   1.744   0.451   2.497  0.1201  0.2661 -0.0923
  745SOL    HW1 2978   1.725   0.502   2.423 -1.6305 -0.7256  1.9440
  745SOL    HW2 2979   1.664   0.406   2.521  0.8706  2.6025  1.8585
  745SOL     MW 2980   1.731   0.452   2.491 -0.0118  0.4436  0.4338
  746SOL     OW 2981   1.549   1.430   1.605  0.2456  0.0197  0.1836
  746SOL    HW1 2982   1.640   1.458   1.621  2.8768  1.1113 -1.5428
  746SOL    HW2 2983   1.525   1.393   1.693 -0.7000 -1.4051  0.4087
  746SOL     MW 2984   1.558   1.428   1.619  0.4680 -0.0243 -0.0145
  747SOL     OW 2985   2.554   1.123   1.801  0.4912  0.0697 -0.5148
  747SOL    HW1 2986   2.470   1.155   1.786  0.5923  0.7176  0.3455
  747SOL    HW2 2987   2.592   1.199   1.847  0.0262  1.9822 -3.1059
  747SOL     MW 2988   2.548   1.137   1.805  0.4432  0.4075 -0.7431
  748SOL     OW 2989   0.132   0.056   1.806  0.3869 -0.2449 -0.3009
  748SOL    HW1 2990   0.195   0.015   1.862 -1.8059 -0.0179 -1.3199
  748SOL    HW2 2991   0.074   0.102   1.865  1.6562 -0.6260 -0.8189
  748SOL     MW 2992   0.133   0.057   1.821  0.2650 -0.2653 -0.5037
  749SOL     OW 2993   2.435   0.575   2.791  0.3895 -0.3384  0.0948
  749SOL    HW1 2994   2.432   0.622   2.705  1.9386  0.6338  2.6748
  749SOL    HW2 2995   2.475   0.655   2.840  0.9790 -1.8846  2.0744
  749SOL     MW 2996   2.440   0.592   2.786  0.6717 -0.4141  0.6964
  750SOL     OW 2997   2.059   0.008   1.957 -0.2852 -0.5921  0.3607
  750SOL    HW1 2998   2.105   0.087   1.964 -2.1445 -1.8207  0.1147
  750SOL    HW2 2999   2.127  -0.062   1.963  0.1410  1.0555 -0.6393
  750SOL     MW 3000   2.074   0.009   1.959 -0.4743 -0.5368  0.1963
  751SOL     OW 3001   0.023   0.388   2.284  0.5772 -0.1923 -0.0575
  751SOL    HW1 3002  -0.050   0.328   2.317 -0.5596  2.1785 -0.9589
  751SOL    HW2 3003   0.095   0.347   2.231  0.5024  0.6893 -2.4763
  751SOL     MW 3004   0.023   0.375   2.281  0.4173  0.2368 -0.4956
  752SOL     OW 3005   2.109   0.812   2.720  0.0782 -0.3843 -0.2645
  752SOL    HW1 3006   2.193   0.844   2.684  1.2766 -1.0006  2.1535
  752SOL    HW2 3007   2.109   0.809   2.815 -1.0948 -2.4301 -2.3259
  752SOL     MW 3008   2.120   0.816   2.728  0.0815 -0.7355 -0.2175
  753SOL     OW 3009   2.908   0.254   2.363  0.3295 -0.4206  0.3301
  753SOL    HW1 3010   2.853   0.187   2.323  1.5594 -0.4302 -0.0364
  753SOL    HW2 3011   2.857   0.335   2.361 -1.8930  0.2889  0.2290
  753SOL     MW 3012   2.894   0.255   2.357  0.1986 -0.3282  0.2684
  754SOL     OW 3013   2.244   2.991   2.668  0.5560 -0.0409 -0.4646
  754SOL    HW1 3014   2.252   2.978   2.568 -1.9826 -2.0151 -1.8267
  754SOL    HW2 3015   2.312   2.928   2.701  1.1466 -1.4028 -0.5298
  754SOL     MW 3016   2.254   2.981   2.659  0.2990 -0.4811 -0.6529
  755SOL     OW 3017   2.721   1.593   2.456 -0.1691  0.0425  0.5309
  755SOL    HW1 3018   2.719   1.527   2.523 -2.7143  0.6091 -0.6534
  755SOL    HW2 3019   2.760   1.673   2.489  1.8820  2.1837 -0.9570
  755SOL     MW 3020   2.726   1.595   2.469 -0.2343  0.3998  0.1784
  756SOL     OW 3021   2.245   1.343   2.989  0.3952 -0.4035 -1.0848
  756SOL    HW1 3022   2.311   1.415   2.992  0.9209  1.5061 -0.9661
  756SOL    HW2 3023   2.291   1.258   3.010  1.0594 -0.7215 -2.6136
  756SOL     MW 3024   2.259   1.342   2.992  0.5522 -0.1935 -1.2709
  757SOL     OW 3025   2.085   0.987   1.592  0.1693 -0.1388 -0.4640
  757SOL    HW1 3026   2.111   0.898   1.578  0.2580  1.0775 -0.5232
  757SOL    HW2 3027   1.991   0.994   1.583  2.4764  1.3200 -0.1799
  757SOL     MW 3028   2.076   0.976   1.589  0.4854  0.2141 -0.4344
  758SOL     OW 3029   2.185   1.798   2.618  0.5040  0.5162 -0.8934
  758SOL    HW1 3030   2.155   1.800   2.526  1.4764 -1.0526 -1.1537
  758SOL    HW2 3031   2.278   1.776   2.624 -2.4051 -1.4351  1.8640
  758SOL     MW 3032   2.193   1.795   2.606  0.2484  0.0517 -0.5639
  759SOL     OW 3033   1.568   1.343   2.723  0.3170  0.4376  0.3236
  759SOL    HW1 3034   1.542   1.425   2.681  1.1228 -0.6543 -2.7152
  759SOL    HW2 3035   1.659   1.356   2.758 -1.2038  0.0029 -0.6416
  759SOL     MW 3036   1.576   1.355   2.722  0.2227  0.2362 -0.2047
  760SOL     OW 3037   2.550   1.958   2.719 -0.0531  0.0286  0.3563
  760SOL    HW1 3038   2.516   1.886   2.670 -2.3773 -1.8118 -3.8607
  760SOL    HW2 3039   2.578   2.018   2.648 -0.9316  3.5101 -1.6711
  760SOL     MW 3040   2.549   1.956   2.704 -0.4756  0.2451 -0.4676
  761SOL     OW 3041   2.073   0.417   2.464  0.4346 -0.0855  0.3568
  761SOL    HW1 3042   2.009   0.346   2.484 -2.5133 -0.9486  3.4299
  761SOL    HW2 3043   2.090   0.469   2.538  1.3400  1.2185 -1.4435
  761SOL     MW 3044   2.067   0.414   2.476  0.1651 -0.0273  0.5247
  762SOL     OW 3045   3.083   0.172   2.009 -0.3124 -0.3929 -0.2818
  762SOL    HW1 3046   3.068   0.135   2.093 -0.6295 -3.5765 -1.2949
  762SOL    HW2 3047   3.030   0.249   2.015 -1.6904 -1.1799 -2.1477
  762SOL     MW 3048   3.074   0.177   2.021 -0.5360 -0.9168 -0.6617
  763SOL     OW 3049   2.416   1.054   2.339  0.3186 -0.1984 -0.1935
  763SOL    HW1 3050   2.431   1.038   2.241  0.8686 -0.4938 -1.0917
  763SOL    HW2 3051   2.464   1.133   2.369 -1.2721  0.4944  2.4457
  763SOL     MW 3052   2.424   1.063   2.330  0.1813 -0.1459  0.0362
  764SOL     OW 3053   0.393   0.233   2.775  0.9194  0.0579  0.2349
  764SOL    HW1 3054   0.313   0.238   2.721 -0.6127  0.4584  0.6912
  764SOL    HW2 3055   0.416   0.323   2.807  0.9539  0.2115 -3.7883
  764SOL     MW 3056   0.385   0.246   2.773  0.7218  0.1310 -0.2357
  765SOL     OW 3057   2.703   0.088   2.265  0.4001 -0.3484  0.1634
  765SOL    HW1 3058   2.642   0.062   2.191  1.1807 -0.5295 -0.0184
  765SOL    HW2 3059   2.760   0.011   2.287  0.6396  0.2858  1.4830
  765SOL     MW 3060   2.703   0.074   2.258  0.5347 -0.2886  0.3136
  766SOL     OW 3061   1.852   3.033   2.154  0.5315  0.0725  0.0073
  766SOL    HW1 3062   1.901   3.101   2.102 -0.5666  2.2641  2.2064
  766SOL    HW2 3063   1.825   2.964   2.090  1.4708  0.1668 -1.1678
  766SOL     MW 3064   1.855   3.033   2.139  0.5105  0.3741  0.1424
  767SOL     OW 3065   2.644   0.648   1.954 -0.0327  0.0680  0.0932
  767SOL    HW1 3066   2.682   0.730   1.977 -0.0777 -0.2829 -0.1873
  767SOL    HW2 3067   2.549   0.644   1.970 -2.0630  1.0064 -0.9882
  767SOL     MW 3068   2.636   0.658   1.959 -0.3065  0.1455 -0.0865
  768SOL     OW 3069   0.056   1.553   2.965 -0.6762  0.0251  0.1617
  768SOL    HW1 3070   0.069   1.507   3.051 -2.4291  0.6357  1.6325
  768SOL    HW2 3071   0.098   1.491   2.900 -1.0346 -0.6234 -2.4560
  768SOL     MW 3072   0.063   1.539   2.967 -0.9548  0.0201  0.0104
  769SOL     OW 3073   2.350   0.696   2.298 -0.5259  0.1867 -0.5652
  769SOL    HW1 3074   2.279   0.648   2.262  2.8281 -0.8389 -1.8052
  769SOL    HW2 3075   2.425   0.631   2.291 -1.4272  0.2242 -1.5559
  769SOL     MW 3076   2.351   0.681   2.293 -0.2023  0.0563 -0.8595
  770SOL     OW 3077   0.087   1.695   2.604  0.0959 -0.3214  0.4202
  770SOL    HW1 3078  -0.013   1.689   2.622 -1.8298 -1.5037 -0.2253
  770SOL    HW2 3079   0.126   1.621   2.642  2.3308 -1.4780 -0.6291
  770SOL     MW 3080   0.079   1.685   2.612  0.1367 -0.6300  0.1966
  771SOL     OW 3081   3.021   0.641   1.945 -0.1028 -0.2645  0.4648
  771SOL    HW1 3082   2.959   0.655   1.868 -1.6617  0.9698 -2.5883
  771SOL    HW2 3083   3.104   0.623   1.906 -0.0375  1.1803  1.5745
  771SOL     MW 3084   3.024   0.640   1.930 -0.2999  0.0890  0.2084
  772SOL     OW 3085   3.070   0.017   2.242 -0.1479 -0.1361  0.0424
  772SOL    HW1 3086   3.000  -0.031   2.289  2.1662 -0.1507 -0.3338
  772SOL    HW2 3087   3.137  -0.049   2.249  3.3440  2.4840  1.9850
  772SOL     MW 3088   3.070   0.002   2.249  0.6181  0.2077  0.2491
  773SOL     OW 3089   2.414   2.801   2.772  0.0084  0.1888 -0.1414
  773SOL    HW1 3090   2.421   2.720   2.717  0.2818  3.3639  0.2094
  773SOL    HW2 3091   2.406   2.781   2.870  2.7582 -1.3198 -0.7247
  773SOL     MW 3092   2.414   2.788   2.778  0.4073  0.4087 -0.1720
  774SOL     OW 3093   2.276   1.172   1.769 -0.1222 -0.4428 -0.3711
  774SOL    HW1 3094   2.264   1.250   1.716 -2.9226 -2.0021 -0.9990
  774SOL    HW2 3095   2.205   1.119   1.726  0.2820  0.3536  0.2071
  774SOL     MW 3096   2.265   1.175   1.756 -0.4384 -0.5435 -0.3776
  775SOL     OW 3097   2.264   2.971   2.389 -0.3991 -0.3664  0.1655
  775SOL    HW1 3098   2.280   3.047   2.336  1.8950 -1.1606  0.2607
  775SOL    HW2 3099   2.323   2.904   2.357 -0.6697  2.5525  1.1895
  775SOL     MW 3100   2.274   2.972   2.378 -0.1321 -0.0861  0.3132
  776SOL     OW 3101   0.090   1.440   0.175 -0.3570 -0.5206  0.0498
  776SOL    HW1 3102   0.168   1.388   0.161 -0.2455  3.9209 -0.1741
  776SOL    HW2 3103   0.030   1.370   0.178  0.2702  0.1047 -0.5433
  776SOL     MW 3104   0.092   1.424   0.173 -0.2596  0.1479 -0.0580
  777SOL     OW 3105   2.990   1.098   1.688  0.3951  0.5198  0.2279
  777SOL    HW1 3106   2.963   1.176   1.646  1.6832  0.3429 -1.0106
  777SOL    HW2 3107   2.911   1.048   1.696 -0.4993  0.1196  0.5617
  777SOL     MW 3108   2.976   1.101   1.684  0.4470  0.4437  0.1085
  778SOL     OW 3109   2.895   0.437   2.741  0.6903 -0.4811  0.1895
  778SOL    HW1 3110   2.814   0.457   2.798  0.8178 -0.9492 -0.5125
  778SOL    HW2 3111   2.898   0.508   2.667 -0.5562  2.1813 -2.8662
  778SOL     MW 3112   2.884   0.449   2.739  0.5427 -0.1916 -0.3063
  779SOL     OW 3113   2.094   0.597   2.268  0.4325 -0.1790  0.2105
  779SOL    HW1 3114   2.047   0.685   2.273 -0.8610  2.0222 -0.3479
  779SOL    HW2 3115   2.068   0.545   2.349  1.7959  2.0350 -3.7871
  779SOL     MW 3116   2.085   0.602   2.279  0.4417  0.4036 -0.3906
  780SOL     OW 3117   0.111   0.193   2.756  0.3797 -0.5485 -0.1682
  780SOL    HW1 3118   0.112   0.221   2.849  0.5993 -1.1762  0.3148
  780SOL    HW2 3119   0.025   0.216   2.729  0.6259 -0.0039  1.1302
  780SOL     MW 3120   0.100   0.200   2.765  0.4412 -0.5594  0.0669
  781SOL     OW 3121   3.043   1.317   2.546  0.0444  0.0148 -0.4373
  781SOL    HW1 3122   3.067   1.357   2.464 -0.3262 -1.2593  0.0010
  781SOL    HW2 3123   3.042   1.224   2.519  1.4245 -1.2119 -2.1736
  781SOL     MW 3124   3.046   1.310   2.532  0.1776 -0.3152 -0.6086
  782SOL     OW 3125   0.768   1.480   3.075  0.0951  0.3977  0.1603
  782SOL    HW1 3126   0.684   1.518   3.106 -3.7434  0.9575  0.3821
  782SOL    HW2 3127   0.824   1.489   3.155  0.4789  1.4066 -0.1277
  782SOL     MW 3128   0.765   1.486   3.090 -0.3607  0.6047  0.1516
  783SOL     OW 3129   2.763   0.468   2.395  0.1555  0.2413 -0.0564
  783SOL    HW1 3130   2.694   0.489   2.333 -1.6408 -1.6611  0.7049
  783SOL    HW2 3131   2.714   0.434   2.470  1.3289  0.8773 -0.4720
  783SOL     MW 3132   2.748   0.466   2.396  0.0733  0.0742 -0.0108
  784SOL     OW 3133   0.202   0.816   2.869  0.0586 -0.1402  0.7564
  784SOL    HW1 3134   0.147   0.891   2.899 -1.8216  0.9919  1.1158
  784SOL    HW2 3135   0.251   0.856   2.802  0.2254  3.3798  2.6646
  784SOL     MW 3136   0.201   0.831   2.864 -0.1675  0.4736  1.0556
  785SOL     OW 3137   0.416   0.497   2.176 -0.2582 -0.2097  0.5658
  785SOL    HW1 3138   0.413   0.545   2.094  0.1781  1.2490  0.5471
  785SOL    HW2 3139   0.345   0.430   2.161 -1.2247 -3.5817 -0.1005
  785SOL     MW 3140   0.406   0.495   2.163 -0.3282 -0.4622  0.4754
  786SOL     OW 3141   2.012   0.393   2.927 -0.0566  0.1936  0.1159
  786SOL    HW1 3142   1.974   0.455   2.993 -0.6618  4.2747  4.1819
  786SOL    HW2 3143   2.072   0.438   2.869 -1.5277 -0.0234 -3.4174
  786SOL     MW 3144   2.015   0.407   2.928 -0.3306  0.7034  0.1862
  787SOL     OW 3145   2.424   0.198   2.884  0.2763 -1.1734 -0.0686
  787SOL    HW1 3146   2.466   0.118   2.863  0.4640  3.6566  0.9764
  787SOL    HW2 3147   2.479   0.235   2.953  1.9685 -0.6979 -0.1268
  787SOL     MW 3148   2.436   0.192   2.890  0.5243 -0.4734  0.0616
  788SOL     OW 3149   2.860   2.981   2.370 -0.1340  0.5493 -0.0891
  788SOL    HW1 3150   2.845   2.964   2.458  1.1464 -2.3530 -2.1662
  788SOL    HW2 3151   2.869   2.894   2.323  0.5345 -3.4366  2.1717
  788SOL     MW 3152   2.860   2.967   2.376  0.1231 -0.3595 -0.0648
  789SOL     OW 3153   0.018   0.267   3.030  0.3081  0.4946 -0.3823
  789SOL    HW1 3154  -0.048   0.198   3.051 -0.2880  3.1449 -1.5272
  789SOL    HW2 3155  -0.026   0.337   2.979 -0.4882  3.6756 -2.0813
  789SOL     MW 3156   0.003   0.267   3.026  0.1244  1.2640 -0.7575
  790SOL     OW 3157   3.061   1.060   2.457 -0.0069 -0.1149  0.7654
  790SOL    HW1 3158   3.025   0.976   2.505  1.2755 -1.0981 -0.5598
  790SOL    HW2 3159   3.012   1.053   2.370 -3.5569 -0.5219  0.6101
  790SOL     MW 3160   3.050   1.048   2.452 -0.3061 -0.2983  0.5701
  791SOL     OW 3161   2.634   0.385   2.619 -0.1138  0.1865  0.3148
  791SOL    HW1 3162   2.564   0.435   2.658  1.1278  1.4666 -0.8042
  791SOL    HW2 3163   2.701   0.369   2.691  2.3736 -1.0701  0.4868
  791SOL     MW 3164   2.633   0.389   2.634  0.3782  0.1896  0.1899
  792SOL     OW 3165   2.329   0.306   2.378 -0.0132 -0.3763 -0.3664
  792SOL    HW1 3166   2.246   0.343   2.412  0.4975  1.9727 -1.3568
  792SOL    HW2 3167   2.366   0.255   2.450  2.2186 -1.0293  0.8829
  792SOL     MW 3168   2.323   0.304   2.392  0.3487 -0.1525 -0.3322
  793SOL     OW 3169   1.803   1.031   1.963  0.2269 -0.5923  0.3137
  793SOL    HW1 3170   1.762   1.055   1.883 -0.9346 -3.0847  2.2361
  793SOL    HW2 3171   1.898   1.008   1.935  3.9039 -0.9868 -3.5442
  793SOL     MW 3172   1.810   1.031   1.949  0.5588 -0.9732  0.0583
  794SOL     OW 3173   1.420   2.276   0.175 -0.1572  0.3567 -0.0126
  794SOL    HW1 3174   1.446   2.338   0.099  0.1195  0.1562  0.3935
  794SOL    HW2 3175   1.484   2.293   0.240 -1.1495  1.2313  0.9463
  794SOL     MW 3176   1.432   2.286   0.173 -0.2516  0.4456  0.1675
  795SOL     OW 3177   2.348   0.951   2.634 -0.0240  0.4652  0.0713
  795SOL    HW1 3178   2.321   1.022   2.694  3.9229 -0.1232 -0.2664
  795SOL    HW2 3179   2.394   0.988   2.558 -1.0834  0.5316 -1.9900
  795SOL     MW 3180   2.351   0.966   2.632  0.3570  0.3963 -0.2452
  796SOL     OW 3181   0.286   0.575   2.754 -0.1908  0.1472  0.0290
  796SOL    HW1 3182   0.249   0.648   2.799  0.9064  0.6927 -0.0329
  796SOL    HW2 3183   0.218   0.534   2.699  0.3576 -0.5175  2.4221
  796SOL     MW 3184   0.272   0.579   2.753  0.0263  0.1314  0.3365
  797SOL     OW 3185   2.589   0.125   2.523  0.0137 -0.5248 -1.0423
  797SOL    HW1 3186   2.618   0.207   2.561  0.6170  2.3424  2.0960
  797SOL    HW2 3187   2.619   0.111   2.430 -2.3905  0.9150  2.5531
  797SOL     MW 3188   2.597   0.134   2.516 -0.2239  0.0434 -0.1539
  798SOL     OW 3189   2.321   0.075   2.238 -0.6389  0.2736  0.0568
  798SOL    HW1 3190   2.340   0.157   2.284  2.0704 -2.2042 -0.3156
  798SOL    HW2 3191   2.406   0.065   2.187  0.8503 -0.9888  2.8538
  798SOL     MW 3192   2.335   0.084   2.237 -0.0850 -0.2199  0.3767
  799SOL     OW 3193   2.510   2.975   0.031 -0.4270 -0.4008  0.6569
  799SOL    HW1 3194   2.451   2.901   0.024  0.4862  0.8776 -0.3989
  799SOL    HW2 3195   2.458   3.051   0.011 -0.1212  2.8447  1.7070
  799SOL     MW 3196   2.496   2.975   0.028 -0.2661  0.1961  0.6562
  800SOL     OW 3197   1.895   0.014   1.734 -0.3988  0.0382  0.2540
  800SOL    HW1 3198   1.830  -0.056   1.724 -0.7325  0.6612 -0.4924
  800SOL    HW2 3199   1.936   0.009   1.819 -2.7758  0.2388  2.4986
  800SOL     MW 3200   1.891   0.004   1.744 -0.7565  0.1468  0.4517
  801SOL     OW 3201   2.773   1.285   2.562 -0.4329 -0.1030  0.1050
  801SOL    HW1 3202   2.757   1.189   2.560 -0.3428 -2.7166 -2.1783
  801SOL    HW2 3203   2.871   1.292   2.547 -1.6791 -0.0547  0.1643
  801SOL     MW 3204   2.784   1.274   2.560 -0.5854 -0.4414 -0.1885
  802SOL     OW 3205   2.620   1.551   2.770 -0.0644  0.3616 -0.0703
  802SOL    HW1 3206   2.587   1.463   2.741 -1.0711 -0.1877 -0.8702
  802SOL    HW2 3207   2.703   1.532   2.808 -1.6625 -0.9305  2.1822
  802SOL     MW 3208   2.627   1.537   2.771 -0.4080  0.1187  0.1213
  803SOL     OW 3209   2.256   1.390   1.995  0.1031  0.3039  1.2879
  803SOL    HW1 3210   2.235   1.332   2.069  1.7351  0.0668 -1.5452
  803SOL    HW2 3211   2.221   1.340   1.918  0.0926  1.6219 -0.5617
  803SOL     MW 3212   2.249   1.376   1.994  0.3171  0.4465  0.6701
  804SOL     OW 3213   2.298   0.067   3.078 -0.4981  0.2668  0.1634
  804SOL    HW1 3214   2.225   0.120   3.116 -1.1854  1.0569  0.2817
  804SOL    HW2 3215   2.332   0.120   3.010 -1.1095  1.8090  2.5601
  804SOL     MW 3216   2.293   0.081   3.074 -0.6694  0.5745  0.4952
  805SOL     OW 3217   2.691   1.022   2.567  0.4590 -0.3506 -0.0702
  805SOL    HW1 3218   2.694   1.009   2.472  0.9504 -1.2297  0.2922
  805SOL    HW2 3219   2.772   0.978   2.603 -0.2582 -0.5077 -0.5233
  805SOL     MW 3220   2.702   1.014   2.559  0.4292 -0.4873 -0.0822
  806SOL     OW 3221   2.525   0.484   2.260  0.1400 -0.4354  0.1546
  806SOL    HW1 3222   2.452   0.434   2.301 -0.1842  2.4013  1.1821
  806SOL    HW2 3223   2.539   0.447   2.174  1.3314 -3.0626  2.5664
  806SOL     MW 3224   2.518   0.472   2.254  0.2544 -0.4077  0.6084
  807SOL     OW 3225   0.068   1.134   2.072  0.4501  0.3398  0.0985
  807SOL    HW1 3226   0.100   1.057   2.031  1.4761  0.9376 -0.7077
  807SOL    HW2 3227  -0.017   1.115   2.117 -1.6932 -1.1575 -0.7044
  807SOL     MW 3228   0.061   1.121   2.073  0.3027  0.2211 -0.1138
  808SOL     OW 3229   2.543   3.067   2.759 -0.4232 -0.2286  0.0074
  808SOL    HW1 3230   2.520   2.973   2.746 -0.6679 -0.5199  1.5268
  808SOL    HW2 3231   2.553   3.108   2.672  0.0486 -0.2597  1.6170
  808SOL     MW 3232   2.541   3.060   2.745 -0.3932 -0.2712  0.4202
  809SOL     OW 3233   2.530   1.323   2.417 -0.5964  0.4819 -0.2369
  809SOL    HW1 3234   2.614   1.328   2.469 -1.4286 -1.2254 -0.7681
  809SOL    HW2 3235   2.567   1.315   2.332  0.9762 -0.9842  1.0456
  809SOL     MW 3236   2.546   1.323   2.413 -0.4987  0.0632 -0.1378
  810SOL     OW 3237   2.218   1.283   2.244  0.5966  0.0160 -0.2934
  810SOL    HW1 3238   2.289   1.220   2.254  0.7179  1.6446  1.1609
  810SOL    HW2 3239   2.138   1.230   2.218 -1.7040 -0.4979 -5.0353
  810SOL     MW 3240   2.216   1.268   2.242  0.3091  0.1631 -0.7272
  811SOL     OW 3241   1.550   0.166   2.311 -0.0889  0.6616 -0.0330
  811SOL    HW1 3242   1.591   0.078   2.335  1.2554 -3.1252 -0.3643
  811SOL    HW2 3243   1.569   0.173   2.217 -0.0592 -1.4632 -1.5650
  811SOL     MW 3244   1.558   0.155   2.301  0.0924 -0.1184 -0.2788
  812SOL     OW 3245   1.489   2.868   2.129 -0.2047 -0.0250 -0.0962
  812SOL    HW1 3246   1.576   2.857   2.074  1.7265 -0.3503 -1.7154
  812SOL    HW2 3247   1.518   2.828   2.214  0.7536 -0.9212  2.3076
  812SOL     MW 3248   1.504   2.861   2.133  0.1765 -0.1862  0.0073
  813SOL     OW 3249   1.851   0.751   2.167 -0.9741 -0.3199 -0.0298
  813SOL    HW1 3250   1.845   0.654   2.181 -0.7273  1.0740 -0.9234
  813SOL    HW2 3251   1.868   0.784   2.259 -1.3812  1.7843  0.3027
  813SOL     MW 3252   1.853   0.742   2.181 -0.9953  0.1416 -0.1039
  814SOL     OW 3253   2.764   1.268   1.604  0.3555 -0.0870 -0.0132
  814SOL    HW1 3254   2.682   1.225   1.632  2.1199 -1.7904  2.8797
  814SOL    HW2 3255   2.791   1.225   1.519 -0.2318  1.2798  2.8902
  814SOL     MW 3256   2.757   1.256   1.597  0.5108 -0.1314  0.7516
  815SOL     OW 3257   2.469   1.653   2.352 -0.0548  0.2928  0.4681
  815SOL    HW1 3258   2.408   1.580   2.362  1.5339  1.8456  4.4309
  815SOL    HW2 3259   2.563   1.620   2.377  1.4481 -2.2413  2.4891
  815SOL     MW 3260   2.474   1.639   2.356  0.3531  0.1634  1.2576
  816SOL     OW 3261   0.781   0.684   2.735 -0.1137  0.4270 -0.1804
  816SOL    HW1 3262   0.770   0.612   2.799  0.8795 -0.4693  1.4861
  816SOL    HW2 3263   0.692   0.709   2.719  0.7937 -0.3255 -1.8701
  816SOL     MW 3264   0.768   0.678   2.741  0.1371  0.2095 -0.1835
  817SOL     OW 3265   3.029   1.281   1.477 -0.5673  0.4784 -0.4461
  817SOL    HW1 3266   3.119   1.265   1.503  0.4477  0.1691 -1.8026
  817SOL    HW2 3267   3.024   1.375   1.463 -0.4990  1.8968  1.0410
  817SOL     MW 3268   3.040   1.292   1.479 -0.4244  0.6247 -0.4288
  818SOL     OW 3269   1.930   1.064   2.673  0.2613  0.1470 -0.0476
  818SOL    HW1 3270   1.940   1.114   2.593 -0.1807  1.3163  2.3380
  818SOL    HW2 3271   1.999   0.998   2.679  0.3511  0.1224 -2.6169
  818SOL     MW 3272   1.941   1.062   2.664  0.2148  0.2981 -0.0718
  819SOL     OW 3273   1.890   0.233   2.474 -0.4036  0.4816 -0.5918
  819SOL    HW1 3274   1.837   0.317   2.474 -1.6203 -2.4104  3.5238
  819SOL    HW2 3275   1.928   0.220   2.562  0.7330  2.8568  2.4328
  819SOL     MW 3276   1.888   0.243   2.485 -0.4141  0.4134  0.3503
  820SOL     OW 3277   2.448   1.732   2.625  0.1668 -0.0659  0.2669
  820SOL    HW1 3278   2.520   1.681   2.655 -1.4780  0.5991 -0.4228
  820SOL    HW2 3279   2.450   1.712   2.530  3.1199  1.1677  0.5736
  820SOL     MW 3280   2.458   1.723   2.617  0.3394  0.1846  0.2164
  821SOL     OW 3281   2.598   1.352   1.967  0.0920  0.5268  0.4007
  821SOL    HW1 3282   2.616   1.442   1.944 -0.4134 -2.5970 -3.8556
  821SOL    HW2 3283   2.505   1.349   1.988  1.8060 -1.8836 -1.0986
  821SOL     MW 3284   2.588   1.363   1.967  0.2515 -0.2033 -0.3587
  822SOL     OW 3285   2.769   2.611   1.496  0.4528 -0.0982 -0.1321
  822SOL    HW1 3286   2.801   2.640   1.581 -0.0573  1.1377  2.2308
  822SOL    HW2 3287   2.728   2.687   1.452  1.3563 -1.4502  1.0178
  822SOL     MW 3288   2.768   2.624   1.502  0.5047 -0.1135  0.3313
  823SOL     OW 3289   2.255   0.494   1.768 -0.5297 -0.5283 -0.3735
  823SOL    HW1 3290   2.334   0.455   1.727 -0.6878 -0.7943  0.1620
  823SOL    HW2 3291   2.196   0.424   1.751  2.3836 -2.1409 -0.2064
  823SOL     MW 3292   2.258   0.480   1.761 -0.1662 -0.7762 -0.2808
  824SOL     OW 3293   2.082   1.373   2.581 -0.1172 -0.2365  0.6454
  824SOL    HW1 3294   2.148   1.437   2.552  1.0438 -0.9323  0.1044
  824SOL    HW2 3295   2.034   1.417   2.646  1.9006  1.3362 -1.2825
  824SOL     MW 3296   2.084   1.388   2.586  0.3022 -0.1208  0.3196
  825SOL     OW 3297   2.023   2.581   0.282  0.6038  0.0272  0.6673
  825SOL    HW1 3298   2.017   2.535   0.366  1.1330 -0.5988  1.8182
  825SOL    HW2 3299   2.070   2.530   0.214  0.6334 -1.5577  1.7067
  825SOL     MW 3300   2.029   2.568   0.284  0.6775 -0.2645  0.9563
  826SOL     OW 3301   1.893   2.446   0.520  0.5120  0.5648 -0.0478
  826SOL    HW1 3302   1.872   2.353   0.541 -1.8173 -2.0745  0.0027
  826SOL    HW2 3303   1.838   2.500   0.578  1.1860 -0.2083  0.7896
  826SOL     MW 3304   1.883   2.440   0.530  0.2936  0.1145  0.0694
  827SOL     OW 3305   1.943   2.200   0.929  0.3325  0.7018 -0.7383
  827SOL    HW1 3306   1.887   2.276   0.919  2.3673 -0.3574 -2.0131
  827SOL    HW2 3307   1.897   2.112   0.943  1.0815 -1.6916 -1.9924
  827SOL     MW 3308   1.930   2.198   0.929  0.6998  0.2463 -1.0719
  828SOL     OW 3309   0.039   2.679   0.598 -0.1107  0.7069  0.8107
  828SOL    HW1 3310   0.131   2.682   0.576 -0.3155 -0.4006 -1.3678
  828SOL    HW2 3311   0.001   2.693   0.510  0.1046  3.2618  0.5192
  828SOL     MW 3312   0.046   2.681   0.583 -0.1093  0.8979  0.4848
  829SOL     OW 3313   2.945   2.934   1.266  0.5780 -0.2546  0.1893
  829SOL    HW1 3314   2.888   2.960   1.192 -0.2042 -0.4431  0.8450
  829SOL    HW2 3315   2.980   2.846   1.244 -1.6908 -0.5774 -2.4015
  829SOL     MW 3316   2.942   2.926   1.253  0.1754 -0.3221 -0.0660
  830SOL     OW 3317   2.504   2.847   2.030 -0.1548  0.0106 -0.3329
  830SOL    HW1 3318   2.417   2.853   1.990  0.0062 -0.9835  2.5559
  830SOL    HW2 3319   2.566   2.828   1.962  0.5786  1.0689  2.9597
  830SOL     MW 3320   2.501   2.845   2.016 -0.0368  0.0191  0.4826
  831SOL     OW 3321   2.424   2.385   1.310  0.1913  0.0895 -0.3422
  831SOL    HW1 3322   2.371   2.320   1.359  0.8547 -2.4125 -0.7728
  831SOL    HW2 3323   2.505   2.336   1.290 -0.0415  0.5468  0.7608
  831SOL     MW 3324   2.428   2.370   1.314  0.2481 -0.1803 -0.2535
  832SOL     OW 3325   2.425   2.210   1.908 -0.3882  0.2377  0.2980
  832SOL    HW1 3326   2.461   2.305   1.929  2.0402  0.3698 -1.5643
  832SOL    HW2 3327   2.510   2.162   1.889 -1.2070 -0.7618 -1.9887
  832SOL     MW 3328   2.441   2.216   1.908 -0.1758  0.1233 -0.2494
  833SOL     OW 3329   1.799   2.437   0.874 -0.2509 -0.7847  0.1587
  833SOL    HW1 3330   1.703   2.405   0.885 -2.1469 -0.7578 -3.8129
  833SOL    HW2 3331   1.808   2.514   0.947  2.1555  1.8980  1.7951
  833SOL     MW 3332   1.787   2.443   0.885 -0.1836 -0.4272 -0.1494
  834SOL     OW 3333   2.241   2.488   0.587 -0.1970  0.2070 -0.6742
  834SOL    HW1 3334   2.192   2.415   0.630  0.4715 -1.5853 -0.1692
  834SOL    HW2 3335   2.283   2.435   0.508  1.6871 -0.0562 -3.9278
  834SOL     MW 3336   2.240   2.471   0.582  0.1398 -0.0642 -1.0368
  835SOL     OW 3337   1.750   2.605   0.661  0.4524 -0.0452  0.4341
  835SOL    HW1 3338   1.756   2.548   0.736 -0.3559 -0.3532  1.6305
  835SOL    HW2 3339   1.835   2.656   0.687  2.6123 -0.0893 -0.7460
  835SOL     MW 3340   1.762   2.604   0.674  0.6307 -0.0916  0.4362
  836SOL     OW 3341   1.975   2.164   1.624  0.3578 -0.5826 -0.0830
  836SOL    HW1 3342   2.057   2.197   1.658 -0.0061 -0.3652  2.8303
  836SOL    HW2 3343   1.915   2.237   1.626 -1.3387 -0.8024 -1.8408
  836SOL     MW 3344   1.978   2.178   1.628  0.0859 -0.5829  0.0695
  837SOL     OW 3345   2.120   0.192   0.705 -0.1440 -0.3040  0.0828
  837SOL    HW1 3346   2.033   0.212   0.673  0.0524 -1.2845  1.6725
  837SOL    HW2 3347   2.179   0.172   0.633  0.4182 -1.4634  3.7937
  837SOL     MW 3348   2.116   0.192   0.691 -0.0439 -0.5863  0.7822
  838SOL     OW 3349   2.948   2.118   0.891  0.1194 -0.5625  0.0385
  838SOL    HW1 3350   2.883   2.078   0.953  1.5923  0.5790  0.6419
  838SOL    HW2 3351   2.970   2.055   0.825 -0.1637  0.6457  0.9477
  838SOL     MW 3352   2.943   2.104   0.890  0.2763 -0.2525  0.2381
  839SOL     OW 3353   1.540   2.356   0.919 -0.1403  0.2313 -0.0991
  839SOL    HW1 3354   1.524   2.449   0.926 -0.9743  0.3373  0.8426
  839SOL    HW2 3355   1.537   2.330   1.011 -0.6394 -0.9665  1.6759
  839SOL     MW 3356   1.538   2.364   0.932 -0.3162  0.0872  0.2593
  840SOL     OW 3357   2.313   2.113   2.404 -0.1768  0.4800  0.0858
  840SOL    HW1 3358   2.286   2.184   2.341 -2.0244  0.8355  3.4363
  840SOL    HW2 3359   2.387   2.155   2.446 -2.1609 -2.5022  0.2453
  840SOL     MW 3360   2.319   2.128   2.401 -0.6823  0.1335  0.5489
  841SOL     OW 3361   2.185   2.423   0.135  0.3016 -0.3731  0.3058
  841SOL    HW1 3362   2.229   2.446   0.050  2.7115  0.3836 -0.6835
  841SOL    HW2 3363   2.133   2.351   0.105 -0.8069  1.9998 -2.5112
  841SOL     MW 3364   2.184   2.417   0.120  0.4733  0.0398 -0.1964
  842SOL     OW 3365   2.671   1.998   1.574  0.0330  0.6655  0.2943
  842SOL    HW1 3366   2.603   1.930   1.599  0.7110 -1.5372 -0.8142
  842SOL    HW2 3367   2.631   2.023   1.495  1.3040 -2.4350  4.3344
  842SOL     MW 3368   2.657   1.992   1.567  0.2901 -0.0342  0.6811
  843SOL     OW 3369   2.666   2.796   1.808 -0.3708  0.8659  0.1257
  843SOL    HW1 3370   2.745   2.744   1.784 -0.2589  0.9458  2.7537
  843SOL    HW2 3371   2.596   2.740   1.788  1.8612  0.3772  1.8149
  843SOL     MW 3372   2.667   2.782   1.802 -0.0615  0.8120  0.6953
  844SOL     OW 3373   2.652   2.257   1.222  0.0566  0.7985 -0.0436
  844SOL    HW1 3374   2.672   2.293   1.134  1.5890 -0.2198 -1.2250
  844SOL    HW2 3375   2.711   2.280   1.288  0.4861 -0.4724 -3.0247
  844SOL     MW 3376   2.662   2.265   1.219  0.3155  0.4965 -0.5928
  845SOL     OW 3377   2.873   2.465   0.286 -0.3301 -0.3666 -0.0472
  845SOL    HW1 3378   2.815   2.394   0.315 -1.6859 -1.6679 -0.2684
  845SOL    HW2 3379   2.854   2.522   0.364 -1.0812  1.6201  0.1636
  845SOL     MW 3380   2.863   2.463   0.300 -0.6081 -0.2761 -0.0485
  846SOL     OW 3381   1.507   2.856   0.788 -0.5720 -0.2628  0.0397
  846SOL    HW1 3382   1.588   2.901   0.818  1.1743  0.0072 -1.1295
  846SOL    HW2 3383   1.430   2.913   0.796  0.4239 -0.7501 -1.3739
  846SOL     MW 3384   1.507   2.869   0.793 -0.2102 -0.2914 -0.3010
  847SOL     OW 3385   2.490   1.933   0.154 -0.0277  0.3717  0.0729
  847SOL    HW1 3386   2.553   1.873   0.188  0.1422 -1.2347  1.2081
  847SOL    HW2 3387   2.470   1.894   0.070 -0.2975 -0.0894  4.8979
  847SOL     MW 3388   2.495   1.920   0.148 -0.0409  0.0989  0.8593
  848SOL     OW 3389   2.520   2.053   1.352 -0.6090 -0.0795 -0.3725
  848SOL    HW1 3390   2.570   2.109   1.286  3.2637 -1.9403  0.4185
  848SOL    HW2 3391   2.457   1.993   1.312  0.5043  2.2245 -2.0327
  848SOL     MW 3392   2.518   2.052   1.338  0.0489 -0.0210 -0.4872
  849SOL     OW 3393   1.981   2.739   0.746  0.2511 -0.5132  0.1512
  849SOL    HW1 3394   2.016   2.681   0.811  0.1339  2.2432  0.4646
  849SOL    HW2 3395   2.051   2.759   0.685  0.1164 -1.4135  2.5059
  849SOL     MW 3396   1.995   2.734   0.747  0.2179 -0.2683  0.5033
  850SOL     OW 3397   2.236   1.923   1.695  0.6440 -0.2091  0.3666
  850SOL    HW1 3398   2.141   1.903   1.672 -2.2756 -0.3127  0.9657
  850SOL    HW2 3399   2.250   2.019   1.707  3.6821 -0.4351  2.8585
  850SOL     MW 3400   2.225   1.933   1.693  0.6596 -0.2526  0.7745
  851SOL     OW 3401   2.334   2.364   0.359  0.2131  0.0247  0.0966
  851SOL    HW1 3402   2.273   2.368   0.284 -0.9985  1.4828  1.3274
  851SOL    HW2 3403   2.399   2.439   0.336  1.3353 -0.1483 -0.9114
  851SOL     MW 3404   2.334   2.375   0.346  0.2013  0.1942  0.1260
  852SOL     OW 3405   2.334   2.101   0.288 -0.2876  0.1126 -0.0993
  852SOL    HW1 3406   2.366   2.188   0.305  1.2472 -0.1810 -1.1776
  852SOL    HW2 3407   2.415   2.068   0.245  1.8110  2.0879  0.4659
  852SOL     MW 3408   2.349   2.108   0.284  0.1918  0.3345 -0.1670
  853SOL     OW 3409   2.501   2.468   1.977 -0.2199  0.6019 -0.2879
  853SOL    HW1 3410   2.525   2.507   1.893 -0.3283 -0.8846  2.1114
  853SOL    HW2 3411   2.589   2.442   2.012 -1.7437 -2.3309 -1.3878
  853SOL     MW 3412   2.516   2.470   1.971 -0.4353  0.0188 -0.1164
  854SOL     OW 3413   2.827   2.335   0.770  0.3836 -0.6692  0.6872
  854SOL    HW1 3414   2.760   2.284   0.722 -1.8622 -0.0231 -1.1147
  854SOL    HW2 3415   2.880   2.270   0.821  1.2272  0.8877  0.1716
  854SOL     MW 3416   2.825   2.320   0.770  0.1986 -0.3786  0.3815
  855SOL     OW 3417   2.671   2.236   0.375 -0.4148  0.3201  0.0739
  855SOL    HW1 3418   2.648   2.284   0.449  1.5718  0.1161 -3.2853
  855SOL    HW2 3419   2.751   2.186   0.399 -1.8288  0.7300  1.2289
  855SOL     MW 3420   2.679   2.236   0.388 -0.3392  0.3472 -0.2169
  856SOL     OW 3421   2.150   1.919   0.176 -0.6175 -0.7615 -0.0605
  856SOL    HW1 3422   2.063   1.898   0.208 -0.0655  0.2117  0.8918
  856SOL    HW2 3423   2.193   1.990   0.223  0.3983 -2.3752  2.5867
  856SOL     MW 3424   2.144   1.926   0.186 -0.4106 -0.8460  0.4144
  857SOL     OW 3425   2.505   2.005   0.522 -0.3710 -0.0244 -0.1763
  857SOL    HW1 3426   2.468   2.038   0.451 -1.2736 -1.8290  1.5792
  857SOL    HW2 3427   2.458   1.918   0.523  0.4668 -3.3200  2.3104
  857SOL     MW 3428   2.494   1.998   0.513 -0.3796 -0.6973  0.3834
  858SOL     OW 3429   2.892   2.641   1.747 -0.0140 -0.4796 -0.0791
  858SOL    HW1 3430   2.970   2.689   1.766 -0.7297 -0.2771  0.4472
  858SOL    HW2 3431   2.904   2.556   1.793 -0.5792  0.1977  0.8547
  858SOL     MW 3432   2.904   2.636   1.756 -0.1830 -0.3635  0.1135
  859SOL     OW 3433   2.077   2.572   0.965  0.2978  0.4380 -0.0989
  859SOL    HW1 3434   2.033   2.505   1.016 -1.5754 -0.0992  0.0262
  859SOL    HW2 3435   2.153   2.525   0.939  0.1406 -0.0098 -1.5218
  859SOL     MW 3436   2.081   2.557   0.968  0.0299  0.3080 -0.2701
  860SOL     OW 3437   2.669   2.604   0.134 -0.0800 -0.5951 -0.3805
  860SOL    HW1 3438   2.751   2.594   0.185  0.1840 -2.8139  0.2715
  860SOL    HW2 3439   2.696   2.681   0.080  0.3628  3.4354 -2.1032
  860SOL     MW 3440   2.684   2.613   0.134  0.0133 -0.3561 -0.5218
  861SOL     OW 3441   1.610   2.126   1.137  0.3547  0.1644 -0.4059
  861SOL    HW1 3442   1.613   2.192   1.202  1.1467 -1.3705  1.2712
  861SOL    HW2 3443   1.549   2.064   1.175 -0.3044 -0.1306 -2.1840
  861SOL     MW 3444   1.602   2.126   1.150  0.3723 -0.0770 -0.4193
  862SOL     OW 3445   2.469   1.796   1.566 -0.2414  0.0166  0.3177
  862SOL    HW1 3446   2.387   1.834   1.598  3.8284  2.0477  1.7338
  862SOL    HW2 3447   2.457   1.794   1.470 -1.4650 -2.9186  0.9905
  862SOL     MW 3448   2.457   1.800   1.557  0.1341 -0.1027  0.5933
  863SOL     OW 3449   2.992   1.819   1.043  0.9494  0.1271 -0.2551
  863SOL    HW1 3450   3.075   1.787   1.078 -0.9264  0.7851 -1.7814
  863SOL    HW2 3451   2.969   1.896   1.098 -0.7796 -2.3888  1.0934
  863SOL     MW 3452   3.000   1.825   1.055  0.4738 -0.1180 -0.2786
  864SOL     OW 3453   3.058   1.847   0.770  0.0283 -0.1718 -0.2550
  864SOL    HW1 3454   3.016   1.837   0.860 -0.3586  1.3804  0.2630
  864SOL    HW2 3455   3.011   1.795   0.697 -1.5816 -0.6714 -3.5039
  864SOL     MW 3456   3.046   1.839   0.773 -0.2352 -0.0329 -0.6153
  865SOL     OW 3457   2.561   2.175   0.023 -0.5902  0.6337 -0.2988
  865SOL    HW1 3458   2.566   2.090   0.066  2.3583  2.4978 -0.6567
  865SOL    HW2 3459   2.518   2.154  -0.061  0.4041 -0.4636  0.3036
  865SOL     MW 3460   2.556   2.161   0.018 -0.0700  0.7348 -0.2666
  866SOL     OW 3461   2.669   2.377   1.676 -0.1073 -0.1957 -0.0262
  866SOL    HW1 3462   2.689   2.284   1.672  3.1497  0.6011  1.1341
  866SOL    HW2 3463   2.704   2.415   1.598 -1.2240  1.4244  0.5801
  866SOL     MW 3464   2.677   2.370   1.665  0.1751  0.1232  0.2069
  867SOL     OW 3465   0.039   2.738   1.813 -0.0722  0.3198  0.0569
  867SOL    HW1 3466   0.055   2.744   1.910  0.1529 -1.3699 -2.5224
  867SOL    HW2 3467   0.029   2.829   1.783  1.1370 -1.6315  1.1934
  867SOL     MW 3468   0.039   2.751   1.822  0.1171 -0.1606 -0.1334
  868SOL     OW 3469   2.824   2.598   0.535 -0.7129 -0.0508 -0.3707
  868SOL    HW1 3470   2.742   2.546   0.550 -1.4709 -0.7844 -3.4277
  868SOL    HW2 3471   2.797   2.680   0.492 -0.3552  0.0240  0.1658
  868SOL     MW 3472   2.810   2.602   0.532 -0.7657 -0.1377 -0.7033
  869SOL     OW 3473   2.088   2.347   1.138  0.3483 -0.1875 -0.6134
  869SOL    HW1 3474   2.178   2.348   1.095  0.6746 -0.8495 -2.5415
  869SOL    HW2 3475   2.027   2.286   1.093 -1.1382  0.3823 -0.0189
  869SOL     MW 3476   2.092   2.339   1.126  0.1952 -0.1997 -0.7894
  870SOL     OW 3477   2.175   0.032   0.459 -0.0447  0.1873 -0.1724
  870SOL    HW1 3478   2.243   0.073   0.401 -2.2275 -0.6808  1.6494
  870SOL    HW2 3479   2.194  -0.059   0.470 -2.7284  0.3430  0.8644
  870SOL     MW 3480   2.187   0.025   0.453 -0.6868  0.0933  0.2048
  871SOL     OW 3481   2.512   2.094   0.951 -0.2546 -0.4362  0.0756
  871SOL    HW1 3482   2.455   2.051   0.889 -2.5371 -0.9390 -0.4519
  871SOL    HW2 3483   2.467   2.175   0.967  0.1182 -0.8326  0.6523
  871SOL     MW 3484   2.498   2.099   0.945 -0.5066 -0.5548  0.0821
  872SOL     OW 3485   1.985   2.528   1.531  0.3315  0.3809  0.5119
  872SOL    HW1 3486   1.938   2.549   1.610 -0.6475 -1.0875  0.8220
  872SOL    HW2 3487   1.920   2.489   1.468  2.6640 -0.2258 -1.0588
  872SOL     MW 3488   1.970   2.526   1.533  0.5101  0.1071  0.3456
  873SOL     OW 3489   2.929   2.028   1.938 -0.4012 -0.3380 -0.0403
  873SOL    HW1 3490   2.932   2.080   2.019  2.1748 -0.2992  0.4797
  873SOL    HW2 3491   3.019   2.031   1.912  1.5652  2.6934  0.3894
  873SOL     MW 3492   2.942   2.035   1.945  0.1981  0.0671  0.0850
  874SOL     OW 3493   2.291   1.470   2.438  0.7049 -0.8724  0.6108
  874SOL    HW1 3494   2.253   1.423   2.358 -0.9082 -1.6461 -3.1931
  874SOL    HW2 3495   2.351   1.405   2.474 -1.9393 -1.9895  0.3783
  874SOL     MW 3496   2.294   1.455   2.432  0.1432 -1.1219  0.0783
  875SOL     OW 3497   2.334   2.326   1.042 -0.6612 -0.4184  0.1223
  875SOL    HW1 3498   2.376   2.385   0.977 -0.0129 -0.1009  0.2234
  875SOL    HW2 3499   2.379   2.332   1.127  1.3115  0.3416  1.0410
  875SOL     MW 3500   2.345   2.335   1.044 -0.3154 -0.2762  0.2568
  876SOL     OW 3501   3.050   2.261   1.289 -0.1093  0.4323  0.4144
  876SOL    HW1 3502   3.073   2.274   1.200  0.6113  2.6746  0.5153
  876SOL    HW2 3503   3.118   2.301   1.346  0.9747 -1.3158  0.2903
  876SOL     MW 3504   3.062   2.268   1.285  0.1288  0.4975  0.4113
  877SOL     OW 3505   3.043   2.709   0.351  0.2048 -0.0440  0.1116
  877SOL    HW1 3506   3.111   2.776   0.341 -0.0448 -1.6508  0.8573
  877SOL    HW2 3507   3.044   2.664   0.265  0.0465  0.4705  0.4400
  877SOL     MW 3508   3.052   2.712   0.338  0.1510 -0.1881  0.2533
  878SOL     OW 3509   2.374   1.839   1.281  0.2758 -0.0224  0.5186
  878SOL    HW1 3510   2.299   1.776   1.277  3.8023 -2.1280  0.3208
  878SOL    HW2 3511   2.447   1.782   1.248 -2.4721 -2.9945  1.8932
  878SOL     MW 3512   2.373   1.823   1.276  0.3785 -0.6924  0.6738
  879SOL     OW 3513   2.682   2.423   0.996  0.1553  0.5346 -0.3183
  879SOL    HW1 3514   2.734   2.501   1.016  1.3909  0.4945 -0.6982
  879SOL    HW2 3515   2.728   2.396   0.917 -0.5539  1.0326 -5.0239
  879SOL     MW 3516   2.695   2.429   0.988  0.2247  0.5950 -0.9893
  880SOL     OW 3517   2.630   2.176   0.688  0.1541  0.3629  0.4822
  880SOL    HW1 3518   2.621   2.119   0.767  2.1989  0.0343  0.0044
  880SOL    HW2 3519   2.598   2.133   0.610  0.7857 -3.2366  0.6326
  880SOL     MW 3520   2.624   2.163   0.688  0.5072 -0.1554  0.4390
  881SOL     OW 3521   2.908   2.731   0.772  0.0359  0.0835  0.3363
  881SOL    HW1 3522   2.867   2.678   0.697 -3.6671 -1.5613 -0.2064
  881SOL    HW2 3523   3.006   2.737   0.762  1.2838  1.4826 -2.3104
  881SOL     MW 3524   2.915   2.725   0.761 -0.2881  0.0511 -0.0845
  882SOL     OW 3525   2.233   2.881   1.943  0.2375  0.5310 -0.0193
  882SOL    HW1 3526   2.224   2.849   1.852 -0.3977  1.8408  2.5156
  882SOL    HW2 3527   2.184   2.814   1.983  2.7721 -0.5979  1.0141
  882SOL     MW 3528   2.225   2.868   1.936  0.4881  0.5549  0.4515
  883SOL     OW 3529   2.297   2.181   1.461  0.1849  0.0253 -0.7327
  883SOL    HW1 3530   2.370   2.118   1.454 -0.9814  0.1839  1.8822
  883SOL    HW2 3531   2.237   2.166   1.385 -1.2533  0.3401  0.2524
  883SOL     MW 3532   2.299   2.171   1.450 -0.1587  0.0878 -0.2577
  884SOL     OW 3533   1.953   1.799   1.046 -0.1386 -0.4192  0.0590
  884SOL    HW1 3534   1.880   1.854   1.031  1.6639 -0.7717 -1.7135
  884SOL    HW2 3535   2.037   1.851   1.027  1.2220  1.8104 -0.5499
  884SOL     MW 3536   1.955   1.813   1.042  0.2787 -0.1715 -0.2552
  885SOL     OW 3537   2.901   2.380   1.864  0.1564 -0.1218 -0.4194
  885SOL    HW1 3538   2.969   2.317   1.842 -0.6003  1.4651  0.2711
  885SOL    HW2 3539   2.825   2.363   1.806  2.2826 -0.9074  0.2356
  885SOL     MW 3540   2.900   2.370   1.853  0.3371 -0.0160 -0.2419
  886SOL     OW 3541   2.816   2.335   1.427  0.5771 -0.2204  0.5694
  886SOL    HW1 3542   2.902   2.293   1.410 -0.1240 -0.5116  0.4056
  886SOL    HW2 3543   2.823   2.429   1.409 -0.2663 -0.2367  0.3878
  886SOL     MW 3544   2.828   2.342   1.422  0.3733 -0.2610  0.5238
  887SOL     OW 3545   2.250   2.632   1.520  0.1977 -0.1774  0.5675
  887SOL    HW1 3546   2.287   2.630   1.430  2.2796  1.0127 -0.6674
  887SOL    HW2 3547   2.163   2.589   1.514  0.2499 -0.3381  0.8448
  887SOL     MW 3548   2.244   2.626   1.507  0.4792 -0.0416  0.4411
  888SOL     OW 3549   1.882   2.037   1.374  0.4757  0.7275 -0.4846
  888SOL    HW1 3550   1.973   2.035   1.338 -1.4354 -1.3422 -2.0078
  888SOL    HW2 3551   1.897   2.069   1.461  1.9436  0.8288 -0.6101
  888SOL     MW 3552   1.896   2.041   1.381  0.4172  0.4678 -0.7021
  889SOL     OW 3553   2.307   2.021   2.083  0.3899  0.3889  0.1349
  889SOL    HW1 3554   2.380   1.987   2.132 -0.2879 -0.9487 -1.8418
  889SOL    HW2 3555   2.338   2.086   2.021  0.8097 -1.4025 -1.4049
  889SOL     MW 3556   2.321   2.025   2.081  0.3558 -0.0240 -0.3291
  890SOL     OW 3557   0.072   2.335   0.116 -0.1909  0.1183  0.1065
  890SOL    HW1 3558   0.042   2.420   0.087 -0.3700 -0.1303 -0.2104
  890SOL    HW2 3559   0.045   2.312   0.207  0.7721 -0.1151  0.8550
  890SOL     MW 3560   0.064   2.343   0.124 -0.0875  0.0547  0.1635
  891SOL     OW 3561   3.024   1.980   1.281  0.3115 -0.1555  0.3063
  891SOL    HW1 3562   3.117   1.956   1.276 -0.0610  0.2225  0.1570
  891SOL    HW2 3563   3.050   2.078   1.285  1.2475  0.9418 -2.6433
  891SOL     MW 3564   3.039   1.990   1.281  0.3859  0.0392 -0.1025
  892SOL     OW 3565   2.433   2.324   2.749  0.0599 -0.0519 -0.5354
  892SOL    HW1 3566   2.423   2.234   2.789 -3.2748  0.3423  1.4147
  892SOL    HW2 3567   2.506   2.376   2.797 -2.6364  1.1527 -2.0861
  892SOL     MW 3568   2.441   2.319   2.760 -0.7358  0.1590 -0.4827
  893SOL     OW 3569   1.631   2.371   1.272 -0.2253 -0.1698 -0.7728
  893SOL    HW1 3570   1.588   2.394   1.349  0.1802 -1.1838 -3.2179
  893SOL    HW2 3571   1.722   2.361   1.304 -0.5062  1.1813  1.5799
  893SOL     MW 3572   1.637   2.373   1.287 -0.2089 -0.1253 -0.7850
  894SOL     OW 3573   2.792   1.868   0.490 -0.0048 -0.5060 -0.4322
  894SOL    HW1 3574   2.733   1.939   0.513 -0.1861  2.7842  1.5889
  894SOL    HW2 3575   2.787   1.845   0.396  1.3836 -0.8374  2.4304
  894SOL     MW 3576   2.784   1.874   0.481  0.1545 -0.1156  0.2121
  895SOL     OW 3577   2.123   2.118   1.270 -0.3738 -0.3668  0.0717
  895SOL    HW1 3578   2.123   2.207   1.221 -2.9325  1.2688 -0.0939
  895SOL    HW2 3579   2.157   2.051   1.203 -2.0838 -1.4988  2.4462
  895SOL     MW 3580   2.128   2.121   1.255 -0.9370 -0.3004  0.3631
  896SOL     OW 3581   2.225   2.786   1.069  0.5838  0.0117  0.0473
  896SOL    HW1 3582   2.236   2.744   1.160 -1.4726 -0.3205  1.2161
  896SOL    HW2 3583   2.167   2.711   1.030 -4.2474 -1.9830 -2.8594
  896SOL     MW 3584   2.219   2.771   1.076 -0.3250 -0.2953 -0.1820
  897SOL     OW 3585   2.982   2.921   0.099 -0.0780  0.0633 -0.7257
  897SOL    HW1 3586   3.045   2.891   0.038 -2.9133  0.3995  3.5290
  897SOL    HW2 3587   2.900   2.890   0.065  1.2919 -2.5278 -2.4068
  897SOL     MW 3588   2.980   2.913   0.087 -0.2713 -0.2342 -0.3862
  898SOL     OW 3589   2.072   0.179   1.426  0.1254  0.9263 -0.2896
  898SOL    HW1 3590   2.077   0.082   1.450  1.4534  0.0353 -2.2302
  898SOL    HW2 3591   2.116   0.192   1.337 -0.1784  1.6267 -0.9105
  898SOL     MW 3592   2.079   0.168   1.417  0.2605  0.9012 -0.6275
  899SOL     OW 3593   2.911   2.968   0.628  0.1279  0.2791  0.2921
  899SOL    HW1 3594   2.916   2.881   0.673  1.0617  0.3071 -0.0510
  899SOL    HW2 3595   2.850   3.028   0.672  1.0226  3.1265  0.5424
  899SOL     MW 3596   2.903   2.964   0.640  0.3692  0.6585  0.2799
  900SOL     OW 3597   0.110   2.395   1.082 -0.1813 -0.1526  0.2860
  900SOL    HW1 3598   0.090   2.483   1.099  0.2258  0.4087 -0.3901
  900SOL    HW2 3599   0.087   2.369   0.989  2.2778  1.0250 -0.0330
  900SOL     MW 3600   0.104   2.403   1.072  0.1969  0.0768  0.1547
  901SOL     OW 3601   1.749   2.902   1.752  0.2137 -0.8055  0.5825
  901SOL    HW1 3602   1.795   2.816   1.730 -1.6973 -1.7445  1.0726
  901SOL    HW2 3603   1.684   2.915   1.683  0.5694  1.4998  1.4255
  901SOL     MW 3604   1.747   2.892   1.740  0.0085 -0.6252  0.7584
  902SOL     OW 3605   2.680   2.103   1.823  0.4120 -0.2607 -0.0566
  902SOL    HW1 3606   2.679   2.054   1.746 -1.2799 -0.3601  0.5466
  902SOL    HW2 3607   2.766   2.090   1.860  1.3147  1.2428 -0.0779
  902SOL     MW 3608   2.691   2.095   1.818  0.3079 -0.0754  0.0202
  903SOL     OW 3609   1.574   2.790   0.540  0.2923  0.2384  0.7838
  903SOL    HW1 3610   1.626   2.709   0.576  1.3294 -1.1594  1.5712
  903SOL    HW2 3611   1.546   2.819   0.629 -0.2078 -0.1496 -0.7981
  903SOL     MW 3612   1.577   2.783   0.556  0.3632  0.0028  0.6790
  904SOL     OW 3613   2.473   2.603   1.728 -0.5609  1.0737 -0.2433
  904SOL    HW1 3614   2.423   2.621   1.653  1.2667 -0.8464  0.6692
  904SOL    HW2 3615   2.534   2.527   1.704  3.3019  2.7017  1.8218
  904SOL     MW 3616   2.474   2.595   1.715  0.1899  1.0352  0.1496
  905SOL     OW 3617   2.314   2.576   2.180 -0.6188 -0.1888 -0.0774
  905SOL    HW1 3618   2.386   2.551   2.118  1.2232  0.9349  1.2239
  905SOL    HW2 3619   2.284   2.490   2.217  1.8009 -1.5115 -0.2220
  905SOL     MW 3620   2.319   2.561   2.177 -0.0565 -0.2151  0.0752
  906SOL     OW 3621   2.428   2.510   0.887  0.6778 -0.6159  0.1830
  906SOL    HW1 3622   2.519   2.507   0.909 -1.8462 -1.5256  1.2383
  906SOL    HW2 3623   2.410   2.611   0.859  1.0684  1.3989 -0.8529
  906SOL     MW 3624   2.438   2.523   0.886  0.3963 -0.4701  0.1856
  907SOL     OW 3625   2.637   2.788   1.333  0.2469 -0.1692 -0.3160
  907SOL    HW1 3626   2.666   2.872   1.364 -1.2525  0.1684 -0.0014
  907SOL    HW2 3627   2.676   2.789   1.244  2.9328 -0.6573 -0.9839
  907SOL     MW 3628   2.646   2.799   1.326  0.4034 -0.1891 -0.3626
  908SOL     OW 3629   2.746   2.371   3.087  0.0637 -0.0959  0.3853
  908SOL    HW1 3630   2.688   2.297   3.114 -5.6343 -1.4490 -0.0590
  908SOL    HW2 3631   2.707   2.444   3.133 -1.6144 -1.5209  0.8904
  908SOL     MW 3632   2.734   2.371   3.096 -0.9095 -0.4624  0.3933
  909SOL     OW 3633   1.710   0.134   1.125 -0.4393 -0.7119  0.1834
  909SOL    HW1 3634   1.697   0.208   1.066 -1.9320 -0.0676  1.7365
  909SOL    HW2 3635   1.759   0.176   1.198  1.1790  1.4452  2.9210
  909SOL     MW 3636   1.714   0.150   1.127 -0.4227 -0.3423  0.7495
  910SOL     OW 3637   2.355   1.763   0.454 -0.3383 -0.1899  0.6311
  910SOL    HW1 3638   2.303   1.682   0.460 -1.1594  1.1654  3.0057
  910SOL    HW2 3639   2.317   1.807   0.378  1.1015 -0.2199 -0.5480
  910SOL     MW 3640   2.343   1.758   0.445 -0.2567 -0.0150  0.7889
  911SOL     OW 3641   2.232   2.230   1.725  0.0775 -0.3967  0.0377
  911SOL    HW1 3642   2.302   2.228   1.791  0.0829 -0.4750  0.5702
  911SOL    HW2 3643   2.282   2.244   1.644  1.2952  0.5744  0.5084
  911SOL     MW 3644   2.248   2.232   1.723  0.2389 -0.2789  0.1701
  912SOL     OW 3645   2.930   1.936   1.518  0.0381 -0.2104  0.6773
  912SOL    HW1 3646   2.941   1.960   1.425 -0.7289  0.7085 -0.9249
  912SOL    HW2 3647   2.843   1.965   1.551 -1.0761  1.5379 -0.3063
  912SOL     MW 3648   2.920   1.943   1.510 -0.2101  0.1415  0.3362
  913SOL     OW 3649   2.624   3.036   0.362  0.2008  0.2399 -0.0993
  913SOL    HW1 3650   2.676   2.957   0.361 -0.7232  1.7776 -1.4245
  913SOL    HW2 3651   2.544   2.996   0.354  0.9557 -0.0255  0.6670
  913SOL     MW 3652   2.620   3.020   0.361  0.1785  0.4078 -0.1731
  914SOL     OW 3653   2.681   1.752   3.055 -0.0310  0.4295  0.1001
  914SOL    HW1 3654   2.734   1.812   2.997  0.7898  0.6641 -0.4662
  914SOL    HW2 3655   2.587   1.769   3.027  0.8860 -3.1179  1.3512
  914SOL     MW 3656   2.676   1.762   3.043  0.1983 -0.0076  0.1905
  915SOL     OW 3657   1.697   0.232   0.220 -0.8700 -0.0330  0.2092
  915SOL    HW1 3658   1.779   0.190   0.243 -0.6967  2.3400  1.8629
  915SOL    HW2 3659   1.628   0.176   0.261  2.8030  0.4660  0.9965
  915SOL     MW 3660   1.699   0.219   0.229 -0.3625  0.3459  0.5313
  916SOL     OW 3661   1.807   2.103   1.925  0.0585 -0.0460 -0.4533
  916SOL    HW1 3662   1.844   2.194   1.926  0.2704  0.0782  2.2098
  916SOL    HW2 3663   1.853   2.056   1.856  1.4354  1.0426 -0.8407
  916SOL     MW 3664   1.818   2.108   1.916  0.2681  0.1140 -0.1530
  917SOL     OW 3665   2.547   2.190   2.534  0.7332  0.2991 -0.2868
  917SOL    HW1 3666   2.536   2.225   2.621 -1.5037  0.3493 -2.3606
  917SOL    HW2 3667   2.594   2.254   2.487  0.0487  0.6327 -0.8851
  917SOL     MW 3668   2.552   2.203   2.540  0.3477  0.3497 -0.6394
  918SOL     OW 3669   2.003   1.608   2.720  0.2202 -0.7528 -0.2880
  918SOL    HW1 3670   1.941   1.620   2.647 -0.4273 -1.5446  1.8895
  918SOL    HW2 3671   2.081   1.660   2.698 -2.4854  1.9840 -0.4047
  918SOL     MW 3672   2.005   1.617   2.707 -0.2222 -0.4962 -0.0161
  919SOL     OW 3673   0.007   2.304   2.263 -0.8066  0.0438 -0.0001
  919SOL    HW1 3674  -0.055   2.229   2.249  0.0518 -1.6355 -1.3291
  919SOL    HW2 3675   0.060   2.318   2.185 -0.0654  0.4396 -0.1216
  919SOL     MW 3676   0.006   2.296   2.251 -0.5955 -0.1256 -0.1915
  920SOL     OW 3677   2.741   2.845   3.079  0.0668  0.6107 -0.2846
  920SOL    HW1 3678   2.662   2.899   3.073 -0.7058  0.8954 -1.1941
  920SOL    HW2 3679   2.732   2.782   3.001  2.4647 -0.5899 -0.4200
  920SOL     MW 3680   2.730   2.844   3.068  0.2812  0.4899 -0.4225
  921SOL     OW 3681   2.439   2.571   2.616  0.5149  0.1370  0.5509
  921SOL    HW1 3682   2.505   2.580   2.552 -1.2161  0.4954 -2.5823
  921SOL    HW2 3683   2.440   2.472   2.636 -1.2588 -2.4775  0.7426
  921SOL     MW 3684   2.448   2.559   2.610  0.0525 -0.1606  0.1628
  922SOL     OW 3685   2.039   2.835   0.325  0.0590  0.0502 -0.5022
  922SOL    HW1 3686   2.024   2.867   0.237  1.2263  2.3119  1.3279
  922SOL    HW2 3687   2.032   2.738   0.322  3.3090  1.8477 -1.6212
  922SOL     MW 3688   2.036   2.826   0.313  0.6418  0.5858 -0.4083
  923SOL     OW 3689   2.157   2.828   1.679  0.1870 -0.3359 -0.0393
  923SOL    HW1 3690   2.207   2.768   1.622  1.4691  2.0647  1.6272
  923SOL    HW2 3691   2.135   2.901   1.624 -0.0719 -1.8147  1.0028
  923SOL     MW 3692   2.161   2.830   1.664  0.3220 -0.2143  0.3181
  924SOL     OW 3693   1.195   2.617   2.489 -0.2450 -0.1407 -0.0624
  924SOL    HW1 3694   1.253   2.690   2.492 -4.4373  1.7792  0.9579
  924SOL    HW2 3695   1.228   2.551   2.553 -0.4543 -0.9475 -0.4703
  924SOL     MW 3696   1.207   2.618   2.498 -0.8257  0.0061  0.0184
  925SOL     OW 3697   2.963   0.205   2.639  0.1230 -0.5855  0.5357
  925SOL    HW1 3698   2.960   0.242   2.543  0.6983  1.5908  0.0074
  925SOL    HW2 3699   2.942   0.284   2.685 -0.8940 -0.4327  2.0754
  925SOL     MW 3700   2.960   0.220   2.632  0.0647 -0.2782  0.6692
  926SOL     OW 3701   2.737   2.392   2.086 -0.3191 -0.0939  0.4081
  926SOL    HW1 3702   2.792   2.444   2.150 -1.5772  3.2532 -0.1367
  926SOL    HW2 3703   2.775   2.392   2.001 -2.5685  1.5462 -1.9780
  926SOL     MW 3704   2.749   2.399   2.083 -0.7819  0.5641  0.0214
  927SOL     OW 3705   2.360   0.145   0.292 -0.4378  0.2293 -0.6107
  927SOL    HW1 3706   2.457   0.169   0.284  2.9097  1.7133 -0.1218
  927SOL    HW2 3707   2.332   0.135   0.201 -0.3150 -0.5457  0.3745
  927SOL     MW 3708   2.369   0.147   0.279  0.0201  0.3228 -0.4162
  928SOL     OW 3709   2.131   2.434   1.934  0.9354 -0.1158 -0.0415
  928SOL    HW1 3710   2.152   2.506   1.874  0.8892  2.2128 -2.3524
  928SOL    HW2 3711   2.161   2.352   1.896  0.1326  0.0167 -1.7893
  928SOL     MW 3712   2.138   2.433   1.921  0.8234  0.2089 -0.5770
  929SOL     OW 3713   2.727   2.381   2.442  0.6002  0.0353 -0.2303
  929SOL    HW1 3714   2.791   2.381   2.373 -1.3622 -0.1846  1.9055
  929SOL    HW2 3715   2.772   2.375   2.525 -1.4535  1.9202  1.0363
  929SOL     MW 3716   2.741   2.380   2.444  0.0703  0.2550  0.2186
  930SOL     OW 3717   2.019   2.847   2.692 -0.0901  0.0652 -0.3319
  930SOL    HW1 3718   2.047   2.773   2.745  2.8037 -1.1760 -0.2656
  930SOL    HW2 3719   2.098   2.914   2.700  0.0202  2.4595  3.7388
  930SOL     MW 3720   2.033   2.846   2.700  0.3063  0.2173  0.2140
  931SOL     OW 3721   3.012   2.779   2.301  0.1534  0.1161  0.3903
  931SOL    HW1 3722   3.035   2.805   2.389  2.2391 -3.0638  3.1497
  931SOL    HW2 3723   3.080   2.806   2.246 -3.3063 -1.5899  0.4979
  931SOL     MW 3724   3.024   2.786   2.306 -0.0279 -0.5286  0.7686
  932SOL     OW 3725   2.843   1.980   2.572  0.3729 -0.4200  0.2079
  932SOL    HW1 3726   2.941   1.995   2.570  0.3663  0.9504  2.2310
  932SOL    HW2 3727   2.816   1.977   2.479 -0.3631 -0.8919  1.1166
  932SOL     MW 3728   2.852   1.982   2.559  0.2749 -0.3015  0.5947
  933SOL     OW 3729   2.018   2.876   2.311  0.5231 -0.1523  0.2998
  933SOL    HW1 3730   2.096   2.924   2.334 -0.4803  1.5678 -0.3811
  933SOL    HW2 3731   1.963   2.939   2.265  0.9478  0.3894  0.8797
  933SOL     MW 3732   2.021   2.891   2.308  0.4467  0.1461  0.2865
  934SOL     OW 3733   2.016   2.671   2.468 -0.0450  0.3301 -0.1138
  934SOL    HW1 3734   2.045   2.722   2.546 -1.3359  1.0415  1.4948
  934SOL    HW2 3735   2.002   2.744   2.403  1.2853 -0.0197  0.5240
  934SOL     MW 3736   2.018   2.688   2.470 -0.0398  0.3778  0.1826
  935SOL     OW 3737   2.672   1.560   1.812  0.3201 -0.6224 -0.1709
  935SOL    HW1 3738   2.768   1.573   1.782  2.5139 -0.0455 -0.3068
  935SOL    HW2 3739   2.636   1.560   1.724 -1.0840 -0.9245  0.7018
  935SOL     MW 3740   2.680   1.562   1.797  0.4243 -0.5862 -0.0737
  936SOL     OW 3741   2.987   2.216   3.066  0.4364 -0.1844 -0.0923
  936SOL    HW1 3742   3.062   2.255   3.116  0.7824  1.9516 -0.6976
  936SOL    HW2 3743   2.906   2.271   3.066 -2.5871  1.4110 -0.8138
  936SOL     MW 3744   2.986   2.228   3.072  0.0831  0.3079 -0.2673
  937SOL     OW 3745   1.937   2.133   2.612 -0.1330  0.3007 -0.2773
  937SOL    HW1 3746   2.008   2.093   2.666 -1.1455 -0.8296  0.3860
  937SOL    HW2 3747   1.934   2.083   2.531 -1.4631 -1.4439 -0.5211
  937SOL     MW 3748   1.946   2.121   2.608 -0.4421 -0.0786 -0.2219
  938SOL     OW 3749   2.246   1.796   1.958  0.3950  0.1463  0.2147
  938SOL    HW1 3750   2.255   1.831   1.867  0.9161  1.8172 -0.0044
  938SOL    HW2 3751   2.277   1.865   2.013  2.1338 -1.9602  0.2059
  938SOL     MW 3752   2.252   1.809   1.953  0.6932  0.0888  0.1847
  939SOL     OW 3753   2.735   1.964   2.310 -0.4807 -0.0506  0.1820
  939SOL    HW1 3754   2.769   1.911   2.233  2.9995  1.7770  2.1536
  939SOL    HW2 3755   2.639   1.956   2.309 -3.0098  1.1422  1.6425
  939SOL     MW 3756   2.727   1.956   2.299 -0.3552  0.3479  0.6348
  940SOL     OW 3757   2.300   0.174   2.644 -0.2522 -0.3521  0.1917
  940SOL    HW1 3758   2.277   0.080   2.662 -0.0138 -2.9305  0.8963
  940SOL    HW2 3759   2.357   0.202   2.709 -2.4654  1.6797 -3.1335
  940SOL     MW 3760   2.304   0.165   2.655 -0.5127 -0.4242 -0.1540
  941SOL     OW 3761   0.158   2.387   2.038 -0.9426  0.4366 -0.2161
  941SOL    HW1 3762   0.249   2.386   2.021  0.7683  1.7389 -0.5398
  941SOL    HW2 3763   0.107   2.355   1.961  1.5576  1.5738  2.1939
  941SOL     MW 3764   0.163   2.382   2.026 -0.3870  0.7585  0.0592
  942SOL     OW 3765   2.889   2.166   2.185 -0.0615 -0.1547  0.3531
  942SOL    HW1 3766   2.827   2.222   2.139 -0.1791 -0.0280  0.3086
  942SOL    HW2 3767   2.839   2.110   2.239 -0.1230  1.6829 -2.0109
  942SOL     MW 3768   2.875   2.166   2.186 -0.0851  0.1045  0.0353
  943SOL     OW 3769   0.299   2.099   2.275 -0.6621  0.2161  0.1478
  943SOL    HW1 3770   0.259   2.157   2.344  0.0106 -1.2310  1.1771
  943SOL    HW2 3771   0.392   2.082   2.301 -0.2016 -0.5065  0.1651
  943SOL     MW 3772   0.306   2.104   2.287 -0.5126 -0.0702  0.2859
  944SOL     OW 3773   2.077   2.697   2.100 -0.0002 -0.2971  0.0607
  944SOL    HW1 3774   2.134   2.634   2.146 -0.0881  0.3187  1.9322
  944SOL    HW2 3775   2.082   2.765   2.177 -0.4411 -1.4657 -0.1420
  944SOL     MW 3776   2.085   2.698   2.116 -0.0699 -0.3700  0.2809
  945SOL     OW 3777   2.639   2.703   2.887 -0.2732  0.4732  0.2472
  945SOL    HW1 3778   2.664   2.621   2.851 -1.9630  1.8210  1.4022
  945SOL    HW2 3779   2.553   2.725   2.849  0.9797  2.8176  0.4945
  945SOL     MW 3780   2.631   2.695   2.877 -0.3309  0.9603  0.4322
  946SOL     OW 3781   2.462   2.798   2.280  0.7482 -0.8058 -0.6596
  946SOL    HW1 3782   2.496   2.818   2.186  2.1588 -3.5326  0.6866
  946SOL    HW2 3783   2.409   2.727   2.260 -0.9358  2.9393  1.8726
  946SOL     MW 3784   2.460   2.791   2.265  0.7122 -0.6714 -0.1479
  947SOL     OW 3785   1.912   0.071   0.322 -0.1624 -0.4506 -0.1585
  947SOL    HW1 3786   1.857   0.040   0.388 -1.3309 -0.4196  1.1960
  947SOL    HW2 3787   1.994   0.058   0.372 -3.8293 -1.2516  2.9859
  947SOL     MW 3788   1.915   0.065   0.337 -0.8004 -0.5522  0.4351
  948SOL     OW 3789   1.828   3.058   2.671  0.0047  1.0207 -0.1387
  948SOL    HW1 3790   1.896   2.990   2.675  1.6925  2.7317  0.9257
  948SOL    HW2 3791   1.806   3.058   2.575  2.1515  0.3764 -2.1646
  948SOL     MW 3792   1.834   3.049   2.659  0.5107  1.1614 -0.2656
  949SOL     OW 3793   2.464   1.931   2.258 -0.3592 -0.2489 -0.4367
  949SOL    HW1 3794   2.457   1.839   2.294 -0.9116  1.1133 -1.9678
  949SOL    HW2 3795   2.431   1.985   2.330 -0.1062  0.7575  0.5872
  949SOL     MW 3796   2.458   1.926   2.272 -0.3987  0.0636 -0.5036
  950SOL     OW 3797   2.274   2.485   2.953  0.1456 -0.9105 -0.0089
  950SOL    HW1 3798   2.307   2.419   2.890 -1.4586 -0.3892 -0.2140
  950SOL    HW2 3799   2.198   2.522   2.913 -2.1700 -3.1492  0.7154
  950SOL     MW 3800   2.269   2.481   2.940 -0.3716 -1.1371  0.0596
  951SOL     OW 3801   2.997   2.101   2.822  0.0573 -0.0445 -0.4954
  951SOL    HW1 3802   3.006   2.124   2.917  0.9177 -0.0362  1.7868
  951SOL    HW2 3803   3.064   2.036   2.801  1.2751 -1.3600  1.2041
  951SOL     MW 3804   3.007   2.095   2.832  0.3315 -0.2169  0.0299
  952SOL     OW 3805   3.025   1.652   2.143 -1.0129 -0.1332 -0.0188
  952SOL    HW1 3806   2.949   1.711   2.125 -0.2249  1.4070 -0.1403
  952SOL    HW2 3807   3.072   1.692   2.216 -1.5791  0.3532  1.2504
  952SOL     MW 3808   3.021   1.665   2.150 -0.9836  0.1342  0.1326
  953SOL     OW 3809   1.912   1.783   2.924 -0.4557 -0.1292  0.4765
  953SOL    HW1 3810   1.843   1.732   2.964  0.7194  1.0442 -1.6575
  953SOL    HW2 3811   1.948   1.708   2.866  0.9086  0.5612 -1.1116
  953SOL     MW 3812   1.908   1.766   2.921 -0.1207  0.1167 -0.0146
  954SOL     OW 3813   2.400   2.080   2.889  0.0063 -0.1355  0.0630
  954SOL    HW1 3814   2.320   2.065   2.842  2.4755  2.2040  1.1835
  954SOL    HW2 3815   2.457   2.026   2.826 -0.9322 -1.2960 -1.1248
  954SOL     MW 3816   2.397   2.071   2.874  0.2082  0.0200  0.0541
  955SOL     OW 3817   1.521   1.573   2.588  0.3460  0.0640  0.0609
  955SOL    HW1 3818   1.501   1.608   2.501 -0.6307  1.0305 -2.5892
  955SOL    HW2 3819   1.612   1.600   2.600 -2.9840  2.1141  1.2881
  955SOL     MW 3820   1.530   1.581   2.578 -0.2222  0.4620 -0.1268
  956SOL     OW 3821   2.678   2.417   2.829  0.0423  0.3096  0.1600
  956SOL    HW1 3822   2.695   2.405   2.921 -1.0943  0.6724 -0.6494
  956SOL    HW2 3823   2.752   2.376   2.788 -0.6677 -1.9189 -0.3135
  956SOL     MW 3824   2.690   2.410   2.836 -0.2013  0.0634 -0.0093
  957SOL     OW 3825   2.346   2.839   0.355 -0.3591  0.0023  0.1960
  957SOL    HW1 3826   2.265   2.844   0.300 -1.8941 -1.7207 -0.4641
  957SOL    HW2 3827   2.297   2.808   0.434 -2.3929  1.2783 -1.7831
  957SOL     MW 3828   2.329   2.835   0.358 -0.8300 -0.0567 -0.1522
  958SOL     OW 3829   2.040   2.610   2.825  0.7462  0.4439 -0.2151
  958SOL    HW1 3830   2.005   2.533   2.772  0.6359  1.2806 -2.6056
  958SOL    HW2 3831   1.977   2.644   2.887  2.4525 -0.8294  0.5292
  958SOL     MW 3832   2.027   2.604   2.826  0.9568  0.3863 -0.4323
  959SOL     OW 3833   2.494   2.599   0.338  0.2798 -0.3000  0.0476
  959SOL    HW1 3834   2.562   2.599   0.274  1.2619  2.6713 -1.8024
  959SOL    HW2 3835   2.456   2.690   0.336 -1.6331  2.5304 -0.4156
  959SOL     MW 3836   2.498   2.611   0.329  0.1570  0.4655 -0.2576
  960SOL     OW 3837   1.912   2.247   2.229 -0.2851  0.2797  0.3319
  960SOL    HW1 3838   1.908   2.165   2.278  1.6495 -1.4580 -0.3676
  960SOL    HW2 3839   1.884   2.321   2.287 -1.8782  0.8138  0.8296
  960SOL     MW 3840   1.908   2.246   2.243 -0.2400  0.1209  0.3053
  961SOL     OW 3841   2.202   2.319   2.271  0.1740 -0.1665  0.0293
  961SOL    HW1 3842   2.104   2.322   2.249 -0.5124  0.3016  1.9146
  961SOL    HW2 3843   2.219   2.375   2.355  0.0937 -0.0752  0.1170
  961SOL     MW 3844   2.192   2.327   2.279  0.0729 -0.0927  0.2896
  962SOL     OW 3845   2.130   2.024   2.768 -0.1654 -0.2085 -0.6202
  962SOL    HW1 3846   2.092   1.992   2.846 -0.0373  1.3490 -3.9970
  962SOL    HW2 3847   2.155   1.942   2.714 -0.5583 -2.1628 -1.5028
  962SOL     MW 3848   2.128   2.009   2.772 -0.2003 -0.2609 -1.1822
  963SOL     OW 3849   1.841   2.552   2.055  0.0230 -0.7191 -0.0102
  963SOL    HW1 3850   1.932   2.586   2.073 -1.7171  0.4098 -2.6029
  963SOL    HW2 3851   1.850   2.479   1.990 -0.4549  0.5898 -1.8602
  963SOL     MW 3852   1.854   2.547   2.049 -0.2697 -0.3975 -0.5964
  964SOL     OW 3853   1.771   1.932   2.728 -0.1346  0.0778  0.4206
  964SOL    HW1 3854   1.825   1.991   2.676 -0.4289  4.1064 -3.6138
  964SOL    HW2 3855   1.817   1.892   2.803 -1.6765  3.1253  0.8454
  964SOL     MW 3856   1.785   1.934   2.731 -0.3769  1.0114 -0.0556
  965SOL     OW 3857   2.207   2.761   0.599  0.1134 -0.4866 -0.6660
  965SOL    HW1 3858   2.220   2.670   0.577 -1.9978  0.2452 -0.3090
  965SOL    HW2 3859   2.257   2.770   0.681 -0.1480  1.0378  0.6045
  965SOL     MW 3860   2.215   2.750   0.607 -0.1997 -0.1889 -0.4512
  966SOL     OW 3861   2.687   2.678   2.464  0.1181 -0.0674 -0.0515
  966SOL    HW1 3862   2.634   2.686   2.386 -1.8836 -1.0068  0.6993
  966SOL    HW2 3863   2.705   2.585   2.471 -0.5411  0.0510 -0.2093
  966SOL     MW 3864   2.683   2.667   2.455 -0.2330 -0.1757  0.0267
  967SOL     OW 3865   2.776   3.053   2.899 -0.7713 -0.4980 -0.4921
  967SOL    HW1 3866   2.777   2.965   2.943 -1.0699 -1.6875 -0.9862
  967SOL    HW2 3867   2.703   3.063   2.831  0.6012 -0.5480 -4.4536
  967SOL     MW 3868   2.766   3.043   2.896 -0.6296 -0.6615 -1.0800
  968SOL     OW 3869   2.997   2.621   2.898 -0.7810 -0.2406 -0.8220
  968SOL    HW1 3870   2.931   2.672   2.852  2.6220 -0.4107  1.4842
  968SOL    HW2 3871   3.031   2.580   2.819  0.0640 -0.0385  1.7945
  968SOL     MW 3872   2.993   2.622   2.881 -0.2205 -0.2364 -0.1725
  969SOL     OW 3873   1.606   2.115   1.635  0.5897  0.2093  0.0968
  969SOL    HW1 3874   1.666   2.040   1.627 -1.9063  1.3892  1.8309
  969SOL    HW2 3875   1.594   2.137   1.728  1.6190 -1.4087  0.3713
  969SOL     MW 3876   1.612   2.108   1.646  0.3962  0.1515  0.3618
  970SOL     OW 3877   1.688   1.789   1.876  0.0588  0.3980  1.0733
  970SOL    HW1 3878   1.723   1.719   1.929  3.2122  0.3614  1.3448
  970SOL    HW2 3879   1.595   1.805   1.894 -2.2851  1.8642 -0.9164
  970SOL     MW 3880   1.680   1.782   1.886  0.1656  0.5866  0.8466
  971SOL     OW 3881   1.757   3.082   2.418 -0.2802  0.3740  0.4220
  971SOL    HW1 3882   1.771   3.059   2.330 -2.5318  2.1573  2.7286
  971SOL    HW2 3883   1.806   3.162   2.431  0.0565 -1.3710 -0.3867
  971SOL     MW 3884   1.766   3.089   2.408 -0.5328  0.3790  0.6197
  972SOL     OW 3885   0.263   2.835   2.492 -0.1727 -0.1500  0.2843
  972SOL    HW1 3886   0.332   2.774   2.459 -1.4900 -1.7142  0.7222
  972SOL    HW2 3887   0.305   2.921   2.490  0.5784  1.2455 -0.0105
  972SOL     MW 3888   0.278   2.838   2.487 -0.2474 -0.1722  0.3032
  973SOL     OW 3889   2.532   0.016   2.079  0.5354 -0.2563 -0.2453
  973SOL    HW1 3890   2.542  -0.078   2.071 -0.6883 -1.7152  0.0435
  973SOL    HW2 3891   2.559   0.058   1.994  0.3247  0.0371  0.2989
  973SOL     MW 3892   2.537   0.009   2.067  0.3461 -0.4101 -0.1354
  974SOL     OW 3893   2.041   0.201   2.683 -0.5396 -0.1644  0.2271
  974SOL    HW1 3894   2.132   0.209   2.657 -1.8196 -0.3913 -2.5294
  974SOL    HW2 3895   2.037   0.163   2.769 -0.4454  0.3702 -1.7808
  974SOL     MW 3896   2.052   0.197   2.691 -0.6961 -0.1238 -0.4015
  975SOL     OW 3897   2.209   2.490   2.475  0.0056 -0.0175 -0.1880
  975SOL    HW1 3898   2.268   2.556   2.518 -0.5960  2.5967  0.2061
  975SOL    HW2 3899   2.126   2.539   2.453 -0.0019 -0.6936 -0.9845
  975SOL     MW 3900   2.206   2.505   2.478 -0.0747  0.2382 -0.2411
  976SOL     OW 3901   0.215   0.367   1.745  0.3963 -0.2591 -0.3296
  976SOL    HW1 3902   0.289   0.309   1.786  1.0380  0.3376  0.0180
  976SOL    HW2 3903   0.155   0.299   1.691  0.7208 -1.4650 -0.2777
  976SOL     MW 3904   0.217   0.351   1.743  0.5238 -0.3395 -0.2769
  977SOL     OW 3905   1.756   2.630   2.521  0.4067  0.5494  0.0803
  977SOL    HW1 3906   1.771   2.537   2.501 -0.1436 -0.3357 -2.8799
  977SOL    HW2 3907   1.838   2.659   2.490  0.4969 -0.0128  2.2476
  977SOL     MW 3908   1.769   2.621   2.514  0.3460  0.3584 -0.0243
   3.10000   3.10000   3.10000
