977 TIP4P/2005f water molecules t=   0.23000 step= 230
 3908
    1SOL     OW    1   0.244   0.778   0.016  0.6480 -0.1301 -0.4155
    1SOL    HW1    2   0.230   0.818  -0.068 -0.1227 -2.0188 -1.6004
    1SOL    HW2    3   0.245   0.683  -0.007  0.6888 -1.9176  0.0649
    1SOL     MW    4   0.242   0.771   0.002  0.5517 -0.6152 -0.5085
    2SOL     OW    5   0.362   3.027   1.149 -0.1149  0.1035  0.2391
    2SOL    HW1    6   0.400   3.099   1.097 -0.6608 -1.2285  1.5451
    2SOL    HW2    7   0.267   3.045   1.140 -0.3761 -0.6825 -1.1715
    2SOL     MW    8   0.355   3.039   1.141 -0.2214 -0.1759  0.2253
    3SOL     OW    9   2.680   0.395   0.905 -0.1851 -0.2591  0.5781
    3SOL    HW1   10   2.696   0.476   0.854  1.4453  3.7476 -0.0139
    3SOL    HW2   11   2.690   0.416   0.996  0.8699  0.3217 -0.7454
    3SOL     MW   12   2.683   0.408   0.910  0.1692  0.3462  0.3254
    4SOL     OW   13   3.085   1.813   0.646 -0.4924  0.6263 -0.6623
    4SOL    HW1   14   3.015   1.840   0.590 -0.0125  0.6918  3.4340
    4SOL    HW2   15   3.142   1.761   0.593 -0.9981 -0.5083  1.3138
    4SOL     MW   16   3.083   1.810   0.632 -0.4958  0.4852  0.1389
    5SOL     OW   17   1.699   1.446   0.509  0.3785  0.0511  0.1201
    5SOL    HW1   18   1.763   1.411   0.576  3.1685 -2.0288  0.1825
    5SOL    HW2   19   1.610   1.427   0.552 -2.1672  1.6913 -0.8868
    5SOL     MW   20   1.696   1.439   0.524  0.4107 -0.0070 -0.0045
    6SOL     OW   21   0.849   1.373   0.604  0.8848  0.9976  0.1215
    6SOL    HW1   22   0.764   1.390   0.649 -0.9312 -0.5034  0.6646
    6SOL    HW2   23   0.872   1.279   0.635 -0.8678 -0.7434 -0.4746
    6SOL     MW   24   0.841   1.363   0.614  0.4140  0.5698  0.1145
    7SOL     OW   25   1.957   1.073   0.002 -0.4656 -0.1229 -0.0385
    7SOL    HW1   26   2.000   1.149  -0.032  1.4118  0.6016  6.6967
    7SOL    HW2   27   2.001   1.082   0.088  0.3014 -0.2688  0.0254
    7SOL     MW   28   1.969   1.084   0.009 -0.1167 -0.0466  0.8585
    8SOL     OW   29   0.998   1.287   1.058  0.4518  0.6159 -0.4071
    8SOL    HW1   30   1.093   1.269   1.087 -1.2857 -2.2365  0.8505
    8SOL    HW2   31   0.951   1.203   1.074 -3.2987 -0.4344  0.1137
    8SOL     MW   32   1.004   1.274   1.064 -0.2723  0.1010 -0.1725
    9SOL     OW   33   1.008   0.475   1.392  0.1881  0.0012 -0.4466
    9SOL    HW1   34   0.942   0.409   1.360  0.9241 -2.5924 -2.7402
    9SOL    HW2   35   1.040   0.446   1.474  0.4360  1.1243 -1.2609
    9SOL     MW   36   1.003   0.462   1.398  0.3179 -0.1928 -0.8566
   10SOL     OW   37   0.300   0.859   0.478  0.1303  0.0578 -0.6016
   10SOL    HW1   38   0.390   0.883   0.473 -1.0390 -1.9039  0.5789
   10SOL    HW2   39   0.281   0.906   0.560 -0.1584 -0.7684  0.3816
   10SOL     MW   40   0.309   0.869   0.488 -0.0621 -0.3100 -0.3161
   11SOL     OW   41   0.923   1.102   1.543 -0.4790  0.1063  0.5258
   11SOL    HW1   42   0.926   1.070   1.636 -0.5153  0.0315  0.9709
   11SOL    HW2   43   0.865   1.035   1.495 -0.8563  0.2653  0.6410
   11SOL     MW   44   0.916   1.089   1.549 -0.5336  0.1174  0.5998
   12SOL     OW   45   3.090   1.091   0.847  0.4081  0.5149 -0.1675
   12SOL    HW1   46   3.135   1.164   0.882  3.8846 -0.3726  1.8224
   12SOL    HW2   47   3.061   1.121   0.757 -0.1132 -2.0432 -1.0775
   12SOL     MW   48   3.092   1.105   0.840  0.7980  0.0603 -0.0250
   13SOL     OW   49   1.931   1.443   1.431  0.2756 -0.2485 -0.0612
   13SOL    HW1   50   1.977   1.413   1.354  1.5954  1.3400 -0.4150
   13SOL    HW2   51   1.894   1.531   1.409 -2.1833 -0.0922 -1.1486
   13SOL     MW   52   1.932   1.450   1.418  0.1253 -0.0183 -0.2513
   14SOL     OW   53   0.610   0.346   1.771  0.5058 -0.1937 -0.4579
   14SOL    HW1   54   0.612   0.268   1.716  1.3435 -0.1616 -0.0355
   14SOL    HW2   55   0.700   0.355   1.792 -0.6611 -0.4300 -0.5027
   14SOL     MW   56   0.622   0.337   1.766  0.4623 -0.2206 -0.4081
   15SOL     OW   57   1.981   0.523   0.924  0.1176  0.3330 -0.0763
   15SOL    HW1   58   1.992   0.551   1.018 -1.3204  1.1581  0.4641
   15SOL    HW2   59   2.073   0.502   0.896  0.1089  1.4307 -1.3739
   15SOL     MW   60   1.995   0.524   0.933 -0.0732  0.5867 -0.1762
   16SOL     OW   61   0.196   1.798   0.288  0.2737 -0.1570  0.6909
   16SOL    HW1   62   0.287   1.764   0.290 -1.9028  1.8503 -0.0285
   16SOL    HW2   63   0.208   1.890   0.299  1.6938 -2.3820  1.9927
   16SOL     MW   64   0.210   1.806   0.290  0.1739 -0.1857  0.7677
   17SOL     OW   65   1.085   0.812   1.446  0.0419  0.1552  0.0325
   17SOL    HW1   66   1.132   0.823   1.534 -1.1379 -0.3378  0.5205
   17SOL    HW2   67   0.999   0.780   1.468 -0.9277  0.3342  1.8392
   17SOL     MW   68   1.080   0.809   1.461 -0.2417  0.1138  0.3353
   18SOL     OW   69   0.020   1.549   0.409  0.2531 -0.3398  0.4578
   18SOL    HW1   70   0.072   1.597   0.340  1.1137  1.3012 -1.5485
   18SOL    HW2   71   0.008   1.457   0.373 -0.0962 -0.7312 -0.2761
   18SOL     MW   72   0.026   1.543   0.395  0.3206 -0.1749  0.0963
   19SOL     OW   73   0.131   1.278   1.025  0.2014  0.6525 -0.1901
   19SOL    HW1   74   0.142   1.348   0.958  1.2806  0.7692  1.3072
   19SOL    HW2   75   0.037   1.274   1.045  1.0366 -1.8275 -0.1219
   19SOL     MW   76   0.120   1.287   1.019  0.4540  0.3407  0.0164
   20SOL     OW   77   0.449   2.163   1.285 -0.1859 -0.3161 -0.0576
   20SOL    HW1   78   0.417   2.093   1.228  1.2025  0.8865  0.3509
   20SOL    HW2   79   0.385   2.190   1.353  1.2993 -0.6849 -0.0413
   20SOL     MW   80   0.436   2.157   1.286  0.1933 -0.2061 -0.0016
   21SOL     OW   81   0.556   0.900   0.362 -0.0256 -0.0517  0.2549
   21SOL    HW1   82   0.626   0.842   0.391 -1.6837  2.7204 -2.1106
   21SOL    HW2   83   0.522   0.860   0.287 -0.1846  0.0913  0.8584
   21SOL     MW   84   0.561   0.887   0.356 -0.2653  0.3329  0.0225
   22SOL     OW   85   1.564   0.578   1.129 -0.5854 -0.3022  0.6135
   22SOL    HW1   86   1.615   0.523   1.065 -0.0647 -1.4006 -0.0347
   22SOL    HW2   87   1.512   0.638   1.071  0.7331  0.3470 -0.3229
   22SOL     MW   88   1.564   0.579   1.113 -0.3427 -0.3615  0.4044
   23SOL     OW   89   3.040   0.736   0.722 -0.2379  0.2833  0.3668
   23SOL    HW1   90   3.099   0.657   0.717 -0.2635 -2.7250  0.4484
   23SOL    HW2   91   3.111   0.801   0.727 -3.1481 -1.6854  0.4570
   23SOL     MW   92   3.058   0.734   0.722 -0.6253 -0.3734  0.3894
   24SOL     OW   93   2.067   2.152   0.037 -0.6917  0.6984 -0.2308
   24SOL    HW1   94   2.037   2.152   0.128  2.0538  0.0046  0.8970
   24SOL    HW2   95   2.111   2.070   0.030  0.6684 -1.3669  1.8458
   24SOL     MW   96   2.069   2.141   0.048 -0.1500  0.3344  0.1920
   25SOL     OW   97   0.211   1.439   0.568  0.8676  0.2630 -0.4437
   25SOL    HW1   98   0.126   1.475   0.536 -3.7114 -1.3029 -1.9638
   25SOL    HW2   99   0.270   1.465   0.495 -0.2337 -0.3568 -2.1659
   25SOL     MW  100   0.207   1.447   0.554  0.1181 -0.0254 -0.8715
   26SOL     OW  101   2.036   0.963   0.384  0.2836 -0.2968 -0.1540
   26SOL    HW1  102   1.945   0.997   0.406  0.2448  0.9464  1.5700
   26SOL    HW2  103   2.073   1.033   0.320 -1.3046 -1.0869 -0.7791
   26SOL     MW  104   2.029   0.977   0.379  0.0689 -0.2370 -0.0090
   27SOL     OW  105   1.972   1.410   0.237  0.3820 -0.4033  0.4487
   27SOL    HW1  106   1.899   1.347   0.257  1.0076 -0.1246 -0.5322
   27SOL    HW2  107   1.977   1.463   0.316 -3.4841  0.2824  0.7617
   27SOL     MW  108   1.963   1.408   0.250 -0.0456 -0.2761  0.3606
   28SOL     OW  109   0.394   0.949   1.872  0.4442 -0.2013 -0.4178
   28SOL    HW1  110   0.315   0.906   1.911  2.5004 -1.9814 -1.4776
   28SOL    HW2  111   0.423   0.899   1.795 -2.2643  0.0419  0.1582
   28SOL     MW  112   0.387   0.937   1.867  0.3582 -0.4041 -0.4817
   29SOL     OW  113   0.237   1.459   0.846  0.4097 -0.5296 -0.2153
   29SOL    HW1  114   0.236   1.543   0.886  0.3934  0.7458 -2.1487
   29SOL    HW2  115   0.215   1.467   0.751  0.5368  1.4985 -2.1797
   29SOL     MW  116   0.234   1.471   0.839  0.4243 -0.0937 -0.7296
   30SOL     OW  117   0.911   1.016   1.147 -0.3339 -0.4478 -0.2793
   30SOL    HW1  118   0.830   1.033   1.202 -0.5600  1.7739  0.7499
   30SOL    HW2  119   0.987   1.026   1.209 -0.7700  0.3032  1.0575
   30SOL     MW  120   0.910   1.020   1.162 -0.4213 -0.0556  0.0328
   31SOL     OW  121   0.465   0.248   0.242 -0.3186  0.2437  0.1403
   31SOL    HW1  122   0.471   0.154   0.278 -0.9098  1.2510  1.7657
   31SOL    HW2  123   0.435   0.242   0.146  0.4011  0.4613 -2.6019
   31SOL     MW  124   0.462   0.235   0.234 -0.3017  0.4054 -0.0070
   32SOL     OW  125   2.694   1.047   1.129 -0.0735  0.1543 -0.1258
   32SOL    HW1  126   2.672   0.953   1.131  0.0845 -0.8940  1.1744
   32SOL    HW2  127   2.790   1.049   1.114 -2.4569  1.0668 -0.3057
   32SOL     MW  128   2.704   1.035   1.127 -0.3671  0.1364  0.0220
   33SOL     OW  129   1.763   1.260   0.336 -0.2783 -0.1507 -0.2903
   33SOL    HW1  130   1.757   1.171   0.382  1.6499 -0.3301 -1.1109
   33SOL    HW2  131   1.726   1.328   0.397 -0.7789 -0.4522  2.4529
   33SOL     MW  132   1.757   1.257   0.350 -0.0899 -0.2141 -0.0366
   34SOL     OW  133   1.263   1.865   1.113 -0.3197  0.0369  0.2893
   34SOL    HW1  134   1.171   1.878   1.147  0.2754 -1.1578 -0.3695
   34SOL    HW2  135   1.324   1.881   1.189  1.3891 -1.2608  0.4297
   34SOL     MW  136   1.259   1.869   1.128 -0.0157 -0.2919  0.2209
   35SOL     OW  137   0.367   0.045   1.854  0.2504  0.8235  0.1620
   35SOL    HW1  138   0.406  -0.005   1.928 -1.2855 -3.5951 -0.2563
   35SOL    HW2  139   0.387  -0.009   1.777  2.7387 -1.8045 -0.0399
   35SOL     MW  140   0.375   0.031   1.853  0.3761 -0.1062  0.0802
   36SOL     OW  141   1.899   1.922   0.520  0.4090  0.7325  0.8234
   36SOL    HW1  142   1.930   1.909   0.425 -1.8514  0.0566 -0.4655
   36SOL    HW2  143   1.875   1.832   0.550  2.2352  0.7293  1.4375
   36SOL     MW  144   1.900   1.908   0.511  0.3517  0.6429  0.7344
   37SOL     OW  145   1.755   1.991   0.935 -0.3670 -0.2125 -0.2050
   37SOL    HW1  146   1.705   1.919   0.899 -0.6714  3.2438  0.5632
   37SOL    HW2  147   1.695   2.056   0.992 -0.6634  0.8736  1.5274
   37SOL     MW  148   1.741   1.990   0.938 -0.4463  0.3868  0.1249
   38SOL     OW  149   2.871   0.926   0.220 -0.2787  0.6863 -0.0789
   38SOL    HW1  150   2.905   0.920   0.312 -0.6667 -2.1517 -1.8987
   38SOL    HW2  151   2.935   0.876   0.162  1.1394 -0.5935 -1.0927
   38SOL     MW  152   2.884   0.919   0.225 -0.1428  0.1430 -0.4528
   39SOL     OW  153   1.457   0.684   0.839 -0.1491  0.5213  0.3615
   39SOL    HW1  154   1.423   0.590   0.851  4.2451 -0.7226  3.3135
   39SOL    HW2  155   1.402   0.738   0.902  0.7874 -0.2215  1.2843
   39SOL     MW  156   1.445   0.679   0.849  0.5543  0.2592  0.8727
   40SOL     OW  157   1.295   1.875   0.276 -0.0162 -0.0451  0.1597
   40SOL    HW1  158   1.288   1.794   0.324 -0.4463  0.0439  0.0512
   40SOL    HW2  159   1.309   1.943   0.343 -1.9406 -0.1968 -0.4162
   40SOL     MW  160   1.296   1.873   0.291 -0.3269 -0.0534  0.0694
   41SOL     OW  161   0.594   0.531   1.563 -0.1883 -0.5141 -0.1251
   41SOL    HW1  162   0.665   0.588   1.563 -1.7331 -1.9865  0.8590
   41SOL    HW2  163   0.604   0.476   1.643  0.5533  0.1874  3.7358
   41SOL     MW  164   0.605   0.531   1.573 -0.2943 -0.6158  0.5142
   42SOL     OW  165   1.338   3.077   1.932 -0.3557 -0.5375  0.2840
   42SOL    HW1  166   1.241   3.067   1.957  0.1647  0.6812 -1.9361
   42SOL    HW2  167   1.383   3.008   1.981 -0.3585  2.4366 -0.8964
   42SOL     MW  168   1.331   3.067   1.942 -0.2874  0.0157 -0.1647
   43SOL     OW  169   1.611   0.219   1.595  0.4292  0.6355 -0.0324
   43SOL    HW1  170   1.680   0.157   1.562  1.4994 -0.8091 -0.0549
   43SOL    HW2  171   1.540   0.162   1.641  0.1839  1.0621  1.2870
   43SOL     MW  172   1.611   0.204   1.597  0.5380  0.5012  0.1387
   44SOL     OW  173   1.317   0.758   1.075  0.2156  0.2730  0.0935
   44SOL    HW1  174   1.339   0.853   1.055  1.4306  0.1255 -0.0310
   44SOL    HW2  175   1.325   0.743   1.167  0.8445 -0.6229  0.8747
   44SOL     MW  176   1.321   0.769   1.084  0.4589  0.1353  0.1802
   45SOL     OW  177   1.074   0.751   0.805  0.2789 -0.2925 -0.2921
   45SOL    HW1  178   1.050   0.703   0.883  1.1189 -0.2791  1.1271
   45SOL    HW2  179   1.150   0.699   0.775  4.2680 -3.1831 -1.0984
   45SOL     MW  180   1.081   0.738   0.811  0.9160 -0.6721 -0.2112
   46SOL     OW  181   0.603   1.107   0.600  0.0540  0.0597  0.1023
   46SOL    HW1  182   0.600   1.148   0.509 -0.7887  0.7606 -2.6436
   46SOL    HW2  183   0.683   1.056   0.593 -1.4316  0.4745  0.6262
   46SOL     MW  184   0.613   1.106   0.587 -0.2532  0.2069 -0.1908
   47SOL     OW  185   0.126   1.931   1.831  0.3277  0.1940 -0.2873
   47SOL    HW1  186   0.189   1.873   1.797 -2.4661  0.4406 -0.7453
   47SOL    HW2  187   0.120   1.924   1.927 -0.2775  0.6105  0.7388
   47SOL     MW  188   0.133   1.922   1.839 -0.1208  0.2815 -0.2123
   48SOL     OW  189   1.024   0.658   1.061 -0.7151  0.2672  0.0574
   48SOL    HW1  190   0.952   0.701   1.113 -2.3450  0.8655 -2.5357
   48SOL    HW2  191   1.103   0.719   1.072 -0.9720 -0.3596  1.3274
   48SOL     MW  192   1.025   0.672   1.070 -0.9641  0.2634 -0.1172
   49SOL     OW  193   1.857   0.764   1.597  0.3987 -0.3566  0.2839
   49SOL    HW1  194   1.774   0.738   1.653  0.9093  0.3359  0.7854
   49SOL    HW2  195   1.909   0.680   1.590  0.3629  0.1158 -0.6743
   49SOL     MW  196   1.853   0.749   1.604  0.4614 -0.2029  0.2236
   50SOL     OW  197   1.304   0.991   0.569 -0.3135 -0.4907 -0.7519
   50SOL    HW1  198   1.263   1.035   0.645 -0.1337  0.0020  0.9890
   50SOL    HW2  199   1.323   0.899   0.598  1.1932  4.0195 -0.6000
   50SOL     MW  200   1.301   0.984   0.583 -0.0909  0.1694 -0.5022
   51SOL     OW  201   0.309   2.858   0.909  0.3032 -0.6962  0.4723
   51SOL    HW1  202   0.402   2.838   0.875 -1.4942  2.6883 -2.2174
   51SOL    HW2  203   0.335   2.902   0.993  2.8283  2.1954 -1.3468
   51SOL     MW  204   0.325   2.861   0.916  0.3992  0.1319 -0.1226
   52SOL     OW  205   0.829   1.859   0.396 -0.3790 -0.0912 -0.2379
   52SOL    HW1  206   0.764   1.903   0.447 -0.3947  0.2009 -1.3093
   52SOL    HW2  207   0.773   1.841   0.318 -1.7487 -3.0519 -0.0439
   52SOL     MW  208   0.813   1.863   0.392 -0.5618 -0.4433 -0.3536
   53SOL     OW  209   0.382   2.040   0.602  0.6554 -0.3607 -0.0702
   53SOL    HW1  210   0.344   2.037   0.518  3.6932  0.7163  0.8525
   53SOL    HW2  211   0.389   2.133   0.607  0.3491  4.1338 -1.5626
   53SOL     MW  212   0.378   2.052   0.592  1.0158  0.3744 -0.1454
   54SOL     OW  213   2.210   0.830   0.851  0.1631 -0.3293  0.0272
   54SOL    HW1  214   2.245   0.805   0.762  0.9953  0.6221 -0.6797
   54SOL    HW2  215   2.117   0.838   0.837  0.1150 -0.3855 -0.8278
   54SOL     MW  216   2.202   0.828   0.837  0.2665 -0.2112 -0.1789
   55SOL     OW  217   0.511   1.447   1.549  0.3513  0.0981  0.4573
   55SOL    HW1  218   0.486   1.476   1.463 -0.8955  0.2166  2.2469
   55SOL    HW2  219   0.591   1.394   1.545  2.5205  1.0889 -0.1924
   55SOL     MW  220   0.518   1.444   1.537  0.4730  0.2445  0.6077
   56SOL     OW  221   0.529   0.761   0.100  0.7230 -0.4903 -0.2725
   56SOL    HW1  222   0.541   0.847   0.061  0.1345  1.6262 -0.3936
   56SOL    HW2  223   0.439   0.748   0.081  3.1778  0.9654 -1.0996
   56SOL     MW  224   0.519   0.771   0.093  0.9692 -0.0190 -0.3976
   57SOL     OW  225   1.254   1.203   1.161  0.2152  0.1363  0.7991
   57SOL    HW1  226   1.341   1.231   1.196 -0.0040  0.4985  2.6484
   57SOL    HW2  227   1.220   1.144   1.237 -0.6448 -0.6965  1.6086
   57SOL     MW  228   1.261   1.199   1.176  0.0728  0.0742  1.1499
   58SOL     OW  229   0.700   1.092   1.282 -0.1399  0.1239  0.2802
   58SOL    HW1  230   0.636   1.165   1.265  1.1192 -0.6820  2.2321
   58SOL    HW2  231   0.700   1.076   1.375 -1.2770 -1.5772  0.6133
   58SOL     MW  232   0.692   1.100   1.292 -0.1238 -0.2069  0.5817
   59SOL     OW  233   1.526   1.609   0.272 -0.3285  0.1866  0.2284
   59SOL    HW1  234   1.587   1.549   0.307  0.1868  2.6505 -2.0590
   59SOL    HW2  235   1.459   1.632   0.336 -0.6322  1.5476 -0.5666
   59SOL     MW  236   1.526   1.604   0.285 -0.3006  0.6912 -0.1783
   60SOL     OW  237   3.083   0.167   1.654 -0.2857  0.1523 -0.9900
   60SOL    HW1  238   2.988   0.195   1.653  1.3968  2.0962 -1.9613
   60SOL    HW2  239   3.082   0.083   1.696 -0.9338 -0.3202 -0.0401
   60SOL     MW  240   3.070   0.160   1.659 -0.1492  0.3464 -0.9928
   61SOL     OW  241   2.007   1.491   3.069  0.3907  0.4396  0.0350
   61SOL    HW1  242   2.003   1.464   3.160 -3.0933  2.4815  2.0068
   61SOL    HW2  243   2.042   1.412   3.031  0.5626  3.0909  1.2272
   61SOL     MW  244   2.011   1.477   3.076 -0.0463  1.0588  0.4524
   62SOL     OW  245   0.611   1.643   0.559  0.1340 -0.5215  0.6197
   62SOL    HW1  246   0.663   1.604   0.497 -2.5210  0.2053  1.4682
   62SOL    HW2  247   0.604   1.570   0.621 -1.3215  1.9977  0.0610
   62SOL     MW  248   0.617   1.628   0.559 -0.4083 -0.0932  0.6579
   63SOL     OW  249   1.704   0.720   0.719  0.2536 -0.6046 -0.7442
   63SOL    HW1  250   1.648   0.743   0.646 -0.2784  1.6413 -0.0158
   63SOL    HW2  251   1.638   0.722   0.789 -1.6244 -1.9545 -1.4479
   63SOL     MW  252   1.688   0.724   0.719 -0.0643 -0.4864 -0.7410
   64SOL     OW  253   0.270   1.694   0.992 -0.5460  0.7396 -0.5204
   64SOL    HW1  254   0.348   1.744   0.987 -3.6770 -2.2113  0.0183
   64SOL    HW2  255   0.206   1.767   0.998  1.5011  1.2794  1.4905
   64SOL     MW  256   0.271   1.710   0.992 -0.6890  0.4215 -0.1840
   65SOL     OW  257   1.502   2.223   0.328  0.4607  0.5755 -0.1283
   65SOL    HW1  258   1.584   2.216   0.279  2.6948  3.5405  2.2405
   65SOL    HW2  259   1.530   2.290   0.395 -1.4932 -0.4516 -2.0070
   65SOL     MW  260   1.516   2.231   0.331  0.4977  0.8312 -0.0637
   66SOL     OW  261   0.310   0.601   0.525  0.4880 -0.5067 -0.3380
   66SOL    HW1  262   0.383   0.563   0.485 -0.6962  1.8266  0.1369
   66SOL    HW2  263   0.316   0.697   0.512 -3.3132 -0.5122  2.6543
   66SOL     MW  264   0.320   0.609   0.518 -0.1698 -0.1996  0.1195
   67SOL     OW  265   1.520   0.190   2.038  0.1793  0.1720  0.5002
   67SOL    HW1  266   1.560   0.250   1.969  1.2320  0.8411 -1.5440
   67SOL    HW2  267   1.484   0.111   1.991 -1.3673 -1.1425 -1.5466
   67SOL     MW  268   1.521   0.187   2.022  0.1141  0.0868 -0.0396
   68SOL     OW  269   0.656   0.076   2.989 -0.5264 -0.4306 -0.4238
   68SOL    HW1  270   0.628   0.072   2.897  1.4045 -0.8399  0.3064
   68SOL    HW2  271   0.677   0.174   2.988 -1.3635 -0.5529  0.7465
   68SOL     MW  272   0.655   0.089   2.976 -0.3821 -0.5007 -0.1730
   69SOL     OW  273   1.074   0.185   1.969  0.8347 -0.3032  0.0555
   69SOL    HW1  274   1.154   0.217   2.013  0.7476 -2.1555  3.3950
   69SOL    HW2  275   1.068   0.090   1.975 -0.0315  2.2594  1.9636
   69SOL     MW  276   1.084   0.177   1.975  0.7089 -0.2095  0.7478
   70SOL     OW  277   0.569   1.814   1.137  0.2285  0.5349 -0.0698
   70SOL    HW1  278   0.584   1.721   1.151 -2.0277 -1.0314 -2.4173
   70SOL    HW2  279   0.655   1.846   1.096 -1.3660  0.2952  1.2508
   70SOL     MW  280   0.582   1.806   1.134 -0.2796  0.2966 -0.2053
   71SOL     OW  281   1.768   0.703   1.251 -0.2237 -0.0881 -0.5762
   71SOL    HW1  282   1.738   0.695   1.341 -1.2400  0.1389  0.2366
   71SOL    HW2  283   1.692   0.675   1.199 -2.2244 -0.8141 -1.6266
   71SOL     MW  284   1.754   0.698   1.256 -0.6218 -0.1540 -0.6075
   72SOL     OW  285   0.817   1.823   0.996  0.2310  0.2341 -0.0717
   72SOL    HW1  286   0.829   1.885   0.925  0.4727 -0.4179 -1.3083
   72SOL    HW2  287   0.858   1.742   0.964  0.5402 -1.3029 -0.1453
   72SOL     MW  288   0.824   1.821   0.982  0.3037 -0.0547 -0.2446
   73SOL     OW  289   1.285   0.675   1.342 -0.0430 -0.1765  0.6999
   73SOL    HW1  290   1.250   0.586   1.348  0.2469  0.2715  0.5195
   73SOL    HW2  291   1.210   0.732   1.367 -0.7429 -1.7994 -2.0119
   73SOL     MW  292   1.271   0.671   1.346 -0.0971 -0.3315  0.3183
   74SOL     OW  293   2.754   0.110   1.004 -0.1804  0.2080  0.2546
   74SOL    HW1  294   2.770   0.019   0.995 -0.5498  1.4363 -0.1605
   74SOL    HW2  295   2.797   0.157   0.932  2.7737  0.5878 -0.2860
   74SOL     MW  296   2.762   0.104   0.993  0.1606  0.4202  0.1285
   75SOL     OW  297   1.653   1.290   0.087 -0.5927  0.5487 -0.0770
   75SOL    HW1  298   1.693   1.287   0.176 -0.5428 -0.4367  0.4742
   75SOL    HW2  299   1.653   1.203   0.053 -0.3424  0.8938 -1.2711
   75SOL     MW  300   1.658   1.278   0.094 -0.5531  0.4642 -0.1618
   76SOL     OW  301   2.929   0.661   0.490 -0.3500  0.1471 -0.1315
   76SOL    HW1  302   2.948   0.662   0.583 -1.4442  1.2811  0.7342
   76SOL    HW2  303   3.015   0.633   0.445  0.3661  1.9855 -1.4845
   76SOL     MW  304   2.943   0.657   0.496 -0.3999  0.5393 -0.1958
   77SOL     OW  305   0.894   0.412   0.527 -0.1497 -0.1484 -0.0171
   77SOL    HW1  306   0.840   0.485   0.553  0.1734 -1.2388 -1.2824
   77SOL    HW2  307   0.835   0.335   0.503  0.9634 -0.8427 -0.0361
   77SOL     MW  308   0.879   0.412   0.527  0.0398 -0.3839 -0.1865
   78SOL     OW  309   0.835   0.765   1.206 -0.0051  0.2010 -0.2194
   78SOL    HW1  310   0.742   0.757   1.171 -0.5383  0.3931 -2.0558
   78SOL    HW2  311   0.864   0.853   1.183  2.0718 -1.0025 -2.1149
   78SOL     MW  312   0.826   0.775   1.198  0.1986  0.0676 -0.7118
   79SOL     OW  313   1.837   1.661   0.598 -0.2458 -0.3341 -0.0978
   79SOL    HW1  314   1.782   1.592   0.567  1.2488 -1.8429  0.5006
   79SOL    HW2  315   1.834   1.645   0.690  1.8302 -1.7931 -1.6134
   79SOL     MW  316   1.830   1.649   0.606  0.2253 -0.7257 -0.2188
   80SOL     OW  317   0.156   0.990   0.282  0.4441 -0.3025  0.5882
   80SOL    HW1  318   0.070   0.943   0.305 -1.3248  1.4275  0.1074
   80SOL    HW2  319   0.207   0.934   0.342 -0.6353 -0.3597 -0.8368
   80SOL     MW  320   0.151   0.977   0.293  0.0683 -0.0818  0.3368
   81SOL     OW  321   1.937   1.886   0.249 -0.5004  0.4314 -0.5309
   81SOL    HW1  322   1.882   1.824   0.193 -3.6452 -1.7425  0.6712
   81SOL    HW2  323   1.918   1.972   0.217  0.0972 -2.0781 -0.9323
   81SOL     MW  324   1.927   1.889   0.237 -0.8365 -0.1865 -0.4252
   82SOL     OW  325   0.811   0.948   0.560  0.3305  1.0403  0.0886
   82SOL    HW1  326   0.894   0.933   0.514 -2.8195 -1.6478 -1.6945
   82SOL    HW2  327   0.766   0.868   0.556 -0.0941  0.8194  2.3528
   82SOL     MW  328   0.816   0.935   0.553 -0.1411  0.6565  0.1521
   83SOL     OW  329   0.073   0.636   1.387  0.0755 -0.0603  0.3217
   83SOL    HW1  330   0.102   0.703   1.319 -2.2692  2.6675 -1.7023
   83SOL    HW2  331   0.147   0.587   1.423 -3.1812 -1.4648  1.3509
   83SOL     MW  332   0.087   0.639   1.383 -0.6635  0.1143  0.1904
   84SOL     OW  333   0.050   0.310   1.061  0.5473 -0.0111 -0.2736
   84SOL    HW1  334  -0.024   0.316   0.998 -0.4585 -1.3989  0.8708
   84SOL    HW2  335   0.055   0.216   1.085 -0.5455 -1.4921 -0.7018
   84SOL     MW  336   0.041   0.298   1.056  0.2704 -0.3896 -0.1791
   85SOL     OW  337   0.405   0.424   0.740  0.0002  0.3151  0.2679
   85SOL    HW1  338   0.367   0.477   0.662 -0.3851 -2.3131  1.2226
   85SOL    HW2  339   0.359   0.340   0.750  0.2396 -0.2202  0.3465
   85SOL     MW  340   0.394   0.420   0.731 -0.0190 -0.1023  0.4042
   86SOL     OW  341   1.175   0.434   1.139  0.5724 -0.2835 -0.2345
   86SOL    HW1  342   1.111   0.499   1.101 -1.1564  2.5385 -2.6304
   86SOL    HW2  343   1.134   0.435   1.226  2.2041  1.8582  1.9886
   86SOL     MW  344   1.161   0.443   1.145  0.5596  0.3714 -0.2573
   87SOL     OW  345   1.237   1.459   1.304 -0.6879 -0.0819 -0.3647
   87SOL    HW1  346   1.260   1.496   1.221 -1.0161 -0.2354 -0.0911
   87SOL    HW2  347   1.217   1.370   1.282 -1.9777  1.3242  0.3700
   87SOL     MW  348   1.237   1.452   1.291 -0.9014  0.0833 -0.2316
   88SOL     OW  349   1.378   1.014   1.016 -0.1235 -0.2337 -0.2216
   88SOL    HW1  350   1.469   1.034   1.027 -2.6994  1.5647 -1.1856
   88SOL    HW2  351   1.332   1.077   1.075  0.1318  0.2529  0.1840
   88SOL     MW  352   1.384   1.025   1.025 -0.4297  0.0678 -0.2953
   89SOL     OW  353   1.769   0.575   0.280 -0.5096 -0.0089  0.7329
   89SOL    HW1  354   1.819   0.499   0.316 -1.4397  0.8932 -0.9139
   89SOL    HW2  355   1.830   0.626   0.224  0.0224  0.7926 -0.7126
   89SOL     MW  356   1.784   0.572   0.278 -0.5621  0.2159  0.3249
   90SOL     OW  357   0.681   1.226   2.807 -0.7529 -0.6709 -0.4720
   90SOL    HW1  358   0.750   1.176   2.766  1.8239  0.9932  0.5627
   90SOL    HW2  359   0.702   1.215   2.896 -1.3529  0.4302 -2.4293
   90SOL     MW  360   0.693   1.218   2.813 -0.4921 -0.3060 -0.5937
   91SOL     OW  361   2.053   0.719   0.487  0.0335 -0.2355 -0.0479
   91SOL    HW1  362   2.034   0.799   0.441  0.1718  0.2389  2.9158
   91SOL    HW2  363   1.987   0.657   0.469  4.3041 -2.6023 -0.4648
   91SOL     MW  364   2.042   0.722   0.478  0.6152 -0.4852  0.2881
   92SOL     OW  365   1.628   0.793   0.459 -0.5922  0.6287  0.1221
   92SOL    HW1  366   1.533   0.783   0.480 -2.5552 -1.0429 -0.4758
   92SOL    HW2  367   1.647   0.713   0.404 -1.0043  0.3171  1.6179
   92SOL     MW  368   1.618   0.781   0.454 -0.9056  0.3670  0.2405
   93SOL     OW  369   1.048   0.242   0.330  0.4964  0.2157 -0.4970
   93SOL    HW1  370   1.004   0.311   0.378 -0.2664 -0.3077 -1.8060
   93SOL    HW2  371   1.079   0.276   0.246  0.9929  1.0138  2.0053
   93SOL     MW  372   1.046   0.256   0.326  0.4613  0.2519 -0.3395
   94SOL     OW  373   1.941   1.267   1.653 -0.3823  0.5805 -0.4853
   94SOL    HW1  374   1.908   1.318   1.580  1.5901 -0.8385 -0.6492
   94SOL    HW2  375   1.899   1.179   1.663  0.8997  1.5831 -2.3037
   94SOL     MW  376   1.931   1.262   1.645  0.0471  0.5256 -0.7469
   95SOL     OW  377   0.901   1.543   0.982 -0.8246 -0.4592 -0.4536
   95SOL    HW1  378   0.950   1.482   1.029  0.3309 -0.2041  1.2244
   95SOL    HW2  379   0.810   1.520   1.011  1.0073  0.5773  0.2285
   95SOL     MW  380   0.896   1.532   0.992 -0.4304 -0.2888 -0.1422
   96SOL     OW  381   1.269   1.790   1.599 -0.4108  0.1967 -0.9597
   96SOL    HW1  382   1.188   1.772   1.652 -1.2676 -0.5811  3.0466
   96SOL    HW2  383   1.299   1.706   1.559  2.9404  2.7959 -0.3161
   96SOL     MW  384   1.262   1.777   1.601 -0.0817  0.4370 -0.3462
   97SOL     OW  385   1.262   1.449   0.839 -0.2640 -0.1739  0.4854
   97SOL    HW1  386   1.282   1.496   0.919 -1.2604 -3.3685 -1.1574
   97SOL    HW2  387   1.182   1.492   0.807  0.6244  0.0390 -1.3463
   97SOL     MW  388   1.254   1.461   0.845 -0.2782 -0.5673  0.0270
   98SOL     OW  389   1.506   1.304   1.183 -0.5112  0.1689  0.2901
   98SOL    HW1  390   1.533   1.385   1.225  0.0578  1.5006 -1.1064
   98SOL    HW2  391   1.546   1.307   1.095 -0.4535  1.1429  0.1084
   98SOL     MW  392   1.515   1.315   1.177 -0.4285  0.4731  0.0819
   99SOL     OW  393   1.525   0.300   1.268 -0.4466  0.1397  0.5485
   99SOL    HW1  394   1.516   0.390   1.243  1.1421 -2.7433  4.3387
   99SOL    HW2  395   1.529   0.304   1.359  0.1122 -0.7337  1.3429
   99SOL     MW  396   1.524   0.313   1.277 -0.1633 -0.3559  1.1534
  100SOL     OW  397   1.112   1.060   1.333 -0.1062  0.5940 -0.4182
  100SOL    HW1  398   1.057   1.108   1.397 -1.7368 -1.7222 -0.4044
  100SOL    HW2  399   1.119   0.971   1.377 -0.1101  1.3951 -0.8346
  100SOL     MW  400   1.106   1.054   1.348 -0.3219  0.3941 -0.4713
  101SOL     OW  401   0.609   1.179   0.326 -0.0601 -0.0506 -0.0902
  101SOL    HW1  402   0.600   1.080   0.330 -0.1389 -0.3800  0.3879
  101SOL    HW2  403   0.600   1.197   0.234 -2.4215 -0.0672 -0.8920
  101SOL     MW  404   0.607   1.168   0.315 -0.3821 -0.0963 -0.1329
  102SOL     OW  405   2.956   0.583   0.979 -0.1401 -0.0162  0.2604
  102SOL    HW1  406   3.031   0.634   0.957  1.2167  3.0233 -0.3852
  102SOL    HW2  407   2.971   0.548   1.072 -1.2498  1.6495 -0.8312
  102SOL     MW  408   2.968   0.585   0.988 -0.1075  0.6046  0.0312
  103SOL     OW  409   1.604   0.367   1.815 -0.3524 -0.1920  0.7592
  103SOL    HW1  410   1.592   0.312   1.734 -0.5574 -3.7443 -1.1699
  103SOL    HW2  411   1.687   0.350   1.858 -1.0133  0.8446 -0.3328
  103SOL     MW  412   1.613   0.358   1.810 -0.4666 -0.5240  0.3606
  104SOL     OW  413   0.114   1.829   1.453 -0.0056  0.2905 -0.9061
  104SOL    HW1  414   0.193   1.772   1.447  0.1394  0.4416  0.6520
  104SOL    HW2  415   0.053   1.774   1.514 -1.6160 -2.3732 -2.7629
  104SOL     MW  416   0.116   1.815   1.461 -0.1990 -0.0410 -0.9456
  105SOL     OW  417   0.148   1.150   0.510  0.0722 -0.5670  0.9255
  105SOL    HW1  418   0.180   1.100   0.431 -0.6630 -0.8891 -0.1231
  105SOL    HW2  419   0.214   1.218   0.518  1.2907 -2.3174 -2.1815
  105SOL     MW  420   0.161   1.152   0.500  0.1359 -0.8404  0.3772
  106SOL     OW  421   0.850   0.309   0.942 -0.7888 -0.2433  0.2497
  106SOL    HW1  422   0.795   0.375   0.903 -0.5273 -1.4318 -0.6076
  106SOL    HW2  423   0.944   0.335   0.917  0.2973  1.4544 -1.5911
  106SOL     MW  424   0.855   0.321   0.933 -0.6110 -0.1761 -0.1063
  107SOL     OW  425   0.796   2.222   3.052  0.1393 -0.3209 -0.2489
  107SOL    HW1  426   0.760   2.144   3.012 -0.0041  0.4504 -0.2069
  107SOL    HW2  427   0.891   2.216   3.057 -0.5211 -0.6857 -0.9441
  107SOL     MW  428   0.803   2.211   3.047  0.0332 -0.2672 -0.3351
  108SOL     OW  429   1.405   1.591   1.503 -0.1233  0.0627 -0.9976
  108SOL    HW1  430   1.372   1.528   1.434 -0.1003 -1.2801 -0.7107
  108SOL    HW2  431   1.442   1.547   1.582  3.3662 -0.2630  2.1458
  108SOL     MW  432   1.406   1.577   1.504  0.3401 -0.1574 -0.5450
  109SOL     OW  433   1.952   0.735   0.175  0.2407  0.6026  1.2640
  109SOL    HW1  434   1.960   0.747   0.081  3.2247 -0.5060 -2.1184
  109SOL    HW2  435   2.015   0.790   0.218 -0.8653  0.4226  1.7741
  109SOL     MW  436   1.961   0.744   0.168  0.4885  0.4326  0.8850
  110SOL     OW  437   0.392   1.791   0.713 -0.0833  0.3335 -0.3728
  110SOL    HW1  438   0.465   1.742   0.679  0.4772 -0.4275  0.8778
  110SOL    HW2  439   0.380   1.857   0.649  1.1260 -1.3041  0.3918
  110SOL     MW  440   0.400   1.793   0.700  0.1502  0.0170 -0.1069
  111SOL     OW  441   0.723   0.912   1.504  0.4485 -0.3417 -0.3614
  111SOL    HW1  442   0.778   0.831   1.497 -1.7353 -0.4659 -1.1221
  111SOL    HW2  443   0.636   0.883   1.520  0.4647 -1.3793  0.8168
  111SOL     MW  444   0.719   0.898   1.505  0.1625 -0.4950 -0.3063
  112SOL     OW  445   1.299   1.105   1.619  0.3508 -0.0093  0.2649
  112SOL    HW1  446   1.212   1.154   1.639 -0.4571  0.1219  1.2709
  112SOL    HW2  447   1.275   1.014   1.637 -2.1961 -2.6529 -2.0361
  112SOL     MW  448   1.285   1.100   1.624 -0.0918 -0.3408  0.0941
  113SOL     OW  449   1.375   0.087   1.692 -0.5852 -0.2722 -0.1094
  113SOL    HW1  450   1.364   0.037   1.775  0.1081  1.4144 -1.4751
  113SOL    HW2  451   1.360   0.021   1.627  2.3617  2.7480  2.3450
  113SOL     MW  452   1.372   0.072   1.695 -0.1049  0.3488  0.0343
  114SOL     OW  453   0.441   2.814   1.860 -0.1937 -0.1649 -0.1096
  114SOL    HW1  454   0.426   2.861   1.942  1.1183  1.2089  0.2613
  114SOL    HW2  455   0.433   2.876   1.791  0.0510 -0.5751 -1.1384
  114SOL     MW  456   0.438   2.828   1.861  0.0117 -0.0378 -0.1964
  115SOL     OW  457   0.433   0.848   1.093  0.6614 -0.1355  0.0399
  115SOL    HW1  458   0.475   0.764   1.100 -0.5462  0.9606  1.5596
  115SOL    HW2  459   0.386   0.863   1.175  1.5425  0.7648  0.2821
  115SOL     MW  460   0.432   0.839   1.105  0.6183  0.1279  0.2723
  116SOL     OW  461   0.793   1.007   0.906 -0.9369  0.0428  0.5974
  116SOL    HW1  462   0.832   1.071   0.841  0.1850 -0.3046  1.4443
  116SOL    HW2  463   0.850   0.994   0.980  0.3219  0.5804  1.0439
  116SOL     MW  464   0.806   1.013   0.907 -0.6228  0.0679  0.7680
  117SOL     OW  465   1.198   1.116   0.787 -0.2898  0.2598 -0.1361
  117SOL    HW1  466   1.221   1.074   0.872 -0.8236  1.1022 -4.6601
  117SOL    HW2  467   1.203   1.210   0.794  0.4353 -1.9578 -0.3467
  117SOL     MW  468   1.202   1.123   0.799 -0.2646  0.0784 -0.7608
  118SOL     OW  469   3.087   2.962   1.711  0.1030 -0.4654 -0.0649
  118SOL    HW1  470   3.118   3.010   1.794  1.2772 -0.7003 -0.6493
  118SOL    HW2  471   2.988   2.972   1.722  0.8954  2.0745 -0.2727
  118SOL     MW  472   3.078   2.970   1.724  0.3625 -0.1613 -0.1694
  119SOL     OW  473   0.537   1.306   1.215  0.5533  0.2567 -0.4889
  119SOL    HW1  474   0.524   1.337   1.121  0.1461 -0.0278  1.2440
  119SOL    HW2  475   0.450   1.279   1.244  1.7612  0.5190 -3.3868
  119SOL     MW  476   0.524   1.306   1.207  0.6590  0.2538 -0.6426
  120SOL     OW  477   0.208   0.645   0.938  0.1096  0.6681 -0.2419
  120SOL    HW1  478   0.258   0.574   0.984  3.5273  0.5813  0.8663
  120SOL    HW2  479   0.244   0.725   0.968  0.7750  1.5188 -1.4423
  120SOL     MW  480   0.220   0.646   0.948  0.6483  0.7689 -0.2540
  121SOL     OW  481   1.767   1.041   1.722  0.2787 -0.4389 -0.1818
  121SOL    HW1  482   1.693   1.033   1.662  1.9100 -0.2519  2.1895
  121SOL    HW2  483   1.830   0.967   1.710 -1.3132  1.2881 -3.0981
  121SOL     MW  484   1.765   1.030   1.713  0.2839 -0.1864 -0.2537
  122SOL     OW  485   0.097   0.519   0.714  0.1985 -0.2894  0.3383
  122SOL    HW1  486   0.161   0.544   0.648 -1.1431  3.7486  0.3542
  122SOL    HW2  487   0.139   0.547   0.797  1.5264 -0.5825  0.4999
  122SOL     MW  488   0.111   0.526   0.716  0.1967  0.2047  0.3617
  123SOL     OW  489   1.798   1.017   0.467  0.3892 -0.0068 -0.1490
  123SOL    HW1  490   1.753   0.934   0.452  2.2694  0.0288 -0.8020
  123SOL    HW2  491   1.797   1.025   0.563 -2.6284 -0.5287  1.6674
  123SOL     MW  492   1.792   1.007   0.478  0.2391 -0.0710  0.0045
  124SOL     OW  493   0.666   0.502   0.817  0.0885  0.0928  0.0016
  124SOL    HW1  494   0.589   0.465   0.773  1.9633 -1.3666 -0.0486
  124SOL    HW2  495   0.654   0.595   0.794  0.4916 -1.5829 -0.0768
  124SOL     MW  496   0.654   0.510   0.808  0.3891 -0.3208 -0.0154
  125SOL     OW  497   0.697   1.673   1.661  0.2647 -0.4927 -0.7148
  125SOL    HW1  498   0.626   1.622   1.614  2.3935  2.1635  0.9093
  125SOL    HW2  499   0.657   1.756   1.682 -0.1504 -0.4370  1.7602
  125SOL     MW  500   0.682   1.677   1.658  0.4908 -0.1349 -0.1740
  126SOL     OW  501   2.123   1.613   1.980  0.4144  0.1048 -0.9325
  126SOL    HW1  502   2.172   1.696   1.959  0.2247  0.9249 -2.0502
  126SOL    HW2  503   2.190   1.548   2.000 -2.0993  0.5226 -2.6171
  126SOL     MW  504   2.139   1.616   1.980  0.0577  0.2682 -1.3022
  127SOL     OW  505   0.603   0.734   1.900 -0.2427 -0.1354 -0.0986
  127SOL    HW1  506   0.676   0.690   1.943  1.2056 -1.4384  0.9113
  127SOL    HW2  507   0.598   0.823   1.943  0.3821  3.1145  0.2534
  127SOL     MW  508   0.612   0.740   1.911  0.0309  0.1214  0.0811
  128SOL     OW  509   1.748   0.749   2.871 -0.0558 -0.2674  0.0537
  128SOL    HW1  510   1.793   0.707   2.800  0.1535 -0.3901  2.3534
  128SOL    HW2  511   1.734   0.841   2.839  1.9985  0.5138  3.3452
  128SOL     MW  512   1.752   0.756   2.858  0.2428 -0.1805  0.7914
  129SOL     OW  513   1.480   0.956   0.201 -0.2199  0.3713 -0.0501
  129SOL    HW1  514   1.452   0.865   0.177  1.2677  0.1490 -3.0650
  129SOL    HW2  515   1.501   0.936   0.290 -2.4080 -0.2396 -0.4540
  129SOL     MW  516   1.479   0.941   0.210 -0.3123  0.2614 -0.5012
  130SOL     OW  517   0.757   1.500   0.360  0.0252 -0.0502 -0.3804
  130SOL    HW1  518   0.803   1.441   0.415  0.1028 -2.1663  0.7267
  130SOL    HW2  519   0.834   1.534   0.302  1.1217 -0.8893 -0.0115
  130SOL     MW  520   0.773   1.497   0.360  0.1801 -0.4401 -0.1856
  131SOL     OW  521   3.042   0.797   0.060 -0.5981 -0.6422  0.0264
  131SOL    HW1  522   3.034   0.832  -0.036  0.5438  1.4632 -0.5436
  131SOL    HW2  523   3.136   0.804   0.081  2.7992 -0.4819  1.5487
  131SOL     MW  524   3.053   0.802   0.050  0.0008 -0.3433  0.1520
  132SOL     OW  525   2.703   0.170   1.268  0.6035  0.0716  0.2593
  132SOL    HW1  526   2.728   0.172   1.174  0.7595  0.2424 -0.3940
  132SOL    HW2  527   2.613   0.129   1.268  0.3754 -0.1284 -0.4397
  132SOL     MW  528   2.695   0.165   1.256  0.5940  0.0678  0.0809
  133SOL     OW  529   1.112   0.220   1.707  0.2260 -0.3618 -0.3239
  133SOL    HW1  530   1.184   0.166   1.674 -0.0186  1.5169 -2.3618
  133SOL    HW2  531   1.116   0.223   1.804  2.3931  1.5693  0.0552
  133SOL     MW  532   1.122   0.213   1.716  0.4797  0.1409 -0.5428
  134SOL     OW  533   1.353   2.499   1.415 -0.2617  0.1801  0.0146
  134SOL    HW1  534   1.301   2.573   1.422 -0.6667 -1.8335 -1.3766
  134SOL    HW2  535   1.415   2.511   1.488 -2.8577 -2.1118 -1.7502
  134SOL     MW  536   1.354   2.510   1.426 -0.6576 -0.3880 -0.4018
  135SOL     OW  537   3.050   0.977   2.945 -0.2989 -0.1944  0.7994
  135SOL    HW1  538   3.118   1.051   2.931 -0.5022  1.7875 -0.9521
  135SOL    HW2  539   2.965   1.031   2.969 -3.1250 -2.2341  1.8087
  135SOL     MW  540   3.047   0.994   2.946 -0.6986 -0.2021  0.7015
  136SOL     OW  541   0.256   2.007   0.882 -0.9841 -0.9502 -0.8816
  136SOL    HW1  542   0.170   1.962   0.895  0.9529  0.3749  2.9007
  136SOL    HW2  543   0.308   1.946   0.824  4.4416 -1.8685 -1.5076
  136SOL     MW  544   0.251   1.993   0.876 -0.0127 -0.8966 -0.4652
  137SOL     OW  545   0.656   2.005   0.574  0.2016 -0.5345 -0.1249
  137SOL    HW1  546   0.703   2.027   0.654  2.2019  0.9087 -2.3981
  137SOL    HW2  547   0.561   1.998   0.601 -2.2358 -0.8638 -0.4502
  137SOL     MW  548   0.650   2.007   0.588  0.1439 -0.3875 -0.4677
  138SOL     OW  549   0.552   0.603   1.055 -0.2795  0.0252 -0.0361
  138SOL    HW1  550   0.473   0.549   1.069  0.8300  1.6720 -3.7708
  138SOL    HW2  551   0.588   0.574   0.974 -2.6300 -0.9349  0.8683
  138SOL     MW  552   0.546   0.592   1.047 -0.4432  0.1158 -0.4095
  139SOL     OW  553   2.764   0.522   1.410 -0.3909 -0.0685 -0.0143
  139SOL    HW1  554   2.811   0.441   1.419  1.2811 -0.0936 -1.4572
  139SOL    HW2  555   2.828   0.596   1.446  1.6666 -1.7195  0.3655
  139SOL     MW  556   2.779   0.521   1.416  0.1011 -0.2896 -0.1546
  140SOL     OW  557   0.864   0.309   2.125 -0.4343  0.1502  0.3461
  140SOL    HW1  558   0.907   0.254   2.058  0.7048  2.1587 -0.3958
  140SOL    HW2  559   0.939   0.304   2.193  4.9474 -1.5778  2.4422
  140SOL     MW  560   0.880   0.301   2.125  0.4261  0.1872  0.5247
  141SOL     OW  561   1.015   0.614   1.765  0.3713 -0.5107 -0.2771
  141SOL    HW1  562   1.072   0.539   1.728 -2.2118 -1.6470  1.6250
  141SOL    HW2  563   1.070   0.691   1.774 -2.0265 -1.2165  0.2966
  141SOL     MW  564   1.030   0.614   1.761 -0.2859 -0.7538  0.0495
  142SOL     OW  565   0.929   1.149   0.719  0.1384 -0.3812  0.1701
  142SOL    HW1  566   0.899   1.078   0.667 -1.0082  1.2049  0.3073
  142SOL    HW2  567   1.010   1.121   0.769 -1.1623  1.0414 -0.2007
  142SOL     MW  568   0.936   1.136   0.719 -0.1845  0.0158  0.1393
  143SOL     OW  569   1.879   0.924   1.125  0.0830  0.0808 -0.3780
  143SOL    HW1  570   1.898   0.900   1.036 -1.0398 -0.7511 -0.1845
  143SOL    HW2  571   1.844   0.844   1.167 -1.5914  0.4016  1.0929
  143SOL     MW  572   1.877   0.910   1.118 -0.2861  0.0134 -0.1584
  144SOL     OW  573   0.142   1.167   1.557 -0.2450  0.0595 -0.1592
  144SOL    HW1  574   0.228   1.129   1.532  1.0413  2.1388  1.1755
  144SOL    HW2  575   0.152   1.173   1.653 -2.0425  2.9752  0.3526
  144SOL     MW  576   0.154   1.162   1.566 -0.3124  0.7185  0.0844
  145SOL     OW  577   0.271   0.456   1.147  0.5263  0.0251 -0.2463
  145SOL    HW1  578   0.310   0.396   1.207 -3.3616  0.2131  1.3675
  145SOL    HW2  579   0.202   0.404   1.113 -1.3545 -1.8877 -0.2858
  145SOL     MW  580   0.267   0.441   1.151 -0.2348 -0.2024 -0.0386
  146SOL     OW  581   0.884   1.902   1.392  0.4009  0.0997  0.7241
  146SOL    HW1  582   0.921   1.933   1.297  1.2369 -1.3479  0.0594
  146SOL    HW2  583   0.791   1.927   1.393  0.7481 -0.8608 -2.2318
  146SOL     MW  584   0.877   1.909   1.380  0.5570 -0.2180  0.2464
  147SOL     OW  585   0.408   0.434   2.855 -0.1418  0.4018  0.0992
  147SOL    HW1  586   0.365   0.444   2.937  5.5109  0.5223 -0.7757
  147SOL    HW2  587   0.365   0.496   2.802 -0.5598  0.9605  1.4961
  147SOL     MW  588   0.397   0.444   2.859  0.5489  0.4914  0.1681
  148SOL     OW  589   0.028   0.923   1.290  0.3238  0.5655  0.1287
  148SOL    HW1  590   0.120   0.945   1.294  0.6311 -3.1790 -0.6590
  148SOL    HW2  591   0.005   0.902   1.377 -1.3256  1.9176  2.0568
  148SOL     MW  592   0.037   0.923   1.302  0.1467  0.2499  0.2792
  149SOL     OW  593   1.431   1.116   1.371 -0.7317  0.6306 -0.1878
  149SOL    HW1  594   1.386   1.130   1.460  0.7481 -0.6388  0.5629
  149SOL    HW2  595   1.506   1.174   1.368  1.6225 -1.5796  1.0111
  149SOL     MW  596   1.435   1.126   1.382 -0.2258  0.1715  0.0694
  150SOL     OW  597   1.825   1.351   0.735 -0.0889 -0.0719  0.3418
  150SOL    HW1  598   1.855   1.258   0.725 -0.1490 -0.6853 -2.0986
  150SOL    HW2  599   1.889   1.372   0.799  1.5171 -1.2169  0.0215
  150SOL     MW  600   1.837   1.341   0.742  0.1151 -0.3039 -0.0225
  151SOL     OW  601   1.606   1.784   0.825  0.1169  0.1567  0.4538
  151SOL    HW1  602   1.575   1.800   0.737  0.9850 -0.9376 -0.5857
  151SOL    HW2  603   1.553   1.724   0.874  2.6365 -0.8851  1.5348
  151SOL     MW  604   1.595   1.778   0.820  0.5639 -0.1251  0.4593
  152SOL     OW  605   0.761   1.326   1.542  0.2352 -0.0301  0.2944
  152SOL    HW1  606   0.786   1.238   1.554 -1.4191  2.1872  1.3648
  152SOL    HW2  607   0.840   1.377   1.518  2.4485  1.5275 -1.9889
  152SOL     MW  608   0.775   1.321   1.540  0.3090  0.4680  0.1344
  153SOL     OW  609   2.663   1.223   0.697 -0.0466 -0.0295 -0.6071
  153SOL    HW1  610   2.715   1.201   0.620 -2.3532  0.8372  0.7810
  153SOL    HW2  611   2.614   1.144   0.709  2.0491  3.1443 -1.3166
  153SOL     MW  612   2.664   1.209   0.689 -0.0745  0.5036 -0.5176
  154SOL     OW  613   0.322   1.771   1.715  0.0307  0.1049 -0.5015
  154SOL    HW1  614   0.296   1.733   1.632  1.0587  0.9983  2.6660
  154SOL    HW2  615   0.352   1.692   1.762  0.1515  0.8959  1.1307
  154SOL     MW  616   0.322   1.755   1.710  0.1823  0.3272  0.1318
  155SOL     OW  617   1.101   0.739   0.245  0.1553 -0.3651  0.3877
  155SOL    HW1  618   1.112   0.688   0.329 -0.3543 -1.6753  0.7402
  155SOL    HW2  619   1.081   0.827   0.282 -1.3977  0.3620 -1.0514
  155SOL     MW  620   1.100   0.744   0.261 -0.1168 -0.4420  0.2443
  156SOL     OW  621   1.544   3.085   1.025 -1.0217 -0.3704  0.4501
  156SOL    HW1  622   1.600   3.169   1.020  1.4807  0.2848 -3.3136
  156SOL    HW2  623   1.560   3.041   1.109  0.4217  1.3110  0.6391
  156SOL     MW  624   1.554   3.091   1.035 -0.5011 -0.0621 -0.0216
  157SOL     OW  625   1.407   1.194   0.125 -0.2467  0.4273  0.0736
  157SOL    HW1  626   1.434   1.102   0.153 -0.0770 -2.8256  1.0985
  157SOL    HW2  627   1.488   1.248   0.116 -0.7478  1.6744 -2.1970
  157SOL     MW  628   1.421   1.189   0.128 -0.2904  0.1626 -0.0907
  158SOL     OW  629   0.403   1.653   2.299 -0.1211 -0.1395 -0.3233
  158SOL    HW1  630   0.374   1.689   2.216 -3.2410 -0.5284  0.1340
  158SOL    HW2  631   0.332   1.596   2.339 -1.3177 -0.1945 -1.7852
  158SOL     MW  632   0.390   1.650   2.293 -0.6906 -0.1980 -0.4558
  159SOL     OW  633   1.294   1.661   0.435  0.3368 -0.2891  0.0128
  159SOL    HW1  634   1.267   1.594   0.379  0.9671  2.6428 -0.2264
  159SOL    HW2  635   1.216   1.695   0.484 -1.1183 -1.6820  1.0611
  159SOL     MW  636   1.280   1.657   0.434  0.2280 -0.0861  0.1196
  160SOL     OW  637   0.433   1.068   1.558  0.5181  0.1969 -0.4412
  160SOL    HW1  638   0.462   0.988   1.604  0.1813  1.9444  0.3788
  160SOL    HW2  639   0.469   1.136   1.616 -1.4956  0.3434  0.2245
  160SOL     MW  640   0.442   1.066   1.572  0.2080  0.4468 -0.2452
  161SOL     OW  641   0.597   2.115   2.702  0.2809 -0.0219 -0.1382
  161SOL    HW1  642   0.532   2.150   2.761 -1.2157 -1.2448 -0.8107
  161SOL    HW2  643   0.545   2.070   2.630 -0.0186  1.1999  1.3333
  161SOL     MW  644   0.582   2.114   2.700  0.0439 -0.0220 -0.0328
  162SOL     OW  645   1.034   1.718   1.830  0.4469 -0.2508 -0.1561
  162SOL    HW1  646   1.043   1.807   1.875  0.1812 -1.8600 -2.1492
  162SOL    HW2  647   0.937   1.704   1.841 -3.0775  4.0836 -0.0765
  162SOL     MW  648   1.022   1.728   1.838 -0.0532  0.1088 -0.4085
  163SOL     OW  649   2.141   0.139   0.985 -0.3999  0.4755 -0.1076
  163SOL    HW1  650   2.121   0.153   0.890 -0.3792  0.2176  1.6421
  163SOL    HW2  651   2.090   0.062   1.004  1.1015 -0.7089 -1.6004
  163SOL     MW  652   2.132   0.131   0.975 -0.1990  0.2852 -0.0737
  164SOL     OW  653   0.274   0.194   0.824 -0.8568  0.1564 -0.4491
  164SOL    HW1  654   0.207   0.227   0.885  2.6976  0.7985 -1.0101
  164SOL    HW2  655   0.242   0.109   0.791 -2.0866 -1.0485  2.2273
  164SOL     MW  656   0.261   0.187   0.828 -0.5501  0.0822 -0.1700
  165SOL     OW  657   1.374   1.220   0.422 -0.1395  0.1593 -0.2465
  165SOL    HW1  658   1.373   1.141   0.475 -0.4316  1.0519 -0.5737
  165SOL    HW2  659   1.348   1.188   0.335  1.3075  0.9937  0.9275
  165SOL     MW  660   1.370   1.205   0.417  0.0129  0.3872 -0.1347
  166SOL     OW  661   0.527   1.090   0.965  0.1577 -0.5093  0.0934
  166SOL    HW1  662   0.511   1.011   1.021 -0.7017 -0.2700  0.1200
  166SOL    HW2  663   0.624   1.080   0.943 -2.3751  1.5346 -4.3549
  166SOL     MW  664   0.538   1.078   0.970 -0.2899 -0.2081 -0.4900
  167SOL     OW  665   0.926   1.154   0.278 -0.0456 -0.2100 -0.5870
  167SOL    HW1  666   0.838   1.192   0.306 -1.9799  0.1647 -2.4024
  167SOL    HW2  667   0.932   1.160   0.184 -1.9176 -0.8733  0.3150
  167SOL     MW  668   0.915   1.160   0.270 -0.5478 -0.2481 -0.7075
  168SOL     OW  669   1.691   1.763   2.889  0.4061  0.1648 -0.1094
  168SOL    HW1  670   1.646   1.833   2.943 -0.2603 -1.0846 -1.1732
  168SOL    HW2  671   1.653   1.675   2.914  0.7965 -2.7599 -0.7310
  168SOL     MW  672   1.680   1.760   2.899  0.3697 -0.3859 -0.3318
  169SOL     OW  673   0.324   0.930   1.320 -0.2449 -0.7711  0.2435
  169SOL    HW1  674   0.347   0.932   1.409 -0.5220  0.8523 -1.2488
  169SOL    HW2  675   0.335   1.020   1.285 -0.9807  1.8844 -0.0735
  169SOL     MW  676   0.328   0.942   1.327 -0.3786 -0.2065  0.0048
  170SOL     OW  677   1.016   1.462   1.499  0.2822 -0.1035 -0.1340
  170SOL    HW1  678   0.968   1.546   1.479  0.8985  0.8892 -3.4547
  170SOL    HW2  679   1.088   1.466   1.438 -1.0937 -0.9403  2.4536
  170SOL     MW  680   1.019   1.474   1.488  0.1820 -0.0829 -0.2307
  171SOL     OW  681   0.598   1.398   0.717 -0.1659 -0.0398 -0.0480
  171SOL    HW1  682   0.562   1.406   0.806  0.2079  0.4386  2.1610
  171SOL    HW2  683   0.566   1.316   0.686  0.9638  1.7290 -1.5068
  171SOL     MW  684   0.589   1.389   0.724  0.0325  0.2567  0.0510
  172SOL     OW  685   0.836   0.329   1.217 -0.0315 -0.2232 -0.1353
  172SOL    HW1  686   0.836   0.316   1.123 -1.3158 -1.7826 -0.9073
  172SOL    HW2  687   0.752   0.365   1.239  3.0512 -1.1118  0.1005
  172SOL     MW  688   0.825   0.332   1.207  0.2058 -0.5462 -0.2061
  173SOL     OW  689   0.450   1.683   0.328  0.3255 -0.1673 -0.3658
  173SOL    HW1  690   0.441   1.591   0.317  0.7719 -1.0086 -2.0636
  173SOL    HW2  691   0.500   1.680   0.411 -1.1479 -0.5998  0.5575
  173SOL     MW  692   0.455   1.670   0.338  0.1900 -0.3353 -0.4680
  174SOL     OW  693   2.035   0.974   1.528  0.0045 -0.5051  0.1393
  174SOL    HW1  694   1.971   0.907   1.561 -2.4242 -0.4763 -0.3983
  174SOL    HW2  695   1.976   1.039   1.476  0.4844  2.1924  0.9014
  174SOL     MW  696   2.018   0.974   1.526 -0.2526 -0.1453  0.1689
  175SOL     OW  697   0.416   1.379   0.364  0.3549  0.8019  0.0012
  175SOL    HW1  698   0.391   1.373   0.270 -1.7532  0.5893 -1.8509
  175SOL    HW2  699   0.497   1.318   0.364  2.3011  0.7996  0.7055
  175SOL     MW  700   0.424   1.370   0.351  0.3336  0.7735 -0.1502
  176SOL     OW  701   0.289   1.220   1.264  0.2468  0.1242  0.2068
  176SOL    HW1  702   0.261   1.248   1.177  2.1492  1.4736 -1.1027
  176SOL    HW2  703   0.254   1.278   1.320  0.1500 -0.5255 -1.2511
  176SOL     MW  704   0.281   1.231   1.260  0.4851  0.2165 -0.1583
  177SOL     OW  705   0.601   0.457   1.317  0.3311  0.3200  0.5930
  177SOL    HW1  706   0.616   0.535   1.274 -1.9921  0.9758  0.8794
  177SOL    HW2  707   0.606   0.483   1.410  0.8400 -0.9433  0.0295
  177SOL     MW  708   0.604   0.471   1.324  0.0917  0.2398  0.5564
  178SOL     OW  709   3.101   0.446   2.967 -0.2291 -0.1663 -0.3851
  178SOL    HW1  710   3.053   0.465   3.049  1.4977 -0.2233 -2.3523
  178SOL    HW2  711   3.054   0.492   2.893  1.2475  2.5342 -1.4894
  178SOL     MW  712   3.088   0.454   2.968  0.1936  0.1825 -0.7903
  179SOL     OW  713   1.628   1.327   1.479 -0.4751  0.0001  0.2729
  179SOL    HW1  714   1.626   1.371   1.566 -1.4596  1.0405  3.1663
  179SOL    HW2  715   1.718   1.299   1.459  0.2674  2.2227  2.3929
  179SOL     MW  716   1.639   1.330   1.488 -0.5071  0.4306  0.9344
  180SOL     OW  717   3.025   0.267   0.483  0.0820 -0.0890  0.2511
  180SOL    HW1  718   2.977   0.282   0.393  0.6871 -0.9647 -1.5842
  180SOL    HW2  719   3.096   0.337   0.478  2.0682 -0.2373  1.2167
  180SOL     MW  720   3.028   0.278   0.471  0.4239 -0.2241  0.1364
  181SOL     OW  721   1.130   1.409   3.093 -0.2649  0.3739  0.0499
  181SOL    HW1  722   1.167   1.480   3.147 -0.2847  0.0190 -0.1067
  181SOL    HW2  723   1.182   1.409   3.009  1.8616  1.8768  0.2912
  181SOL     MW  724   1.142   1.419   3.089  0.0130  0.5254  0.0611
  182SOL     OW  725   0.471   0.801   1.668 -0.1929 -0.1239  0.0820
  182SOL    HW1  726   0.383   0.769   1.689  0.9150  3.4623  2.7233
  182SOL    HW2  727   0.535   0.780   1.741  1.7076 -0.9247  0.5247
  182SOL     MW  728   0.468   0.794   1.681  0.2040  0.2436  0.4889
  183SOL     OW  729   1.609   1.545   1.297  0.4214 -0.1554  0.0861
  183SOL    HW1  730   1.539   1.603   1.326 -1.7455  1.9683 -0.4902
  183SOL    HW2  731   1.617   1.484   1.374  0.4813 -1.4339  0.4765
  183SOL     MW  732   1.601   1.545   1.311  0.1434 -0.0439  0.0616
  184SOL     OW  733   0.813   0.558   1.991  0.4560  0.9619 -0.3299
  184SOL    HW1  734   0.890   0.571   1.934  2.0514  3.1073 -2.3145
  184SOL    HW2  735   0.845   0.484   2.052  1.2736 -2.3373  2.2798
  184SOL     MW  736   0.827   0.550   1.992  0.7743  0.8097 -0.2475
  185SOL     OW  737   1.115   0.949   1.955 -0.2980  0.5194 -0.4819
  185SOL    HW1  738   1.108   0.863   2.003 -0.5912  1.9194 -2.1376
  185SOL    HW2  739   1.154   1.013   2.024 -0.0430  1.9907  1.1203
  185SOL     MW  740   1.119   0.946   1.971 -0.3031  0.8982 -0.4889
  186SOL     OW  741   0.347   1.713   1.419  0.6385 -0.4598 -0.3737
  186SOL    HW1  742   0.422   1.761   1.394  0.0625  0.4025  1.3120
  186SOL    HW2  743   0.318   1.655   1.348 -1.2065 -1.3428  0.9566
  186SOL     MW  744   0.353   1.712   1.406  0.3190 -0.4625  0.0243
  187SOL     OW  745   1.529   0.663   1.488 -0.9272 -0.0579  0.0023
  187SOL    HW1  746   1.496   0.665   1.577 -1.0765 -1.5010 -0.3259
  187SOL    HW2  747   1.453   0.680   1.431 -1.1574  1.8375 -0.6748
  187SOL     MW  748   1.515   0.665   1.492 -0.9773  0.0018 -0.1303
  188SOL     OW  749   1.921   1.098   0.715  0.1994 -0.2548  0.0604
  188SOL    HW1  750   1.906   1.029   0.779 -2.1647 -1.9667 -0.4010
  188SOL    HW2  751   2.007   1.071   0.681 -1.1946 -0.3845  2.5584
  188SOL     MW  752   1.930   1.085   0.719 -0.2964 -0.4978  0.3291
  189SOL     OW  753   0.640   0.783   0.797  0.6046 -0.1629  0.4767
  189SOL    HW1  754   0.584   0.861   0.814  3.2782  0.3469 -0.7100
  189SOL    HW2  755   0.718   0.822   0.829 -2.4584  2.7357 -0.7323
  189SOL     MW  756   0.643   0.798   0.804  0.5533  0.2868  0.1606
  190SOL     OW  757   1.851   0.385   1.972  0.3894 -0.5303  0.1598
  190SOL    HW1  758   1.904   0.303   1.965  0.0788  0.8121 -1.0278
  190SOL    HW2  759   1.910   0.455   1.935  0.8430 -0.4455 -0.6486
  190SOL     MW  760   1.866   0.383   1.966  0.4083 -0.3420 -0.1036
  191SOL     OW  761   1.623   0.947   1.528 -0.2582 -0.5030 -0.3704
  191SOL    HW1  762   1.545   0.996   1.492 -0.9253  0.3874 -1.6783
  191SOL    HW2  763   1.604   0.853   1.536  2.0409 -0.9791 -3.1907
  191SOL     MW  764   1.610   0.941   1.524 -0.0429 -0.4483 -0.9151
  192SOL     OW  765   0.737   1.969   2.923  0.4629 -0.6999  0.0707
  192SOL    HW1  766   0.677   1.997   2.852 -0.9269  1.0019  1.3098
  192SOL    HW2  767   0.698   1.885   2.946 -3.1360  1.0388  1.4056
  192SOL     MW  768   0.724   1.962   2.917 -0.1953 -0.2459  0.4103
  193SOL     OW  769   1.038   1.546   0.751  0.4213  0.0518  0.2620
  193SOL    HW1  770   0.976   1.562   0.828 -0.6249  1.8775 -1.0225
  193SOL    HW2  771   0.984   1.483   0.700  0.1238 -0.0342 -1.0902
  193SOL     MW  772   1.023   1.540   0.754  0.2440  0.2813 -0.0859
  194SOL     OW  773   0.466   1.353   0.950 -0.6926 -0.6051 -0.1043
  194SOL    HW1  774   0.481   1.256   0.957  0.9879  1.2894  2.5702
  194SOL    HW2  775   0.384   1.369   0.902  0.6806  0.9572 -0.4829
  194SOL     MW  776   0.457   1.342   0.945 -0.2897 -0.1490  0.1986
  195SOL     OW  777   1.307   1.149   2.938  0.1970  0.3349  0.3994
  195SOL    HW1  778   1.353   1.162   3.023  0.0522  2.6443  2.1555
  195SOL    HW2  779   1.237   1.085   2.961 -1.1487 -1.4857 -0.6381
  195SOL     MW  780   1.304   1.142   2.953  0.0003  0.3994  0.4942
  196SOL     OW  781   2.189   1.055   0.609 -0.5403 -0.2562 -0.3229
  196SOL    HW1  782   2.137   1.041   0.534 -0.9274  0.4941  1.0078
  196SOL    HW2  783   2.199   1.152   0.611 -1.4899  0.0258  0.1324
  196SOL     MW  784   2.184   1.066   0.600 -0.7167 -0.1200 -0.0872
  197SOL     OW  785   0.568   1.220   2.004 -0.0256  0.5497  0.0126
  197SOL    HW1  786   0.592   1.133   1.989  0.0332  2.9331  0.6041
  197SOL    HW2  787   0.566   1.249   1.912 -2.1206 -1.0890  1.6180
  197SOL     MW  788   0.571   1.213   1.990 -0.2942  0.6480  0.3025
  198SOL     OW  789   2.923   1.369   1.074 -0.6782 -0.2360 -0.6630
  198SOL    HW1  790   2.927   1.453   1.023 -1.9487  1.5468 -2.0660
  198SOL    HW2  791   2.833   1.337   1.057  2.9970 -1.6906 -0.3790
  198SOL     MW  792   2.912   1.376   1.065 -0.3609 -0.1927 -0.8106
  199SOL     OW  793   0.482   1.270   1.742  0.1699  0.1883 -0.1441
  199SOL    HW1  794   0.392   1.237   1.753 -1.6929  0.2573 -1.3956
  199SOL    HW2  795   0.466   1.340   1.682 -2.8700  1.1996 -0.9513
  199SOL     MW  796   0.468   1.275   1.735 -0.4770  0.3308 -0.4157
  200SOL     OW  797   1.926   3.047   1.303  0.1479  0.7437  0.3725
  200SOL    HW1  798   1.928   3.050   1.206  0.0396  0.8151 -0.6325
  200SOL    HW2  799   1.845   3.089   1.341  0.1107  1.0450  1.9564
  200SOL     MW  800   1.916   3.053   1.295  0.1287  0.7929  0.4489
  201SOL     OW  801   1.130   0.329   0.807  0.5076  0.2350  0.3297
  201SOL    HW1  802   1.119   0.243   0.837 -0.3209 -3.1635 -0.6038
  201SOL    HW2  803   1.154   0.308   0.717  1.1256 -0.6960  2.0589
  201SOL     MW  804   1.132   0.315   0.799  0.4798 -0.3362  0.4347
  202SOL     OW  805   1.586   1.588   1.023 -0.0638  0.1666 -0.0160
  202SOL    HW1  806   1.621   1.513   0.975 -0.2959  0.1408 -0.2372
  202SOL    HW2  807   1.603   1.566   1.118  0.2622  1.5212  0.3773
  202SOL     MW  808   1.593   1.575   1.029 -0.0514  0.3419  0.0067
  203SOL     OW  809   3.021   0.487   1.212 -0.0571 -0.7726  0.1131
  203SOL    HW1  810   3.074   0.421   1.164  1.7036  2.4066  1.5483
  203SOL    HW2  811   3.071   0.531   1.271  0.2681 -1.0820 -0.2845
  203SOL     MW  812   3.035   0.484   1.213  0.2181 -0.3940  0.2500
  204SOL     OW  813   1.048   1.773   0.522  0.5364  0.0039 -0.0162
  204SOL    HW1  814   1.028   1.715   0.600  0.7493  0.7907 -0.3940
  204SOL    HW2  815   0.967   1.812   0.487 -0.2097 -1.7360 -0.9493
  204SOL     MW  816   1.035   1.771   0.528  0.4661 -0.1219 -0.1892
  205SOL     OW  817   1.392   0.051   1.313  0.2552  0.8048  0.2160
  205SOL    HW1  818   1.339   0.031   1.237 -0.0054  1.5278 -1.0852
  205SOL    HW2  819   1.416   0.138   1.283 -1.2670  1.7118  1.5147
  205SOL     MW  820   1.388   0.060   1.299  0.0200  1.0199  0.2157
  206SOL     OW  821   0.536   3.094   1.371 -0.0150 -0.3285  0.0017
  206SOL    HW1  822   0.475   3.073   1.300  1.5510  0.0913 -0.8781
  206SOL    HW2  823   0.575   3.008   1.399 -2.2661  1.0034 -1.3746
  206SOL     MW  824   0.533   3.080   1.365 -0.1054 -0.0973 -0.2960
  207SOL     OW  825   0.967   1.549   0.211 -0.3626 -0.4782 -0.1731
  207SOL    HW1  826   0.980   1.645   0.203  0.5381 -0.4435  0.1393
  207SOL    HW2  827   1.027   1.516   0.277  2.2113  4.1894  2.3141
  207SOL     MW  828   0.976   1.557   0.219  0.0959  0.1422  0.1963
  208SOL     OW  829   0.643   1.573   1.246  0.1549  0.1607 -0.3226
  208SOL    HW1  830   0.717   1.587   1.299 -0.4929 -1.7036 -0.0530
  208SOL    HW2  831   0.625   1.474   1.246 -0.6793 -2.9492  2.2214
  208SOL     MW  832   0.651   1.562   1.253 -0.0406 -0.4956  0.0487
  209SOL     OW  833   1.490   0.480   2.811  0.3849 -0.2925 -0.2236
  209SOL    HW1  834   1.510   0.563   2.772 -0.1191  0.4956  2.9330
  209SOL    HW2  835   1.578   0.427   2.809  2.0317 -0.2430 -0.6196
  209SOL     MW  836   1.504   0.484   2.805  0.5357 -0.1820  0.1406
  210SOL     OW  837   1.590   1.321   0.907 -0.3719  0.5040 -0.2291
  210SOL    HW1  838   1.671   1.320   0.861 -1.6514 -0.2788 -1.6258
  210SOL    HW2  839   1.523   1.332   0.839 -0.8302  1.4188 -1.2545
  210SOL     MW  840   1.592   1.322   0.892 -0.6012  0.5214 -0.5486
  211SOL     OW  841   1.720   0.465   0.927 -0.3958 -0.3155 -0.6796
  211SOL    HW1  842   1.697   0.440   0.833  1.5902 -0.8238  0.9051
  211SOL    HW2  843   1.822   0.469   0.923  1.7702 -0.8277 -2.0822
  211SOL     MW  844   1.731   0.462   0.914  0.1520 -0.4502 -0.6556
  212SOL     OW  845   0.268   1.107   0.037 -0.0192 -0.8493  0.0548
  212SOL    HW1  846   0.222   1.053   0.105 -2.4169  0.3675 -1.2368
  212SOL    HW2  847   0.362   1.075   0.030 -0.7737  3.4591  2.7245
  212SOL     MW  848   0.274   1.096   0.045 -0.4351 -0.1203  0.2366
  213SOL     OW  849   0.520   1.693   3.094 -0.4415  0.0780  0.2911
  213SOL    HW1  850   0.581   1.749   3.149 -0.3677  0.9389  1.2432
  213SOL    HW2  851   0.550   1.706   3.006 -1.2908 -0.6745 -1.8857
  213SOL     MW  852   0.532   1.702   3.090 -0.5438  0.0923  0.1295
  214SOL     OW  853   0.623   0.236   2.259 -0.1063 -0.0078  0.2789
  214SOL    HW1  854   0.559   0.290   2.217  0.0085 -0.2889 -2.1542
  214SOL    HW2  855   0.702   0.261   2.217  0.8661  1.7550 -0.1725
  214SOL     MW  856   0.625   0.246   2.248  0.0371  0.1877 -0.1017
  215SOL     OW  857   0.504   0.717   2.650  0.3265  0.4311 -0.0459
  215SOL    HW1  858   0.536   0.736   2.563 -2.0087  0.8561  0.2391
  215SOL    HW2  859   0.418   0.669   2.639  1.7173  0.6900  1.9831
  215SOL     MW  860   0.497   0.714   2.637  0.2019  0.5214  0.2594
  216SOL     OW  861   0.011   3.093   2.778  0.2504 -0.3709  0.0474
  216SOL    HW1  862  -0.069   3.059   2.832 -0.1747  1.2286  0.3878
  216SOL    HW2  863  -0.022   3.177   2.744 -0.7465  1.4915  0.5049
  216SOL     MW  864  -0.004   3.099   2.781  0.0628  0.0858  0.1526
  217SOL     OW  865   0.977   1.185   0.011  0.2991  0.0407 -0.3379
  217SOL    HW1  866   1.039   1.115  -0.031 -1.3438 -0.8403 -0.7529
  217SOL    HW2  867   1.037   1.268   0.023 -0.4639  2.9829 -0.2126
  217SOL     MW  868   0.993   1.187   0.007 -0.0184  0.3126 -0.3761
  218SOL     OW  869   0.918   1.388   2.485  0.1179  0.8568 -0.0440
  218SOL    HW1  870   0.934   1.295   2.520  4.0583  1.0239  0.7797
  218SOL    HW2  871   1.000   1.436   2.497 -1.2904 -2.9482 -0.6922
  218SOL     MW  872   0.931   1.382   2.491  0.4520  0.3768 -0.0208
  219SOL     OW  873   0.993   0.418   2.534  0.0862  0.2370 -0.2505
  219SOL    HW1  874   1.048   0.493   2.522 -2.7031  0.3751 -0.5533
  219SOL    HW2  875   0.932   0.436   2.607 -1.3629  1.1328 -2.7260
  219SOL     MW  876   0.992   0.430   2.542 -0.4730  0.3734 -0.6170
  220SOL     OW  877   1.768   0.541   2.171 -0.0764 -0.0237 -0.1280
  220SOL    HW1  878   1.690   0.590   2.171  0.9514  0.1290 -0.6745
  220SOL    HW2  879   1.771   0.478   2.103 -0.1473  1.0968  2.8470
  220SOL     MW  880   1.758   0.539   2.162  0.0499  0.1443  0.1924
  221SOL     OW  881   0.404   1.437   2.921 -0.0966 -0.1423  0.2283
  221SOL    HW1  882   0.420   1.346   2.899  0.2380  1.7225 -2.1108
  221SOL    HW2  883   0.412   1.482   2.829  1.9070 -2.6393 -1.8665
  221SOL     MW  884   0.407   1.431   2.906  0.2119 -0.2257 -0.3567
  222SOL     OW  885   0.361   0.953   2.665 -0.6775  0.5971 -0.2847
  222SOL    HW1  886   0.323   0.967   2.579 -0.9492  2.0831 -2.9972
  222SOL    HW2  887   0.416   0.876   2.657 -0.5968 -1.2021  1.2365
  222SOL     MW  888   0.364   0.945   2.653 -0.7027  0.5558 -0.4419
  223SOL     OW  889   3.075   1.999   2.658  0.3392 -0.6483 -0.4109
  223SOL    HW1  890   3.161   1.953   2.681  1.2818  1.5056 -0.2224
  223SOL    HW2  891   3.112   2.078   2.610  1.7534  0.3965 -4.8373
  223SOL     MW  892   3.091   2.003   2.655  0.6501 -0.2262 -0.9700
  224SOL     OW  893   1.531   0.833   2.591 -0.5446  0.3404 -0.4860
  224SOL    HW1  894   1.499   0.866   2.671  0.3422  1.0061 -0.9595
  224SOL    HW2  895   1.532   0.912   2.537 -0.1316 -2.9030 -0.9698
  224SOL     MW  896   1.527   0.848   2.594 -0.3731  0.0003 -0.6123
  225SOL     OW  897   2.926   1.476   2.246 -0.4954  0.1027 -0.5376
  225SOL    HW1  898   2.972   1.529   2.179  0.6244  1.8711 -0.5772
  225SOL    HW2  899   2.873   1.543   2.296 -1.6485  2.2475  0.9787
  225SOL     MW  900   2.925   1.492   2.243 -0.4998  0.6190 -0.3428
  226SOL     OW  901   0.409   1.511   2.639 -0.6647 -0.3787 -0.4468
  226SOL    HW1  902   0.498   1.483   2.614  2.3980 -0.5779 -1.7613
  226SOL    HW2  903   0.405   1.601   2.610  1.0750 -0.6672  2.1934
  226SOL     MW  904   0.421   1.519   2.632 -0.0311 -0.4431 -0.2719
  227SOL     OW  905   0.422   1.149   2.836  0.4128 -0.5634 -0.2884
  227SOL    HW1  906   0.516   1.154   2.809 -0.2682  3.1683  3.3529
  227SOL    HW2  907   0.391   1.091   2.770  2.7997 -1.1274 -0.1413
  227SOL     MW  908   0.430   1.142   2.824  0.6379 -0.1454  0.2114
  228SOL     OW  909   0.682   0.976   2.002  0.3095 -0.0343 -0.4976
  228SOL    HW1  910   0.770   1.001   1.961  0.8676 -0.4550 -1.2037
  228SOL    HW2  911   0.681   0.939   2.096 -0.6731  2.2607 -0.4944
  228SOL     MW  912   0.694   0.974   2.009  0.2535  0.2130 -0.5904
  229SOL     OW  913   0.242   0.479   3.065 -0.1500  0.3022  0.3744
  229SOL    HW1  914   0.157   0.469   3.024  3.2339  0.5735  0.5208
  229SOL    HW2  915   0.237   0.436   3.151  0.2457  0.9958  0.6259
  229SOL     MW  916   0.230   0.472   3.071  0.3487  0.4295  0.4269
  230SOL     OW  917   1.766   1.348   2.112 -0.1158 -0.2856 -0.0783
  230SOL    HW1  918   1.743   1.356   2.207  1.8744  0.9016  1.1683
  230SOL    HW2  919   1.776   1.252   2.092  1.3037  1.3401  1.0531
  230SOL     MW  920   1.764   1.336   2.122  0.3341  0.0856  0.2354
  231SOL     OW  921   2.814   1.231   2.186 -0.1332 -0.1378 -0.3648
  231SOL    HW1  922   2.867   1.314   2.189 -0.8745  3.4234 -1.7656
  231SOL    HW2  923   2.740   1.234   2.126 -0.3884  1.2114 -1.9785
  231SOL     MW  924   2.812   1.243   2.178 -0.2647  0.5100 -0.7626
  232SOL     OW  925   2.284   0.957   2.099 -0.5569 -0.3826 -0.1326
  232SOL    HW1  926   2.199   0.983   2.054  2.4118 -0.5031 -1.6160
  232SOL    HW2  927   2.258   0.955   2.188 -1.1035 -1.7722 -0.2746
  232SOL     MW  928   2.269   0.960   2.105 -0.2373 -0.5818 -0.3470
  233SOL     OW  929   2.060   0.547   1.940  0.3558 -0.1225 -0.0522
  233SOL    HW1  930   2.111   0.576   1.860  2.0265  0.9777  0.5733
  233SOL    HW2  931   2.124   0.519   2.011  0.5982  0.0453 -0.7880
  233SOL     MW  932   2.075   0.547   1.939  0.6082  0.0448 -0.0667
  234SOL     OW  933   0.236   0.960   2.422  0.7767  0.2993 -0.5524
  234SOL    HW1  934   0.137   0.969   2.435 -1.1384  1.4586 -2.3178
  234SOL    HW2  935   0.266   1.034   2.373  0.8397 -1.6781 -2.0965
  234SOL     MW  936   0.227   0.971   2.417  0.5324  0.1913 -0.9891
  235SOL     OW  937   0.981   3.049   2.797 -0.2296  0.8582  0.1097
  235SOL    HW1  938   1.039   2.986   2.840 -1.1792 -1.2108  1.4148
  235SOL    HW2  939   0.967   3.126   2.854 -0.3698  0.7038  1.1480
  235SOL     MW  940   0.987   3.051   2.810 -0.3734  0.5649  0.4189
  236SOL     OW  941   2.938   0.500   0.086  0.0452  0.3471  0.0669
  236SOL    HW1  942   2.872   0.498   0.014  1.8422 -0.0067 -1.0039
  236SOL    HW2  943   2.975   0.596   0.094 -1.5376 -0.8114 -0.6085
  236SOL     MW  944   2.934   0.512   0.078  0.0735  0.1476 -0.1635
  237SOL     OW  945   1.747   0.879   2.172  0.3499 -0.4970  0.0773
  237SOL    HW1  946   1.765   0.965   2.126  0.2861  1.1583 -0.7843
  237SOL    HW2  947   1.793   0.878   2.260 -0.0377  1.5219 -1.6777
  237SOL     MW  948   1.756   0.890   2.178  0.2903 -0.0122 -0.2679
  238SOL     OW  949   1.102   1.757   2.974  0.0464 -0.1550  0.0092
  238SOL    HW1  950   1.058   1.672   2.975 -1.4472  1.1306  1.6200
  238SOL    HW2  951   1.198   1.740   2.957  2.6348 -0.1281 -1.5455
  238SOL     MW  952   1.109   1.744   2.972  0.1909  0.0182  0.0166
  239SOL     OW  953   1.224   1.389   2.316 -0.6446 -0.0405  0.1782
  239SOL    HW1  954   1.262   1.377   2.403  1.1956 -1.4206 -2.0369
  239SOL    HW2  955   1.152   1.332   2.323 -0.8909 -0.2556 -1.9132
  239SOL     MW  956   1.220   1.380   2.329 -0.4343 -0.2509 -0.3900
  240SOL     OW  957   0.644   0.834   2.230 -0.5803 -0.1574  0.3398
  240SOL    HW1  958   0.633   0.890   2.307 -2.6262 -1.2065  0.9488
  240SOL    HW2  959   0.729   0.798   2.245  0.3211  3.0823 -1.4330
  240SOL     MW  960   0.654   0.836   2.242 -0.7313  0.1317  0.1863
  241SOL     OW  961   0.644   0.387   2.955 -0.2080  0.1922 -0.3536
  241SOL    HW1  962   0.647   0.407   3.049 -1.0456 -1.2729  0.3656
  241SOL    HW2  963   0.568   0.432   2.915  1.6708 -1.8801 -4.0876
  241SOL     MW  964   0.634   0.395   2.962 -0.0706 -0.2745 -0.7514
  242SOL     OW  965   1.423   1.669   2.362 -0.0276  0.2627 -0.3656
  242SOL    HW1  966   1.433   1.756   2.390  0.7416 -0.1403  2.1130
  242SOL    HW2  967   1.342   1.669   2.313 -0.1879 -2.4905 -0.5353
  242SOL     MW  968   1.414   1.680   2.359  0.0527 -0.1537 -0.0609
  243SOL     OW  969   1.014   0.218   2.354 -0.4664 -0.6601 -0.3725
  243SOL    HW1  970   1.109   0.217   2.341 -0.5280  2.0991 -0.8481
  243SOL    HW2  971   1.000   0.288   2.415 -3.2919  0.2344 -2.1035
  243SOL     MW  972   1.025   0.227   2.360 -0.8473 -0.1780 -0.6636
  244SOL     OW  973   0.210   0.723   2.273 -0.1711 -0.4977  0.2702
  244SOL    HW1  974   0.207   0.812   2.320 -1.6154 -0.2348 -0.2070
  244SOL    HW2  975   0.299   0.684   2.275 -3.2502  2.4501 -1.3250
  244SOL     MW  976   0.221   0.730   2.279 -0.7680 -0.0741 -0.0032
  245SOL     OW  977   1.291   0.140   2.276 -1.3664  0.5892 -0.1442
  245SOL    HW1  978   1.304   0.046   2.273 -1.6513  0.1317 -0.6754
  245SOL    HW2  979   1.361   0.175   2.331 -2.1908 -1.4158  1.3623
  245SOL     MW  980   1.302   0.132   2.283 -1.5127  0.2643 -0.0155
  246SOL     OW  981   1.172   1.140   2.152 -0.6813 -0.0343  0.1580
  246SOL    HW1  982   1.110   1.104   2.218 -0.1889  2.0683 -0.2516
  246SOL    HW2  983   1.247   1.182   2.198  1.5658  3.1097  1.3525
  246SOL     MW  984   1.174   1.141   2.167 -0.3198  0.6579  0.2616
  247SOL     OW  985   0.655   0.532   0.144  0.2004  0.3464 -0.1670
  247SOL    HW1  986   0.611   0.614   0.127 -1.2446 -1.9057 -0.3040
  247SOL    HW2  987   0.745   0.543   0.116 -0.8615  0.7959 -0.9437
  247SOL     MW  988   0.661   0.544   0.138 -0.1304  0.1086 -0.2876
  248SOL     OW  989   0.414   1.212   2.415  0.7536 -0.0013  0.5865
  248SOL    HW1  990   0.426   1.248   2.324  2.0863  0.7206 -0.5221
  248SOL    HW2  991   0.419   1.282   2.473 -3.2922  0.0643 -1.2220
  248SOL     MW  992   0.416   1.226   2.411  0.3956  0.1026  0.2016
  249SOL     OW  993   0.165   1.802   2.713  0.0682 -0.0335 -0.0974
  249SOL    HW1  994   0.113   1.730   2.679  3.4292 -2.6382 -0.8372
  249SOL    HW2  995   0.180   1.770   2.801  1.4099  0.8102  0.2975
  249SOL     MW  996   0.160   1.789   2.720  0.6887 -0.2659 -0.1429
  250SOL     OW  997   2.173   0.909   2.360 -0.0749 -1.0221  0.2712
  250SOL    HW1  998   2.236   0.838   2.356 -3.9843  0.6783  0.0526
  250SOL    HW2  999   2.208   0.983   2.417  0.8369 -1.9298 -0.2519
  250SOL     MW 1000   2.186   0.910   2.367 -0.4704 -0.9175  0.1733
  251SOL     OW 1001   0.176   0.834   2.006  0.3779 -0.3303 -0.6831
  251SOL    HW1 1002   0.218   0.796   2.079 -0.4325 -1.3487 -0.9687
  251SOL    HW2 1003   0.117   0.761   1.983  2.4916  1.4813  0.6189
  251SOL     MW 1004   0.174   0.820   2.012  0.5499 -0.2257 -0.5490
  252SOL     OW 1005   1.684   1.024   2.843 -0.4586 -0.1966  0.2693
  252SOL    HW1 1006   1.686   1.062   2.934  1.9675  1.3793  0.2359
  252SOL    HW2 1007   1.732   1.078   2.780  2.0748 -3.0419  1.6509
  252SOL     MW 1008   1.690   1.036   2.847  0.1958 -0.3640  0.4472
  253SOL     OW 1009   1.150   1.727   2.546 -0.0471 -0.1659  0.2734
  253SOL    HW1 1010   1.128   1.776   2.468  2.1750 -1.1886  0.3253
  253SOL    HW2 1011   1.064   1.751   2.591  1.3674  0.4063 -0.6646
  253SOL     MW 1012   1.136   1.737   2.541  0.4327 -0.2253  0.1565
  254SOL     OW 1013   0.994   1.045   2.339  0.4886 -0.4047  0.5333
  254SOL    HW1 1014   0.977   0.950   2.340  0.7355  0.7119  2.7499
  254SOL    HW2 1015   0.932   1.089   2.282  2.3077 -0.8886  1.8128
  254SOL     MW 1016   0.984   1.038   2.331  0.7611 -0.3212  0.9946
  255SOL     OW 1017   0.774   2.397   2.246  0.6165  0.4167 -0.2542
  255SOL    HW1 1018   0.683   2.363   2.250 -1.3995  2.6066  2.0641
  255SOL    HW2 1019   0.793   2.419   2.336 -0.5304  0.5644 -0.9774
  255SOL     MW 1020   0.764   2.395   2.259  0.1992  0.7251 -0.0438
  256SOL     OW 1021   1.184   2.862   2.920 -0.4934 -0.6825 -0.3953
  256SOL    HW1 1022   1.193   2.761   2.910 -0.7722 -2.0039  0.4701
  256SOL    HW2 1023   1.270   2.903   2.908  0.5275  0.9398  1.2582
  256SOL     MW 1024   1.197   2.854   2.917 -0.3955 -0.6428 -0.0630
  257SOL     OW 1025   0.100   1.856   0.037  0.3413  0.2258  0.4751
  257SOL    HW1 1026   0.110   1.827   0.132 -0.4236 -0.4016 -2.5385
  257SOL    HW2 1027   0.144   1.788  -0.017 -1.0158  2.1969 -1.7656
  257SOL     MW 1028   0.107   1.844   0.042  0.0614  0.4031 -0.2181
  258SOL     OW 1029   0.648   1.051   2.439  0.5903 -0.0010  0.9659
  258SOL    HW1 1030   0.708   1.101   2.380 -0.0894  1.9061  3.6058
  258SOL    HW2 1031   0.576   1.108   2.445 -1.1805  0.3582 -1.7511
  258SOL     MW 1032   0.647   1.065   2.432  0.2670  0.2980  0.9558
  259SOL     OW 1033   0.623   0.447   2.478  0.7480  1.2719 -0.3384
  259SOL    HW1 1034   0.555   0.507   2.439  2.5532 -0.8564  0.2609
  259SOL    HW2 1035   0.627   0.369   2.418 -2.0544 -1.5034 -1.8485
  259SOL     MW 1036   0.614   0.445   2.465  0.6164  0.6250 -0.4586
  260SOL     OW 1037   0.630   0.145   1.574  0.3839  0.0409  0.1652
  260SOL    HW1 1038   0.588   0.136   1.489  0.1295 -2.2939  1.4848
  260SOL    HW2 1039   0.719   0.181   1.547  1.0075  1.0201 -0.7569
  260SOL     MW 1040   0.636   0.149   1.560  0.4326 -0.1380  0.2176
  261SOL     OW 1041   1.095   0.693   2.109  0.4009 -0.8720  0.3042
  261SOL    HW1 1042   1.128   0.679   2.198  3.3339  1.9043 -0.3607
  261SOL    HW2 1043   1.154   0.645   2.053 -3.2240 -0.0254  0.1347
  261SOL     MW 1044   1.107   0.685   2.113  0.3096 -0.3940  0.1941
  262SOL     OW 1045   1.119   0.354   0.078  0.2454 -0.4222 -0.1693
  262SOL    HW1 1046   1.214   0.363   0.069 -0.6072  0.5122 -2.0984
  262SOL    HW2 1047   1.104   0.310  -0.006 -0.8234  0.5524  2.5151
  262SOL     MW 1048   1.129   0.349   0.066 -0.0081 -0.1703 -0.0696
  263SOL     OW 1049   0.451   3.013   2.519  0.9480  0.0285  0.0022
  263SOL    HW1 1050   0.378   3.073   2.523  0.3725  3.4501  0.6882
  263SOL    HW2 1051   0.498   3.015   2.431  1.2346 -1.6873 -1.9125
  263SOL     MW 1052   0.448   3.021   2.508  0.9099  0.2536 -0.1599
  264SOL     OW 1053   1.547   1.367   1.948  0.3692  0.0254  0.0697
  264SOL    HW1 1054   1.491   1.343   2.025 -1.1850  1.4169 -0.7684
  264SOL    HW2 1055   1.638   1.363   1.988  0.8166 -2.2322 -2.4985
  264SOL     MW 1056   1.552   1.363   1.963  0.2231 -0.0889 -0.3797
  265SOL     OW 1057   0.681   2.753   2.231 -0.3386 -0.1665  0.3595
  265SOL    HW1 1058   0.731   2.671   2.200  1.1493 -0.4765  0.9458
  265SOL    HW2 1059   0.684   2.750   2.326 -2.2504  0.3575 -0.5873
  265SOL     MW 1060   0.688   2.742   2.240 -0.3945 -0.1383  0.3119
  266SOL     OW 1061   0.888   0.765   2.275 -0.0013  0.3860 -0.5048
  266SOL    HW1 1062   0.936   0.698   2.216  2.0717 -1.9846 -0.1238
  266SOL    HW2 1063   0.875   0.718   2.360 -0.8995 -0.1722  1.9956
  266SOL     MW 1064   0.892   0.750   2.278  0.1537 -0.0004 -0.1246
  267SOL     OW 1065   1.371   1.828   2.685 -0.2636 -0.3692  0.0886
  267SOL    HW1 1066   1.443   1.767   2.664  1.8764 -3.5461 -0.4379
  267SOL    HW2 1067   1.302   1.794   2.634  0.0222  1.2440  0.7052
  267SOL     MW 1068   1.372   1.816   2.676  0.0565 -0.5755  0.1005
  268SOL     OW 1069   0.203   0.763   1.690 -0.0336  0.3106  0.4757
  268SOL    HW1 1070   0.123   0.801   1.657  1.6636 -2.1687  1.2934
  268SOL    HW2 1071   0.211   0.666   1.654 -2.6074  2.0002 -1.6396
  268SOL     MW 1072   0.194   0.755   1.681 -0.1492  0.2064  0.3045
  269SOL     OW 1073   1.440   1.955   2.440  0.5946 -0.0774  0.4129
  269SOL    HW1 1074   1.422   1.938   2.537 -0.5382  2.5053 -3.5174
  269SOL    HW2 1075   1.369   2.021   2.422 -1.0583  0.6198 -1.8049
  269SOL     MW 1076   1.429   1.962   2.450  0.2270  0.3553 -0.3983
  270SOL     OW 1077   1.181   0.456   1.620  0.1376  0.1617  0.0695
  270SOL    HW1 1078   1.166   0.366   1.661 -1.2131 -0.0914  0.4315
  270SOL    HW2 1079   1.270   0.454   1.584 -2.5250  1.3595  2.6298
  270SOL     MW 1080   1.191   0.444   1.621 -0.3919  0.2863  0.4551
  271SOL     OW 1081   0.864   3.084   2.406  0.0606 -0.1088 -0.2349
  271SOL    HW1 1082   0.897   3.017   2.472  2.5484 -1.1872 -1.6690
  271SOL    HW2 1083   0.937   3.138   2.376  1.9151  1.3534  1.1093
  271SOL     MW 1084   0.878   3.082   2.410  0.6335 -0.0582 -0.2468
  272SOL     OW 1085   1.387   3.007   2.817  0.0702 -0.1135  0.5598
  272SOL    HW1 1086   1.331   3.033   2.746  1.5483  0.1905 -1.3997
  272SOL    HW2 1087   1.357   3.072   2.892 -0.2077  1.2765  0.1354
  272SOL     MW 1088   1.376   3.019   2.817  0.2285  0.1100  0.2453
  273SOL     OW 1089   1.444   0.924   2.873  0.4422  0.1657  0.5602
  273SOL    HW1 1090   1.536   0.961   2.868 -0.1480 -1.1874 -1.3786
  273SOL    HW2 1091   1.383   0.998   2.878  0.5523  0.2185 -0.1349
  273SOL     MW 1092   1.448   0.939   2.873  0.3789 -0.0059  0.2127
  274SOL     OW 1093   1.351   0.730   0.125 -0.0073  0.1947  0.4595
  274SOL    HW1 1094   1.388   0.649   0.162  1.8327 -0.5289  1.6454
  274SOL    HW2 1095   1.275   0.758   0.188 -1.1338  0.5873  0.9219
  274SOL     MW 1096   1.346   0.723   0.138  0.0868  0.1510  0.6770
  275SOL     OW 1097   1.698   0.664   1.808  0.5459  0.7948  0.2073
  275SOL    HW1 1098   1.774   0.690   1.861 -2.4487  1.6143  0.3101
  275SOL    HW2 1099   1.665   0.587   1.852 -1.2415  1.9491  0.2515
  275SOL     MW 1100   1.703   0.657   1.821 -0.0851  1.0552  0.2267
  276SOL     OW 1101   0.235   1.160   1.819  0.9137  0.2306 -0.4628
  276SOL    HW1 1102   0.301   1.096   1.845  1.8131 -0.2533  3.1575
  276SOL    HW2 1103   0.177   1.158   1.897 -0.0004  1.0834 -1.5425
  276SOL     MW 1104   0.236   1.151   1.833  0.9117  0.2793 -0.1276
  277SOL     OW 1105   1.953   1.373   2.676 -0.2807 -0.0736 -0.7353
  277SOL    HW1 1106   1.985   1.457   2.675  0.4954 -2.0722 -0.1305
  277SOL    HW2 1107   2.029   1.322   2.692  0.8800  1.5206  2.5822
  277SOL     MW 1108   1.967   1.378   2.678 -0.0251 -0.1270 -0.2178
  278SOL     OW 1109   1.420   0.673   1.739 -0.1328 -0.3875 -0.5779
  278SOL    HW1 1110   1.397   0.614   1.814  0.0545 -1.2478 -0.4966
  278SOL    HW2 1111   1.502   0.712   1.779  1.4741  0.8104  0.9615
  278SOL     MW 1112   1.428   0.670   1.754  0.1039 -0.3430 -0.3641
  279SOL     OW 1113   0.585   3.065   2.268 -0.2709  0.2731  0.3895
  279SOL    HW1 1114   0.669   3.055   2.220  0.8815 -4.9217 -0.0009
  279SOL    HW2 1115   0.588   3.154   2.302  0.8068 -1.5550  3.3768
  279SOL     MW 1116   0.596   3.075   2.267  0.0234 -0.6535  0.7322
  280SOL     OW 1117   1.464   1.169   2.224  0.7076 -0.2616  0.1372
  280SOL    HW1 1118   1.456   1.079   2.187  1.0715 -1.6822 -0.4994
  280SOL    HW2 1119   1.472   1.137   2.315  1.3786 -0.4149  2.1754
  280SOL     MW 1120   1.464   1.153   2.231  0.8441 -0.4692  0.3221
  281SOL     OW 1121   1.277   1.430   2.836 -0.5114 -0.0375 -0.0048
  281SOL    HW1 1122   1.375   1.430   2.829 -0.5099  1.0907 -1.3173
  281SOL    HW2 1123   1.250   1.345   2.863 -1.6746  1.8303 -0.6509
  281SOL     MW 1124   1.286   1.418   2.838 -0.6647  0.3578 -0.2632
  282SOL     OW 1125   1.090   1.291   1.688  0.1580  0.3236  0.1840
  282SOL    HW1 1126   1.082   1.374   1.637  3.3029  1.9188 -0.8448
  282SOL    HW2 1127   1.000   1.263   1.689  1.3611 -1.1890 -4.2695
  282SOL     MW 1128   1.077   1.299   1.681  0.7317  0.3345 -0.5394
  283SOL     OW 1129   0.713   1.226   3.084  0.0065 -0.4582  0.1801
  283SOL    HW1 1130   0.811   1.219   3.080 -0.5772  2.3931  0.2475
  283SOL    HW2 1131   0.685   1.313   3.117 -0.3390 -0.9471 -2.3633
  283SOL     MW 1132   0.722   1.237   3.088 -0.1161 -0.1465 -0.1466
  284SOL     OW 1133   0.456   0.606   2.331  0.5754  0.1248  0.2868
  284SOL    HW1 1134   0.523   0.668   2.288  0.9280 -0.3666  0.3930
  284SOL    HW2 1135   0.433   0.535   2.264 -2.2364  1.9925 -0.7740
  284SOL     MW 1136   0.462   0.605   2.316  0.2509  0.3064  0.1609
  285SOL     OW 1137   0.915   0.914   2.800 -0.4216  0.3390  0.7567
  285SOL    HW1 1138   0.923   0.953   2.711  0.1460 -1.4968  1.7078
  285SOL    HW2 1139   0.852   0.844   2.785 -2.4588 -2.7146  3.4348
  285SOL     MW 1140   0.908   0.910   2.787 -0.6155 -0.3061  1.2356
  286SOL     OW 1141   1.158   1.456   2.581  0.1547  0.1308  0.1767
  286SOL    HW1 1142   1.215   1.438   2.660  0.0380 -0.4587  0.9621
  286SOL    HW2 1143   1.146   1.549   2.567  0.7002  0.1368 -0.9228
  286SOL     MW 1144   1.164   1.466   2.589  0.2113  0.0538  0.1353
  287SOL     OW 1145   1.069   0.966   0.422 -0.3850  0.3210  0.3271
  287SOL    HW1 1146   1.158   0.962   0.456  0.9762 -0.7940 -1.6579
  287SOL    HW2 1147   1.039   1.049   0.392 -0.0886 -0.3801  0.3902
  287SOL     MW 1148   1.077   0.976   0.422 -0.1663  0.0814  0.0735
  288SOL     OW 1149   1.511   0.664   2.163  0.0524 -0.2991  0.0134
  288SOL    HW1 1150   1.503   0.665   2.260  1.8077  1.4962 -1.7402
  288SOL    HW2 1151   1.494   0.750   2.133  1.0240 -1.4788 -0.4231
  288SOL     MW 1152   1.508   0.675   2.172  0.4122 -0.2179 -0.2756
  289SOL     OW 1153   0.888   1.101   2.592  0.8427 -0.3564 -0.5509
  289SOL    HW1 1154   0.942   1.064   2.519 -0.4825 -1.7547 -0.6104
  289SOL    HW2 1155   0.801   1.063   2.565 -0.1051 -2.7007 -3.8589
  289SOL     MW 1156   0.884   1.091   2.579  0.5428 -0.8502 -0.9952
  290SOL     OW 1157   0.863   0.678   1.527 -0.0864 -0.9584 -0.1405
  290SOL    HW1 1158   0.899   0.615   1.464 -0.8098 -1.1109 -0.3652
  290SOL    HW2 1159   0.899   0.662   1.614 -0.3899 -0.6703  2.0489
  290SOL     MW 1160   0.872   0.667   1.530 -0.2219 -0.9405  0.1187
  291SOL     OW 1161   0.208   0.354   0.206 -0.1915 -0.4515  0.2587
  291SOL    HW1 1162   0.294   0.323   0.227  0.2480  2.3799  1.3977
  291SOL    HW2 1163   0.174   0.273   0.163  3.1185  0.3351 -0.7228
  291SOL     MW 1164   0.215   0.339   0.203  0.3032  0.0258  0.2795
  292SOL     OW 1165   0.937   0.575   0.079  0.2649 -0.0475  0.2615
  292SOL    HW1 1166   0.965   0.647   0.138 -0.9976 -0.0767  0.8384
  292SOL    HW2 1167   1.008   0.509   0.084  0.6970  1.4008  0.2889
  292SOL     MW 1168   0.950   0.576   0.088  0.1553  0.1397  0.3412
  293SOL     OW 1169   0.241   0.086   2.490  0.1078 -0.5669  0.2109
  293SOL    HW1 1170   0.161   0.048   2.453 -1.9603  2.1004  2.2174
  293SOL    HW2 1171   0.211   0.119   2.577  1.0656  0.9209 -0.4237
  293SOL     MW 1172   0.226   0.086   2.496 -0.0387 -0.0187  0.3919
  294SOL     OW 1173   1.454   0.628   2.429  0.5862 -0.2323  0.1331
  294SOL    HW1 1174   1.481   0.699   2.497 -0.4294  2.8896  0.4014
  294SOL    HW2 1175   1.512   0.548   2.431  2.7070  0.5067 -1.5526
  294SOL     MW 1176   1.465   0.627   2.439  0.7320  0.2771 -0.0539
  295SOL     OW 1177   0.807   0.660   2.518  0.2841  0.1682  0.6028
  295SOL    HW1 1178   0.772   0.574   2.484 -1.0316  1.4664  3.2392
  295SOL    HW2 1179   0.768   0.667   2.604  1.3656 -1.5356  0.0513
  295SOL     MW 1180   0.797   0.650   2.525  0.2532  0.1147  0.8779
  296SOL     OW 1181   1.281   0.312   2.054  0.1978  0.5674  0.0777
  296SOL    HW1 1182   1.361   0.278   2.020 -3.6884 -2.9719  0.3010
  296SOL    HW2 1183   1.297   0.278   2.140  1.2357 -3.2100 -0.5371
  296SOL     MW 1184   1.293   0.303   2.061 -0.1780 -0.3980  0.0261
  297SOL     OW 1185   1.415   0.417   1.491  0.0985  0.0831 -0.1357
  297SOL    HW1 1186   1.465   0.499   1.479 -0.1124 -2.1337 -1.8543
  297SOL    HW2 1187   1.472   0.367   1.548 -2.5074  1.9026  0.8716
  297SOL     MW 1188   1.429   0.421   1.497 -0.2731  0.0307 -0.2296
  298SOL     OW 1189   1.505   0.920   2.067  0.2975 -0.3401  0.2539
  298SOL    HW1 1190   1.523   0.974   1.991  2.4767  1.5450  1.6992
  298SOL    HW2 1191   1.590   0.898   2.101 -1.5402 -1.2076 -1.8838
  298SOL     MW 1192   1.518   0.924   2.061  0.3425 -0.2058  0.1625
  299SOL     OW 1193   0.514   1.032   3.059  0.0387  0.2066  0.8282
  299SOL    HW1 1194   0.591   1.083   3.069  0.1691  0.8445 -1.2104
  299SOL    HW2 1195   0.477   1.069   2.972  2.4634 -0.2806 -1.6512
  299SOL     MW 1196   0.519   1.044   3.049  0.3758  0.2264  0.2321
  300SOL     OW 1197   1.229   1.121   2.507  0.4214  0.1815 -0.3924
  300SOL    HW1 1198   1.165   1.065   2.472 -0.6188 -1.4976  1.3555
  300SOL    HW2 1199   1.207   1.149   2.591 -1.2170  1.0216 -0.7924
  300SOL     MW 1200   1.218   1.117   2.514  0.0680  0.0708 -0.2146
  301SOL     OW 1201   1.387   0.724   0.590 -0.1488 -0.3300 -0.4109
  301SOL    HW1 1202   1.415   0.695   0.680 -2.4522  0.1368  2.1117
  301SOL    HW2 1203   1.320   0.659   0.569 -2.4119 -2.1446 -0.5932
  301SOL     MW 1204   1.382   0.712   0.599 -0.7513 -0.5078 -0.1021
  302SOL     OW 1205   0.154   1.440   1.925 -0.1358  0.2281 -0.1640
  302SOL    HW1 1206   0.162   1.396   2.009 -1.3044  1.1547 -0.4181
  302SOL    HW2 1207   0.103   1.520   1.947  3.7009  0.3326 -1.2602
  302SOL     MW 1208   0.148   1.445   1.939  0.2162  0.3641 -0.3422
  303SOL     OW 1209   0.408   1.776   2.585 -0.6591 -0.0488 -0.2760
  303SOL    HW1 1210   0.408   1.825   2.504  0.0074 -2.6278 -0.9435
  303SOL    HW2 1211   0.320   1.780   2.620  0.2665  0.5488  1.2970
  303SOL     MW 1212   0.396   1.783   2.579 -0.4490 -0.3103 -0.1565
  304SOL     OW 1213   0.477   2.066   2.429  0.0216  0.4814 -0.0537
  304SOL    HW1 1214   0.516   2.140   2.380  1.2203 -3.1156 -2.8389
  304SOL    HW2 1215   0.554   2.006   2.418  1.3141 -0.3804  1.7251
  304SOL     MW 1216   0.492   2.068   2.421  0.3503 -0.1069 -0.1865
  305SOL     OW 1217   1.176   0.558   0.499 -0.1083 -0.1187  0.4968
  305SOL    HW1 1218   1.088   0.539   0.513 -1.4137  0.5207 -0.6537
  305SOL    HW2 1219   1.230   0.481   0.479  0.5978 -1.0648  0.1472
  305SOL     MW 1220   1.171   0.546   0.498 -0.1874 -0.1592  0.2989
  306SOL     OW 1221   1.239   1.424   0.300  0.1403  0.6197  0.4238
  306SOL    HW1 1222   1.280   1.368   0.370 -2.0512  0.9699  1.1599
  306SOL    HW2 1223   1.285   1.396   0.227  0.1944 -2.4259 -0.5221
  306SOL     MW 1224   1.250   1.413   0.300 -0.1417  0.2640  0.3961
  307SOL     OW 1225   1.307   0.558   1.979  0.2426 -0.4977 -0.3708
  307SOL    HW1 1226   1.296   0.460   1.991 -1.1391 -0.8282 -3.0070
  307SOL    HW2 1227   1.366   0.585   2.045 -1.0173 -0.7799 -1.3136
  307SOL     MW 1228   1.314   0.548   1.989 -0.1060 -0.5785 -0.8430
  308SOL     OW 1229   2.130   0.608   2.722 -0.7247  0.0527 -0.5730
  308SOL    HW1 1230   2.104   0.514   2.745 -3.5587 -0.5222 -1.5474
  308SOL    HW2 1231   2.206   0.618   2.784  0.3211  1.9840  1.5321
  308SOL     MW 1232   2.136   0.597   2.733 -0.9607  0.2316 -0.4238
  309SOL     OW 1233   0.571   0.488   0.402 -0.1527 -0.2999  0.0735
  309SOL    HW1 1234   0.597   0.398   0.422 -1.5003 -0.8078  1.9453
  309SOL    HW2 1235   0.574   0.488   0.305 -1.4907 -0.0991 -1.2399
  309SOL     MW 1236   0.575   0.476   0.392 -0.5071 -0.3404  0.1472
  310SOL     OW 1237   0.421   0.521   1.913 -0.1764  0.5220  0.0641
  310SOL    HW1 1238   0.465   0.453   1.861 -0.3544 -1.3962 -0.4500
  310SOL    HW2 1239   0.490   0.588   1.930  1.0494 -0.9316  1.9741
  310SOL     MW 1240   0.436   0.521   1.909 -0.0382  0.0771  0.2483
  311SOL     OW 1241   1.916   0.773   1.965 -0.1273 -0.7766  0.5861
  311SOL    HW1 1242   1.886   0.784   2.054  2.4177  0.5879  0.7136
  311SOL    HW2 1243   1.978   0.698   1.965 -4.3065  0.1632  0.7114
  311SOL     MW 1244   1.920   0.764   1.976 -0.3429 -0.4726  0.6195
  312SOL     OW 1245   1.742   2.559   3.094  0.5911 -0.2018  0.4984
  312SOL    HW1 1246   1.764   2.594   3.181  0.2203 -1.8028  1.7740
  312SOL    HW2 1247   1.647   2.547   3.106 -2.6587 -2.1431 -1.6605
  312SOL     MW 1248   1.733   2.562   3.107  0.1134 -0.6691  0.3818
  313SOL     OW 1249   0.080   1.221   2.947  0.0238  0.5782  0.5659
  313SOL    HW1 1250   0.144   1.225   3.019 -1.1254  1.1363  2.3018
  313SOL    HW2 1251   0.140   1.217   2.867  0.2706 -0.9311 -0.1481
  313SOL     MW 1252   0.096   1.221   2.946 -0.0952  0.4527  0.7007
  314SOL     OW 1253   2.150   3.052   2.973  0.4429 -0.3465 -0.2373
  314SOL    HW1 1254   2.084   3.113   2.919 -0.4066  0.1012  0.8857
  314SOL    HW2 1255   2.195   3.106   3.038 -1.3191  0.2994 -0.3471
  314SOL     MW 1256   2.147   3.067   2.974  0.0984 -0.2022 -0.1036
  315SOL     OW 1257   1.571   1.974   3.031 -0.0735 -0.5041 -0.1261
  315SOL    HW1 1258   1.493   2.006   3.075 -2.1987 -0.7247 -0.0392
  315SOL    HW2 1259   1.571   2.021   2.944  0.7984  2.4704 -0.1062
  315SOL     MW 1260   1.561   1.984   3.025 -0.2389 -0.1407 -0.1120
  316SOL     OW 1261   1.239   0.675   2.678 -0.0266 -0.2251 -0.2422
  316SOL    HW1 1262   1.297   0.600   2.672  1.1361  0.0437 -0.2362
  316SOL    HW2 1263   1.242   0.708   2.771 -1.0434 -1.4040 -2.2451
  316SOL     MW 1264   1.247   0.669   2.689 -0.0074 -0.3452 -0.5056
  317SOL     OW 1265   0.655   1.381   2.568 -0.6229  0.3910 -0.1464
  317SOL    HW1 1266   0.658   1.332   2.651 -0.3565  1.0354 -2.6948
  317SOL    HW2 1267   0.743   1.388   2.523 -2.4907 -1.3302  1.1299
  317SOL     MW 1268   0.667   1.376   2.573 -0.8342  0.2490 -0.3143
  318SOL     OW 1269   1.270   0.344   2.914 -0.0519 -0.4821 -0.5498
  318SOL    HW1 1270   1.184   0.398   2.911  2.1930 -0.2983  0.4737
  318SOL    HW2 1271   1.339   0.397   2.871 -0.6112  0.0176  0.7827
  318SOL     MW 1272   1.268   0.358   2.908  0.1705 -0.3919 -0.2389
  319SOL     OW 1273   0.814   0.409   2.743  0.2434 -0.2170  0.2008
  319SOL    HW1 1274   0.792   0.343   2.671  0.4523  0.4319 -0.8744
  319SOL    HW2 1275   0.762   0.382   2.820 -0.8340  0.6444  0.7196
  319SOL     MW 1276   0.804   0.397   2.744  0.1288 -0.0177  0.1274
  320SOL     OW 1277   1.009   1.322   2.024 -0.3709 -0.0364  0.0434
  320SOL    HW1 1278   1.080   1.263   2.059  2.6999  0.3250 -0.2878
  320SOL    HW2 1279   1.066   1.390   1.982  2.3621 -1.0316 -1.0302
  320SOL     MW 1280   1.026   1.323   2.023  0.3949 -0.1200 -0.1419
  321SOL     OW 1281   1.111   0.969   2.990 -0.5138 -0.6202  0.3476
  321SOL    HW1 1282   1.026   0.940   2.947  0.5497  0.3854 -1.0481
  321SOL    HW2 1283   1.163   0.884   2.980  1.0892  0.8161  2.3658
  321SOL     MW 1284   1.107   0.954   2.983 -0.1620 -0.2980  0.4297
  322SOL     OW 1285   1.213   0.842   1.699 -0.1395 -0.9446  0.0216
  322SOL    HW1 1286   1.288   0.784   1.708  1.2886  0.6195 -0.4687
  322SOL    HW2 1287   1.187   0.876   1.783 -0.9913  0.3979 -0.8117
  322SOL     MW 1288   1.219   0.838   1.711 -0.0635 -0.5611 -0.1530
  323SOL     OW 1289   1.185   1.502   1.891 -0.3351  0.2315 -0.0830
  323SOL    HW1 1290   1.193   1.443   1.822 -0.2164  0.6100 -1.0484
  323SOL    HW2 1291   1.129   1.578   1.860  0.6204 -1.3012 -0.0607
  323SOL     MW 1292   1.178   1.504   1.878 -0.1934  0.0792 -0.2074
  324SOL     OW 1293   1.488   1.085   2.497  0.0048 -0.1408 -0.3037
  324SOL    HW1 1294   1.385   1.087   2.519 -2.5219 -2.0736  1.5629
  324SOL    HW2 1295   1.546   1.149   2.538  0.7920 -1.0446  1.0559
  324SOL     MW 1296   1.482   1.093   2.505 -0.2247 -0.5151  0.1220
  325SOL     OW 1297   1.033   0.483   2.924  0.5347  0.2681  0.0290
  325SOL    HW1 1298   1.003   0.549   2.985  2.3113 -1.9290 -0.8950
  325SOL    HW2 1299   0.973   0.487   2.848  0.2056 -4.2278 -1.8162
  325SOL     MW 1300   1.021   0.492   2.922  0.7257 -0.6150 -0.3364
  326SOL     OW 1301   0.388   1.399   2.179  0.0196 -0.1560  0.2116
  326SOL    HW1 1302   0.459   1.382   2.123 -1.2221  2.4327 -0.8915
  326SOL    HW2 1303   0.416   1.480   2.224 -0.8833  0.7928  2.8708
  326SOL     MW 1304   0.401   1.408   2.177 -0.2634  0.3107  0.4169
  327SOL     OW 1305   1.904   0.814   2.421  0.1848  0.3591 -0.2705
  327SOL    HW1 1306   1.896   0.770   2.509  0.2636 -1.0669  1.2492
  327SOL    HW2 1307   1.993   0.837   2.396 -0.1637 -0.0185 -2.5318
  327SOL     MW 1308   1.915   0.811   2.429  0.1492  0.1211 -0.3684
  328SOL     OW 1309   0.114   1.342   2.177  0.0327 -0.3098  0.3659
  328SOL    HW1 1310   0.089   1.255   2.146  0.7513 -0.4460 -1.0985
  328SOL    HW2 1311   0.205   1.336   2.200 -0.5942 -0.9274 -1.5783
  328SOL     MW 1312   0.123   1.330   2.176  0.0448 -0.4092 -0.0838
  329SOL     OW 1313   0.125   0.178   1.388 -0.7866 -0.2606  0.5739
  329SOL    HW1 1314   0.075   0.221   1.456  1.5132 -0.0950 -3.3668
  329SOL    HW2 1315   0.220   0.189   1.409  1.3938  2.0160 -2.0338
  329SOL     MW 1316   0.131   0.185   1.400 -0.1955  0.0616 -0.2901
  330SOL     OW 1317   0.401   2.957   2.091  0.1046  0.0932 -0.2609
  330SOL    HW1 1318   0.460   2.998   2.159 -1.7249  0.5359 -2.6817
  330SOL    HW2 1319   0.311   2.942   2.130 -2.2015  0.0145  0.4091
  330SOL     MW 1320   0.397   2.961   2.105 -0.4410  0.1412 -0.4919
  331SOL     OW 1321   0.789   1.202   2.259  1.0558 -0.2006  0.3497
  331SOL    HW1 1322   0.739   1.206   2.180  0.5127  1.9223 -1.4775
  331SOL    HW2 1323   0.813   1.291   2.279 -1.0157  0.8283 -1.8408
  331SOL     MW 1324   0.786   1.214   2.251  0.7108  0.2152 -0.1804
  332SOL     OW 1325   1.422   1.739   2.960  0.1380  0.4329  0.4986
  332SOL    HW1 1326   1.412   1.765   2.866  2.7190 -1.5236 -1.4915
  332SOL    HW2 1327   1.453   1.819   2.999 -0.6283  0.0675 -0.1967
  332SOL     MW 1328   1.425   1.753   2.953  0.3774  0.1265  0.1443
  333SOL     OW 1329   1.736   1.493   3.014 -0.1921  0.0978  0.2713
  333SOL    HW1 1330   1.831   1.480   3.015 -0.7976  0.1011 -1.6763
  333SOL    HW2 1331   1.708   1.420   3.071  0.2845 -0.3480  1.3768
  333SOL     MW 1332   1.745   1.482   3.022 -0.2091  0.0394  0.1602
  334SOL     OW 1333   1.202   3.091   2.618  0.3274  0.5582  0.5171
  334SOL    HW1 1334   1.125   3.093   2.677  3.1242 -2.1356 -2.2439
  334SOL    HW2 1335   1.242   3.178   2.625  0.2126  0.2234  2.1219
  334SOL     MW 1336   1.197   3.102   2.627  0.6812  0.1586  0.3646
  335SOL     OW 1337   1.269   0.739   2.948  0.1797  0.2909  0.5301
  335SOL    HW1 1338   1.276   0.727   3.041 -0.5118 -1.5783  2.1515
  335SOL    HW2 1339   1.334   0.802   2.918 -2.7362  1.7632  1.1693
  335SOL     MW 1340   1.279   0.746   2.956 -0.2963  0.2385  0.8284
  336SOL     OW 1341   0.907   1.087   1.855 -0.5013  0.6038  0.5089
  336SOL    HW1 1342   0.908   1.162   1.909 -0.2921  0.3791 -0.8894
  336SOL    HW2 1343   0.982   1.033   1.878  4.2001 -0.3740 -1.4659
  336SOL     MW 1344   0.917   1.090   1.865  0.1466  0.4451  0.0638
  337SOL     OW 1345   0.572   1.752   2.832 -0.5769  0.2721  0.3849
  337SOL    HW1 1346   0.512   1.761   2.758 -1.6258 -0.9871 -1.8747
  337SOL    HW2 1347   0.655   1.708   2.789  2.9101  2.6690  0.2692
  337SOL     MW 1348   0.575   1.748   2.817 -0.2552  0.4222  0.0715
  338SOL     OW 1349   1.051   0.821   2.533 -0.1077  0.9466 -0.8684
  338SOL    HW1 1350   0.972   0.774   2.563  0.4762 -1.8166  1.0520
  338SOL    HW2 1351   1.118   0.778   2.589  1.0912  0.0614  3.4354
  338SOL     MW 1352   1.050   0.809   2.544  0.1275  0.4652 -0.0472
  339SOL     OW 1353   1.494   1.121   1.829  0.6571  0.5157  0.1246
  339SOL    HW1 1354   1.423   1.137   1.765  1.5843  0.8255 -1.7666
  339SOL    HW2 1355   1.532   1.204   1.860  0.3503 -1.9625 -1.0052
  339SOL     MW 1356   1.489   1.134   1.824  0.7389  0.2296 -0.2740
  340SOL     OW 1357   1.322   1.588   0.065 -0.0544  0.1500  0.0372
  340SOL    HW1 1358   1.346   1.612  -0.022  0.9249  1.3232  2.4867
  340SOL    HW2 1359   1.405   1.592   0.120  0.9660  3.1055 -0.1827
  340SOL     MW 1360   1.336   1.591   0.061  0.2095  0.6947  0.3314
  341SOL     OW 1361   0.167   1.323   2.679  0.4500  0.8602 -0.1158
  341SOL    HW1 1362   0.228   1.398   2.685 -0.7326  3.6581 -0.4275
  341SOL    HW2 1363   0.135   1.326   2.589 -1.5566  0.3670 -1.7449
  341SOL     MW 1364   0.171   1.333   2.668  0.0292  1.1643 -0.3719
  342SOL     OW 1365   1.416   0.294   0.092 -0.2329  0.0517 -0.2272
  342SOL    HW1 1366   1.438   0.352   0.169  1.6387 -0.0147  2.8975
  342SOL    HW2 1367   1.456   0.330   0.015 -1.2606 -1.4100 -0.8363
  342SOL     MW 1368   1.424   0.306   0.092 -0.1216 -0.1499  0.1047
  343SOL     OW 1369   0.185   0.294   2.325 -0.1298  0.3680  0.2595
  343SOL    HW1 1370   0.226   0.215   2.362 -2.0153 -1.6430  1.1330
  343SOL    HW2 1371   0.134   0.262   2.246 -0.7977  1.2972  0.5679
  343SOL     MW 1372   0.184   0.280   2.319 -0.4667  0.2252  0.4155
  344SOL     OW 1373   1.717   2.161   0.129  0.2384  0.0766  0.6399
  344SOL    HW1 1374   1.746   2.235   0.076  0.0852 -2.2867  0.8192
  344SOL    HW2 1375   1.712   2.085   0.062  0.0281 -1.1214 -1.5744
  344SOL     MW 1376   1.720   2.161   0.113  0.1904 -0.3933  0.3714
  345SOL     OW 1377   0.668   1.622   2.353  0.3531  0.1032  0.0080
  345SOL    HW1 1378   0.573   1.629   2.343 -0.7027 -2.0709 -1.3240
  345SOL    HW2 1379   0.704   1.555   2.288 -0.3051 -0.4681  1.4040
  345SOL     MW 1380   0.660   1.614   2.343  0.1269 -0.2590  0.0164
  346SOL     OW 1381   1.682   1.045   0.002  0.3957 -0.0877  0.0752
  346SOL    HW1 1382   1.774   1.044   0.017 -0.3977 -0.8264 -0.8513
  346SOL    HW2 1383   1.656   0.962   0.047  2.2560  0.2603  3.0978
  346SOL     MW 1384   1.691   1.034   0.010  0.5364 -0.1392  0.3517
  347SOL     OW 1385   1.183   0.627   2.369 -0.2002 -0.3903  0.4014
  347SOL    HW1 1386   1.281   0.621   2.396  0.9101 -1.3049 -0.6295
  347SOL    HW2 1387   1.152   0.706   2.411  2.3384 -1.4792 -1.3400
  347SOL     MW 1388   1.192   0.636   2.378  0.2812 -0.6547  0.0356
  348SOL     OW 1389   1.367   2.641   1.861 -0.0776 -0.3697  0.1656
  348SOL    HW1 1390   1.403   2.556   1.909  1.6158 -0.9200  0.0857
  348SOL    HW2 1391   1.390   2.719   1.917  2.6320 -1.6471  1.1557
  348SOL     MW 1392   1.375   2.640   1.874  0.5033 -0.6108  0.2857
  349SOL     OW 1393   1.362   0.196   2.686  0.0931  0.3875 -0.0910
  349SOL    HW1 1394   1.320   0.201   2.774 -1.5643 -0.2160 -1.3199
  349SOL    HW2 1395   1.455   0.166   2.703  0.7088 -0.2101  1.9241
  349SOL     MW 1396   1.369   0.192   2.700 -0.0443  0.2290  0.0128
  350SOL     OW 1397   1.858   0.670   2.646  0.1320  0.3792  0.0813
  350SOL    HW1 1398   1.821   0.606   2.581 -0.3101  1.2378 -2.3908
  350SOL    HW2 1399   1.954   0.657   2.662  1.3436 -1.7781  0.0403
  350SOL     MW 1400   1.866   0.660   2.639  0.2335  0.2079 -0.2503
  351SOL     OW 1401   3.097   0.936   1.569 -0.5180 -0.6566  0.2978
  351SOL    HW1 1402   3.030   0.963   1.631 -2.2488 -1.1135 -0.5976
  351SOL    HW2 1403   3.146   1.017   1.551  0.8785 -0.6438 -0.8083
  351SOL     MW 1404   3.095   0.950   1.574 -0.5621 -0.7152  0.0337
  352SOL     OW 1405   0.774   1.596   2.754 -0.2144  0.2400  0.0429
  352SOL    HW1 1406   0.791   1.572   2.852  0.4936 -0.5064  3.6960
  352SOL    HW2 1407   0.773   1.514   2.706  0.5703  1.1394  2.0261
  352SOL     MW 1408   0.776   1.582   2.761 -0.0174  0.2602  0.7865
  353SOL     OW 1409   3.053   2.416   2.753 -0.2733 -0.4904 -0.1279
  353SOL    HW1 1410   3.134   2.396   2.712  0.8845 -0.6057  2.8508
  353SOL    HW2 1411   3.036   2.510   2.731  1.3128 -0.5837 -2.2833
  353SOL     MW 1412   3.061   2.426   2.745  0.0887 -0.5179 -0.0193
  354SOL     OW 1413   0.403   2.419   0.881  0.5642 -0.1431  0.0263
  354SOL    HW1 1414   0.435   2.411   0.975 -1.3043 -1.6834 -0.9432
  354SOL    HW2 1415   0.326   2.359   0.880 -1.2137 -1.0599  1.9974
  354SOL     MW 1416   0.397   2.410   0.893  0.0831 -0.4673  0.1585
  355SOL     OW 1417   0.081   2.255   0.364  0.3738  0.2880  0.3754
  355SOL    HW1 1418  -0.010   2.220   0.360 -1.6955  0.7605 -1.2318
  355SOL    HW2 1419   0.075   2.312   0.441 -1.9948 -1.1228 -0.8449
  355SOL     MW 1420   0.068   2.258   0.374 -0.2118  0.1642  0.0023
  356SOL     OW 1421   0.774   2.972   0.992  0.5516  0.4849  0.2320
  356SOL    HW1 1422   0.853   2.948   0.942  2.9792  0.9394  0.0799
  356SOL    HW2 1423   0.707   2.906   0.960  0.5789  2.7929 -0.8647
  356SOL     MW 1424   0.775   2.960   0.981  0.8755  0.8494  0.0672
  357SOL     OW 1425   1.812   2.959   0.362  0.3951 -0.3151 -0.3373
  357SOL    HW1 1426   1.764   2.898   0.416  1.2717 -1.4797  1.0869
  357SOL    HW2 1427   1.893   2.924   0.322  0.2203  1.4954  1.8234
  357SOL     MW 1428   1.816   2.946   0.364  0.4877 -0.2299  0.1357
  358SOL     OW 1429   0.452   0.175   1.068 -0.5289  0.3996  0.1016
  358SOL    HW1 1430   0.543   0.150   1.024  2.2446 -0.5657 -0.3045
  358SOL    HW2 1431   0.404   0.211   0.995 -1.0578 -0.1124 -0.6356
  358SOL     MW 1432   0.458   0.176   1.053 -0.2327  0.2047 -0.0492
  359SOL     OW 1433   0.941   2.773   1.887  0.8507 -0.1901 -0.7914
  359SOL    HW1 1434   0.902   2.696   1.925  3.6134  3.2523  2.3794
  359SOL    HW2 1435   0.997   2.743   1.820  1.8829  1.1238 -0.0060
  359SOL     MW 1436   0.943   2.759   1.884  1.3514  0.4374 -0.2694
  360SOL     OW 1437   0.572   2.771   0.907  0.5110  0.1692  0.3208
  360SOL    HW1 1438   0.571   2.711   0.833  0.7239 -0.5891  0.1385
  360SOL    HW2 1439   0.573   2.726   0.997  1.7901 -0.4484 -0.2080
  360SOL     MW 1440   0.572   2.757   0.909  0.7079 -0.0123  0.2269
  361SOL     OW 1441   0.183   2.769   1.379 -0.2701  0.4473 -0.2589
  361SOL    HW1 1442   0.178   2.861   1.387 -1.6481 -2.5202  1.0078
  361SOL    HW2 1443   0.271   2.736   1.404 -0.7316 -1.8958 -1.2475
  361SOL     MW 1444   0.194   2.777   1.383 -0.5128 -0.2534 -0.2222
  362SOL     OW 1445   1.492   2.397   0.591 -0.3805  0.0166 -0.0585
  362SOL    HW1 1446   1.502   2.320   0.651  0.5441 -1.9483 -0.7953
  362SOL    HW2 1447   1.492   2.468   0.657 -0.0507 -2.7014  1.4473
  362SOL     MW 1448   1.493   2.397   0.608 -0.2150 -0.6013  0.0430
  363SOL     OW 1449   0.216   3.018   0.720 -0.5342 -0.1389  0.2190
  363SOL    HW1 1450   0.224   2.955   0.789 -0.2079  3.0226 -1.8006
  363SOL    HW2 1451   0.148   3.000   0.658  2.4035 -0.6808 -0.7703
  363SOL     MW 1452   0.208   3.007   0.721 -0.1036  0.2067 -0.1780
  364SOL     OW 1453   0.740   0.192   0.194 -0.1536  0.2444 -0.5413
  364SOL    HW1 1454   0.715   0.104   0.173 -3.0876  0.9117 -2.2672
  364SOL    HW2 1455   0.653   0.244   0.197  0.5262  1.3435  0.1843
  364SOL     MW 1456   0.725   0.187   0.192 -0.4510  0.4775 -0.6733
  365SOL     OW 1457   0.991   1.977   1.157 -0.5532  0.0455 -0.8625
  365SOL    HW1 1458   0.994   2.061   1.120  0.7496 -1.5083  0.1619
  365SOL    HW2 1459   0.949   1.922   1.096  1.5297 -0.7565 -2.3422
  365SOL     MW 1460   0.986   1.981   1.144 -0.1065 -0.2653 -0.9226
  366SOL     OW 1461   2.859   2.664   1.025  0.0926  0.7314  0.4799
  366SOL    HW1 1462   2.945   2.649   1.078  1.1767 -1.3853  0.8650
  366SOL    HW2 1463   2.886   2.685   0.933  0.3939 -0.4370 -0.6998
  366SOL     MW 1464   2.874   2.665   1.020  0.2754  0.2980  0.3751
  367SOL     OW 1465   1.275   2.909   0.886  0.3338 -0.3592  0.6596
  367SOL    HW1 1466   1.214   2.990   0.876 -1.3005 -0.7381 -1.0965
  367SOL    HW2 1467   1.244   2.846   0.816  2.1043 -1.1902 -2.1581
  367SOL     MW 1468   1.263   2.912   0.875  0.3518 -0.5188  0.0561
  368SOL     OW 1469   1.688   0.446   0.657 -0.0548  0.3277  0.3953
  368SOL    HW1 1470   1.767   0.392   0.644 -0.7632 -1.3880  0.2854
  368SOL    HW2 1471   1.714   0.532   0.688  1.7121  3.9743 -1.0198
  368SOL     MW 1472   1.702   0.450   0.659  0.0849  0.5825  0.1941
  369SOL     OW 1473   0.143   2.478   1.749 -0.5248 -0.1658  0.2261
  369SOL    HW1 1474   0.235   2.440   1.762  1.0453  2.7045 -0.1925
  369SOL    HW2 1475   0.141   2.557   1.794 -1.1833  1.2621 -3.8991
  369SOL     MW 1476   0.155   2.483   1.757 -0.4045  0.4013 -0.3734
  370SOL     OW 1477   0.660   0.116   0.921 -0.1326  0.1861  0.9594
  370SOL    HW1 1478   0.728   0.190   0.915  2.0211 -0.5254 -0.3267
  370SOL    HW2 1479   0.710   0.032   0.946  0.7957  0.0695  2.6564
  370SOL     MW 1480   0.676   0.114   0.923  0.2741  0.0768  1.0136
  371SOL     OW 1481   1.338   2.975   1.519 -0.0442  0.2316  0.3753
  371SOL    HW1 1482   1.258   2.919   1.503 -1.8253 -1.9545  3.4538
  371SOL    HW2 1483   1.354   3.029   1.442 -0.6346  0.3051  2.1692
  371SOL     MW 1484   1.329   2.975   1.507 -0.3571 -0.0472  1.0181
  372SOL     OW 1485   0.795   2.271   0.497  0.0487 -0.1871 -0.0555
  372SOL    HW1 1486   0.740   2.191   0.514  0.9093 -2.7781  4.5722
  372SOL    HW2 1487   0.818   2.285   0.405  1.9732  0.0284  0.5115
  372SOL     MW 1488   0.791   2.262   0.487  0.4162 -0.5005  0.6299
  373SOL     OW 1489   2.814   2.998   1.409  0.6401  0.5811 -0.3330
  373SOL    HW1 1490   2.874   2.957   1.346 -0.6244  1.0480 -0.5334
  373SOL    HW2 1491   2.782   3.075   1.361 -0.2906 -0.5625 -1.3866
  373SOL     MW 1492   2.818   3.003   1.395  0.3505  0.4919 -0.4985
  374SOL     OW 1493   1.485   0.509   0.235  0.1236  0.4061 -0.1989
  374SOL    HW1 1494   1.559   0.537   0.189 -0.9053  1.8471  2.4883
  374SOL    HW2 1495   1.514   0.454   0.306  1.1294  1.0507  0.0191
  374SOL     MW 1496   1.499   0.505   0.238  0.1205  0.6813  0.1844
  375SOL     OW 1497   1.125   2.097   2.252  0.3612  0.0960  0.2713
  375SOL    HW1 1498   1.145   2.125   2.346  0.5329  1.7082  0.9658
  375SOL    HW2 1499   1.099   2.000   2.272  1.8899  0.3842  3.4432
  375SOL     MW 1500   1.124   2.088   2.267  0.5855  0.3468  0.7814
  376SOL     OW 1501   0.695   2.545   0.132  0.3344  0.0605 -0.0083
  376SOL    HW1 1502   0.717   2.458   0.176 -1.3090 -1.1119  1.5822
  376SOL    HW2 1503   0.627   2.518   0.070  0.5863  0.1183 -1.8668
  376SOL     MW 1504   0.689   2.530   0.130  0.1508 -0.0865 -0.0437
  377SOL     OW 1505   1.238   2.068   0.945 -0.6548 -0.2827  0.2518
  377SOL    HW1 1506   1.206   2.048   0.856 -2.1200  2.5990 -0.3747
  377SOL    HW2 1507   1.266   1.988   0.990  0.7812  2.6130 -1.1890
  377SOL     MW 1508   1.238   2.055   0.939 -0.6586  0.4796 -0.0210
  378SOL     OW 1509   0.973   2.816   1.486  0.0181 -0.2612  0.0958
  378SOL    HW1 1510   0.923   2.746   1.532 -1.8496 -1.2231 -1.6291
  378SOL    HW2 1511   0.909   2.847   1.419 -0.9929 -0.6403 -0.5933
  378SOL     MW 1512   0.958   2.811   1.483 -0.3618 -0.4381 -0.2227
  379SOL     OW 1513   1.045   1.849   2.319  0.0535 -0.1838 -0.0713
  379SOL    HW1 1514   0.949   1.865   2.319 -1.2798 -0.8450 -4.0802
  379SOL    HW2 1515   1.066   1.767   2.276  1.8960 -1.7070 -0.1179
  379SOL     MW 1516   1.035   1.840   2.314  0.1207 -0.4720 -0.6064
  380SOL     OW 1517   0.876   0.219   1.556 -0.8535 -0.2057  0.0858
  380SOL    HW1 1518   0.905   0.175   1.470 -0.2033 -3.3569 -1.7031
  380SOL    HW2 1519   0.949   0.209   1.615  1.5261  0.4749 -0.7514
  380SOL     MW 1520   0.890   0.212   1.553 -0.4538 -0.5317 -0.2607
  381SOL     OW 1521   0.839   2.028   0.806 -0.6082 -0.3343 -0.2382
  381SOL    HW1 1522   0.932   2.006   0.785 -1.8498  0.4310  0.0407
  381SOL    HW2 1523   0.854   2.105   0.864 -0.3646  1.1699 -0.1845
  381SOL     MW 1524   0.853   2.035   0.811 -0.7399 -0.0348 -0.1943
  382SOL     OW 1525   0.683   0.039   0.639  0.1239  0.1803  0.5494
  382SOL    HW1 1526   0.677   0.060   0.731 -1.0112 -1.1544  0.5828
  382SOL    HW2 1527   0.643  -0.050   0.632  2.2346  1.2088 -3.7803
  382SOL     MW 1528   0.677   0.030   0.651  0.2526  0.1399 -0.0175
  383SOL     OW 1529   0.495   0.014   0.347  0.1868 -0.0050 -0.1740
  383SOL    HW1 1530   0.497   0.037   0.444  0.7555  0.4958  0.5530
  383SOL    HW2 1531   0.403  -0.003   0.319  3.2893 -0.4125  2.3968
  383SOL     MW 1532   0.483   0.015   0.356  0.6712  0.0073  0.2611
  384SOL     OW 1533   0.604   2.863   0.581 -0.6953  0.3887 -0.0654
  384SOL    HW1 1534   0.613   2.783   0.637 -1.2234 -0.1313 -0.8393
  384SOL    HW2 1535   0.515   2.855   0.542  2.8181  0.4944 -0.8752
  384SOL     MW 1536   0.594   2.851   0.583 -0.3014  0.3340 -0.2743
  385SOL     OW 1537   1.323   2.062   1.567  0.6517  0.4385  0.2302
  385SOL    HW1 1538   1.402   2.086   1.619  2.0825 -2.8159  1.3833
  385SOL    HW2 1539   1.316   1.966   1.582  3.2717  0.5847 -0.5966
  385SOL     MW 1540   1.333   2.052   1.576  1.1862  0.0284  0.2733
  386SOL     OW 1541   1.355   0.441   0.894  0.0950 -0.1939 -0.1840
  386SOL    HW1 1542   1.283   0.385   0.859 -0.2366 -3.5339  0.2651
  386SOL    HW2 1543   1.336   0.449   0.988 -1.4426  0.0043 -0.4263
  386SOL     MW 1544   1.343   0.434   0.902 -0.1516 -0.6084 -0.1567
  387SOL     OW 1545   0.901   2.165   1.469 -0.2083 -0.5204 -0.4034
  387SOL    HW1 1546   0.952   2.224   1.411 -1.6869 -3.2827  0.3037
  387SOL    HW2 1547   0.929   2.068   1.454  1.5659 -3.1660  1.6615
  387SOL     MW 1548   0.912   2.160   1.459 -0.1693 -1.2339 -0.0376
  388SOL     OW 1549   1.564   2.857   1.186 -0.5026 -0.2442 -0.5442
  388SOL    HW1 1550   1.492   2.805   1.160 -0.4049 -0.3276 -1.0539
  388SOL    HW2 1551   1.633   2.818   1.133  0.8384 -1.3635  0.8500
  388SOL     MW 1552   1.564   2.845   1.176 -0.3128 -0.4029 -0.4275
  389SOL     OW 1553   0.416   0.155   3.092 -0.5192  0.7096  0.1897
  389SOL    HW1 1554   0.491   0.100   3.065  0.1915  0.1165 -1.5233
  389SOL    HW2 1555   0.346   0.100   3.112 -2.3374  0.1896 -1.7173
  389SOL     MW 1556   0.417   0.140   3.091 -0.6653  0.5627 -0.2879
  390SOL     OW 1557   1.384   0.062   0.637 -0.1528 -0.0055 -1.0634
  390SOL    HW1 1558   1.474   0.065   0.609 -0.5601 -0.2678  0.4207
  390SOL    HW2 1559   1.377   0.102   0.726  0.1308  2.1554 -1.2654
  390SOL     MW 1560   1.395   0.067   0.645 -0.1691  0.2450 -0.8942
  391SOL     OW 1561   0.265   2.313   1.429 -0.2294 -0.2516  0.2890
  391SOL    HW1 1562   0.237   2.235   1.486 -2.1383  0.2244  1.6434
  391SOL    HW2 1563   0.206   2.389   1.442 -0.5315 -1.6467  1.5630
  391SOL     MW 1564   0.254   2.313   1.438 -0.5211 -0.3729  0.6358
  392SOL     OW 1565   1.976   2.177   0.305 -0.1317 -0.6882  0.2557
  392SOL    HW1 1566   1.904   2.224   0.356 -0.3698  1.4585  0.6403
  392SOL    HW2 1567   2.035   2.147   0.379  0.8718 -0.7791  0.1897
  392SOL     MW 1568   1.974   2.179   0.321 -0.0307 -0.4170  0.2977
  393SOL     OW 1569   0.205   3.026   2.934  0.1718 -0.0601 -0.5039
  393SOL    HW1 1570   0.276   3.084   2.911 -3.8963  0.4426  0.6920
  393SOL    HW2 1571   0.137   3.055   2.871 -0.4765  0.9735  0.7840
  393SOL     MW 1572   0.205   3.037   2.923 -0.4505  0.1426 -0.1761
  394SOL     OW 1573   0.842   1.648   1.436 -0.1268 -0.1028 -0.1659
  394SOL    HW1 1574   0.788   1.675   1.513  1.6893  1.6170  2.1913
  394SOL    HW2 1575   0.871   1.731   1.409 -4.1799 -2.8526  1.7001
  394SOL     MW 1576   0.839   1.662   1.442 -0.4219 -0.2387  0.3913
  395SOL     OW 1577   0.939   2.877   2.590 -0.5250  0.6026 -0.7536
  395SOL    HW1 1578   0.966   2.943   2.658 -0.1759  1.1749  1.7592
  395SOL    HW2 1579   1.017   2.826   2.552  2.2081  1.6836  0.7682
  395SOL     MW 1580   0.953   2.879   2.594 -0.1183  0.8207 -0.2213
  396SOL     OW 1581   0.761   1.862   2.370  0.3226  0.3880  0.4195
  396SOL    HW1 1582   0.794   1.872   2.460 -0.8985 -1.0001  0.2967
  396SOL    HW2 1583   0.721   1.772   2.369 -0.6448 -0.2202 -0.6494
  396SOL     MW 1584   0.760   1.852   2.382  0.0338  0.1246  0.2622
  397SOL     OW 1585   1.020   2.354   1.311 -0.2337  0.0201  0.2799
  397SOL    HW1 1586   1.064   2.410   1.240 -0.6709  1.9110  0.5639
  397SOL    HW2 1587   1.090   2.352   1.380  0.8528 -1.7973  2.6990
  397SOL     MW 1588   1.035   2.361   1.310 -0.1480  0.0298  0.6365
  398SOL     OW 1589   0.578   2.599   0.685  0.6038 -0.0386  0.1464
  398SOL    HW1 1590   0.503   2.550   0.640 -2.9432 -2.4012  1.4322
  398SOL    HW2 1591   0.659   2.564   0.652  2.6388  2.0190  1.3483
  398SOL     MW 1592   0.579   2.588   0.674  0.4043 -0.0788  0.4746
  399SOL     OW 1593   0.278   2.063   0.348  0.2427  0.1845  0.1603
  399SOL    HW1 1594   0.217   2.129   0.336  1.7969 -2.4644  0.8843
  399SOL    HW2 1595   0.344   2.067   0.279 -1.8677  0.8626  1.7891
  399SOL     MW 1596   0.279   2.072   0.337  0.1693 -0.0755  0.4707
  400SOL     OW 1597   0.627   1.846   0.189  0.0365  0.2594 -0.3779
  400SOL    HW1 1598   0.565   1.920   0.182  1.5940  1.3211  0.7531
  400SOL    HW2 1599   0.572   1.787   0.245 -0.3123 -0.0331  0.1415
  400SOL     MW 1600   0.611   1.848   0.195  0.1960  0.3609 -0.1601
  401SOL     OW 1601   1.031   2.099   0.049 -0.2642 -0.1258 -0.2222
  401SOL    HW1 1602   1.018   2.007   0.035 -0.6424 -2.2777 -1.0583
  401SOL    HW2 1603   1.065   2.115   0.143  0.6715 -0.7860  0.3038
  401SOL     MW 1604   1.034   2.089   0.060 -0.1906 -0.4968 -0.2631
  402SOL     OW 1605   0.695   2.815   1.715  0.2313  0.9605 -0.0671
  402SOL    HW1 1606   0.624   2.820   1.784 -0.4243  0.7617  0.5516
  402SOL    HW2 1607   0.775   2.828   1.765  0.0700  1.1276 -2.6732
  402SOL     MW 1608   0.696   2.817   1.731  0.1235  0.9563 -0.3293
  403SOL     OW 1609   0.056   0.557   0.359 -0.5059 -0.1385  0.6199
  403SOL    HW1 1610   0.142   0.567   0.398  0.9400  0.4832  1.7015
  403SOL    HW2 1611   0.076   0.508   0.273 -1.0403 -3.5036 -1.0963
  403SOL     MW 1612   0.070   0.552   0.353 -0.3856 -0.5004  0.5361
  404SOL     OW 1613   0.977   2.890   0.842 -0.2382 -0.2134 -0.4158
  404SOL    HW1 1614   1.040   2.827   0.799  0.9964  1.8814 -0.7372
  404SOL    HW2 1615   0.991   2.976   0.797 -2.3240  0.0076  1.9061
  404SOL     MW 1616   0.987   2.893   0.830 -0.3505  0.0922 -0.1519
  405SOL     OW 1617   0.464   2.459   1.554  0.1987  0.0431 -0.2001
  405SOL    HW1 1618   0.474   2.545   1.529  1.1356  1.1193  2.8055
  405SOL    HW2 1619   0.400   2.411   1.491  0.3560  1.4659  0.8664
  405SOL     MW 1620   0.457   2.464   1.543  0.3431  0.3728  0.3372
  406SOL     OW 1621   0.418   2.406   1.153 -0.0656 -0.2276 -0.4028
  406SOL    HW1 1622   0.323   2.406   1.143  1.1395 -3.0335 -0.3928
  406SOL    HW2 1623   0.431   2.326   1.210 -1.3824 -2.1492  2.1206
  406SOL     MW 1624   0.407   2.396   1.159 -0.0803 -0.8513 -0.0685
  407SOL     OW 1625   0.005   2.678   1.168  0.0814 -0.1845 -0.1541
  407SOL    HW1 1626   0.055   2.675   1.247 -0.3725  1.2810 -5.5041
  407SOL    HW2 1627   0.076   2.682   1.108 -0.2440  0.3191  2.2931
  407SOL     MW 1628   0.021   2.678   1.171 -0.0214  0.0753 -0.5371
  408SOL     OW 1629   2.112   2.117   0.548  0.2838  1.1002  0.1796
  408SOL    HW1 1630   2.123   2.205   0.587 -0.8048 -0.1369 -0.4907
  408SOL    HW2 1631   2.040   2.064   0.598 -2.6054 -2.0107  1.5406
  408SOL     MW 1632   2.104   2.122   0.559 -0.2410  0.5265  0.2707
  409SOL     OW 1633   1.380   0.147   0.883  0.1417 -0.5300  0.1278
  409SOL    HW1 1634   1.423   0.231   0.888 -0.3906 -3.4232  0.9608
  409SOL    HW2 1635   1.446   0.090   0.926 -0.6314 -1.4370  1.0587
  409SOL     MW 1636   1.395   0.150   0.889 -0.0305 -1.0314  0.3605
  410SOL     OW 1637   1.081   2.494   1.078  0.2015 -0.3152 -0.2039
  410SOL    HW1 1638   1.010   2.478   1.017  0.5448  2.3915  3.0512
  410SOL    HW2 1639   1.151   2.430   1.057  0.7302  0.7377  0.0809
  410SOL     MW 1640   1.081   2.483   1.067  0.3166  0.1808  0.2632
  411SOL     OW 1641   1.954   0.109   2.855  0.0179  0.6688 -1.1236
  411SOL    HW1 1642   1.911   0.052   2.787  0.6748 -1.5415  0.1861
  411SOL    HW2 1643   1.889   0.135   2.924  0.7797  0.6234  1.0183
  411SOL     MW 1644   1.939   0.105   2.855  0.2051  0.3712 -0.6682
  412SOL     OW 1645   1.066   2.213   0.557  0.8138 -0.0964 -0.1620
  412SOL    HW1 1646   1.104   2.300   0.583 -0.8367 -0.3618  0.7893
  412SOL    HW2 1647   0.969   2.218   0.550  0.8903  2.8462  1.8313
  412SOL     MW 1648   1.058   2.225   0.559  0.6061  0.2569  0.2265
  413SOL     OW 1649   0.549   2.785   0.167  0.0586  0.1396  0.4050
  413SOL    HW1 1650   0.619   2.714   0.182  0.7829 -2.0182  2.0337
  413SOL    HW2 1651   0.566   2.827   0.079 -0.2352  1.3386  1.4936
  413SOL     MW 1652   0.560   2.782   0.158  0.1154  0.0131  0.7636
  414SOL     OW 1653   2.002   3.022   1.034 -0.2972 -0.4564 -0.0930
  414SOL    HW1 1654   1.930   2.983   0.978 -0.9241  2.9064  3.3742
  414SOL    HW2 1655   2.071   2.958   1.041  0.5270 -0.9359  2.6780
  414SOL     MW 1656   2.001   3.009   1.028 -0.2711 -0.0760  0.7301
  415SOL     OW 1657   1.757   2.692   1.069  0.0964  0.0504 -0.1640
  415SOL    HW1 1658   1.700   2.642   1.126 -2.0814  0.0889 -1.9363
  415SOL    HW2 1659   1.827   2.734   1.122 -1.9953 -0.9201  1.1889
  415SOL     MW 1660   1.759   2.691   1.084 -0.4669 -0.0726 -0.2193
  416SOL     OW 1661   0.607   1.937   1.369  0.1009 -0.1062 -0.1536
  416SOL    HW1 1662   0.562   2.019   1.343 -1.0701 -0.3708 -1.5978
  416SOL    HW2 1663   0.604   1.885   1.285 -0.6824 -0.8264 -0.5618
  416SOL     MW 1664   0.601   1.941   1.355 -0.1569 -0.2362 -0.3981
  417SOL     OW 1665   1.081   3.012   1.962 -0.7505  0.4743 -0.0384
  417SOL    HW1 1666   1.028   3.030   2.041 -0.7921  1.1546  1.2644
  417SOL    HW2 1667   1.039   2.932   1.925 -1.7823 -0.6508  2.3863
  417SOL     MW 1668   1.068   3.004   1.967 -0.8921  0.4156  0.4534
  418SOL     OW 1669   0.737   3.002   0.193  0.0752 -0.3496  0.0558
  418SOL    HW1 1670   0.791   2.943   0.138 -0.2866  0.1632  0.4770
  418SOL    HW2 1671   0.656   2.948   0.191 -0.9709  1.3715 -0.0221
  418SOL     MW 1672   0.734   2.987   0.186 -0.1106 -0.0549  0.1011
  419SOL     OW 1673   0.441   2.693   1.400 -0.1459  0.1667 -0.0483
  419SOL    HW1 1674   0.515   2.758   1.413 -0.8466  1.0035  1.4158
  419SOL    HW2 1675   0.476   2.654   1.318  1.6836  0.3368 -0.7490
  419SOL     MW 1676   0.456   2.696   1.391  0.0030  0.2996  0.0525
  420SOL     OW 1677   0.913   2.223   1.014  0.0186 -0.1130  0.4858
  420SOL    HW1 1678   0.852   2.210   1.088 -1.2479 -2.5495  0.7401
  420SOL    HW2 1679   0.893   2.302   0.962  1.1520 -2.3501 -1.9464
  420SOL     MW 1680   0.902   2.232   1.017  0.0010 -0.7296  0.1984
  421SOL     OW 1681   2.936   0.115   0.044 -0.2165 -0.6200 -0.2586
  421SOL    HW1 1682   2.896   0.099  -0.043  1.5685  2.8176  1.7344
  421SOL    HW2 1683   2.966   0.027   0.061 -0.6993  0.0980 -2.5531
  421SOL     MW 1684   2.934   0.102   0.034 -0.0447 -0.0717 -0.2984
  422SOL     OW 1685   0.874   2.463   0.880 -0.1370 -0.0952 -0.5401
  422SOL    HW1 1686   0.790   2.505   0.900 -0.3703  0.3292 -0.0256
  422SOL    HW2 1687   0.888   2.494   0.786  0.9765  0.3323  2.4800
  422SOL     MW 1688   0.865   2.472   0.870 -0.0209  0.0172 -0.0737
  423SOL     OW 1689   1.606   0.131   0.503 -0.2672  0.3799  0.0797
  423SOL    HW1 1690   1.598   0.110   0.411  0.2517  1.6629  0.3290
  423SOL    HW2 1691   1.580   0.220   0.505 -1.6576 -2.0902 -0.6845
  423SOL     MW 1692   1.602   0.140   0.491 -0.3822  0.2233  0.0118
  424SOL     OW 1693   0.739   2.194   1.232  0.3991  0.3035  0.3331
  424SOL    HW1 1694   0.649   2.210   1.261 -0.5432 -0.3486  2.5860
  424SOL    HW2 1695   0.783   2.177   1.314 -3.8271  0.0570  1.0553
  424SOL     MW 1696   0.733   2.194   1.246 -0.2829  0.1849  0.7256
  425SOL     OW 1697   1.734   2.835   2.040 -0.0427  0.6813 -0.1263
  425SOL    HW1 1698   1.728   2.816   1.943 -0.6527  0.0483 -1.0415
  425SOL    HW2 1699   1.746   2.748   2.079  0.0047  2.3665 -1.0796
  425SOL     MW 1700   1.735   2.821   2.032 -0.1169  0.8201 -0.3728
  426SOL     OW 1701   0.738   1.594   1.912 -0.1328  0.5239  0.1278
  426SOL    HW1 1702   0.721   1.574   1.823 -0.8917  1.4427 -1.5220
  426SOL    HW2 1703   0.715   1.687   1.931 -0.8713  0.2195  0.8225
  426SOL     MW 1704   0.733   1.603   1.903 -0.3303  0.6050  0.0018
  427SOL     OW 1705   0.378   1.546   1.849 -0.0963 -0.1274  0.1855
  427SOL    HW1 1706   0.427   1.468   1.821 -0.2654  3.3000  0.3503
  427SOL    HW2 1707   0.290   1.521   1.880 -0.3140  0.0748  0.5719
  427SOL     MW 1708   0.373   1.533   1.850 -0.1473  0.3515  0.2582
  428SOL     OW 1709   0.589   2.630   1.168  0.0124  0.4151 -0.3748
  428SOL    HW1 1710   0.680   2.612   1.207  1.6846 -1.4199  0.7601
  428SOL    HW2 1711   0.547   2.544   1.148  1.4303  0.2042 -1.3097
  428SOL     MW 1712   0.596   2.616   1.171  0.4201  0.1452 -0.3484
  429SOL     OW 1713   1.328   2.706   1.044 -0.1657  0.0009  0.0953
  429SOL    HW1 1714   1.244   2.697   1.085 -1.8136  0.1844 -0.5343
  429SOL    HW2 1715   1.308   2.788   0.999 -0.4866 -1.8694  0.8034
  429SOL     MW 1716   1.314   2.716   1.044 -0.4255 -0.2216  0.1057
  430SOL     OW 1717   1.166   2.746   0.704  0.2443 -0.3271 -0.0541
  430SOL    HW1 1718   1.208   2.661   0.701  0.2787 -0.5752  1.3332
  430SOL    HW2 1719   1.121   2.738   0.618  0.9891 -0.9966 -0.1585
  430SOL     MW 1720   1.166   2.734   0.693  0.3471 -0.4482  0.1151
  431SOL     OW 1721   0.356   1.981   1.126 -0.3360 -0.8407  0.7876
  431SOL    HW1 1722   0.413   1.909   1.132  0.4830  1.4177 -3.5431
  431SOL    HW2 1723   0.328   1.987   1.033 -0.8493 -0.6302 -0.3591
  431SOL     MW 1724   0.360   1.972   1.114 -0.2956 -0.5150  0.0649
  432SOL     OW 1725   0.107   0.021   1.142 -0.5690 -0.2064  0.1853
  432SOL    HW1 1726   0.115   0.058   1.226 -1.2797 -2.0809 -0.6436
  432SOL    HW2 1727   0.052  -0.050   1.160 -0.3640  1.1910 -0.4223
  432SOL     MW 1728   0.101   0.017   1.156 -0.6357 -0.2693 -0.0042
  433SOL     OW 1729   0.653   2.873   1.461  0.3819 -0.0778  0.2124
  433SOL    HW1 1730   0.667   2.852   1.553  1.1586  2.1482 -1.1646
  433SOL    HW2 1731   0.735   2.918   1.433 -1.2959 -1.1734  1.4369
  433SOL     MW 1732   0.666   2.876   1.470  0.2630  0.0713  0.1923
  434SOL     OW 1733   1.557   2.814   1.496 -0.3761 -0.2768 -0.1589
  434SOL    HW1 1734   1.477   2.868   1.503  1.8078 -1.2158  1.2496
  434SOL    HW2 1735   1.586   2.817   1.407  0.5980 -0.2161 -0.3913
  434SOL     MW 1736   1.551   2.822   1.485  0.0406 -0.3927 -0.0037
  435SOL     OW 1737   2.850   1.806   0.232  0.2982  0.0244 -0.1539
  435SOL    HW1 1738   2.903   1.864   0.177  0.3878 -0.3058 -1.0704
  435SOL    HW2 1739   2.820   1.736   0.179  3.9065 -0.2064  1.0856
  435SOL     MW 1740   2.853   1.805   0.218  0.7861 -0.0496 -0.1112
  436SOL     OW 1741   1.450   2.786   0.312  0.0982 -0.2189  0.0162
  436SOL    HW1 1742   1.498   2.760   0.396  0.2145  2.1104 -0.0052
  436SOL    HW2 1743   1.410   2.870   0.334  0.6222 -0.7775 -0.5993
  436SOL     MW 1744   1.451   2.794   0.326  0.1827  0.0148 -0.0678
  437SOL     OW 1745   0.851   2.954   1.267  0.4615 -0.0416  0.4481
  437SOL    HW1 1746   0.909   3.031   1.272  3.3270  0.8054 -0.0941
  437SOL    HW2 1747   0.821   2.954   1.175  1.8141 -0.5087  0.3985
  437SOL     MW 1748   0.855   2.964   1.256  1.0180  0.0085  0.3700
  438SOL     OW 1749   0.840   2.526   2.023  0.1974  0.4111 -0.5588
  438SOL    HW1 1750   0.837   2.476   2.110  0.9671  0.3812 -4.2611
  438SOL    HW2 1751   0.770   2.473   1.983  2.0987 -0.3403  0.3822
  438SOL     MW 1752   0.830   2.512   2.029  0.5498  0.3080 -0.9231
  439SOL     OW 1753   1.148   2.167   0.292 -0.0177  0.1750  0.2330
  439SOL    HW1 1754   1.095   2.146   0.374  0.9979 -0.1923 -0.3377
  439SOL    HW2 1755   1.128   2.264   0.276  0.0846  0.1310  1.3103
  439SOL     MW 1756   1.138   2.177   0.301  0.1298  0.1207  0.2998
  440SOL     OW 1757   1.630   3.042   2.982  0.4825 -0.6378  0.2416
  440SOL    HW1 1758   1.588   3.009   3.059 -0.8944  1.3185 -0.4994
  440SOL    HW2 1759   1.667   2.966   2.935  1.6111  0.4547  0.0199
  440SOL     MW 1760   1.629   3.028   2.986  0.4497 -0.2355  0.1145
  441SOL     OW 1761   0.326   2.570   0.536  0.1055 -0.5632 -0.1294
  441SOL    HW1 1762   0.287   2.559   0.449  1.1778  0.0876  2.7296
  441SOL    HW2 1763   0.350   2.664   0.527 -2.0158  0.3687  0.0627
  441SOL     MW 1764   0.324   2.581   0.523 -0.0329 -0.3544  0.2731
  442SOL     OW 1765   0.017   2.332   0.632  0.2712  0.0439 -0.5071
  442SOL    HW1 1766   0.003   2.425   0.644  2.8503 -2.0786 -1.2783
  442SOL    HW2 1767  -0.073   2.306   0.654  1.2355  1.6787  0.8531
  442SOL     MW 1768   0.003   2.341   0.636  0.7387 -0.0204 -0.4294
  443SOL     OW 1769   1.415   1.731   1.843 -0.0159 -0.0184 -0.1302
  443SOL    HW1 1770   1.361   1.768   1.778  0.0548 -3.2767  2.3609
  443SOL    HW2 1771   1.373   1.646   1.858 -3.1661 -2.4082 -0.0546
  443SOL     MW 1772   1.402   1.725   1.836 -0.4222 -0.7636  0.2085
  444SOL     OW 1773   0.855   2.573   1.587 -0.3350  0.0822 -0.3123
  444SOL    HW1 1774   0.947   2.550   1.628  2.1950 -2.9925  1.4561
  444SOL    HW2 1775   0.809   2.600   1.664 -1.1874 -1.2991 -1.4679
  444SOL     MW 1776   0.861   2.573   1.603 -0.1136 -0.5057 -0.2314
  445SOL     OW 1777   0.953   0.113   1.319 -0.3286  0.2324  0.1429
  445SOL    HW1 1778   0.895   0.168   1.271  1.4564 -0.8391  1.3875
  445SOL    HW2 1779   1.037   0.117   1.276 -2.9202 -1.9058 -0.6923
  445SOL     MW 1780   0.956   0.121   1.307 -0.4350 -0.1911  0.1969
  446SOL     OW 1781   2.740   2.907   1.037  0.3781  0.1277 -0.6408
  446SOL    HW1 1782   2.661   2.924   0.984 -1.2670  1.6852  1.0857
  446SOL    HW2 1783   2.763   2.810   1.031  0.9441  1.5359 -1.0860
  446SOL     MW 1784   2.732   2.896   1.029  0.2357  0.5190 -0.4717
  447SOL     OW 1785   3.024   2.050   1.694  0.5966  0.2270  0.2603
  447SOL    HW1 1786   3.085   1.989   1.739 -1.7512 -0.9715  1.2104
  447SOL    HW2 1787   2.964   2.006   1.635 -3.2659  1.8389 -1.4606
  447SOL     MW 1788   3.024   2.036   1.692 -0.2228  0.2815  0.1586
  448SOL     OW 1789   1.659   2.365   1.659 -0.1630  0.0975 -0.3054
  448SOL    HW1 1790   1.612   2.288   1.698 -2.0209  0.6218 -0.2694
  448SOL    HW2 1791   1.591   2.430   1.641  2.9937 -1.6811  0.2347
  448SOL     MW 1792   1.644   2.364   1.661  0.0084 -0.0680 -0.2294
  449SOL     OW 1793   0.824   2.867   0.410  0.1119  0.3454 -0.1623
  449SOL    HW1 1794   0.786   2.902   0.331 -0.3613 -2.6805 -0.3028
  449SOL    HW2 1795   0.752   2.869   0.473 -1.0430 -0.1387  0.9984
  449SOL     MW 1796   0.810   2.872   0.408 -0.1029 -0.1177 -0.0277
  450SOL     OW 1797   1.221   2.432   0.640  0.0479 -0.1526 -0.7041
  450SOL    HW1 1798   1.228   2.408   0.736  1.2472 -0.4945  2.6124
  450SOL    HW2 1799   1.308   2.404   0.614  0.0055  0.8093  0.8219
  450SOL     MW 1800   1.233   2.425   0.650  0.2005 -0.0708 -0.0652
  451SOL     OW 1801   0.615   1.958   1.667 -0.0129 -0.1511  0.2291
  451SOL    HW1 1802   0.706   1.997   1.685  0.1552  2.4893  0.7283
  451SOL    HW2 1803   0.608   1.964   1.571 -0.8444 -0.1873 -0.0616
  451SOL     MW 1804   0.626   1.964   1.657 -0.1004  0.1925  0.2566
  452SOL     OW 1805   0.261   2.687   0.073  0.1196  0.2271  0.4175
  452SOL    HW1 1806   0.352   2.708   0.095  2.2953 -0.3965  1.2039
  452SOL    HW2 1807   0.259   2.684  -0.025  0.4273 -2.8720  0.8366
  452SOL     MW 1808   0.273   2.690   0.063  0.4473 -0.2641  0.5766
  453SOL     OW 1809   0.409   2.998   1.628 -0.2400 -0.2008  0.2966
  453SOL    HW1 1810   0.479   3.037   1.570  1.5935 -1.2355 -3.4117
  453SOL    HW2 1811   0.344   2.949   1.577 -1.5498 -0.9195 -0.7087
  453SOL     MW 1812   0.410   2.996   1.614 -0.1709 -0.4321 -0.3253
  454SOL     OW 1813   1.055   2.754   1.172 -0.2455  0.4762 -0.2112
  454SOL    HW1 1814   1.012   2.666   1.160 -0.7261  1.9888 -1.2848
  454SOL    HW2 1815   0.985   2.818   1.181 -1.7200  0.8215 -0.3621
  454SOL     MW 1816   1.040   2.751   1.172 -0.5035  0.7213 -0.3728
  455SOL     OW 1817   1.607   2.954   0.148 -0.5242  0.2221  0.0081
  455SOL    HW1 1818   1.686   2.947   0.197 -2.2494 -1.6982  4.0330
  455SOL    HW2 1819   1.548   2.884   0.183 -0.5473 -0.3533  2.0032
  455SOL     MW 1820   1.610   2.944   0.159 -0.7549 -0.1072  0.8024
  456SOL     OW 1821   2.907   0.312   1.390  0.7039 -0.1865  0.3635
  456SOL    HW1 1822   2.843   0.262   1.331 -2.0230 -0.4356 -3.7069
  456SOL    HW2 1823   2.944   0.379   1.333  1.3312 -1.1360 -0.2205
  456SOL     MW 1824   2.903   0.314   1.374  0.4269 -0.3446 -0.2506
  457SOL     OW 1825   0.921   1.555   2.992 -0.8155 -0.3272  0.4139
  457SOL    HW1 1826   0.850   1.548   3.053  0.5269  1.7205 -1.1160
  457SOL    HW2 1827   0.985   1.490   3.023 -1.3681  1.8158 -0.9722
  457SOL     MW 1828   0.920   1.545   3.004 -0.7113  0.2257  0.0291
  458SOL     OW 1829   1.459   1.395   0.602 -0.5281  0.1686  0.2809
  458SOL    HW1 1830   1.377   1.407   0.643  1.3259  2.2186  0.1686
  458SOL    HW2 1831   1.446   1.321   0.541  1.7920 -1.5406 -1.3500
  458SOL     MW 1832   1.446   1.387   0.599  0.0227  0.2135  0.0509
  459SOL     OW 1833   1.578   0.097   0.231  0.0947 -0.0488 -0.2474
  459SOL    HW1 1834   1.573   0.008   0.186  0.7889 -1.1066 -0.4659
  459SOL    HW2 1835   1.530   0.156   0.178  0.2231 -1.9828 -0.6136
  459SOL     MW 1836   1.571   0.093   0.218  0.2032 -0.4435 -0.3245
  460SOL     OW 1837   1.742   2.145   0.605 -0.2300  0.3865  0.1714
  460SOL    HW1 1838   1.677   2.111   0.665  2.7189  3.6365 -1.2468
  460SOL    HW2 1839   1.783   2.056   0.573  0.4491  1.8099 -1.8709
  460SOL     MW 1840   1.739   2.129   0.609  0.2486  1.0031 -0.2852
  461SOL     OW 1841   0.402   2.324   0.623  0.5686  0.1713 -0.2134
  461SOL    HW1 1842   0.355   2.404   0.582  4.0061  2.4877 -2.8132
  461SOL    HW2 1843   0.422   2.360   0.708 -1.7978 -0.6866 -0.6149
  461SOL     MW 1844   0.399   2.339   0.629  0.7100  0.3637 -0.6094
  462SOL     OW 1845   0.406   0.268   1.312  0.1112  0.2746 -0.7590
  462SOL    HW1 1846   0.438   0.227   1.229  1.0461 -0.2408 -2.6779
  462SOL    HW2 1847   0.473   0.344   1.328 -0.8163  3.5188  0.2674
  462SOL     MW 1848   0.419   0.273   1.303  0.1122  0.6347 -0.8768
  463SOL     OW 1849   0.983   0.030   0.699  0.7730  0.6135  0.2578
  463SOL    HW1 1850   1.021  -0.001   0.614 -1.5462  0.7265  1.6765
  463SOL    HW2 1851   0.892   0.031   0.677  1.4973 -0.6634 -0.5188
  463SOL     MW 1852   0.976   0.026   0.685  0.5625  0.4599  0.3425
  464SOL     OW 1853   0.848   2.981   2.152  0.0718 -0.1644  0.0797
  464SOL    HW1 1854   0.815   2.890   2.148  0.2595 -0.1801 -0.9286
  464SOL    HW2 1855   0.863   3.019   2.238 -1.4184  0.0681 -2.4425
  464SOL     MW 1856   0.845   2.974   2.163 -0.1000 -0.1358 -0.3861
  465SOL     OW 1857   0.682   0.242   0.455  0.7450 -0.7634  0.3125
  465SOL    HW1 1858   0.680   0.163   0.507 -1.9968  0.6195 -0.0785
  465SOL    HW2 1859   0.711   0.206   0.367  1.7819 -1.0753  0.2071
  465SOL     MW 1860   0.685   0.227   0.450  0.5201 -0.6221  0.2470
  466SOL     OW 1861   1.090   1.984   0.729  0.0354 -0.5333 -0.5644
  466SOL    HW1 1862   1.082   1.908   0.673  0.2554  1.8573 -1.2841
  466SOL    HW2 1863   1.102   2.065   0.668 -0.3150  0.9491 -0.0131
  466SOL     MW 1864   1.091   1.985   0.713  0.0182 -0.0223 -0.5866
  467SOL     OW 1865   1.275   2.355   0.943  0.3514 -0.8466  0.8849
  467SOL    HW1 1866   1.363   2.358   0.972  2.4901  0.6241  0.1279
  467SOL    HW2 1867   1.248   2.262   0.977  1.7533 -2.5418 -3.0337
  467SOL     MW 1868   1.283   2.343   0.952  0.8186 -0.8762  0.2680
  468SOL     OW 1869   0.319   2.590   2.007 -0.0420  0.1198 -0.1655
  468SOL    HW1 1870   0.316   2.500   1.974 -1.1216 -0.5013  1.5585
  468SOL    HW2 1871   0.398   2.634   1.966  0.2515  1.4978 -2.5093
  468SOL     MW 1872   0.329   2.584   1.997 -0.1457  0.2197 -0.2472
  469SOL     OW 1873   0.400   2.063   1.813 -0.1650  0.3773  0.8072
  469SOL    HW1 1874   0.334   2.019   1.756  1.0678  0.0574  1.7993
  469SOL    HW2 1875   0.487   2.054   1.767  1.6021  1.8434 -0.1962
  469SOL     MW 1876   0.403   2.056   1.799  0.2308  0.5285  0.8057
  470SOL     OW 1877   0.010   2.549   0.188 -0.2806 -0.2124 -0.1424
  470SOL    HW1 1878  -0.071   2.512   0.228 -0.8864 -1.4056 -0.4713
  470SOL    HW2 1879  -0.005   2.581   0.098  0.1403 -1.1989 -1.9027
  470SOL     MW 1880  -0.003   2.548   0.182 -0.3050 -0.5000 -0.4180
  471SOL     OW 1881   1.210   2.737   1.402 -0.8750 -0.7611 -0.4430
  471SOL    HW1 1882   1.127   2.749   1.450 -0.1825 -0.9470  1.5636
  471SOL    HW2 1883   1.181   2.756   1.317  1.3313 -0.7436 -0.2098
  471SOL     MW 1884   1.195   2.741   1.397 -0.4926 -0.7833 -0.1475
  472SOL     OW 1885   2.941   2.128   0.382 -0.4649  0.0230  0.1926
  472SOL    HW1 1886   2.943   2.064   0.300  1.0484  2.2583 -1.8015
  472SOL    HW2 1887   2.936   2.064   0.453 -1.9004  0.1693 -0.3891
  472SOL     MW 1888   2.940   2.111   0.381 -0.4546  0.3373 -0.1473
  473SOL     OW 1889   0.788   2.515   1.310 -0.0672  0.0864  0.1107
  473SOL    HW1 1890   0.840   2.433   1.300  1.7674 -0.5182 -0.5706
  473SOL    HW2 1891   0.816   2.539   1.399  1.3779  1.4024 -1.6158
  473SOL     MW 1892   0.799   2.508   1.320  0.3655  0.1803 -0.2070
  474SOL     OW 1893   0.843   2.184   1.757  0.3517  0.6619  1.0334
  474SOL    HW1 1894   0.916   2.226   1.793  0.9799 -0.9415  0.6574
  474SOL    HW2 1895   0.869   2.174   1.669 -0.5013 -2.8633  0.4558
  474SOL     MW 1896   0.856   2.188   1.750  0.3221 -0.0147  0.9076
  475SOL     OW 1897   1.688   3.089   1.436 -0.2264  0.2339  0.3519
  475SOL    HW1 1898   1.600   3.111   1.400 -3.0560 -3.4906  1.1164
  475SOL    HW2 1899   1.677   3.003   1.471 -1.8206 -0.3902 -1.9321
  475SOL     MW 1900   1.675   3.081   1.436 -0.8101 -0.3399  0.1514
  476SOL     OW 1901   1.469   2.618   0.796  0.1933 -0.3183 -0.2308
  476SOL    HW1 1902   1.439   2.640   0.885  2.0955  1.4321  2.0284
  476SOL    HW2 1903   1.515   2.698   0.772 -2.2407  0.3654  1.5579
  476SOL     MW 1904   1.471   2.632   0.805  0.1231  0.0029  0.3033
  477SOL     OW 1905   0.858   2.530   0.578  0.1480  0.2454 -0.0054
  477SOL    HW1 1906   0.952   2.570   0.557 -0.6202  1.7221  0.3249
  477SOL    HW2 1907   0.855   2.436   0.546  0.6771 -2.8844 -0.3176
  477SOL     MW 1908   0.870   2.523   0.571  0.1164  0.0273 -0.0030
  478SOL     OW 1909   0.227   2.615   1.001  0.2938 -0.5505 -0.1810
  478SOL    HW1 1910   0.248   2.707   0.972  2.5421  0.0030 -0.5094
  478SOL    HW2 1911   0.273   2.547   0.951 -1.6024 -3.3473  0.3891
  478SOL     MW 1912   0.236   2.618   0.991  0.3402 -0.8465 -0.1492
  479SOL     OW 1913   1.440   1.918   1.328 -0.4590  0.2992  0.2023
  479SOL    HW1 1914   1.391   1.967   1.396  0.4519 -0.1963 -2.9499
  479SOL    HW2 1915   1.504   1.877   1.386 -0.9105  0.8645  0.4544
  479SOL     MW 1916   1.442   1.919   1.344 -0.3984  0.3084 -0.1804
  480SOL     OW 1917   1.798   2.370   1.312 -0.1999 -0.1867 -0.2458
  480SOL    HW1 1918   1.780   2.282   1.326  0.8514 -0.4020 -2.6337
  480SOL    HW2 1919   1.823   2.365   1.218 -1.8368 -1.9049 -0.9870
  480SOL     MW 1920   1.799   2.357   1.302 -0.2772 -0.4418 -0.6587
  481SOL     OW 1921   1.176   0.149   1.078  0.0257  0.2795  0.5701
  481SOL    HW1 1922   1.257   0.128   1.025  0.2399 -1.5548  1.6323
  481SOL    HW2 1923   1.174   0.246   1.088 -2.8277  0.3283  0.9236
  481SOL     MW 1924   1.186   0.159   1.072 -0.3225  0.0439  0.7569
  482SOL     OW 1925   1.055   3.064   0.444 -0.1929  0.7081 -0.0838
  482SOL    HW1 1926   0.989   2.995   0.422  1.2809 -0.4749 -0.9530
  482SOL    HW2 1927   1.035   3.143   0.391 -1.3646 -1.8733 -3.5196
  482SOL     MW 1928   1.043   3.066   0.434 -0.1531  0.2115 -0.6518
  483SOL     OW 1929   0.334   2.859   0.537 -0.1752 -0.2487  0.6480
  483SOL    HW1 1930   0.330   2.904   0.456 -2.5701  0.3479 -0.2997
  483SOL    HW2 1931   0.317   2.925   0.611 -0.9835 -1.4340  2.1583
  483SOL     MW 1932   0.331   2.874   0.536 -0.5978 -0.3264  0.7222
  484SOL     OW 1933   1.669   1.850   1.469 -0.2666  0.2192  0.2022
  484SOL    HW1 1934   1.707   1.916   1.406 -0.6383  1.2068  0.3388
  484SOL    HW2 1935   1.703   1.874   1.556  1.0184 -1.8371 -0.9450
  484SOL     MW 1936   1.678   1.862   1.472 -0.1461  0.0782  0.0689
  485SOL     OW 1937   0.545   2.313   0.295  0.4073 -0.0325 -0.3196
  485SOL    HW1 1938   0.598   2.315   0.375 -2.4631 -2.5313  0.7528
  485SOL    HW2 1939   0.465   2.333   0.335  2.6263 -0.7950 -2.0332
  485SOL     MW 1940   0.542   2.316   0.311  0.3214 -0.4628 -0.4042
  486SOL     OW 1941   0.096   2.537   1.486 -0.1428 -0.1691 -0.2027
  486SOL    HW1 1942   0.103   2.625   1.455  1.3299 -0.9055  1.0515
  486SOL    HW2 1943   0.122   2.526   1.578  1.0878 -0.2223  0.5664
  486SOL     MW 1944   0.100   2.547   1.494  0.2139 -0.2733  0.0642
  487SOL     OW 1945   1.317   1.581   1.073 -0.3832  0.4515 -1.5930
  487SOL    HW1 1946   1.287   1.675   1.060 -1.3796  3.2791  2.6174
  487SOL    HW2 1947   1.409   1.594   1.057 -1.3812 -0.3604  1.9425
  487SOL     MW 1948   1.325   1.595   1.069 -0.6463  0.7175 -0.5710
  488SOL     OW 1949   1.458   1.810   0.605  0.4359 -0.2432  0.3508
  488SOL    HW1 1950   1.458   1.886   0.545 -1.8009 -0.3352 -0.9204
  488SOL    HW2 1951   1.414   1.740   0.555  3.0451  0.6470  0.1011
  488SOL     MW 1952   1.452   1.811   0.591  0.4850 -0.1379  0.1501
  489SOL     OW 1953   0.685   0.704   0.517  0.4175  0.9863  0.2446
  489SOL    HW1 1954   0.653   0.618   0.481 -0.9322  0.6710  1.2222
  489SOL    HW2 1955   0.647   0.713   0.605 -0.7943  0.5257  0.5890
  489SOL     MW 1956   0.676   0.694   0.524  0.0795  0.8839  0.4190
  490SOL     OW 1957   1.352   2.061   0.468  0.5073  0.0244 -0.0239
  490SOL    HW1 1958   1.419   2.112   0.417  0.8962  0.0013 -1.2757
  490SOL    HW2 1959   1.275   2.102   0.428 -0.6371 -1.0660 -0.1807
  490SOL     MW 1960   1.351   2.073   0.456  0.4076 -0.1225 -0.2098
  491SOL     OW 1961   1.313   3.007   0.391 -0.5917  0.1393 -0.4193
  491SOL    HW1 1962   1.343   3.035   0.477 -0.5654 -0.1145  0.6212
  491SOL    HW2 1963   1.223   2.997   0.407 -0.8101 -0.7628  2.5109
  491SOL     MW 1964   1.305   3.010   0.404 -0.6171 -0.0132  0.1046
  492SOL     OW 1965   1.469   2.150   0.722 -0.2217  0.2482 -0.3315
  492SOL    HW1 1966   1.420   2.112   0.651 -0.8936 -0.0743  0.7071
  492SOL    HW2 1967   1.409   2.150   0.793 -0.3552  2.1375  1.2860
  492SOL     MW 1968   1.454   2.145   0.722 -0.3279  0.4549  0.0190
  493SOL     OW 1969   0.200   3.054   0.325  0.2583 -0.2985 -0.1380
  493SOL    HW1 1970   0.143   3.069   0.403 -0.4269  0.9088  1.8433
  493SOL    HW2 1971   0.148   3.002   0.262 -0.5118 -1.0600  0.9556
  493SOL     MW 1972   0.186   3.049   0.327  0.0663 -0.2397  0.2677
  494SOL     OW 1973   0.384   2.372   1.797  0.1847  0.1252 -0.0864
  494SOL    HW1 1974   0.390   2.271   1.780  0.5419 -0.0332 -1.9799
  494SOL    HW2 1975   0.430   2.416   1.720 -0.3002 -0.1450 -0.1829
  494SOL     MW 1976   0.391   2.364   1.784  0.1679  0.0687 -0.3490
  495SOL     OW 1977   2.859   1.612   2.684  0.3179  0.4176  0.1749
  495SOL    HW1 1978   2.842   1.681   2.746  1.6732  1.2696 -0.3227
  495SOL    HW2 1979   2.817   1.536   2.724  0.2058  1.4655 -0.8891
  495SOL     MW 1980   2.851   1.611   2.697  0.4820  0.6683 -0.0311
  496SOL     OW 1981   2.812   2.280   2.705 -0.3790 -0.0714  0.4420
  496SOL    HW1 1982   2.819   2.188   2.733 -1.1006  2.1205  0.1170
  496SOL    HW2 1983   2.901   2.320   2.721 -1.9758 -1.5255 -1.8814
  496SOL     MW 1984   2.825   2.273   2.711 -0.6849  0.0260  0.0926
  497SOL     OW 1985   1.516   2.396   2.589  0.3838 -0.8994 -0.3092
  497SOL    HW1 1986   1.525   2.347   2.505 -0.5826 -0.1965 -2.8126
  497SOL    HW2 1987   1.478   2.330   2.649 -1.7445  0.5712  1.5897
  497SOL     MW 1988   1.512   2.381   2.586 -0.0245 -0.6126 -0.3889
  498SOL     OW 1989   1.435   2.758   2.318 -0.0763  0.1682  0.1204
  498SOL    HW1 1990   1.407   2.666   2.300  0.9276 -0.9188  1.2048
  498SOL    HW2 1991   1.522   2.745   2.364  1.3331 -1.0980 -0.1909
  498SOL     MW 1992   1.443   2.744   2.321  0.2421 -0.1423  0.2224
  499SOL     OW 1993   0.997   0.078   0.075  0.0541  0.2033 -0.2837
  499SOL    HW1 1994   0.943   0.117   0.148 -1.7020 -1.0302  1.1824
  499SOL    HW2 1995   0.961  -0.014   0.081 -1.0709  0.4843  1.7802
  499SOL     MW 1996   0.985   0.071   0.085 -0.3260  0.0776  0.1821
  500SOL     OW 1997   1.071   2.509   2.736 -0.0217  0.0375  0.0578
  500SOL    HW1 1998   1.101   2.478   2.820 -0.5577 -1.1591 -0.0245
  500SOL    HW2 1999   1.025   2.588   2.750 -0.4613 -0.1840 -2.3805
  500SOL     MW 2000   1.069   2.515   2.749 -0.1504 -0.1496 -0.2748
  501SOL     OW 2001   1.824   2.277   2.998 -0.2842 -0.4686  0.8731
  501SOL    HW1 2002   1.833   2.364   3.038 -1.9170  0.5612 -0.5691
  501SOL    HW2 2003   1.906   2.227   3.015 -1.1119 -0.7538  1.4448
  501SOL     MW 2004   1.836   2.281   3.006 -0.6088 -0.3704  0.7582
  502SOL     OW 2005   0.288   2.737   2.880 -0.3868 -0.1431  0.9437
  502SOL    HW1 2006   0.356   2.746   2.814 -2.6010 -0.4470 -0.2342
  502SOL    HW2 2007   0.268   2.823   2.898 -0.4158 -1.0725 -1.2086
  502SOL     MW 2008   0.294   2.749   2.874 -0.6828 -0.3058  0.5043
  503SOL     OW 2009   1.135   2.530   2.063 -0.6016  0.5888 -0.1428
  503SOL    HW1 2010   1.187   2.578   1.994  2.7667  1.8047  3.6833
  503SOL    HW2 2011   1.050   2.502   2.029  1.0023 -1.0205  4.3787
  503SOL     MW 2012   1.131   2.533   2.049  0.0544  0.5369  0.9586
  504SOL     OW 2013   0.089   2.665   2.178  0.5103 -0.5155 -0.7505
  504SOL    HW1 2014   0.135   2.609   2.117  2.3111 -0.6082 -0.6005
  504SOL    HW2 2015   0.053   2.597   2.238  0.7393 -3.4184  1.2187
  504SOL     MW 2016   0.090   2.648   2.178  0.7781 -0.9107 -0.4709
  505SOL     OW 2017   1.572   2.814   2.737  0.3181 -0.3426 -0.2481
  505SOL    HW1 2018   1.625   2.858   2.663 -0.0813 -1.0097 -1.1576
  505SOL    HW2 2019   1.505   2.881   2.765 -1.5847  0.1392  0.5716
  505SOL     MW 2020   1.570   2.829   2.731  0.0144 -0.3671 -0.2600
  506SOL     OW 2021   1.608   0.089   2.749  0.2045 -0.3253  0.0037
  506SOL    HW1 2022   1.599   0.031   2.823  0.4659  3.0211 -2.6467
  506SOL    HW2 2023   1.692   0.083   2.716 -1.0355 -1.0580 -0.9713
  506SOL     MW 2024   1.618   0.081   2.755  0.0754  0.0195 -0.4746
  507SOL     OW 2025   0.867   2.702   2.838  0.3957  0.3528  0.1908
  507SOL    HW1 2026   0.868   2.785   2.791  0.0466 -0.6044 -1.4651
  507SOL    HW2 2027   0.783   2.664   2.809 -1.1826 -0.2893 -1.0093
  507SOL     MW 2028   0.856   2.708   2.828  0.1414  0.1418 -0.1860
  508SOL     OW 2029   1.199   2.121   2.529 -0.7656  0.0999 -0.1340
  508SOL    HW1 2030   1.253   2.166   2.599  1.0404 -1.0586 -0.5451
  508SOL    HW2 2031   1.124   2.091   2.578 -0.0521 -0.8359  2.7866
  508SOL     MW 2032   1.196   2.123   2.544 -0.4332 -0.1764  0.1971
  509SOL     OW 2033   0.611   2.536   2.837  0.3858  0.5338 -0.4271
  509SOL    HW1 2034   0.618   2.491   2.749  0.6652 -1.1716 -0.4232
  509SOL    HW2 2035   0.539   2.598   2.825  1.5229 -2.5457 -0.1143
  509SOL     MW 2036   0.602   2.538   2.824  0.5727 -0.0975 -0.3853
  510SOL     OW 2037   1.491   2.582   1.636  0.0134 -0.2012  0.0212
  510SOL    HW1 2038   1.517   2.666   1.594  0.3401 -1.3416 -2.9801
  510SOL    HW2 2039   1.441   2.615   1.716 -1.4862  2.0510 -1.2212
  510SOL     MW 2040   1.488   2.598   1.641 -0.1414 -0.0545 -0.5387
  511SOL     OW 2041   0.344   2.514   2.467  0.0065 -0.1375 -0.1433
  511SOL    HW1 2042   0.417   2.478   2.521  1.3186 -0.2218 -0.0306
  511SOL    HW2 2043   0.378   2.528   2.376 -0.6848  2.1770  1.3453
  511SOL     MW 2044   0.358   2.511   2.462  0.0884  0.1568  0.0680
  512SOL     OW 2045   1.012   1.954   2.811  0.4606 -0.3416 -0.5203
  512SOL    HW1 2046   0.923   1.979   2.836  0.1913  0.8687  0.6516
  512SOL    HW2 2047   1.045   1.885   2.878 -0.2686  0.7475 -2.5614
  512SOL     MW 2048   1.005   1.948   2.823  0.3289 -0.0382 -0.6350
  513SOL     OW 2049   1.507   2.494   2.286 -0.0483 -0.3782  0.2598
  513SOL    HW1 2050   1.602   2.519   2.270 -1.3321  0.7416 -2.6862
  513SOL    HW2 2051   1.524   2.399   2.309 -0.8111  0.8258  3.0425
  513SOL     MW 2052   1.522   2.484   2.287 -0.3183 -0.0716  0.2383
  514SOL     OW 2053   0.208   2.345   2.677 -0.8128 -0.5080 -0.4120
  514SOL    HW1 2054   0.261   2.409   2.634 -0.8506 -0.4865 -0.9775
  514SOL    HW2 2055   0.253   2.304   2.749 -0.6599 -0.0451  1.4224
  514SOL     MW 2056   0.221   2.348   2.681 -0.7976 -0.4441 -0.2446
  515SOL     OW 2057   1.082   1.982   1.853 -0.0230 -0.4493 -0.3830
  515SOL    HW1 2058   1.040   2.071   1.854 -4.0616  3.2927  0.9652
  515SOL    HW2 2059   1.158   1.981   1.916 -0.1599 -0.8619  1.6499
  515SOL     MW 2060   1.086   1.993   1.861 -0.5739 -0.0100  0.0631
  516SOL     OW 2061   1.298   2.589   2.911 -0.0894 -0.6423 -0.3673
  516SOL    HW1 2062   1.305   2.581   2.812 -2.4762 -0.7012 -0.1665
  516SOL    HW2 2063   1.236   2.515   2.938 -0.4333  0.8769  0.3306
  516SOL     MW 2064   1.291   2.578   2.901 -0.4497 -0.4496 -0.2487
  517SOL     OW 2065   0.522   2.289   2.246  0.3800  0.7133 -0.3699
  517SOL    HW1 2066   0.490   2.373   2.217 -2.8530  0.9128 -1.1268
  517SOL    HW2 2067   0.484   2.229   2.185 -2.1402  2.8368  1.8931
  517SOL     MW 2068   0.513   2.292   2.234 -0.3791  1.0198 -0.1712
  518SOL     OW 2069   1.776   0.177   3.049  0.3756  0.1847 -0.0364
  518SOL    HW1 2070   1.826   0.164   3.136 -3.1278 -2.9331  2.8877
  518SOL    HW2 2071   1.740   0.089   3.037  3.5599  0.7085 -1.3515
  518SOL     MW 2072   1.778   0.164   3.059  0.3335 -0.1575  0.1759
  519SOL     OW 2073   0.622   2.369   1.980  0.1477  0.5172 -0.1238
  519SOL    HW1 2074   0.637   2.273   1.968 -0.4383  0.0887 -0.9378
  519SOL    HW2 2075   0.545   2.388   1.928  1.0370  2.1524 -2.1891
  519SOL     MW 2076   0.614   2.359   1.972  0.1877  0.6764 -0.5037
  520SOL     OW 2077   1.198   2.132   2.909  0.4000 -0.4878  0.4857
  520SOL    HW1 2078   1.147   2.064   2.867  3.0335 -0.1550 -0.7472
  520SOL    HW2 2079   1.227   2.099   2.999 -1.2774 -1.6842  2.1509
  520SOL     MW 2080   1.195   2.118   2.915  0.5261 -0.6017  0.5428
  521SOL     OW 2081   1.752   2.027   2.230  0.1678 -0.3778  0.6304
  521SOL    HW1 2082   1.780   2.019   2.135  0.0541  1.7214 -0.0993
  521SOL    HW2 2083   1.725   1.942   2.254 -0.3091  1.3400 -1.0101
  521SOL     MW 2084   1.752   2.015   2.221  0.0898  0.1258  0.3177
  522SOL     OW 2085   2.809   2.569   2.215 -0.0456 -0.0309  0.6009
  522SOL    HW1 2086   2.887   2.531   2.258 -0.6462 -0.2763 -0.6093
  522SOL    HW2 2087   2.849   2.660   2.200  0.8943 -1.7205  2.3674
  522SOL     MW 2088   2.825   2.576   2.218 -0.0008 -0.2862  0.6743
  523SOL     OW 2089   0.800   1.474   2.157  0.0608  0.4132 -0.1144
  523SOL    HW1 2090   0.776   1.521   2.074 -0.2362 -0.7936 -0.9625
  523SOL    HW2 2091   0.884   1.430   2.125  2.1338  1.4241  1.9899
  523SOL     MW 2092   0.808   1.474   2.142  0.2952  0.3874  0.0513
  524SOL     OW 2093   0.560   2.371   3.045  0.1020 -0.3320 -0.4860
  524SOL    HW1 2094   0.581   2.432   2.965  1.7704  2.4106 -2.7916
  524SOL    HW2 2095   0.639   2.318   3.064 -1.9761 -0.3112 -2.5574
  524SOL     MW 2096   0.573   2.372   3.037  0.0479  0.0326 -1.0635
  525SOL     OW 2097   0.318   2.157   2.093  0.4344 -0.3752 -0.3422
  525SOL    HW1 2098   0.297   2.084   2.157  1.8761  1.1059 -0.5206
  525SOL    HW2 2099   0.348   2.117   2.010  0.9577 -0.8113 -0.1146
  525SOL     MW 2100   0.319   2.142   2.090  0.6937 -0.2373 -0.3357
  526SOL     OW 2101   0.742   2.094   1.991  0.0106 -0.7411 -0.0157
  526SOL    HW1 2102   0.777   2.126   1.916  0.6343  1.3007 -0.2784
  526SOL    HW2 2103   0.801   2.113   2.067  1.4540 -0.2566 -0.2170
  526SOL     MW 2104   0.755   2.101   1.991  0.2834 -0.4078 -0.0769
  527SOL     OW 2105   1.279   1.914   2.024  0.4748 -0.1792 -0.5776
  527SOL    HW1 2106   1.246   1.880   2.106 -0.5115  1.1742  1.7761
  527SOL    HW2 2107   1.337   1.851   1.981 -1.2548 -1.8994 -0.6480
  527SOL     MW 2108   1.282   1.901   2.029  0.1165 -0.2276 -0.2764
  528SOL     OW 2109   0.592   2.904   3.012  0.4357  0.4406 -0.0263
  528SOL    HW1 2110   0.609   3.001   2.994  0.1958  0.9168  0.5754
  528SOL    HW2 2111   0.559   2.859   2.931 -1.2389 -0.9291  1.6803
  528SOL     MW 2112   0.590   2.911   2.999  0.1831  0.3227  0.2783
  529SOL     OW 2113   1.100   2.272   1.798 -0.2965 -0.2219  0.1932
  529SOL    HW1 2114   1.161   2.263   1.876  3.2705 -0.8083 -1.1026
  529SOL    HW2 2115   1.148   2.268   1.710 -0.8998  3.2609  0.7510
  529SOL     MW 2116   1.115   2.270   1.796  0.0946  0.1603  0.0958
  530SOL     OW 2117   1.109   2.405   2.966  0.0591 -0.1181  0.4183
  530SOL    HW1 2118   1.047   2.449   3.033 -1.9453  0.3216  0.9003
  530SOL    HW2 2119   1.109   2.311   2.984  2.9856  2.5593  2.0234
  530SOL     MW 2120   1.101   2.399   2.977  0.1807  0.2932  0.6937
  531SOL     OW 2121   0.902   1.814   2.618  0.1007  0.4666  0.3272
  531SOL    HW1 2122   0.948   1.866   2.681  0.0456  0.7368  1.1006
  531SOL    HW2 2123   0.866   1.738   2.660  2.4525  0.3256 -1.5847
  531SOL     MW 2124   0.904   1.811   2.632  0.4037  0.4836  0.1770
  532SOL     OW 2125   1.712   0.345   2.837 -0.6641 -0.3316  0.5207
  532SOL    HW1 2126   1.685   0.267   2.786 -0.6161  0.3371  2.8381
  532SOL    HW2 2127   1.730   0.314   2.925 -1.9426  0.7438  0.3240
  532SOL     MW 2128   1.711   0.330   2.842 -0.8264 -0.1015  0.8005
  533SOL     OW 2129   1.777   2.800   2.956  0.2843  0.0098  0.4218
  533SOL    HW1 2130   1.757   2.721   3.010  0.3692 -3.5844 -0.9677
  533SOL    HW2 2131   1.715   2.789   2.883 -2.2800 -2.6873  0.2232
  533SOL     MW 2132   1.766   2.788   2.954 -0.0428 -0.8203  0.2123
  534SOL     OW 2133   1.759   2.502   2.490 -0.7063 -0.6237 -0.0444
  534SOL    HW1 2134   1.681   2.468   2.540  3.1261  0.7116 -0.2878
  534SOL    HW2 2135   1.825   2.492   2.560  1.1336 -0.8493  1.3224
  534SOL     MW 2136   1.757   2.496   2.506  0.0421 -0.4773  0.1039
  535SOL     OW 2137   1.795   2.391   1.928 -0.1229 -0.0777 -0.0465
  535SOL    HW1 2138   1.748   2.414   1.852  2.0796  0.4110  1.6420
  535SOL    HW2 2139   1.883   2.428   1.908  1.0156 -1.7324 -1.2216
  535SOL     MW 2140   1.800   2.399   1.915  0.3179 -0.2315  0.0213
  536SOL     OW 2141   0.405   1.878   2.033 -0.3025  0.1550  0.1761
  536SOL    HW1 2142   0.399   1.920   1.947 -1.6420  0.4902  1.3358
  536SOL    HW2 2143   0.492   1.829   2.029  1.3994 -4.0335  1.2605
  536SOL     MW 2144   0.416   1.877   2.021 -0.2547 -0.3534  0.4722
  537SOL     OW 2145   0.982   0.174   2.929 -0.3450 -0.2495 -0.0489
  537SOL    HW1 2146   0.967   0.142   3.019  0.0808 -1.5051 -1.0554
  537SOL    HW2 2147   0.959   0.264   2.919 -2.1120 -0.0667 -2.8350
  537SOL     MW 2148   0.977   0.182   2.940 -0.5219 -0.3910 -0.5493
  538SOL     OW 2149   1.285   0.055   3.017  0.2917  0.0046  0.5005
  538SOL    HW1 2150   1.196   0.087   2.995  1.2401  0.9114  1.2485
  538SOL    HW2 2151   1.325   0.126   3.060  2.3364  1.4032  0.7629
  538SOL     MW 2152   1.279   0.068   3.020  0.6866  0.3088  0.6338
  539SOL     OW 2153   0.730   2.725   2.516  0.5662 -0.4169 -0.3596
  539SOL    HW1 2154   0.809   2.777   2.541  0.1106  0.3208  2.8936
  539SOL    HW2 2155   0.766   2.637   2.514 -1.1018  0.4268 -1.8962
  539SOL     MW 2156   0.745   2.720   2.519  0.2860 -0.2082 -0.1331
  540SOL     OW 2157   0.410   2.211   2.890  0.0832  0.2827  0.2303
  540SOL    HW1 2158   0.466   2.275   2.952 -0.0942  1.1719  0.8589
  540SOL    HW2 2159   0.350   2.167   2.952 -1.6917  1.3411  0.8328
  540SOL     MW 2160   0.410   2.214   2.907 -0.1744  0.5397  0.3927
  541SOL     OW 2161   0.193   2.888   2.260  0.2257 -0.2677 -0.5282
  541SOL    HW1 2162   0.178   2.802   2.219 -0.6201  1.2387 -0.9843
  541SOL    HW2 2163   0.219   2.870   2.356 -0.8937 -0.2256 -0.0837
  541SOL     MW 2164   0.194   2.875   2.268 -0.0336 -0.0634 -0.5297
  542SOL     OW 2165   0.865   2.320   2.767  0.5173 -0.4151  0.3557
  542SOL    HW1 2166   0.864   2.271   2.853  0.9849 -1.8093  4.1835
  542SOL    HW2 2167   0.929   2.389   2.773 -0.6721  0.4508 -0.0125
  542SOL     MW 2168   0.873   2.323   2.779  0.4220 -0.4848  0.8122
  543SOL     OW 2169   1.352   2.644   2.638 -0.1544  0.2857  0.9459
  543SOL    HW1 2170   1.379   2.561   2.601 -0.6938  1.2476 -2.3312
  543SOL    HW2 2171   1.431   2.695   2.664  1.2094 -0.3139  2.8549
  543SOL     MW 2172   1.366   2.640   2.637 -0.0456  0.3335  0.7654
  544SOL     OW 2173   0.704   0.097   2.621 -0.0913 -0.3270 -0.6026
  544SOL    HW1 2174   0.622   0.044   2.629  1.0493 -0.0615 -2.9433
  544SOL    HW2 2175   0.762   0.060   2.557 -2.3835  1.0765  0.3755
  544SOL     MW 2176   0.700   0.085   2.613 -0.2432 -0.1068 -0.7824
  545SOL     OW 2177   1.569   2.226   2.343  0.1946  0.3414 -0.7832
  545SOL    HW1 2178   1.550   2.144   2.397 -0.0666  1.1517 -1.0023
  545SOL    HW2 2179   1.625   2.184   2.275  0.2275  2.1678  3.1079
  545SOL     MW 2180   1.574   2.209   2.342  0.1645  0.6893 -0.2987
  546SOL     OW 2181   2.991   2.013   0.125 -0.3602 -0.1914 -0.2998
  546SOL    HW1 2182   2.980   2.091   0.065 -2.6594  1.3988  0.3413
  546SOL    HW2 2183   3.044   1.946   0.078  0.4430 -1.3114 -3.1337
  546SOL     MW 2184   2.996   2.014   0.111 -0.5576 -0.1293 -0.5891
  547SOL     OW 2185   0.134   2.930   0.080 -0.4606  0.4071 -0.7213
  547SOL    HW1 2186   0.160   2.964  -0.008  2.5753 -1.5822 -1.1007
  547SOL    HW2 2187   0.188   2.851   0.097 -0.1400  0.2588 -1.7463
  547SOL     MW 2188   0.145   2.924   0.070 -0.0178  0.1251 -0.9066
  548SOL     OW 2189   0.250   2.507   0.296  0.1938 -0.4643 -0.2662
  548SOL    HW1 2190   0.271   2.553   0.216  1.2512  0.0021  2.0713
  548SOL    HW2 2191   0.151   2.513   0.281  0.5062  0.3850  1.0221
  548SOL     MW 2192   0.240   2.514   0.283  0.3745 -0.2907  0.2122
  549SOL     OW 2193   0.696   1.834   2.049  0.3197  0.1199  0.0214
  549SOL    HW1 2194   0.738   1.926   2.026  2.2499  4.5069  1.8113
  549SOL    HW2 2195   0.710   1.824   2.142  0.0430 -1.2786 -1.1946
  549SOL     MW 2196   0.704   1.845   2.058  0.5378  0.5142  0.0971
  550SOL     OW 2197   1.852   1.732   2.509  0.6123  0.0491  0.4605
  550SOL    HW1 2198   1.822   1.719   2.421  0.8852 -0.3075 -2.4542
  550SOL    HW2 2199   1.833   1.827   2.538  1.1460  1.8740 -0.4449
  550SOL     MW 2200   1.845   1.743   2.501  0.7187  0.2429 -0.0435
  551SOL     OW 2201   0.856   2.291   0.235 -0.3279 -0.1272  0.4562
  551SOL    HW1 2202   0.940   2.336   0.223  0.6762  0.3223  0.0754
  551SOL    HW2 2203   0.848   2.235   0.157 -0.5027  0.6513  0.2794
  551SOL     MW 2204   0.866   2.290   0.223 -0.2185  0.0348  0.3827
  552SOL     OW 2205   1.714   1.742   2.267  0.3989  0.4618  0.4536
  552SOL    HW1 2206   1.624   1.719   2.287  2.0792 -0.0535  1.5270
  552SOL    HW2 2207   1.750   1.687   2.193  1.0745 -2.2543 -1.7412
  552SOL     MW 2208   1.707   1.732   2.260  0.7098  0.0354  0.3057
  553SOL     OW 2209   1.214   2.302   1.521  0.6064  0.3438 -0.1794
  553SOL    HW1 2210   1.248   2.211   1.510 -0.4890 -0.1665 -0.7581
  553SOL    HW2 2211   1.277   2.363   1.478 -1.7099  3.1429 -1.1486
  553SOL     MW 2212   1.227   2.298   1.514  0.1562  0.6458 -0.3837
  554SOL     OW 2213   0.546   2.808   2.689 -0.3225  0.2438  0.1191
  554SOL    HW1 2214   0.519   2.892   2.659 -3.0508 -1.0114  0.2951
  554SOL    HW2 2215   0.626   2.788   2.632 -0.6345 -0.3541  1.5880
  554SOL     MW 2216   0.553   2.816   2.677 -0.7236 -0.0007  0.3361
  555SOL     OW 2217   0.571   2.388   2.606 -0.5719 -0.0769  0.1739
  555SOL    HW1 2218   0.582   2.293   2.600  1.1674 -2.8726  1.4209
  555SOL    HW2 2219   0.656   2.426   2.570  3.8597 -1.9102 -0.0688
  555SOL     MW 2220   0.584   2.380   2.600  0.2423 -0.6876  0.3064
  556SOL     OW 2221   1.055   1.816   0.142 -0.1331 -0.4713  0.2509
  556SOL    HW1 2222   1.086   1.795   0.054 -0.0399  0.8050  0.5113
  556SOL    HW2 2223   1.135   1.843   0.193 -1.9603 -2.1782 -1.0329
  556SOL     MW 2224   1.070   1.817   0.137 -0.3619 -0.5281  0.1158
  557SOL     OW 2225   1.052   2.701   0.454  0.1855 -0.1284  0.0909
  557SOL    HW1 2226   1.101   2.661   0.380 -0.2162 -0.5704  2.5645
  557SOL    HW2 2227   0.978   2.751   0.419 -0.9989  0.7526 -0.9300
  557SOL     MW 2228   1.049   2.702   0.440 -0.0238 -0.0705  0.2826
  558SOL     OW 2229   0.255   2.092   3.075 -0.5246 -0.5798 -0.0749
  558SOL    HW1 2230   0.206   2.017   3.081  3.4909 -0.9560  0.5451
  558SOL    HW2 2231   0.213   2.162   3.120  1.5623 -1.9834  1.1479
  558SOL     MW 2232   0.243   2.091   3.082  0.2806 -0.8147  0.1682
  559SOL     OW 2233   1.210   2.266   2.053 -0.2875  0.2825 -0.5568
  559SOL    HW1 2234   1.182   2.355   2.077  0.5767 -0.2645 -0.5514
  559SOL    HW2 2235   1.179   2.208   2.125 -2.9240 -0.8952  1.3500
  559SOL     MW 2236   1.202   2.270   2.066 -0.5213  0.0550 -0.3045
  560SOL     OW 2237   1.943   2.988   0.036 -0.4887 -0.2816 -0.2095
  560SOL    HW1 2238   2.017   2.997  -0.024 -1.1781  0.0214 -0.5103
  560SOL    HW2 2239   1.878   2.944  -0.020 -0.3447  0.0656  0.8776
  560SOL     MW 2240   1.944   2.983   0.021 -0.5606 -0.1958 -0.1058
  561SOL     OW 2241   0.473   2.084   0.156  0.5295  0.4713  0.6656
  561SOL    HW1 2242   0.412   2.116   0.082 -1.9390  0.0506 -1.2694
  561SOL    HW2 2243   0.510   2.166   0.192 -1.0145 -2.1540 -3.8305
  561SOL     MW 2244   0.470   2.099   0.151  0.0001  0.0694 -0.1829
  562SOL     OW 2245   0.859   2.140   2.229  0.3749 -0.4194  0.2531
  562SOL    HW1 2246   0.827   2.232   2.251 -1.1130  1.0322  1.0962
  562SOL    HW2 2247   0.956   2.132   2.232 -0.2423  0.2983  1.3106
  562SOL     MW 2248   0.867   2.151   2.232  0.0972 -0.1332  0.5038
  563SOL     OW 2249   1.262   0.283   0.520 -0.2468  0.0128  0.6293
  563SOL    HW1 2250   1.193   0.255   0.458 -0.5279 -2.4415  2.6668
  563SOL    HW2 2251   1.273   0.196   0.564 -1.1505  0.1662 -0.3618
  563SOL     MW 2252   1.255   0.268   0.517 -0.4032 -0.2907  0.7674
  564SOL     OW 2253   0.999   2.596   2.317  0.5345  0.1973  0.0840
  564SOL    HW1 2254   1.050   2.592   2.239 -2.9965  1.1438 -1.3884
  564SOL    HW2 2255   1.050   2.646   2.385 -0.7602  1.7278 -0.2430
  564SOL     MW 2256   1.012   2.602   2.316 -0.1022  0.5241 -0.1534
  565SOL     OW 2257   2.935   2.663   2.708 -0.3478 -0.0281 -0.2631
  565SOL    HW1 2258   2.976   2.748   2.688  2.2182  1.1117  1.4512
  565SOL    HW2 2259   2.865   2.648   2.636 -2.3295 -0.5902 -0.9637
  565SOL     MW 2260   2.931   2.672   2.696 -0.2707  0.0482 -0.1293
  566SOL     OW 2261   2.184   2.006   2.351  0.2039 -1.0776 -0.4890
  566SOL    HW1 2262   2.217   2.019   2.259  1.0350  0.5296 -0.5114
  566SOL    HW2 2263   2.249   2.060   2.395  0.3631  0.5810  0.3574
  566SOL     MW 2264   2.197   2.015   2.344  0.3346 -0.6467 -0.3803
  567SOL     OW 2265   1.186   2.924   0.081  0.1930  0.3759 -0.1279
  567SOL    HW1 2266   1.219   3.009   0.111 -2.5164 -0.6090  1.0913
  567SOL    HW2 2267   1.201   2.913  -0.011  0.7236  2.4897 -0.7327
  567SOL     MW 2268   1.192   2.934   0.073 -0.0945  0.5249 -0.0468
  568SOL     OW 2269   1.624   2.141   2.807  0.3355  0.2080  0.2160
  568SOL    HW1 2270   1.674   2.198   2.867  0.5841  2.0396  1.1661
  568SOL    HW2 2271   1.688   2.115   2.735  0.4275 -1.0219  3.2271
  568SOL     MW 2272   1.639   2.145   2.806  0.3804  0.2874  0.7387
  569SOL     OW 2273   0.109   2.205   2.462  0.4315  0.5028  0.0300
  569SOL    HW1 2274   0.062   2.276   2.408  0.0463 -0.1114  0.7485
  569SOL    HW2 2275   0.160   2.256   2.525 -3.1381  0.0410  1.7877
  569SOL     MW 2276   0.109   2.221   2.463 -0.0903  0.3608  0.3567
  570SOL     OW 2277   1.520   0.385   0.457 -0.5427  0.9313  0.3714
  570SOL    HW1 2278   1.435   0.362   0.496  1.8545 -0.1464  0.1500
  570SOL    HW2 2279   1.583   0.414   0.520  1.1040 -3.4406 -1.3948
  570SOL     MW 2280   1.517   0.386   0.470 -0.0092  0.2123  0.1092
  571SOL     OW 2281   1.463   2.430   2.001  0.1884 -0.1748 -0.4267
  571SOL    HW1 2282   1.499   2.434   2.087 -1.4499 -1.5266 -0.2338
  571SOL    HW2 2283   1.425   2.342   2.008  1.5664 -0.8400 -0.3175
  571SOL     MW 2284   1.463   2.419   2.013  0.1541 -0.4409 -0.3869
  572SOL     OW 2285   0.903   2.550   3.063 -0.5354  0.4604  0.1219
  572SOL    HW1 2286   0.884   2.615   2.990  1.4634  0.4202 -1.4974
  572SOL    HW2 2287   0.832   2.568   3.124 -2.3316  2.6316 -0.2596
  572SOL     MW 2288   0.891   2.561   3.061 -0.5087  0.7416 -0.1421
  573SOL     OW 2289   1.115   2.402   0.175  0.0298 -0.1393  0.0909
  573SOL    HW1 2290   1.184   2.349   0.133  1.2001 -1.5593 -1.6703
  573SOL    HW2 2291   1.145   2.488   0.162 -1.9018 -0.9868  1.4723
  573SOL     MW 2292   1.128   2.406   0.167 -0.0707 -0.4385  0.0408
  574SOL     OW 2293   1.220   2.669   0.206 -1.1846  0.5596 -0.3435
  574SOL    HW1 2294   1.299   2.691   0.257  1.0761 -2.8070 -0.7193
  574SOL    HW2 2295   1.202   2.749   0.161  1.5677 -1.2091  0.4039
  574SOL     MW 2296   1.228   2.683   0.207 -0.5232 -0.1179 -0.2945
  575SOL     OW 2297   3.043   2.291   1.820  0.3267  0.1855  0.1888
  575SOL    HW1 2298   3.029   2.221   1.747  1.0234 -2.2347  2.0188
  575SOL    HW2 2299   3.106   2.357   1.779  0.3765  1.7100 -0.7869
  575SOL     MW 2300   3.050   2.290   1.805  0.4252  0.0673  0.3015
  576SOL     OW 2301   2.815   1.813   2.034 -0.1335 -0.2243 -0.1642
  576SOL    HW1 2302   2.828   1.883   1.971  2.9302 -0.5256 -0.5431
  576SOL    HW2 2303   2.728   1.776   2.015 -0.4081  0.2003  0.2115
  576SOL     MW 2304   2.806   1.817   2.023  0.2345 -0.2080 -0.1646
  577SOL     OW 2305   2.058   0.263   0.050  0.0411 -0.8178  0.0806
  577SOL    HW1 2306   2.001   0.329   0.018 -0.6672 -0.1067 -0.0271
  577SOL    HW2 2307   2.009   0.215   0.110  0.1620  1.3508 -0.3393
  577SOL     MW 2308   2.044   0.265   0.054 -0.0364 -0.4378  0.0110
  578SOL     OW 2309   1.989   2.174   2.335  0.5646 -0.3025 -0.5696
  578SOL    HW1 2310   1.907   2.126   2.301  2.0305  0.5905  2.6930
  578SOL    HW2 2311   2.066   2.110   2.334 -0.2573 -1.8296 -1.1043
  578SOL     MW 2312   1.988   2.159   2.331  0.6496 -0.3862 -0.2097
  579SOL     OW 2313   0.830   2.451   2.516 -0.0855 -0.3466 -0.0929
  579SOL    HW1 2314   0.847   2.390   2.595 -1.3420  0.9972  0.6727
  579SOL    HW2 2315   0.915   2.473   2.480  0.3541 -0.4186 -0.2426
  579SOL     MW 2316   0.844   2.446   2.521 -0.1933 -0.1788 -0.0116
  580SOL     OW 2317   0.902   2.868   0.019  0.0349  0.8522  0.4919
  580SOL    HW1 2318   0.992   2.844  -0.006  1.4337 -1.5163 -0.6609
  580SOL    HW2 2319   0.855   2.865  -0.065  1.9801 -0.9753  3.5172
  580SOL     MW 2320   0.908   2.864   0.005  0.4761  0.2986  0.7389
  581SOL     OW 2321   1.106   2.545   1.736 -0.0294 -0.1987  0.6186
  581SOL    HW1 2322   1.197   2.574   1.737 -0.4897 -1.3940 -1.7489
  581SOL    HW2 2323   1.108   2.454   1.765 -0.0525 -0.2592 -2.6839
  581SOL     MW 2324   1.118   2.537   1.740 -0.0932 -0.3644 -0.1295
  582SOL     OW 2325  -0.001   2.855   2.620 -0.0728 -0.5049 -0.3496
  582SOL    HW1 2326   0.014   2.941   2.674  2.6989 -0.1328  1.8409
  582SOL    HW2 2327   0.089   2.840   2.595 -0.2063  0.7746 -0.7519
  582SOL     MW 2328   0.013   2.865   2.624  0.2753 -0.2870 -0.1136
  583SOL     OW 2329   1.947   2.489   2.686  0.3360 -0.0899 -0.1051
  583SOL    HW1 2330   1.977   2.541   2.605 -0.2980 -0.8928 -0.9614
  583SOL    HW2 2331   1.951   2.395   2.670 -0.6851 -0.9008  2.6147
  583SOL     MW 2332   1.951   2.484   2.673  0.1176 -0.3028  0.1408
  584SOL     OW 2333   0.164   1.844   2.116  0.0507  0.0059  0.7094
  584SOL    HW1 2334   0.256   1.857   2.076 -0.6304  0.9533 -2.6715
  584SOL    HW2 2335   0.172   1.888   2.201  0.6996  3.0776 -0.9085
  584SOL     MW 2336   0.178   1.852   2.122  0.0465  0.5362  0.0498
  585SOL     OW 2337   1.450   2.591   0.043 -0.0815 -0.5387 -0.0153
  585SOL    HW1 2338   1.408   2.604  -0.047  1.5271 -0.3649 -0.5419
  585SOL    HW2 2339   1.380   2.630   0.107  2.1066  3.9098  1.0834
  585SOL     MW 2340   1.436   2.598   0.040  0.4194  0.0712  0.0602
  586SOL     OW 2341   1.309   2.986   2.373 -0.3715  0.1550 -0.1573
  586SOL    HW1 2342   1.368   2.909   2.376 -1.0618  0.5228  0.3897
  586SOL    HW2 2343   1.287   3.010   2.465  2.7053  0.9351  2.7422
  586SOL     MW 2344   1.314   2.979   2.386 -0.0566  0.3064  0.2974
  587SOL     OW 2345   1.187   1.631   2.201  0.2907 -0.1421  0.1531
  587SOL    HW1 2346   1.196   1.539   2.238 -1.3745 -0.1253 -0.2766
  587SOL    HW2 2347   1.195   1.623   2.110 -1.8821  1.3701 -1.6151
  587SOL     MW 2348   1.189   1.618   2.194 -0.2157  0.0596 -0.1369
  588SOL     OW 2349   1.382   2.200   2.714  0.0863 -0.8425  0.1267
  588SOL    HW1 2350   1.460   2.170   2.747 -3.8152 -1.3985  0.1664
  588SOL    HW2 2351   1.308   2.180   2.775  0.8303 -0.8638  0.1663
  588SOL     MW 2352   1.382   2.193   2.727 -0.3303 -0.9186  0.1372
  589SOL     OW 2353   1.333   2.050   0.046  0.0432  0.2680 -0.1406
  589SOL    HW1 2354   1.348   2.135   0.085 -2.1982 -0.1074  1.7643
  589SOL    HW2 2355   1.301   1.995   0.122  1.8680  0.0756  0.8897
  589SOL     MW 2356   1.331   2.054   0.062 -0.0118  0.1931  0.2467
  590SOL     OW 2357   0.455   2.578   2.236 -0.3935  0.3126  0.0955
  590SOL    HW1 2358   0.406   2.585   2.154  0.1546 -1.8208 -0.5497
  590SOL    HW2 2359   0.527   2.638   2.224 -0.6407 -0.7925 -2.3939
  590SOL     MW 2360   0.458   2.587   2.224 -0.3538 -0.1147 -0.3181
  591SOL     OW 2361   2.234   0.694   3.032  0.4745  0.6646  0.2170
  591SOL    HW1 2362   2.148   0.723   3.012  2.2100  1.9812  0.4532
  591SOL    HW2 2363   2.283   0.702   2.950  0.8934  0.6983 -0.4223
  591SOL     MW 2364   2.229   0.699   3.018  0.7587  0.8428  0.1638
  592SOL     OW 2365   1.846   2.925   0.852  0.3024  0.4839  0.2585
  592SOL    HW1 2366   1.865   2.998   0.787 -0.4843  2.3250  0.2695
  592SOL    HW2 2367   1.884   2.844   0.805 -0.2092 -0.9623  0.1169
  592SOL     MW 2368   1.854   2.924   0.837  0.1311  0.5360  0.2413
  593SOL     OW 2369   1.942   0.806   0.855  0.1738 -0.2070 -0.5036
  593SOL    HW1 2370   1.866   0.782   0.801 -2.9381 -3.2336  0.3543
  593SOL    HW2 2371   1.964   0.721   0.891  0.1341 -0.5464 -0.8655
  593SOL     MW 2372   1.935   0.792   0.852 -0.2420 -0.6511 -0.4382
  594SOL     OW 2373   2.721   1.141   1.372  0.0151  0.3818 -0.2169
  594SOL    HW1 2374   2.819   1.126   1.356  1.6238 -0.2214 -0.2439
  594SOL    HW2 2375   2.683   1.117   1.285 -1.2317 -0.4150  0.4910
  594SOL     MW 2376   2.729   1.136   1.358  0.0629  0.1971 -0.1271
  595SOL     OW 2377   0.415   0.974   0.756  0.3719  0.0625  0.0084
  595SOL    HW1 2378   0.461   1.014   0.675  0.1657 -1.9441 -2.4949
  595SOL    HW2 2379   0.441   1.013   0.837 -0.1362  1.8762 -0.3215
  595SOL     MW 2380   0.424   0.985   0.756  0.2776  0.0371 -0.3654
  596SOL     OW 2381   2.455   1.353   0.591 -0.0709  0.2302  0.1845
  596SOL    HW1 2382   2.480   1.426   0.532  0.0770  2.6022 -1.7107
  596SOL    HW2 2383   2.536   1.323   0.636 -1.2750 -0.1060  2.1280
  596SOL     MW 2384   2.469   1.358   0.589 -0.2102  0.4988  0.1909
  597SOL     OW 2385   2.194   0.650   1.705 -0.8002 -0.2580 -0.0179
  597SOL    HW1 2386   2.258   0.581   1.720 -1.5078  3.1333 -1.3974
  597SOL    HW2 2387   2.157   0.631   1.616 -0.0360 -2.4113 -0.1466
  597SOL     MW 2388   2.198   0.638   1.696 -0.7927 -0.0947 -0.2169
  598SOL     OW 2389   2.620   0.998   2.873  0.3628 -0.3030  0.0745
  598SOL    HW1 2390   2.650   0.969   2.793 -3.1096 -0.0637  1.4742
  598SOL    HW2 2391   2.683   1.051   2.922  1.9390  3.5821 -3.5181
  598SOL     MW 2392   2.632   1.001   2.869  0.1126  0.2412 -0.2148
  599SOL     OW 2393   2.908   0.367   2.016 -0.4008  0.3939 -0.4005
  599SOL    HW1 2394   2.917   0.363   2.111 -0.2968  0.4335 -1.7014
  599SOL    HW2 2395   2.955   0.449   1.997  1.2560 -0.0879 -3.3129
  599SOL     MW 2396   2.915   0.377   2.026 -0.1685  0.3356 -0.9564
  600SOL     OW 2397   1.868   1.689   0.867 -0.4196  0.6327  0.3882
  600SOL    HW1 2398   1.854   1.684   0.964 -0.2312 -0.8242  0.5947
  600SOL    HW2 2399   1.781   1.719   0.841  2.0145 -0.4509  1.1236
  600SOL     MW 2400   1.855   1.693   0.877 -0.0736  0.2975  0.5125
  601SOL     OW 2401   2.510   0.800   0.877  0.7213  0.2621 -0.0899
  601SOL    HW1 2402   2.533   0.793   0.971 -0.7195 -2.3500  0.1462
  601SOL    HW2 2403   2.422   0.825   0.881 -0.5741 -3.9537  0.7558
  601SOL     MW 2404   2.501   0.802   0.890  0.3603 -0.6388  0.0529
  602SOL     OW 2405   2.283   1.943   0.688  0.0915 -0.0814 -0.3598
  602SOL    HW1 2406   2.225   1.871   0.725  1.6268 -0.1270  1.8315
  602SOL    HW2 2407   2.222   2.002   0.645  0.9091 -0.7579 -0.6881
  602SOL     MW 2408   2.267   1.941   0.687  0.4020 -0.1767 -0.1140
  603SOL     OW 2409   3.001   1.399   1.844  0.2020 -0.3214 -0.1240
  603SOL    HW1 2410   3.094   1.403   1.854  1.1656 -1.4077  0.3701
  603SOL    HW2 2411   2.987   1.308   1.803 -1.1835 -0.2456  0.5152
  603SOL     MW 2412   3.011   1.387   1.840  0.1464 -0.4547  0.0255
  604SOL     OW 2413   2.066   1.555   0.501  0.4782 -0.1431 -0.5885
  604SOL    HW1 2414   2.100   1.506   0.580 -0.7448 -1.6037  0.5829
  604SOL    HW2 2415   2.016   1.624   0.541  0.0525  1.5183 -0.3192
  604SOL     MW 2416   2.064   1.558   0.517  0.2606 -0.1166 -0.3984
  605SOL     OW 2417   2.664   1.561   0.858 -0.1223  0.4918  0.4072
  605SOL    HW1 2418   2.584   1.606   0.835  1.8482 -3.6177  2.5671
  605SOL    HW2 2419   2.647   1.519   0.945  0.3460  1.8809  0.6885
  605SOL     MW 2420   2.651   1.562   0.866  0.1995  0.1329  0.7293
  606SOL     OW 2421   2.538   1.779   1.995  0.0468 -0.6662  0.6073
  606SOL    HW1 2422   2.444   1.791   1.995  1.5333 -2.3530 -2.5759
  606SOL    HW2 2423   2.562   1.719   1.916 -0.8057 -0.7907  0.2619
  606SOL     MW 2424   2.529   1.772   1.985  0.1305 -0.9052  0.1417
  607SOL     OW 2425   2.332   1.033   2.996 -0.0918 -0.1909  0.2101
  607SOL    HW1 2426   2.423   1.021   2.975  0.6164  2.2349  3.9855
  607SOL    HW2 2427   2.343   1.053   3.090 -1.0397 -0.4492  3.1968
  607SOL     MW 2428   2.345   1.034   3.006 -0.1234  0.0951  1.1023
  608SOL     OW 2429   1.906   0.258   0.602 -0.2117  0.4041 -0.3663
  608SOL    HW1 2430   1.930   0.293   0.513 -2.7482  2.0331 -1.9347
  608SOL    HW2 2431   1.851   0.179   0.590 -0.7399 -2.2901 -1.6950
  608SOL     MW 2432   1.902   0.252   0.589 -0.6161  0.2636 -0.7485
  609SOL     OW 2433   2.150   1.898   3.017  0.1358 -0.4351  0.4816
  609SOL    HW1 2434   2.054   1.881   3.009 -0.0191 -0.4219 -1.2898
  609SOL    HW2 2435   2.173   1.889   3.109 -1.3386  1.4824 -0.3358
  609SOL     MW 2436   2.140   1.895   3.028 -0.0792 -0.1804  0.1400
  610SOL     OW 2437   1.842   1.100   1.357  0.2132 -0.0398  0.0284
  610SOL    HW1 2438   1.857   1.032   1.290  2.9529  0.2871 -0.7610
  610SOL    HW2 2439   1.769   1.063   1.410  1.2195  0.2958 -1.6853
  610SOL     MW 2440   1.834   1.087   1.355  0.7075  0.0476 -0.3018
  611SOL     OW 2441   2.456   1.702   0.724 -0.4009 -0.4609 -0.0531
  611SOL    HW1 2442   2.414   1.781   0.697 -1.3599  0.0907 -3.6191
  611SOL    HW2 2443   2.466   1.665   0.642 -0.5652 -2.2321  2.0404
  611SOL     MW 2444   2.452   1.707   0.710 -0.5491 -0.6218 -0.2474
  612SOL     OW 2445   2.785   2.809   0.448 -0.0263 -0.0556  0.1859
  612SOL    HW1 2446   2.822   2.845   0.536  0.8912 -1.7786  1.3125
  612SOL    HW2 2447   2.864   2.816   0.394  0.8878 -0.2135  1.2949
  612SOL     MW 2448   2.800   2.815   0.452  0.2153 -0.3038  0.4809
  613SOL     OW 2449   1.628   1.001   1.110 -0.2270  0.1656  0.2974
  613SOL    HW1 2450   1.604   1.081   1.148 -1.1256  0.7006 -1.9423
  613SOL    HW2 2451   1.724   0.984   1.125 -0.5173  0.0997  2.3866
  613SOL     MW 2452   1.638   1.009   1.117 -0.3838  0.2275  0.2776
  614SOL     OW 2453   2.012   0.551   1.508  0.8764 -0.1710 -0.5858
  614SOL    HW1 2454   2.020   0.465   1.552  1.7797  1.0649  2.0632
  614SOL    HW2 2455   2.058   0.538   1.424 -1.2877  1.6659 -0.9974
  614SOL     MW 2456   2.019   0.538   1.503  0.7100  0.2345 -0.2906
  615SOL     OW 2457   2.230   0.824   0.198  0.3995 -0.2755 -0.1118
  615SOL    HW1 2458   2.275   0.771   0.261 -2.4631  0.8317 -1.1146
  615SOL    HW2 2459   2.249   0.781   0.115  2.3412  0.2769  0.5196
  615SOL     MW 2460   2.238   0.811   0.195  0.2780 -0.0565 -0.1608
  616SOL     OW 2461   2.588   0.426   1.600 -0.5269  0.3009 -0.7561
  616SOL    HW1 2462   2.539   0.380   1.532  0.1657  0.3161  0.7161
  616SOL    HW2 2463   2.638   0.497   1.553 -0.1001  1.8741  0.0209
  616SOL     MW 2464   2.588   0.429   1.585 -0.3792  0.5105 -0.4594
  617SOL     OW 2465   2.910   0.560   1.750 -0.3756 -0.6891  0.2822
  617SOL    HW1 2466   2.819   0.586   1.785 -1.7795 -1.0663  0.8658
  617SOL    HW2 2467   2.890   0.464   1.742 -1.7248 -1.5029 -1.2405
  617SOL     MW 2468   2.895   0.551   1.753 -0.7389 -0.8462  0.1583
  618SOL     OW 2469   2.642   0.367   1.942  0.2655  0.0719 -0.5252
  618SOL    HW1 2470   2.621   0.458   1.951 -0.0997  0.1596  1.8693
  618SOL    HW2 2471   2.737   0.363   1.959  0.2321 -0.3746  1.4298
  618SOL     MW 2472   2.652   0.379   1.945  0.2129  0.0246  0.0487
  619SOL     OW 2473   2.605   0.893   0.147 -0.0046 -0.2916  0.1818
  619SOL    HW1 2474   2.695   0.913   0.169  2.3206 -1.8381  0.2500
  619SOL    HW2 2475   2.568   0.848   0.224  0.3962  0.2794  0.6152
  619SOL     MW 2476   2.612   0.890   0.160  0.3551 -0.4203  0.2480
  620SOL     OW 2477   2.285   1.082   0.924 -0.0539  0.0723  0.2197
  620SOL    HW1 2478   2.344   1.109   0.852 -0.8000 -0.2772 -0.5123
  620SOL    HW2 2479   2.254   1.001   0.890  0.2368 -2.0069  1.5231
  620SOL     MW 2480   2.289   1.075   0.910 -0.1140 -0.2481  0.2951
  621SOL     OW 2481   1.487   2.124   1.985 -0.3523 -0.2262 -0.3063
  621SOL    HW1 2482   1.401   2.084   1.984  1.4078 -2.1850  0.1159
  621SOL    HW2 2483   1.536   2.079   2.048 -1.6748  3.0068  2.2406
  621SOL     MW 2484   1.482   2.113   1.993 -0.2946 -0.0581  0.0854
  622SOL     OW 2485   2.625   0.163   0.172 -0.2460 -0.1415  0.5568
  622SOL    HW1 2486   2.714   0.197   0.194 -0.3602 -3.0772 -1.2941
  622SOL    HW2 2487   2.649   0.071   0.139  0.3648 -1.0906 -0.5194
  622SOL     MW 2488   2.640   0.156   0.171 -0.1804 -0.6541  0.1706
  623SOL     OW 2489   2.376   2.790   0.844 -0.3241  0.1824 -0.1405
  623SOL    HW1 2490   2.448   2.850   0.847 -0.8356 -1.3583  0.1097
  623SOL    HW2 2491   2.314   2.822   0.907  0.8855 -1.2119  0.5421
  623SOL     MW 2492   2.377   2.802   0.853 -0.2320 -0.2048 -0.0175
  624SOL     OW 2493   2.236   1.650   3.004  0.1093 -0.1825  0.6337
  624SOL    HW1 2494   2.153   1.611   3.020  1.5540  0.8882 -0.1548
  624SOL    HW2 2495   2.212   1.743   3.006  0.1788 -0.6215  0.8141
  624SOL     MW 2496   2.222   1.657   3.006  0.3091 -0.0991  0.5534
  625SOL     OW 2497   2.190   1.894   1.069 -0.4393 -0.3088  0.1298
  625SOL    HW1 2498   2.244   1.866   1.143  0.0404 -2.7723  1.4129
  625SOL    HW2 2499   2.240   1.867   0.991 -0.1345  2.2586  0.3868
  625SOL     MW 2500   2.204   1.887   1.069 -0.3358 -0.2951  0.3330
  626SOL     OW 2501   0.149   1.544   2.389  0.2146 -0.0547  0.1267
  626SOL    HW1 2502   0.088   1.514   2.321  2.4654 -1.2923 -2.4673
  626SOL    HW2 2503   0.102   1.602   2.455 -0.4710 -0.6797 -0.6491
  626SOL     MW 2504   0.135   1.548   2.389  0.4211 -0.3004 -0.3180
  627SOL     OW 2505   2.442   0.854   2.551  0.4663 -0.1467  0.3711
  627SOL    HW1 2506   2.372   0.926   2.557  0.6636 -1.3410 -2.0895
  627SOL    HW2 2507   2.409   0.790   2.481  0.2399  0.3374  0.5696
  627SOL     MW 2508   2.429   0.855   2.542  0.4625 -0.2404  0.0726
  628SOL     OW 2509   2.309   1.365   1.378 -0.5875 -0.0746 -0.1026
  628SOL    HW1 2510   2.280   1.322   1.296  0.1279  1.3562  1.5990
  628SOL    HW2 2511   2.402   1.375   1.364  1.2788  0.6272  1.5782
  628SOL     MW 2512   2.317   1.361   1.366 -0.2469  0.2067  0.3437
  629SOL     OW 2513   2.003   0.555   1.184 -0.0634  0.1313  0.3182
  629SOL    HW1 2514   2.079   0.614   1.183  0.1403 -3.1160 -0.1131
  629SOL    HW2 2515   1.923   0.608   1.207  1.0255 -0.9752  0.7185
  629SOL     MW 2516   2.002   0.570   1.187  0.1071 -0.4431  0.3141
  630SOL     OW 2517   2.512   1.787   3.071  0.4726  0.0120 -0.3148
  630SOL    HW1 2518   2.444   1.837   3.027 -2.1011 -1.2892 -1.9662
  630SOL    HW2 2519   2.467   1.707   3.113 -0.2814 -0.2882 -1.0068
  630SOL     MW 2520   2.497   1.783   3.070  0.0335 -0.1993 -0.6240
  631SOL     OW 2521   1.965   1.783   1.611  0.4257  0.0053  0.1912
  631SOL    HW1 2522   2.004   1.693   1.642  1.6138  0.4918  0.3593
  631SOL    HW2 2523   1.945   1.777   1.516  1.4420 -0.2569 -3.8180
  631SOL     MW 2524   1.967   1.771   1.603  0.7165  0.0349 -0.3156
  632SOL     OW 2525   0.207   2.088   1.577 -0.5326  0.4774  0.0283
  632SOL    HW1 2526   0.126   2.114   1.626  1.4338  2.0042 -0.3362
  632SOL    HW2 2527   0.182   2.011   1.533 -2.4574 -0.3507  0.0423
  632SOL     MW 2528   0.193   2.081   1.578 -0.5271  0.5696 -0.0180
  633SOL     OW 2529   2.416   0.678   0.363  0.0636 -0.1027 -0.2751
  633SOL    HW1 2530   2.501   0.665   0.398  1.9309  0.3442 -3.0684
  633SOL    HW2 2531   2.367   0.597   0.381 -2.2724  0.4698  1.9055
  633SOL     MW 2532   2.421   0.666   0.370  0.0018  0.0318 -0.3559
  634SOL     OW 2533   2.645   3.089   0.623  0.1970 -0.1483 -0.0612
  634SOL    HW1 2534   2.694   3.175   0.612  0.6455 -0.3747  1.0906
  634SOL    HW2 2535   2.610   3.068   0.539 -0.6711 -1.5431  1.4116
  634SOL     MW 2536   2.647   3.097   0.610  0.1416 -0.3622  0.2851
  635SOL     OW 2537   2.625   0.122   1.807  0.5447  0.3898 -0.2597
  635SOL    HW1 2538   2.706   0.101   1.762 -0.3850 -0.9622 -0.6597
  635SOL    HW2 2539   2.629   0.209   1.844 -0.0331 -0.7725  2.0749
  635SOL     MW 2540   2.636   0.131   1.806  0.3458  0.0580 -0.0045
  636SOL     OW 2541   2.916   1.634   0.977  0.4445  0.0915 -0.5156
  636SOL    HW1 2542   2.859   1.685   0.920 -2.5777 -1.0126  2.3962
  636SOL    HW2 2543   2.942   1.695   1.045  1.2517  0.9459  1.4977
  636SOL     MW 2544   2.912   1.649   0.978  0.1522  0.0586  0.1342
  637SOL     OW 2545   2.906   1.496   0.720  0.0363 -0.2136  0.0451
  637SOL    HW1 2546   2.964   1.566   0.745 -1.4172 -2.2913 -2.2860
  637SOL    HW2 2547   2.830   1.501   0.776  1.0922  2.1616 -0.3046
  637SOL     MW 2548   2.903   1.506   0.731 -0.0162 -0.1743 -0.3086
  638SOL     OW 2549   2.648   0.674   0.518  0.0564 -0.4557 -0.3253
  638SOL    HW1 2550   2.744   0.669   0.498 -0.8015  1.8317 -1.4182
  638SOL    HW2 2551   2.645   0.600   0.576  2.1756  0.0151 -0.4104
  638SOL     MW 2552   2.660   0.664   0.523  0.2228 -0.0918 -0.4807
  639SOL     OW 2553   1.798   3.091   0.641  0.1152  0.3507 -0.4315
  639SOL    HW1 2554   1.706   3.128   0.626 -1.2693 -0.3475 -1.0224
  639SOL    HW2 2555   1.835   3.065   0.555 -0.2584 -1.1978  1.1555
  639SOL     MW 2556   1.791   3.093   0.628 -0.1168  0.0543 -0.3000
  640SOL     OW 2557   0.380   1.351   0.086 -0.0065  0.3187  0.0165
  640SOL    HW1 2558   0.390   1.401   0.004  0.8123  2.4331 -0.0380
  640SOL    HW2 2559   0.347   1.261   0.057 -2.1573 -0.2052 -2.1571
  640SOL     MW 2560   0.377   1.346   0.072 -0.1822  0.5285 -0.2775
  641SOL     OW 2561   2.277   0.454   0.366 -0.6118  0.1934 -0.3115
  641SOL    HW1 2562   2.302   0.410   0.287 -1.4331 -1.4079 -0.5820
  641SOL    HW2 2563   2.339   0.416   0.434 -0.8897  0.3315 -0.5219
  641SOL     MW 2564   2.289   0.443   0.365 -0.7568  0.0003 -0.3749
  642SOL     OW 2565   0.034   0.029   0.528 -0.1095 -0.1005  0.8878
  642SOL    HW1 2566   0.009   0.118   0.501  1.4701 -0.7517 -3.2169
  642SOL    HW2 2567  -0.049  -0.017   0.534 -1.5626 -0.4732 -0.3112
  642SOL     MW 2568   0.020   0.034   0.525 -0.0928 -0.2356  0.1880
  643SOL     OW 2569   2.013   0.309   1.666  0.0208  0.5383  0.2373
  643SOL    HW1 2570   2.087   0.326   1.724 -1.1438  0.4223  1.7055
  643SOL    HW2 2571   2.038   0.264   1.583 -2.9704 -2.2608 -0.9864
  643SOL     MW 2572   2.026   0.305   1.663 -0.5275  0.1537  0.2696
  644SOL     OW 2573   2.710   1.845   0.976 -0.1429 -0.2595  0.3524
  644SOL    HW1 2574   2.666   1.846   1.058 -0.2687 -1.3780 -0.6756
  644SOL    HW2 2575   2.641   1.841   0.916 -0.6767  0.2411  0.6942
  644SOL     MW 2576   2.695   1.845   0.979 -0.2299 -0.3410  0.2618
  645SOL     OW 2577   2.784   0.901   0.644  0.4432 -0.2162  0.3731
  645SOL    HW1 2578   2.827   0.840   0.708  1.3879 -1.3924 -0.8283
  645SOL    HW2 2579   2.724   0.843   0.600 -0.2710 -0.1168  0.6897
  645SOL     MW 2580   2.782   0.886   0.647  0.4736 -0.3582  0.2564
  646SOL     OW 2581   0.178   2.263   0.871 -0.0385 -0.4103 -0.1930
  646SOL    HW1 2582   0.211   2.174   0.873  2.1535  1.0811  2.0067
  646SOL    HW2 2583   0.119   2.266   0.795  2.2165  2.1356  1.0806
  646SOL     MW 2584   0.175   2.251   0.861  0.5482  0.1224  0.2653
  647SOL     OW 2585   2.737   0.533   2.979 -0.7113  0.0394  0.0522
  647SOL    HW1 2586   2.665   0.490   3.016 -1.3288  1.3708  1.1932
  647SOL    HW2 2587   2.704   0.616   2.961  3.1136 -2.1723 -0.9229
  647SOL     MW 2588   2.723   0.539   2.981 -0.2881 -0.0768  0.0741
  648SOL     OW 2589   2.214   0.717   1.165 -0.0620 -0.4465  0.9278
  648SOL    HW1 2590   2.231   0.744   1.070 -0.9539  0.5880  0.0092
  648SOL    HW2 2591   2.199   0.800   1.210  2.3167 -1.2557  2.7448
  648SOL     MW 2592   2.215   0.732   1.159  0.1341 -0.4168  1.0464
  649SOL     OW 2593   2.368   2.704   1.229  0.3119  0.1705  0.7876
  649SOL    HW1 2594   2.454   2.746   1.244  0.4634 -1.5947  0.3213
  649SOL    HW2 2595   2.377   2.614   1.188 -0.9404  2.0975  0.8686
  649SOL     MW 2596   2.380   2.698   1.226  0.1666  0.1918  0.7368
  650SOL     OW 2597   2.763   0.228   0.610  0.6861  0.0651  0.2186
  650SOL    HW1 2598   2.798   0.246   0.701  2.1488 -0.5457  1.2933
  650SOL    HW2 2599   2.837   0.250   0.554  0.3946  2.1854 -1.1452
  650SOL     MW 2600   2.777   0.233   0.615  0.8407  0.2643  0.1804
  651SOL     OW 2601   2.960   0.324   0.844 -0.2827  0.4047 -0.1571
  651SOL    HW1 2602   3.010   0.337   0.768 -1.3407  0.1762 -1.1637
  651SOL    HW2 2603   2.937   0.414   0.878  0.8742  1.3162  0.2485
  651SOL     MW 2604   2.964   0.337   0.839 -0.2697  0.4948 -0.2364
  652SOL     OW 2605   2.362   1.422   2.932 -0.3347  0.5298  0.2753
  652SOL    HW1 2606   2.418   1.447   2.856  0.8761  0.0210 -3.0653
  652SOL    HW2 2607   2.331   1.507   2.962 -1.1566 -0.0546 -1.6442
  652SOL     MW 2608   2.365   1.436   2.926 -0.2834  0.3856 -0.4188
  653SOL     OW 2609   1.963   0.405   0.372  0.0292  0.6135  0.2328
  653SOL    HW1 2610   1.979   0.346   0.299 -0.7451  4.1705 -3.9535
  653SOL    HW2 2611   2.048   0.440   0.385 -0.5136 -1.1900 -0.1006
  653SOL     MW 2612   1.976   0.402   0.364 -0.1446  0.8449 -0.3635
  654SOL     OW 2613   2.465   1.020   0.709  0.2317  0.4045 -0.3860
  654SOL    HW1 2614   2.397   1.001   0.643  1.1449 -2.2380  0.4855
  654SOL    HW2 2615   2.504   0.934   0.736  0.2110  1.6258  0.5474
  654SOL     MW 2616   2.461   1.006   0.704  0.3495  0.2170 -0.1479
  655SOL     OW 2617   3.037   0.909   0.437 -0.3492  0.0464  0.1661
  655SOL    HW1 2618   3.040   0.973   0.509 -1.6059 -0.8705  0.8824
  655SOL    HW2 2619   2.987   0.830   0.467  0.3687  0.2786 -2.8469
  655SOL     MW 2620   3.031   0.907   0.450 -0.4203 -0.0440 -0.1369
  656SOL     OW 2621   1.955   2.788   1.221 -0.4516 -0.3561  0.0503
  656SOL    HW1 2622   1.969   2.872   1.265 -1.9565  1.2429  3.0877
  656SOL    HW2 2623   1.984   2.718   1.271 -1.2017 -1.0498 -1.6578
  656SOL     MW 2624   1.960   2.790   1.234 -0.7491 -0.2366  0.2257
  657SOL     OW 2625   0.236   1.526   1.227  0.2370 -0.8164  0.0104
  657SOL    HW1 2626   0.144   1.498   1.222 -0.7483 -0.3233  1.6975
  657SOL    HW2 2627   0.255   1.566   1.145  2.0838  0.9230  1.7779
  657SOL     MW 2628   0.227   1.528   1.216  0.3507 -0.5218  0.4662
  658SOL     OW 2629   2.701   1.392   0.253  0.1066 -0.0061 -0.3360
  658SOL    HW1 2630   2.639   1.344   0.308  0.4154 -0.9160 -0.0920
  658SOL    HW2 2631   2.754   1.442   0.315 -1.5273 -1.0759 -1.0896
  658SOL     MW 2632   2.700   1.392   0.269 -0.0683 -0.2673 -0.4032
  659SOL     OW 2633   2.228   1.555   1.034  0.0689  0.2177 -0.5025
  659SOL    HW1 2634   2.323   1.518   1.043  2.6348 -0.1647  1.2778
  659SOL    HW2 2635   2.189   1.576   1.124 -0.7374 -2.7522 -3.4869
  659SOL     MW 2636   2.235   1.553   1.047  0.3010 -0.2246 -0.6614
  660SOL     OW 2637   2.026   1.547   1.714  0.2802  0.1376  0.3202
  660SOL    HW1 2638   2.035   1.577   1.803  3.1071 -0.5869 -1.3823
  660SOL    HW2 2639   1.974   1.470   1.708  4.8927  1.4046 -1.4578
  660SOL     MW 2640   2.021   1.541   1.725  1.2617  0.2092 -0.1390
  661SOL     OW 2641   2.362   1.129   0.158  0.8733  0.3291  0.0177
  661SOL    HW1 2642   2.434   1.154   0.218 -0.4186 -1.5488 -1.6505
  661SOL    HW2 2643   2.338   1.041   0.191  0.6707 -1.3185  2.5107
  661SOL     MW 2644   2.368   1.121   0.170  0.6761 -0.1360  0.1265
  662SOL     OW 2645   2.536   3.015   0.870  0.4160 -0.5679  0.2339
  662SOL    HW1 2646   2.482   3.081   0.921 -1.7440 -0.7776  1.3091
  662SOL    HW2 2647   2.565   3.064   0.794 -0.4582  0.4244  0.8174
  662SOL     MW 2648   2.533   3.030   0.867  0.0157 -0.4646  0.4528
  663SOL     OW 2649   2.809   1.561   0.437  0.6636  0.4467 -0.0413
  663SOL    HW1 2650   2.885   1.613   0.410 -3.3913  0.3825  1.2757
  663SOL    HW2 2651   2.837   1.535   0.526  0.4133  0.5053  0.4651
  663SOL     MW 2652   2.822   1.564   0.445  0.0956  0.4460  0.1993
  664SOL     OW 2653   2.481   1.582   1.557  0.1737  0.5363 -0.6045
  664SOL    HW1 2654   2.462   1.677   1.565  1.7550  1.5734  0.4999
  664SOL    HW2 2655   2.406   1.536   1.594 -0.4756 -2.2620  0.9956
  664SOL     MW 2656   2.468   1.588   1.563  0.2967  0.3040 -0.2477
  665SOL     OW 2657   2.872   0.797   2.035 -0.5826  0.1984  0.1115
  665SOL    HW1 2658   2.858   0.863   1.966 -1.5886 -0.7739 -2.4550
  665SOL    HW2 2659   2.955   0.751   2.027 -0.8386  0.6687 -0.4699
  665SOL     MW 2660   2.881   0.799   2.025 -0.7491  0.1322 -0.3039
  666SOL     OW 2661   2.808   2.995   1.683 -0.7282  0.3085 -0.1251
  666SOL    HW1 2662   2.802   2.995   1.588 -0.7980  0.3230 -0.2683
  666SOL    HW2 2663   2.748   2.927   1.717  1.4329  3.1704  2.8891
  666SOL     MW 2664   2.799   2.986   1.675 -0.4522  0.6880  0.2537
  667SOL     OW 2665   1.938   2.692   1.623  0.5961 -0.2914 -1.0149
  667SOL    HW1 2666   1.957   2.626   1.689  1.0469  1.4914 -1.2625
  667SOL    HW2 2667   2.019   2.745   1.624 -1.5698  0.4122 -3.0005
  667SOL     MW 2668   1.951   2.690   1.632  0.3698  0.0367 -1.3096
  668SOL     OW 2669   2.742   0.636   0.802  0.3150  0.1822  0.1083
  668SOL    HW1 2670   2.811   0.615   0.869 -0.1584  0.4729  2.7991
  668SOL    HW2 2671   2.677   0.677   0.859  1.6773 -2.4689 -1.5803
  668SOL     MW 2672   2.743   0.638   0.819  0.4323 -0.1292  0.2405
  669SOL     OW 2673   0.150   0.925   0.724 -0.5119 -0.0811  0.0955
  669SOL    HW1 2674   0.101   0.991   0.780  0.7160  0.7103 -0.7668
  669SOL    HW2 2675   0.239   0.926   0.759  3.9168  1.8446  0.2333
  669SOL     MW 2676   0.155   0.934   0.736  0.2344  0.2774 -0.0001
  670SOL     OW 2677   2.900   0.276   0.245  0.6120 -0.1270 -0.3951
  670SOL    HW1 2678   2.913   0.209   0.176  0.3519 -1.0006 -0.0506
  670SOL    HW2 2679   2.913   0.363   0.198  0.0523  1.5615 -1.7563
  670SOL     MW 2680   2.903   0.279   0.229  0.5038 -0.0194 -0.5292
  671SOL     OW 2681   2.160   0.003   1.617 -0.2224 -0.4766  0.1163
  671SOL    HW1 2682   2.152   0.058   1.536  1.0870  3.2776  1.6421
  671SOL    HW2 2683   2.078  -0.041   1.642 -1.4289 -0.1030  0.4045
  671SOL     MW 2684   2.148   0.005   1.609 -0.2088  0.0680  0.3556
  672SOL     OW 2685   1.884   1.710   1.359 -0.5154  0.0976 -0.0774
  672SOL    HW1 2686   1.796   1.715   1.384  3.3077 -3.2862 -3.0290
  672SOL    HW2 2687   1.892   1.758   1.274  0.7641 -0.8595 -1.6125
  672SOL     MW 2688   1.873   1.717   1.351  0.1578 -0.4751 -0.6694
  673SOL     OW 2689   2.791   1.108   0.469 -0.1970 -0.0733 -0.2569
  673SOL    HW1 2690   2.802   1.015   0.503  0.4866  0.3954 -0.1120
  673SOL    HW2 2691   2.879   1.157   0.489  1.0138 -0.6187 -3.9118
  673SOL     MW 2692   2.804   1.102   0.476  0.0529 -0.0834 -0.7200
  674SOL     OW 2693   2.477   0.017   1.284  1.0100  0.4984 -0.2141
  674SOL    HW1 2694   2.456   0.042   1.192  0.6978 -1.7776  1.6302
  674SOL    HW2 2695   2.489  -0.075   1.277  2.0934 -0.1855  1.2832
  674SOL     MW 2696   2.476   0.008   1.271  1.1118  0.1078  0.2268
  675SOL     OW 2697   2.964   1.059   1.094  0.1659  0.3912 -0.0958
  675SOL    HW1 2698   3.008   1.043   1.181  1.5286  1.0166  1.8636
  675SOL    HW2 2699   3.027   1.038   1.022 -1.1854 -1.7483  0.6899
  675SOL     MW 2700   2.978   1.054   1.096  0.1674  0.1914  0.2664
  676SOL     OW 2701   2.819   1.486   1.635 -0.5801 -0.5801 -0.3810
  676SOL    HW1 2702   2.764   1.413   1.643  0.8201  2.8309  0.8910
  676SOL    HW2 2703   2.861   1.488   1.718  0.4236 -1.6405 -0.0006
  676SOL     MW 2704   2.817   1.477   1.647 -0.2629 -0.2700 -0.1630
  677SOL     OW 2705   2.480   0.837   1.863 -0.2971 -0.5527  0.2424
  677SOL    HW1 2706   2.425   0.842   1.789 -0.1420  1.9970  1.0069
  677SOL    HW2 2707   2.422   0.830   1.947  0.2897 -0.0197  1.2891
  677SOL     MW 2708   2.465   0.837   1.865 -0.1992 -0.1460  0.4814
  678SOL     OW 2709   2.486   1.585   0.454 -0.4508  0.1094 -0.0993
  678SOL    HW1 2710   2.419   1.646   0.419 -0.3724  0.1551 -1.4459
  678SOL    HW2 2711   2.572   1.592   0.407 -0.3250  0.7062 -0.2889
  678SOL     MW 2712   2.488   1.594   0.443 -0.4238  0.1942 -0.3020
  679SOL     OW 2713   2.411   0.506   1.168  0.3163 -0.0621 -0.3408
  679SOL    HW1 2714   2.357   0.428   1.178 -0.8500  1.6049 -1.5441
  679SOL    HW2 2715   2.348   0.580   1.154 -1.3440 -0.8934  1.6206
  679SOL     MW 2716   2.396   0.505   1.168 -0.0566  0.0482 -0.2408
  680SOL     OW 2717   2.408   0.263   1.461  0.0031  0.2025  0.1584
  680SOL    HW1 2718   2.375   0.247   1.550 -0.2171  1.2579 -2.0338
  680SOL    HW2 2719   2.429   0.176   1.420  0.9567 -0.0827 -2.7585
  680SOL     MW 2720   2.406   0.249   1.468  0.0998  0.3041 -0.5157
  681SOL     OW 2721   0.291   0.496   1.565  0.2865  0.2109  0.0673
  681SOL    HW1 2722   0.297   0.417   1.622  0.4730  1.5125 -1.1887
  681SOL    HW2 2723   0.380   0.532   1.556  1.8959  0.1331  0.5598
  681SOL     MW 2724   0.303   0.490   1.571  0.5235  0.3723 -0.0335
  682SOL     OW 2725   0.103   3.003   1.471  0.4205  0.2709 -0.5672
  682SOL    HW1 2726   0.101   3.093   1.466 -0.2884 -2.0349  5.3061
  682SOL    HW2 2727   0.048   2.976   1.546 -0.3553  1.9966  0.0690
  682SOL     MW 2728   0.096   3.011   1.480  0.2246  0.1944  0.2917
  683SOL     OW 2729   1.983   0.814   3.002  0.6000  0.0769 -0.1646
  683SOL    HW1 2730   1.899   0.804   2.957 -2.5780  0.0995  2.3330
  683SOL    HW2 2731   1.979   0.906   3.033  1.0045  1.4815  1.9800
  683SOL     MW 2732   1.971   0.825   3.001  0.2341  0.2652  0.4479
  684SOL     OW 2733   2.147   1.743   0.804  0.7233 -0.0124  0.5282
  684SOL    HW1 2734   2.053   1.727   0.825 -0.4531 -1.2869  1.5902
  684SOL    HW2 2735   2.190   1.669   0.845  0.2710 -1.0895  1.4170
  684SOL     MW 2736   2.140   1.731   0.812  0.5084 -0.3227  0.7856
  685SOL     OW 2737   2.584   1.749   1.201 -0.9248  0.0547  0.4358
  685SOL    HW1 2738   2.637   1.728   1.275 -1.2898  1.8295 -0.2173
  685SOL    HW2 2739   2.567   1.670   1.156 -0.5933 -0.7025  0.4152
  685SOL     MW 2740   2.589   1.736   1.204 -0.9292  0.1890  0.3469
  686SOL     OW 2741   2.951   0.699   1.512  0.2674 -0.0254 -1.1094
  686SOL    HW1 2742   2.950   0.666   1.601  0.8503 -0.7972 -1.7126
  686SOL    HW2 2743   3.036   0.677   1.477  0.4031  0.5675 -1.7044
  686SOL     MW 2744   2.962   0.692   1.519  0.3622 -0.0490 -1.2675
  687SOL     OW 2745   2.157   0.326   1.178 -0.0829 -0.4365  0.0168
  687SOL    HW1 2746   2.129   0.268   1.108 -0.1962 -0.9541 -0.5203
  687SOL    HW2 2747   2.102   0.403   1.174 -2.3003 -0.0653  0.9319
  687SOL     MW 2748   2.146   0.329   1.169 -0.3904 -0.4558  0.0667
  688SOL     OW 2749   2.346   0.560   1.420 -0.3061  0.5269 -0.5871
  688SOL    HW1 2750   2.353   0.465   1.442  2.8427 -1.7159 -3.1615
  688SOL    HW2 2751   2.394   0.565   1.340  0.6887  3.0135  0.2164
  688SOL     MW 2752   2.353   0.549   1.412  0.2406  0.5591 -0.8208
  689SOL     OW 2753   2.551   0.760   2.990  0.3390  0.2506 -0.0647
  689SOL    HW1 2754   2.584   0.842   2.957 -1.4251 -0.3078  0.3645
  689SOL    HW2 2755   2.532   0.778   3.086  0.3137 -1.0594  0.7088
  689SOL     MW 2756   2.553   0.773   2.998  0.1029  0.0041  0.0940
  690SOL     OW 2757   2.034   1.015   1.989  0.3672  0.3685 -0.1150
  690SOL    HW1 2758   2.000   0.923   2.010 -0.3562 -0.5134 -0.0569
  690SOL    HW2 2759   2.071   1.008   1.898  3.8154 -0.6341 -1.2268
  690SOL     MW 2760   2.034   1.002   1.979  0.7267  0.1199 -0.2540
  691SOL     OW 2761   2.442   0.298   0.827 -0.0824 -0.9685 -0.4229
  691SOL    HW1 2762   2.521   0.338   0.869 -2.1348  0.7997  0.4099
  691SOL    HW2 2763   2.375   0.369   0.832 -0.0830  0.2787  1.4153
  691SOL     MW 2764   2.444   0.313   0.833 -0.3532 -0.5707 -0.0705
  692SOL     OW 2765   2.761   1.662   1.415  0.0303  0.5213 -0.5176
  692SOL    HW1 2766   2.795   1.597   1.477 -0.5331 -2.4170 -1.0706
  692SOL    HW2 2767   2.810   1.745   1.447  0.2092 -1.3707 -0.9794
  692SOL     MW 2768   2.772   1.664   1.427 -0.0204 -0.1160 -0.6515
  693SOL     OW 2769   2.288   0.418   0.088 -0.0352 -0.6768  0.3849
  693SOL    HW1 2770   2.207   0.360   0.079 -1.2188  0.1837  1.5214
  693SOL    HW2 2771   2.253   0.493   0.036 -0.2640 -1.2485  2.6305
  693SOL     MW 2772   2.273   0.420   0.080 -0.2216 -0.6387  0.8311
  694SOL     OW 2773   1.990   1.296   1.208  0.2542 -0.3202 -0.2433
  694SOL    HW1 2774   2.071   1.251   1.191 -1.5047 -1.7658  0.6185
  694SOL    HW2 2775   1.942   1.226   1.248  1.4439 -0.5484 -2.7529
  694SOL     MW 2776   1.995   1.281   1.211  0.1791 -0.5410 -0.4607
  695SOL     OW 2777   2.994   1.492   1.318 -0.4487 -0.0588  0.2320
  695SOL    HW1 2778   2.954   1.447   1.245 -2.3449 -0.2740  0.7638
  695SOL    HW2 2779   2.929   1.552   1.360 -0.6915  0.7722  0.0225
  695SOL     MW 2780   2.980   1.494   1.314 -0.7309  0.0225  0.2745
  696SOL     OW 2781   2.021   1.402   0.922  0.1709  0.1015 -0.2863
  696SOL    HW1 2782   2.085   1.475   0.923  2.2655 -0.7780  0.3067
  696SOL    HW2 2783   2.019   1.366   1.012  1.5312  3.5378  1.0553
  696SOL     MW 2784   2.029   1.407   0.934  0.6267  0.4389 -0.0311
  697SOL     OW 2785   2.878   0.924   2.289 -0.3568  0.3260  0.4325
  697SOL    HW1 2786   2.843   1.003   2.242  3.1378 -1.5309 -1.1356
  697SOL    HW2 2787   2.878   0.860   2.221  2.1112  0.0041  1.0321
  697SOL     MW 2788   2.874   0.926   2.273  0.4299  0.0385  0.3047
  698SOL     OW 2789   2.545   0.391   3.092 -0.0333  0.0849  0.1172
  698SOL    HW1 2790   2.456   0.402   3.132  2.5085 -0.5890  1.0501
  698SOL    HW2 2791   2.579   0.313   3.136 -2.2367 -0.4738  1.8531
  698SOL     MW 2792   2.538   0.382   3.103  0.0113 -0.0777  0.4693
  699SOL     OW 2793   1.837   1.603   2.052 -0.4612 -0.4854 -0.1645
  699SOL    HW1 2794   1.830   1.507   2.063 -1.6449  1.2488 -2.8514
  699SOL    HW2 2795   1.930   1.618   2.029  0.1989 -0.3539  3.2721
  699SOL     MW 2796   1.848   1.592   2.051 -0.5303 -0.2392 -0.0656
  700SOL     OW 2797   2.724   0.882   1.501 -0.0875  0.5964 -0.1812
  700SOL    HW1 2798   2.749   0.960   1.448  2.8775 -1.5542  2.2484
  700SOL    HW2 2799   2.798   0.821   1.485 -1.9377 -0.2218 -0.5236
  700SOL     MW 2800   2.737   0.884   1.492  0.0596  0.2047  0.0942
  701SOL     OW 2801   1.684   1.278   2.625  0.2272  0.2070  0.1912
  701SOL    HW1 2802   1.780   1.283   2.638 -0.5446  1.4124 -1.0037
  701SOL    HW2 2803   1.650   1.346   2.690  0.3870 -0.1261  0.8772
  701SOL     MW 2804   1.692   1.288   2.635  0.1464  0.3221  0.1241
  702SOL     OW 2805   2.215   0.466   0.807  0.3851 -0.7459  0.3179
  702SOL    HW1 2806   2.180   0.384   0.768  2.5449  3.7789 -1.9326
  702SOL    HW2 2807   2.212   0.535   0.739 -0.5365 -1.0650  0.7014
  702SOL     MW 2808   2.210   0.464   0.793  0.5485 -0.1910  0.0716
  703SOL     OW 2809   2.660   1.277   0.996  0.1428 -0.1779  0.4106
  703SOL    HW1 2810   2.666   1.244   0.902  0.5449  2.1167 -1.7070
  703SOL    HW2 2811   2.671   1.198   1.048  1.0024 -1.4939  1.9120
  703SOL     MW 2812   2.662   1.263   0.990  0.3092 -0.0488  0.3293
  704SOL     OW 2813   0.043   1.268   0.270 -0.2646 -0.2545 -0.4964
  704SOL    HW1 2814  -0.047   1.262   0.255  1.5609  0.1268  0.6133
  704SOL    HW2 2815   0.071   1.183   0.292 -3.6937 -0.4241  2.1773
  704SOL     MW 2816   0.035   1.256   0.271 -0.4762 -0.2266  0.0028
  705SOL     OW 2817   2.170   1.600   1.304 -0.1789  0.3858  0.0634
  705SOL    HW1 2818   2.086   1.596   1.349 -0.8057 -0.6718  1.6507
  705SOL    HW2 2819   2.217   1.522   1.344 -2.2968  2.4240  1.2933
  705SOL     MW 2820   2.165   1.589   1.315 -0.5410  0.5152  0.4351
  706SOL     OW 2821   3.002   1.247   0.572 -0.0286  0.3613  0.0615
  706SOL    HW1 2822   3.091   1.259   0.537 -0.2137  1.1452 -0.1268
  706SOL    HW2 2823   2.989   1.337   0.600  1.4232 -0.8794 -2.6059
  706SOL     MW 2824   3.012   1.260   0.571  0.1385  0.3011 -0.3153
  707SOL     OW 2825   2.419   0.111   1.022 -0.5987 -0.1023  0.1837
  707SOL    HW1 2826   2.431   0.192   0.975 -2.2316 -1.6599  0.9325
  707SOL    HW2 2827   2.326   0.106   1.032 -0.2368  0.4674 -0.7267
  707SOL     MW 2828   2.409   0.121   1.017 -0.7664 -0.2327  0.1624
  708SOL     OW 2829   2.544   1.531   0.066 -0.0226 -0.4768 -0.0028
  708SOL    HW1 2830   2.583   1.474   0.134  2.2057 -0.7081 -1.2984
  708SOL    HW2 2831   2.507   1.473   0.001  1.1302  2.0539  0.6129
  708SOL     MW 2832   2.544   1.516   0.067  0.4235 -0.1734 -0.0925
  709SOL     OW 2833   1.733   1.750   0.118 -0.5038  0.0968 -0.2677
  709SOL    HW1 2834   1.759   1.694   0.050 -0.2187  2.2149 -2.4808
  709SOL    HW2 2835   1.667   1.697   0.171 -0.0865  1.0995 -0.0620
  709SOL     MW 2836   1.728   1.735   0.116 -0.4112  0.5085 -0.5326
  710SOL     OW 2837   2.234   1.174   1.179  0.0222 -0.5800  0.1592
  710SOL    HW1 2838   2.241   1.141   1.087 -2.5230  1.9464  2.1769
  710SOL    HW2 2839   2.254   1.096   1.242 -2.6860 -0.1607  1.9542
  710SOL     MW 2840   2.237   1.160   1.175 -0.6710 -0.1914  0.6623
  711SOL     OW 2841   2.336   0.208   1.731 -0.0631 -0.1190  0.2728
  711SOL    HW1 2842   2.424   0.174   1.766  0.8311  3.0080 -2.4949
  711SOL    HW2 2843   2.297   0.127   1.692 -3.1162  1.3641 -0.7210
  711SOL     MW 2844   2.342   0.193   1.731 -0.3480  0.4892 -0.2235
  712SOL     OW 2845   1.622   0.600   3.079  0.5057 -0.1206 -0.8098
  712SOL    HW1 2846   1.666   0.625   2.997  0.2834  0.3671  0.8791
  712SOL    HW2 2847   1.533   0.634   3.051 -1.1098  1.4949 -0.0027
  712SOL     MW 2848   1.616   0.608   3.064  0.2632  0.1569 -0.4804
  713SOL     OW 2849   2.586   0.782   1.150 -0.0911  0.2591  0.4385
  713SOL    HW1 2850   2.647   0.704   1.156  2.1121  2.1248 -0.5228
  713SOL    HW2 2851   2.535   0.782   1.231 -2.1324  0.4460 -1.1143
  713SOL     MW 2852   2.587   0.772   1.162 -0.0697  0.5299  0.1068
  714SOL     OW 2853   2.269   0.167   1.998  0.2100  0.3625 -0.2204
  714SOL    HW1 2854   2.349   0.149   2.044 -1.6825 -4.2106  0.0442
  714SOL    HW2 2855   2.297   0.187   1.906 -2.5339 -0.1361  0.7447
  714SOL     MW 2856   2.283   0.167   1.992 -0.4018 -0.3067 -0.0581
  715SOL     OW 2857   1.761   1.926   1.709 -0.7601 -0.2027  0.0035
  715SOL    HW1 2858   1.843   1.894   1.673 -1.6871 -0.9994 -2.8932
  715SOL    HW2 2859   1.736   1.848   1.766 -1.9535 -2.4835 -1.1111
  715SOL     MW 2860   1.768   1.911   1.712 -1.0398 -0.6088 -0.5258
  716SOL     OW 2861   2.290   0.721   0.628  0.4657 -0.2658  1.0595
  716SOL    HW1 2862   2.354   0.717   0.553  1.8037  1.0137 -0.2113
  716SOL    HW2 2863   2.199   0.718   0.587  1.5609 -0.5174 -0.1635
  716SOL     MW 2864   2.286   0.720   0.613  0.7868 -0.1302  0.7305
  717SOL     OW 2865   2.836   1.441   2.926 -0.3943  0.0963 -0.4051
  717SOL    HW1 2866   2.934   1.463   2.917  1.1271 -0.6710  3.2089
  717SOL    HW2 2867   2.816   1.474   3.014 -5.0949 -1.0526 -0.6762
  717SOL     MW 2868   2.846   1.448   2.937 -0.8138 -0.1565  0.0359
  718SOL     OW 2869   2.608   1.427   1.336 -0.1311 -1.1150  0.8389
  718SOL    HW1 2870   2.607   1.492   1.406  1.3672  0.1254  2.5690
  718SOL    HW2 2871   2.630   1.341   1.379  1.4773 -2.0343 -1.4035
  718SOL     MW 2872   2.611   1.424   1.351  0.2788 -1.0726  0.7713
  719SOL     OW 2873   2.169   1.315   0.666  0.7436  1.1099 -0.2390
  719SOL    HW1 2874   2.244   1.373   0.648  1.5165  0.2648 -1.1528
  719SOL    HW2 2875   2.161   1.313   0.762 -0.5225 -0.8147 -1.0593
  719SOL     MW 2876   2.178   1.322   0.677  0.6785  0.7444 -0.4678
  720SOL     OW 2877   2.891   1.196   0.164 -0.2673  0.4350 -0.1131
  720SOL    HW1 2878   2.874   1.105   0.188  0.9116 -0.9701 -2.9005
  720SOL    HW2 2879   2.822   1.263   0.199  2.0635  0.9258  1.2821
  720SOL     MW 2880   2.880   1.193   0.172  0.1957  0.3143 -0.2968
  721SOL     OW 2881   2.492   0.795   1.405 -0.4239 -0.1868 -0.2049
  721SOL    HW1 2882   2.460   0.712   1.435 -2.0096  1.8849 -0.4025
  721SOL    HW2 2883   2.568   0.836   1.448 -3.1668  3.4057 -0.6323
  721SOL     MW 2884   2.498   0.789   1.415 -0.9950  0.5605 -0.2874
  722SOL     OW 2885   2.541   1.180   0.352  0.1103  0.0393 -0.0157
  722SOL    HW1 2886   2.505   1.192   0.439 -1.0023 -1.9826 -0.4554
  722SOL    HW2 2887   2.625   1.135   0.382  0.7531  0.2139 -0.7305
  722SOL     MW 2888   2.548   1.175   0.368  0.0483 -0.2044 -0.1680
  723SOL     OW 2889   2.274   1.422   1.682 -0.0986  0.5501 -0.2619
  723SOL    HW1 2890   2.265   1.376   1.594  0.6399 -1.0890 -1.3570
  723SOL    HW2 2891   2.193   1.475   1.691  1.5011  0.6910  0.8675
  723SOL     MW 2892   2.262   1.423   1.672  0.2099  0.3524 -0.2574
  724SOL     OW 2893   2.511   0.374   0.574 -0.5295  0.4083 -0.1040
  724SOL    HW1 2894   2.507   0.357   0.671  1.1671  0.3822 -0.6092
  724SOL    HW2 2895   2.591   0.328   0.545 -0.8686 -2.1831 -0.7608
  724SOL     MW 2896   2.521   0.366   0.583 -0.3504  0.0630 -0.2573
  725SOL     OW 2897   2.687   0.530   1.157 -0.2415 -0.0606  0.7103
  725SOL    HW1 2898   2.719   0.526   1.246 -2.1046 -0.9655  1.5792
  725SOL    HW2 2899   2.589   0.503   1.143 -2.4812  0.6704 -3.6355
  725SOL     MW 2900   2.679   0.526   1.167 -0.7828 -0.0836  0.2516
  726SOL     OW 2901   2.564   2.385   0.523  0.0682  0.4055 -0.0964
  726SOL    HW1 2902   2.481   2.428   0.485  0.0625  1.3419 -2.9704
  726SOL    HW2 2903   2.539   2.365   0.616  0.4336 -3.0274 -0.9516
  726SOL     MW 2904   2.550   2.388   0.530  0.1157  0.0761 -0.5884
  727SOL     OW 2905   2.844   0.309   1.654 -0.6777  0.0088 -0.3857
  727SOL    HW1 2906   2.862   0.296   1.557 -0.4447 -0.8089 -0.5218
  727SOL    HW2 2907   2.752   0.329   1.663  0.7876 -1.6574  1.6782
  727SOL     MW 2908   2.834   0.310   1.642 -0.4536 -0.3189 -0.1314
  728SOL     OW 2909   2.846   1.148   2.994 -0.2429 -0.4552  0.4829
  728SOL    HW1 2910   2.822   1.241   2.972  0.4883  1.3742  1.2654
  728SOL    HW2 2911   2.867   1.154   3.091 -1.6830 -2.2162 -1.5687
  728SOL     MW 2912   2.846   1.161   3.004 -0.3364 -0.4462  0.3155
  729SOL     OW 2913   2.483   1.473   1.105  0.3120  0.3647  0.8960
  729SOL    HW1 2914   2.518   1.465   1.193 -1.5805 -3.2695 -2.6897
  729SOL    HW2 2915   2.529   1.405   1.064  0.7289  0.2542  1.8040
  729SOL     MW 2916   2.494   1.463   1.111  0.1173 -0.1293  0.5427
  730SOL     OW 2917   2.095   1.183   0.227 -0.3423 -0.2717  0.3450
  730SOL    HW1 2918   2.180   1.182   0.184  2.4703  0.3565  1.0902
  730SOL    HW2 2919   2.062   1.278   0.238 -0.8869  0.5732 -0.9399
  730SOL     MW 2920   2.102   1.195   0.223 -0.0430 -0.0774  0.2738
  731SOL     OW 2921   2.774   1.789   2.876  0.4899  0.7208 -0.0624
  731SOL    HW1 2922   2.706   1.828   2.821  1.5815 -0.1282 -0.3990
  731SOL    HW2 2923   2.829   1.859   2.908  0.3151 -0.5244 -1.0339
  731SOL     MW 2924   2.772   1.803   2.873  0.6108  0.4445 -0.2350
  732SOL     OW 2925   2.244   0.942   1.331  0.6653  0.2233 -0.2083
  732SOL    HW1 2926   2.205   0.950   1.419 -0.4003  0.6243  2.9979
  732SOL    HW2 2927   2.320   0.888   1.342  3.9510 -0.4410 -1.7084
  732SOL     MW 2928   2.249   0.936   1.344  0.9582  0.1886  0.0168
  733SOL     OW 2929   2.374   2.881   3.019  0.2470  0.4531  0.3744
  733SOL    HW1 2930   2.299   2.937   2.992 -1.0319  1.4687  1.9929
  733SOL    HW2 2931   2.328   2.800   3.054  0.3466 -1.9871  0.7399
  733SOL     MW 2932   2.358   2.877   3.020  0.0914  0.2651  0.6362
  734SOL     OW 2933   1.492   0.346   2.481 -0.2275  0.1207 -0.4044
  734SOL    HW1 2934   1.438   0.287   2.531  0.6626  2.2661  2.2390
  734SOL    HW2 2935   1.519   0.284   2.403 -2.5447 -2.5484 -3.3615
  734SOL     MW 2936   1.489   0.330   2.477 -0.4158  0.0516 -0.4458
  735SOL     OW 2937   3.022   0.880   2.689  0.4210 -0.4115 -0.8203
  735SOL    HW1 2938   2.962   0.810   2.676  0.3477 -1.8421 -1.7447
  735SOL    HW2 2939   3.016   0.910   2.781  1.8119 -0.4649 -1.3241
  735SOL     MW 2940   3.013   0.875   2.700  0.5948 -0.6073 -1.0087
  736SOL     OW 2941   0.056   0.606   2.472 -0.1453  0.0356 -0.0306
  736SOL    HW1 2942   0.104   0.643   2.395 -1.3972  0.1742 -1.3998
  736SOL    HW2 2943   0.045   0.511   2.449 -1.6879 -2.6497 -0.3825
  736SOL     MW 2944   0.061   0.599   2.458 -0.5140 -0.3004 -0.2577
  737SOL     OW 2945   2.872   0.666   2.536  0.1368  1.1404 -0.1158
  737SOL    HW1 2946   2.813   0.621   2.477  0.0188  2.1972  0.1635
  737SOL    HW2 2947   2.960   0.663   2.500 -0.2192 -0.1292  2.4357
  737SOL     MW 2948   2.876   0.660   2.524  0.0742  1.1123  0.2577
  738SOL     OW 2949   0.168   0.424   1.927  0.7590 -0.7147 -0.2965
  738SOL    HW1 2950   0.251   0.465   1.926  1.0993  1.7535  1.8184
  738SOL    HW2 2951   0.156   0.366   1.853 -1.1901 -0.7739  1.4924
  738SOL     MW 2952   0.177   0.422   1.917  0.5467 -0.3968  0.2185
  739SOL     OW 2953   2.568   0.987   2.151  0.1303 -0.5300 -0.7592
  739SOL    HW1 2954   2.482   0.981   2.108  2.1498  0.0678 -1.5846
  739SOL    HW2 2955   2.614   1.021   2.074 -0.1618 -0.4233 -2.1049
  739SOL     MW 2956   2.563   0.991   2.135  0.3582 -0.4370 -1.0457
  740SOL     OW 2957   0.240   1.678   2.963  0.0239 -0.3485 -0.4309
  740SOL    HW1 2958   0.211   1.589   2.960 -1.5341  1.8996  1.4355
  740SOL    HW2 2959   0.329   1.683   2.996 -0.0341 -0.6424  0.2802
  740SOL     MW 2960   0.248   1.667   2.967 -0.1893 -0.0907 -0.0909
  741SOL     OW 2961   2.204   1.239   2.738 -0.4078 -0.4388  0.5458
  741SOL    HW1 2962   2.230   1.332   2.718  2.2038 -0.7781  1.0885
  741SOL    HW2 2963   2.189   1.234   2.837  2.0769  1.9500 -0.3130
  741SOL     MW 2964   2.205   1.251   2.749  0.2646 -0.1684  0.5041
  742SOL     OW 2965   1.636   1.360   2.355  0.5850  0.0247  0.0090
  742SOL    HW1 2966   1.557   1.324   2.311  0.9175 -0.6871 -1.6037
  742SOL    HW2 2967   1.654   1.309   2.431  3.5415 -0.9803  1.5510
  742SOL     MW 2968   1.628   1.348   2.359  1.0190 -0.2018 -0.0003
  743SOL     OW 2969   2.521   1.226   2.702  0.5129 -0.3136 -0.0554
  743SOL    HW1 2970   2.425   1.220   2.675 -1.6147  1.9731 -0.0042
  743SOL    HW2 2971   2.536   1.152   2.758 -1.3299  1.2431  0.1079
  743SOL     MW 2972   2.511   1.215   2.706 -0.0109  0.1935 -0.0271
  744SOL     OW 2973   2.781   0.923   1.787  0.0357 -0.0368  0.1433
  744SOL    HW1 2974   2.695   0.964   1.790  0.4479 -0.9390  0.2780
  744SOL    HW2 2975   2.789   0.887   1.699 -1.1751  0.6974  0.3548
  744SOL     MW 2976   2.771   0.924   1.775 -0.0697 -0.0589  0.1890
  745SOL     OW 2977   1.730   0.496   2.474 -0.2681 -0.3974  0.4714
  745SOL    HW1 2978   1.738   0.500   2.373  0.4465  3.9061 -0.7056
  745SOL    HW2 2979   1.668   0.421   2.491 -1.5371 -0.1501  2.5379
  745SOL     MW 2980   1.723   0.486   2.463 -0.3413  0.2030  0.5888
  746SOL     OW 2981   1.573   1.488   1.710  0.4178  0.4659 -0.2382
  746SOL    HW1 2982   1.637   1.559   1.732 -0.7938  1.8031 -0.5598
  746SOL    HW2 2983   1.552   1.436   1.795  1.1746 -2.1951  0.1800
  746SOL     MW 2984   1.578   1.490   1.724  0.3578  0.2912 -0.2254
  747SOL     OW 2985   2.593   1.127   1.886  0.4304  0.2113  0.0645
  747SOL    HW1 2986   2.504   1.110   1.853 -0.9898 -2.0123 -2.7190
  747SOL    HW2 2987   2.599   1.213   1.931  1.5571  0.8677  1.7125
  747SOL     MW 2988   2.582   1.136   1.888  0.3917  0.0045 -0.0854
  748SOL     OW 2989   0.108   0.009   1.947 -0.2207 -0.2770  0.0966
  748SOL    HW1 2990   0.206   0.013   1.927  0.3966 -0.9411  1.5084
  748SOL    HW2 2991   0.104   0.077   2.016 -2.2530  1.2782  0.7761
  748SOL     MW 2992   0.120   0.018   1.954 -0.4074 -0.1595  0.3726
  749SOL     OW 2993   2.417   0.656   2.762  0.0065  0.0689  0.0901
  749SOL    HW1 2994   2.399   0.732   2.702  0.2438  0.5400  0.1008
  749SOL    HW2 2995   2.466   0.691   2.843 -1.6801 -1.8229 -1.3170
  749SOL     MW 2996   2.421   0.670   2.765 -0.1847 -0.1185 -0.0942
  750SOL     OW 2997   2.140   3.038   1.985  0.5157  0.4857  0.4078
  750SOL    HW1 2998   2.184   3.127   1.987 -0.5709 -1.2579 -0.9642
  750SOL    HW2 2999   2.200   2.982   1.949 -1.9054 -0.1085  1.3326
  750SOL     MW 3000   2.153   3.043   1.980  0.0529  0.1773  0.3488
  751SOL     OW 3001   3.070   0.337   2.461  0.3253 -0.2940 -0.3752
  751SOL    HW1 3002   2.989   0.323   2.403 -2.8379 -1.4580 -1.1220
  751SOL    HW2 3003   3.145   0.323   2.404 -1.6338  4.0552 -0.7164
  751SOL     MW 3004   3.069   0.334   2.446 -0.3506  0.1262 -0.5188
  752SOL     OW 3005   2.136   0.919   2.775  0.3870  0.0793 -0.2071
  752SOL    HW1 3006   2.190   0.976   2.826  0.0490  0.1058 -0.7076
  752SOL    HW2 3007   2.089   0.860   2.831 -1.4613  0.2763 -0.8999
  752SOL     MW 3008   2.137   0.919   2.789  0.0985  0.1088 -0.3645
  753SOL     OW 3009   2.883   0.307   2.272  0.1715  0.5326 -0.2690
  753SOL    HW1 3010   2.825   0.226   2.269 -1.4442 -1.2272 -0.9833
  753SOL    HW2 3011   2.823   0.374   2.312  0.0802 -0.3953  1.2134
  753SOL     MW 3012   2.867   0.305   2.277 -0.0537  0.1780 -0.1676
  754SOL     OW 3013   2.251   3.000   2.601  0.5076 -0.1148 -0.1728
  754SOL    HW1 3014   2.275   2.976   2.509  0.8325 -0.9689 -0.7594
  754SOL    HW2 3015   2.330   2.962   2.646  1.3849  1.6082  0.3355
  754SOL     MW 3016   2.265   2.992   2.595  0.6662 -0.0001 -0.1831
  755SOL     OW 3017   2.777   1.620   2.414 -0.5890  0.3995  0.3410
  755SOL    HW1 3018   2.743   1.530   2.435 -1.0409  1.8800 -0.8739
  755SOL    HW2 3019   2.834   1.642   2.488  0.8922 -1.3898  2.8828
  755SOL     MW 3020   2.780   1.611   2.426 -0.4532  0.3588  0.5161
  756SOL     OW 3021   2.172   1.241   3.015 -0.1054  0.0013  0.1181
  756SOL    HW1 3022   2.237   1.310   2.994  0.6420 -2.1049  3.4386
  756SOL    HW2 3023   2.215   1.157   3.000 -0.3851 -1.1796  0.7249
  756SOL     MW 3024   2.186   1.239   3.010 -0.0437 -0.4324  0.6363
  757SOL     OW 3025   2.169   0.941   1.753 -0.1107  0.3209 -0.3325
  757SOL    HW1 3026   2.190   0.844   1.743 -0.9044 -0.4490  1.8502
  757SOL    HW2 3027   2.124   0.964   1.668 -2.9453  0.0935  1.8001
  757SOL     MW 3028   2.166   0.931   1.741 -0.5894  0.1893  0.2368
  758SOL     OW 3029   2.255   1.856   2.621  0.5740 -0.1733  0.1342
  758SOL    HW1 3030   2.256   1.860   2.529 -2.4750  0.8884  1.9905
  758SOL    HW2 3031   2.343   1.817   2.639  1.7288 -1.2611  0.5611
  758SOL     MW 3032   2.267   1.852   2.611  0.3240 -0.1768  0.4355
  759SOL     OW 3033   1.559   1.449   2.803 -0.3404 -0.5082 -0.2954
  759SOL    HW1 3034   1.558   1.521   2.732 -1.4444  1.0619  1.0936
  759SOL    HW2 3035   1.619   1.465   2.869 -3.5181 -1.9841 -0.6014
  759SOL     MW 3036   1.567   1.461   2.802 -0.9053 -0.4958 -0.1525
  760SOL     OW 3037   2.592   1.910   2.724  0.0404  0.1946 -0.2075
  760SOL    HW1 3038   2.542   1.827   2.715  0.4586 -0.1388  0.5340
  760SOL    HW2 3039   2.657   1.916   2.655  1.8679 -1.9451 -0.9032
  760SOL     MW 3040   2.594   1.900   2.714  0.3367 -0.1317 -0.2015
  761SOL     OW 3041   2.236   0.475   2.440 -0.8411  0.3499  0.5158
  761SOL    HW1 3042   2.167   0.412   2.430 -1.4810 -0.0478 -1.2300
  761SOL    HW2 3043   2.238   0.484   2.535  0.9563  2.7582 -0.3264
  761SOL     MW 3044   2.227   0.468   2.451 -0.6884  0.6152  0.1743
  762SOL     OW 3045   0.024   0.182   2.124  0.1028  0.0170  0.1226
  762SOL    HW1 3046   0.001   0.127   2.198 -0.6480  1.5278 -0.0276
  762SOL    HW2 3047  -0.051   0.215   2.074 -0.8140 -1.5026  0.0769
  762SOL     MW 3048   0.011   0.179   2.127 -0.1173  0.0159  0.0968
  763SOL     OW 3049   2.468   1.198   2.356  0.3460 -0.1842 -0.0905
  763SOL    HW1 3050   2.513   1.124   2.316 -2.1922  3.7937 -0.9945
  763SOL    HW2 3051   2.529   1.250   2.407  1.4256  0.8458 -0.8295
  763SOL     MW 3052   2.482   1.195   2.357  0.1535  0.4766 -0.3073
  764SOL     OW 3053   0.391   0.093   2.838  0.3113  0.1207  0.3153
  764SOL    HW1 3054   0.320   0.123   2.772 -0.3537 -0.6322 -1.0179
  764SOL    HW2 3055   0.408   0.170   2.890 -0.1729  0.0202 -2.0858
  764SOL     MW 3056   0.384   0.107   2.836  0.1597  0.0081 -0.1774
  765SOL     OW 3057   2.724   0.066   2.293 -0.5982  0.7127 -0.1781
  765SOL    HW1 3058   2.699   0.024   2.205 -1.4223 -0.6655  0.1003
  765SOL    HW2 3059   2.778   0.006   2.345  0.5977 -1.2792 -0.4049
  765SOL     MW 3060   2.728   0.053   2.288 -0.5492  0.2681 -0.1713
  766SOL     OW 3061   1.935   3.026   2.158  0.1310  0.7140  0.1777
  766SOL    HW1 3062   2.020   3.042   2.109  2.1101  0.9444 -1.8380
  766SOL    HW2 3063   1.879   2.963   2.113  2.9607  0.0237  2.8490
  766SOL     MW 3064   1.939   3.020   2.146  0.7655  0.6533  0.2642
  767SOL     OW 3065   2.680   0.643   1.884 -0.1102 -0.0641  0.3577
  767SOL    HW1 3066   2.736   0.698   1.934  1.1642 -3.3765  2.7011
  767SOL    HW2 3067   2.601   0.696   1.860  0.0195  1.5461  0.9794
  767SOL     MW 3068   2.677   0.657   1.887  0.0751 -0.2887  0.7489
  768SOL     OW 3069   0.007   1.493   2.958 -0.4686  0.1354 -0.0216
  768SOL    HW1 3070   0.036   1.510   3.053  0.1120  0.4165  1.0730
  768SOL    HW2 3071   0.017   1.400   2.946 -1.5337  0.2206 -0.0558
  768SOL     MW 3072   0.012   1.483   2.969 -0.5325  0.1838  0.1183
  769SOL     OW 3073   2.359   0.714   2.309 -0.3845  0.0808  0.4806
  769SOL    HW1 3074   2.336   0.627   2.331 -1.5893  0.3778 -3.2422
  769SOL    HW2 3075   2.444   0.707   2.273  0.1335 -1.1210  0.1767
  769SOL     MW 3076   2.367   0.702   2.307 -0.4751 -0.0386 -0.0507
  770SOL     OW 3077   0.014   1.557   2.637  0.7324  0.0247 -0.3301
  770SOL    HW1 3078  -0.076   1.566   2.672  1.3950 -0.1067  2.2725
  770SOL    HW2 3079   0.033   1.466   2.664  1.4648 -2.2880 -1.3956
  770SOL     MW 3080   0.005   1.546   2.645  0.9164 -0.2978 -0.1273
  771SOL     OW 3081   3.064   0.599   1.959  0.0311  0.0319  0.4486
  771SOL    HW1 3082   3.008   0.594   1.883  2.2133  3.5722 -1.2710
  771SOL    HW2 3083   3.141   0.546   1.944 -0.7393 -0.9325 -3.8857
  771SOL     MW 3084   3.067   0.592   1.947  0.2173  0.3718 -0.3502
  772SOL     OW 3085   0.010   3.091   2.343 -0.7825 -0.3088  0.2253
  772SOL    HW1 3086  -0.084   3.083   2.374  1.6730  0.1868  1.7067
  772SOL    HW2 3087   0.028   3.003   2.306  0.5537  1.8398 -1.8127
  772SOL     MW 3088  -0.000   3.078   2.342 -0.2822  0.0401  0.1519
  773SOL     OW 3089   2.477   2.926   2.748  0.0505 -0.0777  0.2150
  773SOL    HW1 3090   2.526   2.852   2.707 -0.7138 -0.0526 -0.9047
  773SOL    HW2 3091   2.447   2.893   2.834 -0.5765 -0.7253  2.7058
  773SOL     MW 3092   2.480   2.912   2.754 -0.1331 -0.1598  0.3959
  774SOL     OW 3093   2.362   1.157   1.720 -0.5483 -0.3212  0.0405
  774SOL    HW1 3094   2.327   1.249   1.723  0.2292  0.0181  0.6401
  774SOL    HW2 3095   2.289   1.088   1.735 -0.0829 -1.9990 -0.7933
  774SOL     MW 3096   2.348   1.160   1.723 -0.3843 -0.4978  0.0096
  775SOL     OW 3097   2.303   2.881   2.356 -0.7552  0.1267 -0.0594
  775SOL    HW1 3098   2.321   2.970   2.318  0.7977 -2.3423 -0.9434
  775SOL    HW2 3099   2.377   2.821   2.343 -1.0923 -0.9991  0.5491
  775SOL     MW 3100   2.315   2.885   2.349 -0.5948 -0.3476 -0.0957
  776SOL     OW 3101   0.130   1.480   0.133 -0.1574  0.1880  0.0814
  776SOL    HW1 3102   0.222   1.461   0.111  0.8624  3.3633 -1.3206
  776SOL    HW2 3103   0.101   1.400   0.180  3.0231  0.0264  2.5128
  776SOL     MW 3104   0.138   1.467   0.137  0.3968  0.5857  0.2172
  777SOL     OW 3105   2.939   1.138   1.750  0.1548  0.3645  0.2936
  777SOL    HW1 3106   2.881   1.187   1.684  0.6594 -2.4916  1.5977
  777SOL    HW2 3107   2.879   1.092   1.803 -1.2370 -0.2617  0.7161
  777SOL     MW 3108   2.924   1.139   1.748  0.0378 -0.0949  0.5214
  778SOL     OW 3109   2.921   0.502   2.758 -0.2852 -0.3414 -0.5175
  778SOL    HW1 3110   2.839   0.491   2.804 -1.5445 -1.0965 -0.9898
  778SOL    HW2 3111   2.908   0.575   2.696 -0.6530  1.4446  0.1838
  778SOL     MW 3112   2.908   0.510   2.756 -0.4999 -0.2054 -0.4873
  779SOL     OW 3113   2.249   0.425   2.121 -0.0780 -0.7863 -0.2409
  779SOL    HW1 3114   2.187   0.444   2.192  3.1694 -1.2045 -0.9922
  779SOL    HW2 3115   2.225   0.337   2.100 -0.0347 -0.5051 -0.6037
  779SOL     MW 3116   2.238   0.416   2.127  0.3562 -0.8044 -0.3879
  780SOL     OW 3117   0.173   0.243   2.710 -0.4494 -0.1200 -0.0144
  780SOL    HW1 3118   0.095   0.281   2.680 -3.5291 -3.2423 -0.9084
  780SOL    HW2 3119   0.233   0.312   2.691 -1.4337 -0.3188 -1.3250
  780SOL     MW 3120   0.171   0.257   2.703 -0.9856 -0.5582 -0.3053
  781SOL     OW 3121   3.081   1.287   2.452 -0.5050  0.5971  0.1896
  781SOL    HW1 3122   3.095   1.320   2.366 -1.6198  0.5430  1.3689
  781SOL    HW2 3123   3.086   1.189   2.459  1.4140 -0.3273  1.9515
  781SOL     MW 3124   3.084   1.278   2.441 -0.3989  0.4680  0.5777
  782SOL     OW 3125   0.693   1.491   0.072  0.3478  0.4763  0.5170
  782SOL    HW1 3126   0.611   1.528   0.040 -2.0529 -0.6060  1.0559
  782SOL    HW2 3127   0.714   1.515   0.162 -0.1082 -0.0852  0.7396
  782SOL     MW 3128   0.685   1.499   0.079 -0.0291  0.2594  0.6174
  783SOL     OW 3129   2.710   0.489   2.385 -0.2585  0.0878  0.2435
  783SOL    HW1 3130   2.672   0.556   2.330 -2.2626  0.2474  3.8635
  783SOL    HW2 3131   2.655   0.482   2.465 -0.4280  0.1608 -1.6940
  783SOL     MW 3132   2.698   0.497   2.388 -0.5453  0.1185  0.4655
  784SOL     OW 3133   0.210   0.823   2.860  0.0799 -0.2291  0.4197
  784SOL    HW1 3134   0.120   0.836   2.841  1.2028 -2.6829  2.9679
  784SOL    HW2 3135   0.260   0.881   2.806  0.5324 -1.3946  0.5481
  784SOL     MW 3136   0.205   0.832   2.850  0.2878 -0.7066  0.7729
  785SOL     OW 3137   0.392   0.398   2.179  0.5389 -0.3517  0.1954
  785SOL    HW1 3138   0.400   0.409   2.084 -0.5635 -0.1913 -1.7870
  785SOL    HW2 3139   0.309   0.354   2.204 -0.7782  2.4624  2.0968
  785SOL     MW 3140   0.382   0.394   2.170  0.2197  0.0407  0.1847
  786SOL     OW 3141   1.866   0.460   0.027  0.2402 -1.0928 -0.3327
  786SOL    HW1 3142   1.788   0.509   0.065  1.1489  0.6470  1.4716
  786SOL    HW2 3143   1.863   0.485  -0.069  0.0649 -0.0962  0.1702
  786SOL     MW 3144   1.855   0.470   0.019  0.3370 -0.7318 -0.0283
  787SOL     OW 3145   2.435   0.187   2.908  0.5054 -0.4542  0.1952
  787SOL    HW1 3146   2.517   0.142   2.894  2.1906 -1.6753 -0.0544
  787SOL    HW2 3147   2.469   0.272   2.941  1.4508  0.8486  2.7121
  787SOL     MW 3148   2.450   0.192   2.910  0.8525 -0.4434  0.4943
  788SOL     OW 3149   2.874   2.997   2.435 -0.2797  0.6142 -0.0751
  788SOL    HW1 3150   2.928   2.953   2.500  1.6546  2.3689 -1.2536
  788SOL    HW2 3151   2.883   2.928   2.367 -0.3895  0.2956 -1.6752
  788SOL     MW 3152   2.882   2.982   2.434 -0.0390  0.8037 -0.4417
  789SOL     OW 3153   0.117   0.167   0.022 -0.0807 -0.6594 -0.3581
  789SOL    HW1 3154   0.021   0.157   0.035  1.7796  3.8135 -1.6425
  789SOL    HW2 3155   0.120   0.224  -0.055 -0.4579  1.9524  0.3892
  789SOL     MW 3156   0.104   0.174   0.013  0.1150  0.2754 -0.4290
  790SOL     OW 3157   3.058   1.007   2.468  0.1915  0.4481 -0.2484
  790SOL    HW1 3158   3.041   0.956   2.548  3.2394  1.6336 -1.5547
  790SOL    HW2 3159   2.988   0.984   2.397  2.0686  1.2250 -2.8153
  790SOL     MW 3160   3.047   0.998   2.469  0.8413  0.7070 -0.7594
  791SOL     OW 3161   2.546   0.444   2.599 -0.0391  0.4672  0.0241
  791SOL    HW1 3162   2.517   0.503   2.677  1.9640  1.3862 -0.1394
  791SOL    HW2 3163   2.570   0.358   2.641  1.0988 -1.5883 -2.1204
  791SOL     MW 3164   2.545   0.440   2.615  0.3754  0.3173 -0.2804
  792SOL     OW 3165   2.434   0.196   2.472 -0.6437 -0.3648 -0.0967
  792SOL    HW1 3166   2.436   0.293   2.452  2.7072  2.2778  0.9806
  792SOL    HW2 3167   2.377   0.195   2.554 -2.4599 -0.0688  1.3059
  792SOL     MW 3168   2.427   0.209   2.480 -0.4412  0.0229  0.2305
  793SOL     OW 3169   1.776   1.103   1.993 -0.0441 -0.1235  0.5177
  793SOL    HW1 3170   1.740   1.097   1.899 -0.3956  2.2648 -1.8297
  793SOL    HW2 3171   1.873   1.081   1.984  0.5464  4.7443 -0.9826
  793SOL     MW 3172   1.784   1.099   1.980 -0.0125  0.8338  0.0100
  794SOL     OW 3173   1.371   2.320   0.107  0.1353  0.1219 -0.3899
  794SOL    HW1 3174   1.419   2.389   0.067 -2.1118 -3.3262  4.0942
  794SOL    HW2 3175   1.420   2.309   0.187  3.0946  1.4119  0.4344
  794SOL     MW 3176   1.384   2.327   0.112  0.2293 -0.1628  0.3105
  795SOL     OW 3177   2.298   1.076   2.533  0.4000 -0.0792  0.0134
  795SOL    HW1 3178   2.261   1.133   2.602 -0.7822  0.3611 -0.8183
  795SOL    HW2 3179   2.362   1.130   2.490  0.4691 -2.4473  2.8389
  795SOL     MW 3180   2.301   1.091   2.536  0.2531 -0.3336  0.2765
  796SOL     OW 3181   0.249   0.608   2.693  0.0031  0.3525  0.4906
  796SOL    HW1 3182   0.231   0.687   2.750  0.5570  1.5982  1.7348
  796SOL    HW2 3183   0.194   0.623   2.614 -0.4177 -0.5057  1.0164
  796SOL     MW 3184   0.240   0.620   2.690  0.0207  0.4036  0.7241
  797SOL     OW 3185   2.670   0.207   2.611 -0.6515 -0.0960  0.0880
  797SOL    HW1 3186   2.590   0.189   2.550 -1.9833 -1.1501 -4.6043
  797SOL    HW2 3187   2.738   0.202   2.543 -2.0083 -2.2696 -1.7362
  797SOL     MW 3188   2.668   0.204   2.594 -1.0062 -0.5219 -0.7718
  798SOL     OW 3189   2.370   0.026   2.257 -0.5036  0.6890 -0.2950
  798SOL    HW1 3190   2.410   0.089   2.323 -0.6540  2.1041 -0.4304
  798SOL    HW2 3191   2.451  -0.003   2.210 -1.6831  0.5343 -1.2956
  798SOL     MW 3192   2.386   0.031   2.260 -0.6790  0.8553 -0.4449
  799SOL     OW 3193   2.567   2.987   0.107 -0.5818 -0.6637  0.1202
  799SOL    HW1 3194   2.491   2.968   0.057 -1.1390  0.6078  0.5715
  799SOL    HW2 3195   2.547   2.968   0.199  3.3267 -0.7976 -0.3539
  799SOL     MW 3196   2.554   2.982   0.112 -0.1396 -0.5136  0.1172
  800SOL     OW 3197   1.938   3.041   1.754 -0.0558  0.5379 -0.3189
  800SOL    HW1 3198   1.863   2.980   1.751 -0.6561  0.2088 -1.0699
  800SOL    HW2 3199   1.966   3.042   1.850  1.0364  1.3346  3.1628
  800SOL     MW 3200   1.932   3.033   1.766  0.0091  0.5996  0.0414
  801SOL     OW 3201   2.853   1.225   2.608 -0.1195 -0.0863 -0.0194
  801SOL    HW1 3202   2.867   1.130   2.590 -1.1001 -0.3390  2.2798
  801SOL    HW2 3203   2.923   1.273   2.566 -1.2871 -0.3266  0.1815
  801SOL     MW 3204   2.864   1.219   2.600 -0.4029 -0.1513  0.3105
  802SOL     OW 3205   2.595   1.484   2.792  0.1317  0.5565 -0.0449
  802SOL    HW1 3206   2.572   1.394   2.764  0.4059 -2.2731 -0.1061
  802SOL    HW2 3207   2.689   1.482   2.834  3.8830  0.3864 -1.4626
  802SOL     MW 3208   2.604   1.472   2.794  0.6628  0.1607 -0.2401
  803SOL     OW 3209   2.300   1.388   2.008 -0.4324 -0.2677 -0.3487
  803SOL    HW1 3210   2.278   1.346   2.089  0.5124  0.8785 -0.5412
  803SOL    HW2 3211   2.243   1.353   1.939 -0.7726  0.7092  1.1766
  803SOL     MW 3212   2.289   1.378   2.009 -0.3527  0.0124 -0.1728
  804SOL     OW 3213   2.291   0.106   0.037  0.4879  0.0872 -0.0970
  804SOL    HW1 3214   2.208   0.163   0.030 -0.6551  0.8383  0.6273
  804SOL    HW2 3215   2.350   0.125  -0.044 -0.2120 -2.2675  1.4666
  804SOL     MW 3216   2.288   0.116   0.026  0.2447 -0.1244  0.2049
  805SOL     OW 3217   2.689   0.859   2.642 -0.1251  0.1704 -0.1997
  805SOL    HW1 3218   2.600   0.872   2.603  0.4836 -1.6650 -1.3620
  805SOL    HW2 3219   2.735   0.787   2.597 -0.1560  1.5455  2.4563
  805SOL     MW 3220   2.683   0.851   2.631 -0.0489  0.1097 -0.0026
  806SOL     OW 3221   2.627   0.720   2.241 -1.3003 -0.2589  0.0308
  806SOL    HW1 3222   2.628   0.714   2.146  1.4650  0.4734  0.5079
  806SOL    HW2 3223   2.638   0.813   2.261  1.8847 -1.8859 -0.1184
  806SOL     MW 3224   2.628   0.731   2.231 -0.5152 -0.3770  0.0740
  807SOL     OW 3225   0.053   1.095   2.047 -0.0627  0.5753  0.7163
  807SOL    HW1 3226   0.079   0.997   2.047  2.5150 -0.5895  0.5107
  807SOL    HW2 3227  -0.041   1.102   2.070  2.3749  0.1307 -0.2754
  807SOL     MW 3228   0.044   1.083   2.050  0.5990  0.3630  0.5583
  808SOL     OW 3229   2.662   0.041   2.825  0.0865 -0.1597  0.0000
  808SOL    HW1 3230   2.585  -0.016   2.800  1.3446 -0.1621 -0.5611
  808SOL    HW2 3231   2.667   0.105   2.742 -2.2253 -1.6402 -0.8365
  808SOL     MW 3232   2.652   0.042   2.810 -0.0525 -0.3553 -0.1844
  809SOL     OW 3233   2.699   1.347   2.438  0.0186 -0.1605 -0.3861
  809SOL    HW1 3234   2.730   1.309   2.519  0.2963  1.9127 -0.5490
  809SOL    HW2 3235   2.748   1.303   2.367 -1.8772  1.1012 -0.8351
  809SOL     MW 3236   2.709   1.336   2.440 -0.1949  0.2795 -0.4668
  810SOL     OW 3237   2.220   1.340   2.270 -0.0527  0.2781  0.5983
  810SOL    HW1 3238   2.278   1.278   2.316  0.1002 -0.5626  0.1192
  810SOL    HW2 3239   2.137   1.345   2.315  0.9869  0.4800  1.2661
  810SOL     MW 3240   2.217   1.332   2.282  0.1046  0.1938  0.6232
  811SOL     OW 3241   1.599   0.170   2.314  0.0303  0.0390 -0.4153
  811SOL    HW1 3242   1.691   0.144   2.320  1.1322 -0.5296  0.8977
  811SOL    HW2 3243   1.578   0.171   2.221 -1.1921 -0.4392  2.3640
  811SOL     MW 3244   1.608   0.167   2.303  0.0144 -0.0991  0.1246
  812SOL     OW 3245   1.468   2.859   2.072 -0.2251  0.3745 -0.3090
  812SOL    HW1 3246   1.563   2.871   2.071 -0.4638 -0.7306 -0.1048
  812SOL    HW2 3247   1.452   2.830   2.162  0.4911 -0.4368 -1.2711
  812SOL     MW 3248   1.478   2.857   2.084 -0.1621  0.1216 -0.4090
  813SOL     OW 3249   2.008   0.623   2.236  0.0492 -0.3050  0.0343
  813SOL    HW1 3250   1.924   0.594   2.211  3.3068 -0.9259 -0.0460
  813SOL    HW2 3251   1.990   0.676   2.315  0.0055  0.2367 -3.5735
  813SOL     MW 3252   1.995   0.626   2.244  0.4733 -0.3155 -0.4523
  814SOL     OW 3253   2.688   1.225   1.635 -0.1527 -0.2965  0.2917
  814SOL    HW1 3254   2.647   1.182   1.711 -1.0357 -3.1968 -1.0602
  814SOL    HW2 3255   2.685   1.164   1.557  2.5575  0.0865 -0.5181
  814SOL     MW 3256   2.682   1.211   1.635  0.0884 -0.6286  0.0065
  815SOL     OW 3257   2.517   1.754   2.412  0.7095  0.1332 -0.1673
  815SOL    HW1 3258   2.479   1.671   2.367 -0.3921 -1.3304 -2.5065
  815SOL    HW2 3259   2.614   1.741   2.408  1.0025  1.8095  1.1139
  815SOL     MW 3260   2.525   1.741   2.405  0.6028  0.1613 -0.3069
  816SOL     OW 3261   0.745   0.683   2.765  0.2055  0.7153 -0.8840
  816SOL    HW1 3262   0.754   0.578   2.754  0.4033  0.6017 -0.5204
  816SOL    HW2 3263   0.646   0.676   2.740  1.2288 -2.6506 -0.1379
  816SOL     MW 3264   0.733   0.668   2.760  0.3666  0.2562 -0.7376
  817SOL     OW 3265   2.988   1.252   1.450 -0.5178 -0.4521  0.1672
  817SOL    HW1 3266   3.078   1.235   1.493  1.5805 -1.8826 -2.0731
  817SOL    HW2 3267   2.995   1.345   1.412  0.7863  2.2011  0.5924
  817SOL     MW 3268   3.001   1.262   1.451 -0.0689 -0.2908 -0.0723
  818SOL     OW 3269   1.908   1.062   2.630 -0.6123  0.3833 -0.4179
  818SOL    HW1 3270   1.900   0.973   2.593  0.2266  2.0264  0.9410
  818SOL    HW2 3271   1.994   1.054   2.669  2.5564 -2.2457 -0.3054
  818SOL     MW 3272   1.919   1.049   2.631 -0.0835  0.2532 -0.2238
  819SOL     OW 3273   1.965   0.339   2.473  0.0027 -0.6946  0.2989
  819SOL    HW1 3274   1.885   0.396   2.477  1.2656 -0.4534  0.6094
  819SOL    HW2 3275   1.974   0.329   2.566 -0.9845  1.6239 -0.9622
  819SOL     MW 3276   1.956   0.346   2.486  0.0391 -0.3569  0.1735
  820SOL     OW 3277   2.473   1.691   2.675 -0.2359  0.4836 -0.2994
  820SOL    HW1 3278   2.528   1.619   2.711 -1.4770  0.3136 -0.9142
  820SOL    HW2 3279   2.510   1.709   2.586 -0.6387 -0.9086  1.4194
  820SOL     MW 3280   2.485   1.684   2.668 -0.4528  0.2775 -0.1537
  821SOL     OW 3281   2.579   1.380   1.991 -0.2977 -0.2362 -0.1265
  821SOL    HW1 3282   2.612   1.454   1.937  1.6931 -0.0280 -0.8939
  821SOL    HW2 3283   2.484   1.395   1.987  2.2265 -0.1245  2.2063
  821SOL     MW 3284   2.571   1.392   1.984  0.2980 -0.1940  0.0800
  822SOL     OW 3285   2.919   2.740   1.483 -0.2854 -0.1459 -0.0389
  822SOL    HW1 3286   2.947   2.726   1.571 -0.5336 -0.7938 -4.0501
  822SOL    HW2 3287   2.888   2.832   1.475  0.2990  0.5641  0.7506
  822SOL     MW 3288   2.919   2.750   1.493 -0.2411 -0.1377 -0.4640
  823SOL     OW 3289   2.362   0.480   1.864  0.1610  0.3127  0.1267
  823SOL    HW1 3290   2.449   0.440   1.836 -1.4351  0.5781  0.4768
  823SOL    HW2 3291   2.336   0.452   1.949  0.8370 -0.2136 -1.6266
  823SOL     MW 3292   2.370   0.471   1.871  0.0396  0.2783 -0.0584
  824SOL     OW 3293   2.261   1.483   2.656 -0.3233 -0.5710  0.8487
  824SOL    HW1 3294   2.326   1.552   2.644  0.3411 -0.5605  1.9545
  824SOL    HW2 3295   2.181   1.540   2.662  0.1714 -0.0646 -0.3277
  824SOL     MW 3296   2.259   1.499   2.655 -0.1703 -0.5028  0.8394
  825SOL     OW 3297   1.861   2.600   0.238  0.4524 -0.3744  0.0518
  825SOL    HW1 3298   1.812   2.552   0.296 -0.8619 -0.0559 -2.1481
  825SOL    HW2 3299   1.918   2.533   0.199 -2.4865 -2.9888  3.2321
  825SOL     MW 3300   1.862   2.585   0.240 -0.1088 -0.6773  0.1812
  826SOL     OW 3301   1.809   2.370   0.454 -0.2064 -0.2338 -0.4422
  826SOL    HW1 3302   1.774   2.285   0.491 -3.4800  2.7935  1.8842
  826SOL    HW2 3303   1.781   2.434   0.524 -2.4015 -0.2511 -1.7891
  826SOL     MW 3304   1.801   2.367   0.468 -0.9279  0.1634 -0.3129
  827SOL     OW 3305   1.907   2.226   0.793 -0.8040 -0.2407  0.0918
  827SOL    HW1 3306   1.842   2.214   0.723  0.4798 -0.2379 -0.7311
  827SOL    HW2 3307   1.864   2.157   0.854  0.8403 -0.4649  2.3442
  827SOL     MW 3308   1.893   2.215   0.792 -0.4177 -0.2699  0.2804
  828SOL     OW 3309   0.034   2.635   0.583  0.2651 -0.3570 -0.3264
  828SOL    HW1 3310   0.132   2.637   0.588  0.1469  1.0242  0.6112
  828SOL    HW2 3311   0.015   2.665   0.494  0.4045  0.8641  0.0313
  828SOL     MW 3312   0.045   2.639   0.572  0.2679 -0.0136 -0.1555
  829SOL     OW 3313   2.974   2.926   1.179 -0.1878 -0.0412  0.5347
  829SOL    HW1 3314   2.900   2.911   1.113  0.8688  1.0133  0.4919
  829SOL    HW2 3315   3.015   2.842   1.187  1.1679 -1.1699 -0.6857
  829SOL     MW 3316   2.970   2.913   1.171  0.1305 -0.0510  0.3681
  830SOL     OW 3317   2.547   2.837   2.016  0.2554 -0.3418  0.1585
  830SOL    HW1 3318   2.455   2.823   1.983  1.0658  1.6956  0.2715
  830SOL    HW2 3319   2.594   2.802   1.939 -2.2854 -0.8263  2.9704
  830SOL     MW 3320   2.541   2.831   2.002  0.0271 -0.1369  0.5444
  831SOL     OW 3321   2.379   2.432   1.164 -0.3223  0.2446  0.2755
  831SOL    HW1 3322   2.344   2.378   1.240 -0.6867 -1.5418 -0.5374
  831SOL    HW2 3323   2.471   2.408   1.160 -3.2774 -0.7157 -0.9625
  831SOL     MW 3324   2.386   2.422   1.173 -0.7603 -0.1178  0.0049
  832SOL     OW 3325   2.345   2.195   1.845  0.0391  0.2627  0.2584
  832SOL    HW1 3326   2.371   2.278   1.882  1.9848  0.4960  2.5164
  832SOL    HW2 3327   2.427   2.155   1.830  1.4561 -0.2097  4.3810
  832SOL     MW 3328   2.359   2.200   1.848  0.4828  0.2311  1.1003
  833SOL     OW 3329   1.734   2.489   0.872 -0.6554 -0.1334  0.3638
  833SOL    HW1 3330   1.645   2.491   0.898  2.5958 -1.9586  3.6583
  833SOL    HW2 3331   1.772   2.563   0.915 -3.2286 -5.1756 -1.1259
  833SOL     MW 3332   1.728   2.499   0.881 -0.5660 -1.0395  0.6019
  834SOL     OW 3333   2.095   2.414   0.576 -0.3268 -0.0981  0.1522
  834SOL    HW1 3334   2.003   2.411   0.557 -0.9574 -3.5415  2.1944
  834SOL    HW2 3335   2.143   2.386   0.497  0.3303  0.2283 -2.2440
  834SOL     MW 3336   2.089   2.410   0.563 -0.3233 -0.5094  0.1055
  835SOL     OW 3337   1.795   2.578   0.632  0.1256  0.3349  0.4442
  835SOL    HW1 3338   1.737   2.551   0.709 -4.0596 -0.4202  2.4486
  835SOL    HW2 3339   1.871   2.616   0.672  1.0502  1.0463  0.0188
  835SOL     MW 3340   1.797   2.580   0.647 -0.3046  0.3291  0.6525
  836SOL     OW 3341   1.881   2.199   1.579  0.3238 -0.6460  0.2448
  836SOL    HW1 3342   1.974   2.212   1.607  0.4183  0.6065 -1.3856
  836SOL    HW2 3343   1.830   2.271   1.613  2.0432  0.6867 -0.2814
  836SOL     MW 3344   1.887   2.210   1.587  0.5631 -0.3049 -0.0398
  837SOL     OW 3345   2.140   0.202   0.725  0.2417  0.2237 -0.6665
  837SOL    HW1 3346   2.056   0.204   0.676  1.6244  1.0224  1.8402
  837SOL    HW2 3347   2.192   0.166   0.657 -2.0773  0.1526  1.9336
  837SOL     MW 3348   2.136   0.198   0.710  0.1182  0.3197  0.0073
  838SOL     OW 3349   2.926   2.027   0.928  0.3994 -0.2299  0.0983
  838SOL    HW1 3350   2.854   1.970   0.955 -0.2722 -0.2317  0.8276
  838SOL    HW2 3351   3.009   1.977   0.912  1.3100 -0.3045  0.4946
  838SOL     MW 3352   2.927   2.013   0.929  0.4310 -0.2400  0.2468
  839SOL     OW 3353   1.537   2.334   1.038  0.2568 -0.0661 -0.1156
  839SOL    HW1 3354   1.565   2.385   1.109 -0.4853 -1.4539 -0.4187
  839SOL    HW2 3355   1.553   2.243   1.071 -0.0866 -1.0185  0.8056
  839SOL     MW 3356   1.543   2.329   1.052  0.1136 -0.3749 -0.0340
  840SOL     OW 3357   2.360   2.205   2.443  0.1555 -0.1073 -0.0997
  840SOL    HW1 3358   2.338   2.284   2.398  0.5617  1.2262  1.6035
  840SOL    HW2 3359   2.348   2.210   2.543 -0.6194 -1.3616  1.2411
  840SOL     MW 3360   2.356   2.216   2.450  0.1069 -0.0969  0.3019
  841SOL     OW 3361   2.063   2.445   0.129 -0.1433 -0.1256  0.2952
  841SOL    HW1 3362   2.127   2.499   0.078  0.3338 -1.6037 -3.0865
  841SOL    HW2 3363   2.057   2.359   0.089 -1.1643  0.4182 -4.0363
  841SOL     MW 3364   2.071   2.441   0.117 -0.2151 -0.2489 -0.7225
  842SOL     OW 3365   2.679   2.079   1.545  0.0672 -0.2111 -0.0020
  842SOL    HW1 3366   2.630   2.039   1.619  0.5633 -0.1203 -1.2089
  842SOL    HW2 3367   2.624   2.092   1.466  2.2126  2.3927 -3.0032
  842SOL     MW 3368   2.665   2.076   1.545  0.4157  0.1444 -0.5572
  843SOL     OW 3369   2.672   2.759   1.786  0.0352 -0.3291 -0.0308
  843SOL    HW1 3370   2.753   2.713   1.767  0.8894 -1.7471  2.9687
  843SOL    HW2 3371   2.600   2.706   1.738 -1.1014 -0.8657 -1.8432
  843SOL     MW 3372   2.673   2.746   1.777 -0.0020 -0.5870  0.1258
  844SOL     OW 3373   2.663   2.379   1.163 -0.4489  0.3419 -0.6188
  844SOL    HW1 3374   2.698   2.383   1.071 -1.4094 -2.5213 -2.9447
  844SOL    HW2 3375   2.693   2.462   1.207  0.9410  1.2314  0.6760
  844SOL     MW 3376   2.671   2.391   1.157 -0.3922  0.0815 -0.7548
  845SOL     OW 3377   2.852   2.490   0.301 -0.0578  0.8514 -0.0028
  845SOL    HW1 3378   2.829   2.395   0.283 -0.7334 -1.6531 -1.7065
  845SOL    HW2 3379   2.835   2.495   0.395 -1.5069 -0.9997 -3.6851
  845SOL     MW 3380   2.847   2.478   0.311 -0.3381  0.2767 -0.7134
  846SOL     OW 3381   1.583   2.869   0.787  0.7018 -0.5493  0.6008
  846SOL    HW1 3382   1.679   2.876   0.812  0.7502  2.5948 -1.3519
  846SOL    HW2 3383   1.537   2.924   0.856 -1.7580  0.1576 -1.3533
  846SOL     MW 3384   1.590   2.878   0.799  0.3836 -0.0412  0.0853
  847SOL     OW 3385   2.632   1.955   0.191 -0.3975 -0.0854  0.3125
  847SOL    HW1 3386   2.719   1.912   0.203 -0.2352 -0.1814 -0.4897
  847SOL    HW2 3387   2.607   1.911   0.116  1.3601 -0.7579  0.9651
  847SOL     MW 3388   2.640   1.943   0.183 -0.1442 -0.1868  0.2927
  848SOL     OW 3389   2.535   2.124   1.301 -0.2259 -0.4464 -0.3184
  848SOL    HW1 3390   2.596   2.182   1.253 -1.8917  0.5742  0.4059
  848SOL    HW2 3391   2.514   2.045   1.258 -0.9726  2.0171  1.0602
  848SOL     MW 3392   2.540   2.122   1.289 -0.5442  0.0133 -0.0410
  849SOL     OW 3393   1.969   2.685   0.791 -0.5227  0.6367 -0.1807
  849SOL    HW1 3394   1.995   2.610   0.842  0.6396 -0.4005 -0.7415
  849SOL    HW2 3395   2.037   2.694   0.724  1.0701 -0.7011  2.7215
  849SOL     MW 3396   1.981   2.676   0.789 -0.1592  0.3234  0.1283
  850SOL     OW 3397   2.169   1.961   1.679 -0.1381  0.1061 -0.0114
  850SOL    HW1 3398   2.096   1.903   1.649 -0.4023 -1.5491 -0.7655
  850SOL    HW2 3399   2.147   2.054   1.655 -0.1024 -0.8263 -0.4351
  850SOL     MW 3400   2.157   1.965   1.672 -0.1683 -0.2353 -0.1668
  851SOL     OW 3401   2.230   2.375   0.324  0.2843  0.2008  0.6842
  851SOL    HW1 3402   2.152   2.386   0.268  2.7816  0.4256 -0.3839
  851SOL    HW2 3403   2.288   2.449   0.307  0.4463  0.6785  0.0707
  851SOL     MW 3404   2.227   2.386   0.314  0.6351  0.2935  0.4623
  852SOL     OW 3405   2.317   2.116   0.261 -0.4674 -0.1371 -0.8747
  852SOL    HW1 3406   2.284   2.198   0.300  0.6662  2.3153 -1.1140
  852SOL    HW2 3407   2.382   2.143   0.192  0.6017 -0.9485 -0.7199
  852SOL     MW 3408   2.321   2.130   0.257 -0.1768  0.0794 -0.8858
  853SOL     OW 3409   2.425   2.448   1.917 -0.4634 -0.0394  0.7395
  853SOL    HW1 3410   2.456   2.487   1.832  0.6348  1.4415 -0.1248
  853SOL    HW2 3411   2.509   2.427   1.956 -0.4451 -1.9574 -0.7637
  853SOL     MW 3412   2.440   2.451   1.911 -0.3161 -0.0971  0.4271
  854SOL     OW 3413   2.858   2.217   0.745 -0.1509 -0.0088 -0.1272
  854SOL    HW1 3414   2.799   2.167   0.690 -0.7063 -0.1033 -0.8794
  854SOL    HW2 3415   2.894   2.148   0.805  1.1837 -0.4466  1.0546
  854SOL     MW 3416   2.855   2.201   0.745 -0.0481 -0.0790 -0.0705
  855SOL     OW 3417   2.714   2.242   0.302 -0.6884 -0.1426 -0.4576
  855SOL    HW1 3418   2.626   2.252   0.348 -0.0242 -0.4800 -0.4522
  855SOL    HW2 3419   2.776   2.199   0.361 -1.2766  1.2005  0.7250
  855SOL     MW 3420   2.710   2.238   0.316 -0.6784 -0.0099 -0.3009
  856SOL     OW 3421   2.202   1.878   0.177  0.4574 -0.1587 -0.1745
  856SOL    HW1 3422   2.108   1.877   0.206 -0.6400  0.0640 -2.2566
  856SOL    HW2 3423   2.249   1.960   0.214 -0.8381  1.6560 -1.4560
  856SOL     MW 3424   2.196   1.889   0.186  0.1417  0.1101 -0.6183
  857SOL     OW 3425   2.498   1.903   0.453  0.3881 -0.0244  0.0895
  857SOL    HW1 3426   2.516   1.938   0.369  0.7957 -0.4804  2.2272
  857SOL    HW2 3427   2.404   1.895   0.453  4.1168  1.1339 -2.2351
  857SOL     MW 3428   2.488   1.907   0.442  0.9338  0.0683  0.0649
  858SOL     OW 3429   2.922   2.670   1.754 -0.5126  0.1048 -0.2035
  858SOL    HW1 3430   3.007   2.679   1.795 -0.6066 -1.2868 -3.2227
  858SOL    HW2 3431   2.886   2.584   1.793 -0.1477 -2.2234 -1.9926
  858SOL     MW 3432   2.928   2.660   1.765 -0.4768 -0.3860 -0.8379
  859SOL     OW 3433   2.098   2.463   0.907  0.5405 -0.0469 -0.2420
  859SOL    HW1 3434   2.047   2.398   0.852  1.8495  0.1045  0.2738
  859SOL    HW2 3435   2.176   2.421   0.934 -0.6115  1.0209  2.2746
  859SOL     MW 3436   2.101   2.449   0.903  0.5612  0.1140  0.1581
  860SOL     OW 3437   2.636   2.632   0.182 -0.3160 -0.1471  0.1067
  860SOL    HW1 3438   2.707   2.596   0.230 -0.5166  2.2219 -1.2724
  860SOL    HW2 3439   2.678   2.711   0.142  1.0028  1.0284 -1.0764
  860SOL     MW 3440   2.651   2.638   0.183 -0.1685  0.3206 -0.2313
  861SOL     OW 3441   1.575   2.091   1.161 -0.3422  0.4443  0.3199
  861SOL    HW1 3442   1.629   2.101   1.242  0.0199  0.4300 -2.5550
  861SOL    HW2 3443   1.506   2.033   1.190 -0.9961  1.0065 -0.5464
  861SOL     MW 3444   1.573   2.085   1.175 -0.3807  0.5166 -0.1737
  862SOL     OW 3445   2.404   1.850   1.554 -0.0398 -0.7007 -0.2981
  862SOL    HW1 3446   2.326   1.892   1.595  0.8899 -1.1443  0.1469
  862SOL    HW2 3447   2.380   1.844   1.463 -2.0183  2.9211  1.3703
  862SOL     MW 3448   2.390   1.854   1.548 -0.1782 -0.2814 -0.0193
  863SOL     OW 3449   3.073   1.820   1.160 -0.1335 -0.1052 -0.3137
  863SOL    HW1 3450   3.105   1.778   1.241  2.6414 -1.7914 -1.5809
  863SOL    HW2 3451   3.041   1.911   1.187  0.2018  0.6896 -1.0528
  863SOL     MW 3452   3.073   1.827   1.174  0.2769 -0.2228 -0.5784
  864SOL     OW 3453   0.037   1.864   0.913  0.5556  0.0687 -0.6339
  864SOL    HW1 3454   0.006   1.825   0.993  1.2224  1.1358  0.2148
  864SOL    HW2 3455  -0.001   1.844   0.826  1.3907 -0.8605  0.5460
  864SOL     MW 3456   0.027   1.856   0.912  0.7538  0.0869 -0.3662
  865SOL     OW 3457   2.510   2.177   0.076  0.5009 -0.1828  0.2389
  865SOL    HW1 3458   2.567   2.107   0.129  1.4344 -0.8820 -0.7553
  865SOL    HW2 3459   2.466   2.125   0.003  0.3284  0.6984  2.3711
  865SOL     MW 3460   2.511   2.161   0.073  0.6013 -0.1588  0.3891
  866SOL     OW 3461   2.709   2.350   1.590 -0.2493  0.5945  0.0667
  866SOL    HW1 3462   2.715   2.253   1.585  0.4441  1.5292  0.2745
  866SOL    HW2 3463   2.756   2.384   1.517 -0.9817 -0.3755  1.1312
  866SOL     MW 3464   2.716   2.342   1.580 -0.2545  0.5898  0.2346
  867SOL     OW 3465   0.078   2.725   1.866 -0.0237  0.6744  0.2902
  867SOL    HW1 3466   0.153   2.738   1.923 -0.4655  0.8970 -2.4306
  867SOL    HW2 3467   0.063   2.801   1.812  0.2951 -1.7179  0.4170
  867SOL     MW 3468   0.086   2.737   1.866 -0.0399  0.3881 -0.0521
  868SOL     OW 3469   2.801   2.544   0.571 -0.1204  0.5167 -0.3338
  868SOL    HW1 3470   2.737   2.472   0.566  1.4419 -0.9335  0.2150
  868SOL    HW2 3471   2.763   2.623   0.536  2.6396  1.9594 -0.4778
  868SOL     MW 3472   2.788   2.545   0.565  0.4499  0.5157 -0.2804
  869SOL     OW 3473   1.891   2.337   1.063  0.0193 -0.6032 -0.1364
  869SOL    HW1 3474   1.964   2.393   1.032 -0.7641  1.2523  0.0065
  869SOL    HW2 3475   1.826   2.372   1.001  0.4992  3.8165 -2.6338
  869SOL     MW 3476   1.892   2.349   1.051 -0.0208  0.2248 -0.4471
  870SOL     OW 3477   2.275   0.044   0.538 -0.8792 -0.3613  0.1832
  870SOL    HW1 3478   2.333   0.089   0.473  1.0317 -0.1425  0.3048
  870SOL    HW2 3479   2.318  -0.041   0.552  1.2548 -0.3320 -1.3233
  870SOL     MW 3480   2.288   0.039   0.531 -0.3455 -0.3286  0.0005
  871SOL     OW 3481   2.455   2.080   0.860  0.3397 -0.8655  0.6443
  871SOL    HW1 3482   2.403   2.055   0.782  1.7742 -0.8167  1.4336
  871SOL    HW2 3483   2.411   2.165   0.888  0.9237 -0.6972 -0.3811
  871SOL     MW 3484   2.443   2.088   0.853  0.6060 -0.8369  0.6131
  872SOL     OW 3485   2.026   2.585   1.384 -0.2364 -0.0353  0.3812
  872SOL    HW1 3486   1.969   2.618   1.454 -1.1164 -0.8101 -1.8413
  872SOL    HW2 3487   1.974   2.521   1.332  0.3907 -1.0169  0.7988
  872SOL     MW 3488   2.012   2.581   1.386 -0.2698 -0.2671  0.1430
  873SOL     OW 3489   2.823   2.065   1.909 -0.0097  0.8483  0.4583
  873SOL    HW1 3490   2.851   2.126   1.980 -1.2509 -0.9742 -1.1591
  873SOL    HW2 3491   2.888   2.068   1.839 -0.3394 -1.2598  1.3682
  873SOL     MW 3492   2.836   2.074   1.909 -0.2170  0.3297  0.3650
  874SOL     OW 3493   2.445   1.515   2.329 -0.4171 -0.3402  0.5223
  874SOL    HW1 3494   2.378   1.473   2.279  0.4623  2.5383  2.8636
  874SOL    HW2 3495   2.525   1.462   2.335  1.4497  1.1419  0.1523
  874SOL     MW 3496   2.447   1.503   2.323 -0.0548  0.2351  0.7824
  875SOL     OW 3497   2.331   2.311   0.924 -0.6980 -0.1260 -0.5078
  875SOL    HW1 3498   2.402   2.370   0.887  2.6039 -0.3730 -2.1545
  875SOL    HW2 3499   2.346   2.333   1.017  1.2585 -0.2208 -2.0638
  875SOL     MW 3500   2.343   2.321   0.932 -0.0042 -0.1711 -0.9304
  876SOL     OW 3501   3.049   2.339   1.327 -0.3146 -0.4337 -0.0923
  876SOL    HW1 3502   3.108   2.355   1.249  0.7322 -0.0492 -3.1372
  876SOL    HW2 3503   3.073   2.392   1.397  3.3138 -1.5389 -0.2769
  876SOL     MW 3504   3.060   2.348   1.326  0.3022 -0.5288 -0.5184
  877SOL     OW 3505   3.052   2.763   0.339 -0.4731 -0.3209 -0.9074
  877SOL    HW1 3506   3.013   2.823   0.279 -0.7165 -2.4919 -1.7362
  877SOL    HW2 3507   3.064   2.684   0.284 -0.1193 -0.9133  0.5804
  877SOL     MW 3508   3.049   2.760   0.324 -0.4585 -0.6855 -0.8204
  878SOL     OW 3509   2.345   1.828   1.289 -0.5110 -0.5695 -0.4363
  878SOL    HW1 3510   2.301   1.743   1.291 -0.1027 -0.9147  0.5771
  878SOL    HW2 3511   2.427   1.799   1.245 -0.7980 -1.1495 -3.7945
  878SOL     MW 3512   2.350   1.813   1.283 -0.4950 -0.6916 -0.7456
  879SOL     OW 3513   2.777   2.415   0.920  0.1349  0.3066 -0.2582
  879SOL    HW1 3514   2.827   2.485   0.947 -0.0936 -0.8662 -2.3508
  879SOL    HW2 3515   2.835   2.351   0.878 -0.8348  2.3275 -0.6410
  879SOL     MW 3516   2.791   2.416   0.918 -0.0232  0.4185 -0.5848
  880SOL     OW 3517   2.672   2.021   0.665  0.0038  0.3974 -0.0267
  880SOL    HW1 3518   2.607   2.039   0.735 -1.7787  1.4868  2.6210
  880SOL    HW2 3519   2.620   2.000   0.587 -0.4113 -0.3145 -1.5704
  880SOL     MW 3520   2.656   2.021   0.664 -0.2862  0.4472  0.1190
  881SOL     OW 3521   2.938   2.693   0.772 -0.2857  0.2106  0.3135
  881SOL    HW1 3522   2.892   2.632   0.709 -1.7491 -2.6841 -0.9464
  881SOL    HW2 3523   3.023   2.692   0.730 -1.6401 -1.7218  0.1482
  881SOL     MW 3524   2.943   2.685   0.758 -0.6575 -0.4263  0.1255
  882SOL     OW 3525   2.326   2.771   1.876  0.4250 -0.1979  0.1660
  882SOL    HW1 3526   2.289   2.793   1.792  0.9229 -1.0616  1.4003
  882SOL    HW2 3527   2.261   2.724   1.928  0.5233  1.2430 -0.2935
  882SOL     MW 3528   2.312   2.768   1.872  0.5037 -0.1218  0.2682
  883SOL     OW 3529   2.262   2.238   1.355 -0.1386  0.3538  0.0444
  883SOL    HW1 3530   2.334   2.179   1.352 -1.3824 -0.1378  0.0459
  883SOL    HW2 3531   2.185   2.197   1.301 -1.4347  1.4428 -0.0996
  883SOL     MW 3532   2.261   2.225   1.347 -0.4737  0.4326  0.0256
  884SOL     OW 3533   1.925   1.852   1.124 -0.1216  0.7261 -0.1430
  884SOL    HW1 3534   1.886   1.904   1.055 -0.6242 -0.1756 -0.0599
  884SOL    HW2 3535   2.017   1.858   1.099  2.1044 -3.7047 -0.0741
  884SOL     MW 3536   1.932   1.860   1.112  0.1058  0.0225 -0.1230
  885SOL     OW 3537   2.799   2.406   1.854 -0.8128 -0.0151  0.5317
  885SOL    HW1 3538   2.885   2.361   1.840 -1.1830 -2.7330 -3.8964
  885SOL    HW2 3539   2.743   2.395   1.777  0.4710  2.7134 -1.2155
  885SOL     MW 3540   2.803   2.399   1.842 -0.6923 -0.0137 -0.2831
  886SOL     OW 3541   2.816   2.531   1.354 -0.4283 -0.2321  0.5574
  886SOL    HW1 3542   2.896   2.491   1.321  0.2464 -2.1392  2.4405
  886SOL    HW2 3543   2.849   2.619   1.385  1.8798  1.5266 -2.3395
  886SOL     MW 3544   2.831   2.537   1.354 -0.0347 -0.2516  0.4236
  887SOL     OW 3545   2.293   2.617   1.468  0.1027 -0.0218  0.0743
  887SOL    HW1 3546   2.340   2.648   1.392  0.7466  1.3137  2.0005
  887SOL    HW2 3547   2.223   2.561   1.439  2.3741 -0.5485  0.3413
  887SOL     MW 3548   2.290   2.614   1.454  0.4874  0.0849  0.3637
  888SOL     OW 3549   1.795   2.074   1.337 -0.0880  0.0426 -0.5090
  888SOL    HW1 3550   1.865   2.065   1.273 -1.6789 -0.0390 -0.3361
  888SOL    HW2 3551   1.840   2.106   1.419  0.2388  2.5103 -0.1315
  888SOL     MW 3552   1.810   2.077   1.339 -0.2548  0.3575 -0.4364
  889SOL     OW 3553   2.325   2.056   2.100  0.2750 -0.4679 -0.2477
  889SOL    HW1 3554   2.407   2.068   2.148  0.3032 -0.5814  1.4711
  889SOL    HW2 3555   2.344   2.103   2.019  0.4084 -3.5129 -0.3953
  889SOL     MW 3556   2.338   2.064   2.096  0.2963 -0.8846 -0.0404
  890SOL     OW 3557   0.117   2.297   0.098  0.2820  0.4356  0.2950
  890SOL    HW1 3558   0.091   2.391   0.102  0.2296  0.5230  0.6805
  890SOL    HW2 3559   0.118   2.269   0.191  2.5515 -1.3569  1.1245
  890SOL     MW 3560   0.114   2.305   0.111  0.5745  0.2106  0.4553
  891SOL     OW 3561   3.052   2.048   1.330  0.1077  0.0453 -0.1231
  891SOL    HW1 3562   3.149   2.030   1.326  0.1770 -0.1739  0.0100
  891SOL    HW2 3563   3.044   2.141   1.332 -1.4832 -1.8682  2.8379
  891SOL     MW 3564   3.064   2.058   1.330 -0.0931 -0.2361  0.2851
  892SOL     OW 3565   2.343   2.386   2.978  0.3396  0.2319 -0.0083
  892SOL    HW1 3566   2.345   2.327   3.050 -0.0182  1.8053  2.5707
  892SOL    HW2 3567   2.416   2.367   2.918  0.6528  0.2149 -0.6433
  892SOL     MW 3568   2.353   2.376   2.979  0.3337  0.4373  0.2482
  893SOL     OW 3569   1.602   2.531   1.225 -0.1790  0.3512 -0.1412
  893SOL    HW1 3570   1.529   2.538   1.287 -0.8293 -2.4136  0.4666
  893SOL    HW2 3571   1.666   2.488   1.280 -2.9436  0.6567 -1.5730
  893SOL     MW 3572   1.600   2.526   1.241 -0.6296  0.0267 -0.2499
  894SOL     OW 3573   2.858   1.899   0.520 -0.2030  0.1622  0.0481
  894SOL    HW1 3574   2.776   1.934   0.573 -2.9366  0.6900  0.9489
  894SOL    HW2 3575   2.827   1.834   0.457 -2.2008 -2.9805 -2.9242
  894SOL     MW 3576   2.843   1.895   0.519 -0.8273 -0.1828 -0.2252
  895SOL     OW 3577   2.080   2.127   1.184  0.2419  0.3659 -0.0808
  895SOL    HW1 3578   2.040   2.180   1.114 -0.3240  0.5500 -0.5306
  895SOL    HW2 3579   2.114   2.047   1.147 -1.5455  0.1638 -0.8314
  895SOL     MW 3580   2.079   2.124   1.170 -0.0686  0.3635 -0.2392
  896SOL     OW 3581   2.196   2.830   1.053 -0.2341  0.6800  0.2942
  896SOL    HW1 3582   2.256   2.801   1.125  0.7335  0.2185 -0.8014
  896SOL    HW2 3583   2.111   2.788   1.083  0.8762 -0.6674 -2.2501
  896SOL     MW 3584   2.193   2.821   1.067  0.0401  0.4413 -0.1861
  897SOL     OW 3585   2.970   2.948   0.151 -0.5043  0.1822  0.3535
  897SOL    HW1 3586   3.052   2.917   0.106  0.0708 -0.5496 -1.5896
  897SOL    HW2 3587   2.904   2.897   0.107  3.3387 -0.9751  1.4700
  897SOL     MW 3588   2.972   2.937   0.139  0.0786 -0.0670  0.2444
  898SOL     OW 3589   2.080   0.181   1.411 -0.0046  0.1932 -0.0039
  898SOL    HW1 3590   2.034   0.099   1.383 -1.8872  1.8472 -0.4487
  898SOL    HW2 3591   2.080   0.224   1.325  0.6304  1.0717  0.6529
  898SOL     MW 3592   2.074   0.176   1.396 -0.1692  0.5273  0.0241
  899SOL     OW 3593   2.886   2.957   0.646  0.1470  0.3065  0.6088
  899SOL    HW1 3594   2.903   2.906   0.726 -1.5108  0.9004  2.5664
  899SOL    HW2 3595   2.796   2.994   0.658 -0.8846 -1.3161 -1.1794
  899SOL     MW 3596   2.877   2.955   0.658 -0.2079  0.1708  0.6311
  900SOL     OW 3597   0.121   2.374   1.126 -0.0035  0.1958 -0.1494
  900SOL    HW1 3598   0.090   2.459   1.095 -0.1508 -0.4259 -0.7292
  900SOL    HW2 3599   0.145   2.329   1.044  0.3130  0.7465  0.2869
  900SOL     MW 3600   0.120   2.379   1.111  0.0188  0.1864 -0.1684
  901SOL     OW 3601   1.734   2.800   1.759 -0.0796  0.2455 -0.3821
  901SOL    HW1 3602   1.811   2.765   1.710 -0.7899  0.9663 -1.6023
  901SOL    HW2 3603   1.651   2.800   1.706 -3.1052 -2.1070 -1.7801
  901SOL     MW 3604   1.733   2.795   1.746 -0.5725  0.0302 -0.7276
  902SOL     OW 3605   2.575   2.019   1.800 -0.0129 -0.5781  0.2807
  902SOL    HW1 3606   2.564   1.924   1.823 -0.5737 -0.1651  0.9314
  902SOL    HW2 3607   2.659   2.047   1.839  1.8190 -0.6965 -0.3331
  902SOL     MW 3608   2.585   2.010   1.808  0.1548 -0.5392  0.2856
  903SOL     OW 3609   1.650   2.777   0.513 -0.2847  0.0546 -0.0963
  903SOL    HW1 3610   1.711   2.703   0.553  1.2922  1.6693 -0.0263
  903SOL    HW2 3611   1.617   2.812   0.601 -1.6955  0.5864  1.9552
  903SOL     MW 3612   1.654   2.772   0.530 -0.2628  0.3378  0.1836
  904SOL     OW 3613   2.501   2.524   1.665 -0.0982  0.6279 -0.2146
  904SOL    HW1 3614   2.440   2.571   1.608  1.6084 -2.3190  0.1878
  904SOL    HW2 3615   2.531   2.453   1.608  3.0925 -0.5770  1.7809
  904SOL     MW 3616   2.497   2.521   1.650  0.5479  0.0801  0.1018
  905SOL     OW 3617   2.341   2.591   2.135 -0.1354  0.1850  0.3535
  905SOL    HW1 3618   2.371   2.533   2.067  2.5369  0.9318  1.4044
  905SOL    HW2 3619   2.308   2.531   2.206 -1.3421 -2.0932 -0.9364
  905SOL     MW 3620   2.341   2.576   2.135  0.0580 -0.0170  0.3220
  906SOL     OW 3621   2.510   2.498   0.823 -0.0628 -0.7854 -0.1270
  906SOL    HW1 3622   2.596   2.483   0.866  0.5448 -0.7790  3.2377
  906SOL    HW2 3623   2.477   2.590   0.836 -1.0587 -1.4472 -1.1410
  906SOL     MW 3624   2.517   2.508   0.831 -0.1140 -0.8719  0.1831
  907SOL     OW 3625   2.597   2.862   1.264  0.2638  0.4537 -0.1012
  907SOL    HW1 3626   2.659   2.902   1.324  0.6583 -0.3541  1.2823
  907SOL    HW2 3627   2.640   2.878   1.178 -1.6928  0.6890 -0.1422
  907SOL     MW 3628   2.611   2.870   1.260  0.0577  0.3781  0.0759
  908SOL     OW 3629   2.703   2.390   0.027  0.2027  0.3589  0.4545
  908SOL    HW1 3630   2.655   2.307   0.043 -0.4953 -2.8580 -0.8282
  908SOL    HW2 3631   2.662   2.461   0.076  3.0998 -1.1284 -2.0385
  908SOL     MW 3632   2.691   2.389   0.036  0.4928 -0.2618 -0.0437
  909SOL     OW 3633   1.629   0.229   1.016 -0.1658  0.1419 -0.3174
  909SOL    HW1 3634   1.687   0.296   0.980 -1.8779 -0.0881 -1.0830
  909SOL    HW2 3635   1.600   0.257   1.107 -0.8322 -2.7239 -0.1447
  909SOL     MW 3636   1.633   0.242   1.023 -0.4796 -0.2666 -0.3957
  910SOL     OW 3637   2.274   1.731   0.391  0.7130  0.3639  0.1417
  910SOL    HW1 3638   2.219   1.666   0.428  2.1767  0.7061 -1.4228
  910SOL    HW2 3639   2.219   1.773   0.324  0.3502 -0.0923  1.1871
  910SOL     MW 3640   2.259   1.728   0.387  0.8583  0.3489  0.0732
  911SOL     OW 3641   2.161   2.240   1.633 -0.0204  0.9101  0.3046
  911SOL    HW1 3642   2.229   2.237   1.697 -1.9923  0.5087  0.6948
  911SOL    HW2 3643   2.197   2.232   1.546 -1.6919  2.8170 -1.8808
  911SOL     MW 3644   2.175   2.239   1.630 -0.5011  1.1087  0.0678
  912SOL     OW 3645   2.881   1.894   1.485  0.3316 -0.1488 -0.0956
  912SOL    HW1 3646   2.947   1.944   1.430  2.3915  1.2065  0.3221
  912SOL    HW2 3647   2.810   1.955   1.503 -0.1485  2.1630  1.0518
  912SOL     MW 3648   2.881   1.908   1.480  0.5400  0.3350  0.1109
  913SOL     OW 3649   2.543   2.956   0.381 -0.7215  0.2841  0.2398
  913SOL    HW1 3650   2.622   2.898   0.388  1.2795  0.0377  1.1917
  913SOL    HW2 3651   2.468   2.897   0.365  1.5765 -3.3690  0.0270
  913SOL     MW 3652   2.544   2.940   0.380 -0.1543 -0.2304  0.3373
  914SOL     OW 3653   2.789   1.624   0.024 -0.8102  0.2044  0.5700
  914SOL    HW1 3654   2.781   1.694  -0.037  3.3312 -2.3803  2.2266
  914SOL    HW2 3655   2.700   1.593   0.032  3.0605  1.8785 -1.6634
  914SOL     MW 3656   2.776   1.629   0.017  0.2469  0.0842  0.4939
  915SOL     OW 3657   1.854   0.164   0.214 -0.2976 -0.5154  0.0856
  915SOL    HW1 3658   1.897   0.104   0.277  0.0818 -0.3347  0.6437
  915SOL    HW2 3659   1.765   0.131   0.215 -0.4003  2.5783 -1.4657
  915SOL     MW 3660   1.848   0.152   0.223 -0.2611 -0.0833 -0.0454
  916SOL     OW 3661   1.824   2.098   1.952  0.0750 -0.3458  0.4677
  916SOL    HW1 3662   1.830   2.193   1.925  2.1056  0.9740  0.1652
  916SOL    HW2 3663   1.811   2.052   1.870  0.0297 -0.9145 -1.0021
  916SOL     MW 3664   1.823   2.105   1.938  0.3369 -0.2467  0.2339
  917SOL     OW 3665   2.285   2.325   2.694  0.3296  0.2402  0.2307
  917SOL    HW1 3666   2.255   2.324   2.786 -1.5527 -0.2760  1.0591
  917SOL    HW2 3667   2.257   2.407   2.650 -1.2979  0.6049  1.6209
  917SOL     MW 3668   2.278   2.336   2.700 -0.1335  0.2202  0.5234
  918SOL     OW 3669   2.064   1.653   2.666  0.4577  0.4622  0.3716
  918SOL    HW1 3670   2.005   1.662   2.589 -0.4268  0.3153  0.1145
  918SOL    HW2 3671   2.120   1.728   2.668  0.9771 -0.7495 -1.3155
  918SOL     MW 3672   2.063   1.664   2.656  0.4095  0.2830  0.1151
  919SOL     OW 3673   3.059   2.401   2.269 -0.3144 -0.0466  0.3096
  919SOL    HW1 3674   2.996   2.342   2.245  3.5556  2.6456  1.5347
  919SOL    HW2 3675   3.128   2.386   2.211  0.3642 -0.7372 -1.3088
  919SOL     MW 3676   3.059   2.391   2.259  0.2858  0.2175  0.2577
  920SOL     OW 3677   2.764   2.850   0.010  0.5778 -0.0095 -0.0117
  920SOL    HW1 3678   2.681   2.887   0.046 -1.0067  0.4744  1.1442
  920SOL    HW2 3679   2.745   2.766  -0.037 -0.7310 -0.0577 -0.7693
  920SOL     MW 3680   2.751   2.844   0.008  0.1960  0.0480  0.0409
  921SOL     OW 3681   2.526   2.633   2.701 -0.2228 -0.5722 -0.0938
  921SOL    HW1 3682   2.593   2.603   2.641  0.8002 -1.5089 -0.6591
  921SOL    HW2 3683   2.517   2.567   2.771  3.1927  1.1152 -3.6697
  921SOL     MW 3684   2.534   2.620   2.702  0.3629 -0.4732 -0.6402
  922SOL     OW 3685   2.027   2.827   0.267 -0.0764 -0.6425 -0.1029
  922SOL    HW1 3686   1.999   2.872   0.181  2.3996  1.1378  1.9905
  922SOL    HW2 3687   1.973   2.740   0.275 -1.9497 -1.5003 -1.7260
  922SOL     MW 3688   2.016   2.821   0.257  0.0031 -0.5207 -0.0409
  923SOL     OW 3689   2.192   2.814   1.625  0.4623  0.3900  0.1121
  923SOL    HW1 3690   2.226   2.750   1.561 -0.6961 -0.6468  0.6306
  923SOL    HW2 3691   2.208   2.904   1.593  1.7766 -1.5557  2.0033
  923SOL     MW 3692   2.198   2.818   1.613  0.4829 -0.0035  0.4300
  924SOL     OW 3693   1.155   2.763   2.487  0.5872 -0.0757  0.1449
  924SOL    HW1 3694   1.199   2.816   2.416 -0.6505  2.2007 -0.3101
  924SOL    HW2 3695   1.226   2.711   2.523  0.0951 -1.7455 -1.9423
  924SOL     MW 3696   1.170   2.763   2.482  0.3589  0.0043 -0.1905
  925SOL     OW 3697   2.974   0.213   2.686 -0.7074 -0.3117 -0.2041
  925SOL    HW1 3698   3.003   0.248   2.600 -1.3683 -1.5544  2.5248
  925SOL    HW2 3699   2.917   0.278   2.715  2.3517 -1.0417 -0.0402
  925SOL     MW 3700   2.971   0.226   2.678 -0.3910 -0.5720  0.1776
  926SOL     OW 3701   2.655   2.389   2.086  0.1955  0.0685  0.2795
  926SOL    HW1 3702   2.691   2.454   2.145 -0.0142  1.1681  0.7440
  926SOL    HW2 3703   2.701   2.396   1.997 -1.1716  1.6845 -1.5841
  926SOL     MW 3704   2.666   2.398   2.082 -0.0126  0.4268  0.0949
  927SOL     OW 3705   2.372   0.165   0.294 -0.2558 -0.0819 -0.3657
  927SOL    HW1 3706   2.468   0.167   0.272 -0.3552 -1.1774 -0.2163
  927SOL    HW2 3707   2.344   0.134   0.213 -2.2041  0.2704  3.0538
  927SOL     MW 3708   2.381   0.161   0.280 -0.5260 -0.1800  0.1052
  928SOL     OW 3709   2.009   2.511   1.810 -0.3621  0.0077 -0.4852
  928SOL    HW1 3710   2.045   2.438   1.765 -1.7959 -2.5874 -0.5741
  928SOL    HW2 3711   2.072   2.532   1.877  0.6135  1.5671 -0.8794
  928SOL     MW 3712   2.022   2.504   1.813 -0.4225 -0.1290 -0.5489
  929SOL     OW 3713   2.756   2.349   2.435  0.4927  0.2541 -0.2195
  929SOL    HW1 3714   2.712   2.269   2.419 -0.4000  1.1509  1.7399
  929SOL    HW2 3715   2.786   2.336   2.527 -1.3950 -1.2936 -2.8605
  929SOL     MW 3716   2.754   2.337   2.445  0.1258  0.1682 -0.3094
  930SOL     OW 3717   2.008   2.872   2.642  0.3832  0.0053 -0.1317
  930SOL    HW1 3718   2.045   2.819   2.711 -1.5241  0.1745  1.2608
  930SOL    HW2 3719   2.075   2.938   2.612 -0.4166  0.7369  1.5417
  930SOL     MW 3720   2.022   2.874   2.647  0.0260  0.1241  0.2728
  931SOL     OW 3721   2.932   2.839   2.181  0.0164  0.4720  0.6506
  931SOL    HW1 3722   3.019   2.800   2.179 -2.1312 -2.8253 -0.6955
  931SOL    HW2 3723   2.909   2.841   2.088 -1.3066 -3.2405 -0.9288
  931SOL     MW 3724   2.941   2.834   2.169 -0.4415 -0.4529  0.2646
  932SOL     OW 3725   2.825   1.919   2.542  0.2287  0.0935  0.4986
  932SOL    HW1 3726   2.910   1.923   2.580  0.2873 -0.1811  1.3495
  932SOL    HW2 3727   2.828   1.951   2.454 -1.6533 -1.8032  2.6451
  932SOL     MW 3728   2.836   1.924   2.535 -0.0119 -0.1930  0.8941
  933SOL     OW 3729   2.071   2.808   2.237 -0.2649  0.7733 -0.0361
  933SOL    HW1 3730   2.151   2.833   2.281  0.4372 -3.1162 -3.9777
  933SOL    HW2 3731   2.021   2.887   2.226 -0.1234 -2.4157 -2.5740
  933SOL     MW 3732   2.075   2.822   2.242 -0.1536 -0.1606 -0.8910
  934SOL     OW 3733   1.986   2.675   2.472  0.3813  0.1941 -0.0888
  934SOL    HW1 3734   1.992   2.747   2.532  0.0951  0.2787  0.0130
  934SOL    HW2 3735   2.022   2.722   2.397  2.1423  3.2678  0.6200
  934SOL     MW 3736   1.991   2.691   2.470  0.5759  0.6108  0.0181
  935SOL     OW 3737   2.629   1.605   1.794 -0.6258  0.1816 -0.0807
  935SOL    HW1 3738   2.717   1.570   1.771 -1.3366  0.4578 -0.0266
  935SOL    HW2 3739   2.587   1.595   1.714  1.0626  1.7811  4.0633
  935SOL     MW 3740   2.635   1.599   1.781 -0.4968  0.4290  0.4732
  936SOL     OW 3741   2.958   2.242   3.059 -0.1555  0.2982 -0.7995
  936SOL    HW1 3742   3.037   2.294   3.090  0.6810 -2.5534 -1.3903
  936SOL    HW2 3743   2.878   2.274   3.102 -1.4506 -0.0420 -0.9097
  936SOL     MW 3744   2.958   2.253   3.069 -0.2160 -0.1230 -0.8920
  937SOL     OW 3745   1.984   2.201   2.624  0.0394 -0.8744  0.6142
  937SOL    HW1 3746   2.062   2.155   2.665 -0.6779  1.1077  2.8335
  937SOL    HW2 3747   1.992   2.210   2.528  0.5648 -0.5760 -0.9216
  937SOL     MW 3748   1.996   2.196   2.617  0.0141 -0.5735  0.7044
  938SOL     OW 3749   2.257   1.847   1.925  0.0814  0.2155  0.0309
  938SOL    HW1 3750   2.234   1.884   1.841 -1.1742  0.4366  0.0576
  938SOL    HW2 3751   2.240   1.906   1.993  1.7278 -1.9991 -1.4853
  938SOL     MW 3752   2.251   1.859   1.923  0.1330 -0.0475 -0.1656
  939SOL     OW 3753   2.808   1.993   2.269  0.0407 -0.7245 -0.0232
  939SOL    HW1 3754   2.819   1.920   2.211 -0.9401  2.1869 -1.1071
  939SOL    HW2 3755   2.709   2.004   2.275 -2.3978  0.3386 -0.3421
  939SOL     MW 3756   2.796   1.985   2.262 -0.4104 -0.2001 -0.2083
  940SOL     OW 3757   2.278   0.153   2.683 -0.2320 -0.7079 -0.3260
  940SOL    HW1 3758   2.258   0.060   2.667  2.0213  1.2433  0.4615
  940SOL    HW2 3759   2.319   0.155   2.773 -0.4017 -0.2176  1.1885
  940SOL     MW 3760   2.281   0.141   2.693  0.0429 -0.3858 -0.0223
  941SOL     OW 3761   0.161   2.373   2.077  0.9662  0.1281  0.2086
  941SOL    HW1 3762   0.208   2.296   2.089 -1.8173 -1.9279 -1.5600
  941SOL    HW2 3763   0.114   2.356   1.997 -1.1571  0.6788 -1.8661
  941SOL     MW 3764   0.161   2.361   2.068  0.3188 -0.0705 -0.2985
  942SOL     OW 3765   2.879   2.213   2.159  0.4825  0.1376  0.4134
  942SOL    HW1 3766   2.810   2.272   2.180 -0.0744 -2.0154  1.9296
  942SOL    HW2 3767   2.846   2.125   2.197 -0.9271  1.0422 -0.9428
  942SOL     MW 3768   2.866   2.209   2.167  0.2230 -0.0271  0.4345
  943SOL     OW 3769   0.239   2.009   2.324  0.3830 -0.7309 -0.5353
  943SOL    HW1 3770   0.189   2.088   2.361 -0.8430  2.0533  2.6557
  943SOL    HW2 3771   0.329   2.026   2.356  1.6449  0.3753 -2.1506
  943SOL     MW 3772   0.244   2.022   2.333  0.3877 -0.2176 -0.3274
  944SOL     OW 3773   2.122   2.666   2.019 -0.2974  0.1490 -0.1032
  944SOL    HW1 3774   2.198   2.634   2.067  0.4778  1.0125  0.6909
  944SOL    HW2 3775   2.081   2.711   2.093  1.9506 -1.0876 -0.3975
  944SOL     MW 3776   2.126   2.668   2.035  0.1015  0.0998 -0.0373
  945SOL     OW 3777   2.757   2.660   2.932  0.1968  0.8974 -0.7218
  945SOL    HW1 3778   2.705   2.604   2.873 -1.3160  0.6727 -1.2940
  945SOL    HW2 3779   2.825   2.684   2.869 -0.7978 -0.1319  0.3946
  945SOL     MW 3780   2.759   2.656   2.916 -0.1340  0.7320 -0.6500
  946SOL     OW 3781   2.556   2.720   2.289 -0.1137  0.3834 -0.0407
  946SOL    HW1 3782   2.585   2.773   2.213  2.5989  3.1374  0.2433
  946SOL    HW2 3783   2.500   2.664   2.242 -0.5645 -0.5115 -2.0505
  946SOL     MW 3784   2.552   2.719   2.273  0.1847  0.6287 -0.2684
  947SOL     OW 3785   2.049   0.051   0.368 -0.3103 -0.5452 -0.7325
  947SOL    HW1 3786   2.073  -0.038   0.341 -0.1330  1.9061 -1.0210
  947SOL    HW2 3787   2.106   0.071   0.440  1.6197  2.2833  3.2341
  947SOL     MW 3788   2.060   0.042   0.374 -0.0323  0.1514 -0.2472
  948SOL     OW 3789   1.846   3.097   2.651 -0.2453  0.5036 -0.1979
  948SOL    HW1 3790   1.888   3.009   2.643 -1.2441 -0.9196  0.9482
  948SOL    HW2 3791   1.840   3.138   2.568  0.7179 -0.0837  0.1377
  948SOL     MW 3792   1.851   3.091   2.639 -0.2500  0.2383 -0.0024
  949SOL     OW 3793   2.540   2.039   2.303  0.1499 -0.9215  0.4151
  949SOL    HW1 3794   2.519   1.945   2.327  0.4519  0.2349  1.3658
  949SOL    HW2 3795   2.486   2.100   2.351  1.6455  0.7044  0.1097
  949SOL     MW 3796   2.530   2.035   2.312  0.3871 -0.5544  0.5003
  950SOL     OW 3797   2.226   2.629   3.049 -0.6857  0.1006 -0.2582
  950SOL    HW1 3798   2.273   2.558   3.006 -2.7741 -0.9230 -0.5813
  950SOL    HW2 3799   2.148   2.656   2.997 -0.7650  1.0841  1.3906
  950SOL     MW 3800   2.222   2.623   3.036 -0.9717  0.0953 -0.0833
  951SOL     OW 3801   2.889   2.052   2.863 -0.0251 -0.0192  0.1219
  951SOL    HW1 3802   2.900   2.117   2.927  0.1292 -1.8339 -0.6119
  951SOL    HW2 3803   2.976   2.034   2.814  1.3486  2.1360  0.4961
  951SOL     MW 3804   2.902   2.058   2.865  0.1765  0.0257  0.0745
  952SOL     OW 3805   3.091   1.633   2.092 -0.0124 -0.1403  0.1544
  952SOL    HW1 3806   3.023   1.679   2.044  2.4289 -0.0618  1.1569
  952SOL    HW2 3807   3.157   1.705   2.104  0.4749 -0.8536 -0.7588
  952SOL     MW 3808   3.091   1.649   2.087  0.3740 -0.2240  0.1661
  953SOL     OW 3809   1.925   1.823   2.820  0.1516 -0.5505  0.6739
  953SOL    HW1 3810   1.829   1.807   2.851 -1.4198 -1.4258 -2.0215
  953SOL    HW2 3811   1.968   1.746   2.773  1.9378 -0.2168  0.9746
  953SOL     MW 3812   1.918   1.811   2.818  0.1799 -0.6219  0.3579
  954SOL     OW 3813   2.417   2.046   2.908 -0.2596  0.7583  0.1016
  954SOL    HW1 3814   2.340   2.041   2.851 -1.7863  0.2519  1.3125
  954SOL    HW2 3815   2.496   2.014   2.850  1.9345  0.8770 -0.1218
  954SOL     MW 3816   2.417   2.041   2.893 -0.1715  0.7071  0.2319
  955SOL     OW 3817   1.577   1.628   2.599 -0.3112  0.1949  0.1401
  955SOL    HW1 3818   1.538   1.601   2.517  2.4279  0.1872  0.5658
  955SOL    HW2 3819   1.649   1.679   2.574  1.9542  0.2125  0.0633
  955SOL     MW 3820   1.581   1.631   2.585  0.3491  0.1962  0.1861
  956SOL     OW 3821   2.620   2.423   2.862  0.0217 -0.2940  0.1709
  956SOL    HW1 3822   2.642   2.421   2.959 -0.5489 -0.9094 -2.3574
  956SOL    HW2 3823   2.688   2.376   2.813 -0.2405  0.4324 -0.3452
  956SOL     MW 3824   2.632   2.416   2.868 -0.0882 -0.2793 -0.2308
  957SOL     OW 3825   2.297   2.817   0.402  0.4437 -0.1073  0.4418
  957SOL    HW1 3826   2.208   2.820   0.372 -0.8568 -1.5301  1.7073
  957SOL    HW2 3827   2.294   2.811   0.500  1.4408 -2.1062 -2.4525
  957SOL     MW 3828   2.285   2.817   0.411  0.4037 -0.5587  0.2269
  958SOL     OW 3829   2.022   2.706   2.851 -0.4618 -0.2676 -0.0774
  958SOL    HW1 3830   2.007   2.628   2.794  0.5808 -1.7035 -1.0596
  958SOL    HW2 3831   1.940   2.733   2.881  0.3300  0.1275 -1.2865
  958SOL     MW 3832   2.010   2.699   2.848 -0.2198 -0.4049 -0.3665
  959SOL     OW 3833   2.408   2.571   0.352 -0.1809 -0.6801 -0.3778
  959SOL    HW1 3834   2.475   2.585   0.285 -0.2062  0.1142  1.4637
  959SOL    HW2 3835   2.369   2.655   0.371  1.5969 -0.7712 -1.9144
  959SOL     MW 3836   2.412   2.584   0.345  0.0503 -0.5873 -0.3376
  960SOL     OW 3837   1.956   2.440   2.304 -0.2613 -0.7939  0.3133
  960SOL    HW1 3838   1.964   2.347   2.291 -3.4770  1.2201  0.2815
  960SOL    HW2 3839   1.901   2.454   2.376  4.1075 -0.6977  0.1788
  960SOL     MW 3840   1.950   2.430   2.312 -0.1092 -0.5155  0.2913
  961SOL     OW 3841   2.240   2.411   2.317  0.2030 -0.5661  0.2765
  961SOL    HW1 3842   2.145   2.433   2.312  1.1045 -3.1713 -0.1586
  961SOL    HW2 3843   2.265   2.475   2.382 -3.5448 -2.3793 -0.7407
  961SOL     MW 3844   2.231   2.422   2.325 -0.1726 -1.1491  0.0849
  962SOL     OW 3845   2.179   2.060   2.787 -0.2645  0.6529  0.0701
  962SOL    HW1 3846   2.146   2.013   2.867 -2.3989  0.0681  1.0108
  962SOL    HW2 3847   2.201   1.983   2.726  0.7910 -1.8989 -1.7426
  962SOL     MW 3848   2.177   2.044   2.789 -0.4069  0.2391 -0.0450
  963SOL     OW 3849   1.740   2.533   2.161  0.5486  0.2037 -0.2956
  963SOL    HW1 3850   1.815   2.494   2.202 -2.7142  0.1502 -1.9399
  963SOL    HW2 3851   1.743   2.478   2.084 -0.4730  0.9914  0.8427
  963SOL     MW 3852   1.750   2.520   2.157 -0.0167  0.3006 -0.3624
  964SOL     OW 3853   1.805   1.990   2.639 -0.2120 -0.1913  0.2861
  964SOL    HW1 3854   1.870   2.064   2.632  1.2978 -0.6098 -2.2031
  964SOL    HW2 3855   1.855   1.932   2.701  2.1888  2.2023 -1.1329
  964SOL     MW 3856   1.820   1.992   2.646  0.3040  0.0693 -0.2296
  965SOL     OW 3857   2.181   2.701   0.631 -0.0271  0.5292 -0.0098
  965SOL    HW1 3858   2.157   2.608   0.611  1.5301 -1.3547 -0.3265
  965SOL    HW2 3859   2.224   2.689   0.717  0.9957 -0.8215  0.9067
  965SOL     MW 3860   2.184   2.687   0.639  0.3133  0.1024  0.0693
  966SOL     OW 3861   2.721   2.616   2.512 -0.3835  0.2844 -0.6171
  966SOL    HW1 3862   2.681   2.663   2.438 -1.0832  1.0415 -1.0933
  966SOL    HW2 3863   2.739   2.527   2.479 -0.0439  0.9659  0.8638
  966SOL     MW 3864   2.718   2.611   2.498 -0.4310  0.4742 -0.4845
  967SOL     OW 3865   2.879   3.024   2.907  0.5605 -0.3356 -0.0843
  967SOL    HW1 3866   2.847   2.949   2.960 -0.4589  0.5664  0.0876
  967SOL    HW2 3867   2.807   3.089   2.888  1.4898  0.8691 -1.4173
  967SOL     MW 3868   2.866   3.023   2.912  0.5486 -0.0577 -0.2375
  968SOL     OW 3869   3.010   2.539   3.006  0.3141 -0.0754  0.3679
  968SOL    HW1 3870   2.912   2.568   3.002  2.4728  1.2952  0.9774
  968SOL    HW2 3871   3.032   2.496   2.927 -1.0461  0.7924  2.4080
  968SOL     MW 3872   3.000   2.537   2.995  0.4195  0.2199  0.7175
  969SOL     OW 3873   1.545   2.111   1.714 -0.5829 -0.8709 -0.2373
  969SOL    HW1 3874   1.616   2.044   1.694 -2.0811  1.8727 -2.1176
  969SOL    HW2 3875   1.519   2.110   1.807 -0.0903 -0.6208  1.9228
  969SOL     MW 3876   1.551   2.102   1.724 -0.7156 -0.4759 -0.2004
  970SOL     OW 3877   1.677   1.706   1.851 -0.1663  0.1382  0.1499
  970SOL    HW1 3878   1.728   1.683   1.929 -0.1994  0.8208  0.9332
  970SOL    HW2 3879   1.584   1.717   1.869 -0.3355  1.7698 -0.4474
  970SOL     MW 3880   1.671   1.705   1.864 -0.1930  0.4436  0.1745
  971SOL     OW 3881   1.853   0.110   2.377 -0.1411  0.1471 -0.3679
  971SOL    HW1 3882   1.905   0.080   2.302 -0.6622 -0.8402  2.6597
  971SOL    HW2 3883   1.908   0.184   2.423  4.0582  0.0867  1.1714
  971SOL     MW 3884   1.867   0.116   2.373  0.3442  0.0089  0.2346
  972SOL     OW 3885   0.257   2.813   2.538  0.7883  0.1328  0.6525
  972SOL    HW1 3886   0.279   2.724   2.523 -1.0316 -1.6890 -1.2705
  972SOL    HW2 3887   0.341   2.859   2.538  0.7459 -0.5201 -0.6133
  972SOL     MW 3888   0.271   2.807   2.536  0.5426 -0.1937  0.2318
  973SOL     OW 3889   2.614   3.093   2.058  0.0398 -0.1769 -0.1654
  973SOL    HW1 3890   2.582   3.002   2.049  1.9798  1.8068 -1.5475
  973SOL    HW2 3891   2.611   3.124   1.970 -0.9935  1.2000  1.2405
  973SOL     MW 3892   2.609   3.085   2.045  0.1595  0.2665 -0.1623
  974SOL     OW 3893   2.070   0.343   2.725  0.1929  0.3266  0.3503
  974SOL    HW1 3894   2.145   0.291   2.701 -1.3384  0.2251 -1.5029
  974SOL    HW2 3895   2.027   0.280   2.789  3.0766  0.6968  0.7842
  974SOL     MW 3896   2.074   0.328   2.730  0.3713  0.3621  0.1630
  975SOL     OW 3897   2.291   2.599   2.552 -0.4428  0.2774  0.1149
  975SOL    HW1 3898   2.358   2.636   2.607  0.0385 -1.3311 -2.5763
  975SOL    HW2 3899   2.229   2.669   2.536 -0.3793 -0.3602 -0.5235
  975SOL     MW 3900   2.292   2.613   2.557 -0.3709 -0.0189 -0.3244
  976SOL     OW 3901   0.249   0.249   1.730 -0.5024  0.2754  0.5775
  976SOL    HW1 3902   0.297   0.176   1.760 -0.1307  3.9979  1.2130
  976SOL    HW2 3903   0.164   0.221   1.689 -1.5563 -0.2585 -1.9247
  976SOL     MW 3904   0.244   0.236   1.729 -0.5924  0.6961  0.3312
  977SOL     OW 3905   1.674   2.764   2.467 -0.2438 -0.0516 -0.3023
  977SOL    HW1 3906   1.720   2.678   2.492  1.5247 -0.2907 -0.7722
  977SOL    HW2 3907   1.728   2.827   2.419 -0.1614  0.8569  0.6791
  977SOL     MW 3908   1.687   2.761   2.464  0.0004  0.0367 -0.2348
   3.10000   3.10000   3.10000
