977 TIP4P/2005f water molecules t=   0.49000 step= 490
 3908
    1SOL     OW    1   0.273   0.795   0.037 -1.1791  0.2090 -0.3814
    1SOL    HW1    2   0.246   0.817  -0.049 -0.3395 -0.9808  0.9830
    1SOL    HW2    3   0.249   0.703   0.038 -1.0187  1.7889  0.6777
    1SOL     MW    4   0.266   0.786   0.026 -1.0472  0.2605 -0.0616
    2SOL     OW    5   0.269   3.057   1.173 -0.6558 -0.1552 -0.5920
    2SOL    HW1    6   0.340   3.109   1.130  3.5961 -2.1338  0.1752
    2SOL    HW2    7   0.191   3.119   1.167 -1.7923 -0.7083  0.7673
    2SOL     MW    8   0.268   3.072   1.166 -0.2448 -0.4892 -0.3114
    3SOL     OW    9   2.684   0.388   0.930  0.4317  0.0090 -0.0575
    3SOL    HW1   10   2.702   0.464   0.877  2.7724 -1.5180  2.9690
    3SOL    HW2   11   2.648   0.428   1.016  2.9184  2.0314 -1.8745
    3SOL     MW   12   2.681   0.403   0.935  1.0686  0.0743  0.1021
    4SOL     OW   13   3.036   1.752   0.592  0.5391  0.3732  0.2437
    4SOL    HW1   14   2.960   1.802   0.556 -1.7162 -0.3327  0.1760
    4SOL    HW2   15   3.093   1.701   0.535  2.0770 -0.1772 -0.4858
    4SOL     MW   16   3.033   1.752   0.580  0.4444  0.2075  0.1385
    5SOL     OW   17   1.749   1.507   0.594 -0.2340 -0.1295  0.0237
    5SOL    HW1   18   1.793   1.454   0.664 -1.9011 -0.9983 -1.6897
    5SOL    HW2   19   1.658   1.502   0.626 -0.8107  0.3341  2.6638
    5SOL     MW   20   1.743   1.500   0.607 -0.5301 -0.1830  0.1459
    6SOL     OW   21   0.863   1.380   0.688  0.0463  0.3084  0.2616
    6SOL    HW1   22   0.770   1.379   0.681  1.0950 -0.8423 -0.3300
    6SOL    HW2   23   0.892   1.291   0.684  1.6562  1.5151 -3.4727
    6SOL     MW   24   0.854   1.368   0.687  0.3971  0.3158 -0.3091
    7SOL     OW   25   1.988   1.080   0.052  0.3557  0.3251 -0.2909
    7SOL    HW1   26   2.023   1.165   0.035  0.6906 -1.1384  0.8763
    7SOL    HW2   27   2.001   1.072   0.149  0.3832 -1.3635  1.5214
    7SOL     MW   28   1.994   1.090   0.063  0.4035 -0.0908  0.1022
    8SOL     OW   29   0.965   1.352   1.015 -0.0757  0.2675  0.0918
    8SOL    HW1   30   1.003   1.291   0.955 -0.2096  1.3173 -3.6505
    8SOL    HW2   31   0.980   1.327   1.110 -2.2053 -1.1436  1.8860
    8SOL     MW   32   0.972   1.341   1.019 -0.3743  0.2198 -0.1652
    9SOL     OW   33   1.075   0.478   1.367  0.1642  0.3332  0.1518
    9SOL    HW1   34   1.012   0.428   1.317  1.2019 -0.7561  0.5990
    9SOL    HW2   35   1.083   0.428   1.448 -0.1190 -0.5861 -2.9496
    9SOL     MW   36   1.068   0.465   1.371  0.2637  0.0682 -0.1984
   10SOL     OW   37   0.271   0.771   0.453 -0.3733 -0.0841 -0.2932
   10SOL    HW1   38   0.365   0.788   0.424  2.7235  1.3455 -1.5002
   10SOL    HW2   39   0.263   0.829   0.533 -2.7707  0.9024  1.5104
   10SOL     MW   40   0.283   0.781   0.460 -0.2810  0.2346 -0.2145
   11SOL     OW   41   0.800   1.090   1.628  0.0893  0.2152  0.2492
   11SOL    HW1   42   0.777   1.075   1.716 -0.7643  0.5321 -1.2779
   11SOL    HW2   43   0.763   1.011   1.584  3.4936  1.8898  0.7909
   11SOL     MW   44   0.792   1.077   1.634  0.4258  0.4779  0.1192
   12SOL     OW   45   0.039   1.081   0.864 -0.0540 -0.2816  0.0296
   12SOL    HW1   46   0.080   1.132   0.930  1.7111 -1.3010 -3.2530
   12SOL    HW2   47  -0.043   1.118   0.829  1.4869 -0.8546 -3.4230
   12SOL     MW   48   0.034   1.093   0.868  0.3822 -0.4917 -0.8590
   13SOL     OW   49   1.884   1.402   1.321 -0.3611  0.4740 -0.1460
   13SOL    HW1   50   1.893   1.371   1.234 -1.5753 -0.7436  1.9893
   13SOL    HW2   51   1.875   1.503   1.315 -0.4179  1.7466 -1.7925
   13SOL     MW   52   1.884   1.411   1.309 -0.5288  0.4812 -0.0815
   14SOL     OW   53   0.594   0.307   1.796 -0.2848  0.0933  0.2081
   14SOL    HW1   54   0.594   0.239   1.723  0.2190  1.5407 -0.4940
   14SOL    HW2   55   0.678   0.293   1.843 -0.1985 -3.5772 -0.7786
   14SOL     MW   56   0.605   0.296   1.793 -0.2069 -0.2000 -0.0147
   15SOL     OW   57   1.979   0.508   0.955 -0.2724 -0.0483 -0.1025
   15SOL    HW1   58   1.977   0.510   1.053  1.6466  3.1044  2.7666
   15SOL    HW2   59   2.072   0.484   0.937 -0.4245  0.5698 -0.1059
   15SOL     MW   60   1.991   0.505   0.966 -0.0393  0.4492  0.2756
   16SOL     OW   61   0.210   1.767   0.334  0.3444  0.5950  0.2720
   16SOL    HW1   62   0.296   1.721   0.341  0.5156  0.1320 -2.7086
   16SOL    HW2   63   0.225   1.830   0.404  1.6361 -0.5062 -3.2547
   16SOL     MW   64   0.223   1.769   0.344  0.5374  0.3886 -0.5866
   17SOL     OW   65   1.012   0.818   1.496 -0.2670  0.4671 -0.4196
   17SOL    HW1   66   1.049   0.840   1.581 -1.0519 -0.8325 -1.5403
   17SOL    HW2   67   0.918   0.793   1.506 -0.3577 -1.4039  2.0184
   17SOL     MW   68   1.005   0.818   1.509 -0.3826  0.0488 -0.2458
   18SOL     OW   69   0.083   1.565   0.454  0.1604  0.3744 -0.1328
   18SOL    HW1   70   0.113   1.634   0.391  0.1570  0.0618 -0.2898
   18SOL    HW2   71   0.029   1.502   0.408 -0.7340  2.4021 -0.4162
   18SOL     MW   72   0.079   1.565   0.439  0.0419  0.6007 -0.1909
   19SOL     OW   73   0.084   1.319   0.981  0.0527 -0.6677  0.1344
   19SOL    HW1   74   0.145   1.362   0.920 -0.9648 -0.0752 -1.8565
   19SOL    HW2   75   0.006   1.371   0.980  2.3204 -0.5120  0.1304
   19SOL     MW   76   0.082   1.331   0.973  0.2176 -0.5690 -0.1288
   20SOL     OW   77   0.438   2.136   1.306 -0.3023 -0.0287 -0.3628
   20SOL    HW1   78   0.388   2.070   1.256 -0.1860  1.1381  2.4670
   20SOL    HW2   79   0.375   2.167   1.370  0.0587 -0.3160 -1.9666
   20SOL     MW   80   0.423   2.131   1.308 -0.2393  0.0873 -0.2011
   21SOL     OW   81   0.524   0.846   0.349 -0.1468 -0.2840  0.3935
   21SOL    HW1   82   0.590   0.806   0.401  1.0827 -0.1999  0.2727
   21SOL    HW2   83   0.550   0.828   0.257  1.1327 -1.0179  1.2887
   21SOL     MW   84   0.536   0.838   0.343  0.1842 -0.3698  0.4957
   22SOL     OW   85   1.563   0.581   1.102  0.0031  0.1332  0.3823
   22SOL    HW1   86   1.619   0.527   1.034 -1.7541  1.3493  0.5468
   22SOL    HW2   87   1.488   0.613   1.051  1.9857 -0.0774  0.2397
   22SOL     MW   88   1.561   0.578   1.086  0.0328  0.2659  0.3852
   23SOL     OW   89   3.074   0.749   0.702  0.0366 -0.0119  0.0034
   23SOL    HW1   90   3.132   0.674   0.713 -1.7418 -0.3883  1.0624
   23SOL    HW2   91   3.133   0.826   0.698  0.3754  2.3576 -0.4432
   23SOL     MW   92   3.089   0.749   0.703 -0.1533  0.2511  0.0842
   24SOL     OW   93   2.013   2.171   0.070 -0.1163  0.2160 -0.0324
   24SOL    HW1   94   2.036   2.160   0.164  0.3646 -2.6459 -0.2544
   24SOL    HW2   95   2.044   2.095   0.026 -2.2966  1.6181  0.1138
   24SOL     MW   96   2.020   2.159   0.077 -0.3405  0.0234 -0.0424
   25SOL     OW   97   0.325   1.431   0.520 -0.1416 -0.0547 -0.1124
   25SOL    HW1   98   0.259   1.504   0.507 -1.2221  2.5264 -0.6140
   25SOL    HW2   99   0.374   1.420   0.446 -3.7953 -1.3924  1.9626
   25SOL     MW  100   0.323   1.439   0.509 -0.7662  0.1094  0.0952
   26SOL     OW  101   2.052   0.904   0.473 -0.6608  0.0907 -0.3834
   26SOL    HW1  102   1.968   0.947   0.454  2.8146 -3.0946 -1.2532
   26SOL    HW2  103   2.105   0.904   0.391  0.6722 -0.3348 -0.0659
   26SOL     MW  104   2.048   0.910   0.460 -0.0264 -0.3857 -0.4563
   27SOL     OW  105   2.037   1.373   0.257  0.2117  0.2133  0.0839
   27SOL    HW1  106   1.942   1.367   0.281  0.0853  2.1084  1.3890
   27SOL    HW2  107   2.068   1.438   0.322 -0.2152 -0.6807  1.1454
   27SOL     MW  108   2.028   1.381   0.269  0.1387  0.3453  0.3961
   28SOL     OW  109   0.358   1.041   1.965 -0.7697  0.4990  0.3521
   28SOL    HW1  110   0.422   0.972   1.950  2.9243  3.2019  2.2808
   28SOL    HW2  111   0.279   1.017   2.005  0.0693 -1.2171 -1.5386
   28SOL     MW  112   0.356   1.029   1.968 -0.1716  0.6292  0.3571
   29SOL     OW  113   0.270   1.417   0.811 -0.0835  0.3371  0.1064
   29SOL    HW1  114   0.266   1.513   0.800 -0.2414 -0.4939 -0.6622
   29SOL    HW2  115   0.272   1.385   0.720 -0.7899 -1.9732  2.3867
   29SOL     MW  116   0.270   1.425   0.798 -0.1976 -0.0774  0.3058
   30SOL     OW  117   0.875   1.083   1.216  0.2108  0.7648 -0.0344
   30SOL    HW1  118   0.782   1.099   1.246 -1.4178 -0.7777  2.5779
   30SOL    HW2  119   0.927   1.108   1.294  1.0118  2.5112  1.2633
   30SOL     MW  120   0.870   1.089   1.230  0.1016  0.7917  0.4815
   31SOL     OW  121   0.400   0.252   0.206 -0.2696 -0.4159 -0.7889
   31SOL    HW1  122   0.393   0.172   0.269 -0.1504 -3.4142 -2.2696
   31SOL    HW2  123   0.385   0.213   0.121  1.1803  0.4566  0.8797
   31SOL     MW  124   0.397   0.236   0.203 -0.0626 -0.6964 -0.7641
   32SOL     OW  125   2.757   1.053   1.118  0.1765 -0.4320 -0.1305
   32SOL    HW1  126   2.722   0.971   1.081 -0.7310  1.4022  0.1423
   32SOL    HW2  127   2.848   1.027   1.133  0.6137  0.0845 -1.2334
   32SOL     MW  128   2.764   1.039   1.115  0.1144 -0.1218 -0.2400
   33SOL     OW  129   1.769   1.362   0.355  0.6978  0.2492 -0.5800
   33SOL    HW1  130   1.766   1.272   0.388  1.0718  1.4246  2.1115
   33SOL    HW2  131   1.768   1.410   0.436  1.2881  0.0546 -1.5047
   33SOL     MW  132   1.769   1.357   0.370  0.8251  0.3786 -0.3468
   34SOL     OW  133   1.209   1.890   1.097  0.6516  0.1396  0.4392
   34SOL    HW1  134   1.119   1.898   1.133 -1.8419  0.5540  0.9606
   34SOL    HW2  135   1.273   1.915   1.171 -1.6281 -0.3609 -1.5406
   34SOL     MW  136   1.206   1.894   1.112  0.0218  0.1283  0.2468
   35SOL     OW  137   0.315   0.126   1.814  0.3338  0.3091 -0.0254
   35SOL    HW1  138   0.374   0.132   1.885 -1.3889 -0.4357 -0.6718
   35SOL    HW2  139   0.342   0.044   1.763  1.5590  0.1689 -0.4319
   35SOL     MW  140   0.327   0.116   1.817  0.2681  0.1923 -0.1643
   36SOL     OW  141   1.862   1.949   0.514 -0.7114 -0.3503 -0.4401
   36SOL    HW1  142   1.887   1.938   0.416  1.9399 -0.1353 -1.3918
   36SOL    HW2  143   1.867   1.857   0.546  1.0453 -5.0047 -0.4212
   36SOL     MW  144   1.866   1.935   0.505 -0.1298 -0.9360 -0.5632
   37SOL     OW  145   1.748   2.067   1.006  0.1218 -0.0385  0.5898
   37SOL    HW1  146   1.708   1.995   0.959 -0.7665 -1.3872  1.7800
   37SOL    HW2  147   1.664   2.093   1.061 -1.3057 -1.8294  0.4489
   37SOL     MW  148   1.731   2.061   1.007 -0.1838 -0.4527  0.7282
   38SOL     OW  149   2.829   0.925   0.175  0.0942  0.0705 -0.1605
   38SOL    HW1  150   2.878   0.920   0.258  2.5026  2.2186  1.7835
   38SOL    HW2  151   2.887   0.873   0.122 -0.0160 -1.7009  2.3021
   38SOL     MW  152   2.843   0.917   0.179  0.3975  0.1202  0.4209
   39SOL     OW  153   1.436   0.623   0.801 -0.2681 -0.3548  0.0983
   39SOL    HW1  154   1.449   0.546   0.747 -0.5614  0.0757 -0.3847
   39SOL    HW2  155   1.342   0.635   0.809  0.1350  0.1598 -1.0032
   39SOL     MW  156   1.426   0.614   0.795 -0.2536 -0.2301 -0.1107
   40SOL     OW  157   1.247   1.883   0.254 -0.7196 -0.1847 -0.0249
   40SOL    HW1  158   1.257   1.789   0.278 -0.1102 -0.1927  0.0493
   40SOL    HW2  159   1.221   1.927   0.335  0.1372  0.7376 -0.3163
   40SOL     MW  160   1.245   1.877   0.268 -0.5261 -0.0641 -0.0535
   41SOL     OW  161   0.598   0.481   1.572  0.0569  0.0613  0.0949
   41SOL    HW1  162   0.685   0.516   1.564 -1.1568  2.6121  0.3903
   41SOL    HW2  163   0.600   0.433   1.652 -0.4974  1.6001 -0.9954
   41SOL     MW  164   0.609   0.479   1.582 -0.1764  0.6009 -0.0100
   42SOL     OW  165   1.293   3.009   1.988 -0.8017 -0.7166 -0.0785
   42SOL    HW1  166   1.219   3.006   2.048  1.1308  0.6310 -1.2095
   42SOL    HW2  167   1.347   2.939   2.023  1.4642  0.7850 -0.2547
   42SOL     MW  168   1.290   2.999   2.001 -0.2478 -0.3407 -0.2510
   43SOL     OW  169   1.531   0.176   1.712 -0.8486 -0.2156  0.3811
   43SOL    HW1  170   1.593   0.128   1.656  0.6809 -1.2508  0.8503
   43SOL    HW2  171   1.463   0.098   1.710 -0.9761 -5.1457  0.7926
   43SOL     MW  172   1.530   0.159   1.704 -0.6636 -1.0027  0.4973
   44SOL     OW  173   1.279   0.734   1.087 -0.7002 -0.0978  0.0448
   44SOL    HW1  174   1.299   0.826   1.059 -1.7182  2.5734  0.6780
   44SOL    HW2  175   1.269   0.730   1.183  1.0672 -3.0737  0.0297
   44SOL     MW  176   1.281   0.746   1.096 -0.6013 -0.1380  0.1263
   45SOL     OW  177   1.169   0.719   0.785 -0.7553  0.3661  0.3181
   45SOL    HW1  178   1.109   0.719   0.863  2.2611 -1.5826 -0.2533
   45SOL    HW2  179   1.111   0.690   0.708 -1.7569  1.5079  2.2511
   45SOL     MW  180   1.154   0.716   0.785 -0.4895  0.2597  0.4978
   46SOL     OW  181   0.563   1.157   0.522 -0.1503  0.0331  0.6521
   46SOL    HW1  182   0.532   1.168   0.427 -2.2274 -1.4996 -1.0798
   46SOL    HW2  183   0.657   1.128   0.513 -0.1675  1.3906  0.1162
   46SOL     MW  184   0.571   1.155   0.508 -0.4266  0.0100  0.3529
   47SOL     OW  185   0.196   1.910   1.813  0.5260 -0.2615 -0.7269
   47SOL    HW1  186   0.241   1.829   1.774  3.3575  0.7340  2.7191
   47SOL    HW2  187   0.207   1.902   1.913 -1.1377  2.0441  0.3661
   47SOL     MW  188   0.204   1.898   1.821  0.6801  0.1740 -0.1280
   48SOL     OW  189   1.029   0.612   1.022  0.3697 -0.0571  0.0050
   48SOL    HW1  190   0.951   0.650   1.066 -0.7818 -0.7732 -1.0842
   48SOL    HW2  191   1.104   0.660   1.058 -4.4856  2.1045 -0.5226
   48SOL     MW  192   1.028   0.623   1.033 -0.4228  0.1336 -0.2083
   49SOL     OW  193   1.808   0.771   1.569  0.0525 -0.4496 -0.3593
   49SOL    HW1  194   1.776   0.750   1.658 -0.5448  0.1248  2.5238
   49SOL    HW2  195   1.854   0.688   1.533  3.5017 -0.0823 -1.8760
   49SOL     MW  196   1.810   0.757   1.576  0.4288 -0.3254 -0.1790
   50SOL     OW  197   1.180   1.043   0.512 -0.4871  0.5518  0.2168
   50SOL    HW1  198   1.168   1.078   0.597 -1.4157 -1.2629 -0.4409
   50SOL    HW2  199   1.249   0.971   0.518  0.7490 -0.1903  0.9422
   50SOL     MW  200   1.187   1.038   0.524 -0.4466  0.2145  0.2258
   51SOL     OW  201   0.335   2.879   0.958  0.3375  0.0825 -0.1504
   51SOL    HW1  202   0.431   2.878   0.977 -0.2845  0.4932 -0.0076
   51SOL    HW2  203   0.291   2.914   1.038  1.3766 -0.6817  0.2684
   51SOL     MW  204   0.342   2.884   0.971  0.3926  0.0359 -0.0763
   52SOL     OW  205   0.791   1.774   0.384  0.0127  0.7180  0.1683
   52SOL    HW1  206   0.785   1.858   0.423  1.6399 -0.9038 -0.8880
   52SOL    HW2  207   0.766   1.795   0.293  1.7298 -1.2082 -1.6878
   52SOL     MW  208   0.787   1.788   0.377  0.4539  0.2499 -0.2160
   53SOL     OW  209   0.503   2.104   0.590  0.1893  1.0121  0.3133
   53SOL    HW1  210   0.423   2.086   0.530 -1.5003 -0.8326  0.6829
   53SOL    HW2  211   0.505   2.194   0.573  1.1583  3.1497  0.4871
   53SOL     MW  212   0.493   2.113   0.580  0.0942  1.0507  0.3850
   54SOL     OW  213   2.173   0.812   0.842  0.4070  0.2250  0.1606
   54SOL    HW1  214   2.210   0.753   0.777  1.0037  0.4397  0.7319
   54SOL    HW2  215   2.081   0.793   0.832  0.8290 -1.6675 -3.0793
   54SOL     MW  216   2.166   0.802   0.832  0.5414  0.0036 -0.1915
   55SOL     OW  217   0.548   1.493   1.573 -0.0865  0.0492  0.1615
   55SOL    HW1  218   0.496   1.530   1.499  0.4434  2.1734 -0.7116
   55SOL    HW2  219   0.607   1.432   1.533  1.8412 -0.8569 -0.1222
   55SOL     MW  220   0.549   1.490   1.558  0.2378  0.2099  0.0089
   56SOL     OW  221   0.550   0.788   0.087  0.1865 -0.3631  0.0561
   56SOL    HW1  222   0.575   0.869   0.038 -0.3147 -2.3913 -0.8414
   56SOL    HW2  223   0.461   0.779   0.066  3.1050 -0.5168 -0.4848
   56SOL     MW  224   0.542   0.798   0.077  0.5054 -0.6510 -0.1337
   57SOL     OW  225   1.261   1.228   1.222  0.0479  0.2238 -0.2191
   57SOL    HW1  226   1.345   1.230   1.170 -1.7821  0.5068 -1.2775
   57SOL    HW2  227   1.289   1.186   1.302 -4.7226 -1.8698 -2.3105
   57SOL     MW  228   1.276   1.223   1.225 -0.8230 -0.0150 -0.6347
   58SOL     OW  229   0.604   1.119   1.295 -1.0580  0.2960 -0.2817
   58SOL    HW1  230   0.577   1.206   1.266 -0.0412  1.6306 -1.9423
   58SOL    HW2  231   0.591   1.114   1.388  2.7948  1.9798 -1.3338
   58SOL     MW  232   0.599   1.130   1.303 -0.4155  0.6942 -0.6396
   59SOL     OW  233   1.588   1.622   0.367 -0.3018  0.0923  0.4215
   59SOL    HW1  234   1.671   1.626   0.420  2.4275  1.7376  0.3269
   59SOL    HW2  235   1.521   1.664   0.423 -1.3094 -1.1569  0.3199
   59SOL     MW  236   1.590   1.628   0.381 -0.0747  0.1445  0.3956
   60SOL     OW  237   0.026   0.219   1.689  0.8908 -0.0660  0.5750
   60SOL    HW1  238  -0.067   0.217   1.675  1.3744 -0.4973 -2.0996
   60SOL    HW2  239   0.044   0.145   1.744  0.2508 -2.8721 -0.7604
   60SOL     MW  240   0.016   0.209   1.694  0.8702 -0.4932  0.0459
   61SOL     OW  241   2.038   1.436   0.002  0.0253  0.2259  0.1451
   61SOL    HW1  242   2.046   1.423   0.102 -0.2874 -0.6019  0.7724
   61SOL    HW2  243   2.113   1.393  -0.034  0.1262 -2.7749  1.8652
   61SOL     MW  244   2.049   1.428   0.010 -0.0027 -0.2793  0.4548
   62SOL     OW  245   0.665   1.666   0.622  0.1280  0.2614 -0.2439
   62SOL    HW1  246   0.712   1.660   0.538 -2.2409  1.1120  4.2500
   62SOL    HW2  247   0.637   1.576   0.649  1.0760 -2.0968  0.8022
   62SOL     MW  248   0.668   1.654   0.614 -0.0595  0.0625  0.4870
   63SOL     OW  249   1.663   0.745   0.708 -0.0118 -0.0251  0.1681
   63SOL    HW1  250   1.643   0.789   0.624 -0.8625  0.8672  1.6237
   63SOL    HW2  251   1.579   0.722   0.748 -1.0183 -0.3737 -0.5540
   63SOL     MW  252   1.650   0.748   0.702 -0.2568  0.0466  0.2649
   64SOL     OW  253   0.260   1.693   0.768  0.0430  0.4442 -0.8721
   64SOL    HW1  254   0.338   1.740   0.788 -1.0493 -0.9666 -1.1921
   64SOL    HW2  255   0.184   1.758   0.765  0.9289 -0.9754  0.7255
   64SOL     MW  256   0.260   1.708   0.770  0.0158  0.0707 -0.7035
   65SOL     OW  257   1.559   2.313   0.358 -0.7989  0.1835  0.7833
   65SOL    HW1  258   1.652   2.305   0.364 -1.6297  0.3885  1.2409
   65SOL    HW2  259   1.524   2.359   0.433  1.9557 -0.4050 -2.9777
   65SOL     MW  260   1.567   2.318   0.369 -0.5451  0.1329  0.3474
   66SOL     OW  261   0.340   0.518   0.508 -0.4649 -0.6254  0.4378
   66SOL    HW1  262   0.423   0.509   0.460 -2.7136  2.9239  0.5694
   66SOL    HW2  263   0.291   0.599   0.479 -0.9741  1.2699  0.3039
   66SOL     MW  264   0.344   0.527   0.498 -0.8288  0.0930  0.4375
   67SOL     OW  265   1.468   0.105   2.038 -0.3053  0.2015  0.1550
   67SOL    HW1  266   1.515   0.103   1.953 -1.1252  0.3775  0.2905
   67SOL    HW2  267   1.404   0.034   2.027  1.7615  2.3025  1.6193
   67SOL     MW  268   1.465   0.095   2.025 -0.1408  0.5020  0.3661
   68SOL     OW  269   0.633   0.078   2.961  0.0116  0.2672  0.1693
   68SOL    HW1  270   0.653   0.098   2.865  1.0531  0.8162 -0.4620
   68SOL    HW2  271   0.649   0.168   2.999 -2.8113  0.5593  0.5452
   68SOL     MW  272   0.638   0.092   2.953 -0.2234  0.3782  0.1356
   69SOL     OW  273   1.007   0.209   1.951 -0.8310 -0.9055  0.0578
   69SOL    HW1  274   1.088   0.247   1.991 -1.2729  1.4845 -0.4579
   69SOL    HW2  275   1.006   0.120   1.985  2.1147  1.7561 -1.3985
   69SOL     MW  276   1.018   0.203   1.961 -0.5006 -0.2390 -0.2024
   70SOL     OW  277   0.571   1.789   1.122 -0.0278  0.0387  0.0503
   70SOL    HW1  278   0.593   1.703   1.167  1.5883  0.6601 -0.1044
   70SOL    HW2  279   0.644   1.793   1.069 -2.6780 -1.8168 -1.0191
   70SOL     MW  280   0.583   1.778   1.121 -0.1643 -0.1241 -0.1112
   71SOL     OW  281   1.719   0.620   1.319 -0.4207 -0.3986  0.0038
   71SOL    HW1  282   1.672   0.659   1.393 -0.0306 -0.1233  2.8422
   71SOL    HW2  283   1.646   0.618   1.250 -2.1597  1.2156  1.0643
   71SOL     MW  284   1.703   0.625   1.320 -0.5987 -0.1493  0.5182
   72SOL     OW  285   0.828   1.761   0.959 -0.4770 -0.1825  0.8379
   72SOL    HW1  286   0.796   1.816   0.877  1.3748  2.2841 -1.3476
   72SOL    HW2  287   0.782   1.674   0.951 -0.1490  0.4451 -0.1459
   72SOL     MW  288   0.818   1.757   0.947 -0.1894  0.2258  0.4198
   73SOL     OW  289   1.204   0.719   1.345 -0.0922 -0.1104 -0.0834
   73SOL    HW1  290   1.173   0.628   1.351 -1.7496  0.3310  1.5081
   73SOL    HW2  291   1.137   0.768   1.396  0.2571  0.6592  0.1880
   73SOL     MW  292   1.191   0.713   1.352 -0.2648  0.0494  0.1624
   74SOL     OW  293   2.879   0.187   1.003  0.2944  0.4152 -0.3211
   74SOL    HW1  294   2.905   0.109   0.949 -0.5203  1.1418 -2.7308
   74SOL    HW2  295   2.849   0.256   0.945  0.1709 -0.7810 -0.3408
   74SOL     MW  296   2.879   0.186   0.988  0.1706  0.3532 -0.6417
   75SOL     OW  297   1.601   1.339   0.125  0.5312  0.5177  0.3000
   75SOL    HW1  298   1.632   1.372   0.210 -4.0441  0.5913 -0.3494
   75SOL    HW2  299   1.658   1.260   0.101 -0.7174 -0.8483 -0.6594
   75SOL     MW  300   1.612   1.333   0.133 -0.2372  0.3471  0.0877
   76SOL     OW  301   3.000   0.642   0.462  0.3301 -0.3079 -0.4707
   76SOL    HW1  302   3.024   0.678   0.545  3.0742  0.2947 -3.0928
   76SOL    HW2  303   3.072   0.581   0.441  1.1096  1.1191 -0.5780
   76SOL     MW  304   3.013   0.639   0.470  0.7950 -0.0401 -0.8308
   77SOL     OW  305   0.830   0.497   0.443  0.0167  0.9966 -0.1709
   77SOL    HW1  306   0.744   0.518   0.403  0.5842 -0.2649 -1.4996
   77SOL    HW2  307   0.813   0.410   0.486 -0.5767  4.3123  1.9152
   77SOL     MW  308   0.816   0.488   0.443  0.0133  1.2676 -0.0710
   78SOL     OW  309   0.733   0.798   1.225 -0.2503  0.1287  0.2943
   78SOL    HW1  310   0.656   0.837   1.178  0.1895 -1.0408  1.0239
   78SOL    HW2  311   0.790   0.869   1.248  0.3698 -1.0764  0.7026
   78SOL     MW  312   0.731   0.813   1.222 -0.1105 -0.1846  0.4444
   79SOL     OW  313   1.917   1.698   0.609  0.4342  0.2736  0.1655
   79SOL    HW1  314   1.853   1.628   0.624 -3.1006  0.1709  1.8398
   79SOL    HW2  315   1.953   1.719   0.693 -3.8777 -0.0886 -0.1500
   79SOL     MW  316   1.913   1.691   0.622 -0.6011  0.2122  0.3448
   80SOL     OW  317   0.152   1.024   0.326 -0.1716  0.1027 -0.7492
   80SOL    HW1  318   0.059   0.994   0.334 -0.9641  0.1571 -1.2451
   80SOL    HW2  319   0.210   0.948   0.344  2.3322 -1.5962  0.9673
   80SOL     MW  320   0.147   1.010   0.330  0.0542 -0.1143 -0.5882
   81SOL     OW  321   1.900   1.921   0.208  0.1526  0.3450 -0.4728
   81SOL    HW1  322   1.855   1.840   0.183 -0.6542 -1.3722  1.3609
   81SOL    HW2  323   1.828   1.991   0.217  2.0173  2.0445 -2.7132
   81SOL     MW  324   1.885   1.920   0.206  0.2922  0.3427 -0.5264
   82SOL     OW  325   0.803   1.052   0.525  0.2561  0.1444  0.7306
   82SOL    HW1  326   0.819   1.092   0.445 -1.6959 -0.9437  0.5626
   82SOL    HW2  327   0.779   0.965   0.512  0.2927 -0.5544 -0.6275
   82SOL     MW  328   0.802   1.046   0.513  0.0034 -0.0914  0.5292
   83SOL     OW  329   0.195   0.605   1.318  0.5143 -0.4890 -0.3026
   83SOL    HW1  330   0.158   0.687   1.332 -1.3296 -2.2478 -2.2467
   83SOL    HW2  331   0.254   0.597   1.397  3.4888  0.9263 -0.2322
   83SOL     MW  332   0.198   0.615   1.330  0.6635 -0.5343 -0.5498
   84SOL     OW  333   0.075   0.221   0.905 -0.1013 -0.6279 -0.4123
   84SOL    HW1  334   0.002   0.273   0.860  0.0307  1.2426 -1.7452
   84SOL    HW2  335   0.035   0.171   0.978  0.6215 -1.9475  0.2223
   84SOL     MW  336   0.060   0.221   0.909  0.0115 -0.5552 -0.5044
   85SOL     OW  337   0.443   0.448   0.749  0.4517  0.4773  0.0227
   85SOL    HW1  338   0.389   0.471   0.668 -0.5828 -0.3169 -0.6828
   85SOL    HW2  339   0.401   0.363   0.754 -0.7955 -1.4600 -1.9222
   85SOL     MW  340   0.430   0.440   0.739  0.1507  0.1169 -0.3270
   86SOL     OW  341   1.234   0.398   1.061  0.2238 -0.6051 -0.6432
   86SOL    HW1  342   1.149   0.436   1.031 -0.8135  0.0601  0.8507
   86SOL    HW2  343   1.243   0.442   1.144  2.1338 -1.1438  0.9581
   86SOL     MW  344   1.224   0.409   1.068  0.3389 -0.5884 -0.2348
   87SOL     OW  345   1.189   1.491   1.214 -0.0378 -0.4579  0.2223
   87SOL    HW1  346   1.207   1.522   1.127 -1.6961 -1.2074  1.6329
   87SOL    HW2  347   1.209   1.397   1.215 -1.0876  1.6491  0.5385
   87SOL     MW  348   1.194   1.483   1.203 -0.3951 -0.2788  0.4501
   88SOL     OW  349   1.248   1.010   1.046 -0.3339  0.0725  0.2511
   88SOL    HW1  350   1.345   1.013   1.034 -0.7687 -0.3941  0.5183
   88SOL    HW2  351   1.220   1.088   1.098 -1.4424  0.4923  1.3623
   88SOL     MW  352   1.257   1.021   1.051 -0.5375  0.0663  0.4329
   89SOL     OW  353   1.771   0.665   0.334 -0.1437  0.1164 -0.3868
   89SOL    HW1  354   1.829   0.590   0.356  0.7837 -0.7611  3.9939
   89SOL    HW2  355   1.830   0.723   0.282  1.0578 -1.2948 -0.6889
   89SOL     MW  356   1.786   0.663   0.330  0.1372 -0.1856  0.1514
   90SOL     OW  357   0.694   1.191   2.796 -0.5820 -0.2856  0.6336
   90SOL    HW1  358   0.724   1.100   2.783 -0.0983  1.1563  1.1082
   90SOL    HW2  359   0.693   1.218   2.883  0.6237 -2.9289 -2.3105
   90SOL     MW  360   0.698   1.183   2.805 -0.3591 -0.4441  0.3078
   91SOL     OW  361   2.196   0.702   0.577  0.5446  0.2872 -0.7734
   91SOL    HW1  362   2.150   0.783   0.564  0.0787 -1.6587  2.3417
   91SOL    HW2  363   2.176   0.648   0.502 -1.7610 -0.7233 -0.6952
   91SOL     MW  364   2.188   0.706   0.565  0.1789 -0.1028 -0.3521
   92SOL     OW  365   1.640   0.864   0.445  0.0543 -0.1545 -0.1287
   92SOL    HW1  366   1.545   0.830   0.451  0.6977 -0.1868 -0.7516
   92SOL    HW2  367   1.696   0.789   0.416 -0.0713  1.0379 -0.7601
   92SOL     MW  368   1.635   0.850   0.442  0.1226 -0.0015 -0.2942
   93SOL     OW  369   1.045   0.313   0.345 -0.3508 -0.1408  0.3744
   93SOL    HW1  370   0.983   0.387   0.347 -0.8840  0.1810 -1.1942
   93SOL    HW2  371   1.082   0.313   0.256  1.1603  0.4176 -0.9280
   93SOL     MW  372   1.042   0.323   0.334 -0.2218 -0.0246 -0.0044
   94SOL     OW  373   1.925   1.344   1.584 -0.1523 -0.5227 -0.2938
   94SOL    HW1  374   1.903   1.359   1.492 -1.1161 -0.1724  0.4473
   94SOL    HW2  375   1.884   1.257   1.621 -2.7550  0.8069 -1.1170
   94SOL     MW  376   1.917   1.335   1.577 -0.6229 -0.3011 -0.3047
   95SOL     OW  377   0.724   1.511   0.937 -0.2870  0.1466  0.2855
   95SOL    HW1  378   0.803   1.455   0.954 -0.1183  1.0642  2.3300
   95SOL    HW2  379   0.664   1.471   1.001 -1.6041 -2.3235  0.7975
   95SOL     MW  380   0.727   1.498   0.947 -0.4385 -0.0582  0.6228
   96SOL     OW  381   1.212   1.806   1.591  0.0116  0.5228 -0.1414
   96SOL    HW1  382   1.124   1.786   1.577 -1.6467 -2.0230 -0.9486
   96SOL    HW2  383   1.252   1.742   1.538 -0.3779  0.7750  2.3749
   96SOL     MW  384   1.206   1.795   1.582 -0.2585  0.2202  0.0841
   97SOL     OW  385   1.202   1.423   0.765 -0.0355 -0.1145 -0.4407
   97SOL    HW1  386   1.224   1.490   0.833  0.5876  1.8138 -0.3220
   97SOL    HW2  387   1.106   1.438   0.764  2.4531  3.1337 -0.4786
   97SOL     MW  388   1.192   1.433   0.774  0.3751  0.5685 -0.4300
   98SOL     OW  389   1.497   1.295   1.065  0.3520 -0.1454 -0.3031
   98SOL    HW1  390   1.520   1.359   1.132 -2.7117 -1.3219  0.1050
   98SOL    HW2  391   1.509   1.353   0.993 -2.5214  0.5705  0.0870
   98SOL     MW  392   1.501   1.311   1.065 -0.4314 -0.2062 -0.1978
   99SOL     OW  393   1.474   0.361   1.298 -0.5668 -0.3773  0.1884
   99SOL    HW1  394   1.494   0.430   1.234 -0.1395 -0.2692 -2.2815
   99SOL    HW2  395   1.472   0.411   1.375 -3.2850  0.6414 -0.4086
   99SOL     MW  396   1.477   0.377   1.299 -0.8690 -0.2286 -0.2163
  100SOL     OW  397   1.003   1.096   1.467 -0.1456  0.1362  0.6324
  100SOL    HW1  398   0.922   1.105   1.523  1.1207  1.3413  2.1666
  100SOL    HW2  399   1.008   1.002   1.474  0.1028  1.3586  0.2841
  100SOL     MW  400   0.993   1.085   1.475  0.0542  0.4565  0.7889
  101SOL     OW  401   0.576   1.096   0.255 -0.0779 -0.5036 -0.1565
  101SOL    HW1  402   0.559   1.015   0.308  0.4149  0.3086 -0.7304
  101SOL    HW2  403   0.532   1.080   0.174 -1.5040  0.3700 -0.3828
  101SOL     MW  404   0.568   1.083   0.251 -0.2010 -0.2812 -0.2621
  102SOL     OW  405   2.955   0.646   0.986  0.7695  0.5866 -0.1580
  102SOL    HW1  406   3.032   0.674   0.948  1.5493 -0.6275  3.1803
  102SOL    HW2  407   2.986   0.607   1.066  2.5219  0.9788 -2.0991
  102SOL     MW  408   2.969   0.645   0.992  1.1036  0.4782  0.0263
  103SOL     OW  409   1.667   0.372   1.854  0.2505 -0.4890 -0.1949
  103SOL    HW1  410   1.621   0.314   1.803  0.2457  2.4475 -1.6005
  103SOL    HW2  411   1.730   0.317   1.896  0.8800  2.1604 -0.1563
  103SOL     MW  412   1.669   0.357   1.853  0.3329  0.2480 -0.3752
  104SOL     OW  413   0.156   1.837   1.440  0.2598 -0.2205  0.8077
  104SOL    HW1  414   0.229   1.820   1.494 -3.8581 -1.2872 -0.3385
  104SOL    HW2  415   0.135   1.754   1.394  1.9142 -3.8917  1.1810
  104SOL     MW  416   0.163   1.824   1.441 -0.0653 -0.8456  0.7057
  105SOL     OW  417   0.117   1.223   0.523 -0.4314  0.4528 -0.5984
  105SOL    HW1  418   0.144   1.155   0.453  1.3726  0.1429 -2.1690
  105SOL    HW2  419   0.183   1.292   0.508 -1.4515 -1.4761 -2.1718
  105SOL     MW  420   0.129   1.223   0.512 -0.3280  0.1574 -1.0133
  106SOL     OW  421   0.848   0.305   0.969 -0.2003  0.1628  0.8453
  106SOL    HW1  422   0.790   0.367   0.927  1.7380 -0.9350 -2.5301
  106SOL    HW2  423   0.930   0.320   0.920 -1.6898 -1.5888  0.5509
  106SOL     MW  424   0.851   0.315   0.957 -0.1411 -0.2131  0.3611
  107SOL     OW  425   0.823   2.167   2.966 -0.0690  0.5381  0.0267
  107SOL    HW1  426   0.779   2.095   2.918 -2.4221 -1.3698  3.5612
  107SOL    HW2  427   0.851   2.128   3.050 -2.5213 -4.6490 -1.2126
  107SOL     MW  428   0.821   2.152   2.971 -0.7030 -0.3980  0.3295
  108SOL     OW  429   1.335   1.614   1.425 -0.5518 -0.9264 -0.0825
  108SOL    HW1  430   1.275   1.563   1.364 -1.1183 -0.4765 -0.7439
  108SOL    HW2  431   1.353   1.572   1.512  0.3428  3.4877 -1.4223
  108SOL     MW  432   1.330   1.602   1.428 -0.5085 -0.2847 -0.3466
  109SOL     OW  433   1.980   0.780   0.169  0.6952  0.2459 -0.0444
  109SOL    HW1  434   2.020   0.766   0.081  1.5475  1.6700 -4.6246
  109SOL    HW2  435   2.053   0.781   0.230  0.4355  1.1057  0.7642
  109SOL     MW  436   1.995   0.778   0.166  0.7734  0.5472 -0.5420
  110SOL     OW  437   0.484   1.884   0.738 -0.4016  0.6469  0.8302
  110SOL    HW1  438   0.564   1.826   0.731  3.9599 -0.2843  0.0527
  110SOL    HW2  439   0.502   1.956   0.682  0.6018  0.5266  2.0338
  110SOL     MW  440   0.497   1.885   0.730  0.3063  0.5082  0.8864
  111SOL     OW  441   0.718   0.863   1.484  0.1105  0.6896  0.0066
  111SOL    HW1  442   0.718   0.811   1.405 -0.9682 -0.3279  0.2321
  111SOL    HW2  443   0.644   0.833   1.534  0.8564  0.0361  0.8001
  111SOL     MW  444   0.708   0.852   1.480  0.0666  0.4691  0.1410
  112SOL     OW  445   1.318   1.102   1.712 -0.1288 -0.4337 -0.1764
  112SOL    HW1  446   1.267   1.176   1.687  1.5414 -0.1325 -0.6647
  112SOL    HW2  447   1.255   1.030   1.706 -2.7726 -1.5681  1.7177
  112SOL     MW  448   1.303   1.102   1.708 -0.2572 -0.5436  0.0091
  113SOL     OW  449   1.329   3.098   1.735 -0.5556 -0.0856  0.0421
  113SOL    HW1  450   1.297   3.058   1.818 -2.7445  2.6471 -0.1353
  113SOL    HW2  451   1.317   3.031   1.662 -1.3842 -0.1739 -1.5149
  113SOL     MW  452   1.323   3.084   1.736 -0.9538  0.2633 -0.1867
  114SOL     OW  453   0.483   2.811   1.912 -0.4377  0.1460  0.5441
  114SOL    HW1  454   0.443   2.881   1.961 -0.0540  0.2022 -1.4163
  114SOL    HW2  455   0.465   2.850   1.822  1.3206 -0.5617 -0.9266
  114SOL     MW  456   0.475   2.826   1.907 -0.1551  0.0600  0.0914
  115SOL     OW  457   0.485   0.836   1.117  0.2861 -0.0029 -0.4707
  115SOL    HW1  458   0.485   0.744   1.140  2.1159 -1.7272  3.6876
  115SOL    HW2  459   0.438   0.875   1.189  0.7526 -1.9231 -1.4108
  115SOL     MW  460   0.479   0.829   1.130  0.5891 -0.4837 -0.0461
  116SOL     OW  461   0.781   1.057   0.969  0.0589 -0.2071  0.0697
  116SOL    HW1  462   0.857   1.082   0.914  2.9772 -1.1619 -0.3579
  116SOL    HW2  463   0.807   1.062   1.063 -1.1749 -1.7010  0.1734
  116SOL     MW  464   0.794   1.061   0.974  0.2811 -0.5301  0.0270
  117SOL     OW  465   1.225   1.126   0.763  0.0189  0.6662  0.1038
  117SOL    HW1  466   1.260   1.075   0.838 -2.9290 -0.8569 -1.1072
  117SOL    HW2  467   1.237   1.218   0.783 -0.8968 -1.2543 -1.0988
  117SOL     MW  468   1.231   1.132   0.775 -0.4909  0.2119 -0.2147
  118SOL     OW  469   3.073   2.958   1.696 -0.2253 -0.6433  0.6044
  118SOL    HW1  470   3.121   2.996   1.771 -0.8449  2.1469 -2.9213
  118SOL    HW2  471   2.988   2.990   1.705  2.8629  1.1979  1.4014
  118SOL     MW  472   3.068   2.967   1.707  0.1004 -0.0322  0.2444
  119SOL     OW  473   0.504   1.365   1.209 -0.8835  0.1731 -0.3150
  119SOL    HW1  474   0.494   1.357   1.117  0.8067  0.1227 -1.6314
  119SOL    HW2  475   0.420   1.351   1.247  0.8036  2.6046 -2.8733
  119SOL     MW  476   0.491   1.362   1.202 -0.4379  0.4872 -0.8262
  120SOL     OW  477   0.169   0.711   0.958 -0.2276 -0.2548  0.8918
  120SOL    HW1  478   0.204   0.647   1.019  0.2956  1.5818 -0.0866
  120SOL    HW2  479   0.217   0.791   0.976 -0.4236 -1.8979 -3.0833
  120SOL     MW  480   0.180   0.713   0.968 -0.1844 -0.2293  0.2382
  121SOL     OW  481   1.855   1.108   1.719  0.1325  0.2455 -0.4692
  121SOL    HW1  482   1.766   1.084   1.747 -1.2417  0.2422 -1.3059
  121SOL    HW2  483   1.881   1.053   1.645  0.5845  1.7337  1.0895
  121SOL     MW  484   1.847   1.097   1.713  0.0108  0.4414 -0.3739
  122SOL     OW  485   0.145   0.534   0.744  0.5540  0.6351 -0.0917
  122SOL    HW1  486   0.223   0.514   0.697 -0.3215 -0.0987 -0.1754
  122SOL    HW2  487   0.171   0.573   0.828  2.4875  0.1715 -0.5052
  122SOL     MW  488   0.159   0.537   0.749  0.6936  0.4771 -0.1573
  123SOL     OW  489   1.817   1.087   0.469  0.4757  0.2863  0.8665
  123SOL    HW1  490   1.741   1.023   0.463  1.1021 -2.5462  0.6120
  123SOL    HW2  491   1.835   1.088   0.568 -1.8241  1.7526  0.6262
  123SOL     MW  492   1.809   1.079   0.481  0.2549  0.1061  0.8012
  124SOL     OW  493   0.662   0.554   0.913 -0.1501  0.1826  0.4302
  124SOL    HW1  494   0.591   0.534   0.848 -2.0039  0.2909 -0.5772
  124SOL    HW2  495   0.686   0.643   0.898  1.6579  0.8650  0.6571
  124SOL     MW  496   0.656   0.563   0.903 -0.1562  0.2870  0.3272
  125SOL     OW  497   0.665   1.729   1.699 -0.4089  0.0837 -0.2036
  125SOL    HW1  498   0.615   1.666   1.642 -1.7886  0.5760 -0.3846
  125SOL    HW2  499   0.605   1.805   1.699 -0.3949  3.4470 -1.3120
  125SOL     MW  500   0.650   1.731   1.692 -0.5891  0.5924 -0.3737
  126SOL     OW  501   2.083   1.606   1.951 -0.2230  0.1197 -0.2748
  126SOL    HW1  502   2.154   1.670   1.963  0.7344  0.6888 -0.5867
  126SOL    HW2  503   2.128   1.531   1.987  0.8246 -1.3014  1.5011
  126SOL     MW  504   2.099   1.604   1.958  0.0416  0.0073 -0.0817
  127SOL     OW  505   0.616   0.753   1.873 -0.1385 -0.3205  0.2953
  127SOL    HW1  506   0.703   0.705   1.887  2.9147 -0.6093  0.4458
  127SOL    HW2  507   0.624   0.837   1.923 -0.2508 -1.6866  0.2140
  127SOL     MW  508   0.629   0.758   1.881  0.2495 -0.5388  0.3045
  128SOL     OW  509   1.846   0.789   2.884 -0.3031 -0.3690 -0.3962
  128SOL    HW1  510   1.852   0.751   2.796 -0.1079  2.4697 -0.6221
  128SOL    HW2  511   1.779   0.863   2.871 -1.2129 -0.0386 -0.1410
  128SOL     MW  512   1.838   0.794   2.871 -0.3974  0.0491 -0.3924
  129SOL     OW  513   1.542   0.982   0.179  0.4170  0.1038 -0.0073
  129SOL    HW1  514   1.479   0.920   0.170  1.8950  1.9671  2.2394
  129SOL    HW2  515   1.585   0.955   0.262  1.6192  0.3487 -0.0765
  129SOL     MW  516   1.539   0.970   0.189  0.7706  0.3819  0.2800
  130SOL     OW  517   0.738   1.416   0.403 -0.5301 -0.3710  0.3170
  130SOL    HW1  518   0.799   1.407   0.468  2.0555  1.4901 -2.2113
  130SOL    HW2  519   0.788   1.464   0.337  0.1325  0.2751 -1.8066
  130SOL     MW  520   0.752   1.421   0.403 -0.1015 -0.0402 -0.2967
  131SOL     OW  521   3.023   0.830   0.022 -0.5438  0.0996 -0.1665
  131SOL    HW1  522   3.016   0.879  -0.066  0.0616  0.5765 -2.9299
  131SOL    HW2  523   3.106   0.836   0.056  0.7121 -4.1365 -3.2682
  131SOL     MW  524   3.033   0.837   0.015 -0.2982 -0.3964 -0.9404
  132SOL     OW  525   2.777   0.145   1.248 -0.2313 -0.1285 -0.4029
  132SOL    HW1  526   2.823   0.161   1.165  0.2098 -0.1173 -0.5096
  132SOL    HW2  527   2.681   0.139   1.228 -0.4016 -1.5173 -0.2340
  132SOL     MW  528   2.770   0.146   1.234 -0.1955 -0.3103 -0.3947
  133SOL     OW  529   1.090   0.117   1.712  0.1802  0.0636  0.5146
  133SOL    HW1  530   1.173   0.068   1.718 -1.2901 -1.5494 -1.2107
  133SOL    HW2  531   1.074   0.161   1.797  2.8079  0.6109  0.6521
  133SOL     MW  532   1.099   0.116   1.724  0.3329 -0.0770  0.3051
  134SOL     OW  533   1.393   2.516   1.431  0.5278  0.1683  0.1608
  134SOL    HW1  534   1.338   2.587   1.406  0.9099  0.2762 -1.3173
  134SOL    HW2  535   1.435   2.551   1.512 -1.1682 -0.1540 -1.0904
  134SOL     MW  536   1.391   2.530   1.439  0.3544  0.1400 -0.1993
  135SOL     OW  537   3.023   0.997   2.905  0.8170  0.9215 -0.1524
  135SOL    HW1  538   3.092   1.063   2.908  1.4781 -0.5297  1.9762
  135SOL    HW2  539   2.946   1.049   2.917  2.1480 -2.4822 -3.9612
  135SOL     MW  540   3.022   1.012   2.907  1.0799  0.2810 -0.3741
  136SOL     OW  541   0.221   2.005   0.834  0.5988  0.7325 -0.1912
  136SOL    HW1  542   0.148   1.941   0.834  2.4654 -1.1814 -1.7213
  136SOL    HW2  543   0.288   1.949   0.806 -0.7669  1.9594  0.7890
  136SOL     MW  544   0.220   1.989   0.830  0.6649  0.6419 -0.2637
  137SOL     OW  545   0.765   2.022   0.506  0.1854  0.0820 -0.0200
  137SOL    HW1  546   0.767   1.996   0.596 -0.5849 -0.2557 -0.8515
  137SOL    HW2  547   0.674   2.055   0.500  0.4433 -0.4611  0.5563
  137SOL     MW  548   0.753   2.023   0.517  0.1178 -0.0342 -0.0537
  138SOL     OW  549   0.534   0.570   1.152 -0.0367 -0.2559  0.6103
  138SOL    HW1  550   0.449   0.524   1.130 -0.1075 -1.2993  1.6725
  138SOL    HW2  551   0.580   0.569   1.069 -3.1266  0.1480  1.4627
  138SOL     MW  552   0.529   0.564   1.138 -0.4537 -0.3403  0.8629
  139SOL     OW  553   2.680   0.521   1.385 -0.0532  0.0904  0.8233
  139SOL    HW1  554   2.764   0.493   1.344 -1.5194 -3.1460 -2.0993
  139SOL    HW2  555   2.699   0.615   1.408 -0.6813  3.5425 -0.4268
  139SOL     MW  556   2.694   0.530   1.382 -0.3296  0.1188  0.2727
  140SOL     OW  557   0.849   0.396   2.077  0.1783  0.2611 -0.3254
  140SOL    HW1  558   0.896   0.315   2.046 -0.6821  0.5973  0.9653
  140SOL    HW2  559   0.884   0.411   2.166  1.4687  0.6934 -0.2044
  140SOL     MW  560   0.860   0.387   2.085  0.2350  0.3625 -0.1391
  141SOL     OW  561   1.036   0.585   1.750  0.6745 -0.1529 -0.1451
  141SOL    HW1  562   1.070   0.498   1.726 -0.9531  1.9371  2.0925
  141SOL    HW2  563   1.106   0.644   1.737  1.6448  0.0274 -0.1488
  141SOL     MW  564   1.050   0.581   1.745  0.5878  0.1467  0.1497
  142SOL     OW  565   0.952   1.117   0.749 -0.3867 -0.6731  0.3442
  142SOL    HW1  566   0.912   1.064   0.672  0.5445 -3.0420 -1.3266
  142SOL    HW2  567   1.045   1.123   0.744 -0.4091 -1.4021  2.0789
  142SOL     MW  568   0.959   1.111   0.738 -0.2668 -1.0818  0.3527
  143SOL     OW  569   1.785   0.791   1.100 -0.0146 -0.2778  0.0149
  143SOL    HW1  570   1.840   0.748   1.033 -1.8452 -1.5683 -0.2378
  143SOL    HW2  571   1.766   0.728   1.175 -1.6414 -2.0527  0.6560
  143SOL     MW  572   1.790   0.777   1.101 -0.4708 -0.6823  0.0662
  144SOL     OW  573   0.230   1.211   1.536 -0.2850  0.9049  0.1445
  144SOL    HW1  574   0.317   1.182   1.569 -0.9975 -0.6347 -0.1019
  144SOL    HW2  575   0.189   1.251   1.611 -1.6761 -0.6624  1.0206
  144SOL     MW  576   0.236   1.212   1.550 -0.5625  0.4950  0.2276
  145SOL     OW  577   0.289   0.441   1.054  0.5465 -0.1712  0.9457
  145SOL    HW1  578   0.304   0.381   1.129 -1.6292  0.6576 -3.0175
  145SOL    HW2  579   0.311   0.391   0.977 -0.1499 -4.5073 -2.2731
  145SOL     MW  580   0.294   0.427   1.054  0.1676 -0.6339 -0.0019
  146SOL     OW  581   0.876   1.948   1.397 -0.7234  0.7219 -0.2990
  146SOL    HW1  582   0.894   1.940   1.299 -0.5675 -1.1372  0.1446
  146SOL    HW2  583   0.772   1.936   1.390 -4.1440  0.9785 -1.0519
  146SOL     MW  584   0.864   1.945   1.383 -1.1541  0.5105 -0.3398
  147SOL     OW  585   0.394   0.442   2.949 -0.4218 -0.4407  0.6265
  147SOL    HW1  586   0.346   0.467   3.028 -1.5649  1.7306  0.8759
  147SOL    HW2  587   0.357   0.501   2.887 -2.7503 -1.9457 -0.0549
  147SOL     MW  588   0.383   0.453   2.951 -0.8798 -0.3528  0.5695
  148SOL     OW  589   0.073   0.868   1.366  0.1038  0.1781  0.6469
  148SOL    HW1  590   0.156   0.924   1.362  1.5425  0.9227  0.6366
  148SOL    HW2  591   0.062   0.871   1.457 -0.5347 -1.0382 -0.9547
  148SOL     MW  592   0.082   0.876   1.377  0.2094  0.1159  0.4342
  149SOL     OW  593   1.391   1.145   1.464 -0.0699  0.3690 -0.1394
  149SOL    HW1  594   1.380   1.105   1.549  0.3984 -0.6598  0.6419
  149SOL    HW2  595   1.436   1.224   1.491 -0.5983 -2.0322  0.1740
  149SOL     MW  596   1.396   1.150   1.479 -0.0778 -0.0835  0.0050
  150SOL     OW  597   1.859   1.326   0.792  0.5454  0.8170 -0.4947
  150SOL    HW1  598   1.853   1.231   0.790 -0.3353  0.5527 -2.5914
  150SOL    HW2  599   1.944   1.345   0.828  0.6820 -1.1322 -1.5633
  150SOL     MW  600   1.869   1.316   0.797  0.4472  0.5249 -0.9123
  151SOL     OW  601   1.659   1.865   0.851 -0.0785  0.1097  0.0384
  151SOL    HW1  602   1.616   1.879   0.765  1.3544  4.5066 -0.0074
  151SOL    HW2  603   1.583   1.826   0.902  2.5715  1.8083  0.2518
  151SOL     MW  604   1.643   1.862   0.846  0.4602  0.9140  0.0605
  152SOL     OW  605   0.781   1.337   1.477  0.0693 -0.0486 -0.1133
  152SOL    HW1  606   0.807   1.253   1.503 -1.2310  2.8545 -3.1092
  152SOL    HW2  607   0.860   1.388   1.476  1.3156 -0.3936 -1.2727
  152SOL     MW  608   0.795   1.332   1.481  0.0622  0.2889 -0.6615
  153SOL     OW  609   2.615   1.273   0.741 -0.4199 -0.2646  0.2542
  153SOL    HW1  610   2.703   1.233   0.738  0.8278 -0.5550  0.4265
  153SOL    HW2  611   2.567   1.198   0.711  1.7616  1.4093 -0.0576
  153SOL     MW  612   2.620   1.258   0.736  0.0325 -0.0821  0.2358
  154SOL     OW  613   0.374   1.722   1.687  0.3549 -0.0251  0.5070
  154SOL    HW1  614   0.408   1.686   1.605 -0.5527 -0.7696 -2.2465
  154SOL    HW2  615   0.350   1.648   1.731 -0.4350  2.7145  0.2707
  154SOL     MW  616   0.375   1.708   1.682  0.1309  0.2381  0.1125
  155SOL     OW  617   1.097   0.651   0.297 -0.2171 -0.0721  0.0074
  155SOL    HW1  618   1.072   0.606   0.379  0.1626 -2.3001 -0.3091
  155SOL    HW2  619   1.065   0.748   0.302 -2.4771 -0.4594 -1.1106
  155SOL     MW  620   1.089   0.658   0.309 -0.4652 -0.4172 -0.1819
  156SOL     OW  621   1.512   3.008   1.050  0.5533  0.2728  0.1983
  156SOL    HW1  622   1.551   3.090   1.087  3.6973  0.5923  0.4659
  156SOL    HW2  623   1.522   2.941   1.114  1.3713 -0.2798  2.5389
  156SOL     MW  624   1.518   3.010   1.063  1.0761  0.2421  0.5424
  157SOL     OW  625   1.363   1.228   0.131  0.8758 -0.3993 -0.1312
  157SOL    HW1  626   1.379   1.133   0.136  1.0483  0.9150  2.0987
  157SOL    HW2  627   1.448   1.271   0.123 -0.9016  0.6402  1.0749
  157SOL     MW  628   1.376   1.221   0.130  0.6641 -0.0887  0.3221
  158SOL     OW  629   0.474   1.607   2.228  0.0900 -0.4915  0.0511
  158SOL    HW1  630   0.497   1.654   2.150 -2.5603  1.7553  0.2874
  158SOL    HW2  631   0.379   1.612   2.238  0.4480  1.7215  1.4515
  158SOL     MW  632   0.465   1.614   2.219 -0.2124  0.0969  0.2670
  159SOL     OW  633   1.327   1.688   0.459 -0.1378  0.2807  0.0808
  159SOL    HW1  634   1.301   1.600   0.437 -0.2812  3.2016  0.1959
  159SOL    HW2  635   1.242   1.735   0.484  0.4280 -0.5867  1.2502
  159SOL     MW  636   1.312   1.683   0.459 -0.0821  0.5517  0.2503
  160SOL     OW  637   0.473   1.125   1.563 -0.1976  0.4394  0.4310
  160SOL    HW1  638   0.483   1.039   1.612 -0.4012  0.6528 -1.7530
  160SOL    HW2  639   0.503   1.202   1.617 -0.3950  0.1762 -1.0628
  160SOL     MW  640   0.479   1.123   1.576 -0.2505  0.4328 -0.0543
  161SOL     OW  641   0.543   2.149   2.650 -0.0365  0.3668 -0.6521
  161SOL    HW1  642   0.458   2.121   2.686  0.7767 -1.0349 -0.0390
  161SOL    HW2  643   0.563   2.111   2.570 -1.5139  0.9819 -0.9360
  161SOL     MW  644   0.534   2.141   2.645 -0.1242  0.2630 -0.6087
  162SOL     OW  645   0.996   1.678   1.730  0.3003  0.4613  0.2356
  162SOL    HW1  646   1.050   1.763   1.750 -0.3815  1.3044 -1.4381
  162SOL    HW2  647   0.930   1.674   1.805 -2.4420 -0.6105  2.8038
  162SOL     MW  648   0.995   1.688   1.742 -0.1514  0.4312  0.3536
  163SOL     OW  649   2.118   0.137   0.977 -0.1325 -0.4246 -0.1305
  163SOL    HW1  650   2.108   0.134   0.878  2.6955 -2.2116  2.3486
  163SOL    HW2  651   2.059   0.072   1.015 -0.2456  0.0048  0.3343
  163SOL     MW  652   2.109   0.128   0.969  0.2257 -0.6037  0.2579
  164SOL     OW  653   0.287   0.219   0.728  0.3119 -0.2456  0.2975
  164SOL    HW1  654   0.215   0.219   0.793 -0.6046  0.7020  1.4228
  164SOL    HW2  655   0.282   0.133   0.682 -0.1700 -0.4318  0.2551
  164SOL     MW  656   0.277   0.207   0.731  0.1274 -0.1451  0.4404
  165SOL     OW  657   1.365   1.270   0.417 -0.1452  0.1048 -0.5125
  165SOL    HW1  658   1.308   1.194   0.445 -1.4211 -0.2936  5.2993
  165SOL    HW2  659   1.384   1.250   0.324 -0.7542 -0.5018  1.9046
  165SOL     MW  660   1.360   1.258   0.409 -0.3939 -0.0278  0.5732
  166SOL     OW  661   0.521   1.020   0.929  0.4457 -0.2989  0.2283
  166SOL    HW1  662   0.508   0.949   1.001 -2.1171  1.1777  2.1765
  166SOL    HW2  663   0.606   1.059   0.941 -0.8446 -0.5640 -1.1950
  166SOL     MW  664   0.531   1.016   0.940 -0.0626 -0.1391  0.2975
  167SOL     OW  665   0.846   1.174   0.264 -0.4773  0.1151 -0.8950
  167SOL    HW1  666   0.748   1.161   0.246 -0.9459 -0.8221 -1.7202
  167SOL    HW2  667   0.865   1.215   0.186  0.7685 -1.8168  1.8443
  167SOL     MW  668   0.835   1.178   0.252 -0.3747 -0.2634 -0.6424
  168SOL     OW  669   1.699   1.716   2.910 -0.6587 -0.5081  0.3123
  168SOL    HW1  670   1.609   1.715   2.885 -0.0170  0.7884  0.2993
  168SOL    HW2  671   1.710   1.633   2.944 -0.4922  0.4274 -0.1640
  168SOL     MW  672   1.689   1.705   2.911 -0.5520 -0.2136  0.2477
  169SOL     OW  673   0.348   0.963   1.320  0.2973  0.4997 -0.3013
  169SOL    HW1  674   0.405   0.958   1.394  0.4640 -1.5805 -1.6715
  169SOL    HW2  675   0.369   1.040   1.265  1.5258 -0.0787 -2.7340
  169SOL     MW  676   0.358   0.972   1.323  0.4814  0.1489 -0.8031
  170SOL     OW  677   1.056   1.466   1.501 -0.4031 -0.1004  0.0870
  170SOL    HW1  678   1.007   1.548   1.489  0.5002 -1.6564  0.4617
  170SOL    HW2  679   1.083   1.452   1.401 -0.0288 -1.2496  0.8773
  170SOL     MW  680   1.053   1.475   1.486 -0.2345 -0.4573  0.2407
  171SOL     OW  681   0.585   1.395   0.683 -0.5918  0.3019  0.2614
  171SOL    HW1  682   0.556   1.389   0.769  0.5786  2.5103 -0.7031
  171SOL    HW2  683   0.561   1.312   0.637 -2.4739  2.2375 -0.9905
  171SOL     MW  684   0.578   1.383   0.688 -0.6857  0.8487 -0.0311
  172SOL     OW  685   0.859   0.315   1.241  0.4049  0.1128  0.2781
  172SOL    HW1  686   0.837   0.317   1.142 -0.1272  0.0046  0.0605
  172SOL    HW2  687   0.769   0.328   1.283 -2.4413 -0.9277 -0.0733
  172SOL     MW  688   0.844   0.317   1.233 -0.0408 -0.0388  0.2030
  173SOL     OW  689   0.474   1.694   0.378 -0.1186 -0.3963  0.4595
  173SOL    HW1  690   0.478   1.595   0.364  2.5921 -4.0566 -0.4452
  173SOL    HW2  691   0.508   1.709   0.464 -0.9948 -1.6636  1.5651
  173SOL     MW  692   0.479   1.683   0.387  0.1235 -1.0465  0.4860
  174SOL     OW  693   1.989   0.914   1.441 -0.5978  0.3018  0.2651
  174SOL    HW1  694   1.936   0.844   1.493  1.0703 -1.0206  0.3708
  174SOL    HW2  695   1.928   0.956   1.382  0.2377 -1.2227  0.5166
  174SOL     MW  696   1.974   0.910   1.440 -0.2674 -0.0738  0.3122
  175SOL     OW  697   0.493   1.421   0.316  0.7193 -0.2410  0.4622
  175SOL    HW1  698   0.487   1.407   0.223 -0.9810 -1.1234  2.3072
  175SOL    HW2  699   0.581   1.420   0.345  0.6868 -0.7616 -0.8210
  175SOL     MW  700   0.504   1.419   0.307  0.4907 -0.4261  0.5363
  176SOL     OW  701   0.237   1.270   1.271  0.0236  0.2938  0.7042
  176SOL    HW1  702   0.153   1.242   1.235 -1.2979 -0.7677 -1.3115
  176SOL    HW2  703   0.231   1.240   1.368  1.1151  0.9776 -0.9752
  176SOL     MW  704   0.225   1.262   1.279 -0.0068  0.2440  0.2166
  177SOL     OW  705   0.587   0.336   1.331 -0.1894 -0.3160 -0.3311
  177SOL    HW1  706   0.585   0.415   1.280 -0.4163 -4.3208 -5.3186
  177SOL    HW2  707   0.596   0.366   1.422 -0.8365  2.0245 -4.0659
  177SOL     MW  708   0.588   0.351   1.336 -0.3047 -0.5356 -1.4819
  178SOL     OW  709   3.055   0.416   2.912 -0.2030 -0.5057  0.0968
  178SOL    HW1  710   3.032   0.468   2.995  2.3038 -0.3163 -0.3508
  178SOL    HW2  711   2.970   0.409   2.860 -1.2531 -0.1423  1.4572
  178SOL     MW  712   3.041   0.422   2.916 -0.0108 -0.4327  0.2172
  179SOL     OW  713   1.640   1.314   1.437 -0.2033  0.1187 -0.1364
  179SOL    HW1  714   1.635   1.343   1.532  0.8917  2.7111  1.4562
  179SOL    HW2  715   1.724   1.346   1.396  2.3269 -0.5694 -3.0517
  179SOL     MW  716   1.651   1.322   1.444  0.2750  0.3700 -0.3109
  180SOL     OW  717   2.997   0.182   0.438 -0.1967  0.0541 -0.2036
  180SOL    HW1  718   2.956   0.203   0.350 -0.1706 -1.8408 -0.2548
  180SOL    HW2  719   3.053   0.265   0.459  1.0644  1.0393  0.0974
  180SOL     MW  720   2.999   0.196   0.429 -0.0269 -0.0659 -0.1707
  181SOL     OW  721   1.154   1.450   3.012  0.0633  0.1873  0.5245
  181SOL    HW1  722   1.222   1.441   3.080 -0.7878  0.5080  0.5753
  181SOL    HW2  723   1.193   1.435   2.925  0.2314 -0.5206 -1.1581
  181SOL     MW  724   1.168   1.447   3.010 -0.0268  0.1362  0.3092
  182SOL     OW  725   0.474   0.850   1.662 -0.1217 -0.3247 -0.0923
  182SOL    HW1  726   0.386   0.819   1.688 -0.3994  3.2654  0.5915
  182SOL    HW2  727   0.531   0.815   1.734 -0.4694 -1.4478  0.3728
  182SOL     MW  728   0.470   0.841   1.675 -0.2042  0.0008  0.0593
  183SOL     OW  729   1.554   1.478   1.255 -0.1389 -0.0747 -0.6450
  183SOL    HW1  730   1.476   1.523   1.295 -2.6339 -1.2796 -2.3764
  183SOL    HW2  731   1.588   1.430   1.329 -0.6145 -0.1407  0.6870
  183SOL     MW  732   1.548   1.478   1.270 -0.5309 -0.2424 -0.6977
  184SOL     OW  733   0.858   0.636   1.938 -0.1779 -0.5975  0.4598
  184SOL    HW1  734   0.929   0.616   1.874  1.7178 -1.2676  2.1071
  184SOL    HW2  735   0.852   0.553   1.974  3.6908  0.3784 -1.7250
  184SOL     MW  736   0.867   0.622   1.934  0.5827 -0.5572  0.3889
  185SOL     OW  737   1.192   0.938   1.987  0.6929 -0.4184 -0.3914
  185SOL    HW1  738   1.207   0.859   2.037 -1.9766  1.1451  1.4180
  185SOL    HW2  739   1.245   1.004   2.019 -2.2341 -0.2575  0.8128
  185SOL     MW  740   1.201   0.936   1.998 -0.0455 -0.1909  0.0062
  186SOL     OW  741   0.416   1.654   1.411  0.3381 -0.2856 -0.1876
  186SOL    HW1  742   0.429   1.741   1.378 -3.4056  0.1367 -1.2839
  186SOL    HW2  743   0.353   1.617   1.355 -0.6959  0.1470  2.1594
  186SOL     MW  744   0.410   1.661   1.399 -0.2923 -0.1728 -0.0226
  187SOL     OW  745   1.473   0.739   1.477 -0.4957  0.5741 -0.0292
  187SOL    HW1  746   1.455   0.740   1.573  1.7816 -2.6643 -0.6901
  187SOL    HW2  747   1.384   0.719   1.444  0.9045 -1.2240 -0.0181
  187SOL     MW  748   1.459   0.737   1.485 -0.0105 -0.0904 -0.1149
  188SOL     OW  749   1.891   1.047   0.725 -0.4987  0.0700  0.3454
  188SOL    HW1  750   1.889   0.964   0.775  1.4705  1.2223 -2.1891
  188SOL    HW2  751   1.979   1.060   0.696  0.3501  1.0056  2.1652
  188SOL     MW  752   1.902   1.038   0.728 -0.1269  0.3455  0.2511
  189SOL     OW  753   0.685   0.834   0.803  0.3715  0.3081 -0.3593
  189SOL    HW1  754   0.618   0.875   0.743  0.2547  1.8943 -1.0727
  189SOL    HW2  755   0.711   0.897   0.869  1.1716 -0.8892  3.5421
  189SOL     MW  756   0.679   0.848   0.804  0.4616  0.3594  0.0614
  190SOL     OW  757   1.869   0.233   2.016  0.0815 -0.6757  0.2503
  190SOL    HW1  758   1.859   0.145   2.001  3.8284 -1.1152  1.4060
  190SOL    HW2  759   1.948   0.265   1.976  2.1027  1.0295  2.6102
  190SOL     MW  760   1.878   0.226   2.009  0.8425 -0.5087  0.7141
  191SOL     OW  761   1.517   0.981   1.308 -0.1378 -0.0231 -0.7405
  191SOL    HW1  762   1.472   1.053   1.357 -1.7041 -0.0603 -0.4770
  191SOL    HW2  763   1.505   0.901   1.359 -1.8724 -1.0178 -1.4136
  191SOL     MW  764   1.510   0.980   1.321 -0.5733 -0.1593 -0.7945
  192SOL     OW  765   0.689   1.991   2.837 -0.8934 -0.0995 -0.2053
  192SOL    HW1  766   0.658   2.037   2.757 -1.4082 -1.7710  2.9218
  192SOL    HW2  767   0.634   1.910   2.839  0.7204  0.0578  2.2084
  192SOL     MW  768   0.678   1.986   2.827 -0.7484 -0.2993  0.5258
  193SOL     OW  769   0.964   1.642   0.765  0.3101 -0.2725 -0.3378
  193SOL    HW1  770   0.914   1.693   0.824 -0.6132 -0.2826  0.9277
  193SOL    HW2  771   0.902   1.570   0.747 -0.7878  1.4804 -2.3955
  193SOL     MW  772   0.949   1.639   0.770  0.0434 -0.0425 -0.4424
  194SOL     OW  773   0.476   1.305   0.936  0.7249  0.2078  0.3879
  194SOL    HW1  774   0.473   1.212   0.920  2.5728  2.9754  2.1253
  194SOL    HW2  775   0.402   1.341   0.893 -0.1186 -1.9819  2.0746
  194SOL     MW  776   0.466   1.297   0.928  0.8574  0.2841  0.8396
  195SOL     OW  777   1.298   1.098   2.971 -0.0559 -0.1753 -0.6352
  195SOL    HW1  778   1.332   1.154   3.045  2.6086 -2.1540  3.0586
  195SOL    HW2  779   1.215   1.067   3.003  0.5540 -2.6194 -1.1609
  195SOL     MW  780   1.292   1.101   2.985  0.3761 -0.7588 -0.2172
  196SOL     OW  781   2.201   1.077   0.621  0.2237  0.1728 -0.1115
  196SOL    HW1  782   2.136   1.025   0.570 -2.2103  2.7651  1.5719
  196SOL    HW2  783   2.172   1.168   0.605  0.4285  0.8593 -1.1996
  196SOL     MW  784   2.188   1.082   0.612 -0.0704  0.6054 -0.0329
  197SOL     OW  785   0.619   1.256   2.029  0.5480 -0.2247  0.1629
  197SOL    HW1  786   0.590   1.163   2.043  0.9062  2.9686  0.2751
  197SOL    HW2  787   0.601   1.274   1.941 -0.1416 -0.7049  0.6116
  197SOL     MW  788   0.613   1.246   2.019  0.5043  0.1332  0.2369
  198SOL     OW  789   2.938   1.477   1.014 -0.0913 -0.1797  0.5242
  198SOL    HW1  790   2.936   1.577   1.003  0.9095  2.9090  0.8040
  198SOL    HW2  791   2.858   1.443   0.976  0.9562  1.6421  1.2083
  198SOL     MW  792   2.927   1.486   1.008  0.1790  0.4682  0.6514
  199SOL     OW  793   0.504   1.301   1.753  0.0063 -0.1712  0.4491
  199SOL    HW1  794   0.420   1.297   1.794  1.5628  1.7709  0.6504
  199SOL    HW2  795   0.507   1.395   1.716  0.4330  0.1228 -0.1024
  199SOL     MW  796   0.494   1.313   1.754  0.2680  0.1238  0.4029
  200SOL     OW  797   1.897   3.100   1.338  0.1875 -0.0933  0.2706
  200SOL    HW1  798   1.888   3.069   1.248 -3.3931 -0.9866  2.6432
  200SOL    HW2  799   1.806   3.117   1.362  2.2422  1.7364 -1.1460
  200SOL     MW  800   1.884   3.098   1.329 -0.0138  0.0302  0.3967
  201SOL     OW  801   1.077   0.289   0.811 -0.2757 -0.2801 -0.0380
  201SOL    HW1  802   1.074   0.197   0.797  0.9919 -0.5140 -1.6212
  201SOL    HW2  803   1.078   0.320   0.719 -0.5544 -1.2961 -4.8525
  201SOL     MW  804   1.077   0.281   0.797 -0.1453 -0.4450 -0.8821
  202SOL     OW  805   1.538   1.668   1.045  0.1026  0.1645  0.1209
  202SOL    HW1  806   1.579   1.613   0.973  0.7817  0.5770 -0.7854
  202SOL    HW2  807   1.557   1.615   1.124 -0.7170 -0.2646 -0.6695
  202SOL     MW  808   1.546   1.654   1.046  0.0841  0.1623 -0.1029
  203SOL     OW  809  -0.003   0.482   1.172 -0.1707 -0.0217 -0.4564
  203SOL    HW1  810   0.044   0.429   1.112 -0.6428 -0.3011  0.3319
  203SOL    HW2  811   0.069   0.530   1.223  1.0489 -1.3699 -0.4965
  203SOL     MW  812   0.013   0.481   1.171 -0.0721 -0.2365 -0.3577
  204SOL     OW  813   1.053   1.782   0.523 -0.1504  0.2505  0.1955
  204SOL    HW1  814   1.037   1.722   0.597 -1.8288  1.1181 -1.1217
  204SOL    HW2  815   0.971   1.797   0.479  0.5988  1.4260  0.7927
  204SOL     MW  816   1.040   1.776   0.527 -0.2730  0.5200  0.1005
  205SOL     OW  817   1.357   0.105   1.335  0.0330 -0.0474  0.1355
  205SOL    HW1  818   1.314   0.095   1.252 -0.9210 -4.6019  2.7073
  205SOL    HW2  819   1.401   0.189   1.341 -1.9900 -0.5240 -0.6715
  205SOL     MW  820   1.357   0.115   1.325 -0.3598 -0.7112  0.3683
  206SOL     OW  821   0.418   3.088   1.418 -0.2253 -0.0975 -0.0464
  206SOL    HW1  822   0.372   3.085   1.338  1.0686  1.0711  2.7917
  206SOL    HW2  823   0.494   3.036   1.388 -1.4106 -0.7344 -0.8591
  206SOL     MW  824   0.422   3.081   1.404 -0.2110 -0.0273  0.2208
  207SOL     OW  825   0.946   1.501   0.212  0.8150  0.0262 -0.4491
  207SOL    HW1  826   0.938   1.594   0.190 -2.0784 -0.7027  0.4010
  207SOL    HW2  827   1.023   1.499   0.266 -3.6664 -0.4794 -0.6714
  207SOL     MW  828   0.955   1.513   0.216 -0.1580 -0.1367 -0.3662
  208SOL     OW  829   0.695   1.590   1.264  0.0545 -0.3229  0.9150
  208SOL    HW1  830   0.753   1.596   1.342  1.1771  0.1963  4.0581
  208SOL    HW2  831   0.662   1.502   1.271  1.7931 -0.7835  0.2448
  208SOL     MW  832   0.698   1.579   1.275  0.4320 -0.3152  1.2413
  209SOL     OW  833   1.560   0.537   2.823  0.1987 -0.3488  0.3638
  209SOL    HW1  834   1.576   0.578   2.909  1.1845  2.0524 -0.8060
  209SOL    HW2  835   1.605   0.447   2.823 -0.3688  4.1677  0.4975
  209SOL     MW  836   1.568   0.530   2.834  0.2539  0.5639  0.2271
  210SOL     OW  837   1.614   1.452   0.881  0.5044 -0.4133  0.1293
  210SOL    HW1  838   1.701   1.415   0.874 -0.0439  0.7327 -0.2682
  210SOL    HW2  839   1.565   1.416   0.802 -2.9907  1.4297 -1.8406
  210SOL     MW  840   1.619   1.443   0.870 -0.0291 -0.0189 -0.1830
  211SOL     OW  841   1.717   0.430   0.930 -0.5636 -1.0452 -0.1724
  211SOL    HW1  842   1.688   0.442   0.840  0.9331 -2.6804  2.1871
  211SOL    HW2  843   1.811   0.436   0.926  1.0914 -0.3097  1.7491
  211SOL     MW  844   1.725   0.433   0.918 -0.1477 -1.1639  0.3924
  212SOL     OW  845   0.234   1.136   0.088  0.0972  0.0346  0.2143
  212SOL    HW1  846   0.206   1.122   0.181 -1.3040 -0.9833 -1.1183
  212SOL    HW2  847   0.305   1.074   0.074 -0.6742  0.0248  0.0008
  212SOL     MW  848   0.239   1.126   0.099 -0.1895 -0.1010  0.0103
  213SOL     OW  849   0.402   1.753   3.051  0.2915  0.5563 -0.6041
  213SOL    HW1  850   0.458   1.806   3.104  0.5125 -0.9626  0.2731
  213SOL    HW2  851   0.424   1.773   2.961  0.2028  0.5736 -1.5082
  213SOL     MW  852   0.412   1.762   3.046  0.3089  0.3582 -0.6077
  214SOL     OW  853   0.634   0.272   2.245 -0.3455  0.1990 -0.1101
  214SOL    HW1  854   0.548   0.319   2.244 -2.4073  2.5498 -0.4849
  214SOL    HW2  855   0.688   0.321   2.190 -3.1516  1.6597 -0.3625
  214SOL     MW  856   0.630   0.285   2.238 -0.9878  0.7019 -0.1929
  215SOL     OW  857   0.466   0.707   2.607  0.1910 -0.4215 -0.0270
  215SOL    HW1  858   0.470   0.678   2.513 -4.9909 -0.6605 -0.6583
  215SOL    HW2  859   0.392   0.662   2.658 -0.7775 -1.4087  1.5438
  215SOL     MW  860   0.457   0.697   2.601 -0.6205 -0.5833  0.0970
  216SOL     OW  861   3.049   3.039   2.678 -0.8855  0.1561 -0.0980
  216SOL    HW1  862   3.013   3.013   2.765  1.5651  1.5589 -0.2897
  216SOL    HW2  863   3.026   3.130   2.651  2.4292 -1.2748 -4.7707
  216SOL     MW  864   3.041   3.048   2.686 -0.1249  0.1524 -0.7398
  217SOL     OW  865   0.965   1.271   0.023 -0.0292  0.2947  0.1747
  217SOL    HW1  866   1.031   1.203   0.022 -1.5214  0.1328  1.5014
  217SOL    HW2  867   1.016   1.345   0.039 -0.0637 -2.3189 -1.2987
  217SOL     MW  868   0.981   1.272   0.025 -0.2306 -0.0715  0.1553
  218SOL     OW  869   0.918   1.313   2.547 -0.5546  0.5246 -0.4672
  218SOL    HW1  870   0.927   1.231   2.599 -0.1274  2.8062 -0.2849
  218SOL    HW2  871   0.984   1.373   2.567 -2.7726 -0.5421  1.3774
  218SOL     MW  872   0.928   1.310   2.556 -0.7909  0.6849 -0.1998
  219SOL     OW  873   1.052   0.459   2.519  0.0396  0.2054 -0.1392
  219SOL    HW1  874   1.137   0.490   2.553  0.1895 -0.6878  4.1545
  219SOL    HW2  875   0.997   0.541   2.523  1.2877  1.3241 -1.0754
  219SOL     MW  876   1.056   0.474   2.524  0.2241  0.2351  0.3038
  220SOL     OW  877   1.795   0.440   2.182  0.3829 -0.0880  0.1475
  220SOL    HW1  878   1.734   0.508   2.148  1.2895 -0.1892  2.7975
  220SOL    HW2  879   1.814   0.370   2.121 -1.7558 -1.2204  2.1219
  220SOL     MW  880   1.790   0.440   2.169  0.2203 -0.2508  0.7576
  221SOL     OW  881   0.369   1.327   2.897 -0.5426  0.1630 -0.4151
  221SOL    HW1  882   0.408   1.243   2.878 -1.1564 -0.7017  1.5116
  221SOL    HW2  883   0.358   1.385   2.827 -0.3219 -0.2560  0.2315
  221SOL     MW  884   0.372   1.324   2.885 -0.5945 -0.0063 -0.0756
  222SOL     OW  885   0.278   0.914   2.622 -0.0214 -0.4288 -0.4635
  222SOL    HW1  886   0.263   0.962   2.536 -1.1067  3.8434 -1.9745
  222SOL    HW2  887   0.352   0.855   2.603 -1.3999  1.0507 -1.7179
  222SOL     MW  888   0.286   0.912   2.608 -0.3465  0.3301 -0.8284
  223SOL     OW  889   0.030   2.045   2.606  0.0087  0.9267  0.1982
  223SOL    HW1  890   0.097   1.987   2.635  0.0185 -4.7412  0.5614
  223SOL    HW2  891   0.069   2.081   2.525  3.2369  1.5130 -1.1693
  223SOL     MW  892   0.044   2.042   2.599  0.4359  0.2562  0.0657
  224SOL     OW  893   1.473   0.812   2.584  0.2830 -0.4685  0.3681
  224SOL    HW1  894   1.439   0.840   2.666 -1.5443 -1.1702 -2.5155
  224SOL    HW2  895   1.505   0.894   2.554  0.1631  0.5960 -1.9813
  224SOL     MW  896   1.472   0.827   2.591  0.0261 -0.4206 -0.3224
  225SOL     OW  897   2.980   1.511   2.283 -0.5153  0.5184  0.8197
  225SOL    HW1  898   2.989   1.564   2.204 -0.1587 -2.8864 -0.8432
  225SOL    HW2  899   2.918   1.551   2.345 -0.7719  1.7299  0.8948
  225SOL     MW  900   2.973   1.523   2.280 -0.5021  0.2290  0.6102
  226SOL     OW  901   0.401   1.435   2.606 -0.0431 -0.3645  0.0154
  226SOL    HW1  902   0.496   1.417   2.623  0.1004 -2.6609 -1.7706
  226SOL    HW2  903   0.396   1.534   2.601 -0.2865 -0.6795 -0.3346
  226SOL     MW  904   0.413   1.446   2.608 -0.0563 -0.7090 -0.2664
  227SOL     OW  905   0.440   1.059   2.808  0.2742 -0.2748 -0.3279
  227SOL    HW1  906   0.519   1.094   2.774 -0.9047  1.7458 -1.5327
  227SOL    HW2  907   0.397   0.997   2.743  1.4796  2.7062 -1.3563
  227SOL     MW  908   0.445   1.056   2.795  0.2777  0.3851 -0.6225
  228SOL     OW  909   0.647   0.996   1.997 -0.3338  0.8245  0.0276
  228SOL    HW1  910   0.725   1.052   1.973  1.1527  0.7263 -0.3852
  228SOL    HW2  911   0.670   0.970   2.093  1.6874 -2.0528 -0.1669
  228SOL     MW  912   0.660   1.000   2.006  0.1290  0.4319 -0.0525
  229SOL     OW  913   0.183   0.540   3.092  0.3170  0.5641 -0.3501
  229SOL    HW1  914   0.133   0.502   3.018 -1.5679  0.8695 -0.7926
  229SOL    HW2  915   0.174   0.476   3.165  0.3920  3.4457 -2.4152
  229SOL     MW  916   0.175   0.526   3.092  0.0782  0.9846 -0.6809
  230SOL     OW  917   1.767   1.380   2.030 -0.3961  0.4375 -0.2821
  230SOL    HW1  918   1.726   1.382   2.119 -0.3925  2.7117  0.8376
  230SOL    HW2  919   1.834   1.312   2.014  2.5645  2.0297  0.4056
  230SOL     MW  920   1.770   1.371   2.039 -0.0050  0.9476 -0.0436
  231SOL     OW  921   2.774   1.326   2.203  0.4055  0.7854  0.2678
  231SOL    HW1  922   2.835   1.402   2.204  1.7337 -2.7074  2.1190
  231SOL    HW2  923   2.700   1.342   2.141 -0.8781 -1.8497  0.3897
  231SOL     MW  924   2.772   1.338   2.195  0.4114 -0.0231  0.5282
  232SOL     OW  925   2.278   0.866   2.140  0.0907  0.1217  0.3075
  232SOL    HW1  926   2.227   0.899   2.062  1.5867  0.7908 -0.5513
  232SOL    HW2  927   2.233   0.875   2.223  1.5082  0.2734 -1.1781
  232SOL     MW  928   2.266   0.872   2.140  0.4751  0.2300 -0.0018
  233SOL     OW  929   2.045   0.518   1.952 -0.0459  0.3896  0.3192
  233SOL    HW1  930   2.088   0.561   1.884 -0.9284 -1.4969 -1.2070
  233SOL    HW2  931   2.116   0.523   2.016  1.0584 -5.3760  0.8211
  233SOL     MW  932   2.060   0.524   1.952 -0.0167 -0.6200  0.1840
  234SOL     OW  933   0.275   1.006   2.378  0.4018 -0.6323  0.9702
  234SOL    HW1  934   0.200   1.061   2.348  1.9380  0.4063  1.5922
  234SOL    HW2  935   0.350   1.067   2.383  1.9014  0.1764  0.9174
  234SOL     MW  936   0.275   1.022   2.375  0.8023 -0.3886  1.0453
  235SOL     OW  937   1.084   3.064   2.740  0.2238  0.5102  0.1216
  235SOL    HW1  938   1.131   3.017   2.809 -0.9192 -0.9433  0.2776
  235SOL    HW2  939   1.061   3.148   2.780 -0.5463 -2.3436 -0.4524
  235SOL     MW  940   1.087   3.069   2.754 -0.0286 -0.0581  0.0664
  236SOL     OW  941   2.954   0.544   0.016  0.5360 -0.1718 -0.1866
  236SOL    HW1  942   2.858   0.534  -0.006  0.9847 -0.0052  0.0743
  236SOL    HW2  943   2.984   0.638   0.011 -1.6572  1.6654  2.8667
  236SOL     MW  944   2.945   0.555   0.012  0.3058  0.0926  0.2507
  237SOL     OW  945   1.801   0.964   2.155  0.5002  0.1062 -0.0638
  237SOL    HW1  946   1.846   1.038   2.113  1.8664  2.9572  2.8770
  237SOL    HW2  947   1.834   0.955   2.244  0.6497  2.7840  2.8102
  237SOL     MW  948   1.811   0.973   2.161  0.7002  0.8357  0.7034
  238SOL     OW  949   1.064   1.767   2.970 -0.1418  0.5564  0.0780
  238SOL    HW1  950   1.016   1.684   2.989  0.1498  1.5686 -0.0750
  238SOL    HW2  951   1.159   1.746   2.978 -0.7187 -0.6361  0.2950
  238SOL     MW  952   1.070   1.753   2.974 -0.1794  0.5326  0.0865
  239SOL     OW  953   1.198   1.438   2.342  0.2673 -0.2482  0.4807
  239SOL    HW1  954   1.190   1.440   2.435  1.1626 -0.7260  0.2019
  239SOL    HW2  955   1.238   1.351   2.335  2.0211  1.6223  3.5947
  239SOL     MW  956   1.202   1.427   2.353  0.6168 -0.0644  0.8548
  240SOL     OW  957   0.677   0.896   2.260  0.6794 -0.3783 -0.8679
  240SOL    HW1  958   0.670   0.946   2.346 -0.7785 -1.5128  2.4725
  240SOL    HW2  959   0.776   0.888   2.246  4.0852  2.1805 -0.8434
  240SOL     MW  960   0.689   0.902   2.270  0.9364 -0.1904 -0.4240
  241SOL     OW  961   0.617   0.339   3.047  0.1483  0.1368  0.4614
  241SOL    HW1  962   0.646   0.396   3.122  1.0672  0.4402  3.0717
  241SOL    HW2  963   0.539   0.379   3.001  1.7008  0.6293 -2.0925
  241SOL     MW  964   0.610   0.352   3.051  0.4744  0.2418  0.4688
  242SOL     OW  965   1.515   1.757   2.269  0.5640 -0.3832 -0.3065
  242SOL    HW1  966   1.451   1.810   2.311  0.1703 -2.6346 -1.9628
  242SOL    HW2  967   1.469   1.730   2.193  1.4133 -0.8359  0.1796
  242SOL     MW  968   1.501   1.760   2.264  0.6241 -0.7400 -0.4609
  243SOL     OW  969   0.958   0.217   2.361  0.5867  0.4407  0.7589
  243SOL    HW1  970   1.047   0.172   2.346  0.5142 -2.2595 -0.1600
  243SOL    HW2  971   0.995   0.296   2.400  0.3657 -1.9766 -0.6661
  243SOL     MW  972   0.975   0.222   2.364  0.5480 -0.2345  0.4496
  244SOL     OW  973   0.222   0.704   2.344  0.2350  0.0563  0.5132
  244SOL    HW1  974   0.216   0.800   2.357  0.1188  3.2234  0.3954
  244SOL    HW2  975   0.305   0.687   2.310 -1.4537 -0.3885  0.1076
  244SOL     MW  976   0.232   0.714   2.341 -0.0031  0.4155  0.4441
  245SOL     OW  977   1.254   0.233   2.347  0.2607 -0.1654 -0.3272
  245SOL    HW1  978   1.321   0.166   2.362  2.2365  0.0761  0.2772
  245SOL    HW2  979   1.289   0.314   2.376  0.0567 -0.2122 -0.0373
  245SOL     MW  980   1.268   0.235   2.353  0.4945 -0.1397 -0.2092
  246SOL     OW  981   1.268   1.183   2.104 -0.2163  0.5596  0.7458
  246SOL    HW1  982   1.189   1.149   2.148 -0.1471 -2.2265 -0.4136
  246SOL    HW2  983   1.342   1.156   2.162 -3.7639  0.7935 -0.3768
  246SOL     MW  984   1.268   1.175   2.118 -0.6752  0.2229  0.4447
  247SOL     OW  985   0.701   0.522   0.125  0.3872  0.5276 -0.3990
  247SOL    HW1  986   0.651   0.598   0.155  3.2557  2.3907 -0.8235
  247SOL    HW2  987   0.793   0.543   0.103  0.3167  0.1553 -0.2964
  247SOL     MW  988   0.707   0.535   0.126  0.7563  0.7243 -0.4415
  248SOL     OW  989   0.472   1.210   2.452  0.3323 -0.0843 -0.1524
  248SOL    HW1  990   0.485   1.257   2.363  0.7972  2.7930 -1.4921
  248SOL    HW2  991   0.469   1.283   2.509  2.8500  1.2307  0.3649
  248SOL     MW  992   0.473   1.226   2.448  0.7258  0.4689 -0.2609
  249SOL     OW  993   0.200   1.838   2.692  0.3047 -0.8745 -0.6058
  249SOL    HW1  994   0.138   1.771   2.670 -0.2910 -0.1271  0.4789
  249SOL    HW2  995   0.199   1.826   2.786  0.5206  2.3090 -1.2266
  249SOL     MW  996   0.192   1.827   2.702  0.2546 -0.3558 -0.5446
  250SOL     OW  997   2.129   0.845   2.382 -0.1745 -0.0896  0.5399
  250SOL    HW1  998   2.169   0.757   2.402  1.1656 -2.5577  0.9114
  250SOL    HW2  999   2.189   0.893   2.437  1.0586 -3.7826 -0.8293
  250SOL     MW 1000   2.142   0.840   2.392  0.1650 -0.9025  0.4082
  251SOL     OW 1001   0.228   0.823   2.058 -0.3339  0.4135  0.4401
  251SOL    HW1 1002   0.215   0.761   2.123  0.2934 -0.0848 -0.9479
  251SOL    HW2 1003   0.218   0.770   1.977  0.8786  2.0926  1.4870
  251SOL     MW 1004   0.225   0.808   2.056 -0.0912  0.5693  0.3951
  252SOL     OW 1005   1.683   1.021   2.865 -0.1873  0.2603  0.4435
  252SOL    HW1 1006   1.698   1.072   2.946 -0.8935  3.6019 -2.2694
  252SOL    HW2 1007   1.747   1.054   2.795 -0.3577 -1.4341 -0.3763
  252SOL     MW 1008   1.693   1.032   2.867 -0.3030  0.4776 -0.0226
  253SOL     OW 1009   1.152   1.724   2.537 -0.2321 -0.2214  0.4371
  253SOL    HW1 1010   1.159   1.739   2.436 -0.2381  0.0687 -0.4216
  253SOL    HW2 1011   1.072   1.778   2.568 -1.4988  2.1611  0.7137
  253SOL     MW 1012   1.143   1.733   2.528 -0.4000  0.1312  0.3603
  254SOL     OW 1013   1.022   1.079   2.227  0.0144 -0.1772 -0.0223
  254SOL    HW1 1014   1.011   0.983   2.211  0.3761 -1.9223  0.4336
  254SOL    HW2 1015   0.937   1.120   2.216 -1.3782  2.0400 -0.6423
  254SOL     MW 1016   1.009   1.071   2.224 -0.1216 -0.1149 -0.0440
  255SOL     OW 1017   0.830   2.445   2.163  0.1906  0.6615 -0.7339
  255SOL    HW1 1018   0.751   2.421   2.209  1.7899  2.7292 -0.6439
  255SOL    HW2 1019   0.885   2.481   2.231 -2.6413  2.0556 -1.0584
  255SOL     MW 1020   0.827   2.447   2.178  0.0280  1.1183 -0.7649
  256SOL     OW 1021   1.166   2.838   2.887  0.0555  0.3348 -1.1606
  256SOL    HW1 1022   1.120   2.790   2.823 -0.3336 -0.1302  2.4493
  256SOL    HW2 1023   1.263   2.815   2.885  2.3941 -0.9283  2.1577
  256SOL     MW 1024   1.173   2.828   2.879  0.3127  0.1068 -0.2465
  257SOL     OW 1025   0.171   1.904   0.100 -0.2281  0.4415  0.2497
  257SOL    HW1 1026   0.190   1.854   0.178  3.3603 -1.3984 -1.9599
  257SOL    HW2 1027   0.162   1.838   0.028 -1.0906  0.5785  3.4698
  257SOL     MW 1028   0.172   1.889   0.101  0.1315  0.2169  0.3830
  258SOL     OW 1029   0.703   1.038   2.470 -0.2830 -0.4429  0.6481
  258SOL    HW1 1030   0.746   1.103   2.412  0.1503  4.5624  0.2077
  258SOL    HW2 1031   0.625   1.085   2.487  1.4444 -0.7625 -0.9203
  258SOL     MW 1032   0.699   1.053   2.464  0.0021  0.1754  0.3831
  259SOL     OW 1033   0.760   0.517   2.371  0.4960  0.0908 -0.4887
  259SOL    HW1 1034   0.678   0.565   2.364 -1.7106 -1.3089  1.6496
  259SOL    HW2 1035   0.733   0.427   2.397 -2.7212  1.3273 -1.5537
  259SOL     MW 1036   0.746   0.511   2.373 -0.2196  0.0693 -0.3471
  260SOL     OW 1037   0.591   0.137   1.590 -0.1874  0.4592  0.3856
  260SOL    HW1 1038   0.526   0.111   1.525  0.6929 -0.0545  1.4155
  260SOL    HW2 1039   0.678   0.133   1.544  0.7234  0.7261  1.6428
  260SOL     MW 1040   0.594   0.133   1.575  0.0489  0.4266  0.6874
  261SOL     OW 1041   1.193   0.681   2.065  0.3129  0.0140 -0.4719
  261SOL    HW1 1042   1.204   0.691   2.161  2.9908 -1.3283 -0.1280
  261SOL    HW2 1043   1.262   0.614   2.047 -1.4310 -1.3664  0.3616
  261SOL     MW 1044   1.204   0.673   2.075  0.4361 -0.3452 -0.3166
  262SOL     OW 1045   1.168   0.314   0.096  0.5525  0.0760  0.0705
  262SOL    HW1 1046   1.266   0.308   0.082  0.9246  0.6117 -0.9428
  262SOL    HW2 1047   1.133   0.233   0.073 -1.0884  0.3029  1.8615
  262SOL     MW 1048   1.176   0.303   0.091  0.3851  0.1766  0.1731
  263SOL     OW 1049   0.448   3.044   2.494 -0.2140  0.1297  0.6844
  263SOL    HW1 1050   0.385   3.117   2.499 -1.7903 -0.8199 -1.6295
  263SOL    HW2 1051   0.471   3.067   2.402 -2.9916 -1.9308 -1.8304
  263SOL     MW 1052   0.443   3.057   2.483 -0.7884 -0.2674  0.0473
  264SOL     OW 1053   1.531   1.304   1.923  0.0484  0.2414  0.3641
  264SOL    HW1 1054   1.472   1.337   1.987  0.4530 -1.0213  0.4828
  264SOL    HW2 1055   1.616   1.330   1.964 -1.6843  0.7082 -0.3768
  264SOL     MW 1056   1.534   1.312   1.937 -0.1268  0.1364  0.2820
  265SOL     OW 1057   0.648   2.706   2.247 -0.4322  0.8050 -0.0347
  265SOL    HW1 1058   0.693   2.634   2.215 -1.9213  0.1208  0.5888
  265SOL    HW2 1059   0.656   2.707   2.339  1.0002 -1.4389 -2.9005
  265SOL     MW 1060   0.655   2.697   2.255 -0.4397  0.4187 -0.3306
  266SOL     OW 1061   0.926   0.816   2.193  0.5915  0.0835 -0.3129
  266SOL    HW1 1062   0.941   0.772   2.113  1.0909  1.2207  0.5237
  266SOL    HW2 1063   0.944   0.747   2.254 -1.6095  1.4363 -2.6247
  266SOL     MW 1064   0.930   0.801   2.191  0.3670  0.4120 -0.5076
  267SOL     OW 1065   1.369   1.698   2.695 -0.1966 -0.6200 -0.2087
  267SOL    HW1 1066   1.427   1.706   2.619  2.3605 -0.1419  0.9816
  267SOL    HW2 1067   1.291   1.719   2.643 -0.9587 -0.2544  1.3567
  267SOL     MW 1068   1.367   1.702   2.678  0.0402 -0.5087  0.1549
  268SOL     OW 1069   0.249   0.755   1.777  0.3969  0.1748  0.0603
  268SOL    HW1 1070   0.168   0.801   1.741 -1.9854  1.1669 -3.2108
  268SOL    HW2 1071   0.278   0.688   1.715 -1.6543 -0.4319  1.7278
  268SOL     MW 1072   0.242   0.752   1.764 -0.1881  0.2256 -0.1512
  269SOL     OW 1073   1.367   1.917   2.434  0.2507  0.1367 -0.5177
  269SOL    HW1 1074   1.415   1.999   2.438  0.4468 -0.6555 -0.8658
  269SOL    HW2 1075   1.305   1.909   2.511  1.9136 -0.3924 -1.9607
  269SOL     MW 1076   1.365   1.927   2.445  0.4960 -0.0376 -0.7540
  270SOL     OW 1077   1.170   0.366   1.605  0.1023 -0.4118  0.1379
  270SOL    HW1 1078   1.148   0.285   1.649 -0.8498  0.4075  0.5201
  270SOL    HW2 1079   1.262   0.363   1.590  2.1878  0.9663  0.6378
  270SOL     MW 1080   1.179   0.355   1.609  0.2518 -0.1218  0.2543
  271SOL     OW 1081   0.845   3.050   2.397  0.5940  0.5983  0.4069
  271SOL    HW1 1082   0.887   3.007   2.473 -1.1315  1.1088  0.5027
  271SOL    HW2 1083   0.876   3.143   2.404  1.4685  2.6886 -0.6303
  271SOL     MW 1084   0.855   3.057   2.408  0.4817  0.9414  0.2827
  272SOL     OW 1085   1.439   2.863   2.797  0.7868 -0.4547  0.0550
  272SOL    HW1 1086   1.418   2.953   2.770 -2.7528  3.0144 -2.8217
  272SOL    HW2 1087   1.483   2.867   2.880 -0.6237  1.3651 -0.5574
  272SOL     MW 1088   1.442   2.875   2.804  0.1337  0.2432 -0.4053
  273SOL     OW 1089   1.423   0.876   2.869 -0.1255 -0.8493  0.0809
  273SOL    HW1 1090   1.508   0.912   2.861  0.5211  2.6391 -1.3360
  273SOL    HW2 1091   1.376   0.955   2.899  0.4105 -0.3911  0.7941
  273SOL     MW 1092   1.428   0.891   2.872  0.0305 -0.3286 -0.0119
  274SOL     OW 1093   1.373   0.754   0.227  0.4708 -0.2852 -0.0760
  274SOL    HW1 1094   1.430   0.678   0.212  0.5303 -1.6124 -1.2937
  274SOL    HW2 1095   1.296   0.721   0.269  0.5977  1.8213  0.5006
  274SOL     MW 1096   1.370   0.739   0.231  0.4954 -0.1824 -0.1606
  275SOL     OW 1097   1.719   0.681   1.803  0.3794  0.4781 -0.4915
  275SOL    HW1 1098   1.790   0.712   1.861 -0.9165  0.1995 -2.0419
  275SOL    HW2 1099   1.708   0.590   1.828 -0.7990  2.2205 -0.1908
  275SOL     MW 1100   1.727   0.673   1.814  0.0530  0.6713 -0.6564
  276SOL     OW 1101   0.207   1.261   1.800 -0.1056  0.2934  0.0304
  276SOL    HW1 1102   0.193   1.183   1.854 -0.9686  1.5345 -1.0642
  276SOL    HW2 1103   0.117   1.295   1.783  1.1855 -2.0123  0.6454
  276SOL     MW 1104   0.194   1.255   1.805 -0.0491  0.1530 -0.0329
  277SOL     OW 1105   1.901   1.352   2.582 -0.7876  0.1019 -0.4500
  277SOL    HW1 1106   1.984   1.375   2.546  0.8593  0.1515 -1.8829
  277SOL    HW2 1107   1.912   1.256   2.600  2.3570 -1.4139 -0.1109
  277SOL     MW 1108   1.914   1.342   2.580 -0.1554 -0.0915 -0.5943
  278SOL     OW 1109   1.418   0.716   1.742 -0.2123 -0.7177  0.2612
  278SOL    HW1 1110   1.395   0.633   1.788 -0.6509 -1.8048  0.7802
  278SOL    HW2 1111   1.503   0.743   1.781 -0.2993  4.1189 -1.2163
  278SOL     MW 1112   1.426   0.708   1.753 -0.2816 -0.2230  0.1347
  279SOL     OW 1113   0.546   3.096   2.243 -0.0485  0.6939  0.1093
  279SOL    HW1 1114   0.627   3.043   2.224 -1.5780 -3.6737 -2.6521
  279SOL    HW2 1115   0.577   3.185   2.225  1.9471  0.6610 -1.3646
  279SOL     MW 1116   0.561   3.101   2.238  0.0130  0.1133 -0.4495
  280SOL     OW 1117   1.502   1.133   2.205 -0.2241 -0.2738 -0.3591
  280SOL    HW1 1118   1.534   1.063   2.151  2.1440 -0.0665  2.0526
  280SOL    HW2 1119   1.506   1.103   2.291  0.2941  1.2144 -1.1628
  280SOL     MW 1120   1.507   1.120   2.209  0.1567 -0.0501 -0.1469
  281SOL     OW 1121   1.276   1.320   2.797  0.1544 -0.6179 -0.5528
  281SOL    HW1 1122   1.370   1.336   2.803  0.4246 -1.0119 -2.5478
  281SOL    HW2 1123   1.267   1.235   2.843  3.8219 -0.8161 -0.8528
  281SOL     MW 1124   1.287   1.311   2.804  0.6739 -0.6960 -0.8556
  282SOL     OW 1125   1.134   1.298   1.697 -0.5899  0.3608 -0.1599
  282SOL    HW1 1126   1.101   1.356   1.623  1.3718  1.3629  2.9903
  282SOL    HW2 1127   1.068   1.303   1.766  2.1167  1.1342  1.9467
  282SOL     MW 1128   1.121   1.306   1.696  0.0260  0.5951  0.5337
  283SOL     OW 1129   0.685   1.265   0.002  0.1330 -0.0174 -0.1512
  283SOL    HW1 1130   0.780   1.271   0.018 -0.1574  1.1774  1.7590
  283SOL    HW2 1131   0.664   1.351   0.028  0.2341  0.8763  1.1711
  283SOL     MW 1132   0.695   1.277   0.008  0.1080  0.2581  0.2753
  284SOL     OW 1133   0.500   0.653   2.347  0.3881 -0.0606  0.4855
  284SOL    HW1 1134   0.548   0.729   2.309  1.9559  1.1881  3.9156
  284SOL    HW2 1135   0.487   0.576   2.281 -1.4977 -2.8206 -1.5660
  284SOL     MW 1136   0.505   0.653   2.333  0.3461 -0.2600  0.6674
  285SOL     OW 1137   0.820   0.945   2.856  0.3668  0.4081  0.7122
  285SOL    HW1 1138   0.884   0.990   2.792  3.7528 -1.3523 -0.0717
  285SOL    HW2 1139   0.780   0.878   2.809  0.5482  0.8449  1.1491
  285SOL     MW 1140   0.823   0.942   2.842  0.8375  0.2335  0.6664
  286SOL     OW 1141   1.141   1.466   2.621 -0.1096  0.1806 -0.3927
  286SOL    HW1 1142   1.191   1.438   2.702  1.7817 -2.4563  1.0049
  286SOL    HW2 1143   1.156   1.562   2.616  1.0879 -1.5503 -0.3907
  286SOL     MW 1144   1.149   1.475   2.631  0.2980 -0.3957 -0.2080
  287SOL     OW 1145   0.996   0.897   0.322 -0.2467  0.0482 -0.3116
  287SOL    HW1 1146   1.029   0.948   0.394 -0.1611 -0.4362 -1.5231
  287SOL    HW2 1147   0.969   0.961   0.261  1.3107  0.7054  0.0492
  287SOL     MW 1148   0.997   0.912   0.323 -0.0299  0.0710 -0.4238
  288SOL     OW 1149   1.564   0.628   2.104  0.5181 -0.1039 -0.2414
  288SOL    HW1 1150   1.548   0.633   2.202 -1.6822  2.1398 -1.0981
  288SOL    HW2 1151   1.542   0.716   2.072  1.8085  0.1610  1.4300
  288SOL     MW 1152   1.559   0.641   2.113  0.3981  0.2271 -0.1339
  289SOL     OW 1153   0.938   1.053   2.633  0.1553  0.0176  0.1513
  289SOL    HW1 1154   1.006   0.984   2.616 -3.0578  1.0098  4.4818
  289SOL    HW2 1155   0.867   1.037   2.568 -1.5692  0.8893 -2.8091
  289SOL     MW 1156   0.937   1.042   2.622 -0.4962  0.2635  0.3321
  290SOL     OW 1157   0.867   0.549   1.550  0.2306 -0.5385  0.6527
  290SOL    HW1 1158   0.913   0.545   1.468 -1.7863 -0.2963  0.0054
  290SOL    HW2 1159   0.923   0.579   1.624 -1.0154  1.2734  0.2850
  290SOL     MW 1160   0.880   0.552   1.549 -0.1999 -0.2675  0.5188
  291SOL     OW 1161   0.132   0.337   0.163 -0.4520 -0.1100 -0.1549
  291SOL    HW1 1162   0.223   0.298   0.186  3.2233 -3.6905  1.2815
  291SOL    HW2 1163   0.104   0.276   0.098 -0.4088 -0.1797  0.8464
  291SOL     MW 1164   0.140   0.324   0.158  0.0386 -0.5916  0.1667
  292SOL     OW 1165   0.982   0.526   0.062  0.0825  0.2485 -0.1409
  292SOL    HW1 1166   1.034   0.564   0.137 -0.1083 -2.8785  3.8193
  292SOL    HW2 1167   1.016   0.438   0.063 -0.4500 -0.8731 -0.6922
  292SOL     MW 1168   0.994   0.519   0.072 -0.0129 -0.3120  0.3088
  293SOL     OW 1169   0.214   0.113   2.474  0.2218  0.6635 -0.3284
  293SOL    HW1 1170   0.136   0.067   2.444 -1.0865 -0.0048  3.5448
  293SOL    HW2 1171   0.182   0.191   2.524  1.8113  2.2089  2.8299
  293SOL     MW 1172   0.200   0.118   2.476  0.2589  0.7793  0.5993
  294SOL     OW 1173   1.497   0.644   2.374  0.4694 -0.7466  0.7971
  294SOL    HW1 1174   1.500   0.694   2.452  2.2099  0.2258  2.2001
  294SOL    HW2 1175   1.490   0.551   2.396 -0.8248  1.1540 -0.3797
  294SOL     MW 1176   1.496   0.638   2.387  0.5283 -0.3675  0.8270
  295SOL     OW 1177   0.897   0.688   2.519 -0.0586 -0.3233  0.3176
  295SOL    HW1 1178   0.841   0.633   2.472 -0.1856 -0.5457 -2.9986
  295SOL    HW2 1179   0.839   0.718   2.590 -0.8659 -0.6804  1.5811
  295SOL     MW 1180   0.882   0.684   2.522 -0.1819 -0.3998  0.0468
  296SOL     OW 1181   1.282   0.291   2.067  0.5455  0.4734 -0.0856
  296SOL    HW1 1182   1.359   0.231   2.044 -1.7138  0.0814  0.9410
  296SOL    HW2 1183   1.276   0.288   2.169 -1.1541  0.9394  0.4928
  296SOL     MW 1184   1.291   0.282   2.077  0.0232  0.4832  0.1261
  297SOL     OW 1185   1.480   0.416   1.572  0.2705 -0.0352  0.7823
  297SOL    HW1 1186   1.519   0.485   1.623  0.2623 -1.0983  0.6435
  297SOL    HW2 1187   1.516   0.340   1.612 -0.3016 -0.8081  0.4567
  297SOL     MW 1188   1.490   0.415   1.584  0.1939 -0.2775  0.7211
  298SOL     OW 1189   1.531   0.896   2.053  0.7268 -0.5660 -0.2740
  298SOL    HW1 1190   1.521   0.933   1.966 -0.3923 -0.2471 -0.0492
  298SOL    HW2 1191   1.624   0.910   2.074  0.9773 -1.2913 -1.1207
  298SOL     MW 1192   1.542   0.903   2.045  0.6122 -0.6196 -0.3561
  299SOL     OW 1193   0.510   1.037   3.095 -0.0627 -0.4074 -0.2116
  299SOL    HW1 1194   0.575   1.105   3.083 -2.2947  1.0169  0.5073
  299SOL    HW2 1195   0.476   1.028   3.008  1.5817  0.0733  2.2277
  299SOL     MW 1196   0.514   1.045   3.082 -0.1402 -0.1560  0.2051
  300SOL     OW 1197   1.270   1.169   2.505 -0.7011  0.2832 -0.0575
  300SOL    HW1 1198   1.209   1.100   2.503  0.7920  1.0544 -0.1467
  300SOL    HW2 1199   1.224   1.241   2.558  0.9549 -0.8367  1.2968
  300SOL     MW 1200   1.256   1.170   2.512 -0.2856  0.2372  0.1095
  301SOL     OW 1201   1.353   0.835   0.573  0.4746  0.7380 -0.3044
  301SOL    HW1 1202   1.397   0.867   0.652 -2.9516  1.0299  2.3941
  301SOL    HW2 1203   1.318   0.752   0.606  1.9138 -1.8291  1.5890
  301SOL     MW 1204   1.354   0.829   0.588  0.2125  0.4378  0.3014
  302SOL     OW 1205   0.107   1.460   2.014 -0.1558  0.8277 -0.0224
  302SOL    HW1 1206   0.141   1.400   2.085 -1.2210  0.7065 -1.1904
  302SOL    HW2 1207   0.048   1.516   2.060 -1.2829  2.1586  0.7903
  302SOL     MW 1208   0.104   1.460   2.029 -0.4450  0.9873 -0.0693
  303SOL     OW 1209   0.399   1.710   2.569 -0.5007  0.0447  0.0475
  303SOL    HW1 1210   0.388   1.737   2.479 -0.9195 -1.5439 -1.1728
  303SOL    HW2 1211   0.319   1.744   2.606 -3.1444 -1.3580 -0.5055
  303SOL     MW 1212   0.387   1.718   2.562 -0.9047 -0.3500 -0.1865
  304SOL     OW 1213   0.645   2.066   2.394  0.1249 -0.1219  0.3063
  304SOL    HW1 1214   0.683   2.136   2.343 -0.2399 -1.7664 -1.0324
  304SOL    HW2 1215   0.700   1.984   2.391  0.4547 -0.8676 -1.1055
  304SOL     MW 1216   0.657   2.064   2.387  0.1203 -0.4372 -0.0566
  305SOL     OW 1217   1.076   0.566   0.574 -0.2526 -0.3639 -0.3351
  305SOL    HW1 1218   0.982   0.536   0.552 -2.7192  0.0458 -1.7453
  305SOL    HW2 1219   1.135   0.492   0.595  1.0840 -0.5687  0.6809
  305SOL     MW 1220   1.072   0.552   0.574 -0.4017 -0.3369 -0.3871
  306SOL     OW 1221   1.222   1.478   0.335  0.0199 -0.4914 -0.8108
  306SOL    HW1 1222   1.263   1.398   0.366 -0.5470  1.1484 -1.8972
  306SOL    HW2 1223   1.284   1.517   0.272 -0.4132  1.4790 -2.4825
  306SOL     MW 1224   1.236   1.472   0.331 -0.1120 -0.0151 -1.1747
  307SOL     OW 1225   1.384   0.502   1.919  0.3260 -0.4548 -0.1862
  307SOL    HW1 1226   1.353   0.408   1.942 -1.2767  0.5943  0.9414
  307SOL    HW2 1227   1.464   0.527   1.972  0.0455 -0.0029 -0.1524
  307SOL     MW 1228   1.390   0.493   1.929  0.0776 -0.2568 -0.0330
  308SOL     OW 1229   2.148   0.644   2.655 -0.3447 -0.0648 -0.1304
  308SOL    HW1 1230   2.198   0.581   2.716 -0.8647 -0.4171  1.6776
  308SOL    HW2 1231   2.172   0.728   2.703 -0.4260 -1.4540  0.0599
  308SOL     MW 1232   2.158   0.647   2.669 -0.4240 -0.2946  0.1333
  309SOL     OW 1233   0.549   0.417   0.383 -0.8692 -0.9153  0.3915
  309SOL    HW1 1234   0.595   0.350   0.436 -1.9540 -1.0370 -0.4277
  309SOL    HW2 1235   0.493   0.360   0.328 -0.6373 -0.6070 -0.4750
  309SOL     MW 1236   0.547   0.401   0.383 -0.9818 -0.8906  0.1691
  310SOL     OW 1237   0.470   0.538   1.930 -0.0337  0.1908  0.0032
  310SOL    HW1 1238   0.520   0.465   1.900  0.6796 -0.6825  0.1198
  310SOL    HW2 1239   0.515   0.624   1.911  0.5287  0.0358 -0.7216
  310SOL     MW 1240   0.483   0.540   1.923  0.1346  0.0552 -0.0770
  311SOL     OW 1241   1.905   0.781   1.957 -0.5280 -0.0714 -0.3529
  311SOL    HW1 1242   1.878   0.821   2.041  1.9694  0.4412 -2.7490
  311SOL    HW2 1243   1.954   0.697   1.977 -0.8245 -0.9195 -0.1788
  311SOL     MW 1244   1.908   0.775   1.970 -0.2376 -0.1156 -0.6461
  312SOL     OW 1245   1.716   2.499   0.025 -0.3053 -0.1373  0.5159
  312SOL    HW1 1246   1.758   2.508   0.115 -0.8468  3.2451  0.0280
  312SOL    HW2 1247   1.630   2.551   0.034 -0.2924 -0.9761  0.5142
  312SOL     MW 1248   1.710   2.507   0.038 -0.3750  0.1983  0.4513
  313SOL     OW 1249   0.118   1.181   2.936 -0.4541 -0.0629  0.2368
  313SOL    HW1 1250   0.140   1.157   3.029  1.0145 -2.6770 -0.5893
  313SOL    HW2 1251   0.204   1.202   2.894  3.3458 -2.4024 -1.3028
  313SOL     MW 1252   0.132   1.180   2.943  0.2410 -0.7165 -0.0753
  314SOL     OW 1253   2.136   2.985   3.000  0.4614 -0.1741  0.2659
  314SOL    HW1 1254   2.078   3.041   2.952 -2.4520  1.0332  2.1116
  314SOL    HW2 1255   2.194   3.042   3.045 -0.5846  1.0020  0.6284
  314SOL     MW 1256   2.136   3.000   3.000 -0.0610  0.1404  0.5573
  315SOL     OW 1257   1.509   1.897   3.055 -0.2697 -0.8369  0.1964
  315SOL    HW1 1258   1.478   1.977   3.096 -0.2329 -1.6311  2.3193
  315SOL    HW2 1259   1.580   1.936   2.990  1.9821 -0.3049 -0.4050
  315SOL     MW 1260   1.514   1.912   3.051  0.0323 -0.8715  0.3971
  316SOL     OW 1261   1.253   0.625   2.712  0.0309 -0.4158  0.2050
  316SOL    HW1 1262   1.346   0.631   2.706 -0.1225 -1.8007 -0.1957
  316SOL    HW2 1263   1.243   0.566   2.781  0.3438  0.5541 -2.5298
  316SOL     MW 1264   1.264   0.618   2.720  0.0519 -0.4706 -0.2087
  317SOL     OW 1265   0.674   1.435   2.621  0.4261  0.3182 -0.9536
  317SOL    HW1 1266   0.755   1.380   2.611  1.7742  0.5339  2.3307
  317SOL    HW2 1267   0.689   1.489   2.533 -0.2915  0.8448  2.0528
  317SOL     MW 1268   0.687   1.435   2.608  0.5093  0.4161 -0.1236
  318SOL     OW 1269   1.354   0.382   2.911 -0.0989  0.3042 -0.0814
  318SOL    HW1 1270   1.270   0.419   2.943  1.9266  1.1524 -0.3837
  318SOL    HW2 1271   1.414   0.455   2.891  1.1518  1.3852  1.7582
  318SOL     MW 1272   1.351   0.397   2.912  0.3334  0.5587  0.1214
  319SOL     OW 1273   0.829   0.485   2.815  0.3829 -0.0083 -0.2538
  319SOL    HW1 1274   0.806   0.405   2.767  0.1543 -1.3189  1.3026
  319SOL    HW2 1275   0.826   0.449   2.904 -0.6924  1.6860  1.3186
  319SOL     MW 1276   0.826   0.470   2.821  0.2109  0.0423  0.1590
  320SOL     OW 1277   1.046   1.353   1.983 -0.2225 -0.0134 -0.7464
  320SOL    HW1 1278   1.112   1.315   2.031 -3.6511 -0.9533 -0.2638
  320SOL    HW2 1279   1.086   1.430   1.944 -0.2698 -1.0370  0.7010
  320SOL     MW 1280   1.060   1.358   1.984 -0.6811 -0.2724 -0.4917
  321SOL     OW 1281   1.044   0.998   3.066 -0.6340  0.3889 -0.1046
  321SOL    HW1 1282   0.963   0.989   3.019 -0.6019  0.5371  1.3174
  321SOL    HW2 1283   1.090   0.912   3.059  1.9694  0.4499 -0.3717
  321SOL     MW 1284   1.040   0.986   3.059 -0.2863  0.4165  0.0478
  322SOL     OW 1285   1.189   0.834   1.728 -0.0753 -0.3135  0.0606
  322SOL    HW1 1286   1.281   0.796   1.743  1.2566  0.8263  0.2254
  322SOL    HW2 1287   1.162   0.875   1.816 -0.1061  2.2071 -0.0836
  322SOL     MW 1288   1.198   0.835   1.742  0.0963  0.1694  0.0633
  323SOL     OW 1289   1.182   1.536   1.832  0.8034  0.2403 -0.6299
  323SOL    HW1 1290   1.193   1.452   1.790 -0.1626  3.1721 -0.2006
  323SOL    HW2 1291   1.104   1.576   1.788 -1.4753 -1.2642 -2.0481
  323SOL     MW 1292   1.173   1.530   1.821  0.3753  0.4286 -0.7604
  324SOL     OW 1293   1.514   1.075   2.489  0.3334 -0.0147 -0.1766
  324SOL    HW1 1294   1.426   1.119   2.505 -2.2178 -0.4163  1.7443
  324SOL    HW2 1295   1.577   1.146   2.500 -3.5692 -0.8045 -1.1465
  324SOL     MW 1296   1.510   1.090   2.493 -0.5181 -0.1719 -0.0511
  325SOL     OW 1297   1.090   0.490   2.903 -0.1822 -0.6320  0.0453
  325SOL    HW1 1298   1.049   0.519   2.991 -1.1615  1.4363  1.6245
  325SOL    HW2 1299   1.015   0.501   2.848  1.0498  0.7331 -1.3621
  325SOL     MW 1300   1.075   0.495   2.908 -0.1488 -0.1790  0.0680
  326SOL     OW 1301   0.480   1.350   2.242  0.3255  0.1566 -0.0493
  326SOL    HW1 1302   0.534   1.325   2.163 -1.2593 -0.3004 -1.3416
  326SOL    HW2 1303   0.481   1.447   2.240 -0.0537  0.0032  0.7570
  326SOL     MW 1304   0.487   1.359   2.231  0.0664  0.0761 -0.1134
  327SOL     OW 1305   1.849   0.907   2.456 -0.1257 -0.3025  0.9326
  327SOL    HW1 1306   1.845   0.826   2.515  0.3873  1.3940 -1.3903
  327SOL    HW2 1307   1.935   0.889   2.422 -1.5329  1.2831  1.5992
  327SOL     MW 1308   1.860   0.894   2.459 -0.2437  0.1306  0.7140
  328SOL     OW 1309   0.192   1.316   2.201  0.4280  0.1025  0.7572
  328SOL    HW1 1310   0.156   1.232   2.176  0.6236 -1.4431 -1.6412
  328SOL    HW2 1311   0.286   1.315   2.223 -0.6365  0.8021 -0.6429
  328SOL     MW 1312   0.199   1.305   2.201  0.3134 -0.0091  0.2560
  329SOL     OW 1313   0.107   0.130   1.446 -0.2591 -0.4480  0.0231
  329SOL    HW1 1314   0.076   0.161   1.539 -0.4982  0.9483  2.5503
  329SOL    HW2 1315   0.180   0.192   1.416  1.6070  4.1100 -1.3030
  329SOL     MW 1316   0.112   0.142   1.455 -0.0444  0.3376  0.1816
  330SOL     OW 1317   0.348   2.997   2.061  0.0497  0.2674 -0.0005
  330SOL    HW1 1318   0.407   3.018   2.131 -0.1563  1.5276  2.9534
  330SOL    HW2 1319   0.268   2.961   2.111  0.3886  2.1431  1.0642
  330SOL     MW 1320   0.345   2.995   2.077  0.0672  0.6811  0.5297
  331SOL     OW 1321   0.770   1.215   2.280 -0.7187  0.0077 -0.0741
  331SOL    HW1 1322   0.715   1.257   2.214  1.0538  1.7895  1.4777
  331SOL    HW2 1323   0.811   1.291   2.328 -0.5186 -0.0732  2.6059
  331SOL     MW 1324   0.768   1.231   2.278 -0.4584  0.2321  0.4842
  332SOL     OW 1325   1.342   1.702   2.971 -0.1207 -0.6672  0.5511
  332SOL    HW1 1326   1.357   1.689   2.878  0.0914 -0.5518  1.1042
  332SOL    HW2 1327   1.417   1.763   3.008  0.3659 -1.5736  1.9712
  332SOL     MW 1328   1.354   1.708   2.964 -0.0285 -0.7716  0.8114
  333SOL     OW 1329   1.722   1.470   3.010 -0.0248 -0.1143  0.1026
  333SOL    HW1 1330   1.804   1.422   2.998  0.7840  1.8590 -0.1653
  333SOL    HW2 1331   1.695   1.465   3.104  0.3285  0.3208  0.8450
  333SOL     MW 1332   1.729   1.463   3.021  0.1285  0.2034  0.1652
  334SOL     OW 1333   1.328   3.065   2.626  0.3037  0.0190 -0.1449
  334SOL    HW1 1334   1.235   3.078   2.654  1.9846 -2.2004 -0.0456
  334SOL    HW2 1335   1.382   3.146   2.645  3.3403  0.9247  0.8376
  334SOL     MW 1336   1.323   3.078   2.632  0.9261 -0.1543 -0.0022
  335SOL     OW 1337   1.229   0.776   3.050 -0.5934  0.4430  0.0380
  335SOL    HW1 1338   1.260   0.761   3.138  1.8567 -0.1578  0.4977
  335SOL    HW2 1339   1.312   0.782   3.004 -2.0389  2.2295  1.6131
  335SOL     MW 1340   1.244   0.775   3.056 -0.4608  0.5994  0.3065
  336SOL     OW 1341   0.886   1.113   1.917  0.1572 -0.0357  0.1580
  336SOL    HW1 1342   0.927   1.199   1.943 -0.3514 -2.1276 -0.2937
  336SOL    HW2 1343   0.944   1.040   1.945 -0.4290 -1.3045 -0.0948
  336SOL     MW 1344   0.899   1.115   1.924  0.0128 -0.4791  0.0651
  337SOL     OW 1345   0.515   1.786   2.803  0.0095  0.0803 -0.1882
  337SOL    HW1 1346   0.485   1.778   2.714  2.1346  0.6088  2.1524
  337SOL    HW2 1347   0.595   1.726   2.812 -2.2535 -0.9358 -1.3591
  337SOL     MW 1348   0.522   1.777   2.792 -0.0087  0.0159 -0.0339
  338SOL     OW 1349   1.125   0.846   2.533 -0.1318 -0.0996 -0.4701
  338SOL    HW1 1350   1.043   0.795   2.546 -1.8928  2.5880  1.7304
  338SOL    HW2 1351   1.185   0.798   2.593  2.0663  1.6935  1.3505
  338SOL     MW 1352   1.122   0.833   2.543 -0.0741  0.4916  0.0605
  339SOL     OW 1353   1.592   1.040   1.820 -0.3363 -0.6235 -0.4250
  339SOL    HW1 1354   1.518   1.045   1.765  0.2490  0.1660  0.4278
  339SOL    HW2 1355   1.578   1.115   1.879 -1.8235  1.5307  1.4354
  339SOL     MW 1356   1.580   1.050   1.821 -0.4553 -0.2351 -0.0670
  340SOL     OW 1357   1.360   1.532   0.081  0.0182 -0.4689 -0.1787
  340SOL    HW1 1358   1.343   1.583   0.001 -0.2694 -1.0942  1.6197
  340SOL    HW2 1359   1.447   1.500   0.085  0.9244  0.2296 -1.7959
  340SOL     MW 1360   1.370   1.534   0.071  0.0998 -0.4592 -0.1548
  341SOL     OW 1361   0.134   1.353   2.661  0.2953 -0.2209 -0.0057
  341SOL    HW1 1362   0.219   1.373   2.619 -0.3060  2.3316  0.3092
  341SOL    HW2 1363   0.067   1.327   2.598 -1.5347  4.0975  0.9597
  341SOL     MW 1364   0.136   1.353   2.647 -0.0255  0.6857  0.1632
  342SOL     OW 1365   1.444   0.311   0.063  0.1024 -0.0803  0.0228
  342SOL    HW1 1366   1.452   0.390   0.119  0.8544 -1.2907  0.6729
  342SOL    HW2 1367   1.447   0.339  -0.027 -0.6972  0.5031  1.9937
  342SOL     MW 1368   1.445   0.325   0.059  0.0961 -0.1630  0.3686
  343SOL     OW 1369   0.226   0.283   2.233 -0.0792  0.1476 -0.0171
  343SOL    HW1 1370   0.260   0.223   2.295 -0.5573 -2.4412 -1.5770
  343SOL    HW2 1371   0.159   0.234   2.175 -2.1551 -1.3268  1.1705
  343SOL     MW 1372   0.222   0.269   2.233 -0.4162 -0.3885 -0.0662
  344SOL     OW 1373   1.681   2.069   0.254  0.0909 -0.2193 -0.1253
  344SOL    HW1 1374   1.681   2.121   0.177 -1.7615 -0.6614  1.4431
  344SOL    HW2 1375   1.612   1.998   0.235  0.5220 -0.4105 -1.4288
  344SOL     MW 1376   1.672   2.066   0.242 -0.0967 -0.3029 -0.0904
  345SOL     OW 1377   0.723   1.586   2.384  0.1160 -0.2756  0.1829
  345SOL    HW1 1378   0.636   1.586   2.348  0.8660  1.8828  1.0520
  345SOL    HW2 1379   0.779   1.549   2.307  1.3006  0.8356  1.0649
  345SOL     MW 1380   0.719   1.581   2.369  0.3713  0.1558  0.4139
  346SOL     OW 1381   1.719   1.132   0.027  0.2314  0.6165  0.3077
  346SOL    HW1 1382   1.807   1.103   0.062 -0.0015  0.1794  0.7970
  346SOL    HW2 1383   1.660   1.060   0.059  1.9750 -2.2771 -0.4236
  346SOL     MW 1384   1.723   1.119   0.036  0.4307  0.1771  0.2758
  347SOL     OW 1385   1.242   0.713   2.330  0.1409  0.4054 -0.5314
  347SOL    HW1 1386   1.332   0.686   2.348 -2.7608 -1.6432 -1.4930
  347SOL    HW2 1387   1.216   0.781   2.397  0.8010 -1.4079 -1.0707
  347SOL     MW 1388   1.251   0.718   2.341 -0.1548 -0.1041 -0.7294
  348SOL     OW 1389   1.312   2.597   1.891  0.1450 -0.3541 -0.0303
  348SOL    HW1 1390   1.361   2.516   1.891 -1.6111  3.0990  1.8603
  348SOL    HW2 1391   1.369   2.659   1.936 -1.0468  0.8475  1.0490
  348SOL     MW 1392   1.326   2.595   1.897 -0.2439  0.2600  0.3616
  349SOL     OW 1393   1.436   0.226   2.684  0.4168  0.6450  0.5064
  349SOL    HW1 1394   1.384   0.249   2.762  3.8782 -1.7660  2.8793
  349SOL    HW2 1395   1.515   0.183   2.711  1.1437  0.4892 -0.1677
  349SOL     MW 1396   1.440   0.223   2.698  0.9694  0.3063  0.7305
  350SOL     OW 1397   1.864   0.673   2.612  0.4025 -0.1341 -0.4274
  350SOL    HW1 1398   1.811   0.614   2.564  1.3233 -0.6034 -2.0584
  350SOL    HW2 1399   1.950   0.622   2.610 -0.1954 -1.5732  2.0224
  350SOL     MW 1400   1.868   0.659   2.606  0.4451 -0.3859 -0.3194
  351SOL     OW 1401   0.090   0.953   1.628  0.4613 -0.1755 -0.0389
  351SOL    HW1 1402   0.041   1.012   1.689 -1.8226  1.2337  0.4977
  351SOL    HW2 1403   0.152   1.005   1.582  1.2396 -0.0972  1.5363
  351SOL     MW 1404   0.092   0.968   1.630  0.2626  0.0208  0.2397
  352SOL     OW 1405   0.727   1.643   2.776  0.8228 -0.4397  0.0210
  352SOL    HW1 1406   0.805   1.614   2.825  2.3198 -2.0000  1.2956
  352SOL    HW2 1407   0.704   1.572   2.713 -1.5466  0.9764  1.7605
  352SOL     MW 1408   0.734   1.630   2.774  0.7077 -0.4587  0.4187
  353SOL     OW 1409   2.995   2.439   2.724  0.7177  0.0830 -0.2195
  353SOL    HW1 1410   3.081   2.409   2.688  1.3852 -0.7028  0.6651
  353SOL    HW2 1411   2.959   2.503   2.661 -2.2129 -0.5026 -1.1481
  353SOL     MW 1412   3.001   2.444   2.711  0.4191 -0.0979 -0.2253
  354SOL     OW 1413   0.414   2.415   0.845 -0.0574  0.5975 -0.0640
  354SOL    HW1 1414   0.445   2.388   0.930  2.5830  2.4635 -0.5389
  354SOL    HW2 1415   0.338   2.360   0.815  1.4177 -2.0629  2.4181
  354SOL     MW 1416   0.408   2.404   0.852  0.4856  0.4927  0.2008
  355SOL     OW 1417   0.066   2.175   0.393 -0.1045  0.3182  0.1831
  355SOL    HW1 1418  -0.021   2.127   0.379 -0.3619 -1.3569  2.8708
  355SOL    HW2 1419   0.047   2.202   0.480 -1.1599 -2.1484  1.8642
  355SOL     MW 1420   0.052   2.172   0.403 -0.2777 -0.2283  0.7595
  356SOL     OW 1421   0.855   2.942   1.021 -0.4011 -0.6467  0.1696
  356SOL    HW1 1422   0.902   2.904   0.942  1.5993 -3.2364 -0.0355
  356SOL    HW2 1423   0.776   2.890   1.026  2.3129  2.1017 -0.4767
  356SOL     MW 1424   0.851   2.930   1.011  0.2209 -0.6257  0.0573
  357SOL     OW 1425   1.742   2.919   0.377  0.6321  0.1773  0.5436
  357SOL    HW1 1426   1.691   2.859   0.432 -1.7514  2.8744 -2.0374
  357SOL    HW2 1427   1.825   2.879   0.351 -2.1611  3.3346 -1.9284
  357SOL     MW 1428   1.746   2.906   0.381 -0.0509  0.9497 -0.1231
  358SOL     OW 1429   0.449   0.128   1.053 -0.4200 -0.5345 -0.3450
  358SOL    HW1 1430   0.545   0.104   1.043  1.7369  3.3003 -0.3071
  358SOL    HW2 1431   0.422   0.144   0.965 -2.5346  1.4641 -0.8140
  358SOL     MW 1432   0.458   0.127   1.040 -0.4144  0.2351 -0.4019
  359SOL     OW 1433   0.973   2.873   1.821 -0.3338 -0.0443 -0.0960
  359SOL    HW1 1434   0.955   2.792   1.878  0.3378  1.4837  1.8057
  359SOL    HW2 1435   0.989   2.854   1.729  0.6545  0.4225  3.1550
  359SOL     MW 1436   0.973   2.859   1.817 -0.1148  0.2189  0.5838
  360SOL     OW 1437   0.619   2.776   1.006 -0.5947 -0.3461  0.2182
  360SOL    HW1 1438   0.609   2.727   0.926 -0.6718 -2.5521  0.7350
  360SOL    HW2 1439   0.601   2.720   1.081 -3.1420 -0.3537  2.7342
  360SOL     MW 1440   0.615   2.762   1.005 -0.9409 -0.6381  0.6184
  361SOL     OW 1441   0.181   2.717   1.350  0.0192 -0.6258 -0.3122
  361SOL    HW1 1442   0.167   2.806   1.396 -1.2256  1.3589  2.9541
  361SOL    HW2 1443   0.275   2.709   1.364 -2.4090 -0.1166 -1.8356
  361SOL     MW 1444   0.192   2.728   1.358 -0.4654 -0.2968 -0.0822
  362SOL     OW 1445   1.491   2.417   0.601 -0.1779  0.9758  0.0742
  362SOL    HW1 1446   1.479   2.323   0.636 -0.1066  1.5141  0.2754
  362SOL    HW2 1447   1.485   2.485   0.665 -0.4912  0.3555 -0.3350
  362SOL     MW 1448   1.488   2.414   0.614 -0.2098  0.9650  0.0467
  363SOL     OW 1449   0.273   3.029   0.746  0.4410 -0.3465 -0.1818
  363SOL    HW1 1450   0.285   2.996   0.836  0.9315 -1.9438  2.2382
  363SOL    HW2 1451   0.183   3.034   0.720  1.8618 -2.0113 -2.0553
  363SOL     MW 1452   0.263   3.026   0.754  0.6932 -0.7769 -0.1097
  364SOL     OW 1453   0.719   0.162   0.257  0.5765  0.2486  0.0473
  364SOL    HW1 1454   0.647   0.095   0.260  0.0225 -1.0728  0.8713
  364SOL    HW2 1455   0.680   0.242   0.219  0.3371 -2.7429  2.0076
  364SOL     MW 1456   0.705   0.164   0.252  0.4718 -0.3204  0.4147
  365SOL     OW 1457   0.928   1.960   1.131 -0.4926 -0.6043 -0.3173
  365SOL    HW1 1458   0.879   2.024   1.078 -0.9259 -2.1199  2.2548
  365SOL    HW2 1459   0.906   1.874   1.091  1.7827  0.6447 -0.6156
  365SOL     MW 1460   0.918   1.957   1.119 -0.2496 -0.6395 -0.0173
  366SOL     OW 1461   2.875   2.602   1.005  0.6061  0.1726  0.0261
  366SOL    HW1 1462   2.959   2.597   1.059  0.7045  1.0827 -0.6829
  366SOL    HW2 1463   2.906   2.618   0.908 -2.1983 -1.9420  0.4290
  366SOL     MW 1464   2.890   2.604   0.999  0.2491  0.0137 -0.0143
  367SOL     OW 1465   1.270   2.791   0.874 -0.1448 -0.0811 -0.1172
  367SOL    HW1 1466   1.184   2.835   0.900 -1.6055  0.1937  0.9237
  367SOL    HW2 1467   1.251   2.768   0.783 -0.1813  1.9056  2.4604
  367SOL     MW 1468   1.256   2.794   0.865 -0.3423  0.2173  0.3602
  368SOL     OW 1469   1.679   0.473   0.669  0.1185  0.1064 -0.0453
  368SOL    HW1 1470   1.755   0.425   0.632 -1.3625  0.4542 -3.0864
  368SOL    HW2 1471   1.694   0.567   0.686 -0.6737 -2.1923  0.8908
  368SOL     MW 1472   1.691   0.479   0.666 -0.1814 -0.1510 -0.3230
  369SOL     OW 1473   0.135   2.477   1.700  0.4946 -0.5010 -0.1984
  369SOL    HW1 1474   0.212   2.466   1.754  1.4938 -0.6792  0.6316
  369SOL    HW2 1475   0.095   2.558   1.738 -1.3947 -1.2435  1.9444
  369SOL     MW 1476   0.140   2.486   1.712  0.3772 -0.6224  0.1938
  370SOL     OW 1477   0.688   0.067   0.993  0.7179  0.3960  0.3732
  370SOL    HW1 1478   0.746   0.139   1.011  1.8394 -1.3489 -0.8129
  370SOL    HW2 1479   0.745  -0.010   0.990  1.0797  2.0341 -0.6956
  370SOL     MW 1480   0.703   0.067   0.995  0.9136  0.3819  0.0757
  371SOL     OW 1481   1.312   2.971   1.492  0.1815  0.8595  0.1465
  371SOL    HW1 1482   1.292   2.910   1.419 -1.1642  1.8997  1.3775
  371SOL    HW2 1483   1.309   3.055   1.448 -1.3617 -0.9979  1.4285
  371SOL     MW 1484   1.309   2.974   1.476 -0.1997  0.7517  0.4780
  372SOL     OW 1485   0.829   2.286   0.485 -0.1539  0.1907 -0.3562
  372SOL    HW1 1486   0.820   2.190   0.486  2.1994  0.8032 -0.5485
  372SOL    HW2 1487   0.829   2.302   0.388  0.6630 -1.6279 -1.4274
  372SOL     MW 1488   0.828   2.275   0.472  0.2644  0.0316 -0.5229
  373SOL     OW 1489   2.835   3.007   1.395 -0.3160 -0.3044 -0.1126
  373SOL    HW1 1490   2.909   2.976   1.341  0.8599 -3.5728  0.9019
  373SOL    HW2 1491   2.811   3.091   1.347 -0.7734  0.3170 -0.1446
  373SOL     MW 1492   2.842   3.014   1.381 -0.2212 -0.6536  0.0170
  374SOL     OW 1493   1.532   0.508   0.257  0.0654 -0.2693 -0.3138
  374SOL    HW1 1494   1.612   0.561   0.291 -2.6455 -0.4962  3.5880
  374SOL    HW2 1495   1.470   0.485   0.326  1.4127 -0.9945 -1.9365
  374SOL     MW 1496   1.534   0.512   0.271 -0.1145 -0.3949 -0.0131
  375SOL     OW 1497   1.120   2.122   2.317  0.0906 -0.0893  0.0114
  375SOL    HW1 1498   1.111   2.114   2.412  0.2146  1.9107 -3.3147
  375SOL    HW2 1499   1.161   2.041   2.289 -1.4977 -1.3289  0.1615
  375SOL     MW 1500   1.125   2.111   2.326 -0.1026  0.0110 -0.4076
  376SOL     OW 1501   0.681   2.542   0.078  0.2043 -0.4305 -0.6214
  376SOL    HW1 1502   0.739   2.473   0.119 -0.6987  2.0097  0.0589
  376SOL    HW2 1503   0.629   2.488   0.017  1.1306 -4.4316 -2.9685
  376SOL     MW 1504   0.682   2.526   0.076  0.2074 -0.6365 -0.8413
  377SOL     OW 1505   1.304   1.971   0.846  0.2481 -0.4187  0.0701
  377SOL    HW1 1506   1.235   1.973   0.779 -0.7836  0.3569  1.0734
  377SOL    HW2 1507   1.263   1.923   0.919  0.3922 -0.0048 -1.5122
  377SOL     MW 1508   1.290   1.965   0.847  0.1310 -0.2618 -0.0063
  378SOL     OW 1509   1.029   2.780   1.561  0.3351  0.2774  0.1965
  378SOL    HW1 1510   0.962   2.707   1.547  2.3650 -1.4916 -1.8129
  378SOL    HW2 1511   0.986   2.856   1.512  0.2232  1.2535 -1.1738
  378SOL     MW 1512   1.014   2.780   1.552  0.5882  0.1728 -0.2494
  379SOL     OW 1513   1.107   1.800   2.262  0.1360 -0.0151 -0.3302
  379SOL    HW1 1514   1.017   1.805   2.241 -1.3861  1.3396  0.4837
  379SOL    HW2 1515   1.144   1.729   2.205  2.2059 -0.1912 -0.2094
  379SOL     MW 1516   1.100   1.791   2.252  0.2082  0.1404 -0.2069
  380SOL     OW 1517   0.880   0.103   1.541 -0.0875 -1.0461  0.0911
  380SOL    HW1 1518   0.901   0.081   1.448  1.7649  3.1964 -1.2889
  380SOL    HW2 1519   0.960   0.112   1.584 -0.0250 -2.8286 -0.3970
  380SOL     MW 1520   0.893   0.101   1.534  0.1652 -0.7216 -0.1553
  381SOL     OW 1521   0.794   1.958   0.771 -0.4996  0.1108 -0.0695
  381SOL    HW1 1522   0.894   1.966   0.761  0.9027  0.8654  1.3242
  381SOL    HW2 1523   0.770   2.014   0.841 -0.0886 -1.7971 -0.0598
  381SOL     MW 1524   0.804   1.967   0.779 -0.2603 -0.0414  0.1156
  382SOL     OW 1525   0.731   0.067   0.716  0.0494  0.3638 -0.1640
  382SOL    HW1 1526   0.729   0.088   0.811  0.3815  1.2315  2.1393
  382SOL    HW2 1527   0.684  -0.021   0.704 -0.0334 -2.3934 -0.3493
  382SOL     MW 1528   0.724   0.058   0.727  0.0823  0.1145  0.1155
  383SOL     OW 1529   0.423   0.050   0.372  0.6543  0.2017 -0.2736
  383SOL    HW1 1530   0.489  -0.010   0.331 -2.9373  0.5340  0.3694
  383SOL    HW2 1531   0.336   0.010   0.370  1.7524 -0.2677  1.4816
  383SOL     MW 1532   0.420   0.037   0.367  0.3253  0.1837  0.0428
  384SOL     OW 1533   0.629   2.914   0.652  0.4329 -0.0035  0.1006
  384SOL    HW1 1534   0.639   2.836   0.698 -1.6527  2.8546 -0.6190
  384SOL    HW2 1535   0.551   2.900   0.594  0.2060 -0.8624  1.1245
  384SOL     MW 1536   0.620   2.901   0.651  0.1278  0.2603  0.1407
  385SOL     OW 1537   1.315   2.071   1.531 -0.1659 -0.2489 -0.6247
  385SOL    HW1 1538   1.379   2.087   1.598 -0.6983 -0.0962 -0.3495
  385SOL    HW2 1539   1.273   1.991   1.563  0.0090  1.8711 -1.8256
  385SOL     MW 1540   1.318   2.063   1.544 -0.2131  0.0510 -0.7469
  386SOL     OW 1541   1.360   0.342   0.816  0.2996 -0.7676  0.0506
  386SOL    HW1 1542   1.270   0.329   0.821  2.5143 -1.7756  1.2436
  386SOL    HW2 1543   1.376   0.387   0.902 -2.4990  1.0769  0.4341
  386SOL     MW 1544   1.350   0.346   0.828  0.2225 -0.6572  0.2586
  387SOL     OW 1545   0.831   2.208   1.473 -0.3811 -0.2523 -0.1779
  387SOL    HW1 1546   0.911   2.256   1.437  1.5209 -1.6454  1.4930
  387SOL    HW2 1547   0.848   2.112   1.439  0.2817  0.1019 -2.7035
  387SOL     MW 1548   0.844   2.202   1.463 -0.0427 -0.3894 -0.2907
  388SOL     OW 1549   1.541   2.780   1.264  0.7797 -0.1789  0.5885
  388SOL    HW1 1550   1.459   2.732   1.249  0.9378 -1.7706  1.1500
  388SOL    HW2 1551   1.606   2.750   1.196  0.4486  2.0101  0.2963
  388SOL     MW 1552   1.539   2.770   1.253  0.7569 -0.1001  0.6240
  389SOL     OW 1553   0.359   0.095   3.093  0.1672 -0.7711 -0.1438
  389SOL    HW1 1554   0.445   0.065   3.059  0.1680 -0.8135  1.9219
  389SOL    HW2 1555   0.286   0.072   3.025 -1.6847 -2.4165 -1.7262
  389SOL     MW 1556   0.361   0.088   3.079 -0.0771 -0.9938 -0.0800
  390SOL     OW 1557   1.328   0.014   0.627 -0.8298 -0.4047  0.1392
  390SOL    HW1 1558   1.402   0.045   0.581 -1.0001 -1.1160 -1.2507
  390SOL    HW2 1559   1.347   0.051   0.714  1.2473  2.1352 -2.3695
  390SOL     MW 1560   1.340   0.023   0.632 -0.5782 -0.1634 -0.3752
  391SOL     OW 1561   0.291   2.264   1.509 -0.2357  0.2522  0.3690
  391SOL    HW1 1562   0.228   2.192   1.518  0.1697 -0.6476 -1.1739
  391SOL    HW2 1563   0.234   2.334   1.465 -0.1743 -1.5720  0.6815
  391SOL     MW 1564   0.275   2.263   1.504 -0.1741 -0.1072  0.2067
  392SOL     OW 1565   1.997   2.203   0.371  0.6006 -0.7278  0.1679
  392SOL    HW1 1566   1.934   2.184   0.443 -0.5121  0.7443  2.1409
  392SOL    HW2 1567   2.063   2.253   0.415 -0.2616  1.5736  1.7313
  392SOL     MW 1568   1.997   2.207   0.386  0.3400 -0.2299  0.6345
  393SOL     OW 1569   0.237   2.988   2.810 -0.0958  0.1342  0.1297
  393SOL    HW1 1570   0.293   3.059   2.793 -1.3476 -1.3308 -0.3163
  393SOL    HW2 1571   0.160   3.008   2.750  2.5626 -0.3052 -0.9097
  393SOL     MW 1572   0.234   3.000   2.800  0.0898 -0.1170 -0.0663
  394SOL     OW 1573   0.868   1.682   1.470 -0.1515 -0.0594  0.0334
  394SOL    HW1 1574   0.837   1.713   1.555  2.0489 -0.6035  0.8930
  394SOL    HW2 1575   0.884   1.765   1.426  2.3592  0.6934  1.1112
  394SOL     MW 1576   0.866   1.697   1.475  0.4701 -0.0318  0.2890
  395SOL     OW 1577   0.961   2.853   2.613  0.4068 -0.2360  0.1983
  395SOL    HW1 1578   0.980   2.944   2.637  2.9681  0.7131  0.1614
  395SOL    HW2 1579   1.059   2.814   2.603  0.4938 -1.3367 -0.1128
  395SOL     MW 1580   0.977   2.860   2.615  0.7562 -0.2560  0.1524
  396SOL     OW 1581   0.824   1.842   2.367  0.7029 -0.0696 -0.0120
  396SOL    HW1 1582   0.894   1.843   2.433 -0.1193 -1.0614  3.8082
  396SOL    HW2 1583   0.776   1.763   2.389  1.2634  1.6596 -1.2056
  396SOL     MW 1584   0.827   1.832   2.379  0.6684  0.0277  0.3346
  397SOL     OW 1585   1.018   2.350   1.363  0.6425  0.3885  0.2753
  397SOL    HW1 1586   1.048   2.375   1.274 -4.1558 -0.5192 -0.4345
  397SOL    HW2 1587   1.097   2.325   1.416  1.7289  0.2340  0.8806
  397SOL     MW 1588   1.033   2.350   1.358  0.1528  0.2484  0.2615
  398SOL     OW 1589   0.656   2.629   0.774  0.1201 -0.5351  0.0508
  398SOL    HW1 1590   0.593   2.568   0.741 -2.0234 -2.6359  1.7250
  398SOL    HW2 1591   0.744   2.610   0.728  1.5098  2.4078 -0.8232
  398SOL     MW 1592   0.659   2.619   0.764  0.0206 -0.4240  0.1564
  399SOL     OW 1593   0.287   2.002   0.435 -0.0678 -0.1745 -0.1367
  399SOL    HW1 1594   0.204   2.058   0.432 -2.8418  1.2016  3.1130
  399SOL    HW2 1595   0.316   2.015   0.340 -1.3158  3.2561 -0.7345
  399SOL     MW 1596   0.280   2.011   0.422 -0.5985  0.4597  0.2132
  400SOL     OW 1597   0.577   1.827   0.154 -0.2357 -0.0428  0.7984
  400SOL    HW1 1598   0.538   1.910   0.162 -1.7309 -0.6071 -0.5424
  400SOL    HW2 1599   0.539   1.780   0.230  2.2791  0.8268 -0.7277
  400SOL     MW 1600   0.567   1.832   0.165 -0.1012 -0.0025  0.4201
  401SOL     OW 1601   0.910   2.077   0.208 -0.3417  0.2659  0.0140
  401SOL    HW1 1602   0.913   1.992   0.176  1.2853  0.7949 -1.3689
  401SOL    HW2 1603   0.998   2.092   0.243 -1.9988  0.0671 -1.2894
  401SOL     MW 1604   0.922   2.068   0.208 -0.3457  0.3095 -0.3404
  402SOL     OW 1605   0.681   2.946   1.689 -0.1098  0.5889 -0.2839
  402SOL    HW1 1606   0.740   2.924   1.764 -1.9847  1.4337 -0.8538
  402SOL    HW2 1607   0.722   3.024   1.643 -0.2008  0.3020 -0.3541
  402SOL     MW 1608   0.694   2.954   1.693 -0.3692  0.6625 -0.3683
  403SOL     OW 1609   0.055   0.385   0.448  0.3911  0.1784 -0.2281
  403SOL    HW1 1610   0.138   0.372   0.497  1.1631 -1.9969  1.1285
  403SOL    HW2 1611   0.078   0.375   0.355  0.4369 -2.8027  1.3632
  403SOL     MW 1612   0.069   0.382   0.442  0.4990 -0.5019  0.1608
  404SOL     OW 1613   0.988   2.872   0.800 -0.2869 -0.5591 -0.0950
  404SOL    HW1 1614   1.010   2.797   0.745  0.1695  1.1107  1.8785
  404SOL    HW2 1615   1.011   2.954   0.752 -0.0719  0.4142 -0.6074
  404SOL     MW 1616   0.994   2.873   0.786 -0.1983 -0.2103  0.0978
  405SOL     OW 1617   0.491   2.443   1.577  0.1510 -0.2316 -0.0378
  405SOL    HW1 1618   0.476   2.522   1.522  0.7613 -2.3286  2.7969
  405SOL    HW2 1619   0.421   2.372   1.549  0.1202 -4.2663  0.9294
  405SOL     MW 1620   0.480   2.444   1.566  0.2275 -1.0406  0.4638
  406SOL     OW 1621   0.406   2.306   1.096 -0.0692  0.2733 -0.2382
  406SOL    HW1 1622   0.320   2.349   1.110 -3.2495 -1.7925  0.1996
  406SOL    HW2 1623   0.392   2.223   1.149 -1.4231 -0.7625  2.1835
  406SOL     MW 1624   0.393   2.301   1.104 -0.6675 -0.1359  0.1390
  407SOL     OW 1625   0.031   2.720   1.113 -0.6102  0.4479 -0.0138
  407SOL    HW1 1626   0.104   2.731   1.179 -0.3902 -1.4222 -1.4016
  407SOL    HW2 1627   0.067   2.669   1.043 -0.2440 -1.6966 -3.9819
  407SOL     MW 1628   0.046   2.715   1.113 -0.5328 -0.0818 -0.7205
  408SOL     OW 1629   2.098   2.045   0.659  0.0271 -0.3403  0.4381
  408SOL    HW1 1630   2.046   2.100   0.717 -0.8582  2.2325 -1.4985
  408SOL    HW2 1631   2.035   1.998   0.609  3.0831  2.8214  0.2712
  408SOL     MW 1632   2.083   2.046   0.660  0.3135  0.4163  0.1606
  409SOL     OW 1633   1.354   0.068   0.887  0.4434  0.1178  0.1836
  409SOL    HW1 1634   1.388   0.157   0.909  1.6674  1.1034  4.4257
  409SOL    HW2 1635   1.408   0.006   0.937 -0.1047  2.4350  0.1598
  409SOL     MW 1636   1.365   0.072   0.897  0.5326  0.5536  0.7402
  410SOL     OW 1637   1.106   2.440   1.134 -0.0732 -0.1570  0.0222
  410SOL    HW1 1638   1.016   2.444   1.097  2.7428 -0.1512 -1.4280
  410SOL    HW2 1639   1.158   2.380   1.074 -0.4535  1.2954 -1.0285
  410SOL     MW 1640   1.101   2.433   1.121  0.2482  0.0354 -0.3078
  411SOL     OW 1641   1.955   0.068   2.859  0.2388 -0.4684  0.3629
  411SOL    HW1 1642   1.880   0.045   2.795 -0.6435 -2.4102 -1.9389
  411SOL    HW2 1643   1.913   0.054   2.943 -0.5435  0.4108  1.4682
  411SOL     MW 1644   1.940   0.063   2.862  0.0191 -0.6086  0.2051
  412SOL     OW 1645   1.084   2.208   0.599 -0.1710  0.0560  0.2799
  412SOL    HW1 1646   1.150   2.273   0.614 -0.0825 -1.5575 -2.9350
  412SOL    HW2 1647   1.005   2.254   0.586  3.1712  0.5282  1.7848
  412SOL     MW 1648   1.082   2.223   0.600  0.2817 -0.0946  0.0543
  413SOL     OW 1649   0.543   2.768   0.089 -0.2437  0.0388  0.0077
  413SOL    HW1 1650   0.616   2.705   0.100  0.1111  0.6725 -0.6413
  413SOL    HW2 1651   0.571   2.804   0.005 -0.0556  1.3371  0.0076
  413SOL     MW 1652   0.557   2.765   0.080 -0.1721  0.2937 -0.0779
  414SOL     OW 1653   1.965   3.014   1.080 -0.3129 -0.9354 -0.7250
  414SOL    HW1 1654   1.947   3.015   0.983 -0.7615 -3.7833  0.6437
  414SOL    HW2 1655   2.043   2.955   1.094  2.3984  1.0580  0.5037
  414SOL     MW 1656   1.973   3.007   1.069 -0.0143 -1.0482 -0.3823
  415SOL     OW 1657   1.703   2.654   1.079 -0.2039 -0.2759  0.4726
  415SOL    HW1 1658   1.665   2.586   1.140 -0.2274 -3.1284 -1.7671
  415SOL    HW2 1659   1.798   2.665   1.104  1.4387 -0.0458 -0.5366
  415SOL     MW 1660   1.711   2.647   1.091  0.0097 -0.6219  0.0439
  416SOL     OW 1661   0.609   1.911   1.365  0.7676 -0.2641 -0.4009
  416SOL    HW1 1662   0.570   1.996   1.350  1.5785  0.6196 -0.3773
  416SOL    HW2 1663   0.599   1.867   1.278 -2.6540 -0.3033 -2.2021
  416SOL     MW 1664   0.603   1.917   1.352  0.4232 -0.1527 -0.6354
  417SOL     OW 1665   1.012   3.055   2.043 -0.2164 -0.0064 -0.3711
  417SOL    HW1 1666   0.943   3.022   2.102  0.4682  0.8603  2.1607
  417SOL    HW2 1667   1.001   3.011   1.960 -0.0973  0.9903  1.1025
  417SOL     MW 1668   1.001   3.045   2.040 -0.1104  0.2394  0.1574
  418SOL     OW 1669   0.639   2.983   0.226 -0.6140 -0.1239 -0.1614
  418SOL    HW1 1670   0.711   2.981   0.161 -0.2487 -2.4569 -0.8172
  418SOL    HW2 1671   0.600   2.899   0.200 -0.9701  3.0757 -1.4104
  418SOL     MW 1672   0.644   2.972   0.214 -0.6128 -0.0095 -0.4127
  419SOL     OW 1673   0.440   2.645   1.381  0.3761 -0.2593  0.2560
  419SOL    HW1 1674   0.496   2.722   1.409  2.2026  0.7133 -1.1246
  419SOL    HW2 1675   0.476   2.603   1.302 -0.0850 -0.3419 -0.2040
  419SOL     MW 1676   0.453   2.650   1.374  0.5562 -0.1419  0.0131
  420SOL     OW 1677   0.764   2.135   0.992 -0.1846 -0.3147  0.0568
  420SOL    HW1 1678   0.701   2.166   1.059 -1.3987 -0.1495  0.2677
  420SOL    HW2 1679   0.809   2.211   0.959 -0.2173  1.3445 -0.0449
  420SOL     MW 1680   0.762   2.149   0.996 -0.3491 -0.0740  0.0712
  421SOL     OW 1681   2.941   0.067   0.035  0.0325  0.1142 -0.2959
  421SOL    HW1 1682   2.923   0.033  -0.056 -1.4813 -1.3139 -0.8827
  421SOL    HW2 1683   2.946  -0.013   0.084  0.6044  3.0051  0.2864
  421SOL     MW 1684   2.939   0.052   0.029 -0.0918  0.3072 -0.2965
  422SOL     OW 1685   0.835   2.458   0.978 -0.3051  0.1604  0.8907
  422SOL    HW1 1686   0.749   2.490   1.003 -1.8103 -2.1567 -2.4249
  422SOL    HW2 1687   0.830   2.463   0.881  0.0251  1.0327 -0.0002
  422SOL     MW 1688   0.823   2.463   0.968 -0.4601 -0.0302  0.3357
  423SOL     OW 1689   1.525   0.161   0.505 -0.0031 -0.2165 -0.0094
  423SOL    HW1 1690   1.540   0.145   0.406 -1.2630  2.9214  0.4650
  423SOL    HW2 1691   1.507   0.253   0.509  3.1550 -1.7768 -0.2534
  423SOL     MW 1692   1.524   0.171   0.492  0.2473 -0.0084  0.0210
  424SOL     OW 1693   0.685   2.261   1.252 -0.1981 -0.7099 -0.0828
  424SOL    HW1 1694   0.606   2.222   1.286  4.6259  1.9119  1.1433
  424SOL    HW2 1695   0.754   2.241   1.315 -0.0561 -0.4689 -0.6576
  424SOL     MW 1696   0.683   2.253   1.265  0.4571 -0.3322  0.0031
  425SOL     OW 1697   1.721   2.825   1.928 -0.2403 -0.0176 -0.1383
  425SOL    HW1 1698   1.751   2.861   1.843  0.2856 -1.5102  0.6203
  425SOL    HW2 1699   1.778   2.746   1.934  0.4676  0.6065 -3.1418
  425SOL     MW 1700   1.732   2.820   1.917 -0.0775 -0.1322 -0.4345
  426SOL     OW 1701   0.805   1.685   1.932  0.5055  0.3692 -0.0036
  426SOL    HW1 1702   0.729   1.673   1.881 -0.7398 -0.1412  0.5741
  426SOL    HW2 1703   0.797   1.763   1.982  2.0822  0.0709  0.8743
  426SOL     MW 1704   0.794   1.694   1.932  0.5492  0.2625  0.1885
  427SOL     OW 1705   0.326   1.550   1.889 -0.2421 -0.2507  0.1544
  427SOL    HW1 1706   0.393   1.585   1.945 -2.4246 -4.1251  0.8190
  427SOL    HW2 1707   0.252   1.532   1.954 -2.7390  1.4577 -1.5066
  427SOL     MW 1708   0.325   1.552   1.905 -0.8595 -0.5365  0.0229
  428SOL     OW 1709   0.563   2.539   1.147 -0.0963  0.2602 -0.5330
  428SOL    HW1 1710   0.648   2.536   1.191 -1.3704 -0.1068 -1.2511
  428SOL    HW2 1711   0.544   2.445   1.136  1.5133  1.5827 -0.4342
  428SOL     MW 1712   0.572   2.526   1.151 -0.0520  0.3862 -0.6147
  429SOL     OW 1713   1.346   2.613   1.082  0.0271 -0.2168  0.2647
  429SOL    HW1 1714   1.266   2.557   1.094 -1.2023 -0.5268 -0.8911
  429SOL    HW2 1715   1.311   2.692   1.032 -0.3621  1.8710  0.2897
  429SOL     MW 1716   1.331   2.616   1.077 -0.1865  0.0178  0.1155
  430SOL     OW 1717   1.122   2.687   0.644 -0.5461  0.2931 -0.4449
  430SOL    HW1 1718   1.129   2.591   0.658  0.6335  0.3944 -0.2508
  430SOL    HW2 1719   1.076   2.689   0.560  0.0049 -1.6393 -0.5754
  430SOL     MW 1720   1.117   2.675   0.635 -0.3178  0.0515 -0.4365
  431SOL     OW 1721   0.343   1.954   1.124 -0.1985 -0.2329 -0.3033
  431SOL    HW1 1722   0.401   1.883   1.097  2.0111 -1.6927 -1.1556
  431SOL    HW2 1723   0.319   2.000   1.048  0.8713 -0.3228 -0.6383
  431SOL     MW 1724   0.347   1.951   1.111  0.2342 -0.4373 -0.4599
  432SOL     OW 1725   0.043   0.081   1.177  0.1565  0.1460  0.2185
  432SOL    HW1 1726   0.055   0.095   1.275  0.7890 -0.8036 -0.9987
  432SOL    HW2 1727  -0.023   0.004   1.166 -1.7084  1.4305 -0.0735
  432SOL     MW 1728   0.036   0.073   1.188 -0.0061  0.1902  0.0194
  433SOL     OW 1729   0.614   2.896   1.425 -0.1691  0.1269 -0.1720
  433SOL    HW1 1730   0.619   2.874   1.518  1.6537 -1.3871 -2.3019
  433SOL    HW2 1731   0.709   2.907   1.402 -2.4447  0.6651 -1.1207
  433SOL     MW 1732   0.628   2.895   1.434 -0.2288 -0.0018 -0.5782
  434SOL     OW 1733   1.553   2.826   1.539  0.4720 -0.3609 -0.8854
  434SOL    HW1 1734   1.472   2.877   1.551 -1.6336 -1.2002  2.6267
  434SOL    HW2 1735   1.550   2.794   1.451  0.6329 -1.9368  1.3123
  434SOL     MW 1736   1.542   2.829   1.529  0.2154 -0.6796 -0.1320
  435SOL     OW 1737   2.864   1.757   0.195 -0.0331  0.2180 -0.3379
  435SOL    HW1 1738   2.922   1.819   0.149 -0.6019  3.6057 -2.1634
  435SOL    HW2 1739   2.841   1.704   0.125  0.0584  0.0825  1.6618
  435SOL     MW 1740   2.869   1.758   0.180 -0.0961  0.6471 -0.3150
  436SOL     OW 1741   1.395   2.744   0.317 -0.0469 -0.0989  0.4379
  436SOL    HW1 1742   1.441   2.718   0.398  0.7462  3.4083  1.0706
  436SOL    HW2 1743   1.349   2.822   0.346 -0.5044 -2.2140 -2.1541
  436SOL     MW 1744   1.395   2.751   0.332 -0.0026  0.0848  0.1794
  437SOL     OW 1745   0.893   2.926   1.363  0.0779 -0.6398 -0.3902
  437SOL    HW1 1746   0.925   3.012   1.326  0.9279  0.3316 -0.5777
  437SOL    HW2 1747   0.932   2.871   1.298 -2.2874 -1.7433 -0.5833
  437SOL     MW 1748   0.902   2.930   1.349 -0.1220 -0.6573 -0.4404
  438SOL     OW 1749   0.902   2.629   1.959  0.3338  0.3480 -0.5323
  438SOL    HW1 1750   0.861   2.591   2.038 -0.9675 -1.1621  0.1572
  438SOL    HW2 1751   0.838   2.592   1.898 -0.2877 -0.9442  2.7125
  438SOL     MW 1752   0.888   2.619   1.962  0.0801 -0.0217 -0.0132
  439SOL     OW 1753   1.151   2.178   0.332 -0.3713 -0.2289  0.1023
  439SOL    HW1 1754   1.104   2.163   0.417 -0.3571  1.8659  2.8590
  439SOL    HW2 1755   1.137   2.271   0.302  2.6394  1.3388  0.1331
  439SOL     MW 1756   1.143   2.188   0.340  0.0278  0.2543  0.4701
  440SOL     OW 1757   1.604   2.943   3.032 -0.0879 -1.1383 -0.1347
  440SOL    HW1 1758   1.561   2.947   3.119  0.5403 -3.8426 -0.9232
  440SOL    HW2 1759   1.651   2.858   3.035 -0.3029  1.3323  1.2929
  440SOL     MW 1760   1.605   2.933   3.044 -0.0334 -1.1691 -0.0504
  441SOL     OW 1761   0.344   2.581   0.522  0.0897 -0.0434 -0.1884
  441SOL    HW1 1762   0.318   2.559   0.432 -2.3550 -1.0605 -0.5963
  441SOL    HW2 1763   0.372   2.674   0.509  1.3513 -0.9785  0.4356
  441SOL     MW 1764   0.345   2.591   0.509 -0.0664 -0.3009 -0.1599
  442SOL     OW 1765   3.055   2.296   0.639 -0.6107 -0.4912 -0.0791
  442SOL    HW1 1766   3.065   2.390   0.624  1.8582  0.1755  3.8484
  442SOL    HW2 1767   2.976   2.282   0.692 -0.8744 -1.2201 -1.7571
  442SOL     MW 1768   3.046   2.307   0.644 -0.3198 -0.4994  0.2177
  443SOL     OW 1769   1.350   1.737   1.825  0.0792 -0.1715  0.4803
  443SOL    HW1 1770   1.303   1.780   1.746 -1.9590 -0.5360 -1.0314
  443SOL    HW2 1771   1.294   1.660   1.822 -0.1973  1.1362 -0.8252
  443SOL     MW 1772   1.336   1.733   1.814 -0.2262 -0.0470  0.1086
  444SOL     OW 1773   0.847   2.581   1.547  0.4705  0.4756 -0.2106
  444SOL    HW1 1774   0.896   2.496   1.560  3.9708 -1.1431  2.4900
  444SOL    HW2 1775   0.782   2.578   1.622  0.5117 -0.8780  1.2618
  444SOL     MW 1776   0.845   2.569   1.558  0.9378  0.0834  0.3400
  445SOL     OW 1777   0.970   0.055   1.279 -0.3429 -0.0763  0.0595
  445SOL    HW1 1778   0.936   0.147   1.280  0.9892  2.0533  4.0110
  445SOL    HW2 1779   1.037   0.060   1.214 -2.9545 -0.0293 -1.5198
  445SOL     MW 1780   0.975   0.068   1.271 -0.5117  0.2109  0.3725
  446SOL     OW 1781   2.717   2.833   1.049 -0.5937 -0.7406  0.1292
  446SOL    HW1 1782   2.643   2.851   0.989 -2.2010 -1.8143  0.2863
  446SOL    HW2 1783   2.761   2.751   1.021 -0.1474 -0.8735 -1.1255
  446SOL     MW 1784   2.713   2.824   1.038 -0.7468 -0.8998 -0.0156
  447SOL     OW 1785   3.045   2.025   1.712  0.0974  0.5220  0.2558
  447SOL    HW1 1786   3.114   1.961   1.740 -1.4350  2.3742 -0.5556
  447SOL    HW2 1787   2.981   1.989   1.646  0.4525 -0.5733 -1.6322
  447SOL     MW 1788   3.046   2.012   1.707 -0.0579  0.6219 -0.1003
  448SOL     OW 1789   1.681   2.333   1.663 -0.5515  0.5662 -0.2906
  448SOL    HW1 1790   1.604   2.282   1.697  1.5449  2.8994  0.3363
  448SOL    HW2 1791   1.639   2.425   1.676 -0.1171 -1.4825 -1.8529
  448SOL     MW 1792   1.665   2.338   1.669 -0.2176  0.6038 -0.4140
  449SOL     OW 1793   0.816   2.971   0.450 -0.8319 -0.3367  0.0004
  449SOL    HW1 1794   0.758   2.991   0.375  0.0530  0.5393 -0.4307
  449SOL    HW2 1795   0.758   2.952   0.524 -0.4617  0.5287  1.2505
  449SOL     MW 1796   0.801   2.971   0.450 -0.6663 -0.1069  0.1085
  450SOL     OW 1797   1.232   2.416   0.687 -0.0502 -0.1380  0.1190
  450SOL    HW1 1798   1.232   2.379   0.775 -1.2217 -2.8531  0.8264
  450SOL    HW2 1799   1.321   2.441   0.661  0.1020 -0.9077  0.0299
  450SOL     MW 1800   1.244   2.414   0.695 -0.1847 -0.5978  0.2006
  451SOL     OW 1801   0.587   2.035   1.657 -0.2478 -0.2161  0.1619
  451SOL    HW1 1802   0.676   2.082   1.679  2.8561 -0.1369 -0.8604
  451SOL    HW2 1803   0.564   2.065   1.571  0.1760  2.6819 -0.1931
  451SOL     MW 1804   0.596   2.045   1.649  0.2176  0.1767 -0.0198
  452SOL     OW 1805   0.279   2.738   0.138 -0.3006 -0.3250 -0.5005
  452SOL    HW1 1806   0.373   2.736   0.136  1.2495 -0.7798 -0.2300
  452SOL    HW2 1807   0.252   2.715   0.043 -0.0171  2.3384 -0.4878
  452SOL     MW 1808   0.288   2.735   0.126 -0.0587 -0.0336 -0.4632
  453SOL     OW 1809   0.406   2.971   1.702  0.1813  0.0616  0.1402
  453SOL    HW1 1810   0.503   2.967   1.715 -0.0816 -1.3691  3.6021
  453SOL    HW2 1811   0.391   3.001   1.608  0.8376  0.9248  1.3290
  453SOL     MW 1812   0.416   2.974   1.691  0.2332 -0.0133  0.7538
  454SOL     OW 1813   1.039   2.791   1.152 -0.4208 -0.2254  1.2986
  454SOL    HW1 1814   0.997   2.704   1.154 -0.9787 -1.9249  0.6917
  454SOL    HW2 1815   0.992   2.847   1.091 -0.6522  1.3114  0.5842
  454SOL     MW 1816   1.027   2.787   1.144 -0.5249 -0.2469  1.1243
  455SOL     OW 1817   1.547   2.970   0.202 -0.3406 -0.3771 -0.0996
  455SOL    HW1 1818   1.619   2.951   0.263 -3.0335  0.5113  2.0558
  455SOL    HW2 1819   1.490   2.897   0.225 -1.9227 -0.3761  0.2390
  455SOL     MW 1820   1.549   2.958   0.213 -0.9047 -0.2597  0.2295
  456SOL     OW 1821   2.906   0.358   1.339 -0.2303  1.0278 -0.4726
  456SOL    HW1 1822   2.873   0.279   1.291 -1.1074 -3.8411 -0.4105
  456SOL    HW2 1823   2.976   0.397   1.281 -1.3604  1.9965  0.4972
  456SOL     MW 1824   2.911   0.352   1.325 -0.4951  0.5132 -0.3365
  457SOL     OW 1825   0.868   1.550   2.994  0.9517  0.0209 -0.0335
  457SOL    HW1 1826   0.797   1.553   3.064 -0.4799  2.4407 -1.5206
  457SOL    HW2 1827   0.927   1.487   3.033 -1.4748  2.2287 -0.0267
  457SOL     MW 1828   0.866   1.542   3.008  0.4427  0.6315 -0.2288
  458SOL     OW 1829   1.474   1.402   0.633  0.0768 -0.0365 -0.3569
  458SOL    HW1 1830   1.390   1.437   0.657 -0.6056  1.1033  1.4345
  458SOL    HW2 1831   1.461   1.350   0.556  0.9937  2.9847  2.2421
  458SOL     MW 1832   1.461   1.400   0.626  0.1077  0.5125  0.2223
  459SOL     OW 1833   1.551   0.141   0.246  0.1701  0.3834  0.0763
  459SOL    HW1 1834   1.523   0.051   0.218 -0.2802  0.7325  1.1874
  459SOL    HW2 1835   1.498   0.196   0.183  2.4131 -0.1486  1.0203
  459SOL     MW 1836   1.541   0.136   0.234  0.4066  0.3593  0.3475
  460SOL     OW 1837   1.729   2.153   0.620  0.3468 -0.3177  0.3086
  460SOL    HW1 1838   1.660   2.122   0.683 -2.8402  2.4619  2.8202
  460SOL    HW2 1839   1.767   2.072   0.568 -2.3379  0.7309 -3.8813
  460SOL     MW 1840   1.725   2.138   0.622 -0.4279  0.1874  0.0872
  461SOL     OW 1841   0.562   2.435   0.622  0.2610  0.3930 -0.2475
  461SOL    HW1 1842   0.484   2.484   0.592 -0.9897  0.3937  3.3143
  461SOL    HW2 1843   0.515   2.419   0.709 -1.6792  1.2323 -0.8616
  461SOL     MW 1844   0.545   2.439   0.629 -0.1600  0.5038  0.1414
  462SOL     OW 1845   0.320   0.253   1.262 -0.8662 -0.1798 -0.0625
  462SOL    HW1 1846   0.360   0.206   1.197  1.1521 -0.0365 -0.4725
  462SOL    HW2 1847   0.394   0.296   1.315 -1.8814  0.4799 -1.8897
  462SOL     MW 1848   0.335   0.253   1.261 -0.7338 -0.0738 -0.3577
  463SOL     OW 1849   1.001   0.046   0.707 -0.2800  0.0454 -0.4901
  463SOL    HW1 1850   1.035   0.032   0.619 -2.2398  0.1395 -1.3635
  463SOL    HW2 1851   0.903   0.058   0.699 -0.0042 -0.6653 -1.1423
  463SOL     MW 1852   0.993   0.046   0.694 -0.5022 -0.0359 -0.6914
  464SOL     OW 1853   0.741   2.938   2.160 -0.1240 -0.0953  0.0502
  464SOL    HW1 1854   0.690   2.858   2.188  1.7500  1.1069 -1.7216
  464SOL    HW2 1855   0.776   2.961   2.245  0.5987 -1.9936  3.3627
  464SOL     MW 1856   0.739   2.930   2.175  0.2186 -0.1872  0.2535
  465SOL     OW 1857   0.738   0.251   0.510 -0.5526  0.6255  0.3497
  465SOL    HW1 1858   0.718   0.191   0.586  2.3816  0.8631  0.8785
  465SOL    HW2 1859   0.738   0.186   0.441  0.7932  0.3338  1.2805
  465SOL     MW 1860   0.736   0.234   0.511  0.0121  0.6183  0.5423
  466SOL     OW 1861   1.058   1.964   0.722  0.2127  0.2221 -0.2313
  466SOL    HW1 1862   1.062   1.898   0.648  3.4139  1.5209 -1.2538
  466SOL    HW2 1863   1.065   2.052   0.682 -0.4289  0.9393  1.2996
  466SOL     MW 1864   1.059   1.967   0.707  0.5504  0.4881 -0.1643
  467SOL     OW 1865   1.226   2.264   0.958  0.1592 -0.3311 -0.3285
  467SOL    HW1 1866   1.322   2.291   0.963  0.1101  1.8094 -1.3541
  467SOL    HW2 1867   1.236   2.169   0.962  0.6114 -3.2775 -1.9824
  467SOL     MW 1868   1.240   2.255   0.959  0.2124 -0.4375 -0.6821
  468SOL     OW 1869   0.347   2.608   2.005  0.5687 -0.6310 -0.0663
  468SOL    HW1 1870   0.388   2.533   1.966 -0.1439 -0.1940 -2.4073
  468SOL    HW2 1871   0.387   2.676   1.954 -1.2318  0.4902  3.8088
  468SOL     MW 1872   0.358   2.607   1.993  0.2371 -0.4254  0.1361
  469SOL     OW 1873   0.395   2.132   1.822 -0.1998  0.1953 -0.3455
  469SOL    HW1 1874   0.321   2.069   1.806  0.3504  1.9907  2.0228
  469SOL    HW2 1875   0.460   2.106   1.755 -3.2913  2.6338 -2.0804
  469SOL     MW 1876   0.394   2.120   1.811 -0.5351  0.7539 -0.2619
  470SOL     OW 1877   3.041   2.543   0.166 -0.3488  0.3116 -0.1251
  470SOL    HW1 1878   2.962   2.494   0.199 -1.3057 -1.1188 -3.4699
  470SOL    HW2 1879   3.039   2.557   0.073 -2.1692  0.8513 -0.0620
  470SOL     MW 1880   3.031   2.539   0.158 -0.7153  0.1941 -0.5581
  471SOL     OW 1881   1.224   2.744   1.344  0.6762  0.1146  0.1164
  471SOL    HW1 1882   1.176   2.733   1.430  2.0496 -3.3318  2.5278
  471SOL    HW2 1883   1.155   2.759   1.273 -1.2203 -2.7932  1.9308
  471SOL     MW 1884   1.209   2.744   1.346  0.6072 -0.7238  0.6739
  472SOL     OW 1885   2.904   2.101   0.327 -0.3225 -0.2307 -0.2481
  472SOL    HW1 1886   2.914   2.073   0.233  0.0723 -0.9596  3.3220
  472SOL    HW2 1887   2.894   2.012   0.373 -1.2066 -0.0422 -2.1900
  472SOL     MW 1888   2.904   2.086   0.321 -0.3870 -0.3020 -0.0333
  473SOL     OW 1889   0.779   2.543   1.295  0.1250  0.1538 -0.9159
  473SOL    HW1 1890   0.809   2.454   1.280 -2.0570 -1.0213 -3.1524
  473SOL    HW2 1891   0.803   2.577   1.384 -1.0898  2.2745  0.7714
  473SOL     MW 1892   0.786   2.536   1.305 -0.3232  0.2785 -0.9883
  474SOL     OW 1893   0.784   2.230   1.735 -0.3571  0.5316 -0.2624
  474SOL    HW1 1894   0.869   2.192   1.775  1.9334 -1.0081  0.1016
  474SOL    HW2 1895   0.790   2.236   1.633 -1.0713 -1.4636 -1.5597
  474SOL     MW 1896   0.796   2.226   1.727 -0.1491  0.0652 -0.3855
  475SOL     OW 1897   1.631   3.074   1.435 -0.0021  0.5368  0.1838
  475SOL    HW1 1898   1.547   3.104   1.398 -2.5359  1.1825 -0.3255
  475SOL    HW2 1899   1.620   2.979   1.453 -0.3530  0.5814 -0.3186
  475SOL     MW 1900   1.619   3.065   1.432 -0.3827  0.6279  0.0503
  476SOL     OW 1901   1.465   2.594   0.807  0.4258 -0.5007 -0.1595
  476SOL    HW1 1902   1.409   2.593   0.890  0.0019  3.3339 -0.8532
  476SOL    HW2 1903   1.491   2.686   0.796 -2.3870 -1.1161  0.1503
  476SOL     MW 1904   1.461   2.606   0.817 -0.0012 -0.0760 -0.2101
  477SOL     OW 1905   0.874   2.505   0.664 -0.9986 -0.0734  0.3008
  477SOL    HW1 1906   0.896   2.571   0.607  4.0227  0.7002  2.2225
  477SOL    HW2 1907   0.830   2.441   0.608  0.1927 -1.3630  0.3353
  477SOL     MW 1908   0.871   2.506   0.649 -0.1789 -0.1415  0.5589
  478SOL     OW 1909   0.238   2.618   0.906 -0.0676  0.4948 -0.1453
  478SOL    HW1 1910   0.291   2.708   0.920  0.1053  2.1481 -0.8733
  478SOL    HW2 1911   0.308   2.560   0.873  1.8888  1.7649  1.6097
  478SOL     MW 1912   0.254   2.622   0.904  0.2133  0.8805 -0.0098
  479SOL     OW 1913   1.396   1.945   1.299  0.2887 -0.1493 -0.2547
  479SOL    HW1 1914   1.359   2.002   1.370 -2.8634  0.0422  3.5050
  479SOL    HW2 1915   1.460   1.889   1.342 -0.6176 -0.7618  0.8808
  479SOL     MW 1916   1.399   1.945   1.314 -0.2468 -0.2049  0.3911
  480SOL     OW 1917   1.849   2.385   1.296  0.1325  0.5628  0.2861
  480SOL    HW1 1918   1.876   2.298   1.329  0.7289 -0.7396  0.0440
  480SOL    HW2 1919   1.882   2.389   1.205 -0.6652 -1.3906 -0.2175
  480SOL     MW 1920   1.857   2.374   1.288  0.1059  0.1332  0.1877
  481SOL     OW 1921   1.213   0.120   1.106 -0.0566  0.1961  0.1269
  481SOL    HW1 1922   1.253   0.086   1.023  0.2542  1.4609 -3.1863
  481SOL    HW2 1923   1.220   0.216   1.099 -1.6604 -0.9392 -1.0315
  481SOL     MW 1924   1.219   0.128   1.094 -0.2272  0.2132 -0.4631
  482SOL     OW 1925   1.046   0.038   0.427  0.3631 -0.1193  0.2303
  482SOL    HW1 1926   0.959  -0.002   0.420  1.6703 -1.5043  1.4296
  482SOL    HW2 1927   1.038   0.132   0.412 -0.1214  0.2955  0.0109
  482SOL     MW 1928   1.033   0.045   0.424  0.4716 -0.2473  0.3596
  483SOL     OW 1929   0.360   2.849   0.554  0.5787  0.1876 -0.2752
  483SOL    HW1 1930   0.330   2.921   0.500  2.0812 -1.0775  3.2100
  483SOL    HW2 1931   0.350   2.896   0.638  1.8356  1.3505  0.8757
  483SOL     MW 1932   0.355   2.865   0.558  0.9428  0.1741  0.3365
  484SOL     OW 1933   1.671   1.853   1.452 -0.2116 -0.3397 -0.1600
  484SOL    HW1 1934   1.716   1.930   1.415  1.7066  2.0306 -1.5286
  484SOL    HW2 1935   1.692   1.849   1.545 -0.1218 -2.0384  0.1385
  484SOL     MW 1936   1.680   1.863   1.459  0.0533 -0.2511 -0.3012
  485SOL     OW 1937   0.556   2.303   0.357 -0.7379 -0.8082 -0.0250
  485SOL    HW1 1938   0.570   2.347   0.443  6.4773  1.7660 -1.4087
  485SOL    HW2 1939   0.587   2.368   0.297  2.3832  4.2462  1.3508
  485SOL     MW 1940   0.562   2.317   0.361  0.6259  0.1983 -0.0260
  486SOL     OW 1941   0.107   2.468   1.433 -0.4996  0.3282 -0.1660
  486SOL    HW1 1942   0.118   2.562   1.393  2.9731 -1.5383  0.5705
  486SOL    HW2 1943   0.109   2.479   1.530  1.7622  0.4176 -2.1137
  486SOL     MW 1944   0.109   2.482   1.440  0.2570  0.0938 -0.3258
  487SOL     OW 1945   1.272   1.620   0.967 -0.4396  0.4388  0.5410
  487SOL    HW1 1946   1.224   1.699   0.976 -0.9660  0.2849 -1.6266
  487SOL    HW2 1947   1.362   1.635   0.994 -0.1723 -0.1356  0.5799
  487SOL     MW 1948   1.277   1.632   0.972 -0.4738  0.3427  0.2602
  488SOL     OW 1949   1.526   1.871   0.585  0.2576  0.3295 -0.3976
  488SOL    HW1 1950   1.510   1.927   0.508  1.1228 -0.4438  0.2442
  488SOL    HW2 1951   1.448   1.818   0.591  0.3927  2.1592 -2.2436
  488SOL     MW 1952   1.513   1.872   0.575  0.3896  0.4689 -0.5565
  489SOL     OW 1953   0.743   0.774   0.504  0.3662 -0.1866 -0.0491
  489SOL    HW1 1954   0.799   0.705   0.468 -0.1426  2.8141 -2.9993
  489SOL    HW2 1955   0.719   0.756   0.591  3.2504 -1.4464 -0.0083
  489SOL     MW 1956   0.747   0.763   0.511  0.6796  0.0431 -0.4330
  490SOL     OW 1957   1.404   2.078   0.412  0.2708  0.5611 -0.5430
  490SOL    HW1 1958   1.474   2.141   0.386  0.6937  0.2610 -0.4602
  490SOL    HW2 1959   1.325   2.121   0.380 -0.2525  0.0341  1.0630
  490SOL     MW 1960   1.402   2.092   0.404  0.2576  0.4519 -0.3201
  491SOL     OW 1961   1.248   2.962   0.393 -0.2821 -0.5007 -0.2763
  491SOL    HW1 1962   1.278   2.995   0.477 -0.2400 -0.5511 -0.9648
  491SOL    HW2 1963   1.168   3.013   0.373 -1.8858  3.2344 -1.2351
  491SOL     MW 1964   1.241   2.973   0.401 -0.4882 -0.0145 -0.4936
  492SOL     OW 1965   1.443   2.140   0.694  0.4657 -0.3577  0.3507
  492SOL    HW1 1966   1.430   2.097   0.612 -0.8377 -0.7788  0.8616
  492SOL    HW2 1967   1.398   2.075   0.753 -1.1457 -0.7914  1.1499
  492SOL     MW 1968   1.435   2.125   0.691  0.0811 -0.4705  0.5235
  493SOL     OW 1969   0.205   2.992   0.383 -0.6830 -0.1565 -0.5559
  493SOL    HW1 1970   0.125   3.009   0.438 -3.3391  0.7082 -2.8454
  493SOL    HW2 1971   0.174   2.991   0.289 -0.0798 -0.3668 -0.7303
  493SOL     MW 1972   0.190   2.994   0.378 -0.9539 -0.0702 -0.8810
  494SOL     OW 1973   0.392   2.411   1.816 -0.0693  0.0628  0.1251
  494SOL    HW1 1974   0.391   2.313   1.839  1.2608  1.7378  1.4385
  494SOL    HW2 1975   0.430   2.426   1.727 -0.9102 -0.3441 -2.4610
  494SOL     MW 1976   0.397   2.400   1.807 -0.0048  0.2301 -0.0428
  495SOL     OW 1977   2.914   1.656   2.726 -0.3224 -0.0278  0.0244
  495SOL    HW1 1978   2.859   1.727   2.755  1.9562 -1.2786  0.0414
  495SOL    HW2 1979   2.911   1.598   2.804  1.6914 -2.5441  0.6556
  495SOL     MW 1980   2.907   1.658   2.740  0.2440 -0.5249  0.1099
  496SOL     OW 1981   2.755   2.259   2.710 -0.1857  0.0555 -0.0102
  496SOL    HW1 1982   2.754   2.163   2.708  1.5435 -1.2099 -2.6665
  496SOL    HW2 1983   2.847   2.289   2.721  1.6437  1.1181  1.1787
  496SOL     MW 1984   2.767   2.250   2.711  0.2838  0.0287 -0.2038
  497SOL     OW 1985   1.504   2.333   2.532  0.2487  0.3299 -0.3177
  497SOL    HW1 1986   1.515   2.266   2.454  0.0356 -0.0852 -3.5927
  497SOL    HW2 1987   1.470   2.277   2.602  0.2848 -0.3385  1.1991
  497SOL     MW 1988   1.501   2.316   2.531  0.2254  0.1870 -0.5497
  498SOL     OW 1989   1.527   2.799   2.274  0.4264 -0.2383 -0.4866
  498SOL    HW1 1990   1.537   2.707   2.252  0.3404  0.5996  0.1322
  498SOL    HW2 1991   1.606   2.820   2.328  2.9200 -0.9640  0.7642
  498SOL     MW 1992   1.538   2.790   2.278  0.7440 -0.2235 -0.2399
  499SOL     OW 1993   0.930   0.144   0.054 -0.4348 -0.0780 -0.7152
  499SOL    HW1 1994   0.859   0.183   0.105  1.3180  2.2724 -2.4019
  499SOL    HW2 1995   0.899   0.055   0.045  1.0744 -0.9761 -0.6237
  499SOL     MW 1996   0.916   0.138   0.060 -0.0044  0.1136 -0.9257
  500SOL     OW 1997   1.033   2.495   2.763  0.3050 -0.5757  0.2740
  500SOL    HW1 1998   1.095   2.496   2.837 -0.6103 -0.0712  1.9194
  500SOL    HW2 1999   0.962   2.559   2.787 -0.5883 -1.0105  0.0498
  500SOL     MW 2000   1.032   2.503   2.776  0.0664 -0.5665  0.4615
  501SOL     OW 2001   1.720   2.217   0.019  0.0973 -0.3237  0.0123
  501SOL    HW1 2002   1.725   2.315   0.016  0.2952  0.1268  2.4838
  501SOL    HW2 2003   1.814   2.197   0.020  0.3518  0.4351 -0.4906
  501SOL     MW 2004   1.733   2.228   0.019  0.1570 -0.1641  0.2721
  502SOL     OW 2005   0.177   2.704   2.970 -0.5257  0.5191 -0.2449
  502SOL    HW1 2006   0.091   2.674   2.939 -0.0663  0.7402  1.3888
  502SOL    HW2 2007   0.212   2.771   2.909 -0.9641 -0.3732 -1.4061
  502SOL     MW 2008   0.170   2.709   2.958 -0.5229  0.4306 -0.1826
  503SOL     OW 2009   1.138   2.599   2.115  0.3251  0.2588 -0.2533
  503SOL    HW1 2010   1.197   2.615   2.046 -1.3064 -3.3505 -0.6253
  503SOL    HW2 2011   1.057   2.618   2.069  1.7386  1.3491 -2.3129
  503SOL     MW 2012   1.135   2.604   2.100  0.2964 -0.0736 -0.5741
  504SOL     OW 2013   0.092   2.615   2.109 -0.3602  0.4065 -0.4346
  504SOL    HW1 2014   0.172   2.607   2.059  0.3934 -3.3839  1.3112
  504SOL    HW2 2015   0.090   2.534   2.152 -0.6626  0.0414 -1.0675
  504SOL     MW 2016   0.102   2.603   2.108 -0.3007 -0.1418 -0.2877
  505SOL     OW 2017   1.626   2.676   2.711  0.2985 -0.4083 -0.3677
  505SOL    HW1 2018   1.671   2.697   2.625  0.9133 -1.2864 -4.8629
  505SOL    HW2 2019   1.562   2.741   2.732  0.6737 -2.1301  0.6255
  505SOL     MW 2020   1.623   2.687   2.703  0.4291 -0.7513 -0.8298
  506SOL     OW 2021   1.598   0.030   2.813  0.0695 -0.0121  0.2730
  506SOL    HW1 2022   1.616  -0.036   2.882  0.6605  2.3251 -3.2483
  506SOL    HW2 2023   1.644   0.004   2.733  0.0539 -0.0849 -1.6695
  506SOL     MW 2024   1.607   0.018   2.811  0.1454  0.2867 -0.4479
  507SOL     OW 2025   0.869   2.695   2.847  0.4221 -0.1935 -0.0400
  507SOL    HW1 2026   0.900   2.742   2.769 -1.8019  1.3661  0.2071
  507SOL    HW2 2027   0.777   2.671   2.822 -1.5493 -0.3696  0.6330
  507SOL     MW 2028   0.861   2.698   2.833 -0.1314 -0.0110  0.0814
  508SOL     OW 2029   1.135   2.070   2.594  0.0129  0.1613 -0.3243
  508SOL    HW1 2030   1.211   2.123   2.636  1.0898  0.5260  0.0055
  508SOL    HW2 2031   1.056   2.091   2.646 -0.5879  1.1109  1.3769
  508SOL     MW 2032   1.135   2.080   2.607  0.0757  0.3347 -0.0563
  509SOL     OW 2033   0.614   2.565   2.834 -0.6488  0.0170  0.0585
  509SOL    HW1 2034   0.632   2.534   2.745  3.0941  0.3287 -0.0965
  509SOL    HW2 2035   0.535   2.613   2.827 -1.2381 -1.5911  2.4169
  509SOL     MW 2036   0.606   2.568   2.821 -0.2327 -0.1541  0.3492
  510SOL     OW 2037   1.517   2.581   1.672 -0.6261  0.1067  0.4066
  510SOL    HW1 2038   1.532   2.675   1.648  1.9061  2.6037 -1.2905
  510SOL    HW2 2039   1.441   2.585   1.729  1.2520 -0.1322  0.4325
  510SOL     MW 2040   1.509   2.594   1.676 -0.0442  0.4046  0.1861
  511SOL     OW 2041   0.332   2.529   2.519 -0.6093  0.5543  0.0397
  511SOL    HW1 2042   0.419   2.489   2.544  0.1505  0.6168  2.3621
  511SOL    HW2 2043   0.340   2.546   2.422  1.7274  0.7999  1.4680
  511SOL     MW 2044   0.344   2.526   2.510 -0.2008  0.5949  0.5346
  512SOL     OW 2045   1.038   2.001   2.856  0.0176 -0.4204  0.1456
  512SOL    HW1 2046   0.979   2.056   2.905  2.2972  0.4711 -0.5134
  512SOL    HW2 2047   1.044   1.909   2.888  1.7624  1.0212  2.3048
  512SOL     MW 2048   1.031   1.996   2.867  0.5486 -0.1126  0.3436
  513SOL     OW 2049   1.589   2.538   2.158  0.6759 -0.2132 -0.1428
  513SOL    HW1 2050   1.671   2.559   2.109 -2.9131 -1.6142  2.5427
  513SOL    HW2 2051   1.628   2.472   2.222  2.6255  1.0263  1.2018
  513SOL     MW 2052   1.605   2.532   2.160  0.4596 -0.2345  0.3890
  514SOL     OW 2053   0.166   2.364   2.649 -0.0573  0.2214  0.2921
  514SOL    HW1 2054   0.234   2.431   2.625  0.2361  0.1009 -1.8399
  514SOL    HW2 2055   0.212   2.322   2.722 -0.7910 -3.0051 -2.6480
  514SOL     MW 2056   0.181   2.367   2.655 -0.1154 -0.2202 -0.3771
  515SOL     OW 2057   1.100   1.927   1.839 -0.3189  0.1122  0.3040
  515SOL    HW1 2058   1.091   2.029   1.828 -0.8389  0.1491 -0.5696
  515SOL    HW2 2059   1.162   1.921   1.908 -0.4280 -1.8331  0.9587
  515SOL     MW 2060   1.107   1.940   1.847 -0.4019 -0.1396  0.2751
  516SOL     OW 2061   1.353   2.554   2.944  0.7230 -0.2985  0.0162
  516SOL    HW1 2062   1.350   2.551   2.849 -1.3281 -1.3520 -0.4483
  516SOL    HW2 2063   1.286   2.490   2.971 -1.0938 -1.5965 -0.5267
  516SOL     MW 2064   1.344   2.545   2.935  0.2127 -0.6088 -0.1167
  517SOL     OW 2065   0.614   2.372   2.294  0.4035 -0.2113 -0.0988
  517SOL    HW1 2066   0.557   2.413   2.356  0.5218  1.2677  1.9141
  517SOL    HW2 2067   0.558   2.322   2.235 -2.2207 -3.0173  3.1625
  517SOL     MW 2068   0.599   2.370   2.294  0.0728 -0.3864  0.5971
  518SOL     OW 2069   1.784   0.043   3.094 -0.1335 -0.5376 -0.1697
  518SOL    HW1 2070   1.792   0.113   3.158  1.4575  1.1793  0.9260
  518SOL    HW2 2071   1.704  -0.011   3.089 -1.3859 -0.1672 -1.8906
  518SOL     MW 2072   1.774   0.045   3.102 -0.0888 -0.2622 -0.2521
  519SOL     OW 2073   0.745   2.499   1.790  0.1180  0.1837 -0.0279
  519SOL    HW1 2074   0.768   2.407   1.791 -0.4841 -1.9214  1.8603
  519SOL    HW2 2075   0.653   2.507   1.803  0.5099  2.2146 -0.0645
  519SOL     MW 2076   0.736   2.488   1.792  0.0902  0.1739  0.2164
  520SOL     OW 2077   1.239   2.166   2.936 -0.5078  0.5522 -0.1524
  520SOL    HW1 2078   1.186   2.093   2.896  2.2693 -0.5477  0.0782
  520SOL    HW2 2079   1.286   2.121   3.009 -0.6009  1.3777 -1.5190
  520SOL     MW 2080   1.238   2.151   2.941 -0.1536  0.5160 -0.3023
  521SOL     OW 2081   1.793   2.082   2.234 -0.1745  0.6734 -0.1549
  521SOL    HW1 2082   1.801   2.085   2.139 -0.9780 -1.3973  0.6337
  521SOL    HW2 2083   1.799   1.987   2.241 -0.2836  2.0699  2.1999
  521SOL     MW 2084   1.795   2.070   2.222 -0.2949  0.5845  0.2598
  522SOL     OW 2085   2.885   2.538   2.238 -0.0057  0.3496  0.2916
  522SOL    HW1 2086   2.970   2.506   2.246  0.6381 -1.9434  0.6588
  522SOL    HW2 2087   2.898   2.637   2.235  1.1093 -2.3029 -0.6585
  522SOL     MW 2088   2.898   2.547   2.239  0.2264 -0.3029  0.2147
  523SOL     OW 2089   0.833   1.523   2.147  0.2629  0.0053  0.0342
  523SOL    HW1 2090   0.817   1.578   2.072  1.4157  0.5257 -0.2322
  523SOL    HW2 2091   0.854   1.436   2.113  3.5749 -0.4172  0.2530
  523SOL     MW 2092   0.834   1.519   2.132  0.8520  0.0182  0.0279
  524SOL     OW 2093   0.590   2.341   2.976 -0.6587 -0.0087 -0.2941
  524SOL    HW1 2094   0.610   2.425   2.928  1.2305  2.6040  2.4283
  524SOL    HW2 2095   0.669   2.280   2.965  1.5734 -2.1147 -0.8205
  524SOL     MW 2096   0.603   2.344   2.968 -0.1149  0.0582 -0.0043
  525SOL     OW 2097   0.454   2.220   2.121  0.3510 -0.0316  0.0752
  525SOL    HW1 2098   0.421   2.137   2.147  1.0719 -2.2057  1.3015
  525SOL    HW2 2099   0.515   2.204   2.044 -0.6095 -2.7275 -0.3600
  525SOL     MW 2100   0.458   2.207   2.115  0.3194 -0.6742  0.1796
  526SOL     OW 2101   0.714   2.166   1.983  0.2962 -0.0083 -0.4476
  526SOL    HW1 2102   0.729   2.188   1.897 -2.5177 -0.7042  2.2301
  526SOL    HW2 2103   0.792   2.185   2.038 -0.7296  0.0375 -2.4352
  526SOL     MW 2104   0.727   2.171   1.979 -0.2104 -0.0941 -0.3565
  527SOL     OW 2105   1.275   1.899   2.040  0.0236 -0.2870  0.6149
  527SOL    HW1 2106   1.243   1.872   2.127 -0.1422 -0.1289  0.9472
  527SOL    HW2 2107   1.291   1.817   1.997  2.1823  2.1675 -0.3305
  527SOL     MW 2108   1.273   1.884   2.046  0.2865  0.0577  0.5340
  528SOL     OW 2109   0.666   2.910   2.943  0.2041  0.3760 -0.5831
  528SOL    HW1 2110   0.645   3.003   2.967  0.3401 -2.0190  5.0042
  528SOL    HW2 2111   0.649   2.902   2.851  1.8127  2.1133 -1.1156
  528SOL     MW 2112   0.661   2.921   2.934  0.4343  0.2893  0.0839
  529SOL     OW 2113   1.037   2.209   1.837 -1.0846  0.8048  0.2226
  529SOL    HW1 2114   1.052   2.258   1.917  0.8222 -1.0314  1.7337
  529SOL    HW2 2115   1.045   2.271   1.766 -2.4393 -0.7226  0.4709
  529SOL     MW 2116   1.040   2.223   1.838 -1.0118  0.3610  0.4547
  530SOL     OW 2117   1.140   2.417   3.004 -0.1312  0.2382  0.2161
  530SOL    HW1 2118   1.111   2.418   3.095 -3.0021  0.9734 -3.9311
  530SOL    HW2 2119   1.167   2.328   2.988 -1.6208  1.5761  1.6572
  530SOL     MW 2120   1.140   2.406   3.014 -0.7066  0.5118 -0.1410
  531SOL     OW 2121   0.932   1.842   2.657 -0.2594  0.5005  0.1542
  531SOL    HW1 2122   0.956   1.909   2.719 -1.0388 -1.3333  1.6747
  531SOL    HW2 2123   0.849   1.817   2.686  1.6286  2.6734 -0.2297
  531SOL     MW 2124   0.924   1.847   2.669 -0.1131  0.5452  0.3042
  532SOL     OW 2125   1.682   0.304   2.851  0.5058 -0.0329 -0.2138
  532SOL    HW1 2126   1.672   0.207   2.857 -0.0635 -2.6555  1.2353
  532SOL    HW2 2127   1.766   0.323   2.894  0.6197 -1.1566 -0.8242
  532SOL     MW 2128   1.692   0.293   2.857  0.4457 -0.5272 -0.1031
  533SOL     OW 2129   1.774   2.703   2.965 -0.3389 -0.2626  0.7085
  533SOL    HW1 2130   1.758   2.621   3.021 -1.4262  0.8643  1.8316
  533SOL    HW2 2131   1.703   2.696   2.896  0.2100  1.8499 -2.3548
  533SOL     MW 2132   1.762   2.692   2.963 -0.4099  0.1648  0.4525
  534SOL     OW 2133   1.727   2.467   2.465  0.0316 -0.3001 -0.5659
  534SOL    HW1 2134   1.647   2.418   2.486 -2.0168 -1.7998 -0.8012
  534SOL    HW2 2135   1.795   2.450   2.534 -1.0731 -0.5190 -0.0584
  534SOL     MW 2136   1.725   2.458   2.477 -0.3844 -0.5269 -0.5300
  535SOL     OW 2137   1.828   2.330   1.905  0.4697 -0.1243  0.2716
  535SOL    HW1 2138   1.756   2.339   1.838  2.4712 -0.2886  0.3111
  535SOL    HW2 2139   1.905   2.359   1.859  1.6912 -1.4141  4.2504
  535SOL     MW 2140   1.829   2.335   1.890  0.8950 -0.3161  0.8018
  536SOL     OW 2141   0.451   1.822   2.011  0.1904  0.1626 -0.1441
  536SOL    HW1 2142   0.471   1.840   1.921 -0.0927 -0.0620  1.3647
  536SOL    HW2 2143   0.525   1.857   2.063 -0.7366  0.0060  4.4193
  536SOL     MW 2144   0.464   1.829   2.006  0.0307  0.1123  0.6571
  537SOL     OW 2145   1.077   0.205   2.922  0.3324  0.3824  0.3683
  537SOL    HW1 2146   1.023   0.206   3.005 -0.3195  0.1399 -1.8665
  537SOL    HW2 2147   1.094   0.300   2.904  1.3345  3.0925 -1.4499
  537SOL     MW 2148   1.072   0.217   2.931  0.3786  0.7080 -0.1664
  538SOL     OW 2149   1.284   0.062   2.979 -0.2632 -0.2997 -0.2768
  538SOL    HW1 2150   1.206   0.121   2.950  0.0273 -0.0372 -0.1077
  538SOL    HW2 2151   1.363   0.103   2.942  0.0733  1.0042 -1.3131
  538SOL     MW 2152   1.284   0.075   2.971 -0.1805 -0.0930 -0.3912
  539SOL     OW 2153   0.744   2.687   2.517  0.3613 -0.5797 -0.1694
  539SOL    HW1 2154   0.826   2.725   2.541 -1.4328  0.0289 -1.4425
  539SOL    HW2 2155   0.778   2.607   2.489 -1.8872 -1.1593 -0.6640
  539SOL     MW 2156   0.759   2.681   2.517 -0.1721 -0.5759 -0.4026
  540SOL     OW 2157   0.317   2.261   2.874  0.2028  0.0431  0.7610
  540SOL    HW1 2158   0.410   2.265   2.891 -2.0559 -2.6323  0.8918
  540SOL    HW2 2159   0.290   2.234   2.960 -1.6061 -1.3852  0.3773
  540SOL     MW 2160   0.326   2.258   2.887 -0.3339 -0.4983  0.7277
  541SOL     OW 2161   0.158   2.851   2.223 -0.2972  0.1203 -0.1236
  541SOL    HW1 2162   0.138   2.765   2.184  0.4885  1.2092 -3.4594
  541SOL    HW2 2163   0.196   2.833   2.307 -3.4632 -1.7000  1.1193
  541SOL     MW 2164   0.161   2.837   2.229 -0.6113  0.0238 -0.3997
  542SOL     OW 2165   0.920   2.258   2.682  0.4865 -0.3133 -0.4561
  542SOL    HW1 2166   0.867   2.250   2.756 -0.8871 -2.7981  1.1074
  542SOL    HW2 2167   0.974   2.338   2.706 -0.2271  0.0071  1.2310
  542SOL     MW 2168   0.920   2.267   2.695  0.2111 -0.5989 -0.0272
  543SOL     OW 2169   1.379   2.549   2.651 -0.4271  0.1027 -0.2353
  543SOL    HW1 2170   1.402   2.465   2.601 -2.1481 -2.2197 -1.1916
  543SOL    HW2 2171   1.469   2.580   2.672 -0.3364  0.3196  2.2335
  543SOL     MW 2172   1.394   2.542   2.647 -0.6422 -0.1751 -0.0357
  544SOL     OW 2173   0.648   0.184   2.720 -0.6547  0.3682  0.8297
  544SOL    HW1 2174   0.564   0.206   2.749 -2.8739  0.1343 -0.3349
  544SOL    HW2 2175   0.640   0.124   2.647  0.6201  0.3427 -1.4436
  544SOL     MW 2176   0.636   0.179   2.714 -0.7793  0.3340  0.3761
  545SOL     OW 2177   1.536   2.149   2.329  0.0058 -0.3567 -0.2845
  545SOL    HW1 2178   1.511   2.184   2.240  2.5712 -1.6796 -0.0296
  545SOL    HW2 2179   1.623   2.111   2.314 -1.7838  2.4104 -4.2378
  545SOL     MW 2180   1.544   2.149   2.315  0.1082 -0.1661 -0.7724
  546SOL     OW 2181   3.010   1.987   0.093 -0.2106  0.3678  0.3950
  546SOL    HW1 2182   3.011   2.071   0.051  1.7643 -3.0750  0.8741
  546SOL    HW2 2183   3.101   1.966   0.104 -0.3850 -1.3567  1.7398
  546SOL     MW 2184   3.022   1.995   0.089  0.0270 -0.3140  0.6356
  547SOL     OW 2185   0.168   3.015   0.102  0.3914  0.2760  0.7549
  547SOL    HW1 2186   0.234   3.083   0.108  1.2827 -0.5961 -0.9852
  547SOL    HW2 2187   0.217   2.934   0.083  2.5664 -0.4451  1.1344
  547SOL     MW 2188   0.183   3.013   0.100  0.7960  0.0658  0.5754
  548SOL     OW 2189   0.296   2.488   0.270  0.3843  0.9027  0.1637
  548SOL    HW1 2190   0.279   2.559   0.205 -2.4692 -0.6610 -1.3258
  548SOL    HW2 2191   0.235   2.414   0.242 -0.4795 -1.6499 -0.0943
  548SOL     MW 2192   0.286   2.487   0.258 -0.1061  0.3596 -0.0668
  549SOL     OW 2193   0.711   1.909   2.108 -0.5334  0.0044 -0.8413
  549SOL    HW1 2194   0.719   1.997   2.080  0.0268  1.4610 -0.0259
  549SOL    HW2 2195   0.743   1.902   2.195 -1.7087 -1.1320 -2.1489
  549SOL     MW 2196   0.716   1.920   2.115 -0.6146  0.0466 -0.9063
  550SOL     OW 2197   1.819   1.756   2.587  0.2723 -0.0197  0.0187
  550SOL    HW1 2198   1.854   1.775   2.500 -0.8510  1.0503 -0.6828
  550SOL    HW2 2199   1.814   1.836   2.639  0.1731 -0.4113  0.4814
  550SOL     MW 2200   1.823   1.769   2.582  0.1110  0.0698 -0.0128
  551SOL     OW 2201   0.856   2.338   0.209  0.2059 -0.2775 -0.0354
  551SOL    HW1 2202   0.944   2.373   0.188  1.3541  2.6877 -1.5441
  551SOL    HW2 2203   0.863   2.240   0.210  0.8839 -1.5319  2.0316
  551SOL     MW 2204   0.868   2.330   0.206  0.4468 -0.0518  0.0383
  552SOL     OW 2205   1.789   1.821   2.290 -0.4307 -0.2736 -0.4068
  552SOL    HW1 2206   1.695   1.808   2.310 -3.6519 -0.2970  0.2732
  552SOL    HW2 2207   1.824   1.748   2.228 -3.2763  1.9734  0.8345
  552SOL     MW 2208   1.781   1.809   2.284 -1.2311  0.0198 -0.1533
  553SOL     OW 2209   1.219   2.323   1.534  0.1705 -0.1223 -0.4326
  553SOL    HW1 2210   1.256   2.238   1.537  0.6205  1.1100 -0.8015
  553SOL    HW2 2211   1.287   2.386   1.518  1.1175 -2.8992  0.0236
  553SOL     MW 2212   1.233   2.320   1.532  0.3548 -0.3261 -0.4211
  554SOL     OW 2213   0.565   2.845   2.673  0.1423  0.3682 -0.5215
  554SOL    HW1 2214   0.539   2.921   2.624 -1.3881  0.5864 -0.6216
  554SOL    HW2 2215   0.618   2.799   2.615 -0.7215 -3.3627  1.8185
  554SOL     MW 2216   0.568   2.849   2.659 -0.1736 -0.0953 -0.2260
  555SOL     OW 2217   0.573   2.412   2.586 -0.3819  0.4530 -0.1506
  555SOL    HW1 2218   0.536   2.329   2.619  3.0517  2.3703  1.7397
  555SOL    HW2 2219   0.633   2.391   2.511  2.0222  0.8767 -2.6985
  555SOL     MW 2220   0.576   2.398   2.580  0.3883  0.7619 -0.2374
  556SOL     OW 2221   0.986   1.807   0.133 -0.2842 -0.0035  0.4666
  556SOL    HW1 2222   1.022   1.801   0.045 -1.8190 -2.2819  1.3632
  556SOL    HW2 2223   1.066   1.817   0.188  0.9771 -0.2113 -0.5668
  556SOL     MW 2224   1.002   1.808   0.129 -0.3203 -0.3315  0.4485
  557SOL     OW 2225   0.904   2.681   0.447 -0.5465  0.3984  0.4907
  557SOL    HW1 2226   0.963   2.667   0.372 -0.0073  0.5050 -0.8563
  557SOL    HW2 2227   0.879   2.773   0.452  1.7471 -1.0625 -3.0405
  557SOL     MW 2228   0.908   2.691   0.438 -0.1727  0.2197 -0.1529
  558SOL     OW 2229   0.267   2.177   0.019  0.1085  0.7400 -0.1224
  558SOL    HW1 2230   0.217   2.091   0.034  2.0605 -2.7642  1.0200
  558SOL    HW2 2231   0.222   2.257   0.057 -0.9930  2.0930  2.3962
  558SOL     MW 2232   0.254   2.176   0.026  0.2207  0.4562  0.3607
  559SOL     OW 2233   1.190   2.329   2.094  0.1542 -0.1937  0.6622
  559SOL    HW1 2234   1.160   2.414   2.115 -1.7392 -2.5172  0.1106
  559SOL    HW2 2235   1.179   2.272   2.170  0.0585  3.6474  0.7840
  559SOL     MW 2236   1.184   2.333   2.107 -0.1083  0.0066  0.6055
  560SOL     OW 2237   2.002   2.798   0.021 -0.0932  0.0486  0.6138
  560SOL    HW1 2238   2.047   2.862  -0.032 -1.3950 -3.3879  0.4851
  560SOL    HW2 2239   1.919   2.781  -0.022 -1.0577 -0.0322 -0.6257
  560SOL     MW 2240   1.997   2.804   0.008 -0.3922 -0.4155  0.4333
  561SOL     OW 2241   0.441   2.078   0.216 -0.2383 -0.1275  0.3648
  561SOL    HW1 2242   0.402   2.128   0.139  2.0327  4.5694 -3.3384
  561SOL    HW2 2243   0.479   2.152   0.265  1.2186  1.3957  2.7278
  561SOL     MW 2244   0.441   2.094   0.212  0.2536  0.6932  0.1880
  562SOL     OW 2245   0.904   2.170   2.162  0.0902  0.3432 -0.0662
  562SOL    HW1 2246   0.894   2.264   2.166 -1.9334 -1.9657  0.8121
  562SOL    HW2 2247   0.981   2.141   2.215 -3.1494  0.1454  0.3473
  562SOL     MW 2248   0.913   2.179   2.170 -0.6042  0.0125  0.1042
  563SOL     OW 2249   1.224   0.266   0.567  0.3879  0.9208  0.3717
  563SOL    HW1 2250   1.173   0.276   0.485  1.1761  2.4978 -1.9965
  563SOL    HW2 2251   1.239   0.170   0.575 -0.3985 -0.4941  0.7129
  563SOL     MW 2252   1.219   0.255   0.557  0.3882  0.9422  0.1042
  564SOL     OW 2253   1.074   2.559   2.385  0.5130 -0.3721 -0.3474
  564SOL    HW1 2254   1.116   2.597   2.305  1.2584  2.1834  0.1091
  564SOL    HW2 2255   1.114   2.618   2.448  2.6256  1.9434 -0.9554
  564SOL     MW 2256   1.085   2.572   2.382  0.8901  0.2706 -0.3674
  565SOL     OW 2257   2.897   2.677   2.582 -0.4602  0.5615 -0.6510
  565SOL    HW1 2258   2.975   2.722   2.552 -0.5051 -0.3778 -2.0170
  565SOL    HW2 2259   2.831   2.674   2.516  4.4695  0.2120  2.3809
  565SOL     MW 2260   2.898   2.682   2.569  0.1843  0.3915 -0.4312
  566SOL     OW 2261   2.254   1.908   2.358 -0.0578 -0.5487  0.5146
  566SOL    HW1 2262   2.272   1.929   2.264 -0.2783 -1.4380 -0.7215
  566SOL    HW2 2263   2.292   1.987   2.399 -0.4086  1.5771 -0.3110
  566SOL     MW 2264   2.262   1.921   2.351 -0.1332 -0.3856  0.2426
  567SOL     OW 2265   1.171   2.868   0.045 -0.4979  0.3591 -0.0181
  567SOL    HW1 2266   1.238   2.939   0.045 -0.0915 -0.1856  0.6418
  567SOL    HW2 2267   1.161   2.854  -0.053 -0.8397 -0.4626 -0.3049
  567SOL     MW 2268   1.179   2.875   0.032 -0.4894  0.1788  0.0311
  568SOL     OW 2269   1.653   2.108   2.858  0.0560 -0.2649  0.5209
  568SOL    HW1 2270   1.683   2.162   2.932 -1.5609 -2.9884  2.7661
  568SOL    HW2 2271   1.721   2.089   2.800 -1.3187 -2.1217  0.6813
  568SOL     MW 2272   1.666   2.113   2.860 -0.3387 -0.8692  0.8383
  569SOL     OW 2273   0.217   2.181   2.426  0.3128  0.2203  0.1810
  569SOL    HW1 2274   0.164   2.242   2.375 -2.0394 -0.1684 -0.1488
  569SOL    HW2 2275   0.219   2.221   2.516  0.8672 -0.3566 -1.8448
  569SOL     MW 2276   0.210   2.194   2.431  0.0756  0.0929 -0.1298
  570SOL     OW 2277   1.441   0.407   0.514 -0.3131  0.0073  0.1778
  570SOL    HW1 2278   1.370   0.360   0.560  3.0589  0.7592  2.3190
  570SOL    HW2 2279   1.495   0.432   0.591 -0.0588  1.3895  1.3199
  570SOL     MW 2280   1.439   0.404   0.530  0.1653  0.2889  0.6110
  571SOL     OW 2281   1.486   2.401   1.924 -0.1575 -0.0494  0.3838
  571SOL    HW1 2282   1.490   2.456   2.003 -0.0111 -0.4096  1.1575
  571SOL    HW2 2283   1.479   2.312   1.957  0.7950 -0.5216 -0.0714
  571SOL     MW 2284   1.485   2.396   1.939 -0.0125 -0.1593  0.4258
  572SOL     OW 2285   0.937   2.652   0.058  0.0775  0.5334  0.7876
  572SOL    HW1 2286   0.934   2.657  -0.036 -0.5319 -0.1335  0.2184
  572SOL    HW2 2287   0.843   2.628   0.073  1.1867  0.9773  1.0104
  572SOL     MW 2288   0.924   2.649   0.047  0.1435  0.5040  0.7419
  573SOL     OW 2289   1.136   2.412   0.173  0.3711 -0.3336  0.2748
  573SOL    HW1 2290   1.221   2.386   0.158 -3.4488  1.5747 -3.1613
  573SOL    HW2 2291   1.145   2.494   0.220  4.0686  0.3433  0.1843
  573SOL     MW 2292   1.148   2.419   0.177  0.3549  0.0075 -0.1905
  574SOL     OW 2293   1.119   2.666   0.290 -0.3978 -0.8348  0.1531
  574SOL    HW1 2294   1.195   2.713   0.308 -1.0177  1.3789 -1.4655
  574SOL    HW2 2295   1.093   2.694   0.201  0.1336  0.1168  2.4890
  574SOL     MW 2296   1.125   2.676   0.281 -0.4094 -0.4172  0.2477
  575SOL     OW 2297   3.061   2.281   1.823  0.3927 -0.1659 -0.5339
  575SOL    HW1 2298   3.065   2.188   1.790 -1.2104  0.2522  0.4528
  575SOL    HW2 2299   3.115   2.339   1.766  2.1242 -1.0010 -0.4802
  575SOL     MW 2300   3.069   2.276   1.811  0.4097 -0.2209 -0.3966
  576SOL     OW 2301   2.818   1.830   2.054  0.2303  0.4203 -0.2879
  576SOL    HW1 2302   2.808   1.920   2.037  0.7518 -0.0648  0.0833
  576SOL    HW2 2303   2.744   1.775   2.032  0.0193 -0.0371 -1.6061
  576SOL     MW 2304   2.807   1.834   2.049  0.2713  0.2960 -0.4128
  577SOL     OW 2305   2.083   0.310   0.049 -0.2302  0.5188 -0.4727
  577SOL    HW1 2306   2.034   0.341  -0.028  0.0949  0.8146 -0.3517
  577SOL    HW2 2307   2.013   0.258   0.097 -3.8189 -0.5827  0.8707
  577SOL     MW 2308   2.067   0.307   0.045 -0.6608  0.4125 -0.2795
  578SOL     OW 2309   2.035   2.041   2.416 -0.1551 -0.5517  0.5022
  578SOL    HW1 2310   1.977   2.069   2.343 -1.0617  0.1313 -1.7324
  578SOL    HW2 2311   2.103   1.981   2.376 -0.1427  0.9465 -2.6598
  578SOL     MW 2312   2.037   2.037   2.401 -0.2731 -0.2639 -0.2098
  579SOL     OW 2313   0.858   2.418   2.463 -0.2180  0.0890  0.3868
  579SOL    HW1 2314   0.876   2.331   2.506 -0.2655  0.3207  1.6825
  579SOL    HW2 2315   0.944   2.467   2.452  1.5243  0.1528 -0.4094
  579SOL     MW 2316   0.872   2.413   2.467  0.0056  0.1280  0.4527
  580SOL     OW 2317   0.872   2.985   0.009 -0.4572  0.2067 -0.1010
  580SOL    HW1 2318   0.947   2.929   0.017  0.9960 -4.4278  1.2637
  580SOL    HW2 2319   0.809   2.939  -0.051 -0.0904 -0.6052  0.8419
  580SOL     MW 2320   0.873   2.971   0.002 -0.2171 -0.5119  0.2035
  581SOL     OW 2321   1.063   2.459   1.695 -0.1500 -0.5070  0.1540
  581SOL    HW1 2322   1.100   2.460   1.783 -0.5488 -2.2128  0.9781
  581SOL    HW2 2323   1.122   2.408   1.643 -0.6231 -1.4954  2.4923
  581SOL     MW 2324   1.076   2.452   1.700 -0.2650 -0.8625  0.5712
  582SOL     OW 2325   0.013   2.831   2.476 -0.6972 -0.4642 -0.2429
  582SOL    HW1 2326   0.003   2.908   2.535  1.2464  0.7317  1.6967
  582SOL    HW2 2327   0.113   2.823   2.481 -1.6245  0.9122 -0.0048
  582SOL     MW 2328   0.025   2.840   2.485 -0.5631 -0.1248  0.0444
  583SOL     OW 2329   1.928   2.452   2.641 -0.0165  0.0108 -0.0756
  583SOL    HW1 2330   2.002   2.471   2.580 -3.0272 -1.7900 -2.6743
  583SOL    HW2 2331   1.954   2.369   2.675  0.2991 -0.4404  2.1007
  583SOL     MW 2332   1.941   2.443   2.637 -0.3721 -0.2863 -0.1313
  584SOL     OW 2333   0.193   1.894   2.090  0.4364  0.5011  0.0203
  584SOL    HW1 2334   0.271   1.844   2.083  0.4215 -0.7281  0.2265
  584SOL    HW2 2335   0.216   1.969   2.140  0.4235 -1.3643 -1.9717
  584SOL     MW 2336   0.206   1.897   2.096  0.4327  0.0928 -0.2153
  585SOL     OW 2337   1.480   2.648   0.083  0.0339  0.6178 -0.1039
  585SOL    HW1 2338   1.403   2.633   0.037  0.5526  0.2306  0.6460
  585SOL    HW2 2339   1.455   2.676   0.168 -1.2299 -1.2506  2.5295
  585SOL     MW 2340   1.467   2.649   0.088 -0.0644  0.3202  0.3425
  586SOL     OW 2341   1.279   2.918   2.397  0.6358 -1.6666  0.0007
  586SOL    HW1 2342   1.359   2.873   2.365  0.4128 -0.7268 -0.4923
  586SOL    HW2 2343   1.303   2.984   2.458  1.0973  1.7582 -1.0103
  586SOL     MW 2344   1.293   2.921   2.401  0.6673 -1.0908 -0.1978
  587SOL     OW 2345   1.263   1.618   2.119  0.2394  0.0072 -0.5845
  587SOL    HW1 2346   1.244   1.537   2.169  0.4010 -0.6735  0.3204
  587SOL    HW2 2347   1.222   1.611   2.031  3.2815 -0.5561  1.0458
  587SOL     MW 2348   1.255   1.607   2.114  0.6621 -0.1570 -0.2500
  588SOL     OW 2349   1.416   2.159   2.737 -0.1875 -0.0934  0.3215
  588SOL    HW1 2350   1.498   2.136   2.785  1.0453  0.8924  0.0794
  588SOL    HW2 2351   1.352   2.153   2.815  0.1194  4.0038 -0.8954
  588SOL     MW 2352   1.418   2.156   2.754  0.0156  0.5773  0.1290
  589SOL     OW 2353   1.358   2.092   0.070  0.3867  0.1615 -0.0518
  589SOL    HW1 2354   1.361   2.182   0.110 -0.7594  0.4139 -0.8050
  589SOL    HW2 2355   1.314   2.034   0.134 -1.7409  0.9794 -1.5435
  589SOL     MW 2356   1.353   2.096   0.084 -0.0452  0.3027 -0.3480
  590SOL     OW 2357   0.396   2.579   2.267  0.5730  0.1185 -0.5059
  590SOL    HW1 2358   0.385   2.577   2.171 -1.6813  1.9286 -0.3744
  590SOL    HW2 2359   0.480   2.625   2.273  0.7848 -1.0562  0.9225
  590SOL     MW 2360   0.405   2.585   2.255  0.3035  0.2023 -0.3001
  591SOL     OW 2361   2.297   0.712   0.025 -0.3760 -0.1080  0.0643
  591SOL    HW1 2362   2.226   0.757  -0.023 -0.3509  0.7953 -0.9641
  591SOL    HW2 2363   2.379   0.742  -0.019 -1.3772 -1.1426  1.8239
  591SOL     MW 2364   2.299   0.722   0.013 -0.5048 -0.1253  0.1607
  592SOL     OW 2365   1.871   3.034   0.816  0.0320  0.5003  0.0517
  592SOL    HW1 2366   1.864   3.105   0.757  2.7166 -1.0182 -3.0161
  592SOL    HW2 2367   1.906   2.969   0.756  1.1372 -1.2320  0.9400
  592SOL     MW 2368   1.874   3.035   0.800  0.5320  0.0714 -0.2359
  593SOL     OW 2369   1.904   0.756   0.837 -0.6302  0.1276  0.1430
  593SOL    HW1 2370   1.812   0.751   0.809  0.2129 -0.1951  1.2955
  593SOL    HW2 2371   1.919   0.667   0.874  1.0237 -0.5625  2.6285
  593SOL     MW 2372   1.893   0.743   0.838 -0.3008 -0.0060  0.6230
  594SOL     OW 2373   2.734   1.128   1.401 -0.5933  0.3019  0.5969
  594SOL    HW1 2374   2.828   1.153   1.412 -0.9766 -1.8114 -0.1714
  594SOL    HW2 2375   2.725   1.094   1.314  2.2775  1.1196  2.7552
  594SOL     MW 2376   2.745   1.127   1.391 -0.2651  0.1309  0.7803
  595SOL     OW 2377   0.454   0.949   0.673  0.5995 -0.1246 -0.3039
  595SOL    HW1 2378   0.492   1.017   0.614 -0.9925  2.5487  0.2341
  595SOL    HW2 2379   0.478   0.979   0.765  1.3942 -0.4429 -0.4527
  595SOL     MW 2380   0.462   0.962   0.677  0.4943  0.1861 -0.2525
  596SOL     OW 2381   2.433   1.382   0.561  0.4345 -0.1295 -0.1738
  596SOL    HW1 2382   2.475   1.459   0.530  0.1918 -2.8500  1.1560
  596SOL    HW2 2383   2.496   1.348   0.622  0.8131  0.3846  0.7733
  596SOL     MW 2384   2.447   1.388   0.565  0.4524 -0.4207  0.1266
  597SOL     OW 2385   2.190   0.678   1.696  0.3240  0.2164 -0.5050
  597SOL    HW1 2386   2.240   0.603   1.737 -2.3710  0.4394 -1.8125
  597SOL    HW2 2387   2.112   0.632   1.650  0.2893  0.5012 -1.1183
  597SOL     MW 2388   2.186   0.662   1.696 -0.0362  0.2834 -0.7584
  598SOL     OW 2389   2.600   1.021   2.869  0.3000 -0.4162 -0.5222
  598SOL    HW1 2390   2.628   0.980   2.793 -0.7392  2.4540  1.8948
  598SOL    HW2 2391   2.662   1.065   2.925 -0.7333 -1.3595  3.2180
  598SOL     MW 2392   2.611   1.022   2.867  0.0266 -0.1619  0.2901
  599SOL     OW 2393   2.919   0.324   2.071 -0.5404  0.3928  0.1987
  599SOL    HW1 2394   2.884   0.356   2.160  0.0102 -0.6140 -1.1445
  599SOL    HW2 2395   2.954   0.404   2.021 -1.2725  0.8904 -0.6676
  599SOL     MW 2396   2.919   0.339   2.076 -0.5643  0.3256 -0.0928
  600SOL     OW 2397   1.893   1.712   0.890  0.1155 -0.0186 -0.2401
  600SOL    HW1 2398   1.910   1.756   0.971  0.0269 -1.9452  0.3675
  600SOL    HW2 2399   1.807   1.749   0.869 -0.1122  0.0384 -1.9735
  600SOL     MW 2400   1.884   1.723   0.898  0.0738 -0.2652 -0.3886
  601SOL     OW 2401   2.517   0.803   0.825 -0.3867  0.4684 -0.1522
  601SOL    HW1 2402   2.527   0.819   0.922 -3.8250  1.1938 -1.3703
  601SOL    HW2 2403   2.458   0.724   0.815  2.2576 -2.6190  1.2192
  601SOL     MW 2404   2.510   0.794   0.837 -0.4915  0.1568 -0.1320
  602SOL     OW 2405   2.322   1.933   0.744 -0.4003  0.3036  1.2342
  602SOL    HW1 2406   2.274   1.883   0.817  0.5668 -1.3470  0.0398
  602SOL    HW2 2407   2.251   1.980   0.698  1.8968 -0.0821  1.9662
  602SOL     MW 2408   2.306   1.933   0.748  0.0304  0.0349  1.1732
  603SOL     OW 2409   3.074   1.381   1.793  0.3907 -0.7535 -0.3849
  603SOL    HW1 2410   3.112   1.415   1.876  2.0660  1.0604  0.3986
  603SOL    HW2 2411   3.032   1.298   1.819  1.0517  1.1194  2.1930
  603SOL     MW 2412   3.074   1.375   1.807  0.6989 -0.2671  0.0586
  604SOL     OW 2413   2.110   1.575   0.445 -0.2768 -0.2554  0.1612
  604SOL    HW1 2414   2.150   1.515   0.501  2.5282  1.4609 -1.9521
  604SOL    HW2 2415   2.049   1.628   0.500 -2.3015  0.1591 -2.8500
  604SOL     MW 2416   2.107   1.574   0.460 -0.1739  0.0257 -0.5150
  605SOL     OW 2417   2.702   1.555   0.840  0.7876 -0.2680 -0.4675
  605SOL    HW1 2418   2.636   1.624   0.841 -0.5195 -0.3926 -0.0302
  605SOL    HW2 2419   2.663   1.485   0.783 -1.8015  1.9750  1.5680
  605SOL     MW 2420   2.688   1.555   0.832  0.2735  0.0115 -0.1412
  606SOL     OW 2421   2.567   1.782   1.851  0.2806  0.3940 -0.6840
  606SOL    HW1 2422   2.472   1.774   1.871  0.4323  0.3557 -1.5707
  606SOL    HW2 2423   2.593   1.700   1.809 -0.7876 -1.5327 -0.4597
  606SOL     MW 2424   2.557   1.770   1.848  0.1597  0.1347 -0.7714
  607SOL     OW 2425   2.347   1.023   2.959  0.7917 -0.6657 -0.0590
  607SOL    HW1 2426   2.440   1.030   2.922 -1.4581  2.2098  0.2983
  607SOL    HW2 2427   2.350   1.016   3.051  1.0400 -0.5267 -2.3656
  607SOL     MW 2428   2.360   1.023   2.966  0.5276 -0.2679 -0.3162
  608SOL     OW 2429   1.870   0.318   0.555 -0.5250 -0.9861  0.0744
  608SOL    HW1 2430   1.884   0.354   0.469 -0.8219  0.3855 -0.8476
  608SOL    HW2 2431   1.814   0.244   0.542  2.2353  1.4956 -0.8784
  608SOL     MW 2432   1.865   0.313   0.542 -0.2000 -0.4777 -0.1730
  609SOL     OW 2433   2.144   1.955   3.071 -0.9496  0.1959  0.2146
  609SOL    HW1 2434   2.059   1.918   3.045 -0.2430 -0.8273  0.0222
  609SOL    HW2 2435   2.163   1.935   3.166  0.0114 -0.7631 -1.3372
  609SOL     MW 2436   2.136   1.948   3.080 -0.7296 -0.0656 -0.0156
  610SOL     OW 2437   1.801   1.031   1.241 -1.0909 -0.3098 -0.2421
  610SOL    HW1 2438   1.795   0.954   1.181 -1.3676 -1.9148  0.2974
  610SOL    HW2 2439   1.722   1.043   1.286 -0.9755 -2.0024  0.0012
  610SOL     MW 2440   1.790   1.022   1.239 -1.1122 -0.7449 -0.1388
  611SOL     OW 2441   2.438   1.676   0.751  0.2345  0.0423 -0.1501
  611SOL    HW1 2442   2.403   1.761   0.752 -0.1359 -0.9176 -2.6837
  611SOL    HW2 2443   2.485   1.656   0.668  0.1076 -0.2752  0.0791
  611SOL     MW 2444   2.440   1.684   0.741  0.1689 -0.1263 -0.4542
  612SOL     OW 2445   2.779   2.848   0.443  0.2158 -0.0549  0.2517
  612SOL    HW1 2446   2.831   2.888   0.514  0.3732 -0.4109 -0.6045
  612SOL    HW2 2447   2.842   2.833   0.370 -0.7673 -0.4763 -0.6669
  612SOL     MW 2448   2.794   2.851   0.442  0.1069 -0.1575  0.0175
  613SOL     OW 2449   1.510   1.036   1.006 -0.4679  0.0017 -0.5689
  613SOL    HW1 2450   1.503   1.131   1.022  0.7281  0.9070 -0.4606
  613SOL    HW2 2451   1.548   1.002   1.085  2.1448 -1.0876 -0.2350
  613SOL     MW 2452   1.514   1.044   1.018  0.0346 -0.0226 -0.5105
  614SOL     OW 2453   2.008   0.560   1.544 -0.7671 -0.0044  0.4297
  614SOL    HW1 2454   2.026   0.471   1.577 -0.8856 -1.0316 -0.7422
  614SOL    HW2 2455   2.034   0.550   1.453  0.6625  2.9898 -0.3303
  614SOL     MW 2456   2.013   0.547   1.536 -0.5941  0.2551  0.1748
  615SOL     OW 2457   2.240   0.816   0.270  0.6435 -0.6397  0.6951
  615SOL    HW1 2458   2.295   0.777   0.335  0.4988 -0.0329 -1.4497
  615SOL    HW2 2459   2.269   0.778   0.190  2.7223 -0.8559  2.1909
  615SOL     MW 2460   2.251   0.806   0.268  0.8987 -0.5881  0.6095
  616SOL     OW 2461   2.578   0.347   1.604 -0.2797  0.4098  0.3983
  616SOL    HW1 2462   2.503   0.322   1.549 -1.5536  1.1525 -0.4838
  616SOL    HW2 2463   2.617   0.419   1.556  0.4830 -3.4843 -2.3421
  616SOL     MW 2464   2.574   0.353   1.590 -0.3471 -0.0060 -0.0796
  617SOL     OW 2465   2.839   0.546   1.682  0.5111 -0.3701 -0.0743
  617SOL    HW1 2466   2.791   0.510   1.757  1.1424 -3.1440  1.9984
  617SOL    HW2 2467   2.852   0.467   1.626 -0.9610 -0.8820 -0.8074
  617SOL     MW 2468   2.834   0.531   1.684  0.4002 -0.8036  0.1024
  618SOL     OW 2469   2.685   0.360   1.950  0.0287 -0.1821  0.7389
  618SOL    HW1 2470   2.689   0.461   1.947  1.9327 -0.1609 -0.9169
  618SOL    HW2 2471   2.768   0.333   1.995 -0.4304 -1.9656  0.9802
  618SOL     MW 2472   2.696   0.370   1.955  0.2193 -0.4146  0.5523
  619SOL     OW 2473   2.631   0.732   0.142 -0.0972 -0.3951  0.1294
  619SOL    HW1 2474   2.701   0.797   0.154  1.3709 -1.0139 -3.6554
  619SOL    HW2 2475   2.589   0.729   0.226  1.9819  1.3933 -3.2494
  619SOL     MW 2476   2.634   0.740   0.155  0.3708 -0.2408 -0.8157
  620SOL     OW 2477   2.328   1.066   0.992  0.5012 -0.2091  0.0871
  620SOL    HW1 2478   2.318   1.083   0.897 -0.6695 -1.7653  0.1976
  620SOL    HW2 2479   2.294   0.979   1.009 -0.9509  0.9825  1.0939
  620SOL     MW 2480   2.322   1.057   0.982  0.1552 -0.2572  0.2345
  621SOL     OW 2481   1.466   2.109   1.986  0.3201  0.6588  0.0005
  621SOL    HW1 2482   1.397   2.051   2.006 -2.2601 -0.1326  0.2216
  621SOL    HW2 2483   1.549   2.062   1.993  2.4613  0.1424 -1.5009
  621SOL     MW 2484   1.468   2.095   1.989  0.2622  0.4862 -0.1684
  622SOL     OW 2485   2.662   0.181   0.254  0.0287  0.0261  0.3644
  622SOL    HW1 2486   2.741   0.241   0.251  0.9662 -1.9489 -1.0427
  622SOL    HW2 2487   2.676   0.091   0.216 -0.7807 -1.9928  2.9177
  622SOL     MW 2488   2.674   0.177   0.249  0.0456 -0.5009  0.5156
  623SOL     OW 2489   2.321   2.738   0.923 -0.5542 -0.2890 -0.3921
  623SOL    HW1 2490   2.390   2.807   0.904  0.8015  1.0527 -1.0282
  623SOL    HW2 2491   2.259   2.780   0.988 -1.1897  0.7578 -0.2486
  623SOL     MW 2492   2.322   2.753   0.929 -0.4592  0.0262 -0.4571
  624SOL     OW 2493   2.217   1.686   3.007  0.3268 -0.8242 -0.5438
  624SOL    HW1 2494   2.148   1.630   3.036  0.2587  0.5779  1.5992
  624SOL    HW2 2495   2.184   1.779   3.022  0.8558 -0.8466 -1.1174
  624SOL     MW 2496   2.204   1.691   3.013  0.3876 -0.6422 -0.3368
  625SOL     OW 2497   2.170   1.985   1.104  0.7853  0.2079  0.5696
  625SOL    HW1 2498   2.253   1.948   1.136 -0.5867  1.4388 -0.3578
  625SOL    HW2 2499   2.194   2.032   1.027  0.0339  2.2153  0.6104
  625SOL     MW 2500   2.184   1.986   1.098  0.5052  0.6351  0.4526
  626SOL     OW 2501   0.171   1.636   2.321  0.3567  0.3571  0.5190
  626SOL    HW1 2502   0.148   1.550   2.337  1.6782  0.1306 -0.9238
  626SOL    HW2 2503   0.105   1.679   2.371 -0.3180 -1.7332 -1.4835
  626SOL     MW 2504   0.159   1.630   2.330  0.4421  0.0514  0.0644
  627SOL     OW 2505   2.507   0.821   2.626  0.2503  0.0442  0.5039
  627SOL    HW1 2506   2.446   0.888   2.591  0.0409  0.1616 -0.4875
  627SOL    HW2 2507   2.491   0.752   2.555 -1.6412  0.5171 -1.6231
  627SOL     MW 2508   2.497   0.821   2.612 -0.0269  0.1221  0.0925
  628SOL     OW 2509   2.251   1.357   1.360 -0.3155  0.4984  0.1758
  628SOL    HW1 2510   2.223   1.287   1.311  0.1842  1.7853 -1.5341
  628SOL    HW2 2511   2.338   1.331   1.392  0.1228  0.5568 -1.2957
  628SOL     MW 2512   2.259   1.344   1.358 -0.1918  0.6759 -0.2439
  629SOL     OW 2513   1.996   0.550   1.253 -0.4610  0.7287 -0.2881
  629SOL    HW1 2514   2.048   0.626   1.219  1.5601  0.4219  0.5000
  629SOL    HW2 2515   1.909   0.578   1.276 -0.9504 -0.4106 -0.8809
  629SOL     MW 2516   1.992   0.564   1.251 -0.2589  0.5379 -0.2623
  630SOL     OW 2517   2.489   1.851   3.036 -0.5299 -0.4160  0.6911
  630SOL    HW1 2518   2.490   1.906   2.960 -0.2409  0.4985  1.8148
  630SOL    HW2 2519   2.440   1.780   3.014  1.9644  1.0601  2.2421
  630SOL     MW 2520   2.483   1.849   3.023 -0.1626 -0.1006  1.0440
  631SOL     OW 2521   1.978   1.820   1.600 -0.0988  0.7071 -0.3198
  631SOL    HW1 2522   1.978   1.731   1.634  0.0241  0.7951 -0.5578
  631SOL    HW2 2523   1.971   1.814   1.507  3.0469  0.6426  0.1215
  631SOL     MW 2524   1.977   1.808   1.592  0.3325  0.7102 -0.2930
  632SOL     OW 2525   0.101   2.086   1.494  0.1483  0.0907  0.0388
  632SOL    HW1 2526   0.062   2.078   1.575 -0.0935 -2.5220 -2.8279
  632SOL    HW2 2527   0.124   1.999   1.470 -1.5913 -0.7246 -0.7692
  632SOL     MW 2528   0.099   2.074   1.502 -0.1131 -0.3616 -0.4460
  633SOL     OW 2529   2.475   0.684   0.391  0.2986 -0.0147 -0.2365
  633SOL    HW1 2530   2.562   0.675   0.429  0.9452  1.8801 -0.1687
  633SOL    HW2 2531   2.444   0.600   0.351  1.7177 -1.2171 -1.4597
  633SOL     MW 2532   2.482   0.672   0.391  0.5712  0.0767 -0.3889
  634SOL     OW 2533   2.623   3.079   0.701  0.2397 -0.6846 -0.1036
  634SOL    HW1 2534   2.653   3.171   0.696  1.9828  0.6739 -1.3707
  634SOL    HW2 2535   2.609   3.055   0.607 -0.3462 -2.1937 -2.4099
  634SOL     MW 2536   2.625   3.088   0.688  0.3924 -0.7045 -0.5751
  635SOL     OW 2537   2.590   0.125   1.844  0.1473  0.1386 -0.3970
  635SOL    HW1 2538   2.662   0.099   1.782  2.8536 -2.2742  0.3625
  635SOL    HW2 2539   2.617   0.215   1.877 -0.3143 -0.1839  0.8764
  635SOL     MW 2540   2.603   0.133   1.840  0.4434 -0.2223 -0.1288
  636SOL     OW 2541   2.916   1.751   0.980 -0.1700  0.4837  1.3481
  636SOL    HW1 2542   2.828   1.776   1.004 -1.7764  2.5622  0.0440
  636SOL    HW2 2543   2.967   1.785   1.054 -2.4813  0.8294  1.9348
  636SOL     MW 2544   2.912   1.759   0.993 -0.6869  0.8036  1.2534
  637SOL     OW 2545   2.921   1.523   0.663 -0.5507  0.0034  0.3613
  637SOL    HW1 2546   2.971   1.606   0.640 -1.3090  1.1443  2.0628
  637SOL    HW2 2547   2.851   1.549   0.720 -0.4596 -1.5492 -0.9580
  637SOL     MW 2548   2.918   1.537   0.667 -0.6387 -0.0509  0.4117
  638SOL     OW 2549   2.723   0.577   0.512  0.2116 -0.3040  0.4774
  638SOL    HW1 2550   2.814   0.594   0.476  0.1768 -0.0687 -2.2123
  638SOL    HW2 2551   2.735   0.577   0.611  2.9457 -2.0776  1.1362
  638SOL     MW 2552   2.736   0.579   0.520  0.5678 -0.5070  0.2094
  639SOL     OW 2553   1.776   0.066   0.503  0.0120  0.2804  0.4323
  639SOL    HW1 2554   1.690   0.097   0.526 -1.5284  1.2718 -2.8571
  639SOL    HW2 2555   1.765  -0.009   0.447 -0.2663  0.8730  0.4554
  639SOL     MW 2556   1.763   0.060   0.499 -0.2280  0.4894  0.0014
  640SOL     OW 2557   0.344   1.377   0.070 -0.4053  0.2939 -0.2566
  640SOL    HW1 2558   0.369   1.384  -0.023  1.7079 -1.9817  0.4206
  640SOL    HW2 2559   0.316   1.287   0.074  1.5064 -1.5902  0.4406
  640SOL     MW 2560   0.343   1.366   0.058  0.1257 -0.2549 -0.0753
  641SOL     OW 2561   2.206   0.452   0.383 -0.3025 -0.0894  0.1886
  641SOL    HW1 2562   2.250   0.462   0.301 -0.0774  0.2643  2.9424
  641SOL    HW2 2563   2.257   0.388   0.429  0.7846  3.4722  0.3481
  641SOL     MW 2564   2.218   0.445   0.379 -0.1294  0.4271  0.5730
  642SOL     OW 2565   0.042   3.098   0.578 -0.1205 -0.1270  0.5457
  642SOL    HW1 2566   0.004   3.169   0.523 -1.1434  1.3928 -0.7845
  642SOL    HW2 2567  -0.029   3.044   0.611  0.5588  2.2814  0.0039
  642SOL     MW 2568   0.028   3.100   0.575 -0.1658  0.3913  0.2987
  643SOL     OW 2569   2.068   0.334   1.704  0.2384  0.4749  0.2416
  643SOL    HW1 2570   2.079   0.295   1.791  1.9616 -2.7979 -1.4789
  643SOL    HW2 2571   2.124   0.273   1.655  0.6529 -0.7769  0.8412
  643SOL     MW 2572   2.077   0.320   1.709  0.5205 -0.1221  0.0937
  644SOL     OW 2573   2.720   1.943   1.072  0.2946  0.4646 -0.1413
  644SOL    HW1 2574   2.698   1.868   1.127 -1.5556 -0.3712  3.2701
  644SOL    HW2 2575   2.638   1.973   1.031 -0.5873 -3.2304 -1.2944
  644SOL     MW 2576   2.707   1.937   1.074 -0.0659 -0.1332  0.1567
  645SOL     OW 2577   2.835   0.881   0.673  0.2129 -0.0832  0.4262
  645SOL    HW1 2578   2.915   0.835   0.699 -0.8278 -0.3800 -3.4249
  645SOL    HW2 2579   2.766   0.816   0.691 -0.9623  0.2616  0.8841
  645SOL     MW 2580   2.836   0.866   0.679 -0.0795 -0.0769 -0.0215
  646SOL     OW 2581   0.198   2.264   0.811 -0.4227  0.0062 -0.3748
  646SOL    HW1 2582   0.229   2.168   0.829  0.9303 -1.1263  0.4020
  646SOL    HW2 2583   0.112   2.259   0.756 -0.7910 -0.5025  0.5966
  646SOL     MW 2584   0.191   2.251   0.806 -0.2928 -0.2103 -0.1442
  647SOL     OW 2585   2.714   0.504   2.987  0.2230 -0.3512 -0.1196
  647SOL    HW1 2586   2.662   0.435   3.036  1.5234  2.0693  1.7129
  647SOL    HW2 2587   2.653   0.578   2.966 -1.6281  3.9420  0.7135
  647SOL     MW 2588   2.699   0.505   2.991  0.1503  0.5346  0.2321
  648SOL     OW 2589   2.137   0.749   1.129 -0.4854  0.0048 -0.2934
  648SOL    HW1 2590   2.160   0.775   1.037 -0.1277 -0.5153 -0.8712
  648SOL    HW2 2591   2.188   0.800   1.187  0.2281  0.5216 -1.6957
  648SOL     MW 2592   2.147   0.760   1.125 -0.3441  0.0043 -0.5546
  649SOL     OW 2593   2.375   2.772   1.276 -0.6669  0.3350  0.1246
  649SOL    HW1 2594   2.452   2.830   1.289  0.1165  0.9792  0.3996
  649SOL    HW2 2595   2.403   2.696   1.228  0.5193 -0.5253  2.9036
  649SOL     MW 2596   2.389   2.770   1.272 -0.4071  0.3065  0.5275
  650SOL     OW 2597   2.829   0.190   0.669  0.0731 -0.1664  0.2047
  650SOL    HW1 2598   2.874   0.250   0.724  0.2411 -1.6165 -1.0237
  650SOL    HW2 2599   2.866   0.204   0.579 -1.2346 -1.4262 -2.3771
  650SOL     MW 2600   2.839   0.200   0.664 -0.0773 -0.5240 -0.2980
  651SOL     OW 2601   2.984   0.404   0.798 -0.0244  0.2161 -0.2700
  651SOL    HW1 2602   3.055   0.454   0.753 -1.3033 -0.8559 -1.7085
  651SOL    HW2 2603   2.938   0.475   0.845  0.4233 -0.0671  0.4983
  651SOL     MW 2604   2.987   0.420   0.799 -0.1341  0.0373 -0.3584
  652SOL     OW 2605   2.389   1.481   3.021  0.1982  0.8535  0.3422
  652SOL    HW1 2606   2.460   1.493   2.963 -0.4389  1.7280  0.0304
  652SOL    HW2 2607   2.323   1.558   3.019  0.2020  0.2832 -0.7077
  652SOL     MW 2608   2.390   1.493   3.013  0.1147  0.8936  0.1626
  653SOL     OW 2609   1.909   0.438   0.334  0.0014  0.2088  0.0267
  653SOL    HW1 2610   1.892   0.358   0.279 -0.2034 -1.5683 -0.2678
  653SOL    HW2 2611   1.997   0.419   0.365 -1.0182 -0.6817 -2.2200
  653SOL     MW 2612   1.918   0.425   0.331 -0.1601 -0.1432 -0.3086
  654SOL     OW 2613   2.455   1.052   0.701  0.1390  0.6970 -0.0790
  654SOL    HW1 2614   2.361   1.040   0.685  1.2927  0.4571 -0.3891
  654SOL    HW2 2615   2.482   0.979   0.758 -0.9642 -0.7760  0.7814
  654SOL     MW 2616   2.446   1.040   0.706  0.1457  0.4710 -0.0064
  655SOL     OW 2617   2.998   0.926   0.387 -0.6092 -0.1767 -0.0372
  655SOL    HW1 2618   2.912   0.957   0.427 -1.9000 -0.4916 -0.6973
  655SOL    HW2 2619   3.015   0.831   0.410  1.1691 -1.5635 -1.2143
  655SOL     MW 2620   2.989   0.918   0.395 -0.5449 -0.4012 -0.2796
  656SOL     OW 2621   1.971   2.672   1.205  0.3132  0.1434  0.1519
  656SOL    HW1 2622   1.945   2.759   1.238 -2.5822  2.5697 -1.6314
  656SOL    HW2 2623   2.006   2.625   1.278  1.6158 -0.4201 -1.1118
  656SOL     MW 2624   1.972   2.678   1.219  0.1030  0.3892 -0.2501
  657SOL     OW 2625   0.194   1.579   1.269 -0.0282  0.0790  0.1654
  657SOL    HW1 2626   0.138   1.640   1.215 -1.1796  0.0117 -0.8399
  657SOL    HW2 2627   0.200   1.497   1.220  1.0031 -0.5725  1.4645
  657SOL     MW 2628   0.187   1.576   1.256 -0.0441 -0.0158  0.2042
  658SOL     OW 2629   2.688   1.367   0.201 -0.2174 -0.7173 -0.7385
  658SOL    HW1 2630   2.642   1.317   0.274 -1.2211  0.9919 -0.2837
  658SOL    HW2 2631   2.759   1.412   0.257  0.1180 -1.4671  2.4173
  658SOL     MW 2632   2.691   1.366   0.218 -0.3056 -0.5907 -0.2621
  659SOL     OW 2633   2.292   1.534   1.034  0.3943 -0.1934  0.1146
  659SOL    HW1 2634   2.385   1.499   1.039 -4.9410 -0.2550  0.4829
  659SOL    HW2 2635   2.268   1.561   1.123 -0.3114  2.6574 -2.5516
  659SOL     MW 2636   2.301   1.533   1.047 -0.4028  0.1746 -0.1886
  660SOL     OW 2637   2.034   1.575   1.689 -0.1111 -0.0534  0.5106
  660SOL    HW1 2638   2.049   1.578   1.788 -1.2840 -0.9951  0.0568
  660SOL    HW2 2639   1.986   1.496   1.671  3.5284 -0.2311 -0.2249
  660SOL     MW 2640   2.030   1.565   1.699  0.2144 -0.2011  0.3537
  661SOL     OW 2641   2.377   1.071   0.205 -0.3437 -0.7228  0.6365
  661SOL    HW1 2642   2.451   1.107   0.263  1.6553 -3.0131  3.2816
  661SOL    HW2 2643   2.351   0.992   0.257 -0.8372 -0.7397 -0.6193
  661SOL     MW 2644   2.383   1.065   0.219 -0.1451 -1.0272  0.8198
  662SOL     OW 2645   2.501   2.928   0.891  0.2758  0.0900  0.1024
  662SOL    HW1 2646   2.464   3.006   0.933  2.2463 -1.3899 -0.3332
  662SOL    HW2 2647   2.549   2.965   0.815  1.9770 -1.0639  0.2351
  662SOL     MW 2648   2.502   2.943   0.886  0.7603 -0.2575  0.0625
  663SOL     OW 2649   2.843   1.517   0.366  0.1811 -0.7466 -0.4454
  663SOL    HW1 2650   2.905   1.574   0.322 -1.4895 -1.1685 -0.7945
  663SOL    HW2 2651   2.864   1.515   0.462 -0.4791  2.8469  3.2803
  663SOL     MW 2652   2.854   1.524   0.373 -0.1264 -0.3281  0.0001
  664SOL     OW 2653   2.462   1.559   1.570  0.1065 -0.1363 -0.0344
  664SOL    HW1 2654   2.441   1.655   1.557  1.1978 -1.2631 -0.4374
  664SOL    HW2 2655   2.386   1.517   1.609  0.0327  1.5292 -0.3376
  664SOL     MW 2656   2.449   1.566   1.573  0.2408 -0.0652 -0.1276
  665SOL     OW 2657   2.845   0.800   2.077  0.0597 -0.1244 -0.3878
  665SOL    HW1 2658   2.822   0.848   1.997 -0.6549  1.6689 -0.6191
  665SOL    HW2 2659   2.902   0.728   2.067 -2.8808  1.4639  0.1803
  665SOL     MW 2660   2.849   0.797   2.065 -0.4226  0.3218 -0.3434
  666SOL     OW 2661   2.755   3.045   1.681 -0.6868  0.0705 -0.1596
  666SOL    HW1 2662   2.777   3.013   1.593  0.1688 -4.5758  1.5510
  666SOL    HW2 2663   2.719   2.962   1.728 -0.0488 -0.9670  1.2430
  666SOL     MW 2664   2.753   3.030   1.676 -0.4898 -0.6794  0.2512
  667SOL     OW 2665   1.986   2.690   1.661  0.2078 -0.4239  0.4565
  667SOL    HW1 2666   2.014   2.612   1.713  2.0285  1.1324 -0.6721
  667SOL    HW2 2667   2.062   2.747   1.678 -2.0928 -0.6239  0.2898
  667SOL     MW 2668   2.000   2.688   1.670  0.1445 -0.2450  0.2856
  668SOL     OW 2669   2.748   0.636   0.809 -0.7666 -0.3930 -0.6421
  668SOL    HW1 2670   2.810   0.673   0.879  1.7162 -0.1214  1.6149
  668SOL    HW2 2671   2.663   0.687   0.829  0.3357  0.4152 -0.5446
  668SOL     MW 2672   2.745   0.648   0.821 -0.2936 -0.2505 -0.3315
  669SOL     OW 2673   0.192   0.944   0.660 -0.5308  0.0990 -0.0514
  669SOL    HW1 2674   0.127   0.996   0.701  2.4682  2.3605  1.3305
  669SOL    HW2 2675   0.287   0.965   0.682  0.9388  3.0951 -0.4881
  669SOL     MW 2676   0.196   0.954   0.668  0.0588  0.7927  0.0733
  670SOL     OW 2677   2.886   0.292   0.199 -0.5231  0.3937  0.3815
  670SOL    HW1 2678   2.903   0.230   0.122  1.6933  0.1556 -1.1775
  670SOL    HW2 2679   2.926   0.378   0.185 -2.5128  1.1123  0.2686
  670SOL     MW 2680   2.894   0.295   0.187 -0.4932  0.4571  0.1609
  671SOL     OW 2681   2.145   3.022   1.567 -0.6525  0.4098 -0.7336
  671SOL    HW1 2682   2.101   3.021   1.480 -0.1839 -0.1449  1.5756
  671SOL    HW2 2683   2.126   3.113   1.593  2.5199 -1.0314 -0.6781
  671SOL     MW 2684   2.137   3.034   1.559 -0.1721  0.1465 -0.4216
  672SOL     OW 2685   1.847   1.693   1.315 -0.3341 -0.1348  0.0980
  672SOL    HW1 2686   1.788   1.733   1.385  1.9183 -0.3749  0.0261
  672SOL    HW2 2687   1.882   1.766   1.258 -0.3615 -0.5116 -0.1945
  672SOL     MW 2688   1.844   1.708   1.317 -0.0406 -0.2162  0.0499
  673SOL     OW 2689   2.785   1.106   0.492  0.1178 -0.2299  0.0046
  673SOL    HW1 2690   2.781   1.034   0.553  0.2426 -0.9015 -0.3467
  673SOL    HW2 2691   2.837   1.171   0.545 -1.6876  2.3738  3.2558
  673SOL     MW 2692   2.791   1.105   0.507 -0.1039  0.0250  0.3872
  674SOL     OW 2693   2.516   0.115   1.212 -0.1291  0.1858  0.0007
  674SOL    HW1 2694   2.486   0.089   1.124  1.1146 -2.5906  0.9442
  674SOL    HW2 2695   2.528   0.030   1.259  0.9421  1.8767 -2.5233
  674SOL     MW 2696   2.514   0.101   1.206  0.1763  0.0426 -0.2079
  675SOL     OW 2697   3.023   0.949   1.101 -0.1294 -0.7656  0.0688
  675SOL    HW1 2698   3.080   0.912   1.169 -1.2988  2.8468  1.2874
  675SOL    HW2 2699   3.076   0.969   1.025 -0.2970 -0.2702 -0.9833
  675SOL     MW 2700   3.037   0.947   1.100 -0.3058 -0.2236  0.0908
  676SOL     OW 2701   2.889   1.507   1.630  0.3022 -0.0374  0.1754
  676SOL    HW1 2702   2.828   1.439   1.592  1.4927  2.1632 -0.8420
  676SOL    HW2 2703   2.943   1.458   1.686 -2.3040  2.2145  0.6118
  676SOL     MW 2704   2.888   1.492   1.632  0.1154  0.5501  0.0987
  677SOL     OW 2705   2.451   0.732   1.915  0.0144 -0.3180  0.7898
  677SOL    HW1 2706   2.416   0.650   1.877  0.2704  1.6168  1.0563
  677SOL    HW2 2707   2.393   0.769   1.975  1.0569 -0.9653 -3.3110
  677SOL     MW 2708   2.439   0.726   1.918  0.1857 -0.1481  0.2839
  678SOL     OW 2709   2.541   1.593   0.410 -0.2965  0.5960 -0.6417
  678SOL    HW1 2710   2.462   1.651   0.429  2.9606  1.7669 -2.0395
  678SOL    HW2 2711   2.535   1.597   0.317 -0.4087  1.8716 -1.2832
  678SOL     MW 2712   2.530   1.601   0.401  0.1184  0.9188 -0.9108
  679SOL     OW 2713   2.314   0.502   1.149 -0.4690 -0.0474  0.6161
  679SOL    HW1 2714   2.257   0.435   1.191 -2.9972  1.1542 -0.3903
  679SOL    HW2 2715   2.258   0.580   1.133 -0.6366 -0.6795  0.1061
  679SOL     MW 2716   2.299   0.504   1.152 -0.8247  0.0278  0.4160
  680SOL     OW 2717   2.387   0.255   1.410 -0.6787 -0.8026 -0.8725
  680SOL    HW1 2718   2.316   0.204   1.427  1.5814  3.4989 -0.4395
  680SOL    HW2 2719   2.439   0.221   1.331  1.2189  1.7609 -0.1007
  680SOL     MW 2720   2.384   0.244   1.402 -0.1302  0.1032 -0.7136
  681SOL     OW 2721   0.337   0.585   1.550  0.6166  0.5330 -0.4074
  681SOL    HW1 2722   0.298   0.525   1.617  0.4827 -0.7770  1.2760
  681SOL    HW2 2723   0.432   0.566   1.573  0.9160 -1.5144  1.1257
  681SOL     MW 2724   0.344   0.574   1.562  0.6384  0.0900  0.0170
  682SOL     OW 2725   0.127   2.946   1.473  0.5014 -0.3510 -0.6016
  682SOL    HW1 2726   0.150   3.039   1.463 -2.7782  3.1524  0.7304
  682SOL    HW2 2727   0.054   2.938   1.533  2.1080 -0.5610  0.3850
  682SOL     MW 2728   0.120   2.957   1.479  0.2806  0.0835 -0.2957
  683SOL     OW 2729   2.079   0.856   3.038  0.0283  0.4297  0.4726
  683SOL    HW1 2730   2.001   0.828   2.985  0.7168  3.1912 -0.0640
  683SOL    HW2 2731   2.047   0.945   3.061 -0.7778  2.6894 -0.4775
  683SOL     MW 2732   2.064   0.864   3.034  0.0128  1.0922  0.2764
  684SOL     OW 2733   2.200   1.765   0.907  0.0463  0.5034 -0.0320
  684SOL    HW1 2734   2.107   1.744   0.907 -2.8375  0.3596 -0.8066
  684SOL    HW2 2735   2.247   1.682   0.921  3.0158  0.5941 -0.6528
  684SOL     MW 2736   2.194   1.751   0.909  0.0576  0.4964 -0.2161
  685SOL     OW 2737   2.621   1.743   1.250  0.5184  0.2669 -0.5876
  685SOL    HW1 2738   2.660   1.728   1.335 -0.7657 -0.0492  0.2059
  685SOL    HW2 2739   2.596   1.652   1.222  1.3931 -1.2025  0.4917
  685SOL     MW 2740   2.622   1.729   1.258  0.4644  0.0313 -0.3405
  686SOL     OW 2741   2.862   0.705   1.459 -0.0355  0.4592 -0.1582
  686SOL    HW1 2742   2.860   0.652   1.546  3.6268  2.8189  1.5155
  686SOL    HW2 2743   2.940   0.678   1.420 -1.8067 -2.4908  0.0259
  686SOL     MW 2744   2.872   0.695   1.466  0.2140  0.3813  0.0869
  687SOL     OW 2745   2.151   0.293   1.218  0.3082 -0.3474 -0.4858
  687SOL    HW1 2746   2.166   0.240   1.136 -0.9542  0.4044 -0.5878
  687SOL    HW2 2747   2.074   0.351   1.209 -1.7398  0.9920  3.2220
  687SOL     MW 2748   2.143   0.294   1.206 -0.1286 -0.0715 -0.0100
  688SOL     OW 2749   2.368   0.612   1.475 -0.2571  0.1023  0.1721
  688SOL    HW1 2750   2.330   0.526   1.456 -1.0225  1.2167 -1.6902
  688SOL    HW2 2751   2.327   0.638   1.557 -0.4915  2.2211  1.5485
  688SOL     MW 2752   2.357   0.604   1.483 -0.3890  0.5289  0.1080
  689SOL     OW 2753   2.551   0.742   2.986 -0.0100 -0.1833  0.3272
  689SOL    HW1 2754   2.582   0.832   2.973 -0.4908 -0.4175 -0.3378
  689SOL    HW2 2755   2.585   0.731   3.080 -0.5606 -0.0976 -1.9836
  689SOL     MW 2756   2.560   0.753   2.997 -0.1461 -0.2029 -0.0654
  690SOL     OW 2757   2.117   0.952   1.907 -0.0379 -0.1129 -0.3207
  690SOL    HW1 2758   2.047   0.889   1.919  1.4677 -0.2269  0.6718
  690SOL    HW2 2759   2.134   0.933   1.813  0.2984 -1.0653 -0.9820
  690SOL     MW 2760   2.110   0.941   1.896  0.2051 -0.2536 -0.2770
  691SOL     OW 2761   2.439   0.273   0.835  0.1373  0.0771 -0.3643
  691SOL    HW1 2762   2.515   0.326   0.877  0.3450 -1.6993  0.4750
  691SOL    HW2 2763   2.358   0.320   0.853 -2.4452  0.6162  0.9363
  691SOL     MW 2764   2.438   0.286   0.843 -0.1761 -0.0862 -0.0819
  692SOL     OW 2765   2.812   1.714   1.454  0.3587 -0.6304  0.6180
  692SOL    HW1 2766   2.843   1.655   1.513  1.0098 -1.3288  0.1064
  692SOL    HW2 2767   2.836   1.798   1.492  1.4562  2.6449  0.7365
  692SOL     MW 2768   2.820   1.717   1.467  0.5894 -0.2904  0.5661
  693SOL     OW 2769   2.334   0.441   0.114 -0.0018  0.0196  0.2464
  693SOL    HW1 2770   2.257   0.391   0.109 -0.3997 -1.3931 -1.4209
  693SOL    HW2 2771   2.310   0.523   0.070  0.7887 -4.2468 -2.2384
  693SOL     MW 2772   2.320   0.445   0.108  0.0500 -0.7297 -0.3014
  694SOL     OW 2773   1.938   1.290   1.087 -0.0760 -0.1572  0.3341
  694SOL    HW1 2774   2.011   1.238   1.120 -0.1266 -0.4091 -0.7806
  694SOL    HW2 2775   1.867   1.233   1.108  0.5010 -0.3722 -0.4012
  694SOL     MW 2776   1.938   1.276   1.094 -0.0066 -0.2188  0.0900
  695SOL     OW 2777   2.968   1.441   1.305  0.2295 -0.1462 -0.4153
  695SOL    HW1 2778   2.964   1.468   1.216  1.1218  1.7430 -0.0195
  695SOL    HW2 2779   2.946   1.509   1.367  0.7671 -0.9952  1.9423
  695SOL     MW 2780   2.964   1.454   1.302  0.4182 -0.0089 -0.0520
  696SOL     OW 2781   2.102   1.393   0.894 -0.4401  0.1204  0.1289
  696SOL    HW1 2782   2.178   1.438   0.934  3.4000 -1.5394  0.4273
  696SOL    HW2 2783   2.063   1.357   0.976  0.8001 -1.4043  0.6887
  696SOL     MW 2784   2.107   1.394   0.910  0.2302 -0.2998  0.2421
  697SOL     OW 2785   2.928   1.097   2.146 -0.0872  0.1451 -0.4853
  697SOL    HW1 2786   2.888   1.182   2.152 -2.5297  1.2538 -0.2542
  697SOL    HW2 2787   2.856   1.040   2.134 -2.1064  0.2451 -1.2482
  697SOL     MW 2788   2.913   1.100   2.146 -0.6759  0.3046 -0.5555
  698SOL     OW 2789   2.565   0.285   0.021  0.1982  0.1622 -0.6710
  698SOL    HW1 2790   2.502   0.345   0.054  2.0842 -2.3143  0.8103
  698SOL    HW2 2791   2.594   0.237   0.109  0.1729  0.7334  1.4212
  698SOL     MW 2792   2.561   0.287   0.037  0.4437 -0.0892 -0.1995
  699SOL     OW 2793   1.841   1.645   2.057 -0.6749 -0.0272  0.0325
  699SOL    HW1 2794   1.821   1.551   2.063  0.1332  0.2450 -1.7661
  699SOL    HW2 2795   1.929   1.643   2.013 -0.9576 -1.0050  0.0624
  699SOL     MW 2796   1.850   1.633   2.052 -0.6056 -0.1203 -0.2009
  700SOL     OW 2797   2.726   0.905   1.569  0.3522 -0.0490  0.3125
  700SOL    HW1 2798   2.744   0.986   1.516  2.5674 -1.4718 -1.6274
  700SOL    HW2 2799   2.798   0.848   1.534  0.2449  2.1003  2.6779
  700SOL     MW 2800   2.738   0.908   1.557  0.6303  0.0469  0.3687
  701SOL     OW 2801   1.662   1.281   2.591 -0.2408  0.3162 -0.4852
  701SOL    HW1 2802   1.746   1.325   2.587 -0.4349 -2.9649  2.8460
  701SOL    HW2 2803   1.601   1.339   2.640  0.2703  1.1210 -0.4114
  701SOL     MW 2804   1.665   1.294   2.597 -0.1990 -0.0105 -0.0359
  702SOL     OW 2805   2.189   0.399   0.835 -0.3598 -0.2908  0.6275
  702SOL    HW1 2806   2.153   0.343   0.767 -2.5193  0.3083  0.7961
  702SOL    HW2 2807   2.233   0.462   0.777 -1.3759 -1.2317 -0.8603
  702SOL     MW 2808   2.190   0.400   0.818 -0.7788 -0.3359  0.4535
  703SOL     OW 2809   2.675   1.290   1.006  0.0977 -0.2419  0.6902
  703SOL    HW1 2810   2.615   1.296   0.935 -0.5156  0.9460 -0.8286
  703SOL    HW2 2811   2.699   1.197   1.036  0.5679 -1.6719  2.3075
  703SOL     MW 2812   2.671   1.279   1.001  0.0788 -0.2739  0.7032
  704SOL     OW 2813   3.094   1.329   0.288 -0.1189 -0.0238 -0.3838
  704SOL    HW1 2814   3.017   1.286   0.247  0.7428 -2.8239  3.3680
  704SOL    HW2 2815   3.121   1.276   0.366 -2.8268 -1.2444  3.0497
  704SOL     MW 2816   3.088   1.317   0.293 -0.3625 -0.5543  0.5642
  705SOL     OW 2817   2.165   1.618   1.253  0.3900 -0.4729  0.5639
  705SOL    HW1 2818   2.066   1.600   1.235  4.7855 -0.4558  0.3966
  705SOL    HW2 2819   2.185   1.544   1.306  0.6978 -0.5182 -0.6638
  705SOL     MW 2820   2.155   1.606   1.258  1.0106 -0.4766  0.3798
  706SOL     OW 2821   2.965   1.263   0.667 -0.4633 -0.5935  0.8748
  706SOL    HW1 2822   3.042   1.245   0.623 -0.3917  0.3238  2.2966
  706SOL    HW2 2823   2.957   1.361   0.671 -1.5867  0.6161  0.3082
  706SOL     MW 2824   2.974   1.273   0.661 -0.6021 -0.3129  0.9876
  707SOL     OW 2825   2.384   0.047   0.979 -0.0589  0.1652  0.1529
  707SOL    HW1 2826   2.420   0.123   0.921  0.1434  0.9640  1.7675
  707SOL    HW2 2827   2.290   0.062   0.990  0.2764 -1.3004  0.1235
  707SOL     MW 2828   2.376   0.059   0.973  0.0120  0.0772  0.3621
  708SOL     OW 2829   2.543   1.587   0.127 -0.0329 -0.0498  0.6495
  708SOL    HW1 2830   2.603   1.508   0.137  1.3477  0.4333  0.1896
  708SOL    HW2 2831   2.478   1.550   0.068  0.0309 -0.7767 -3.8634
  708SOL     MW 2832   2.542   1.571   0.120  0.1577 -0.0820 -0.0066
  709SOL     OW 2833   1.712   1.748   0.126  0.3542 -0.3130  0.5417
  709SOL    HW1 2834   1.648   1.746   0.053  0.0475 -1.9657 -2.9544
  709SOL    HW2 2835   1.659   1.718   0.196  1.9291  1.2094 -0.7078
  709SOL     MW 2836   1.696   1.744   0.126  0.5215 -0.3302 -0.0845
  710SOL     OW 2837   2.140   1.146   1.190 -0.6143 -0.3104  0.2281
  710SOL    HW1 2838   2.220   1.126   1.135  0.8416  1.5514  0.0143
  710SOL    HW2 2839   2.126   1.062   1.238 -1.1079  1.4410  0.3154
  710SOL     MW 2840   2.149   1.132   1.189 -0.4873  0.1663  0.2114
  711SOL     OW 2841   2.321   0.118   1.735  0.0776  0.0675  0.6571
  711SOL    HW1 2842   2.406   0.115   1.789 -3.6802  0.4280 -0.7293
  711SOL    HW2 2843   2.342   0.103   1.646  0.4344 -0.4900  1.2092
  711SOL     MW 2844   2.335   0.116   1.731 -0.3712  0.0415  0.5470
  712SOL     OW 2845   1.745   0.613   3.078  1.2414  0.0703 -0.2758
  712SOL    HW1 2846   1.751   0.676   3.006  1.8987 -1.4074 -0.2266
  712SOL    HW2 2847   1.789   0.658   3.142  2.7174 -0.1813  0.0400
  712SOL     MW 2848   1.751   0.627   3.077  1.5229 -0.1579 -0.2276
  713SOL     OW 2849   2.589   0.795   1.091  0.1411  0.9028 -0.4320
  713SOL    HW1 2850   2.603   0.700   1.114  1.1030 -1.6704  1.4865
  713SOL    HW2 2851   2.548   0.825   1.171  2.0943 -1.7222 -0.1282
  713SOL     MW 2852   2.585   0.787   1.105  0.5257  0.2170 -0.1388
  714SOL     OW 2853   2.161   0.207   1.949 -0.6027  0.4097 -0.0399
  714SOL    HW1 2854   2.207   0.184   2.030 -0.9559  1.0743 -0.1497
  714SOL    HW2 2855   2.234   0.186   1.881  1.8076 -0.2323  0.1130
  714SOL     MW 2856   2.177   0.201   1.950 -0.3313  0.4127 -0.0342
  715SOL     OW 2857   1.760   1.904   1.713  0.1166  0.1930  0.6980
  715SOL    HW1 2858   1.855   1.913   1.681 -2.2160  1.2889  1.4034
  715SOL    HW2 2859   1.754   1.815   1.750 -1.6621 -0.5630 -0.5652
  715SOL     MW 2860   1.772   1.894   1.713 -0.4259  0.2379  0.6244
  716SOL     OW 2861   2.385   0.571   0.726  0.7356 -0.4450  0.4900
  716SOL    HW1 2862   2.425   0.498   0.675 -1.8301  1.2637 -0.2210
  716SOL    HW2 2863   2.330   0.615   0.661  0.0237 -0.1502  0.3439
  716SOL     MW 2864   2.383   0.567   0.711  0.3032 -0.1807  0.3769
  717SOL     OW 2865   2.863   1.467   2.905 -0.2009  0.2494 -0.3994
  717SOL    HW1 2866   2.952   1.441   2.930 -2.1977  0.1905 -1.6333
  717SOL    HW2 2867   2.837   1.521   2.978  0.9987  1.1463 -1.2475
  717SOL     MW 2868   2.871   1.471   2.918 -0.3061  0.3600 -0.6741
  718SOL     OW 2869   2.531   1.325   1.394  0.0092  0.4719 -0.0423
  718SOL    HW1 2870   2.538   1.410   1.443  0.4911 -0.5647 -1.5641
  718SOL    HW2 2871   2.619   1.286   1.390  0.2819 -0.0358 -3.2422
  718SOL     MW 2872   2.543   1.331   1.400  0.1088  0.2681 -0.6653
  719SOL     OW 2873   2.170   1.349   0.606 -0.4761 -1.2458 -0.9665
  719SOL    HW1 2874   2.267   1.364   0.602  0.1874  1.0841  0.4316
  719SOL    HW2 2875   2.144   1.374   0.695  1.6281  2.8219 -1.6263
  719SOL     MW 2876   2.180   1.354   0.617 -0.1109 -0.4017 -0.8691
  720SOL     OW 2877   2.887   1.193   0.132 -0.1437  0.0356  0.3604
  720SOL    HW1 2878   2.869   1.101   0.140 -1.1614  0.0689 -0.0498
  720SOL    HW2 2879   2.810   1.244   0.144 -0.1960  0.6202  0.7601
  720SOL     MW 2880   2.874   1.187   0.134 -0.2849  0.1171  0.3590
  721SOL     OW 2881   2.520   0.837   1.358  0.1625  0.0775 -0.3072
  721SOL    HW1 2882   2.472   0.760   1.398 -4.4147 -1.3675  0.4434
  721SOL    HW2 2883   2.585   0.859   1.433  0.5392  1.6093  0.7589
  721SOL     MW 2884   2.522   0.830   1.373 -0.3917  0.0890 -0.0675
  722SOL     OW 2885   2.538   1.216   0.386  0.2177 -0.1533 -0.4464
  722SOL    HW1 2886   2.472   1.271   0.443 -2.4701  4.4441 -2.7277
  722SOL    HW2 2887   2.612   1.189   0.438 -0.2446 -0.2645 -1.2242
  722SOL     MW 2888   2.539   1.220   0.400 -0.1979  0.4386 -0.8500
  723SOL     OW 2889   2.231   1.379   1.634 -0.6636 -0.2289  0.0307
  723SOL    HW1 2890   2.229   1.347   1.545 -1.8678  0.4223  1.1481
  723SOL    HW2 2891   2.177   1.457   1.635  0.1615 -1.9646 -0.3733
  723SOL     MW 2892   2.224   1.385   1.623 -0.7136 -0.3720  0.1248
  724SOL     OW 2893   2.486   0.368   0.553  0.5064 -0.0303 -0.1776
  724SOL    HW1 2894   2.475   0.301   0.615 -0.9927  0.4825 -1.7052
  724SOL    HW2 2895   2.572   0.406   0.558 -0.9947  0.2852 -0.0505
  724SOL     MW 2896   2.496   0.364   0.562  0.1106  0.0790 -0.3624
  725SOL     OW 2897   2.586   0.533   1.143 -0.0274 -0.2777 -0.8031
  725SOL    HW1 2898   2.610   0.525   1.235  1.6177  1.8227  2.1508
  725SOL    HW2 2899   2.490   0.524   1.146  0.7764 -2.2888  1.6293
  725SOL     MW 2900   2.576   0.530   1.156  0.2957 -0.2659 -0.0925
  726SOL     OW 2901   2.560   2.429   0.528  0.0929 -0.2159  0.8529
  726SOL    HW1 2902   2.508   2.495   0.480 -0.3606  2.5776 -1.0035
  726SOL    HW2 2903   2.504   2.381   0.590  2.2496 -0.1859 -2.2567
  726SOL     MW 2904   2.546   2.431   0.530  0.3176  0.1566  0.1977
  727SOL     OW 2905   2.868   0.287   1.604  0.5878  0.0839  0.0515
  727SOL    HW1 2906   2.887   0.295   1.504 -0.3815  2.3925 -2.7928
  727SOL    HW2 2907   2.775   0.266   1.607  1.3117 -3.0725 -1.5159
  727SOL     MW 2908   2.858   0.286   1.591  0.5555 -0.0280 -0.5306
  728SOL     OW 2909   2.821   1.156   2.967 -0.0027  0.1646  0.2881
  728SOL    HW1 2910   2.817   1.231   2.910 -2.2613 -2.4440  0.8034
  728SOL    HW2 2911   2.874   1.191   3.042  1.1110 -1.7163 -1.3185
  728SOL     MW 2912   2.828   1.170   2.970 -0.1537 -0.4277  0.1441
  729SOL     OW 2913   2.551   1.474   1.158  0.4531  0.2551  0.2113
  729SOL    HW1 2914   2.527   1.405   1.225  0.5662  0.7262 -3.9166
  729SOL    HW2 2915   2.620   1.425   1.111  0.0095 -0.8909 -0.1374
  729SOL     MW 2916   2.557   1.459   1.161  0.4095  0.1661 -0.3793
  730SOL     OW 2917   2.118   1.119   0.285 -0.1580 -0.1208 -0.1211
  730SOL    HW1 2918   2.214   1.131   0.280 -0.3672 -0.3619 -0.7939
  730SOL    HW2 2919   2.090   1.211   0.283 -1.0812  1.7223  0.2187
  730SOL     MW 2920   2.127   1.133   0.284 -0.3074  0.0906 -0.1650
  731SOL     OW 2921   2.804   1.855   2.904  0.1728 -0.2403 -0.0024
  731SOL    HW1 2922   2.743   1.917   2.863 -0.8017 -0.1490 -0.5506
  731SOL    HW2 2923   2.887   1.903   2.897  0.2340 -0.4640 -0.4802
  731SOL     MW 2924   2.807   1.870   2.898  0.0523 -0.2578 -0.1378
  732SOL     OW 2925   2.257   0.935   1.344 -0.5512  0.2866 -0.1029
  732SOL    HW1 2926   2.185   0.905   1.397 -1.9938 -0.5100 -1.9859
  732SOL    HW2 2927   2.351   0.918   1.370  1.3785 -1.7541 -3.1787
  732SOL     MW 2928   2.260   0.929   1.354 -0.4869 -0.0877 -0.7572
  733SOL     OW 2929   2.349   2.828   3.076 -0.2748 -0.2832 -0.1533
  733SOL    HW1 2930   2.270   2.874   3.055  0.1576  0.1646 -1.1791
  733SOL    HW2 2931   2.329   2.732   3.078 -0.8979 -0.3019  0.2276
  733SOL     MW 2932   2.336   2.821   3.073 -0.3000 -0.2266 -0.2384
  734SOL     OW 2933   1.496   0.384   2.449 -0.0736 -0.4055 -0.1508
  734SOL    HW1 2934   1.481   0.353   2.540 -1.9214  1.5753  1.0462
  734SOL    HW2 2935   1.509   0.308   2.393 -1.5877  2.1897  2.2666
  734SOL     MW 2936   1.496   0.370   2.454 -0.5172  0.1983  0.3261
  735SOL     OW 2937   3.028   0.989   2.631 -0.4008 -0.0945 -0.9257
  735SOL    HW1 2938   3.035   0.892   2.629  0.4870  0.5380  0.0247
  735SOL    HW2 2939   3.047   1.011   2.720 -1.9622 -1.0660 -0.3725
  735SOL     MW 2940   3.031   0.979   2.643 -0.4896 -0.1392 -0.7273
  736SOL     OW 2941   0.072   0.596   2.555  0.0076 -0.1763  0.6537
  736SOL    HW1 2942   0.125   0.647   2.490  0.7243 -0.6557 -0.4664
  736SOL    HW2 2943   0.060   0.509   2.511 -0.1914  0.8993 -0.0548
  736SOL     MW 2944   0.078   0.591   2.541  0.0759 -0.0977  0.4124
  737SOL     OW 2945   2.914   0.700   2.613 -0.1419 -0.3256 -0.1385
  737SOL    HW1 2946   2.853   0.694   2.537  0.3142 -1.1078 -0.9342
  737SOL    HW2 2947   2.995   0.658   2.589 -1.2947  0.7883  1.3668
  737SOL     MW 2948   2.917   0.694   2.600 -0.2338 -0.2818 -0.0449
  738SOL     OW 2949   0.162   0.536   1.984  0.1501  0.0638 -0.4241
  738SOL    HW1 2950   0.254   0.560   1.989  0.8161  0.0658  3.5153
  738SOL    HW2 2951   0.161   0.459   1.923 -2.5364  0.8959 -0.7731
  738SOL     MW 2952   0.174   0.529   1.977 -0.1165  0.1738  0.0496
  739SOL     OW 2953   2.532   0.944   2.155 -0.7769 -0.2502 -0.2650
  739SOL    HW1 2954   2.434   0.933   2.148 -0.4262  3.0403 -1.3231
  739SOL    HW2 2955   2.549   0.991   2.074  0.3237  0.1054 -0.1594
  739SOL     MW 2956   2.521   0.949   2.143 -0.5854  0.2308 -0.3906
  740SOL     OW 2957   0.139   1.775   2.962 -0.7957  0.0852 -0.2208
  740SOL    HW1 2958   0.087   1.697   2.937 -2.2046  0.1589  0.1327
  740SOL    HW2 2959   0.231   1.749   2.981 -0.5993  2.3077 -2.1151
  740SOL     MW 2960   0.144   1.761   2.961 -0.9556  0.3881 -0.4241
  741SOL     OW 2961   2.217   1.202   2.706  0.5617  0.3468  0.2499
  741SOL    HW1 2962   2.213   1.295   2.669 -0.4175  0.4423  1.5952
  741SOL    HW2 2963   2.212   1.227   2.799 -0.2042 -0.9458 -0.7324
  741SOL     MW 2964   2.216   1.218   2.713  0.3315  0.1889  0.2978
  742SOL     OW 2965   1.656   1.367   2.280 -0.0382  0.3433 -0.1528
  742SOL    HW1 2966   1.598   1.293   2.261 -1.4617  3.4166 -1.3635
  742SOL    HW2 2967   1.638   1.394   2.374  0.5396 -0.6916  1.8102
  742SOL     MW 2968   1.646   1.361   2.290 -0.1498  0.6122 -0.0535
  743SOL     OW 2969   2.498   1.231   2.694 -0.2845 -0.0828  0.3000
  743SOL    HW1 2970   2.405   1.218   2.710  1.0785 -0.7283 -1.2827
  743SOL    HW2 2971   2.559   1.159   2.725 -0.7283  1.9918  0.1233
  743SOL     MW 2972   2.493   1.220   2.700 -0.1632  0.1058  0.0679
  744SOL     OW 2973   2.791   0.988   1.835 -0.0829  0.2377 -0.0531
  744SOL    HW1 2974   2.705   1.026   1.858 -0.8721 -0.0765  0.2945
  744SOL    HW2 2975   2.769   0.952   1.750 -1.3193  1.8093 -1.1435
  744SOL     MW 2976   2.777   0.988   1.827 -0.3502  0.4036 -0.1511
  745SOL     OW 2977   1.774   0.431   2.463  0.4502  0.2507 -0.6590
  745SOL    HW1 2978   1.794   0.423   2.369 -0.9450 -0.5439 -0.5340
  745SOL    HW2 2979   1.679   0.429   2.460 -1.1262 -1.4799  2.2361
  745SOL     MW 2980   1.764   0.429   2.450  0.0582 -0.0825 -0.2605
  746SOL     OW 2981   1.508   1.471   1.690 -0.3834  0.2361  0.0282
  746SOL    HW1 2982   1.551   1.553   1.716  2.0537 -0.6878  0.8092
  746SOL    HW2 2983   1.499   1.417   1.763  0.2875 -0.8205 -2.7332
  746SOL     MW 2984   1.513   1.475   1.703  0.0267 -0.0252 -0.2331
  747SOL     OW 2985   2.568   1.108   1.921  0.0388  0.6068  0.0370
  747SOL    HW1 2986   2.490   1.124   1.861 -0.4567  1.5721  1.4544
  747SOL    HW2 2987   2.574   1.192   1.967  3.1609 -0.1889 -1.7091
  747SOL     MW 2988   2.559   1.122   1.919  0.3854  0.6292 -0.0064
  748SOL     OW 2989   0.080   3.059   1.909 -0.5526 -0.2875 -0.2910
  748SOL    HW1 2990   0.174   3.059   1.900 -1.4408 -1.6396 -0.3311
  748SOL    HW2 2991   0.067   3.125   1.971 -0.4441 -2.1754  1.4147
  748SOL     MW 2992   0.090   3.068   1.916 -0.6554 -0.7150 -0.0712
  749SOL     OW 2993   2.429   0.609   2.776  1.0480 -0.2646 -0.0058
  749SOL    HW1 2994   2.424   0.694   2.729 -2.3079  0.0087  0.2913
  749SOL    HW2 2995   2.440   0.645   2.870 -1.1037  1.0068  3.1120
  749SOL     MW 2996   2.430   0.625   2.782  0.3213 -0.0608  0.4448
  750SOL     OW 2997   2.071   3.048   1.941 -0.3896  0.6218  0.3039
  750SOL    HW1 2998   2.105   3.140   1.942 -0.1713 -3.4283 -1.1463
  750SOL    HW2 2999   2.144   2.995   1.956  0.5553 -0.8264 -0.2447
  750SOL     MW 3000   2.085   3.054   1.943 -0.2361 -0.1036  0.0402
  751SOL     OW 3001   3.085   0.370   2.377  0.4148  0.4339  0.2135
  751SOL    HW1 3002   3.002   0.401   2.349  1.8075 -1.1991 -0.2609
  751SOL    HW2 3003   3.145   0.374   2.300  1.0826  0.1773 -1.5733
  751SOL     MW 3004   3.082   0.374   2.363  0.6867  0.1846 -0.0849
  752SOL     OW 3005   2.148   0.893   2.785 -0.5365  0.0734  0.6298
  752SOL    HW1 3006   2.214   0.958   2.780 -1.9677  0.6451 -1.4940
  752SOL    HW2 3007   2.129   0.881   2.880  0.2373  0.5055 -0.3112
  752SOL     MW 3008   2.154   0.900   2.796 -0.6232  0.2058  0.2255
  753SOL     OW 3009   2.822   0.431   2.309  0.2403  0.1730  0.0307
  753SOL    HW1 3010   2.765   0.357   2.327  0.6422 -0.5064 -1.4909
  753SOL    HW2 3011   2.787   0.504   2.362  0.2405  0.4218  3.6056
  753SOL     MW 3012   2.810   0.431   2.319  0.2934  0.1162  0.3016
  754SOL     OW 3013   2.289   2.975   2.632 -0.7032  0.6831 -0.6544
  754SOL    HW1 3014   2.321   2.985   2.539  0.9786 -0.5917 -0.8831
  754SOL    HW2 3015   2.354   2.925   2.683 -0.7001 -1.7433 -0.1661
  754SOL     MW 3016   2.302   2.969   2.627 -0.4809  0.1947 -0.6201
  755SOL     OW 3017   2.799   1.584   2.482  0.5202 -0.2374 -0.4118
  755SOL    HW1 3018   2.768   1.503   2.522 -0.9247  0.2506 -1.3443
  755SOL    HW2 3019   2.851   1.616   2.559  0.8991  0.5350  0.6799
  755SOL     MW 3020   2.802   1.578   2.498  0.3796 -0.0711 -0.3908
  756SOL     OW 3021   2.227   1.266   2.992  0.1563 -0.1238 -0.7085
  756SOL    HW1 3022   2.288   1.342   3.023  2.1398  2.3111  3.3855
  756SOL    HW2 3023   2.283   1.187   2.976  1.8902  0.9078 -2.5035
  756SOL     MW 3024   2.242   1.265   2.994  0.6468  0.3335 -0.4052
  757SOL     OW 3025   2.198   0.953   1.652  0.2171 -0.4757 -0.0223
  757SOL    HW1 3026   2.185   0.856   1.664 -0.6683 -2.6055 -0.2153
  757SOL    HW2 3027   2.132   0.987   1.585 -0.1852 -1.0227 -2.6137
  757SOL     MW 3028   2.187   0.944   1.645  0.0472 -0.8289 -0.3897
  758SOL     OW 3029   2.255   1.821   2.622  0.5480 -0.5920 -0.2006
  758SOL    HW1 3030   2.250   1.845   2.525  0.9259 -0.3328  0.6401
  758SOL    HW2 3031   2.342   1.784   2.635  0.7740 -0.9031 -1.8355
  758SOL     MW 3032   2.266   1.819   2.611  0.6277 -0.5989 -0.3054
  759SOL     OW 3033   1.535   1.426   2.770  0.0724 -0.5242 -0.2070
  759SOL    HW1 3034   1.552   1.490   2.706  1.5652 -0.9247 -1.3399
  759SOL    HW2 3035   1.615   1.415   2.831  0.2910  0.0156  0.8830
  759SOL     MW 3036   1.548   1.433   2.770  0.2982 -0.5059 -0.2127
  760SOL     OW 3037   2.637   1.984   2.707 -0.1940  0.2627 -0.3814
  760SOL    HW1 3038   2.574   1.915   2.691  2.0107  1.4987  0.6903
  760SOL    HW2 3039   2.706   1.948   2.652 -3.0024  4.6000 -1.8341
  760SOL     MW 3040   2.638   1.970   2.698 -0.2736  0.9980 -0.4317
  761SOL     OW 3041   2.186   0.448   2.455 -0.5129 -0.0048 -0.1452
  761SOL    HW1 3042   2.124   0.379   2.465  1.1815 -3.1090  0.6748
  761SOL    HW2 3043   2.165   0.516   2.517 -0.9762  3.8118  0.2633
  761SOL     MW 3044   2.175   0.448   2.464 -0.3504  0.0892  0.0169
  762SOL     OW 3045   0.033   0.163   2.096  0.3438  0.2765 -0.4233
  762SOL    HW1 3046  -0.004   0.103   2.161  0.3044 -1.5501 -0.9822
  762SOL    HW2 3047  -0.040   0.215   2.063 -1.2481 -1.6807  0.7689
  762SOL     MW 3048   0.019   0.162   2.100  0.1286 -0.2228 -0.3397
  763SOL     OW 3049   2.435   1.156   2.353 -0.1975  0.4594  0.9936
  763SOL    HW1 3050   2.484   1.085   2.312 -0.3674 -1.2667  1.3305
  763SOL    HW2 3051   2.500   1.217   2.379 -0.0959  0.1409 -2.0616
  763SOL     MW 3052   2.450   1.155   2.351 -0.2065  0.1896  0.6349
  764SOL     OW 3053   0.338   0.174   2.773 -0.7267  0.1893  0.0037
  764SOL    HW1 3054   0.273   0.227   2.727  2.5550  1.4657  0.5202
  764SOL    HW2 3055   0.357   0.225   2.850  0.3204 -1.1875 -2.5659
  764SOL     MW 3056   0.332   0.188   2.777 -0.1555  0.1761 -0.2672
  765SOL     OW 3057   2.733   0.165   2.336  0.6295  0.6071 -0.2268
  765SOL    HW1 3058   2.713   0.123   2.252  0.5764 -1.5546 -0.6029
  765SOL    HW2 3059   2.789   0.100   2.379 -1.3149 -0.7513  0.8023
  765SOL     MW 3060   2.738   0.151   2.331  0.3659  0.1426 -0.1407
  766SOL     OW 3061   1.850   3.011   2.109 -0.1600 -0.4315 -0.2982
  766SOL    HW1 3062   1.910   3.027   2.038  0.9082 -1.2754 -0.6945
  766SOL    HW2 3063   1.772   2.975   2.064 -0.3762  2.4334 -1.9845
  766SOL     MW 3064   1.848   3.009   2.094 -0.0476 -0.1649 -0.5730
  767SOL     OW 3065   2.691   0.619   1.948  0.7032  0.1731  0.0680
  767SOL    HW1 3066   2.757   0.670   1.992  0.0758 -0.0256  1.5966
  767SOL    HW2 3067   2.607   0.670   1.957 -1.1649 -1.3193 -1.9481
  767SOL     MW 3068   2.689   0.632   1.955  0.3739 -0.0501  0.0037
  768SOL     OW 3069   0.032   1.450   2.970  0.2133  0.1267 -0.5092
  768SOL    HW1 3070   0.054   1.479   3.059 -0.0848  0.1675 -1.4912
  768SOL    HW2 3071   0.076   1.363   2.953  0.0683  1.1939  1.0685
  768SOL     MW 3072   0.041   1.442   2.980  0.1548  0.2729 -0.4306
  769SOL     OW 3073   2.382   0.664   2.439  0.6263 -0.5042 -0.0672
  769SOL    HW1 3074   2.395   0.579   2.483 -1.4073 -2.5345  3.6551
  769SOL    HW2 3075   2.440   0.663   2.364 -2.4309 -1.2845 -0.9811
  769SOL     MW 3076   2.391   0.652   2.435 -0.0454 -0.8750  0.3033
  770SOL     OW 3077   0.063   1.612   2.644  0.3043  0.5596 -0.1621
  770SOL    HW1 3078  -0.028   1.624   2.668 -0.2069 -1.2932  0.3164
  770SOL    HW2 3079   0.074   1.518   2.669  1.6413  1.4081 -2.2207
  770SOL     MW 3080   0.052   1.601   2.650  0.4133  0.4271 -0.3706
  771SOL     OW 3081   2.990   0.560   1.961 -0.3043  0.0879  0.4133
  771SOL    HW1 3082   2.979   0.560   1.869  0.0653  0.8053 -1.0300
  771SOL    HW2 3083   3.080   0.570   1.982  0.6199 -1.2573 -0.6077
  771SOL     MW 3084   3.000   0.562   1.951 -0.1336  0.0051  0.0882
  772SOL     OW 3085   0.012   3.083   2.315  0.0650 -0.4840  0.2081
  772SOL    HW1 3086  -0.073   3.068   2.356 -1.1874  0.9119 -3.5024
  772SOL    HW2 3087   0.053   2.996   2.307  1.3157  0.0263  1.3137
  772SOL     MW 3088   0.006   3.069   2.319  0.0648 -0.2325 -0.1356
  773SOL     OW 3089   2.479   2.846   2.809 -0.0016  0.0895 -0.2656
  773SOL    HW1 3090   2.484   2.757   2.763 -1.2837 -2.0167 -1.9188
  773SOL    HW2 3091   2.447   2.824   2.900 -1.7144 -2.7061  0.6992
  773SOL     MW 3092   2.475   2.831   2.815 -0.3967 -0.5573 -0.3564
  774SOL     OW 3093   2.291   1.182   1.828 -0.3070 -0.3791 -0.0887
  774SOL    HW1 3094   2.250   1.242   1.761  1.8631  0.7768  0.1126
  774SOL    HW2 3095   2.247   1.095   1.810 -1.5130 -3.5760 -1.9986
  774SOL     MW 3096   2.280   1.178   1.817 -0.1798 -0.6484 -0.3142
  775SOL     OW 3097   2.283   2.961   2.335  0.2917  0.5323  0.0937
  775SOL    HW1 3098   2.326   3.022   2.273  1.7554  0.1659 -1.3600
  775SOL    HW2 3099   2.339   2.883   2.328 -1.8750  1.3042 -0.2839
  775SOL     MW 3100   2.296   2.959   2.326  0.1990  0.5858 -0.1479
  776SOL     OW 3101   0.108   1.531   0.122 -0.1244 -0.6772  0.1176
  776SOL    HW1 3102   0.201   1.501   0.111  2.3300  1.5492  0.6735
  776SOL    HW2 3103   0.069   1.451   0.156 -1.3158  0.9538 -0.2540
  776SOL     MW 3104   0.115   1.517   0.125  0.0422 -0.1682  0.1419
  777SOL     OW 3105   3.011   1.123   1.734  0.6770  0.5747 -0.2536
  777SOL    HW1 3106   2.997   1.157   1.647  2.6243 -1.7652  0.6336
  777SOL    HW2 3107   2.927   1.089   1.748  0.0486  3.4131 -0.3543
  777SOL     MW 3108   2.998   1.123   1.725  0.8510  0.6405 -0.1498
  778SOL     OW 3109   2.799   0.423   2.706  0.0449  0.0635 -0.2901
  778SOL    HW1 3110   2.762   0.423   2.794  1.0899 -0.8720 -3.6113
  778SOL    HW2 3111   2.824   0.515   2.686 -3.8413  1.6407 -1.1550
  778SOL     MW 3112   2.797   0.435   2.715 -0.3300  0.1482 -0.8424
  779SOL     OW 3113   2.238   0.565   2.167  0.1576  0.1429  0.4653
  779SOL    HW1 3114   2.157   0.598   2.204  3.1948  0.9794  2.3582
  779SOL    HW2 3115   2.253   0.492   2.232 -1.3356  1.7272  1.3857
  779SOL     MW 3116   2.229   0.560   2.180  0.3613  0.4623  0.8365
  780SOL     OW 3117   0.119   0.303   2.683  0.1855  0.4704  0.2484
  780SOL    HW1 3118   0.041   0.258   2.655 -1.4259 -0.9189  2.2903
  780SOL    HW2 3119   0.080   0.369   2.731 -1.1585  1.7760 -4.2115
  780SOL     MW 3120   0.104   0.305   2.685 -0.2044  0.4594 -0.0706
  781SOL     OW 3121   3.045   1.317   2.455  0.5618  0.0237 -0.4707
  781SOL    HW1 3122   3.023   1.393   2.396 -0.4178 -1.0234 -0.4276
  781SOL    HW2 3123   3.060   1.244   2.399  0.3421 -2.0628  0.1313
  781SOL     MW 3124   3.044   1.317   2.440  0.4036 -0.3897 -0.3856
  782SOL     OW 3125   0.623   1.572   0.047  0.3300  0.2510 -0.5643
  782SOL    HW1 3126   0.543   1.537   0.004  5.2101  0.9596  0.9184
  782SOL    HW2 3127   0.599   1.663   0.071  0.0348  1.5955  0.3141
  782SOL     MW 3128   0.609   1.579   0.044  0.9349  0.5219 -0.2528
  783SOL     OW 3129   2.711   0.626   2.450 -0.0822  0.6381  0.4629
  783SOL    HW1 3130   2.683   0.688   2.384  2.1636 -1.1960  1.1033
  783SOL    HW2 3131   2.640   0.566   2.481 -0.6668 -1.0033  0.5027
  783SOL     MW 3132   2.698   0.627   2.445  0.1370  0.1795  0.5527
  784SOL     OW 3133   0.166   0.862   2.874 -0.8073 -0.1352 -0.0097
  784SOL    HW1 3134   0.071   0.880   2.876  2.1180 -1.4508  0.0975
  784SOL    HW2 3135   0.201   0.898   2.788 -1.5358  1.8523  0.0273
  784SOL     MW 3136   0.158   0.869   2.863 -0.5175 -0.0466  0.0093
  785SOL     OW 3137   0.439   0.455   2.178  0.1059  0.2735 -0.6510
  785SOL    HW1 3138   0.475   0.471   2.091 -0.9099  0.9805  0.2339
  785SOL    HW2 3139   0.355   0.411   2.174  0.5912  1.3259 -4.8042
  785SOL     MW 3140   0.433   0.451   2.166  0.0359  0.5056 -1.0822
  786SOL     OW 3141   1.901   0.390   2.966  0.1631 -0.3179  0.0862
  786SOL    HW1 3142   1.856   0.470   2.974 -0.2444  1.1133 -3.8239
  786SOL    HW2 3143   1.973   0.392   2.905 -0.4213 -1.0733  0.8300
  786SOL     MW 3144   1.905   0.401   2.959  0.0322 -0.2288 -0.3315
  787SOL     OW 3145   2.475   0.087   2.937  0.2548 -0.3716  0.2313
  787SOL    HW1 3146   2.555   0.062   2.880  3.8879 -0.0601  0.5780
  787SOL    HW2 3147   2.516   0.133   3.012 -0.4763  2.0888 -0.1171
  787SOL     MW 3148   2.491   0.090   2.940  0.6377 -0.0059  0.2311
  788SOL     OW 3149   2.868   3.048   2.425  0.7872 -0.0426  0.1969
  788SOL    HW1 3150   2.885   3.059   2.519  0.7620  0.9681  0.7825
  788SOL    HW2 3151   2.829   2.957   2.415 -2.7134 -0.2754  1.1493
  788SOL     MW 3152   2.865   3.037   2.436  0.3220  0.0600  0.3998
  789SOL     OW 3153   0.081   0.192   3.033 -0.4283  0.4343  0.0099
  789SOL    HW1 3154   0.006   0.151   3.079 -3.4817 -0.9995 -1.9978
  789SOL    HW2 3155   0.050   0.259   2.968  0.6734 -1.7209 -1.6383
  789SOL     MW 3156   0.067   0.196   3.031 -0.6858 -0.0392 -0.4725
  790SOL     OW 3157   3.094   1.037   2.361 -0.3179 -0.0936 -0.1062
  790SOL    HW1 3158   3.056   1.036   2.450  0.5064  1.0991 -0.0535
  790SOL    HW2 3159   3.023   1.047   2.295 -2.4444  1.1944 -1.9972
  790SOL     MW 3160   3.079   1.038   2.364 -0.4897  0.2337 -0.3487
  791SOL     OW 3161   2.552   0.440   2.579  0.3917 -0.4899 -0.3196
  791SOL    HW1 3162   2.521   0.487   2.668 -0.0578  4.0986 -0.0641
  791SOL    HW2 3163   2.640   0.409   2.604  1.8587 -1.6183  0.7457
  791SOL     MW 3164   2.559   0.442   2.594  0.5260 -0.0334 -0.1454
  792SOL     OW 3165   2.333   0.208   2.427  0.1202 -0.4474  0.0193
  792SOL    HW1 3166   2.271   0.284   2.436 -0.3591  0.9342 -1.2216
  792SOL    HW2 3167   2.308   0.165   2.509 -1.4241 -0.3804  0.4811
  792SOL     MW 3168   2.322   0.213   2.439 -0.1468 -0.2562 -0.0835
  793SOL     OW 3169   1.921   1.159   1.988  1.0266  0.4338 -0.2233
  793SOL    HW1 3170   1.879   1.161   1.898 -1.2361  0.9483 -0.1439
  793SOL    HW2 3171   2.019   1.153   1.981  0.7127  4.2113 -0.6722
  793SOL     MW 3172   1.929   1.159   1.975  0.6866  1.0001 -0.2721
  794SOL     OW 3173   1.408   2.370   0.130  0.0372  0.4366  0.3613
  794SOL    HW1 3174   1.457   2.430   0.068  1.9218  1.2475 -2.1092
  794SOL    HW2 3175   1.462   2.366   0.209  0.6080  0.6653 -0.3602
  794SOL     MW 3176   1.422   2.377   0.132  0.3611  0.5738 -0.0598
  795SOL     OW 3177   2.313   1.005   2.552  0.4157 -0.1339 -0.4836
  795SOL    HW1 3178   2.255   1.060   2.609 -0.3841  1.3238 -0.6809
  795SOL    HW2 3179   2.369   1.067   2.505  0.5220  2.2988 -0.1248
  795SOL     MW 3180   2.313   1.020   2.553  0.3242  0.3794 -0.4623
  796SOL     OW 3181   0.250   0.620   2.751 -0.2256 -0.3988  0.0489
  796SOL    HW1 3182   0.203   0.691   2.794 -2.0139  0.0198  0.9927
  796SOL    HW2 3183   0.196   0.599   2.671  2.5000  0.6796 -1.7639
  796SOL     MW 3184   0.236   0.627   2.746 -0.1019 -0.2013 -0.0658
  797SOL     OW 3185   2.616   0.138   2.576 -0.3003  0.1283  0.5421
  797SOL    HW1 3186   2.536   0.179   2.591  3.8279 -0.0164 -1.9221
  797SOL    HW2 3187   2.627   0.141   2.476 -0.2894  2.1748  0.4376
  797SOL     MW 3188   2.607   0.144   2.565  0.2458  0.3792  0.2032
  798SOL     OW 3189   2.351   0.092   2.145 -0.0767 -0.2538 -0.0523
  798SOL    HW1 3190   2.355   0.142   2.228 -0.8014  0.9562 -3.5783
  798SOL    HW2 3191   2.445   0.077   2.131 -0.6941 -0.7789 -2.4897
  798SOL     MW 3192   2.364   0.097   2.154 -0.2538 -0.1634 -0.8391
  799SOL     OW 3193   2.560   2.955   0.119  0.1585 -0.0493 -0.1915
  799SOL    HW1 3194   2.489   2.904   0.085  2.4619 -3.3696  1.0422
  799SOL    HW2 3195   2.544   2.978   0.212 -0.2612 -1.0452 -0.7966
  799SOL     MW 3196   2.548   2.952   0.127  0.4070 -0.6188 -0.1086
  800SOL     OW 3197   1.930   0.047   1.731 -0.2498 -0.4446 -0.7544
  800SOL    HW1 3198   1.876  -0.017   1.686  1.4412 -1.8065  0.8667
  800SOL    HW2 3199   2.002  -0.001   1.771 -0.0214 -1.0147  1.9560
  800SOL     MW 3200   1.933   0.032   1.730  0.0035 -0.6995 -0.1829
  801SOL     OW 3201   2.815   1.242   2.602  0.0869  0.1167  0.3977
  801SOL    HW1 3202   2.837   1.152   2.622  1.0463 -0.6200  2.0436
  801SOL    HW2 3203   2.892   1.270   2.550 -1.7922  1.7261  0.4150
  801SOL     MW 3204   2.828   1.234   2.598 -0.0344  0.2318  0.6172
  802SOL     OW 3205   2.599   1.482   2.803  0.0793 -0.2353  0.3959
  802SOL    HW1 3206   2.570   1.402   2.759 -2.1721  1.1665  1.0202
  802SOL    HW2 3207   2.695   1.483   2.817  2.2700  1.4544  2.4472
  802SOL     MW 3208   2.608   1.471   2.799  0.0713  0.1726  0.7489
  803SOL     OW 3209   2.232   1.355   2.032  0.0078  0.6159  0.0000
  803SOL    HW1 3210   2.229   1.337   2.124 -0.0229  0.2234  0.5666
  803SOL    HW2 3211   2.247   1.267   1.997 -0.7163 -0.6084  2.8328
  803SOL     MW 3212   2.234   1.341   2.040 -0.0918  0.4026  0.4485
  804SOL     OW 3213   2.257   0.080   0.054 -0.1714  0.1048 -0.4388
  804SOL    HW1 3214   2.197   0.158   0.054 -0.2814  0.9318 -0.4640
  804SOL    HW2 3215   2.329   0.110  -0.001 -2.1936 -1.8483  0.6368
  804SOL     MW 3216   2.259   0.094   0.046 -0.4527 -0.0438 -0.3002
  805SOL     OW 3217   2.750   0.946   2.594 -0.5818 -0.0711  0.0702
  805SOL    HW1 3218   2.669   0.896   2.588 -0.3607  1.0705  0.1626
  805SOL    HW2 3219   2.822   0.890   2.612  0.3238 -0.1082  0.8436
  805SOL     MW 3220   2.749   0.932   2.595 -0.4331  0.0747  0.1845
  806SOL     OW 3221   2.507   0.643   2.221  0.3492 -0.6262  0.4159
  806SOL    HW1 3222   2.415   0.618   2.199  0.9972  0.2981  0.4963
  806SOL    HW2 3223   2.526   0.724   2.180  0.4458 -2.5423  1.0857
  806SOL     MW 3224   2.497   0.650   2.213  0.4474 -0.7570  0.5149
  807SOL     OW 3225   0.078   1.078   2.047  1.1363 -0.0190 -0.2700
  807SOL    HW1 3226   0.106   0.988   2.072  1.0645  3.4581  2.4600
  807SOL    HW2 3227  -0.019   1.088   2.073  1.5885 -0.6174 -0.5811
  807SOL     MW 3228   0.069   1.068   2.054  1.1865  0.3609  0.0491
  808SOL     OW 3229   2.649   3.071   2.777 -0.2922  0.0661 -0.1538
  808SOL    HW1 3230   2.595   2.992   2.773 -1.8011 -1.0974  1.7823
  808SOL    HW2 3231   2.632   3.130   2.700 -0.1766 -2.6292  0.4596
  808SOL     MW 3232   2.639   3.068   2.766 -0.4760 -0.4430  0.1826
  809SOL     OW 3233   2.597   1.377   2.441 -0.7112  0.2443  0.4558
  809SOL    HW1 3234   2.639   1.349   2.518 -0.2850 -0.2211  0.0286
  809SOL    HW2 3235   2.670   1.367   2.371  0.0220  1.4242  0.1191
  809SOL     MW 3236   2.612   1.372   2.442 -0.5583  0.3386  0.3550
  810SOL     OW 3237   2.232   1.315   2.299  0.2739 -0.1431 -0.0250
  810SOL    HW1 3238   2.299   1.248   2.311 -3.5816 -0.7327 -3.1243
  810SOL    HW2 3239   2.185   1.318   2.383  0.2209  0.8769  0.9534
  810SOL     MW 3240   2.235   1.306   2.311 -0.2418 -0.0863 -0.3049
  811SOL     OW 3241   1.524   0.140   2.323 -0.0735  0.3481 -0.0396
  811SOL    HW1 3242   1.620   0.118   2.333  1.1369  1.1032 -0.1445
  811SOL    HW2 3243   1.510   0.129   2.230 -0.0945 -1.8413  0.7381
  811SOL     MW 3244   1.534   0.135   2.312  0.0834  0.1589  0.0492
  812SOL     OW 3245   1.467   2.782   2.008 -0.2387 -0.1983  0.1150
  812SOL    HW1 3246   1.552   2.797   1.964 -1.9737 -0.6158  0.4673
  812SOL    HW2 3247   1.494   2.777   2.100 -1.7077  0.9610 -1.6685
  812SOL     MW 3248   1.482   2.783   2.015 -0.6615 -0.1004 -0.0738
  813SOL     OW 3249   1.973   0.613   2.238 -0.5724  0.5478  0.2178
  813SOL    HW1 3250   1.916   0.544   2.207  0.6453 -3.2359 -0.6385
  813SOL    HW2 3251   1.939   0.652   2.314 -0.7592  1.6194  0.9664
  813SOL     MW 3252   1.961   0.609   2.244 -0.4364  0.1900  0.2036
  814SOL     OW 3253   2.699   1.259   1.639 -0.2727 -0.2981 -0.5198
  814SOL    HW1 3254   2.634   1.235   1.698  0.3093  0.8897  0.0182
  814SOL    HW2 3255   2.698   1.191   1.563 -0.7137  0.4660 -0.7583
  814SOL     MW 3256   2.690   1.247   1.636 -0.2541 -0.0406 -0.4803
  815SOL     OW 3257   2.576   1.742   2.415 -0.4544 -0.0731  0.0456
  815SOL    HW1 3258   2.516   1.664   2.410  0.8530  0.4036 -0.7356
  815SOL    HW2 3259   2.663   1.694   2.418  3.0889  0.1843  3.6726
  815SOL     MW 3260   2.580   1.725   2.415  0.1856  0.0237  0.4211
  816SOL     OW 3261   0.726   0.706   2.718  0.1670 -0.3236 -0.4928
  816SOL    HW1 3262   0.772   0.622   2.749 -2.2767 -3.4352  0.7668
  816SOL    HW2 3263   0.625   0.700   2.711 -0.9002 -1.8742 -1.2994
  816SOL     MW 3264   0.719   0.694   2.721 -0.2963 -0.9387 -0.4330
  817SOL     OW 3265   2.998   1.208   1.450  0.4086  0.2592 -0.0680
  817SOL    HW1 3266   3.090   1.186   1.441  3.2539 -0.7385 -0.6123
  817SOL    HW2 3267   2.996   1.300   1.410 -0.0320  1.0537  1.0958
  817SOL     MW 3268   3.010   1.217   1.444  0.7259  0.2324  0.0137
  818SOL     OW 3269   1.907   1.047   2.686 -0.0784 -0.6357  0.2649
  818SOL    HW1 3270   1.878   1.022   2.598  0.4885 -1.5692  1.8732
  818SOL    HW2 3271   1.987   0.994   2.704 -0.6789 -0.3669  1.4558
  818SOL     MW 3272   1.914   1.037   2.677 -0.0828 -0.7234  0.6342
  819SOL     OW 3273   1.995   0.272   2.516  0.1303 -0.3161  0.0164
  819SOL    HW1 3274   1.905   0.317   2.527 -1.0513 -0.4793 -1.6972
  819SOL    HW2 3275   2.024   0.254   2.606 -2.1160  0.4294 -0.0408
  819SOL     MW 3276   1.987   0.275   2.529 -0.3219 -0.2393 -0.2172
  820SOL     OW 3277   2.518   1.723   2.665 -0.0177  0.5373 -0.1372
  820SOL    HW1 3278   2.567   1.652   2.703 -2.0852  1.3094  0.8242
  820SOL    HW2 3279   2.555   1.739   2.572 -1.9423  1.2930 -1.2193
  820SOL     MW 3280   2.530   1.716   2.658 -0.5444  0.7388 -0.1531
  821SOL     OW 3281   2.574   1.364   2.007  0.1931  0.1633 -0.0783
  821SOL    HW1 3282   2.583   1.407   1.923  3.7526 -1.8668  4.7716
  821SOL    HW2 3283   2.480   1.388   2.023  0.2093 -0.8223 -0.0352
  821SOL     MW 3284   2.563   1.373   1.998  0.6649 -0.2346  0.5673
  822SOL     OW 3285   2.800   2.667   1.407 -0.5366 -0.7121 -0.4651
  822SOL    HW1 3286   2.817   2.666   1.505  0.0752  1.4653 -0.1633
  822SOL    HW2 3287   2.768   2.752   1.383 -2.1938  0.8368 -1.2990
  822SOL     MW 3288   2.798   2.678   1.417 -0.6745 -0.2204 -0.5353
  823SOL     OW 3289   2.375   0.480   1.791 -0.1768 -0.5024 -0.8971
  823SOL    HW1 3290   2.442   0.450   1.738 -0.4652  3.8476 -0.3476
  823SOL    HW2 3291   2.383   0.406   1.854 -1.8087  0.3177 -0.1392
  823SOL     MW 3292   2.385   0.466   1.793 -0.4301  0.1798 -0.7246
  824SOL     OW 3293   2.170   1.423   2.559 -0.7053  0.2733 -0.7895
  824SOL    HW1 3294   2.246   1.469   2.521  0.1163  0.2498  0.7440
  824SOL    HW2 3295   2.141   1.485   2.622  1.7382  0.9822 -1.1507
  824SOL     MW 3296   2.176   1.437   2.562 -0.2745  0.3637 -0.6349
  825SOL     OW 3297   1.880   2.527   0.275 -1.0672  0.7300 -0.2180
  825SOL    HW1 3298   1.844   2.477   0.344  0.0219  2.0668 -2.5922
  825SOL    HW2 3299   1.950   2.472   0.238  0.4395  1.0991 -0.0588
  825SOL     MW 3300   1.884   2.513   0.279 -0.7247  0.9551 -0.5102
  826SOL     OW 3301   1.824   2.394   0.514  0.7793 -0.3426  0.5034
  826SOL    HW1 3302   1.785   2.315   0.554  0.4941  0.5730 -0.0695
  826SOL    HW2 3303   1.803   2.466   0.575 -1.5063 -2.3731 -0.8946
  826SOL     MW 3304   1.816   2.393   0.527  0.4401 -0.4897  0.2434
  827SOL     OW 3305   1.924   2.189   0.838  0.1091 -0.4513  1.1310
  827SOL    HW1 3306   1.850   2.209   0.782  2.5386  1.6956  1.2487
  827SOL    HW2 3307   1.891   2.139   0.920  1.0182  1.8112  1.6969
  827SOL     MW 3308   1.910   2.185   0.842  0.5496  0.1305  1.2212
  828SOL     OW 3309   0.047   2.568   0.571  0.2222  0.2082  0.0780
  828SOL    HW1 3310   0.141   2.571   0.565 -1.1391  0.0853  0.4340
  828SOL    HW2 3311   0.004   2.611   0.499  0.5433  0.7352  1.2100
  828SOL     MW 3312   0.054   2.574   0.561  0.0849  0.2615  0.2744
  829SOL     OW 3313   2.989   2.957   1.156  0.3232  0.6569 -0.1518
  829SOL    HW1 3314   2.903   2.945   1.109 -0.1475 -0.7596  0.3018
  829SOL    HW2 3315   3.040   2.875   1.138 -0.6785  0.0445  1.8698
  829SOL     MW 3316   2.984   2.945   1.147  0.1289  0.3892  0.1748
  830SOL     OW 3317   2.572   2.813   2.029 -0.3466  0.0548  0.4155
  830SOL    HW1 3318   2.482   2.830   1.987 -2.6638  3.9857 -0.6279
  830SOL    HW2 3319   2.626   2.800   1.951  1.3199  0.8829 -1.9478
  830SOL     MW 3320   2.567   2.813   2.013 -0.4325  0.6827 -0.0340
  831SOL     OW 3321   2.368   2.492   1.215  0.4632  0.2448  0.0481
  831SOL    HW1 3322   2.350   2.436   1.286  0.0265  0.8984  2.6171
  831SOL    HW2 3323   2.449   2.450   1.184 -1.4337  2.1114 -0.5372
  831SOL     MW 3324   2.376   2.479   1.220  0.1553  0.5773  0.3099
  832SOL     OW 3325   2.362   2.193   1.913  0.1960 -0.1147  0.0678
  832SOL    HW1 3326   2.364   2.283   1.943 -1.2647  2.0895 -0.0420
  832SOL    HW2 3327   2.451   2.162   1.894 -1.3031 -0.4009  1.2540
  832SOL     MW 3328   2.374   2.201   1.914 -0.1945  0.1383  0.2098
  833SOL     OW 3329   1.728   2.456   0.890  0.1947  0.2834  0.8288
  833SOL    HW1 3330   1.637   2.433   0.900 -0.3093 -1.3742  1.2356
  833SOL    HW2 3331   1.739   2.523   0.949  3.9427 -4.3791 -1.0941
  833SOL     MW 3332   1.717   2.462   0.899  0.6227 -0.5505  0.6288
  834SOL     OW 3333   2.113   2.455   0.592  0.2465 -0.0264  0.6210
  834SOL    HW1 3334   2.016   2.451   0.567 -2.7424  0.7051  0.0570
  834SOL    HW2 3335   2.179   2.420   0.519 -0.8597  0.4247  0.0182
  834SOL     MW 3336   2.109   2.450   0.579 -0.2938  0.1296  0.4671
  835SOL     OW 3337   1.761   2.609   0.662  0.3148  0.3746  0.8073
  835SOL    HW1 3338   1.742   2.552   0.746  0.8059  0.3660  3.7527
  835SOL    HW2 3339   1.822   2.675   0.679 -1.8823 -1.4542  1.0468
  835SOL     MW 3340   1.767   2.610   0.676  0.0897  0.1322  1.2275
  836SOL     OW 3341   1.928   2.216   1.628 -0.0338 -0.0297  0.3389
  836SOL    HW1 3342   2.013   2.258   1.623 -1.8255  2.2229 -0.2662
  836SOL    HW2 3343   1.853   2.276   1.621 -1.3541 -1.0136  1.0260
  836SOL     MW 3344   1.929   2.229   1.627 -0.4444  0.1377  0.3497
  837SOL     OW 3345   2.087   0.201   0.678 -0.2260 -0.7826 -0.1095
  837SOL    HW1 3346   1.996   0.226   0.654 -1.8037  0.6401  0.8593
  837SOL    HW2 3347   2.117   0.140   0.610  0.9853 -1.5031  1.7388
  837SOL     MW 3348   2.079   0.196   0.666 -0.2744 -0.6899  0.2622
  838SOL     OW 3349   2.935   2.054   0.915 -0.3177  0.2165  0.2748
  838SOL    HW1 3350   2.857   2.021   0.960 -1.3782  0.8771 -1.7395
  838SOL    HW2 3351   2.979   1.982   0.872 -1.4080  0.4038 -2.0431
  838SOL     MW 3352   2.930   2.040   0.915 -0.6015  0.3283 -0.2968
  839SOL     OW 3353   1.478   2.343   0.975  0.0430 -0.0488 -0.7033
  839SOL    HW1 3354   1.510   2.395   1.051  2.4547 -1.7161 -1.4168
  839SOL    HW2 3355   1.515   2.252   0.998  2.7619 -0.3088  3.6837
  839SOL     MW 3356   1.487   2.338   0.988  0.7199 -0.3031 -0.2186
  840SOL     OW 3357   2.364   2.160   2.437  0.0821 -0.2300 -0.2755
  840SOL    HW1 3358   2.304   2.221   2.390  2.7610  0.0968  1.6937
  840SOL    HW2 3359   2.379   2.198   2.522 -0.6735 -1.5100  0.5641
  840SOL     MW 3360   2.358   2.173   2.442  0.3359 -0.3558  0.0951
  841SOL     OW 3361   2.116   2.429   0.135 -0.3053 -0.1089  0.0953
  841SOL    HW1 3362   2.176   2.488   0.086  0.6051  1.4850 -0.1322
  841SOL    HW2 3363   2.090   2.352   0.083  1.1738  0.3653  1.7856
  841SOL     MW 3364   2.120   2.427   0.121  0.0099  0.1640  0.2883
  842SOL     OW 3365   2.590   2.081   1.535 -0.6033 -0.2456 -0.3622
  842SOL    HW1 3366   2.527   2.027   1.577 -2.8803  2.5106 -0.3884
  842SOL    HW2 3367   2.554   2.109   1.454  0.1455  1.5092  2.1279
  842SOL     MW 3368   2.577   2.077   1.530 -0.8050  0.3496 -0.0371
  843SOL     OW 3369   2.667   2.769   1.752 -0.3228 -0.2554 -0.3069
  843SOL    HW1 3370   2.757   2.726   1.730  2.3827 -0.6973 -1.0421
  843SOL    HW2 3371   2.605   2.688   1.754 -3.0666 -2.3512 -0.1099
  843SOL     MW 3372   2.671   2.753   1.749 -0.3279 -0.5902 -0.3779
  844SOL     OW 3373   2.584   2.322   1.146  0.4130  0.3420 -0.2336
  844SOL    HW1 3374   2.635   2.349   1.068 -0.3547 -1.9109 -0.7490
  844SOL    HW2 3375   2.632   2.334   1.226 -1.7546 -2.7271  0.8212
  844SOL     MW 3376   2.597   2.327   1.146  0.0257 -0.3602 -0.1624
  845SOL     OW 3377   2.825   2.445   0.297  0.1721  0.0413  0.0108
  845SOL    HW1 3378   2.761   2.374   0.308 -0.4568  1.6209  1.9031
  845SOL    HW2 3379   2.821   2.484   0.381 -1.1902  0.0066  0.5800
  845SOL     MW 3380   2.816   2.441   0.309 -0.0907  0.2451  0.3356
  846SOL     OW 3381   1.538   2.906   0.747 -0.2331  0.3250 -0.5459
  846SOL    HW1 3382   1.587   2.964   0.804  0.5327 -0.0632  0.7916
  846SOL    HW2 3383   1.446   2.905   0.790 -0.6659  0.5523  2.5966
  846SOL     MW 3384   1.532   2.913   0.761 -0.1891  0.3038  0.0452
  847SOL     OW 3385   2.600   1.928   0.173  0.2076 -0.5818 -0.0237
  847SOL    HW1 3386   2.681   1.880   0.186 -1.2229  3.0134  1.3052
  847SOL    HW2 3387   2.550   1.879   0.102  1.7470  1.3101 -0.4069
  847SOL     MW 3388   2.604   1.915   0.165  0.2220  0.1422  0.1011
  848SOL     OW 3389   2.451   2.137   1.302 -0.8872 -0.4421 -0.1659
  848SOL    HW1 3390   2.485   2.175   1.225  0.2260 -1.5344 -0.4163
  848SOL    HW2 3391   2.433   2.050   1.273 -2.1733 -0.6491 -0.3258
  848SOL     MW 3392   2.453   2.130   1.288 -0.9100 -0.6136 -0.2200
  849SOL     OW 3393   1.982   2.784   0.741 -0.2138 -0.2561 -0.3880
  849SOL    HW1 3394   2.007   2.738   0.817  0.0220 -0.1826 -2.0202
  849SOL    HW2 3395   2.061   2.797   0.678 -0.7185  1.7075  1.3728
  849SOL     MW 3396   1.996   2.780   0.743 -0.2493  0.0127 -0.3710
  850SOL     OW 3397   2.214   1.949   1.676 -0.6297  0.6315 -0.2305
  850SOL    HW1 3398   2.134   1.890   1.677 -1.1472 -1.4842  0.1978
  850SOL    HW2 3399   2.189   2.044   1.676 -1.0480 -1.1978  1.7262
  850SOL     MW 3400   2.200   1.954   1.676 -0.7532  0.1110  0.0842
  851SOL     OW 3401   2.254   2.394   0.369 -0.1400  0.5731 -0.0985
  851SOL    HW1 3402   2.203   2.419   0.286  2.3011 -2.2417  0.6560
  851SOL    HW2 3403   2.332   2.453   0.362 -0.2432  2.8804 -1.0212
  851SOL     MW 3404   2.258   2.405   0.357  0.1685  0.5062 -0.1207
  852SOL     OW 3405   2.310   2.167   0.176  0.2620 -0.5240 -0.0665
  852SOL    HW1 3406   2.309   2.252   0.230 -0.1588  0.0502 -0.4891
  852SOL    HW2 3407   2.405   2.160   0.145 -0.6323  0.2220  0.8382
  852SOL     MW 3408   2.323   2.177   0.179  0.0885 -0.3498 -0.0029
  853SOL     OW 3409   2.469   2.450   1.979 -0.5232  0.2109 -0.1874
  853SOL    HW1 3410   2.473   2.479   1.889  0.9466 -0.0429 -0.9342
  853SOL    HW2 3411   2.558   2.441   2.019  1.0228  1.0449 -1.9060
  853SOL     MW 3412   2.481   2.453   1.972 -0.1253  0.2875 -0.5127
  854SOL     OW 3413   2.836   2.277   0.791 -0.3517 -0.0041 -0.3038
  854SOL    HW1 3414   2.765   2.247   0.735 -0.7323 -2.9890  0.9796
  854SOL    HW2 3415   2.880   2.199   0.830  0.9152  2.2991  2.5061
  854SOL     MW 3416   2.833   2.263   0.789 -0.2347 -0.0940  0.2363
  855SOL     OW 3417   2.663   2.223   0.321  0.3205 -0.1938  0.2199
  855SOL    HW1 3418   2.631   2.259   0.407 -1.2925  0.0123  2.4146
  855SOL    HW2 3419   2.747   2.185   0.333 -0.7707  0.5377 -1.5402
  855SOL     MW 3420   2.670   2.223   0.334 -0.0363 -0.0701  0.2772
  856SOL     OW 3421   2.188   1.931   0.229  0.3128 -0.5738  0.3737
  856SOL    HW1 3422   2.093   1.943   0.225 -0.1869 -1.1114  0.9292
  856SOL    HW2 3423   2.224   2.021   0.229 -1.8567 -0.3409  0.1103
  856SOL     MW 3424   2.180   1.945   0.228 -0.0393 -0.6140  0.4123
  857SOL     OW 3425   2.588   2.014   0.490  0.2445  0.4895  0.0211
  857SOL    HW1 3426   2.607   2.082   0.418  0.9920  0.7942 -2.9529
  857SOL    HW2 3427   2.528   1.958   0.452 -1.8295  2.0518 -2.0050
  857SOL     MW 3428   2.583   2.015   0.475  0.0695  0.7358 -0.6386
  858SOL     OW 3429   2.891   2.647   1.672 -0.4119  0.1772 -0.1725
  858SOL    HW1 3430   2.959   2.698   1.723 -0.0364 -1.6915  0.4598
  858SOL    HW2 3431   2.905   2.561   1.711 -1.1338  1.5655 -0.5147
  858SOL     MW 3432   2.902   2.642   1.684 -0.4576  0.1138 -0.1342
  859SOL     OW 3433   2.124   2.490   0.860  0.2592  0.0099  0.0654
  859SOL    HW1 3434   2.103   2.458   0.770  0.1230 -0.2636  1.2734
  859SOL    HW2 3435   2.223   2.481   0.861  0.4019  3.0799  0.3218
  859SOL     MW 3436   2.135   2.485   0.849  0.2601  0.3789  0.2586
  860SOL     OW 3437   2.660   2.580   0.130  0.3377  0.2961 -0.5310
  860SOL    HW1 3438   2.735   2.550   0.186 -0.6568  0.8119  2.6807
  860SOL    HW2 3439   2.691   2.661   0.083 -2.0204  1.7351  0.5489
  860SOL     MW 3440   2.674   2.587   0.131 -0.1047  0.5540  0.0352
  861SOL     OW 3441   1.564   2.136   1.215  0.1329 -0.1325 -0.7151
  861SOL    HW1 3442   1.557   2.208   1.268 -2.7923  1.4067 -1.2272
  861SOL    HW2 3443   1.507   2.070   1.256 -1.0388  1.4064 -1.2197
  861SOL     MW 3444   1.556   2.137   1.227 -0.4076  0.2737 -0.8492
  862SOL     OW 3445   2.407   1.879   1.511  0.7503 -0.8580  0.4359
  862SOL    HW1 3446   2.328   1.916   1.558  1.7707 -1.9524  1.0533
  862SOL    HW2 3447   2.357   1.855   1.429 -2.7943 -0.1903  1.2989
  862SOL     MW 3448   2.390   1.881   1.506  0.4172 -0.9143  0.6312
  863SOL     OW 3449   0.025   1.790   1.187  0.0039  0.7162 -0.5500
  863SOL    HW1 3450   0.102   1.847   1.174 -0.7812  3.5962  0.2199
  863SOL    HW2 3451  -0.028   1.840   1.244  2.8431  1.6628 -1.7537
  863SOL     MW 3452   0.028   1.804   1.192  0.2749  1.2211 -0.6073
  864SOL     OW 3453   0.014   1.839   0.830 -0.1362  0.1277 -0.2801
  864SOL    HW1 3454  -0.049   1.780   0.876  0.1016 -1.5746 -2.2099
  864SOL    HW2 3455  -0.009   1.818   0.742  2.8685 -1.2040  1.3662
  864SOL     MW 3456   0.003   1.828   0.824  0.2916 -0.2726 -0.3175
  865SOL     OW 3457   2.545   2.171   0.053  0.6841 -0.0396 -0.2164
  865SOL    HW1 3458   2.588   2.099   0.093 -2.8909  1.3282 -1.7846
  865SOL    HW2 3459   2.509   2.129  -0.026 -1.9469  2.6947  0.7650
  865SOL     MW 3460   2.546   2.156   0.048 -0.1347  0.5016 -0.2938
  866SOL     OW 3461   2.633   2.337   1.612  0.2641  0.3851  0.2299
  866SOL    HW1 3462   2.589   2.248   1.616 -1.6380 -0.8737 -0.3301
  866SOL    HW2 3463   2.657   2.353   1.519 -0.0273 -1.7905 -0.5646
  866SOL     MW 3464   2.630   2.327   1.600 -0.0253 -0.0680  0.0512
  867SOL     OW 3465   0.038   2.710   1.825  0.3021 -0.5434  0.3887
  867SOL    HW1 3466   0.072   2.709   1.911 -1.6079  1.1886  1.4180
  867SOL    HW2 3467   0.061   2.796   1.781 -0.9840 -0.3151 -2.2727
  867SOL     MW 3468   0.045   2.721   1.831 -0.1196 -0.2848  0.1733
  868SOL     OW 3469   2.798   2.590   0.568  0.0117  0.1577 -0.6294
  868SOL    HW1 3470   2.722   2.527   0.560  0.4762 -1.7911 -0.4386
  868SOL    HW2 3471   2.780   2.658   0.502  1.5555 -0.8272  0.3362
  868SOL     MW 3472   2.785   2.591   0.558  0.2766 -0.2294 -0.4768
  869SOL     OW 3473   1.989   2.354   1.051  0.1371  0.5948  0.6585
  869SOL    HW1 3474   2.065   2.391   1.008 -0.4752  0.6352 -1.4024
  869SOL    HW2 3475   1.938   2.325   0.978 -2.2864  0.2607 -1.9774
  869SOL     MW 3476   1.993   2.355   1.036 -0.2634  0.5561  0.0388
  870SOL     OW 3477   2.181   3.099   0.469 -0.2748  0.0600 -0.0108
  870SOL    HW1 3478   2.256   3.139   0.416 -0.4631  1.8888  2.4803
  870SOL    HW2 3479   2.184   3.004   0.462  3.5603 -1.0854 -0.5382
  870SOL     MW 3480   2.191   3.092   0.461  0.2063  0.1502  0.2483
  871SOL     OW 3481   2.496   2.076   0.928  0.8437  0.4283 -0.3535
  871SOL    HW1 3482   2.440   2.035   0.861 -0.8823  1.1435 -1.8699
  871SOL    HW2 3483   2.437   2.142   0.963  0.7996 -1.8888 -0.9026
  871SOL     MW 3484   2.481   2.079   0.923  0.6102  0.2169 -0.6261
  872SOL     OW 3485   2.053   2.524   1.426  0.2563  0.0613 -0.2128
  872SOL    HW1 3486   2.029   2.564   1.510 -0.2744 -1.9832  3.0162
  872SOL    HW2 3487   1.970   2.487   1.397 -1.5061  1.4341 -0.6789
  872SOL     MW 3488   2.039   2.525   1.433 -0.0462 -0.0273  0.1518
  873SOL     OW 3489   2.838   2.076   1.956  0.4173 -0.4624 -0.0260
  873SOL    HW1 3490   2.853   2.124   2.037 -1.0829 -1.5781  0.4973
  873SOL    HW2 3491   2.897   2.108   1.891  1.4795 -0.5066 -2.6038
  873SOL     MW 3492   2.848   2.087   1.959  0.3595 -0.6155 -0.2971
  874SOL     OW 3493   2.387   1.557   2.446 -0.5380  0.3165 -0.2044
  874SOL    HW1 3494   2.345   1.534   2.367 -2.3927 -0.4342  1.4779
  874SOL    HW2 3495   2.459   1.489   2.472  2.8565 -1.7223  0.7037
  874SOL     MW 3496   2.391   1.545   2.439 -0.3348 -0.0515  0.1374
  875SOL     OW 3497   2.295   2.272   1.008 -0.8583  0.5903  0.9359
  875SOL    HW1 3498   2.329   2.347   0.959 -0.4889 -0.4062 -0.2533
  875SOL    HW2 3499   2.287   2.310   1.091 -1.2236  0.7415 -0.9609
  875SOL     MW 3500   2.298   2.287   1.013 -0.8578  0.4787  0.5287
  876SOL     OW 3501   3.022   2.345   1.259  0.5433 -0.1555 -0.2472
  876SOL    HW1 3502   3.066   2.360   1.181 -1.2261  2.5955 -0.6719
  876SOL    HW2 3503   3.069   2.398   1.323 -0.3487  1.2835 -1.8003
  876SOL     MW 3504   3.034   2.354   1.257  0.1922  0.3973 -0.5081
  877SOL     OW 3505   3.058   2.734   0.380 -0.0749  0.5599  0.3839
  877SOL    HW1 3506   3.125   2.803   0.368  2.6065 -1.2878  3.4263
  877SOL    HW2 3507   3.033   2.712   0.290  1.3106  1.0469 -0.4808
  877SOL     MW 3508   3.064   2.740   0.366  0.4617  0.3804  0.6712
  878SOL     OW 3509   2.360   1.845   1.253  0.2400  0.2266  0.0311
  878SOL    HW1 3510   2.321   1.773   1.208  2.4543  0.6963 -0.4994
  878SOL    HW2 3511   2.450   1.820   1.265 -0.2594 -3.5168 -0.5965
  878SOL     MW 3512   2.367   1.832   1.248  0.4662 -0.2053 -0.1217
  879SOL     OW 3513   2.679   2.452   0.916 -0.0142  0.4363  0.2339
  879SOL    HW1 3514   2.740   2.502   0.970 -0.9677 -0.4168 -1.9877
  879SOL    HW2 3515   2.739   2.379   0.879  0.2824 -3.4344  0.6675
  879SOL     MW 3516   2.695   2.449   0.918 -0.1009 -0.1870 -0.0020
  880SOL     OW 3517   2.578   2.188   0.690 -0.4172 -0.0949  0.5380
  880SOL    HW1 3518   2.551   2.159   0.778  0.5482  1.5704 -0.7246
  880SOL    HW2 3519   2.580   2.112   0.637  0.4900 -0.7057  1.8594
  880SOL     MW 3520   2.575   2.174   0.695 -0.1701  0.0443  0.5458
  881SOL     OW 3521   2.958   2.691   0.761  0.0212  0.1242  0.6439
  881SOL    HW1 3522   2.898   2.646   0.698 -1.2615 -0.7289 -0.1434
  881SOL    HW2 3523   3.044   2.665   0.731 -1.2826 -0.7869 -2.1224
  881SOL     MW 3524   2.961   2.682   0.748 -0.3201 -0.1086  0.1750
  882SOL     OW 3525   2.304   2.808   1.962 -0.2969  0.1858  0.0240
  882SOL    HW1 3526   2.286   2.828   1.872  1.7019  0.8962 -1.3260
  882SOL    HW2 3527   2.258   2.737   2.002  0.0912  0.6256  0.7575
  882SOL     MW 3528   2.296   2.801   1.955  0.0180  0.3376 -0.0573
  883SOL     OW 3529   2.290   2.321   1.424 -0.1691 -0.2912  0.1962
  883SOL    HW1 3530   2.355   2.257   1.394  0.6351 -1.3470  2.5941
  883SOL    HW2 3531   2.211   2.316   1.365  0.4113 -0.7076  0.0394
  883SOL     MW 3532   2.288   2.312   1.412  0.0136 -0.4855  0.4919
  884SOL     OW 3533   1.925   1.873   1.125  0.8116  0.1292  0.1754
  884SOL    HW1 3534   1.864   1.948   1.097 -0.3361  1.3274 -0.2844
  884SOL    HW2 3535   2.016   1.914   1.124  0.8774 -1.8424 -0.0827
  884SOL     MW 3536   1.929   1.889   1.121  0.6688  0.0271  0.0807
  885SOL     OW 3537   2.810   2.403   1.825  0.5790  0.0861 -0.5642
  885SOL    HW1 3538   2.885   2.346   1.832 -2.9094  1.1526 -1.0810
  885SOL    HW2 3539   2.756   2.364   1.748 -0.4043 -0.7278 -1.3939
  885SOL     MW 3540   2.813   2.390   1.816 -0.0110  0.1194 -0.7419
  886SOL     OW 3541   2.753   2.376   1.381  0.3499  0.2700  0.5903
  886SOL    HW1 3542   2.845   2.366   1.350 -1.0272 -0.6293 -0.8088
  886SOL    HW2 3543   2.745   2.467   1.401 -1.5631  0.3952  1.5634
  886SOL     MW 3544   2.764   2.387   1.379 -0.0842  0.1679  0.5341
  887SOL     OW 3545   2.325   2.635   1.516  0.5732 -0.2737 -0.2929
  887SOL    HW1 3546   2.328   2.674   1.426  0.6433  0.4970  2.8890
  887SOL    HW2 3547   2.281   2.549   1.513  0.2313  0.1110 -0.1542
  887SOL     MW 3548   2.319   2.629   1.503  0.5373 -0.1213  0.1452
  888SOL     OW 3549   1.874   2.055   1.419  0.2776 -0.0894 -0.3788
  888SOL    HW1 3550   1.948   2.052   1.364  2.0241 -1.6199  1.7535
  888SOL    HW2 3551   1.906   2.095   1.499 -1.8920  1.0625  0.1746
  888SOL     MW 3552   1.888   2.060   1.422  0.2218 -0.1394 -0.0244
  889SOL     OW 3553   2.346   2.006   2.109 -0.0775 -0.2358  0.4523
  889SOL    HW1 3554   2.437   2.025   2.144  0.8712 -1.9761  1.6250
  889SOL    HW2 3555   2.340   2.070   2.036 -0.9350 -0.9969  0.7970
  889SOL     MW 3556   2.357   2.017   2.104 -0.0655 -0.5658  0.6525
  890SOL     OW 3557   0.103   2.329   0.172  0.2182  0.2384  0.5689
  890SOL    HW1 3558   0.070   2.416   0.188  0.9041  1.9609 -1.0417
  890SOL    HW2 3559   0.080   2.277   0.254  0.4434 -0.9173 -1.4376
  890SOL     MW 3560   0.096   2.334   0.185  0.3384  0.3132  0.0917
  891SOL     OW 3561   2.996   2.022   1.302 -0.8439 -0.0846 -0.3377
  891SOL    HW1 3562   3.067   2.057   1.359 -0.1844  0.0031  1.3872
  891SOL    HW2 3563   2.984   2.084   1.236  1.5256  0.8156  0.6050
  891SOL     MW 3564   3.003   2.035   1.300 -0.4442  0.0458  0.0143
  892SOL     OW 3565   2.385   2.359   2.929  0.2668  0.0251 -0.4418
  892SOL    HW1 3566   2.422   2.271   2.948  3.5735 -1.3766 -2.3377
  892SOL    HW2 3567   2.464   2.414   2.920 -1.9840 -0.4121  1.4007
  892SOL     MW 3568   2.401   2.355   2.930  0.4061 -0.2175 -0.4488
  893SOL     OW 3569   1.583   2.439   1.239 -0.1523 -0.4955  0.5303
  893SOL    HW1 3570   1.520   2.452   1.315  0.5970 -0.7069  0.4822
  893SOL    HW2 3571   1.671   2.418   1.261 -2.9593  0.8125  0.1455
  893SOL     MW 3572   1.586   2.438   1.252 -0.4238 -0.3508  0.4732
  894SOL     OW 3573   2.851   1.875   0.453 -0.0051 -0.7168 -0.1167
  894SOL    HW1 3574   2.770   1.917   0.472 -3.2390  1.0500 -4.3945
  894SOL    HW2 3575   2.837   1.818   0.372  1.0596  0.4079  0.5039
  894SOL     MW 3576   2.838   1.873   0.445 -0.2913 -0.3353 -0.5992
  895SOL     OW 3577   2.092   2.205   1.246  0.4247  0.3246 -0.1676
  895SOL    HW1 3578   2.065   2.260   1.167  2.0541 -1.5491  1.6299
  895SOL    HW2 3579   2.136   2.124   1.214  0.1217 -0.5859  2.1171
  895SOL     MW 3580   2.094   2.202   1.231  0.5997 -0.0428  0.3710
  896SOL     OW 3581   2.162   2.841   1.115 -0.1359 -0.1675 -0.1088
  896SOL    HW1 3582   2.236   2.834   1.172 -0.6972 -0.1447  2.6395
  896SOL    HW2 3583   2.105   2.760   1.134  0.6891  0.9606  1.8667
  896SOL     MW 3584   2.164   2.829   1.125 -0.1011 -0.0157  0.5144
  897SOL     OW 3585   2.982   2.908   0.136 -0.3034 -0.5670 -0.7585
  897SOL    HW1 3586   3.060   2.898   0.079  1.7738 -2.2279  1.6372
  897SOL    HW2 3587   2.905   2.884   0.078  1.3314  0.7575  1.0861
  897SOL     MW 3588   2.982   2.904   0.121  0.1864 -0.6114 -0.1990
  898SOL     OW 3589   2.085   0.190   1.456 -0.0130 -0.5666 -0.1822
  898SOL    HW1 3590   2.011   0.137   1.433  2.4880  0.0845 -2.7253
  898SOL    HW2 3591   2.120   0.220   1.370  1.4040  0.3744  0.1206
  898SOL     MW 3592   2.080   0.187   1.442  0.5039 -0.3566 -0.4778
  899SOL     OW 3593   2.896   2.950   0.663 -0.4588 -0.6497 -0.5010
  899SOL    HW1 3594   2.915   2.876   0.723 -0.1962  0.3114  0.9922
  899SOL    HW2 3595   2.815   2.991   0.699 -0.9140 -0.7542  1.1255
  899SOL     MW 3596   2.888   2.945   0.675 -0.4842 -0.5367 -0.0894
  900SOL     OW 3597   0.133   2.413   1.043 -0.3155 -0.1661 -0.5814
  900SOL    HW1 3598   0.168   2.501   1.011  2.3253 -0.3937 -2.5793
  900SOL    HW2 3599   0.143   2.345   0.969 -2.2700 -2.6396  0.9768
  900SOL     MW 3600   0.139   2.416   1.029 -0.2249 -0.5225 -0.6394
  901SOL     OW 3601   1.795   2.900   1.673  0.1448  0.3288 -0.0161
  901SOL    HW1 3602   1.866   2.834   1.683 -1.5306  0.2874 -0.5999
  901SOL    HW2 3603   1.722   2.860   1.631  0.0005 -1.3713 -0.3263
  901SOL     MW 3604   1.795   2.886   1.669 -0.0953  0.0991 -0.1340
  902SOL     OW 3605   2.590   2.048   1.860  0.5537 -0.1173  0.0856
  902SOL    HW1 3606   2.586   1.954   1.846 -3.5527  1.4878 -0.0686
  902SOL    HW2 3607   2.675   2.062   1.899 -1.1682 -0.5827  1.9731
  902SOL     MW 3608   2.600   2.038   1.863 -0.2153  0.0331  0.3143
  903SOL     OW 3609   1.587   2.746   0.519 -0.0673  0.4074 -0.4384
  903SOL    HW1 3610   1.650   2.689   0.569  1.6168 -1.7777 -1.1147
  903SOL    HW2 3611   1.551   2.804   0.580 -1.9436 -2.1447 -5.3656
  903SOL     MW 3612   1.591   2.746   0.533 -0.0927 -0.2177 -1.1777
  904SOL     OW 3613   2.491   2.559   1.713  0.1764  0.0240 -0.3222
  904SOL    HW1 3614   2.440   2.605   1.649  1.7197 -1.5099 -0.8240
  904SOL    HW2 3615   2.543   2.499   1.664  0.1327  1.8607  0.9333
  904SOL     MW 3616   2.491   2.557   1.698  0.3742  0.0639 -0.2227
  905SOL     OW 3617   2.309   2.503   2.208 -0.2966 -0.4079  0.1071
  905SOL    HW1 3618   2.356   2.471   2.135  2.1473  0.9303  2.0248
  905SOL    HW2 3619   2.278   2.423   2.254 -0.1302  0.7793 -1.0356
  905SOL     MW 3620   2.311   2.489   2.205  0.0478 -0.0747  0.2094
  906SOL     OW 3621   2.407   2.464   0.835 -0.7969  0.2453  0.1529
  906SOL    HW1 3622   2.502   2.447   0.850 -0.6822  2.3541  0.3676
  906SOL    HW2 3623   2.394   2.557   0.846  1.5011 -0.0738  0.1725
  906SOL     MW 3624   2.418   2.474   0.838 -0.4786  0.4814  0.1839
  907SOL     OW 3625   2.603   2.930   1.280 -0.9004 -0.4017  0.2479
  907SOL    HW1 3626   2.676   2.946   1.341 -0.8242  1.5338 -0.2189
  907SOL    HW2 3627   2.644   2.898   1.201 -1.3286 -0.8950 -2.3794
  907SOL     MW 3628   2.618   2.928   1.278 -0.9468 -0.2114 -0.1603
  908SOL     OW 3629   2.717   2.360   3.090  0.3986  0.2297  0.4082
  908SOL    HW1 3630   2.658   2.297   3.130  3.0514  0.7198 -2.0275
  908SOL    HW2 3631   2.704   2.437   3.138  2.1070  1.7336  1.0242
  908SOL     MW 3632   2.708   2.361   3.102  0.9740  0.4928  0.1681
  909SOL     OW 3633   1.572   0.185   1.110 -0.0468 -0.1537  0.1997
  909SOL    HW1 3634   1.648   0.225   1.067 -0.8347  2.0118 -1.3429
  909SOL    HW2 3635   1.550   0.238   1.184  0.4559 -1.0776 -1.5510
  909SOL     MW 3636   1.579   0.197   1.114 -0.0844  0.0101 -0.2348
  910SOL     OW 3637   2.308   1.756   0.387  0.0235 -0.3806 -0.1711
  910SOL    HW1 3638   2.224   1.724   0.410  1.4383  0.5610 -1.0816
  910SOL    HW2 3639   2.282   1.829   0.323 -1.4225  0.3748 -1.4503
  910SOL     MW 3640   2.294   1.762   0.382  0.0194 -0.1567 -0.4600
  911SOL     OW 3641   2.213   2.273   1.692  0.5943 -0.3344  0.0963
  911SOL    HW1 3642   2.267   2.244   1.763 -1.6605 -0.1954 -1.0985
  911SOL    HW2 3643   2.258   2.290   1.607 -0.1053  0.2899 -1.9451
  911SOL     MW 3644   2.226   2.272   1.690  0.2045 -0.2337 -0.3307
  912SOL     OW 3645   2.830   1.962   1.515 -0.3359 -0.8192 -0.1215
  912SOL    HW1 3646   2.875   1.982   1.431  2.8517 -2.6776 -2.1781
  912SOL    HW2 3647   2.750   2.017   1.525 -1.7969  0.3100 -0.7517
  912SOL     MW 3648   2.825   1.972   1.505 -0.1081 -0.9154 -0.4760
  913SOL     OW 3649   2.528   2.968   0.431  0.2332  0.2317 -0.0972
  913SOL    HW1 3650   2.609   2.915   0.439  0.3352  0.1846  0.3217
  913SOL    HW2 3651   2.452   2.911   0.439  1.4917 -2.3919 -0.2488
  913SOL     MW 3652   2.529   2.954   0.433  0.4127 -0.1207 -0.0619
  914SOL     OW 3653   2.747   1.650   3.077 -0.5248 -0.4772 -0.5688
  914SOL    HW1 3654   2.749   1.729   3.025  0.7569 -3.4880 -0.2415
  914SOL    HW2 3655   2.669   1.651   3.125  3.3982 -3.7978 -1.7291
  914SOL     MW 3656   2.737   1.660   3.076  0.1619 -1.3125 -0.6787
  915SOL     OW 3657   1.832   0.226   0.187 -0.0170  0.9482 -0.2101
  915SOL    HW1 3658   1.877   0.158   0.238  0.7820  0.9498  1.2566
  915SOL    HW2 3659   1.737   0.224   0.202  0.0576 -0.4548 -1.0285
  915SOL     MW 3660   1.825   0.217   0.196  0.0983  0.7633 -0.1246
  916SOL     OW 3661   1.743   2.068   1.940 -0.6700  0.0585 -0.2513
  916SOL    HW1 3662   1.770   2.163   1.924 -2.0102  0.4828 -3.4405
  916SOL    HW2 3663   1.768   2.018   1.863  1.8009  0.5660  0.0162
  916SOL     MW 3664   1.750   2.074   1.928 -0.5208  0.1815 -0.6368
  917SOL     OW 3665   2.448   2.317   2.650  0.2585 -0.1226 -0.6462
  917SOL    HW1 3666   2.403   2.301   2.731  1.2755  2.1785 -0.3472
  917SOL    HW2 3667   2.404   2.398   2.626  1.3612  1.0022 -1.4273
  917SOL     MW 3668   2.436   2.326   2.657  0.5382  0.3294 -0.7098
  918SOL     OW 3669   2.057   1.641   2.705  0.1048  0.1971  0.0623
  918SOL    HW1 3670   1.969   1.665   2.670  1.4456  0.3065  2.5941
  918SOL    HW2 3671   2.121   1.703   2.653  0.4982  1.3686 -2.7364
  918SOL     MW 3672   2.054   1.652   2.693  0.3336  0.3661  0.0271
  919SOL     OW 3673   0.053   2.378   2.260  0.6201  0.1202  0.3381
  919SOL    HW1 3674  -0.027   2.318   2.251  0.4911 -0.1253  0.1667
  919SOL    HW2 3675   0.119   2.358   2.195 -0.0289  1.1898 -0.3299
  919SOL     MW 3676   0.051   2.367   2.250  0.5175  0.2290  0.2274
  920SOL     OW 3677   2.752   2.804   3.099 -0.0387 -0.4235  0.1411
  920SOL    HW1 3678   2.673   2.855   3.125  0.3250 -3.6504 -1.5163
  920SOL    HW2 3679   2.735   2.780   3.007 -0.7370 -1.1511 -2.2116
  920SOL     MW 3680   2.739   2.807   3.090 -0.0828 -0.9452 -0.3880
  921SOL     OW 3681   2.462   2.617   2.651  0.2179  0.4344 -0.1806
  921SOL    HW1 3682   2.517   2.634   2.576  0.3933 -0.9507  3.8699
  921SOL    HW2 3683   2.505   2.544   2.705  0.4881  0.4338  1.2173
  921SOL     MW 3684   2.475   2.610   2.648  0.2767  0.2516  0.5382
  922SOL     OW 3685   2.001   2.780   0.312 -0.6075 -0.6406  0.0931
  922SOL    HW1 3686   2.007   2.792   0.214  0.2879  1.7338 -3.8208
  922SOL    HW2 3687   1.961   2.695   0.323  2.4792  0.7738 -1.0726
  922SOL     MW 3688   1.997   2.770   0.300 -0.0821 -0.1407 -0.5771
  923SOL     OW 3689   2.221   2.807   1.700 -0.0530  0.0369  0.5622
  923SOL    HW1 3690   2.269   2.760   1.625 -1.6590 -1.7869 -0.6316
  923SOL    HW2 3691   2.195   2.891   1.653 -0.6706  0.0928 -0.4949
  923SOL     MW 3692   2.224   2.812   1.684 -0.3464 -0.1964  0.2652
  924SOL     OW 3693   1.197   2.739   2.586  0.5774  0.2080  0.1306
  924SOL    HW1 3694   1.242   2.809   2.539  1.6513 -2.1369  0.8962
  924SOL    HW2 3695   1.270   2.688   2.622  1.9973  1.4749 -0.3861
  924SOL     MW 3696   1.212   2.742   2.585  0.9064  0.0657  0.1634
  925SOL     OW 3697   2.958   0.178   2.597  0.0386 -0.1667 -0.2976
  925SOL    HW1 3698   2.969   0.234   2.527 -2.7731  1.3229  0.7230
  925SOL    HW2 3699   2.877   0.214   2.635 -2.1816  1.5035 -0.7649
  925SOL     MW 3700   2.949   0.190   2.593 -0.6253  0.2502 -0.2246
  926SOL     OW 3701   2.715   2.408   2.079 -0.0692  0.4670  0.3287
  926SOL    HW1 3702   2.761   2.468   2.138  2.5024  0.5567 -1.8870
  926SOL    HW2 3703   2.755   2.411   1.991 -2.1129 -3.0685  0.4381
  926SOL     MW 3704   2.726   2.417   2.075  0.0005  0.0124  0.0508
  927SOL     OW 3705   2.375   0.145   0.304  0.1277  0.2990  0.0972
  927SOL    HW1 3706   2.461   0.172   0.315 -1.4257  0.0824 -0.9246
  927SOL    HW2 3707   2.374   0.083   0.231 -1.6653  2.0665  1.2649
  927SOL     MW 3708   2.386   0.140   0.296 -0.3138  0.5036  0.1164
  928SOL     OW 3709   2.081   2.482   1.805 -0.0347 -0.2078  0.3244
  928SOL    HW1 3710   2.134   2.413   1.766  0.5426 -0.1548  1.1312
  928SOL    HW2 3711   2.128   2.499   1.888 -1.9888 -1.4374  0.3350
  928SOL     MW 3712   2.094   2.475   1.811 -0.2164 -0.3630  0.4323
  929SOL     OW 3713   2.703   2.372   2.450 -0.6283  0.1664 -0.2166
  929SOL    HW1 3714   2.800   2.358   2.433 -2.3471 -0.3456 -2.0646
  929SOL    HW2 3715   2.675   2.329   2.535  1.2495 -0.5173 -0.2680
  929SOL     MW 3716   2.712   2.365   2.459 -0.6073  0.0087 -0.4672
  930SOL     OW 3717   2.017   2.922   2.668 -0.4123  0.3521 -0.6482
  930SOL    HW1 3718   2.010   2.850   2.736  0.9137 -2.2458 -0.0180
  930SOL    HW2 3719   2.107   2.948   2.663 -1.2603 -2.3586  0.5047
  930SOL     MW 3720   2.028   2.916   2.676 -0.3492 -0.3483 -0.4129
  931SOL     OW 3721   2.933   2.798   2.250  0.6368  0.0706  0.1253
  931SOL    HW1 3722   2.994   2.794   2.324 -0.1576 -3.0583  0.3308
  931SOL    HW2 3723   2.984   2.848   2.184 -3.7607  0.3573  0.4023
  931SOL     MW 3724   2.948   2.804   2.251 -0.0482 -0.3044  0.1890
  932SOL     OW 3725   2.858   1.900   2.574  0.9461 -0.1388 -0.5631
  932SOL    HW1 3726   2.943   1.931   2.601  1.9278  2.3008  0.6724
  932SOL    HW2 3727   2.829   1.940   2.491 -1.7860  0.8831 -0.5852
  932SOL     MW 3728   2.865   1.909   2.567  0.7152  0.3179 -0.4030
  933SOL     OW 3729   2.057   2.866   2.207  0.2682  0.3432  0.7561
  933SOL    HW1 3730   2.128   2.922   2.246  2.3790 -0.7982  0.5537
  933SOL    HW2 3731   1.983   2.923   2.183 -0.2653 -1.0093  0.5690
  933SOL     MW 3732   2.057   2.881   2.209  0.4763  0.0142  0.7047
  934SOL     OW 3733   2.020   2.753   2.463 -0.5338 -0.1753 -0.4506
  934SOL    HW1 3734   2.014   2.834   2.519 -2.3703 -1.1663 -1.4074
  934SOL    HW2 3735   2.039   2.782   2.373 -1.5237  2.1933 -1.0655
  934SOL     MW 3736   2.022   2.767   2.458 -0.9067  0.0064 -0.6580
  935SOL     OW 3737   2.631   1.521   1.803  0.1020  0.2184  0.2066
  935SOL    HW1 3738   2.724   1.537   1.772  1.7733  0.9276  1.4788
  935SOL    HW2 3739   2.571   1.527   1.728 -2.2136  1.6322 -0.0024
  935SOL     MW 3740   2.636   1.524   1.789  0.0170  0.4985  0.3469
  936SOL     OW 3741   2.995   2.250   3.090  0.1975  0.1001  0.2592
  936SOL    HW1 3742   3.048   2.298   3.151  0.4053  0.1942  1.7267
  936SOL    HW2 3743   2.909   2.298   3.085 -1.9201 -0.2861 -2.5721
  936SOL     MW 3744   2.991   2.262   3.097 -0.0545  0.0615  0.0793
  937SOL     OW 3745   2.049   2.171   2.666  0.6936  0.0039  0.9147
  937SOL    HW1 3746   2.130   2.139   2.696 -4.4277 -1.0249 -0.9407
  937SOL    HW2 3747   2.042   2.130   2.574  0.1000  2.0356  0.9172
  937SOL     MW 3748   2.059   2.161   2.658 -0.0604  0.1363  0.6703
  938SOL     OW 3749   2.292   1.816   1.913  0.2620 -0.1344  0.5430
  938SOL    HW1 3750   2.270   1.877   1.837  0.4514  2.9617 -0.1991
  938SOL    HW2 3751   2.303   1.882   1.983 -0.3003  0.1611  1.7594
  938SOL     MW 3752   2.291   1.833   1.912  0.2128  0.3131  0.6056
  939SOL     OW 3753   2.816   2.000   2.307  0.0892 -0.1340  0.1816
  939SOL    HW1 3754   2.828   1.929   2.245  0.2998  1.1022 -0.0950
  939SOL    HW2 3755   2.722   2.017   2.291  0.7800 -0.2416 -0.3940
  939SOL     MW 3756   2.805   1.993   2.297  0.2081  0.0149  0.0692
  940SOL     OW 3757   2.322   0.136   2.731 -0.1769  0.2069 -0.3675
  940SOL    HW1 3758   2.306   0.042   2.692  1.2047 -0.4943 -0.3238
  940SOL    HW2 3759   2.377   0.112   2.805 -2.8686  0.0428  3.5537
  940SOL     MW 3760   2.327   0.120   2.736 -0.3498  0.0928  0.1556
  941SOL     OW 3761   0.230   2.334   2.044 -0.0928 -0.6316 -0.5120
  941SOL    HW1 3762   0.319   2.288   2.070 -0.9840  3.9982 -0.7869
  941SOL    HW2 3763   0.225   2.322   1.951  1.0968  3.5199  3.2286
  941SOL     MW 3764   0.241   2.326   2.035 -0.0534  0.5270 -0.0548
  942SOL     OW 3765   2.905   2.222   2.183  0.8272 -0.0828  0.1579
  942SOL    HW1 3766   2.839   2.280   2.158  0.0715 -1.1538 -1.1761
  942SOL    HW2 3767   2.879   2.148   2.238  1.3772  2.0981 -1.2930
  942SOL     MW 3768   2.893   2.220   2.187  0.8001  0.0636 -0.2095
  943SOL     OW 3769   0.398   1.997   2.286  0.3223 -0.3847 -0.5503
  943SOL    HW1 3770   0.345   2.052   2.351 -2.0797 -0.5263  1.0520
  943SOL    HW2 3771   0.487   2.018   2.311  1.5640 -2.8121 -0.2316
  943SOL     MW 3772   0.403   2.007   2.298  0.1692 -0.7237 -0.2968
  944SOL     OW 3773   2.111   2.620   2.082 -0.2208  0.0820  0.5712
  944SOL    HW1 3774   2.181   2.569   2.128 -0.5211 -0.5060  0.2937
  944SOL    HW2 3775   2.092   2.705   2.119 -1.6501 -0.1890  2.3955
  944SOL     MW 3776   2.118   2.624   2.093 -0.4490 -0.0313  0.7753
  945SOL     OW 3777   2.778   2.721   2.831 -0.1548  0.3350  0.2318
  945SOL    HW1 3778   2.752   2.627   2.838  0.0021 -1.4550  3.1161
  945SOL    HW2 3779   2.822   2.717   2.743  0.1531 -1.7430  1.4040
  945SOL     MW 3780   2.780   2.708   2.820 -0.0935 -0.1753  0.7670
  946SOL     OW 3781   2.440   2.743   2.264  0.5532 -0.2915  0.2186
  946SOL    HW1 3782   2.498   2.746   2.189 -0.6097  0.6701 -0.4931
  946SOL    HW2 3783   2.400   2.660   2.260  2.0816 -0.1879  2.8139
  946SOL     MW 3784   2.443   2.733   2.254  0.6014 -0.1509  0.4671
  947SOL     OW 3785   2.018   0.043   0.238 -0.3785  0.5136 -0.4844
  947SOL    HW1 3786   2.036   0.003   0.159 -0.9057  2.0924  0.4973
  947SOL    HW2 3787   2.080  -0.006   0.305  0.0293  2.2315 -0.8387
  947SOL     MW 3788   2.029   0.032   0.236 -0.3942  0.9486 -0.4016
  948SOL     OW 3789   1.795   3.078   2.641  0.0278 -0.3189  0.5539
  948SOL    HW1 3790   1.876   3.018   2.641 -0.5103  0.8706 -1.8064
  948SOL    HW2 3791   1.780   3.086   2.544 -0.2557 -0.4240  1.4926
  948SOL     MW 3792   1.804   3.071   2.628 -0.0806 -0.1759  0.3664
  949SOL     OW 3793   2.543   2.003   2.281 -0.5684 -0.7788 -0.2306
  949SOL    HW1 3794   2.511   1.910   2.307 -1.7926 -4.4280 -0.8404
  949SOL    HW2 3795   2.501   2.064   2.343  1.2589  1.4110  0.2357
  949SOL     MW 3796   2.533   1.998   2.293 -0.4888 -0.9714 -0.2495
  950SOL     OW 3797   2.236   2.566   3.016  0.8316 -0.0587  0.0041
  950SOL    HW1 3798   2.258   2.473   2.986  2.0545 -0.5797 -3.0156
  950SOL    HW2 3799   2.158   2.586   2.971  3.4822  0.2783  1.6264
  950SOL     MW 3800   2.228   2.556   3.006  1.3427 -0.0830 -0.1802
  951SOL     OW 3801   2.961   2.062   2.840  0.1809  0.2175 -0.3974
  951SOL    HW1 3802   2.967   2.120   2.914 -2.2772 -0.8211 -1.6157
  951SOL    HW2 3803   3.014   2.088   2.767  2.6890  2.9866  0.9677
  951SOL     MW 3804   2.969   2.073   2.840  0.1875  0.4458 -0.3780
  952SOL     OW 3805   3.077   1.690   2.100 -0.0010 -0.2351  0.3344
  952SOL    HW1 3806   3.003   1.743   2.071  0.7256  0.2243 -0.2642
  952SOL    HW2 3807   3.143   1.760   2.120 -0.1316 -0.2019  1.0317
  952SOL     MW 3808   3.076   1.706   2.099  0.0776 -0.1701  0.3474
  953SOL     OW 3809   1.969   1.805   2.937  0.2812  0.4743  0.4581
  953SOL    HW1 3810   1.882   1.762   2.953 -1.3514  2.1931 -1.6033
  953SOL    HW2 3811   2.005   1.741   2.878 -0.2479 -2.4433  1.6431
  953SOL     MW 3812   1.962   1.791   2.932 -0.0040  0.3161  0.3425
  954SOL     OW 3813   2.486   2.105   2.898  0.0383 -0.3590 -0.6733
  954SOL    HW1 3814   2.397   2.096   2.874  0.0085  0.9464  0.2304
  954SOL    HW2 3815   2.536   2.100   2.819  2.5176 -0.0277 -0.1642
  954SOL     MW 3816   2.480   2.103   2.885  0.3615 -0.1431 -0.4869
  955SOL     OW 3817   1.575   1.628   2.523  0.4348  0.1828 -0.2813
  955SOL    HW1 3818   1.561   1.657   2.436  1.7060  2.4521 -1.4718
  955SOL    HW2 3819   1.656   1.669   2.540 -3.4034 -1.8298  1.8331
  955SOL     MW 3820   1.584   1.637   2.514  0.0961  0.2167 -0.1594
  956SOL     OW 3821   2.634   2.477   2.842  0.5958 -0.1444 -0.3600
  956SOL    HW1 3822   2.675   2.445   2.921 -0.9417 -0.5550 -2.8601
  956SOL    HW2 3823   2.644   2.400   2.787 -3.3462 -1.7318  0.2046
  956SOL     MW 3824   2.641   2.462   2.845 -0.1272 -0.4080 -0.6154
  957SOL     OW 3825   2.280   2.807   0.386 -0.5938  0.4356 -0.0490
  957SOL    HW1 3826   2.192   2.808   0.357 -0.5344  0.5313 -0.6486
  957SOL    HW2 3827   2.277   2.770   0.475  0.7932  3.3759  2.6084
  957SOL     MW 3828   2.268   2.802   0.394 -0.4030  0.8362  0.2225
  958SOL     OW 3829   2.012   2.678   2.813 -0.4353 -0.1777  0.4128
  958SOL    HW1 3830   1.974   2.607   2.752  2.0948  1.6384  0.8907
  958SOL    HW2 3831   1.938   2.695   2.876  0.4972 -1.0125  0.7109
  958SOL     MW 3832   1.997   2.671   2.813  0.0216 -0.0482  0.5152
  959SOL     OW 3833   2.436   2.583   0.304  0.2852  0.0793  0.2319
  959SOL    HW1 3834   2.508   2.592   0.238  4.0368 -0.6443 -1.7323
  959SOL    HW2 3835   2.382   2.664   0.303  0.6997  3.0157 -1.5721
  959SOL     MW 3836   2.438   2.595   0.295  0.8349  0.3713 -0.2653
  960SOL     OW 3837   1.900   2.319   2.288 -0.1381 -0.3578 -0.3259
  960SOL    HW1 3838   1.865   2.231   2.281  0.6947 -2.9808  0.6128
  960SOL    HW2 3839   1.829   2.379   2.310 -0.5447 -0.5906 -0.3923
  960SOL     MW 3840   1.886   2.315   2.290 -0.0818 -0.7346 -0.2108
  961SOL     OW 3841   2.165   2.321   2.359  0.0574 -0.4499  0.0191
  961SOL    HW1 3842   2.077   2.325   2.325 -3.3407  0.1650 -3.0882
  961SOL    HW2 3843   2.174   2.396   2.415 -2.8553  0.8848 -2.1005
  961SOL     MW 3844   2.155   2.332   2.362 -0.7753 -0.1926 -0.6705
  962SOL     OW 3845   2.226   2.030   2.810  0.0003 -0.4040 -0.3281
  962SOL    HW1 3846   2.191   2.009   2.898 -0.0936 -0.7834 -2.1613
  962SOL    HW2 3847   2.228   1.949   2.764  1.9335 -0.7068  0.9789
  962SOL     MW 3848   2.222   2.017   2.815  0.2430 -0.4940 -0.3975
  963SOL     OW 3849   1.845   2.588   2.041  0.4320 -0.1406 -0.6377
  963SOL    HW1 3850   1.938   2.593   2.052 -1.8068 -2.3941  1.3580
  963SOL    HW2 3851   1.825   2.506   1.996  2.3183  2.9821  1.1170
  963SOL     MW 3852   1.854   2.578   2.037  0.3855 -0.0259 -0.1429
  964SOL     OW 3853   1.869   1.979   2.748  0.0110 -0.6601  0.3731
  964SOL    HW1 3854   1.938   2.048   2.719  0.4743  0.1847  0.0018
  964SOL    HW2 3855   1.912   1.941   2.824 -2.2067  3.0053 -3.5569
  964SOL     MW 3856   1.884   1.983   2.754 -0.2205 -0.0650 -0.1944
  965SOL     OW 3857   2.227   2.715   0.637  0.8605  0.4996  0.4921
  965SOL    HW1 3858   2.184   2.632   0.638 -2.0220  2.0958  1.5217
  965SOL    HW2 3859   2.255   2.721   0.728  0.1151 -0.6915  0.7061
  965SOL     MW 3860   2.225   2.705   0.649  0.3818  0.5530  0.6562
  966SOL     OW 3861   2.631   2.647   2.436 -0.6612 -0.0534  0.0519
  966SOL    HW1 3862   2.576   2.671   2.364 -1.4057 -3.0988  0.8775
  966SOL    HW2 3863   2.659   2.548   2.434 -1.4889 -0.5920  1.2356
  966SOL     MW 3864   2.627   2.637   2.426 -0.8687 -0.5263  0.3170
  967SOL     OW 3865   2.893   3.036   2.903  0.9651  0.0065  0.0625
  967SOL    HW1 3866   2.895   2.943   2.921  0.7480  1.6793  1.5761
  967SOL    HW2 3867   2.821   3.049   2.838  1.1455  1.0057 -0.0653
  967SOL     MW 3868   2.884   3.025   2.897  0.9603  0.3590  0.2454
  968SOL     OW 3869   3.048   2.592   2.928 -0.2002 -0.1381 -0.2934
  968SOL    HW1 3870   2.964   2.626   2.942  1.2545  2.4033 -0.1127
  968SOL    HW2 3871   3.049   2.526   2.852  0.7147  1.8562 -0.6493
  968SOL     MW 3872   3.037   2.588   2.920  0.1124  0.4604 -0.3165
  969SOL     OW 3873   1.515   2.129   1.716 -0.2604  0.1971 -0.3503
  969SOL    HW1 3874   1.595   2.081   1.699  2.6553 -0.9547 -0.7445
  969SOL    HW2 3875   1.496   2.113   1.810  1.1255  2.7114  1.1892
  969SOL     MW 3876   1.523   2.120   1.726  0.3071  0.3768 -0.1992
  970SOL     OW 3877   1.676   1.680   1.841  0.7375 -0.8224 -0.1284
  970SOL    HW1 3878   1.743   1.671   1.907 -1.3220 -1.8969 -0.9667
  970SOL    HW2 3879   1.595   1.712   1.877 -0.0072  2.5234 -1.5000
  970SOL     MW 3880   1.674   1.683   1.855  0.3675 -0.5227 -0.4200
  971SOL     OW 3881   1.798   0.033   2.369 -0.5093 -0.2204  0.4694
  971SOL    HW1 3882   1.835  -0.023   2.297  1.1936 -4.7812 -3.4312
  971SOL    HW2 3883   1.863   0.079   2.413  0.7546 -2.0084 -0.6004
  971SOL     MW 3884   1.811   0.031   2.365 -0.1179 -1.0581 -0.1864
  972SOL     OW 3885   0.285   2.800   2.511 -0.0529 -0.0418 -0.6785
  972SOL    HW1 3886   0.298   2.709   2.535 -1.1011 -0.2701  1.1347
  972SOL    HW2 3887   0.342   2.869   2.549 -0.4872 -0.2329 -0.7040
  972SOL     MW 3888   0.294   2.797   2.519 -0.2485 -0.0971 -0.4426
  973SOL     OW 3889   2.620   0.026   2.088 -0.7376  0.0639  0.5786
  973SOL    HW1 3890   2.616  -0.071   2.093  2.1553 -0.4238 -1.2970
  973SOL    HW2 3891   2.617   0.045   1.995 -1.8275  0.6618  4.2033
  973SOL     MW 3892   2.619   0.016   2.077 -0.4997  0.0784  0.8094
  974SOL     OW 3893   2.101   0.278   2.790 -0.3016 -0.1334 -0.0117
  974SOL    HW1 3894   2.193   0.254   2.776  0.9013  2.4181 -1.1160
  974SOL    HW2 3895   2.051   0.200   2.824 -1.2576  1.9019 -1.7117
  974SOL     MW 3896   2.106   0.264   2.793 -0.2691  0.4718 -0.3817
  975SOL     OW 3897   2.193   2.558   2.526 -0.5491  0.2421 -0.1208
  975SOL    HW1 3898   2.273   2.597   2.562  0.9873  1.1421  1.6021
  975SOL    HW2 3899   2.140   2.635   2.506 -0.9725 -0.5124  0.3608
  975SOL     MW 3900   2.197   2.573   2.528 -0.4023  0.2613  0.1701
  976SOL     OW 3901   0.242   0.396   1.710  0.6108  0.3600  0.6215
  976SOL    HW1 3902   0.311   0.324   1.730  2.0874  1.9553  1.9602
  976SOL    HW2 3903   0.172   0.336   1.701  0.8293 -1.2880 -2.3101
  976SOL     MW 3904   0.242   0.379   1.712  0.8344  0.3531  0.4114
  977SOL     OW 3905   1.730   2.739   2.463  0.5715  0.1369  0.1552
  977SOL    HW1 3906   1.721   2.641   2.455 -0.0511  2.3486  0.4021
  977SOL    HW2 3907   1.823   2.756   2.450  0.1583 -0.0323 -3.3754
  977SOL     MW 3908   1.741   2.729   2.460  0.4348  0.4064 -0.2780
   3.10000   3.10000   3.10000
