977 TIP4P/2005f water molecules t=   0.66000 step= 660
 3908
    1SOL     OW    1   0.179   0.839   3.100  0.3932  0.3405 -0.5373
    1SOL    HW1    2   0.163   0.855   3.011  0.8995  1.2727 -1.2826
    1SOL    HW2    3   0.177   0.745   3.126 -0.4558 -1.8039 -0.8421
    1SOL     MW    4   0.176   0.829   3.092  0.3480  0.1806 -0.6758
    2SOL     OW    5   0.222   3.005   1.193 -0.2161 -0.4218  0.0689
    2SOL    HW1    6   0.300   3.037   1.150  0.8434 -1.9728 -0.2431
    2SOL    HW2    7   0.146   3.052   1.158  0.7310  1.8688 -1.7388
    2SOL     MW    8   0.222   3.016   1.183  0.0487 -0.3242 -0.2108
    3SOL     OW    9   2.673   0.406   0.929 -0.0871 -0.4390  0.3151
    3SOL    HW1   10   2.687   0.482   0.870  1.4977  2.5506 -2.0327
    3SOL    HW2   11   2.641   0.436   1.013 -1.0833 -2.7651 -1.3960
    3SOL     MW   12   2.671   0.420   0.932 -0.0094 -0.3514 -0.2204
    4SOL     OW   13   3.035   1.709   0.602  0.3446 -0.2863 -0.1042
    4SOL    HW1   14   2.951   1.744   0.565  2.8006 -0.9822  0.0522
    4SOL    HW2   15   3.081   1.677   0.527 -0.8035 -1.3481 -0.2250
    4SOL     MW   16   3.030   1.710   0.588  0.5172 -0.5182 -0.0995
    5SOL     OW   17   1.719   1.495   0.530 -0.0937 -0.1100 -0.5684
    5SOL    HW1   18   1.778   1.444   0.589 -0.4609  0.3918 -3.3967
    5SOL    HW2   19   1.629   1.473   0.557 -0.9405 -1.7113  2.5728
    5SOL     MW   20   1.715   1.485   0.541 -0.2539 -0.2551 -0.5271
    6SOL     OW   21   0.862   1.381   0.670 -0.3921  0.2757 -0.7432
    6SOL    HW1   22   0.774   1.418   0.679 -0.1442 -0.8190  1.9424
    6SOL    HW2   23   0.859   1.305   0.731  2.5603  1.8385  0.0224
    6SOL     MW   24   0.850   1.376   0.679  0.0301  0.3375 -0.2879
    7SOL     OW   25   1.995   1.130   0.007 -0.1689 -0.4901  0.1100
    7SOL    HW1   26   2.047   1.167  -0.063 -3.8013  0.2254 -3.7980
    7SOL    HW2   27   2.053   1.127   0.086  1.9737 -0.9011 -0.2643
    7SOL     MW   28   2.010   1.134   0.008 -0.3655 -0.4499 -0.4550
    8SOL     OW   29   0.954   1.337   1.020  0.0038 -0.3691  0.2807
    8SOL    HW1   30   1.036   1.305   0.988 -1.9617  4.0552  0.1904
    8SOL    HW2   31   0.921   1.277   1.091  0.2867 -2.5739 -2.5571
    8SOL     MW   32   0.961   1.325   1.025 -0.2182 -0.0763 -0.1057
    9SOL     OW   33   1.056   0.454   1.353 -0.4501  0.1238 -0.2060
    9SOL    HW1   34   0.978   0.398   1.324 -0.9986 -0.5306 -1.0422
    9SOL    HW2   35   1.106   0.406   1.418  2.2541  1.4048  0.2809
    9SOL     MW   36   1.052   0.440   1.357 -0.1657  0.2065 -0.2521
   10SOL     OW   37   0.266   0.804   0.428  0.4536  0.1364  0.2392
   10SOL    HW1   38   0.356   0.804   0.402 -4.2769 -0.4942  2.5669
   10SOL    HW2   39   0.257   0.878   0.489  2.4245  1.8077 -0.5679
   10SOL     MW   40   0.277   0.814   0.432  0.0895  0.2737  0.4398
   11SOL     OW   41   0.785   1.155   1.695 -0.3419  0.2487  0.0152
   11SOL    HW1   42   0.834   1.116   1.765  1.5657  2.8293 -0.7113
   11SOL    HW2   43   0.760   1.082   1.628 -0.3615  4.1014 -0.6429
   11SOL     MW   44   0.788   1.140   1.695 -0.0928  1.0975 -0.1675
   12SOL     OW   45   3.090   1.072   0.886 -0.0192 -0.3119 -0.1654
   12SOL    HW1   46   3.110   1.148   0.940 -3.6891  1.4346  0.7803
   12SOL    HW2   47   3.015   1.103   0.830 -0.4195  2.1337 -0.3097
   12SOL     MW   48   3.083   1.086   0.886 -0.5563  0.2412 -0.0597
   13SOL     OW   49   1.847   1.414   1.329  0.2247 -0.0149  0.1738
   13SOL    HW1   50   1.885   1.399   1.237  2.3240  0.2153 -1.0042
   13SOL    HW2   51   1.853   1.510   1.338 -0.2163 -1.6390  0.9512
   13SOL     MW   52   1.853   1.425   1.318  0.4435 -0.1988  0.1209
   14SOL     OW   53   0.603   0.371   1.802  0.1280  0.7172  0.0427
   14SOL    HW1   54   0.587   0.280   1.777 -2.8500  0.3210  2.3924
   14SOL    HW2   55   0.687   0.368   1.847  0.9619 -1.3442  0.9249
   14SOL     MW   56   0.612   0.359   1.805 -0.1549  0.3929  0.4691
   15SOL     OW   57   1.941   0.488   0.954  0.4869 -0.2354 -0.3244
   15SOL    HW1   58   1.946   0.524   1.044  2.4244  1.0126  0.0667
   15SOL    HW2   59   2.015   0.435   0.925  1.0389 -0.3832 -0.5917
   15SOL     MW   60   1.952   0.486   0.962  0.8153 -0.0903 -0.3081
   16SOL     OW   61   0.250   1.835   0.339 -0.4225  0.0368  0.0684
   16SOL    HW1   62   0.333   1.795   0.367  1.9332  1.5484 -0.5463
   16SOL    HW2   63   0.261   1.920   0.389  1.8835  2.3034  0.6005
   16SOL     MW   64   0.262   1.841   0.350  0.1926  0.5353  0.0575
   17SOL     OW   65   1.036   0.892   1.511  0.1835  0.5828  0.4472
   17SOL    HW1   66   1.057   0.862   1.597  1.6872  0.4964 -0.2462
   17SOL    HW2   67   0.945   0.896   1.518  0.0980 -1.6696  0.1937
   17SOL     MW   68   1.027   0.888   1.523  0.3706  0.2742  0.3223
   18SOL     OW   69   0.105   1.615   0.380  0.0621  0.3618  0.1400
   18SOL    HW1   70   0.168   1.690   0.373  0.5629 -0.7279  1.1077
   18SOL    HW2   71   0.103   1.581   0.294  0.0394  1.0580  0.0696
   18SOL     MW   72   0.113   1.620   0.368  0.1252  0.3098  0.2583
   19SOL     OW   73   0.092   1.306   0.978  0.8496  0.1466 -0.7703
   19SOL    HW1   74   0.138   1.369   0.922  0.2127 -0.9810  1.3461
   19SOL    HW2   75   0.008   1.341   1.004  0.4431  1.5162  3.4756
   19SOL     MW   76   0.087   1.319   0.974  0.7119  0.1785  0.0692
   20SOL     OW   77   0.406   2.137   1.216  0.2536 -0.0872 -0.3331
   20SOL    HW1   78   0.362   2.055   1.188 -2.6734  0.6594 -2.4286
   20SOL    HW2   79   0.351   2.177   1.281 -0.7008  0.9707 -0.2563
   20SOL     MW   80   0.393   2.131   1.221 -0.2585  0.1508 -0.5994
   21SOL     OW   81   0.532   0.804   0.355  0.0221  0.0208  0.1173
   21SOL    HW1   82   0.620   0.794   0.395  0.0106  1.2043  1.3093
   21SOL    HW2   83   0.530   0.788   0.259  0.7250  3.7171  0.8767
   21SOL     MW   84   0.543   0.800   0.348  0.1133  0.6646  0.3748
   22SOL     OW   85   1.489   0.581   1.117  0.0817  0.5845  0.6575
   22SOL    HW1   86   1.531   0.525   1.044 -4.0194  1.9748  0.0058
   22SOL    HW2   87   1.418   0.630   1.080 -0.2527  0.7827  3.8482
   22SOL     MW   88   1.485   0.580   1.103 -0.5035  0.7941  0.9925
   23SOL     OW   89   0.009   0.775   0.652 -0.0295  0.1206  0.0519
   23SOL    HW1   90   0.032   0.700   0.708  0.1099 -0.5717 -1.2814
   23SOL    HW2   91   0.084   0.825   0.664 -0.2950  0.7071 -1.2669
   23SOL     MW   92   0.022   0.772   0.661 -0.0461  0.1066 -0.2981
   24SOL     OW   93   2.020   2.223   0.105 -0.0283  0.3422 -0.0342
   24SOL    HW1   94   2.011   2.173   0.187  1.1808 -2.8302 -2.3060
   24SOL    HW2   95   2.065   2.167   0.041 -1.1306  1.0754  1.0359
   24SOL     MW   96   2.024   2.209   0.107 -0.0143  0.0204 -0.1927
   25SOL     OW   97   0.202   1.358   0.539 -0.6384 -0.2454 -0.3910
   25SOL    HW1   98   0.141   1.421   0.501 -0.1929 -0.6388 -0.2313
   25SOL    HW2   99   0.295   1.374   0.503 -0.4557  0.9598 -0.0170
   25SOL     MW  100   0.206   1.368   0.529 -0.5555 -0.1383 -0.3206
   26SOL     OW  101   2.000   0.950   0.411 -0.0935  0.7658 -0.7576
   26SOL    HW1  102   1.932   1.004   0.471 -0.3306 -1.3750  2.1760
   26SOL    HW2  103   2.045   1.015   0.351  0.4966  0.4508 -0.8855
   26SOL     MW  104   1.997   0.966   0.411 -0.0469  0.4418 -0.3874
   27SOL     OW  105   2.049   1.404   0.216  0.0486  0.2579 -0.3593
   27SOL    HW1  106   1.972   1.363   0.260 -1.4503 -0.0036 -1.6189
   27SOL    HW2  107   2.074   1.478   0.273  1.3435  0.5973 -0.1053
   27SOL     MW  108   2.042   1.409   0.229  0.0217  0.2682 -0.4920
   28SOL     OW  109   0.395   1.078   2.005 -0.0917 -0.0542  0.2441
   28SOL    HW1  110   0.472   1.034   2.033 -3.9116 -4.5049  1.3202
   28SOL    HW2  111   0.321   1.020   2.021 -0.9018  1.1949  3.1998
   28SOL     MW  112   0.395   1.064   2.011 -0.7026 -0.4766  0.7761
   29SOL     OW  113   0.217   1.457   0.806 -0.6892  0.3210 -0.5450
   29SOL    HW1  114   0.248   1.547   0.801  0.7761 -0.2037 -0.3843
   29SOL    HW2  115   0.204   1.422   0.718 -0.2180  1.1481 -2.3297
   29SOL     MW  116   0.219   1.464   0.793 -0.4337  0.3609 -0.7593
   30SOL     OW  117   0.824   1.179   1.216 -0.5202  0.4658 -0.1594
   30SOL    HW1  118   0.734   1.184   1.250  0.1174  0.6550  0.1743
   30SOL    HW2  119   0.883   1.168   1.294  1.1388  0.6557 -2.6124
   30SOL     MW  120   0.820   1.178   1.231 -0.2172  0.5158 -0.4390
   31SOL     OW  121   0.394   0.182   0.160  0.9075 -0.3393  0.6441
   31SOL    HW1  122   0.422   0.118   0.223 -0.5312  1.9202  2.2737
   31SOL    HW2  123   0.386   0.139   0.076  1.3170  0.0004  0.9663
   31SOL     MW  124   0.397   0.167   0.157  0.7717  0.0037  0.9016
   32SOL     OW  125   2.788   1.003   1.131  0.1953  0.0057  0.1784
   32SOL    HW1  126   2.721   0.939   1.099  1.0139 -1.7346 -2.5866
   32SOL    HW2  127   2.872   0.956   1.117 -1.5063  0.3237 -1.6765
   32SOL     MW  128   2.791   0.988   1.125  0.0788 -0.1819 -0.4312
   33SOL     OW  129   1.840   1.319   0.354  0.1201 -0.1589  0.0845
   33SOL    HW1  130   1.825   1.255   0.424 -0.4723  0.2230 -0.1941
   33SOL    HW2  131   1.795   1.395   0.397  1.4003  0.1385  0.7059
   33SOL     MW  132   1.832   1.321   0.369  0.2108 -0.0692  0.1297
   34SOL     OW  133   1.239   1.870   1.089  0.1788 -0.0447 -0.3147
   34SOL    HW1  134   1.151   1.908   1.109  2.2829 -0.4753 -1.2980
   34SOL    HW2  135   1.296   1.897   1.164  1.6856  0.7366  1.0338
   34SOL     MW  136   1.235   1.878   1.101  0.6553  0.0016 -0.2665
   35SOL     OW  137   0.386   0.157   1.857  0.4430  0.5364 -0.2341
   35SOL    HW1  138   0.368   0.120   1.942  2.4816 -0.5854 -0.8849
   35SOL    HW2  139   0.392   0.082   1.800 -2.4385  1.6570  1.7377
   35SOL     MW  140   0.384   0.143   1.861  0.3318  0.5362 -0.0598
   36SOL     OW  141   1.837   1.936   0.498  0.0961  0.0563 -0.0836
   36SOL    HW1  142   1.872   1.932   0.413  1.0305  0.4685 -0.2334
   36SOL    HW2  143   1.863   1.856   0.549 -0.4015  1.8127  0.1815
   36SOL     MW  144   1.845   1.925   0.494  0.1537  0.3424 -0.0684
   37SOL     OW  145   1.765   1.982   1.055 -0.0513 -0.1042 -0.6411
   37SOL    HW1  146   1.706   1.943   0.986 -1.0286  0.4173 -1.3646
   37SOL    HW2  147   1.699   2.031   1.102  1.2868 -1.4926 -0.3649
   37SOL     MW  148   1.748   1.983   1.052 -0.0037 -0.2186 -0.7001
   38SOL     OW  149   2.819   0.898   0.159 -0.6782  0.0212  0.2023
   38SOL    HW1  150   2.850   0.895   0.254  0.3224  0.8600 -0.2048
   38SOL    HW2  151   2.889   0.871   0.104 -1.1903 -2.8795  1.5992
   38SOL     MW  152   2.832   0.894   0.164 -0.6138 -0.2508  0.3329
   39SOL     OW  153   1.403   0.645   0.778  0.0411  0.2888 -0.1150
   39SOL    HW1  154   1.422   0.555   0.817  0.9676 -0.5090 -1.3739
   39SOL    HW2  155   1.308   0.645   0.780  2.0596 -2.8130 -0.7352
   39SOL     MW  156   1.393   0.633   0.783  0.4297 -0.2257 -0.3629
   40SOL     OW  157   1.193   1.907   0.222 -0.0304  0.5630 -0.2376
   40SOL    HW1  158   1.244   1.859   0.288  0.3602 -0.4659  0.3569
   40SOL    HW2  159   1.170   1.991   0.270  1.6043  0.8833 -0.2381
   40SOL     MW  160   1.197   1.912   0.237  0.2368  0.4695 -0.1592
   41SOL     OW  161   0.624   0.482   1.565  0.0101  0.7729  0.4655
   41SOL    HW1  162   0.719   0.509   1.569  0.3017  0.9157 -0.7594
   41SOL    HW2  163   0.609   0.420   1.643  0.5910  0.8386 -1.6997
   41SOL     MW  164   0.635   0.478   1.576  0.1252  0.8004  0.0182
   42SOL     OW  165   1.251   3.000   2.017 -0.3104  0.0746 -0.4268
   42SOL    HW1  166   1.158   3.003   2.042 -1.1402  0.4497  1.1819
   42SOL    HW2  167   1.280   2.915   2.032 -0.7672  1.6348 -0.6577
   42SOL     MW  168   1.242   2.989   2.023 -0.4802  0.3299 -0.2450
   43SOL     OW  169   1.556   0.126   1.765 -0.2677 -0.1053 -0.5021
   43SOL    HW1  170   1.617   0.111   1.691  2.3159 -0.5687  1.5552
   43SOL    HW2  171   1.465   0.096   1.744  0.7317 -0.5903  2.2553
   43SOL     MW  172   1.552   0.120   1.752  0.2051 -0.2304  0.1332
   44SOL     OW  173   1.261   0.759   1.098 -0.1592  0.2430 -0.8795
   44SOL    HW1  174   1.236   0.848   1.073 -0.0220 -1.6817 -0.3423
   44SOL    HW2  175   1.255   0.755   1.196  1.1459 -1.5280  0.5334
   44SOL     MW  176   1.257   0.770   1.108  0.0311 -0.2446 -0.6222
   45SOL     OW  177   1.141   0.705   0.750  0.3798  0.3614 -0.4600
   45SOL    HW1  178   1.106   0.655   0.823  2.0951 -0.8543 -0.7175
   45SOL    HW2  179   1.101   0.685   0.666  2.1999  0.9741 -2.3766
   45SOL     MW  180   1.131   0.695   0.748  0.8463  0.2819 -0.7469
   46SOL     OW  181   0.561   1.182   0.555 -0.2423 -0.4462  0.1968
   46SOL    HW1  182   0.525   1.172   0.472 -0.4554 -2.0885  0.8804
   46SOL    HW2  183   0.646   1.139   0.552 -2.0279  1.3968  1.7195
   46SOL     MW  184   0.568   1.175   0.544 -0.5060 -0.4197  0.4879
   47SOL     OW  185   0.162   1.917   1.781  0.1579 -0.1702 -0.3359
   47SOL    HW1  186   0.235   1.868   1.746 -2.4836  0.5704  3.2297
   47SOL    HW2  187   0.168   1.904   1.880 -0.8006 -2.0181 -0.2174
   47SOL     MW  188   0.173   1.909   1.789 -0.3171 -0.3163  0.1502
   48SOL     OW  189   1.070   0.574   0.962  0.6484 -0.3568 -0.4366
   48SOL    HW1  190   0.987   0.535   0.993  2.3959  0.0176 -1.3738
   48SOL    HW2  191   1.090   0.635   1.031 -0.0751 -0.3650 -0.0932
   48SOL     MW  192   1.061   0.577   0.975  0.7835 -0.3085 -0.5149
   49SOL     OW  193   1.815   0.751   1.580 -0.0445 -0.4310  0.6857
   49SOL    HW1  194   1.764   0.713   1.654  1.9028  2.2135  0.6255
   49SOL    HW2  195   1.858   0.667   1.549 -0.3509 -2.5667  0.7619
   49SOL     MW  196   1.814   0.735   1.586  0.1720 -0.3639  0.6878
   50SOL     OW  197   1.174   1.064   0.521  0.2802  0.6296  0.5801
   50SOL    HW1  198   1.158   1.111   0.603  0.2642 -2.1294  0.0548
   50SOL    HW2  199   1.237   1.001   0.552 -1.0129  0.2685 -2.0329
   50SOL     MW  200   1.180   1.062   0.536  0.1075  0.2179  0.1661
   51SOL     OW  201   0.316   2.888   0.932 -0.4858 -0.0805 -0.0263
   51SOL    HW1  202   0.403   2.868   0.967  1.2672  1.8993  2.3150
   51SOL    HW2  203   0.259   2.904   1.004 -0.6183 -0.6119  2.1547
   51SOL     MW  204   0.320   2.887   0.946 -0.2720  0.1106  0.5704
   52SOL     OW  205   0.791   1.824   0.459  0.4090  0.3092  0.2727
   52SOL    HW1  206   0.752   1.908   0.462  1.2942 -1.3754 -2.5449
   52SOL    HW2  207   0.810   1.812   0.364 -0.7311  1.6700 -0.9599
   52SOL     MW  208   0.788   1.833   0.447  0.3754  0.2664 -0.2617
   53SOL     OW  209   0.466   2.151   0.651 -0.3747 -0.1864  0.1347
   53SOL    HW1  210   0.375   2.154   0.628 -0.0374  1.0715  0.7578
   53SOL    HW2  211   0.484   2.245   0.678 -2.2702 -0.3499 -1.6304
   53SOL     MW  212   0.456   2.163   0.652 -0.5802 -0.0420 -0.0160
   54SOL     OW  213   2.148   0.869   0.873 -0.3888  0.3919 -0.3095
   54SOL    HW1  214   2.198   0.869   0.792 -0.2674 -1.6057  1.2216
   54SOL    HW2  215   2.057   0.846   0.843 -1.9398  1.9321  0.1697
   54SOL     MW  216   2.142   0.866   0.858 -0.5774  0.3315 -0.0443
   55SOL     OW  217   0.594   1.529   1.620 -0.0280  0.0377  0.8607
   55SOL    HW1  218   0.536   1.571   1.557  0.5771 -0.7110 -0.7124
   55SOL    HW2  219   0.645   1.474   1.561  3.5167  1.1872 -0.0915
   55SOL     MW  220   0.593   1.527   1.604  0.5195  0.0906  0.5275
   56SOL     OW  221   0.532   0.787   0.080  0.1897 -0.2291 -0.4813
   56SOL    HW1  222   0.549   0.871   0.036  2.0678  0.2462 -1.4815
   56SOL    HW2  223   0.472   0.742   0.018 -1.5745 -0.9752 -1.6271
   56SOL     MW  224   0.526   0.792   0.066  0.2048 -0.2648 -0.7645
   57SOL     OW  225   1.225   1.216   1.126 -0.2173  0.0682 -0.7612
   57SOL    HW1  226   1.304   1.255   1.077 -1.3933  1.7781 -1.4830
   57SOL    HW2  227   1.262   1.189   1.214 -0.1622 -1.4738  2.0817
   57SOL     MW  228   1.240   1.218   1.131 -0.3652  0.0904 -0.4814
   58SOL     OW  229   0.537   1.176   1.305 -0.4284  0.0820 -0.3295
   58SOL    HW1  230   0.503   1.266   1.278 -0.9051  0.9688  0.0328
   58SOL    HW2  231   0.567   1.192   1.400  0.5364  0.0762 -0.9307
   58SOL     MW  232   0.537   1.190   1.314 -0.3640  0.1983 -0.3610
   59SOL     OW  233   1.534   1.684   0.328  0.1895  0.0450 -0.1508
   59SOL    HW1  234   1.580   1.686   0.416  0.5826 -1.3383  0.1062
   59SOL    HW2  235   1.444   1.706   0.359 -0.6858  2.9699  0.2756
   59SOL     MW  236   1.528   1.687   0.343  0.1259  0.2484 -0.0606
   60SOL     OW  237   0.069   0.155   1.665  0.4233 -0.2656 -0.4893
   60SOL    HW1  238  -0.011   0.185   1.623  0.5080  0.9686 -3.0629
   60SOL    HW2  239   0.052   0.083   1.726 -0.8100  0.7788  2.1213
   60SOL     MW  240   0.056   0.150   1.667  0.2718  0.0350 -0.4844
   61SOL     OW  241   2.063   1.459   3.037 -0.0348  0.1578  0.1946
   61SOL    HW1  242   2.073   1.432   3.132  0.6595 -2.7778 -0.9080
   61SOL    HW2  243   2.103   1.393   2.982 -0.6810  1.2816  0.0259
   61SOL     MW  244   2.070   1.446   3.042 -0.0285 -0.0812  0.0268
   62SOL     OW  245   0.617   1.714   0.624 -0.6649  0.1925  0.3503
   62SOL    HW1  246   0.675   1.746   0.560  0.4863 -0.7459 -1.1027
   62SOL    HW2  247   0.621   1.615   0.618 -0.9504 -0.7498  0.7072
   62SOL     MW  248   0.626   1.705   0.615 -0.5507 -0.0556  0.2057
   63SOL     OW  249   1.666   0.714   0.732  0.3919 -0.4370  0.4045
   63SOL    HW1  250   1.658   0.750   0.641 -0.5977  1.1769  0.0129
   63SOL    HW2  251   1.579   0.711   0.772  0.9707 -0.7571  1.2805
   63SOL     MW  252   1.653   0.718   0.726  0.3377 -0.2663  0.4684
   64SOL     OW  253   0.277   1.715   0.733 -0.4051  0.0826  0.5257
   64SOL    HW1  254   0.353   1.777   0.728 -0.4857 -0.9030 -2.0553
   64SOL    HW2  255   0.200   1.760   0.725  2.9673  0.6853 -0.9527
   64SOL     MW  256   0.277   1.729   0.732  0.0292  0.0321 -0.0099
   65SOL     OW  257   1.548   2.351   0.393 -0.1593  0.2826  0.7111
   65SOL    HW1  258   1.643   2.358   0.377 -0.1173 -0.3855 -1.0648
   65SOL    HW2  259   1.534   2.414   0.463  0.3191 -2.9666 -0.7167
   65SOL     MW  260   1.559   2.360   0.400 -0.0907 -0.2342  0.2884
   66SOL     OW  261   0.292   0.552   0.576  0.4712 -0.2737  0.0023
   66SOL    HW1  262   0.352   0.496   0.531 -1.0158 -2.2123  1.5766
   66SOL    HW2  263   0.286   0.634   0.525 -1.8578  0.8150  0.5432
   66SOL     MW  264   0.299   0.556   0.564 -0.0323 -0.3858  0.2814
   67SOL     OW  265   1.467   0.092   2.021  1.0158 -0.3373 -0.0946
   67SOL    HW1  266   1.508   0.102   1.933  2.6204  0.5874  0.9448
   67SOL    HW2  267   1.424   0.007   2.016  2.4503  0.3987  1.5351
   67SOL     MW  268   1.467   0.082   2.009  1.4168 -0.1182  0.2576
   68SOL     OW  269   0.640   0.088   2.947  0.0306 -0.1025 -0.0725
   68SOL    HW1  270   0.631   0.125   2.860  2.0922  1.2005  1.2404
   68SOL    HW2  271   0.696   0.144   3.004 -0.3532  2.6621  0.7261
   68SOL     MW  272   0.646   0.100   2.943  0.2520  0.4341  0.2061
   69SOL     OW  273   0.994   0.175   1.983 -0.3144 -0.2034  0.0403
   69SOL    HW1  274   1.072   0.202   2.034  1.7900  2.7933  0.8108
   69SOL    HW2  275   0.968   0.084   2.009 -0.5177 -1.2819  4.0052
   69SOL     MW  276   1.001   0.167   1.993 -0.0636  0.0497  0.6651
   70SOL     OW  277   0.518   1.718   1.128  0.4590 -0.2713 -0.4612
   70SOL    HW1  278   0.574   1.680   1.200 -0.7800  0.5680  3.7437
   70SOL    HW2  279   0.579   1.762   1.072 -0.9224 -1.4017  2.0737
   70SOL     MW  280   0.534   1.719   1.130  0.1132 -0.3097  0.4281
   71SOL     OW  281   1.640   0.547   1.330 -0.6447  0.0082 -0.7354
   71SOL    HW1  282   1.625   0.633   1.367 -0.3411 -0.0360 -0.8345
   71SOL    HW2  283   1.582   0.550   1.248 -0.9232 -0.5687  0.2013
   71SOL     MW  284   1.630   0.559   1.324 -0.6414 -0.0737 -0.6249
   72SOL     OW  285   0.780   1.770   0.978 -0.4120 -0.0365 -0.0220
   72SOL    HW1  286   0.793   1.798   0.890  0.9040 -0.1973  1.4574
   72SOL    HW2  287   0.775   1.672   0.984  0.4160 -1.3098  1.9324
   72SOL     MW  288   0.781   1.761   0.967 -0.1291 -0.2257  0.4310
   73SOL     OW  289   1.182   0.707   1.358 -0.4700 -0.1371  0.3310
   73SOL    HW1  290   1.157   0.614   1.360 -1.3696 -0.7595  1.5479
   73SOL    HW2  291   1.105   0.752   1.392  0.8584  0.8985 -1.1710
   73SOL     MW  292   1.168   0.700   1.363 -0.4134 -0.0826  0.2934
   74SOL     OW  293   2.826   0.180   0.947 -0.6254  0.0973 -0.3334
   74SOL    HW1  294   2.834   0.156   0.857 -0.4764 -0.4518  2.0540
   74SOL    HW2  295   2.766   0.256   0.954 -2.1122  0.4329  0.4771
   74SOL     MW  296   2.819   0.187   0.936 -0.8019  0.0691  0.0885
   75SOL     OW  297   1.674   1.384   0.109 -0.0834 -0.1173 -0.4516
   75SOL    HW1  298   1.717   1.382   0.197  1.3076  1.9735 -0.4418
   75SOL    HW2  299   1.700   1.294   0.078  0.0020 -3.3963 -0.3458
   75SOL     MW  300   1.683   1.372   0.116  0.1114 -0.2741 -0.4363
   76SOL     OW  301   2.998   0.622   0.425  0.5202 -0.1092 -0.0499
   76SOL    HW1  302   3.027   0.629   0.517  2.2295  0.2701 -0.0041
   76SOL    HW2  303   3.058   0.561   0.389 -2.4116 -0.0859  0.4911
   76SOL     MW  304   3.010   0.615   0.432  0.3589 -0.0561  0.0275
   77SOL     OW  305   0.835   0.541   0.419 -0.3672  0.3702 -0.2287
   77SOL    HW1  306   0.816   0.558   0.328  0.0576  1.5275  2.0021
   77SOL    HW2  307   0.757   0.496   0.454 -1.3946  0.0013  0.8113
   77SOL     MW  308   0.822   0.537   0.411 -0.4467  0.4742  0.2029
   78SOL     OW  309   0.753   0.886   1.277 -0.1826  0.2421  0.5565
   78SOL    HW1  310   0.702   0.951   1.219  0.6058  2.0356 -0.5332
   78SOL    HW2  311   0.810   0.833   1.219 -0.1882  0.3224 -1.4309
   78SOL     MW  312   0.754   0.888   1.262 -0.0793  0.4894  0.1505
   79SOL     OW  313   1.909   1.710   0.614  0.4095 -0.2838 -0.2546
   79SOL    HW1  314   1.844   1.638   0.601 -2.0390  0.4778 -1.8224
   79SOL    HW2  315   1.929   1.710   0.710 -0.2772  0.4997 -4.5078
   79SOL     MW  316   1.903   1.701   0.625 -0.0042 -0.0799 -1.0226
   80SOL     OW  317   0.091   0.970   0.299 -0.7423 -0.8402 -0.2873
   80SOL    HW1  318   0.001   0.923   0.305 -0.3861 -1.7037  0.8471
   80SOL    HW2  319   0.162   0.908   0.328 -0.7278  0.4522  3.0589
   80SOL     MW  320   0.088   0.956   0.304 -0.6934 -0.7836  0.3039
   81SOL     OW  321   1.909   1.911   0.232 -0.2993  0.0632  0.7488
   81SOL    HW1  322   1.866   1.826   0.206 -2.6502 -0.4325 -0.4069
   81SOL    HW2  323   1.846   1.977   0.215  1.6714 -2.1806 -0.1989
   81SOL     MW  324   1.895   1.908   0.227 -0.3495 -0.2983  0.4713
   82SOL     OW  325   0.811   1.089   0.530  0.1502 -0.5304 -0.2271
   82SOL    HW1  326   0.846   1.117   0.446  2.2069 -1.1860  0.2472
   82SOL    HW2  327   0.783   1.006   0.511  1.1273 -1.2172 -1.2049
   82SOL     MW  328   0.812   1.082   0.516  0.5505 -0.7075 -0.2935
   83SOL     OW  329   0.160   0.590   1.334 -0.9666 -0.2119  0.1653
   83SOL    HW1  330   0.152   0.686   1.344  0.4650 -2.1387 -0.0253
   83SOL    HW2  331   0.219   0.549   1.398 -1.3547 -0.8537  1.5226
   83SOL     MW  332   0.167   0.597   1.344 -0.8289 -0.5508  0.3192
   84SOL     OW  333   0.081   0.231   0.908 -0.4620  0.6383  0.7205
   84SOL    HW1  334   0.003   0.261   0.857 -0.9853  1.2462  0.1052
   84SOL    HW2  335   0.045   0.161   0.964 -1.1296 -2.3560 -3.4876
   84SOL     MW  336   0.066   0.226   0.909 -0.6191  0.3235  0.0841
   85SOL     OW  337   0.491   0.440   0.764 -0.3650 -0.2140 -0.2522
   85SOL    HW1  338   0.446   0.514   0.723  2.8863 -0.0821  2.2365
   85SOL    HW2  339   0.434   0.367   0.774  0.2756  1.0474 -2.0332
   85SOL     MW  340   0.478   0.440   0.760  0.1485 -0.0302 -0.1588
   86SOL     OW  341   1.220   0.355   1.086 -0.0406 -0.2319 -0.3859
   86SOL    HW1  342   1.163   0.424   1.058  0.1927 -0.2551  1.2885
   86SOL    HW2  343   1.249   0.375   1.177  1.4373 -1.6320  1.5012
   86SOL     MW  344   1.216   0.367   1.094  0.1852 -0.4197  0.0840
   87SOL     OW  345   1.142   1.446   1.267 -0.1188 -0.4193  1.1580
   87SOL    HW1  346   1.176   1.496   1.186 -1.5470  0.2252 -0.5633
   87SOL    HW2  347   1.142   1.348   1.244 -0.8122 -0.9100 -1.2532
   87SOL     MW  348   1.147   1.440   1.253 -0.3987 -0.3990  0.6128
   88SOL     OW  349   1.206   1.002   0.973 -0.0577 -0.2454 -0.6795
   88SOL    HW1  350   1.300   0.987   0.954  2.5000  0.8694 -0.6479
   88SOL    HW2  351   1.210   1.062   1.052 -2.1439 -1.8318  0.5960
   88SOL     MW  352   1.219   1.008   0.981  0.0045 -0.3076 -0.5070
   89SOL     OW  353   1.759   0.675   0.324 -0.0946 -0.0607  0.5295
   89SOL    HW1  354   1.802   0.589   0.347 -0.6936  0.4255 -1.2134
   89SOL    HW2  355   1.826   0.708   0.262  2.1196 -1.1992  3.1175
   89SOL     MW  356   1.773   0.668   0.319  0.1185 -0.1467  0.6410
   90SOL     OW  357   0.674   1.162   2.804  0.0256  0.2272 -0.5084
   90SOL    HW1  358   0.748   1.102   2.836  2.3321 -1.9502  3.1803
   90SOL    HW2  359   0.679   1.240   2.862  2.6174 -2.0181 -0.4840
   90SOL     MW  360   0.685   1.165   2.816  0.6719 -0.3563 -0.0185
   91SOL     OW  361   2.199   0.641   0.525 -0.2861 -0.0491  0.2412
   91SOL    HW1  362   2.216   0.699   0.455  0.7660 -0.8402  0.9322
   91SOL    HW2  363   2.193   0.555   0.480  1.4168  1.3743 -1.0901
   91SOL     MW  364   2.200   0.637   0.510  0.0774  0.0343  0.1567
   92SOL     OW  365   1.627   0.859   0.501  0.0157 -0.6460  0.3183
   92SOL    HW1  366   1.528   0.869   0.517 -0.2021 -0.1292  0.2572
   92SOL    HW2  367   1.647   0.793   0.432 -0.9474 -1.2679  0.2179
   92SOL     MW  368   1.616   0.851   0.494 -0.1401 -0.6599  0.2970
   93SOL     OW  369   1.011   0.322   0.382  0.1062 -0.2582  0.4636
   93SOL    HW1  370   0.931   0.376   0.372 -2.5618 -3.2177 -2.0765
   93SOL    HW2  371   1.056   0.317   0.296  0.0933 -1.2395 -0.7721
   93SOL     MW  372   1.006   0.328   0.369 -0.2475 -0.7781 -0.0346
   94SOL     OW  373   1.877   1.378   1.618 -0.4233  0.7262  0.3244
   94SOL    HW1  374   1.882   1.371   1.525  1.6897  2.4767 -1.4672
   94SOL    HW2  375   1.846   1.292   1.648 -1.9547 -0.8018  1.1667
   94SOL     MW  376   1.874   1.365   1.610 -0.3466  0.7556  0.1992
   95SOL     OW  377   0.722   1.507   0.988  0.7052 -0.0117  0.0293
   95SOL    HW1  378   0.800   1.450   0.996 -0.0388  1.8202 -1.6210
   95SOL    HW2  379   0.647   1.451   1.005  0.3403  0.5783  0.9991
   95SOL     MW  380   0.722   1.492   0.991  0.5589  0.3078 -0.0605
   96SOL     OW  381   1.243   1.836   1.618  0.1302  0.3288  1.4927
   96SOL    HW1  382   1.157   1.830   1.656  3.0703  0.9254 -3.3330
   96SOL    HW2  383   1.245   1.775   1.545 -1.0675  0.2351 -3.1286
   96SOL     MW  384   1.232   1.827   1.614  0.3601  0.3952  0.2463
   97SOL     OW  385   1.270   1.449   0.821  0.2388 -0.5364 -0.2943
   97SOL    HW1  386   1.281   1.481   0.907 -1.1818 -0.2765  1.1908
   97SOL    HW2  387   1.196   1.508   0.792 -0.1355 -0.6830 -0.8885
   97SOL     MW  388   1.262   1.461   0.828  0.0020 -0.5215 -0.1767
   98SOL     OW  389   1.476   1.306   1.054 -0.2298 -0.1440  0.0168
   98SOL    HW1  390   1.477   1.376   1.115 -0.7640 -2.1166 -1.4932
   98SOL    HW2  391   1.519   1.339   0.977  0.2707  0.1513  0.3782
   98SOL     MW  392   1.481   1.320   1.052 -0.2343 -0.3653 -0.1348
   99SOL     OW  393   1.381   0.381   1.337 -0.4711 -0.0337  0.6262
   99SOL    HW1  394   1.426   0.453   1.293 -0.2714 -1.8799  0.5070
   99SOL    HW2  395   1.422   0.374   1.423 -1.5374  0.1185 -0.8908
   99SOL     MW  396   1.393   0.389   1.342 -0.5855 -0.2572  0.4103
  100SOL     OW  397   1.036   1.149   1.394 -0.1112  0.5055 -0.6878
  100SOL    HW1  398   1.044   1.189   1.479 -1.8204 -0.3592 -0.9291
  100SOL    HW2  399   1.028   1.053   1.416  0.6598 -1.2805  0.2454
  100SOL     MW  400   1.036   1.142   1.408 -0.2350  0.1558 -0.5965
  101SOL     OW  401   0.529   1.074   0.283 -0.6596  0.0118  0.5207
  101SOL    HW1  402   0.522   0.981   0.308 -0.3044  0.4281 -3.7845
  101SOL    HW2  403   0.512   1.075   0.192  0.7396  1.9793  4.3426
  101SOL     MW  404   0.526   1.062   0.274 -0.4281  0.3263  0.4569
  102SOL     OW  405   2.948   0.617   0.982 -0.2641 -1.1308  0.6501
  102SOL    HW1  406   2.982   0.713   0.991 -0.9641  0.3714 -0.9174
  102SOL    HW2  407   2.982   0.571   1.062 -0.7605  0.0118 -0.2186
  102SOL     MW  408   2.957   0.624   0.994 -0.4219 -0.7818  0.3286
  103SOL     OW  409   1.761   0.377   1.836  0.3594 -0.2584  0.0810
  103SOL    HW1  410   1.682   0.326   1.829 -1.2001 -2.5000 -0.3025
  103SOL    HW2  411   1.816   0.327   1.891 -1.9418  1.0232 -4.2629
  103SOL     MW  412   1.758   0.364   1.842 -0.1500 -0.3850 -0.5427
  104SOL     OW  413   0.155   1.766   1.530 -0.2734  0.1393  0.5433
  104SOL    HW1  414   0.145   1.701   1.602 -0.3085 -4.1615  2.7449
  104SOL    HW2  415   0.158   1.700   1.460 -1.8925  0.1005  1.7603
  104SOL     MW  416   0.154   1.748   1.531 -0.4917 -0.4333  0.9943
  105SOL     OW  417   0.029   1.166   0.496 -0.2033  0.4311  0.0642
  105SOL    HW1  418   0.048   1.098   0.433  1.9213 -0.4842  1.8196
  105SOL    HW2  419   0.110   1.217   0.513  1.4954 -1.4038  2.7874
  105SOL     MW  420   0.042   1.164   0.490  0.3011  0.0683  0.6551
  106SOL     OW  421   0.872   0.381   1.034  0.2314 -0.3640  0.2990
  106SOL    HW1  422   0.786   0.413   1.010 -2.6311 -2.2829  2.0407
  106SOL    HW2  423   0.914   0.339   0.961  0.1539  0.1855  0.5022
  106SOL     MW  424   0.866   0.380   1.021 -0.1565 -0.5447  0.5556
  107SOL     OW  425   0.769   2.155   2.996 -0.6851 -0.1276 -0.6695
  107SOL    HW1  426   0.706   2.134   2.926 -0.4451 -1.0124  2.7055
  107SOL    HW2  427   0.768   2.091   3.065  0.4516  0.5069  0.4286
  107SOL     MW  428   0.761   2.144   2.996 -0.5035 -0.1606 -0.0793
  108SOL     OW  429   1.327   1.544   1.499 -0.5264 -0.0811  0.2146
  108SOL    HW1  430   1.289   1.465   1.468 -3.0713 -2.2673  1.6566
  108SOL    HW2  431   1.400   1.518   1.562  1.3222 -0.3389  0.0843
  108SOL     MW  432   1.331   1.530   1.503 -0.6183 -0.4036  0.3876
  109SOL     OW  433   1.998   0.757   0.180 -0.0818  0.2043  0.3581
  109SOL    HW1  434   2.030   0.796   0.098 -2.2077 -1.1268 -4.8536
  109SOL    HW2  435   2.021   0.823   0.242  0.6723  1.6279 -2.9598
  109SOL     MW  436   2.005   0.771   0.177 -0.2628  0.2165 -0.7673
  110SOL     OW  437   0.456   1.911   0.781 -0.4127  0.0929 -0.0582
  110SOL    HW1  438   0.528   1.851   0.750  0.1592  2.1086  0.5926
  110SOL    HW2  439   0.472   1.999   0.735  2.2051 -2.8791  0.4395
  110SOL     MW  440   0.468   1.915   0.771  0.0082 -0.0332  0.0933
  111SOL     OW  441   0.758   0.944   1.538 -0.1101 -0.2604 -0.0131
  111SOL    HW1  442   0.758   0.916   1.444  0.2695 -0.7335  0.0120
  111SOL    HW2  443   0.678   0.905   1.574  0.5567  1.4812  0.7285
  111SOL     MW  444   0.747   0.935   1.531  0.0279 -0.0931  0.0881
  112SOL     OW  445   1.338   1.065   1.611  0.2494 -0.2671 -0.1102
  112SOL    HW1  446   1.274   1.131   1.641 -1.6502 -0.1635 -0.1133
  112SOL    HW2  447   1.287   0.985   1.624 -0.6451 -1.5848  0.5039
  112SOL     MW  448   1.323   1.063   1.617 -0.1193 -0.4273 -0.0296
  113SOL     OW  449   1.275   0.033   1.746  0.5159 -0.0358 -0.2828
  113SOL    HW1  450   1.245  -0.029   1.812  2.8058 -0.0839  1.2280
  113SOL    HW2  451   1.303  -0.024   1.668  0.2998  1.7032  0.1651
  113SOL     MW  452   1.275   0.017   1.744  0.7895  0.1873 -0.0244
  114SOL     OW  453   0.396   2.850   1.939 -1.0348  0.1370  0.3070
  114SOL    HW1  454   0.376   2.930   1.987 -0.0869 -0.6892  2.3088
  114SOL    HW2  455   0.411   2.874   1.844 -0.0923 -0.0473 -2.4126
  114SOL     MW  456   0.396   2.864   1.933 -0.7854  0.0037  0.2123
  115SOL     OW  457   0.486   0.817   1.105  0.7679  0.1767  0.2751
  115SOL    HW1  458   0.530   0.745   1.147 -0.5189  0.7121  2.3319
  115SOL    HW2  459   0.451   0.874   1.173 -1.5669 -3.1729  2.5698
  115SOL     MW  460   0.487   0.815   1.119  0.2901 -0.1946  0.8492
  116SOL     OW  461   0.785   1.006   1.004 -0.4347 -0.0096  0.7840
  116SOL    HW1  462   0.826   1.040   0.924  2.4435 -1.4859  0.0915
  116SOL    HW2  463   0.818   1.070   1.070  2.1644  2.0249  0.9633
  116SOL     MW  464   0.795   1.019   1.002  0.2880  0.0641  0.7163
  117SOL     OW  465   1.169   1.199   0.750 -0.7664  0.4176  0.0118
  117SOL    HW1  466   1.214   1.148   0.815 -0.8970  0.6198 -1.0276
  117SOL    HW2  467   1.198   1.294   0.766  1.2561  2.2860  1.2648
  117SOL     MW  468   1.179   1.205   0.761 -0.5168  0.6908  0.0400
  118SOL     OW  469   3.027   2.917   1.697  0.0284  0.1728 -0.1486
  118SOL    HW1  470   3.076   2.982   1.748 -0.4340 -0.8251  2.1301
  118SOL    HW2  471   2.939   2.956   1.689  2.5363 -1.9223  0.3737
  118SOL     MW  472   3.022   2.931   1.703  0.2983 -0.2353  0.2210
  119SOL     OW  473   0.453   1.414   1.219 -0.4670 -0.3283 -0.3409
  119SOL    HW1  474   0.454   1.428   1.123  0.2041  1.5465  1.3891
  119SOL    HW2  475   0.363   1.413   1.243  2.5120 -1.7102 -0.0934
  119SOL     MW  476   0.441   1.416   1.210  0.0146 -0.2632 -0.0800
  120SOL     OW  477   0.279   0.701   1.000  0.1985  0.0006 -0.4494
  120SOL    HW1  478   0.276   0.616   1.039  0.1899  1.9926 -1.0178
  120SOL    HW2  479   0.359   0.746   1.031 -0.8235  0.8862  0.3538
  120SOL     MW  480   0.290   0.695   1.009  0.0625  0.3803 -0.4185
  121SOL     OW  481   1.806   1.142   1.710 -0.0624  0.9140  0.4473
  121SOL    HW1  482   1.722   1.101   1.727  0.0630  0.7814  1.3900
  121SOL    HW2  483   1.847   1.086   1.640 -0.2303  0.3158 -0.0277
  121SOL     MW  484   1.800   1.129   1.703 -0.0680  0.8176  0.5090
  122SOL     OW  485   0.141   0.599   0.795  0.0256 -0.2226  0.4594
  122SOL    HW1  486   0.208   0.573   0.731 -3.3571  0.0163 -2.5708
  122SOL    HW2  487   0.188   0.635   0.869 -0.6279  0.1844 -1.5635
  122SOL     MW  488   0.156   0.600   0.797 -0.5070 -0.1374 -0.2073
  123SOL     OW  489   1.805   1.089   0.571 -0.0790 -0.5592  0.4711
  123SOL    HW1  490   1.742   1.017   0.562 -0.4554  0.9963 -0.2435
  123SOL    HW2  491   1.824   1.097   0.666  2.5096  1.8751  2.2467
  123SOL     MW  492   1.800   1.081   0.583  0.2129 -0.0328  0.6111
  124SOL     OW  493   0.664   0.533   0.928 -0.0023 -0.3419 -0.2655
  124SOL    HW1  494   0.595   0.497   0.868 -1.0459 -0.4021 -0.9596
  124SOL    HW2  495   0.689   0.613   0.874 -0.5182 -0.0064 -0.7885
  124SOL     MW  496   0.658   0.539   0.913 -0.2080 -0.3056 -0.4261
  125SOL     OW  497   0.699   1.754   1.703 -0.0579 -0.2395  0.1901
  125SOL    HW1  498   0.635   1.680   1.685 -1.8112 -0.2868 -0.3309
  125SOL    HW2  499   0.658   1.837   1.674  0.4169 -2.8153  2.3872
  125SOL     MW  500   0.685   1.755   1.697 -0.2266 -0.5856  0.4113
  126SOL     OW  501   2.127   1.622   1.944  0.4324 -0.8230  0.0045
  126SOL    HW1  502   2.197   1.691   1.952 -0.8039  0.8339 -0.3001
  126SOL    HW2  503   2.177   1.539   1.954  1.9331 -1.0101  0.9233
  126SOL     MW  504   2.143   1.620   1.947  0.4673 -0.6291  0.0855
  127SOL     OW  505   0.687   0.761   1.870  0.3583  0.2760 -0.0879
  127SOL    HW1  506   0.752   0.687   1.894  0.6583  1.0423 -1.1155
  127SOL    HW2  507   0.697   0.817   1.945  1.6973 -0.7885  0.8787
  127SOL     MW  508   0.697   0.759   1.883  0.5745  0.2367 -0.0959
  128SOL     OW  509   1.835   0.787   2.885 -0.0590 -0.4090  0.8935
  128SOL    HW1  510   1.822   0.740   2.802  3.7723  0.9768  0.4100
  128SOL    HW2  511   1.760   0.848   2.893  0.4155 -2.7914  2.7884
  128SOL     MW  512   1.823   0.789   2.875  0.5091 -0.5405  1.0797
  129SOL     OW  513   1.617   0.929   0.176  0.8954  0.4216 -0.3478
  129SOL    HW1  514   1.549   0.865   0.170  0.1863 -0.1297 -0.3460
  129SOL    HW2  515   1.675   0.895   0.247  1.1201 -0.0283  1.7582
  129SOL     MW  516   1.616   0.916   0.184  0.8315  0.2895 -0.0697
  130SOL     OW  517   0.781   1.398   0.396 -0.3998 -0.4367 -0.2530
  130SOL    HW1  518   0.810   1.378   0.480 -3.1718 -3.1655  1.4191
  130SOL    HW2  519   0.853   1.437   0.348 -2.9689  1.1565  0.9803
  130SOL     MW  520   0.794   1.401   0.401 -1.1045 -0.5866  0.1303
  131SOL     OW  521   3.012   0.837   3.058  0.0741 -0.0030 -0.6011
  131SOL    HW1  522   3.018   0.893   2.981 -2.4140  1.6025 -0.3740
  131SOL    HW2  523   3.108   0.835   3.085 -1.7501  1.8522  1.8268
  131SOL     MW  524   3.026   0.844   3.051 -0.4948  0.4536 -0.2508
  132SOL     OW  525   2.767   0.139   1.212 -0.7094  0.5286 -0.1593
  132SOL    HW1  526   2.782   0.124   1.120 -2.9866  0.2575  1.5831
  132SOL    HW2  527   2.671   0.124   1.211  0.0268 -0.3697 -1.2513
  132SOL     MW  528   2.757   0.135   1.200 -0.9127  0.3743 -0.0735
  133SOL     OW  529   1.040   0.169   1.726 -0.6154 -0.2698 -0.0874
  133SOL    HW1  530   1.117   0.112   1.721 -0.2707  1.1343  0.1451
  133SOL    HW2  531   1.014   0.164   1.821 -1.2269  1.4945 -0.3904
  133SOL     MW  532   1.047   0.161   1.738 -0.6506  0.1482 -0.0967
  134SOL     OW  533   1.417   2.526   1.424 -0.1652 -0.2301 -0.1347
  134SOL    HW1  534   1.355   2.599   1.405 -1.3103  1.3380  0.7513
  134SOL    HW2  535   1.468   2.558   1.495  1.7043  0.8300 -1.3931
  134SOL     MW  536   1.416   2.540   1.431 -0.0696  0.1166 -0.1839
  135SOL     OW  537   3.050   1.029   2.838  0.2286 -0.5192 -0.3289
  135SOL    HW1  538   3.099   1.108   2.874  2.5210  2.7102  1.4010
  135SOL    HW2  539   2.959   1.061   2.838 -0.5906  3.6515 -0.7344
  135SOL     MW  540   3.045   1.044   2.842  0.4230  0.4572 -0.1542
  136SOL     OW  541   0.262   2.053   0.887 -0.2375 -0.1312  0.5318
  136SOL    HW1  542   0.188   1.991   0.876  2.2870  1.3591 -1.1578
  136SOL    HW2  543   0.347   2.013   0.859  2.4012  1.0736 -0.5536
  136SOL     MW  544   0.263   2.040   0.882  0.4437  0.2244  0.1657
  137SOL     OW  545   0.705   2.073   0.530 -0.6866  0.4947  0.1451
  137SOL    HW1  546   0.740   2.034   0.614 -1.1090 -1.5019 -2.4344
  137SOL    HW2  547   0.610   2.093   0.554  0.1981  0.7203 -0.5362
  137SOL     MW  548   0.697   2.070   0.544 -0.6256  0.2610 -0.2851
  138SOL     OW  549   0.510   0.524   1.150 -0.3970  0.5240 -0.8551
  138SOL    HW1  550   0.418   0.505   1.112  1.3274 -1.8333  0.6562
  138SOL    HW2  551   0.569   0.518   1.077  0.4515 -3.5406  1.2538
  138SOL     MW  552   0.506   0.521   1.135 -0.0575 -0.3233 -0.3774
  139SOL     OW  553   2.715   0.571   1.382  1.0607  0.2401 -0.0016
  139SOL    HW1  554   2.776   0.504   1.349 -2.0749  3.0574  0.7630
  139SOL    HW2  555   2.772   0.648   1.405  1.6078  0.8121 -1.7531
  139SOL     MW  556   2.731   0.572   1.381  0.7192  0.6872 -0.1318
  140SOL     OW  557   0.840   0.374   2.070 -0.5916 -0.2058 -0.0827
  140SOL    HW1  558   0.905   0.307   2.048  0.1455  0.7536 -0.1266
  140SOL    HW2  559   0.846   0.402   2.164  0.1165  0.1466 -0.3034
  140SOL     MW  560   0.849   0.369   2.080 -0.4009 -0.0327 -0.1176
  141SOL     OW  561   1.090   0.555   1.790  0.3451  0.4628 -0.2794
  141SOL    HW1  562   1.126   0.494   1.724 -3.2712 -0.2894  2.6275
  141SOL    HW2  563   1.116   0.645   1.766 -0.2161 -1.7786 -0.5400
  141SOL     MW  564   1.099   0.559   1.778 -0.2061  0.0679  0.0697
  142SOL     OW  565   0.891   1.127   0.802 -0.2623  0.2881 -0.2860
  142SOL    HW1  566   0.856   1.104   0.716  0.8354  2.3389 -0.8880
  142SOL    HW2  567   0.990   1.132   0.786  1.4316 -2.8404  0.4384
  142SOL     MW  568   0.899   1.125   0.788  0.1060  0.1459 -0.2699
  143SOL     OW  569   1.755   0.791   1.101 -0.2559 -0.1782 -0.2809
  143SOL    HW1  570   1.785   0.787   1.011 -1.8663  3.5781 -0.9101
  143SOL    HW2  571   1.660   0.792   1.099  2.5800  0.9491  0.7093
  143SOL     MW  572   1.746   0.791   1.089 -0.0942  0.4662 -0.2333
  144SOL     OW  573   0.202   1.240   1.526  0.4179  0.0154 -0.2255
  144SOL    HW1  574   0.292   1.215   1.521 -0.8616 -1.4685 -0.0355
  144SOL    HW2  575   0.184   1.264   1.619  0.7794  2.4513 -0.9940
  144SOL     MW  576   0.212   1.240   1.538  0.2968  0.1410 -0.3018
  145SOL     OW  577   0.289   0.395   1.063 -0.2006  0.0728  0.2557
  145SOL    HW1  578   0.284   0.336   1.143  0.6286  1.1446 -0.0483
  145SOL    HW2  579   0.227   0.352   0.990 -0.5060 -1.4274 -2.7900
  145SOL     MW  580   0.280   0.382   1.064 -0.1315  0.0162 -0.1862
  146SOL     OW  581   0.853   1.960   1.347  0.3363  0.0954 -0.2505
  146SOL    HW1  582   0.870   1.959   1.246 -2.0420 -1.8173  0.7262
  146SOL    HW2  583   0.755   1.961   1.362  2.4563 -1.0123 -1.5849
  146SOL     MW  584   0.843   1.960   1.336  0.3022 -0.3031 -0.2977
  147SOL     OW  585   0.382   0.396   2.996  0.0965  0.1559  0.0767
  147SOL    HW1  586   0.323   0.412   3.070  1.5392 -1.9307  3.0736
  147SOL    HW2  587   0.349   0.445   2.919 -0.5719  0.2469  2.2256
  147SOL     MW  588   0.370   0.405   2.996  0.1987 -0.1074  0.7556
  148SOL     OW  589   0.098   0.892   1.315 -0.1641  0.1445 -0.3442
  148SOL    HW1  590   0.185   0.912   1.300 -1.1551  0.1297 -0.8292
  148SOL    HW2  591   0.084   0.912   1.412  0.9469  0.7684 -0.4031
  148SOL     MW  592   0.107   0.897   1.325 -0.1483  0.2249 -0.4160
  149SOL     OW  593   1.375   1.173   1.360 -0.2953  0.6261 -0.7596
  149SOL    HW1  594   1.362   1.105   1.431  1.1650 -0.4589 -2.8333
  149SOL    HW2  595   1.433   1.242   1.393 -0.1990  2.7307 -1.7001
  149SOL     MW  596   1.381   1.173   1.374 -0.0899  0.7606 -1.1573
  150SOL     OW  597   1.862   1.384   0.733  0.3488  0.6865  0.2241
  150SOL    HW1  598   1.873   1.289   0.732 -2.5723 -1.1182 -0.3596
  150SOL    HW2  599   1.939   1.410   0.790  3.0143 -0.4439 -0.8272
  150SOL     MW  600   1.873   1.375   0.741  0.3150  0.2993  0.0084
  151SOL     OW  601   1.632   1.855   0.844 -0.2664 -0.3488  0.5647
  151SOL    HW1  602   1.617   1.848   0.748  1.5529 -2.5260  0.6307
  151SOL    HW2  603   1.605   1.779   0.884  0.0786 -2.4917 -0.4496
  151SOL     MW  604   1.626   1.844   0.837  0.0191 -0.9188  0.4396
  152SOL     OW  605   0.730   1.341   1.477  0.3337  0.3326  0.8825
  152SOL    HW1  606   0.726   1.283   1.550 -0.2866  0.6820  0.6358
  152SOL    HW2  607   0.817   1.382   1.483 -1.8317  3.6788 -1.1541
  152SOL     MW  608   0.741   1.338   1.488 -0.0339  0.8202  0.5812
  153SOL     OW  609   2.634   1.253   0.754 -0.2087  0.0336 -0.1425
  153SOL    HW1  610   2.699   1.186   0.715 -2.1225  0.0902 -1.0717
  153SOL    HW2  611   2.559   1.206   0.786  0.4046 -0.1116  0.4051
  153SOL     MW  612   2.633   1.238   0.753 -0.3803  0.0219 -0.1929
  154SOL     OW  613   0.385   1.749   1.732 -0.3045  0.2006 -0.0816
  154SOL    HW1  614   0.367   1.702   1.650 -0.0746 -2.6157  0.0218
  154SOL    HW2  615   0.367   1.687   1.801  0.0333  2.6802 -0.7560
  154SOL     MW  616   0.380   1.735   1.731 -0.2296  0.1562 -0.1570
  155SOL     OW  617   1.172   0.695   0.304  0.5061  0.6524 -0.1876
  155SOL    HW1  618   1.137   0.647   0.385 -1.0926 -0.7779  0.2160
  155SOL    HW2  619   1.133   0.779   0.301  2.1055  1.0845 -1.1130
  155SOL     MW  620   1.162   0.700   0.314  0.5062  0.5207 -0.2564
  156SOL     OW  621   1.593   3.011   1.036 -0.2958  0.3683 -0.3952
  156SOL    HW1  622   1.609   3.095   1.080 -0.9483 -0.6540 -3.2530
  156SOL    HW2  623   1.597   2.946   1.103  2.4545 -0.9129  0.1580
  156SOL     MW  624   1.595   3.013   1.051 -0.0190  0.0644 -0.6992
  157SOL     OW  625   1.422   1.140   0.123  0.5150 -0.0305  0.1054
  157SOL    HW1  626   1.460   1.070   0.165 -0.5208 -0.0037 -0.5107
  157SOL    HW2  627   1.496   1.188   0.094 -1.0766  0.9314 -2.0959
  157SOL     MW  628   1.437   1.137   0.125  0.1684  0.0999 -0.2663
  158SOL     OW  629   0.443   1.628   2.224  0.4209 -0.3127 -0.4753
  158SOL    HW1  630   0.432   1.677   2.146 -0.2792  1.2951 -0.4470
  158SOL    HW2  631   0.355   1.614   2.263 -0.0941 -0.4320  1.5339
  158SOL     MW  632   0.430   1.632   2.219  0.2606 -0.1163 -0.2064
  159SOL     OW  633   1.267   1.730   0.419 -0.6954  0.1428 -0.1739
  159SOL    HW1  634   1.249   1.649   0.369  1.4284 -1.6963 -0.4169
  159SOL    HW2  635   1.185   1.749   0.479  0.5256  2.0758  0.1528
  159SOL     MW  636   1.254   1.722   0.420 -0.2541  0.1552 -0.1629
  160SOL     OW  637   0.478   1.151   1.589  0.4862  0.0708  0.3301
  160SOL    HW1  638   0.484   1.063   1.617  0.8382  0.3881  2.2382
  160SOL    HW2  639   0.517   1.198   1.663  4.2335  2.0829  0.6839
  160SOL     MW  640   0.484   1.146   1.603  1.0271  0.3781  0.6285
  161SOL     OW  641   0.513   2.171   2.567 -0.1211 -0.1952 -0.5254
  161SOL    HW1  642   0.427   2.187   2.532  1.2950  0.0393 -1.0910
  161SOL    HW2  643   0.578   2.171   2.495 -1.6324 -0.4866 -2.1213
  161SOL     MW  644   0.510   2.173   2.553 -0.1337 -0.2027 -0.8106
  162SOL     OW  645   1.061   1.769   1.834 -0.2588 -0.2117  0.7463
  162SOL    HW1  646   1.077   1.854   1.871  1.3268  1.5555  1.0202
  162SOL    HW2  647   0.974   1.751   1.867  2.2098 -1.1777 -1.2054
  162SOL     MW  648   1.052   1.778   1.843  0.2761 -0.1060  0.5250
  163SOL     OW  649   2.101   0.071   0.985  0.0866  0.2186  0.5783
  163SOL    HW1  650   2.104   0.071   0.894 -1.5292  0.5496 -0.0835
  163SOL    HW2  651   2.022   0.025   1.005  2.7066 -1.8126 -1.1230
  163SOL     MW  652   2.091   0.065   0.975  0.2191 -0.0057  0.2665
  164SOL     OW  653   0.344   0.206   0.798  0.3325 -0.2378  0.4564
  164SOL    HW1  654   0.253   0.204   0.821  1.5774 -0.9345  1.7550
  164SOL    HW2  655   0.351   0.130   0.740  0.5920 -0.0758 -2.3156
  164SOL     MW  656   0.333   0.196   0.793  0.5310 -0.3084  0.2620
  165SOL     OW  657   1.327   1.241   0.363 -0.0903 -0.1847 -0.1621
  165SOL    HW1  658   1.293   1.171   0.415  1.7655  2.4623  0.2703
  165SOL    HW2  659   1.373   1.209   0.283  1.6818 -4.4836 -1.3298
  165SOL     MW  660   1.329   1.228   0.360  0.3884 -0.4027 -0.2591
  166SOL     OW  661   0.513   1.075   0.983  0.2870  0.4065 -0.0211
  166SOL    HW1  662   0.487   0.999   1.032  2.3811 -0.0043  2.4623
  166SOL    HW2  663   0.610   1.065   0.986 -0.3119 -0.0737  0.4246
  166SOL     MW  664   0.522   1.064   0.990  0.4843  0.2890  0.3654
  167SOL     OW  665   0.803   1.080   0.236 -0.1337 -0.6386  0.1781
  167SOL    HW1  666   0.706   1.079   0.249  3.0661 -3.5439 -0.1864
  167SOL    HW2  667   0.832   1.136   0.158  0.2630  1.4767  0.6394
  167SOL     MW  668   0.794   1.087   0.228  0.3408 -0.7429  0.1909
  168SOL     OW  669   1.646   1.670   2.931  0.1201 -0.3035  0.2351
  168SOL    HW1  670   1.558   1.640   2.947  1.4039 -1.7800 -0.3664
  168SOL    HW2  671   1.705   1.593   2.954 -1.0309  0.5579  0.0085
  168SOL     MW  672   1.643   1.656   2.936  0.1376 -0.3846  0.1258
  169SOL     OW  673   0.378   0.951   1.335  0.0996 -0.5100  0.4697
  169SOL    HW1  674   0.429   0.924   1.412  1.0422 -0.4091  2.5534
  169SOL    HW2  675   0.410   1.045   1.316  0.5976  0.2780  0.4489
  169SOL     MW  676   0.389   0.960   1.343  0.2897 -0.3927  0.7419
  170SOL     OW  677   0.988   1.446   1.495 -0.4568  0.2895 -0.4990
  170SOL    HW1  678   0.975   1.544   1.506  0.9418  0.3572  0.5325
  170SOL    HW2  679   1.034   1.440   1.403  0.4080  1.1415  1.0437
  170SOL     MW  680   0.992   1.458   1.485 -0.1582  0.4108 -0.1594
  171SOL     OW  681   0.588   1.438   0.650 -0.0896 -0.3793  0.1744
  171SOL    HW1  682   0.542   1.419   0.738 -1.7914  0.3103 -0.9199
  171SOL    HW2  683   0.574   1.356   0.601  0.0625 -0.0359  0.6351
  171SOL     MW  684   0.580   1.424   0.655 -0.2941 -0.2430  0.0908
  172SOL     OW  685   0.836   0.302   1.289 -0.1555  0.0436  0.5467
  172SOL    HW1  686   0.840   0.330   1.195 -2.3820  0.5602 -0.7057
  172SOL    HW2  687   0.742   0.320   1.314 -1.5675 -3.8608 -1.3622
  172SOL     MW  688   0.824   0.308   1.280 -0.6356 -0.4034  0.1296
  173SOL     OW  689   0.456   1.651   0.380 -0.2964  0.1133 -0.4980
  173SOL    HW1  690   0.483   1.561   0.346 -0.0146  1.4893  0.5233
  173SOL    HW2  691   0.486   1.654   0.471 -3.6966 -0.0537  1.3441
  173SOL     MW  692   0.463   1.639   0.387 -0.7079  0.2728 -0.1202
  174SOL     OW  693   1.904   0.989   1.489 -0.2261  0.3449  0.2507
  174SOL    HW1  694   1.854   0.907   1.509 -2.0232 -3.2378  0.2478
  174SOL    HW2  695   1.862   1.009   1.403 -2.0740 -1.7130  2.0993
  174SOL     MW  696   1.892   0.981   1.481 -0.7070 -0.3993  0.4942
  175SOL     OW  697   0.469   1.378   0.343  0.0942  0.3008  0.6642
  175SOL    HW1  698   0.438   1.368   0.256  0.9495  1.3409  0.2759
  175SOL    HW2  699   0.568   1.363   0.333  2.4634 -2.6267 -1.2872
  175SOL     MW  700   0.478   1.375   0.330  0.5197  0.0518  0.3555
  176SOL     OW  701   0.195   1.360   1.233  0.7137  0.2587 -0.2203
  176SOL    HW1  702   0.157   1.340   1.150 -0.1742 -0.5692  1.6706
  176SOL    HW2  703   0.159   1.303   1.306 -1.3200 -2.6148 -1.3239
  176SOL     MW  704   0.185   1.350   1.232  0.3282 -0.2296 -0.1164
  177SOL     OW  705   0.572   0.343   1.333  0.4706  0.5357  0.2111
  177SOL    HW1  706   0.550   0.422   1.269  1.2972 -0.0787 -0.7972
  177SOL    HW2  707   0.577   0.372   1.425  1.0665 -0.2066 -2.1787
  177SOL     MW  708   0.570   0.357   1.337  0.6583  0.3567 -0.2372
  178SOL     OW  709   3.060   0.399   2.887  0.3597  0.4356  0.1622
  178SOL    HW1  710   3.022   0.425   2.971  3.1229 -1.2034 -0.7284
  178SOL    HW2  711   2.977   0.372   2.842  0.4505 -0.8659 -0.8893
  178SOL     MW  712   3.044   0.399   2.892  0.7363  0.0477 -0.0941
  179SOL     OW  713   1.584   1.356   1.418 -0.0252 -0.5248 -0.4864
  179SOL    HW1  714   1.600   1.385   1.508 -1.8046  0.6674 -0.2090
  179SOL    HW2  715   1.671   1.349   1.380 -1.0254 -0.0064  1.8175
  179SOL     MW  716   1.598   1.359   1.425 -0.3920 -0.2991 -0.1458
  180SOL     OW  717   2.983   0.197   0.462  0.6548 -0.2890  0.1652
  180SOL    HW1  718   2.957   0.193   0.365  1.3252  3.6198 -1.3189
  180SOL    HW2  719   3.057   0.263   0.467 -0.9910 -0.6587  2.4360
  180SOL     MW  720   2.989   0.205   0.450  0.5261  0.1779  0.2690
  181SOL     OW  721   1.164   1.348   3.048 -0.1073 -0.5303  0.1386
  181SOL    HW1  722   1.244   1.405   3.054  2.1283 -0.1654 -1.3959
  181SOL    HW2  723   1.210   1.265   3.029 -0.2722  1.5269 -1.2881
  181SOL     MW  724   1.181   1.344   3.046  0.1659 -0.2108 -0.2521
  182SOL     OW  725   0.511   0.879   1.665  0.5165  0.2893 -0.1795
  182SOL    HW1  726   0.426   0.859   1.710 -1.3059  0.0886 -1.7821
  182SOL    HW2  727   0.563   0.819   1.714  2.0062  2.3099 -0.0043
  182SOL     MW  728   0.506   0.869   1.678  0.4726  0.5294 -0.3678
  183SOL     OW  729   1.508   1.527   1.224  0.1837  0.7868 -0.3557
  183SOL    HW1  730   1.423   1.564   1.249 -0.9784  0.3497 -1.9395
  183SOL    HW2  731   1.539   1.468   1.301  0.6487 -0.5849  2.5181
  183SOL     MW  732   1.501   1.524   1.237  0.0917  0.5481 -0.1855
  184SOL     OW  733   0.885   0.615   1.973 -0.2067  0.0635  0.4088
  184SOL    HW1  734   0.967   0.592   1.928  0.0720 -0.1649  1.2868
  184SOL    HW2  735   0.843   0.532   2.000 -1.2941 -1.9528  1.5049
  184SOL     MW  736   0.890   0.601   1.970 -0.3134 -0.2326  0.6692
  185SOL     OW  737   1.185   0.958   1.941  0.3763  0.1445  0.0756
  185SOL    HW1  738   1.247   0.897   1.984  2.3557 -0.7203 -1.1901
  185SOL    HW2  739   1.233   1.041   1.942  3.1868  2.6696 -1.6524
  185SOL     MW  740   1.200   0.961   1.947  1.0083  0.3635 -0.3194
  186SOL     OW  741   0.403   1.642   1.429 -0.6955  0.2742  0.4265
  186SOL    HW1  742   0.442   1.584   1.363 -1.2112 -2.9621  1.4562
  186SOL    HW2  743   0.320   1.670   1.385  2.5177  2.6754 -0.4666
  186SOL     MW  744   0.397   1.638   1.414 -0.3396  0.1640  0.4445
  187SOL     OW  745   1.437   0.740   1.433  0.0860 -0.4887 -0.1227
  187SOL    HW1  746   1.449   0.696   1.517 -0.3563 -0.7476 -1.0375
  187SOL    HW2  747   1.345   0.718   1.412  0.7885 -0.1571 -0.0355
  187SOL     MW  748   1.427   0.732   1.441  0.1203 -0.4791 -0.2319
  188SOL     OW  749   1.922   1.123   0.819  0.5424  0.3720  0.4868
  188SOL    HW1  750   1.911   1.127   0.910  1.3837  1.2060 -0.5556
  188SOL    HW2  751   1.993   1.061   0.808 -0.2156 -0.2685  2.1065
  188SOL     MW  752   1.930   1.116   0.830  0.5534  0.3975  0.5630
  189SOL     OW  753   0.723   0.791   0.797 -0.1491  0.4728 -0.1701
  189SOL    HW1  754   0.640   0.838   0.770 -1.3377  0.3075  4.1488
  189SOL    HW2  755   0.756   0.845   0.865  0.4417  2.0118 -0.9822
  189SOL     MW  756   0.717   0.804   0.803 -0.2280  0.6540  0.2926
  190SOL     OW  757   1.858   0.212   2.023  0.1111  0.7565  0.0465
  190SOL    HW1  758   1.798   0.154   2.074 -0.6805  1.4561  2.4979
  190SOL    HW2  759   1.936   0.162   2.013  0.1010 -0.4105 -1.8645
  190SOL     MW  760   1.860   0.198   2.029  0.0053  0.6948  0.1178
  191SOL     OW  761   1.476   0.949   1.231  0.9827 -0.6612 -0.2291
  191SOL    HW1  762   1.457   1.042   1.254  1.5240  0.2634 -2.0524
  191SOL    HW2  763   1.461   0.902   1.314 -2.9191  1.6193  0.5720
  191SOL     MW  764   1.472   0.955   1.245  0.5393 -0.2383 -0.3640
  192SOL     OW  765   0.596   2.039   2.821 -0.2381  0.4872 -0.1461
  192SOL    HW1  766   0.558   2.073   2.747  0.3628 -1.9923  2.8772
  192SOL    HW2  767   0.595   1.942   2.813  0.4089 -0.5708 -0.5637
  192SOL     MW  768   0.591   2.031   2.810 -0.0735  0.0204  0.1977
  193SOL     OW  769   1.035   1.584   0.739  0.6259 -0.0548  0.8952
  193SOL    HW1  770   0.985   1.653   0.790 -1.6948  2.9160  2.4310
  193SOL    HW2  771   0.975   1.508   0.714  2.8933 -0.5630 -1.7639
  193SOL     MW  772   1.020   1.583   0.742  0.6189  0.2701  0.7470
  194SOL     OW  773   0.493   1.355   0.916 -0.3211 -0.0667 -0.0006
  194SOL    HW1  774   0.511   1.259   0.926 -0.8846  2.6553  1.7078
  194SOL    HW2  775   0.401   1.355   0.881 -0.0596  2.9501 -0.6447
  194SOL     MW  776   0.484   1.342   0.913 -0.3610  0.6905  0.1398
  195SOL     OW  777   1.295   1.126   2.967 -0.4581  0.2770  0.4680
  195SOL    HW1  778   1.337   1.119   3.052 -0.1352  1.3112 -3.3153
  195SOL    HW2  779   1.200   1.104   2.975 -2.2961 -0.1034  3.1012
  195SOL     MW  780   1.288   1.122   2.980 -0.6580  0.3632  0.3162
  196SOL     OW  781   2.176   1.050   0.634 -0.1816  0.5641 -0.0449
  196SOL    HW1  782   2.109   1.025   0.570  0.3977  2.0134 -0.4649
  196SOL    HW2  783   2.186   1.145   0.626 -1.3436  0.3501 -1.2913
  196SOL     MW  784   2.169   1.059   0.624 -0.2585  0.7271 -0.2648
  197SOL     OW  785   0.697   1.265   2.020 -0.0488 -0.0491 -0.2588
  197SOL    HW1  786   0.692   1.171   2.012 -3.9507 -2.9456  0.3753
  197SOL    HW2  787   0.651   1.295   1.941 -1.2225  1.0556 -0.4292
  197SOL     MW  788   0.690   1.256   2.008 -0.7185 -0.2855 -0.1976
  198SOL     OW  789   2.966   1.427   1.068 -0.0027 -0.1138  0.2320
  198SOL    HW1  790   2.963   1.524   1.062  2.6094  0.5156  0.9235
  198SOL    HW2  791   2.880   1.387   1.049 -1.8421 -0.2933 -1.5726
  198SOL     MW  792   2.954   1.435   1.065  0.0993 -0.0545  0.0852
  199SOL     OW  793   0.536   1.335   1.818 -0.0469 -0.2757  0.1926
  199SOL    HW1  794   0.443   1.305   1.807 -0.6646  0.2672 -0.1044
  199SOL    HW2  795   0.561   1.400   1.748 -1.5893  2.0986  0.7189
  199SOL     MW  796   0.527   1.340   1.808 -0.3319  0.1092  0.2229
  200SOL     OW  797   1.886   3.083   1.337 -0.3645  0.3551  0.3473
  200SOL    HW1  798   1.876   3.065   1.241  2.8824 -1.5267 -2.7803
  200SOL    HW2  799   1.799   3.115   1.369  0.9185  2.4868 -0.0527
  200SOL     MW  800   1.873   3.084   1.328  0.2332  0.3880 -0.1181
  201SOL     OW  801   0.977   0.234   0.825 -0.5586 -0.1808 -0.0294
  201SOL    HW1  802   0.970   0.145   0.789  0.9794  0.5601  0.1693
  201SOL    HW2  803   1.000   0.293   0.747  1.3502  1.0560 -1.8960
  201SOL     MW  804   0.979   0.230   0.810 -0.1038  0.0801 -0.2495
  202SOL     OW  805   1.515   1.631   0.967  0.2274 -0.0464 -0.8008
  202SOL    HW1  806   1.537   1.549   0.924  2.0785  0.1358  2.7827
  202SOL    HW2  807   1.551   1.627   1.058 -0.3976 -1.2588  0.3290
  202SOL     MW  808   1.523   1.620   0.973  0.3891 -0.1824 -0.1789
  203SOL     OW  809  -0.006   0.460   1.152 -0.1110  0.6207  0.1458
  203SOL    HW1  810   0.051   0.392   1.110  0.4438 -1.4586  1.8191
  203SOL    HW2  811   0.056   0.503   1.211 -0.5301 -0.2969 -0.4453
  203SOL     MW  812   0.010   0.456   1.154 -0.0931  0.2253  0.2886
  204SOL     OW  813   1.062   1.801   0.579 -0.2248  0.0110  0.3414
  204SOL    HW1  814   1.058   1.714   0.629 -0.3042 -3.5413 -1.5519
  204SOL    HW2  815   0.984   1.814   0.520 -0.9109  2.4274 -0.1244
  204SOL     MW  816   1.051   1.791   0.578 -0.3258 -0.1389  0.0302
  205SOL     OW  817   1.355   0.105   1.341 -0.3259  0.2273  0.1884
  205SOL    HW1  818   1.276   0.079   1.292  1.8423 -0.0202 -0.9182
  205SOL    HW2  819   1.355   0.205   1.339 -0.7331 -0.1705  1.6411
  205SOL     MW  820   1.345   0.115   1.334 -0.0936  0.1422  0.2341
  206SOL     OW  821   0.420   3.060   1.404 -0.0142 -0.3963 -0.3081
  206SOL    HW1  822   0.342   3.027   1.364  2.2125 -1.2397  1.2463
  206SOL    HW2  823   0.496   2.992   1.389 -0.4814  2.9157 -0.5588
  206SOL     MW  824   0.420   3.047   1.397  0.2179 -0.0706 -0.1361
  207SOL     OW  825   0.964   1.518   0.215  0.2644 -0.3851 -0.1642
  207SOL    HW1  826   0.954   1.612   0.212 -1.5820  0.0074  0.7269
  207SOL    HW2  827   1.057   1.502   0.221  3.0656  2.6590  1.1002
  207SOL     MW  828   0.975   1.528   0.216  0.3903  0.0683  0.1202
  208SOL     OW  829   0.673   1.622   1.334  0.2000  0.2120 -0.3456
  208SOL    HW1  830   0.720   1.641   1.417 -1.1469 -0.3008 -0.4660
  208SOL    HW2  831   0.722   1.550   1.292  0.4272 -1.0007 -0.7631
  208SOL     MW  832   0.686   1.615   1.340  0.0522 -0.0157 -0.4166
  209SOL     OW  833   1.585   0.530   2.878  0.0712 -0.4894  0.3018
  209SOL    HW1  834   1.636   0.588   2.933  0.0250 -0.4437  2.5006
  209SOL    HW2  835   1.637   0.449   2.864 -1.0251  4.2710 -0.7970
  209SOL     MW  836   1.599   0.527   2.884 -0.0796  0.1447  0.4470
  210SOL     OW  837   1.595   1.398   0.829 -0.7852 -0.3761  0.2239
  210SOL    HW1  838   1.688   1.396   0.799  1.1778 -1.8677 -0.2630
  210SOL    HW2  839   1.542   1.381   0.752  0.5888  1.1853 -2.5199
  210SOL     MW  840   1.600   1.395   0.815 -0.3449 -0.3669 -0.2024
  211SOL     OW  841   1.642   0.402   0.973 -0.0416 -0.1323  0.1992
  211SOL    HW1  842   1.629   0.389   0.875 -1.7992 -1.5088 -1.8740
  211SOL    HW2  843   1.735   0.433   0.984 -1.1414  0.4060 -1.5436
  211SOL     MW  844   1.653   0.404   0.961 -0.4186 -0.2429 -0.3043
  212SOL     OW  845   0.223   1.124   0.114 -0.6762 -0.1382 -0.4110
  212SOL    HW1  846   0.172   1.083   0.186 -0.9419 -1.2694  0.7998
  212SOL    HW2  847   0.236   1.054   0.050 -0.5746  0.2090 -0.7776
  212SOL     MW  848   0.218   1.109   0.115 -0.6979 -0.2416 -0.2996
  213SOL     OW  849   0.432   1.721   3.025 -0.2558 -0.8227  0.1381
  213SOL    HW1  850   0.454   1.749   3.117 -1.2859  0.6413  0.0261
  213SOL    HW2  851   0.497   1.770   2.968  2.8516  0.2092 -0.4620
  213SOL     MW  852   0.444   1.731   3.030  0.0183 -0.4934  0.0442
  214SOL     OW  853   0.601   0.293   2.224 -0.0363 -0.4669  0.2062
  214SOL    HW1  854   0.550   0.372   2.203  0.3187  1.5589  0.0332
  214SOL    HW2  855   0.668   0.284   2.148  3.6788  0.9512 -1.8005
  214SOL     MW  856   0.603   0.302   2.211  0.5007 -0.0125 -0.0814
  215SOL     OW  857   0.493   0.649   2.651  0.4171  0.0697  0.5272
  215SOL    HW1  858   0.477   0.622   2.563 -0.0477  0.2556  2.1499
  215SOL    HW2  859   0.419   0.622   2.701 -0.6189 -1.9211 -2.5164
  215SOL     MW  860   0.481   0.642   2.646  0.2191 -0.1685  0.3397
  216SOL     OW  861   3.012   3.086   2.659 -0.8558 -0.3216 -0.4972
  216SOL    HW1  862   2.989   3.062   2.750 -1.2321 -2.4300  0.0989
  216SOL    HW2  863   2.995   3.182   2.645 -0.3948  3.6667 -0.0278
  216SOL     MW  864   3.007   3.095   2.670 -0.8446 -0.0736 -0.3566
  217SOL     OW  865   0.907   1.226   0.035  0.1222 -0.3776  0.3242
  217SOL    HW1  866   0.959   1.156  -0.001 -2.2231  0.4659  0.4207
  217SOL    HW2  867   0.971   1.286   0.069 -0.6729  0.3276 -4.2137
  217SOL     MW  868   0.922   1.224   0.035 -0.2922 -0.1733 -0.2618
  218SOL     OW  869   0.896   1.307   2.551  0.4241  0.1862 -0.0072
  218SOL    HW1  870   0.915   1.232   2.605 -2.8159 -0.6483 -0.3170
  218SOL    HW2  871   0.972   1.367   2.540 -1.2250 -0.4823  0.3146
  218SOL     MW  872   0.909   1.305   2.557 -0.2210 -0.0121 -0.0056
  219SOL     OW  873   1.086   0.485   2.583 -0.0456  0.2331  0.5839
  219SOL    HW1  874   1.164   0.536   2.603 -0.5929  1.1136  2.0477
  219SOL    HW2  875   1.039   0.547   2.529  1.2536  1.0419 -1.2443
  219SOL     MW  876   1.091   0.500   2.579  0.0536  0.4560  0.5358
  220SOL     OW  877   1.799   0.426   2.208  0.3375  0.3878  0.4811
  220SOL    HW1  878   1.745   0.471   2.141  0.5077  0.4392  0.4029
  220SOL    HW2  879   1.851   0.368   2.156 -3.0924  2.3863 -2.4151
  220SOL     MW  880   1.798   0.424   2.192 -0.0926  0.6583  0.0887
  221SOL     OW  881   0.379   1.359   2.902  0.0092  0.0786 -0.2144
  221SOL    HW1  882   0.418   1.266   2.902 -1.8591 -1.6543  3.5108
  221SOL    HW2  883   0.412   1.406   2.826 -0.4128  1.0199  1.1621
  221SOL     MW  884   0.388   1.353   2.892 -0.2930 -0.0258  0.4588
  222SOL     OW  885   0.321   0.900   2.652  0.2629  0.2003  0.3120
  222SOL    HW1  886   0.312   0.932   2.564  0.1113  0.5178  3.3076
  222SOL    HW2  887   0.386   0.830   2.648  0.7114  0.7183  1.7824
  222SOL     MW  888   0.329   0.895   2.640  0.3021  0.3105  0.9012
  223SOL     OW  889   0.047   2.076   2.614 -0.1718 -0.5414  0.1415
  223SOL    HW1  890   0.082   1.985   2.636 -0.3245 -0.0891  2.5152
  223SOL    HW2  891   0.108   2.136   2.571 -1.9353  1.8623  1.3179
  223SOL     MW  892   0.060   2.072   2.611 -0.4246 -0.1646  0.6099
  224SOL     OW  893   1.512   0.798   2.616  0.3043  0.4184 -0.0259
  224SOL    HW1  894   1.518   0.851   2.699 -0.6881  0.5315  3.2189
  224SOL    HW2  895   1.498   0.862   2.548  1.0438  2.6587  0.0443
  224SOL     MW  896   1.511   0.813   2.618  0.2709  0.7289  0.4115
  225SOL     OW  897   2.980   1.516   2.319 -0.4203 -0.2399  0.1137
  225SOL    HW1  898   3.023   1.594   2.286  0.7925 -2.7182 -2.3836
  225SOL    HW2  899   2.907   1.545   2.378  0.9119  1.6613  0.7567
  225SOL     MW  900   2.976   1.530   2.322 -0.0845 -0.3160 -0.1310
  226SOL     OW  901   0.450   1.418   2.617  0.6246  0.1154  0.3574
  226SOL    HW1  902   0.540   1.437   2.583  3.8042  0.9521 -0.6823
  226SOL    HW2  903   0.408   1.502   2.592  2.5959 -0.4366 -0.0863
  226SOL     MW  904   0.456   1.432   2.609  1.3042  0.1529  0.1617
  227SOL     OW  905   0.429   1.080   2.851 -0.1845  0.0245  0.0268
  227SOL    HW1  906   0.512   1.125   2.811 -0.5426  0.9822  1.4173
  227SOL    HW2  907   0.401   1.020   2.787 -0.7378  0.1027  5.0876
  227SOL     MW  908   0.437   1.078   2.837 -0.3047  0.1612  0.8780
  228SOL     OW  909   0.726   0.985   2.048  0.6950 -0.0792  0.3036
  228SOL    HW1  910   0.806   1.010   2.005 -2.1274  0.3508  0.6500
  228SOL    HW2  911   0.738   0.936   2.130  2.1077 -1.0344  1.0153
  228SOL     MW  912   0.739   0.982   2.053  0.5090 -0.1485  0.4432
  229SOL     OW  913   0.142   0.582   0.009  0.1301  0.0702  0.7476
  229SOL    HW1  914   0.061   0.556  -0.037  2.2939 -1.6333  1.4917
  229SOL    HW2  915   0.156   0.509   0.068 -1.7671 -0.2616 -3.0962
  229SOL     MW  916   0.133   0.569   0.011  0.1653 -0.1983  0.3386
  230SOL     OW  917   1.762   1.408   2.026 -0.1727 -0.5820  0.0805
  230SOL    HW1  918   1.718   1.384   2.107  1.3840 -0.2321  1.2372
  230SOL    HW2  919   1.828   1.340   2.011  0.4946  0.0721 -2.1817
  230SOL     MW  920   1.765   1.395   2.035  0.1207 -0.4496 -0.0653
  231SOL     OW  921   2.758   1.335   2.235  0.1777  0.0513  0.0772
  231SOL    HW1  922   2.844   1.379   2.227  0.3381 -3.1211 -1.3558
  231SOL    HW2  923   2.702   1.361   2.159 -0.8094  0.6364 -2.0598
  231SOL     MW  924   2.762   1.344   2.224  0.0686 -0.2901 -0.3938
  232SOL     OW  925   2.255   0.816   2.149 -0.1601 -0.4276 -0.6633
  232SOL    HW1  926   2.188   0.859   2.100  2.3606 -2.3126 -0.8435
  232SOL    HW2  927   2.225   0.845   2.238 -0.6859 -1.4450 -1.0212
  232SOL     MW  928   2.242   0.826   2.154  0.1031 -0.8105 -0.7343
  233SOL     OW  929   2.056   0.504   1.974  0.2433 -0.7678 -0.1604
  233SOL    HW1  930   2.064   0.413   1.938  0.0182 -1.6670 -1.0504
  233SOL    HW2  931   2.100   0.517   2.057 -0.2168  2.0428 -1.7278
  233SOL     MW  932   2.063   0.493   1.980  0.1529 -0.5156 -0.4846
  234SOL     OW  933   0.273   1.004   2.383  0.0829 -0.1985  0.5747
  234SOL    HW1  934   0.186   1.036   2.358 -1.3064  1.0822 -0.5644
  234SOL    HW2  935   0.333   1.080   2.412  2.3916 -0.4036 -0.5519
  234SOL     MW  936   0.269   1.019   2.383  0.2042 -0.0566  0.2758
  235SOL     OW  937   1.145   3.075   2.716  0.4996  0.2273  0.2030
  235SOL    HW1  938   1.163   3.021   2.792  2.4858 -0.6603  1.7286
  235SOL    HW2  939   1.100   3.160   2.747  0.7415  1.0482  2.3965
  235SOL     MW  940   1.142   3.079   2.730  0.7936  0.2185  0.6937
  236SOL     OW  941   2.938   0.517   0.008  0.3164 -0.0059 -0.1092
  236SOL    HW1  942   2.843   0.523  -0.025 -1.4138 -0.2624  0.3990
  236SOL    HW2  943   2.963   0.609   0.020 -0.7215 -0.3963 -0.6232
  236SOL     MW  944   2.929   0.530   0.005 -0.0488 -0.0912 -0.1100
  237SOL     OW  945   1.922   1.014   2.179  0.5047  0.4271  0.6080
  237SOL    HW1  946   1.908   1.079   2.110  0.7623  1.5324 -1.8394
  237SOL    HW2  947   1.878   1.061   2.249 -1.5063  3.2222 -1.3717
  237SOL     MW  948   1.915   1.028   2.179  0.2734  0.9417  0.0238
  238SOL     OW  949   1.085   1.781   3.025  0.0186 -0.0993 -0.2261
  238SOL    HW1  950   1.020   1.704   3.009  1.5033 -1.2721 -1.1916
  238SOL    HW2  951   1.176   1.753   3.010  0.4810 -0.4493 -2.4098
  238SOL     MW  952   1.089   1.767   3.021  0.2755 -0.3002 -0.6416
  239SOL     OW  953   1.273   1.375   2.354 -0.1650 -0.3970  0.1165
  239SOL    HW1  954   1.250   1.446   2.417  0.9651  2.0643  1.5047
  239SOL    HW2  955   1.253   1.290   2.407  0.6360 -3.1021  0.7720
  239SOL     MW  956   1.267   1.373   2.369  0.0898 -0.4291  0.3862
  240SOL     OW  957   0.739   0.821   2.264 -0.4053 -0.4676 -0.0025
  240SOL    HW1  958   0.745   0.887   2.336  0.3911 -1.2436 -0.3972
  240SOL    HW2  959   0.833   0.789   2.242  0.4967 -1.8514  1.5589
  240SOL     MW  960   0.752   0.826   2.270 -0.1812 -0.7526  0.1514
  241SOL     OW  961   0.664   0.357   0.011 -0.0821  0.0134  0.5757
  241SOL    HW1  962   0.691   0.447   0.031 -0.9786 -0.9095  0.7016
  241SOL    HW2  963   0.569   0.367  -0.007 -1.1222 -1.2354  1.1594
  241SOL     MW  964   0.655   0.371   0.011 -0.3376 -0.2731  0.6693
  242SOL     OW  965   1.499   1.681   2.318 -0.4020  0.1069  0.1284
  242SOL    HW1  966   1.456   1.768   2.345  1.8508  0.8647  2.0489
  242SOL    HW2  967   1.434   1.630   2.266  0.3366  0.4228  1.1715
  242SOL     MW  968   1.485   1.685   2.315 -0.0073  0.2485  0.5194
  243SOL     OW  969   1.029   0.248   2.428 -0.0436 -0.0076  0.1645
  243SOL    HW1  970   1.117   0.223   2.409  1.0039 -0.2596 -0.4522
  243SOL    HW2  971   1.042   0.303   2.504  2.1378  0.3144 -0.9672
  243SOL     MW  972   1.042   0.252   2.436  0.3824  0.0016 -0.0662
  244SOL     OW  973   0.253   0.738   2.387 -0.1413 -0.1060 -0.5673
  244SOL    HW1  974   0.257   0.834   2.368 -3.2900  1.1260  1.3987
  244SOL    HW2  975   0.348   0.715   2.388 -1.4825 -0.6154 -0.4336
  244SOL     MW  976   0.266   0.748   2.384 -0.7337 -0.0107 -0.2902
  245SOL     OW  977   1.287   0.237   2.325 -0.0006  0.0589 -0.2777
  245SOL    HW1  978   1.345   0.167   2.309 -0.7854  1.9844  1.4469
  245SOL    HW2  979   1.346   0.296   2.367  0.8611 -0.5787 -0.0840
  245SOL     MW  980   1.303   0.236   2.329  0.0095  0.2288 -0.0246
  246SOL     OW  981   1.180   1.227   2.144 -0.1268  0.1877 -0.1191
  246SOL    HW1  982   1.131   1.152   2.181 -0.1900 -1.1370  0.0439
  246SOL    HW2  983   1.224   1.269   2.225 -1.5682  1.7586 -0.8570
  246SOL     MW  984   1.179   1.222   2.159 -0.3253  0.2202 -0.1950
  247SOL     OW  985   0.773   0.596   0.115  0.2672  0.0858 -0.1105
  247SOL    HW1  986   0.732   0.680   0.089 -1.9541  0.6156 -0.4967
  247SOL    HW2  987   0.864   0.606   0.091  2.4670 -0.1712 -0.5593
  247SOL     MW  988   0.779   0.608   0.109  0.2643  0.1218 -0.2207
  248SOL     OW  989   0.468   1.193   2.451  0.3757  0.5800 -0.7952
  248SOL    HW1  990   0.474   1.250   2.373 -1.4366  0.3549  1.7763
  248SOL    HW2  991   0.460   1.254   2.525 -1.7818  0.8434 -0.9768
  248SOL     MW  992   0.468   1.209   2.451 -0.1481  0.5850 -0.4799
  249SOL     OW  993   0.147   1.829   2.693 -0.8498  0.3432 -0.2854
  249SOL    HW1  994   0.112   1.752   2.634 -1.1563  1.5895  2.3773
  249SOL    HW2  995   0.135   1.804   2.788 -1.3639  0.9804  1.4350
  249SOL     MW  996   0.141   1.815   2.698 -0.9581  0.5917  0.2929
  250SOL     OW  997   2.190   0.864   2.423  0.2030 -0.2472 -0.2588
  250SOL    HW1  998   2.225   0.771   2.438  0.4520 -1.2973 -1.6496
  250SOL    HW2  999   2.200   0.913   2.504  1.4291 -1.6161  2.2358
  250SOL     MW 1000   2.196   0.858   2.435  0.3976 -0.5664 -0.1132
  251SOL     OW 1001   0.171   0.928   2.053 -0.4092  1.0514  0.2205
  251SOL    HW1 1002   0.136   0.870   2.123  1.1061  2.0402 -0.3890
  251SOL    HW2 1003   0.176   0.878   1.968 -0.0883  3.5736 -4.8229
  251SOL     MW 1004   0.167   0.914   2.051 -0.1669  1.5147 -0.5254
  252SOL     OW 1005   1.680   1.003   2.913  0.2050 -0.1954 -0.4814
  252SOL    HW1 1006   1.708   1.062   2.989 -1.4101  1.3861  0.3647
  252SOL    HW2 1007   1.749   1.014   2.847  0.5395 -1.4722  0.2220
  252SOL     MW 1008   1.693   1.012   2.914  0.0360 -0.1552 -0.2770
  253SOL     OW 1009   1.170   1.772   2.564 -0.0210  0.6312 -0.0630
  253SOL    HW1 1010   1.168   1.773   2.467  1.6934 -3.0120 -2.4741
  253SOL    HW2 1011   1.097   1.819   2.592  1.3380 -2.1326  0.1598
  253SOL     MW 1012   1.160   1.778   2.555  0.3845 -0.2141 -0.3517
  254SOL     OW 1013   1.030   1.049   2.258 -0.2322 -0.0632  0.3803
  254SOL    HW1 1014   1.012   0.953   2.244  0.8158 -0.6223  0.8524
  254SOL    HW2 1015   0.939   1.085   2.265  2.2025  0.1108  0.0924
  254SOL     MW 1016   1.016   1.041   2.257  0.2273 -0.1140  0.4046
  255SOL     OW 1017   0.833   2.547   2.206  0.0188  0.3105 -0.4657
  255SOL    HW1 1018   0.770   2.487   2.246 -1.4049 -0.0410 -2.1538
  255SOL    HW2 1019   0.907   2.555   2.263  0.7563  0.4442 -2.5198
  255SOL     MW 1020   0.834   2.540   2.219 -0.0717  0.2817 -0.9595
  256SOL     OW 1021   1.211   2.824   2.834  0.5264 -0.2480 -0.2957
  256SOL    HW1 1022   1.159   2.746   2.808 -1.0013 -2.8283 -1.9625
  256SOL    HW2 1023   1.307   2.816   2.808  1.0518 -4.1503 -1.1257
  256SOL     MW 1024   1.217   2.813   2.827  0.3942 -1.1033 -0.6251
  257SOL     OW 1025   0.115   1.925   0.099  0.0487  0.2895  0.2493
  257SOL    HW1 1026   0.179   1.913   0.171 -1.0914  1.1669 -0.6369
  257SOL    HW2 1027   0.134   1.861   0.029 -1.8876 -0.6428 -0.7125
  257SOL     MW 1028   0.126   1.915   0.099 -0.3572  0.2823  0.0055
  258SOL     OW 1029   0.716   1.010   2.439 -0.0667  0.6164  0.5499
  258SOL    HW1 1030   0.744   1.081   2.383 -0.2902  1.4868 -0.1961
  258SOL    HW2 1031   0.627   1.036   2.468  0.8810 -2.5426 -2.2622
  258SOL     MW 1032   0.708   1.023   2.435  0.0288  0.3144  0.0804
  259SOL     OW 1033   0.737   0.497   2.343 -0.2938 -0.2957  0.3676
  259SOL    HW1 1034   0.665   0.557   2.367  2.0251 -0.8819  0.3442
  259SOL    HW2 1035   0.699   0.416   2.304 -0.1478  1.1104 -0.7516
  259SOL     MW 1036   0.723   0.494   2.341  0.0314 -0.1875  0.2168
  260SOL     OW 1037   0.578   0.147   1.577 -0.4730 -0.5624  0.4858
  260SOL    HW1 1038   0.544   0.102   1.497  0.5076 -0.9519  0.0860
  260SOL    HW2 1039   0.677   0.130   1.580  2.2922  2.9882  0.5677
  260SOL     MW 1040   0.586   0.139   1.567  0.0212 -0.1453  0.4439
  261SOL     OW 1041   1.256   0.713   2.016  0.5856  0.5422 -0.1427
  261SOL    HW1 1042   1.263   0.712   2.113 -0.5902  1.5828 -0.9579
  261SOL    HW2 1043   1.276   0.625   1.975 -0.5660  0.4776 -1.7410
  261SOL     MW 1044   1.260   0.701   2.024  0.2785  0.6710 -0.4611
  262SOL     OW 1045   1.128   0.273   0.145 -0.4282  0.2612  0.2443
  262SOL    HW1 1046   1.221   0.255   0.133 -1.1344 -2.0075 -0.4652
  262SOL    HW2 1047   1.078   0.214   0.096 -1.0288  1.9740  2.0236
  262SOL     MW 1048   1.134   0.263   0.137 -0.6007  0.1879  0.3855
  263SOL     OW 1049   0.432   3.044   2.516  0.5306 -0.7043  0.8821
  263SOL    HW1 1050   0.370   3.110   2.548  1.6599 -0.9009  1.2901
  263SOL    HW2 1051   0.468   3.088   2.437  0.8269  1.0207  3.4671
  263SOL     MW 1052   0.428   3.058   2.510  0.7187 -0.5026  1.2770
  264SOL     OW 1053   1.523   1.311   1.924  0.3235 -0.5283  0.6175
  264SOL    HW1 1054   1.466   1.288   2.000 -1.6445  3.0882  1.5074
  264SOL    HW2 1055   1.609   1.339   1.958 -0.1837 -3.0515 -0.5675
  264SOL     MW 1056   1.527   1.312   1.939 -0.0031 -0.3841  0.5786
  265SOL     OW 1057   0.687   2.774   2.248 -0.2521  0.1270  0.5434
  265SOL    HW1 1058   0.730   2.710   2.196  0.8832  1.7167 -1.1238
  265SOL    HW2 1059   0.717   2.762   2.341  0.5715 -0.6748 -3.1554
  265SOL     MW 1060   0.696   2.764   2.254  0.0063  0.2310 -0.1646
  266SOL     OW 1061   0.991   0.786   2.195  0.6356 -0.7974  0.5542
  266SOL    HW1 1062   0.985   0.760   2.100 -0.4717  1.1067 -2.0301
  266SOL    HW2 1063   1.066   0.753   2.236 -0.3331  0.9280  0.0709
  266SOL     MW 1064   1.000   0.778   2.187  0.3617 -0.3185  0.1495
  267SOL     OW 1065   1.375   1.655   2.721  0.0305  0.0479  0.3713
  267SOL    HW1 1066   1.455   1.645   2.667 -1.7566  1.1175  1.0491
  267SOL    HW2 1067   1.305   1.693   2.662  1.6229  2.8881 -1.5535
  267SOL     MW 1068   1.376   1.659   2.706  0.0048  0.5637  0.2068
  268SOL     OW 1069   0.273   0.820   1.779  0.0708  0.5606 -0.8897
  268SOL    HW1 1070   0.223   0.845   1.695 -2.2805  0.8904 -0.7141
  268SOL    HW2 1071   0.273   0.724   1.771  1.0282 -0.7412  0.0702
  268SOL     MW 1072   0.267   0.810   1.767 -0.1131  0.4324 -0.7399
  269SOL     OW 1073   1.393   1.938   2.364  0.2024  0.1930  0.0391
  269SOL    HW1 1074   1.439   2.017   2.338  0.0927  0.3097 -1.6751
  269SOL    HW2 1075   1.349   1.959   2.440  0.7558 -0.3289 -2.8730
  269SOL     MW 1076   1.393   1.951   2.371  0.2609  0.1395 -0.5713
  270SOL     OW 1077   1.180   0.378   1.607  0.3243  0.1030 -0.3620
  270SOL    HW1 1078   1.150   0.300   1.661  0.5146  1.0433  1.1420
  270SOL    HW2 1079   1.278   0.361   1.601 -0.0845 -0.8165 -3.2223
  270SOL     MW 1080   1.189   0.365   1.614  0.2955  0.1057 -0.5409
  271SOL     OW 1081   0.901   3.097   2.489 -0.1085  0.2230  0.4148
  271SOL    HW1 1082   0.966   3.028   2.507  0.5327 -2.3797 -1.0376
  271SOL    HW2 1083   0.940   3.187   2.466 -1.5355 -0.7442  1.6647
  271SOL     MW 1084   0.914   3.100   2.488 -0.2121 -0.2480  0.3881
  272SOL     OW 1085   1.476   2.883   2.777 -0.4362 -0.1077  0.3356
  272SOL    HW1 1086   1.455   2.958   2.719 -0.0533 -2.9028  0.3830
  272SOL    HW2 1087   1.508   2.935   2.858 -0.0610  1.7445 -0.1064
  272SOL     MW 1088   1.477   2.900   2.780 -0.3362 -0.2321  0.2835
  273SOL     OW 1089   1.433   0.888   2.875  0.3563  0.1111 -0.2307
  273SOL    HW1 1090   1.520   0.919   2.900 -0.9176 -1.4851 -1.5377
  273SOL    HW2 1091   1.378   0.963   2.867  1.4767  1.5081  0.0311
  273SOL     MW 1092   1.438   0.902   2.877  0.3361  0.0848 -0.3686
  274SOL     OW 1093   1.426   0.759   0.203  0.2434 -0.1293  0.1689
  274SOL    HW1 1094   1.477   0.676   0.205 -1.1175  1.5385 -0.2945
  274SOL    HW2 1095   1.336   0.725   0.229 -1.5989  0.0759  0.0001
  274SOL     MW 1096   1.421   0.743   0.207 -0.1792  0.1178  0.0855
  275SOL     OW 1097   1.687   0.643   1.784  0.0556  0.0058 -0.3206
  275SOL    HW1 1098   1.720   0.690   1.856 -1.3399 -0.8347  0.3177
  275SOL    HW2 1099   1.738   0.559   1.793  0.9844 -1.2062 -0.2325
  275SOL     MW 1100   1.698   0.638   1.795 -0.0060 -0.2650 -0.2248
  276SOL     OW 1101   0.271   1.230   1.803  0.5518 -0.2779  0.1176
  276SOL    HW1 1102   0.298   1.172   1.876  0.3541  0.1558 -0.2245
  276SOL    HW2 1103   0.204   1.296   1.834  0.9737 -0.6841 -0.6391
  276SOL     MW 1104   0.265   1.231   1.816  0.5814 -0.2743 -0.0273
  277SOL     OW 1105   1.879   1.279   2.502 -0.3660  0.0155 -0.9129
  277SOL    HW1 1106   1.958   1.337   2.513  2.2621  1.8475 -0.7166
  277SOL    HW2 1107   1.885   1.219   2.575 -1.1981  0.1754 -0.5332
  277SOL     MW 1108   1.890   1.279   2.513 -0.1291  0.2783 -0.8369
  278SOL     OW 1109   1.431   0.634   1.713  0.4301 -0.3596 -0.2583
  278SOL    HW1 1110   1.388   0.579   1.786 -0.1979  0.6774  3.3217
  278SOL    HW2 1111   1.520   0.652   1.743  1.1689  0.1817 -0.1499
  278SOL     MW 1112   1.437   0.629   1.727  0.4448 -0.1513  0.2283
  279SOL     OW 1113   0.510   0.027   2.260  0.2018  0.2071 -0.5400
  279SOL    HW1 1114   0.601   0.001   2.240  1.5312  0.7576  0.8349
  279SOL    HW2 1115   0.502   0.118   2.226  0.1941  1.3510 -1.4947
  279SOL     MW 1116   0.521   0.036   2.253  0.3761  0.4307 -0.4846
  280SOL     OW 1117   1.512   1.082   2.167 -0.6126 -0.4205  0.0791
  280SOL    HW1 1118   1.563   1.024   2.109 -0.1873  1.7991 -1.0123
  280SOL    HW2 1119   1.503   1.037   2.252  0.3512 -1.3108  0.4042
  280SOL     MW 1120   1.518   1.069   2.171 -0.4293 -0.2451 -0.0220
  281SOL     OW 1121   1.300   1.274   2.735 -0.1405 -0.0381 -0.0112
  281SOL    HW1 1122   1.385   1.323   2.718 -1.0143 -1.0714 -0.8579
  281SOL    HW2 1123   1.304   1.245   2.827 -1.6798  3.6114 -1.1583
  281SOL     MW 1124   1.312   1.277   2.745 -0.4589  0.3071 -0.2742
  282SOL     OW 1125   1.126   1.297   1.666  0.2519 -0.0690 -0.0477
  282SOL    HW1 1126   1.084   1.350   1.595  1.0414 -4.3841  1.9269
  282SOL    HW2 1127   1.058   1.300   1.735 -2.2858  0.8636 -2.3101
  282SOL     MW 1128   1.111   1.305   1.666  0.0212 -0.5153 -0.0856
  283SOL     OW 1129   0.649   1.301   3.061 -0.3107 -0.8489 -0.4913
  283SOL    HW1 1130   0.744   1.293   3.079  0.9533 -0.0603 -3.5579
  283SOL    HW2 1131   0.631   1.396   3.067  2.4555  3.2273  0.6154
  283SOL     MW 1132   0.659   1.312   3.064  0.2211 -0.2070 -0.7499
  284SOL     OW 1133   0.532   0.661   2.367  0.6787  0.0678  0.2881
  284SOL    HW1 1134   0.593   0.728   2.327  1.7275  0.0838 -0.9537
  284SOL    HW2 1135   0.500   0.614   2.283  0.6450 -1.4814 -0.3116
  284SOL     MW 1136   0.536   0.664   2.351  0.8126 -0.1345  0.0451
  285SOL     OW 1137   0.860   0.943   2.847  0.0202 -0.2256 -0.2010
  285SOL    HW1 1138   0.896   0.978   2.759 -3.7443  0.1927 -1.7243
  285SOL    HW2 1139   0.840   0.852   2.819  0.2536  0.3830  0.1221
  285SOL     MW 1140   0.862   0.935   2.832 -0.4457 -0.0901 -0.3593
  286SOL     OW 1141   1.106   1.489   2.583  0.6659  0.3755 -0.2413
  286SOL    HW1 1142   1.131   1.444   2.666  2.1072 -1.6822 -0.8561
  286SOL    HW2 1143   1.115   1.582   2.596  1.2426 -0.6463 -0.1838
  286SOL     MW 1144   1.111   1.495   2.596  0.9322 -0.0308 -0.3148
  287SOL     OW 1145   1.045   0.953   0.295 -0.0363  0.0325 -0.4938
  287SOL    HW1 1146   1.070   1.000   0.379  2.2297  0.2217 -0.2094
  287SOL    HW2 1147   0.959   0.986   0.270  1.9811 -0.0394 -0.3992
  287SOL     MW 1148   1.037   0.964   0.303  0.5289  0.0480 -0.4438
  288SOL     OW 1149   1.600   0.634   2.119 -0.0058  0.3227 -0.1089
  288SOL    HW1 1150   1.557   0.642   2.206 -1.4067 -1.2458 -0.6151
  288SOL    HW2 1151   1.627   0.726   2.099  1.6027  0.0663 -1.9272
  288SOL     MW 1152   1.598   0.647   2.128  0.0216  0.0819 -0.4156
  289SOL     OW 1153   0.964   1.029   2.605  0.1933 -0.4927 -0.9042
  289SOL    HW1 1154   1.042   0.969   2.589 -2.1321  0.2361  1.7629
  289SOL    HW2 1155   0.896   1.002   2.544 -1.8718 -0.1512 -0.2141
  289SOL     MW 1156   0.965   1.017   2.595 -0.3860 -0.3515 -0.4613
  290SOL     OW 1157   0.878   0.545   1.577  0.0450  0.2516 -0.1611
  290SOL    HW1 1158   0.931   0.495   1.517 -0.1999 -1.5029  0.2499
  290SOL    HW2 1159   0.933   0.556   1.651 -0.7294 -0.1098  0.4256
  290SOL     MW 1160   0.892   0.540   1.579 -0.0895 -0.0276 -0.0295
  291SOL     OW 1161   0.166   0.332   0.148 -0.1476  0.4112 -0.2560
  291SOL    HW1 1162   0.241   0.273   0.166 -2.2487  0.5396 -1.3095
  291SOL    HW2 1163   0.110   0.284   0.081 -0.0427  1.4816  2.9355
  291SOL     MW 1164   0.169   0.318   0.142 -0.4109  0.5694  0.0261
  292SOL     OW 1165   1.050   0.555   0.086 -0.2006 -0.1437  0.2443
  292SOL    HW1 1166   1.107   0.610   0.144  3.3432 -0.0264  0.0133
  292SOL    HW2 1167   1.068   0.458   0.096 -1.2572  0.0985 -1.1057
  292SOL     MW 1168   1.060   0.549   0.095  0.1275 -0.0963  0.0357
  293SOL     OW 1169   0.242   0.146   2.448  0.2450  0.0785 -0.3086
  293SOL    HW1 1170   0.162   0.093   2.422  1.3515 -0.6961 -4.8816
  293SOL    HW2 1171   0.212   0.205   2.516 -1.3419 -1.3532 -1.2058
  293SOL     MW 1172   0.227   0.147   2.454  0.1816 -0.2126 -1.0303
  294SOL     OW 1173   1.499   0.623   2.395  0.0406 -0.6138  0.2964
  294SOL    HW1 1174   1.552   0.671   2.456 -0.7325  0.0942  0.9078
  294SOL    HW2 1175   1.503   0.536   2.428 -1.0759  4.1772  0.0968
  294SOL     MW 1176   1.507   0.618   2.407 -0.2087  0.1117  0.3507
  295SOL     OW 1177   0.907   0.676   2.511 -0.6406 -0.3676  0.2432
  295SOL    HW1 1178   0.839   0.615   2.475  2.6718  2.4690  1.5650
  295SOL    HW2 1179   0.909   0.670   2.608  1.3219 -2.3373 -0.6981
  295SOL     MW 1180   0.898   0.667   2.519  0.0554 -0.2532  0.2934
  296SOL     OW 1181   1.261   0.284   2.059  0.0419  0.4016  0.1239
  296SOL    HW1 1182   1.327   0.208   2.054  2.2283 -0.9973  0.4905
  296SOL    HW2 1183   1.265   0.295   2.157 -1.5413  0.5189  0.0483
  296SOL     MW 1184   1.270   0.275   2.072  0.1215  0.2325  0.1623
  297SOL     OW 1185   1.481   0.354   1.604  0.1992 -0.3669 -0.0273
  297SOL    HW1 1186   1.511   0.441   1.630 -1.7027  1.4079 -2.0382
  297SOL    HW2 1187   1.494   0.298   1.682 -0.6429 -1.4052 -1.6014
  297SOL     MW 1188   1.487   0.358   1.618 -0.1629 -0.2697 -0.5003
  298SOL     OW 1189   1.641   0.899   2.028  0.1758 -0.5248 -0.4252
  298SOL    HW1 1190   1.619   0.912   1.934  2.3078 -2.4886 -2.9535
  298SOL    HW2 1191   1.737   0.889   2.023  0.7442  0.5667 -0.5328
  298SOL     MW 1192   1.651   0.899   2.015  0.5321 -0.6399 -0.7730
  299SOL     OW 1193   0.559   1.039   3.104  0.4699  0.5251  0.2550
  299SOL    HW1 1194   0.603   1.125   3.107  1.3896 -0.8766 -1.2118
  299SOL    HW2 1195   0.543   1.036   3.011 -0.6827  2.3593  0.5738
  299SOL     MW 1196   0.562   1.050   3.092  0.4392  0.5821  0.1036
  300SOL     OW 1197   1.192   1.157   2.504 -0.7533  0.0611  0.5388
  300SOL    HW1 1198   1.113   1.100   2.486  0.8090 -3.7891 -1.3118
  300SOL    HW2 1199   1.214   1.185   2.593  1.0472 -0.6895 -2.6744
  300SOL     MW 1200   1.184   1.153   2.513 -0.3096 -0.5459 -0.1293
  301SOL     OW 1201   1.376   0.915   0.649  0.0838  0.0322  0.8112
  301SOL    HW1 1202   1.425   0.937   0.730  4.2958 -1.0591  1.7810
  301SOL    HW2 1203   1.335   0.831   0.678 -1.4778 -1.4330  1.5089
  301SOL     MW 1204   1.377   0.907   0.664  0.4335 -0.3051  1.0312
  302SOL     OW 1205   0.083   1.498   2.038  0.4020  0.1406 -0.2782
  302SOL    HW1 1206   0.086   1.429   2.111 -0.2054 -1.0979  0.2473
  302SOL    HW2 1207   0.038   1.579   2.069  0.9830  0.0345 -1.4093
  302SOL     MW 1208   0.078   1.500   2.052  0.3985 -0.0368 -0.3581
  303SOL     OW 1209   0.367   1.685   2.605  0.4336 -0.0406  0.4541
  303SOL    HW1 1210   0.405   1.717   2.523  0.4719 -1.2706 -0.3491
  303SOL    HW2 1211   0.302   1.748   2.645 -0.8966  0.2940 -0.4559
  303SOL     MW 1212   0.364   1.697   2.599  0.2631 -0.1587  0.2281
  304SOL     OW 1213   0.673   2.059   2.361 -0.6016  0.4919 -0.3056
  304SOL    HW1 1214   0.724   2.124   2.311  0.0569 -0.4939  0.9346
  304SOL    HW2 1215   0.745   2.004   2.387 -2.7739 -1.9325  1.3694
  304SOL     MW 1216   0.689   2.060   2.358 -0.8013  0.0420  0.0790
  305SOL     OW 1217   1.082   0.575   0.515  0.2265  0.3053  0.5190
  305SOL    HW1 1218   0.988   0.551   0.485  2.3618 -2.3689  0.7375
  305SOL    HW2 1219   1.119   0.498   0.566  1.2349  0.1512 -0.1456
  305SOL     MW 1220   1.075   0.562   0.518  0.6413 -0.0679  0.4601
  306SOL     OW 1221   1.225   1.487   0.278 -0.2005 -0.1664 -0.6253
  306SOL    HW1 1222   1.237   1.398   0.301 -0.5744  1.3643 -0.0667
  306SOL    HW2 1223   1.288   1.503   0.206 -2.0609 -1.5158  0.4450
  306SOL     MW 1224   1.235   1.477   0.271 -0.4953 -0.1425 -0.4104
  307SOL     OW 1225   1.391   0.490   1.935 -0.2409 -0.3775 -0.1739
  307SOL    HW1 1226   1.331   0.412   1.964 -1.2472 -1.6080  1.7074
  307SOL    HW2 1227   1.458   0.514   2.001  1.5860  1.8316  2.2488
  307SOL     MW 1228   1.392   0.483   1.947 -0.1326 -0.2484  0.3939
  308SOL     OW 1229   2.162   0.600   2.693 -0.2977 -0.0216  0.1676
  308SOL    HW1 1230   2.250   0.573   2.734  2.0464 -1.7276 -0.0181
  308SOL    HW2 1231   2.165   0.699   2.695 -0.1142 -1.6515 -0.8217
  308SOL     MW 1232   2.174   0.609   2.699  0.0358 -0.4618  0.0125
  309SOL     OW 1233   0.418   0.372   0.401 -0.5591  0.3602  0.3612
  309SOL    HW1 1234   0.487   0.332   0.453 -2.1106 -2.1764  0.4920
  309SOL    HW2 1235   0.425   0.328   0.316  0.2648  0.4924 -0.7171
  309SOL     MW 1236   0.428   0.361   0.397 -0.6551  0.0430  0.2362
  310SOL     OW 1237   0.482   0.596   1.919  0.3953 -0.2580 -0.1972
  310SOL    HW1 1238   0.519   0.535   1.853  1.3728  0.7822  0.7756
  310SOL    HW2 1239   0.546   0.668   1.908 -0.7104  2.9667 -2.5656
  310SOL     MW 1240   0.495   0.597   1.909  0.3784  0.3047 -0.3813
  311SOL     OW 1241   1.888   0.739   1.972  0.1386 -0.1312  0.1596
  311SOL    HW1 1242   1.887   0.727   2.070  0.2802  1.0909  1.9763
  311SOL    HW2 1243   1.939   0.661   1.935  2.1165 -1.3441 -0.6704
  311SOL     MW 1244   1.895   0.728   1.980  0.4182 -0.1300  0.2898
  312SOL     OW 1245   1.674   2.503   0.110  0.1335 -0.0998  0.5778
  312SOL    HW1 1246   1.724   2.526   0.190  1.2137  3.6384  0.2227
  312SOL    HW2 1247   1.605   2.565   0.102  0.6682  1.8971  2.5624
  312SOL     MW 1248   1.672   2.514   0.119  0.3466  0.6569  0.7928
  313SOL     OW 1249   0.091   1.229   2.966 -0.0023 -0.2411  0.1027
  313SOL    HW1 1250   0.128   1.226   3.054  0.3629  0.6276  0.4478
  313SOL    HW2 1251   0.157   1.262   2.908 -1.9249 -1.1380  3.1927
  313SOL     MW 1252   0.105   1.233   2.970 -0.2078 -0.2448  0.5559
  314SOL     OW 1253   2.134   2.973   3.014 -0.3165 -0.0799 -0.2436
  314SOL    HW1 1254   2.097   3.041   2.958 -2.3745  0.0109  1.0272
  314SOL    HW2 1255   2.193   3.018   3.069 -0.5923 -1.3782 -1.1736
  314SOL     MW 1256   2.137   2.988   3.014 -0.6244 -0.2392 -0.1986
  315SOL     OW 1257   1.501   1.883   0.044  0.7331  0.5065  0.4690
  315SOL    HW1 1258   1.423   1.942   0.068 -0.9117  0.7981  1.0180
  315SOL    HW2 1259   1.540   1.933  -0.032  0.1323  0.8724 -0.3379
  315SOL     MW 1260   1.496   1.897   0.037  0.4368  0.5933  0.4350
  316SOL     OW 1261   1.287   0.666   2.682  0.8075  0.1264  0.5924
  316SOL    HW1 1262   1.366   0.710   2.642 -0.5521 -1.5537 -3.3523
  316SOL    HW2 1263   1.307   0.643   2.769 -1.1591  0.1343 -1.3675
  316SOL     MW 1264   1.300   0.668   2.688  0.3686 -0.0942 -0.1867
  317SOL     OW 1265   0.707   1.493   2.539 -0.3123  0.4537 -0.3173
  317SOL    HW1 1266   0.774   1.422   2.552 -1.0624 -0.2979 -0.6447
  317SOL    HW2 1267   0.738   1.536   2.451 -0.7053  0.2581 -0.6489
  317SOL     MW 1268   0.720   1.489   2.529 -0.4631  0.3287 -0.4042
  318SOL     OW 1269   1.348   0.411   2.939 -0.0228 -0.4620  0.1665
  318SOL    HW1 1270   1.273   0.463   2.908 -1.5718  2.0775 -2.7368
  318SOL    HW2 1271   1.428   0.465   2.922 -0.7685  1.8924 -0.2488
  318SOL     MW 1272   1.349   0.425   2.932 -0.3256  0.1837 -0.2713
  319SOL     OW 1273   0.775   0.413   2.861 -0.1528  0.2526 -0.2018
  319SOL    HW1 1274   0.710   0.386   2.797 -1.0298 -0.7626  2.1538
  319SOL    HW2 1275   0.732   0.392   2.946  0.3354  1.9797  2.6361
  319SOL     MW 1276   0.761   0.406   2.864 -0.2041  0.3465  0.4834
  320SOL     OW 1277   1.031   1.329   1.924  0.5730 -0.4084 -0.1987
  320SOL    HW1 1278   1.061   1.296   2.010  1.2169 -1.7537 -3.1084
  320SOL    HW2 1279   1.070   1.416   1.921  0.8602  0.3551  0.7511
  320SOL     MW 1280   1.040   1.336   1.935  0.6959 -0.4852 -0.4573
  321SOL     OW 1281   1.028   0.992   3.047  0.3298  0.0554  0.0190
  321SOL    HW1 1282   0.954   0.997   2.984 -0.0511  1.2373 -2.7517
  321SOL    HW2 1283   1.067   0.906   3.045 -1.4795 -1.0941 -0.5917
  321SOL     MW 1284   1.024   0.981   3.039  0.0408  0.0597 -0.4272
  322SOL     OW 1285   1.188   0.801   1.720  0.2842 -0.4697  0.0806
  322SOL    HW1 1286   1.264   0.750   1.697  2.8675 -0.3679 -0.2098
  322SOL    HW2 1287   1.194   0.821   1.814  1.0920  1.2587 -0.5139
  322SOL     MW 1288   1.199   0.797   1.729  0.7316 -0.2282 -0.0362
  323SOL     OW 1289   1.209   1.535   1.886 -0.1844  0.3282  0.0224
  323SOL    HW1 1290   1.224   1.501   1.794  1.8583 -1.8075  0.3202
  323SOL    HW2 1291   1.156   1.614   1.874  1.6895  0.5479  0.2808
  323SOL     MW 1292   1.204   1.541   1.872  0.3323  0.0754  0.0958
  324SOL     OW 1293   1.460   1.007   2.441  0.7472 -0.2074 -0.2158
  324SOL    HW1 1294   1.361   1.034   2.460 -1.3625  0.9624 -2.7070
  324SOL    HW2 1295   1.500   1.090   2.452 -1.3137 -2.4657 -0.5908
  324SOL     MW 1296   1.452   1.022   2.445  0.1969 -0.3510 -0.5940
  325SOL     OW 1297   1.090   0.519   2.896 -0.1667 -0.3200 -0.0086
  325SOL    HW1 1298   1.088   0.586   2.966 -0.9070  0.6634  0.3022
  325SOL    HW2 1299   0.999   0.499   2.877  2.1103  2.5037  0.6257
  325SOL     MW 1300   1.078   0.525   2.903  0.0360  0.1823  0.1161
  326SOL     OW 1301   0.482   1.368   2.214 -0.1947 -0.3769  0.2338
  326SOL    HW1 1302   0.516   1.328   2.137  0.0571 -0.3065 -0.8403
  326SOL    HW2 1303   0.468   1.467   2.202  2.0318 -0.7259  0.9265
  326SOL     MW 1304   0.485   1.376   2.202  0.1323 -0.4136  0.1835
  327SOL     OW 1305   1.882   0.875   2.463  0.4190 -0.4939  0.2180
  327SOL    HW1 1306   1.890   0.793   2.523  2.3424 -0.0057 -1.1707
  327SOL    HW2 1307   1.968   0.880   2.415  0.5573 -0.7773 -3.3203
  327SOL     MW 1308   1.894   0.865   2.465  0.6910 -0.4669 -0.4321
  328SOL     OW 1309   0.187   1.293   2.230  0.1207 -1.0452 -0.6867
  328SOL    HW1 1310   0.141   1.220   2.184  0.8851  0.9840 -1.8881
  328SOL    HW2 1311   0.271   1.287   2.195 -0.1717 -0.5242  0.6494
  328SOL     MW 1312   0.192   1.283   2.219  0.1830 -0.7087 -0.6689
  329SOL     OW 1313   0.129   0.099   1.395  0.2035 -0.5108 -0.4839
  329SOL    HW1 1314   0.114   0.110   1.490 -1.9601  1.4288  0.8213
  329SOL    HW2 1315   0.204   0.158   1.374  4.2284 -1.0848 -1.9204
  329SOL     MW 1316   0.137   0.108   1.405  0.4491 -0.3306 -0.5012
  330SOL     OW 1317   0.321   3.095   2.086 -0.3743 -0.0347  0.3609
  330SOL    HW1 1318   0.385   3.075   2.161  1.1568 -0.3477 -0.0069
  330SOL    HW2 1319   0.253   3.037   2.094  0.1255  1.1539 -3.5760
  330SOL     MW 1320   0.320   3.085   2.097 -0.1064  0.0809 -0.2071
  331SOL     OW 1321   0.777   1.210   2.282  0.6611 -0.4133  0.2275
  331SOL    HW1 1322   0.740   1.233   2.196  1.7878 -0.4621  0.3723
  331SOL    HW2 1323   0.810   1.283   2.328 -2.3053 -0.8960  1.1827
  331SOL     MW 1324   0.776   1.222   2.277  0.4184 -0.4835  0.3727
  332SOL     OW 1325   1.350   1.690   2.990  0.1358 -0.2599  0.2724
  332SOL    HW1 1326   1.360   1.690   2.897 -0.4019 -0.6745  3.0660
  332SOL    HW2 1327   1.404   1.760   3.020 -1.7999  2.2323 -1.1038
  332SOL     MW 1328   1.358   1.699   2.982 -0.1905  0.0143  0.4594
  333SOL     OW 1329   1.801   1.454   2.975  0.1256  0.0614  0.0694
  333SOL    HW1 1330   1.899   1.461   2.990  1.1348 -0.6447 -1.9629
  333SOL    HW2 1331   1.767   1.444   3.064 -0.3113  0.1332 -3.9559
  333SOL     MW 1332   1.810   1.454   2.988  0.2011 -0.0223 -0.7298
  334SOL     OW 1333   1.372   3.083   2.590  0.3241 -0.1442 -0.4685
  334SOL    HW1 1334   1.280   3.070   2.627 -0.8505  3.1960 -1.5560
  334SOL    HW2 1335   1.394   3.164   2.637  1.8629  0.3610  1.0252
  334SOL     MW 1336   1.363   3.092   2.601  0.3721  0.3631 -0.4149
  335SOL     OW 1337   1.249   0.780   3.035  0.5202 -0.2041 -0.8463
  335SOL    HW1 1338   1.301   0.779   3.116 -0.3647  0.6691  0.1905
  335SOL    HW2 1339   1.317   0.797   2.969 -2.7673  1.8135 -0.7529
  335SOL     MW 1340   1.265   0.782   3.037 -0.0303  0.1773 -0.6972
  336SOL     OW 1341   0.937   1.087   1.891  0.1371  0.3959 -0.0121
  336SOL    HW1 1342   0.956   1.181   1.896 -0.4017  2.1157  0.5457
  336SOL    HW2 1343   1.018   1.039   1.904 -2.0397 -0.9275  2.6927
  336SOL     MW 1344   0.950   1.093   1.894 -0.2212  0.4482  0.4184
  337SOL     OW 1345   0.598   1.771   2.825  0.7247  0.2267  0.0782
  337SOL    HW1 1346   0.529   1.716   2.778  0.2904  1.4411 -0.7130
  337SOL    HW2 1347   0.685   1.730   2.805  3.1858  3.0860 -0.4961
  337SOL     MW 1348   0.601   1.758   2.816  0.9921  0.7642 -0.1020
  338SOL     OW 1349   1.134   0.834   2.537  0.0649  0.5772 -0.4744
  338SOL    HW1 1350   1.071   0.775   2.493  0.6134 -0.2411  0.6097
  338SOL    HW2 1351   1.191   0.777   2.589 -0.0552 -0.6048  0.4636
  338SOL     MW 1352   1.133   0.819   2.538  0.1214  0.3133 -0.2076
  339SOL     OW 1353   1.548   1.038   1.789  0.1859  0.0077  0.1557
  339SOL    HW1 1354   1.484   1.039   1.715 -1.9147  1.8127 -2.4626
  339SOL    HW2 1355   1.524   1.121   1.834 -0.8799 -1.1184  2.1104
  339SOL     MW 1356   1.536   1.049   1.785 -0.2319  0.0972  0.0682
  340SOL     OW 1357   1.389   1.477   0.060  0.2304 -0.0169 -0.0881
  340SOL    HW1 1358   1.390   1.554   0.009  0.9944 -1.5799 -0.1031
  340SOL    HW2 1359   1.480   1.462   0.077 -0.2738 -1.2761 -0.7813
  340SOL     MW 1360   1.401   1.485   0.055  0.2647 -0.3893 -0.1816
  341SOL     OW 1361   0.109   1.391   2.683 -0.3779  0.6491  0.0978
  341SOL    HW1 1362   0.199   1.375   2.651 -0.1258 -0.4106 -0.7248
  341SOL    HW2 1363   0.055   1.348   2.616  0.7852  4.2148  0.7721
  341SOL     MW 1364   0.114   1.383   2.670 -0.1911  0.9798  0.0782
  342SOL     OW 1365   1.397   0.297   0.093 -0.5715  0.1993 -0.2190
  342SOL    HW1 1366   1.456   0.358   0.140 -0.1568 -2.9836 -0.9277
  342SOL    HW2 1367   1.383   0.345   0.009 -1.3222  0.4180 -0.9112
  342SOL     MW 1368   1.403   0.312   0.088 -0.6158 -0.1918 -0.4039
  343SOL     OW 1369   0.210   0.312   2.218  0.1284 -0.1323  0.2662
  343SOL    HW1 1370   0.230   0.235   2.280 -0.0901 -0.3213  1.3724
  343SOL    HW2 1371   0.151   0.282   2.147 -1.5337 -0.0746  1.6304
  343SOL     MW 1372   0.205   0.298   2.217 -0.1197 -0.1496  0.5921
  344SOL     OW 1373   1.674   2.070   0.198 -0.0146 -0.3670 -0.4589
  344SOL    HW1 1374   1.692   2.115   0.113  1.3553  0.7218 -1.3072
  344SOL    HW2 1375   1.605   2.013   0.182  2.4646 -0.3218  1.4961
  344SOL     MW 1376   1.667   2.068   0.185  0.4933 -0.2174 -0.3129
  345SOL     OW 1377   0.737   1.632   2.319  0.2359 -0.3591 -0.0222
  345SOL    HW1 1378   0.649   1.615   2.280 -3.3579 -0.8261 -0.9667
  345SOL    HW2 1379   0.799   1.584   2.260  2.7395  1.9977  0.4841
  345SOL     MW 1380   0.733   1.623   2.306  0.0921 -0.1098 -0.0800
  346SOL     OW 1381   1.731   1.118   0.042  0.5944 -0.1351 -0.2729
  346SOL    HW1 1382   1.829   1.116   0.044  0.4897 -1.4110  1.9549
  346SOL    HW2 1383   1.697   1.039   0.087 -1.7353  2.4030  3.8053
  346SOL     MW 1384   1.740   1.107   0.048  0.2732  0.0315  0.5591
  347SOL     OW 1385   1.279   0.755   2.293 -0.1477  0.7289  0.0821
  347SOL    HW1 1386   1.346   0.700   2.333 -0.0110  0.6983  0.9079
  347SOL    HW2 1387   1.296   0.835   2.336 -1.0058 -2.9459  1.0483
  347SOL     MW 1388   1.290   0.758   2.304 -0.2429  0.2400  0.3185
  348SOL     OW 1389   1.319   2.587   1.865  0.3834  0.3277 -0.3717
  348SOL    HW1 1390   1.380   2.527   1.907 -3.2331  1.3057 -0.7050
  348SOL    HW2 1391   1.360   2.670   1.885 -0.3585 -0.1243  3.5725
  348SOL     MW 1392   1.333   2.590   1.873 -0.1916  0.3971  0.1048
  349SOL     OW 1393   1.418   0.255   2.700 -0.4907  0.3333 -0.2127
  349SOL    HW1 1394   1.367   0.309   2.765 -1.3929  0.0875  1.1286
  349SOL    HW2 1395   1.482   0.220   2.757 -0.0137  0.7900 -0.4503
  349SOL     MW 1396   1.420   0.258   2.716 -0.5468  0.3611 -0.0671
  350SOL     OW 1397   1.881   0.648   2.608  0.1635 -0.2358 -0.3163
  350SOL    HW1 1398   1.856   0.568   2.554 -0.1361  0.0462  0.4062
  350SOL    HW2 1399   1.959   0.625   2.659  2.3548 -0.3481  1.6901
  350SOL     MW 1400   1.888   0.635   2.608  0.4131 -0.2134  0.0437
  351SOL     OW 1401   0.117   0.937   1.597 -0.4477 -0.2139 -0.3604
  351SOL    HW1 1402   0.036   0.968   1.636 -1.3431 -1.2056  0.1352
  351SOL    HW2 1403   0.190   1.000   1.624  1.8051 -1.2836  0.0524
  351SOL     MW 1404   0.116   0.949   1.606 -0.2686 -0.4859 -0.2405
  352SOL     OW 1405   0.843   1.653   2.731  0.2831  0.5223 -0.3834
  352SOL    HW1 1406   0.874   1.590   2.802 -0.9986  0.2395 -0.3949
  352SOL    HW2 1407   0.796   1.597   2.666  1.1823  0.3187 -1.5160
  352SOL     MW 1408   0.841   1.637   2.732  0.2327  0.4581 -0.5343
  353SOL     OW 1409   3.049   2.465   2.706 -0.0633 -0.6257  1.2975
  353SOL    HW1 1410   3.138   2.426   2.686  1.4456  4.1613 -0.3183
  353SOL    HW2 1411   3.010   2.513   2.635  0.0329  0.8977 -0.2989
  353SOL     MW 1412   3.055   2.466   2.694  0.1485  0.2069  0.8737
  354SOL     OW 1413   0.380   2.470   0.852 -0.4702 -0.1155  0.2288
  354SOL    HW1 1414   0.381   2.438   0.947 -0.8478  1.8588  0.6633
  354SOL    HW2 1415   0.310   2.404   0.817  2.2837 -0.3918 -1.5307
  354SOL     MW 1416   0.371   2.457   0.860 -0.1567  0.1086  0.0540
  355SOL     OW 1417   0.026   2.208   0.401 -0.2712  0.3716 -0.7342
  355SOL    HW1 1418  -0.040   2.137   0.386  0.7490 -0.3925  0.5446
  355SOL    HW2 1419   0.011   2.251   0.484  1.9105 -2.0311 -2.2889
  355SOL     MW 1420   0.015   2.204   0.410  0.1513 -0.0462 -0.7706
  356SOL     OW 1421   0.881   2.883   1.066 -0.3487  0.1477  0.1544
  356SOL    HW1 1422   0.913   2.869   0.971  1.0037 -0.8640 -1.2855
  356SOL    HW2 1423   0.801   2.839   1.073  1.7923  0.4572 -1.0070
  356SOL     MW 1424   0.874   2.876   1.054  0.1122  0.0550 -0.1888
  357SOL     OW 1425   1.778   2.939   0.377  0.8776  0.0333  0.4480
  357SOL    HW1 1426   1.732   2.875   0.437 -0.6640  1.2513  3.2997
  357SOL    HW2 1427   1.840   2.882   0.349 -3.1063  1.4964  1.3396
  357SOL     MW 1428   1.780   2.923   0.381  0.1486  0.3870  0.9419
  358SOL     OW 1429   0.430   0.074   1.071  1.0686 -0.3891 -0.0120
  358SOL    HW1 1430   0.520   0.099   1.084  1.8383 -1.0072 -1.0282
  358SOL    HW2 1431   0.406   0.125   0.994  0.5620  0.3885  0.6218
  358SOL     MW 1432   0.439   0.084   1.063  1.1033 -0.3681 -0.0625
  359SOL     OW 1433   0.898   2.850   1.826 -0.0986 -0.8068  0.6280
  359SOL    HW1 1434   0.906   2.761   1.874 -1.6892 -1.1883 -2.0853
  359SOL    HW2 1435   0.962   2.859   1.758  2.7504 -0.1627 -0.0910
  359SOL     MW 1436   0.907   2.839   1.823  0.0674 -0.7721  0.1751
  360SOL     OW 1437   0.588   2.793   1.019 -0.1813  0.1332 -0.2224
  360SOL    HW1 1438   0.600   2.757   0.927  0.0355  0.8723 -0.2197
  360SOL    HW2 1439   0.587   2.708   1.068  0.0525  0.5921 -1.0467
  360SOL     MW 1440   0.589   2.777   1.014 -0.1218  0.2913 -0.3308
  361SOL     OW 1441   0.195   2.711   1.333 -0.7338  0.2454  0.1989
  361SOL    HW1 1442   0.161   2.770   1.400 -0.9033 -0.1503 -2.7010
  361SOL    HW2 1443   0.286   2.694   1.342 -0.6938  1.6143  0.9138
  361SOL     MW 1444   0.203   2.717   1.343 -0.7509  0.3738 -0.0894
  362SOL     OW 1445   1.446   2.437   0.660 -0.1271  0.2504  0.0791
  362SOL    HW1 1446   1.484   2.362   0.706 -1.4101  2.2353 -1.4352
  362SOL    HW2 1447   1.465   2.516   0.715  2.6451  1.1769 -2.4625
  362SOL     MW 1448   1.454   2.438   0.673  0.0694  0.6345 -0.4561
  363SOL     OW 1449   0.307   3.063   0.680 -0.3841  0.6781  0.2107
  363SOL    HW1 1450   0.300   3.021   0.771  1.3109  1.2163 -0.5828
  363SOL    HW2 1451   0.219   3.102   0.668  0.3813 -1.1627  3.0340
  363SOL     MW 1452   0.295   3.062   0.690 -0.0594  0.5062  0.4785
  364SOL     OW 1453   0.731   0.219   0.234 -0.7980  0.2373 -0.4796
  364SOL    HW1 1454   0.654   0.157   0.228 -0.8951  2.1785 -2.1707
  364SOL    HW2 1455   0.713   0.288   0.170  0.4659 -0.0848  0.2322
  364SOL     MW 1456   0.718   0.220   0.225 -0.6441  0.4509 -0.6088
  365SOL     OW 1457   0.946   1.958   1.099  0.2645  0.3522  0.1748
  365SOL    HW1 1458   0.905   2.045   1.061  0.5637  1.7450 -0.0108
  365SOL    HW2 1459   0.893   1.890   1.051  0.2824 -1.6388 -2.1678
  365SOL     MW 1460   0.934   1.960   1.087  0.3063  0.2733 -0.1588
  366SOL     OW 1461   2.871   2.618   1.060 -0.4518 -0.1841  1.0304
  366SOL    HW1 1462   2.938   2.637   1.130  0.9487  0.6498  0.2384
  366SOL    HW2 1463   2.910   2.617   0.972 -0.7257  1.0858 -0.9546
  366SOL     MW 1464   2.885   2.620   1.058 -0.3032  0.0935  0.6640
  367SOL     OW 1465   1.238   2.842   0.897  0.2827  0.4409  0.3153
  367SOL    HW1 1466   1.144   2.872   0.902 -1.1916  4.0055 -0.9557
  367SOL    HW2 1467   1.237   2.791   0.817 -1.3731  0.3008  0.9680
  367SOL     MW 1468   1.225   2.839   0.887 -0.1303  0.8928  0.2337
  368SOL     OW 1469   1.673   0.437   0.673 -0.1279 -0.1003 -0.5479
  368SOL    HW1 1470   1.762   0.407   0.665 -1.9812 -2.7697  2.4836
  368SOL    HW2 1471   1.678   0.537   0.678  3.6007  2.0270  1.1957
  368SOL     MW 1472   1.686   0.446   0.673  0.1195 -0.1718  0.0821
  369SOL     OW 1473   0.173   2.450   1.672 -0.0415  0.1927 -0.0828
  369SOL    HW1 1474   0.257   2.440   1.718 -2.7061 -0.3319  1.8258
  369SOL    HW2 1475   0.133   2.534   1.693 -0.3305  1.1887 -2.2271
  369SOL     MW 1476   0.179   2.460   1.681 -0.4312  0.2549 -0.1139
  370SOL     OW 1477   0.757   0.067   1.006 -0.0084 -0.0614  0.1562
  370SOL    HW1 1478   0.799   0.143   1.043 -0.5013 -0.8552 -1.9006
  370SOL    HW2 1479   0.780   0.001   1.073 -1.8935 -0.7644 -1.0844
  370SOL     MW 1480   0.765   0.068   1.020 -0.3221 -0.2589 -0.2789
  371SOL     OW 1481   1.333   2.999   1.511 -0.1253  0.1434  0.0353
  371SOL    HW1 1482   1.267   2.936   1.477 -0.7895 -2.1173  2.6637
  371SOL    HW2 1483   1.342   3.072   1.451  0.8371 -1.0640 -0.6376
  371SOL     MW 1484   1.326   3.000   1.499 -0.0860 -0.3142  0.2933
  372SOL     OW 1485   0.779   2.316   0.483 -0.3384  0.1277 -0.3805
  372SOL    HW1 1486   0.769   2.217   0.479  1.0037  0.3954  0.9588
  372SOL    HW2 1487   0.825   2.328   0.394  0.4847 -2.3550  0.6361
  372SOL     MW 1488   0.784   2.305   0.470 -0.0527 -0.1645 -0.0696
  373SOL     OW 1489   2.798   3.030   1.375  0.0867 -0.0723  0.0762
  373SOL    HW1 1490   2.829   2.975   1.301  1.5321 -0.1196 -0.6950
  373SOL    HW2 1491   2.792   3.120   1.336  0.1228 -1.1547  0.0464
  373SOL     MW 1492   2.802   3.035   1.360  0.2822 -0.2213 -0.0295
  374SOL     OW 1493   1.542   0.516   0.210  0.0574 -0.5340  0.6394
  374SOL    HW1 1494   1.634   0.529   0.210  1.6391 -2.0318 -3.4811
  374SOL    HW2 1495   1.517   0.487   0.298 -1.5706  0.3368 -0.4945
  374SOL     MW 1496   1.551   0.514   0.222  0.0513 -0.6167 -0.0539
  375SOL     OW 1497   1.112   2.093   2.282 -0.1073  0.3601  0.2167
  375SOL    HW1 1498   1.158   2.106   2.361 -1.7119 -1.4495 -0.9384
  375SOL    HW2 1499   1.144   2.007   2.257 -2.3575  0.5436 -1.7067
  375SOL     MW 1500   1.122   2.083   2.289 -0.6159  0.1455 -0.1895
  376SOL     OW 1501   0.681   2.515   0.058 -0.4572  0.0109  0.2178
  376SOL    HW1 1502   0.678   2.454   0.131 -2.4864  1.0298  3.2419
  376SOL    HW2 1503   0.641   2.464  -0.023 -1.2764 -1.4361  0.9966
  376SOL     MW 1504   0.675   2.500   0.057 -0.8330 -0.0456  0.7196
  377SOL     OW 1505   1.323   1.985   0.857  0.5075 -0.2903  0.3309
  377SOL    HW1 1506   1.239   1.981   0.808  1.9269  1.5515 -2.0203
  377SOL    HW2 1507   1.293   1.950   0.943 -0.5927  1.0550 -0.2126
  377SOL     MW 1508   1.308   1.980   0.862  0.5496  0.1302 -0.0511
  378SOL     OW 1509   1.032   2.829   1.557 -0.3405  0.2217  0.2799
  378SOL    HW1 1510   0.989   2.745   1.580  1.3134 -0.5386  0.7456
  378SOL    HW2 1511   0.972   2.866   1.491 -0.0559  0.8458  1.4197
  378SOL     MW 1512   1.018   2.823   1.551 -0.0847  0.2037  0.4917
  379SOL     OW 1513   1.131   1.772   2.289  0.2118 -0.6955  0.1299
  379SOL    HW1 1514   1.042   1.807   2.287  0.0205  0.7765  0.9652
  379SOL    HW2 1515   1.136   1.682   2.256 -0.9746 -1.9264 -2.0547
  379SOL     MW 1516   1.120   1.765   2.285  0.0300 -0.6637 -0.0482
  380SOL     OW 1517   0.836   0.072   1.567 -0.5887  0.0796  0.6804
  380SOL    HW1 1518   0.863   0.053   1.474  0.8921 -1.1997 -2.2170
  380SOL    HW2 1519   0.911   0.116   1.618 -0.5997  1.9190  0.5975
  380SOL     MW 1520   0.850   0.075   1.561 -0.3948  0.1535  0.2872
  381SOL     OW 1521   0.814   1.999   0.771  0.1101  0.2224  0.2493
  381SOL    HW1 1522   0.910   2.002   0.785  0.5073  0.8785 -3.0177
  381SOL    HW2 1523   0.776   2.056   0.838  0.4303  3.0087  0.8886
  381SOL     MW 1524   0.821   2.007   0.782  0.2047  0.6766 -0.0974
  382SOL     OW 1525   0.681   0.091   0.722 -0.5500  0.3243 -0.1242
  382SOL    HW1 1526   0.708   0.119   0.813 -0.4060  3.0604  1.5143
  382SOL    HW2 1527   0.649   0.003   0.740  1.2526  0.5541  0.3821
  382SOL     MW 1528   0.680   0.083   0.736 -0.2932  0.7157  0.1588
  383SOL     OW 1529   0.489   0.023   0.361  0.3773 -0.0762  0.1387
  383SOL    HW1 1530   0.529  -0.051   0.324  1.2099  0.3837 -1.5047
  383SOL    HW2 1531   0.428  -0.014   0.427  0.5256  0.1515  1.4866
  383SOL     MW 1532   0.486   0.009   0.365  0.5067  0.0145  0.0997
  384SOL     OW 1533   0.642   2.915   0.644  0.1635 -0.0959  0.3496
  384SOL    HW1 1534   0.657   2.823   0.686 -0.8041 -0.4949  0.5777
  384SOL    HW2 1535   0.561   2.898   0.600  1.0301  2.8094 -0.3656
  384SOL     MW 1536   0.633   2.900   0.644  0.1501  0.2348  0.2853
  385SOL     OW 1537   1.340   2.066   1.506  0.3945  0.1504  0.4621
  385SOL    HW1 1538   1.402   2.075   1.582  2.1599  1.0581 -0.9570
  385SOL    HW2 1539   1.279   1.994   1.547 -0.6090  1.5585  0.0278
  385SOL     MW 1540   1.340   2.058   1.522  0.4950  0.4559  0.2176
  386SOL     OW 1541   1.359   0.372   0.843 -0.9183  0.4453  0.3199
  386SOL    HW1 1542   1.309   0.320   0.785 -2.4278 -1.7541 -0.0652
  386SOL    HW2 1543   1.306   0.363   0.925  2.2871  1.9594  1.4158
  386SOL     MW 1544   1.345   0.364   0.847 -0.6945  0.3549  0.4137
  387SOL     OW 1545   0.850   2.217   1.436  0.7255  0.0058 -0.2125
  387SOL    HW1 1546   0.923   2.253   1.385  0.6198 -0.7070 -1.0441
  387SOL    HW2 1547   0.850   2.121   1.410 -0.4778 -0.4207  0.5828
  387SOL     MW 1548   0.860   2.209   1.426  0.5528 -0.1446 -0.2173
  388SOL     OW 1549   1.564   2.764   1.231 -0.3077 -0.4223 -0.3241
  388SOL    HW1 1550   1.481   2.743   1.191  0.0443 -0.5798 -1.1501
  388SOL    HW2 1551   1.626   2.694   1.198  0.9711 -1.4074  2.5111
  388SOL     MW 1552   1.561   2.752   1.222 -0.0925 -0.5731 -0.0590
  389SOL     OW 1553   0.355   3.090   3.046  0.2570 -0.4699  0.1476
  389SOL    HW1 1554   0.443   3.076   3.019 -1.2636 -3.2697  0.9059
  389SOL    HW2 1555   0.318   3.132   2.977 -0.8343 -0.4465  0.7184
  389SOL     MW 1556   0.362   3.094   3.034 -0.0876 -0.8363  0.3229
  390SOL     OW 1557   1.300   0.074   0.651  0.2219  0.2543  0.1251
  390SOL    HW1 1558   1.378   0.080   0.596  0.7560  1.9753  0.1932
  390SOL    HW2 1559   1.293  -0.005   0.703  0.8996  2.3443  0.8147
  390SOL     MW 1560   1.309   0.064   0.651  0.3818  0.7571  0.2251
  391SOL     OW 1561   0.271   2.242   1.421  0.3276  0.3379 -0.5679
  391SOL    HW1 1562   0.207   2.171   1.443 -1.4527  0.6600  1.4701
  391SOL    HW2 1563   0.216   2.324   1.422  1.4808 -0.1646 -0.6198
  391SOL     MW 1564   0.256   2.243   1.424  0.2449  0.3141 -0.3059
  392SOL     OW 1565   2.070   2.127   0.382 -0.0749 -0.3435  0.2375
  392SOL    HW1 1566   2.154   2.109   0.423 -0.2783 -1.0773 -0.2084
  392SOL    HW2 1567   2.019   2.125   0.463  2.3148  2.4426 -0.0772
  392SOL     MW 1568   2.074   2.124   0.398  0.2135 -0.0727  0.1371
  393SOL     OW 1569   0.177   3.026   2.729  0.4021 -0.3277 -0.6613
  393SOL    HW1 1570   0.232   3.093   2.775  2.7434  0.3895 -0.3549
  393SOL    HW2 1571   0.094   3.075   2.698 -2.5750 -1.2154  1.4263
  393SOL     MW 1572   0.173   3.041   2.731  0.3182 -0.3502 -0.3454
  394SOL     OW 1573   0.874   1.697   1.506  0.4642  0.4972 -0.0476
  394SOL    HW1 1574   0.824   1.728   1.580 -2.2767  0.8399  0.5003
  394SOL    HW2 1575   0.908   1.783   1.467  1.5136  1.1831 -2.6882
  394SOL     MW 1576   0.872   1.712   1.511  0.2410  0.6329 -0.3237
  395SOL     OW 1577   0.986   2.836   2.647  0.5174 -0.9951 -0.1252
  395SOL    HW1 1578   1.027   2.911   2.696  1.1867 -0.1218  1.5647
  395SOL    HW2 1579   1.063   2.774   2.631 -0.8570 -1.3138 -0.1013
  395SOL     MW 1580   1.001   2.837   2.652  0.4244 -0.9220  0.1009
  396SOL     OW 1581   0.877   1.868   2.379 -0.0853  0.1751  0.4601
  396SOL    HW1 1582   0.890   1.884   2.474  0.4242  0.4131 -0.4243
  396SOL    HW2 1583   0.818   1.789   2.369  1.9797  1.7599 -1.4306
  396SOL     MW 1584   0.871   1.860   2.390  0.2544  0.4156  0.0939
  397SOL     OW 1585   1.051   2.361   1.314 -0.5937 -0.4904 -0.2681
  397SOL    HW1 1586   1.083   2.398   1.230  1.9986  2.0341  1.1626
  397SOL    HW2 1587   1.134   2.325   1.357  1.5276 -0.1284 -2.2664
  397SOL     MW 1588   1.066   2.361   1.308  0.0282 -0.1096 -0.3430
  398SOL     OW 1589   0.620   2.663   0.777 -0.3316  0.4373 -0.4228
  398SOL    HW1 1590   0.560   2.594   0.810 -2.8731 -0.5194  3.8074
  398SOL    HW2 1591   0.689   2.610   0.735 -1.2751 -2.1764  0.9568
  398SOL     MW 1592   0.621   2.647   0.776 -0.7914 -0.0338  0.3173
  399SOL     OW 1593   0.270   2.079   0.457 -0.1740 -0.0197  0.4777
  399SOL    HW1 1594   0.180   2.110   0.424 -0.2177  2.2743 -1.6468
  399SOL    HW2 1595   0.333   2.116   0.390 -0.5127 -2.1153 -1.8082
  399SOL     MW 1596   0.266   2.088   0.444 -0.2245  0.0065 -0.1042
  400SOL     OW 1597   0.565   1.792   0.164 -0.2521  0.3787  0.6855
  400SOL    HW1 1598   0.558   1.887   0.165  0.5718  1.7297 -0.7044
  400SOL    HW2 1599   0.543   1.763   0.246  3.9442  1.8267 -2.4866
  400SOL     MW 1600   0.561   1.801   0.175  0.4103  0.7480  0.0836
  401SOL     OW 1601   0.918   2.086   0.137 -0.0585  0.0767 -0.1449
  401SOL    HW1 1602   0.918   1.989   0.151  0.0644 -0.4605 -0.1352
  401SOL    HW2 1603   0.966   2.123   0.217  0.1165  1.3375  3.0062
  401SOL     MW 1604   0.924   2.078   0.150 -0.0192  0.1722  0.2721
  402SOL     OW 1605   0.677   2.949   1.681  0.1415  0.4030  0.3450
  402SOL    HW1 1606   0.732   2.899   1.746 -0.2703 -1.9368  0.0512
  402SOL    HW2 1607   0.739   3.005   1.635  1.9859  1.3780 -0.4564
  402SOL     MW 1608   0.692   2.950   1.684  0.3305  0.2229  0.2005
  403SOL     OW 1609   0.082   0.415   0.405  0.2578  0.2232 -0.2220
  403SOL    HW1 1610   0.161   0.452   0.445  0.5694  1.6412  0.1455
  403SOL    HW2 1611   0.104   0.382   0.321  0.9425 -1.8054  3.4411
  403SOL     MW 1612   0.096   0.415   0.399  0.3893  0.1426  0.3098
  404SOL     OW 1613   0.944   2.828   0.810 -0.8551  0.2459 -0.3723
  404SOL    HW1 1614   0.988   2.764   0.758  0.1641  1.7725 -0.3476
  404SOL    HW2 1615   0.909   2.898   0.755 -0.9063 -0.0463 -0.6806
  404SOL     MW 1616   0.945   2.829   0.796 -0.7274  0.4088 -0.4097
  405SOL     OW 1617   0.504   2.375   1.517 -0.7427 -1.0218 -0.5343
  405SOL    HW1 1618   0.477   2.462   1.489 -1.7201 -0.3190  1.3393
  405SOL    HW2 1619   0.433   2.317   1.483  1.9814  3.0494  1.2663
  405SOL     MW 1620   0.491   2.379   1.509 -0.5122 -0.3919 -0.0495
  406SOL     OW 1621   0.345   2.390   1.094 -0.1148  0.7234 -0.0425
  406SOL    HW1 1622   0.244   2.389   1.079 -2.0122 -1.1182 -0.1926
  406SOL    HW2 1623   0.361   2.305   1.133  0.8418  1.6746 -0.7972
  406SOL     MW 1624   0.334   2.378   1.097 -0.2390  0.6059 -0.1619
  407SOL     OW 1625   0.024   2.755   1.125 -0.1639 -0.4039  0.2974
  407SOL    HW1 1626   0.089   2.752   1.195  4.3792  2.5492 -0.2032
  407SOL    HW2 1627   0.067   2.719   1.045 -2.3014  0.0307  1.8975
  407SOL     MW 1628   0.038   2.750   1.124  0.1535  0.0431  0.4425
  408SOL     OW 1629   2.077   2.052   0.717  0.1473 -0.0178  0.6081
  408SOL    HW1 1630   2.020   2.110   0.762  1.5268 -2.4721  2.7689
  408SOL    HW2 1631   2.022   2.014   0.647 -2.6792 -2.0900 -0.5265
  408SOL     MW 1632   2.062   2.055   0.714 -0.0436 -0.6150  0.7435
  409SOL     OW 1633   1.372   0.000   0.919 -0.1541  0.3986  0.6023
  409SOL    HW1 1634   1.393   0.095   0.907 -2.4355  1.2919 -0.3697
  409SOL    HW2 1635   1.455  -0.036   0.953  1.2208  0.1232  2.0732
  409SOL     MW 1636   1.386   0.008   0.922 -0.2737  0.4801  0.6681
  410SOL     OW 1637   1.120   2.413   1.066  0.0425  0.2824  0.2804
  410SOL    HW1 1638   1.035   2.415   1.015 -0.5245  0.8157 -1.6986
  410SOL    HW2 1639   1.166   2.337   1.037  2.3862  2.0564  3.0909
  410SOL     MW 1640   1.115   2.403   1.056  0.2769  0.5869  0.3901
  411SOL     OW 1641   1.964   0.032   2.862 -0.1869 -0.3095  0.0623
  411SOL    HW1 1642   1.905  -0.004   2.797  0.0888  1.4012  1.3814
  411SOL    HW2 1643   1.907   0.038   2.945 -1.1809  2.5014  0.9271
  411SOL     MW 1644   1.949   0.028   2.864 -0.2817  0.2871  0.3505
  412SOL     OW 1645   1.032   2.241   0.597 -0.8248  0.5151  0.0656
  412SOL    HW1 1646   1.096   2.308   0.643  1.2138 -1.0828 -0.7816
  412SOL    HW2 1647   0.945   2.284   0.583 -1.5413  0.6786 -2.4625
  412SOL     MW 1648   1.029   2.256   0.601 -0.6504  0.3259 -0.3797
  413SOL     OW 1649   0.559   2.748   0.026  0.1973 -0.3114 -0.1736
  413SOL    HW1 1650   0.613   2.665   0.043  0.2025 -0.0481  0.3867
  413SOL    HW2 1651   0.575   2.792  -0.063 -1.7742 -1.5390  2.4947
  413SOL     MW 1652   0.568   2.743   0.016 -0.0622 -0.4386  0.2524
  414SOL     OW 1653   1.896   2.991   1.082  0.3601  0.1566 -0.3695
  414SOL    HW1 1654   1.857   2.970   0.993  0.4623  1.4965 -0.9384
  414SOL    HW2 1655   1.981   2.953   1.090 -0.9757 -0.5313  1.4731
  414SOL     MW 1656   1.902   2.983   1.071  0.1973  0.2426 -0.2015
  415SOL     OW 1657   1.728   2.574   1.129 -0.4590 -0.0638 -0.2877
  415SOL    HW1 1658   1.700   2.493   1.177  2.7556  1.3830  0.3468
  415SOL    HW2 1659   1.807   2.616   1.168  1.0206 -1.2450  0.6395
  415SOL     MW 1660   1.734   2.569   1.140  0.1603 -0.0288 -0.0817
  416SOL     OW 1661   0.574   1.942   1.380 -0.8714  0.2537 -0.0331
  416SOL    HW1 1662   0.507   1.996   1.340  0.2943 -1.3412 -0.1929
  416SOL    HW2 1663   0.547   1.852   1.349  0.6338  0.6617  1.5128
  416SOL     MW 1664   0.561   1.938   1.370 -0.5190  0.0971  0.1498
  417SOL     OW 1665   0.955   3.003   2.032  0.0808  0.2112  0.3908
  417SOL    HW1 1666   0.892   3.009   2.105 -2.0709 -1.6095  0.5631
  417SOL    HW2 1667   0.921   2.943   1.960 -1.5062 -1.2297 -0.6337
  417SOL     MW 1668   0.942   2.996   2.032 -0.4125 -0.2192  0.2783
  418SOL     OW 1669   0.601   2.957   0.175  0.0173 -0.9380 -0.1000
  418SOL    HW1 1670   0.691   2.981   0.135 -1.0879  1.0117 -2.4307
  418SOL    HW2 1671   0.570   2.878   0.126  0.6041  2.4049  0.4216
  418SOL     MW 1672   0.609   2.950   0.164 -0.0511 -0.2397 -0.3387
  419SOL     OW 1673   0.460   2.634   1.405 -0.1682 -0.2052  0.2170
  419SOL    HW1 1674   0.516   2.714   1.424  2.2545 -0.0845 -2.8192
  419SOL    HW2 1675   0.485   2.597   1.320  3.7950 -1.0478 -0.1590
  419SOL     MW 1676   0.471   2.640   1.397  0.6743 -0.3004 -0.2332
  420SOL     OW 1677   0.819   2.165   1.000  0.2152  0.0651  0.6463
  420SOL    HW1 1678   0.773   2.189   1.081  3.4314 -1.3316 -0.3427
  420SOL    HW2 1679   0.842   2.249   0.967 -1.4645 -2.5262 -1.0246
  420SOL     MW 1680   0.816   2.179   1.007  0.4180 -0.4611  0.2953
  421SOL     OW 1681   2.939   0.077   0.035 -0.0318  0.4116 -0.5365
  421SOL    HW1 1682   2.898   0.056  -0.048  0.6618  0.7646 -1.7801
  421SOL    HW2 1683   2.982  -0.003   0.071  0.2329 -1.6201  0.3507
  421SOL     MW 1684   2.939   0.064   0.029  0.0946  0.1901 -0.5835
  422SOL     OW 1685   0.885   2.417   0.923  0.2558  0.2307 -0.4116
  422SOL    HW1 1686   0.811   2.461   0.965  1.6873  2.6779  0.0102
  422SOL    HW2 1687   0.871   2.442   0.835  3.0380 -0.1659 -0.0185
  422SOL     MW 1688   0.873   2.426   0.917  0.8117  0.5013 -0.3041
  423SOL     OW 1689   1.522   0.159   0.499  0.0384  0.5794  0.1930
  423SOL    HW1 1690   1.532   0.168   0.407 -0.8369 -1.4068  1.0264
  423SOL    HW2 1691   1.482   0.245   0.513 -0.4263 -2.7558 -0.3371
  423SOL     MW 1692   1.518   0.171   0.489 -0.1384 -0.1227  0.2330
  424SOL     OW 1693   0.670   2.237   1.209  0.6426  0.2481 -0.9028
  424SOL    HW1 1694   0.579   2.206   1.204 -1.1139 -2.0509  1.0972
  424SOL    HW2 1695   0.690   2.269   1.296  3.3329  1.4285  0.3544
  424SOL     MW 1696   0.661   2.237   1.220  0.7658  0.1005 -0.4730
  425SOL     OW 1697   1.710   2.846   1.947  0.2115  0.3476  0.7324
  425SOL    HW1 1698   1.727   2.864   1.850  0.6554  1.8255 -2.4922
  425SOL    HW2 1699   1.739   2.752   1.958 -0.6803 -0.5742  1.3845
  425SOL     MW 1700   1.716   2.836   1.936  0.1524  0.4210  0.3930
  426SOL     OW 1701   0.812   1.669   1.926  0.3867  0.6750 -0.0242
  426SOL    HW1 1702   0.772   1.695   1.843  0.5095  3.4622  0.6544
  426SOL    HW2 1703   0.772   1.739   1.979  0.8909 -3.3225 -0.1780
  426SOL     MW 1704   0.802   1.682   1.922  0.4694  0.5153  0.0451
  427SOL     OW 1705   0.348   1.532   1.903 -0.4054 -0.0729  0.0940
  427SOL    HW1 1706   0.414   1.468   1.887 -1.1720  2.7347  0.5155
  427SOL    HW2 1707   0.291   1.513   1.981  2.2366  0.9538  0.6296
  427SOL     MW 1708   0.349   1.521   1.911 -0.1579  0.4330  0.2203
  428SOL     OW 1709   0.573   2.541   1.164  0.2051  0.1142  0.3181
  428SOL    HW1 1710   0.652   2.502   1.204  0.7736  0.6656  0.3972
  428SOL    HW2 1711   0.503   2.476   1.155 -0.5164  0.4338  0.2977
  428SOL     MW 1712   0.574   2.527   1.168  0.1849  0.2291  0.3258
  429SOL     OW 1713   1.307   2.626   1.064  0.2239 -0.3003  0.1234
  429SOL    HW1 1714   1.236   2.565   1.083 -1.2117 -0.5127 -0.2386
  429SOL    HW2 1715   1.264   2.708   1.028  0.0844  2.6181  1.7854
  429SOL     MW 1716   1.292   2.628   1.062  0.0160  0.0567  0.2950
  430SOL     OW 1717   1.156   2.709   0.667  0.3735 -0.0458 -0.3494
  430SOL    HW1 1718   1.161   2.612   0.682  0.6329 -0.2284  1.5070
  430SOL    HW2 1719   1.094   2.723   0.600  0.8424  1.9420  0.9621
  430SOL     MW 1720   1.148   2.698   0.660  0.4696  0.1924  0.0686
  431SOL     OW 1721   0.300   1.888   1.129 -1.2450 -0.0417 -0.0879
  431SOL    HW1 1722   0.356   1.804   1.122 -0.9179 -0.2210 -0.7380
  431SOL    HW2 1723   0.304   1.910   1.035  1.1501  1.2353  1.0846
  431SOL     MW 1724   0.308   1.880   1.116 -0.8858  0.1031 -0.0190
  432SOL     OW 1725   0.012   0.083   1.141 -0.1627 -0.8469 -0.5494
  432SOL    HW1 1726   0.057   0.082   1.232 -0.5780  0.7799  1.4831
  432SOL    HW2 1727  -0.077   0.049   1.157  1.1511  0.4769 -0.5618
  432SOL     MW 1728   0.006   0.079   1.155 -0.0441 -0.4576 -0.2829
  433SOL     OW 1729   0.613   2.851   1.419  0.3591 -0.5078 -0.3217
  433SOL    HW1 1730   0.636   2.882   1.512  0.4043  2.6184 -1.9714
  433SOL    HW2 1731   0.702   2.852   1.383  0.5097  0.8757  0.0664
  433SOL     MW 1732   0.628   2.855   1.427  0.3850  0.0872 -0.4881
  434SOL     OW 1733   1.585   2.841   1.492 -0.0787  0.2484 -0.5130
  434SOL    HW1 1734   1.491   2.872   1.498  0.1457  0.5879  0.0488
  434SOL    HW2 1735   1.604   2.810   1.405  1.4665  2.9909 -3.4105
  434SOL     MW 1736   1.575   2.841   1.482  0.1548  0.6550 -0.8212
  435SOL     OW 1737   2.823   1.781   0.180 -0.1966  0.6075  0.2915
  435SOL    HW1 1738   2.873   1.854   0.146 -0.8816 -0.3658 -1.3053
  435SOL    HW2 1739   2.821   1.713   0.106 -2.3876 -0.6340 -1.4777
  435SOL     MW 1740   2.830   1.781   0.166 -0.5761  0.3153 -0.1526
  436SOL     OW 1741   1.289   2.745   0.300 -0.7804  0.3630  0.0299
  436SOL    HW1 1742   1.346   2.708   0.367 -0.8506  2.3746  0.1447
  436SOL    HW2 1743   1.247   2.821   0.342 -0.6950  2.4419  1.6329
  436SOL     MW 1744   1.291   2.750   0.314 -0.7784  0.9027  0.2565
  437SOL     OW 1745   0.880   2.897   1.350 -0.2282  0.0640  0.2397
  437SOL    HW1 1746   0.905   2.976   1.301 -1.8878 -0.0341 -0.6520
  437SOL    HW2 1747   0.906   2.822   1.293  0.5092 -0.4746 -0.1960
  437SOL     MW 1748   0.887   2.897   1.336 -0.3499 -0.0200  0.0646
  438SOL     OW 1749   0.892   2.615   1.949 -0.3276 -0.2797  0.8389
  438SOL    HW1 1750   0.860   2.590   2.033  1.0136 -1.9508  0.3327
  438SOL    HW2 1751   0.861   2.560   1.876  1.2361 -0.7488  0.4062
  438SOL     MW 1752   0.884   2.604   1.950  0.0556 -0.5621  0.7151
  439SOL     OW 1753   1.096   2.121   0.357 -0.1144  0.0193  0.0262
  439SOL    HW1 1754   1.062   2.155   0.439 -3.6115 -2.2621 -2.6191
  439SOL    HW2 1755   1.129   2.206   0.328  0.0415  1.1567  0.8635
  439SOL     MW 1756   1.096   2.136   0.364 -0.5553 -0.1316 -0.2123
  440SOL     OW 1757   1.644   2.900   3.043  0.5375  0.3243  0.0632
  440SOL    HW1 1758   1.587   2.876   3.111  0.3852 -1.3960 -0.1655
  440SOL    HW2 1759   1.697   2.821   3.017  2.7807  0.2297 -1.9690
  440SOL     MW 1760   1.644   2.887   3.049  0.8134  0.0848 -0.2351
  441SOL     OW 1761   0.343   2.613   0.527  0.5164  0.0353 -0.0607
  441SOL    HW1 1762   0.326   2.578   0.433 -2.7004  0.2040  0.2395
  441SOL    HW2 1763   0.372   2.703   0.520 -0.4003  2.8713  0.0679
  441SOL     MW 1764   0.345   2.620   0.513 -0.0290  0.4317 -0.0042
  442SOL     OW 1765   3.051   2.346   0.623 -0.1304  0.3008  0.3764
  442SOL    HW1 1766   3.089   2.438   0.616 -1.1552  0.1972 -1.5769
  442SOL    HW2 1767   2.969   2.343   0.674  0.9488  1.5698  1.6598
  442SOL     MW 1768   3.045   2.358   0.629 -0.1232  0.4546  0.2880
  443SOL     OW 1769   1.372   1.770   1.850 -1.2157 -0.3317  0.0558
  443SOL    HW1 1770   1.353   1.814   1.764 -1.6262 -1.0505 -0.8298
  443SOL    HW2 1771   1.333   1.687   1.850  0.2158 -1.4302  2.3755
  443SOL     MW 1772   1.365   1.765   1.839 -1.0810 -0.5715  0.2450
  444SOL     OW 1773   0.917   2.577   1.546  0.0676 -0.4116 -0.2634
  444SOL    HW1 1774   0.966   2.499   1.567  1.6099 -1.1284  2.6947
  444SOL    HW2 1775   0.854   2.584   1.621  1.1335  3.8750 -0.7282
  444SOL     MW 1776   0.915   2.567   1.559  0.4117  0.0594  0.0655
  445SOL     OW 1777   0.940   0.061   1.267  0.6259 -0.5600 -0.4190
  445SOL    HW1 1778   0.902   0.149   1.288 -0.6410  2.3828 -2.2758
  445SOL    HW2 1779   1.017   0.078   1.208 -1.2355 -2.2805 -3.2413
  445SOL     MW 1780   0.945   0.075   1.262  0.2131 -0.3988 -1.0364
  446SOL     OW 1781   2.686   2.835   1.088  0.4144  0.4139  0.4728
  446SOL    HW1 1782   2.654   2.891   1.012  0.1468  0.9803 -0.7944
  446SOL    HW2 1783   2.752   2.773   1.050  0.2300  0.1163  1.4431
  446SOL     MW 1784   2.690   2.834   1.073  0.3548  0.4493  0.4337
  447SOL     OW 1785   3.022   2.061   1.666 -0.0904  0.1556 -0.7630
  447SOL    HW1 1786   3.082   2.006   1.718  0.2661  0.0860 -1.3075
  447SOL    HW2 1787   2.965   2.015   1.604  1.0772  0.6738  0.0353
  447SOL     MW 1788   3.022   2.048   1.664  0.1107  0.2148 -0.7295
  448SOL     OW 1789   1.679   2.366   1.679 -0.3796 -0.2762 -0.5908
  448SOL    HW1 1790   1.603   2.305   1.667  1.4505 -2.7413  1.9004
  448SOL    HW2 1791   1.644   2.457   1.665  0.8455 -3.9202 -0.3778
  448SOL     MW 1792   1.664   2.370   1.675  0.0235 -1.0822 -0.2340
  449SOL     OW 1793   0.770   2.885   0.388 -0.2489 -1.1285 -0.3270
  449SOL    HW1 1794   0.701   2.887   0.320  2.9194  0.1635 -2.8744
  449SOL    HW2 1795   0.726   2.908   0.471  2.1341  0.0596 -1.9822
  449SOL     MW 1796   0.755   2.889   0.390  0.4835 -0.8013 -0.8815
  450SOL     OW 1797   1.186   2.432   0.703  0.3233  0.0198 -0.0301
  450SOL    HW1 1798   1.202   2.383   0.786 -0.2294  1.5276 -0.7386
  450SOL    HW2 1799   1.285   2.433   0.677 -1.2659 -0.5589 -1.9040
  450SOL     MW 1800   1.201   2.426   0.710  0.0407  0.1424 -0.3708
  451SOL     OW 1801   0.598   2.013   1.632  0.4448  0.3183 -0.3970
  451SOL    HW1 1802   0.653   2.089   1.642  1.1097  2.0294  2.4028
  451SOL    HW2 1803   0.589   1.998   1.536  1.6177 -1.3047 -1.2141
  451SOL     MW 1804   0.604   2.021   1.621  0.6873  0.3299 -0.1354
  452SOL     OW 1805   0.278   2.747   0.057  0.0452  0.1870  0.0807
  452SOL    HW1 1806   0.363   2.753   0.024 -3.1713 -1.8786 -1.6319
  452SOL    HW2 1807   0.224   2.761  -0.027  1.3857  2.1187 -1.5329
  452SOL     MW 1808   0.282   2.749   0.041 -0.2023  0.1693 -0.3582
  453SOL     OW 1809   0.397   3.012   1.721 -0.6817  0.5378  0.2069
  453SOL    HW1 1810   0.496   3.020   1.718  1.5052 -1.0591 -0.3203
  453SOL    HW2 1811   0.379   3.047   1.631 -0.0803 -0.3781 -1.4855
  453SOL     MW 1812   0.408   3.017   1.708 -0.3138  0.2063 -0.0860
  454SOL     OW 1813   1.027   2.696   1.226 -0.1455 -0.2224 -0.1289
  454SOL    HW1 1814   0.988   2.611   1.234  0.2697 -1.1883  0.5309
  454SOL    HW2 1815   1.009   2.740   1.144 -0.4019 -0.3725 -1.0842
  454SOL     MW 1816   1.020   2.691   1.216 -0.1245 -0.3697 -0.1679
  455SOL     OW 1817   1.523   2.925   0.198 -0.2349  0.2400 -0.5379
  455SOL    HW1 1818   1.590   2.919   0.265  0.6142 -0.0797  0.4359
  455SOL    HW2 1819   1.447   2.868   0.225 -0.8964 -2.1274  1.2569
  455SOL     MW 1820   1.522   2.917   0.211 -0.2102 -0.1145 -0.1726
  456SOL     OW 1821   2.886   0.362   1.324  0.3257 -0.2770 -0.0109
  456SOL    HW1 1822   2.849   0.279   1.285  1.5107 -1.3175 -1.7043
  456SOL    HW2 1823   2.959   0.370   1.263  0.2347  0.2824  0.4457
  456SOL     MW 1824   2.891   0.352   1.311  0.4700 -0.3405 -0.1741
  457SOL     OW 1825   0.927   1.573   3.000  0.3331 -0.5511  0.2965
  457SOL    HW1 1826   0.851   1.571   3.057 -1.0134  1.4564 -3.1273
  457SOL    HW2 1827   0.978   1.490   3.017  0.2603  1.5481  0.2552
  457SOL     MW 1828   0.923   1.562   3.010  0.1459 -0.0093 -0.1607
  458SOL     OW 1829   1.464   1.410   0.590 -0.2670 -0.2936 -1.2579
  458SOL    HW1 1830   1.389   1.425   0.651  0.2872 -0.5344  1.3921
  458SOL    HW2 1831   1.426   1.345   0.524  0.3273 -0.2005  1.8716
  458SOL     MW 1832   1.449   1.403   0.589 -0.1155 -0.3131 -0.4953
  459SOL     OW 1833   1.560   0.113   0.229  0.3640 -0.1179 -0.1694
  459SOL    HW1 1834   1.529   0.023   0.215 -2.3099 -0.2878 -0.8103
  459SOL    HW2 1835   1.498   0.172   0.180 -1.3108 -2.1350  0.3820
  459SOL     MW 1836   1.548   0.109   0.221 -0.2097 -0.4064 -0.1812
  460SOL     OW 1837   1.796   2.144   0.659 -0.0632 -0.1455  0.5774
  460SOL    HW1 1838   1.707   2.122   0.692  3.8561 -1.4499 -1.2087
  460SOL    HW2 1839   1.812   2.072   0.597 -0.4219  0.6658 -2.6181
  460SOL     MW 1840   1.786   2.131   0.655  0.4066 -0.2106 -0.0799
  461SOL     OW 1841   0.502   2.427   0.622 -0.2703 -0.1387 -0.0205
  461SOL    HW1 1842   0.462   2.490   0.560 -0.8169  1.4204  2.3058
  461SOL    HW2 1843   0.448   2.448   0.702 -1.3132 -1.0407 -1.7659
  461SOL     MW 1844   0.490   2.438   0.625 -0.4800 -0.0520  0.0562
  462SOL     OW 1845   0.323   0.245   1.276 -0.2054  0.0534  0.5287
  462SOL    HW1 1846   0.358   0.169   1.209 -1.3745 -1.7030 -2.3993
  462SOL    HW2 1847   0.404   0.283   1.312 -2.8102 -1.1450 -1.2174
  462SOL     MW 1848   0.338   0.240   1.272 -0.7034 -0.3364 -0.0880
  463SOL     OW 1849   0.935   3.089   0.679 -0.7152 -0.4131  0.1399
  463SOL    HW1 1850   0.951   3.109   0.586  0.3851  2.5822  0.0117
  463SOL    HW2 1851   0.846   3.111   0.691  1.7645 -1.1560 -1.1800
  463SOL     MW 1852   0.926   3.095   0.668 -0.2429 -0.1159 -0.0512
  464SOL     OW 1853   0.771   3.039   2.231  0.1807  0.6425  0.1610
  464SOL    HW1 1854   0.722   2.945   2.230 -0.9617 -2.9462  0.3631
  464SOL    HW2 1855   0.817   3.043   2.316  5.8327  1.6328  0.6705
  464SOL     MW 1856   0.770   3.027   2.242  0.7757  0.2997  0.2549
  465SOL     OW 1857   0.666   0.305   0.505 -0.4894 -0.0084 -0.2419
  465SOL    HW1 1858   0.649   0.245   0.580  0.2743 -0.8109 -0.0723
  465SOL    HW2 1859   0.701   0.251   0.433 -0.4638  1.6404 -4.1216
  465SOL     MW 1860   0.668   0.290   0.506 -0.3853  0.1033 -0.7314
  466SOL     OW 1861   1.079   2.021   0.746 -0.1635 -0.1487  0.4100
  466SOL    HW1 1862   1.064   1.951   0.684  0.4714  0.7709 -1.2091
  466SOL    HW2 1863   1.059   2.103   0.694  0.3794  0.6125 -0.5969
  466SOL     MW 1864   1.074   2.023   0.731 -0.0081  0.0731  0.0635
  467SOL     OW 1865   1.266   2.254   0.884  0.1173 -0.1400 -0.5625
  467SOL    HW1 1866   1.364   2.255   0.900  0.0512 -0.1456  1.7831
  467SOL    HW2 1867   1.253   2.162   0.888 -0.8721  0.1431 -0.3139
  467SOL     MW 1868   1.277   2.242   0.887 -0.0220 -0.1034 -0.2202
  468SOL     OW 1869   0.359   2.586   2.003 -0.0100  0.0757 -0.2225
  468SOL    HW1 1870   0.394   2.518   1.939  0.1463 -0.1069  0.9867
  468SOL    HW2 1871   0.396   2.677   1.979 -0.0280 -1.4757 -3.7744
  468SOL     MW 1872   0.369   2.589   1.992  0.0083 -0.1531 -0.5316
  469SOL     OW 1873   0.383   2.131   1.774 -0.2853  0.2284 -0.2259
  469SOL    HW1 1874   0.312   2.062   1.783 -0.2404  0.6914 -0.4808
  469SOL    HW2 1875   0.449   2.084   1.726  0.7829 -1.3734  2.2779
  469SOL     MW 1876   0.382   2.116   1.769 -0.1385  0.0781  0.0708
  470SOL     OW 1877   3.061   2.618   0.131 -0.0808 -0.2658 -0.7987
  470SOL    HW1 1878   2.993   2.574   0.179  0.5709 -0.3751 -0.6677
  470SOL    HW2 1879   3.040   2.597   0.040  0.3164  0.7656 -2.4553
  470SOL     MW 1880   3.050   2.609   0.125  0.0576 -0.1441 -1.0000
  471SOL     OW 1881   1.227   2.720   1.390  0.4328  0.0368  0.2243
  471SOL    HW1 1882   1.158   2.748   1.451 -0.9737  2.8499 -0.9463
  471SOL    HW2 1883   1.169   2.706   1.315  0.6495 -1.0168 -1.5020
  471SOL     MW 1884   1.210   2.722   1.388  0.2758  0.2690 -0.1579
  472SOL     OW 1885   2.897   2.057   0.378  0.5371  0.0931 -0.1028
  472SOL    HW1 1886   2.919   2.049   0.277  0.0779  1.2810  1.4266
  472SOL    HW2 1887   2.863   1.979   0.425  1.5852 -3.0466 -1.7808
  472SOL     MW 1888   2.896   2.046   0.371  0.6148 -0.1645 -0.1224
  473SOL     OW 1889   0.787   2.479   1.315 -0.0268 -0.6184  0.8171
  473SOL    HW1 1890   0.877   2.441   1.328  0.7044 -0.2165  2.6605
  473SOL    HW2 1891   0.767   2.527   1.391  2.9204 -1.7472 -3.2402
  473SOL     MW 1892   0.796   2.480   1.327  0.4585 -0.7143  0.5250
  474SOL     OW 1893   0.772   2.272   1.695  0.0143  0.0458 -0.0504
  474SOL    HW1 1894   0.848   2.285   1.751  0.8687  0.5675 -1.2031
  474SOL    HW2 1895   0.804   2.246   1.613 -0.3714  3.4142  0.0529
  474SOL     MW 1896   0.786   2.270   1.692  0.0761  0.5590 -0.1889
  475SOL     OW 1897   1.616   0.058   1.473  0.2757 -0.1264  0.5172
  475SOL    HW1 1898   1.526   0.066   1.442 -1.9585 -1.1445 -0.5732
  475SOL    HW2 1899   1.633  -0.035   1.469 -1.4522 -1.1980  0.1141
  475SOL     MW 1900   1.606   0.047   1.469 -0.2471 -0.4021  0.3201
  476SOL     OW 1901   1.500   2.628   0.860 -0.1333 -0.3223  0.1732
  476SOL    HW1 1902   1.432   2.620   0.935 -2.3898 -0.8917  1.0606
  476SOL    HW2 1903   1.516   2.724   0.863  1.6210  1.4494 -0.6788
  476SOL     MW 1904   1.493   2.639   0.870 -0.1995 -0.1637  0.1778
  477SOL     OW 1905   0.819   2.507   0.670 -0.4518  0.0625  0.0721
  477SOL    HW1 1906   0.860   2.568   0.606  0.9178  1.2436 -2.8358
  477SOL    HW2 1907   0.778   2.449   0.603 -0.0698 -2.4560  0.5743
  477SOL     MW 1908   0.819   2.507   0.653 -0.2207 -0.1139 -0.2453
  478SOL     OW 1909   0.176   2.649   0.893 -0.3488  0.4201 -0.1979
  478SOL    HW1 1910   0.202   2.738   0.914  0.8113  1.3476  2.4137
  478SOL    HW2 1911   0.244   2.589   0.892 -1.4685  1.1774  2.0270
  478SOL     MW 1912   0.188   2.653   0.896 -0.3434  0.6424  0.4402
  479SOL     OW 1913   1.429   1.916   1.295 -0.3585 -0.3002 -0.4017
  479SOL    HW1 1914   1.392   1.970   1.365  1.2540 -1.1223  1.1522
  479SOL    HW2 1915   1.509   1.887   1.336 -2.4294 -0.3824 -1.3426
  479SOL     MW 1916   1.435   1.919   1.310 -0.4190 -0.4195 -0.3208
  480SOL     OW 1917   1.845   2.389   1.382  0.0761  0.5021  0.1421
  480SOL    HW1 1918   1.861   2.304   1.427  0.0642 -0.6637 -1.3838
  480SOL    HW2 1919   1.883   2.381   1.297 -2.4926 -0.6644 -0.5185
  480SOL     MW 1920   1.852   2.377   1.377 -0.2644  0.1943 -0.1464
  481SOL     OW 1921   1.177   0.083   1.105  0.0161 -0.7080  0.0882
  481SOL    HW1 1922   1.232   0.034   1.049 -0.8902 -1.5903  2.0146
  481SOL    HW2 1923   1.192   0.178   1.090 -1.1523  1.6041  0.6173
  481SOL     MW 1924   1.186   0.089   1.096 -0.2576 -0.5194  0.4122
  482SOL     OW 1925   0.966   0.015   0.403  0.1366 -0.2501  0.0719
  482SOL    HW1 1926   0.904  -0.044   0.363 -0.7680  0.1304 -2.0185
  482SOL    HW2 1927   0.946   0.105   0.379 -1.3649 -0.5273  2.3012
  482SOL     MW 1928   0.955   0.019   0.395 -0.1809 -0.2364  0.0902
  483SOL     OW 1929   0.402   2.884   0.510 -0.6876  0.2705 -0.4893
  483SOL    HW1 1930   0.317   2.877   0.459 -1.8331 -0.2568  0.3242
  483SOL    HW2 1931   0.375   2.944   0.589  0.4219  1.1234 -0.3838
  483SOL     MW 1932   0.387   2.891   0.514 -0.6924  0.3134 -0.3681
  484SOL     OW 1933   1.680   1.875   1.410 -0.1739 -0.5080 -0.4559
  484SOL    HW1 1934   1.707   1.952   1.365 -1.6310 -0.5610 -1.4608
  484SOL    HW2 1935   1.695   1.895   1.501  0.0290  0.2036 -1.8500
  484SOL     MW 1936   1.685   1.888   1.416 -0.3394 -0.4211 -0.7724
  485SOL     OW 1937   0.560   2.355   0.284 -0.0080  0.7253 -0.7120
  485SOL    HW1 1938   0.602   2.371   0.365  1.3378 -1.0220  3.0184
  485SOL    HW2 1939   0.473   2.381   0.317 -1.8798  2.8800 -0.5943
  485SOL     MW 1940   0.554   2.360   0.299 -0.0774  0.7790 -0.2043
  486SOL     OW 1941   0.107   2.464   1.394  0.3458 -0.0016 -0.3299
  486SOL    HW1 1942   0.119   2.551   1.356  1.8419 -1.7757  2.5715
  486SOL    HW2 1943   0.117   2.484   1.485  2.8631 -1.1489 -1.2373
  486SOL     MW 1944   0.110   2.478   1.401  0.8753 -0.3871 -0.0668
  487SOL     OW 1945   1.266   1.600   1.077  0.0061  0.2119  0.9507
  487SOL    HW1 1946   1.261   1.701   1.071  0.0197  1.1951 -1.2223
  487SOL    HW2 1947   1.359   1.588   1.046  2.1283 -1.4603 -0.7140
  487SOL     MW 1948   1.278   1.612   1.072  0.2879  0.1210  0.4444
  488SOL     OW 1949   1.582   1.857   0.576  1.0749  0.1193  0.0025
  488SOL    HW1 1950   1.669   1.877   0.543 -0.1663  2.0963  0.8971
  488SOL    HW2 1951   1.533   1.935   0.555 -1.2733 -1.4395 -1.1447
  488SOL     MW 1952   1.587   1.870   0.569  0.6013  0.1744 -0.0309
  489SOL     OW 1953   0.771   0.802   0.495 -0.1291  0.2458  0.5010
  489SOL    HW1 1954   0.817   0.720   0.468 -0.0563 -0.9914  0.2158
  489SOL    HW2 1955   0.775   0.792   0.589  1.7320 -0.2179  0.7112
  489SOL     MW 1956   0.778   0.790   0.504  0.1260  0.0214  0.4911
  490SOL     OW 1957   1.408   2.109   0.429 -0.0582 -0.0388  0.0625
  490SOL    HW1 1958   1.467   2.176   0.387  0.8681  1.6972 -0.9398
  490SOL    HW2 1959   1.323   2.144   0.436  2.0105  0.2956 -0.6171
  490SOL     MW 1960   1.405   2.122   0.425  0.3369  0.2344 -0.1594
  491SOL     OW 1961   1.197   2.973   0.420 -0.2713  0.2995  0.3585
  491SOL    HW1 1962   1.226   3.017   0.499 -2.3424  0.7692 -0.4840
  491SOL    HW2 1963   1.122   3.026   0.405 -1.3558 -0.4602  0.1441
  491SOL     MW 1964   1.191   2.986   0.428 -0.6876  0.2612  0.2191
  492SOL     OW 1965   1.506   2.135   0.697  1.1232 -0.0575  0.5519
  492SOL    HW1 1966   1.443   2.156   0.623 -1.1760  0.8108 -0.3770
  492SOL    HW2 1967   1.462   2.077   0.763 -0.0803 -0.1912  1.0381
  492SOL     MW 1968   1.492   2.130   0.696  0.6610  0.0394  0.4935
  493SOL     OW 1969   0.152   2.923   0.407 -0.5535 -0.6603  0.5428
  493SOL    HW1 1970   0.108   2.984   0.467 -0.2855 -0.4653 -1.0560
  493SOL    HW2 1971   0.175   2.971   0.323 -1.0684 -1.5348 -1.1597
  493SOL     MW 1972   0.149   2.937   0.404 -0.5860 -0.7499  0.1072
  494SOL     OW 1973   0.444   2.411   1.786  0.2161  0.1060 -0.4173
  494SOL    HW1 1974   0.427   2.313   1.808  1.4796 -0.8765  1.3786
  494SOL    HW2 1975   0.459   2.415   1.695 -1.6422  0.8899  1.9294
  494SOL     MW 1976   0.444   2.398   1.777  0.1376  0.0798  0.1292
  495SOL     OW 1977   2.917   1.645   2.717 -0.4613  0.2083 -0.1592
  495SOL    HW1 1978   2.916   1.723   2.770 -0.8395  1.6344 -1.8379
  495SOL    HW2 1979   2.897   1.567   2.766  0.5007  0.5957  0.4839
  495SOL     MW 1980   2.914   1.645   2.731 -0.3843  0.4476 -0.2958
  496SOL     OW 1981   2.831   2.297   2.645  0.8702  0.4805 -0.0681
  496SOL    HW1 1982   2.860   2.213   2.679  0.7732 -0.2048  3.0131
  496SOL    HW2 1983   2.910   2.349   2.651  2.1896  0.0179 -2.5726
  496SOL     MW 1984   2.845   2.293   2.651  1.0315  0.3291  0.0080
  497SOL     OW 1985   1.496   2.302   2.493 -0.1890 -0.0363  0.2896
  497SOL    HW1 1986   1.481   2.255   2.412  0.0126  1.3680  0.2756
  497SOL    HW2 1987   1.464   2.241   2.564  3.1720 -0.0000 -0.0528
  497SOL     MW 1988   1.490   2.288   2.492  0.2811  0.1538  0.2426
  498SOL     OW 1989   1.598   2.744   2.236  0.0603 -0.2558  0.5292
  498SOL    HW1 1990   1.622   2.667   2.176  1.4215 -1.9297  0.1296
  498SOL    HW2 1991   1.647   2.721   2.315 -2.2265  0.1616 -1.2337
  498SOL     MW 1992   1.608   2.730   2.238 -0.0618 -0.4216  0.2439
  499SOL     OW 1993   0.929   0.148   0.005  0.0213 -0.2033 -0.2524
  499SOL    HW1 1994   0.870   0.197   0.065  0.1804  2.5418 -0.8595
  499SOL    HW2 1995   0.901   0.061   0.014 -0.2328  0.0843  0.3792
  499SOL     MW 1996   0.917   0.143   0.014  0.0087  0.1968 -0.2492
  500SOL     OW 1997   1.029   2.445   2.790 -0.6676 -0.2175 -0.3457
  500SOL    HW1 1998   1.076   2.443   2.875 -1.8747 -3.7045 -0.3186
  500SOL    HW2 1999   0.976   2.522   2.797  3.2835  2.2698 -0.9121
  500SOL     MW 2000   1.028   2.455   2.802 -0.3055 -0.3494 -0.4169
  501SOL     OW 2001   1.735   2.221   3.072  0.1997  0.1149 -0.2336
  501SOL    HW1 2002   1.689   2.305   3.073  2.6545  0.3590 -0.5598
  501SOL    HW2 2003   1.821   2.240   3.110  0.3491 -0.0978 -1.2229
  501SOL     MW 2004   1.740   2.235   3.077  0.5433  0.1190 -0.4072
  502SOL     OW 2005   0.130   2.788   2.926 -0.5101 -0.0068  0.2991
  502SOL    HW1 2006   0.040   2.756   2.925 -2.0341  2.2433 -1.1431
  502SOL    HW2 2007   0.137   2.853   2.856  0.5311  1.5736 -1.1590
  502SOL     MW 2008   0.119   2.792   2.916 -0.5738  0.4986 -0.0835
  503SOL     OW 2009   1.152   2.612   2.079 -0.4810  0.1518 -0.6352
  503SOL    HW1 2010   1.208   2.589   1.997  1.6957  1.2172 -0.3760
  503SOL    HW2 2011   1.064   2.607   2.043 -0.3386 -1.0612  0.9243
  503SOL     MW 2012   1.148   2.608   2.063 -0.1750  0.1324 -0.3953
  504SOL     OW 2013   0.087   2.648   2.063  0.1246 -0.0149 -0.2857
  504SOL    HW1 2014   0.169   2.603   2.050  0.5156 -0.2898 -1.8975
  504SOL    HW2 2015   0.032   2.592   2.120 -0.6511 -0.1447 -0.5932
  504SOL     MW 2016   0.090   2.634   2.069  0.0739 -0.0683 -0.5389
  505SOL     OW 2017   1.639   2.679   2.735 -0.3286  0.1583 -0.2610
  505SOL    HW1 2018   1.670   2.694   2.640  1.4384  0.1445 -0.5126
  505SOL    HW2 2019   1.586   2.759   2.754  0.4540 -0.3154 -0.2754
  505SOL     MW 2020   1.636   2.692   2.725  0.0078  0.0940 -0.2961
  506SOL     OW 2021   1.596   0.039   2.844  0.6222  0.2000 -0.0443
  506SOL    HW1 2022   1.630  -0.001   2.929  2.7331  2.3551  2.7533
  506SOL    HW2 2023   1.656  -0.002   2.779  1.3529 -1.9796 -0.9551
  506SOL     MW 2024   1.608   0.028   2.847  0.9971  0.1968  0.2046
  507SOL     OW 2025   0.872   2.688   2.851 -0.0485  0.1900  0.2134
  507SOL    HW1 2026   0.878   2.748   2.779  2.5589 -1.1594  0.4776
  507SOL    HW2 2027   0.782   2.655   2.856  0.9250 -1.2636 -0.3695
  507SOL     MW 2028   0.861   2.691   2.842  0.4240 -0.1799  0.1714
  508SOL     OW 2029   1.250   2.116   2.529  0.0477  0.2108 -0.2033
  508SOL    HW1 2030   1.302   2.114   2.612  0.6501 -1.2067  1.7373
  508SOL    HW2 2031   1.180   2.177   2.540  3.0141 -1.3899  0.1916
  508SOL     MW 2032   1.247   2.124   2.542  0.5186 -0.1874  0.1048
  509SOL     OW 2033   0.610   2.621   2.807  0.5101  0.0031 -0.2708
  509SOL    HW1 2034   0.630   2.566   2.737 -0.9315  2.4268 -0.1509
  509SOL    HW2 2035   0.565   2.699   2.768  0.7715  1.5026 -0.9311
  509SOL     MW 2036   0.606   2.624   2.792  0.3544  0.5207 -0.3421
  510SOL     OW 2037   1.554   2.603   1.663  0.8541  0.1473 -0.3966
  510SOL    HW1 2038   1.555   2.704   1.651 -1.4633 -0.6699  0.5187
  510SOL    HW2 2039   1.471   2.585   1.718 -0.7270 -1.1720  3.4703
  510SOL     MW 2040   1.543   2.614   1.669  0.3397 -0.1346  0.2344
  511SOL     OW 2041   0.355   2.595   2.546  0.9801  0.2215 -0.2070
  511SOL    HW1 2042   0.445   2.584   2.576 -1.4107  1.5630 -0.1402
  511SOL    HW2 2043   0.361   2.582   2.448  1.0721  2.8542 -0.8740
  511SOL     MW 2044   0.367   2.592   2.537  0.6768  0.7459 -0.2862
  512SOL     OW 2045   1.014   2.027   2.887  0.1490  0.2625  0.0168
  512SOL    HW1 2046   0.948   2.076   2.937 -1.4616  2.2450 -1.6263
  512SOL    HW2 2047   1.056   1.954   2.937 -0.0156  1.8503  3.1639
  512SOL     MW 2048   1.011   2.024   2.900 -0.0852  0.7336  0.2153
  513SOL     OW 2049   1.700   2.463   2.199 -0.0121 -0.3212  0.4977
  513SOL    HW1 2050   1.785   2.498   2.155  3.4685  1.4415 -0.7754
  513SOL    HW2 2051   1.710   2.452   2.297 -0.1448 -0.5824  1.7578
  513SOL     MW 2052   1.712   2.466   2.206  0.4296 -0.1231  0.4960
  514SOL     OW 2053   0.223   2.380   2.656  0.5376  0.1425  0.0570
  514SOL    HW1 2054   0.283   2.458   2.642  0.8392  1.7701  0.7460
  514SOL    HW2 2055   0.253   2.347   2.740  2.0973  1.3575  1.1481
  514SOL     MW 2056   0.235   2.386   2.665  0.7832  0.5175  0.2918
  515SOL     OW 2057   1.073   2.018   1.914 -0.0436  0.8382  0.2279
  515SOL    HW1 2058   1.012   2.091   1.931 -1.2938  3.3486  2.6866
  515SOL    HW2 2059   1.137   2.020   1.983 -1.1682  2.0119 -1.9448
  515SOL     MW 2060   1.073   2.028   1.925 -0.3570  1.3243  0.2657
  516SOL     OW 2061   1.403   2.513   2.955  0.5113  0.0499 -0.0474
  516SOL    HW1 2062   1.399   2.496   2.859  1.6304 -0.9729 -0.4270
  516SOL    HW2 2063   1.312   2.506   2.980  0.9663 -2.9031  2.5182
  516SOL     MW 2064   1.391   2.510   2.946  0.7190 -0.4747  0.2410
  517SOL     OW 2065   0.615   2.379   2.264 -0.4959  0.7500  0.3836
  517SOL    HW1 2066   0.560   2.463   2.251  3.1079  2.8943 -2.0189
  517SOL    HW2 2067   0.551   2.306   2.229 -2.7131 -1.9488 -2.7899
  517SOL     MW 2068   0.599   2.380   2.257 -0.3130  0.6768 -0.3521
  518SOL     OW 2069   1.817   0.029   3.094  1.0156  0.2100 -0.2627
  518SOL    HW1 2070   1.785   0.101   3.151  0.1275 -0.3723  3.0976
  518SOL    HW2 2071   1.782  -0.052   3.130 -1.7861  0.9081  2.3366
  518SOL     MW 2072   1.808   0.028   3.106  0.5287  0.2253  0.5236
  519SOL     OW 2073   0.713   2.544   1.730 -0.0567 -0.2534  0.0736
  519SOL    HW1 2074   0.688   2.449   1.717 -2.6625 -1.9126 -1.6883
  519SOL    HW2 2075   0.629   2.578   1.761 -0.1434 -1.0411 -2.7841
  519SOL     MW 2076   0.699   2.536   1.733 -0.4119 -0.5763 -0.5359
  520SOL     OW 2077   1.210   2.200   2.950 -0.3177 -0.3570  0.2599
  520SOL    HW1 2078   1.145   2.133   2.909  1.4702 -0.9901 -2.0772
  520SOL    HW2 2079   1.260   2.150   3.023 -0.8404 -1.8760  0.0164
  520SOL     MW 2080   1.208   2.185   2.954 -0.1508 -0.6409 -0.0806
  521SOL     OW 2081   1.768   2.058   2.246 -0.0574 -0.1336  0.0372
  521SOL    HW1 2082   1.791   2.058   2.150  1.0880 -0.7810 -1.5461
  521SOL    HW2 2083   1.721   1.975   2.263  0.0020 -1.4081 -2.5350
  521SOL     MW 2084   1.765   2.047   2.236  0.1015 -0.3872 -0.5111
  522SOL     OW 2085   2.905   2.523   2.269 -0.1116  0.1598 -0.0968
  522SOL    HW1 2086   2.984   2.470   2.272  1.4445 -2.6974 -0.6039
  522SOL    HW2 2087   2.936   2.611   2.281  0.2185 -2.3367  0.0344
  522SOL     MW 2088   2.920   2.528   2.271  0.1373 -0.5466 -0.1464
  523SOL     OW 2089   0.905   1.518   2.142 -0.0655 -0.0819  0.1536
  523SOL    HW1 2090   0.869   1.550   2.054  1.0894 -0.1139 -1.1427
  523SOL    HW2 2091   0.876   1.427   2.131 -0.3460 -0.5219 -0.3847
  523SOL     MW 2092   0.897   1.510   2.129  0.0499 -0.1442 -0.0885
  524SOL     OW 2093   0.606   2.384   2.939 -0.3149  0.4728 -0.0496
  524SOL    HW1 2094   0.615   2.469   2.894  2.8090  0.4952 -0.9436
  524SOL    HW2 2095   0.690   2.344   2.944  1.2420  0.7032 -0.0276
  524SOL     MW 2096   0.618   2.390   2.934  0.3027  0.5061 -0.1647
  525SOL     OW 2097   0.466   2.191   2.126 -0.1040  0.1375  0.3760
  525SOL    HW1 2098   0.440   2.111   2.184 -0.0485 -3.4129  0.4563
  525SOL    HW2 2099   0.544   2.167   2.070 -1.0699 -0.7816  1.4708
  525SOL     MW 2100   0.473   2.177   2.126 -0.2241 -0.4522  0.5311
  526SOL     OW 2101   0.693   2.140   1.986 -0.0261 -0.6332  0.3637
  526SOL    HW1 2102   0.699   2.168   1.887  0.5431  0.3435  1.2202
  526SOL    HW2 2103   0.747   2.200   2.044 -1.9427 -1.4006 -1.8653
  526SOL     MW 2104   0.701   2.152   1.981 -0.2039 -0.6056  0.1826
  527SOL     OW 2105   1.307   1.915   2.064  0.6051  0.2580  0.5162
  527SOL    HW1 2106   1.299   1.860   2.143  0.7063  2.2076 -0.1186
  527SOL    HW2 2107   1.323   1.862   1.989 -1.7503 -0.1164 -0.6579
  527SOL     MW 2108   1.308   1.901   2.065  0.3077  0.4658  0.2775
  528SOL     OW 2109   0.663   2.936   2.929  0.5776  0.0020 -0.1687
  528SOL    HW1 2110   0.654   3.033   2.927 -0.4344 -0.1070 -0.0294
  528SOL    HW2 2111   0.639   2.909   2.834  2.3455 -0.7757 -1.7635
  528SOL     MW 2112   0.658   2.945   2.916  0.6774 -0.1150 -0.3607
  529SOL     OW 2113   0.941   2.309   1.893 -0.7007  0.6104  0.0768
  529SOL    HW1 2114   0.980   2.290   1.975 -1.4280  1.2677 -1.9504
  529SOL    HW2 2115   1.020   2.358   1.854  2.0129 -1.5645  1.1450
  529SOL     MW 2116   0.956   2.313   1.899 -0.4387  0.4102 -0.0497
  530SOL     OW 2117   1.138   2.449   3.043 -0.1837  0.4029  0.9668
  530SOL    HW1 2118   1.055   2.475   3.074 -2.0070 -3.2927 -1.9709
  530SOL    HW2 2119   1.128   2.352   3.037  1.7112  1.0658 -1.2800
  530SOL     MW 2120   1.126   2.440   3.046 -0.1743  0.0028  0.2827
  531SOL     OW 2121   0.945   1.907   2.652  0.8448  0.0802  0.0282
  531SOL    HW1 2122   0.951   1.950   2.740  0.5393 -0.0051 -0.3976
  531SOL    HW2 2123   0.918   1.812   2.663  1.3299 -2.6784 -1.7738
  531SOL     MW 2124   0.942   1.900   2.665  0.8685 -0.2951 -0.2657
  532SOL     OW 2125   1.699   0.279   2.828 -0.0077 -0.3345  0.5458
  532SOL    HW1 2126   1.681   0.189   2.838  0.8286  2.1901  0.8753
  532SOL    HW2 2127   1.791   0.289   2.872  1.9597  0.5227 -1.7272
  532SOL     MW 2128   1.709   0.269   2.835  0.3622  0.1117  0.2894
  533SOL     OW 2129   1.803   2.649   2.989  0.6777 -0.2933  0.5095
  533SOL    HW1 2130   1.737   2.615   3.053 -2.1765  0.2996 -2.1257
  533SOL    HW2 2131   1.761   2.641   2.901 -0.3207  2.5446 -1.9653
  533SOL     MW 2132   1.789   2.643   2.986  0.1694  0.1594 -0.1647
  534SOL     OW 2133   1.749   2.405   2.467  0.5155 -0.2217 -0.2429
  534SOL    HW1 2134   1.681   2.347   2.497 -0.7571 -2.2957 -2.6192
  534SOL    HW2 2135   1.818   2.383   2.539  0.0384  0.0430 -2.2335
  534SOL     MW 2136   1.749   2.395   2.481  0.2847 -0.4604 -0.8191
  535SOL     OW 2137   1.830   2.332   1.930 -0.0264 -0.3035  0.8558
  535SOL    HW1 2138   1.765   2.363   1.867 -0.4760 -0.6450  2.8114
  535SOL    HW2 2139   1.912   2.353   1.882  1.0215  0.1049 -1.0159
  535SOL     MW 2140   1.832   2.339   1.916  0.0526 -0.2947  0.8669
  536SOL     OW 2141   0.463   1.809   2.012  0.5267  0.6011  0.5131
  536SOL    HW1 2142   0.494   1.801   1.925 -1.3892  0.4042  1.4144
  536SOL    HW2 2143   0.540   1.841   2.059 -0.2495  0.6162 -1.1455
  536SOL     MW 2144   0.477   1.812   2.007  0.1715  0.5771  0.4132
  537SOL     OW 2145   1.103   0.180   2.895  0.5952 -0.4798 -0.2772
  537SOL    HW1 2146   1.037   0.168   2.961  0.7683  1.2256  0.3034
  537SOL    HW2 2147   1.104   0.269   2.872  0.0306  1.6474  0.9728
  537SOL     MW 2148   1.095   0.190   2.901  0.5435  0.0259 -0.0357
  538SOL     OW 2149   1.323   0.022   2.976  0.5252  0.5769 -0.1775
  538SOL    HW1 2150   1.250   0.086   2.963 -2.2490 -0.3435  1.4429
  538SOL    HW2 2151   1.396   0.060   2.932 -1.0743  3.4378 -0.6517
  538SOL     MW 2152   1.323   0.035   2.968 -0.0519  0.8329 -0.0263
  539SOL     OW 2153   0.779   2.742   2.501 -0.0477  0.2972  0.1840
  539SOL    HW1 2154   0.855   2.785   2.540 -1.2793  1.2832  0.9207
  539SOL    HW2 2155   0.795   2.650   2.505 -1.1210 -1.3145 -1.3673
  539SOL     MW 2156   0.791   2.735   2.507 -0.3518  0.2147  0.0765
  540SOL     OW 2157   0.343   2.251   2.898  0.1853  0.2398  0.4691
  540SOL    HW1 2158   0.436   2.277   2.896 -0.2900  0.3330 -2.8120
  540SOL    HW2 2159   0.317   2.252   2.988  1.1414 -1.5582 -0.4948
  540SOL     MW 2160   0.352   2.254   2.909  0.2487  0.0148 -0.0910
  541SOL     OW 2161   0.144   2.904   2.199 -0.0190  0.3910  0.3926
  541SOL    HW1 2162   0.142   2.831   2.136 -0.4799  0.0486  1.8532
  541SOL    HW2 2163   0.194   2.868   2.279 -1.9092 -0.0470  1.5131
  541SOL     MW 2164   0.151   2.889   2.201 -0.3292  0.2881  0.7331
  542SOL     OW 2165   0.990   2.235   2.622  0.7421  0.7030 -0.8202
  542SOL    HW1 2166   0.946   2.155   2.662  1.6175  1.1220 -1.3001
  542SOL    HW2 2167   1.000   2.301   2.693  0.9223  0.7361  1.6528
  542SOL     MW 2168   0.986   2.234   2.636  0.8814  0.7627 -0.5573
  543SOL     OW 2169   1.430   2.509   2.678 -0.3695  0.2749  0.4322
  543SOL    HW1 2170   1.452   2.442   2.613 -0.3778 -2.2182 -2.0564
  543SOL    HW2 2171   1.506   2.568   2.691  1.4282  0.5840 -1.1152
  543SOL     MW 2172   1.443   2.508   2.671 -0.1334 -0.0133 -0.1003
  544SOL     OW 2173   0.570   0.223   2.718  0.1246  0.2813 -0.6999
  544SOL    HW1 2174   0.467   0.220   2.724  1.3554 -0.3282  1.1121
  544SOL    HW2 2175   0.589   0.191   2.632 -2.7651 -0.6919  0.0295
  544SOL     MW 2176   0.559   0.218   2.708 -0.0943  0.0725 -0.3646
  545SOL     OW 2177   1.505   2.164   2.256  0.1262  0.0186  0.0543
  545SOL    HW1 2178   1.476   2.201   2.173 -1.1735 -0.3579  0.5656
  545SOL    HW2 2179   1.605   2.145   2.257  1.5871  0.2844  1.6183
  545SOL     MW 2180   1.514   2.166   2.245  0.1474  0.0040  0.3281
  546SOL     OW 2181   2.971   2.025   0.120 -0.1265  0.4545  0.1972
  546SOL    HW1 2182   2.974   2.111   0.073 -0.9943  3.9167  1.0966
  546SOL    HW2 2183   3.046   1.974   0.089 -1.2522 -1.3370  1.1786
  546SOL     MW 2184   2.981   2.030   0.110 -0.3895  0.6749  0.4453
  547SOL     OW 2185   0.203   3.003   0.164  0.7903 -0.0407 -1.1973
  547SOL    HW1 2186   0.241   3.052   0.094 -0.9064 -0.4252  1.6248
  547SOL    HW2 2187   0.227   2.912   0.134  3.1088 -1.8689 -0.9793
  547SOL     MW 2188   0.211   2.997   0.151  0.8724 -0.3326 -0.7962
  548SOL     OW 2189   0.308   2.535   0.271 -0.0478  0.0131 -0.5899
  548SOL    HW1 2190   0.340   2.589   0.201 -1.7556 -0.0156  1.2843
  548SOL    HW2 2191   0.239   2.484   0.237  1.6936  0.9947  1.4875
  548SOL     MW 2192   0.303   2.535   0.257 -0.0434  0.1388 -0.0685
  549SOL     OW 2193   0.714   1.882   2.076 -0.0094 -0.1752 -0.2808
  549SOL    HW1 2194   0.718   1.971   2.044  1.5178 -2.7624 -1.3217
  549SOL    HW2 2195   0.710   1.885   2.173  2.5688  0.8538  1.7177
  549SOL     MW 2196   0.714   1.894   2.085  0.5323 -0.3808 -0.1545
  550SOL     OW 2197   1.834   1.761   2.530 -0.4075 -0.0417 -0.6486
  550SOL    HW1 2198   1.806   1.756   2.437  0.4701  0.9354  0.5674
  550SOL    HW2 2199   1.843   1.854   2.540  0.0663 -3.7859  2.1450
  550SOL     MW 2200   1.831   1.772   2.519 -0.2292 -0.4068 -0.1195
  551SOL     OW 2201   0.865   2.345   0.195 -0.0469  0.0663  0.2414
  551SOL    HW1 2202   0.956   2.362   0.197 -1.3500  1.2230 -0.0446
  551SOL    HW2 2203   0.848   2.263   0.145 -1.2625  1.5626 -0.9547
  551SOL     MW 2204   0.875   2.336   0.189 -0.3792  0.4163  0.0459
  552SOL     OW 2205   1.739   1.759   2.248 -0.3079  0.0865 -0.2586
  552SOL    HW1 2206   1.645   1.726   2.260 -1.3614  2.0613 -1.4794
  552SOL    HW2 2207   1.773   1.714   2.159  0.5647 -3.7200 -4.1612
  552SOL     MW 2208   1.731   1.749   2.238 -0.3318 -0.1552 -0.9346
  553SOL     OW 2209   1.242   2.321   1.502 -0.2728  0.1095 -0.3204
  553SOL    HW1 2210   1.292   2.236   1.495 -2.2688 -2.2771  0.7572
  553SOL    HW2 2211   1.301   2.393   1.469 -0.1315  2.1154 -0.9402
  553SOL     MW 2212   1.257   2.320   1.497 -0.5175  0.0593 -0.2600
  554SOL     OW 2213   0.588   2.864   2.674 -0.4278  0.3921  0.0326
  554SOL    HW1 2214   0.532   2.931   2.627 -1.1110 -0.9000  2.7787
  554SOL    HW2 2215   0.664   2.846   2.615  0.2819  2.3864  0.5032
  554SOL     MW 2216   0.590   2.870   2.660 -0.4243  0.4848  0.4570
  555SOL     OW 2217   0.596   2.471   2.586  0.1758  0.6254  0.2078
  555SOL    HW1 2218   0.567   2.380   2.569  0.4663 -2.5647 -2.9017
  555SOL    HW2 2219   0.675   2.480   2.527  3.2145 -2.6266 -3.6826
  555SOL     MW 2220   0.603   2.460   2.576  0.6151 -0.2246 -0.7158
  556SOL     OW 2221   0.933   1.795   0.167 -0.2717 -0.3256  0.0695
  556SOL    HW1 2222   0.940   1.763   0.077  0.0264 -4.1038 -0.0854
  556SOL    HW2 2223   1.024   1.830   0.188  1.2427 -0.3984  0.0470
  556SOL     MW 2224   0.946   1.795   0.158 -0.0326 -0.8337  0.0461
  557SOL     OW 2225   0.919   2.694   0.506  0.8124  0.6843 -0.0431
  557SOL    HW1 2226   0.966   2.670   0.426 -0.1995 -1.5088 -1.3865
  557SOL    HW2 2227   0.856   2.758   0.472 -3.3124  2.0865 -1.4858
  557SOL     MW 2228   0.917   2.699   0.491  0.1347  0.5800 -0.4107
  558SOL     OW 2229   0.255   2.192   0.053 -0.1720 -0.7842 -0.3412
  558SOL    HW1 2230   0.211   2.110   0.053 -1.6437  0.2036 -0.4246
  558SOL    HW2 2231   0.194   2.246   0.103  3.5692  0.5641  4.7344
  558SOL     MW 2232   0.241   2.188   0.059  0.1274 -0.4760  0.3174
  559SOL     OW 2233   1.136   2.300   2.105 -0.3690 -0.0007 -0.1667
  559SOL    HW1 2234   1.189   2.367   2.146  0.5102  2.3878  0.2549
  559SOL    HW2 2235   1.124   2.226   2.170 -1.7105 -3.5589  0.3347
  559SOL     MW 2236   1.141   2.299   2.119 -0.4300 -0.1550 -0.0449
  560SOL     OW 2237   1.926   2.818   0.049 -0.3613  0.5949 -0.4160
  560SOL    HW1 2238   2.005   2.865   0.019  2.1128  2.4774  2.2964
  560SOL    HW2 2239   1.888   2.762  -0.022 -0.9796  2.0153 -1.6616
  560SOL     MW 2240   1.932   2.816   0.035 -0.1165  1.0307 -0.2225
  561SOL     OW 2241   0.451   2.109   0.239  0.2534  0.5525 -0.2966
  561SOL    HW1 2242   0.397   2.143   0.164 -0.0974  2.2383  0.4532
  561SOL    HW2 2243   0.505   2.191   0.264 -2.8408 -3.1832 -1.0329
  561SOL     MW 2244   0.451   2.125   0.232 -0.2011  0.2821 -0.2948
  562SOL     OW 2245   0.842   2.195   2.216  0.5260 -0.5525  0.2006
  562SOL    HW1 2246   0.832   2.282   2.251 -0.6140  0.4483  0.5581
  562SOL    HW2 2247   0.927   2.156   2.244  1.2136 -1.4478  1.7530
  562SOL     MW 2248   0.852   2.202   2.225  0.4663 -0.5386  0.4526
  563SOL     OW 2249   1.156   0.318   0.609 -0.6240  0.0264  0.3407
  563SOL    HW1 2250   1.120   0.320   0.521 -0.0917  0.6782  0.1236
  563SOL    HW2 2251   1.197   0.234   0.623 -0.4600  0.9385  0.3343
  563SOL     MW 2252   1.157   0.307   0.599 -0.5321  0.2328  0.3112
  564SOL     OW 2253   1.096   2.535   2.337 -0.1538 -0.1939 -0.1195
  564SOL    HW1 2254   1.132   2.565   2.247 -0.1791  0.4504 -0.6295
  564SOL    HW2 2255   1.134   2.596   2.408  0.5221 -0.3732 -0.5118
  564SOL     MW 2256   1.106   2.547   2.334 -0.0679 -0.1325 -0.2386
  565SOL     OW 2257   2.878   2.658   2.585 -0.2240  0.5663 -0.2856
  565SOL    HW1 2258   2.942   2.738   2.574  0.1947  1.4587  3.8119
  565SOL    HW2 2259   2.808   2.661   2.523 -0.8832 -2.1193  1.3939
  565SOL     MW 2260   2.878   2.669   2.575 -0.2557  0.3297  0.4766
  566SOL     OW 2261   2.179   1.866   2.410 -0.2742 -0.7480  0.3598
  566SOL    HW1 2262   2.144   1.820   2.334 -1.7227 -0.1203  0.1220
  566SOL    HW2 2263   2.242   1.936   2.379 -0.5955 -0.6977  0.9666
  566SOL     MW 2264   2.183   1.869   2.396 -0.5077 -0.6585  0.4085
  567SOL     OW 2265   1.136   2.950   3.066  0.2663  0.4325 -0.4898
  567SOL    HW1 2266   1.195   3.018   3.049 -2.3571 -1.0144 -1.4312
  567SOL    HW2 2267   1.152   2.883   2.997  0.3308  0.2953 -1.3521
  567SOL     MW 2268   1.146   2.950   3.055 -0.0713  0.2235 -0.7278
  568SOL     OW 2269   1.595   2.023   2.929 -0.8113  0.3609  0.2536
  568SOL    HW1 2270   1.635   2.101   2.965 -1.1299 -0.7948 -0.1967
  568SOL    HW2 2271   1.661   2.011   2.859  1.8353  0.0420 -1.3306
  568SOL     MW 2272   1.609   2.031   2.924 -0.5041  0.1663 -0.0148
  569SOL     OW 2273   0.218   2.225   2.441 -0.1318  0.5464  0.2704
  569SOL    HW1 2274   0.168   2.263   2.360 -0.6853 -0.4587 -0.5339
  569SOL    HW2 2275   0.212   2.302   2.503 -1.5528 -0.2545  0.9588
  569SOL     MW 2276   0.210   2.240   2.438 -0.3923  0.3081  0.2551
  570SOL     OW 2277   1.483   0.433   0.484  0.1385 -0.5351 -0.4296
  570SOL    HW1 2278   1.413   0.481   0.522  2.6002  1.7784 -1.4808
  570SOL    HW2 2279   1.564   0.435   0.545 -0.1406 -1.5503  2.4664
  570SOL     MW 2280   1.484   0.439   0.497  0.4265 -0.3638 -0.1862
  571SOL     OW 2281   1.491   2.424   1.999  0.1365 -0.1794  0.1143
  571SOL    HW1 2282   1.560   2.441   2.063  1.0435 -2.3890  1.2753
  571SOL    HW2 2283   1.483   2.332   1.991 -1.6307  2.2868 -1.2579
  571SOL     MW 2284   1.499   2.414   2.007  0.0230 -0.1456  0.0865
  572SOL     OW 2285   0.931   2.654   0.058  0.4548 -0.5867 -0.6880
  572SOL    HW1 2286   0.925   2.711  -0.020  1.0045 -0.3735  0.4191
  572SOL    HW2 2287   0.845   2.614   0.067 -0.1585 -0.9032  0.2265
  572SOL     MW 2288   0.919   2.656   0.049  0.4464 -0.6003 -0.4213
  573SOL     OW 2289   1.154   2.370   0.258  0.5596 -0.4198 -0.1114
  573SOL    HW1 2290   1.238   2.377   0.205 -1.9299  0.7595  0.4860
  573SOL    HW2 2291   1.127   2.461   0.280  1.0847  2.5396  1.3048
  573SOL     MW 2292   1.162   2.383   0.254  0.3004  0.1262  0.1543
  574SOL     OW 2293   1.049   2.610   0.291 -0.4478  0.3295 -0.2341
  574SOL    HW1 2294   1.132   2.666   0.306  1.6070 -0.2822  0.8527
  574SOL    HW2 2295   1.007   2.644   0.211  1.2955  0.4646 -0.8924
  574SOL     MW 2296   1.055   2.622   0.282  0.0533  0.2666 -0.1776
  575SOL     OW 2297   3.073   2.307   1.797  0.1998  0.6485 -0.0040
  575SOL    HW1 2298   3.059   2.231   1.739 -1.7752 -0.7780 -0.9597
  575SOL    HW2 2299   3.148   2.350   1.755 -0.7990  0.3357  0.5042
  575SOL     MW 2300   3.081   2.303   1.784 -0.1926  0.4190 -0.0631
  576SOL     OW 2301   2.821   1.817   2.017  0.7970 -0.9582  0.5132
  576SOL    HW1 2302   2.863   1.897   1.981 -0.3163  0.6356 -2.2724
  576SOL    HW2 2303   2.731   1.840   1.988  1.0003  0.1885 -2.1802
  576SOL     MW 2304   2.815   1.830   2.008  0.6770 -0.5966 -0.2097
  577SOL     OW 2305   2.122   0.304   0.081  0.9546 -0.2399 -0.3838
  577SOL    HW1 2306   2.063   0.325   0.010  0.4981  0.4421  2.1153
  577SOL    HW2 2307   2.067   0.265   0.149 -3.7198 -1.2902  0.4105
  577SOL     MW 2308   2.107   0.302   0.081  0.2776 -0.2885  0.0507
  578SOL     OW 2309   1.953   2.025   2.463 -0.7037  0.6198 -0.4235
  578SOL    HW1 2310   1.908   2.041   2.379 -0.3108 -1.7692  2.3000
  578SOL    HW2 2311   2.028   1.971   2.439 -3.2244 -1.6746 -0.6638
  578SOL     MW 2312   1.957   2.020   2.449 -0.9845  0.0018 -0.0959
  579SOL     OW 2313   0.870   2.472   2.504 -0.6582 -0.0788  0.2987
  579SOL    HW1 2314   0.878   2.385   2.540  0.3280 -0.0798  1.5457
  579SOL    HW2 2315   0.951   2.479   2.449  0.5842  3.3903  1.6799
  579SOL     MW 2316   0.882   2.462   2.501 -0.3642  0.3788  0.6454
  580SOL     OW 2317   0.862   2.990   0.018 -0.3807  0.3498 -0.6566
  580SOL    HW1 2318   0.947   2.957  -0.017  1.0860 -0.5753  1.7305
  580SOL    HW2 2319   0.806   2.975  -0.061  0.5310  0.4437 -0.8926
  580SOL     MW 2320   0.866   2.983   0.003 -0.0669  0.2401 -0.3728
  581SOL     OW 2321   1.133   2.444   1.746  0.7568  0.5377 -0.6535
  581SOL    HW1 2322   1.196   2.511   1.782 -0.4229  0.8057 -0.9429
  581SOL    HW2 2323   1.179   2.394   1.679  0.6567 -3.0805  2.6808
  581SOL     MW 2324   1.148   2.446   1.742  0.5880  0.0957 -0.2518
  582SOL     OW 2325  -0.003   2.857   2.516  0.2196  0.6308  0.1796
  582SOL    HW1 2326  -0.011   2.935   2.576 -1.1639 -0.6878 -0.7478
  582SOL    HW2 2327   0.088   2.847   2.488  0.4481  2.8529 -1.4941
  582SOL     MW 2328   0.008   2.866   2.520  0.0672  0.7500 -0.1636
  583SOL     OW 2329   1.962   2.414   2.664  0.4082 -0.2163  0.1739
  583SOL    HW1 2330   2.034   2.436   2.603  3.6060 -1.5776  3.0505
  583SOL    HW2 2331   1.973   2.321   2.700  0.4609  0.0922 -0.8686
  583SOL     MW 2332   1.973   2.404   2.660  0.8371 -0.3552  0.4159
  584SOL     OW 2333   0.217   1.899   2.063 -0.0794 -0.0971  0.8481
  584SOL    HW1 2334   0.305   1.867   2.047  2.4308  2.3216 -0.5499
  584SOL    HW2 2335   0.234   1.913   2.157  2.4554  3.0292  2.5281
  584SOL     MW 2336   0.231   1.897   2.073  0.5863  0.6345  0.8853
  585SOL     OW 2337   1.453   2.667   0.078 -0.4823 -0.3463  0.2037
  585SOL    HW1 2338   1.437   2.633  -0.008 -0.4012 -0.8386 -2.2977
  585SOL    HW2 2339   1.372   2.683   0.121  2.2757 -0.1056  1.2194
  585SOL     MW 2340   1.440   2.664   0.072 -0.1077 -0.3795  0.0077
  586SOL     OW 2341   1.386   2.828   2.441  0.5222 -0.1762  0.4392
  586SOL    HW1 2342   1.462   2.834   2.384  0.5072  0.0335  2.3938
  586SOL    HW2 2343   1.396   2.903   2.496 -0.3202  3.6495  1.2856
  586SOL     MW 2344   1.397   2.838   2.441  0.4091  0.3562  0.8087
  587SOL     OW 2345   1.288   1.586   2.152  0.2628  0.4839  0.6225
  587SOL    HW1 2346   1.275   1.498   2.197  0.2407  1.3723  0.8475
  587SOL    HW2 2347   1.290   1.559   2.059  0.6215  0.3406  2.8910
  587SOL     MW 2348   1.287   1.571   2.145  0.3072  0.5822  0.9515
  588SOL     OW 2349   1.409   2.156   2.758 -0.0168 -0.2602 -0.1355
  588SOL    HW1 2350   1.461   2.082   2.789 -0.8104 -1.0030  2.9240
  588SOL    HW2 2351   1.353   2.172   2.834 -1.1916 -2.6320  2.6636
  588SOL     MW 2352   1.408   2.149   2.772 -0.2765 -0.6711  0.6375
  589SOL     OW 2353   1.318   2.086   0.072 -0.7381 -0.4748  0.0739
  589SOL    HW1 2354   1.353   2.159   0.122 -1.1959 -1.9866  2.7183
  589SOL    HW2 2355   1.268   2.032   0.136 -1.3580 -0.3492 -1.5022
  589SOL     MW 2356   1.316   2.088   0.087 -0.8803 -0.6577  0.2149
  590SOL     OW 2357   0.422   2.583   2.274  0.2295  0.5072 -0.1422
  590SOL    HW1 2358   0.394   2.581   2.176  1.2564  1.9842 -0.9623
  590SOL    HW2 2359   0.477   2.662   2.276 -1.0679  1.2418  1.2444
  590SOL     MW 2360   0.426   2.593   2.261  0.1938  0.7990 -0.0675
  591SOL     OW 2361   2.274   0.724   3.080 -0.2050  0.3167 -0.5992
  591SOL    HW1 2362   2.224   0.805   3.102  1.5531  4.3284 -0.3513
  591SOL    HW2 2363   2.346   0.756   3.033 -1.9789  1.0087  0.3343
  591SOL     MW 2364   2.277   0.739   3.077 -0.2071  0.9373 -0.4433
  592SOL     OW 2365   1.833   2.962   0.820 -0.9106 -0.6722  0.3609
  592SOL    HW1 2366   1.810   3.015   0.744 -1.4018  0.2776  0.5696
  592SOL    HW2 2367   1.882   2.886   0.789 -1.2061  1.1190  2.7562
  592SOL     MW 2368   1.836   2.959   0.806 -1.0144 -0.3106  0.7045
  593SOL     OW 2369   1.899   0.739   0.856 -0.5834 -0.7773  0.3824
  593SOL    HW1 2370   1.816   0.728   0.806 -1.9704 -0.7455 -0.1964
  593SOL    HW2 2371   1.925   0.655   0.897  2.9118 -0.3984 -1.5116
  593SOL     MW 2372   1.891   0.727   0.855 -0.3052 -0.7231  0.0561
  594SOL     OW 2373   2.764   1.161   1.384  0.1390  0.2918 -0.6559
  594SOL    HW1 2374   2.858   1.170   1.404 -1.1119  1.8393 -0.7286
  594SOL    HW2 2375   2.753   1.114   1.301  0.7616 -2.1181  0.0311
  594SOL     MW 2376   2.775   1.156   1.376  0.0561  0.1780 -0.5748
  595SOL     OW 2377   0.507   0.935   0.744  0.5635  0.5108 -0.0151
  595SOL    HW1 2378   0.514   1.010   0.687 -0.7621 -1.6164  0.7103
  595SOL    HW2 2379   0.495   0.969   0.835  1.2231  1.3503  1.0812
  595SOL     MW 2380   0.507   0.949   0.749  0.4756  0.3409  0.2253
  596SOL     OW 2381   2.500   1.347   0.508  0.9816  0.0440  0.1754
  596SOL    HW1 2382   2.526   1.422   0.460 -1.0433 -2.7701 -0.2657
  596SOL    HW2 2383   2.562   1.326   0.577 -0.1768 -2.0937 -0.0860
  596SOL     MW 2384   2.511   1.354   0.511  0.5616 -0.6094  0.0827
  597SOL     OW 2385   2.177   0.685   1.609  0.0417  0.0061 -0.2366
  597SOL    HW1 2386   2.226   0.618   1.654  0.4130  1.8425 -0.7756
  597SOL    HW2 2387   2.099   0.633   1.578 -2.3093  0.5967  0.3244
  597SOL     MW 2388   2.173   0.669   1.611 -0.2195  0.3263 -0.2337
  598SOL     OW 2389   2.595   0.989   2.896 -0.3282 -0.4396 -0.6174
  598SOL    HW1 2390   2.610   0.959   2.812 -1.2406 -1.5289  3.4540
  598SOL    HW2 2391   2.672   1.021   2.937  0.3951  0.0274  0.7506
  598SOL     MW 2392   2.607   0.989   2.891 -0.3531 -0.5217  0.1003
  599SOL     OW 2393   2.911   0.405   2.082 -0.0351  0.2547  0.1929
  599SOL    HW1 2394   2.903   0.405   2.177  0.6235 -0.6020 -0.5153
  599SOL    HW2 2395   2.963   0.490   2.061 -0.3950  2.2035  0.0401
  599SOL     MW 2396   2.917   0.416   2.092  0.0043  0.3987  0.0793
  600SOL     OW 2397   1.909   1.764   0.884  0.2019 -0.1620  0.0017
  600SOL    HW1 2398   1.938   1.807   0.968 -1.5270  2.5700 -0.0720
  600SOL    HW2 2399   1.828   1.810   0.857  2.9231 -0.8050  1.3501
  600SOL     MW 2400   1.902   1.776   0.892  0.3329  0.1136  0.1699
  601SOL     OW 2401   2.510   0.807   0.835 -0.0792  0.1818 -0.1766
  601SOL    HW1 2402   2.509   0.828   0.932 -0.3125  0.4560  2.7834
  601SOL    HW2 2403   2.454   0.724   0.817 -0.1358 -0.2899 -1.8335
  601SOL     MW 2404   2.503   0.799   0.845 -0.1175  0.1557 -0.0046
  602SOL     OW 2405   2.302   1.967   0.833 -0.4674 -0.1842 -0.3723
  602SOL    HW1 2406   2.261   1.887   0.873 -2.1298 -0.1359  1.0677
  602SOL    HW2 2407   2.232   2.005   0.777 -1.5267  1.3395 -1.9846
  602SOL     MW 2408   2.287   1.962   0.831 -0.8265  0.0232 -0.3951
  603SOL     OW 2409   3.081   1.378   1.802 -0.3678  0.0527  0.6097
  603SOL    HW1 2410   3.085   1.429   1.884 -0.3671 -2.1699  0.8701
  603SOL    HW2 2411   3.096   1.287   1.825 -0.1448 -1.6921  0.8345
  603SOL     MW 2412   3.083   1.372   1.816 -0.3383 -0.4708  0.6737
  604SOL     OW 2413   2.111   1.549   0.463  0.3083  0.0529  0.4315
  604SOL    HW1 2414   2.127   1.483   0.527 -1.8605 -0.3664 -1.5748
  604SOL    HW2 2415   2.047   1.602   0.507  4.2183 -3.2572 -1.4033
  604SOL     MW 2416   2.105   1.548   0.477  0.5380 -0.4391 -0.0753
  605SOL     OW 2417   2.650   1.528   0.841 -0.1324 -0.2693 -0.4544
  605SOL    HW1 2418   2.589   1.589   0.794  0.7849  1.7243  0.8663
  605SOL    HW2 2419   2.658   1.445   0.792  2.1377  0.3946  0.1212
  605SOL     MW 2420   2.643   1.526   0.829  0.2882  0.0813 -0.2042
  606SOL     OW 2421   2.576   1.851   1.901 -0.0691  0.7294  0.1384
  606SOL    HW1 2422   2.481   1.839   1.907  1.0262 -2.1805  2.3129
  606SOL    HW2 2423   2.615   1.770   1.865  0.8008 -0.1203  1.5247
  606SOL     MW 2424   2.569   1.839   1.897  0.1902  0.2333  0.6082
  607SOL     OW 2425   2.356   1.041   3.042 -0.4529  0.0316 -0.2928
  607SOL    HW1 2426   2.448   1.036   3.014  0.1132 -1.1559  1.6017
  607SOL    HW2 2427   2.360   1.020   3.141  2.2354 -0.5970  0.9173
  607SOL     MW 2428   2.369   1.038   3.052 -0.0235 -0.2080  0.1168
  608SOL     OW 2429   1.910   0.297   0.617  0.0685 -0.1848  0.1409
  608SOL    HW1 2430   1.903   0.348   0.533 -4.5584 -1.1833  0.2042
  608SOL    HW2 2431   1.859   0.215   0.600 -0.8505  2.0571  1.9281
  608SOL     MW 2432   1.902   0.293   0.604 -0.6632 -0.0208  0.3850
  609SOL     OW 2433   2.094   1.992   3.047 -0.1192  0.5867  0.2194
  609SOL    HW1 2434   2.017   1.940   3.016 -0.6173  1.3181 -1.0049
  609SOL    HW2 2435   2.120   1.946   3.129  1.7885  0.3603  0.0219
  609SOL     MW 2436   2.087   1.979   3.053  0.0668  0.6533  0.0318
  610SOL     OW 2437   1.783   1.020   1.246 -0.5428 -0.4375  0.5099
  610SOL    HW1 2438   1.789   0.928   1.223 -1.6096  0.7962 -0.2072
  610SOL    HW2 2439   1.688   1.027   1.266  1.7503  0.2824 -0.9852
  610SOL     MW 2440   1.771   1.009   1.246 -0.3810 -0.1798  0.2181
  611SOL     OW 2441   2.504   1.746   0.700  0.7059  0.1613 -0.1064
  611SOL    HW1 2442   2.434   1.806   0.713  0.2486 -0.1752 -0.1029
  611SOL    HW2 2443   2.495   1.730   0.608 -4.4578  3.7569 -0.5829
  611SOL     MW 2444   2.494   1.752   0.689 -0.0358  0.5914 -0.1688
  612SOL     OW 2445   2.810   2.838   0.395  0.0001 -0.0366 -0.4190
  612SOL    HW1 2446   2.830   2.871   0.483  0.3693 -1.0346  0.0546
  612SOL    HW2 2447   2.896   2.838   0.349  0.1102 -1.8375 -1.0135
  612SOL     MW 2448   2.824   2.842   0.400  0.0633 -0.4059 -0.4349
  613SOL     OW 2449   1.482   0.986   0.949  0.0322  0.0053 -0.4692
  613SOL    HW1 2450   1.520   1.072   0.941 -1.0665  1.5921 -0.5343
  613SOL    HW2 2451   1.485   0.973   1.048 -1.5164  0.0866  0.0906
  613SOL     MW 2452   1.487   0.996   0.961 -0.3171  0.2254 -0.4039
  614SOL     OW 2453   1.972   0.536   1.505  0.1579 -0.2898  0.0391
  614SOL    HW1 2454   1.978   0.448   1.541 -0.5629  0.5771 -1.3198
  614SOL    HW2 2455   1.964   0.540   1.409  1.0898  1.2141 -0.3294
  614SOL     MW 2456   1.972   0.525   1.497  0.1857  0.0230 -0.1888
  615SOL     OW 2457   2.362   0.752   0.289  0.7757 -0.0164 -0.0358
  615SOL    HW1 2458   2.444   0.708   0.313  1.2269 -0.4706 -0.3114
  615SOL    HW2 2459   2.329   0.714   0.208  0.8339  0.5419  1.3989
  615SOL     MW 2460   2.369   0.741   0.281  0.8429 -0.0026  0.1171
  616SOL     OW 2461   2.527   0.410   1.590 -0.3796  0.6247  0.2234
  616SOL    HW1 2462   2.475   0.357   1.537  1.5234  1.4419  0.2938
  616SOL    HW2 2463   2.560   0.473   1.527  0.1602 -1.0265  0.1404
  616SOL     MW 2464   2.525   0.412   1.575 -0.0573  0.5147  0.2218
  617SOL     OW 2465   2.934   0.558   1.732 -0.1651 -0.2999  0.2993
  617SOL    HW1 2466   2.842   0.560   1.771 -0.7025 -1.3451 -0.7136
  617SOL    HW2 2467   2.959   0.467   1.716  0.7705 -1.8310  0.5751
  617SOL     MW 2468   2.925   0.546   1.735 -0.1126 -0.6398  0.2020
  618SOL     OW 2469   2.683   0.321   1.966  0.5213  0.1077 -0.5671
  618SOL    HW1 2470   2.654   0.398   1.913  0.5604 -0.9744 -1.6044
  618SOL    HW2 2471   2.771   0.344   2.006 -1.8890  2.5189  1.6347
  618SOL     MW 2472   2.691   0.334   1.964  0.2085  0.2830 -0.4134
  619SOL     OW 2473   2.662   0.668   0.135 -0.0947 -0.3688 -0.4735
  619SOL    HW1 2474   2.721   0.740   0.132 -0.9979 -1.9206  0.0024
  619SOL    HW2 2475   2.648   0.662   0.231  1.7412 -0.3024  0.2389
  619SOL     MW 2476   2.668   0.677   0.147  0.0284 -0.5648 -0.3167
  620SOL     OW 2477   2.330   1.034   0.985 -0.4010  0.2004  0.5057
  620SOL    HW1 2478   2.353   1.043   0.892 -1.5893 -3.9324  0.5504
  620SOL    HW2 2479   2.253   0.972   0.975 -0.9389  1.3135  2.4138
  620SOL     MW 2480   2.323   1.027   0.971 -0.6288 -0.1980  0.7634
  621SOL     OW 2481   1.458   2.144   1.950  0.1054 -0.4323 -0.6140
  621SOL    HW1 2482   1.407   2.075   1.981  0.9023  0.2639 -0.2276
  621SOL    HW2 2483   1.546   2.110   1.959 -1.0896 -1.4355  1.6573
  621SOL     MW 2484   1.463   2.130   1.955  0.0529 -0.4728 -0.2634
  622SOL     OW 2485   2.593   0.169   0.270 -0.2019  0.2536 -0.1381
  622SOL    HW1 2486   2.680   0.210   0.287 -0.0226 -1.7397 -2.9543
  622SOL    HW2 2487   2.624   0.080   0.285  0.6615  1.7863 -0.9486
  622SOL     MW 2488   2.609   0.163   0.274 -0.0644  0.1929 -0.6166
  623SOL     OW 2489   2.344   2.800   0.866  0.0867  0.4497 -0.2315
  623SOL    HW1 2490   2.425   2.856   0.875 -0.0017  1.8972  1.4915
  623SOL    HW2 2491   2.280   2.843   0.917  0.9688 -0.4504 -0.4932
  623SOL     MW 2492   2.347   2.813   0.874  0.1914  0.5220 -0.0387
  624SOL     OW 2493   2.194   1.686   3.008 -0.7028  0.6101 -0.0427
  624SOL    HW1 2494   2.136   1.609   3.025  1.0891 -1.3260  0.4113
  624SOL    HW2 2495   2.129   1.748   3.006  1.5976 -0.5601  0.7642
  624SOL     MW 2496   2.178   1.684   3.010 -0.1628  0.2003  0.1237
  625SOL     OW 2497   2.194   2.036   1.132  0.1820 -0.0541  0.1986
  625SOL    HW1 2498   2.283   2.013   1.151 -1.7281  0.5201 -0.8137
  625SOL    HW2 2499   2.183   2.077   1.048  2.1867 -0.8945 -1.4339
  625SOL     MW 2500   2.204   2.038   1.123  0.1944 -0.0892 -0.1504
  626SOL     OW 2501   0.215   1.588   2.360 -0.1736  0.4861  0.6110
  626SOL    HW1 2502   0.200   1.496   2.341 -1.2142  2.8870 -1.2724
  626SOL    HW2 2503   0.155   1.615   2.435  0.3013  0.0572  0.0652
  626SOL     MW 2504   0.205   1.580   2.367 -0.2482  0.7463  0.2905
  627SOL     OW 2505   2.450   0.788   2.634 -0.2323 -0.5446  0.0946
  627SOL    HW1 2506   2.425   0.881   2.625 -0.1124  0.3969  0.3709
  627SOL    HW2 2507   2.436   0.739   2.549  2.1622  1.5224 -2.6185
  627SOL     MW 2508   2.445   0.794   2.621  0.0995 -0.1476 -0.2269
  628SOL     OW 2509   2.247   1.353   1.367  0.7585 -0.0458 -0.5656
  628SOL    HW1 2510   2.216   1.283   1.305  0.3797 -0.2132 -0.3413
  628SOL    HW2 2511   2.341   1.339   1.359 -2.0479 -1.2046  0.8713
  628SOL     MW 2512   2.255   1.342   1.358  0.3383 -0.2208 -0.3464
  629SOL     OW 2513   1.917   0.552   1.235 -1.1944  0.2271 -0.1782
  629SOL    HW1 2514   1.943   0.643   1.222 -0.1878 -0.1189  1.9616
  629SOL    HW2 2515   1.826   0.547   1.260 -2.8139  0.6513 -2.7387
  629SOL     MW 2516   1.908   0.563   1.236 -1.2753  0.2374 -0.2337
  630SOL     OW 2517   2.436   1.822   3.072  0.0300  0.1729 -0.5159
  630SOL    HW1 2518   2.423   1.854   2.988 -0.6414 -2.0237  1.0842
  630SOL    HW2 2519   2.355   1.780   3.102 -0.3934 -3.2489 -1.1542
  630SOL     MW 2520   2.424   1.821   3.065 -0.1144 -0.5684 -0.3890
  631SOL     OW 2521   1.963   1.826   1.581  0.3350 -0.0413  0.0183
  631SOL    HW1 2522   1.991   1.742   1.629  0.5874 -1.1107 -0.1508
  631SOL    HW2 2523   1.955   1.794   1.493  1.0911 -0.1925  2.2725
  631SOL     MW 2524   1.966   1.811   1.576  0.4681 -0.2023  0.2934
  632SOL     OW 2525   0.109   2.034   1.476  0.1867 -0.5887 -0.1985
  632SOL    HW1 2526   0.046   2.052   1.549 -0.4684  0.1711  2.4880
  632SOL    HW2 2527   0.135   1.940   1.493  0.6773  3.0235  1.1957
  632SOL     MW 2528   0.104   2.024   1.487  0.1650 -0.0119  0.3399
  633SOL     OW 2529   2.566   0.597   0.385  0.3571 -0.2095 -0.4273
  633SOL    HW1 2530   2.646   0.592   0.434  0.4711 -3.1933  3.9124
  633SOL    HW2 2531   2.517   0.519   0.422 -0.8678 -2.0812 -0.7902
  633SOL     MW 2532   2.570   0.586   0.397  0.2105 -0.8501  0.0974
  634SOL     OW 2533   2.671   3.040   0.619  0.2496  0.0785 -0.2295
  634SOL    HW1 2534   2.710   3.127   0.647  0.1237  3.2622 -0.1018
  634SOL    HW2 2535   2.629   3.057   0.535  0.7195 -0.0119 -0.5861
  634SOL     MW 2536   2.670   3.054   0.611  0.2950  0.4866 -0.2597
  635SOL     OW 2537   2.609   0.074   1.868  0.0628  0.1903 -0.1652
  635SOL    HW1 2538   2.674   0.030   1.818  1.9360  0.3330  1.1822
  635SOL    HW2 2539   2.636   0.170   1.857 -0.4305  2.8601 -0.6683
  635SOL     MW 2540   2.621   0.081   1.860  0.2449  0.5614 -0.0538
  636SOL     OW 2541   2.957   1.689   1.101 -0.0838 -1.0205  0.1377
  636SOL    HW1 2542   2.866   1.698   1.127 -1.7851 -1.2071  1.1339
  636SOL    HW2 2543   2.998   1.775   1.114  1.7567 -1.1856  2.9658
  636SOL     MW 2544   2.951   1.701   1.106 -0.0655 -1.0669  0.6423
  637SOL     OW 2545   2.894   1.491   0.644 -0.7361 -0.1360  0.4606
  637SOL    HW1 2546   2.965   1.555   0.645 -1.2353 -1.7370  2.3091
  637SOL    HW2 2547   2.822   1.535   0.692 -1.4210 -0.2211  0.8732
  637SOL     MW 2548   2.894   1.505   0.650 -0.8923 -0.3585  0.7590
  638SOL     OW 2549   2.787   0.503   0.545 -0.1160 -0.6295  0.2789
  638SOL    HW1 2550   2.857   0.541   0.496 -0.9375  0.3335  1.3032
  638SOL    HW2 2551   2.801   0.533   0.631  1.0888  1.1455  0.2346
  638SOL     MW 2552   2.798   0.512   0.550 -0.0654 -0.2683  0.4082
  639SOL     OW 2553   1.766   0.062   0.564  0.2736  0.0343 -0.1525
  639SOL    HW1 2554   1.670   0.091   0.540  0.2302  2.6979 -0.4292
  639SOL    HW2 2555   1.805   0.020   0.486 -1.1347 -1.4933  0.2451
  639SOL     MW 2556   1.758   0.061   0.550  0.0821  0.1842 -0.1365
  640SOL     OW 2557   0.371   1.354   0.084 -0.1132 -0.2188  0.6534
  640SOL    HW1 2558   0.385   1.374  -0.008 -0.1448 -0.1669  1.2028
  640SOL    HW2 2559   0.319   1.270   0.100 -1.5850  0.1109 -1.7835
  640SOL     MW 2560   0.366   1.345   0.074 -0.3115 -0.1684  0.4044
  641SOL     OW 2561   2.240   0.435   0.367 -0.1654 -0.0200  0.0775
  641SOL    HW1 2562   2.283   0.477   0.291 -1.8685 -1.8611 -3.7798
  641SOL    HW2 2563   2.272   0.347   0.365 -1.5813  1.2282 -0.5277
  641SOL     MW 2564   2.250   0.429   0.357 -0.5769 -0.0982 -0.5113
  642SOL     OW 2565   0.040   0.006   0.594  0.4592  0.3337 -0.4197
  642SOL    HW1 2566  -0.009   0.082   0.564 -0.6721 -0.6552 -0.1301
  642SOL    HW2 2567  -0.018  -0.047   0.649  1.5974 -3.6223  0.5769
  642SOL     MW 2568   0.026   0.009   0.597  0.4601 -0.3187 -0.2500
  643SOL     OW 2569   2.101   0.319   1.692 -0.2154  0.1765 -0.8172
  643SOL    HW1 2570   2.085   0.234   1.733  0.5554 -1.7743  0.7534
  643SOL    HW2 2571   2.103   0.291   1.601  0.9854  2.3397 -2.6655
  643SOL     MW 2572   2.099   0.304   1.686  0.0447  0.2045 -0.8538
  644SOL     OW 2573   2.746   1.976   1.059  0.0263  0.2029 -0.1208
  644SOL    HW1 2574   2.720   1.889   1.096  0.7649  1.2592 -1.4910
  644SOL    HW2 2575   2.670   2.009   1.005 -0.5461  0.0884 -0.8712
  644SOL     MW 2576   2.733   1.969   1.057  0.0482  0.3272 -0.4006
  645SOL     OW 2577   2.850   0.863   0.675  0.6926 -0.1226 -0.2504
  645SOL    HW1 2578   2.936   0.829   0.686  1.0803  0.0100 -1.8855
  645SOL    HW2 2579   2.792   0.795   0.711  0.2370 -1.6260 -1.8965
  645SOL     MW 2580   2.854   0.850   0.682  0.6836 -0.3035 -0.6833
  646SOL     OW 2581   0.174   2.299   0.770  0.0667  0.5554  0.0061
  646SOL    HW1 2582   0.187   2.207   0.797  1.4664 -4.6234  0.0439
  646SOL    HW2 2583   0.089   2.296   0.727  0.7853  1.0482  2.4465
  646SOL     MW 2584   0.165   2.287   0.768  0.3462 -0.0629  0.3331
  647SOL     OW 2585   2.702   0.493   2.978 -0.5194 -0.4418 -0.3409
  647SOL    HW1 2586   2.657   0.439   3.048  3.1132  0.2945  2.5928
  647SOL    HW2 2587   2.638   0.570   2.972  0.4511 -2.3791  0.3675
  647SOL     MW 2588   2.687   0.496   2.986  0.0879 -0.6003  0.1397
  648SOL     OW 2589   2.131   0.728   1.112  0.0635 -0.1568  0.8931
  648SOL    HW1 2590   2.129   0.760   1.022 -1.9555 -0.5714 -1.0357
  648SOL    HW2 2591   2.163   0.803   1.168 -1.4484  4.3326  0.2945
  648SOL     MW 2592   2.135   0.742   1.107 -0.4023  0.3808  0.5597
  649SOL     OW 2593   2.302   2.743   1.296 -0.3826 -0.1487 -0.0679
  649SOL    HW1 2594   2.379   2.803   1.300 -1.2799  2.4283  1.8859
  649SOL    HW2 2595   2.341   2.662   1.259 -0.4989 -2.4605 -0.0999
  649SOL     MW 2596   2.317   2.740   1.292 -0.5163 -0.1137  0.1857
  650SOL     OW 2597   2.801   0.174   0.672 -0.3882  0.2355  0.0182
  650SOL    HW1 2598   2.774   0.262   0.687  0.2146  0.3575 -1.7233
  650SOL    HW2 2599   2.863   0.194   0.601  0.5609  1.8067  1.3407
  650SOL     MW 2600   2.805   0.188   0.664 -0.1835  0.4589 -0.0371
  651SOL     OW 2601   2.987   0.412   0.753 -0.1179 -0.1209  0.4756
  651SOL    HW1 2602   3.072   0.461   0.754  1.3083  2.5545 -0.1531
  651SOL    HW2 2603   2.947   0.428   0.838  0.7884 -2.1171  0.0614
  651SOL     MW 2604   2.993   0.421   0.764  0.1899 -0.0313  0.3380
  652SOL     OW 2605   2.412   1.508   3.015  0.1198 -0.1047 -0.3399
  652SOL    HW1 2606   2.479   1.501   2.942  1.5239  0.6864 -0.9533
  652SOL    HW2 2607   2.360   1.582   3.001  1.7122  0.3430  0.9656
  652SOL     MW 2608   2.414   1.517   3.003  0.5152  0.0588 -0.2486
  653SOL     OW 2609   1.912   0.448   0.356 -0.6057 -0.1974 -0.1110
  653SOL    HW1 2610   1.866   0.386   0.304  1.8406 -1.6494  0.9285
  653SOL    HW2 2611   2.008   0.449   0.330  1.5442 -0.2350  1.2723
  653SOL     MW 2612   1.918   0.440   0.346  0.0007 -0.3939  0.2087
  654SOL     OW 2613   2.455   1.060   0.751  0.1843 -0.2711 -0.3418
  654SOL    HW1 2614   2.379   1.057   0.691 -1.7332 -0.3484  3.0485
  654SOL    HW2 2615   2.483   0.965   0.769 -0.5038 -0.1742  1.4900
  654SOL     MW 2616   2.448   1.047   0.745 -0.1594 -0.2685  0.3472
  655SOL     OW 2617   2.947   0.883   0.393 -0.3030  0.0314 -0.1517
  655SOL    HW1 2618   2.944   0.893   0.489  1.8320  1.3385 -0.9997
  655SOL    HW2 2619   2.967   0.787   0.388 -0.2296 -0.2536  0.9963
  655SOL     MW 2620   2.949   0.872   0.405 -0.0116  0.1663 -0.1121
  656SOL     OW 2621   1.918   2.747   1.275 -0.6431  0.3552  0.2822
  656SOL    HW1 2622   1.912   2.837   1.312  0.5638 -0.9195  1.5475
  656SOL    HW2 2623   1.972   2.696   1.330 -1.7733 -0.1653 -0.3548
  656SOL     MW 2624   1.924   2.752   1.287 -0.6330  0.1183  0.3651
  657SOL     OW 2625   0.163   1.638   1.291 -0.1364  0.6645 -0.4445
  657SOL    HW1 2626   0.120   1.668   1.214  2.0131 -0.9091 -1.0888
  657SOL    HW2 2627   0.144   1.542   1.287 -0.3490  0.5157 -2.1903
  657SOL     MW 2628   0.154   1.629   1.280  0.1191  0.4372 -0.7599
  658SOL     OW 2629   2.695   1.301   0.211  0.3730 -0.0970  0.4645
  658SOL    HW1 2630   2.633   1.242   0.255  0.3854  1.1648 -0.5553
  658SOL    HW2 2631   2.739   1.356   0.276 -0.7858 -1.2106  0.0659
  658SOL     MW 2632   2.693   1.300   0.225  0.2217 -0.0775  0.2774
  659SOL     OW 2633   2.277   1.491   1.071 -0.2648 -0.5585  0.4444
  659SOL    HW1 2634   2.369   1.499   1.084 -2.0148  0.8532 -2.6987
  659SOL    HW2 2635   2.232   1.505   1.154  2.1465 -0.3764  2.6805
  659SOL     MW 2636   2.283   1.494   1.084 -0.1776 -0.3482  0.3247
  660SOL     OW 2637   2.032   1.597   1.696 -0.5602  0.3479  0.2784
  660SOL    HW1 2638   2.065   1.606   1.790  0.1708  2.8865 -1.9484
  660SOL    HW2 2639   1.970   1.520   1.687  1.7969 -0.4091 -1.4402
  660SOL     MW 2640   2.028   1.588   1.707 -0.1528  0.5829 -0.2422
  661SOL     OW 2641   2.378   1.005   0.217  0.1962 -0.1304  0.8166
  661SOL    HW1 2642   2.444   1.061   0.273  0.3747  0.3607  1.0992
  661SOL    HW2 2643   2.369   0.919   0.265  0.4001  1.8988  3.3075
  661SOL     MW 2644   2.385   1.001   0.231  0.2466  0.2022  1.1826
  662SOL     OW 2645   2.595   2.976   0.887  0.1038  0.4551 -0.3624
  662SOL    HW1 2646   2.549   3.048   0.924  1.6303 -1.8484 -0.5333
  662SOL    HW2 2647   2.626   3.005   0.800  0.6075 -0.6958 -1.2285
  662SOL     MW 2648   2.593   2.989   0.880  0.3716 -0.0007 -0.4992
  663SOL     OW 2649   2.773   1.499   0.381 -0.7540 -0.4240  0.7567
  663SOL    HW1 2650   2.769   1.593   0.360 -0.3467  2.8630 -0.0071
  663SOL    HW2 2651   2.833   1.498   0.459  0.4638  1.0141  0.8925
  663SOL     MW 2652   2.780   1.511   0.389 -0.5396  0.1995  0.6739
  664SOL     OW 2653   2.503   1.500   1.609  0.1463  0.4141 -0.2428
  664SOL    HW1 2654   2.510   1.597   1.603 -1.3782 -1.2899 -0.8125
  664SOL    HW2 2655   2.411   1.490   1.639  0.2683  1.8069  0.3436
  664SOL     MW 2656   2.491   1.512   1.612 -0.0387  0.3731 -0.2406
  665SOL     OW 2657   2.873   0.869   2.014 -0.5627  0.6505 -0.3455
  665SOL    HW1 2658   2.845   0.892   1.926  0.7562 -1.0182  1.5045
  665SOL    HW2 2659   2.943   0.809   1.984 -0.5681  0.8711 -1.4425
  665SOL     MW 2660   2.878   0.864   1.999 -0.3894  0.4594 -0.2461
  666SOL     OW 2661   2.787   3.014   1.679  0.1269  0.0051  0.4647
  666SOL    HW1 2662   2.760   3.001   1.587 -0.5435  2.4087 -0.1667
  666SOL    HW2 2663   2.743   2.932   1.710 -0.6386 -1.2869  0.3979
  666SOL     MW 2664   2.778   3.002   1.671 -0.0625  0.1517  0.3726
  667SOL     OW 2665   1.985   2.637   1.709 -0.3498 -0.0846  0.1884
  667SOL    HW1 2666   2.010   2.562   1.766 -0.8166 -0.6290  1.4149
  667SOL    HW2 2667   2.058   2.699   1.702 -1.3555  1.6974 -2.3666
  667SOL     MW 2668   1.998   2.635   1.716 -0.5441  0.0787  0.0131
  668SOL     OW 2669   2.732   0.631   0.784 -0.1336 -0.2820 -0.3391
  668SOL    HW1 2670   2.799   0.631   0.852  0.8690 -1.0338  0.6891
  668SOL    HW2 2671   2.649   0.664   0.818  3.0540 -1.4406  0.4401
  668SOL     MW 2672   2.730   0.636   0.798  0.4193 -0.5341 -0.1006
  669SOL     OW 2673   0.244   0.936   0.669 -0.0287 -0.2214  0.1490
  669SOL    HW1 2674   0.190   0.994   0.736 -1.2832  1.2768  0.2468
  669SOL    HW2 2675   0.333   0.923   0.706  3.0971  0.4617 -0.2473
  669SOL     MW 2676   0.248   0.942   0.683  0.2182  0.0664  0.1096
  670SOL     OW 2677   2.846   0.259   0.225 -0.5445 -0.8171  0.0837
  670SOL    HW1 2678   2.891   0.199   0.160 -0.4017  0.4018  0.8244
  670SOL    HW2 2679   2.856   0.344   0.184 -1.7049 -0.3285 -1.3833
  670SOL     MW 2680   2.853   0.262   0.211 -0.6788 -0.5918 -0.0121
  671SOL     OW 2681   2.089   2.939   1.503 -0.0044 -0.6532 -0.6110
  671SOL    HW1 2682   2.077   2.971   1.421 -1.0026 -0.0170  1.3577
  671SOL    HW2 2683   2.036   3.001   1.553  1.0014  1.0550 -2.3983
  671SOL     MW 2684   2.081   2.951   1.499 -0.0034 -0.3439 -0.5871
  672SOL     OW 2685   1.886   1.698   1.355  0.2655 -0.5690  0.7276
  672SOL    HW1 2686   1.801   1.743   1.361 -0.7525  1.3016 -1.8592
  672SOL    HW2 2687   1.933   1.732   1.274  1.9987 -1.3158  1.5042
  672SOL     MW 2688   1.881   1.708   1.345  0.3598 -0.4207  0.4888
  673SOL     OW 2689   2.754   1.093   0.579 -0.1178  0.1366  0.4084
  673SOL    HW1 2690   2.782   1.010   0.620 -1.7093 -1.9579  0.1770
  673SOL    HW2 2691   2.821   1.158   0.597 -0.7937 -0.9394 -4.2756
  673SOL     MW 2692   2.766   1.090   0.587 -0.4170 -0.2817 -0.2402
  674SOL     OW 2693   2.507   0.085   1.213 -0.8529  0.0257  0.0244
  674SOL    HW1 2694   2.469   0.098   1.123 -1.4941 -0.0255  1.0752
  674SOL    HW2 2695   2.495  -0.009   1.233  2.3419 -1.9839 -0.1948
  674SOL     MW 2696   2.501   0.074   1.204 -0.5160 -0.2462  0.1341
  675SOL     OW 2697   3.028   0.867   1.064  0.0527  0.2875 -0.0298
  675SOL    HW1 2698   3.075   0.880   1.144 -1.4487 -0.2150 -1.1251
  675SOL    HW2 2699   3.050   0.924   0.990  2.5051 -0.7241  1.0616
  675SOL     MW 2700   3.037   0.876   1.065  0.1782  0.0877 -0.0303
  676SOL     OW 2701   2.866   1.476   1.660 -0.4575 -0.1233  0.4341
  676SOL    HW1 2702   2.790   1.413   1.675  2.2820 -0.5982 -1.1452
  676SOL    HW2 2703   2.945   1.440   1.703 -0.6553 -2.3170  0.3731
  676SOL     MW 2704   2.866   1.463   1.667 -0.1222 -0.4754  0.2177
  677SOL     OW 2705   2.411   0.655   1.971  0.3279 -0.2934 -0.0754
  677SOL    HW1 2706   2.343   0.586   1.946 -2.0877  2.0441 -2.9356
  677SOL    HW2 2707   2.347   0.705   2.020 -2.0159  0.7713  0.3281
  677SOL     MW 2708   2.393   0.652   1.974 -0.3001  0.1555 -0.3995
  678SOL     OW 2709   2.537   1.644   0.392 -0.2911 -0.0194 -0.0842
  678SOL    HW1 2710   2.443   1.682   0.385 -2.8653  0.4985 -0.8119
  678SOL    HW2 2711   2.562   1.614   0.301  1.2834  0.9213 -3.0942
  678SOL     MW 2712   2.528   1.645   0.379 -0.4230  0.1730 -0.5773
  679SOL     OW 2713   2.275   0.480   1.170 -0.5212 -0.7050 -0.3819
  679SOL    HW1 2714   2.234   0.407   1.129  0.2880 -0.9410  0.5368
  679SOL    HW2 2715   2.215   0.552   1.160 -0.4974 -1.1315  0.4907
  679SOL     MW 2716   2.262   0.480   1.163 -0.4113 -0.7924 -0.1456
  680SOL     OW 2717   2.349   0.162   1.464  0.0245 -0.6845  0.6762
  680SOL    HW1 2718   2.252   0.195   1.465 -2.8559 -0.2880 -0.3818
  680SOL    HW2 2719   2.386   0.149   1.375  0.8010 -0.0928 -1.7149
  680SOL     MW 2720   2.341   0.165   1.452 -0.2531 -0.5541  0.2211
  681SOL     OW 2721   0.342   0.582   1.548  0.2752 -0.2871  0.3201
  681SOL    HW1 2722   0.319   0.502   1.601 -1.3679 -0.1545 -2.1750
  681SOL    HW2 2723   0.421   0.552   1.505  0.6918  0.5190  0.3928
  681SOL     MW 2724   0.350   0.567   1.550  0.1134 -0.1632  0.0005
  682SOL     OW 2725   0.095   2.912   1.474 -0.6062 -0.3308  0.3837
  682SOL    HW1 2726   0.129   3.002   1.450 -0.5690  3.0822  0.4812
  682SOL    HW2 2727   0.052   2.924   1.556  0.9943 -0.8028 -0.7267
  682SOL     MW 2728   0.094   2.925   1.482 -0.3901  0.0573  0.2500
  683SOL     OW 2729   2.059   0.896   3.028  0.3480  0.2984 -0.2132
  683SOL    HW1 2730   1.978   0.872   2.982  1.2890  1.0663  1.1781
  683SOL    HW2 2731   2.042   0.985   3.062  0.0803  0.9983 -0.9083
  683SOL     MW 2732   2.046   0.905   3.026  0.4368  0.4921 -0.1214
  684SOL     OW 2733   2.203   1.720   0.928  0.4484 -0.2890 -0.3694
  684SOL    HW1 2734   2.107   1.728   0.910 -0.5720 -0.9626  2.8000
  684SOL    HW2 2735   2.230   1.638   0.961 -0.6436  2.3240 -3.0875
  684SOL     MW 2736   2.194   1.710   0.930  0.1697 -0.0331 -0.3098
  685SOL     OW 2737   2.677   1.738   1.234  0.2183 -0.0129 -0.0152
  685SOL    HW1 2738   2.707   1.723   1.327 -1.4579  2.5830  1.1914
  685SOL    HW2 2739   2.632   1.658   1.198 -0.5366 -1.1590  0.7857
  685SOL     MW 2740   2.675   1.725   1.242 -0.1024  0.1784  0.2497
  686SOL     OW 2741   2.915   0.737   1.525  0.3169  0.0143  0.1734
  686SOL    HW1 2742   2.903   0.677   1.601 -0.1186  1.3906 -1.1531
  686SOL    HW2 2743   3.009   0.725   1.499 -0.1171  1.8794 -0.1627
  686SOL     MW 2744   2.926   0.728   1.531  0.2022  0.4420 -0.0460
  687SOL     OW 2745   2.070   0.294   1.128  0.0839 -0.9385 -0.6301
  687SOL    HW1 2746   2.080   0.219   1.071  0.8745  1.5109 -0.8495
  687SOL    HW2 2747   1.982   0.331   1.120  1.0652 -0.2260  0.6503
  687SOL     MW 2748   2.060   0.289   1.119  0.3177 -0.5213 -0.4901
  688SOL     OW 2749   2.383   0.653   1.420  0.5320  0.4516 -0.5085
  688SOL    HW1 2750   2.359   0.588   1.354 -0.1475  0.0500  1.4884
  688SOL    HW2 2751   2.301   0.685   1.463  3.1848  1.6890  0.2103
  688SOL     MW 2752   2.369   0.649   1.417  0.7923  0.5619 -0.1502
  689SOL     OW 2753   2.542   0.726   2.993 -0.1238  0.7954 -0.0087
  689SOL    HW1 2754   2.588   0.811   2.985  1.9137 -2.1907  3.0331
  689SOL    HW2 2755   2.574   0.698   3.080 -0.0952  0.5366 -0.9585
  689SOL     MW 2756   2.552   0.734   3.004  0.1488  0.3673  0.2673
  690SOL     OW 2757   2.073   0.943   1.945 -0.2426  0.0986  0.6727
  690SOL    HW1 2758   2.008   0.874   1.945 -0.7819  0.3346  1.7458
  690SOL    HW2 2759   2.111   0.938   1.857  0.2603  0.7900  0.5460
  690SOL     MW 2760   2.070   0.933   1.933 -0.2474  0.2210  0.7976
  691SOL     OW 2761   2.449   0.252   0.806 -0.7406 -0.1500  0.7838
  691SOL    HW1 2762   2.526   0.283   0.856  1.7613  1.9026 -2.8444
  691SOL    HW2 2763   2.378   0.317   0.829  0.2832 -2.1906  0.9459
  691SOL     MW 2764   2.450   0.264   0.816 -0.2754 -0.1484  0.3265
  692SOL     OW 2765   2.828   1.655   1.450  0.0158  0.3130  0.3662
  692SOL    HW1 2766   2.844   1.594   1.524 -0.3591  3.6241 -0.6132
  692SOL    HW2 2767   2.836   1.751   1.481  2.1317 -1.1544 -0.8330
  692SOL     MW 2768   2.831   1.660   1.464  0.2455  0.5563  0.0788
  693SOL     OW 2769   2.331   0.478   0.091 -0.4231  0.7437 -0.7404
  693SOL    HW1 2770   2.258   0.422   0.071 -0.0362  0.2859  1.8445
  693SOL    HW2 2771   2.308   0.560   0.058  3.1476 -3.1038  0.0981
  693SOL     MW 2772   2.318   0.482   0.084  0.0990  0.1757 -0.2888
  694SOL     OW 2773   1.916   1.216   1.100  0.1378 -0.0716 -0.3238
  694SOL    HW1 2774   2.008   1.203   1.133 -0.1671  0.2154 -1.6129
  694SOL    HW2 2775   1.865   1.155   1.156 -0.6403  0.2238 -2.9524
  694SOL     MW 2776   1.922   1.206   1.112 -0.0051  0.0052 -0.8407
  695SOL     OW 2777   3.025   1.461   1.324 -0.2166  0.4605  0.6436
  695SOL    HW1 2778   3.004   1.443   1.231  1.6238 -1.5509 -1.9481
  695SOL    HW2 2779   2.989   1.548   1.332  2.3054 -2.1385 -0.9593
  695SOL     MW 2780   3.017   1.470   1.313  0.3589 -0.1478  0.0901
  696SOL     OW 2781   2.114   1.381   0.879  0.3950 -0.1245  0.0447
  696SOL    HW1 2782   2.194   1.409   0.927 -3.9632  1.2746  0.4200
  696SOL    HW2 2783   2.064   1.332   0.943 -0.6008  0.7469 -0.8506
  696SOL     MW 2784   2.118   1.378   0.893 -0.3114  0.1751 -0.0239
  697SOL     OW 2785   2.924   1.099   2.161  0.2362  0.1600  0.2583
  697SOL    HW1 2786   2.844   1.141   2.175  0.6007  0.1146  0.2120
  697SOL    HW2 2787   2.909   1.008   2.121 -0.6802 -0.8265 -0.5561
  697SOL     MW 2788   2.911   1.093   2.158  0.1634  0.0238  0.1448
  698SOL     OW 2789   2.561   0.322   0.040 -0.0510 -0.5190 -0.1711
  698SOL    HW1 2790   2.482   0.378   0.057  0.2224  1.3571  0.0758
  698SOL    HW2 2791   2.584   0.285   0.122  2.1031  0.0803  1.5053
  698SOL     MW 2792   2.553   0.324   0.053  0.2693 -0.1924  0.0827
  699SOL     OW 2793   1.819   1.666   2.003 -0.2209  0.1540 -0.5551
  699SOL    HW1 2794   1.792   1.575   1.998 -1.1218 -1.0288 -1.4643
  699SOL    HW2 2795   1.918   1.660   1.995  3.0521  2.2094  0.0828
  699SOL     MW 2796   1.828   1.653   2.001  0.0921  0.2692 -0.5909
  700SOL     OW 2797   2.705   0.920   1.528 -0.2854  0.3925 -0.3858
  700SOL    HW1 2798   2.736   0.995   1.480  0.1978 -2.5416 -3.1595
  700SOL    HW2 2799   2.782   0.860   1.519 -4.9699 -4.1672  1.0456
  700SOL     MW 2800   2.719   0.922   1.521 -0.8397 -0.5963 -0.5629
  701SOL     OW 2801   1.593   1.253   2.525 -0.2509 -0.6272 -0.4149
  701SOL    HW1 2802   1.683   1.264   2.497  0.0488  1.8375  0.8653
  701SOL    HW2 2803   1.585   1.329   2.585  0.4738 -0.4393  0.9399
  701SOL     MW 2804   1.604   1.264   2.529 -0.1157 -0.2772 -0.0672
  702SOL     OW 2805   2.203   0.384   0.867  0.0025 -0.2803 -0.2474
  702SOL    HW1 2806   2.184   0.310   0.804  1.3469 -0.9370  1.6781
  702SOL    HW2 2807   2.248   0.461   0.829  1.1469  0.4905  1.8535
  702SOL     MW 2808   2.207   0.384   0.854  0.3309 -0.2653  0.2839
  703SOL     OW 2809   2.749   1.264   1.029  0.2059 -0.6467 -0.4913
  703SOL    HW1 2810   2.724   1.265   0.941 -1.6240 -1.3186  2.5623
  703SOL    HW2 2811   2.770   1.171   1.039 -1.6374  1.6734  0.6288
  703SOL     MW 2812   2.748   1.252   1.019 -0.2787 -0.4293  0.0594
  704SOL     OW 2813   0.020   1.316   0.250  0.5309 -0.3251  0.1072
  704SOL    HW1 2814  -0.050   1.280   0.198 -0.1860  1.1741 -2.2346
  704SOL    HW2 2815   0.015   1.286   0.345 -0.2599  1.0745 -1.9452
  704SOL     MW 2816   0.010   1.307   0.255  0.3320  0.0574 -0.4726
  705SOL     OW 2817   2.230   1.608   1.308 -0.3935  0.2002  0.5603
  705SOL    HW1 2818   2.155   1.624   1.362  3.9143 -2.6899 -2.6802
  705SOL    HW2 2819   2.255   1.521   1.330  0.4840 -0.1084 -0.2536
  705SOL     MW 2820   2.224   1.598   1.318  0.2907 -0.2218  0.0254
  706SOL     OW 2821   2.952   1.228   0.697  0.2043 -0.1810 -0.0016
  706SOL    HW1 2822   3.018   1.212   0.634 -1.8380 -0.4831  2.2030
  706SOL    HW2 2823   2.941   1.323   0.690  0.5949 -1.5106 -0.9979
  706SOL     MW 2824   2.959   1.238   0.688 -0.0136 -0.3963  0.1578
  707SOL     OW 2825   2.391   0.063   0.973  0.0130 -0.0231  0.4276
  707SOL    HW1 2826   2.390   0.130   0.899 -1.2073  2.3480 -2.3302
  707SOL    HW2 2827   2.301   0.034   0.975  0.0787 -2.4050  1.9347
  707SOL     MW 2828   2.379   0.068   0.964 -0.1394 -0.0245  0.2626
  708SOL     OW 2829   2.576   1.551   0.139 -0.3305 -0.5315 -0.2072
  708SOL    HW1 2830   2.609   1.467   0.166  0.7015 -0.7337 -1.5120
  708SOL    HW2 2831   2.529   1.547   0.053  2.9122  0.4461 -0.7382
  708SOL     MW 2832   2.574   1.540   0.131  0.2335 -0.4292 -0.4494
  709SOL     OW 2833   1.719   1.710   0.128 -0.0630  0.0587 -0.5453
  709SOL    HW1 2834   1.681   1.779   0.069  0.1042 -1.4354 -1.6795
  709SOL    HW2 2835   1.661   1.696   0.202 -1.0663  0.9308  1.8395
  709SOL     MW 2836   1.707   1.718   0.130 -0.1733 -0.0234 -0.3803
  710SOL     OW 2837   2.170   1.157   1.184  0.6563 -0.5557  0.4727
  710SOL    HW1 2838   2.224   1.148   1.106  0.4921 -0.1331  2.3648
  710SOL    HW2 2839   2.189   1.078   1.239 -0.1383 -2.4335  0.1318
  710SOL     MW 2840   2.180   1.146   1.181  0.5298 -0.7477  0.6774
  711SOL     OW 2841   2.342   0.135   1.748  0.3629  0.0830  0.0338
  711SOL    HW1 2842   2.436   0.122   1.771 -1.8200 -0.9166 -0.5288
  711SOL    HW2 2843   2.340   0.109   1.652  1.1414 -1.6118 -0.3250
  711SOL     MW 2844   2.354   0.130   1.738  0.1776 -0.2725 -0.0877
  712SOL     OW 2845   1.889   0.584   3.079  0.4824 -0.7751 -0.5054
  712SOL    HW1 2846   1.875   0.661   3.020 -0.8181  1.6676  1.6484
  712SOL    HW2 2847   1.928   0.614   3.155 -1.0400 -1.1341  0.5762
  712SOL     MW 2848   1.892   0.598   3.081  0.1100 -0.5002 -0.0786
  713SOL     OW 2849   2.559   0.807   1.095  0.0699  0.2262  0.4085
  713SOL    HW1 2850   2.535   0.713   1.091  1.3121  2.0508  1.4841
  713SOL    HW2 2851   2.545   0.841   1.188 -0.7213  2.8050 -0.7612
  713SOL     MW 2852   2.554   0.799   1.107  0.1294  0.8071  0.3961
  714SOL     OW 2853   2.159   0.207   1.965  0.0504 -0.2403  0.0764
  714SOL    HW1 2854   2.212   0.200   2.054  2.0195  0.8525 -1.9992
  714SOL    HW2 2855   2.232   0.205   1.905 -0.4296 -0.9392  0.6887
  714SOL     MW 2856   2.176   0.206   1.969  0.2469 -0.1883 -0.1167
  715SOL     OW 2857   1.726   1.907   1.678 -0.2934  0.4070 -0.1314
  715SOL    HW1 2858   1.816   1.880   1.651 -2.2774  2.1166  2.7395
  715SOL    HW2 2859   1.699   1.821   1.714  2.7500 -3.1201 -1.2616
  715SOL     MW 2860   1.735   1.892   1.679 -0.1536  0.1672  0.0983
  716SOL     OW 2861   2.368   0.582   0.754 -0.4345  0.5125 -0.3816
  716SOL    HW1 2862   2.429   0.534   0.699 -0.6034  0.6228 -0.7923
  716SOL    HW2 2863   2.301   0.604   0.686 -1.2739 -0.0249 -1.5705
  716SOL     MW 2864   2.367   0.579   0.738 -0.5675  0.4561 -0.5927
  717SOL     OW 2865   2.876   1.421   2.908  0.4775  0.1975  0.1367
  717SOL    HW1 2866   2.970   1.438   2.893 -1.0503  0.3351 -0.3914
  717SOL    HW2 2867   2.853   1.479   2.978  0.5666 -0.1673  2.1348
  717SOL     MW 2868   2.885   1.431   2.915  0.2877  0.1675  0.3306
  718SOL     OW 2869   2.533   1.376   1.342  0.3704 -0.0359  0.1214
  718SOL    HW1 2870   2.524   1.412   1.435  2.6232 -1.1639 -1.4070
  718SOL    HW2 2871   2.605   1.312   1.342 -1.0084  0.3276 -0.8947
  718SOL     MW 2872   2.541   1.372   1.355  0.4857 -0.1368 -0.2143
  719SOL     OW 2873   2.218   1.323   0.633  0.2495 -0.4460  0.3826
  719SOL    HW1 2874   2.305   1.329   0.597  0.6094  1.4447  0.3597
  719SOL    HW2 2875   2.226   1.349   0.723 -2.0857 -2.5161  0.2793
  719SOL     MW 2876   2.231   1.327   0.640 -0.0111 -0.4697  0.3660
  720SOL     OW 2877   2.929   1.167   0.113  0.1364  0.0057  0.0066
  720SOL    HW1 2878   2.937   1.074   0.129 -0.0638  0.3250 -1.0570
  720SOL    HW2 2879   2.832   1.185   0.147 -3.1263 -0.4064 -2.5144
  720SOL     MW 2880   2.917   1.157   0.120 -0.3205 -0.0066 -0.4664
  721SOL     OW 2881   2.501   0.897   1.354 -0.2531 -0.3335  0.3742
  721SOL    HW1 2882   2.468   0.807   1.364 -0.3271 -0.1086 -2.3721
  721SOL    HW2 2883   2.580   0.905   1.418  1.2082  0.9759 -1.5913
  721SOL     MW 2884   2.507   0.886   1.363 -0.0701 -0.1311 -0.2474
  722SOL     OW 2885   2.558   1.124   0.368 -0.3111 -0.2842 -0.2188
  722SOL    HW1 2886   2.512   1.202   0.405 -0.9220 -2.5184 -0.7392
  722SOL    HW2 2887   2.628   1.106   0.435  2.7382 -0.0025  2.5498
  722SOL     MW 2888   2.561   1.132   0.382  0.0106 -0.5418  0.0779
  723SOL     OW 2889   2.221   1.404   1.665  0.2055 -0.1684  0.1692
  723SOL    HW1 2890   2.241   1.383   1.577  1.6114 -0.7976  0.3293
  723SOL    HW2 2891   2.151   1.471   1.665 -0.3110 -0.5092 -1.6600
  723SOL     MW 2892   2.214   1.410   1.654  0.3228 -0.2964 -0.0510
  724SOL     OW 2893   2.529   0.414   0.597  0.1115  0.0711  0.3405
  724SOL    HW1 2894   2.522   0.340   0.663  0.2005  2.0562  1.6270
  724SOL    HW2 2895   2.622   0.443   0.594 -0.8690  2.1623 -0.6947
  724SOL     MW 2896   2.540   0.408   0.605 -0.0061  0.6089  0.3737
  725SOL     OW 2897   2.549   0.526   1.135 -0.3477 -0.1556  0.0739
  725SOL    HW1 2898   2.598   0.533   1.214 -0.7716 -2.5385  3.6076
  725SOL    HW2 2899   2.459   0.514   1.164  0.2201 -3.1234 -3.1771
  725SOL     MW 2900   2.544   0.526   1.149 -0.3287 -0.8616  0.1112
  726SOL     OW 2901   2.567   2.454   0.565 -0.0691  0.5431 -0.0461
  726SOL    HW1 2902   2.488   2.494   0.525 -2.0890 -0.6276 -1.3301
  726SOL    HW2 2903   2.547   2.368   0.602  1.3454 -3.3225  0.3425
  726SOL     MW 2904   2.554   2.448   0.565 -0.1489 -0.1214 -0.1642
  727SOL     OW 2905   2.938   0.260   1.563 -0.5490  0.1997 -0.0967
  727SOL    HW1 2906   2.913   0.292   1.478  0.8396  2.2305  2.6109
  727SOL    HW2 2907   2.857   0.247   1.612 -1.0031  2.2920  0.1150
  727SOL     MW 2908   2.924   0.262   1.559 -0.4257  0.7437  0.2885
  728SOL     OW 2909   2.826   1.154   2.949  0.2695 -0.4928 -0.4715
  728SOL    HW1 2910   2.817   1.243   2.916 -0.7089  0.5493 -2.0180
  728SOL    HW2 2911   2.868   1.174   3.035  0.7851  0.6524 -0.6064
  728SOL     MW 2912   2.830   1.168   2.956  0.2084 -0.2042 -0.6933
  729SOL     OW 2913   2.555   1.537   1.111 -0.1653  0.0761 -0.5975
  729SOL    HW1 2914   2.560   1.452   1.150 -0.7788  0.3173 -1.6002
  729SOL    HW2 2915   2.599   1.526   1.030 -0.4701  2.4930  2.8268
  729SOL     MW 2916   2.561   1.524   1.106 -0.2864  0.4268 -0.2780
  730SOL     OW 2917   2.133   1.130   0.251  0.1320  0.0754 -0.7251
  730SOL    HW1 2918   2.218   1.097   0.227  1.7093  2.2798  1.3078
  730SOL    HW2 2919   2.146   1.222   0.279  0.4115  0.0832  1.1075
  730SOL     MW 2920   2.146   1.138   0.252  0.3770  0.3673 -0.2151
  731SOL     OW 2921   2.842   1.862   2.879  0.5107  0.3216 -0.2229
  731SOL    HW1 2922   2.795   1.923   2.814  0.9284 -2.7278  2.5165
  731SOL    HW2 2923   2.908   1.918   2.922 -0.2134  0.2447  1.5180
  731SOL     MW 2924   2.844   1.877   2.876  0.4703 -0.0909  0.3682
  732SOL     OW 2925   2.224   0.925   1.331 -0.8347  0.8216 -0.1395
  732SOL    HW1 2926   2.227   0.964   1.420  3.5936  1.0171  0.0977
  732SOL    HW2 2927   2.315   0.914   1.315 -2.3856 -0.2783  1.9951
  732SOL     MW 2928   2.236   0.929   1.341 -0.4550  0.7023  0.1735
  733SOL     OW 2929   2.355   2.810   3.008 -0.8350 -0.1908 -0.0012
  733SOL    HW1 2930   2.268   2.853   3.013 -1.5331 -2.0917 -1.5619
  733SOL    HW2 2931   2.328   2.717   3.018 -1.1183 -1.2826  1.4441
  733SOL     MW 2932   2.340   2.804   3.010 -0.9645 -0.5856 -0.0164
  734SOL     OW 2933   1.498   0.350   2.476 -0.3173  0.1963 -0.4125
  734SOL    HW1 2934   1.463   0.312   2.562 -2.7566  0.0677  2.2296
  734SOL    HW2 2935   1.525   0.275   2.415  1.8222 -1.2705  1.0597
  734SOL     MW 2936   1.497   0.335   2.479 -0.3569 -0.0142  0.1303
  735SOL     OW 2937   2.983   0.943   2.568 -0.2320  0.1341  0.7297
  735SOL    HW1 2938   2.982   0.848   2.592 -0.6036 -0.1048  0.7078
  735SOL    HW2 2939   2.999   0.998   2.643  2.9535  1.7298 -2.8936
  735SOL     MW 2940   2.985   0.938   2.581  0.1393  0.3131  0.2488
  736SOL     OW 2941   0.083   0.619   2.560  0.2434  0.2000  0.4047
  736SOL    HW1 2942   0.137   0.665   2.497  2.4383  1.3356  0.8453
  736SOL    HW2 2943   0.059   0.534   2.514 -0.9615  1.0042  1.2289
  736SOL     MW 2944   0.087   0.614   2.545  0.3740  0.4560  0.5716
  737SOL     OW 2945   2.936   0.685   2.606  0.4820 -0.0948 -0.0050
  737SOL    HW1 2946   2.875   0.657   2.535  0.2482  0.6620 -0.0254
  737SOL    HW2 2947   3.028   0.653   2.591 -0.1859 -0.2452 -0.0559
  737SOL     MW 2948   2.940   0.677   2.595  0.3630 -0.0148 -0.0144
  738SOL     OW 2949   0.197   0.522   1.938  0.2747  0.0599 -0.4494
  738SOL    HW1 2950   0.291   0.557   1.945  1.8521 -3.7612 -0.8833
  738SOL    HW2 2951   0.213   0.443   1.886  3.1234 -1.1715 -0.5662
  738SOL     MW 2952   0.211   0.516   1.932  0.8587 -0.6067 -0.5221
  739SOL     OW 2953   2.478   1.011   2.129 -0.4684  0.5529 -0.1683
  739SOL    HW1 2954   2.410   0.947   2.107 -2.9474  1.8867  0.5568
  739SOL    HW2 2955   2.507   1.057   2.050  1.3711 -0.0404  1.3251
  739SOL     MW 2956   2.473   1.008   2.116 -0.5528  0.6506  0.1244
  740SOL     OW 2957   0.158   1.763   2.958  0.6301  0.1687  0.1642
  740SOL    HW1 2958   0.125   1.673   2.949  1.9352 -2.0892  3.3996
  740SOL    HW2 2959   0.251   1.746   2.979  1.6384 -0.5656 -1.5477
  740SOL     MW 2960   0.166   1.749   2.960  0.9353 -0.2261  0.3652
  741SOL     OW 2961   2.262   1.275   2.719  0.5985  0.0107 -0.1132
  741SOL    HW1 2962   2.208   1.348   2.679 -2.3417 -1.2186  3.4461
  741SOL    HW2 2963   2.241   1.268   2.815  1.2638  1.0175 -0.0792
  741SOL     MW 2964   2.252   1.284   2.726  0.2983 -0.0186  0.3609
  742SOL     OW 2965   1.584   1.336   2.230 -0.1834 -0.1584 -0.4130
  742SOL    HW1 2966   1.556   1.247   2.210 -0.7403  0.3731 -1.6268
  742SOL    HW2 2967   1.556   1.350   2.323 -0.0984  0.5762 -0.6073
  742SOL     MW 2968   1.577   1.326   2.239 -0.2457  0.0087 -0.5988
  743SOL     OW 2969   2.522   1.226   2.761  0.1507  0.0073  0.4846
  743SOL    HW1 2970   2.432   1.241   2.743 -2.6886  1.8980  1.6085
  743SOL    HW2 2971   2.531   1.154   2.832  0.8689 -1.0575  0.7910
  743SOL     MW 2972   2.511   1.219   2.768 -0.1292  0.1163  0.6733
  744SOL     OW 2973   2.749   0.982   1.793  0.1690 -0.3540  0.0056
  744SOL    HW1 2974   2.683   1.032   1.843 -1.2210 -1.8693 -0.1840
  744SOL    HW2 2975   2.705   0.952   1.708 -0.2518 -1.3173 -0.0498
  744SOL     MW 2976   2.735   0.985   1.788 -0.0699 -0.6811 -0.0267
  745SOL     OW 2977   1.767   0.413   2.490  0.6106  0.1420  0.4355
  745SOL    HW1 2978   1.751   0.440   2.399 -0.6608  1.3793 -0.0328
  745SOL    HW2 2979   1.683   0.397   2.529 -0.4954  0.2878  0.2254
  745SOL     MW 2980   1.754   0.415   2.483  0.2969  0.3245  0.3460
  746SOL     OW 2981   1.493   1.462   1.701  0.1374  0.2211  0.4920
  746SOL    HW1 2982   1.569   1.514   1.727  0.9776  1.3204 -0.8157
  746SOL    HW2 2983   1.477   1.407   1.781 -0.1226  2.6144  0.0436
  746SOL     MW 2984   1.501   1.462   1.715  0.2139  0.6819  0.2603
  747SOL     OW 2985   2.563   1.174   1.920 -0.5885  0.1148 -0.2262
  747SOL    HW1 2986   2.473   1.199   1.894  2.5183  1.9510  2.0143
  747SOL    HW2 2987   2.596   1.254   1.961  0.2796 -0.3008 -1.0131
  747SOL     MW 2988   2.555   1.188   1.922 -0.0641  0.3022 -0.0344
  748SOL     OW 2989   0.083   3.079   1.848  0.4763  0.2911 -0.3956
  748SOL    HW1 2990   0.174   3.083   1.872  1.0326  2.7028  2.1300
  748SOL    HW2 2991   0.038   3.128   1.921 -3.6004  1.0234 -0.5367
  748SOL     MW 2992   0.089   3.086   1.861  0.0118  0.7060 -0.0810
  749SOL     OW 2993   2.412   0.552   2.767 -0.5585 -0.3995 -0.4792
  749SOL    HW1 2994   2.431   0.641   2.733 -0.7409  2.4940  0.2046
  749SOL    HW2 2995   2.404   0.568   2.867 -0.4994 -0.1393  2.0609
  749SOL     MW 2996   2.413   0.566   2.776 -0.5748  0.0166 -0.0539
  750SOL     OW 2997   2.052   3.072   1.947  0.2204  0.2580  0.5584
  750SOL    HW1 2998   2.106   3.144   1.978 -1.1418 -0.0610 -1.7225
  750SOL    HW2 2999   2.117   2.993   1.958  2.8798 -2.6854  2.1885
  750SOL     MW 3000   2.068   3.071   1.952  0.3915 -0.1724  0.4725
  751SOL     OW 3001   0.031   0.393   2.409  0.0437  0.1007 -0.5931
  751SOL    HW1 3002  -0.033   0.434   2.353 -1.7516 -1.0829 -3.1485
  751SOL    HW2 3003   0.103   0.368   2.353 -1.2383  1.8502 -1.9542
  751SOL     MW 3004   0.032   0.395   2.395 -0.3624  0.1753 -1.1098
  752SOL     OW 3005   2.144   0.899   2.740 -0.1504  0.0149 -0.0741
  752SOL    HW1 3006   2.233   0.932   2.721  1.7601 -1.4417  1.8970
  752SOL    HW2 3007   2.137   0.891   2.834 -1.0493 -0.4747  0.7000
  752SOL     MW 3008   2.155   0.902   2.750 -0.0170 -0.2419  0.2881
  753SOL     OW 3009   2.853   0.384   2.346 -0.3854 -0.8847 -0.1380
  753SOL    HW1 3010   2.795   0.305   2.343  1.6754 -2.3875  0.4520
  753SOL    HW2 3011   2.802   0.447   2.394  3.0287  0.3637 -0.9514
  753SOL     MW 3012   2.838   0.382   2.352  0.3370 -0.9182 -0.1675
  754SOL     OW 3013   2.208   3.025   2.600 -0.3790 -0.0943  0.5347
  754SOL    HW1 3014   2.250   3.019   2.512 -1.1856  1.6186  0.1908
  754SOL    HW2 3015   2.279   3.001   2.657  0.6414  1.2036 -0.5445
  754SOL     MW 3016   2.223   3.021   2.596 -0.3508  0.3029  0.3469
  755SOL     OW 3017   2.784   1.580   2.495 -0.4537  0.2915  0.0493
  755SOL    HW1 3018   2.714   1.531   2.533 -1.3744  1.2187 -0.1492
  755SOL    HW2 3019   2.841   1.613   2.563 -2.2766  1.2430 -0.4585
  755SOL     MW 3020   2.782   1.578   2.509 -0.8157  0.5393 -0.0439
  756SOL     OW 3021   2.225   1.257   2.975 -0.1518  0.2963  0.6341
  756SOL    HW1 3022   2.292   1.318   2.999 -2.1740  0.1245 -1.2167
  756SOL    HW2 3023   2.274   1.173   2.997 -2.9944  0.5184  1.2150
  756SOL     MW 3024   2.240   1.254   2.981 -0.7936  0.3030  0.4666
  757SOL     OW 3025   2.152   0.969   1.634 -0.5812  0.3187 -0.1515
  757SOL    HW1 3026   2.167   0.875   1.623 -2.2962  0.6266  0.7247
  757SOL    HW2 3027   2.070   0.976   1.589 -0.6206 -0.6060 -1.3961
  757SOL     MW 3028   2.143   0.957   1.627 -0.8127  0.2374 -0.2001
  758SOL     OW 3029   2.248   1.733   2.665 -0.3886  0.2874  0.0882
  758SOL    HW1 3030   2.241   1.787   2.590 -1.3195 -1.8624  1.4518
  758SOL    HW2 3031   2.338   1.732   2.702  0.8864 -1.4998  0.3356
  758SOL     MW 3032   2.259   1.740   2.660 -0.3432 -0.2321  0.3007
  759SOL     OW 3033   1.547   1.391   2.775  0.5995 -0.4158 -0.5764
  759SOL    HW1 3034   1.566   1.480   2.758 -0.9103  2.0696 -0.5100
  759SOL    HW2 3035   1.616   1.377   2.837 -5.0158  1.6938  3.2668
  759SOL     MW 3036   1.558   1.401   2.781 -0.3406  0.1905 -0.0605
  760SOL     OW 3037   2.676   1.985   2.675 -0.1904 -0.1513  0.1638
  760SOL    HW1 3038   2.627   1.906   2.670  0.1122 -0.7807 -2.2354
  760SOL    HW2 3039   2.749   1.988   2.610 -1.1111 -2.9368  1.0979
  760SOL     MW 3040   2.679   1.975   2.666 -0.2719 -0.6019 -0.0295
  761SOL     OW 3041   2.121   0.401   2.466 -0.1540  0.3724 -0.3720
  761SOL    HW1 3042   2.061   0.324   2.446 -5.3582 -2.2235  1.9476
  761SOL    HW2 3043   2.103   0.418   2.555 -1.2547 -0.4052 -1.9908
  761SOL     MW 3044   2.111   0.393   2.475 -0.9859 -0.0727 -0.2796
  762SOL     OW 3045   0.022   0.163   2.068 -0.1137 -0.1863 -0.3998
  762SOL    HW1 3046   0.010   0.125   2.156 -3.2307  2.5402  0.7099
  762SOL    HW2 3047  -0.054   0.223   2.061  0.0678  0.8676  0.1683
  762SOL     MW 3048   0.011   0.166   2.079 -0.5010  0.3125 -0.1784
  763SOL     OW 3049   2.425   1.170   2.349  0.2416  0.1092 -0.1427
  763SOL    HW1 3050   2.465   1.126   2.269 -1.2078  1.6319 -1.0598
  763SOL    HW2 3051   2.490   1.234   2.386  0.9521 -0.6693  0.5323
  763SOL     MW 3052   2.438   1.173   2.343  0.1441  0.2074 -0.1747
  764SOL     OW 3053   0.315   0.171   2.809  0.3866  0.4424  0.2230
  764SOL    HW1 3054   0.238   0.195   2.751  1.0659 -2.2726 -0.5286
  764SOL    HW2 3055   0.320   0.232   2.883 -1.3722 -2.9639  1.8893
  764SOL     MW 3056   0.306   0.182   2.812  0.2441 -0.3652  0.3437
  765SOL     OW 3057   2.712   0.157   2.319 -0.6061  0.1014  0.0052
  765SOL    HW1 3058   2.640   0.122   2.270 -1.6573 -0.2006  3.2277
  765SOL    HW2 3059   2.775   0.085   2.308  0.6824  1.6537 -0.0222
  765SOL     MW 3060   2.710   0.143   2.311 -0.5748  0.2664  0.4267
  766SOL     OW 3061   1.864   3.013   2.111 -0.1518 -0.1444  0.3026
  766SOL    HW1 3062   1.941   3.036   2.053  1.3655  0.5405  2.0440
  766SOL    HW2 3063   1.803   2.951   2.065 -2.3170 -0.3066  2.0761
  766SOL     MW 3064   1.866   3.008   2.097 -0.2373 -0.0754  0.7664
  767SOL     OW 3065   2.671   0.606   1.859  0.3619 -0.2209 -0.1679
  767SOL    HW1 3066   2.704   0.669   1.919 -2.3474  2.5238  0.4524
  767SOL    HW2 3067   2.576   0.625   1.853 -1.4140 -1.8503  0.7541
  767SOL     MW 3068   2.663   0.617   1.866 -0.2298 -0.0737  0.0356
  768SOL     OW 3069   0.034   1.530   2.912  0.2899 -0.0411 -0.3114
  768SOL    HW1 3070   0.063   1.504   3.001  2.6873  1.5931 -0.1236
  768SOL    HW2 3071   0.069   1.469   2.843  0.6367 -2.7557  0.2399
  768SOL     MW 3072   0.043   1.519   2.915  0.6520 -0.1836 -0.2139
  769SOL     OW 3073   2.358   0.649   2.423 -0.3015  0.7261  0.0172
  769SOL    HW1 3074   2.310   0.569   2.419  0.3892 -2.0184 -2.5767
  769SOL    HW2 3075   2.410   0.652   2.340  0.6429  0.8124  0.1407
  769SOL     MW 3076   2.359   0.639   2.411 -0.0858  0.3753 -0.3088
  770SOL     OW 3077   0.040   1.624   2.571  0.0552 -0.1998 -0.1846
  770SOL    HW1 3078  -0.035   1.647   2.633  0.7042  2.4817 -0.2359
  770SOL    HW2 3079   0.083   1.551   2.614 -2.4354  0.8099  1.3432
  770SOL     MW 3080   0.036   1.617   2.585 -0.1878  0.2872  0.0102
  771SOL     OW 3081   3.049   0.624   1.985  0.9197 -0.2003 -0.1305
  771SOL    HW1 3082   3.006   0.611   1.897 -2.6133  1.1957 -0.5164
  771SOL    HW2 3083   3.129   0.577   1.969 -0.8504  3.3853  0.7703
  771SOL     MW 3084   3.054   0.616   1.971  0.2200  0.4570 -0.0625
  772SOL     OW 3085   0.014   0.013   2.338  0.0208  0.3941 -0.1960
  772SOL    HW1 3086  -0.070  -0.022   2.366  1.1675  0.9599 -2.1170
  772SOL    HW2 3087   0.048  -0.066   2.295  1.5726 -1.1556  1.4789
  772SOL     MW 3088   0.008  -0.002   2.336  0.3769  0.2643 -0.2285
  773SOL     OW 3089   2.418   2.899   2.759  0.1851  0.0224  0.0338
  773SOL    HW1 3090   2.418   2.821   2.710  1.1664  0.4832 -2.2818
  773SOL    HW2 3091   2.396   2.872   2.848 -0.7507  0.4315 -1.4228
  773SOL     MW 3092   2.415   2.885   2.764  0.1911  0.1372 -0.4639
  774SOL     OW 3093   2.311   1.181   1.781  0.6956  0.2195 -0.1454
  774SOL    HW1 3094   2.258   1.258   1.752 -1.1285 -1.4272  1.0590
  774SOL    HW2 3095   2.257   1.107   1.757 -3.5795 -0.4058  0.1867
  774SOL     MW 3096   2.297   1.181   1.774 -0.1091 -0.0803  0.0574
  775SOL     OW 3097   2.318   2.973   2.354 -0.6738  0.5227  0.0613
  775SOL    HW1 3098   2.346   3.043   2.301  1.7554 -1.3606  1.8945
  775SOL    HW2 3099   2.389   2.910   2.341  0.9233  1.4929  1.9827
  775SOL     MW 3100   2.331   2.974   2.345 -0.1426  0.4023  0.5567
  776SOL     OW 3101   0.131   1.498   0.091  0.4876 -0.0411  0.0333
  776SOL    HW1 3102   0.218   1.458   0.087 -2.7693 -3.8662 -0.9138
  776SOL    HW2 3103   0.082   1.434   0.140  1.1636 -1.9287  0.7211
  776SOL     MW 3104   0.136   1.484   0.097  0.1471 -0.7948 -0.0009
  777SOL     OW 3105   3.011   1.107   1.722 -0.0303 -0.2068  0.0124
  777SOL    HW1 3106   3.002   1.175   1.653 -0.0832  0.0529 -1.5734
  777SOL    HW2 3107   2.927   1.073   1.738 -0.6461  0.4112  1.8092
  777SOL     MW 3108   2.999   1.111   1.715 -0.1185 -0.0910  0.0402
  778SOL     OW 3109   2.843   0.436   2.755 -0.0066 -0.4444  0.6329
  778SOL    HW1 3110   2.798   0.462   2.840 -2.2241 -1.5235 -0.9137
  778SOL    HW2 3111   2.882   0.517   2.719  0.7640  3.0161  1.4147
  778SOL     MW 3112   2.842   0.450   2.762 -0.1975 -0.1302  0.5320
  779SOL     OW 3113   2.195   0.546   2.188 -1.1767 -0.1101  0.3738
  779SOL    HW1 3114   2.191   0.642   2.177 -0.1774  2.1227 -0.4625
  779SOL    HW2 3115   2.126   0.522   2.253 -0.2729 -0.6076 -1.1097
  779SOL     MW 3116   2.186   0.556   2.195 -0.9256  0.1189  0.0677
  780SOL     OW 3117   0.117   0.293   2.663 -0.5947  0.1466  0.2856
  780SOL    HW1 3118   0.105   0.358   2.729  1.0669 -1.1185  1.2342
  780SOL    HW2 3119   0.034   0.291   2.619 -1.2326 -3.1419  0.0155
  780SOL     MW 3120   0.104   0.302   2.666 -0.4597 -0.4542  0.3751
  781SOL     OW 3121   3.045   1.300   2.468  0.3435 -0.1407  0.3411
  781SOL    HW1 3122   3.029   1.370   2.403 -0.3712 -0.2082  0.1317
  781SOL    HW2 3123   3.071   1.224   2.418  0.2494  0.1977 -1.8342
  781SOL     MW 3124   3.046   1.299   2.453  0.2368 -0.1050  0.0265
  782SOL     OW 3125   0.654   1.591  -0.000  0.2673 -0.7314 -0.7971
  782SOL    HW1 3126   0.573   1.626  -0.043  2.4221 -0.2575  0.8350
  782SOL    HW2 3127   0.647   1.637   0.089 -0.0562  1.9763 -0.1300
  782SOL     MW 3128   0.642   1.602   0.006  0.5089 -0.3116 -0.4937
  783SOL     OW 3129   2.723   0.611   2.432 -0.0669 -0.5886 -0.3316
  783SOL    HW1 3130   2.679   0.623   2.347  0.2884 -0.5657 -1.1926
  783SOL    HW2 3131   2.646   0.571   2.479 -1.2338 -0.1819 -2.8041
  783SOL     MW 3132   2.707   0.607   2.427 -0.1740 -0.5319 -0.7714
  784SOL     OW 3133   0.120   0.815   2.825  0.3150  0.4062 -0.7330
  784SOL    HW1 3134   0.067   0.902   2.824 -0.2218  1.3306 -1.2772
  784SOL    HW2 3135   0.187   0.827   2.756  1.7020  1.5655  0.2506
  784SOL     MW 3136   0.122   0.828   2.815  0.4272  0.6811 -0.6750
  785SOL     OW 3137   0.415   0.493   2.179 -0.3373  0.0802 -0.0414
  785SOL    HW1 3138   0.438   0.503   2.082  2.0454  3.3185  1.0876
  785SOL    HW2 3139   0.324   0.456   2.176 -0.8577  1.1357  0.9748
  785SOL     MW 3140   0.406   0.489   2.166 -0.0916  0.6467  0.2417
  786SOL     OW 3141   1.929   0.349   2.956  0.0473  0.0904  0.1463
  786SOL    HW1 3142   1.914   0.432   2.996 -0.1716 -3.8703  2.2733
  786SOL    HW2 3143   1.972   0.369   2.868  2.5563  1.1361  0.4055
  786SOL     MW 3144   1.933   0.362   2.949  0.3494 -0.2942  0.4611
  787SOL     OW 3145   2.465   0.147   2.935 -0.1843  0.7908 -0.2251
  787SOL    HW1 3146   2.536   0.085   2.910 -2.2227  0.5300  1.0193
  787SOL    HW2 3147   2.502   0.209   2.999 -4.6474 -1.9322  1.0202
  787SOL     MW 3148   2.479   0.147   2.940 -1.0421  0.3971  0.1034
  788SOL     OW 3149   2.861   3.016   2.353 -0.8844 -0.3348 -0.6050
  788SOL    HW1 3150   2.825   3.007   2.445  2.1221  0.5219  1.5109
  788SOL    HW2 3151   2.874   2.930   2.315  0.4138 -2.2025 -1.2660
  788SOL     MW 3152   2.858   3.003   2.360 -0.3165 -0.4682 -0.4130
  789SOL     OW 3153   0.076   0.189   3.031  0.1498 -0.7390  0.3250
  789SOL    HW1 3154   0.005   0.129   3.017 -1.6371 -1.2747  1.6707
  789SOL    HW2 3155   0.055   0.265   2.976  1.6084  0.4161  1.8512
  789SOL     MW 3156   0.064   0.192   3.022  0.1065 -0.6573  0.7039
  790SOL     OW 3157   3.092   1.055   2.360  0.1882  0.4766  0.0871
  790SOL    HW1 3158   3.056   1.014   2.437 -0.0034  1.5601 -0.0289
  790SOL    HW2 3159   3.016   1.066   2.302 -2.6961  0.3975  0.9040
  790SOL     MW 3160   3.077   1.051   2.363 -0.2176  0.6091  0.1796
  791SOL     OW 3161   2.601   0.403   2.601 -0.6322 -0.0149  0.1324
  791SOL    HW1 3162   2.526   0.441   2.644  2.0007  2.2388  0.5597
  791SOL    HW2 3163   2.671   0.413   2.663  1.5213 -1.6597  3.9799
  791SOL     MW 3164   2.600   0.410   2.615 -0.0007  0.0654  0.6964
  792SOL     OW 3165   2.345   0.265   2.421  0.2155  0.6324 -0.0623
  792SOL    HW1 3166   2.261   0.318   2.424  0.5199 -0.1330 -1.3419
  792SOL    HW2 3167   2.384   0.239   2.505  1.6157  1.6107  0.0639
  792SOL     MW 3168   2.339   0.269   2.433  0.4404  0.6605 -0.2145
  793SOL     OW 3169   1.954   1.192   1.933 -0.4886 -0.4286 -0.2444
  793SOL    HW1 3170   1.900   1.181   1.847 -0.9306 -2.3492  0.2966
  793SOL    HW2 3171   2.006   1.111   1.931 -0.6420  0.9888 -3.9864
  793SOL     MW 3172   1.954   1.180   1.921 -0.5671 -0.4950 -0.6667
  794SOL     OW 3173   1.398   2.358   0.123 -0.5374 -0.4692  0.3468
  794SOL    HW1 3174   1.417   2.381   0.025 -0.4111 -1.9023 -1.5735
  794SOL    HW2 3175   1.468   2.407   0.171 -0.2317  0.1720 -1.0435
  794SOL     MW 3176   1.410   2.368   0.117 -0.4804 -0.5737 -0.0900
  795SOL     OW 3177   2.331   1.041   2.597  0.3149  0.5632  0.7111
  795SOL    HW1 3178   2.295   1.122   2.647  0.2380  0.8908  3.4602
  795SOL    HW2 3179   2.359   1.068   2.510 -0.4871 -2.9435 -0.4488
  795SOL     MW 3180   2.330   1.055   2.592  0.1989  0.1438  0.9208
  796SOL     OW 3181   0.253   0.551   2.787  0.6798  0.2082 -0.0948
  796SOL    HW1 3182   0.196   0.597   2.850  0.8467 -0.9236 -1.6035
  796SOL    HW2 3183   0.218   0.576   2.696  0.0061  1.9282 -0.7404
  796SOL     MW 3184   0.241   0.561   2.784  0.6129  0.2858 -0.3791
  797SOL     OW 3185   2.649   0.100   2.587  0.4150 -0.2054 -0.1443
  797SOL    HW1 3186   2.599   0.176   2.622  1.3213 -0.0805 -4.1069
  797SOL    HW2 3187   2.660   0.100   2.487  1.8501  1.5785 -0.7843
  797SOL     MW 3188   2.644   0.110   2.578  0.7240  0.0465 -0.7516
  798SOL     OW 3189   2.298   0.110   2.195 -0.3105  0.1327  0.8193
  798SOL    HW1 3190   2.325   0.176   2.260 -3.5925  1.7858  2.6014
  798SOL    HW2 3191   2.380   0.075   2.156 -0.2435 -1.3579 -0.8366
  798SOL     MW 3192   2.313   0.114   2.198 -0.7347  0.1541  0.8360
  799SOL     OW 3193   2.557   2.927   0.084  0.1336  0.1393 -0.8737
  799SOL    HW1 3194   2.478   2.880   0.054 -1.0836  1.8319 -0.6368
  799SOL    HW2 3195   2.530   2.962   0.168  2.1011 -1.9755 -1.4209
  799SOL     MW 3196   2.543   2.926   0.091  0.2326  0.0836 -0.9147
  800SOL     OW 3197   1.953   3.087   1.699 -0.0433  0.4498 -0.2165
  800SOL    HW1 3198   1.894   3.011   1.701  2.0849 -0.3723 -0.4393
  800SOL    HW2 3199   1.986   3.089   1.791 -1.7406 -1.7005 -2.4522
  800SOL     MW 3200   1.950   3.077   1.712  0.0135  0.0576 -0.5409
  801SOL     OW 3201   2.809   1.279   2.612 -0.2250  0.3537  0.5166
  801SOL    HW1 3202   2.801   1.186   2.607  1.9078 -0.3257  2.6181
  801SOL    HW2 3203   2.889   1.285   2.561 -0.3151 -2.1426  0.9991
  801SOL     MW 3204   2.819   1.267   2.605  0.0445 -0.0653  0.8575
  802SOL     OW 3205   2.624   1.470   2.773 -0.2646  0.0078 -0.2246
  802SOL    HW1 3206   2.596   1.372   2.773  3.0540 -0.5096 -1.3568
  802SOL    HW2 3207   2.714   1.457   2.791 -0.9078 -1.0472 -1.1590
  802SOL     MW 3208   2.632   1.455   2.775  0.0884 -0.1996 -0.4972
  803SOL     OW 3209   2.306   1.405   2.003  0.1270 -0.3290 -0.3258
  803SOL    HW1 3210   2.273   1.359   2.085 -0.9118  3.4751  1.5136
  803SOL    HW2 3211   2.294   1.346   1.928 -1.4586  1.6230 -1.6128
  803SOL     MW 3212   2.300   1.391   2.004 -0.2193  0.4304 -0.2530
  804SOL     OW 3213   2.267   0.067   0.046  0.7452  0.2593 -0.5861
  804SOL    HW1 3214   2.211   0.146   0.044 -0.7352 -2.8338  2.6520
  804SOL    HW2 3215   2.341   0.099  -0.003  1.6738  0.4336  1.7565
  804SOL     MW 3216   2.269   0.082   0.040  0.6724 -0.1258  0.1502
  805SOL     OW 3217   2.720   1.021   2.562 -0.4751  0.4064 -0.2147
  805SOL    HW1 3218   2.674   1.020   2.479  1.0249 -0.6345 -1.3070
  805SOL    HW2 3219   2.808   0.977   2.542 -1.5859 -1.4080  0.6630
  805SOL     MW 3220   2.725   1.015   2.548 -0.4238  0.0296 -0.2430
  806SOL     OW 3221   2.561   0.608   2.198  0.1313 -0.8080 -0.0847
  806SOL    HW1 3222   2.592   0.529   2.160 -0.6714  1.0959  1.1010
  806SOL    HW2 3223   2.505   0.649   2.133 -0.7218 -1.5993 -1.0992
  806SOL     MW 3224   2.557   0.603   2.184 -0.0872 -0.6612 -0.0621
  807SOL     OW 3225   0.064   1.172   2.020 -0.1513  0.0346 -0.6528
  807SOL    HW1 3226   0.093   1.083   2.046 -0.1940 -0.3196  1.8126
  807SOL    HW2 3227  -0.020   1.176   2.061 -3.9853  2.7745  0.1652
  807SOL     MW 3228   0.057   1.161   2.029 -0.6628  0.3494 -0.2196
  808SOL     OW 3229   2.636   3.062   2.817 -0.2308  0.1579 -0.0601
  808SOL    HW1 3230   2.561   2.998   2.801  0.7762  0.5576  1.2398
  808SOL    HW2 3231   2.654   3.101   2.733 -0.5462 -1.3259  1.1760
  808SOL     MW 3232   2.629   3.058   2.804 -0.1395  0.0149  0.2745
  809SOL     OW 3233   2.600   1.358   2.463 -0.0561 -0.8541 -0.8127
  809SOL    HW1 3234   2.634   1.338   2.547  0.1199 -1.9709 -0.4087
  809SOL    HW2 3235   2.663   1.348   2.394  0.6621  2.5645 -0.7805
  809SOL     MW 3236   2.613   1.354   2.465  0.0619 -0.5504 -0.7552
  810SOL     OW 3237   2.220   1.300   2.243 -0.4390 -0.2113 -0.4721
  810SOL    HW1 3238   2.284   1.241   2.285 -0.5061 -1.2360  1.1084
  810SOL    HW2 3239   2.143   1.315   2.298 -0.0338 -0.6341 -3.1794
  810SOL     MW 3240   2.218   1.294   2.256 -0.3944 -0.4023 -0.6207
  811SOL     OW 3241   1.551   0.136   2.286  0.3094 -0.1069 -0.0683
  811SOL    HW1 3242   1.626   0.080   2.323 -0.2955 -0.8521  0.4758
  811SOL    HW2 3243   1.523   0.094   2.205 -0.8852 -1.2470  2.0295
  811SOL     MW 3244   1.557   0.123   2.280  0.0720 -0.3557  0.2803
  812SOL     OW 3245   1.439   2.808   1.976  0.2422  0.4941  0.0073
  812SOL    HW1 3246   1.530   2.833   1.957 -1.0025  0.0755 -1.2169
  812SOL    HW2 3247   1.444   2.788   2.070 -1.1474 -0.3948  1.4013
  812SOL     MW 3248   1.452   2.809   1.986 -0.1054  0.3216  0.0297
  813SOL     OW 3249   1.892   0.702   2.235 -0.4907  0.0391 -0.5462
  813SOL    HW1 3250   1.875   0.612   2.263 -4.7920 -2.5673  1.5982
  813SOL    HW2 3251   1.864   0.766   2.305 -1.8797 -0.9846  0.6664
  813SOL     MW 3252   1.886   0.698   2.248 -1.2415 -0.4399 -0.1033
  814SOL     OW 3253   2.685   1.236   1.637  0.0996  0.4433  0.1191
  814SOL    HW1 3254   2.671   1.152   1.691  2.5993 -1.0051 -1.5077
  814SOL    HW2 3255   2.701   1.199   1.549 -0.5323 -1.4977 -2.5898
  814SOL     MW 3256   2.686   1.220   1.632  0.3460 -0.0039 -0.4530
  815SOL     OW 3257   2.537   1.744   2.404 -0.2488 -0.6177 -0.7760
  815SOL    HW1 3258   2.495   1.665   2.390  4.9248  2.4054 -0.5515
  815SOL    HW2 3259   2.632   1.725   2.397  0.0973 -1.2640  0.1379
  815SOL     MW 3260   2.544   1.731   2.402  0.4795 -0.3041 -0.6258
  816SOL     OW 3261   0.768   0.671   2.749  0.2566 -0.9707 -0.0010
  816SOL    HW1 3262   0.749   0.585   2.778  0.2973  0.5709  0.1625
  816SOL    HW2 3263   0.689   0.670   2.688 -2.2813 -1.9023  0.8286
  816SOL     MW 3264   0.755   0.660   2.745 -0.0729 -0.8902  0.1300
  817SOL     OW 3265   3.040   1.235   1.464  0.2242 -0.0038  0.3337
  817SOL    HW1 3266   3.133   1.230   1.475  1.7287  3.9331 -0.3998
  817SOL    HW2 3267   3.031   1.321   1.421 -0.6082  2.3011 -0.9103
  817SOL     MW 3268   3.051   1.246   1.460  0.3128  0.8197  0.0728
  818SOL     OW 3269   1.874   1.027   2.698  0.0885 -0.6761 -0.3700
  818SOL    HW1 3270   1.856   0.993   2.607 -0.3180  2.9136  0.4855
  818SOL    HW2 3271   1.957   0.985   2.719 -0.8684 -2.9929 -0.5601
  818SOL     MW 3272   1.882   1.017   2.689 -0.0914 -0.5082 -0.2822
  819SOL     OW 3273   1.945   0.203   2.433 -0.2238 -0.2079 -0.5185
  819SOL    HW1 3274   1.866   0.254   2.418  1.5320  1.6820  1.4167
  819SOL    HW2 3275   1.967   0.214   2.529  1.7912  1.4803  1.4377
  819SOL     MW 3276   1.937   0.211   2.444  0.2737  0.2642 -0.0051
  820SOL     OW 3277   2.528   1.759   2.689 -0.3486  0.2791 -0.1199
  820SOL    HW1 3278   2.579   1.687   2.735  1.8740 -1.1091  0.1520
  820SOL    HW2 3279   2.517   1.729   2.599  2.1121  0.0764  2.2855
  820SOL     MW 3280   2.533   1.745   2.683  0.2693  0.0692  0.2333
  821SOL     OW 3281   2.560   1.410   2.058 -0.3913  0.0459  0.4805
  821SOL    HW1 3282   2.591   1.477   1.999 -0.0815 -1.3247 -3.1576
  821SOL    HW2 3283   2.463   1.410   2.024  0.1809  0.3946 -3.3164
  821SOL     MW 3284   2.551   1.419   2.046 -0.2749 -0.0890 -0.5005
  822SOL     OW 3285   2.730   2.643   1.387 -0.5039 -0.0162 -0.3973
  822SOL    HW1 3286   2.741   2.654   1.480 -0.2238 -1.4506 -2.1446
  822SOL    HW2 3287   2.665   2.703   1.359  0.7183 -1.7637 -0.5189
  822SOL     MW 3288   2.723   2.653   1.395 -0.3057 -0.4360 -0.6439
  823SOL     OW 3289   2.313   0.464   1.780 -0.6315  0.2237 -0.1501
  823SOL    HW1 3290   2.387   0.421   1.742 -3.2423 -1.8497 -1.0491
  823SOL    HW2 3291   2.242   0.398   1.777  2.2785 -1.5617  0.2900
  823SOL     MW 3292   2.313   0.450   1.775 -0.5920 -0.2854 -0.2106
  824SOL     OW 3293   2.124   1.463   2.532 -0.3220 -0.2492 -0.5578
  824SOL    HW1 3294   2.201   1.511   2.500 -0.9953  0.4076 -2.8188
  824SOL    HW2 3295   2.082   1.527   2.593  0.3652 -0.9065 -1.4808
  824SOL     MW 3296   2.129   1.478   2.536 -0.3201 -0.2492 -0.9779
  825SOL     OW 3297   1.855   2.542   0.293  0.4381  0.3504 -0.3376
  825SOL    HW1 3298   1.873   2.478   0.366  0.1695 -0.1379 -0.6375
  825SOL    HW2 3299   1.934   2.531   0.238 -0.6263  0.3244 -0.8173
  825SOL     MW 3300   1.868   2.532   0.295  0.2622  0.2826 -0.4405
  826SOL     OW 3301   1.879   2.362   0.532  0.2050 -0.0650  0.2095
  826SOL    HW1 3302   1.840   2.282   0.580 -2.5699 -0.9128  0.3164
  826SOL    HW2 3303   1.836   2.440   0.565  4.4702  1.4401 -1.0968
  826SOL     MW 3304   1.868   2.362   0.543  0.4016  0.0217  0.0513
  827SOL     OW 3305   1.939   2.204   0.938 -0.2171  0.1308  0.1114
  827SOL    HW1 3306   1.887   2.268   0.889  0.5008 -1.5230  3.0960
  827SOL    HW2 3307   1.889   2.123   0.934 -3.5439  0.2348  0.5851
  827SOL     MW 3308   1.925   2.202   0.931 -0.5613 -0.0737  0.5676
  828SOL     OW 3309   0.070   2.612   0.590  0.2538  0.3622  0.3221
  828SOL    HW1 3310   0.162   2.640   0.589 -0.6181 -0.0140 -1.5101
  828SOL    HW2 3311   0.040   2.658   0.504  2.7819  0.0184 -2.9339
  828SOL     MW 3312   0.078   2.621   0.579  0.4723  0.2672 -0.3492
  829SOL     OW 3313   2.935   2.959   1.139 -0.6676 -0.0572  0.0063
  829SOL    HW1 3314   2.856   2.917   1.110 -0.1341  1.1296  1.4341
  829SOL    HW2 3315   3.002   2.888   1.139 -0.5428 -2.1015 -0.3854
  829SOL     MW 3316   2.933   2.944   1.135 -0.5808 -0.1703  0.1430
  830SOL     OW 3317   2.509   2.885   2.021  0.4557  0.2186  0.1743
  830SOL    HW1 3318   2.414   2.879   2.010  0.3673 -0.5150 -0.5399
  830SOL    HW2 3319   2.549   2.863   1.938 -0.5857 -1.0638 -0.8092
  830SOL     MW 3320   2.502   2.881   2.008  0.3066 -0.0474 -0.0497
  831SOL     OW 3321   2.390   2.478   1.261 -0.1299 -0.4134  0.3782
  831SOL    HW1 3322   2.361   2.436   1.350 -0.6818  0.0659  2.7596
  831SOL    HW2 3323   2.469   2.427   1.227 -0.2986  0.1180  2.1155
  831SOL     MW 3324   2.397   2.466   1.268 -0.2250 -0.2800  0.9216
  832SOL     OW 3325   2.395   2.182   1.919  0.7753 -0.0217  0.0512
  832SOL    HW1 3326   2.411   2.261   1.974 -1.3981  0.0550  0.9618
  832SOL    HW2 3327   2.489   2.165   1.897 -0.2818  0.9453 -3.0571
  832SOL     MW 3328   2.410   2.190   1.923  0.3491  0.1160 -0.2388
  833SOL     OW 3329   1.765   2.403   0.861 -0.2636 -0.0468 -0.4419
  833SOL    HW1 3330   1.671   2.403   0.872  3.8653  2.3280  0.3798
  833SOL    HW2 3331   1.781   2.446   0.941  2.5577 -0.6374  3.2716
  833SOL     MW 3332   1.754   2.408   0.873  0.6534  0.1886  0.1565
  834SOL     OW 3333   2.137   2.484   0.585 -0.2491 -0.5258 -0.0439
  834SOL    HW1 3334   2.058   2.431   0.583  0.7734 -1.1633  1.2314
  834SOL    HW2 3335   2.172   2.456   0.502  3.0487  2.2590 -4.3972
  834SOL     MW 3336   2.132   2.473   0.573  0.3209 -0.2425 -0.4500
  835SOL     OW 3337   1.788   2.604   0.668  0.1731 -0.3714  0.1003
  835SOL    HW1 3338   1.778   2.556   0.753 -0.5214  0.3533 -1.5246
  835SOL    HW2 3339   1.868   2.652   0.675  0.0904 -0.2071 -1.7557
  835SOL     MW 3340   1.797   2.604   0.680  0.0705 -0.2541 -0.3590
  836SOL     OW 3341   1.898   2.201   1.616  0.1437  0.0431 -0.0449
  836SOL    HW1 3342   1.978   2.227   1.663 -1.1303  2.9320  1.4582
  836SOL    HW2 3343   1.829   2.262   1.641  0.5889  0.0695  0.9327
  836SOL     MW 3344   1.900   2.213   1.626  0.0343  0.4277  0.2824
  837SOL     OW 3345   2.128   0.169   0.719  0.6144  0.7888  0.2737
  837SOL    HW1 3346   2.037   0.203   0.698 -1.0075 -1.4715  0.3843
  837SOL    HW2 3347   2.153   0.113   0.637  0.1679  3.1385 -3.5711
  837SOL     MW 3348   2.119   0.166   0.706  0.3415  0.8006 -0.2190
  838SOL     OW 3349   2.952   2.117   0.935  0.1791  0.7536 -0.0812
  838SOL    HW1 3350   2.887   2.064   0.984  0.9060 -0.3963  2.2532
  838SOL    HW2 3351   3.017   2.056   0.904 -2.0921  0.0897 -2.8202
  838SOL     MW 3352   2.952   2.102   0.937 -0.0246  0.5143 -0.1346
  839SOL     OW 3353   1.508   2.356   0.954  0.3892 -0.0810  0.1493
  839SOL    HW1 3354   1.509   2.430   1.011  2.1866  0.1383 -0.0792
  839SOL    HW2 3355   1.524   2.281   1.015 -0.8516  0.0480  1.9181
  839SOL     MW 3356   1.511   2.356   0.970  0.4627 -0.0350  0.3526
  840SOL     OW 3357   2.350   2.092   2.416 -0.2114  0.4125 -0.1821
  840SOL    HW1 3358   2.312   2.164   2.371  2.1230 -4.2786 -0.2695
  840SOL    HW2 3359   2.377   2.135   2.498  0.3421 -2.9756  1.1609
  840SOL     MW 3360   2.348   2.107   2.421  0.1696 -0.6534 -0.0164
  841SOL     OW 3361   2.078   2.483   0.137 -0.0324 -0.4100  0.0505
  841SOL    HW1 3362   2.132   2.514   0.062  0.3124 -0.0170  0.4526
  841SOL    HW2 3363   2.053   2.390   0.107 -2.4646 -1.2783 -1.6050
  841SOL     MW 3364   2.082   2.475   0.123 -0.3078 -0.4727 -0.1149
  842SOL     OW 3365   2.595   1.988   1.559  0.5765 -0.6820  0.3846
  842SOL    HW1 3366   2.532   1.927   1.587  1.8828 -2.6879 -0.9068
  842SOL    HW2 3367   2.560   2.026   1.481 -0.8602 -0.9340 -1.1409
  842SOL     MW 3368   2.582   1.985   1.553  0.5593 -0.9799  0.0129
  843SOL     OW 3369   2.622   2.765   1.801 -0.8120 -0.3483  0.3265
  843SOL    HW1 3370   2.714   2.743   1.771  4.0336 -0.1172 -1.6823
  843SOL    HW2 3371   2.570   2.691   1.772  0.2581  3.2787  1.1341
  843SOL     MW 3372   2.627   2.753   1.794 -0.0315  0.1607  0.1680
  844SOL     OW 3373   2.596   2.311   1.184  0.3576 -0.1833  0.0918
  844SOL    HW1 3374   2.641   2.327   1.103 -1.5766 -1.5565  1.3242
  844SOL    HW2 3375   2.677   2.317   1.245 -0.4523 -1.7900  3.7401
  844SOL     MW 3376   2.613   2.314   1.182 -0.0044 -0.5765  0.7358
  845SOL     OW 3377   2.845   2.487   0.270 -0.0273  0.2578 -0.3706
  845SOL    HW1 3378   2.823   2.396   0.265 -1.1381  1.0397  1.3386
  845SOL    HW2 3379   2.863   2.511   0.362  0.4781 -1.7625 -0.9761
  845SOL     MW 3380   2.844   2.478   0.281 -0.1072  0.0944 -0.2250
  846SOL     OW 3381   1.526   2.903   0.767  0.7374 -0.5106 -0.2208
  846SOL    HW1 3382   1.607   2.932   0.814  1.6428 -0.1817  2.9469
  846SOL    HW2 3383   1.448   2.939   0.811 -2.4363  0.3535 -0.4825
  846SOL     MW 3384   1.526   2.912   0.779  0.4381 -0.3532  0.1626
  847SOL     OW 3385   2.578   1.927   0.164 -0.1310 -0.0996  0.4805
  847SOL    HW1 3386   2.663   1.870   0.163 -0.1010 -1.3947  1.3880
  847SOL    HW2 3387   2.517   1.877   0.099  0.3684  0.4775 -1.8309
  847SOL     MW 3388   2.581   1.913   0.155 -0.0612 -0.1943  0.2953
  848SOL     OW 3389   2.492   2.116   1.342  0.5864  0.0531  1.1688
  848SOL    HW1 3390   2.517   2.181   1.273  1.5324  0.3079  0.9170
  848SOL    HW2 3391   2.464   2.035   1.299  0.3177 -0.8068 -0.1343
  848SOL     MW 3392   2.492   2.114   1.327  0.6758 -0.0267  0.9636
  849SOL     OW 3393   1.995   2.742   0.747  0.0712 -0.1562  0.1637
  849SOL    HW1 3394   2.041   2.678   0.803 -0.0692  1.9039 -3.3319
  849SOL    HW2 3395   2.072   2.778   0.695  3.3976  0.7481  0.1596
  849SOL     MW 3396   2.011   2.738   0.747  0.4915  0.2349 -0.2981
  850SOL     OW 3397   2.185   1.950   1.664 -0.0013 -0.4272 -0.6878
  850SOL    HW1 3398   2.092   1.947   1.649 -0.6575 -1.2925 -0.5156
  850SOL    HW2 3399   2.210   2.046   1.656 -1.0443  0.1543 -3.5919
  850SOL     MW 3400   2.176   1.963   1.661 -0.2255 -0.4646 -1.0483
  851SOL     OW 3401   2.253   2.419   0.338  0.2194  0.1393 -0.0352
  851SOL    HW1 3402   2.184   2.426   0.267  1.7066 -0.7834 -0.6519
  851SOL    HW2 3403   2.327   2.483   0.325  1.3117 -0.2554 -1.7597
  851SOL     MW 3404   2.253   2.429   0.327  0.5598 -0.0345 -0.3441
  852SOL     OW 3405   2.357   2.166   0.238  0.1925 -0.1771  0.1389
  852SOL    HW1 3406   2.335   2.256   0.265 -0.6229 -1.0970  3.4740
  852SOL    HW2 3407   2.459   2.164   0.231  3.1302 -0.1800  0.3705
  852SOL     MW 3408   2.368   2.178   0.241  0.4725 -0.2989  0.6095
  853SOL     OW 3409   2.490   2.431   2.015  0.0568 -0.6075  0.2469
  853SOL    HW1 3410   2.499   2.461   1.926 -1.8447  2.3881  0.0601
  853SOL    HW2 3411   2.577   2.422   2.048  0.2780  1.2447  0.4423
  853SOL     MW 3412   2.503   2.434   2.008 -0.1649  0.0321  0.2480
  854SOL     OW 3413   2.800   2.269   0.770 -0.3179 -0.1709 -0.4359
  854SOL    HW1 3414   2.723   2.222   0.734  0.0913 -0.5089 -0.2663
  854SOL    HW2 3415   2.840   2.203   0.831  1.5962  0.1037 -0.6553
  854SOL     MW 3416   2.795   2.254   0.773 -0.0114 -0.1792 -0.4425
  855SOL     OW 3417   2.699   2.261   0.357 -0.0691 -0.0404 -0.1419
  855SOL    HW1 3418   2.679   2.322   0.426  2.6636 -0.5840 -1.4103
  855SOL    HW2 3419   2.760   2.194   0.382  0.0890 -1.8669  1.9852
  855SOL     MW 3420   2.705   2.260   0.370  0.3123 -0.3531 -0.0286
  856SOL     OW 3421   2.210   1.917   0.198 -0.1060  0.3530  0.2050
  856SOL    HW1 3422   2.122   1.939   0.238 -0.2704  0.2644 -0.2144
  856SOL    HW2 3423   2.271   1.993   0.200  1.5671  0.3698 -0.7667
  856SOL     MW 3424   2.206   1.930   0.204  0.0930  0.3435  0.0214
  857SOL     OW 3425   2.576   1.967   0.445  0.0973 -0.0151 -0.1724
  857SOL    HW1 3426   2.604   2.055   0.430 -0.2136 -2.2664  3.6828
  857SOL    HW2 3427   2.561   1.924   0.356  0.4608 -1.8942 -3.7323
  857SOL     MW 3428   2.578   1.973   0.431  0.1042 -0.5600 -0.1334
  858SOL     OW 3429   2.825   2.664   1.651  0.1778  0.4475  0.1625
  858SOL    HW1 3430   2.912   2.687   1.684 -1.0590  0.0594  1.2505
  858SOL    HW2 3431   2.818   2.577   1.688 -4.2878 -0.5739  3.3460
  858SOL     MW 3432   2.835   2.655   1.661 -0.5746  0.2616  0.7261
  859SOL     OW 3433   2.122   2.537   0.892  0.4463 -0.1420  0.2433
  859SOL    HW1 3434   2.099   2.470   0.830 -0.6800 -2.2936  0.8236
  859SOL    HW2 3435   2.211   2.516   0.927  0.6133  0.0436  0.5105
  859SOL     MW 3436   2.131   2.525   0.888  0.3197 -0.4014  0.3551
  860SOL     OW 3437   2.618   2.590   0.149 -0.0112 -0.1118  0.6770
  860SOL    HW1 3438   2.679   2.557   0.212 -2.2120 -1.5923  0.4687
  860SOL    HW2 3439   2.657   2.668   0.113  0.8238  1.2738  1.5749
  860SOL     MW 3440   2.631   2.596   0.153 -0.1914 -0.1243  0.7680
  861SOL     OW 3441   1.546   2.132   1.123  0.2125  0.1959 -0.8081
  861SOL    HW1 3442   1.554   2.207   1.195 -0.9053  1.3753 -1.1862
  861SOL    HW2 3443   1.510   2.057   1.158  0.0314  1.4225  2.7152
  861SOL     MW 3444   1.542   2.132   1.137  0.0411  0.5134 -0.3931
  862SOL     OW 3445   2.416   1.771   1.560 -0.5313 -0.1893 -0.0663
  862SOL    HW1 3446   2.322   1.788   1.569  0.0683  1.1564 -0.5525
  862SOL    HW2 3447   2.424   1.756   1.462  2.8800 -1.6678 -1.4992
  862SOL     MW 3448   2.405   1.771   1.548 -0.0021 -0.2068 -0.3195
  863SOL     OW 3449   0.011   1.910   1.119 -0.5168  0.2232 -0.4117
  863SOL    HW1 3450   0.100   1.916   1.153  2.2493 -2.2625  0.2906
  863SOL    HW2 3451  -0.050   1.974   1.164 -0.5126  1.6042  1.2467
  863SOL     MW 3452   0.015   1.920   1.129 -0.1513  0.0774 -0.1002
  864SOL     OW 3453   0.029   1.920   0.851  0.0704  0.1873 -0.2821
  864SOL    HW1 3454   0.016   1.891   0.944 -0.3871  2.5266 -0.3897
  864SOL    HW2 3455  -0.025   1.861   0.803 -0.4928 -1.3313 -2.9868
  864SOL     MW 3456   0.020   1.908   0.857 -0.0643  0.2956 -0.6532
  865SOL     OW 3457   2.613   2.144   0.002 -0.2057 -0.4256 -0.3198
  865SOL    HW1 3458   2.601   2.066   0.061  1.1630 -2.0406 -0.9892
  865SOL    HW2 3459   2.572   2.111  -0.079 -1.6255 -0.5335 -0.4428
  865SOL     MW 3460   2.606   2.129  -0.001 -0.2124 -0.6529 -0.4243
  866SOL     OW 3461   2.689   2.312   1.600  0.0631 -0.0804 -0.2048
  866SOL    HW1 3462   2.691   2.217   1.604 -0.8126 -0.9033 -0.3377
  866SOL    HW2 3463   2.705   2.335   1.507  2.3432  1.1530  2.3113
  866SOL     MW 3464   2.691   2.302   1.588  0.2484 -0.0263  0.1096
  867SOL     OW 3465   0.001   2.662   1.787  0.0379 -0.2507 -0.0092
  867SOL    HW1 3466   0.045   2.639   1.867  0.1254 -0.2578 -3.2880
  867SOL    HW2 3467   0.015   2.754   1.769 -0.2680  1.3732 -0.0221
  867SOL     MW 3468   0.009   2.671   1.795  0.0091 -0.0374 -0.4435
  868SOL     OW 3469   2.825   2.581   0.533 -0.1410 -0.2271  0.0989
  868SOL    HW1 3470   2.733   2.564   0.556  0.1646  2.7144 -0.9553
  868SOL    HW2 3471   2.826   2.671   0.499 -1.3564  0.9962 -1.2077
  868SOL     MW 3472   2.813   2.591   0.532 -0.2610  0.3224 -0.2125
  869SOL     OW 3473   1.994   2.385   1.138 -0.1066  0.1929  1.0782
  869SOL    HW1 3474   2.069   2.433   1.104  0.0054 -0.9733  0.2522
  869SOL    HW2 3475   1.988   2.310   1.072 -0.6019 -2.1311 -0.8277
  869SOL     MW 3476   2.003   2.381   1.125 -0.1572 -0.2676  0.7177
  870SOL     OW 3477   2.158   0.048   0.482  0.1155 -0.0038  0.1723
  870SOL    HW1 3478   2.240   0.088   0.433  1.3930 -0.7393 -0.6003
  870SOL    HW2 3479   2.168  -0.051   0.476  1.5001  0.6786  0.9427
  870SOL     MW 3480   2.170   0.040   0.475  0.4668 -0.0108  0.1720
  871SOL     OW 3481   2.471   2.124   0.953  0.0630 -0.1000  0.1734
  871SOL    HW1 3482   2.411   2.060   0.909  0.5952  1.2716  0.8029
  871SOL    HW2 3483   2.418   2.203   0.968  2.5534  0.9704 -1.2803
  871SOL     MW 3484   2.456   2.126   0.949  0.4618  0.2222  0.0646
  872SOL     OW 3485   2.035   2.554   1.449 -0.1104  0.0957  0.8391
  872SOL    HW1 3486   2.011   2.598   1.533 -1.2349  0.7406  0.2901
  872SOL    HW2 3487   1.964   2.492   1.425  1.3084 -1.5884 -1.4344
  872SOL     MW 3488   2.023   2.552   1.457 -0.0715 -0.0414  0.4667
  873SOL     OW 3489   2.916   2.078   1.926  0.0419  0.1882 -0.3356
  873SOL    HW1 3490   2.948   2.129   2.003  1.1545  2.0795 -0.3150
  873SOL    HW2 3491   2.937   2.115   1.838  0.3472  1.4325  0.4075
  873SOL     MW 3492   2.923   2.090   1.924  0.2290  0.6019 -0.2348
  874SOL     OW 3493   2.397   1.512   2.372 -0.3533  0.5681  0.1298
  874SOL    HW1 3494   2.339   1.473   2.313  1.8889  1.9952  0.3200
  874SOL    HW2 3495   2.474   1.457   2.391  1.6478  0.8893 -1.8119
  874SOL     MW 3496   2.400   1.500   2.367  0.2066  0.7987 -0.1013
  875SOL     OW 3497   2.281   2.333   1.073  0.1537  1.0056 -0.0648
  875SOL    HW1 3498   2.313   2.392   1.004  1.1370 -2.2293 -0.6946
  875SOL    HW2 3499   2.325   2.371   1.153  1.4245 -1.4966 -1.0469
  875SOL     MW 3500   2.291   2.346   1.075  0.4511  0.2486 -0.2775
  876SOL     OW 3501   3.051   2.315   1.239 -0.1611  0.2177  0.0957
  876SOL    HW1 3502   3.069   2.325   1.141 -0.7301 -1.4693 -0.2955
  876SOL    HW2 3503   3.099   2.390   1.282  1.2982  2.6617 -0.5663
  876SOL     MW 3504   3.060   2.326   1.232 -0.0436  0.3176 -0.0433
  877SOL     OW 3505   3.087   2.715   0.369 -0.3056  0.2205  0.0454
  877SOL    HW1 3506   3.149   2.788   0.385  2.2707  0.7616 -1.8921
  877SOL    HW2 3507   3.093   2.687   0.279  0.4262 -1.2980  0.4683
  877SOL     MW 3508   3.096   2.721   0.359  0.1309  0.0915 -0.1545
  878SOL     OW 3509   2.419   1.855   1.278  0.2806  0.4430  0.6203
  878SOL    HW1 3510   2.359   1.796   1.233 -1.2652  0.5257  0.0630
  878SOL    HW2 3511   2.504   1.819   1.260  2.1650  1.2449 -1.6064
  878SOL     MW 3512   2.422   1.842   1.269  0.3253  0.5597  0.2530
  879SOL     OW 3513   2.673   2.427   0.958 -0.0582  0.1666  0.1754
  879SOL    HW1 3514   2.734   2.487   1.000 -0.2638  0.9302  1.6153
  879SOL    HW2 3515   2.722   2.364   0.898  1.1298  0.2038 -1.1187
  879SOL     MW 3516   2.687   2.426   0.956  0.0714  0.2723  0.1946
  880SOL     OW 3517   2.522   2.165   0.678  0.2596  0.1255 -0.1757
  880SOL    HW1 3518   2.511   2.165   0.772  2.3758  1.9129  4.0452
  880SOL    HW2 3519   2.524   2.073   0.649 -1.7478  1.2157 -1.3736
  880SOL     MW 3520   2.521   2.153   0.686  0.2739  0.5052  0.2232
  881SOL     OW 3521   2.963   2.654   0.770  0.1587 -0.0387  0.1881
  881SOL    HW1 3522   2.929   2.615   0.689  1.6548  0.6978 -3.0126
  881SOL    HW2 3523   3.058   2.643   0.754  0.8773 -1.2375  0.6231
  881SOL     MW 3524   2.971   2.647   0.757  0.4509 -0.0997 -0.1768
  882SOL     OW 3525   2.240   2.883   1.962 -0.7260  0.4096 -0.0484
  882SOL    HW1 3526   2.234   2.861   1.870  1.4867 -0.9518 -0.8120
  882SOL    HW2 3527   2.212   2.801   2.008  0.3673  0.5822 -0.0436
  882SOL     MW 3528   2.235   2.870   1.956 -0.2898  0.2528 -0.1485
  883SOL     OW 3529   2.307   2.301   1.456  0.2144 -0.3207  0.5502
  883SOL    HW1 3530   2.383   2.242   1.427  2.5505 -3.7667  0.8627
  883SOL    HW2 3531   2.231   2.260   1.406 -0.2879 -1.1096 -0.7088
  883SOL     MW 3532   2.307   2.288   1.446  0.4563 -0.8795  0.4253
  884SOL     OW 3533   1.972   1.850   1.153 -0.6538  0.0432  0.2745
  884SOL    HW1 3534   1.892   1.891   1.121 -2.2089 -2.1060  0.9089
  884SOL    HW2 3535   2.040   1.912   1.161 -0.4181  0.6108 -1.8958
  884SOL     MW 3536   1.970   1.863   1.149 -0.8279 -0.1654  0.0718
  885SOL     OW 3537   2.828   2.426   1.797  0.4474 -0.3252  0.2335
  885SOL    HW1 3538   2.926   2.409   1.796  0.9865 -0.8664  0.6098
  885SOL    HW2 3539   2.789   2.370   1.722 -1.6481 -1.5163 -0.2734
  885SOL     MW 3540   2.836   2.416   1.787  0.2420 -0.5538  0.2163
  886SOL     OW 3541   2.793   2.387   1.365 -0.0673  0.3606  0.1764
  886SOL    HW1 3542   2.874   2.375   1.317  0.3289 -0.9578 -1.5948
  886SOL    HW2 3543   2.764   2.476   1.337 -1.8064  0.3191 -1.3895
  886SOL     MW 3544   2.800   2.397   1.355 -0.2445  0.1812 -0.2639
  887SOL     OW 3545   2.302   2.603   1.528  0.4390 -0.1145 -0.0237
  887SOL    HW1 3546   2.303   2.667   1.448  0.3603 -1.2381 -1.7006
  887SOL    HW2 3547   2.212   2.562   1.525 -1.1037  0.9044  0.1026
  887SOL     MW 3548   2.290   2.606   1.517  0.2251 -0.1284 -0.2283
  888SOL     OW 3549   1.839   2.119   1.351 -0.0269  0.3987 -0.4262
  888SOL    HW1 3550   1.918   2.129   1.304 -1.4869 -1.2203 -2.7114
  888SOL    HW2 3551   1.861   2.116   1.444  2.3669 -1.2394 -0.3077
  888SOL     MW 3552   1.853   2.120   1.357  0.0963 -0.0310 -0.7121
  889SOL     OW 3553   2.336   1.973   2.102  0.2279  0.4978  0.4099
  889SOL    HW1 3554   2.417   1.961   2.152 -1.5109  0.8203  1.4110
  889SOL    HW2 3555   2.341   2.055   2.051  0.5513  0.6649 -0.4596
  889SOL     MW 3556   2.347   1.982   2.102  0.0412  0.5624  0.4272
  890SOL     OW 3557   0.103   2.389   0.180  0.1104  0.0656 -0.3708
  890SOL    HW1 3558   0.062   2.473   0.165 -1.7244 -0.7398 -0.9295
  890SOL    HW2 3559   0.057   2.358   0.255 -1.5673 -0.6427 -2.8952
  890SOL     MW 3560   0.092   2.396   0.188 -0.3531 -0.1341 -0.7776
  891SOL     OW 3561   2.994   2.044   1.325  0.3809 -0.1441  0.2560
  891SOL    HW1 3562   3.085   2.038   1.365  0.4363 -0.5204 -0.5302
  891SOL    HW2 3563   2.995   2.137   1.307 -0.1495 -0.4100  0.1105
  891SOL     MW 3564   3.006   2.055   1.328  0.3182 -0.2289  0.1331
  892SOL     OW 3565   2.436   2.359   2.850  0.2637 -0.0955 -0.0523
  892SOL    HW1 3566   2.426   2.264   2.860 -0.6432 -1.0664  0.3805
  892SOL    HW2 3567   2.529   2.385   2.845 -1.4762  0.6308  0.2903
  892SOL     MW 3568   2.447   2.350   2.851 -0.0855 -0.1278  0.0500
  893SOL     OW 3569   1.606   2.336   1.293  0.0854 -0.4545  0.3850
  893SOL    HW1 3570   1.547   2.390   1.351  0.2141  0.2148  1.4567
  893SOL    HW2 3571   1.691   2.349   1.335 -0.8709  0.9530 -1.1538
  893SOL     MW 3572   1.610   2.345   1.306 -0.0238 -0.1805  0.3234
  894SOL     OW 3573   2.805   1.793   0.455  0.1132 -0.3826  0.3903
  894SOL    HW1 3574   2.702   1.798   0.454 -4.2903 -1.4359  0.4962
  894SOL    HW2 3575   2.841   1.783   0.369 -1.4782  1.4347  3.2630
  894SOL     MW 3576   2.796   1.792   0.443 -0.6778 -0.2818  0.7833
  895SOL     OW 3577   2.117   2.201   1.312  0.3032 -0.3922 -0.1247
  895SOL    HW1 3578   2.079   2.256   1.246 -1.3021 -2.3641  0.7664
  895SOL    HW2 3579   2.162   2.130   1.254 -0.8307 -0.4276  1.6996
  895SOL     MW 3580   2.118   2.199   1.296 -0.0582 -0.6571  0.2335
  896SOL     OW 3581   2.143   2.813   1.086 -0.1778 -0.3292 -0.0525
  896SOL    HW1 3582   2.187   2.790   1.169 -0.7797  0.5626  2.4582
  896SOL    HW2 3583   2.065   2.762   1.091  2.9733  0.9955 -1.8198
  896SOL     MW 3584   2.139   2.804   1.098  0.1586 -0.0368  0.0456
  897SOL     OW 3585   3.015   2.910   0.105  0.1410 -0.2651  0.1999
  897SOL    HW1 3586   3.090   2.863   0.133 -0.1324 -1.6094  2.5171
  897SOL    HW2 3587   2.946   2.853   0.069 -2.5677 -3.0795 -0.2736
  897SOL     MW 3588   3.016   2.896   0.104 -0.2524 -0.8138  0.4431
  898SOL     OW 3589   2.068   0.256   1.400 -0.3226 -0.1550  0.1405
  898SOL    HW1 3590   2.002   0.186   1.386 -0.7640  1.0460  1.8631
  898SOL    HW2 3591   2.087   0.281   1.312  0.0899 -0.5050 -0.8536
  898SOL     MW 3592   2.062   0.250   1.387 -0.3264 -0.0427  0.2366
  899SOL     OW 3593   2.919   2.898   0.638  0.2687  0.4389  0.1454
  899SOL    HW1 3594   2.939   2.826   0.700  0.2236  1.2324 -0.9212
  899SOL    HW2 3595   2.832   2.935   0.656  1.1053  0.0375 -0.9983
  899SOL     MW 3596   2.910   2.893   0.648  0.3731  0.4906 -0.1462
  900SOL     OW 3597   0.080   2.407   0.998 -0.2708  0.4096 -0.3629
  900SOL    HW1 3598   0.102   2.484   0.942  0.5716  2.3602 -1.3288
  900SOL    HW2 3599   0.093   2.335   0.937 -1.0016 -1.2777 -0.5687
  900SOL     MW 3600   0.085   2.407   0.982 -0.2561  0.4443 -0.5175
  901SOL     OW 3601   1.819   2.858   1.684 -0.0981 -0.4654 -0.0326
  901SOL    HW1 3602   1.862   2.779   1.710  1.6767  0.0845  0.9558
  901SOL    HW2 3603   1.761   2.839   1.609  0.1497  0.5525 -0.6321
  901SOL     MW 3604   1.817   2.845   1.677  0.1688 -0.2585  0.0187
  902SOL     OW 3605   2.646   2.127   1.854  0.0901  0.2560 -0.1094
  902SOL    HW1 3606   2.609   2.036   1.855 -4.2869 -0.1207 -0.6641
  902SOL    HW2 3607   2.725   2.111   1.902 -1.3267  1.7064  0.7466
  902SOL     MW 3608   2.652   2.113   1.860 -0.6743  0.3977 -0.0696
  903SOL     OW 3609   1.601   2.786   0.531 -0.2954  0.1807 -0.1045
  903SOL    HW1 3610   1.663   2.718   0.561 -0.8453  0.3982  1.3985
  903SOL    HW2 3611   1.570   2.824   0.617  0.5870  1.0316  2.0386
  903SOL     MW 3612   1.605   2.782   0.546 -0.2516  0.3216  0.3766
  904SOL     OW 3613   2.511   2.506   1.717  0.1899 -0.4352 -0.1347
  904SOL    HW1 3614   2.449   2.525   1.648  0.0937  0.6392  1.8375
  904SOL    HW2 3615   2.566   2.439   1.684 -1.8242 -1.0159 -0.2198
  904SOL     MW 3616   2.510   2.499   1.704 -0.0885 -0.3701  0.1143
  905SOL     OW 3617   2.306   2.540   2.190 -0.0075  0.2087 -0.3756
  905SOL    HW1 3618   2.365   2.512   2.114  1.5781  0.9211 -1.5646
  905SOL    HW2 3619   2.273   2.447   2.225  0.3255 -0.5295 -0.3351
  905SOL     MW 3620   2.309   2.524   2.184  0.2457  0.2053 -0.5271
  906SOL     OW 3621   2.408   2.510   0.921  0.1365  0.2386  0.6605
  906SOL    HW1 3622   2.496   2.470   0.924  0.2365 -1.1978 -1.3867
  906SOL    HW2 3623   2.409   2.609   0.912 -1.1433  1.0226 -1.2309
  906SOL     MW 3624   2.420   2.518   0.920 -0.0192  0.1525  0.1409
  907SOL     OW 3625   2.556   2.882   1.328  0.5079 -0.5287  0.3755
  907SOL    HW1 3626   2.623   2.930   1.376 -0.1298 -0.8577 -0.4460
  907SOL    HW2 3627   2.601   2.871   1.236 -1.0013  0.7630 -1.7844
  907SOL     MW 3628   2.571   2.887   1.323  0.2246 -0.4017 -0.0179
  908SOL     OW 3629   2.777   2.374   0.011  0.4128  0.5638  0.0818
  908SOL    HW1 3630   2.710   2.303   0.007 -0.7513 -3.6610 -1.6890
  908SOL    HW2 3631   2.720   2.445   0.048 -0.2333 -0.9043  2.0916
  908SOL     MW 3632   2.761   2.374   0.016  0.1739 -0.1873  0.1133
  909SOL     OW 3633   1.613   0.176   1.172  0.5876 -0.0913  0.1879
  909SOL    HW1 3634   1.646   0.242   1.110  1.3584  0.2472 -1.1471
  909SOL    HW2 3635   1.596   0.227   1.251 -0.1155  1.3567  2.7056
  909SOL     MW 3636   1.615   0.191   1.174  0.5965  0.1444  0.3439
  910SOL     OW 3637   2.314   1.801   0.439 -0.2572  0.4449 -0.2898
  910SOL    HW1 3638   2.260   1.720   0.453 -1.0248 -0.4480 -0.4806
  910SOL    HW2 3639   2.302   1.834   0.349 -0.1363  0.1157 -0.6646
  910SOL     MW 3640   2.305   1.794   0.429 -0.3426  0.2837 -0.3644
  911SOL     OW 3641   2.212   2.240   1.702 -0.0562 -0.3549  0.1705
  911SOL    HW1 3642   2.286   2.219   1.764  0.8368 -1.5126 -1.4220
  911SOL    HW2 3643   2.257   2.272   1.617 -0.8895  0.7696 -0.4134
  911SOL     MW 3644   2.228   2.242   1.699 -0.0483 -0.3593 -0.1167
  912SOL     OW 3645   2.842   1.912   1.495 -0.0564 -0.8134  0.2368
  912SOL    HW1 3646   2.882   1.964   1.419  1.6070  1.0420 -1.5618
  912SOL    HW2 3647   2.753   1.947   1.501 -0.6813 -1.1087 -2.2705
  912SOL     MW 3648   2.835   1.923   1.486  0.0806 -0.6076 -0.3313
  913SOL     OW 3649   2.581   3.002   0.360 -0.0696  0.4239  0.0480
  913SOL    HW1 3650   2.658   2.946   0.372  0.8839 -0.1912 -0.9461
  913SOL    HW2 3651   2.511   2.953   0.407  1.2299  0.9745  1.3883
  913SOL     MW 3652   2.582   2.988   0.368  0.2277  0.4154  0.0937
  914SOL     OW 3653   2.752   1.658   3.045 -0.0985  0.2958  0.2510
  914SOL    HW1 3654   2.773   1.731   2.988  1.1172  2.5480 -0.3787
  914SOL    HW2 3655   2.668   1.665   3.093  1.0222  1.7257 -1.4248
  914SOL     MW 3656   2.743   1.668   3.044  0.2098  0.7816 -0.0532
  915SOL     OW 3657   1.797   0.250   0.200 -0.6252 -0.1780  0.7711
  915SOL    HW1 3658   1.858   0.186   0.232 -2.6516 -0.3114  0.5575
  915SOL    HW2 3659   1.711   0.211   0.221 -1.7780  1.0672 -1.6461
  915SOL     MW 3660   1.793   0.237   0.207 -1.0446 -0.0313  0.4240
  916SOL     OW 3661   1.717   2.059   1.942  0.3483 -0.0363  0.0530
  916SOL    HW1 3662   1.759   2.145   1.923  3.5075 -1.3046  3.0364
  916SOL    HW2 3663   1.725   2.010   1.858 -2.6464 -1.3586  0.9533
  916SOL     MW 3664   1.724   2.064   1.928  0.3700 -0.3781  0.5654
  917SOL     OW 3665   2.422   2.324   2.563  0.0093 -0.1496 -0.4738
  917SOL    HW1 3666   2.451   2.339   2.654  0.0104  1.8421 -1.6277
  917SOL    HW2 3667   2.491   2.361   2.506 -1.3731  1.1143 -1.4904
  917SOL     MW 3668   2.435   2.331   2.567 -0.1730  0.2799 -0.7602
  918SOL     OW 3669   2.002   1.641   2.713 -0.3640  0.1369  0.5415
  918SOL    HW1 3670   1.944   1.679   2.640  1.4505 -1.5125 -1.5029
  918SOL    HW2 3671   2.086   1.687   2.701  0.4296  1.5420 -1.0812
  918SOL     MW 3672   2.005   1.652   2.702 -0.0199  0.1047  0.0577
  919SOL     OW 3673   0.050   2.353   2.239 -0.1542  0.2280 -0.0760
  919SOL    HW1 3674  -0.014   2.283   2.215 -3.3457 -0.8991 -0.2543
  919SOL    HW2 3675   0.107   2.328   2.165  1.2544  1.2585 -0.1486
  919SOL     MW 3676   0.049   2.340   2.226 -0.3894  0.2153 -0.1091
  920SOL     OW 3677   2.773   2.783   0.019  0.6269 -0.1106  0.3637
  920SOL    HW1 3678   2.698   2.847   0.032 -2.1364 -0.5831  0.7201
  920SOL    HW2 3679   2.765   2.759  -0.080  1.1576  3.3585 -0.9061
  920SOL     MW 3680   2.762   2.788   0.008  0.3323  0.2847  0.2432
  921SOL     OW 3681   2.401   2.638   2.678 -0.7007 -0.1362 -0.4825
  921SOL    HW1 3682   2.489   2.648   2.652 -0.1066  0.3002  1.1379
  921SOL    HW2 3683   2.404   2.602   2.766  2.5930  2.0460 -2.4729
  921SOL     MW 3684   2.413   2.635   2.686 -0.1878  0.2093 -0.5313
  922SOL     OW 3685   2.006   2.777   0.298 -0.0070  0.3193  0.1011
  922SOL    HW1 3686   1.972   2.783   0.206 -0.4364 -0.4482  2.3319
  922SOL    HW2 3687   1.965   2.699   0.332  1.2950 -2.4165  2.9023
  922SOL     MW 3688   1.996   2.768   0.290  0.1081 -0.1429  0.7650
  923SOL     OW 3689   2.208   2.792   1.693 -0.1010  0.1245 -0.6629
  923SOL    HW1 3690   2.250   2.726   1.631  2.6134  0.7169  0.4395
  923SOL    HW2 3691   2.175   2.865   1.643 -0.9345 -0.8895 -0.3774
  923SOL     MW 3692   2.209   2.793   1.678  0.1472  0.0689 -0.4798
  924SOL     OW 3693   1.197   2.676   2.562  0.2404 -0.7939  0.2107
  924SOL    HW1 3694   1.252   2.739   2.510 -0.9081  3.8370  0.0621
  924SOL    HW2 3695   1.255   2.598   2.583 -1.5406 -1.2279 -1.8112
  924SOL     MW 3696   1.212   2.674   2.558 -0.1461 -0.2402 -0.0756
  925SOL     OW 3697   2.943   0.238   2.595 -0.7744  0.5829 -0.2249
  925SOL    HW1 3698   2.893   0.253   2.519  0.1245 -0.0763  3.3137
  925SOL    HW2 3699   2.906   0.298   2.666  0.3661  0.6887 -0.2314
  925SOL     MW 3700   2.931   0.248   2.594 -0.5053  0.5099  0.2411
  926SOL     OW 3701   2.739   2.410   2.096  0.0706  0.1625  0.3758
  926SOL    HW1 3702   2.798   2.469   2.147  0.9303  2.3246 -1.5343
  926SOL    HW2 3703   2.763   2.437   2.007  1.6185  1.3901  0.2302
  926SOL     MW 3704   2.750   2.421   2.091  0.3883  0.6097  0.1046
  927SOL     OW 3705   2.326   0.174   0.305 -0.1864 -0.7673  0.3701
  927SOL    HW1 3706   2.420   0.193   0.294  2.1893  1.3981  0.8668
  927SOL    HW2 3707   2.298   0.123   0.223  1.1433 -1.3554 -3.1697
  927SOL     MW 3708   2.335   0.170   0.293  0.3025 -0.5592 -0.0314
  928SOL     OW 3709   2.075   2.443   1.865  0.1087 -0.2337  0.2006
  928SOL    HW1 3710   2.140   2.382   1.826  1.5372 -0.3797 -0.1274
  928SOL    HW2 3711   2.115   2.481   1.939 -0.2587 -0.9794  0.3059
  928SOL     MW 3712   2.089   2.440   1.870  0.2487 -0.3514  0.1713
  929SOL     OW 3713   2.658   2.370   2.414 -0.2018  0.1169 -0.0981
  929SOL    HW1 3714   2.713   2.361   2.337  2.1494 -1.7888 -0.5486
  929SOL    HW2 3715   2.713   2.333   2.483 -1.1588  1.3641 -2.2324
  929SOL     MW 3716   2.673   2.364   2.413 -0.0179  0.0300 -0.4391
  930SOL     OW 3717   2.004   2.846   2.677 -0.2055 -0.2705  0.2328
  930SOL    HW1 3718   2.023   2.780   2.748  0.1670 -0.7145 -2.3587
  930SOL    HW2 3719   2.085   2.888   2.656  0.1289  0.9735 -0.1032
  930SOL     MW 3720   2.017   2.843   2.683 -0.1122 -0.1649 -0.1535
  931SOL     OW 3721   2.975   2.774   2.271  0.3627 -0.3051  0.4118
  931SOL    HW1 3722   3.020   2.804   2.353  1.6649  1.4917 -0.3140
  931SOL    HW2 3723   3.035   2.793   2.200  3.1281 -1.3030 -1.5754
  931SOL     MW 3724   2.989   2.780   2.272  0.8993 -0.1997  0.0538
  932SOL     OW 3725   2.908   1.979   2.495 -0.1667  0.4677  0.1576
  932SOL    HW1 3726   2.987   2.017   2.532 -0.1513 -2.9806  0.4075
  932SOL    HW2 3727   2.903   1.997   2.399 -1.6807  0.1034  0.4568
  932SOL     MW 3728   2.918   1.986   2.487 -0.3644 -0.0354  0.2301
  933SOL     OW 3729   2.077   2.883   2.245 -0.3068 -0.2353 -0.0858
  933SOL    HW1 3730   2.152   2.932   2.282  1.4522 -0.8502 -1.6093
  933SOL    HW2 3731   2.000   2.940   2.238 -0.0764  1.4675  1.2552
  933SOL     MW 3732   2.077   2.897   2.249 -0.0443 -0.0918 -0.1099
  934SOL     OW 3733   2.006   2.714   2.447  0.5140 -0.5105  0.4021
  934SOL    HW1 3734   2.010   2.757   2.534  0.6445  0.0913 -0.6550
  934SOL    HW2 3735   2.026   2.782   2.384 -0.5458  1.0495  0.8984
  934SOL     MW 3736   2.009   2.729   2.450  0.3914 -0.2252  0.3281
  935SOL     OW 3737   2.645   1.588   1.827  0.8641  0.4412  0.1848
  935SOL    HW1 3738   2.733   1.571   1.799 -0.8580  0.6973  0.8585
  935SOL    HW2 3739   2.584   1.547   1.763 -1.6116 -1.2807 -2.3497
  935SOL     MW 3740   2.648   1.581   1.815  0.3102  0.2478 -0.0607
  936SOL     OW 3741   3.026   2.274   3.070 -0.2088  0.3217  0.0006
  936SOL    HW1 3742   3.105   2.302   3.119  0.4520 -0.2636  1.1637
  936SOL    HW2 3743   2.945   2.321   3.091  1.2578  0.2896 -0.0740
  936SOL     MW 3744   3.026   2.283   3.079  0.0719  0.2402  0.1442
  937SOL     OW 3745   2.002   2.159   2.708 -0.2929 -0.0728  0.3561
  937SOL    HW1 3746   2.100   2.142   2.725  3.5588 -3.9256 -0.8594
  937SOL    HW2 3747   1.995   2.112   2.625 -3.2437 -0.2217 -2.3029
  937SOL     MW 3748   2.014   2.150   2.699 -0.1741 -0.6008 -0.1551
  938SOL     OW 3749   2.317   1.810   1.900 -0.3096 -0.2958 -0.4259
  938SOL    HW1 3750   2.282   1.870   1.828 -0.4108  1.9641  0.8308
  938SOL    HW2 3751   2.318   1.864   1.980  3.6444  2.2188 -3.6886
  938SOL     MW 3752   2.313   1.825   1.901  0.1987  0.3341 -0.6906
  939SOL     OW 3753   2.814   1.985   2.228 -0.4546  0.4148 -0.4513
  939SOL    HW1 3754   2.809   1.909   2.170 -2.1430 -1.8746 -0.2315
  939SOL    HW2 3755   2.724   2.003   2.252 -1.1767 -2.5612 -0.6638
  939SOL     MW 3756   2.802   1.978   2.224 -0.7726 -0.2799 -0.4503
  940SOL     OW 3757   2.329   0.162   2.703  0.1293  0.1994  0.4175
  940SOL    HW1 3758   2.301   0.075   2.672  0.3802 -1.5633 -0.9648
  940SOL    HW2 3759   2.354   0.153   2.791  0.6761  0.1554 -2.4615
  940SOL     MW 3760   2.328   0.149   2.710  0.2345 -0.0390 -0.1447
  941SOL     OW 3761   0.192   2.265   2.040  0.0016 -0.3593 -0.1052
  941SOL    HW1 3762   0.286   2.241   2.030 -2.7953  1.2027 -1.3672
  941SOL    HW2 3763   0.146   2.263   1.949 -0.6357  2.8256 -3.6105
  941SOL     MW 3764   0.199   2.262   2.027 -0.4515  0.2670 -0.7342
  942SOL     OW 3765   2.933   2.227   2.137  0.1102 -0.6863 -0.0480
  942SOL    HW1 3766   2.854   2.282   2.106 -1.7964 -0.6368 -3.0937
  942SOL    HW2 3767   2.892   2.149   2.179  1.0615  0.2026 -0.9113
  942SOL     MW 3768   2.917   2.224   2.138 -0.0158 -0.5625 -0.5637
  943SOL     OW 3769   0.362   2.013   2.323  0.0551 -0.1908 -0.4708
  943SOL    HW1 3770   0.322   2.092   2.357  1.1875  1.5953  0.2933
  943SOL    HW2 3771   0.448   2.021   2.358 -1.4699  1.2962  1.2784
  943SOL     MW 3772   0.368   2.024   2.332  0.0033  0.2411 -0.1392
  944SOL     OW 3773   2.109   2.679   2.066  0.3404  0.6737 -0.3298
  944SOL    HW1 3774   2.158   2.616   2.121 -0.9613 -0.8271  0.3119
  944SOL    HW2 3775   2.100   2.752   2.130  0.4777 -0.6256  2.4900
  944SOL     MW 3776   2.114   2.680   2.082  0.1868  0.3043  0.1269
  945SOL     OW 3777   2.743   2.706   2.830 -0.1858 -0.2158 -0.2353
  945SOL    HW1 3778   2.721   2.609   2.825 -0.7799 -1.9358  1.3903
  945SOL    HW2 3779   2.795   2.723   2.751  0.0653 -1.7624  0.3559
  945SOL     MW 3780   2.747   2.695   2.819 -0.2311 -0.6468  0.0572
  946SOL     OW 3781   2.484   2.746   2.251  0.3231 -0.1565  0.2661
  946SOL    HW1 3782   2.507   2.768   2.160 -1.1473 -1.4864  0.0427
  946SOL    HW2 3783   2.410   2.687   2.233  3.1899  1.0264 -3.2258
  946SOL     MW 3784   2.477   2.741   2.236  0.5074 -0.1759 -0.2241
  947SOL     OW 3785   2.015   0.108   0.237 -0.2979  0.1753  0.4053
  947SOL    HW1 3786   1.976   0.027   0.195 -2.4142 -3.1659 -1.8115
  947SOL    HW2 3787   2.051   0.083   0.327 -1.3582  0.1017 -0.9050
  947SOL     MW 3788   2.014   0.094   0.243 -0.7170 -0.2752 -0.0601
  948SOL     OW 3789   1.783   3.020   2.674 -0.0508 -0.4313 -0.0487
  948SOL    HW1 3790   1.849   2.950   2.690 -2.0998  0.9581 -0.3544
  948SOL    HW2 3791   1.783   3.034   2.571 -1.6870 -0.6722 -0.7112
  948SOL     MW 3792   1.791   3.013   2.662 -0.5370 -0.2797 -0.1764
  949SOL     OW 3793   2.547   1.970   2.261  0.0711  0.0888  0.0076
  949SOL    HW1 3794   2.543   1.890   2.312  1.0896 -0.3720  1.2067
  949SOL    HW2 3795   2.484   2.025   2.310  0.5065 -2.0080 -0.9984
  949SOL     MW 3796   2.538   1.967   2.274  0.2629 -0.2487  0.0330
  950SOL     OW 3797   2.230   2.538   2.995  1.1144  0.0543  0.3791
  950SOL    HW1 3798   2.293   2.475   2.966 -0.3942  0.3943 -1.5212
  950SOL    HW2 3799   2.150   2.541   2.931 -0.4640 -1.3543 -1.5503
  950SOL     MW 3800   2.228   2.530   2.983  0.7071 -0.0867 -0.1262
  951SOL     OW 3801   2.947   2.128   2.826  0.2460  0.2688 -0.1016
  951SOL    HW1 3802   2.980   2.187   2.897  1.5779 -0.9024 -3.0083
  951SOL    HW2 3803   3.029   2.102   2.782  0.1007 -1.0917  1.6928
  951SOL     MW 3804   2.962   2.132   2.830  0.4025 -0.0653 -0.2484
  952SOL     OW 3805   3.091   1.735   2.173 -0.1292 -0.5676 -0.4407
  952SOL    HW1 3806   3.000   1.749   2.149 -1.5173  0.0528  2.8154
  952SOL    HW2 3807   3.152   1.786   2.120  2.4522  1.2846  2.1180
  952SOL     MW 3808   3.087   1.743   2.163  0.0282 -0.2414  0.3265
  953SOL     OW 3809   1.914   1.792   2.932 -0.8095 -0.3032 -0.0550
  953SOL    HW1 3810   1.821   1.754   2.947  2.2409 -0.6308  0.1494
  953SOL    HW2 3811   1.956   1.738   2.873 -1.0147 -0.9091  0.2120
  953SOL     MW 3812   1.908   1.780   2.926 -0.4341 -0.4264  0.0072
  954SOL     OW 3813   2.495   2.051   2.873 -0.4203  0.1061 -0.1354
  954SOL    HW1 3814   2.408   2.031   2.831  2.4842 -0.7214 -2.3778
  954SOL    HW2 3815   2.557   2.058   2.795 -1.5317 -1.1351  0.3806
  954SOL     MW 3816   2.492   2.049   2.857 -0.1837 -0.1668 -0.3632
  955SOL     OW 3817   1.600   1.622   2.565  0.1079 -0.5210  0.8461
  955SOL    HW1 3818   1.561   1.624   2.466 -0.2765  0.3594  2.6976
  955SOL    HW2 3819   1.680   1.671   2.568 -0.2315 -0.4789  1.4521
  955SOL     MW 3820   1.605   1.628   2.552  0.0124 -0.3993  1.1703
  956SOL     OW 3821   2.708   2.431   2.853  0.2266 -0.1581  0.1911
  956SOL    HW1 3822   2.741   2.402   2.940  0.3493  0.5887  2.2231
  956SOL    HW2 3823   2.766   2.392   2.788  0.9735 -2.8943 -1.7176
  956SOL     MW 3824   2.720   2.422   2.856  0.3413 -0.4206  0.2074
  957SOL     OW 3825   2.271   2.883   0.395  0.3250 -0.1616  0.1769
  957SOL    HW1 3826   2.201   2.850   0.338  0.2880  0.7258 -0.3321
  957SOL    HW2 3827   2.271   2.833   0.479  3.6917 -1.7332 -2.1020
  957SOL     MW 3828   2.261   2.872   0.399  0.7643 -0.2519 -0.1909
  958SOL     OW 3829   2.034   2.591   2.838 -0.2169  0.0108 -0.1364
  958SOL    HW1 3830   2.016   2.522   2.774 -3.6666 -2.7601  1.9137
  958SOL    HW2 3831   1.944   2.586   2.877 -1.2730 -0.2389 -1.1991
  958SOL     MW 3832   2.019   2.581   2.835 -0.8114 -0.3877 -0.0061
  959SOL     OW 3833   2.441   2.634   0.372 -0.1710 -0.0781  0.4478
  959SOL    HW1 3834   2.491   2.622   0.288  2.3503 -0.4742 -3.1053
  959SOL    HW2 3835   2.393   2.719   0.368 -2.3527  0.9416 -0.6672
  959SOL     MW 3836   2.441   2.643   0.360 -0.1262  0.0042 -0.1681
  960SOL     OW 3837   1.962   2.314   2.256  0.3313 -0.2649  0.3416
  960SOL    HW1 3838   1.878   2.282   2.221 -1.4978  0.4841  0.1539
  960SOL    HW2 3839   1.934   2.349   2.339 -1.6083 -1.2770 -1.2827
  960SOL     MW 3840   1.947   2.314   2.262 -0.1659 -0.2996  0.1025
  961SOL     OW 3841   2.223   2.312   2.307  0.4763  0.4491 -0.4818
  961SOL    HW1 3842   2.135   2.300   2.270  0.5558 -1.2584 -0.4418
  961SOL    HW2 3843   2.215   2.359   2.393  2.1712 -0.6896 -1.8373
  961SOL     MW 3844   2.210   2.317   2.314  0.7104  0.0735 -0.6554
  962SOL     OW 3845   2.233   2.021   2.796  0.5120  0.2074  0.3580
  962SOL    HW1 3846   2.214   2.003   2.888 -1.2679  0.9743 -0.9028
  962SOL    HW2 3847   2.193   1.950   2.748  0.6777  0.3636 -0.0350
  962SOL     MW 3848   2.225   2.009   2.802  0.2990  0.3292  0.1398
  963SOL     OW 3849   1.846   2.608   2.010 -0.4806  0.4397  0.3843
  963SOL    HW1 3850   1.941   2.634   1.991  2.5351  0.3323 -0.6298
  963SOL    HW2 3851   1.842   2.508   1.995 -2.2963 -2.1508  0.3548
  963SOL     MW 3852   1.858   2.598   2.006 -0.3222  0.0838  0.2466
  964SOL     OW 3853   1.806   1.970   2.749 -0.6217 -0.1661 -0.0983
  964SOL    HW1 3854   1.875   2.042   2.726  1.5910  0.1185  0.2866
  964SOL    HW2 3855   1.849   1.920   2.819  0.0747 -3.0660  0.7274
  964SOL     MW 3856   1.821   1.973   2.755 -0.2379 -0.5111  0.0614
  965SOL     OW 3857   2.249   2.751   0.612 -0.1247  0.4646  0.0338
  965SOL    HW1 3858   2.216   2.659   0.599 -2.5081  2.8969 -1.3800
  965SOL    HW2 3859   2.287   2.748   0.702  2.0160  1.4593 -0.7457
  965SOL     MW 3860   2.250   2.739   0.622 -0.1568  0.9168 -0.2556
  966SOL     OW 3861   2.612   2.623   2.482  0.0937 -0.1636  0.7491
  966SOL    HW1 3862   2.571   2.653   2.402 -0.7476  2.5015  0.8027
  966SOL    HW2 3863   2.630   2.523   2.456  0.6210 -3.0478 -0.9222
  966SOL     MW 3864   2.609   2.614   2.468  0.0523 -0.1925  0.5357
  967SOL     OW 3865   2.900   3.008   2.898 -0.7890  0.1655  0.2066
  967SOL    HW1 3866   2.917   2.942   2.966 -0.1236 -1.6931  0.4656
  967SOL    HW2 3867   2.809   3.007   2.871 -1.7346 -0.7562  0.5861
  967SOL     MW 3868   2.890   2.999   2.903 -0.8260 -0.2013  0.2908
  968SOL     OW 3869   2.996   2.598   2.943  0.1762  0.1717 -0.5695
  968SOL    HW1 3870   2.925   2.651   2.909  1.3061 -1.0149  0.7669
  968SOL    HW2 3871   3.019   2.553   2.856  0.7277 -1.6528 -2.0669
  968SOL     MW 3872   2.990   2.599   2.927  0.3981 -0.2256 -0.5907
  969SOL     OW 3873   1.530   2.120   1.692  0.0414  0.1618 -0.2207
  969SOL    HW1 3874   1.584   2.047   1.705 -0.5450  0.2434  0.6932
  969SOL    HW2 3875   1.499   2.145   1.780 -1.1693  2.1513 -4.5217
  969SOL     MW 3876   1.533   2.114   1.706 -0.1957  0.4351 -0.6676
  970SOL     OW 3877   1.660   1.672   1.794 -0.2207 -0.0502 -0.4086
  970SOL    HW1 3878   1.719   1.669   1.870  3.8517  1.2517  0.1053
  970SOL    HW2 3879   1.575   1.704   1.827  2.4182  2.6634 -1.4227
  970SOL     MW 3880   1.656   1.676   1.809  0.6648  0.4796 -0.4746
  971SOL     OW 3881   1.788   3.095   2.388 -0.2656 -0.5060 -0.3298
  971SOL    HW1 3882   1.807   3.050   2.309  0.8632 -4.3221  5.2706
  971SOL    HW2 3883   1.848   3.175   2.377  0.9091  2.2550 -1.3273
  971SOL     MW 3884   1.798   3.100   2.376  0.0384 -0.6452  0.2775
  972SOL     OW 3885   0.264   2.840   2.441 -0.2068  0.0587 -0.1966
  972SOL    HW1 3886   0.295   2.761   2.487  0.2960  1.3769 -1.2773
  972SOL    HW2 3887   0.331   2.906   2.470 -4.4500  1.3187 -0.7208
  972SOL     MW 3888   0.277   2.838   2.451 -0.7003  0.3989 -0.4083
  973SOL     OW 3889   2.546   0.033   2.140  0.0688 -0.1451  0.0170
  973SOL    HW1 3890   2.532  -0.057   2.110  1.0371 -0.1914 -1.6973
  973SOL    HW2 3891   2.564   0.066   2.054  1.5043  1.2720 -0.7498
  973SOL     MW 3892   2.546   0.025   2.125  0.3860  0.0358 -0.3104
  974SOL     OW 3893   2.059   0.248   2.698 -0.2705 -0.4776 -0.1500
  974SOL    HW1 3894   2.152   0.221   2.686  2.6603 -1.9370 -1.9579
  974SOL    HW2 3895   2.026   0.176   2.757 -0.5460 -1.0883 -1.2134
  974SOL     MW 3896   2.067   0.235   2.705  0.0798 -0.7507 -0.5289
  975SOL     OW 3897   2.180   2.514   2.531 -0.3319 -0.3401 -0.3486
  975SOL    HW1 3898   2.252   2.519   2.601  0.4764  0.1670  1.3728
  975SOL    HW2 3899   2.152   2.603   2.511 -1.9829 -0.1432 -1.4795
  975SOL     MW 3900   2.185   2.526   2.538 -0.4431 -0.2473 -0.2707
  976SOL     OW 3901   0.270   0.351   1.719 -0.1823 -0.3311  0.4194
  976SOL    HW1 3902   0.329   0.283   1.768  0.2715 -4.3084 -0.9538
  976SOL    HW2 3903   0.192   0.297   1.700  0.0282 -3.7253 -1.7334
  976SOL     MW 3904   0.268   0.335   1.723 -0.0947 -1.3037 -0.0459
  977SOL     OW 3905   1.740   2.692   2.466  0.0451 -0.7719 -0.2358
  977SOL    HW1 3906   1.745   2.598   2.485  0.5638 -1.7317 -1.2493
  977SOL    HW2 3907   1.828   2.724   2.456  0.1754 -0.1683  1.6330
  977SOL     MW 3908   1.753   2.684   2.467  0.1307 -0.8189 -0.1230
   3.10000   3.10000   3.10000
