977 TIP4P/2005f water molecules t=   1.50000 step= 1500
 3908
    1SOL     OW    1   0.363   0.854   0.074  0.1798 -0.7977 -0.0043
    1SOL    HW1    2   0.355   0.834  -0.018  0.6137 -0.2621 -1.5745
    1SOL    HW2    3   0.314   0.788   0.126  1.9734  0.0638  3.1979
    1SOL     MW    4   0.355   0.843   0.069  0.4737 -0.6133  0.2110
    2SOL     OW    5   0.299   3.035   1.097 -0.0421 -0.2635  0.0515
    2SOL    HW1    6   0.364   3.103   1.107  2.0074 -0.1067 -2.0266
    2SOL    HW2    7   0.214   3.072   1.119  0.2127 -2.8216 -2.2287
    2SOL     MW    8   0.296   3.049   1.101  0.2619 -0.5803 -0.5235
    3SOL     OW    9   2.630   0.340   0.964 -0.1456  0.0080 -0.1239
    3SOL    HW1   10   2.659   0.409   0.902 -3.0859 -2.7014  3.4815
    3SOL    HW2   11   2.619   0.383   1.046  1.8265 -1.1776 -0.0398
    3SOL     MW   12   2.633   0.355   0.967 -0.2733 -0.5059  0.3629
    4SOL     OW   13   3.052   1.715   0.529 -0.8615 -0.1976 -0.1679
    4SOL    HW1   14   2.980   1.773   0.505 -0.4006 -1.4747  0.8453
    4SOL    HW2   15   3.104   1.698   0.452 -0.6362  1.2920 -0.3191
    4SOL     MW   16   3.050   1.720   0.516 -0.7709 -0.1695 -0.0542
    5SOL     OW   17   1.636   1.458   0.635 -0.3264 -0.5157  0.2213
    5SOL    HW1   18   1.663   1.423   0.720  0.5908 -1.9942  3.3562
    5SOL    HW2   19   1.539   1.489   0.632 -1.1739  1.0336  0.2483
    5SOL     MW   20   1.627   1.458   0.646 -0.3172 -0.5063  0.6385
    6SOL     OW   21   0.786   1.430   0.591 -0.1814 -0.0143 -0.2212
    6SOL    HW1   22   0.688   1.445   0.587 -2.0878  0.5399 -1.8276
    6SOL    HW2   23   0.804   1.344   0.621 -1.4249  1.5698 -0.0829
    6SOL     MW   24   0.776   1.421   0.594 -0.5970  0.2678 -0.4149
    7SOL     OW   25   1.972   1.050   0.028 -0.4209 -0.3874  0.6303
    7SOL    HW1   26   2.022   1.113  -0.028 -1.4354  2.9275 -1.8566
    7SOL    HW2   27   2.006   1.051   0.116  0.2338 -0.9225  0.5159
    7SOL     MW   28   1.983   1.058   0.032 -0.4683 -0.0206  0.2871
    8SOL     OW   29   0.778   1.501   1.154 -0.1047 -0.2696 -0.2432
    8SOL    HW1   30   0.871   1.506   1.183 -0.9298  0.6308 -0.4452
    8SOL    HW2   31   0.766   1.406   1.167 -2.7515 -0.1780  1.2052
    8SOL     MW   32   0.788   1.489   1.159 -0.5628 -0.1387 -0.0787
    9SOL     OW   33   1.021   0.470   1.308 -0.3779  0.0807 -0.2294
    9SOL    HW1   34   0.949   0.414   1.284  2.2873  1.6136 -0.6521
    9SOL    HW2   35   1.058   0.452   1.399 -0.1977  1.6396  0.9939
    9SOL     MW   36   1.016   0.460   1.317 -0.0025  0.4886 -0.1238
   10SOL     OW   37   0.277   0.864   0.509 -0.0721  0.5324 -0.2856
   10SOL    HW1   38   0.373   0.883   0.495 -0.6330  0.3773  0.8456
   10SOL    HW2   39   0.272   0.893   0.600  2.0961 -1.3019 -1.3375
   10SOL     MW   40   0.289   0.870   0.519  0.1400  0.2699 -0.2752
   11SOL     OW   41   0.761   1.130   1.562  0.1944 -0.0011 -0.1751
   11SOL    HW1   42   0.845   1.142   1.615 -1.5974 -0.8296 -0.6306
   11SOL    HW2   43   0.744   1.033   1.538  0.6322  0.3040 -1.8525
   11SOL     MW   44   0.769   1.119   1.566  0.0157 -0.0701 -0.4565
   12SOL     OW   45   3.086   1.130   0.860  0.5277 -0.3442 -0.1426
   12SOL    HW1   46   3.128   1.208   0.899  0.6797  0.0181  0.6473
   12SOL    HW2   47   3.028   1.160   0.782  0.5026  0.6938 -1.2527
   12SOL     MW   48   3.084   1.144   0.854  0.5444 -0.1595 -0.1848
   13SOL     OW   49   1.848   1.421   1.282 -0.1057  0.4454  0.5841
   13SOL    HW1   50   1.873   1.364   1.209 -1.1668 -0.8076 -2.4933
   13SOL    HW2   51   1.868   1.508   1.257  1.8351 -2.1045  0.6238
   13SOL     MW   52   1.854   1.425   1.269  0.0104 -0.0564  0.1833
   14SOL     OW   53   0.560   0.345   1.876 -0.5694  0.5493 -0.6765
   14SOL    HW1   54   0.497   0.274   1.847  0.5180  0.3883  1.6608
   14SOL    HW2   55   0.563   0.405   1.803  1.6393  0.7637 -0.2143
   14SOL     MW   56   0.552   0.343   1.862 -0.1345  0.5563 -0.3071
   15SOL     OW   57   2.000   0.378   1.073  0.3703  0.2999  0.1281
   15SOL    HW1   58   2.007   0.438   1.146 -1.5211  2.5479 -0.3577
   15SOL    HW2   59   2.045   0.408   0.997 -0.8396  0.3713  0.6472
   15SOL     MW   60   2.007   0.390   1.073 -0.0389  0.6059  0.1325
   16SOL     OW   61   0.262   1.838   0.241  0.9977  0.0458  0.0677
   16SOL    HW1   62   0.340   1.792   0.262  0.0662  1.1400  1.8298
   16SOL    HW2   63   0.266   1.918   0.296  0.5255  0.9746 -1.3240
   16SOL     MW   64   0.272   1.843   0.251  0.8125  0.3127  0.1166
   17SOL     OW   65   1.091   0.910   1.406  0.9484 -0.3485  0.0018
   17SOL    HW1   66   1.119   0.900   1.497 -1.7964 -1.4039 -0.9152
   17SOL    HW2   67   0.996   0.896   1.392  0.4384  2.1588  0.0783
   17SOL     MW   68   1.082   0.907   1.416  0.5189 -0.1570 -0.1091
   18SOL     OW   69   0.113   1.599   0.342 -0.1841 -0.0939 -0.2565
   18SOL    HW1   70   0.149   1.687   0.326 -0.0558  3.6515 -0.1710
   18SOL    HW2   71   0.118   1.561   0.249  1.6139  0.2083 -3.7226
   18SOL     MW   72   0.119   1.606   0.328  0.0701  0.4401 -0.7025
   19SOL     OW   73   0.088   1.354   0.926  0.0146 -0.5077  0.0821
   19SOL    HW1   74   0.129   1.385   0.844 -0.9680 -0.6465  0.2505
   19SOL    HW2   75   0.012   1.409   0.933  3.6702 -1.4449 -0.3703
   19SOL     MW   76   0.083   1.365   0.916  0.3673 -0.6497  0.0446
   20SOL     OW   77   0.440   2.160   1.238  0.6204 -0.0502  0.1516
   20SOL    HW1   78   0.398   2.074   1.216 -1.7862 -1.6336 -0.5100
   20SOL    HW2   79   0.410   2.163   1.329 -0.3103 -1.9922 -1.1836
   20SOL     MW   80   0.431   2.149   1.247  0.1801 -0.5154 -0.1118
   21SOL     OW   81   0.537   0.878   0.436 -0.3623 -0.1254 -0.0386
   21SOL    HW1   82   0.605   0.832   0.481 -0.0383 -1.0026 -2.1133
   21SOL    HW2   83   0.595   0.922   0.373  4.0357  0.3424 -0.1671
   21SOL     MW   84   0.554   0.877   0.433  0.2607 -0.1794 -0.3293
   22SOL     OW   85   1.567   0.697   0.984 -0.4253 -0.1609  0.3417
   22SOL    HW1   86   1.550   0.675   0.894 -2.5988 -1.6668 -1.6245
   22SOL    HW2   87   1.508   0.773   1.007 -2.3173  0.3836 -0.5763
   22SOL     MW   88   1.557   0.704   0.976 -0.9617 -0.2878 -0.0388
   23SOL     OW   89   0.002   0.736   0.715  0.4227  0.5454  0.1533
   23SOL    HW1   90   0.072   0.675   0.737  1.4015  2.0715  1.5035
   23SOL    HW2   91   0.049   0.820   0.704  0.9050 -1.7046  0.6385
   23SOL     MW   92   0.017   0.739   0.716  0.6155  0.4499  0.3955
   24SOL     OW   93   2.085   2.191   0.024  0.1719 -0.4998  0.1374
   24SOL    HW1   94   2.093   2.187   0.123 -1.2756 -0.1995 -2.5427
   24SOL    HW2   95   2.106   2.103  -0.000 -3.1409 -0.2049 -2.6000
   24SOL     MW   96   2.089   2.179   0.034 -0.4562 -0.4213 -0.5774
   25SOL     OW   97   0.210   1.340   0.435 -0.3635  0.4580  0.5141
   25SOL    HW1   98   0.200   1.428   0.396 -0.3795  1.0490  0.4157
   25SOL    HW2   99   0.230   1.289   0.357 -1.4485 -1.6098 -1.2048
   25SOL     MW  100   0.211   1.345   0.420 -0.5087  0.2632  0.2743
   26SOL     OW  101   2.019   1.000   0.309 -0.3818  0.0775 -0.2969
   26SOL    HW1  102   1.946   1.032   0.363  2.1237  0.6678  0.5354
   26SOL    HW2  103   2.074   1.071   0.317 -5.1428 -1.7511  0.6157
   26SOL     MW  104   2.016   1.013   0.317 -0.6794 -0.0859 -0.0667
   27SOL     OW  105   1.871   1.341   0.156  0.0829 -0.4572  0.4144
   27SOL    HW1  106   1.792   1.387   0.189  1.4625  1.0496 -0.1132
   27SOL    HW2  107   1.928   1.338   0.231  1.0135  0.2716 -0.9440
   27SOL     MW  108   1.868   1.346   0.170  0.3877 -0.1622  0.1656
   28SOL     OW  109   0.427   0.954   1.990 -0.6159 -0.6107 -0.0428
   28SOL    HW1  110   0.486   0.926   2.059 -2.4140  0.9328 -0.1511
   28SOL    HW2  111   0.339   0.925   2.002  1.1896 -0.1189  0.7796
   28SOL     MW  112   0.423   0.946   2.001 -0.6149 -0.3421  0.0514
   29SOL     OW  113   0.258   1.380   0.716 -0.5336 -0.2289 -0.0632
   29SOL    HW1  114   0.259   1.473   0.730  0.3313 -0.6136 -1.0426
   29SOL    HW2  115   0.204   1.366   0.641  1.6297  1.6222 -0.1348
   29SOL     MW  116   0.251   1.391   0.708 -0.1340 -0.0354 -0.2019
   30SOL     OW  117   0.812   1.245   1.255  0.4327 -0.2958  0.6128
   30SOL    HW1  118   0.733   1.203   1.290 -1.9137  2.5094 -1.4811
   30SOL    HW2  119   0.885   1.214   1.306 -1.2031  2.9157 -0.8912
   30SOL     MW  120   0.811   1.236   1.266 -0.0927  0.4981  0.1381
   31SOL     OW  121   0.450   0.293   0.158  0.5225 -0.1465  0.4996
   31SOL    HW1  122   0.461   0.210   0.205 -1.9602  0.4548  1.3097
   31SOL    HW2  123   0.478   0.262   0.071 -0.1707 -0.4875 -0.3610
   31SOL     MW  124   0.455   0.278   0.153  0.1034 -0.1121  0.4929
   32SOL     OW  125   2.704   0.996   1.137  0.0066  0.1241 -0.4024
   32SOL    HW1  126   2.628   0.934   1.155  2.6134  0.2913 -1.1930
   32SOL    HW2  127   2.764   0.945   1.081  1.8004  1.1502 -1.0946
   32SOL     MW  128   2.702   0.981   1.132  0.5872  0.2816 -0.5981
   33SOL     OW  129   1.658   1.292   0.401  0.2712 -0.4773 -0.5395
   33SOL    HW1  130   1.724   1.229   0.441  1.4727  2.4636 -0.7141
   33SOL    HW2  131   1.645   1.345   0.477 -0.7302 -0.8349 -0.3223
   33SOL     MW  132   1.665   1.290   0.416  0.2976 -0.1364 -0.5339
   34SOL     OW  133   1.220   1.928   1.159 -0.0562 -0.3365  0.4807
   34SOL    HW1  134   1.151   1.970   1.203 -0.3334 -0.8215 -1.1281
   34SOL    HW2  135   1.307   1.940   1.209  2.9701  0.3298  0.4626
   34SOL     MW  136   1.222   1.935   1.171  0.3065 -0.3126  0.2660
   35SOL     OW  137   0.332   0.148   1.835  0.4698 -0.2608 -0.2309
   35SOL    HW1  138   0.365   0.091   1.907 -0.6812  1.0359 -0.2738
   35SOL    HW2  139   0.343   0.097   1.753 -0.5494 -2.5016  2.4836
   35SOL     MW  140   0.338   0.134   1.833  0.1834 -0.3854  0.1216
   36SOL     OW  141   1.935   1.949   0.580  0.1968  0.0823 -0.1901
   36SOL    HW1  142   1.922   1.898   0.500  0.6162 -0.4532  1.0262
   36SOL    HW2  143   1.940   1.878   0.637 -1.3914  2.2191 -1.9324
   36SOL     MW  144   1.934   1.933   0.577  0.0426  0.2936 -0.2595
   37SOL     OW  145   1.839   2.038   1.040 -0.1338  0.2170 -0.1353
   37SOL    HW1  146   1.789   1.976   0.986  0.1085 -0.1292 -1.0455
   37SOL    HW2  147   1.774   2.082   1.102  1.5348  5.4714  1.9418
   37SOL     MW  148   1.824   2.036   1.041  0.1183  0.8646  0.0187
   38SOL     OW  149   2.855   0.931   0.173  0.0119  0.5226  0.1924
   38SOL    HW1  150   2.874   0.927   0.268  0.5383  2.2430 -0.4332
   38SOL    HW2  151   2.939   0.903   0.125  2.8326 -3.3133  2.5619
   38SOL     MW  152   2.869   0.927   0.179  0.4535  0.2435  0.4225
   39SOL     OW  153   1.480   0.597   0.746 -0.0038  0.0135  0.3029
   39SOL    HW1  154   1.430   0.522   0.781 -3.1004  1.4075  0.6481
   39SOL    HW2  155   1.415   0.663   0.745 -0.6783  0.8931  1.6498
   39SOL     MW  156   1.465   0.596   0.751 -0.5014  0.3135  0.5262
   40SOL     OW  157   1.279   1.891   0.262  0.1943 -0.4983  0.0648
   40SOL    HW1  158   1.345   1.845   0.315  0.6648 -0.9830  2.1201
   40SOL    HW2  159   1.239   1.953   0.323 -1.0162 -1.7216 -1.2693
   40SOL     MW  160   1.282   1.893   0.277  0.0967 -0.7237  0.1600
   41SOL     OW  161   0.554   0.542   1.616 -0.4516  0.1737 -0.1243
   41SOL    HW1  162   0.643   0.564   1.583  1.6013 -1.4971  0.1248
   41SOL    HW2  163   0.492   0.621   1.598 -1.9499  1.8008 -0.2728
   41SOL     MW  164   0.558   0.555   1.609 -0.3784  0.1679 -0.1111
   42SOL     OW  165   1.256   2.991   1.938 -0.3929 -0.2522  0.1985
   42SOL    HW1  166   1.190   3.034   1.989 -0.8172 -3.3734 -0.9789
   42SOL    HW2  167   1.264   2.909   1.986 -0.9426 -0.7178  0.1728
   42SOL     MW  168   1.249   2.986   1.951 -0.5214 -0.7254  0.0398
   43SOL     OW  169   1.492   0.128   1.688 -0.3421 -0.2425 -0.4122
   43SOL    HW1  170   1.556   0.078   1.641 -0.0279 -0.3886  3.7036
   43SOL    HW2  171   1.406   0.094   1.667 -0.9190 -2.0942 -0.9772
   43SOL     MW  172   1.489   0.117   1.679 -0.3767 -0.5061  0.0563
   44SOL     OW  173   1.267   0.770   1.056 -0.3998  0.3815 -0.1837
   44SOL    HW1  174   1.242   0.865   1.042 -1.8276  1.2579  1.2228
   44SOL    HW2  175   1.241   0.771   1.148  1.2025  1.0702  1.4112
   44SOL     MW  176   1.260   0.783   1.066 -0.3768  0.5880  0.2123
   45SOL     OW  177   1.278   0.774   0.765  0.2236  0.4992  0.0422
   45SOL    HW1  178   1.229   0.779   0.846  0.2061 -0.1590  0.8927
   45SOL    HW2  179   1.202   0.759   0.701 -1.2467 -0.7956 -1.7732
   45SOL     MW  180   1.261   0.772   0.767  0.0273  0.2415 -0.0851
   46SOL     OW  181   0.506   1.080   0.641 -0.4375 -0.6980  0.0782
   46SOL    HW1  182   0.524   1.101   0.546 -0.7419  1.5269  0.5954
   46SOL    HW2  183   0.498   1.169   0.685  3.9686 -0.3748  0.3274
   46SOL     MW  184   0.507   1.094   0.634  0.1037 -0.3618  0.1793
   47SOL     OW  185   0.144   1.980   1.929 -0.0716  0.5785 -1.0804
   47SOL    HW1  186   0.150   1.901   1.872 -3.2156  0.7433 -2.7481
   47SOL    HW2  187   0.127   1.941   2.010 -0.7843 -0.7459 -1.4521
   47SOL     MW  188   0.142   1.965   1.933 -0.5805  0.4255 -1.3495
   48SOL     OW  189   1.172   0.498   1.026 -0.0854  0.0189  0.0967
   48SOL    HW1  190   1.087   0.507   0.988  1.8255 -0.0580  0.9504
   48SOL    HW2  191   1.214   0.587   1.038  1.3802  2.1756  0.0098
   48SOL     MW  192   1.167   0.511   1.023  0.3601  0.2933  0.1979
   49SOL     OW  193   1.693   0.650   1.556  0.2472  0.5394 -0.1171
   49SOL    HW1  194   1.723   0.593   1.627  0.3198  0.6804 -1.2302
   49SOL    HW2  195   1.722   0.610   1.476 -0.6916  0.1758 -0.8522
   49SOL     MW  196   1.701   0.638   1.555  0.1329  0.5100 -0.3609
   50SOL     OW  197   1.277   1.242   0.593 -0.0396 -0.0268 -0.0110
   50SOL    HW1  198   1.219   1.230   0.666 -1.0819 -2.9537  2.1874
   50SOL    HW2  199   1.332   1.169   0.590  1.2226 -0.0460 -0.3999
   50SOL     MW  200   1.277   1.231   0.602 -0.0106 -0.4155  0.2277
   51SOL     OW  201   0.317   2.903   0.851  0.3443 -0.4875 -0.3552
   51SOL    HW1  202   0.410   2.868   0.858 -0.1871 -0.7182 -2.8625
   51SOL    HW2  203   0.325   2.970   0.920 -1.1532 -0.4534 -0.1650
   51SOL     MW  204   0.330   2.907   0.861  0.0766 -0.5135 -0.6609
   52SOL     OW  205   0.816   1.823   0.461 -0.0176 -0.4225  0.0104
   52SOL    HW1  206   0.779   1.914   0.472  1.0999 -0.3077 -0.7905
   52SOL    HW2  207   0.812   1.810   0.368 -0.2000  0.9339 -0.6267
   52SOL     MW  208   0.811   1.833   0.450  0.1058 -0.2284 -0.1793
   53SOL     OW  209   0.443   2.176   0.505  0.1640  0.7808  0.4410
   53SOL    HW1  210   0.356   2.159   0.472 -0.4090 -0.7470  1.7974
   53SOL    HW2  211   0.449   2.262   0.553 -0.0980 -1.4606  0.2703
   53SOL     MW  212   0.432   2.185   0.507  0.0538  0.2835  0.5975
   54SOL     OW  213   2.055   0.963   0.736 -0.4445  0.1874 -0.6429
   54SOL    HW1  214   2.121   0.951   0.665  0.2841  0.0404 -0.4251
   54SOL    HW2  215   2.039   0.882   0.782 -0.4714  1.5617 -0.3841
   54SOL     MW  216   2.062   0.951   0.732 -0.3519  0.3493 -0.5800
   55SOL     OW  217   0.480   1.538   1.683 -0.2910 -0.6728 -0.2101
   55SOL    HW1  218   0.444   1.554   1.599  1.5753  1.2518  1.3795
   55SOL    HW2  219   0.565   1.512   1.658 -2.5366 -2.6824  0.9031
   55SOL     MW  220   0.486   1.537   1.669 -0.3410 -0.6840  0.1465
   56SOL     OW  221   0.647   0.890   0.185 -0.0248  0.0851  0.2390
   56SOL    HW1  222   0.683   0.964   0.134  0.1523 -1.2589 -1.3787
   56SOL    HW2  223   0.566   0.875   0.140 -0.2864  1.6116  0.3674
   56SOL     MW  224   0.641   0.898   0.173 -0.0359  0.1092  0.0425
   57SOL     OW  225   1.138   1.260   1.142 -0.1065  0.0352 -0.5875
   57SOL    HW1  226   1.232   1.289   1.144 -0.4483 -0.6717 -3.3500
   57SOL    HW2  227   1.100   1.216   1.221 -3.0633  1.2103 -0.7914
   57SOL     MW  228   1.145   1.258   1.153 -0.5417  0.0970 -0.9789
   58SOL     OW  229   0.498   1.260   1.261 -0.8377 -0.3017 -0.1996
   58SOL    HW1  230   0.452   1.345   1.252 -1.2439 -0.0333 -1.5107
   58SOL    HW2  231   0.509   1.238   1.350 -0.8933  1.0379 -1.8352
   58SOL     MW  232   0.493   1.268   1.271 -0.8986 -0.0896 -0.5884
   59SOL     OW  233   1.447   1.676   0.338 -0.2888  0.4066  0.2972
   59SOL    HW1  234   1.496   1.727   0.403  0.2056  0.2110  2.9137
   59SOL    HW2  235   1.369   1.651   0.386 -2.7949  2.6800 -0.0170
   59SOL     MW  236   1.443   1.680   0.353 -0.5542  0.6807  0.6010
   60SOL     OW  237   3.055   0.182   1.701 -0.1113  0.5563 -0.4177
   60SOL    HW1  238   2.976   0.236   1.723 -0.6596  0.5537  0.9971
   60SOL    HW2  239   3.030   0.086   1.726  1.4375 -2.4653 -1.9973
   60SOL     MW  240   3.041   0.177   1.707  0.0207  0.1573 -0.4394
   61SOL     OW  241   1.968   1.393   3.014  0.1102  0.4299 -0.6163
   61SOL    HW1  242   1.908   1.376   3.093 -1.1507 -1.8245  0.6365
   61SOL    HW2  243   2.031   1.319   3.000 -0.1533  1.6158 -1.3493
   61SOL     MW  244   1.968   1.381   3.023 -0.0910  0.2889 -0.5477
   62SOL     OW  245   0.551   1.730   0.586  0.3558 -0.1555  0.6749
   62SOL    HW1  246   0.636   1.762   0.553  1.6226 -0.8281 -0.4077
   62SOL    HW2  247   0.566   1.641   0.593  0.7145 -1.1146 -0.9100
   62SOL     MW  248   0.564   1.723   0.583  0.5703 -0.3708  0.3230
   63SOL     OW  249   1.726   0.669   0.651  0.5475  0.1754 -0.0695
   63SOL    HW1  250   1.704   0.763   0.630 -1.3272  0.7434  1.9453
   63SOL    HW2  251   1.638   0.635   0.681  0.4439 -0.1993 -0.0409
   63SOL     MW  252   1.712   0.677   0.652  0.2865  0.2009  0.2001
   64SOL     OW  253   0.236   1.646   0.760 -0.4841  0.0226  0.0331
   64SOL    HW1  254   0.306   1.703   0.785 -2.7447  1.7903 -1.5617
   64SOL    HW2  255   0.164   1.706   0.753  1.8064  0.6952  1.7435
   64SOL     MW  256   0.236   1.662   0.763 -0.4801  0.3445  0.0484
   65SOL     OW  257   1.519   2.316   0.349 -0.4161  0.2011 -0.4272
   65SOL    HW1  258   1.605   2.331   0.384 -0.8935 -2.4597  0.6672
   65SOL    HW2  259   1.462   2.353   0.417 -1.6663  1.7489  3.1046
   65SOL     MW  260   1.523   2.323   0.363 -0.6440  0.0542  0.1832
   66SOL     OW  261   0.329   0.577   0.471  0.2022  0.3174  0.2002
   66SOL    HW1  262   0.384   0.563   0.394 -1.3289 -0.9460 -0.1348
   66SOL    HW2  263   0.331   0.672   0.508  1.3439  1.3003 -1.6297
   66SOL     MW  264   0.336   0.588   0.466  0.1508  0.2804 -0.0855
   67SOL     OW  265   1.473   0.071   1.969 -0.0968 -0.1379  0.5941
   67SOL    HW1  266   1.491   0.114   1.889 -0.2785 -0.6644  0.6113
   67SOL    HW2  267   1.435  -0.018   1.945  2.0234 -0.8900 -1.4466
   67SOL     MW  268   1.470   0.065   1.955  0.1590 -0.3066  0.3272
   68SOL     OW  269   0.788   3.090   2.973  0.5713  0.2370 -0.4250
   68SOL    HW1  270   0.797   3.096   2.878  1.2723 -0.5286  0.5761
   68SOL    HW2  271   0.855   3.145   3.009  0.0668 -1.7488  2.0150
   68SOL     MW  272   0.798   3.098   2.965  0.5972 -0.1260  0.0290
   69SOL     OW  273   0.965   0.208   1.958  0.3524  0.4977 -0.0104
   69SOL    HW1  274   1.026   0.218   2.028 -0.0821 -1.7698 -0.5973
   69SOL    HW2  275   0.934   0.115   1.972  0.9618  0.1848 -2.5428
   69SOL     MW  276   0.969   0.197   1.969  0.3755  0.1573 -0.4219
   70SOL     OW  277   0.495   1.735   1.067  0.2534  0.7531 -0.0473
   70SOL    HW1  278   0.582   1.771   1.047  0.2306 -0.0550 -2.7419
   70SOL    HW2  279   0.489   1.669   0.996  1.8232  2.6747  0.1585
   70SOL     MW  280   0.506   1.731   1.055  0.4575  0.9001 -0.3757
   71SOL     OW  281   1.476   0.535   1.184  0.1873 -0.0526  0.2578
   71SOL    HW1  282   1.454   0.604   1.243 -1.7981 -1.3136  0.9319
   71SOL    HW2  283   1.509   0.573   1.102 -1.5613 -1.2950 -0.1228
   71SOL     MW  284   1.478   0.549   1.181 -0.3053 -0.3829  0.2965
   72SOL     OW  285   0.736   1.855   1.030  0.0824 -0.2099  0.3024
   72SOL    HW1  286   0.751   1.912   0.957 -2.9276 -0.5727 -0.3423
   72SOL    HW2  287   0.789   1.777   1.009 -1.0936  0.9369 -0.8021
   72SOL     MW  288   0.745   1.852   1.018 -0.4699 -0.1064  0.0716
   73SOL     OW  289   1.228   0.674   1.345  0.0809  0.1892  0.1045
   73SOL    HW1  290   1.152   0.620   1.321 -4.6970  0.2893 -2.1570
   73SOL    HW2  291   1.179   0.752   1.379 -1.9187 -0.4843 -1.1006
   73SOL     MW  292   1.212   0.677   1.346 -0.8133  0.1136 -0.3529
   74SOL     OW  293   2.889   0.184   1.043 -0.1070 -0.7225 -0.4776
   74SOL    HW1  294   2.966   0.214   0.994 -1.4941 -1.0387  0.6495
   74SOL    HW2  295   2.827   0.183   0.971  0.7063  0.5824 -0.0278
   74SOL     MW  296   2.891   0.188   1.027 -0.1827 -0.5921 -0.2695
   75SOL     OW  297   1.589   1.345   0.133  0.0259  0.1474  0.8312
   75SOL    HW1  298   1.651   1.285   0.095 -1.3666  1.1060  1.6363
   75SOL    HW2  299   1.603   1.332   0.230 -1.3587 -0.0696 -0.7042
   75SOL     MW  300   1.599   1.335   0.141 -0.3405  0.2452  0.7348
   76SOL     OW  301   2.982   0.638   0.455  0.5175 -0.7261  0.1444
   76SOL    HW1  302   2.995   0.677   0.542  1.1768 -0.1533 -0.0889
   76SOL    HW2  303   3.066   0.597   0.427 -0.6292  1.3263  1.5561
   76SOL     MW  304   2.995   0.638   0.463  0.4532 -0.3797  0.2999
   77SOL     OW  305   0.874   0.600   0.408 -0.2979  0.4163  0.3153
   77SOL    HW1  306   0.847   0.598   0.316 -3.6879 -1.2942  1.5967
   77SOL    HW2  307   0.873   0.508   0.424 -1.3890  1.2479  1.0154
   77SOL     MW  308   0.870   0.588   0.398 -0.8891  0.3004  0.5767
   78SOL     OW  309   0.725   0.860   1.139 -0.1444 -0.3559 -0.3248
   78SOL    HW1  310   0.745   0.931   1.070  0.6398 -1.0866 -1.0660
   78SOL    HW2  311   0.637   0.827   1.126 -0.1301  0.2783 -3.2159
   78SOL     MW  312   0.716   0.865   1.128 -0.0390 -0.3686 -0.8041
   79SOL     OW  313   1.856   1.606   0.580  0.2561 -0.6136 -0.5961
   79SOL    HW1  314   1.771   1.560   0.577 -1.9319 -2.9454 -0.5282
   79SOL    HW2  315   1.880   1.608   0.669 -2.1064 -0.3210  1.3042
   79SOL     MW  316   1.848   1.601   0.591 -0.3443 -0.8827 -0.3364
   80SOL     OW  317   0.083   0.978   0.364  0.5491  0.1569 -0.1908
   80SOL    HW1  318   0.002   0.950   0.400 -1.1251  0.9777 -0.0449
   80SOL    HW2  319   0.154   0.935   0.412  1.7128 -2.4748 -2.8209
   80SOL     MW  320   0.082   0.969   0.375  0.4818 -0.0820 -0.5186
   81SOL     OW  321   1.830   1.837   0.334 -0.5508 -0.0959 -0.0232
   81SOL    HW1  322   1.806   1.755   0.298 -2.0361  0.0030 -1.1945
   81SOL    HW2  323   1.800   1.902   0.273  0.7264 -0.5430  0.2690
   81SOL     MW  324   1.823   1.835   0.321 -0.5782 -0.1418 -0.1392
   82SOL     OW  325   0.879   1.016   0.518  0.1854 -0.0661  0.1419
   82SOL    HW1  326   0.877   1.059   0.431  0.6669 -0.9629 -1.2721
   82SOL    HW2  327   0.830   0.931   0.522 -0.2624  0.8656 -0.1220
   82SOL     MW  328   0.872   1.010   0.507  0.1898 -0.0615 -0.0795
   83SOL     OW  329   0.036   0.776   1.505 -0.3651  0.1648  1.1134
   83SOL    HW1  330   0.025   0.828   1.426 -1.0599  0.1291 -0.9089
   83SOL    HW2  331   0.099   0.710   1.475  1.8953 -0.9613 -1.3025
   83SOL     MW  332   0.043   0.774   1.491 -0.1585  0.0115  0.5279
   84SOL     OW  333   0.044   0.199   0.910  0.1211 -0.0061  0.2229
   84SOL    HW1  334   0.054   0.284   0.959  0.1672  1.9834 -0.1174
   84SOL    HW2  335   0.032   0.134   0.984  2.6943 -1.4066  2.4061
   84SOL     MW  336   0.044   0.202   0.926  0.4667  0.0716  0.4660
   85SOL     OW  337   0.406   0.461   0.722 -0.0798  0.1446 -0.2643
   85SOL    HW1  338   0.410   0.485   0.633 -0.1863  0.1985  0.4829
   85SOL    HW2  339   0.355   0.380   0.724  0.9494  1.6190  0.9945
   85SOL     MW  340   0.400   0.453   0.711  0.0419  0.3462  0.0004
   86SOL     OW  341   1.204   0.249   1.139 -0.1102 -0.2352 -0.1754
   86SOL    HW1  342   1.171   0.338   1.144  0.2810  0.5194 -0.9332
   86SOL    HW2  343   1.291   0.256   1.177 -3.4472 -1.3468  0.1138
   86SOL     MW  344   1.211   0.262   1.144 -0.4988 -0.2823 -0.2373
   87SOL     OW  345   1.047   1.511   1.193  0.0590  0.1540 -0.0664
   87SOL    HW1  346   1.116   1.576   1.163 -3.4548  0.8822  0.4157
   87SOL    HW2  347   1.077   1.425   1.162  0.1359 -0.9668 -0.9902
   87SOL     MW  348   1.060   1.508   1.185 -0.3945  0.1022 -0.1247
   88SOL     OW  349   1.252   1.035   1.018 -0.0131  0.7964  0.4254
   88SOL    HW1  350   1.340   1.067   1.017  1.4712  0.4459  0.3586
   88SOL    HW2  351   1.201   1.101   1.070  0.5762  1.1635  2.5480
   88SOL     MW  352   1.257   1.048   1.025  0.2605  0.7986  0.6966
   89SOL     OW  353   1.753   0.738   0.314 -0.0496  0.0640 -1.0169
   89SOL    HW1  354   1.723   0.653   0.342  0.5410  1.5518  1.1846
   89SOL    HW2  355   1.849   0.718   0.293 -0.3395  0.6654  0.5104
   89SOL     MW  356   1.762   0.724   0.315 -0.0099  0.3397 -0.5249
   90SOL     OW  357   0.853   1.197   2.887 -0.4770  0.2788  0.8083
   90SOL    HW1  358   0.896   1.121   2.920  1.5884  1.5414 -1.6450
   90SOL    HW2  359   0.848   1.251   2.968 -2.0695  0.2500 -1.2316
   90SOL     MW  360   0.858   1.194   2.902 -0.4146  0.4416  0.2154
   91SOL     OW  361   2.188   0.660   0.450 -0.2709 -0.7308 -0.1043
   91SOL    HW1  362   2.266   0.685   0.388  2.0834 -0.4207 -0.3493
   91SOL    HW2  363   2.170   0.567   0.437  0.5920  1.0591  1.8218
   91SOL     MW  364   2.196   0.651   0.440  0.1536 -0.4537  0.1175
   92SOL     OW  365   1.644   0.934   0.581 -0.2514  0.7220 -0.0821
   92SOL    HW1  366   1.578   0.955   0.649  0.8897 -0.4740 -0.9749
   92SOL    HW2  367   1.594   0.929   0.501 -2.2841 -1.5945  0.7235
   92SOL     MW  368   1.628   0.936   0.579 -0.3691  0.2585 -0.0936
   93SOL     OW  369   1.107   0.205   0.397 -0.9636  0.7490 -0.5980
   93SOL    HW1  370   1.019   0.236   0.411 -0.0248 -2.8977 -0.2502
   93SOL    HW2  371   1.143   0.243   0.316 -0.2024  2.3930  1.1293
   93SOL     MW  372   1.100   0.214   0.388 -0.7393  0.4848 -0.3242
   94SOL     OW  373   1.838   1.373   1.547 -0.3924 -0.0017 -0.5959
   94SOL    HW1  374   1.858   1.388   1.451 -0.6041 -2.9711 -3.5962
   94SOL    HW2  375   1.833   1.278   1.559 -2.1555 -0.8106 -0.8128
   94SOL     MW  376   1.840   1.362   1.536 -0.6529 -0.5002 -1.0204
   95SOL     OW  377   0.644   1.539   0.921 -0.1325  0.0848  0.6582
   95SOL    HW1  378   0.697   1.526   1.001  2.7732  1.6789 -4.2317
   95SOL    HW2  379   0.622   1.447   0.892  2.1347 -0.6868  1.3241
   95SOL     MW  380   0.648   1.525   0.928  0.5500  0.1933  0.1009
   96SOL     OW  381   1.345   1.852   1.715  0.6232 -0.3254 -0.5914
   96SOL    HW1  382   1.261   1.850   1.769 -1.4502  0.6866 -0.3419
   96SOL    HW2  383   1.353   1.780   1.651 -0.2794  0.5197 -3.1225
   96SOL     MW  384   1.335   1.842   1.713  0.2306 -0.0804 -0.8925
   97SOL     OW  385   1.080   1.465   0.905 -0.5478  0.0897  0.8569
   97SOL    HW1  386   1.108   1.526   0.974 -1.4569  1.3780  0.6313
   97SOL    HW2  387   1.012   1.514   0.854 -1.9474  1.0278 -0.2093
   97SOL     MW  388   1.075   1.479   0.907 -0.8524  0.3834  0.6864
   98SOL     OW  389   1.380   1.355   1.155 -0.7736  0.0464  0.1711
   98SOL    HW1  390   1.440   1.380   1.228 -3.1452 -1.3604  1.2454
   98SOL    HW2  391   1.396   1.415   1.084 -2.7182 -0.6148 -0.1479
   98SOL     MW  392   1.390   1.366   1.155 -1.3430 -0.2265  0.2707
   99SOL     OW  393   1.436   0.286   1.264  0.4172  0.0790 -0.0237
   99SOL    HW1  394   1.443   0.375   1.222 -2.8186 -3.0343  0.8369
   99SOL    HW2  395   1.412   0.298   1.354  4.4316  0.6722  2.2992
   99SOL     MW  396   1.434   0.299   1.270  0.5200 -0.2535  0.3963
  100SOL     OW  397   1.030   1.170   1.384  0.2931  0.5147 -0.3868
  100SOL    HW1  398   1.062   1.200   1.472  0.0222 -1.2539  0.4556
  100SOL    HW2  399   1.036   1.075   1.385  0.7653 -0.5758 -0.7636
  100SOL     MW  400   1.035   1.162   1.396  0.3196  0.1375 -0.3253
  101SOL     OW  401   0.540   1.191   0.373 -0.2412  0.5588  0.6570
  101SOL    HW1  402   0.466   1.155   0.322  1.1862 -1.7833  0.7153
  101SOL    HW2  403   0.607   1.171   0.311 -3.5966 -0.0481 -2.7180
  101SOL     MW  404   0.539   1.184   0.358 -0.4956  0.1697  0.2194
  102SOL     OW  405   2.894   0.665   1.063  0.3208 -0.0522  0.4110
  102SOL    HW1  406   2.931   0.756   1.043  0.7624  2.1479 -0.1207
  102SOL    HW2  407   2.853   0.665   1.146 -2.3297  0.7957 -2.8567
  102SOL     MW  408   2.894   0.677   1.071  0.0293  0.3500 -0.0903
  103SOL     OW  409   1.831   0.238   1.801  0.0511  0.7817  0.2657
  103SOL    HW1  410   1.830   0.143   1.791  2.1987 -1.0364 -1.5541
  103SOL    HW2  411   1.835   0.259   1.897  0.4337  1.1180 -0.0919
  103SOL     MW  412   1.832   0.229   1.812  0.3849  0.5862 -0.0216
  104SOL     OW  413   0.075   1.519   1.631 -0.6719  0.1721  0.5064
  104SOL    HW1  414   0.123   1.442   1.662 -1.0584 -3.0938  1.1890
  104SOL    HW2  415  -0.013   1.481   1.640  1.5783  1.2495 -0.2795
  104SOL     MW  416   0.070   1.504   1.637 -0.4260 -0.1166  0.4928
  105SOL     OW  417   3.074   1.217   0.413 -0.3896  0.0555  0.0841
  105SOL    HW1  418   3.127   1.136   0.398 -0.8492  0.6650  1.2862
  105SOL    HW2  419   3.141   1.281   0.417  1.2323 -2.5604 -1.2616
  105SOL     MW  420   3.090   1.215   0.411 -0.2362 -0.2093  0.0651
  106SOL     OW  421   0.748   0.417   0.888 -0.0118  0.0588 -0.3681
  106SOL    HW1  422   0.667   0.469   0.905  0.0463  0.2507 -2.4844
  106SOL    HW2  423   0.790   0.464   0.819  1.6416 -2.6707  1.4037
  106SOL     MW  424   0.743   0.430   0.881  0.2140 -0.2760 -0.4136
  107SOL     OW  425   0.804   2.135   2.898  0.6936  0.9487 -0.1218
  107SOL    HW1  426   0.706   2.151   2.896  2.2350  0.4121  1.2624
  107SOL    HW2  427   0.805   2.107   2.990 -3.4957 -0.7443 -0.7346
  107SOL     MW  428   0.791   2.134   2.910  0.3442  0.6545 -0.0200
  108SOL     OW  429   1.356   1.593   1.635 -0.1389 -0.0514  0.0060
  108SOL    HW1  430   1.291   1.550   1.575  2.1668  0.9909  1.6738
  108SOL    HW2  431   1.438   1.550   1.644  0.8279 -0.8642 -1.7154
  108SOL     MW  432   1.358   1.582   1.628  0.2928 -0.0211 -0.0011
  109SOL     OW  433   2.002   0.712   0.257 -0.5138  0.4331 -0.1646
  109SOL    HW1  434   1.997   0.812   0.265  1.4711  1.9779 -0.6031
  109SOL    HW2  435   2.072   0.694   0.323  1.2559  1.1364  0.4106
  109SOL     MW  436   2.010   0.722   0.267 -0.0184  0.7297 -0.1466
  110SOL     OW  437   0.419   1.955   0.708 -0.0252  0.5770 -0.0240
  110SOL    HW1  438   0.484   1.887   0.696  3.8016  2.6867 -0.7612
  110SOL    HW2  439   0.433   2.011   0.638  0.0931 -1.2588 -1.4716
  110SOL     MW  440   0.429   1.954   0.697  0.4953  0.6131 -0.3123
  111SOL     OW  441   0.822   0.902   1.388  0.1063  0.2732 -0.2991
  111SOL    HW1  442   0.772   0.886   1.307  1.2330 -0.7099  0.0783
  111SOL    HW2  443   0.806   0.813   1.433  0.2877  0.4364 -0.5856
  111SOL     MW  444   0.813   0.888   1.383  0.2789  0.1650 -0.2871
  112SOL     OW  445   1.357   1.059   1.604  0.2077  0.0494 -0.2304
  112SOL    HW1  446   1.289   1.129   1.607  2.0745 -0.2712 -2.3196
  112SOL    HW2  447   1.324   0.973   1.638  1.0313 -0.3925 -1.7021
  112SOL     MW  448   1.343   1.057   1.609  0.5627 -0.0512 -0.7002
  113SOL     OW  449   1.262   3.066   1.676  0.5531  0.1200  0.0775
  113SOL    HW1  450   1.263   3.041   1.773 -0.5941 -0.2455  1.5052
  113SOL    HW2  451   1.237   2.986   1.627 -2.6938  0.4015 -0.3765
  113SOL     MW  452   1.259   3.053   1.682 -0.0267  0.1089  0.2060
  114SOL     OW  453   0.267   2.875   1.882  0.1805 -0.1300  0.4386
  114SOL    HW1  454   0.321   2.946   1.841 -0.3543  2.6628 -3.0016
  114SOL    HW2  455   0.213   2.914   1.954  0.7793 -1.0658 -1.6026
  114SOL     MW  456   0.267   2.889   1.886  0.1889  0.1150 -0.2846
  115SOL     OW  457   0.475   0.790   1.178 -0.3255  0.4922  0.8903
  115SOL    HW1  458   0.458   0.700   1.219  0.0682 -1.2377 -3.6176
  115SOL    HW2  459   0.448   0.851   1.240  0.0060 -1.3551  0.6500
  115SOL     MW  460   0.469   0.786   1.191 -0.2298  0.0202  0.2638
  116SOL     OW  461   0.799   1.089   1.000 -1.0039 -0.3633 -0.3321
  116SOL    HW1  462   0.831   1.131   0.914  1.1512  2.4961  0.9031
  116SOL    HW2  463   0.834   1.152   1.059 -0.4315 -0.3494 -2.8160
  116SOL     MW  464   0.808   1.103   0.996 -0.6440  0.0158 -0.4969
  117SOL     OW  465   1.122   1.208   0.827 -0.3840  0.3877  0.0984
  117SOL    HW1  466   1.182   1.152   0.878  1.5663  0.3210  1.5681
  117SOL    HW2  467   1.129   1.299   0.873  3.7292  1.5717  1.4685
  117SOL     MW  468   1.131   1.213   0.840  0.4160  0.5351  0.4731
  118SOL     OW  469   3.024   2.934   1.700 -0.7472 -0.1709  0.5775
  118SOL    HW1  470   3.071   2.956   1.776  1.1752  0.5161 -0.0846
  118SOL    HW2  471   2.936   2.931   1.725 -1.8613  1.1260  0.0449
  118SOL     MW  472   3.019   2.937   1.713 -0.6405  0.0908  0.4199
  119SOL     OW  473   0.413   1.517   1.259 -0.0140  0.4673 -0.2714
  119SOL    HW1  474   0.454   1.573   1.197 -1.0557 -1.4210 -1.1009
  119SOL    HW2  475   0.328   1.504   1.220  0.4728 -0.0884 -1.5600
  119SOL     MW  476   0.407   1.523   1.246 -0.0872  0.1449 -0.5509
  120SOL     OW  477   0.238   0.770   0.989  0.1466 -0.0877 -0.1444
  120SOL    HW1  478   0.168   0.792   1.050 -0.7212 -1.9462 -0.7774
  120SOL    HW2  479   0.324   0.792   1.033  4.1997  2.3282 -3.4580
  120SOL     MW  480   0.240   0.776   1.003  0.5668 -0.0141 -0.6651
  121SOL     OW  481   1.774   1.095   1.652  0.3220  0.3668 -0.5433
  121SOL    HW1  482   1.688   1.147   1.644  0.4757 -2.5363 -1.0083
  121SOL    HW2  483   1.763   1.035   1.579  1.7391 -0.0759 -2.2634
  121SOL     MW  484   1.761   1.094   1.641  0.5293 -0.0747 -0.8316
  122SOL     OW  485   0.172   0.569   0.831  0.1947  0.3591 -0.1309
  122SOL    HW1  486   0.253   0.542   0.783 -0.8642  2.1094  0.6998
  122SOL    HW2  487   0.208   0.635   0.897  1.8051  2.3267 -0.2429
  122SOL     MW  488   0.188   0.574   0.833  0.2675  0.8496 -0.0360
  123SOL     OW  489   1.855   1.122   0.501  0.2646 -0.1635  0.1299
  123SOL    HW1  490   1.786   1.054   0.519 -0.0689  0.6885  4.1784
  123SOL    HW2  491   1.898   1.132   0.583 -0.8600  2.2720  0.4538
  123SOL     MW  492   1.851   1.114   0.515  0.0722  0.2702  0.7068
  124SOL     OW  493   0.527   0.539   0.946  0.4317 -0.1850  0.3923
  124SOL    HW1  494   0.476   0.490   0.879 -1.6418 -1.7539  1.3540
  124SOL    HW2  495   0.545   0.624   0.908 -0.9219  0.9163  2.4479
  124SOL     MW  496   0.523   0.544   0.932 -0.0205 -0.2467  0.7904
  125SOL     OW  497   0.734   1.740   1.754 -0.1591 -0.6670  0.6241
  125SOL    HW1  498   0.692   1.666   1.715 -1.5904  1.3468 -0.5282
  125SOL    HW2  499   0.695   1.824   1.735  3.2806 -2.0141  1.1946
  125SOL     MW  500   0.723   1.742   1.747  0.1059 -0.5790  0.5473
  126SOL     OW  501   2.147   1.496   1.953 -0.3428  0.6472  0.0528
  126SOL    HW1  502   2.192   1.580   1.963  1.0576 -2.4991 -0.0935
  126SOL    HW2  503   2.214   1.429   1.965 -4.0381 -0.7389  1.3321
  126SOL     MW  504   2.162   1.498   1.956 -0.6456  0.0492  0.2023
  127SOL     OW  505   0.569   0.865   1.775 -0.3154 -0.2120 -0.1796
  127SOL    HW1  506   0.650   0.821   1.807  1.2009 -0.3211 -0.1066
  127SOL    HW2  507   0.528   0.915   1.853 -2.2768  0.8401 -1.1297
  127SOL     MW  508   0.574   0.866   1.789 -0.3741 -0.0876 -0.2953
  128SOL     OW  509   1.713   0.717   2.893  0.7607  0.1255  0.0882
  128SOL    HW1  510   1.768   0.708   2.810  2.8012 -1.1322 -1.9799
  128SOL    HW2  511   1.678   0.802   2.865  2.5941 -0.5356 -4.1001
  128SOL     MW  512   1.716   0.727   2.878  1.2718 -0.1277 -0.7373
  129SOL     OW  513   1.602   0.929   0.207 -0.3367 -0.0630  0.1313
  129SOL    HW1  514   1.517   0.884   0.195  0.1393 -0.5145  0.3094
  129SOL    HW2  515   1.665   0.868   0.245  1.6880 -0.3012 -1.4104
  129SOL     MW  516   1.599   0.915   0.211 -0.0068 -0.1540 -0.0486
  130SOL     OW  517   0.781   1.405   0.317  0.6282  0.1886  0.2907
  130SOL    HW1  518   0.777   1.413   0.420  0.4442 -2.1374 -0.7255
  130SOL    HW2  519   0.825   1.488   0.292  1.4914 -2.3812  2.5218
  130SOL     MW  520   0.787   1.417   0.328  0.7178 -0.4574  0.4510
  131SOL     OW  521   3.078   0.802   0.016  0.5908 -0.1244 -0.0362
  131SOL    HW1  522   3.046   0.859  -0.061  2.3185  0.4530  0.4799
  131SOL    HW2  523   3.166   0.828   0.047 -0.5922 -0.4235 -0.6830
  131SOL     MW  524   3.085   0.813   0.010  0.6626 -0.0877 -0.0534
  132SOL     OW  525   2.742   0.144   1.275 -0.2811 -0.1788  0.1491
  132SOL    HW1  526   2.777   0.158   1.188 -2.8331 -2.0765 -1.5329
  132SOL    HW2  527   2.648   0.114   1.255  2.3808 -1.0023 -0.2745
  132SOL     MW  528   2.734   0.142   1.261 -0.2666 -0.5378 -0.1287
  133SOL     OW  529   1.017   0.114   1.683 -0.4622 -0.6713 -0.0283
  133SOL    HW1  530   1.101   0.064   1.691  1.7029 -2.4278 -0.9228
  133SOL    HW2  531   0.983   0.129   1.771 -1.2243  1.1424  0.3788
  133SOL     MW  532   1.024   0.109   1.696 -0.2771 -0.6638 -0.0926
  134SOL     OW  533   1.424   2.410   1.479  0.0637 -0.4446 -0.1730
  134SOL    HW1  534   1.356   2.471   1.440 -1.0635  1.9131 -0.9386
  134SOL    HW2  535   1.450   2.466   1.555 -0.1477  1.6503 -0.8675
  134SOL     MW  536   1.418   2.425   1.484 -0.1129  0.1429 -0.3656
  135SOL     OW  537   3.030   0.982   2.917 -0.5786 -0.1127  0.7543
  135SOL    HW1  538   3.112   1.029   2.942  0.5031  1.3897  2.6995
  135SOL    HW2  539   2.957   1.048   2.913 -2.9899 -0.7372  1.5802
  135SOL     MW  540   3.031   0.997   2.920 -0.7540  0.0031  1.1199
  136SOL     OW  541   0.218   2.022   0.887 -0.3724 -0.5921 -0.1922
  136SOL    HW1  542   0.142   1.967   0.857  1.6874 -1.1333  2.0698
  136SOL    HW2  543   0.288   2.010   0.825 -0.5978 -0.3690 -0.0487
  136SOL     MW  544   0.217   2.013   0.875 -0.1304 -0.6341  0.1252
  137SOL     OW  545   0.696   2.067   0.545  0.3951 -0.2126  0.6056
  137SOL    HW1  546   0.722   2.056   0.635 -1.9724 -0.2640 -0.1176
  137SOL    HW2  547   0.605   2.109   0.551 -0.1520 -0.7789  2.5164
  137SOL     MW  548   0.688   2.071   0.558  0.0105 -0.2941  0.7623
  138SOL     OW  549   0.426   0.536   1.209 -0.3102  0.2072  0.0424
  138SOL    HW1  550   0.345   0.481   1.211  2.2602  1.4628  0.5126
  138SOL    HW2  551   0.475   0.507   1.135 -0.0328  3.0002 -0.2975
  138SOL     MW  552   0.421   0.525   1.199  0.0655  0.7414  0.0596
  139SOL     OW  553   2.806   0.568   1.338  0.3631 -0.2058  0.6144
  139SOL    HW1  554   2.886   0.508   1.339  0.5019 -0.2596  1.1039
  139SOL    HW2  555   2.798   0.607   1.427 -0.4301 -0.0283  1.5131
  139SOL     MW  556   2.815   0.565   1.350  0.2768 -0.1895  0.7976
  140SOL     OW  557   0.864   0.483   1.997  0.2131  0.0248 -0.7365
  140SOL    HW1  558   0.882   0.392   1.976  0.8086  0.3595 -2.1274
  140SOL    HW2  559   0.834   0.476   2.090 -1.0693  0.8922 -0.1509
  140SOL     MW  560   0.862   0.470   2.006  0.1224  0.1834 -0.8428
  141SOL     OW  561   0.996   0.659   1.664  0.2145  0.6004 -0.1627
  141SOL    HW1  562   1.026   0.572   1.649 -0.9709  1.4047  1.4480
  141SOL    HW2  563   1.083   0.702   1.664  0.8441 -2.2017  0.9286
  141SOL     MW  564   1.011   0.653   1.662  0.1412  0.3368  0.1938
  142SOL     OW  565   0.860   1.205   0.731  0.6854  0.5292 -0.3927
  142SOL    HW1  566   0.859   1.143   0.654 -1.2880 -1.0297 -0.3701
  142SOL    HW2  567   0.946   1.189   0.771 -0.5935  1.7989  1.3749
  142SOL     MW  568   0.871   1.194   0.726  0.2563  0.4910 -0.1565
  143SOL     OW  569   1.854   0.684   1.065  0.8656 -0.5997 -0.1332
  143SOL    HW1  570   1.899   0.679   0.975 -2.8342  3.2807 -2.7364
  143SOL    HW2  571   1.769   0.669   1.027  1.3740  0.6314 -0.8351
  143SOL     MW  572   1.849   0.681   1.048  0.4445  0.0747 -0.5693
  144SOL     OW  573   0.275   1.329   1.716 -0.2356 -0.5684  0.0077
  144SOL    HW1  574   0.358   1.366   1.672 -0.9738 -2.3695  2.3564
  144SOL    HW2  575   0.303   1.295   1.796  0.6573  0.4358 -0.5621
  144SOL     MW  576   0.290   1.330   1.721 -0.2152 -0.6735  0.2424
  145SOL     OW  577   0.169   0.441   1.246  0.6748 -0.4120  0.3814
  145SOL    HW1  578   0.196   0.346   1.247 -0.9534  0.3711  2.1393
  145SOL    HW2  579   0.096   0.448   1.184  1.2463 -1.0840  1.4961
  145SOL     MW  580   0.163   0.430   1.238  0.5354 -0.3973  0.7604
  146SOL     OW  581   0.877   1.888   1.354 -0.9112 -0.1932  0.1387
  146SOL    HW1  582   0.893   1.951   1.281  1.1910  0.5181 -0.1368
  146SOL    HW2  583   0.783   1.875   1.365  0.4056  1.7853 -0.2560
  146SOL     MW  584   0.867   1.894   1.346 -0.4601  0.1617  0.0503
  147SOL     OW  585   0.429   0.499   2.928 -0.0423 -0.3982 -0.4757
  147SOL    HW1  586   0.362   0.522   2.995  1.1356  1.1709 -0.2810
  147SOL    HW2  587   0.392   0.550   2.854 -0.5061 -1.5259 -0.4666
  147SOL     MW  588   0.415   0.508   2.927  0.0519 -0.3400 -0.4488
  148SOL     OW  589   0.041   0.927   1.262  0.4638 -0.1118 -0.2074
  148SOL    HW1  590   0.133   0.915   1.258 -0.6462  1.5748  1.0060
  148SOL    HW2  591   0.012   1.007   1.305  3.1263 -0.0617 -1.1602
  148SOL     MW  592   0.050   0.936   1.267  0.6686  0.1174 -0.1730
  149SOL     OW  593   1.580   1.169   1.462 -0.0468 -0.0212 -0.2545
  149SOL    HW1  594   1.494   1.143   1.507  1.1794  1.8269  0.5267
  149SOL    HW2  595   1.558   1.258   1.434  0.4633 -0.7097  1.0486
  149SOL     MW  596   1.565   1.177   1.464  0.1823  0.1318  0.0205
  150SOL     OW  597   1.732   1.383   0.887 -0.1747  0.5214 -0.0618
  150SOL    HW1  598   1.798   1.317   0.864  0.3268 -1.9996  2.4077
  150SOL    HW2  599   1.780   1.468   0.900 -1.4318  3.7056 -1.0808
  150SOL     MW  600   1.747   1.385   0.885 -0.2744  0.6089  0.1296
  151SOL     OW  601   1.686   1.826   0.815 -0.0349 -0.2037  0.3272
  151SOL    HW1  602   1.657   1.842   0.724 -0.1754  0.8561 -0.1632
  151SOL    HW2  603   1.611   1.830   0.868  0.5832  1.8505  0.5785
  151SOL     MW  604   1.672   1.829   0.810  0.0282  0.2072  0.2956
  152SOL     OW  605   0.752   1.447   1.627 -0.5647  0.0738 -0.2932
  152SOL    HW1  606   0.781   1.510   1.556  0.3106  2.2372  0.9665
  152SOL    HW2  607   0.740   1.362   1.586 -0.6710 -2.6661 -0.1660
  152SOL     MW  608   0.754   1.444   1.612 -0.4632 -0.0022 -0.1102
  153SOL     OW  609   2.560   1.207   0.748  0.5815  0.2914 -0.1712
  153SOL    HW1  610   2.632   1.177   0.690  1.9197  1.9260  1.4044
  153SOL    HW2  611   2.506   1.128   0.777  0.9774  0.6828 -3.0432
  153SOL     MW  612   2.563   1.192   0.745  0.8103  0.5587 -0.3422
  154SOL     OW  613   0.104   1.762   1.776  0.3811 -0.1513  0.4295
  154SOL    HW1  614   0.082   1.690   1.725  0.3258  2.0259  1.8434
  154SOL    HW2  615   0.190   1.743   1.817 -3.8756 -0.5166  0.5996
  154SOL     MW  616   0.112   1.750   1.775 -0.1878  0.0878  0.6385
  155SOL     OW  617   1.195   0.755   0.316  0.5435  0.6137 -0.3948
  155SOL    HW1  618   1.184   0.716   0.407  1.8036 -0.1069  1.2904
  155SOL    HW2  619   1.201   0.849   0.325 -0.9511  1.4148  1.4642
  155SOL     MW  620   1.195   0.762   0.329  0.5125  0.6243  0.0728
  156SOL     OW  621   1.557   3.059   1.113  0.1789  0.7909  0.0099
  156SOL    HW1  622   1.628   3.104   1.158 -2.9066  2.0213  1.5667
  156SOL    HW2  623   1.591   2.971   1.095 -0.6884  1.2898 -2.0340
  156SOL     MW  624   1.571   3.054   1.117 -0.3426  1.0190 -0.0544
  157SOL     OW  625   1.396   1.149   0.103  0.5713 -0.2387  0.3424
  157SOL    HW1  626   1.423   1.107   0.185  1.9431 -2.1528  2.6342
  157SOL    HW2  627   1.460   1.217   0.112 -1.1401 -1.4482  1.9045
  157SOL     MW  628   1.408   1.152   0.115  0.5265 -0.6508  0.8509
  158SOL     OW  629   0.439   1.701   2.289  0.2182  0.0277 -0.2715
  158SOL    HW1  630   0.468   1.748   2.211 -2.8976  0.5647 -0.5643
  158SOL    HW2  631   0.352   1.738   2.302 -0.9209 -1.9524  1.4960
  158SOL     MW  632   0.432   1.712   2.281 -0.3432 -0.1627 -0.0769
  159SOL     OW  633   1.216   1.605   0.487 -0.7644  0.0650  0.5109
  159SOL    HW1  634   1.177   1.597   0.397 -0.2504  0.4242 -0.5938
  159SOL    HW2  635   1.148   1.658   0.536 -0.5485  0.8411 -1.2961
  159SOL     MW  636   1.202   1.611   0.482 -0.6681  0.2148  0.1267
  160SOL     OW  637   0.523   1.241   1.546  0.1458 -0.5562  0.0286
  160SOL    HW1  638   0.458   1.182   1.590 -1.0046  0.2234  3.0658
  160SOL    HW2  639   0.613   1.208   1.567 -0.8093 -1.1240  0.5816
  160SOL     MW  640   0.526   1.229   1.554 -0.1320 -0.5282  0.5023
  161SOL     OW  641   0.456   2.232   2.577 -0.1297  0.1164  0.2733
  161SOL    HW1  642   0.383   2.297   2.543 -1.0120  4.0185  1.6330
  161SOL    HW2  643   0.489   2.175   2.499 -0.5384 -2.2766 -1.1326
  161SOL     MW  644   0.451   2.233   2.563 -0.3000  0.3155  0.2672
  162SOL     OW  645   1.074   1.835   1.814  0.1143 -0.4068 -0.3430
  162SOL    HW1  646   1.059   1.921   1.783 -0.1623 -1.0337 -1.1487
  162SOL    HW2  647   1.012   1.823   1.885  2.7416  1.4778  1.0919
  162SOL     MW  648   1.064   1.845   1.819  0.4245 -0.2409 -0.2600
  163SOL     OW  649   2.100   3.072   0.868  0.3212  0.2284 -0.6507
  163SOL    HW1  650   2.076   3.141   0.800  1.3088 -0.3586  1.1574
  163SOL    HW2  651   2.085   2.988   0.821  1.5962 -0.8535 -0.8015
  163SOL     MW  652   2.095   3.070   0.853  0.6197  0.0082 -0.4320
  164SOL     OW  653   0.299   0.201   0.788 -0.1738 -0.3128 -0.2526
  164SOL    HW1  654   0.209   0.194   0.822 -1.9233 -0.2813  0.4171
  164SOL    HW2  655   0.322   0.130   0.734 -1.5506  1.6870 -1.2613
  164SOL     MW  656   0.290   0.191   0.786 -0.5863 -0.0448 -0.2973
  165SOL     OW  657   1.190   1.322   0.328 -0.0795 -0.1416 -0.5101
  165SOL    HW1  658   1.209   1.333   0.422 -0.2720 -0.4879  2.8034
  165SOL    HW2  659   1.244   1.248   0.294 -0.8202 -0.8079  0.2468
  165SOL     MW  660   1.200   1.314   0.336 -0.2026 -0.2752  0.0270
  166SOL     OW  661   0.533   1.142   1.007  0.0528  0.5775  0.3869
  166SOL    HW1  662   0.526   1.179   1.091 -0.2453 -1.2093 -0.8765
  166SOL    HW2  663   0.633   1.121   1.004 -1.1073  0.8689 -0.8743
  166SOL     MW  664   0.545   1.144   1.017 -0.1396  0.3802  0.0538
  167SOL     OW  665   0.798   1.138   0.249 -0.3468  1.0269  0.0874
  167SOL    HW1  666   0.804   1.236   0.257  0.5644 -1.5408  1.7312
  167SOL    HW2  667   0.873   1.106   0.196  0.3407 -0.4677 -0.1460
  167SOL     MW  668   0.808   1.147   0.243 -0.1358  0.4909  0.2735
  168SOL     OW  669   1.760   1.666   3.044 -0.5475 -0.3827 -0.1109
  168SOL    HW1  670   1.693   1.732   3.018 -3.3954  0.4355 -0.4381
  168SOL    HW2  671   1.730   1.582   3.004 -0.9031 -2.1925  2.1380
  168SOL     MW  672   1.747   1.664   3.035 -0.9702 -0.5136  0.1426
  169SOL     OW  673   0.299   0.945   1.351  0.7005  0.0217  0.1088
  169SOL    HW1  674   0.294   0.916   1.447 -2.2914 -0.5833  1.9494
  169SOL    HW2  675   0.311   1.040   1.361  1.8119 -0.2152 -1.2369
  169SOL     MW  676   0.300   0.954   1.365  0.4524 -0.0894  0.1741
  170SOL     OW  677   1.188   1.495   1.444  0.1047 -0.0071 -0.0652
  170SOL    HW1  678   1.127   1.553   1.479  1.8865 -1.2122  2.0086
  170SOL    HW2  679   1.160   1.471   1.359  0.7684  1.8825 -0.1777
  170SOL     MW  680   1.176   1.499   1.437  0.4274  0.0832  0.1935
  171SOL     OW  681   0.518   1.430   0.511  0.5067  0.3564 -0.6753
  171SOL    HW1  682   0.420   1.428   0.514  2.8513  1.9654 -0.3717
  171SOL    HW2  683   0.538   1.345   0.467  2.5231 -0.9131 -1.2927
  171SOL     MW  684   0.508   1.419   0.505  1.0821  0.4012 -0.7167
  172SOL     OW  685   0.802   0.253   1.239 -0.7332 -0.6450  0.2870
  172SOL    HW1  686   0.766   0.217   1.158 -0.0457 -2.2866 -2.8868
  172SOL    HW2  687   0.814   0.176   1.299  1.7302 -3.2171 -1.1978
  172SOL     MW  688   0.799   0.238   1.236 -0.3175 -1.2010 -0.3277
  173SOL     OW  689   0.522   1.771   0.290 -0.3764 -0.2419  0.0527
  173SOL    HW1  690   0.550   1.687   0.242 -0.3812  0.9974  0.0679
  173SOL    HW2  691   0.532   1.746   0.381 -0.6496 -0.0174 -1.5579
  173SOL     MW  692   0.527   1.756   0.296 -0.4131 -0.0488 -0.1578
  174SOL     OW  693   1.840   0.873   1.484 -0.0577 -0.6409  0.2817
  174SOL    HW1  694   1.796   0.786   1.497 -1.9640  0.0850 -0.7601
  174SOL    HW2  695   1.832   0.882   1.384 -1.0536 -0.3395  0.0883
  174SOL     MW  696   1.833   0.863   1.472 -0.4406 -0.5053  0.1187
  175SOL     OW  697   0.567   1.530   0.169  0.1091 -0.5878 -0.9774
  175SOL    HW1  698   0.474   1.490   0.166 -1.6462  2.3230  0.2600
  175SOL    HW2  699   0.618   1.465   0.216 -4.1717  0.9042 -0.8104
  175SOL     MW  700   0.561   1.516   0.175 -0.6873 -0.0069 -0.7921
  176SOL     OW  701   0.161   1.465   1.171 -0.0895  0.1139 -0.1245
  176SOL    HW1  702   0.142   1.425   1.078  0.0142 -0.6258 -3.5985
  176SOL    HW2  703   0.086   1.431   1.221  1.1000  1.6548  0.5987
  176SOL     MW  704   0.149   1.455   1.166  0.0811  0.2196 -0.4874
  177SOL     OW  705   0.516   0.317   1.450  0.0649  0.2578  0.0146
  177SOL    HW1  706   0.541   0.356   1.365 -0.6368  0.0101  1.4095
  177SOL    HW2  707   0.496   0.392   1.505  1.3561 -0.9588  1.6801
  177SOL     MW  708   0.517   0.332   1.446  0.1427  0.0646  0.4184
  178SOL     OW  709   3.105   0.486   2.993  0.4202 -0.5948 -0.0669
  178SOL    HW1  710   3.050   0.479   3.068  1.3351  1.0147 -3.1536
  178SOL    HW2  711   3.049   0.499   2.914 -2.3463  0.8506  1.9253
  178SOL     MW  712   3.090   0.487   2.993  0.1759 -0.1917 -0.2113
  179SOL     OW  713   1.546   1.428   1.388  0.2274  0.1760 -0.0495
  179SOL    HW1  714   1.561   1.442   1.482  0.7947  0.6165  0.0434
  179SOL    HW2  715   1.634   1.451   1.366 -3.0189  1.9447  1.1728
  179SOL     MW  716   1.559   1.433   1.398 -0.1260  0.4675  0.1240
  180SOL     OW  717   3.002   0.281   0.494  0.0484  0.4089 -0.6645
  180SOL    HW1  718   2.973   0.281   0.403 -0.2149  1.4725  2.5390
  180SOL    HW2  719   3.082   0.339   0.493  2.0731 -4.3149 -0.3036
  180SOL     MW  720   3.008   0.289   0.482  0.2808 -0.0740 -0.1942
  181SOL     OW  721   1.134   1.287   3.084 -0.3314 -0.2875  0.2618
  181SOL    HW1  722   1.194   1.362   3.088 -0.9113  0.6677 -1.6520
  181SOL    HW2  723   1.200   1.238   3.033 -2.4428  2.5789 -0.5283
  181SOL     MW  724   1.151   1.290   3.078 -0.6865  0.2167 -0.0949
  182SOL     OW  725   0.380   0.992   1.619  0.1209 -0.3190  0.1803
  182SOL    HW1  726   0.300   0.968   1.673 -1.3052  0.6827  1.2772
  182SOL    HW2  727   0.453   0.947   1.659  0.5200 -0.7229 -2.2687
  182SOL     MW  728   0.379   0.983   1.632 -0.0146 -0.2401  0.0019
  183SOL     OW  729   1.530   1.724   1.278  0.3721 -0.4384 -0.3290
  183SOL    HW1  730   1.623   1.728   1.262 -0.7148  0.2505 -0.4583
  183SOL    HW2  731   1.527   1.634   1.303 -0.3778 -0.4543  0.1531
  183SOL     MW  732   1.542   1.712   1.279  0.1298 -0.3496 -0.2824
  184SOL     OW  733   0.794   0.707   1.845  0.1303 -0.1023 -0.8424
  184SOL    HW1  734   0.863   0.700   1.778 -0.8033  0.6273  0.2595
  184SOL    HW2  735   0.824   0.645   1.914  1.6148  0.8602  1.9444
  184SOL     MW  736   0.807   0.698   1.845  0.2029  0.1209 -0.3293
  185SOL     OW  737   1.064   0.939   1.872  0.0709  0.0301 -0.1590
  185SOL    HW1  738   1.050   0.853   1.906 -2.8943  0.9816 -2.5478
  185SOL    HW2  739   1.117   0.989   1.933  1.6376 -0.5886 -0.1029
  185SOL     MW  740   1.069   0.934   1.885 -0.1136  0.0740 -0.4668
  186SOL     OW  741   0.313   1.648   1.472 -0.1045  0.0150  0.1623
  186SOL    HW1  742   0.323   1.593   1.394  2.2175  1.9382  0.3317
  186SOL    HW2  743   0.232   1.610   1.512  2.1108  0.7415  1.8878
  186SOL     MW  744   0.304   1.636   1.467  0.4942  0.3646  0.4123
  187SOL     OW  745   1.489   0.753   1.377 -0.7178  0.1923  0.2328
  187SOL    HW1  746   1.532   0.768   1.458 -1.1429  1.3644  0.1299
  187SOL    HW2  747   1.403   0.724   1.410 -0.8568  1.6814  1.1670
  187SOL     MW  748   1.483   0.751   1.392 -0.7922  0.5434  0.3425
  188SOL     OW  749   1.956   1.219   0.821 -0.0922 -0.1207  0.2204
  188SOL    HW1  750   1.927   1.208   0.917 -0.8070  0.5057  1.3053
  188SOL    HW2  751   1.990   1.136   0.792  0.9797  1.7204  0.4239
  188SOL     MW  752   1.957   1.206   0.830 -0.0451  0.2049  0.3904
  189SOL     OW  753   0.699   0.750   0.833 -0.0213 -0.5116  0.0993
  189SOL    HW1  754   0.626   0.802   0.811 -0.3194  0.6091 -2.0637
  189SOL    HW2  755   0.723   0.790   0.915  0.8010  2.2977 -0.0697
  189SOL     MW  756   0.693   0.762   0.841  0.0479  0.0069 -0.2084
  190SOL     OW  757   1.879   0.315   2.114  0.6213 -0.7077 -0.5170
  190SOL    HW1  758   1.881   0.276   2.203 -3.0381  1.9222  1.9942
  190SOL    HW2  759   1.966   0.354   2.105 -2.8053  1.0990 -2.0404
  190SOL     MW  760   1.890   0.315   2.125 -0.3136 -0.1223 -0.3867
  191SOL     OW  761   1.526   1.015   1.262  0.1423  0.0702  0.2138
  191SOL    HW1  762   1.542   1.079   1.335 -1.0725  0.6593 -1.2103
  191SOL    HW2  763   1.483   0.942   1.309  0.5616 -1.6678 -0.5415
  191SOL     MW  764   1.522   1.014   1.278  0.0373 -0.0814 -0.0737
  192SOL     OW  765   0.533   2.140   2.878 -0.6176  0.4203  0.2753
  192SOL    HW1  766   0.524   2.213   2.817  2.0255 -1.3615  0.8610
  192SOL    HW2  767   0.535   2.060   2.828 -0.5274  2.0708  0.1658
  192SOL     MW  768   0.532   2.139   2.863 -0.2570  0.4030  0.3381
  193SOL     OW  769   0.880   1.597   0.802  0.1140 -0.1478  0.3588
  193SOL    HW1  770   0.809   1.568   0.849  0.0853  0.7272 -2.3310
  193SOL    HW2  771   0.845   1.553   0.722  1.0191 -0.4360  1.1194
  193SOL     MW  772   0.866   1.588   0.798  0.2296 -0.0703  0.1042
  194SOL     OW  773   0.500   1.310   0.814 -0.3246 -0.3951  0.5351
  194SOL    HW1  774   0.495   1.241   0.885 -0.1192 -1.8696  0.0665
  194SOL    HW2  775   0.407   1.336   0.797  0.0569 -2.7780  0.3773
  194SOL     MW  776   0.487   1.304   0.821 -0.2472 -0.9041  0.4525
  195SOL     OW  777   1.299   1.108   2.932  0.1334 -0.5899 -0.0521
  195SOL    HW1  778   1.347   1.100   3.013 -0.5121  3.0672 -1.0296
  195SOL    HW2  779   1.228   1.049   2.958 -1.0714 -1.3545 -0.5028
  195SOL     MW  780   1.296   1.099   2.946 -0.1108 -0.2082 -0.2405
  196SOL     OW  781   2.261   0.969   0.554  0.2593  0.1015  0.3571
  196SOL    HW1  782   2.281   0.946   0.460 -2.7182  0.8872  1.0041
  196SOL    HW2  783   2.250   1.065   0.561  1.1337  1.3390  0.0455
  196SOL     MW  784   2.262   0.979   0.543 -0.0182  0.3684  0.4014
  197SOL     OW  785   0.590   1.273   2.219  0.3552  0.1847 -0.3023
  197SOL    HW1  786   0.629   1.220   2.148 -0.4007  0.7522  1.3118
  197SOL    HW2  787   0.596   1.365   2.206  0.0657 -1.0487 -1.2002
  197SOL     MW  788   0.596   1.278   2.208  0.2173  0.0968 -0.2078
  198SOL     OW  789   2.933   1.441   1.024 -0.2254 -0.3865  0.3825
  198SOL    HW1  790   2.876   1.515   1.014 -1.3262 -0.4002 -1.1204
  198SOL    HW2  791   2.876   1.363   0.996  0.5146 -2.3291  1.6808
  198SOL     MW  792   2.918   1.440   1.019 -0.2730 -0.6446  0.3555
  199SOL     OW  793   0.749   1.321   1.856  0.2146  0.1824 -0.1592
  199SOL    HW1  794   0.656   1.303   1.859  0.0209 -0.4283 -1.8150
  199SOL    HW2  795   0.765   1.389   1.787 -1.1219 -0.1777 -0.1714
  199SOL     MW  796   0.739   1.328   1.847  0.0127  0.0543 -0.3793
  200SOL     OW  797   1.836   2.925   1.374 -0.4037  0.0972 -0.3731
  200SOL    HW1  798   1.872   2.943   1.285  2.2727  1.8785 -1.0770
  200SOL    HW2  799   1.759   2.981   1.377  3.8860 -4.2480  1.2076
  200SOL     MW  800   1.830   2.934   1.363  0.5154 -0.2411 -0.2574
  201SOL     OW  801   1.090   0.329   0.735  0.6215 -0.0463  0.3090
  201SOL    HW1  802   1.064   0.237   0.734  0.9729  0.5602 -0.3967
  201SOL    HW2  803   1.176   0.320   0.784  1.7250  0.8062  0.3114
  201SOL     MW  804   1.098   0.316   0.741  0.8135  0.1462  0.2162
  202SOL     OW  805   1.476   1.790   0.984  0.0694 -0.5940  0.3960
  202SOL    HW1  806   1.490   1.696   0.962  1.1930 -0.6101  0.1368
  202SOL    HW2  807   1.483   1.795   1.079  1.5288 -0.8734 -3.0816
  202SOL     MW  808   1.479   1.778   0.994  0.4102 -0.6330 -0.0971
  203SOL     OW  809   2.988   0.370   1.387 -0.1349  0.0063 -1.3334
  203SOL    HW1  810   3.035   0.295   1.343  0.7793 -0.9885  1.3088
  203SOL    HW2  811   3.001   0.370   1.483  2.3204 -1.8439 -0.1386
  203SOL     MW  812   2.996   0.360   1.394  0.3096 -0.3691 -0.8271
  204SOL     OW  813   1.049   1.789   0.626  0.0394 -0.6211 -0.0879
  204SOL    HW1  814   1.008   1.757   0.706  3.0695  2.1830  0.1471
  204SOL    HW2  815   0.977   1.802   0.564 -0.8775  0.1719  1.0536
  204SOL     MW  816   1.034   1.787   0.629  0.3182 -0.1465  0.0937
  205SOL     OW  817   1.348   3.031   1.334  0.1013 -0.0680 -0.1544
  205SOL    HW1  818   1.367   3.058   1.247 -1.6784  0.4964  0.2527
  205SOL    HW2  819   1.307   3.111   1.373 -1.2752 -0.1824  0.0069
  205SOL     MW  820   1.345   3.045   1.328 -0.3151 -0.0086 -0.0794
  206SOL     OW  821   0.431   3.059   1.359 -0.8270 -0.4321  0.2374
  206SOL    HW1  822   0.395   3.020   1.280  0.8841 -0.1146  0.3497
  206SOL    HW2  823   0.519   3.021   1.365  0.3277 -1.0972  0.2208
  206SOL     MW  824   0.438   3.049   1.350 -0.4489 -0.4780  0.2500
  207SOL     OW  825   0.879   1.717   0.173  0.5468  0.2890 -0.2472
  207SOL    HW1  826   0.938   1.783   0.142 -0.6056 -0.5444 -1.1737
  207SOL    HW2  827   0.942   1.658   0.210  0.8109  0.6883  0.5236
  207SOL     MW  828   0.895   1.718   0.173  0.4296  0.2318 -0.2678
  208SOL     OW  829   0.747   1.593   1.409  0.9635  0.0768 -0.3642
  208SOL    HW1  830   0.829   1.629   1.439 -1.3775 -1.6476 -0.9071
  208SOL    HW2  831   0.752   1.533   1.327  1.6066 -0.3306 -2.4914
  208SOL     MW  832   0.759   1.590   1.402  0.7395 -0.2045 -0.7165
  209SOL     OW  833   1.520   0.514   2.845 -0.2385 -0.2681  0.3286
  209SOL    HW1  834   1.570   0.597   2.868  0.7437  1.4098  0.0785
  209SOL    HW2  835   1.591   0.451   2.824  0.2222 -1.0917  0.4850
  209SOL     MW  836   1.536   0.517   2.845 -0.0481 -0.1554  0.3162
  210SOL     OW  837   1.476   1.512   0.941  0.7635  0.7486  0.9090
  210SOL    HW1  838   1.553   1.457   0.929 -1.9832  0.1233 -1.5242
  210SOL    HW2  839   1.429   1.505   0.855 -1.7693  0.2752  0.0187
  210SOL     MW  840   1.480   1.504   0.928  0.0669  0.6037  0.4705
  211SOL     OW  841   1.725   0.302   0.983 -0.0424  0.2248 -0.2573
  211SOL    HW1  842   1.734   0.351   0.905  1.0071 -0.9090 -0.1841
  211SOL    HW2  843   1.816   0.290   1.013  2.5996  1.5491 -0.8834
  211SOL     MW  844   1.739   0.307   0.977  0.4447  0.2499 -0.3302
  212SOL     OW  845   0.306   1.099   0.231  0.2248  0.1497  0.9646
  212SOL    HW1  846   0.224   1.058   0.265 -1.6305  0.8908 -0.0773
  212SOL    HW2  847   0.349   1.030   0.171 -0.4505  0.1192  0.1292
  212SOL     MW  848   0.301   1.085   0.228 -0.1091  0.2435  0.7169
  213SOL     OW  849   0.395   1.807   3.016 -0.2532  0.1795  0.0056
  213SOL    HW1  850   0.441   1.849   3.090  1.0707 -0.1884  2.8166
  213SOL    HW2  851   0.460   1.826   2.942  0.6937 -0.0798  2.6267
  213SOL     MW  852   0.410   1.815   3.016  0.0464  0.0967  0.7223
  214SOL     OW  853   0.634   0.320   2.129 -0.0797  0.0727  0.0884
  214SOL    HW1  854   0.571   0.388   2.152  0.2723 -2.2179 -3.0933
  214SOL    HW2  855   0.614   0.336   2.033 -3.0811 -1.2411  0.2572
  214SOL     MW  856   0.623   0.331   2.119 -0.4293 -0.4029 -0.3091
  215SOL     OW  857   0.498   0.575   2.566  0.0641 -0.4863  0.0916
  215SOL    HW1  858   0.476   0.609   2.476  0.3429  0.2696 -2.7184
  215SOL    HW2  859   0.444   0.629   2.631 -1.8547  0.7142 -3.0463
  215SOL     MW  860   0.488   0.587   2.563 -0.1523 -0.2282 -0.6932
  216SOL     OW  861   2.968   3.057   2.709 -0.4977  0.3246  0.2481
  216SOL    HW1  862   2.916   3.039   2.790 -2.7437  0.8178 -0.4969
  216SOL    HW2  863   2.981   3.157   2.715  1.1911  2.9008 -0.5653
  216SOL     MW  864   2.963   3.068   2.720 -0.5712  0.7296  0.0425
  217SOL     OW  865   1.029   1.069   0.135 -0.1483  0.1290  0.2675
  217SOL    HW1  866   1.060   0.994   0.073 -1.7430 -0.9413  1.6804
  217SOL    HW2  867   1.065   1.149   0.099  0.9908  0.9200  0.4210
  217SOL     MW  868   1.038   1.069   0.122 -0.2084  0.0921  0.4742
  218SOL     OW  869   0.864   1.384   2.688 -1.0019  0.6452 -0.2526
  218SOL    HW1  870   0.858   1.318   2.757  1.4344 -1.1254 -0.7534
  218SOL    HW2  871   0.958   1.390   2.678  0.0205  0.0518 -0.6019
  218SOL     MW  872   0.876   1.376   2.696 -0.5455  0.3333 -0.3647
  219SOL     OW  873   1.049   0.395   2.622  0.1078  0.7737 -0.6343
  219SOL    HW1  874   1.123   0.459   2.639 -1.1424 -1.3572 -0.7058
  219SOL    HW2  875   0.973   0.453   2.611 -2.8327  0.2175  1.8923
  219SOL     MW  876   1.049   0.411   2.623 -0.4451  0.4192 -0.3104
  220SOL     OW  877   1.700   0.526   2.217  0.6233  0.7504 -0.4063
  220SOL    HW1  878   1.614   0.567   2.185 -1.4091  0.8559 -1.3168
  220SOL    HW2  879   1.735   0.459   2.156 -0.2375 -0.8249 -2.5129
  220SOL     MW  880   1.694   0.522   2.205  0.2415  0.5565 -0.8044
  221SOL     OW  881   0.349   1.295   2.914 -0.0537  0.3987  0.1847
  221SOL    HW1  882   0.425   1.233   2.902 -0.6510  0.8363 -1.3591
  221SOL    HW2  883   0.359   1.358   2.846 -0.3006 -0.7534  3.1262
  221SOL     MW  884   0.361   1.295   2.903 -0.1651  0.3045  0.3691
  222SOL     OW  885   0.508   0.946   2.686 -0.0019  0.7103  0.0033
  222SOL    HW1  886   0.424   0.959   2.646 -0.5851  1.0116 -1.4484
  222SOL    HW2  887   0.508   0.854   2.694 -1.4148  3.3461 -1.2906
  222SOL     MW  888   0.497   0.936   2.682 -0.2653  1.0978 -0.3589
  223SOL     OW  889   3.100   2.022   2.574 -0.0858  0.3555 -0.0728
  223SOL    HW1  890   3.073   2.007   2.666  1.3662  1.4999  2.2241
  223SOL    HW2  891   3.103   2.111   2.548 -0.4785 -2.7026  1.3591
  223SOL     MW  892   3.097   2.032   2.583  0.0540  0.1030  0.4192
  224SOL     OW  893   1.449   0.722   2.483 -0.2270 -0.8230 -0.8046
  224SOL    HW1  894   1.432   0.727   2.574 -0.0908  1.5269 -0.2900
  224SOL    HW2  895   1.465   0.816   2.457 -0.5693  2.7382  0.9476
  224SOL     MW  896   1.449   0.735   2.491 -0.2542 -0.0431 -0.5055
  225SOL     OW  897   2.959   1.434   2.282  0.3701 -0.0627 -0.7044
  225SOL    HW1  898   2.990   1.495   2.214 -1.4271  1.6073  1.6426
  225SOL    HW2  899   2.900   1.495   2.326 -1.2218  1.6823 -1.4101
  225SOL     MW  900   2.955   1.450   2.279 -0.0771  0.3879 -0.4879
  226SOL     OW  901   0.402   1.508   2.720 -0.1120 -0.0679 -0.3362
  226SOL    HW1  902   0.457   1.540   2.789  1.9441  0.9818 -2.5363
  226SOL    HW2  903   0.391   1.597   2.674 -1.1692 -0.5663 -1.5081
  226SOL     MW  904   0.408   1.524   2.723  0.0198  0.0048 -0.7811
  227SOL     OW  905   0.578   1.136   2.895  0.6933 -0.1940 -0.1201
  227SOL    HW1  906   0.674   1.159   2.894  0.5562 -1.9578  0.0035
  227SOL    HW2  907   0.570   1.085   2.818 -0.6005  0.9357 -0.8036
  227SOL     MW  908   0.589   1.133   2.885  0.5045 -0.2776 -0.1939
  228SOL     OW  909   0.759   1.137   2.042  0.1504 -0.1067  0.0922
  228SOL    HW1  910   0.737   1.206   1.977  1.3278 -1.6398  0.0592
  228SOL    HW2  911   0.828   1.176   2.098  1.3284  1.6583 -1.9277
  228SOL     MW  912   0.765   1.151   2.041  0.4612 -0.0761 -0.1787
  229SOL     OW  913   0.239   0.603   0.002 -0.0778 -0.3522 -0.1539
  229SOL    HW1  914   0.169   0.588  -0.070 -3.1534  1.5147 -2.0649
  229SOL    HW2  915   0.235   0.522   0.053 -0.4133 -0.0767 -0.1559
  229SOL     MW  916   0.229   0.591  -0.001 -0.5279 -0.0695 -0.4063
  230SOL     OW  917   1.806   1.356   1.972 -0.0421  0.2801 -0.2317
  230SOL    HW1  918   1.784   1.315   2.057 -1.3192 -0.0372  3.1954
  230SOL    HW2  919   1.899   1.327   1.970  1.1091 -0.5023 -0.9503
  230SOL     MW  920   1.815   1.347   1.983 -0.0587  0.1350  0.1257
  231SOL     OW  921   2.736   1.285   2.212  0.2084  0.3980  0.2224
  231SOL    HW1  922   2.790   1.361   2.237 -0.8640 -1.1912 -0.7306
  231SOL    HW2  923   2.675   1.315   2.141 -0.6669 -3.2984  0.7355
  231SOL     MW  924   2.735   1.299   2.206 -0.0486 -0.2993  0.1643
  232SOL     OW  925   2.290   0.810   1.976  0.1355  0.3845 -0.2661
  232SOL    HW1  926   2.247   0.866   1.916  1.0835 -0.3340  2.2942
  232SOL    HW2  927   2.232   0.833   2.051 -0.0419  1.7510  0.0316
  232SOL     MW  928   2.277   0.821   1.978  0.2372  0.4700  0.1110
  233SOL     OW  929   2.107   0.458   2.088  0.0831 -0.4767  0.1555
  233SOL    HW1  930   2.138   0.381   2.036 -1.6478 -1.5862  0.2431
  233SOL    HW2  931   2.175   0.463   2.154  3.8822 -1.4409  2.2918
  233SOL     MW  932   2.120   0.448   2.090  0.3560 -0.7503  0.4489
  234SOL     OW  933   0.259   1.031   2.605  0.1368 -0.2255 -0.1343
  234SOL    HW1  934   0.184   1.017   2.545 -2.4784 -0.1977  1.8555
  234SOL    HW2  935   0.293   1.118   2.590  0.0398 -1.4808  0.3701
  234SOL     MW  936   0.254   1.041   2.595 -0.2210 -0.3875  0.1948
  235SOL     OW  937   1.022   3.026   2.810  0.6309 -0.8364  0.1198
  235SOL    HW1  938   1.087   2.973   2.857 -0.4924  2.8972  1.3036
  235SOL    HW2  939   1.037   3.122   2.818  0.1159 -0.2696  0.9071
  235SOL     MW  940   1.033   3.032   2.817  0.4147 -0.2690  0.3799
  236SOL     OW  941   2.927   0.598   0.148 -0.0503  0.2522  0.3553
  236SOL    HW1  942   2.953   0.610   0.240 -0.5299 -0.4390  2.0973
  236SOL    HW2  943   2.982   0.667   0.109 -0.4383  1.8776 -0.4647
  236SOL     MW  944   2.938   0.609   0.155 -0.1647  0.3755  0.4769
  237SOL     OW  945   1.964   1.048   2.164 -0.1681 -0.2153 -0.5304
  237SOL    HW1  946   1.878   1.060   2.118 -0.7597 -0.4554  0.6862
  237SOL    HW2  947   1.988   0.954   2.165  0.3801  3.2446 -0.6473
  237SOL     MW  948   1.956   1.037   2.158 -0.1738  0.2095 -0.3853
  238SOL     OW  949   1.085   1.755   2.964 -0.2730  0.0327  0.2978
  238SOL    HW1  950   1.000   1.739   2.920 -0.3202  0.7568 -3.4963
  238SOL    HW2  951   1.158   1.700   2.933  2.3371  1.3309  0.3781
  238SOL     MW  952   1.084   1.746   2.954  0.0651  0.2995 -0.1922
  239SOL     OW  953   1.174   1.291   2.272  0.2778  0.3131 -0.1697
  239SOL    HW1  954   1.084   1.280   2.242 -0.7691 -0.9633 -0.6837
  239SOL    HW2  955   1.181   1.232   2.348 -0.8888  1.1485 -2.0830
  239SOL     MW  956   1.163   1.282   2.278 -0.0142  0.2549 -0.4899
  240SOL     OW  957   0.609   0.866   2.205  0.0525 -0.4053 -0.2099
  240SOL    HW1  958   0.635   0.920   2.289 -0.7450  1.7423 -1.7708
  240SOL    HW2  959   0.699   0.856   2.167  2.1034  4.5849 -0.5037
  240SOL     MW  960   0.624   0.872   2.211  0.2179  0.5365 -0.4546
  241SOL     OW  961   0.685   0.468   3.049  0.1036 -0.4173 -0.2039
  241SOL    HW1  962   0.714   0.543   3.106  0.8149 -0.1713 -1.8807
  241SOL    HW2  963   0.604   0.494   3.013  0.8180  0.0982  0.8862
  241SOL     MW  964   0.678   0.482   3.052  0.2917 -0.3169 -0.2813
  242SOL     OW  965   1.507   1.685   2.282  0.0956  0.1007  0.7060
  242SOL    HW1  966   1.445   1.751   2.266  1.1401  0.2362 -0.1488
  242SOL    HW2  967   1.474   1.600   2.244  0.6724  1.6862  0.7306
  242SOL     MW  968   1.495   1.683   2.275  0.3095  0.3278  0.5965
  243SOL     OW  969   0.995   0.331   2.362  0.4098  0.3198  0.1983
  243SOL    HW1  970   1.081   0.324   2.326  1.6456  2.7603  0.8359
  243SOL    HW2  971   1.013   0.358   2.459  1.4943 -0.0581  2.6688
  243SOL     MW  972   1.009   0.334   2.370  0.7160  0.5919  0.6084
  244SOL     OW  973   0.145   0.771   2.372 -0.3261 -0.3249  0.1850
  244SOL    HW1  974   0.129   0.857   2.394 -0.5026 -0.9538 -1.0426
  244SOL    HW2  975   0.235   0.762   2.335 -0.3821  0.2320 -0.4233
  244SOL     MW  976   0.155   0.781   2.370 -0.3568 -0.3344 -0.0573
  245SOL     OW  977   1.270   0.204   2.342  0.3718  0.1392  0.8864
  245SOL    HW1  978   1.356   0.155   2.347  2.1857  1.6140 -0.9713
  245SOL    HW2  979   1.216   0.181   2.418 -0.0282 -1.7933 -2.3927
  245SOL     MW  980   1.274   0.194   2.353  0.5583  0.0788  0.2086
  246SOL     OW  981   1.223   1.109   2.030  0.2369 -0.5775 -0.5675
  246SOL    HW1  982   1.166   1.146   2.093  0.6759  1.3639  1.4643
  246SOL    HW2  983   1.306   1.112   2.093  1.5890  1.3903 -0.6785
  246SOL     MW  984   1.227   1.114   2.046  0.4732 -0.0617 -0.3141
  247SOL     OW  985   0.788   0.653   0.164  0.4590  0.1053 -0.0606
  247SOL    HW1  986   0.754   0.742   0.163  0.9915  1.8269 -0.9198
  247SOL    HW2  987   0.883   0.656   0.137 -2.2931 -0.9957 -2.2218
  247SOL     MW  988   0.796   0.665   0.160  0.1662  0.1872 -0.4591
  248SOL     OW  989   0.338   1.295   2.542  0.0607  0.0446  0.2274
  248SOL    HW1  990   0.328   1.319   2.453 -2.4947  1.1471  2.7548
  248SOL    HW2  991   0.335   1.386   2.582 -0.9092  1.2084 -0.8139
  248SOL     MW  992   0.336   1.310   2.536 -0.4044  0.3436  0.4235
  249SOL     OW  993   2.997   1.917   2.838 -0.5132  0.2900 -0.1398
  249SOL    HW1  994   2.957   1.834   2.818  1.3013  0.5388 -2.7018
  249SOL    HW2  995   3.084   1.888   2.868 -1.0811 -1.2505 -1.4013
  249SOL     MW  996   3.003   1.902   2.839 -0.3487  0.1195 -0.6443
  250SOL     OW  997   2.145   0.850   2.203  0.6515 -0.4223 -0.2799
  250SOL    HW1  998   2.124   0.767   2.240  0.2902  3.8370  1.9519
  250SOL    HW2  999   2.163   0.904   2.279 -0.4657 -4.5744  2.3772
  250SOL     MW 1000   2.145   0.846   2.218  0.4564 -0.4081  0.3651
  251SOL     OW 1001   0.157   0.895   2.026 -0.2188 -0.0953  0.4558
  251SOL    HW1 1002   0.105   0.819   2.058  2.4224  0.7380  1.5253
  251SOL    HW2 1003   0.137   0.900   1.932  0.0820  2.9577 -0.3833
  251SOL     MW 1004   0.148   0.886   2.018  0.1693  0.4174  0.4862
  252SOL     OW 1005   1.640   0.964   2.816  0.1110 -0.3482 -0.0062
  252SOL    HW1 1006   1.665   1.021   2.889  1.9589 -1.9590  0.6363
  252SOL    HW2 1007   1.718   0.969   2.756  4.5583  0.0107 -0.0200
  252SOL     MW 1008   1.653   0.973   2.818  0.9416 -0.5134  0.0768
  253SOL     OW 1009   1.148   1.691   2.440 -0.1938 -0.0158  0.0026
  253SOL    HW1 1010   1.143   1.699   2.338  0.3446  0.2547 -3.0438
  253SOL    HW2 1011   1.094   1.759   2.471 -0.8766 -2.7533  1.1860
  253SOL     MW 1012   1.141   1.701   2.430 -0.2128 -0.3413 -0.2432
  254SOL     OW 1013   0.958   1.136   2.242 -0.3383  0.0116 -0.0072
  254SOL    HW1 1014   0.958   1.042   2.261 -1.2156 -2.8903  0.8365
  254SOL    HW2 1015   0.897   1.177   2.303  0.2897  1.7336 -0.5408
  254SOL     MW 1016   0.950   1.129   2.253 -0.3712 -0.1440  0.0337
  255SOL     OW 1017   0.873   2.580   2.177 -0.1464  0.2665 -0.4465
  255SOL    HW1 1018   0.784   2.534   2.182 -1.9350 -2.9670  1.3534
  255SOL    HW2 1019   0.933   2.514   2.197 -1.0791 -1.4708 -0.6309
  255SOL     MW 1020   0.869   2.565   2.180 -0.5055 -0.3894 -0.2333
  256SOL     OW 1021   1.228   2.764   2.988  0.1328 -0.1372 -0.0683
  256SOL    HW1 1022   1.184   2.695   2.935  0.2953 -2.3372  2.0887
  256SOL    HW2 1023   1.312   2.783   2.935  2.0153  0.1338 -2.8584
  256SOL     MW 1024   1.233   2.757   2.974  0.4027 -0.3917 -0.1518
  257SOL     OW 1025   0.045   1.894   0.111  0.5368 -0.4720  0.5223
  257SOL    HW1 1026   0.130   1.898   0.140 -0.7747  1.8580 -0.4817
  257SOL    HW2 1027   0.060   1.897   0.017 -1.6263  0.8668  0.9087
  257SOL     MW 1028   0.058   1.895   0.102  0.0784  0.0120  0.4408
  258SOL     OW 1029   0.675   0.976   2.471 -0.9189  0.3849 -0.3180
  258SOL    HW1 1030   0.690   1.066   2.472 -0.4869 -3.8189  2.0558
  258SOL    HW2 1031   0.602   0.973   2.525  1.5830  0.9204  1.4715
  258SOL     MW 1032   0.667   0.988   2.478 -0.5318 -0.0991  0.2313
  259SOL     OW 1033   0.794   0.462   2.252  0.2040  0.2786  0.3888
  259SOL    HW1 1034   0.735   0.394   2.207 -0.6467 -0.6733 -0.1463
  259SOL    HW2 1035   0.879   0.423   2.282  0.5145  2.6297  1.1502
  259SOL     MW 1036   0.797   0.448   2.250  0.1327  0.4632  0.4186
  260SOL     OW 1037   0.652   0.084   1.553  0.4144  0.4014 -0.6658
  260SOL    HW1 1038   0.598   0.158   1.529  0.5126 -2.0225  3.0969
  260SOL    HW2 1039   0.739   0.099   1.512 -0.4796  1.9836  0.0607
  260SOL     MW 1040   0.656   0.096   1.544  0.3094  0.2903 -0.0735
  261SOL     OW 1041   1.089   0.687   1.984 -0.1890  0.4936  0.8175
  261SOL    HW1 1042   1.117   0.684   2.084 -3.3662  0.4533  0.9732
  261SOL    HW2 1043   1.025   0.619   1.976 -3.7407  2.1346 -0.1584
  261SOL     MW 1044   1.084   0.678   1.996 -1.0768  0.7048  0.7093
  262SOL     OW 1045   1.120   0.348   0.151 -0.3691 -0.3481 -0.6504
  262SOL    HW1 1046   1.213   0.358   0.129  1.2452  0.1595 -1.3296
  262SOL    HW2 1047   1.099   0.284   0.083  2.3920 -1.6798  3.1255
  262SOL     MW 1048   1.130   0.341   0.139  0.2082 -0.4568 -0.2418
  263SOL     OW 1049   0.365   3.083   2.498 -0.0958 -0.3265  0.3411
  263SOL    HW1 1050   0.308   3.155   2.492  1.2875 -0.6031  0.0748
  263SOL    HW2 1051   0.428   3.111   2.429  2.3073  0.8970  1.7342
  263SOL     MW 1052   0.365   3.096   2.488  0.4037 -0.2016  0.4898
  264SOL     OW 1053   1.527   1.395   1.925  0.5044  0.3617 -0.9113
  264SOL    HW1 1054   1.517   1.302   1.902 -0.8717 -0.7692 -0.5003
  264SOL    HW2 1055   1.621   1.404   1.956  0.4291 -0.1317  1.5830
  264SOL     MW 1056   1.538   1.384   1.926  0.3129  0.1474 -0.5280
  265SOL     OW 1057   0.729   2.771   2.300  0.2570  0.9282 -0.1202
  265SOL    HW1 1058   0.783   2.702   2.263  1.2494  1.3903  2.0845
  265SOL    HW2 1059   0.754   2.781   2.392 -0.8737 -1.4364 -0.3526
  265SOL     MW 1060   0.740   2.763   2.308  0.2387  0.6772  0.1400
  266SOL     OW 1061   0.869   0.879   2.143 -0.0348  0.4342 -0.5714
  266SOL    HW1 1062   0.835   0.963   2.110 -3.0749  0.1023 -1.0167
  266SOL    HW2 1063   0.907   0.837   2.069 -1.8590  2.1695  1.2275
  266SOL     MW 1064   0.869   0.884   2.129 -0.6766  0.6194 -0.3928
  267SOL     OW 1065   1.355   1.727   2.640  0.8031 -0.4922  0.5870
  267SOL    HW1 1066   1.439   1.686   2.632 -0.7554  0.2383 -1.4351
  267SOL    HW2 1067   1.298   1.693   2.571  1.4503  0.2746 -1.0526
  267SOL     MW 1068   1.359   1.717   2.630  0.6828 -0.2947  0.1039
  268SOL     OW 1069   0.118   0.915   1.751  0.3513 -0.4971 -0.2266
  268SOL    HW1 1070   0.098   0.997   1.704 -1.5360 -2.1267  0.8974
  268SOL    HW2 1071   0.096   0.839   1.692  0.4596  2.5150 -1.7101
  268SOL     MW 1072   0.113   0.916   1.737  0.1166 -0.3147 -0.2740
  269SOL     OW 1073   1.336   1.936   2.297 -0.1553 -0.7985 -0.2065
  269SOL    HW1 1074   1.349   2.004   2.363 -0.8192  0.4523  3.5671
  269SOL    HW2 1075   1.254   1.905   2.325  1.0046  2.3561 -0.1356
  269SOL     MW 1076   1.327   1.941   2.309 -0.0899 -0.2172  0.3007
  270SOL     OW 1077   1.121   0.430   1.587  0.1706 -0.2774 -0.0860
  270SOL    HW1 1078   1.087   0.372   1.656 -1.1618  0.6044 -2.3540
  270SOL    HW2 1079   1.217   0.420   1.589 -0.5472 -1.2492  1.3136
  270SOL     MW 1080   1.129   0.421   1.597 -0.0999 -0.2893 -0.2005
  271SOL     OW 1081   0.849   0.114   2.469  0.4092  0.1685 -0.0001
  271SOL    HW1 1082   0.904   0.038   2.479  0.9095  1.6598  1.6921
  271SOL    HW2 1083   0.899   0.184   2.419  0.7565  0.6043 -3.1181
  271SOL     MW 1084   0.863   0.113   2.464  0.5210  0.4228 -0.1882
  272SOL     OW 1085   1.429   2.830   2.841 -0.1190  0.0781  0.0916
  272SOL    HW1 1086   1.422   2.795   2.753  1.2276  0.7490  1.0191
  272SOL    HW2 1087   1.475   2.914   2.830  0.4048 -2.3513 -0.8583
  272SOL     MW 1088   1.434   2.836   2.828  0.1278 -0.1539  0.0887
  273SOL     OW 1089   1.419   0.820   2.775 -0.2443 -0.3272 -0.1855
  273SOL    HW1 1090   1.503   0.863   2.802  1.6083  0.9339  0.7872
  273SOL    HW2 1091   1.371   0.897   2.738 -2.3784 -0.6289 -2.1153
  273SOL     MW 1092   1.424   0.836   2.773 -0.2815 -0.2006 -0.3118
  274SOL     OW 1093   1.423   0.710   0.168  0.0944  0.1433 -0.5132
  274SOL    HW1 1094   1.481   0.639   0.199 -0.8559 -0.0929 -0.3806
  274SOL    HW2 1095   1.343   0.703   0.216  1.1109  0.5429  0.5295
  274SOL     MW 1096   1.420   0.700   0.178  0.1031  0.1648 -0.3581
  275SOL     OW 1097   1.772   0.501   1.767  0.3764 -0.1790 -0.3151
  275SOL    HW1 1098   1.816   0.560   1.826 -0.2333 -0.0819  0.6833
  275SOL    HW2 1099   1.801   0.409   1.782 -0.9212  0.5612 -0.1261
  275SOL     MW 1100   1.782   0.497   1.776  0.1248 -0.0685 -0.1584
  276SOL     OW 1101   0.482   1.210   1.931 -0.5842 -0.6694 -0.0340
  276SOL    HW1 1102   0.476   1.120   1.956  2.2206  1.1990 -0.8634
  276SOL    HW2 1103   0.394   1.242   1.957  2.2988  2.9865  0.9072
  276SOL     MW 1104   0.469   1.203   1.937  0.1663  0.0595 -0.0192
  277SOL     OW 1105   2.004   1.085   2.441  0.5628  0.4036  0.2008
  277SOL    HW1 1106   2.020   1.181   2.447 -3.3414  1.0209 -2.1715
  277SOL    HW2 1107   1.968   1.078   2.352  0.9309 -2.7635  0.5989
  277SOL     MW 1108   2.001   1.097   2.430  0.0963  0.0672 -0.0597
  278SOL     OW 1109   1.431   0.665   1.751  0.0132  0.3124 -0.6523
  278SOL    HW1 1110   1.414   0.576   1.790  2.0433 -3.1976  1.6894
  278SOL    HW2 1111   1.526   0.682   1.759  3.2603  0.7246 -2.2718
  278SOL     MW 1112   1.441   0.656   1.757  0.7094 -0.0963 -0.5570
  279SOL     OW 1113   0.531   0.108   2.263 -0.2848 -0.6525 -0.0125
  279SOL    HW1 1114   0.605   0.046   2.244  0.7827  1.7485 -4.5797
  279SOL    HW2 1115   0.568   0.189   2.226 -2.8860 -2.9757 -1.0510
  279SOL     MW 1116   0.546   0.110   2.255 -0.4871 -0.6422 -0.7521
  280SOL     OW 1117   1.454   1.125   2.188 -0.2252  0.3293  0.0417
  280SOL    HW1 1118   1.505   1.056   2.143  2.3448 -0.3706  3.4985
  280SOL    HW2 1119   1.436   1.084   2.277 -1.6164  0.4745  2.7565
  280SOL     MW 1120   1.458   1.110   2.194 -0.0697  0.2561  0.8560
  281SOL     OW 1121   1.386   1.140   2.674 -0.3145 -0.2187 -0.0491
  281SOL    HW1 1122   1.450   1.219   2.674  4.3337  0.0714 -1.0432
  281SOL    HW2 1123   1.350   1.134   2.764 -0.7992 -1.0196 -0.9729
  281SOL     MW 1124   1.390   1.150   2.686  0.2348 -0.2861 -0.3022
  282SOL     OW 1125   1.174   1.253   1.580  0.1334  0.4236 -0.6060
  282SOL    HW1 1126   1.175   1.345   1.548 -1.9812 -2.8399  1.2159
  282SOL    HW2 1127   1.108   1.249   1.656 -1.0176  1.4392 -0.3714
  282SOL     MW 1128   1.166   1.264   1.586 -0.2974  0.1270 -0.3347
  283SOL     OW 1129   0.865   1.353   0.006 -0.2897  0.3035 -0.0356
  283SOL    HW1 1130   0.957   1.326  -0.022  1.1238 -0.2858  2.6741
  283SOL    HW2 1131   0.861   1.447   0.031  0.0345  2.3037  0.5329
  283SOL     MW 1132   0.877   1.362   0.006 -0.0604  0.4897  0.3970
  284SOL     OW 1133   0.398   0.743   2.312 -0.1075 -0.0784 -0.2089
  284SOL    HW1 1134   0.456   0.809   2.277  1.9195 -0.4486  2.2944
  284SOL    HW2 1135   0.405   0.673   2.245 -0.8358 -0.1024 -0.1770
  284SOL     MW 1136   0.406   0.743   2.299  0.0639 -0.1304  0.1256
  285SOL     OW 1137   0.890   0.889   2.849 -0.2251 -0.4423  0.0585
  285SOL    HW1 1138   0.893   0.916   2.753  0.4246  0.6771  0.8437
  285SOL    HW2 1139   0.823   0.819   2.845  2.4239 -0.9754  0.3556
  285SOL     MW 1140   0.882   0.883   2.836  0.2101 -0.3650  0.2013
  286SOL     OW 1141   1.115   1.464   2.607  0.7483  0.1821 -0.6356
  286SOL    HW1 1142   1.132   1.398   2.536 -0.1088 -1.4477  1.3909
  286SOL    HW2 1143   1.125   1.543   2.558  0.3264 -4.4000 -2.2316
  286SOL     MW 1144   1.118   1.466   2.591  0.5796 -0.6375 -0.5788
  287SOL     OW 1145   1.205   1.034   0.360 -0.0221 -0.6868  0.1557
  287SOL    HW1 1146   1.158   1.045   0.438  0.4829 -1.1137 -2.8580
  287SOL    HW2 1147   1.134   1.051   0.303 -0.1578  0.7822  2.4844
  287SOL     MW 1148   1.190   1.037   0.363  0.0266 -0.5493  0.0654
  288SOL     OW 1149   1.475   0.620   2.088 -0.0630  0.1700  0.5175
  288SOL    HW1 1150   1.413   0.650   2.152  2.6070 -1.3412 -1.0151
  288SOL    HW2 1151   1.498   0.714   2.057 -1.0124  2.5313 -2.0837
  288SOL     MW 1152   1.470   0.636   2.092  0.1640  0.2822 -0.0279
  289SOL     OW 1153   0.929   0.986   2.606 -0.0499 -0.1674  0.3996
  289SOL    HW1 1154   0.966   0.907   2.560  0.5870 -2.7496 -0.7589
  289SOL    HW2 1155   0.845   0.994   2.566  1.6300  1.4834  1.0445
  289SOL     MW 1156   0.923   0.976   2.595  0.2558 -0.2903  0.3318
  290SOL     OW 1157   0.816   0.640   1.466 -0.0565  0.0387 -0.2450
  290SOL    HW1 1158   0.877   0.608   1.399  1.7495 -0.0538  1.8601
  290SOL    HW2 1159   0.872   0.640   1.544 -0.4169 -0.5202 -1.1144
  290SOL     MW 1160   0.831   0.635   1.468  0.1343 -0.0472 -0.0820
  291SOL     OW 1161   0.202   0.369   0.155 -0.0693  0.1493  0.5123
  291SOL    HW1 1162   0.301   0.350   0.167  1.9223  0.0925 -0.5566
  291SOL    HW2 1163   0.166   0.284   0.127  0.2411 -0.4184 -0.7758
  291SOL     MW 1164   0.210   0.355   0.153  0.2344  0.0669  0.2013
  292SOL     OW 1165   1.047   0.611   0.115 -0.2648  0.6066 -0.4660
  292SOL    HW1 1166   1.111   0.642   0.186 -1.1711  1.6176  1.0198
  292SOL    HW2 1167   1.054   0.516   0.118  3.2494  0.5869 -0.7484
  292SOL     MW 1168   1.057   0.602   0.125  0.0793  0.7374 -0.3073
  293SOL     OW 1169   0.109   0.156   2.537 -0.3656 -0.5706  0.6628
  293SOL    HW1 1170   0.061   0.092   2.482  0.1440 -1.3574 -0.5875
  293SOL    HW2 1171   0.042   0.188   2.594 -3.0092 -1.1917 -0.3287
  293SOL     MW 1172   0.094   0.152   2.537 -0.6471 -0.7564  0.3670
  294SOL     OW 1173   1.305   0.522   2.334 -0.0749  0.0103  0.3656
  294SOL    HW1 1174   1.351   0.564   2.406 -1.9936 -0.3428  2.0990
  294SOL    HW2 1175   1.346   0.440   2.313  0.0726  1.6068  2.1702
  294SOL     MW 1176   1.316   0.517   2.341 -0.3086  0.1743  0.8324
  295SOL     OW 1177   0.851   0.559   2.522 -0.5659  0.4207  0.3299
  295SOL    HW1 1178   0.805   0.542   2.440  1.2373 -0.1893 -1.0768
  295SOL    HW2 1179   0.784   0.578   2.586  1.1380 -2.1992 -0.1507
  295SOL     MW 1180   0.836   0.559   2.520 -0.1031 -0.0054  0.0809
  296SOL     OW 1181   1.246   0.210   2.039  0.7351 -0.0287  0.1270
  296SOL    HW1 1182   1.315   0.159   1.999 -1.9658  0.1770 -3.1312
  296SOL    HW2 1183   1.245   0.180   2.132  2.5152 -2.1506  1.4220
  296SOL     MW 1184   1.255   0.200   2.046  0.6136 -0.2816 -0.1320
  297SOL     OW 1185   1.413   0.379   1.544  0.0892 -0.0149  0.7593
  297SOL    HW1 1186   1.481   0.439   1.518  2.2563  1.5143  0.1528
  297SOL    HW2 1187   1.453   0.323   1.609  2.4735  1.2106  0.0030
  297SOL     MW 1188   1.427   0.379   1.549  0.6897  0.3486  0.5795
  298SOL     OW 1189   1.586   0.890   2.074 -0.2026 -0.5238 -0.0238
  298SOL    HW1 1190   1.605   0.934   1.990 -1.2475  1.3276  1.2046
  298SOL    HW2 1191   1.675   0.871   2.113  1.7152 -0.6598 -1.5137
  298SOL     MW 1192   1.600   0.893   2.068 -0.0874 -0.2975 -0.0583
  299SOL     OW 1193   0.564   1.157   0.066  0.4160  0.4978  0.5487
  299SOL    HW1 1194   0.567   1.163  -0.031 -4.0668 -2.2529  3.5181
  299SOL    HW2 1195   0.648   1.194   0.097  0.0388 -0.9138 -0.2213
  299SOL     MW 1196   0.576   1.163   0.057 -0.2252 -0.0513  0.8389
  300SOL     OW 1197   1.129   1.168   2.511 -0.9961  0.3895  0.5197
  300SOL    HW1 1198   1.052   1.127   2.557 -1.0329 -3.0208  1.9438
  300SOL    HW2 1199   1.198   1.183   2.573  0.6391 -0.5893 -0.8501
  300SOL     MW 1200   1.128   1.164   2.525 -0.7852 -0.1896  0.5269
  301SOL     OW 1201   1.415   1.022   0.727  0.3677  0.6049 -0.1066
  301SOL    HW1 1202   1.433   1.053   0.815  1.3105  1.5990  0.5282
  301SOL    HW2 1203   1.359   0.948   0.741 -1.7416  0.8696  1.7843
  301SOL     MW 1204   1.410   1.016   0.740  0.2138  0.7710  0.2267
  302SOL     OW 1205   0.193   1.559   2.037 -0.5210  0.2057 -0.2065
  302SOL    HW1 1206   0.149   1.474   2.037 -0.6800 -0.9243  1.9273
  302SOL    HW2 1207   0.130   1.631   2.045  0.6624  0.6741  0.6788
  302SOL     MW 1208   0.179   1.557   2.038 -0.3858  0.1184  0.1918
  303SOL     OW 1209   0.356   1.773   2.677  0.2537 -0.3981  0.1474
  303SOL    HW1 1210   0.350   1.800   2.582  2.9802  0.2309 -0.6014
  303SOL    HW2 1211   0.267   1.761   2.720  0.4280  0.3830 -0.2166
  303SOL     MW 1212   0.344   1.775   2.670  0.6364 -0.2120  0.0006
  304SOL     OW 1213   0.497   2.043   2.388 -0.2042  0.7400  0.6278
  304SOL    HW1 1214   0.555   2.103   2.334 -2.4242  1.4101  2.1644
  304SOL    HW2 1215   0.558   1.985   2.436 -1.8885 -0.0307  0.5446
  304SOL     MW 1216   0.513   2.043   2.387 -0.7193  0.7267  0.8196
  305SOL     OW 1217   1.115   0.665   0.568 -0.2120 -0.1860 -0.2292
  305SOL    HW1 1218   1.018   0.655   0.549 -1.0484 -0.3007  0.7758
  305SOL    HW2 1219   1.155   0.581   0.553 -0.5060 -1.5183 -1.9621
  305SOL     MW 1220   1.108   0.652   0.564 -0.3611 -0.3769 -0.3252
  306SOL     OW 1221   1.098   1.552   0.237 -1.0144  0.3349  0.4502
  306SOL    HW1 1222   1.119   1.455   0.249  0.6974  0.2034  0.1277
  306SOL    HW2 1223   1.154   1.562   0.160  2.3389 -1.0535  1.2268
  306SOL     MW 1224   1.108   1.541   0.228 -0.3461  0.1343  0.5101
  307SOL     OW 1225   1.353   0.441   1.894  0.1890 -0.1373  0.1397
  307SOL    HW1 1226   1.308   0.377   1.948  1.3309  1.7867  1.5447
  307SOL    HW2 1227   1.414   0.489   1.956  0.3180  2.8324 -0.7230
  307SOL     MW 1228   1.355   0.439   1.909  0.3567  0.5084  0.2112
  308SOL     OW 1229   2.233   0.506   2.661 -0.6103 -0.0572 -0.0437
  308SOL    HW1 1230   2.328   0.519   2.672  0.5818  2.1125  0.4348
  308SOL    HW2 1231   2.195   0.595   2.686 -0.5355 -0.4831 -0.6347
  308SOL     MW 1232   2.241   0.519   2.666 -0.4431  0.1729 -0.0585
  309SOL     OW 1233   0.484   0.581   0.239  0.1738  0.5174  0.3851
  309SOL    HW1 1234   0.565   0.627   0.256  0.3841 -0.8577 -2.5120
  309SOL    HW2 1235   0.514   0.498   0.203 -0.2769 -1.5375  1.9233
  309SOL     MW 1236   0.498   0.576   0.237  0.1421  0.0648  0.2058
  310SOL     OW 1237   0.468   0.642   1.909 -0.0030 -0.3038 -0.1429
  310SOL    HW1 1238   0.529   0.566   1.896 -4.3471  1.2689 -1.3325
  310SOL    HW2 1239   0.491   0.718   1.859 -1.1946  0.8564 -0.5558
  310SOL     MW 1240   0.479   0.642   1.901 -0.7334  0.0568 -0.3543
  311SOL     OW 1241   1.945   0.642   1.962 -0.3089 -0.0538  0.5497
  311SOL    HW1 1242   1.908   0.686   2.042 -1.4008  5.1252  0.4883
  311SOL    HW2 1243   2.018   0.585   2.000  2.6876 -1.8040 -0.8573
  311SOL     MW 1244   1.950   0.641   1.978 -0.0576  0.3986  0.3559
  312SOL     OW 1245   1.781   2.442   0.129 -0.3854 -0.0528 -0.6924
  312SOL    HW1 1246   1.797   2.436   0.222 -2.1046  1.0326  0.8810
  312SOL    HW2 1247   1.715   2.511   0.126 -0.6352  0.1103 -1.1511
  312SOL     MW 1248   1.775   2.450   0.140 -0.6452  0.1119 -0.5454
  313SOL     OW 1249   0.135   1.134   3.035 -0.2876 -0.0688  0.1788
  313SOL    HW1 1250   0.066   1.171   3.092  0.0108  0.5079 -1.6403
  313SOL    HW2 1251   0.177   1.211   3.002 -3.0844 -1.4480  0.6179
  313SOL     MW 1252   0.132   1.149   3.038 -0.6173 -0.1747 -0.0033
  314SOL     OW 1253   2.159   2.921   3.087 -0.1775  0.1687  0.0779
  314SOL    HW1 1254   2.108   2.962   3.004 -1.6473  0.3084 -3.8626
  314SOL    HW2 1255   2.197   3.002   3.124  1.0568 -0.7773  2.3369
  314SOL     MW 1256   2.157   2.937   3.081 -0.2085  0.0623 -0.1440
  315SOL     OW 1257   1.544   1.824   2.965 -0.0869  0.0526  0.4335
  315SOL    HW1 1258   1.485   1.871   3.036 -1.1175 -0.1333 -2.3027
  315SOL    HW2 1259   1.582   1.897   2.911  0.2878 -2.3235 -0.6683
  315SOL     MW 1260   1.541   1.840   2.967 -0.1735 -0.2855 -0.0729
  316SOL     OW 1261   1.224   0.574   2.726 -0.5543  0.3090  0.1829
  316SOL    HW1 1262   1.318   0.564   2.728  0.4881 -0.1773 -1.5468
  316SOL    HW2 1263   1.194   0.570   2.821 -1.3982 -0.9955 -0.7516
  316SOL     MW 1264   1.232   0.572   2.738 -0.5281  0.0727 -0.1686
  317SOL     OW 1265   0.686   1.582   2.667 -0.0852 -0.1724  0.0944
  317SOL    HW1 1266   0.731   1.506   2.700  2.2678 -0.6383  0.6838
  317SOL    HW2 1267   0.698   1.568   2.574  1.8608  0.9533 -2.3069
  317SOL     MW 1268   0.693   1.570   2.659  0.4820 -0.0854 -0.1446
  318SOL     OW 1269   1.328   0.365   2.966  0.3676  0.7109  0.3880
  318SOL    HW1 1270   1.242   0.413   2.953 -2.5734  0.4503 -0.8475
  318SOL    HW2 1271   1.403   0.418   2.930 -0.9787 -1.0861  3.1401
  318SOL     MW 1272   1.327   0.378   2.960 -0.1981  0.4394  0.5881
  319SOL     OW 1273   0.876   0.372   2.878  0.0812  0.4914 -0.9976
  319SOL    HW1 1274   0.857   0.283   2.842  1.4417 -0.1380  3.3813
  319SOL    HW2 1275   0.807   0.398   2.941 -3.2736 -1.4601  2.7326
  319SOL     MW 1276   0.864   0.364   2.881 -0.1819  0.1509  0.0723
  320SOL     OW 1277   1.071   1.408   1.967 -0.0979  0.0843 -0.1811
  320SOL    HW1 1278   1.141   1.354   1.990 -1.6687 -1.4084  0.1276
  320SOL    HW2 1279   1.104   1.493   1.939 -0.8271  0.8551  0.7993
  320SOL     MW 1280   1.084   1.412   1.966 -0.4014 -0.0110 -0.0110
  321SOL     OW 1281   1.112   0.919   3.002 -0.0877 -0.0321  0.2634
  321SOL    HW1 1282   1.046   0.905   2.932  2.7529  1.6338  0.6295
  321SOL    HW2 1283   1.158   0.833   3.010  2.7208  0.1495 -0.1850
  321SOL     MW 1284   1.109   0.906   2.993  0.6577  0.2116  0.2525
  322SOL     OW 1285   1.225   0.850   1.679 -0.1700 -0.5934  0.7077
  322SOL    HW1 1286   1.284   0.788   1.722  2.1100 -1.5723 -0.0639
  322SOL    HW2 1287   1.174   0.896   1.748 -2.6187  0.6560  2.5869
  322SOL     MW 1288   1.226   0.848   1.694 -0.1922 -0.5577  0.8538
  323SOL     OW 1289   1.227   1.609   1.903 -0.1519 -0.1138  0.2932
  323SOL    HW1 1290   1.269   1.585   1.821 -2.1766 -1.0102  1.1800
  323SOL    HW2 1291   1.184   1.691   1.882 -2.4074 -1.4909 -2.6797
  323SOL     MW 1292   1.227   1.616   1.889 -0.7166 -0.4137  0.0180
  324SOL     OW 1293   1.465   0.998   2.436 -0.6246 -0.0502  0.6726
  324SOL    HW1 1294   1.401   1.033   2.495 -1.1023 -1.0207  2.3663
  324SOL    HW2 1295   1.550   1.046   2.452  2.4304 -0.8124 -2.4031
  324SOL     MW 1296   1.468   1.009   2.446 -0.2846 -0.2788  0.4903
  325SOL     OW 1297   1.096   0.499   2.967 -0.5700  0.2720 -0.3793
  325SOL    HW1 1298   1.078   0.549   3.049 -1.9309 -1.9445 -1.9340
  325SOL    HW2 1299   1.017   0.461   2.935 -0.6818 -1.1759 -1.5771
  325SOL     MW 1300   1.084   0.500   2.974 -0.7643 -0.2115 -0.7425
  326SOL     OW 1301   0.353   1.365   2.269 -0.5352  0.0197 -0.4793
  326SOL    HW1 1302   0.429   1.311   2.256  0.8314  0.1244  0.4522
  326SOL    HW2 1303   0.363   1.457   2.242  0.1692  2.0846 -1.0900
  326SOL     MW 1304   0.364   1.370   2.263 -0.2619  0.3059 -0.4370
  327SOL     OW 1305   1.974   0.787   2.438  0.5465 -0.1956 -0.3524
  327SOL    HW1 1306   1.910   0.745   2.504  1.2704 -0.5467 -0.9872
  327SOL    HW2 1307   1.966   0.883   2.464 -0.2953  0.7666 -1.8232
  327SOL     MW 1308   1.964   0.794   2.450  0.5310 -0.1150 -0.6302
  328SOL     OW 1309   0.229   1.255   2.041 -0.5188  0.2557  0.1578
  328SOL    HW1 1310   0.154   1.211   2.076  1.3209 -1.0849 -0.9891
  328SOL    HW2 1311   0.274   1.284   2.119 -0.6957  0.0592  2.5158
  328SOL     MW 1312   0.225   1.253   2.056 -0.2994  0.0529  0.3176
  329SOL     OW 1313   0.063   0.146   1.353 -0.7650 -0.2753  0.8241
  329SOL    HW1 1314   0.037   0.098   1.434  0.3565 -1.9566 -0.4080
  329SOL    HW2 1315   0.163   0.164   1.359  1.0905 -0.9926 -2.7363
  329SOL     MW 1316   0.073   0.142   1.364 -0.3722 -0.5918  0.1918
  330SOL     OW 1317   0.402   3.087   2.041  0.1909 -0.1589  0.7987
  330SOL    HW1 1318   0.441   3.145   2.108 -1.1277 -0.8285  2.0674
  330SOL    HW2 1319   0.328   3.045   2.092 -1.6695 -0.1230 -0.2841
  330SOL     MW 1320   0.398   3.089   2.057 -0.2285 -0.2425  0.8232
  331SOL     OW 1321   0.798   1.233   2.455  0.3506 -0.2236 -0.3807
  331SOL    HW1 1322   0.734   1.285   2.403 -1.2865 -2.0439 -0.6999
  331SOL    HW2 1323   0.815   1.282   2.537 -0.7984 -0.6926 -0.7334
  331SOL     MW 1324   0.792   1.246   2.459 -0.0170 -0.5256 -0.4694
  332SOL     OW 1325   1.332   1.650   2.907 -0.1227 -0.5153  0.3319
  332SOL    HW1 1326   1.310   1.646   2.815  1.4801  1.7976 -1.8459
  332SOL    HW2 1327   1.415   1.705   2.913  1.6900 -0.1548  0.6941
  332SOL     MW 1328   1.340   1.657   2.896  0.3280 -0.1626  0.0923
  333SOL     OW 1329   1.705   1.394   2.926 -0.2145 -0.0277 -0.0288
  333SOL    HW1 1330   1.801   1.385   2.957  1.4072  0.8399  1.4780
  333SOL    HW2 1331   1.655   1.335   2.982 -1.9312 -0.5639  1.8519
  333SOL     MW 1332   1.711   1.385   2.937 -0.2271  0.0160  0.4182
  334SOL     OW 1333   1.257   3.067   2.670  0.2301 -0.0403  0.1823
  334SOL    HW1 1334   1.175   3.082   2.722 -0.6670  1.8247 -1.6924
  334SOL    HW2 1335   1.314   3.144   2.706  2.0481 -1.1698  2.1818
  334SOL     MW 1336   1.254   3.079   2.681  0.3516  0.0568  0.1988
  335SOL     OW 1337   1.328   0.712   3.015  0.0075 -0.3445  0.8449
  335SOL    HW1 1338   1.399   0.732   3.069 -3.4176 -2.3389  1.9752
  335SOL    HW2 1339   1.367   0.731   2.934 -3.5722 -0.4646  0.7075
  335SOL     MW 1340   1.343   0.717   3.011 -0.9167 -0.6235  0.9759
  336SOL     OW 1341   0.968   1.177   1.763  0.3678 -0.7455 -0.5891
  336SOL    HW1 1342   0.907   1.213   1.823 -1.4955 -1.8738  0.8206
  336SOL    HW2 1343   0.991   1.093   1.804 -1.0587  0.6355 -0.1080
  336SOL     MW 1344   0.963   1.170   1.777 -0.0662 -0.7121 -0.3396
  337SOL     OW 1345   0.567   1.861   2.813 -0.4562  0.1349  0.4287
  337SOL    HW1 1346   0.503   1.819   2.754  0.7900 -1.0172 -0.0679
  337SOL    HW2 1347   0.649   1.829   2.786 -0.2839  1.9376  1.5327
  337SOL     MW 1348   0.569   1.851   2.802 -0.2691  0.2208  0.5088
  338SOL     OW 1349   1.038   0.743   2.517  0.1379 -0.1790 -0.5243
  338SOL    HW1 1350   0.962   0.678   2.516  0.8998  0.8966 -1.5451
  338SOL    HW2 1351   1.115   0.696   2.565  2.3312 -1.4840 -0.3556
  338SOL     MW 1352   1.038   0.728   2.523  0.5278 -0.2092 -0.6367
  339SOL     OW 1353   1.445   1.135   1.874 -0.3546  0.6020  0.0816
  339SOL    HW1 1354   1.418   1.115   1.785 -0.8009  1.4128  0.3394
  339SOL    HW2 1355   1.364   1.136   1.927  0.7888  0.6679  2.1723
  339SOL     MW 1356   1.430   1.133   1.869 -0.2627  0.7177  0.3915
  340SOL     OW 1357   1.304   1.503   0.031 -0.6039  0.1699 -0.0367
  340SOL    HW1 1358   1.316   1.557  -0.048  2.8769 -2.1359 -0.4822
  340SOL    HW2 1359   1.374   1.536   0.092 -3.6819  1.2037  0.6136
  340SOL     MW 1360   1.315   1.515   0.029 -0.5508  0.0020 -0.0097
  341SOL     OW 1361   0.042   1.347   2.784  0.3924 -0.0512  0.4264
  341SOL    HW1 1362   0.120   1.297   2.779 -0.5181  0.3278 -1.6149
  341SOL    HW2 1363   0.001   1.332   2.704 -1.1374 -1.2050  2.0282
  341SOL     MW 1364   0.047   1.339   2.773  0.0704 -0.1535  0.3684
  342SOL     OW 1365   1.403   0.316   0.111  0.2034 -0.2360 -0.4812
  342SOL    HW1 1366   1.475   0.376   0.145  1.1126 -0.4431 -1.3731
  342SOL    HW2 1367   1.385   0.357   0.028  0.6846  1.1825  0.7181
  342SOL     MW 1368   1.410   0.329   0.105  0.3869 -0.0762 -0.4407
  343SOL     OW 1369   0.301   0.289   2.225 -0.1446  0.0650 -0.1599
  343SOL    HW1 1370   0.376   0.234   2.262 -0.6797 -0.7898 -0.0250
  343SOL    HW2 1371   0.225   0.233   2.213  0.4784 -2.7013  1.0056
  343SOL     MW 1372   0.301   0.274   2.228 -0.1330 -0.4128  0.0116
  344SOL     OW 1373   1.720   2.018   0.157  0.3700 -0.4303 -0.0782
  344SOL    HW1 1374   1.751   2.087   0.102 -2.8957  0.0140  0.7028
  344SOL    HW2 1375   1.639   1.978   0.114 -3.1195 -0.2101 -2.3343
  344SOL     MW 1376   1.713   2.022   0.144 -0.5212 -0.3426 -0.2729
  345SOL     OW 1377   0.692   1.573   2.366 -0.0641  0.3065  0.0707
  345SOL    HW1 1378   0.617   1.625   2.326  0.1309  0.1937 -1.1897
  345SOL    HW2 1379   0.753   1.545   2.300  1.8430  0.9063  0.4918
  345SOL     MW 1380   0.690   1.576   2.352  0.2132  0.3708 -0.0401
  346SOL     OW 1381   1.700   1.094   3.052 -0.5320 -0.1468  0.2010
  346SOL    HW1 1382   1.787   1.090   3.085 -1.9040 -0.1316 -0.6511
  346SOL    HW2 1383   1.644   1.039   3.108  1.7986  0.3713  0.0762
  346SOL     MW 1384   1.704   1.086   3.064 -0.4055 -0.0765  0.0721
  347SOL     OW 1385   1.137   0.724   2.249 -0.0280 -0.6133 -0.5526
  347SOL    HW1 1386   1.210   0.669   2.286  2.0618 -0.5405 -1.8987
  347SOL    HW2 1387   1.094   0.761   2.328  1.3915 -3.2301 -0.8762
  347SOL     MW 1388   1.141   0.722   2.264  0.4350 -0.9490 -0.7729
  348SOL     OW 1389   1.360   2.558   1.916 -0.1013 -0.0525  0.3439
  348SOL    HW1 1390   1.342   2.484   1.980 -2.7205  1.5098 -0.4312
  348SOL    HW2 1391   1.362   2.640   1.972 -2.0591  0.5086  1.1464
  348SOL     MW 1392   1.358   2.559   1.932 -0.7052  0.2276  0.3475
  349SOL     OW 1393   1.394   0.183   2.755  0.0676  0.0472 -0.0736
  349SOL    HW1 1394   1.339   0.227   2.817 -0.2831  1.0281 -2.0180
  349SOL    HW2 1395   1.440   0.122   2.813  1.9794  0.0112 -1.1022
  349SOL     MW 1396   1.393   0.181   2.771  0.2736  0.1719 -0.4659
  350SOL     OW 1397   1.821   0.658   2.637 -0.4724  0.1532 -0.3760
  350SOL    HW1 1398   1.756   0.594   2.594  2.0028  0.6220  0.4444
  350SOL    HW2 1399   1.896   0.597   2.656  3.6909  0.7781  0.3124
  350SOL     MW 1400   1.822   0.642   2.633  0.4035  0.2975 -0.1770
  351SOL     OW 1401   0.070   1.150   1.630  0.8324 -0.0296  0.1691
  351SOL    HW1 1402  -0.015   1.154   1.680 -1.9061 -1.8278 -1.7951
  351SOL    HW2 1403   0.125   1.219   1.660  1.5634 -3.5687  0.9209
  351SOL     MW 1404   0.066   1.159   1.641  0.5676 -0.7338  0.0092
  352SOL     OW 1405   0.848   1.758   2.810 -0.2450  0.1641  0.2171
  352SOL    HW1 1406   0.805   1.719   2.892  1.3400 -0.2354 -1.3220
  352SOL    HW2 1407   0.818   1.687   2.750  0.4396 -2.8248  0.1971
  352SOL     MW 1408   0.839   1.743   2.813  0.0545 -0.2830  0.0114
  353SOL     OW 1409   0.014   2.583   2.734  0.2473  0.5737 -0.1401
  353SOL    HW1 1410   0.098   2.556   2.702 -0.7442  1.8581 -0.3884
  353SOL    HW2 1411   0.023   2.679   2.744 -0.3910  0.9789  3.1113
  353SOL     MW 1412   0.026   2.592   2.731  0.0322  0.7966  0.2561
  354SOL     OW 1413   0.348   2.444   0.865  0.3935  0.0877  0.6207
  354SOL    HW1 1414   0.374   2.429   0.956 -3.5025 -4.1690 -0.5560
  354SOL    HW2 1415   0.280   2.370   0.858  2.2388 -1.2200  0.9470
  354SOL     MW 1416   0.342   2.432   0.876  0.1229 -0.6464  0.5085
  355SOL     OW 1417   3.050   2.176   0.354  0.4045 -0.2117  0.7555
  355SOL    HW1 1418   2.972   2.129   0.351  1.9873  0.6358  0.9503
  355SOL    HW2 1419   3.055   2.225   0.438  0.3810 -0.5676 -1.4838
  355SOL     MW 1420   3.040   2.176   0.365  0.6102 -0.1469  0.4858
  356SOL     OW 1421   0.823   2.815   0.973 -0.4472  0.7751  0.3284
  356SOL    HW1 1422   0.889   2.850   0.907 -0.3823  0.8395  0.8128
  356SOL    HW2 1423   0.741   2.804   0.929 -0.0032  1.7976 -0.6245
  356SOL     MW 1424   0.821   2.818   0.959 -0.3801  0.9185  0.2666
  357SOL     OW 1425   1.816   2.801   0.484  0.4553 -0.2784 -0.0703
  357SOL    HW1 1426   1.836   2.738   0.552  0.9754  1.6638  0.6735
  357SOL    HW2 1427   1.896   2.800   0.429  1.4982  0.2581 -0.8051
  357SOL     MW 1428   1.829   2.793   0.485  0.6615  0.0486 -0.0691
  358SOL     OW 1429   0.454   0.186   1.042  0.4411  0.2318  0.0978
  358SOL    HW1 1430   0.541   0.144   1.024 -1.6253 -0.3001 -0.1497
  358SOL    HW2 1431   0.407   0.197   0.961 -0.7628  0.6046  1.1552
  358SOL     MW 1432   0.459   0.182   1.029  0.0096  0.2108  0.2046
  359SOL     OW 1433   0.843   2.972   1.836  1.0767  0.5191 -0.1816
  359SOL    HW1 1434   0.845   2.876   1.854  0.5878 -1.0148 -0.5844
  359SOL    HW2 1435   0.882   2.973   1.742  2.8262 -1.7908 -2.6931
  359SOL     MW 1436   0.848   2.959   1.826  1.2430  0.0119 -0.5661
  360SOL     OW 1437   0.551   2.754   0.865 -0.2069  0.2195  0.0424
  360SOL    HW1 1438   0.550   2.723   0.775 -0.3387 -2.6732  0.2837
  360SOL    HW2 1439   0.555   2.680   0.928  1.0791  3.4283  0.8429
  360SOL     MW 1440   0.551   2.741   0.861 -0.0546  0.2612  0.1799
  361SOL     OW 1441   0.213   2.647   1.413 -0.0648 -0.0460 -0.4681
  361SOL    HW1 1442   0.169   2.722   1.449  0.8940 -0.6048 -1.6241
  361SOL    HW2 1443   0.304   2.674   1.391  4.3951  1.1683  1.8471
  361SOL     MW 1444   0.219   2.660   1.415  0.6501  0.0405 -0.3151
  362SOL     OW 1445   1.387   2.390   0.582 -0.3984 -0.0253  0.3377
  362SOL    HW1 1446   1.427   2.330   0.641  0.0829  2.2335  1.8490
  362SOL    HW2 1447   1.428   2.481   0.590 -0.7351 -0.2359 -0.2177
  362SOL     MW 1448   1.397   2.394   0.591 -0.3793  0.2450  0.4638
  363SOL     OW 1449   0.315   3.060   0.642 -0.1253  0.5631 -0.3273
  363SOL    HW1 1450   0.298   3.003   0.719 -1.2999 -0.4869 -1.7488
  363SOL    HW2 1451   0.227   3.076   0.611  1.8458 -1.6369  0.5312
  363SOL     MW 1452   0.301   3.054   0.649 -0.0202  0.1343 -0.4016
  364SOL     OW 1453   0.775   0.256   0.136 -0.0255  0.0792 -0.3390
  364SOL    HW1 1454   0.711   0.187   0.145  2.3302  0.9104 -2.2248
  364SOL    HW2 1455   0.734   0.300   0.061  0.7697 -1.4372 -1.4158
  364SOL     MW 1456   0.761   0.253   0.127  0.3902 -0.0112 -0.7299
  365SOL     OW 1457   0.933   2.026   1.134 -0.9986 -0.3550  0.2344
  365SOL    HW1 1458   0.891   2.110   1.122 -0.8253 -2.2863  1.2359
  365SOL    HW2 1459   0.879   1.966   1.088  2.8604  2.6842  2.0031
  365SOL     MW 1460   0.921   2.029   1.126 -0.4666 -0.2088  0.5999
  366SOL     OW 1461   2.963   2.652   0.938 -0.1207 -0.5505 -0.2512
  366SOL    HW1 1462   3.046   2.635   0.986  1.5869  0.8108  0.3415
  366SOL    HW2 1463   2.993   2.688   0.847 -1.1605 -1.7538 -1.7788
  366SOL     MW 1464   2.978   2.655   0.932 -0.0326 -0.5297 -0.3746
  367SOL     OW 1465   1.219   2.978   0.934 -0.0840 -0.0261  0.0347
  367SOL    HW1 1466   1.256   3.034   0.866  0.3165  3.0081 -0.5741
  367SOL    HW2 1467   1.158   2.926   0.888  0.5854  0.8791  1.4424
  367SOL     MW 1468   1.216   2.978   0.919  0.0572  0.4937  0.1401
  368SOL     OW 1469   1.745   0.401   0.722  0.2465  0.1699 -0.0931
  368SOL    HW1 1470   1.788   0.349   0.656 -2.3386  1.4466  2.5995
  368SOL    HW2 1471   1.752   0.490   0.690  0.9226 -1.1663 -1.4397
  368SOL     MW 1472   1.751   0.406   0.709 -0.0054  0.1621  0.0845
  369SOL     OW 1473   0.127   2.419   1.785 -0.0097 -0.5381 -0.0429
  369SOL    HW1 1474   0.225   2.426   1.757  0.0142 -0.5342 -2.9553
  369SOL    HW2 1475   0.082   2.502   1.795  2.7112 -0.2932  0.4534
  369SOL     MW 1476   0.134   2.431   1.783  0.3524 -0.5053 -0.3617
  370SOL     OW 1477   0.730   0.152   0.978 -0.5689  0.2109  0.5982
  370SOL    HW1 1478   0.757   0.241   0.956  2.3030 -0.1963  0.0832
  370SOL    HW2 1479   0.816   0.106   1.003  1.8416 -1.4556  0.6232
  370SOL     MW 1480   0.745   0.158   0.978  0.1280 -0.0627  0.5336
  371SOL     OW 1481   1.220   2.825   1.512 -0.5777 -0.2776 -0.2332
  371SOL    HW1 1482   1.201   2.741   1.469  0.0111 -1.0454  2.3631
  371SOL    HW2 1483   1.202   2.889   1.440  1.9641 -2.9125 -1.1059
  371SOL     MW 1484   1.215   2.823   1.497 -0.1646 -0.7266 -0.0058
  372SOL     OW 1485   0.820   2.291   0.515 -0.3365 -0.2108  0.3315
  372SOL    HW1 1486   0.778   2.205   0.531  2.2218 -0.9651 -0.9423
  372SOL    HW2 1487   0.856   2.296   0.425  1.4925 -0.8880 -2.0902
  372SOL     MW 1488   0.819   2.280   0.505  0.2424 -0.3997 -0.1561
  373SOL     OW 1489   2.872   3.014   1.398  0.0629  0.3003  0.5063
  373SOL    HW1 1490   2.938   2.990   1.329 -0.3506 -2.4219 -1.7624
  373SOL    HW2 1491   2.839   3.101   1.368 -1.0618 -1.2468 -1.8808
  373SOL     MW 1492   2.876   3.023   1.385 -0.1401 -0.2630 -0.1080
  374SOL     OW 1493   1.570   0.463   0.281  1.4229 -0.7261  0.4159
  374SOL    HW1 1494   1.663   0.439   0.281  2.1556 -0.9945  0.3444
  374SOL    HW2 1495   1.540   0.433   0.369 -2.2110  0.6161  3.4088
  374SOL     MW 1496   1.578   0.456   0.293  1.0401 -0.5844  0.8013
  375SOL     OW 1497   0.935   2.154   2.350 -0.6292  0.6091 -0.1204
  375SOL    HW1 1498   1.019   2.125   2.386  2.6879  1.3314 -0.3801
  375SOL    HW2 1499   0.925   2.078   2.288  1.0658  0.3326  0.1944
  375SOL     MW 1500   0.944   2.140   2.347  0.0321  0.6679 -0.1131
  376SOL     OW 1501   0.699   2.499   0.048 -0.0769  0.7711  0.1430
  376SOL    HW1 1502   0.642   2.442   0.093 -1.0166  0.6935 -1.2367
  376SOL    HW2 1503   0.726   2.465  -0.040  1.1093  0.2287 -2.9911
  376SOL     MW 1504   0.695   2.487   0.042 -0.0444  0.6893 -0.4526
  377SOL     OW 1505   1.269   2.087   0.911  0.3731 -0.0993 -0.1632
  377SOL    HW1 1506   1.182   2.079   0.873  0.5415 -0.0419  0.5584
  377SOL    HW2 1507   1.266   2.025   0.986  0.2257 -0.5211  1.3655
  377SOL     MW 1508   1.257   2.078   0.915  0.3758 -0.1474  0.1337
  378SOL     OW 1509   0.935   2.901   1.589  0.6033  0.1309 -0.1137
  378SOL    HW1 1510   0.965   2.809   1.605 -2.5948 -1.5568  0.7219
  378SOL    HW2 1511   0.987   2.948   1.527 -3.1225 -1.5342 -1.1062
  378SOL     MW 1512   0.946   2.895   1.583 -0.3102 -0.3114 -0.1344
  379SOL     OW 1513   1.112   1.654   2.174 -0.0330  0.2198  0.5176
  379SOL    HW1 1514   1.025   1.608   2.172  0.0746  0.0470  0.5196
  379SOL    HW2 1515   1.177   1.603   2.125  2.5553 -1.4593  1.8649
  379SOL     MW 1516   1.109   1.641   2.167  0.3227 -0.0246  0.6956
  380SOL     OW 1517   0.899   0.065   1.432 -0.6419  0.2228 -0.7905
  380SOL    HW1 1518   0.964   0.005   1.394  0.5810 -0.4181  0.6578
  380SOL    HW2 1519   0.936   0.085   1.521  2.2728 -2.0408 -2.2010
  380SOL     MW 1520   0.913   0.060   1.439 -0.0960 -0.1604 -0.7855
  381SOL     OW 1521   0.777   2.069   0.822  0.3504 -0.5859 -0.5831
  381SOL    HW1 1522   0.873   2.067   0.813 -1.0032 -1.7350  0.5513
  381SOL    HW2 1523   0.761   2.124   0.905 -0.1181  2.1894  1.3694
  381SOL     MW 1524   0.788   2.076   0.832  0.1100 -0.3713 -0.1758
  382SOL     OW 1525   0.772   0.149   0.644  0.3015 -0.1193  0.2000
  382SOL    HW1 1526   0.732   0.157   0.733  1.7545 -2.6887  1.1370
  382SOL    HW2 1527   0.732   0.069   0.612  0.8610  1.5953 -0.1077
  382SOL     MW 1528   0.761   0.140   0.652  0.5670 -0.2321  0.2831
  383SOL     OW 1529   0.573   0.055   0.284  0.1243  0.4757  0.2254
  383SOL    HW1 1530   0.641   0.005   0.242  0.9418 -0.6048 -0.5895
  383SOL    HW2 1531   0.514  -0.011   0.316  0.4229 -0.2708 -3.2413
  383SOL     MW 1532   0.574   0.040   0.283  0.2715  0.2346 -0.3395
  384SOL     OW 1533   0.741   2.959   0.600 -0.3971 -0.1047  0.0922
  384SOL    HW1 1534   0.818   2.931   0.657  0.1360 -0.7489  2.0563
  384SOL    HW2 1535   0.681   2.881   0.596  2.5654  1.0195 -0.7723
  384SOL     MW 1536   0.744   2.945   0.607  0.0641 -0.0414  0.2373
  385SOL     OW 1537   1.446   2.047   1.547 -0.2963  0.0603 -0.1261
  385SOL    HW1 1538   1.510   2.105   1.596  0.5798 -0.5361 -0.7203
  385SOL    HW2 1539   1.431   1.966   1.601 -0.3963  1.8373 -0.0243
  385SOL     MW 1540   1.452   2.044   1.561 -0.1939  0.2161 -0.1910
  386SOL     OW 1541   1.333   0.363   0.851  1.1839  0.3684 -0.0816
  386SOL    HW1 1542   1.289   0.377   0.935  1.3655 -2.2607 -0.0027
  386SOL    HW2 1543   1.397   0.292   0.863  3.0031  3.0624  0.5124
  386SOL     MW 1544   1.336   0.355   0.863  1.4479  0.3769  0.0071
  387SOL     OW 1545   0.789   2.135   1.495  0.4124 -0.0042  0.0797
  387SOL    HW1 1546   0.858   2.184   1.452 -2.5011 -1.9940  0.5853
  387SOL    HW2 1547   0.799   2.051   1.455  0.1319  0.2112  0.9612
  387SOL     MW 1548   0.799   2.130   1.484 -0.0090 -0.2383  0.2627
  388SOL     OW 1549   1.491   2.749   1.301 -1.0791 -0.1930 -0.3587
  388SOL    HW1 1550   1.438   2.829   1.282  0.0615  2.7789  0.1841
  388SOL    HW2 1551   1.459   2.679   1.252  2.1965  1.8595 -0.2332
  388SOL     MW 1552   1.480   2.750   1.292 -0.4964  0.4699 -0.2705
  389SOL     OW 1553   0.570   0.136   3.050 -0.1671 -0.0807 -0.0485
  389SOL    HW1 1554   0.642   0.074   3.012  0.3976 -0.9791  2.2931
  389SOL    HW2 1555   0.534   0.182   2.971  0.6768 -1.7976  0.6732
  389SOL     MW 1556   0.575   0.134   3.034  0.0188 -0.4258  0.3557
  390SOL     OW 1557   1.351   0.047   0.705 -0.0219 -0.3896  0.9703
  390SOL    HW1 1558   1.390   0.050   0.617 -0.1374  0.0706 -1.7174
  390SOL    HW2 1559   1.412   0.089   0.767 -0.0273  2.7663 -4.7257
  390SOL     MW 1560   1.364   0.053   0.702 -0.0379  0.0875 -0.1358
  391SOL     OW 1561   0.384   2.187   1.504 -0.6854 -0.2359  0.3494
  391SOL    HW1 1562   0.352   2.096   1.518 -0.7029 -0.4053  1.2556
  391SOL    HW2 1563   0.308   2.248   1.497 -0.9115 -0.4685  3.7729
  391SOL     MW 1564   0.370   2.183   1.505 -0.7175 -0.2889  0.9206
  392SOL     OW 1565   2.061   2.224   0.283 -0.2199 -0.0091  0.5795
  392SOL    HW1 1566   2.142   2.253   0.329  0.8110  0.8404 -0.5030
  392SOL    HW2 1567   2.007   2.303   0.265 -1.1431  1.1485 -2.1683
  392SOL     MW 1568   2.064   2.238   0.287 -0.2057  0.2557  0.0741
  393SOL     OW 1569   0.270   2.948   2.857 -0.7412  0.2643  0.6222
  393SOL    HW1 1570   0.341   2.913   2.802 -0.8226 -1.8791 -1.5144
  393SOL    HW2 1571   0.258   3.039   2.825  1.5249  1.9498  0.4271
  393SOL     MW 1572   0.278   2.955   2.846 -0.4530  0.2039  0.3146
  394SOL     OW 1573   0.978   1.707   1.555  0.1858 -0.0557  0.0499
  394SOL    HW1 1574   1.021   1.731   1.640 -1.3249  3.5122 -1.6693
  394SOL    HW2 1575   0.981   1.782   1.500 -0.5829 -0.3039 -0.5109
  394SOL     MW 1576   0.984   1.720   1.559 -0.1149  0.3823 -0.2509
  395SOL     OW 1577   0.967   2.963   2.541 -0.2512  0.2763  0.3155
  395SOL    HW1 1578   0.986   2.985   2.632  0.5520  2.0279 -1.7852
  395SOL    HW2 1579   1.021   2.885   2.532 -1.3616 -2.6329  0.1839
  395SOL     MW 1580   0.976   2.955   2.552 -0.2917  0.1236  0.0210
  396SOL     OW 1581   0.722   1.875   2.436  0.2781 -0.3679 -0.2107
  396SOL    HW1 1582   0.808   1.874   2.483 -0.2534 -3.6571  1.6658
  396SOL    HW2 1583   0.701   1.783   2.434 -1.6483  0.1358  0.9746
  396SOL     MW 1584   0.730   1.863   2.442 -0.0462 -0.7354  0.1933
  397SOL     OW 1585   0.994   2.318   1.428 -0.8138 -0.0976  0.0371
  397SOL    HW1 1586   1.014   2.349   1.335  0.0725 -1.5256 -3.2169
  397SOL    HW2 1587   1.080   2.290   1.469  1.0158 -1.8699 -2.2776
  397SOL     MW 1588   1.008   2.318   1.421 -0.4555 -0.5199 -0.6976
  398SOL     OW 1589   0.597   2.736   0.596 -0.2663  0.1295 -0.0979
  398SOL    HW1 1590   0.527   2.704   0.534 -0.0867  1.4191  0.2709
  398SOL    HW2 1591   0.658   2.663   0.603 -0.6666 -0.6013 -0.5985
  398SOL     MW 1592   0.596   2.722   0.589 -0.2954  0.2032 -0.1153
  399SOL     OW 1593   0.208   2.095   0.321 -0.5246  0.0327 -0.2102
  399SOL    HW1 1594   0.119   2.118   0.324  2.2122  1.0594  0.1887
  399SOL    HW2 1595   0.247   2.107   0.229  1.9306 -0.7591 -0.7252
  399SOL     MW 1596   0.201   2.100   0.309  0.1604  0.0637 -0.2255
  400SOL     OW 1597   0.566   1.949   0.101 -0.1115 -0.9751  0.3427
  400SOL    HW1 1598   0.518   2.030   0.114  1.8507  1.2540 -0.3748
  400SOL    HW2 1599   0.567   1.907   0.184  0.0609 -1.3145 -1.9461
  400SOL     MW 1600   0.560   1.954   0.114  0.1701 -0.7258 -0.0540
  401SOL     OW 1601   0.829   2.086   0.056 -0.1098 -0.6904 -0.6654
  401SOL    HW1 1602   0.883   2.006   0.052  2.2419  0.4036 -2.2605
  401SOL    HW2 1603   0.742   2.050   0.078  1.2378 -0.3942  2.1319
  401SOL     MW 1604   0.824   2.071   0.059  0.3783 -0.5070 -0.5068
  402SOL     OW 1605   0.557   2.978   1.722 -0.0332  0.0207  0.3636
  402SOL    HW1 1606   0.613   2.962   1.796 -3.0224  0.1281  0.6754
  402SOL    HW2 1607   0.603   3.050   1.675  0.6791 -0.0121 -2.1530
  402SOL     MW 1608   0.571   2.985   1.725 -0.3336  0.0306  0.0727
  403SOL     OW 1609   0.103   0.513   0.371 -0.4486  0.4080 -0.1633
  403SOL    HW1 1610   0.193   0.551   0.400  1.9814  2.2401 -0.5867
  403SOL    HW2 1611   0.124   0.461   0.298 -1.5302  1.2919  1.8418
  403SOL     MW 1612   0.117   0.511   0.366 -0.2707  0.7663  0.0454
  404SOL     OW 1613   0.974   2.907   0.768  0.1704  0.0067  0.3071
  404SOL    HW1 1614   1.031   2.844   0.732 -0.7781 -1.2378  1.2538
  404SOL    HW2 1615   1.018   2.989   0.740 -1.9554 -2.5850 -1.9373
  404SOL     MW 1616   0.987   2.910   0.760 -0.2352 -0.4994  0.1359
  405SOL     OW 1617   0.488   2.479   1.520 -0.2268  0.5861  0.1032
  405SOL    HW1 1618   0.494   2.551   1.459 -0.3560 -2.0750  1.2450
  405SOL    HW2 1619   0.497   2.404   1.459 -0.8310 -0.6761 -2.9112
  405SOL     MW 1620   0.490   2.479   1.504 -0.3235  0.0685 -0.1439
  406SOL     OW 1621   0.362   2.389   1.149 -0.1652 -0.1518  0.6762
  406SOL    HW1 1622   0.266   2.392   1.117  0.9138 -0.9228 -1.2420
  406SOL    HW2 1623   0.378   2.301   1.190 -1.0831 -0.3139  0.9710
  406SOL     MW 1624   0.352   2.378   1.150 -0.1439 -0.2749  0.4620
  407SOL     OW 1625   0.078   2.663   1.155  0.1613 -0.2247  0.2311
  407SOL    HW1 1626   0.122   2.675   1.243 -0.3198  1.3881  1.1504
  407SOL    HW2 1627   0.121   2.708   1.083 -1.5229  0.6602 -2.0503
  407SOL     MW 1628   0.089   2.671   1.157 -0.1244  0.1049  0.0514
  408SOL     OW 1629   2.113   2.107   0.709 -0.8783 -0.3863  0.8284
  408SOL    HW1 1630   2.055   2.146   0.768  1.5464  1.4440  0.8811
  408SOL    HW2 1631   2.061   2.048   0.659  1.9291  2.0011  0.9307
  408SOL     MW 1632   2.099   2.105   0.710 -0.1880  0.1702  0.8489
  409SOL     OW 1633   1.523   0.140   0.895  0.4855 -0.1036 -0.1833
  409SOL    HW1 1634   1.590   0.202   0.938  0.3589  0.5700 -0.6187
  409SOL    HW2 1635   1.538   0.060   0.949  1.5422 -2.2404  0.3601
  409SOL     MW 1636   1.534   0.138   0.908  0.6082 -0.2966 -0.1690
  410SOL     OW 1637   1.044   2.447   1.173 -0.2373  0.4688 -0.0056
  410SOL    HW1 1638   0.981   2.513   1.145  1.5890 -0.0377 -0.6699
  410SOL    HW2 1639   1.092   2.431   1.089  0.2649 -0.0980 -1.0855
  410SOL     MW 1640   1.042   2.453   1.159  0.0699  0.3272 -0.2358
  411SOL     OW 1641   1.994   3.041   2.901  0.8794 -0.7149 -0.2604
  411SOL    HW1 1642   1.923   3.005   2.847 -0.6060 -2.1336 -0.0980
  411SOL    HW2 1643   1.959   3.126   2.927 -1.4130 -1.4025  2.2008
  411SOL     MW 1644   1.980   3.047   2.898  0.3810 -0.9928  0.0857
  412SOL     OW 1645   1.064   2.264   0.602 -0.2219  0.6318  0.1427
  412SOL    HW1 1646   1.095   2.345   0.640  1.6413 -2.2185 -0.8091
  412SOL    HW2 1647   0.971   2.272   0.570  0.9683 -0.7088 -0.6686
  412SOL     MW 1648   1.055   2.276   0.603  0.1810  0.0788 -0.0899
  413SOL     OW 1649   0.585   2.766   0.057  0.2602  0.5474  0.2096
  413SOL    HW1 1650   0.641   2.680   0.059 -0.6706 -2.8569  1.1631
  413SOL    HW2 1651   0.594   2.801  -0.033  0.2623 -3.1374  1.4421
  413SOL     MW 1652   0.594   2.759   0.045  0.1377 -0.3879  0.4980
  414SOL     OW 1653   2.038   3.012   1.170 -0.4679  0.9360 -0.1401
  414SOL    HW1 1654   2.059   3.108   1.176 -1.7420  0.0050  3.0767
  414SOL    HW2 1655   1.983   3.013   1.091  1.1199  0.4202 -0.2278
  414SOL     MW 1656   2.034   3.025   1.160 -0.4266  0.7451  0.2727
  415SOL     OW 1657   1.650   2.805   1.078 -0.4523 -0.1620  0.1093
  415SOL    HW1 1658   1.610   2.767   1.157 -0.8177 -0.4814 -0.7130
  415SOL    HW2 1659   1.740   2.771   1.073 -1.4176 -3.3516  0.9211
  415SOL     MW 1660   1.656   2.795   1.088 -0.6278 -0.6250  0.1079
  416SOL     OW 1661   0.578   1.796   1.447  0.3568 -0.5999  0.5737
  416SOL    HW1 1662   0.489   1.764   1.423 -1.9095 -0.5791 -3.1611
  416SOL    HW2 1663   0.637   1.726   1.428  2.3035  0.0188  1.8320
  416SOL     MW 1664   0.574   1.783   1.441  0.3146 -0.5155  0.2469
  417SOL     OW 1665   0.986   3.029   2.044 -0.3057 -0.0815  0.1009
  417SOL    HW1 1666   0.920   3.028   2.112  0.5051 -1.0137  1.1429
  417SOL    HW2 1667   0.944   2.988   1.959  2.9586  1.4916  0.2776
  417SOL     MW 1668   0.972   3.023   2.042  0.2320  0.0030  0.2617
  418SOL     OW 1669   0.741   2.959   0.173  0.0001 -0.2349 -0.0111
  418SOL    HW1 1670   0.779   2.966   0.085 -0.5360  4.0332 -0.4502
  418SOL    HW2 1671   0.695   2.876   0.161 -1.6711  0.0015  0.3985
  418SOL     MW 1672   0.740   2.949   0.160 -0.2911  0.3594 -0.0150
  419SOL     OW 1673   0.532   2.677   1.354  0.4684 -0.0031 -0.3830
  419SOL    HW1 1674   0.555   2.767   1.369  1.8651 -1.4164  0.5486
  419SOL    HW2 1675   0.621   2.634   1.348  2.6534  0.3657  2.9656
  419SOL     MW 1676   0.547   2.683   1.355  0.9410 -0.1409  0.1817
  420SOL     OW 1677   0.760   2.236   1.074 -0.0869  0.6928 -0.5803
  420SOL    HW1 1678   0.714   2.249   1.158 -0.2270  0.0494 -0.3359
  420SOL    HW2 1679   0.786   2.329   1.047  0.6866  0.6013  0.0815
  420SOL     MW 1680   0.757   2.250   1.082 -0.0033  0.5958 -0.4607
  421SOL     OW 1681   2.937   0.154   3.086  0.0004 -0.0243 -0.1864
  421SOL    HW1 1682   2.872   0.092   3.046 -1.6839 -1.6537  0.9427
  421SOL    HW2 1683   2.999   0.090   3.119 -0.6059 -2.1570 -3.8197
  421SOL     MW 1684   2.936   0.137   3.085 -0.3018 -0.5207 -0.5168
  422SOL     OW 1685   0.822   2.492   0.961  0.0167 -0.2551  0.4748
  422SOL    HW1 1686   0.746   2.534   1.007  1.0378 -0.6935  0.7155
  422SOL    HW2 1687   0.799   2.484   0.867 -0.8535  2.0307 -0.0614
  422SOL     MW 1688   0.809   2.496   0.954  0.0366 -0.0113  0.4358
  423SOL     OW 1689   1.470   0.062   0.451 -0.1565 -0.1134  0.4501
  423SOL    HW1 1690   1.486   0.036   0.364 -4.3032 -0.7778 -1.4777
  423SOL    HW2 1691   1.486   0.158   0.456 -3.7184  0.4399 -0.1945
  423SOL     MW 1692   1.474   0.071   0.440 -1.1735 -0.1281  0.1107
  424SOL     OW 1693   0.652   2.302   1.330 -0.0509  0.0125  0.6137
  424SOL    HW1 1694   0.587   2.246   1.282  1.8468 -3.3990 -0.0312
  424SOL    HW2 1695   0.684   2.242   1.400 -3.2475 -1.8512  0.2732
  424SOL     MW 1696   0.648   2.287   1.333 -0.2223 -0.6835  0.4837
  425SOL     OW 1697   1.699   2.771   2.061 -0.5989  0.1782  0.3853
  425SOL    HW1 1698   1.741   2.762   1.975  1.5111  1.0323  0.1771
  425SOL    HW2 1699   1.731   2.686   2.104  0.2645  1.1105 -1.1528
  425SOL     MW 1700   1.709   2.758   2.055 -0.2066  0.4139  0.1549
  426SOL     OW 1701   0.859   1.752   1.994  0.5449  0.1432 -0.0780
  426SOL    HW1 1702   0.794   1.750   1.924 -0.3092  1.7397 -2.3969
  426SOL    HW2 1703   0.830   1.794   2.079  1.0271 -1.1495  0.6584
  426SOL     MW 1704   0.846   1.757   1.996  0.4958  0.1833 -0.2868
  427SOL     OW 1705   0.357   1.701   1.874 -0.4601  0.3259  0.1137
  427SOL    HW1 1706   0.403   1.643   1.809 -1.4834 -1.3440 -2.8167
  427SOL    HW2 1707   0.303   1.640   1.934 -0.6109  1.8341 -0.4476
  427SOL     MW 1708   0.356   1.685   1.873 -0.6150  0.3046 -0.3470
  428SOL     OW 1709   0.555   2.582   1.101  0.2192  0.1770  0.0181
  428SOL    HW1 1710   0.514   2.496   1.100  0.7136 -1.5484 -0.5429
  428SOL    HW2 1711   0.522   2.628   1.188 -0.5987 -1.1595  2.6548
  428SOL     MW 1712   0.545   2.577   1.112  0.1765 -0.2270  0.2920
  429SOL     OW 1713   1.215   2.752   1.147 -0.2840 -0.2515  0.0785
  429SOL    HW1 1714   1.128   2.734   1.179 -1.3646 -2.6028 -0.5598
  429SOL    HW2 1715   1.218   2.839   1.110 -1.4696 -1.2955 -0.1758
  429SOL     MW 1716   1.204   2.761   1.146 -0.5830 -0.6995 -0.0393
  430SOL     OW 1717   1.174   2.711   0.709  0.3254 -0.0206  0.1209
  430SOL    HW1 1718   1.167   2.630   0.758 -0.4527 -0.0242  2.2402
  430SOL    HW2 1719   1.123   2.704   0.620  0.2137  0.2904  0.5899
  430SOL     MW 1720   1.166   2.699   0.704  0.2080  0.0200  0.4624
  431SOL     OW 1721   0.307   1.944   1.137 -0.5668 -0.3722  0.6279
  431SOL    HW1 1722   0.371   1.874   1.103 -0.0777 -0.5820 -0.3368
  431SOL    HW2 1723   0.273   1.982   1.052  2.1376 -1.3329 -0.7803
  431SOL     MW 1724   0.311   1.940   1.122 -0.1454 -0.5266  0.3149
  432SOL     OW 1725   0.041   0.025   1.116 -0.0250  0.4222 -0.0919
  432SOL    HW1 1726   0.031   0.070   1.201  0.8992 -2.1907 -0.4602
  432SOL    HW2 1727   0.004  -0.064   1.130 -0.0777 -0.1822  0.2196
  432SOL     MW 1728   0.034   0.019   1.129  0.0899 -0.0023 -0.0994
  433SOL     OW 1729   0.669   2.894   1.477 -0.2536  0.3810 -0.4062
  433SOL    HW1 1730   0.638   2.910   1.573 -2.3258 -0.5424  0.2274
  433SOL    HW2 1731   0.770   2.897   1.480  3.1954 -2.7211 -0.3669
  433SOL     MW 1732   0.678   2.897   1.490 -0.0719 -0.1501 -0.3174
  434SOL     OW 1733   1.560   2.793   1.570  0.0722  0.3941  1.0009
  434SOL    HW1 1734   1.466   2.795   1.576 -0.6558 -0.2777 -0.0044
  434SOL    HW2 1735   1.571   2.772   1.476  0.1710  0.4180  1.0032
  434SOL     MW 1736   1.549   2.790   1.558 -0.0108  0.3086  0.8686
  435SOL     OW 1737   2.758   1.765   0.209  0.1076  0.1664  0.1897
  435SOL    HW1 1738   2.826   1.831   0.174 -2.5672 -1.1063 -0.7784
  435SOL    HW2 1739   2.678   1.798   0.176  0.4898 -1.4091  3.7392
  435SOL     MW 1740   2.756   1.778   0.200 -0.1949 -0.2094  0.5303
  436SOL     OW 1741   1.413   2.705   0.359 -0.3662  0.1360 -0.2679
  436SOL    HW1 1742   1.416   2.674   0.453  1.9200 -0.9209 -0.4953
  436SOL    HW2 1743   1.359   2.788   0.369 -0.4973 -0.3911 -0.9096
  436SOL     MW 1744   1.406   2.712   0.373 -0.0818 -0.0730 -0.3826
  437SOL     OW 1745   1.061   2.964   1.324  0.3951  0.3130 -0.0258
  437SOL    HW1 1746   1.072   3.017   1.242 -0.5140  0.4893  1.6886
  437SOL    HW2 1747   1.021   2.880   1.306  2.1838  1.1325  1.0585
  437SOL     MW 1748   1.057   2.960   1.311  0.5112  0.4444  0.3435
  438SOL     OW 1749   0.867   2.721   1.916  0.5316  0.7881  0.1137
  438SOL    HW1 1750   0.871   2.642   1.975 -2.4512 -2.4382 -0.1274
  438SOL    HW2 1751   0.820   2.683   1.841  2.8812  1.6861  1.1067
  438SOL     MW 1752   0.861   2.705   1.914  0.4481  0.4809  0.2129
  439SOL     OW 1753   1.154   2.093   0.430  0.1782 -0.3907  0.0690
  439SOL    HW1 1754   1.127   2.160   0.495 -1.6731 -0.4136 -0.9436
  439SOL    HW2 1755   1.162   2.153   0.351 -1.4939  0.6133  2.0256
  439SOL     MW 1756   1.152   2.110   0.428 -0.2867 -0.2612  0.1935
  440SOL     OW 1757   1.745   2.952   3.073  0.7806 -0.0324  0.1780
  440SOL    HW1 1758   1.686   2.948   3.148  1.7464 -1.1764  0.8103
  440SOL    HW2 1759   1.831   2.933   3.115  3.7420  1.3143 -0.5079
  440SOL     MW 1760   1.749   2.949   3.088  1.2988 -0.0057  0.1709
  441SOL     OW 1761   0.362   2.651   0.505 -0.2024  0.3584 -0.3691
  441SOL    HW1 1762   0.315   2.597   0.434 -1.9418 -1.6491 -1.2481
  441SOL    HW2 1763   0.366   2.740   0.462 -1.4493 -0.9398 -0.4157
  441SOL     MW 1764   0.356   2.655   0.490 -0.5964 -0.0778 -0.4912
  442SOL     OW 1765   3.088   2.328   0.596  0.0804 -1.0115 -0.0319
  442SOL    HW1 1766   3.074   2.418   0.555 -0.4676  2.2791  0.5106
  442SOL    HW2 1767   3.007   2.295   0.628  2.3241 -1.2273 -0.6284
  442SOL     MW 1768   3.076   2.336   0.594  0.3041 -0.6058 -0.0390
  443SOL     OW 1769   1.500   1.756   1.901 -0.6656  0.4499 -0.8961
  443SOL    HW1 1770   1.445   1.801   1.831 -0.2232  0.8397 -2.2452
  443SOL    HW2 1771   1.444   1.687   1.939  2.0124 -3.3176  0.0459
  443SOL     MW 1772   1.485   1.753   1.897 -0.2539  0.0042 -0.9498
  444SOL     OW 1773   0.939   2.607   1.593  0.3123  0.2978  0.3427
  444SOL    HW1 1774   1.010   2.551   1.627 -0.6169 -2.3698  1.6795
  444SOL    HW2 1775   0.855   2.577   1.635  0.5864 -1.2383  2.0211
  444SOL     MW 1776   0.938   2.595   1.603  0.2258 -0.2568  0.7405
  445SOL     OW 1777   1.206   0.153   1.421  0.2006 -0.1405  0.4442
  445SOL    HW1 1778   1.176   0.222   1.484  1.0140  0.0241  1.2374
  445SOL    HW2 1779   1.202   0.185   1.330  0.5400 -1.9882 -0.2491
  445SOL     MW 1780   1.202   0.167   1.418  0.3527 -0.3626  0.4574
  446SOL     OW 1781   2.800   2.855   1.032 -0.3745  0.0459  0.0206
  446SOL    HW1 1782   2.729   2.897   0.977  0.3697 -0.2087  0.1908
  446SOL    HW2 1783   2.833   2.790   0.969  1.6030  1.4261  1.7039
  446SOL     MW 1784   2.795   2.852   1.017 -0.0154  0.1944  0.2652
  447SOL     OW 1785   0.013   1.976   1.599 -0.1737 -0.2712 -0.7261
  447SOL    HW1 1786   0.031   1.914   1.666  0.1186  0.0751 -1.5288
  447SOL    HW2 1787  -0.065   1.931   1.552  0.3536  0.3053 -0.5522
  447SOL     MW 1788   0.005   1.962   1.601 -0.0656 -0.1494 -0.8090
  448SOL     OW 1789   1.782   2.445   1.672  0.3286 -0.0030  0.2404
  448SOL    HW1 1790   1.728   2.360   1.665 -1.0044  0.6292 -1.0180
  448SOL    HW2 1791   1.710   2.504   1.689  0.9723  1.5040 -0.3923
  448SOL     MW 1792   1.765   2.441   1.674  0.2376  0.2792 -0.0091
  449SOL     OW 1793   0.902   2.948   0.373 -0.1738  0.7667 -0.1228
  449SOL    HW1 1794   0.839   2.933   0.302  0.4451  0.7348  1.4220
  449SOL    HW2 1795   0.846   2.977   0.445  1.9750 -0.7290 -1.6696
  449SOL     MW 1796   0.886   2.950   0.373  0.1914  0.5652 -0.1231
  450SOL     OW 1797   1.185   2.447   0.769 -0.2344  0.4584  0.1231
  450SOL    HW1 1798   1.197   2.416   0.858  2.1314  0.9941 -0.3948
  450SOL    HW2 1799   1.266   2.427   0.721 -0.0360  2.0605 -0.5234
  450SOL     MW 1800   1.197   2.440   0.775  0.1039  0.7405 -0.0305
  451SOL     OW 1801   0.584   2.001   1.707 -0.6820  0.0297  0.3027
  451SOL    HW1 1802   0.630   2.084   1.678 -1.0199 -1.3150 -2.5885
  451SOL    HW2 1803   0.529   1.968   1.633 -1.1151  0.9530  1.5485
  451SOL     MW 1804   0.583   2.007   1.693 -0.7837 -0.0259  0.0856
  452SOL     OW 1805   0.352   2.634   0.050  0.7187  0.0518  0.3529
  452SOL    HW1 1806   0.441   2.687   0.064 -0.4556  0.8150 -1.9243
  452SOL    HW2 1807   0.282   2.700   0.021 -0.5645  3.2373 -0.1740
  452SOL     MW 1808   0.354   2.650   0.048  0.3945  0.5728 -0.0171
  453SOL     OW 1809   0.314   3.080   1.596 -0.6176  0.3911 -0.6484
  453SOL    HW1 1810   0.386   3.027   1.621 -1.6615 -1.6262  1.1185
  453SOL    HW2 1811   0.346   3.107   1.505  1.4881  1.7406 -2.2421
  453SOL     MW 1812   0.327   3.077   1.587 -0.4775  0.3030 -0.6256
  454SOL     OW 1813   0.933   2.744   1.210  0.1664  0.2045  0.5337
  454SOL    HW1 1814   0.876   2.688   1.259  0.8092 -2.2241  3.0207
  454SOL    HW2 1815   0.898   2.761   1.120 -0.7697  2.9873  0.6063
  454SOL     MW 1816   0.921   2.739   1.205  0.1277  0.2512  0.8714
  455SOL     OW 1817   1.659   2.886   0.257 -0.0953  0.0003 -0.3935
  455SOL    HW1 1818   1.707   2.852   0.332  2.5584  2.5655  1.7180
  455SOL    HW2 1819   1.618   2.817   0.207 -2.7501  1.0864  0.8041
  455SOL     MW 1820   1.660   2.872   0.260 -0.0954  0.4821  0.0431
  456SOL     OW 1821   2.732   0.294   1.511  0.4433 -0.0459 -0.7070
  456SOL    HW1 1822   2.716   0.222   1.453 -1.2543 -0.2886  1.0501
  456SOL    HW2 1823   2.807   0.327   1.468 -0.1354 -3.6660 -1.1070
  456SOL     MW 1824   2.740   0.289   1.497  0.1429 -0.5555 -0.5280
  457SOL     OW 1825   0.790   1.626   3.038  0.1903  1.0662  0.3159
  457SOL    HW1 1826   0.697   1.600   3.023  2.2130  0.4341 -2.8579
  457SOL    HW2 1827   0.816   1.660   3.129 -2.0352 -1.2624  0.8895
  457SOL     MW 1828   0.781   1.627   3.048  0.1635  0.6756 -0.0271
  458SOL     OW 1829   1.369   1.467   0.677  0.7069  0.5059 -0.2538
  458SOL    HW1 1830   1.326   1.537   0.622  0.4969  4.1993 -1.1175
  458SOL    HW2 1831   1.341   1.385   0.640  2.5362  0.7145  0.8672
  458SOL     MW 1832   1.359   1.465   0.665  0.9206  1.0207 -0.2199
  459SOL     OW 1833   1.548   0.035   0.202  0.4145 -0.4830  0.1376
  459SOL    HW1 1834   1.562  -0.057   0.223  0.5163 -0.2425  2.3068
  459SOL    HW2 1835   1.503   0.049   0.114  1.5894 -2.1867  0.3885
  459SOL     MW 1836   1.544   0.025   0.193  0.5829 -0.6760  0.4569
  460SOL     OW 1837   1.793   2.183   0.677 -0.5807  0.1992  0.4885
  460SOL    HW1 1838   1.697   2.181   0.702  0.5793 -1.4037  1.9264
  460SOL    HW2 1839   1.817   2.103   0.631 -0.9999  0.9949 -0.2021
  460SOL     MW 1840   1.783   2.172   0.674 -0.4830  0.0927  0.5871
  461SOL     OW 1841   0.469   2.420   0.614  0.0826 -0.7112 -0.1839
  461SOL    HW1 1842   0.457   2.499   0.568  1.3805 -1.7505 -0.2454
  461SOL    HW2 1843   0.432   2.429   0.702 -0.8829 -1.8611 -2.2979
  461SOL     MW 1844   0.463   2.431   0.619  0.1265 -1.0001 -0.4709
  462SOL     OW 1845   0.334   0.232   1.290 -0.1097 -0.1386  0.4800
  462SOL    HW1 1846   0.390   0.212   1.211 -2.9990 -1.7458 -0.1055
  462SOL    HW2 1847   0.401   0.269   1.353 -2.0875 -0.6311 -0.3479
  462SOL     MW 1848   0.350   0.234   1.288 -0.7519 -0.4157  0.2935
  463SOL     OW 1849   1.028   0.065   0.715  0.5669 -0.0359  0.3144
  463SOL    HW1 1850   1.068   0.057   0.631 -1.1791  2.3453  1.5678
  463SOL    HW2 1851   0.934   0.096   0.696  3.4813 -0.7397 -0.7872
  463SOL     MW 1852   1.021   0.068   0.701  0.7210  0.1854  0.3344
  464SOL     OW 1853   0.787   3.040   2.236 -0.0605  0.3064  0.2469
  464SOL    HW1 1854   0.774   2.946   2.254 -1.5403  0.9987  0.3488
  464SOL    HW2 1855   0.804   3.082   2.317 -0.7326 -1.0564  2.6074
  464SOL     MW 1856   0.788   3.033   2.249 -0.3444  0.2179  0.5718
  465SOL     OW 1857   0.868   0.323   0.409  0.2375  0.3121  0.0383
  465SOL    HW1 1858   0.823   0.270   0.473  0.4177  1.6509 -0.2331
  465SOL    HW2 1859   0.836   0.305   0.314 -1.1433  3.7281 -3.2323
  465SOL     MW 1860   0.858   0.314   0.405  0.0791  0.9395 -0.4291
  466SOL     OW 1861   1.037   2.050   0.760  0.6916  0.0088 -0.8365
  466SOL    HW1 1862   1.053   1.977   0.703 -1.1192 -0.7125  0.0353
  466SOL    HW2 1863   1.032   2.136   0.701 -0.4751  0.3412 -0.2812
  466SOL     MW 1864   1.039   2.052   0.745  0.2987 -0.0425 -0.6482
  467SOL     OW 1865   1.258   2.358   1.005  0.1797  0.0105  0.1048
  467SOL    HW1 1866   1.353   2.368   1.007  0.1406 -0.7100 -0.8873
  467SOL    HW2 1867   1.248   2.265   0.977  1.4981 -1.2810 -0.6745
  467SOL     MW 1868   1.269   2.347   1.002  0.3485 -0.2549 -0.1289
  468SOL     OW 1869   0.456   2.676   1.885 -0.3017  0.0209 -0.7643
  468SOL    HW1 1870   0.437   2.585   1.854 -2.4802  1.2805  0.1486
  468SOL    HW2 1871   0.380   2.731   1.863 -3.7361  0.1329  1.4809
  468SOL     MW 1872   0.444   2.671   1.878 -1.0422  0.2019 -0.3476
  469SOL     OW 1873   0.393   2.148   1.869  0.0829  0.4977  0.2136
  469SOL    HW1 1874   0.305   2.103   1.879  0.1239 -1.2554  3.2583
  469SOL    HW2 1875   0.442   2.091   1.810 -0.3693  1.3523  1.4256
  469SOL     MW 1876   0.388   2.134   1.863  0.0287  0.3792  0.7752
  470SOL     OW 1877   3.090   2.584   0.155 -0.2780  0.2948 -0.3856
  470SOL    HW1 1878   3.001   2.583   0.201 -0.9170 -0.2142 -0.9879
  470SOL    HW2 1879   3.073   2.611   0.065  1.2166  2.5828 -3.2452
  470SOL     MW 1880   3.076   2.587   0.149 -0.1651  0.5295 -0.8424
  471SOL     OW 1881   1.184   2.549   1.386 -0.0140 -0.5662  0.3744
  471SOL    HW1 1882   1.113   2.518   1.446 -1.2900  1.3427  1.2452
  471SOL    HW2 1883   1.158   2.537   1.293 -2.7262 -1.0559 -1.6159
  471SOL     MW 1884   1.171   2.544   1.381 -0.5402 -0.3789  0.2267
  472SOL     OW 1885   2.790   2.081   0.363 -0.0405  0.1335  0.3644
  472SOL    HW1 1886   2.815   2.046   0.277  0.0206 -0.8700 -1.4197
  472SOL    HW2 1887   2.767   2.009   0.426  0.3081  1.4327  0.8403
  472SOL     MW 1888   2.790   2.067   0.360  0.0136  0.1725  0.1918
  473SOL     OW 1889   0.776   2.541   1.353 -0.4087  0.4492  0.1672
  473SOL    HW1 1890   0.749   2.448   1.347 -2.8936 -0.2294  1.7400
  473SOL    HW2 1891   0.828   2.551   1.430 -0.3572  2.3053  2.0255
  473SOL     MW 1892   0.779   2.530   1.362 -0.7297  0.6045  0.6199
  474SOL     OW 1893   0.725   2.284   1.754 -0.4941  0.3413 -0.6370
  474SOL    HW1 1894   0.797   2.311   1.810 -0.1702  0.1922  0.9752
  474SOL    HW2 1895   0.761   2.266   1.662  0.9740  0.0326 -0.4205
  474SOL     MW 1896   0.739   2.285   1.749 -0.2576  0.2809 -0.3957
  475SOL     OW 1897   1.623   3.093   1.454 -0.4102  0.3519  0.6788
  475SOL    HW1 1898   1.554   3.074   1.390 -0.3121 -0.9003 -1.8797
  475SOL    HW2 1899   1.629   3.014   1.505  0.5254  3.1630  3.4837
  475SOL     MW 1900   1.615   3.080   1.452 -0.2738  0.5576  0.7113
  476SOL     OW 1901   1.417   2.616   1.069  0.1742 -0.0764  0.6404
  476SOL    HW1 1902   1.325   2.643   1.089 -0.7339 -1.6074  0.0269
  476SOL    HW2 1903   1.447   2.674   0.998  3.3632 -0.6857 -0.5537
  476SOL     MW 1904   1.409   2.627   1.063  0.4751 -0.3588  0.4019
  477SOL     OW 1905   0.786   2.545   0.644  0.7748  0.7872 -0.0170
  477SOL    HW1 1906   0.842   2.600   0.593  0.8572  1.3455  0.5637
  477SOL    HW2 1907   0.789   2.467   0.584  1.5406  2.4537 -0.0513
  477SOL     MW 1908   0.794   2.542   0.629  0.8867  1.0808  0.0551
  478SOL     OW 1909   0.139   2.684   0.889 -0.0942 -0.0247  0.4342
  478SOL    HW1 1910   0.182   2.769   0.884 -3.1471  0.7589  0.2706
  478SOL    HW2 1911   0.210   2.631   0.859 -2.4339 -0.1518 -2.7039
  478SOL     MW 1912   0.154   2.688   0.885 -0.8057  0.0619 -0.0014
  479SOL     OW 1913   1.457   1.996   1.278 -0.2240  0.7045  0.2453
  479SOL    HW1 1914   1.450   2.025   1.373 -2.5198  0.8538  2.5177
  479SOL    HW2 1915   1.465   1.899   1.286 -0.8910 -1.9037 -0.6574
  479SOL     MW 1916   1.457   1.987   1.292 -0.6149  0.3801  0.4260
  480SOL     OW 1917   1.976   2.443   1.281  0.8141  0.0159  0.1600
  480SOL    HW1 1918   1.936   2.360   1.300  0.7963  0.6029 -0.2338
  480SOL    HW2 1919   2.006   2.441   1.189  0.3975  1.1817 -1.8350
  480SOL     MW 1920   1.975   2.432   1.271  0.7568  0.2472 -0.1552
  481SOL     OW 1921   1.057   0.014   1.093  0.2154  0.8466 -0.2022
  481SOL    HW1 1922   1.121  -0.030   1.032 -0.0639 -1.2787 -0.5124
  481SOL    HW2 1923   1.076   0.108   1.080 -0.6374  2.0995  1.0682
  481SOL     MW 1924   1.068   0.020   1.083  0.0660  0.7315 -0.0755
  482SOL     OW 1925   1.081   3.093   0.252  0.2970 -0.1724  0.6553
  482SOL    HW1 1926   1.005   3.039   0.283 -1.2461 -1.5635  0.0686
  482SOL    HW2 1927   1.090   3.168   0.309  1.1597 -3.2319 -0.4481
  482SOL     MW 1928   1.073   3.096   0.264  0.2072 -0.7596  0.4323
  483SOL     OW 1929   0.420   2.912   0.413  0.3720  0.1787 -0.3354
  483SOL    HW1 1930   0.344   2.934   0.352 -0.3108  0.5132 -2.6497
  483SOL    HW2 1931   0.400   2.962   0.494  2.3489  1.0423 -0.4772
  483SOL     MW 1932   0.407   2.921   0.416  0.5428  0.3368 -0.6595
  484SOL     OW 1933   1.901   1.927   1.482  0.1071  1.1431  0.1197
  484SOL    HW1 1934   1.923   1.988   1.415  1.2304 -2.1441 -1.1233
  484SOL    HW2 1935   1.846   1.973   1.541 -1.1832  0.6612 -3.1702
  484SOL     MW 1936   1.896   1.941   1.481  0.0850  0.6458 -0.4784
  485SOL     OW 1937   0.536   2.324   0.238  0.8139 -0.5010  0.6031
  485SOL    HW1 1938   0.530   2.266   0.312  0.8005 -2.1379  2.8044
  485SOL    HW2 1939   0.471   2.396   0.260  0.0722  1.4773  0.0978
  485SOL     MW 1940   0.527   2.326   0.251  0.7143 -0.4560  0.8269
  486SOL     OW 1941   0.158   2.337   1.482 -0.3643 -0.0364 -0.2617
  486SOL    HW1 1942   0.174   2.430   1.467  0.5842  0.8821 -0.8888
  486SOL    HW2 1943   0.096   2.329   1.552 -0.0422  0.4437 -0.8909
  486SOL     MW 1944   0.152   2.349   1.489 -0.1966  0.1481 -0.4275
  487SOL     OW 1945   1.217   1.666   1.068  0.4013  0.1873 -0.1124
  487SOL    HW1 1946   1.212   1.754   1.113 -0.8889 -3.1257 -0.3214
  487SOL    HW2 1947   1.297   1.687   1.016  0.6208 -0.5660 -1.2146
  487SOL     MW 1948   1.227   1.680   1.067  0.2600 -0.3492 -0.2854
  488SOL     OW 1949   1.620   1.878   0.522 -0.1477 -0.2834  0.3379
  488SOL    HW1 1950   1.693   1.862   0.456 -0.0594 -2.7074  1.1392
  488SOL    HW2 1951   1.565   1.957   0.513 -0.1434 -0.5339 -0.1293
  488SOL     MW 1952   1.622   1.886   0.512 -0.1354 -0.6363  0.3820
  489SOL     OW 1953   0.758   0.771   0.558  0.5775 -0.3455  0.9180
  489SOL    HW1 1954   0.805   0.699   0.512  3.3031  0.3664  0.4517
  489SOL    HW2 1955   0.752   0.747   0.654  0.0132  0.9211  0.2019
  489SOL     MW 1956   0.764   0.759   0.564  0.8627 -0.0845  0.7620
  490SOL     OW 1957   1.428   2.078   0.477  0.4139 -0.4258 -0.0415
  490SOL    HW1 1958   1.460   2.146   0.416  0.5717  0.1397  4.2143
  490SOL    HW2 1959   1.339   2.103   0.501 -0.0092  1.7803  1.3104
  490SOL     MW 1960   1.420   2.090   0.472  0.3789 -0.0601  0.6984
  491SOL     OW 1961   1.276   2.940   0.389 -0.3835 -0.5009  0.2055
  491SOL    HW1 1962   1.337   3.003   0.428 -0.0510  2.4633  0.7214
  491SOL    HW2 1963   1.203   2.993   0.355  0.4513  0.4403  0.4684
  491SOL     MW 1964   1.275   2.955   0.390 -0.2295  0.0144  0.3083
  492SOL     OW 1965   1.510   2.146   0.716  0.3533  0.4323 -0.0668
  492SOL    HW1 1966   1.476   2.113   0.631 -0.8597  3.2208 -0.2937
  492SOL    HW2 1967   1.441   2.135   0.778  2.0826 -2.2298 -2.9053
  492SOL     MW 1968   1.496   2.140   0.713  0.4214  0.4490 -0.4712
  493SOL     OW 1969   0.185   3.015   0.303  0.1635  0.3893  0.4142
  493SOL    HW1 1970   0.158   3.070   0.377 -0.6980  0.4802 -0.8131
  493SOL    HW2 1971   0.219   3.084   0.242 -1.4237 -0.5366  1.8355
  493SOL     MW 1972   0.186   3.032   0.305 -0.1596  0.2791  0.4398
  494SOL     OW 1973   0.403   2.408   1.781  0.4355 -0.4024  0.2179
  494SOL    HW1 1974   0.422   2.318   1.809  0.3985 -0.2431 -1.9686
  494SOL    HW2 1975   0.434   2.412   1.688  1.4169 -0.0282  1.8205
  494SOL     MW 1976   0.410   2.396   1.773  0.5601 -0.3320  0.1408
  495SOL     OW 1977   2.901   1.641   2.625  0.2425 -0.1648  0.1068
  495SOL    HW1 1978   2.885   1.727   2.589 -0.1627  2.0948  1.5628
  495SOL    HW2 1979   2.877   1.643   2.719 -2.3705  1.0096 -0.5308
  495SOL     MW 1980   2.896   1.653   2.633 -0.1557  0.2883  0.2148
  496SOL     OW 1981   2.911   2.381   2.688 -0.0705  0.0240  0.1897
  496SOL    HW1 1982   2.956   2.316   2.752 -1.3189 -2.1493  3.4004
  496SOL    HW2 1983   2.974   2.452   2.680 -1.5532  0.1810  1.5795
  496SOL     MW 1984   2.925   2.382   2.695 -0.4308 -0.2420  0.7967
  497SOL     OW 1985   1.631   2.223   2.606  0.1917 -0.4077 -0.2513
  497SOL    HW1 1986   1.569   2.199   2.536  2.2464 -1.5393 -1.2186
  497SOL    HW2 1987   1.618   2.171   2.681 -0.5670  1.1011 -0.6198
  497SOL     MW 1988   1.621   2.213   2.607  0.3627 -0.3579 -0.4276
  498SOL     OW 1989   1.440   2.705   2.320  0.0631  0.2927 -0.4071
  498SOL    HW1 1990   1.424   2.605   2.304 -0.4913 -0.9585 -2.2600
  498SOL    HW2 1991   1.533   2.710   2.348 -0.5268 -2.6492  2.0859
  498SOL     MW 1992   1.450   2.693   2.322 -0.0878 -0.2605 -0.3226
  499SOL     OW 1993   0.995   0.146   3.092 -0.2177  0.3148 -0.6171
  499SOL    HW1 1994   0.926   0.172   3.163  0.4162 -0.0366  0.6680
  499SOL    HW2 1995   1.038   0.063   3.131  2.7048  1.0451 -0.0532
  499SOL     MW 1996   0.992   0.139   3.106  0.2515  0.3648 -0.3731
  500SOL     OW 1997   1.067   2.553   2.799  0.5523 -0.1641 -0.1177
  500SOL    HW1 1998   1.106   2.510   2.879  1.6199 -1.4514 -0.4351
  500SOL    HW2 1999   0.973   2.553   2.822  0.5240 -2.6581 -0.5393
  500SOL     MW 2000   1.060   2.548   2.812  0.6895 -0.6630 -0.2152
  501SOL     OW 2001   1.823   2.211   3.059  0.0679  0.4434 -0.1793
  501SOL    HW1 2002   1.784   2.290   3.108 -1.1235 -0.2140 -0.7874
  501SOL    HW2 2003   1.914   2.221   3.082 -0.2629  1.1703  3.3030
  501SOL     MW 2004   1.830   2.222   3.069 -0.1329  0.4526  0.1999
  502SOL     OW 2005   0.158   2.811   3.060  0.1407  0.2414  0.0084
  502SOL    HW1 2006   0.086   2.759   3.030  0.5159  0.5992 -0.0600
  502SOL    HW2 2007   0.218   2.850   2.993 -0.7147  2.2995  1.0847
  502SOL     MW 2008   0.157   2.809   3.047  0.0773  0.5601  0.1414
  503SOL     OW 2009   1.086   2.776   2.154 -0.5073  0.0366  0.3915
  503SOL    HW1 2010   1.024   2.716   2.113 -3.9174  1.0750 -2.3971
  503SOL    HW2 2011   1.056   2.863   2.138 -2.8287 -1.0041  1.5965
  503SOL     MW 2012   1.074   2.779   2.147 -1.2635  0.0363  0.1826
  504SOL     OW 2013   0.092   2.691   2.128 -0.4716 -0.3954 -0.6659
  504SOL    HW1 2014   0.136   2.630   2.072  0.5614 -0.4507 -1.0420
  504SOL    HW2 2015   0.052   2.642   2.202  0.4610 -2.1865  2.8708
  504SOL     MW 2016   0.093   2.677   2.130 -0.2122 -0.6390 -0.2489
  505SOL     OW 2017   1.688   2.684   2.725 -0.0116 -0.0910 -0.4119
  505SOL    HW1 2018   1.677   2.674   2.625  2.1833 -1.7424 -2.3184
  505SOL    HW2 2019   1.657   2.773   2.743  1.6199  1.3366 -0.2440
  505SOL     MW 2020   1.682   2.694   2.714  0.4932 -0.1205 -0.6413
  506SOL     OW 2021   1.581   3.058   2.834 -0.0681 -0.4600  0.3262
  506SOL    HW1 2022   1.614   3.047   2.924  0.0585  0.1885 -0.2649
  506SOL    HW2 2023   1.658   3.038   2.779 -0.6829 -1.0590 -3.0074
  506SOL     MW 2024   1.596   3.054   2.839 -0.1325 -0.4534 -0.1917
  507SOL     OW 2025   0.883   2.771   2.855 -0.7721 -0.4144 -0.0882
  507SOL    HW1 2026   0.915   2.861   2.816  0.3720 -3.0223 -0.6112
  507SOL    HW2 2027   0.787   2.767   2.855 -1.4641  0.7504  1.7180
  507SOL     MW 2028   0.874   2.783   2.850 -0.7125 -0.6048  0.0811
  508SOL     OW 2029   1.141   2.078   2.525 -0.2086  0.0873 -0.0293
  508SOL    HW1 2030   1.229   2.053   2.561 -2.2120 -1.5914  1.8227
  508SOL    HW2 2031   1.112   2.160   2.571 -1.0035 -2.1975 -0.5965
  508SOL     MW 2032   1.149   2.085   2.536 -0.5778 -0.4356  0.1402
  509SOL     OW 2033   0.597   2.544   2.801  0.3550 -0.4889  0.9140
  509SOL    HW1 2034   0.582   2.515   2.715 -0.5097 -0.1219  0.9338
  509SOL    HW2 2035   0.517   2.518   2.843  1.6518 -1.6055 -0.6334
  509SOL     MW 2036   0.584   2.536   2.795  0.4120 -0.5878  0.7125
  510SOL     OW 2037   1.524   2.561   1.699  0.6981  0.4064  0.3063
  510SOL    HW1 2038   1.532   2.641   1.638 -1.9746  2.0880 -1.5096
  510SOL    HW2 2039   1.471   2.576   1.786  0.2761 -1.2824 -0.1892
  510SOL     MW 2040   1.518   2.573   1.702  0.2898  0.4055  0.0014
  511SOL     OW 2041   0.468   2.652   2.442 -0.0152 -0.2145 -0.1458
  511SOL    HW1 2042   0.539   2.596   2.473  0.2144  2.2534  2.3724
  511SOL    HW2 2043   0.465   2.681   2.350  1.4818  1.3126  2.8524
  511SOL     MW 2044   0.477   2.649   2.434  0.2126  0.3126  0.5820
  512SOL     OW 2045   1.072   2.006   2.823 -0.3242  0.1630  0.5754
  512SOL    HW1 2046   0.991   2.038   2.861 -0.2310 -1.3066  0.2002
  512SOL    HW2 2047   1.074   1.909   2.844  1.4265 -1.2484  0.0673
  512SOL     MW 2048   1.061   1.997   2.831 -0.0809 -0.2171  0.4589
  513SOL     OW 2049   1.533   2.443   2.313 -0.2821 -0.2322  0.2412
  513SOL    HW1 2050   1.607   2.493   2.291 -2.5643  0.6932  3.3062
  513SOL    HW2 2051   1.533   2.396   2.395 -2.7641 -0.5976 -1.4450
  513SOL     MW 2052   1.542   2.443   2.321 -0.9107 -0.1583  0.4231
  514SOL     OW 2053   0.278   2.536   2.604 -0.2540 -0.1196 -1.0248
  514SOL    HW1 2054   0.329   2.578   2.533 -0.1300 -0.5902  1.5395
  514SOL    HW2 2055   0.322   2.567   2.686 -0.6198 -2.3522  0.7734
  514SOL     MW 2056   0.290   2.546   2.606 -0.2859 -0.4763 -0.4492
  515SOL     OW 2057   1.095   2.094   1.780 -0.7205 -0.3549  0.0224
  515SOL    HW1 2058   1.025   2.157   1.805 -1.7167 -1.8093 -0.8381
  515SOL    HW2 2059   1.168   2.109   1.837  0.9531  0.7316  1.0826
  515SOL     MW 2060   1.096   2.104   1.791 -0.6312 -0.4034  0.0487
  516SOL     OW 2061   1.473   2.470   3.046 -0.5142  0.4013 -0.0278
  516SOL    HW1 2062   1.532   2.463   2.976  2.0541  0.3686  2.0601
  516SOL    HW2 2063   1.379   2.461   3.023  0.5893  2.2348  0.2699
  516SOL     MW 2064   1.469   2.468   3.034 -0.0297  0.6389  0.2869
  517SOL     OW 2065   0.623   2.458   2.161  0.0244 -0.1993 -0.1200
  517SOL    HW1 2066   0.594   2.548   2.190 -1.0951  0.9784 -0.3603
  517SOL    HW2 2067   0.551   2.419   2.118 -1.0543  3.3810  0.7464
  517SOL     MW 2068   0.610   2.465   2.159 -0.2656  0.4285 -0.0374
  518SOL     OW 2069   1.888   0.164   3.000  0.4287 -0.1846 -0.5880
  518SOL    HW1 2070   1.847   0.227   2.941  1.1779 -1.4398 -1.5052
  518SOL    HW2 2071   1.821   0.158   3.072  2.9740 -0.7657  1.2683
  518SOL     MW 2072   1.874   0.172   3.002  0.8634 -0.4269 -0.4641
  519SOL     OW 2073   0.698   2.545   1.703  0.8600  0.0063 -0.5599
  519SOL    HW1 2074   0.687   2.463   1.744 -0.4680 -0.0829 -1.3825
  519SOL    HW2 2075   0.608   2.572   1.673 -1.6030  0.3032  2.4965
  519SOL     MW 2076   0.685   2.538   1.705  0.3598  0.0337 -0.2652
  520SOL     OW 2077   1.290   2.140   2.917 -0.0936  0.2099  0.2413
  520SOL    HW1 2078   1.228   2.082   2.867  0.1540 -0.6415  0.0940
  520SOL    HW2 2079   1.327   2.096   2.998  0.8707 -0.1177 -0.1179
  520SOL     MW 2080   1.287   2.127   2.921  0.0663  0.0543  0.1745
  521SOL     OW 2081   1.700   2.072   2.294  0.5753 -0.1784  0.7666
  521SOL    HW1 2082   1.708   2.129   2.212  0.5873  1.9390  1.1676
  521SOL    HW2 2083   1.726   1.983   2.263  0.1549  0.2405  0.7189
  521SOL     MW 2084   1.705   2.067   2.279  0.5214  0.1563  0.8132
  522SOL     OW 2085   2.849   2.563   2.170 -0.0225 -0.2308 -0.1445
  522SOL    HW1 2086   2.914   2.520   2.225  2.5027 -2.0311  1.2767
  522SOL    HW2 2087   2.776   2.589   2.230 -2.0516 -0.2748  1.0068
  522SOL     MW 2088   2.848   2.560   2.185  0.0430 -0.4742  0.1949
  523SOL     OW 2089   0.873   1.521   2.137 -0.0226 -0.2401 -0.4580
  523SOL    HW1 2090   0.846   1.600   2.095  0.9517 -1.2066  0.3784
  523SOL    HW2 2091   0.930   1.480   2.071 -1.2543  0.1599  1.1260
  523SOL     MW 2092   0.877   1.526   2.123 -0.0565 -0.3148 -0.1387
  524SOL     OW 2093   0.854   2.417   2.910 -0.0815 -0.1436 -0.6796
  524SOL    HW1 2094   0.782   2.440   2.853 -0.6258 -0.7555 -0.5255
  524SOL    HW2 2095   0.847   2.322   2.915 -1.3489  1.6610  0.8318
  524SOL     MW 2096   0.843   2.407   2.903 -0.3206  0.0137 -0.4599
  525SOL     OW 2097   0.384   2.254   2.118  0.1009 -0.1471 -0.0186
  525SOL    HW1 2098   0.315   2.210   2.162  0.9163 -1.4319 -1.5677
  525SOL    HW2 2099   0.386   2.204   2.035  0.3135  0.0024  0.2652
  525SOL     MW 2100   0.375   2.242   2.113  0.2365 -0.2969 -0.1856
  526SOL     OW 2101   0.677   2.051   2.016  0.6387  0.5987 -0.3972
  526SOL    HW1 2102   0.655   2.097   1.930 -2.7897  1.5263 -1.2537
  526SOL    HW2 2103   0.683   2.123   2.086 -2.9354  2.9308 -1.0971
  526SOL     MW 2104   0.675   2.066   2.014 -0.2852  1.0288 -0.6026
  527SOL     OW 2105   1.323   1.982   1.999 -0.7094 -0.2642 -0.0680
  527SOL    HW1 2106   1.305   1.987   2.093  2.7586  0.8971  1.5033
  527SOL    HW2 2107   1.374   1.902   1.988  1.6088  2.2191  2.3696
  527SOL     MW 2108   1.327   1.972   2.010  0.0540  0.2167  0.4610
  528SOL     OW 2109   0.631   2.862   2.918  0.0045 -0.2700  0.1402
  528SOL    HW1 2110   0.671   2.939   2.956  1.3876 -3.6694  0.3921
  528SOL    HW2 2111   0.596   2.890   2.834  2.3081  0.6532 -0.8880
  528SOL     MW 2112   0.631   2.876   2.912  0.4909 -0.5967  0.0378
  529SOL     OW 2113   0.953   2.367   1.906 -0.0086  0.1415 -0.1445
  529SOL    HW1 2114   1.003   2.370   1.992  0.1066  3.2717  2.1936
  529SOL    HW2 2115   1.012   2.383   1.828 -0.6347 -3.2926  1.4926
  529SOL     MW 2116   0.968   2.369   1.907 -0.0760  0.1014  0.3800
  530SOL     OW 2117   1.186   2.419   3.028 -0.3320 -0.1201 -0.3438
  530SOL    HW1 2118   1.119   2.431   3.091  2.1577  0.8007 -2.4345
  530SOL    HW2 2119   1.177   2.328   3.007  0.8389 -0.8379  0.8523
  530SOL     MW 2120   1.176   2.409   3.034  0.1510 -0.0934 -0.4618
  531SOL     OW 2121   0.958   1.864   2.561  0.7349  0.1973  0.5332
  531SOL    HW1 2122   1.001   1.949   2.549 -0.2325  1.6230  1.5140
  531SOL    HW2 2123   0.928   1.860   2.644 -0.4208 -0.1195 -4.4048
  531SOL     MW 2124   0.960   1.875   2.570  0.4548  0.3436  0.0111
  532SOL     OW 2125   1.734   0.329   2.832 -0.6243 -0.1079  0.0566
  532SOL    HW1 2126   1.743   0.264   2.767 -0.7408  2.4635 -0.8345
  532SOL    HW2 2127   1.805   0.386   2.828  0.3996 -1.5165  1.1375
  532SOL     MW 2128   1.744   0.328   2.823 -0.5046  0.0455  0.0816
  533SOL     OW 2129   1.841   2.659   3.031 -0.1434  0.2471  0.0226
  533SOL    HW1 2130   1.813   2.573   3.041  0.2896  3.2201 -1.9257
  533SOL    HW2 2131   1.762   2.717   3.020 -0.1084 -0.3885 -2.3476
  533SOL     MW 2132   1.827   2.655   3.031 -0.0817  0.5555 -0.5472
  534SOL     OW 2133   1.788   2.440   2.512 -0.0967  0.5891 -0.2560
  534SOL    HW1 2134   1.741   2.356   2.537  0.3986 -3.5465  0.0344
  534SOL    HW2 2135   1.850   2.462   2.581 -1.8132  0.0156 -0.8938
  534SOL     MW 2136   1.790   2.432   2.524 -0.2578 -0.0322 -0.3018
  535SOL     OW 2137   1.912   2.407   1.905 -0.1517 -0.1187 -0.4584
  535SOL    HW1 2138   1.866   2.415   1.822  0.8744 -1.9037  1.7715
  535SOL    HW2 2139   2.003   2.404   1.877  0.5714  2.4688 -1.1373
  535SOL     MW 2140   1.918   2.407   1.890  0.0791 -0.0128 -0.2538
  536SOL     OW 2141   0.536   1.827   2.039  0.6680 -0.3388  0.1216
  536SOL    HW1 2142   0.494   1.783   1.964  2.0436  0.6911  0.7481
  536SOL    HW2 2143   0.583   1.905   2.002  1.8360  0.3149 -0.4082
  536SOL     MW 2144   0.537   1.832   2.024  1.0036 -0.1166  0.1344
  537SOL     OW 2145   1.087   0.193   2.826 -0.1036  0.4259 -0.0405
  537SOL    HW1 2146   1.041   0.218   2.905  1.2376 -1.0292 -0.2231
  537SOL    HW2 2147   1.061   0.254   2.751 -2.1047  0.3172  0.4208
  537SOL     MW 2148   1.077   0.205   2.826 -0.1907  0.2195 -0.0037
  538SOL     OW 2149   1.421   0.083   3.076  0.4059 -0.3896 -0.2729
  538SOL    HW1 2150   1.408   0.174   3.113  0.1228 -1.9780 -0.3549
  538SOL    HW2 2151   1.343   0.030   3.106 -1.1346 -1.5615 -0.7206
  538SOL     MW 2152   1.409   0.088   3.085  0.1653 -0.7538 -0.3428
  539SOL     OW 2153   0.745   2.814   2.575 -0.1031 -0.1303 -0.0448
  539SOL    HW1 2154   0.824   2.869   2.559 -0.7847  1.9322 -2.3487
  539SOL    HW2 2155   0.780   2.735   2.623 -1.5857 -1.9135 -1.9235
  539SOL     MW 2156   0.760   2.811   2.579 -0.3886 -0.0934 -0.5966
  540SOL     OW 2157   0.356   2.500   2.906  0.0903 -0.0840 -0.3725
  540SOL    HW1 2158   0.381   2.547   2.987 -0.1193  0.9521  1.4970
  540SOL    HW2 2159   0.328   2.407   2.932 -3.1468 -2.7554  2.1829
  540SOL     MW 2160   0.355   2.494   2.920 -0.3644 -0.2998  0.2113
  541SOL     OW 2161   0.200   2.942   2.202  0.6541  0.2658 -0.5836
  541SOL    HW1 2162   0.150   2.869   2.167 -0.0889  0.1347  2.4204
  541SOL    HW2 2163   0.241   2.895   2.277  0.2418 -2.4350 -0.8964
  541SOL     MW 2164   0.199   2.926   2.208  0.5017 -0.1078 -0.2285
  542SOL     OW 2165   1.056   2.288   2.679 -0.1990 -0.4182  0.2155
  542SOL    HW1 2166   1.026   2.228   2.745 -0.6428 -0.4592 -0.2308
  542SOL    HW2 2167   1.042   2.377   2.716 -0.3274  0.3865  1.2007
  542SOL     MW 2168   1.050   2.292   2.693 -0.2745 -0.3174  0.2866
  543SOL     OW 2169   1.714   2.441   2.817  0.2927 -0.3301 -0.2285
  543SOL    HW1 2170   1.675   2.375   2.756 -0.5115 -1.3121  1.1883
  543SOL    HW2 2171   1.696   2.526   2.777 -1.6084  0.0016 -1.2472
  543SOL     MW 2172   1.707   2.444   2.804 -0.0643 -0.4159 -0.1760
  544SOL     OW 2173   0.765   0.133   2.752  0.5023 -0.3253  0.8820
  544SOL    HW1 2174   0.678   0.170   2.764 -2.4003 -0.0601 -0.9262
  544SOL    HW2 2175   0.766   0.132   2.658  0.9507  1.8016  2.2781
  544SOL     MW 2176   0.754   0.138   2.741  0.1785 -0.0097  0.8276
  545SOL     OW 2177   1.466   2.183   2.385 -0.5239  0.0835 -0.6625
  545SOL    HW1 2178   1.418   2.233   2.317 -2.6492  1.6424 -1.3687
  545SOL    HW2 2179   1.541   2.138   2.339  0.1090 -1.9865 -3.7010
  545SOL     MW 2180   1.469   2.184   2.370 -0.7208  0.0161 -1.1566
  546SOL     OW 2181   2.911   2.004   0.122  0.3943  0.2174 -0.3834
  546SOL    HW1 2182   2.902   2.087   0.073  0.2771 -0.4940  1.5304
  546SOL    HW2 2183   3.005   1.979   0.128 -0.1059  0.7331  1.5554
  546SOL     MW 2184   2.922   2.012   0.116  0.3128  0.1916  0.1249
  547SOL     OW 2185   0.166   0.084   0.099  0.2676 -0.8314  0.0280
  547SOL    HW1 2186   0.220   0.090   0.027  1.0883  0.1121  0.0134
  547SOL    HW2 2187   0.094   0.026   0.068 -0.4916  0.5426 -0.7139
  547SOL     MW 2188   0.163   0.077   0.085  0.2757 -0.5256 -0.0718
  548SOL     OW 2189   0.329   2.497   0.277 -0.3544 -0.5634 -0.7091
  548SOL    HW1 2190   0.349   2.549   0.196 -0.9004  1.1839  4.1970
  548SOL    HW2 2191   0.251   2.441   0.262  2.3530  1.5574 -0.0905
  548SOL     MW 2192   0.321   2.496   0.264 -0.0693 -0.0530  0.0198
  549SOL     OW 2193   0.847   1.933   2.208  0.3385 -0.0135 -0.1598
  549SOL    HW1 2194   0.780   1.969   2.153 -2.0228 -0.6407  1.9532
  549SOL    HW2 2195   0.803   1.908   2.286 -1.8628  0.9204  1.0540
  549SOL     MW 2196   0.833   1.934   2.211 -0.2635  0.0270  0.2792
  550SOL     OW 2197   1.825   1.746   2.547 -0.1093 -0.9729  0.1720
  550SOL    HW1 2198   1.828   1.767   2.455 -1.6811 -0.0193 -1.7621
  550SOL    HW2 2199   1.841   1.821   2.604  0.9307 -0.8706 -0.8172
  550SOL     MW 2200   1.827   1.759   2.542 -0.1795 -0.8336 -0.2137
  551SOL     OW 2201   0.900   2.268   0.251  0.3344 -0.3813  0.4584
  551SOL    HW1 2202   0.994   2.238   0.252  1.2992  1.9475  0.0574
  551SOL    HW2 2203   0.858   2.225   0.180 -1.0827  0.8827 -1.2318
  551SOL     MW 2204   0.907   2.259   0.242  0.2747  0.0927  0.1825
  552SOL     OW 2205   1.765   1.781   2.289 -0.7983 -0.1024 -0.3722
  552SOL    HW1 2206   1.685   1.737   2.262  0.8176  0.3772  0.2397
  552SOL    HW2 2207   1.834   1.770   2.226  3.8623  0.9315 -0.2189
  552SOL     MW 2208   1.764   1.774   2.277  0.0299  0.0973 -0.2712
  553SOL     OW 2209   1.237   2.247   1.539 -0.7295 -0.3264  0.1816
  553SOL    HW1 2210   1.275   2.161   1.559 -1.1102  2.3591  1.4181
  553SOL    HW2 2211   1.321   2.304   1.516  0.4212  0.2575 -0.9753
  553SOL     MW 2212   1.253   2.243   1.539 -0.6279  0.1049  0.1921
  554SOL     OW 2213   0.493   2.934   2.670 -0.5465  0.2579  0.0723
  554SOL    HW1 2214   0.464   3.004   2.609 -1.3217 -1.3322  2.4311
  554SOL    HW2 2215   0.562   2.882   2.623 -0.4113 -1.4398  2.0210
  554SOL     MW 2216   0.498   2.936   2.656 -0.6309 -0.1759  0.6406
  555SOL     OW 2217   0.613   2.439   2.541  0.1161  0.1040  0.0726
  555SOL    HW1 2218   0.577   2.352   2.550  0.1905  1.1420 -2.1801
  555SOL    HW2 2219   0.704   2.421   2.515  1.8047  0.3717  1.7240
  555SOL     MW 2220   0.620   2.425   2.539  0.3487  0.2763 -0.0067
  556SOL     OW 2221   1.054   1.929   0.108 -0.0090  0.1634 -0.5318
  556SOL    HW1 2222   1.090   1.905   0.024 -1.6834  0.1444  2.2094
  556SOL    HW2 2223   1.124   1.915   0.169 -1.7422 -0.3344  3.2238
  556SOL     MW 2224   1.068   1.924   0.105 -0.4586  0.0952  0.3254
  557SOL     OW 2225   0.973   2.676   0.493 -0.0081  0.0161 -0.2062
  557SOL    HW1 2226   1.002   2.607   0.429  1.7030  1.4995  0.1653
  557SOL    HW2 2227   0.931   2.749   0.438 -1.2265  0.6978  0.8760
  557SOL     MW 2228   0.971   2.677   0.478  0.0569  0.3018 -0.0144
  558SOL     OW 2229   0.225   2.287   2.984  0.0272 -0.4415  0.4714
  558SOL    HW1 2230   0.146   2.268   2.931 -1.7447 -1.6911 -1.4900
  558SOL    HW2 2231   0.204   2.295   3.081 -0.8418 -1.4810  0.3200
  558SOL     MW 2232   0.211   2.286   2.990 -0.3212 -0.7435  0.1926
  559SOL     OW 2233   1.033   2.347   2.158  0.3481  0.5226  0.4923
  559SOL    HW1 2234   1.126   2.366   2.166 -0.7656  0.9244 -1.5735
  559SOL    HW2 2235   1.013   2.290   2.229  1.7450  0.4936 -1.6776
  559SOL     MW 2236   1.043   2.342   2.168  0.3855  0.5718 -0.0666
  560SOL     OW 2237   1.951   2.833   0.123 -0.0775 -0.7833  0.7742
  560SOL    HW1 2238   2.023   2.858   0.066 -0.3554 -1.0414  0.0070
  560SOL    HW2 2239   1.906   2.759   0.077 -0.5978 -2.7831  1.6812
  560SOL     MW 2240   1.954   2.827   0.109 -0.1828 -1.0812  0.7927
  561SOL     OW 2241   0.347   2.152   0.097  0.1749 -0.2477 -0.2186
  561SOL    HW1 2242   0.344   2.174   0.002  1.3390  2.8997 -1.3000
  561SOL    HW2 2243   0.390   2.229   0.138  1.8064 -1.0762  1.3807
  561SOL     MW 2244   0.353   2.165   0.090  0.5438  0.0583 -0.1503
  562SOL     OW 2245   0.676   2.202   2.256 -0.4949 -0.3947 -0.3710
  562SOL    HW1 2246   0.665   2.295   2.224  1.5751 -1.9063  2.7391
  562SOL    HW2 2247   0.760   2.192   2.299  0.9127  1.8093  0.0560
  562SOL     MW 2248   0.686   2.213   2.257 -0.0361 -0.3033  0.0957
  563SOL     OW 2249   1.208   0.422   0.518 -0.4714 -0.1460  0.0660
  563SOL    HW1 2250   1.191   0.366   0.444  3.3406 -0.6619 -0.0452
  563SOL    HW2 2251   1.169   0.374   0.587 -1.3409 -2.2625 -1.4157
  563SOL     MW 2252   1.200   0.408   0.517 -0.0832 -0.4933 -0.1442
  564SOL     OW 2253   1.060   2.603   2.386 -0.4266 -0.1234  0.3236
  564SOL    HW1 2254   1.093   2.661   2.308  0.0247 -0.6476 -2.6782
  564SOL    HW2 2255   1.090   2.638   2.468 -1.7490  1.2245 -1.5983
  564SOL     MW 2256   1.068   2.615   2.387 -0.5415 -0.0147 -0.3260
  565SOL     OW 2257   2.750   2.810   2.560  0.1201  0.5948 -0.2342
  565SOL    HW1 2258   2.819   2.843   2.502  1.8716 -0.6063 -0.0656
  565SOL    HW2 2259   2.678   2.782   2.497 -1.4370  0.7855 -0.9034
  565SOL     MW 2260   2.749   2.810   2.544  0.1458  0.4615 -0.3003
  566SOL     OW 2261   2.163   1.897   2.345 -0.1077  0.1682 -0.9897
  566SOL    HW1 2262   2.175   1.900   2.251 -0.4023 -0.1624 -0.3809
  566SOL    HW2 2263   2.222   1.961   2.377  0.8932 -1.2950  1.0510
  566SOL     MW 2264   2.172   1.906   2.336 -0.0145 -0.0685 -0.6402
  567SOL     OW 2265   1.200   3.016   0.023  0.1977  0.1520  0.7812
  567SOL    HW1 2266   1.185   3.024   0.115 -2.6212  1.8025 -1.0657
  567SOL    HW2 2267   1.235   2.923   0.008  2.8387  0.5042 -0.5624
  567SOL     MW 2268   1.203   3.005   0.033  0.1742  0.4163  0.3603
  568SOL     OW 2269   1.614   2.054   2.847  0.5668  0.5110  0.5015
  568SOL    HW1 2270   1.663   2.100   2.915 -2.0871  0.2078 -0.4960
  568SOL    HW2 2271   1.677   2.005   2.799 -0.0589 -0.6199  0.8350
  568SOL     MW 2272   1.629   2.053   2.849  0.1341  0.3218  0.4139
  569SOL     OW 2273   0.116   2.317   2.450  0.1816 -0.1529 -0.1212
  569SOL    HW1 2274   0.074   2.369   2.382 -0.1832  1.6463  0.5008
  569SOL    HW2 2275   0.133   2.381   2.520 -2.3260  0.0741  0.7116
  569SOL     MW 2276   0.113   2.333   2.451 -0.1974  0.1144  0.0708
  570SOL     OW 2277   1.479   0.360   0.519  0.1666  0.4654  0.0907
  570SOL    HW1 2278   1.390   0.380   0.535 -0.1447 -2.7538  1.5826
  570SOL    HW2 2279   1.517   0.376   0.604  0.1538  0.8826 -0.5016
  570SOL     MW 2280   1.472   0.365   0.533  0.1239  0.0957  0.2094
  571SOL     OW 2281   1.334   2.349   2.141  0.2181  0.2556  0.1387
  571SOL    HW1 2282   1.399   2.384   2.202 -2.3838 -0.0063  2.7099
  571SOL    HW2 2283   1.380   2.308   2.063  0.9952 -1.3315 -0.4482
  571SOL     MW 2284   1.348   2.348   2.139 -0.0227  0.0117  0.4005
  572SOL     OW 2285   0.980   2.574   0.064  0.4602  0.3172 -0.0698
  572SOL    HW1 2286   0.978   2.664   0.043 -0.2993 -3.1392 -1.1373
  572SOL    HW2 2287   0.891   2.555   0.081  0.1881  2.6018 -2.2411
  572SOL     MW 2288   0.968   2.583   0.064  0.3241  0.1626 -0.4972
  573SOL     OW 2289   1.181   2.270   0.205 -0.3371  0.1841 -0.0745
  573SOL    HW1 2290   1.258   2.270   0.149  0.4186 -2.6664 -0.4223
  573SOL    HW2 2291   1.180   2.361   0.233 -0.7152 -1.6518  3.6135
  573SOL     MW 2292   1.191   2.282   0.201 -0.2872 -0.4342  0.3662
  574SOL     OW 2293   1.136   2.536   0.279  0.5019  0.0552  0.3666
  574SOL    HW1 2294   1.212   2.573   0.308 -2.7539  0.3055 -0.7975
  574SOL    HW2 2295   1.102   2.563   0.190 -0.1994 -1.7800 -1.9100
  574SOL     MW 2296   1.141   2.544   0.271 -0.0202 -0.1539 -0.0874
  575SOL     OW 2297   3.023   2.223   1.707  0.0322 -0.2529 -0.3056
  575SOL    HW1 2298   3.053   2.131   1.683 -2.9139 -0.8623  0.9265
  575SOL    HW2 2299   3.094   2.278   1.745  0.8913  0.0175  0.4962
  575SOL     MW 2300   3.036   2.218   1.709 -0.2431 -0.2976 -0.0373
  576SOL     OW 2301   2.848   1.852   2.017 -0.1038 -0.3279  0.0462
  576SOL    HW1 2302   2.845   1.917   1.947 -0.4539 -3.4027  0.6928
  576SOL    HW2 2303   2.763   1.812   1.996 -0.6740  2.4183 -1.9706
  576SOL     MW 2304   2.837   1.855   2.005 -0.2252 -0.3712 -0.1346
  577SOL     OW 2305   2.087   0.266   0.085  0.5664  0.2564 -0.3076
  577SOL    HW1 2306   2.031   0.249   0.013  3.3124  1.6258  0.4031
  577SOL    HW2 2307   2.069   0.200   0.147 -0.8088 -1.6784 -2.4460
  577SOL     MW 2308   2.077   0.255   0.083  0.7473  0.1818 -0.4960
  578SOL     OW 2309   1.947   2.062   2.450  0.3068 -0.0116 -0.8938
  578SOL    HW1 2310   1.865   2.068   2.407  4.2502  1.7977 -1.1372
  578SOL    HW2 2311   2.003   1.999   2.398  0.1219  1.9509 -2.3707
  578SOL     MW 2312   1.944   2.054   2.438  0.8027  0.4861 -1.1207
  579SOL     OW 2313   0.899   2.425   2.493 -0.5706  0.2421  0.1056
  579SOL    HW1 2314   0.955   2.361   2.525 -4.5020 -1.6095 -0.5328
  579SOL    HW2 2315   0.968   2.485   2.440 -0.4619 -0.6077 -1.7188
  579SOL     MW 2316   0.915   2.425   2.490 -1.0750 -0.1143 -0.2193
  580SOL     OW 2317   0.950   2.837   0.021  0.4142 -0.0523  0.0265
  580SOL    HW1 2318   1.022   2.892  -0.004 -1.9675  0.4842  0.6475
  580SOL    HW2 2319   0.905   2.816  -0.058 -1.8626  1.3687  0.5888
  580SOL     MW 2320   0.954   2.842   0.007 -0.2004  0.2059  0.1826
  581SOL     OW 2321   1.177   2.456   1.723 -0.1729 -0.5084  0.4670
  581SOL    HW1 2322   1.253   2.500   1.773  0.3417 -2.6385  1.3770
  581SOL    HW2 2323   1.212   2.385   1.673  0.4879 -1.1914 -0.5685
  581SOL     MW 2324   1.191   2.453   1.723 -0.0178 -0.8796  0.4504
  582SOL     OW 2325   0.034   2.857   2.735 -0.3475 -0.1554 -0.2688
  582SOL    HW1 2326  -0.015   2.943   2.724  1.5001 -0.1984 -2.8335
  582SOL    HW2 2327   0.126   2.885   2.753  1.2161 -0.7763 -1.8623
  582SOL     MW 2328   0.040   2.872   2.736  0.1026 -0.2430 -0.8174
  583SOL     OW 2329   2.017   2.443   2.685  0.1315  0.5002 -0.1718
  583SOL    HW1 2330   2.085   2.466   2.621 -0.4272 -1.7731  0.8067
  583SOL    HW2 2331   2.013   2.349   2.688  0.4619  1.8508  1.1666
  583SOL     MW 2332   2.026   2.434   2.677  0.1014  0.3785  0.1339
  584SOL     OW 2333   0.076   1.898   2.184  0.1812  0.3318  0.0193
  584SOL    HW1 2334   0.100   1.842   2.264  0.6424 -3.7278  0.4920
  584SOL    HW2 2335   0.104   1.987   2.218 -0.4963  1.7342  1.2618
  584SOL     MW 2336   0.082   1.902   2.199  0.1526 -0.0188  0.2456
  585SOL     OW 2337   1.582   2.642   0.121  0.1805  0.2556 -0.1158
  585SOL    HW1 2338   1.520   2.604   0.055  0.4641  0.6263 -0.0160
  585SOL    HW2 2339   1.522   2.635   0.193 -0.3126  0.2636  1.7574
  585SOL     MW 2340   1.566   2.636   0.122  0.1529  0.3056  0.1445
  586SOL     OW 2341   1.362   2.791   2.578 -0.7967  0.2905  0.0042
  586SOL    HW1 2342   1.384   2.747   2.490 -0.7184 -1.1751  0.2788
  586SOL    HW2 2343   1.341   2.879   2.569  1.1938 -0.3119 -0.1155
  586SOL     MW 2344   1.362   2.797   2.565 -0.5237  0.0177  0.0246
  587SOL     OW 2345   1.381   1.475   2.175 -0.5097 -0.2697  0.5648
  587SOL    HW1 2346   1.333   1.399   2.215  0.8817 -0.6401  0.4570
  587SOL    HW2 2347   1.414   1.439   2.091 -1.7173 -0.6721  0.3674
  587SOL     MW 2348   1.379   1.460   2.169 -0.4854 -0.3716  0.5246
  588SOL     OW 2349   1.372   1.989   2.624  0.1285 -0.5483  0.1020
  588SOL    HW1 2350   1.383   1.890   2.635  2.2972 -2.7694 -1.1470
  588SOL    HW2 2351   1.386   2.026   2.710 -0.4513 -0.1234  0.1844
  588SOL     MW 2352   1.375   1.981   2.637  0.3382 -0.7853 -0.0519
  589SOL     OW 2353   1.406   1.973   0.049  0.1897 -0.3374 -0.2524
  589SOL    HW1 2354   1.420   2.059   0.087  0.7126 -0.3840  0.6658
  589SOL    HW2 2355   1.361   1.928   0.124 -0.6970  0.2707 -2.2227
  589SOL     MW 2356   1.402   1.978   0.064  0.1417 -0.2633 -0.3912
  590SOL     OW 2357   0.497   2.699   2.169  0.1115 -1.0377  0.4638
  590SOL    HW1 2358   0.479   2.710   2.073 -1.5184 -1.3373 -0.0241
  590SOL    HW2 2359   0.565   2.767   2.186 -0.1732 -1.3949  1.0174
  590SOL     MW 2360   0.504   2.710   2.159 -0.1411 -1.1243  0.4725
  591SOL     OW 2361   2.289   0.721   0.064 -0.0889 -0.1151  0.1102
  591SOL    HW1 2362   2.215   0.786   0.044 -2.2687 -0.0662  1.2168
  591SOL    HW2 2363   2.332   0.716  -0.023 -2.9465  0.2280 -2.7415
  591SOL     MW 2364   2.285   0.729   0.050 -0.7536 -0.0634 -0.1201
  592SOL     OW 2365   1.747   2.911   0.801 -0.6007  0.3912  0.1966
  592SOL    HW1 2366   1.738   2.978   0.739 -2.4570 -0.6372  3.1047
  592SOL    HW2 2367   1.844   2.898   0.805  0.5713  1.2316 -2.9340
  592SOL     MW 2368   1.759   2.918   0.793 -0.6910  0.3664  0.1672
  593SOL     OW 2369   1.954   0.664   0.820  0.1038 -0.1305 -0.3755
  593SOL    HW1 2370   1.890   0.658   0.746  0.3033  0.3254  0.3524
  593SOL    HW2 2371   2.036   0.618   0.803  0.5760  0.5478  2.0120
  593SOL     MW 2372   1.957   0.657   0.808  0.1925  0.0192  0.0356
  594SOL     OW 2373   2.770   1.064   1.400  0.1223  0.2681 -0.6191
  594SOL    HW1 2374   2.866   1.080   1.414 -0.6647 -0.4357  1.5387
  594SOL    HW2 2375   2.746   1.063   1.309 -1.8435  3.6691  2.2942
  594SOL     MW 2376   2.779   1.066   1.390 -0.2409  0.6240  0.0500
  595SOL     OW 2377   0.456   0.900   0.844 -0.1615 -0.0502 -0.2205
  595SOL    HW1 2378   0.471   0.953   0.765 -1.9395 -3.1999 -0.1235
  595SOL    HW2 2379   0.476   0.956   0.922  3.8436  2.1947 -0.2743
  595SOL     MW 2380   0.461   0.915   0.844  0.1324 -0.1696 -0.2148
  596SOL     OW 2381   2.471   1.338   0.526 -0.2511 -0.4606 -0.2824
  596SOL    HW1 2382   2.538   1.403   0.495  2.2667 -0.4427 -0.0114
  596SOL    HW2 2383   2.506   1.300   0.608  0.5058 -1.3722  1.5397
  596SOL     MW 2384   2.485   1.342   0.533  0.1810 -0.5785 -0.0062
  597SOL     OW 2385   2.195   0.652   1.581 -0.7990 -0.6534 -0.6871
  597SOL    HW1 2386   2.221   0.597   1.652  3.9858  0.7264 -0.3271
  597SOL    HW2 2387   2.128   0.598   1.521  0.7352 -1.2168 -0.1579
  597SOL     MW 2388   2.190   0.637   1.582  0.0348 -0.5457 -0.5697
  598SOL     OW 2389   2.603   1.020   2.862  0.0003 -0.5547  0.2204
  598SOL    HW1 2390   2.600   0.926   2.870 -0.3956 -0.4360 -1.3565
  598SOL    HW2 2391   2.693   1.054   2.860 -0.2412  1.6570 -0.0753
  598SOL     MW 2392   2.614   1.012   2.863 -0.0838 -0.2472 -0.0267
  599SOL     OW 2393   2.971   0.428   2.148  0.1077 -0.0564  0.0939
  599SOL    HW1 2394   3.011   0.436   2.239  5.1260 -1.9908  2.4454
  599SOL    HW2 2395   2.989   0.514   2.115  3.2032 -0.8007  0.6438
  599SOL     MW 2396   2.979   0.440   2.156  1.1782 -0.4098  0.4767
  600SOL     OW 2397   1.844   1.623   0.903 -0.1724  0.2684 -0.2796
  600SOL    HW1 2398   1.880   1.687   0.964 -1.0103 -0.0924  1.9060
  600SOL    HW2 2399   1.766   1.674   0.874 -1.3240  0.9436 -0.1289
  600SOL     MW 2400   1.838   1.639   0.907 -0.4349  0.3099  0.0286
  601SOL     OW 2401   2.533   0.700   0.806 -0.3126 -0.4403 -0.0862
  601SOL    HW1 2402   2.522   0.703   0.902  0.1633 -0.5525  0.8207
  601SOL    HW2 2403   2.453   0.649   0.763 -1.9883 -1.8583 -0.3897
  601SOL     MW 2404   2.521   0.694   0.813 -0.4709 -0.6422 -0.0066
  602SOL     OW 2405   2.311   1.917   0.769 -0.3014  0.1199 -0.4028
  602SOL    HW1 2406   2.243   1.850   0.751 -1.6129  1.1931 -0.9681
  602SOL    HW2 2407   2.266   1.998   0.759  3.4002 -0.9500 -0.2249
  602SOL     MW 2408   2.296   1.919   0.766  0.0140  0.1203 -0.4539
  603SOL     OW 2409   2.963   1.354   1.985 -0.0995  0.3872 -0.0992
  603SOL    HW1 2410   2.891   1.340   2.047 -0.3911  0.0622  1.6450
  603SOL    HW2 2411   2.985   1.262   1.991 -1.1172  3.2511  0.5068
  603SOL     MW 2412   2.956   1.340   1.994 -0.2723  0.7222  0.2109
  604SOL     OW 2413   2.029   1.440   0.438 -0.4445 -0.7643 -0.1790
  604SOL    HW1 2414   2.072   1.387   0.504 -1.1099 -0.6492 -0.5440
  604SOL    HW2 2415   1.961   1.497   0.489 -1.4653  1.0327 -0.6517
  604SOL     MW 2416   2.026   1.441   0.454 -0.6669 -0.5120 -0.2895
  605SOL     OW 2417   2.472   1.452   0.879 -0.1410 -0.6376 -0.4025
  605SOL    HW1 2418   2.437   1.500   0.807  1.2567 -2.2460  0.6009
  605SOL    HW2 2419   2.494   1.366   0.842  0.3831  0.9017  0.3901
  605SOL     MW 2420   2.470   1.447   0.865  0.1125 -0.6467 -0.1656
  606SOL     OW 2421   2.611   1.809   1.896  0.0061 -0.4580 -0.7301
  606SOL    HW1 2422   2.521   1.789   1.903  1.0349  0.1123  1.9043
  606SOL    HW2 2423   2.656   1.736   1.847 -0.8535  1.1079 -0.1149
  606SOL     MW 2424   2.605   1.797   1.891  0.0284 -0.1761 -0.3014
  607SOL     OW 2425   2.384   1.025   3.057 -0.1278  0.9028  0.2146
  607SOL    HW1 2426   2.453   1.066   3.010 -0.7069 -1.5338 -2.0323
  607SOL    HW2 2427   2.405   1.018   3.149  1.6318 -0.7456 -1.9499
  607SOL     MW 2428   2.396   1.030   3.063  0.0279  0.3639 -0.3675
  608SOL     OW 2429   1.866   0.247   0.537 -0.1476 -0.1909 -0.1829
  608SOL    HW1 2430   1.850   0.277   0.445 -0.7589 -0.4411  1.4944
  608SOL    HW2 2431   1.835   0.154   0.522 -1.4878  1.0176 -2.2775
  608SOL     MW 2432   1.860   0.239   0.523 -0.4051 -0.0645 -0.2379
  609SOL     OW 2433   2.135   1.914   3.033  0.0218  0.1036  0.6722
  609SOL    HW1 2434   2.065   1.875   2.975  2.4174 -0.6621 -1.1200
  609SOL    HW2 2435   2.111   1.894   3.121  1.1777  1.0068  2.9249
  609SOL     MW 2436   2.123   1.907   3.037  0.4904  0.1218  0.7330
  610SOL     OW 2437   1.785   0.918   1.230  0.0337 -0.2267  0.7617
  610SOL    HW1 2438   1.765   0.870   1.148  0.6162  4.7701 -0.9871
  610SOL    HW2 2439   1.701   0.964   1.251  0.7815 -0.9982 -2.2030
  610SOL     MW 2440   1.771   0.917   1.222  0.2092  0.3308  0.1398
  611SOL     OW 2441   2.498   1.658   0.644  0.4692 -0.2438 -0.6397
  611SOL    HW1 2442   2.551   1.639   0.566  1.7543 -0.2749 -0.8658
  611SOL    HW2 2443   2.413   1.668   0.609 -0.4272 -1.4956 -1.6850
  611SOL     MW 2444   2.494   1.657   0.629  0.5205 -0.4131 -0.8074
  612SOL     OW 2445   2.921   2.968   0.335  0.7039  0.1393  0.4015
  612SOL    HW1 2446   2.922   2.995   0.425 -1.2901 -1.9991 -3.0099
  612SOL    HW2 2447   2.986   2.903   0.316 -0.9311  0.3321 -1.5518
  612SOL     MW 2448   2.930   2.963   0.345  0.2251 -0.1174 -0.3063
  613SOL     OW 2449   1.523   1.106   0.988  0.0052  0.4945  0.5131
  613SOL    HW1 2450   1.604   1.150   0.967  1.1597  1.7420  0.7196
  613SOL    HW2 2451   1.512   1.102   1.086 -0.1258  1.2910  1.6206
  613SOL     MW 2452   1.532   1.111   0.998  0.1402  0.7642  0.6865
  614SOL     OW 2453   2.037   0.476   1.443  0.1676  0.0275  0.0807
  614SOL    HW1 2454   2.052   0.421   1.518  0.6837  1.5208 -1.3501
  614SOL    HW2 2455   1.944   0.462   1.431  0.7940  0.6699  3.2591
  614SOL     MW 2456   2.026   0.467   1.451  0.3183  0.3093  0.3113
  615SOL     OW 2457   2.426   0.718   0.309  0.1440 -0.0107  0.7452
  615SOL    HW1 2458   2.499   0.652   0.330  0.1429  2.9998  1.0453
  615SOL    HW2 2459   2.380   0.691   0.231  0.4078 -1.6403 -0.3074
  615SOL     MW 2460   2.430   0.706   0.301  0.1787  0.1715  0.6459
  616SOL     OW 2461   2.501   0.429   1.613  0.0059 -0.1072 -0.2188
  616SOL    HW1 2462   2.545   0.356   1.575  0.3510 -0.6435  2.1252
  616SOL    HW2 2463   2.485   0.493   1.541 -0.5488  0.9078  0.6929
  616SOL     MW 2464   2.505   0.428   1.598 -0.0217 -0.0441  0.2108
  617SOL     OW 2465   2.874   0.594   1.837 -0.0271 -0.5067  0.4868
  617SOL    HW1 2466   2.799   0.598   1.895  2.0839  2.9432  1.1257
  617SOL    HW2 2467   2.886   0.500   1.830  0.6607 -2.2461  0.2932
  617SOL     MW 2468   2.865   0.582   1.844  0.3421 -0.2810  0.5455
  618SOL     OW 2469   2.751   0.299   2.022  0.0805 -0.8288  0.1093
  618SOL    HW1 2470   2.700   0.377   2.012  0.7078  0.5742 -0.8229
  618SOL    HW2 2471   2.835   0.331   2.055  2.7208 -1.3185  0.4092
  618SOL     MW 2472   2.755   0.314   2.025  0.5117 -0.7083  0.0259
  619SOL     OW 2473   2.652   0.733   0.101  0.3172  0.0007 -0.3207
  619SOL    HW1 2474   2.727   0.797   0.117  2.2047  0.6118 -1.8260
  619SOL    HW2 2475   2.665   0.670   0.169  0.5622  1.0998  1.7226
  619SOL     MW 2476   2.664   0.733   0.112  0.5986  0.2264 -0.2497
  620SOL     OW 2477   2.240   1.071   0.923 -0.1420 -0.1563 -0.1343
  620SOL    HW1 2478   2.307   1.034   0.865 -0.1658  0.0046 -1.1389
  620SOL    HW2 2479   2.156   1.063   0.874  2.2109  0.0355 -2.1138
  620SOL     MW 2480   2.237   1.065   0.909  0.1653 -0.1098 -0.5280
  621SOL     OW 2481   1.460   2.208   1.947 -0.1765 -0.1314  0.2623
  621SOL    HW1 2482   1.411   2.122   1.967  0.7919 -0.7516  0.5870
  621SOL    HW2 2483   1.552   2.189   1.984 -0.5827  0.5307  1.1511
  621SOL     MW 2484   1.466   2.194   1.954 -0.1023 -0.1259  0.4224
  622SOL     OW 2485   2.651   0.246   0.272  0.0627  0.0156 -0.1438
  622SOL    HW1 2486   2.739   0.292   0.252  1.2559  1.4168 -1.4173
  622SOL    HW2 2487   2.671   0.149   0.269 -0.9121  1.0669 -1.6890
  622SOL     MW 2488   2.665   0.239   0.269  0.0915  0.3392 -0.5157
  623SOL     OW 2489   2.407   2.757   0.882  0.9464 -0.2112 -0.3510
  623SOL    HW1 2490   2.472   2.825   0.878 -2.9460 -1.0358  0.6844
  623SOL    HW2 2491   2.343   2.778   0.956 -3.2410 -1.0801 -0.3440
  623SOL     MW 2492   2.408   2.769   0.892 -0.1196 -0.4346 -0.2135
  624SOL     OW 2493   2.166   1.597   3.041 -0.2719  0.0844  0.1817
  624SOL    HW1 2494   2.104   1.527   3.026  2.3084 -4.0960 -1.9415
  624SOL    HW2 2495   2.105   1.671   3.015 -0.6255 -0.9037 -1.5994
  624SOL     MW 2496   2.150   1.598   3.036  0.0219 -0.5975 -0.3334
  625SOL     OW 2497   2.251   1.905   1.057 -0.5729  0.5621  0.5914
  625SOL    HW1 2498   2.311   1.846   1.103 -2.4996  2.2755 -1.3546
  625SOL    HW2 2499   2.277   1.914   0.965 -1.2613 -1.3825  0.4384
  625SOL     MW 2500   2.262   1.898   1.051 -0.9180  0.5316  0.3145
  626SOL     OW 2501   0.122   1.792   2.428 -0.1426 -0.1793  0.2069
  626SOL    HW1 2502   0.117   1.716   2.478 -1.4431  0.5209 -0.0516
  626SOL    HW2 2503   0.080   1.858   2.486 -0.4521  1.9034 -1.2087
  626SOL     MW 2504   0.116   1.790   2.442 -0.3551  0.1879 -0.0140
  627SOL     OW 2505   2.492   0.832   2.580  0.4556 -0.2330  0.2392
  627SOL    HW1 2506   2.413   0.883   2.600 -0.9342  1.4617 -1.9052
  627SOL    HW2 2507   2.484   0.814   2.483  1.2528  1.1059 -0.4255
  627SOL     MW 2508   2.480   0.836   2.570  0.3774  0.1672 -0.1314
  628SOL     OW 2509   2.259   1.363   1.320 -0.0600  0.0160  0.4028
  628SOL    HW1 2510   2.221   1.284   1.288  0.7658 -0.3721  4.1629
  628SOL    HW2 2511   2.334   1.375   1.260 -1.7926 -0.2101 -1.7258
  628SOL     MW 2512   2.264   1.354   1.308 -0.1796 -0.0651  0.6181
  629SOL     OW 2513   1.767   0.539   1.291  0.1321  0.6177  0.1917
  629SOL    HW1 2514   1.783   0.597   1.214 -0.5668  1.0580  1.7201
  629SOL    HW2 2515   1.681   0.505   1.263 -0.9707 -1.6522 -0.0899
  629SOL     MW 2516   1.758   0.542   1.277 -0.1056  0.3763  0.3562
  630SOL     OW 2517   2.408   1.866   3.010  0.3189 -0.3423  0.4978
  630SOL    HW1 2518   2.405   1.961   2.987 -0.3889  0.9870  0.4938
  630SOL    HW2 2519   2.315   1.850   3.024 -0.3724  0.2128 -2.3281
  630SOL     MW 2520   2.395   1.876   3.009  0.1343 -0.0937  0.1244
  631SOL     OW 2521   2.096   1.711   1.528 -0.1908  0.1834 -0.2561
  631SOL    HW1 2522   2.073   1.644   1.593  2.3759  1.4917  1.0454
  631SOL    HW2 2523   2.026   1.775   1.517  0.4814 -0.9223  3.7112
  631SOL     MW 2524   2.084   1.711   1.535  0.2365  0.2101  0.4391
  632SOL     OW 2525   0.279   1.921   1.508 -0.3235  0.0396  0.3218
  632SOL    HW1 2526   0.189   1.948   1.519  3.2644 -3.2541 -1.0997
  632SOL    HW2 2527   0.289   1.830   1.478  2.8139  0.3060  0.3075
  632SOL     MW 2528   0.268   1.913   1.506  0.5638 -0.3598  0.1324
  633SOL     OW 2529   2.634   0.539   0.344 -0.3518  0.1288  0.9527
  633SOL    HW1 2530   2.683   0.503   0.420  0.5101 -0.8809 -1.0079
  633SOL    HW2 2531   2.592   0.464   0.314  1.6705  0.4561 -1.9011
  633SOL     MW 2532   2.635   0.524   0.350  0.0288  0.0388  0.3175
  634SOL     OW 2533   2.663   3.050   0.636 -0.0801  0.6628  0.0446
  634SOL    HW1 2534   2.666   3.147   0.636 -1.4715  0.1336 -0.5887
  634SOL    HW2 2535   2.640   3.025   0.547 -2.1027  2.9166  0.5011
  634SOL     MW 2536   2.661   3.060   0.624 -0.5305  0.8904  0.0213
  635SOL     OW 2537   2.621   0.096   1.883 -0.1149 -0.3277 -0.0684
  635SOL    HW1 2538   2.676   0.054   1.811 -0.3671  0.6332 -1.0040
  635SOL    HW2 2539   2.686   0.160   1.924 -1.0051 -2.3071 -1.6092
  635SOL     MW 2540   2.637   0.099   1.879 -0.2656 -0.4621 -0.3951
  636SOL     OW 2541   2.716   1.626   0.871 -0.1869  0.3104 -0.5411
  636SOL    HW1 2542   2.620   1.614   0.859  1.4793  4.1533 -1.0157
  636SOL    HW2 2543   2.729   1.719   0.859 -0.0076  1.4910 -1.4189
  636SOL     MW 2544   2.705   1.637   0.868  0.0566  0.9732 -0.7195
  637SOL     OW 2545   2.879   1.537   0.641 -0.2735 -0.0824  0.0803
  637SOL    HW1 2546   2.945   1.597   0.597 -0.3288  0.6410  0.5936
  637SOL    HW2 2547   2.837   1.588   0.712  0.3586  2.3487  1.0495
  637SOL     MW 2548   2.882   1.551   0.645 -0.1974  0.3338  0.2759
  638SOL     OW 2549   2.781   0.499   0.583  0.6429 -0.1087  0.7540
  638SOL    HW1 2550   2.864   0.523   0.542 -0.6754  0.1209 -1.7479
  638SOL    HW2 2551   2.795   0.494   0.673 -0.0022  0.9777 -0.6680
  638SOL     MW 2552   2.794   0.502   0.589  0.3839  0.0649  0.2362
  639SOL     OW 2553   1.755   3.087   0.544 -0.1208 -0.4461  0.3881
  639SOL    HW1 2554   1.663   3.082   0.531  1.3699  3.1781 -1.1315
  639SOL    HW2 2555   1.793   3.007   0.507 -2.7555 -0.3146  1.8890
  639SOL     MW 2556   1.748   3.075   0.537 -0.2718  0.0494  0.3856
  640SOL     OW 2557   0.328   1.348   0.115 -0.2380  0.7610  0.1261
  640SOL    HW1 2558   0.353   1.327   0.025  0.9836  0.3180  0.3959
  640SOL    HW2 2559   0.346   1.258   0.159  1.0264 -0.4498 -0.8676
  640SOL     MW 2560   0.334   1.333   0.109  0.0900  0.5428  0.0306
  641SOL     OW 2561   2.118   0.403   0.373 -0.7361 -0.2666  0.0474
  641SOL    HW1 2562   2.184   0.370   0.309 -0.0414 -0.5829  1.6065
  641SOL    HW2 2563   2.128   0.352   0.450 -3.3202 -0.2111 -0.4087
  641SOL     MW 2564   2.128   0.392   0.375 -0.9854 -0.3010  0.1930
  642SOL     OW 2565   0.054   0.069   0.556 -0.2525 -0.2773  0.8483
  642SOL    HW1 2566   0.010   0.154   0.551  0.3770  3.2886 -2.0226
  642SOL    HW2 2567  -0.012  -0.002   0.562  0.9110 -0.8626  0.6242
  642SOL     MW 2568   0.039   0.071   0.556 -0.0160  0.1160  0.4399
  643SOL     OW 2569   2.063   0.315   1.647  0.0911  0.2789 -0.0853
  643SOL    HW1 2570   1.981   0.308   1.691  0.5065  0.0687  1.1708
  643SOL    HW2 2571   2.055   0.256   1.571 -1.7371 -0.1046  1.3061
  643SOL     MW 2572   2.051   0.306   1.642 -0.0953  0.2006  0.2640
  644SOL     OW 2573   2.676   1.894   0.996 -0.1206  0.0063  0.1929
  644SOL    HW1 2574   2.661   1.816   1.056 -1.4847 -1.3819 -1.0317
  644SOL    HW2 2575   2.602   1.949   0.986  0.2494  0.7735  0.5579
  644SOL     MW 2576   2.664   1.891   1.002 -0.2518 -0.0756  0.0795
  645SOL     OW 2577   2.821   0.841   0.696 -1.0379  0.5826 -0.3754
  645SOL    HW1 2578   2.912   0.820   0.723  3.0983  1.4586 -2.4595
  645SOL    HW2 2579   2.764   0.767   0.710  0.3437  1.2541 -1.7307
  645SOL     MW 2580   2.825   0.828   0.701 -0.3099  0.7868 -0.8292
  646SOL     OW 2581   0.126   2.278   0.833  0.4919 -0.2072 -0.6183
  646SOL    HW1 2582   0.143   2.183   0.841  0.4732 -0.0712  1.6740
  646SOL    HW2 2583   0.080   2.303   0.751  2.2911  0.9792  0.9578
  646SOL     MW 2584   0.122   2.269   0.823  0.7268 -0.0328 -0.1079
  647SOL     OW 2585   2.721   0.507   3.026  0.0079  0.0689  0.2143
  647SOL    HW1 2586   2.685   0.437   3.075 -0.0339 -1.8500  1.0467
  647SOL    HW2 2587   2.694   0.583   3.074 -0.1058  0.8922 -0.4800
  647SOL     MW 2588   2.713   0.508   3.038 -0.0126 -0.0757  0.2326
  648SOL     OW 2589   2.258   0.689   1.107 -0.1412 -0.6350  0.4138
  648SOL    HW1 2590   2.245   0.591   1.123 -1.8237 -0.0041 -0.2332
  648SOL    HW2 2591   2.177   0.729   1.136  0.9322  0.4122 -1.1274
  648SOL     MW 2592   2.246   0.681   1.113 -0.2216 -0.4136  0.1251
  649SOL     OW 2593   2.444   2.713   1.237 -0.1300  0.0036  0.1956
  649SOL    HW1 2594   2.529   2.765   1.238  0.7015  1.2721  0.2236
  649SOL    HW2 2595   2.473   2.622   1.227 -1.1955  1.5174 -2.8235
  649SOL     MW 2596   2.459   2.708   1.236 -0.1609  0.3707 -0.1990
  650SOL     OW 2597   2.762   0.222   0.663 -0.0217  0.0296 -0.4048
  650SOL    HW1 2598   2.758   0.312   0.631 -1.2230 -0.4962 -0.9436
  650SOL    HW2 2599   2.858   0.202   0.657 -0.7854 -0.8847  1.8185
  650SOL     MW 2600   2.774   0.231   0.658 -0.2809 -0.1604 -0.1825
  651SOL     OW 2601   0.005   0.459   1.007 -1.0256 -0.3599 -0.1855
  651SOL    HW1 2602   0.064   0.501   0.941 -0.7078  3.1936  0.6111
  651SOL    HW2 2603  -0.078   0.512   1.005  1.2235  0.0312 -1.7734
  651SOL     MW 2604   0.002   0.471   0.998 -0.6869  0.1605 -0.2899
  652SOL     OW 2605   2.364   1.400   3.010  0.2231 -0.2117  0.3408
  652SOL    HW1 2606   2.429   1.455   2.961 -0.9894  0.1594 -2.0315
  652SOL    HW2 2607   2.294   1.465   3.034  1.3906 -2.0241  1.2982
  652SOL     MW 2608   2.363   1.415   3.007  0.2172 -0.4018  0.1541
  653SOL     OW 2609   1.831   0.382   0.290  0.6946 -0.3830 -0.4091
  653SOL    HW1 2610   1.821   0.316   0.223  0.7799 -0.4394  0.7424
  653SOL    HW2 2611   1.923   0.391   0.321 -0.8294 -0.1252  2.0976
  653SOL     MW 2612   1.842   0.375   0.285  0.5048 -0.3564  0.0736
  654SOL     OW 2613   2.438   0.974   0.774  0.2957 -0.3315  0.5806
  654SOL    HW1 2614   2.375   0.964   0.696 -0.9832  1.1756 -0.0700
  654SOL    HW2 2615   2.468   0.883   0.782  2.3152  0.9759 -0.5806
  654SOL     MW 2616   2.434   0.960   0.765  0.3934  0.0399  0.3415
  655SOL     OW 2617   2.908   0.895   0.435 -0.0996  0.7844  0.6179
  655SOL    HW1 2618   2.858   0.896   0.516  1.0015  0.4772  0.7737
  655SOL    HW2 2619   2.948   0.808   0.427  1.5712  1.0493  0.3366
  655SOL     MW 2620   2.907   0.883   0.445  0.2662  0.7788  0.6013
  656SOL     OW 2621   1.803   2.626   1.408  0.2648 -0.0683  0.3569
  656SOL    HW1 2622   1.831   2.715   1.413 -0.0209 -0.7406 -0.1881
  656SOL    HW2 2623   1.862   2.581   1.345  2.4182 -0.2176  0.4065
  656SOL     MW 2624   1.814   2.632   1.401  0.5112 -0.1767  0.2916
  657SOL     OW 2625   0.076   1.822   1.237  0.0392  0.2931  0.5982
  657SOL    HW1 2626   0.150   1.881   1.235 -1.7480  0.1908 -0.6556
  657SOL    HW2 2627   0.113   1.738   1.256 -2.0214 -1.3374  0.4620
  657SOL     MW 2628   0.091   1.819   1.239 -0.4685  0.0644  0.4148
  658SOL     OW 2629   2.732   1.331   0.247 -0.2067 -0.1236 -0.4574
  658SOL    HW1 2630   2.714   1.253   0.303 -0.3846  1.9101 -0.3600
  658SOL    HW2 2631   2.736   1.411   0.309 -0.2466 -1.3003  3.3738
  658SOL     MW 2632   2.730   1.331   0.263 -0.2354 -0.0105  0.0610
  659SOL     OW 2633   2.181   1.515   1.011 -0.2103 -0.5206 -0.0741
  659SOL    HW1 2634   2.275   1.516   1.033 -3.0090  0.2351 -1.2786
  659SOL    HW2 2635   2.137   1.512   1.096  2.3440  0.6229 -1.4103
  659SOL     MW 2636   2.188   1.515   1.025 -0.2425 -0.2700 -0.4093
  660SOL     OW 2637   2.094   1.489   1.687  0.1318  0.9412  0.0272
  660SOL    HW1 2638   2.100   1.476   1.781 -3.1781 -0.0477  2.0232
  660SOL    HW2 2639   2.015   1.445   1.655  0.7179 -1.0734 -2.4301
  660SOL     MW 2640   2.085   1.481   1.695 -0.2276  0.5449 -0.0336
  661SOL     OW 2641   2.417   0.977   0.233 -0.0280  0.3726  0.5139
  661SOL    HW1 2642   2.490   1.022   0.266 -0.2820  2.0370 -1.0479
  661SOL    HW2 2643   2.441   0.883   0.243  1.9684 -3.0250  1.1968
  661SOL     MW 2644   2.429   0.971   0.238  0.2019  0.1439  0.3979
  662SOL     OW 2645   2.579   2.973   0.884 -0.4079  0.2247  0.4236
  662SOL    HW1 2646   2.502   3.022   0.926 -0.1947  1.6157  1.1880
  662SOL    HW2 2647   2.590   3.016   0.794  0.1728  1.4232 -0.8689
  662SOL     MW 2648   2.570   2.985   0.878 -0.3031  0.5664  0.3540
  663SOL     OW 2649   2.673   1.518   0.459 -0.3032 -0.1979  0.3032
  663SOL    HW1 2650   2.684   1.601   0.416 -0.8250  1.8401  1.2468
  663SOL    HW2 2651   2.745   1.520   0.525  2.2819 -1.3153  0.3331
  663SOL     MW 2652   2.684   1.529   0.462 -0.0310 -0.0764  0.4316
  664SOL     OW 2653   2.554   1.494   1.591  0.2155 -0.8681 -0.7878
  664SOL    HW1 2654   2.551   1.572   1.543  0.0812 -1.0569  2.2817
  664SOL    HW2 2655   2.466   1.469   1.592 -1.3194  1.7991  0.3955
  664SOL     MW 2656   2.542   1.501   1.585 -0.0048 -0.5411 -0.2267
  665SOL     OW 2657   2.818   0.783   2.089  0.3972  0.5388  0.2408
  665SOL    HW1 2658   2.803   0.841   2.012  0.5827  1.2826  1.8004
  665SOL    HW2 2659   2.907   0.742   2.078 -0.0406 -2.0057  0.0006
  665SOL     MW 2660   2.828   0.786   2.078  0.3639  0.3012  0.4149
  666SOL     OW 2661   2.747   3.021   1.691  0.0563 -0.0638 -0.3246
  666SOL    HW1 2662   2.751   3.041   1.599 -0.6237  0.5656  0.6243
  666SOL    HW2 2663   2.712   2.931   1.687  0.7769 -2.4546  0.7481
  666SOL     MW 2664   2.743   3.012   1.678  0.0616 -0.2962 -0.0579
  667SOL     OW 2665   1.975   2.702   1.751 -0.2070 -0.2421 -0.3819
  667SOL    HW1 2666   2.004   2.672   1.839  0.3489  1.0715 -0.5855
  667SOL    HW2 2667   2.048   2.763   1.719 -0.3411  1.3285  1.2242
  667SOL     MW 2668   1.988   2.706   1.759 -0.1514  0.1385 -0.1969
  668SOL     OW 2669   2.759   0.541   0.852 -0.1059  0.4963  0.4102
  668SOL    HW1 2670   2.810   0.603   0.913  1.7025  2.3951  3.4346
  668SOL    HW2 2671   2.685   0.589   0.820  0.7721 -2.2053  1.4052
  668SOL     MW 2672   2.756   0.555   0.856  0.2485  0.3904  0.9405
  669SOL     OW 2673   0.154   0.970   0.726  0.0188  0.8391 -0.3356
  669SOL    HW1 2674   0.095   1.022   0.782 -2.8973 -0.9309  1.4266
  669SOL    HW2 2675   0.187   0.919   0.798 -3.4423 -0.4247 -1.0719
  669SOL     MW 2676   0.150   0.970   0.743 -0.8226  0.4388 -0.2002
  670SOL     OW 2677   2.904   0.322   0.202  0.0195  0.4379  0.5517
  670SOL    HW1 2678   2.917   0.264   0.126 -1.6490  1.7226 -2.0973
  670SOL    HW2 2679   2.908   0.414   0.171  1.8207 -1.2700  1.0495
  670SOL     MW 2680   2.906   0.327   0.188  0.0370  0.3821  0.2679
  671SOL     OW 2681   2.024   3.023   1.558  0.1850 -0.2708 -0.0730
  671SOL    HW1 2682   1.979   2.992   1.478  0.8508  1.2181  1.1164
  671SOL    HW2 2683   1.958   3.035   1.630  0.4158 -0.0007 -1.1892
  671SOL     MW 2684   2.009   3.020   1.557  0.3033 -0.0387 -0.0634
  672SOL     OW 2685   1.798   1.734   1.283 -0.1524 -0.4096  0.3657
  672SOL    HW1 2686   1.808   1.806   1.350 -0.7027  1.1269 -0.2909
  672SOL    HW2 2687   1.862   1.770   1.219 -0.4021 -0.7111  1.8632
  672SOL     MW 2688   1.808   1.748   1.284 -0.2580 -0.2467  0.4767
  673SOL     OW 2689   2.738   1.096   0.590 -0.2738  0.4387  0.2603
  673SOL    HW1 2690   2.750   1.017   0.646  4.2232 -1.0469  1.6095
  673SOL    HW2 2691   2.830   1.137   0.590  0.8785 -1.1909  0.4251
  673SOL     MW 2692   2.752   1.091   0.598  0.4715  0.0277  0.4601
  674SOL     OW 2693   2.487   0.031   1.255  0.2750  0.2828 -0.3189
  674SOL    HW1 2694   2.439   0.034   1.170  1.1602  1.6466 -0.0738
  674SOL    HW2 2695   2.541  -0.048   1.252  2.3408  3.6594 -2.0307
  674SOL     MW 2696   2.488   0.021   1.243  0.6643  0.9082 -0.5124
  675SOL     OW 2697   2.980   0.926   1.056  0.5376 -0.0719 -0.1716
  675SOL    HW1 2698   3.039   0.925   1.131 -0.5472 -0.8771  1.5078
  675SOL    HW2 2699   3.020   0.986   0.997 -1.7672 -1.6780  1.1340
  675SOL     MW 2700   2.993   0.934   1.058  0.0904 -0.3900  0.2222
  676SOL     OW 2701   2.917   1.475   1.700 -0.2787 -0.1610  0.2317
  676SOL    HW1 2702   2.859   1.409   1.665 -0.1468  1.1079  2.0780
  676SOL    HW2 2703   2.930   1.432   1.781  1.3289 -4.0149 -0.2499
  676SOL     MW 2704   2.911   1.461   1.706 -0.0492 -0.5021  0.4118
  677SOL     OW 2705   2.376   0.534   2.036  0.7201 -0.1401 -0.1517
  677SOL    HW1 2706   2.335   0.500   1.955  1.4482  2.6485  0.7474
  677SOL    HW2 2707   2.346   0.625   2.052  0.7920  1.5778  0.1492
  677SOL     MW 2708   2.367   0.541   2.027  0.8256  0.4545  0.0066
  678SOL     OW 2709   2.417   1.650   0.281 -0.1903 -0.6367 -0.4948
  678SOL    HW1 2710   2.324   1.663   0.319 -0.4363  0.1843  0.8233
  678SOL    HW2 2711   2.428   1.571   0.215 -0.3365 -1.2359  0.2505
  678SOL     MW 2712   2.406   1.641   0.277 -0.2420 -0.6074 -0.2225
  679SOL     OW 2713   2.240   0.435   1.236 -0.0507 -0.2065 -0.4404
  679SOL    HW1 2714   2.295   0.360   1.251 -0.6387 -0.1156  0.3293
  679SOL    HW2 2715   2.170   0.414   1.297  1.1892  3.0855  0.3589
  679SOL     MW 2716   2.238   0.422   1.246  0.0353  0.2399 -0.2334
  680SOL     OW 2717   2.322   0.134   1.465  1.2210 -0.5257 -0.1727
  680SOL    HW1 2718   2.228   0.132   1.446 -1.1636  0.1930 -0.6776
  680SOL    HW2 2719   2.358   0.094   1.389 -2.0493  2.6962  2.3159
  680SOL     MW 2720   2.315   0.129   1.452  0.4749 -0.0058  0.0890
  681SOL     OW 2721   0.228   0.542   1.495 -0.1256  0.4049  0.2825
  681SOL    HW1 2722   0.217   0.484   1.570 -1.7043 -4.1552  0.7152
  681SOL    HW2 2723   0.218   0.481   1.418 -0.7973  1.8962 -0.4624
  681SOL     MW 2724   0.225   0.527   1.495 -0.4225 -0.0000  0.2413
  682SOL     OW 2725   0.124   2.887   1.492 -0.1987  0.6616 -0.1304
  682SOL    HW1 2726   0.194   2.950   1.521  1.1280  0.1079  0.2833
  682SOL    HW2 2727   0.054   2.907   1.557  0.8549  0.7747 -1.4674
  682SOL     MW 2728   0.124   2.898   1.504  0.1153  0.6035 -0.2522
  683SOL     OW 2729   2.066   0.841   2.977 -0.6685 -0.3387  0.0275
  683SOL    HW1 2730   2.007   0.771   2.990  1.7656  1.0619  1.1302
  683SOL    HW2 2731   2.030   0.919   3.021  0.8519  1.2473 -1.5853
  683SOL     MW 2732   2.054   0.842   2.985 -0.1468  0.0554 -0.0398
  684SOL     OW 2733   2.146   1.710   0.675 -0.4658  0.6297 -0.4737
  684SOL    HW1 2734   2.106   1.713   0.587  0.4375 -1.2318  1.6784
  684SOL    HW2 2735   2.152   1.619   0.706  0.2965  0.9305  0.0395
  684SOL     MW 2736   2.142   1.698   0.668 -0.2460  0.4238 -0.1220
  685SOL     OW 2737   2.714   1.663   1.177 -0.2410  0.3639 -0.4456
  685SOL    HW1 2738   2.740   1.696   1.260 -0.0837 -0.7735  1.4772
  685SOL    HW2 2739   2.708   1.572   1.186 -3.3886  0.9362  0.3993
  685SOL     MW 2740   2.717   1.655   1.189 -0.6355  0.2893 -0.0804
  686SOL     OW 2741   2.895   0.670   1.584  0.4471 -0.8530  0.9992
  686SOL    HW1 2742   2.908   0.649   1.677  0.0324 -1.8662 -0.6004
  686SOL    HW2 2743   2.978   0.710   1.565  3.7449 -2.1767  1.3528
  686SOL     MW 2744   2.908   0.673   1.594  0.8275 -1.1613  0.8348
  687SOL     OW 2745   2.152   0.169   1.166  0.2409 -0.1315 -0.3870
  687SOL    HW1 2746   2.199   0.113   1.101  1.9459  0.9158 -0.2059
  687SOL    HW2 2747   2.108   0.249   1.120 -1.4414  1.3345 -1.7050
  687SOL     MW 2748   2.152   0.172   1.151  0.2439  0.2001 -0.5370
  688SOL     OW 2749   2.390   0.594   1.392  0.3625 -0.4701 -0.3834
  688SOL    HW1 2750   2.340   0.533   1.342 -1.1241  0.3611  0.5500
  688SOL    HW2 2751   2.322   0.621   1.458  1.8694 -2.7204 -0.7920
  688SOL     MW 2752   2.375   0.590   1.394  0.3652 -0.6573 -0.3142
  689SOL     OW 2753   2.468   0.782   2.940  0.4423  0.7550 -0.1220
  689SOL    HW1 2754   2.408   0.855   2.930  0.8269 -1.4053 -0.9814
  689SOL    HW2 2755   2.505   0.807   3.025  0.5607  1.0093  0.4076
  689SOL     MW 2756   2.465   0.795   2.950  0.5086  0.5035 -0.1655
  690SOL     OW 2757   2.023   0.905   1.887 -0.1308 -0.1753 -0.1007
  690SOL    HW1 2758   1.997   0.815   1.894 -0.2694  1.3891 -1.2092
  690SOL    HW2 2759   2.032   0.922   1.792  1.3129 -0.9570  1.5241
  690SOL     MW 2760   2.021   0.895   1.875  0.0414 -0.0720 -0.0326
  691SOL     OW 2761   2.417   0.245   0.851 -0.2450  0.4820  0.1392
  691SOL    HW1 2762   2.504   0.272   0.901 -1.9493  0.4096  1.8185
  691SOL    HW2 2763   2.356   0.316   0.874 -1.1845 -0.9905 -1.8694
  691SOL     MW 2764   2.420   0.258   0.861 -0.5938  0.2781  0.0957
  692SOL     OW 2765   2.886   1.590   1.411  0.2028 -0.0398  0.2507
  692SOL    HW1 2766   2.836   1.576   1.488 -1.0761  0.8182  0.6098
  692SOL    HW2 2767   2.924   1.678   1.417  1.0033 -1.6664  0.8833
  692SOL     MW 2768   2.885   1.600   1.422  0.1397 -0.1412  0.3815
  693SOL     OW 2769   2.314   0.421   0.090 -0.2402 -0.6413 -0.3002
  693SOL    HW1 2770   2.233   0.368   0.086  1.2287 -0.9555 -0.5999
  693SOL    HW2 2771   2.288   0.510   0.105 -2.4038 -0.2315 -2.3864
  693SOL     MW 2772   2.300   0.426   0.092 -0.3319 -0.6287 -0.6150
  694SOL     OW 2773   1.889   1.118   1.073 -0.3671  0.7254  0.1272
  694SOL    HW1 2774   1.988   1.118   1.097  1.9821 -2.1717 -0.7567
  694SOL    HW2 2775   1.855   1.040   1.126 -2.5062 -3.0309  0.1244
  694SOL     MW 2776   1.898   1.108   1.083 -0.3394 -0.1525  0.0102
  695SOL     OW 2777   2.970   1.368   1.284 -0.1365 -0.2723 -0.4578
  695SOL    HW1 2778   2.932   1.393   1.198 -2.7339 -0.1574 -3.5298
  695SOL    HW2 2779   2.960   1.459   1.328  0.8019  0.2562  0.2608
  695SOL     MW 2780   2.964   1.383   1.278 -0.3554 -0.1874 -0.7683
  696SOL     OW 2781   2.102   1.432   0.761  0.2027 -0.0839  0.4750
  696SOL    HW1 2782   2.123   1.454   0.850 -2.0578 -0.3344  0.6344
  696SOL    HW2 2783   2.057   1.347   0.777  2.4566  0.9888  0.6022
  696SOL     MW 2784   2.099   1.424   0.775  0.2018  0.0246  0.5128
  697SOL     OW 2785   2.881   0.987   2.258  0.3706  0.7021  0.0355
  697SOL    HW1 2786   2.806   1.036   2.277  3.6003 -2.4530  1.2288
  697SOL    HW2 2787   2.856   0.914   2.192  1.0206 -0.4219  0.1608
  697SOL     MW 2788   2.868   0.984   2.252  0.8825  0.1375  0.2095
  698SOL     OW 2789   2.576   0.275   0.019  0.0110 -0.3007 -0.1062
  698SOL    HW1 2790   2.501   0.324   0.056  0.5247  0.9667 -0.0798
  698SOL    HW2 2791   2.631   0.265   0.104  0.7783 -0.1792 -0.3120
  698SOL     MW 2792   2.574   0.280   0.035  0.1800 -0.1174 -0.1299
  699SOL     OW 2793   1.930   1.630   2.088  0.3268  0.2420  0.0902
  699SOL    HW1 2794   1.864   1.571   2.045  0.1614 -2.7561 -2.9528
  699SOL    HW2 2795   2.012   1.580   2.065  0.8193 -0.0795 -4.6548
  699SOL     MW 2796   1.932   1.615   2.079  0.3700 -0.1960 -0.9373
  700SOL     OW 2797   2.709   0.878   1.574 -0.1416 -0.7929 -0.1862
  700SOL    HW1 2798   2.729   0.951   1.506 -1.4104 -1.0791 -1.6346
  700SOL    HW2 2799   2.783   0.813   1.573  1.7114  0.5091  0.4497
  700SOL     MW 2800   2.721   0.879   1.565 -0.0645 -0.6588 -0.2934
  701SOL     OW 2801   1.679   1.168   2.505 -0.4625  0.1848  0.4117
  701SOL    HW1 2802   1.756   1.136   2.551  0.9365 -0.8532 -0.4060
  701SOL    HW2 2803   1.634   1.236   2.551  2.4113 -0.4848 -0.0127
  701SOL     MW 2804   1.683   1.173   2.517  0.1013 -0.0405  0.2478
  702SOL     OW 2805   2.162   0.436   0.829  0.4354  0.1802 -0.2323
  702SOL    HW1 2806   2.130   0.359   0.783 -0.1448  1.3196 -0.4829
  702SOL    HW2 2807   2.236   0.468   0.780 -0.6407  2.4744  1.0529
  702SOL     MW 2808   2.167   0.430   0.817  0.2169  0.6333 -0.0958
  703SOL     OW 2809   2.725   1.236   0.979 -0.0525 -0.2744 -0.3379
  703SOL    HW1 2810   2.677   1.221   0.899  0.9083  1.1817 -1.7460
  703SOL    HW2 2811   2.706   1.162   1.032  0.3346 -0.8693 -2.1128
  703SOL     MW 2812   2.716   1.225   0.975  0.1254 -0.1608 -0.7578
  704SOL     OW 2813   3.043   1.274   0.137  0.4254 -0.1973 -0.8593
  704SOL    HW1 2814   2.945   1.278   0.115 -1.1514  0.7221 -1.8829
  704SOL    HW2 2815   3.048   1.235   0.226  0.9173  1.2705  1.0004
  704SOL     MW 2816   3.031   1.270   0.146  0.2823  0.1177 -0.7490
  705SOL     OW 2817   2.120   1.601   1.289 -0.2022 -0.4541 -0.0145
  705SOL    HW1 2818   2.085   1.626   1.380 -1.4876 -2.3484 -1.4329
  705SOL    HW2 2819   2.165   1.522   1.310  0.8954 -1.7126 -0.7019
  705SOL     MW 2820   2.122   1.594   1.304 -0.2270 -0.8701 -0.2924
  706SOL     OW 2821   2.954   1.255   0.642  0.0798  0.0309  0.9133
  706SOL    HW1 2822   2.991   1.253   0.550  0.5314 -0.0162  0.1112
  706SOL    HW2 2823   2.938   1.355   0.656  3.9081 -1.3330 -0.4852
  706SOL     MW 2824   2.957   1.268   0.632  0.6445 -0.1553  0.6229
  707SOL     OW 2825   2.342   0.002   0.989  0.1860 -0.1686 -0.4353
  707SOL    HW1 2826   2.344   0.076   0.924 -0.8863 -3.2427 -1.3426
  707SOL    HW2 2827   2.262  -0.044   0.956  2.3445 -0.4084 -0.8251
  707SOL     MW 2828   2.332   0.006   0.976  0.3293 -0.6058 -0.6065
  708SOL     OW 2829   2.466   1.395   0.164  0.4990 -0.1679 -0.1475
  708SOL    HW1 2830   2.556   1.368   0.188 -0.3904  1.1583  0.4565
  708SOL    HW2 2831   2.437   1.356   0.082 -0.3766  1.4254 -1.2229
  708SOL     MW 2832   2.474   1.386   0.156  0.2661  0.2173 -0.2097
  709SOL     OW 2833   1.710   1.629   0.216 -0.0741 -0.3293  0.2262
  709SOL    HW1 2834   1.709   1.642   0.123  0.0063 -0.7364  0.8961
  709SOL    HW2 2835   1.624   1.650   0.243 -1.8009  2.5721 -1.4608
  709SOL     MW 2836   1.699   1.633   0.207 -0.2913 -0.0002  0.0920
  710SOL     OW 2837   2.145   1.174   1.171  0.0552  0.4467  0.0320
  710SOL    HW1 2838   2.201   1.161   1.093 -3.2169 -1.7796 -0.9856
  710SOL    HW2 2839   2.173   1.106   1.237  1.5271 -0.9715  1.6131
  710SOL     MW 2840   2.156   1.164   1.169 -0.1823 -0.0341  0.1063
  711SOL     OW 2841   2.369   0.130   1.799  0.4875  0.7150  0.0117
  711SOL    HW1 2842   2.458   0.114   1.822  0.5307  1.3220 -0.6276
  711SOL    HW2 2843   2.364   0.140   1.703  1.7227 -2.0524  0.6525
  711SOL     MW 2844   2.380   0.129   1.789  0.6562  0.4299  0.0119
  712SOL     OW 2845   1.897   0.628   3.063 -0.1964  0.2762 -0.0285
  712SOL    HW1 2846   1.812   0.670   3.047 -1.7348 -0.9668 -0.7713
  712SOL    HW2 2847   1.921   0.628   3.151  0.1744 -1.0401 -0.8237
  712SOL     MW 2848   1.889   0.634   3.072 -0.3504 -0.0615 -0.2314
  713SOL     OW 2849   2.551   0.710   1.086 -0.0110 -0.0797 -0.2803
  713SOL    HW1 2850   2.588   0.629   1.120 -2.1471  0.9658 -1.0561
  713SOL    HW2 2851   2.469   0.713   1.129  1.4588  1.7491  2.4664
  713SOL     MW 2852   2.545   0.700   1.096 -0.0990  0.2995 -0.0203
  714SOL     OW 2853   2.205   0.213   2.007  0.2260  0.3369  0.5144
  714SOL    HW1 2854   2.246   0.159   2.073 -0.4604  0.8959 -1.3105
  714SOL    HW2 2855   2.263   0.209   1.925  0.6959 -0.3841 -1.8145
  714SOL     MW 2856   2.218   0.205   2.005  0.1975  0.3155 -0.0337
  715SOL     OW 2857   1.817   2.050   1.747 -0.0909 -0.1862  0.4188
  715SOL    HW1 2858   1.902   2.084   1.729  0.2340  0.3081 -2.2696
  715SOL    HW2 2859   1.826   1.960   1.791  1.3598 -1.1770 -1.8897
  715SOL     MW 2860   1.829   2.043   1.751  0.1434 -0.2517 -0.2405
  716SOL     OW 2861   2.332   0.548   0.659  0.5404 -0.1177  0.3985
  716SOL    HW1 2862   2.385   0.491   0.602 -2.5378  1.5475 -0.6472
  716SOL    HW2 2863   2.292   0.614   0.592  3.2689  3.3608 -0.8919
  716SOL     MW 2864   2.334   0.549   0.643  0.4943  0.5609  0.0903
  717SOL     OW 2865   2.828   1.629   2.894  0.1839 -0.4902 -0.2962
  717SOL    HW1 2866   2.914   1.613   2.945  2.2112  0.1448 -2.2318
  717SOL    HW2 2867   2.767   1.706   2.932 -0.0282  1.0716  0.0225
  717SOL     MW 2868   2.831   1.637   2.906  0.4234 -0.2003 -0.5095
  718SOL     OW 2869   2.675   1.382   1.323 -0.5017 -0.5028 -0.1705
  718SOL    HW1 2870   2.668   1.380   1.420  1.2753  1.4395 -0.1167
  718SOL    HW2 2871   2.751   1.326   1.303  2.4325  0.4767 -0.6675
  718SOL     MW 2872   2.684   1.375   1.333  0.1199 -0.1173 -0.2290
  719SOL     OW 2873   2.190   1.261   0.581  0.2978  0.3547  0.1399
  719SOL    HW1 2874   2.270   1.288   0.534  2.1189  0.7672  0.1327
  719SOL    HW2 2875   2.173   1.328   0.662  0.0912  1.9283  0.3268
  719SOL     MW 2876   2.198   1.273   0.586  0.5108  0.6167  0.1636
  720SOL     OW 2877   2.784   1.167   0.028  0.0261  0.7325 -0.1247
  720SOL    HW1 2878   2.777   1.081   0.073 -0.5873  0.0498 -0.6981
  720SOL    HW2 2879   2.759   1.232   0.094  0.0198  0.7092 -3.2021
  720SOL     MW 2880   2.780   1.164   0.043 -0.0557  0.6393 -0.6064
  721SOL     OW 2881   2.481   0.848   1.391 -0.2016 -0.1861 -0.4524
  721SOL    HW1 2882   2.466   0.755   1.397 -0.0343  2.1565 -3.3534
  721SOL    HW2 2883   2.555   0.860   1.446  1.9600 -1.4299  1.1489
  721SOL     MW 2884   2.489   0.838   1.399  0.1057 -0.0411 -0.6239
  722SOL     OW 2885   2.593   1.130   0.368 -0.8912  0.5188 -0.5504
  722SOL    HW1 2886   2.546   1.197   0.410 -0.1211  1.7170  0.7016
  722SOL    HW2 2887   2.639   1.091   0.450 -2.1336  1.3919 -0.1708
  722SOL     MW 2888   2.593   1.134   0.385 -0.9535  0.7921 -0.3351
  723SOL     OW 2889   2.317   1.349   1.582  0.1529 -0.4975 -0.1631
  723SOL    HW1 2890   2.284   1.343   1.490 -3.1264 -1.3338  0.3398
  723SOL    HW2 2891   2.250   1.404   1.621 -1.4618 -2.1630 -2.8961
  723SOL     MW 2892   2.304   1.355   1.575 -0.4928 -0.8276 -0.4573
  724SOL     OW 2893   2.484   0.313   0.595  0.1752 -0.1505  0.2298
  724SOL    HW1 2894   2.447   0.290   0.680 -1.3222 -0.8757  0.3647
  724SOL    HW2 2895   2.563   0.260   0.585  1.1791  1.1548 -0.3582
  724SOL     MW 2896   2.489   0.303   0.605  0.1101 -0.0739  0.1700
  725SOL     OW 2897   2.592   0.419   1.221 -0.0374 -0.1883  0.0021
  725SOL    HW1 2898   2.628   0.472   1.288  0.5779  0.5175  0.4039
  725SOL    HW2 2899   2.630   0.336   1.238  0.1722  0.7166  0.0468
  725SOL     MW 2900   2.602   0.415   1.232  0.0714  0.0242  0.0610
  726SOL     OW 2901   2.532   2.527   0.520  0.0349  0.1402 -0.4373
  726SOL    HW1 2902   2.509   2.612   0.478  0.6218  0.4899 -0.9149
  726SOL    HW2 2903   2.501   2.527   0.610 -1.3818  0.7651 -1.5634
  726SOL     MW 2904   2.525   2.538   0.526 -0.0746  0.2688 -0.6489
  727SOL     OW 2905   2.850   0.337   1.761 -0.0550 -0.0340 -0.2212
  727SOL    HW1 2906   2.786   0.343   1.683 -1.0367 -1.1325 -1.7034
  727SOL    HW2 2907   2.805   0.319   1.844  1.7567  0.7808 -0.4938
  727SOL     MW 2908   2.836   0.336   1.762  0.0545 -0.0714 -0.4527
  728SOL     OW 2909   2.850   1.167   2.868  0.1082  0.3430  0.2878
  728SOL    HW1 2910   2.842   1.230   2.795 -0.5469 -1.8830  2.1574
  728SOL    HW2 2911   2.819   1.216   2.947 -1.6989  2.5850  0.2492
  728SOL     MW 2912   2.845   1.182   2.869 -0.2166  0.3451  0.5294
  729SOL     OW 2913   2.459   1.465   1.138  0.9625 -0.0380 -0.7334
  729SOL    HW1 2914   2.536   1.444   1.186 -0.7911  1.3785  0.9219
  729SOL    HW2 2915   2.478   1.454   1.040  2.0308  0.9788 -1.4894
  729SOL     MW 2916   2.471   1.461   1.131  0.8721  0.2831 -0.6147
  730SOL     OW 2917   2.228   1.189   0.290 -0.5240 -0.0257 -0.4319
  730SOL    HW1 2918   2.308   1.137   0.273  1.6625  0.2983 -0.4881
  730SOL    HW2 2919   2.251   1.274   0.257 -0.9966 -1.6215  1.7065
  730SOL     MW 2920   2.241   1.193   0.284 -0.2979 -0.1935 -0.1572
  731SOL     OW 2921   2.783   2.073   2.865 -0.1663  0.2639 -0.0765
  731SOL    HW1 2922   2.717   2.043   2.799 -2.8872  1.1607 -0.1016
  731SOL    HW2 2923   2.858   2.016   2.872  0.1175 -0.1869  0.4098
  731SOL     MW 2924   2.784   2.062   2.857 -0.4879  0.3227 -0.0156
  732SOL     OW 2925   2.215   0.976   1.318 -0.4483  0.6943  0.1025
  732SOL    HW1 2926   2.175   0.951   1.404  1.4238 -1.6015  0.8138
  732SOL    HW2 2927   2.296   0.932   1.333  0.5997 -0.4381 -2.7973
  732SOL     MW 2928   2.220   0.967   1.332 -0.0630  0.2420 -0.1862
  733SOL     OW 2929   2.388   2.819   3.022  0.0313 -0.1716  0.0584
  733SOL    HW1 2930   2.307   2.866   3.055 -0.4520  0.1880  0.3092
  733SOL    HW2 2931   2.358   2.726   3.003 -1.6612 -0.2410 -0.5821
  733SOL     MW 2932   2.373   2.813   3.024 -0.2558 -0.1333  0.0070
  734SOL     OW 2933   1.532   0.264   2.529  0.5016 -0.1944 -0.3532
  734SOL    HW1 2934   1.472   0.229   2.595 -0.2537 -1.7498 -0.1033
  734SOL    HW2 2935   1.523   0.204   2.457  1.7678  0.1175  0.4648
  734SOL     MW 2936   1.523   0.251   2.528  0.5690 -0.3585 -0.2123
  735SOL     OW 2937   2.957   0.938   2.658  0.9727  0.3019  0.0444
  735SOL    HW1 2938   2.951   0.840   2.648  1.8217  0.6452 -0.6428
  735SOL    HW2 2939   2.971   0.961   2.752 -0.2058  1.2658 -0.1953
  735SOL     MW 2940   2.958   0.928   2.669  0.9292  0.4744 -0.0779
  736SOL     OW 2941   0.088   0.616   2.588  0.4286 -0.5411  0.2189
  736SOL    HW1 2942   0.089   0.683   2.516  1.3207  0.5090 -0.3596
  736SOL    HW2 2943   0.106   0.542   2.530  0.8089 -0.7996 -0.9983
  736SOL     MW 2944   0.091   0.615   2.571  0.5965 -0.4366 -0.0180
  737SOL     OW 2945   2.921   0.664   2.641  0.2849  0.7999 -0.3411
  737SOL    HW1 2946   2.889   0.629   2.561  0.2288  1.2077 -0.4629
  737SOL    HW2 2947   3.018   0.649   2.632 -2.3054 -1.2295  2.7739
  737SOL     MW 2948   2.930   0.657   2.629 -0.0643  0.5860  0.0538
  738SOL     OW 2949   0.194   0.582   1.902 -0.5797 -0.4857 -0.3898
  738SOL    HW1 2950   0.289   0.604   1.911  1.0882 -1.2409 -0.7231
  738SOL    HW2 2951   0.188   0.528   1.824 -0.5332 -0.6247  0.5720
  738SOL     MW 2952   0.205   0.578   1.893 -0.3535 -0.6037 -0.3069
  739SOL     OW 2953   2.468   1.011   2.077 -0.3139 -0.2253  0.4380
  739SOL    HW1 2954   2.483   0.925   2.049  0.4000  0.4147 -1.4235
  739SOL    HW2 2955   2.440   1.056   1.996 -3.2531 -1.8287  0.1210
  739SOL     MW 2956   2.466   1.006   2.062 -0.6075 -0.3524  0.1506
  740SOL     OW 2957   0.130   1.817   2.922 -0.3362  0.4188  0.2165
  740SOL    HW1 2958   0.092   1.730   2.944 -0.8011 -0.7874  1.1895
  740SOL    HW2 2959   0.222   1.812   2.954 -2.7010 -0.1693  1.5470
  740SOL     MW 2960   0.137   1.805   2.929 -0.7096  0.1821  0.5204
  741SOL     OW 2961   2.227   1.198   2.711  0.3911  0.5374 -0.0161
  741SOL    HW1 2962   2.172   1.260   2.665  1.2379  1.5890 -2.2128
  741SOL    HW2 2963   2.170   1.174   2.789 -1.4808  1.2293 -1.5415
  741SOL     MW 2964   2.212   1.203   2.715  0.2559  0.7675 -0.5072
  742SOL     OW 2965   1.705   1.252   2.243  0.2572  0.0709  0.0413
  742SOL    HW1 2966   1.615   1.221   2.226 -0.8095 -2.8176  1.7573
  742SOL    HW2 2967   1.724   1.239   2.335  0.9098  1.2820 -1.1521
  742SOL     MW 2968   1.695   1.246   2.253  0.2026 -0.1504  0.1102
  743SOL     OW 2969   2.501   1.255   2.708  0.2439 -0.2465 -0.5109
  743SOL    HW1 2970   2.411   1.262   2.742 -2.1876  0.4972 -0.0780
  743SOL    HW2 2971   2.556   1.175   2.727  1.6935 -0.4120  0.4633
  743SOL     MW 2972   2.497   1.245   2.715  0.1144 -0.1702 -0.3253
  744SOL     OW 2973   2.798   0.945   1.854  0.2000  0.3365 -0.1133
  744SOL    HW1 2974   2.725   1.011   1.863 -2.5605  0.3475  3.5317
  744SOL    HW2 2975   2.785   0.893   1.775 -0.2056 -0.8154  1.0740
  744SOL     MW 2976   2.787   0.947   1.845 -0.2177  0.1860  0.5243
  745SOL     OW 2977   1.725   0.457   2.482 -0.5635  0.0662  0.0417
  745SOL    HW1 2978   1.710   0.501   2.397 -0.9914 -0.2792  0.2007
  745SOL    HW2 2979   1.650   0.395   2.478 -0.5079  1.4880 -0.5930
  745SOL     MW 2980   1.714   0.454   2.470 -0.6126  0.2082 -0.0211
  746SOL     OW 2981   1.586   1.453   1.665 -0.3285 -0.2408  0.2899
  746SOL    HW1 2982   1.679   1.437   1.659 -3.2614 -1.0476  1.1084
  746SOL    HW2 2983   1.560   1.439   1.760 -2.4118 -1.1372  0.6128
  746SOL     MW 2984   1.595   1.449   1.677 -0.9903 -0.4655  0.4405
  747SOL     OW 2985   2.586   1.117   1.806  0.1903  0.0609  0.3462
  747SOL    HW1 2986   2.503   1.104   1.758  1.4487 -1.6562  0.2268
  747SOL    HW2 2987   2.569   1.185   1.872 -1.9257  1.6129  0.0511
  747SOL     MW 2988   2.573   1.124   1.809  0.0772  0.0391  0.2915
  748SOL     OW 2989   0.089   0.007   1.919 -0.2913  0.0968 -0.0826
  748SOL    HW1 2990   0.167   0.044   1.884  1.8268  0.8668 -0.9760
  748SOL    HW2 2991   0.061   0.085   1.975  1.2637  2.5438  2.6807
  748SOL     MW 2992   0.095   0.022   1.922  0.1933  0.5212  0.1641
  749SOL     OW 2993   2.483   0.592   2.734  0.1428 -0.2276  0.2623
  749SOL    HW1 2994   2.494   0.650   2.656 -1.1997  2.2322 -0.6744
  749SOL    HW2 2995   2.499   0.646   2.811 -0.9651  2.0128 -3.1383
  749SOL     MW 2996   2.486   0.607   2.734 -0.1805  0.3926 -0.3100
  750SOL     OW 2997   2.048   3.073   1.970  0.0766  0.5571  0.3811
  750SOL    HW1 2998   2.087   3.157   1.958 -0.8163 -0.4278 -0.0877
  750SOL    HW2 2999   2.115   3.008   1.982 -1.5833  0.2378 -0.0733
  750SOL     MW 3000   2.062   3.076   1.970 -0.2602  0.3850  0.2593
  751SOL     OW 3001   0.098   0.412   2.388  0.4929  0.1847  0.6018
  751SOL    HW1 3002   0.079   0.330   2.430  0.4965  1.8137 -0.4699
  751SOL    HW2 3003   0.176   0.387   2.335  0.3019  0.2036  3.4183
  751SOL     MW 3004   0.106   0.398   2.387  0.4682  0.4021  0.8320
  752SOL     OW 3005   2.129   0.748   2.721 -0.3843 -0.4395  0.4517
  752SOL    HW1 3006   2.183   0.817   2.676  0.1952  1.1553  0.4756
  752SOL    HW2 3007   2.123   0.764   2.814  0.7208  0.7141  0.2463
  752SOL     MW 3008   2.135   0.759   2.727 -0.1620 -0.0769  0.4277
  753SOL     OW 3009   2.898   0.232   2.442 -0.2184  0.1223 -0.2238
  753SOL    HW1 3010   2.828   0.178   2.402 -2.4197  1.6430 -1.8476
  753SOL    HW2 3011   2.858   0.313   2.430  1.3133  1.0037 -1.6364
  753SOL     MW 3012   2.883   0.235   2.435 -0.3067  0.4392 -0.6244
  754SOL     OW 3013   2.234   2.970   2.587  0.3408  0.3818  0.3181
  754SOL    HW1 3014   2.239   2.939   2.498 -2.9377  1.2156 -0.1380
  754SOL    HW2 3015   2.301   2.933   2.651 -1.8134 -2.1025  0.1078
  754SOL     MW 3016   2.243   2.961   2.583 -0.3760  0.1641  0.2302
  755SOL     OW 3017   2.706   1.521   2.465 -1.0526  0.2734 -0.2514
  755SOL    HW1 3018   2.726   1.425   2.491  0.8938 -0.8254 -2.5758
  755SOL    HW2 3019   2.777   1.562   2.522 -2.1683 -0.1240  1.6604
  755SOL     MW 3020   2.718   1.514   2.476 -0.9430  0.0760 -0.3058
  756SOL     OW 3021   2.182   1.176   2.989  0.2184 -0.1680  0.5594
  756SOL    HW1 3022   2.242   1.256   2.986  0.0975  0.9793  1.3334
  756SOL    HW2 3023   2.242   1.109   3.017 -2.0375 -1.2547  0.3376
  756SOL     MW 3024   2.198   1.178   2.992 -0.0952 -0.1600  0.6323
  757SOL     OW 3025   2.101   0.911   1.627 -0.2092  0.1673  0.3104
  757SOL    HW1 3026   2.129   0.819   1.613  0.2560 -0.2820 -0.3438
  757SOL    HW2 3027   2.015   0.916   1.575  1.2697 -1.0306 -2.0739
  757SOL     MW 3028   2.093   0.899   1.618  0.0473 -0.0501 -0.0905
  758SOL     OW 3029   2.235   1.795   2.610  0.1505  0.8380 -0.4484
  758SOL    HW1 3030   2.228   1.807   2.521  1.0860  0.9515  1.6352
  758SOL    HW2 3031   2.330   1.757   2.611  3.0858 -3.1289  0.2771
  758SOL     MW 3032   2.247   1.792   2.598  0.6612  0.3296 -0.0778
  759SOL     OW 3033   1.549   1.365   2.666 -0.0106  0.0265  0.2488
  759SOL    HW1 3034   1.556   1.439   2.606 -0.4109 -0.6112 -0.3843
  759SOL    HW2 3035   1.615   1.387   2.735  0.7443  0.5055  0.7205
  759SOL     MW 3036   1.559   1.378   2.667  0.0362  0.0056  0.2275
  760SOL     OW 3037   2.580   1.992   2.703 -0.0212 -0.5323 -0.2250
  760SOL    HW1 3038   2.557   1.898   2.707 -2.3265 -0.0012  1.8906
  760SOL    HW2 3039   2.559   2.030   2.624  2.0901 -0.0422  3.4304
  760SOL     MW 3040   2.574   1.985   2.693 -0.0468 -0.3976  0.5364
  761SOL     OW 3041   2.193   0.339   2.431 -0.0422 -0.7679  0.1718
  761SOL    HW1 3042   2.118   0.279   2.409 -0.2668 -0.3363  0.7945
  761SOL    HW2 3043   2.187   0.338   2.527  1.1759  0.0425 -1.2730
  761SOL     MW 3044   2.182   0.331   2.441  0.0888 -0.6040  0.0633
  762SOL     OW 3045   0.028   0.195   2.117 -0.8068  0.0663 -0.4067
  762SOL    HW1 3046  -0.012   0.142   2.181 -3.0586  0.1179  0.7263
  762SOL    HW2 3047  -0.023   0.275   2.122  2.6003 -0.7269 -0.0598
  762SOL     MW 3048   0.016   0.199   2.126 -0.6544 -0.0316 -0.2115
  763SOL     OW 3049   2.345   1.014   2.347  0.0282 -0.6990 -0.3108
  763SOL    HW1 3050   2.361   0.996   2.250  0.3180  2.4230 -0.2875
  763SOL    HW2 3051   2.423   1.079   2.359 -0.8843  0.3744  1.4782
  763SOL     MW 3052   2.357   1.020   2.336 -0.0539 -0.1454 -0.0717
  764SOL     OW 3053   0.489   0.225   2.800  0.0025  0.2991 -0.3386
  764SOL    HW1 3054   0.410   0.176   2.779 -0.8099 -3.2301 -0.9337
  764SOL    HW2 3055   0.465   0.319   2.790  3.2446 -0.6596 -1.3335
  764SOL     MW 3056   0.476   0.231   2.796  0.3231 -0.2930 -0.5484
  765SOL     OW 3057   2.752   3.096   2.352 -0.2975 -0.3008  0.0214
  765SOL    HW1 3058   2.695   3.092   2.270  0.4783 -0.9763  1.0157
  765SOL    HW2 3059   2.786   3.003   2.362 -1.4179 -1.9814 -2.1652
  765SOL     MW 3060   2.749   3.083   2.342 -0.3430 -0.6117 -0.1359
  766SOL     OW 3061   1.864   2.968   2.157  0.0051 -0.0118 -0.2556
  766SOL    HW1 3062   1.921   3.008   2.100 -0.0174  0.5775  1.3422
  766SOL    HW2 3063   1.796   2.921   2.106  0.5515 -2.1441  0.3631
  766SOL     MW 3064   1.862   2.967   2.142  0.0742 -0.2154  0.0369
  767SOL     OW 3065   2.661   0.562   2.012 -0.0776  0.0006  0.5311
  767SOL    HW1 3066   2.695   0.620   2.081  1.1734  1.0123  0.1706
  767SOL    HW2 3067   2.565   0.564   2.002 -0.0766  0.8163 -1.3269
  767SOL     MW 3068   2.653   0.570   2.020  0.0876  0.2417  0.2384
  768SOL     OW 3069   3.080   1.586   2.973 -0.0826  0.8580 -0.0699
  768SOL    HW1 3070   3.109   1.552   3.066 -0.3496 -0.7791  1.2786
  768SOL    HW2 3071   3.088   1.514   2.915  2.6394  2.9890  5.2574
  768SOL     MW 3072   3.085   1.572   2.978  0.2413  0.9232  0.8109
  769SOL     OW 3073   2.431   0.692   2.318  0.0137  0.4891 -0.0224
  769SOL    HW1 3074   2.333   0.689   2.313  0.4990 -0.4809 -3.7571
  769SOL    HW2 3075   2.462   0.607   2.281 -0.4188  0.5553 -0.1728
  769SOL     MW 3076   2.422   0.680   2.313  0.0206  0.3699 -0.5350
  770SOL     OW 3077   0.061   1.586   2.606 -0.6666 -0.4272  0.2075
  770SOL    HW1 3078  -0.036   1.607   2.605  0.7953 -1.8936  2.1814
  770SOL    HW2 3079   0.072   1.530   2.682  0.3072  2.3588 -0.9444
  770SOL     MW 3080   0.050   1.581   2.616 -0.3452 -0.2531  0.3160
  771SOL     OW 3081   3.064   0.662   2.012  0.7375 -0.4924 -0.0126
  771SOL    HW1 3082   2.996   0.657   1.945 -0.5267  3.1762  0.2579
  771SOL    HW2 3083   3.149   0.639   1.970 -3.5738  0.5435 -2.3950
  771SOL     MW 3084   3.067   0.659   1.997  0.0019  0.1283 -0.2913
  772SOL     OW 3085   3.092   3.102   2.326 -0.0318 -0.4486 -0.2816
  772SOL    HW1 3086   3.008   3.056   2.316 -0.1895  0.2463  1.0717
  772SOL    HW2 3087   3.159   3.036   2.295  4.0732 -0.2081  0.5209
  772SOL     MW 3088   3.089   3.087   2.321  0.4890 -0.3252  0.0028
  773SOL     OW 3089   2.431   2.845   2.753 -0.5460  0.4799  0.2583
  773SOL    HW1 3090   2.438   2.752   2.743  0.2667 -0.2050  0.4599
  773SOL    HW2 3091   2.405   2.849   2.847  1.3140 -1.7554 -1.0565
  773SOL     MW 3092   2.429   2.833   2.764 -0.1934  0.0946  0.1114
  774SOL     OW 3093   2.297   1.073   1.739  0.1696  0.2012 -0.2183
  774SOL    HW1 3094   2.313   1.141   1.671  1.4038  1.6766 -0.3878
  774SOL    HW2 3095   2.222   1.021   1.692  0.8233  0.6160 -2.7197
  774SOL     MW 3096   2.289   1.075   1.724  0.4186  0.4506 -0.5707
  775SOL     OW 3097   2.279   2.873   2.306  0.3680  0.0192 -0.4476
  775SOL    HW1 3098   2.323   2.959   2.285 -0.9547  1.3104  0.4105
  775SOL    HW2 3099   2.349   2.804   2.281  1.3630  0.5898 -0.1479
  775SOL     MW 3100   2.294   2.875   2.300  0.3247  0.2648 -0.2948
  776SOL     OW 3101   0.103   1.481   0.095 -0.2466 -0.0167 -0.0541
  776SOL    HW1 3102   0.197   1.446   0.086 -2.7884  1.3939  0.7104
  776SOL    HW2 3103   0.053   1.394   0.098 -1.0542 -0.7784  1.2804
  776SOL     MW 3104   0.109   1.465   0.094 -0.6885  0.0689  0.2229
  777SOL     OW 3105   2.934   1.162   1.755 -0.1622 -0.0766 -0.4682
  777SOL    HW1 3106   2.861   1.200   1.703  0.9285 -1.8477 -1.9136
  777SOL    HW2 3107   2.891   1.082   1.790 -1.2706  3.6288  2.1417
  777SOL     MW 3108   2.919   1.156   1.752 -0.1645  0.1786 -0.3146
  778SOL     OW 3109   2.894   0.472   2.818  0.3647  0.5939 -0.2901
  778SOL    HW1 3110   2.832   0.497   2.889  0.7813 -1.0082  2.6006
  778SOL    HW2 3111   2.899   0.549   2.760 -0.2492 -0.5337  0.2952
  778SOL     MW 3112   2.886   0.486   2.820  0.3386  0.2338  0.1685
  779SOL     OW 3113   2.158   0.613   2.354 -0.5323  0.0223  0.0630
  779SOL    HW1 3114   2.111   0.662   2.422 -2.9031 -1.4548  4.5950
  779SOL    HW2 3115   2.169   0.531   2.404 -0.7476  1.8615 -0.7478
  779SOL     MW 3116   2.153   0.609   2.370 -0.8735  0.0701  0.5540
  780SOL     OW 3117   0.240   0.096   2.778  0.4803  0.1232  0.6729
  780SOL    HW1 3118   0.172   0.140   2.833  2.0249  0.2263 -1.5613
  780SOL    HW2 3119   0.210   0.113   2.688  0.0819  2.6400  0.8278
  780SOL     MW 3120   0.227   0.104   2.774  0.6315  0.4689  0.3986
  781SOL     OW 3121   3.072   1.282   2.504  0.0845  0.0619  0.1638
  781SOL    HW1 3122   3.075   1.336   2.426 -0.8756  0.7637  0.1173
  781SOL    HW2 3123   3.113   1.199   2.477 -0.1650 -1.4261 -1.6048
  781SOL     MW 3124   3.078   1.278   2.490 -0.0751 -0.0418 -0.0757
  782SOL     OW 3125   0.516   1.562   2.990 -0.5750  1.5546 -0.0557
  782SOL    HW1 3126   0.460   1.639   3.014 -0.4226 -0.3895 -0.3508
  782SOL    HW2 3127   0.550   1.532   3.078 -0.8909 -1.1901  3.1538
  782SOL     MW 3128   0.513   1.569   3.005 -0.5966  0.9359  0.3288
  783SOL     OW 3129   2.807   0.479   2.466  0.0424 -0.2299 -0.3998
  783SOL    HW1 3130   2.749   0.481   2.387  3.3152  0.6258 -0.3355
  783SOL    HW2 3131   2.739   0.468   2.534  0.2562 -1.0359 -2.5797
  783SOL     MW 3132   2.790   0.478   2.464  0.5024 -0.2234 -0.6789
  784SOL     OW 3133   0.233   0.900   2.903  0.1741 -0.6090 -0.4304
  784SOL    HW1 3134   0.201   0.982   2.957 -0.3401  1.4997  1.6127
  784SOL    HW2 3135   0.221   0.927   2.810  0.7368 -0.7478  0.9962
  784SOL     MW 3136   0.227   0.915   2.898  0.1805 -0.3491  0.0274
  785SOL     OW 3137   0.452   0.518   2.161  0.0187 -0.3516 -0.5293
  785SOL    HW1 3138   0.458   0.573   2.083 -0.8719 -1.0140  0.9960
  785SOL    HW2 3139   0.369   0.467   2.164  0.4825  1.6301  0.7904
  785SOL     MW 3140   0.442   0.518   2.151 -0.0376 -0.1775 -0.1540
  786SOL     OW 3141   1.996   0.481   2.845  0.7183  0.3780  0.4750
  786SOL    HW1 3142   1.977   0.518   2.936  0.8233 -3.8353  0.6521
  786SOL    HW2 3143   2.086   0.464   2.816 -1.7344  0.2081  1.0306
  786SOL     MW 3144   2.005   0.483   2.853  0.4086 -0.2003  0.5716
  787SOL     OW 3145   2.445   0.110   2.904 -0.3707 -0.0654 -0.1929
  787SOL    HW1 3146   2.507   0.067   2.841 -1.6781 -0.4668 -1.1982
  787SOL    HW2 3147   2.500   0.186   2.943  0.6999  0.5907 -0.3183
  787SOL     MW 3148   2.460   0.114   2.901 -0.4020 -0.0318 -0.3421
  788SOL     OW 3149   2.907   2.862   2.334  0.5184  0.1757 -0.4881
  788SOL    HW1 3150   2.899   2.784   2.282  3.9594  1.7447  0.8796
  788SOL    HW2 3151   2.988   2.841   2.395  2.1132 -0.2351 -0.7561
  788SOL     MW 3152   2.917   2.849   2.335  1.1829  0.3285 -0.3430
  789SOL     OW 3153   0.082   0.234   2.953 -0.1687 -0.1181  0.6112
  789SOL    HW1 3154  -0.006   0.196   2.952 -3.2803  0.2387 -1.2348
  789SOL    HW2 3155   0.073   0.327   2.973 -0.2389  0.9977  1.2014
  789SOL     MW 3156   0.069   0.241   2.956 -0.5885  0.0762  0.4455
  790SOL     OW 3157   0.015   1.020   2.450  0.3023 -0.4768  0.5778
  790SOL    HW1 3158  -0.044   0.990   2.526 -1.9924  0.4363  0.8365
  790SOL    HW2 3159  -0.030   1.014   2.361 -1.6248  1.1230 -2.4307
  790SOL     MW 3160   0.002   1.015   2.448 -0.2547 -0.1453  0.2150
  791SOL     OW 3161   2.656   0.399   2.689  0.1493  0.1690  0.4410
  791SOL    HW1 3162   2.592   0.475   2.705  1.1309  1.0556 -0.2793
  791SOL    HW2 3163   2.728   0.421   2.749 -1.8762 -0.0661  0.5280
  791SOL     MW 3164   2.657   0.412   2.699  0.0116  0.2550  0.3574
  792SOL     OW 3165   2.424   0.253   2.355 -0.5828  0.3820 -0.2978
  792SOL    HW1 3166   2.343   0.289   2.400 -0.7151  2.2461  1.7597
  792SOL    HW2 3167   2.462   0.201   2.432  0.1001 -0.1141  2.0575
  792SOL     MW 3168   2.418   0.251   2.371 -0.5102  0.5625  0.2844
  793SOL     OW 3169   1.786   1.011   1.908 -0.4502 -0.2636 -0.0458
  793SOL    HW1 3170   1.777   1.026   1.817  2.4172 -2.5569  0.6785
  793SOL    HW2 3171   1.882   0.979   1.915  1.7155 -0.6649  0.8993
  793SOL     MW 3172   1.798   1.009   1.897  0.2138 -0.6191  0.1745
  794SOL     OW 3173   1.429   2.246   0.099 -0.4812 -0.0512 -0.4453
  794SOL    HW1 3174   1.445   2.320   0.034 -1.7412 -0.2038 -1.7456
  794SOL    HW2 3175   1.465   2.276   0.183  0.0428 -1.2081  1.4345
  794SOL     MW 3176   1.436   2.260   0.102 -0.5783 -0.2240 -0.3688
  795SOL     OW 3177   2.240   0.950   2.589 -0.5645 -0.1476 -0.9492
  795SOL    HW1 3178   2.228   1.042   2.610  1.6309  0.6993  0.8858
  795SOL    HW2 3179   2.273   0.961   2.499 -1.4944 -1.0613  0.3551
  795SOL     MW 3180   2.243   0.964   2.580 -0.3975 -0.1564 -0.5350
  796SOL     OW 3181   0.324   0.699   2.756  0.3354  0.5075 -0.3056
  796SOL    HW1 3182   0.297   0.765   2.822  1.6251  0.5357  0.7517
  796SOL    HW2 3183   0.247   0.667   2.703  0.5198 -0.7990  3.8360
  796SOL     MW 3184   0.310   0.704   2.757  0.5299  0.3388  0.3804
  797SOL     OW 3185   2.609   0.138   2.549 -0.0718 -0.0314  0.1404
  797SOL    HW1 3186   2.641   0.228   2.558  0.4169 -4.6799 -0.3977
  797SOL    HW2 3187   2.647   0.096   2.471  0.9130 -1.4972  1.6001
  797SOL     MW 3188   2.618   0.144   2.540  0.1226 -0.8381  0.2620
  798SOL     OW 3189   2.343   0.024   2.209 -0.0730  0.3303  0.1349
  798SOL    HW1 3190   2.369   0.101   2.260 -2.2702 -4.1195 -1.3931
  798SOL    HW2 3191   2.430  -0.016   2.183  0.6725  0.5476  0.5929
  798SOL     MW 3192   2.358   0.029   2.212 -0.2645 -0.2281 -0.0062
  799SOL     OW 3193   2.448   2.941   0.195  0.0615 -0.2205  0.1908
  799SOL    HW1 3194   2.427   2.883   0.121 -0.5083 -0.2851  2.1661
  799SOL    HW2 3195   2.408   3.022   0.172  1.4497 -1.6143 -3.3220
  799SOL     MW 3196   2.440   2.944   0.182  0.1695 -0.4129 -0.0121
  800SOL     OW 3197   1.859   3.065   1.778  0.2207 -0.0912 -0.0869
  800SOL    HW1 3198   1.828   2.974   1.764 -1.4657  1.6393  0.7528
  800SOL    HW2 3199   1.934   3.061   1.837 -0.0998  1.4014  0.8576
  800SOL     MW 3200   1.865   3.053   1.784 -0.0441  0.3340  0.1485
  801SOL     OW 3201   2.805   1.300   2.624  0.1562  0.6907  0.1388
  801SOL    HW1 3202   2.765   1.208   2.610  0.0113 -0.2047 -1.0940
  801SOL    HW2 3203   2.889   1.302   2.574 -0.2108 -0.6597  1.9530
  801SOL     MW 3204   2.811   1.288   2.616  0.0887  0.3944  0.2155
  802SOL     OW 3205   2.543   1.502   2.827  0.1088 -0.1170  0.1864
  802SOL    HW1 3206   2.544   1.417   2.777 -0.4091 -1.5497 -0.1245
  802SOL    HW2 3207   2.634   1.534   2.838  3.4359  4.3918  0.3662
  802SOL     MW 3208   2.555   1.495   2.822  0.4794  0.2889  0.1691
  803SOL     OW 3209   2.306   1.265   1.960  0.1887 -0.3790  0.3079
  803SOL    HW1 3210   2.275   1.231   2.047  0.2952  0.8494  0.9407
  803SOL    HW2 3211   2.271   1.208   1.898 -1.1284 -0.5103  1.7075
  803SOL     MW 3212   2.298   1.253   1.963  0.0289 -0.2342  0.5761
  804SOL     OW 3213   2.301   0.075   0.035  0.0841  0.3650 -0.5169
  804SOL    HW1 3214   2.230   0.134   0.032 -0.7244 -1.2470  0.3068
  804SOL    HW2 3215   2.339   0.091  -0.050  0.5098 -0.3457 -1.2289
  804SOL     MW 3216   2.297   0.085   0.024  0.0336  0.0585 -0.5022
  805SOL     OW 3217   2.724   1.053   2.599  0.0841 -0.3439 -0.4088
  805SOL    HW1 3218   2.668   0.980   2.615 -1.0320  2.4141  1.6148
  805SOL    HW2 3219   2.812   1.013   2.613 -0.9205  1.4189  1.0824
  805SOL     MW 3220   2.728   1.038   2.603 -0.1957  0.2526  0.0550
  806SOL     OW 3221   2.624   0.415   2.274  0.3395 -0.1922  0.2363
  806SOL    HW1 3222   2.544   0.359   2.298 -0.1524  0.7303 -2.3574
  806SOL    HW2 3223   2.650   0.371   2.191 -2.5356 -0.7863 -2.7019
  806SOL     MW 3224   2.617   0.402   2.267 -0.1048 -0.1489 -0.4936
  807SOL     OW 3225   3.074   1.106   2.112  0.0345  0.0390 -0.4290
  807SOL    HW1 3226   3.128   1.028   2.093  2.8501  0.1288 -0.9772
  807SOL    HW2 3227   2.991   1.078   2.153 -1.8654  0.6296 -0.8729
  807SOL     MW 3228   3.070   1.092   2.115  0.1553  0.1288 -0.5599
  808SOL     OW 3229   2.622   3.036   2.775 -0.0549 -0.3976 -0.0883
  808SOL    HW1 3230   2.562   2.964   2.764 -0.5504  0.2275  0.7205
  808SOL    HW2 3231   2.629   3.080   2.687  0.1363 -1.8591  1.9188
  808SOL     MW 3232   2.615   3.032   2.762 -0.0951 -0.5080  0.2832
  809SOL     OW 3233   2.506   1.223   2.397 -0.5513  0.0128 -0.1641
  809SOL    HW1 3234   2.532   1.235   2.495 -1.0656  1.8764  2.0458
  809SOL    HW2 3235   2.591   1.199   2.357  0.0765  0.2858  3.3431
  809SOL     MW 3236   2.521   1.221   2.405 -0.5363  0.2947  0.5902
  810SOL     OW 3237   2.205   1.188   2.187  0.2517  0.4181 -0.8675
  810SOL    HW1 3238   2.246   1.132   2.256 -3.3029 -1.5352  1.0761
  810SOL    HW2 3239   2.125   1.143   2.169  2.6268  0.0028 -0.1210
  810SOL     MW 3240   2.200   1.175   2.194  0.0961  0.1056 -0.5126
  811SOL     OW 3241   1.530   0.113   2.287 -0.5320  0.1561  0.3191
  811SOL    HW1 3242   1.593   0.037   2.318 -0.2759 -0.1740  0.1492
  811SOL    HW2 3243   1.531   0.122   2.187  0.9059  0.2077 -3.5485
  811SOL     MW 3244   1.538   0.104   2.278 -0.3085  0.1193 -0.2136
  812SOL     OW 3245   1.415   2.785   2.052 -0.4086 -0.0759  0.3331
  812SOL    HW1 3246   1.500   2.809   2.023 -1.1641 -1.0742  1.5445
  812SOL    HW2 3247   1.424   2.753   2.144  0.9314 -0.2700  0.5115
  812SOL     MW 3248   1.427   2.784   2.061 -0.3315 -0.2332  0.5165
  813SOL     OW 3249   1.842   0.743   2.180  0.0732 -0.0246 -0.3994
  813SOL    HW1 3250   1.794   0.660   2.175  1.9458  0.4514  1.3403
  813SOL    HW2 3251   1.861   0.754   2.275 -0.1622 -0.4322 -0.0437
  813SOL     MW 3252   1.838   0.733   2.192  0.2892 -0.0156 -0.1229
  814SOL     OW 3253   2.738   1.263   1.586  0.0534  0.4389  0.1440
  814SOL    HW1 3254   2.649   1.233   1.607 -2.0681  0.4121  2.4356
  814SOL    HW2 3255   2.758   1.203   1.517 -1.1773  0.5002  1.1029
  814SOL     MW 3256   2.729   1.251   1.580 -0.3889  0.4434  0.5729
  815SOL     OW 3257   2.494   1.669   2.394  0.2518  0.1757 -0.4322
  815SOL    HW1 3258   2.419   1.618   2.358 -2.3586 -1.1864 -1.0777
  815SOL    HW2 3259   2.572   1.612   2.381  0.0855  0.1874  2.6054
  815SOL     MW 3260   2.494   1.655   2.388 -0.1145 -0.0025 -0.1166
  816SOL     OW 3261   0.692   0.632   2.749 -0.8925 -0.1805  0.1933
  816SOL    HW1 3262   0.717   0.554   2.797  1.9437 -0.2934  2.4201
  816SOL    HW2 3263   0.615   0.598   2.699 -1.7114 -2.6865 -2.4721
  816SOL     MW 3264   0.685   0.617   2.749 -0.6264 -0.5261  0.1354
  817SOL     OW 3265   3.012   1.139   1.423 -0.5392  0.3241  0.2662
  817SOL    HW1 3266   3.060   1.154   1.507 -1.9808  3.2112 -1.9888
  817SOL    HW2 3267   3.004   1.227   1.379 -2.3432 -1.4382  2.9456
  817SOL     MW 3268   3.017   1.153   1.428 -0.9674  0.4725  0.3222
  818SOL     OW 3269   1.917   1.015   2.738  0.1631 -0.3823  0.2886
  818SOL    HW1 3270   1.962   1.041   2.656  0.6119  2.8777  1.8954
  818SOL    HW2 3271   1.964   0.946   2.776 -1.6193 -1.0444 -1.9284
  818SOL     MW 3272   1.929   1.010   2.732 -0.0129 -0.0396  0.2081
  819SOL     OW 3273   1.850   0.230   2.411 -0.5504  0.3384 -0.5872
  819SOL    HW1 3274   1.812   0.310   2.441  0.4832  1.3352 -1.2839
  819SOL    HW2 3275   1.901   0.203   2.495  0.0180  2.6948  3.1439
  819SOL     MW 3276   1.852   0.237   2.426 -0.3390  0.7808 -0.1869
  820SOL     OW 3277   2.500   1.729   2.666  0.3424 -0.0879 -0.2508
  820SOL    HW1 3278   2.499   1.661   2.735 -0.8837  0.1257  2.5583
  820SOL    HW2 3279   2.524   1.693   2.586 -2.9949  1.0274 -0.9156
  820SOL     MW 3280   2.503   1.716   2.665 -0.2597  0.0874  0.0321
  821SOL     OW 3281   2.591   1.364   1.995  0.0152  0.1350  0.2519
  821SOL    HW1 3282   2.630   1.435   1.947  0.5076 -0.7247  2.3356
  821SOL    HW2 3283   2.497   1.382   2.000  0.6647 -0.9098  1.4803
  821SOL     MW 3284   2.583   1.376   1.989  0.1659 -0.1163  0.6889
  822SOL     OW 3285   2.856   2.680   1.431  0.0091 -0.5828 -0.4737
  822SOL    HW1 3286   2.895   2.761   1.447  0.7715 -0.3928  1.1380
  822SOL    HW2 3287   2.784   2.702   1.375  0.2939 -0.2327  0.1590
  822SOL     MW 3288   2.852   2.693   1.425  0.1473 -0.5115 -0.1776
  823SOL     OW 3289   2.291   0.477   1.794 -0.3846 -0.3461  0.0721
  823SOL    HW1 3290   2.361   0.460   1.730  1.0083  0.0084 -0.8012
  823SOL    HW2 3291   2.218   0.422   1.777  2.6559 -0.4685  1.7261
  823SOL     MW 3292   2.291   0.467   1.783  0.2004 -0.3155  0.1751
  824SOL     OW 3293   2.094   1.353   2.507  0.5896 -0.9690  0.4985
  824SOL    HW1 3294   2.183   1.366   2.461 -2.6314 -1.5775 -0.6902
  824SOL    HW2 3295   2.059   1.434   2.541 -0.0266 -2.4792 -1.1657
  824SOL     MW 3296   2.101   1.365   2.506  0.0833 -1.2485  0.1221
  825SOL     OW 3297   2.151   2.488   0.400  0.3457 -0.2976  0.4151
  825SOL    HW1 3298   2.224   2.509   0.348  0.5294  0.6418 -0.9996
  825SOL    HW2 3299   2.183   2.469   0.492 -1.8007 -1.7318  2.7438
  825SOL     MW 3300   2.165   2.489   0.405  0.0867 -0.3629  0.5357
  826SOL     OW 3301   1.785   2.375   0.456 -0.1760 -0.3470 -0.5476
  826SOL    HW1 3302   1.780   2.302   0.514 -1.6095  1.7484  0.4232
  826SOL    HW2 3303   1.785   2.451   0.511  3.2906  2.7214 -2.0016
  826SOL     MW 3304   1.785   2.375   0.471  0.0922  0.3343 -0.6113
  827SOL     OW 3305   1.933   2.245   0.892 -0.0297  0.0460  0.0460
  827SOL    HW1 3306   1.869   2.214   0.828  0.5142  1.2409 -0.5264
  827SOL    HW2 3307   1.909   2.202   0.971  3.5699 -0.1620  0.5487
  827SOL     MW 3308   1.921   2.235   0.894  0.5170  0.1762  0.0368
  828SOL     OW 3309   0.074   2.640   0.558 -0.5192  0.3929  0.8235
  828SOL    HW1 3310   0.165   2.665   0.583  0.4926  0.3810  0.8879
  828SOL    HW2 3311   0.054   2.702   0.489 -0.1025 -0.3668 -1.2361
  828SOL     MW 3312   0.083   2.652   0.552 -0.3308  0.2911  0.5603
  829SOL     OW 3313   3.018   2.895   1.186  0.0297  0.0207 -0.2942
  829SOL    HW1 3314   2.951   2.893   1.125  0.6963  0.0511  1.8589
  829SOL    HW2 3315   3.059   2.811   1.180  0.8431  3.3885 -1.3519
  829SOL     MW 3316   3.014   2.883   1.177  0.2250  0.4690 -0.1497
  830SOL     OW 3317   2.550   2.805   2.031  0.3259 -0.3051  0.5596
  830SOL    HW1 3318   2.458   2.829   2.006 -3.0559  2.2837  0.8928
  830SOL    HW2 3319   2.598   2.786   1.952 -1.5387  1.5351 -1.0611
  830SOL     MW 3320   2.544   2.805   2.018 -0.3663  0.2792  0.3898
  831SOL     OW 3321   2.491   2.447   1.195  0.2636 -0.0928 -0.4510
  831SOL    HW1 3322   2.462   2.379   1.251  0.9849 -1.9740  1.4106
  831SOL    HW2 3323   2.585   2.421   1.181  1.7791  0.3460  1.4900
  831SOL     MW 3324   2.499   2.435   1.200  0.5587 -0.2831  0.0508
  832SOL     OW 3325   2.438   2.115   1.795  0.4265  0.2413  0.1819
  832SOL    HW1 3326   2.455   2.202   1.846  0.3756 -0.4705  1.1807
  832SOL    HW2 3327   2.522   2.095   1.754 -0.6990 -1.6492  0.8624
  832SOL     MW 3328   2.451   2.124   1.796  0.2713 -0.1020  0.4035
  833SOL     OW 3329   1.732   2.585   0.919 -0.6765  0.2653 -0.5560
  833SOL    HW1 3330   1.684   2.502   0.948  2.4243  5.4967 -0.4768
  833SOL    HW2 3331   1.688   2.657   0.960  0.3102 -2.0658  0.4295
  833SOL     MW 3332   1.720   2.584   0.929 -0.1372  0.6480 -0.4155
  834SOL     OW 3333   2.290   2.343   0.641 -0.0532  0.4980  0.2813
  834SOL    HW1 3334   2.238   2.263   0.621 -0.7477 -1.0624  2.1760
  834SOL    HW2 3335   2.389   2.324   0.632 -0.0001 -0.8673 -0.3660
  834SOL     MW 3336   2.297   2.330   0.637 -0.1378  0.1120  0.4459
  835SOL     OW 3337   1.827   2.571   0.651 -0.8530 -0.1744  0.0301
  835SOL    HW1 3338   1.786   2.590   0.736  0.2214  1.4680 -0.8798
  835SOL    HW2 3339   1.912   2.539   0.684 -1.7067 -3.7794  1.4521
  835SOL     MW 3340   1.833   2.569   0.666 -0.8239 -0.4333  0.0977
  836SOL     OW 3341   2.050   2.171   1.653  0.2540 -0.5173  0.3136
  836SOL    HW1 3342   2.129   2.116   1.623  0.0641  0.2113  0.4468
  836SOL    HW2 3343   2.093   2.252   1.680  2.0726 -1.6094 -0.4470
  836SOL     MW 3344   2.066   2.175   1.652  0.4689 -0.5652  0.2308
  837SOL     OW 3345   2.087   0.188   0.679  0.3549 -0.5516 -0.5116
  837SOL    HW1 3346   2.007   0.215   0.634  4.0154  0.4228  1.8663
  837SOL    HW2 3347   2.134   0.131   0.620  0.8065 -0.5338  3.5141
  837SOL     MW 3348   2.082   0.184   0.665  0.8975 -0.4207  0.3333
  838SOL     OW 3349   2.865   2.101   0.957  0.2317  0.0957 -0.5443
  838SOL    HW1 3350   2.798   2.037   0.967  0.3447  1.0496  0.5713
  838SOL    HW2 3351   2.937   2.069   1.007 -0.5118  0.5361  0.7757
  838SOL     MW 3352   2.866   2.089   0.965  0.1485  0.2796 -0.2229
  839SOL     OW 3353   1.545   2.388   0.983  0.2590 -0.4164  0.3098
  839SOL    HW1 3354   1.509   2.481   1.010  1.6159 -2.3833  1.1678
  839SOL    HW2 3355   1.569   2.349   1.061 -0.9911  0.1347 -4.0155
  839SOL     MW 3356   1.543   2.395   0.997  0.2731 -0.6032 -0.1477
  840SOL     OW 3357   2.342   2.108   2.433  0.5920 -0.5500 -0.0785
  840SOL    HW1 3358   2.280   2.166   2.378  0.1650  0.9968 -0.3176
  840SOL    HW2 3359   2.390   2.175   2.488  3.3270  1.6810 -2.0538
  840SOL     MW 3360   2.340   2.125   2.433  0.8965 -0.0515 -0.3706
  841SOL     OW 3361   2.288   2.388   0.057  0.7677  0.0558  0.3219
  841SOL    HW1 3362   2.283   2.465  -0.005  0.7300  3.6698  0.6518
  841SOL    HW2 3363   2.212   2.331   0.034  0.6378  2.2267 -2.8736
  841SOL     MW 3364   2.277   2.390   0.045  0.7456  0.8190 -0.0562
  842SOL     OW 3365   2.683   1.988   1.414  0.9667 -0.3825 -0.0751
  842SOL    HW1 3366   2.615   1.919   1.417  1.9817 -0.6904  0.0186
  842SOL    HW2 3367   2.648   2.045   1.337 -2.7871  0.0632 -3.9725
  842SOL     MW 3368   2.670   1.986   1.404  0.6053 -0.3643 -0.5770
  843SOL     OW 3369   2.651   2.776   1.756  0.2996 -0.2997 -0.3560
  843SOL    HW1 3370   2.736   2.730   1.761 -0.1236 -1.3717  0.3416
  843SOL    HW2 3371   2.591   2.703   1.737 -0.8646  2.5338 -0.0940
  843SOL     MW 3372   2.655   2.760   1.754  0.0902 -0.0673 -0.2294
  844SOL     OW 3373   2.745   2.325   1.148  0.0253  0.2936  0.0530
  844SOL    HW1 3374   2.777   2.365   1.065  1.6389  0.8841  0.0419
  844SOL    HW2 3375   2.798   2.352   1.217 -2.0495 -2.2526 -1.4017
  844SOL     MW 3376   2.756   2.334   1.147 -0.0355  0.0356 -0.1404
  845SOL     OW 3377   2.852   2.596   0.293 -0.6567 -0.0305 -0.1364
  845SOL    HW1 3378   2.836   2.503   0.312  1.9883 -1.7558  0.7849
  845SOL    HW2 3379   2.872   2.632   0.383  1.1260 -2.2389 -0.7244
  845SOL     MW 3380   2.853   2.589   0.308 -0.0725 -0.5495 -0.0924
  846SOL     OW 3381   1.474   2.818   0.826 -0.4669  0.3920 -0.7133
  846SOL    HW1 3382   1.562   2.852   0.822  0.4726  0.6150  0.4315
  846SOL    HW2 3383   1.408   2.884   0.802 -1.2706  1.6132  0.2318
  846SOL     MW 3384   1.477   2.831   0.822 -0.4490  0.5826 -0.4376
  847SOL     OW 3385   2.488   1.893   0.162  0.6199  0.2190 -0.3721
  847SOL    HW1 3386   2.462   1.800   0.199  1.9747 -2.6630 -0.2758
  847SOL    HW2 3387   2.454   1.882   0.070  0.3300  1.1062  1.3682
  847SOL     MW 3388   2.480   1.879   0.154  0.7604 -0.0442 -0.1298
  848SOL     OW 3389   2.578   2.116   1.182  0.0604 -0.0081 -0.1330
  848SOL    HW1 3390   2.637   2.189   1.163  1.1673 -0.8563 -4.5370
  848SOL    HW2 3391   2.617   2.038   1.143 -0.8784 -0.1777 -1.6739
  848SOL     MW 3392   2.591   2.115   1.175  0.0826 -0.1424 -0.9174
  849SOL     OW 3393   2.001   2.815   0.782  0.5704  0.9617 -0.2626
  849SOL    HW1 3394   1.981   2.771   0.869  0.2741  1.0096  1.8978
  849SOL    HW2 3395   2.080   2.768   0.759 -2.8160 -1.2439  0.4827
  849SOL     MW 3396   2.009   2.803   0.791  0.0845  0.6770  0.1208
  850SOL     OW 3397   2.337   1.807   1.627  0.9089  0.5236  0.3014
  850SOL    HW1 3398   2.264   1.763   1.585 -0.5904 -1.0792  0.6526
  850SOL    HW2 3399   2.308   1.899   1.630 -2.0401 -0.6782  1.0453
  850SOL     MW 3400   2.324   1.813   1.622  0.3220  0.1536  0.4459
  851SOL     OW 3401   2.376   2.327   0.315  0.2444 -0.9108 -0.3859
  851SOL    HW1 3402   2.377   2.349   0.223 -0.1547 -1.0759 -0.6159
  851SOL    HW2 3403   2.426   2.398   0.363  1.3862 -0.7677 -0.1511
  851SOL     MW 3404   2.383   2.339   0.309  0.3424 -0.9137 -0.3853
  852SOL     OW 3405   2.338   2.046   0.328 -0.3380 -0.0670  0.5949
  852SOL    HW1 3406   2.370   2.136   0.335  1.3031 -0.4330  0.3591
  852SOL    HW2 3407   2.377   1.995   0.254 -2.0680  0.8035  1.3995
  852SOL     MW 3408   2.347   2.051   0.319 -0.3497 -0.0004  0.6700
  853SOL     OW 3409   2.490   2.352   1.912  0.5966  0.3362 -0.1460
  853SOL    HW1 3410   2.499   2.424   1.855  1.3649 -2.8243 -0.6966
  853SOL    HW2 3411   2.576   2.333   1.947  2.1662  1.5662  0.8990
  853SOL     MW 3412   2.503   2.359   1.909  0.9050  0.0815 -0.0807
  854SOL     OW 3413   2.847   2.215   0.706 -0.1960  0.1114  0.0391
  854SOL    HW1 3414   2.758   2.210   0.665 -1.3977  1.0912  1.6039
  854SOL    HW2 3415   2.850   2.161   0.787 -1.0550  1.5569 -0.5021
  854SOL     MW 3416   2.836   2.207   0.711 -0.4679  0.4314  0.1741
  855SOL     OW 3417   2.758   2.354   0.415  0.4517 -0.0964  0.3881
  855SOL    HW1 3418   2.668   2.367   0.443 -1.4181  0.5516  0.9532
  855SOL    HW2 3419   2.767   2.259   0.409  1.0424 -0.7866  3.3188
  855SOL     MW 3420   2.747   2.343   0.418  0.2829 -0.1020  0.8494
  856SOL     OW 3421   2.097   1.883   0.213  0.1783 -0.0581  0.4049
  856SOL    HW1 3422   2.015   1.871   0.264  0.5907  1.0597 -0.9421
  856SOL    HW2 3423   2.137   1.955   0.262 -2.0092 -2.1520  2.9971
  856SOL     MW 3424   2.091   1.891   0.226 -0.0559 -0.1869  0.5692
  857SOL     OW 3425   2.503   1.944   0.529  0.2781 -0.0085 -0.7674
  857SOL    HW1 3426   2.427   1.960   0.472 -0.3733  1.1681 -0.4473
  857SOL    HW2 3427   2.478   1.902   0.615  1.0483  2.4413  4.1236
  857SOL     MW 3428   2.489   1.940   0.533  0.2938  0.4700 -0.0799
  858SOL     OW 3429   2.904   2.657   1.792 -0.4797 -0.0449 -0.1338
  858SOL    HW1 3430   2.996   2.686   1.798 -1.5042  2.9485  1.2384
  858SOL    HW2 3431   2.902   2.562   1.795 -2.6131  1.1215  2.0740
  858SOL     MW 3432   2.916   2.648   1.793 -0.8963  0.5040  0.3385
  859SOL     OW 3433   1.933   2.744   1.061 -0.4696 -0.0899  0.0782
  859SOL    HW1 3434   1.920   2.652   1.046 -2.3656  1.2228 -2.6498
  859SOL    HW2 3435   2.003   2.750   1.121  0.4731 -0.2634 -1.1310
  859SOL     MW 3436   1.940   2.733   1.067 -0.5954  0.0604 -0.4413
  860SOL     OW 3437   2.608   2.660   0.143  0.0210 -0.3243 -0.0841
  860SOL    HW1 3438   2.701   2.652   0.195  1.1040 -0.4797 -0.6327
  860SOL    HW2 3439   2.627   2.714   0.069  0.8358 -0.0589  0.6771
  860SOL     MW 3440   2.623   2.666   0.140  0.2714 -0.3098 -0.0560
  861SOL     OW 3441   1.643   2.161   1.180 -0.0695 -0.6391  0.6111
  861SOL    HW1 3442   1.681   2.217   1.252  0.7681  1.4884  1.4288
  861SOL    HW2 3443   1.565   2.114   1.216 -0.0699 -2.4122 -0.8697
  861SOL     MW 3444   1.638   2.162   1.194  0.0410 -0.5924  0.5236
  862SOL     OW 3445   2.523   1.759   1.445 -0.3574 -0.3163 -0.5490
  862SOL    HW1 3446   2.468   1.787   1.520  1.1696 -0.5832  1.2569
  862SOL    HW2 3447   2.458   1.740   1.370 -1.9792 -3.8096  1.6994
  862SOL     MW 3448   2.507   1.760   1.445 -0.3699 -0.8124 -0.0140
  863SOL     OW 3449   3.007   1.756   1.007 -0.0880 -0.7439 -0.3012
  863SOL    HW1 3450   3.062   1.762   1.086  1.9444  0.2533 -0.7214
  863SOL    HW2 3451   2.921   1.724   1.027 -0.3424  0.3891 -1.7102
  863SOL     MW 3452   3.003   1.753   1.020  0.1466 -0.4628 -0.5426
  864SOL     OW 3453   0.037   1.846   0.767  0.0377 -0.1813 -0.5335
  864SOL    HW1 3454  -0.016   1.796   0.827  0.2441  2.2227 -2.0605
  864SOL    HW2 3455   0.006   1.824   0.680  0.3443 -0.3912 -1.4973
  864SOL     MW 3456   0.026   1.836   0.763  0.1054  0.1082 -0.8622
  865SOL     OW 3457   2.642   2.164   0.064  0.1942  0.5474 -0.1228
  865SOL    HW1 3458   2.601   2.125   0.144 -3.7685  1.0015 -0.3835
  865SOL    HW2 3459   2.569   2.156   0.004  0.5781 -1.2379 -0.3203
  865SOL     MW 3460   2.627   2.158   0.066 -0.2780  0.3718 -0.1833
  866SOL     OW 3461   2.637   2.376   1.542 -0.0235  0.7332 -0.2987
  866SOL    HW1 3462   2.633   2.279   1.570 -0.3127 -1.2389  0.1733
  866SOL    HW2 3463   2.712   2.375   1.486 -0.9991 -0.8391  2.5171
  866SOL     MW 3464   2.647   2.363   1.539 -0.1904  0.2655  0.1351
  867SOL     OW 3465   0.098   2.697   1.767  0.8526  0.1732  0.1524
  867SOL    HW1 3466   0.137   2.752   1.833  0.2318  0.2560  0.1103
  867SOL    HW2 3467   0.118   2.734   1.687 -1.9990 -1.4844 -2.1292
  867SOL     MW 3468   0.106   2.709   1.766  0.3944 -0.0345 -0.1542
  868SOL     OW 3469   2.759   2.680   0.550  0.1571 -0.2772 -0.8583
  868SOL    HW1 3470   2.717   2.595   0.563  0.3496 -3.0665  1.7075
  868SOL    HW2 3471   2.688   2.747   0.527  2.2395  1.6563 -0.2877
  868SOL     MW 3472   2.744   2.678   0.549  0.4573 -0.3901 -0.4445
  869SOL     OW 3473   2.071   2.449   1.026 -0.4504  0.6108  0.7430
  869SOL    HW1 3474   2.160   2.429   1.001 -0.2347  1.5968 -0.9447
  869SOL    HW2 3475   2.017   2.399   0.967  2.7595  1.2157 -0.0183
  869SOL     MW 3476   2.075   2.440   1.015  0.0016  0.8207  0.4199
  870SOL     OW 3477   2.195   0.055   0.466  0.1185 -0.6564 -0.0598
  870SOL    HW1 3478   2.282   0.079   0.425  3.7254 -2.7231 -0.4756
  870SOL    HW2 3479   2.199  -0.031   0.501 -0.1970  2.2227 -2.3541
  870SOL     MW 3480   2.207   0.047   0.465  0.5527 -0.5492 -0.4174
  871SOL     OW 3481   2.510   2.100   0.894  0.1250 -0.1711 -0.0536
  871SOL    HW1 3482   2.432   2.044   0.868 -0.9114  0.8505 -0.5307
  871SOL    HW2 3483   2.471   2.178   0.931  0.4014 -0.1325 -0.3807
  871SOL     MW 3484   2.495   2.103   0.895  0.0247 -0.0312 -0.1597
  872SOL     OW 3485   2.083   2.580   1.501  0.9078  0.2895  0.5351
  872SOL    HW1 3486   2.010   2.603   1.559 -1.2702 -3.3486 -1.5171
  872SOL    HW2 3487   2.037   2.535   1.428  0.0248  0.5515 -2.1481
  872SOL     MW 3488   2.067   2.577   1.499  0.5039 -0.1559 -0.0897
  873SOL     OW 3489   2.826   2.078   1.852  0.0601  0.3382 -1.0141
  873SOL    HW1 3490   2.788   2.144   1.904 -0.6210 -1.0418  0.4160
  873SOL    HW2 3491   2.901   2.111   1.803 -1.3169 -0.8362 -1.6182
  873SOL     MW 3492   2.831   2.091   1.852 -0.2114  0.0012 -0.9051
  874SOL     OW 3493   2.312   1.422   2.326 -0.1881 -0.2249 -0.1645
  874SOL    HW1 3494   2.252   1.365   2.275 -1.0107 -0.4618  1.5391
  874SOL    HW2 3495   2.386   1.367   2.344  0.0789 -0.0043  1.3985
  874SOL     MW 3496   2.313   1.407   2.322 -0.2614 -0.2271  0.2665
  875SOL     OW 3497   2.361   2.346   0.968 -0.2813 -0.0555  0.2901
  875SOL    HW1 3498   2.403   2.397   0.897 -1.3985 -1.5094  0.9334
  875SOL    HW2 3499   2.409   2.386   1.043  0.3876  0.8857 -2.2594
  875SOL     MW 3500   2.373   2.358   0.968 -0.3404 -0.1232  0.0386
  876SOL     OW 3501   3.070   2.251   1.296  0.3667  0.2732  0.7822
  876SOL    HW1 3502   3.096   2.304   1.223 -0.3490  0.5717  1.0693
  876SOL    HW2 3503   3.138   2.265   1.367 -0.1249 -4.5115  1.6468
  876SOL     MW 3504   3.082   2.260   1.296  0.2074 -0.3187  0.9342
  877SOL     OW 3505   0.052   2.791   0.346  0.4437  0.3414  0.0493
  877SOL    HW1 3506   0.103   2.864   0.313 -1.1862 -1.8332 -0.9429
  877SOL    HW2 3507   0.062   2.733   0.270  0.3630 -0.0860  1.7894
  877SOL     MW 3508   0.060   2.793   0.331  0.2180 -0.0019  0.1480
  878SOL     OW 3509   2.382   1.729   1.201 -0.6364 -0.3678 -0.1629
  878SOL    HW1 3510   2.288   1.704   1.211 -2.3661  1.6437 -1.8703
  878SOL    HW2 3511   2.428   1.647   1.175 -0.8167 -1.6022 -3.2271
  878SOL     MW 3512   2.375   1.715   1.199 -0.8884 -0.2653 -0.7925
  879SOL     OW 3513   2.756   2.440   0.887  0.0257  0.8424 -0.2461
  879SOL    HW1 3514   2.824   2.504   0.918  1.0740 -0.1602  0.9309
  879SOL    HW2 3515   2.786   2.371   0.830  1.1362 -0.1776 -1.6869
  879SOL     MW 3516   2.769   2.440   0.884  0.3105  0.5755 -0.2809
  880SOL     OW 3517   2.581   2.205   0.624  0.2537  0.4188 -0.2571
  880SOL    HW1 3518   2.569   2.177   0.718  2.8687 -1.6199  1.1998
  880SOL    HW2 3519   2.567   2.116   0.580 -0.5443 -4.7961 -2.1368
  880SOL     MW 3520   2.578   2.189   0.631  0.4934 -0.5382 -0.3129
  881SOL     OW 3521   2.973   2.744   0.689  0.3936  0.0749  0.4718
  881SOL    HW1 3522   2.894   2.704   0.663 -0.0279  1.5616 -1.3965
  881SOL    HW2 3523   3.049   2.703   0.638 -1.8760 -0.9899  0.4811
  881SOL     MW 3524   2.973   2.733   0.679  0.0386  0.1306  0.2265
  882SOL     OW 3525   2.292   2.845   1.948  0.0523 -0.2155 -0.8528
  882SOL    HW1 3526   2.266   2.853   1.853 -0.0087  0.7616 -2.5173
  882SOL    HW2 3527   2.229   2.783   1.986 -0.7134  1.0047 -0.6674
  882SOL     MW 3528   2.280   2.838   1.941 -0.0568  0.0744 -1.0479
  883SOL     OW 3529   2.362   2.248   1.339  0.2720  0.0950 -0.4306
  883SOL    HW1 3530   2.427   2.184   1.297  1.6298 -1.5628  0.3412
  883SOL    HW2 3531   2.284   2.224   1.283 -2.7567  0.6463 -1.9223
  883SOL     MW 3532   2.360   2.236   1.326  0.0516 -0.0510 -0.5256
  884SOL     OW 3533   1.981   1.814   1.081 -0.1509  0.4776 -0.5492
  884SOL    HW1 3534   1.956   1.904   1.066 -0.0501  0.3946  0.3872
  884SOL    HW2 3535   2.074   1.805   1.055  0.4526 -1.1852  0.3673
  884SOL     MW 3536   1.990   1.825   1.076 -0.0580  0.2472 -0.3047
  885SOL     OW 3537   2.816   2.388   1.752  0.2135 -0.1196 -0.5240
  885SOL    HW1 3538   2.892   2.332   1.716  0.7904  2.0744 -1.8534
  885SOL    HW2 3539   2.752   2.383   1.682  0.4804  0.2575 -0.0497
  885SOL     MW 3540   2.818   2.380   1.738  0.3248  0.2196 -0.6368
  886SOL     OW 3541   2.856   2.393   1.399  0.3525  0.5535  0.0522
  886SOL    HW1 3542   2.935   2.339   1.409  0.4728  0.0439 -1.2830
  886SOL    HW2 3543   2.868   2.490   1.410 -0.6347 -0.0362 -3.7478
  886SOL     MW 3544   2.868   2.399   1.402  0.2381  0.4085 -0.6253
  887SOL     OW 3545   2.342   2.682   1.502  0.2624 -0.1599  0.2006
  887SOL    HW1 3546   2.379   2.733   1.429 -2.5274 -1.2166 -0.2289
  887SOL    HW2 3547   2.254   2.644   1.489  1.2816 -1.8854 -0.0241
  887SOL     MW 3548   2.335   2.684   1.491  0.0288 -0.5270  0.1143
  888SOL     OW 3549   1.957   2.173   1.374  0.7753 -0.6729 -0.2469
  888SOL    HW1 3550   2.033   2.180   1.321  1.5832 -1.1229  1.7821
  888SOL    HW2 3551   1.984   2.174   1.468  0.0093 -1.9008 -1.6875
  888SOL     MW 3552   1.971   2.174   1.380  0.7808 -0.8943 -0.1693
  889SOL     OW 3553   2.320   1.975   2.062 -0.2343 -0.6193  0.4160
  889SOL    HW1 3554   2.386   1.959   2.128  0.1920 -2.2648  0.7161
  889SOL    HW2 3555   2.369   2.033   2.003 -0.2514 -0.5242  0.1690
  889SOL     MW 3556   2.335   1.981   2.063 -0.1803 -0.8239  0.4230
  890SOL     OW 3557   0.095   2.333   0.127 -0.5165 -0.3324  0.1980
  890SOL    HW1 3558   0.073   2.419   0.155  0.5848 -0.0871 -1.7617
  890SOL    HW2 3559   0.056   2.275   0.190 -1.6769 -1.3671  0.1800
  890SOL     MW 3560   0.087   2.336   0.139 -0.5243 -0.4366 -0.0629
  891SOL     OW 3561   2.989   2.002   1.194 -0.3184  0.9171 -0.3053
  891SOL    HW1 3562   3.059   1.941   1.207 -1.7024 -1.1681  0.2675
  891SOL    HW2 3563   3.012   2.081   1.238  2.3445 -2.8211 -0.3075
  891SOL     MW 3564   3.001   2.005   1.201 -0.1497  0.1487 -0.2300
  892SOL     OW 3565   2.455   2.388   2.812 -0.4898  0.3684  0.8331
  892SOL    HW1 3566   2.471   2.310   2.863  3.1580  0.0814  0.7532
  892SOL    HW2 3567   2.538   2.431   2.825  2.6977 -0.0589 -1.9576
  892SOL     MW 3568   2.468   2.383   2.821  0.4121  0.2742  0.4544
  893SOL     OW 3569   1.659   2.398   1.348 -0.0266 -0.1877  0.4008
  893SOL    HW1 3570   1.569   2.399   1.375  2.4881 -0.0966  2.5488
  893SOL    HW2 3571   1.706   2.464   1.398  1.5496 -0.1490 -1.8805
  893SOL     MW 3572   1.653   2.407   1.358  0.5132 -0.1706  0.3833
  894SOL     OW 3573   2.754   1.838   0.482  0.3919  0.2504 -0.3670
  894SOL    HW1 3574   2.661   1.871   0.510 -1.8428  0.5375  1.6509
  894SOL    HW2 3575   2.745   1.834   0.386  1.1825 -0.7380  2.1595
  894SOL     MW 3576   2.741   1.842   0.473  0.2014  0.1579  0.2326
  895SOL     OW 3577   2.181   2.174   1.139  0.3534 -0.3376 -0.4458
  895SOL    HW1 3578   2.189   2.213   1.053  1.2456  0.0576  0.2011
  895SOL    HW2 3579   2.195   2.078   1.142  2.2433 -0.7432 -0.1680
  895SOL     MW 3580   2.184   2.166   1.128  0.7205 -0.3390 -0.3238
  896SOL     OW 3581   2.214   2.810   1.092  0.0784 -0.7860  0.4179
  896SOL    HW1 3582   2.270   2.757   1.153  0.6135 -0.9886  1.4075
  896SOL    HW2 3583   2.163   2.868   1.150  0.6709  0.0565 -2.1111
  896SOL     MW 3584   2.215   2.811   1.108  0.2271 -0.7016  0.2148
  897SOL     OW 3585   3.093   3.025   3.080  0.0244 -0.3332  0.1528
  897SOL    HW1 3586   3.154   2.957   3.062  1.2865 -2.9587  1.5770
  897SOL    HW2 3587   3.018   3.003   3.020 -0.4230 -0.7024  2.3498
  897SOL     MW 3588   3.091   3.013   3.070  0.1319 -0.7283  0.6306
  898SOL     OW 3589   2.050   0.161   1.431  0.0252 -0.2151 -0.8659
  898SOL    HW1 3590   2.042   0.072   1.473  0.9380  0.5059  1.7855
  898SOL    HW2 3591   2.038   0.152   1.339  0.3892  0.3281  0.7009
  898SOL     MW 3592   2.047   0.148   1.425  0.1936 -0.0483 -0.3093
  899SOL     OW 3593   2.925   3.003   0.605 -0.3086  0.1279 -0.3028
  899SOL    HW1 3594   2.935   2.910   0.630  0.6562 -3.4493 -3.3849
  899SOL    HW2 3595   2.834   3.028   0.631  0.3474  0.6913 -0.1353
  899SOL     MW 3596   2.914   2.994   0.611 -0.0948 -0.2697 -0.6874
  900SOL     OW 3597   0.087   2.394   1.090  0.4969 -0.6341 -0.0672
  900SOL    HW1 3598   0.106   2.488   1.074 -0.8358 -0.7750 -0.0565
  900SOL    HW2 3599   0.070   2.356   1.002 -1.7173 -0.1206  1.1345
  900SOL     MW 3600   0.087   2.401   1.076  0.0289 -0.5849  0.0928
  901SOL     OW 3601   1.732   2.787   1.781 -0.3281 -0.2869 -0.6280
  901SOL    HW1 3602   1.824   2.742   1.761 -0.0728  2.8003  0.1735
  901SOL    HW2 3603   1.678   2.766   1.703 -1.9838  0.4312  0.0307
  901SOL     MW 3604   1.737   2.779   1.768 -0.5129  0.2152 -0.4354
  902SOL     OW 3605   2.648   2.122   1.642  0.0818  0.4662  0.1911
  902SOL    HW1 3606   2.654   2.059   1.561 -1.3605 -1.8395 -0.3650
  902SOL    HW2 3607   2.713   2.097   1.713 -0.1506  1.4656 -1.0360
  902SOL     MW 3608   2.657   2.110   1.640 -0.1392  0.2939 -0.0442
  903SOL     OW 3609   1.514   2.649   0.621 -0.2823  0.3954 -0.4725
  903SOL    HW1 3610   1.597   2.682   0.587 -1.0578 -0.4296 -0.4503
  903SOL    HW2 3611   1.477   2.704   0.696 -3.0739 -2.6178 -2.8292
  903SOL     MW 3612   1.520   2.660   0.627 -0.7529 -0.1110 -0.7805
  904SOL     OW 3613   2.461   2.566   1.710 -0.0647  0.0823 -0.7074
  904SOL    HW1 3614   2.401   2.604   1.638  0.2353 -0.7320 -0.7496
  904SOL    HW2 3615   2.519   2.513   1.652 -2.4062 -1.0496  1.9792
  904SOL     MW 3616   2.460   2.564   1.693 -0.3341 -0.1744 -0.3585
  905SOL     OW 3617   2.300   2.465   2.096  0.2019 -0.3365  0.0481
  905SOL    HW1 3618   2.356   2.440   2.020  2.9630  0.8379  0.9364
  905SOL    HW2 3619   2.274   2.388   2.160 -0.1628 -3.3470  2.9109
  905SOL     MW 3620   2.304   2.451   2.094  0.5181 -0.5787  0.5430
  906SOL     OW 3621   2.500   2.502   0.804 -0.3462  0.3494 -0.0984
  906SOL    HW1 3622   2.591   2.490   0.834  2.5012  1.2779  0.4824
  906SOL    HW2 3623   2.477   2.586   0.848  3.2009  1.7576  1.8815
  906SOL     MW 3624   2.509   2.512   0.814  0.4975  0.6577  0.2394
  907SOL     OW 3625   2.660   2.873   1.272 -0.4219 -0.5269 -0.1997
  907SOL    HW1 3626   2.713   2.924   1.329  0.3691 -0.6376  0.2653
  907SOL    HW2 3627   2.712   2.861   1.192  3.1012  2.6759  0.9585
  907SOL     MW 3628   2.674   2.878   1.269  0.1473 -0.1189  0.0145
  908SOL     OW 3629   2.739   2.431   0.032 -0.2995  0.0825  0.3678
  908SOL    HW1 3630   2.680   2.353   0.039 -1.0449  0.9286  0.0987
  908SOL    HW2 3631   2.685   2.505   0.062 -0.2844  1.6307  0.8212
  908SOL     MW 3632   2.724   2.431   0.037 -0.3959  0.3984  0.3921
  909SOL     OW 3633   1.742   0.133   1.231 -0.4426  0.0395  0.2091
  909SOL    HW1 3634   1.700   0.217   1.199 -0.7194  1.6268 -0.1182
  909SOL    HW2 3635   1.717   0.127   1.323 -0.0187 -0.2515 -1.8154
  909SOL     MW 3636   1.733   0.143   1.239 -0.4232  0.2105 -0.1012
  910SOL     OW 3637   2.177   1.669   0.400 -0.9173  0.2752 -0.2035
  910SOL    HW1 3638   2.133   1.584   0.418 -0.5888 -0.8258 -0.8661
  910SOL    HW2 3639   2.139   1.713   0.326 -0.1992  1.2277  0.1506
  910SOL     MW 3640   2.166   1.664   0.393 -0.7792  0.2556 -0.2442
  911SOL     OW 3641   2.290   2.083   1.560 -0.3150  0.7756  0.0562
  911SOL    HW1 3642   2.352   2.105   1.632  1.4224 -1.4008  0.8888
  911SOL    HW2 3643   2.315   2.139   1.480 -0.2883  3.3822 -1.0047
  911SOL     MW 3644   2.301   2.093   1.559 -0.0823  0.8324  0.0261
  912SOL     OW 3645   2.923   1.855   1.425  0.4253  0.1940 -0.2212
  912SOL    HW1 3646   2.960   1.928   1.359  0.3300 -0.3596 -1.4326
  912SOL    HW2 3647   2.831   1.873   1.421  0.0146  1.8745 -0.5405
  912SOL     MW 3648   2.916   1.867   1.416  0.3586  0.3427 -0.4231
  913SOL     OW 3649   2.680   3.085   0.282  0.3338 -0.7810 -0.3514
  913SOL    HW1 3650   2.760   3.037   0.302  2.3416  1.1705  0.2461
  913SOL    HW2 3651   2.616   3.020   0.247  1.0005  0.7494 -0.9691
  913SOL     MW 3652   2.682   3.070   0.280  0.6866 -0.3216 -0.3540
  914SOL     OW 3653   2.669   1.829   2.974  0.2809 -0.4340 -0.7917
  914SOL    HW1 3654   2.713   1.905   3.013  1.1423 -0.6995 -1.0716
  914SOL    HW2 3655   2.577   1.856   2.964 -3.2226  1.0413  1.2036
  914SOL     MW 3656   2.662   1.843   2.978 -0.0677 -0.2744 -0.5654
  915SOL     OW 3657   1.776   0.157   0.143  0.4376 -0.2227 -0.1339
  915SOL    HW1 3658   1.838   0.107   0.197 -1.6699  0.5860 -0.9758
  915SOL    HW2 3659   1.690   0.114   0.155 -1.4534  0.0044 -1.4035
  915SOL     MW 3660   1.773   0.145   0.152 -0.0899 -0.0860 -0.4125
  916SOL     OW 3661   1.727   2.183   2.049 -0.1142  0.3125 -0.2627
  916SOL    HW1 3662   1.781   2.258   2.021  0.9398  0.3340  0.8777
  916SOL    HW2 3663   1.751   2.102   1.999 -0.5925  0.4274 -1.6306
  916SOL     MW 3664   1.737   2.183   2.039 -0.0382  0.3305 -0.2927
  917SOL     OW 3665   2.507   2.254   2.580  0.2025  0.9591  0.4324
  917SOL    HW1 3666   2.485   2.322   2.640  2.1373 -0.1188  0.5943
  917SOL    HW2 3667   2.580   2.282   2.530  0.5038 -1.8345  0.1666
  917SOL     MW 3668   2.514   2.267   2.581  0.4976  0.4483  0.4187
  918SOL     OW 3669   2.026   1.622   2.674 -0.0991 -0.1799 -0.1134
  918SOL    HW1 3670   1.965   1.657   2.603 -0.5847  2.2042  0.1338
  918SOL    HW2 3671   2.105   1.675   2.665  0.6031  1.0004 -0.6117
  918SOL     MW 3672   2.028   1.634   2.663 -0.0705  0.2904 -0.1465
  919SOL     OW 3673   3.080   2.395   2.231 -0.3801  0.3366 -0.0375
  919SOL    HW1 3674   3.018   2.323   2.227 -0.0367 -1.4562  0.9354
  919SOL    HW2 3675   3.139   2.390   2.151  0.7242 -1.7292 -3.0141
  919SOL     MW 3676   3.080   2.385   2.220 -0.1891 -0.1725 -0.3019
  920SOL     OW 3677   2.699   2.827   3.055 -0.1813 -0.4880 -0.1052
  920SOL    HW1 3678   2.606   2.846   3.046 -0.4968  0.1221  1.0860
  920SOL    HW2 3679   2.740   2.796   2.979 -3.2405 -0.9885  2.2684
  920SOL     MW 3680   2.692   2.825   3.044 -0.6266 -0.4735  0.3651
  921SOL     OW 3681   2.438   2.591   2.622  0.2742  0.4866  0.0273
  921SOL    HW1 3682   2.510   2.576   2.562  1.5475  0.0532  0.6369
  921SOL    HW2 3683   2.449   2.521   2.686  1.5111  1.2395  1.8661
  921SOL     MW 3684   2.449   2.580   2.623  0.6054  0.5287  0.3503
  922SOL     OW 3685   2.050   2.766   0.366  0.4492 -0.2937  0.3869
  922SOL    HW1 3686   2.020   2.780   0.278  2.4890 -1.7431  0.9226
  922SOL    HW2 3687   2.077   2.672   0.367 -2.4544 -4.1887  0.2100
  922SOL     MW 3688   2.049   2.755   0.354  0.3352 -0.9988  0.4342
  923SOL     OW 3689   2.196   2.854   1.680  0.1727 -0.1454  0.3136
  923SOL    HW1 3690   2.258   2.812   1.626  0.5651 -0.5342  2.8650
  923SOL    HW2 3691   2.159   2.923   1.626  1.5694 -1.1787 -0.7581
  923SOL     MW 3692   2.199   2.857   1.666  0.4088 -0.3331  0.5088
  924SOL     OW 3693   1.114   2.743   2.629  0.2767 -0.3432 -0.5399
  924SOL    HW1 3694   1.204   2.769   2.624 -2.7960 -0.3102  0.0892
  924SOL    HW2 3695   1.106   2.674   2.695  0.7729 -1.3830  2.1824
  924SOL     MW 3696   1.125   2.737   2.637 -0.0633 -0.4760 -0.0977
  925SOL     OW 3697   2.993   0.224   2.698 -0.1227 -0.3712 -0.1447
  925SOL    HW1 3698   2.950   0.234   2.613  0.5623  0.4011  0.5046
  925SOL    HW2 3699   2.950   0.289   2.753 -2.5250  2.6094  0.9139
  925SOL     MW 3700   2.982   0.234   2.694 -0.3493  0.1240  0.0806
  926SOL     OW 3701   2.767   2.336   2.014  0.4192  0.3024 -0.5184
  926SOL    HW1 3702   2.782   2.419   2.059  0.4528 -0.9823  0.2737
  926SOL    HW2 3703   2.788   2.344   1.921  0.4706  2.4006 -0.6985
  926SOL     MW 3704   2.772   2.348   2.008  0.4304  0.4097 -0.4377
  927SOL     OW 3705   2.384   0.163   0.298  0.1497 -0.1073  0.1554
  927SOL    HW1 3706   2.467   0.211   0.306  0.3006 -2.0887  2.1513
  927SOL    HW2 3707   2.365   0.169   0.201  0.3519 -0.9328  0.4215
  927SOL     MW 3708   2.392   0.170   0.286  0.1963 -0.4777  0.4538
  928SOL     OW 3709   2.170   2.407   1.740 -0.6631 -0.2898 -0.6607
  928SOL    HW1 3710   2.144   2.458   1.663  2.1154  1.3058 -1.3272
  928SOL    HW2 3711   2.263   2.433   1.739  1.3519 -1.3417  1.7964
  928SOL     MW 3712   2.179   2.417   1.730 -0.0306 -0.2181 -0.4245
  929SOL     OW 3713   2.743   2.354   2.460  0.2914 -0.4241 -0.4268
  929SOL    HW1 3714   2.789   2.312   2.391  0.0889  1.9912 -1.2942
  929SOL    HW2 3715   2.804   2.353   2.529 -1.0874 -0.6522  0.1315
  929SOL     MW 3716   2.757   2.348   2.460  0.0827 -0.1355 -0.4676
  930SOL     OW 3717   2.013   2.821   2.620 -0.5561 -0.2416  0.6062
  930SOL    HW1 3718   2.048   2.767   2.695  0.1908 -0.4638  1.7331
  930SOL    HW2 3719   2.092   2.865   2.598 -0.0332  0.9133 -1.0047
  930SOL     MW 3720   2.028   2.820   2.627 -0.3885 -0.1185  0.5423
  931SOL     OW 3721   0.016   2.787   2.479  0.4485  0.4598  0.3268
  931SOL    HW1 3722   0.007   2.812   2.569  2.6335  0.6570 -1.9109
  931SOL    HW2 3723   0.108   2.775   2.456  3.0535 -1.2041 -1.2099
  931SOL     MW 3724   0.027   2.789   2.488  1.0805  0.2663 -0.1712
  932SOL     OW 3725   2.880   1.877   2.489 -0.2547  0.4477  0.1401
  932SOL    HW1 3726   2.943   1.944   2.522 -1.3910  1.7593  2.7886
  932SOL    HW2 3727   2.850   1.913   2.403 -2.6609  0.1510 -0.7971
  932SOL     MW 3728   2.884   1.891   2.482 -0.7221  0.5816  0.3659
  933SOL     OW 3729   2.033   2.772   2.231  0.2430 -0.4125  0.1910
  933SOL    HW1 3730   2.123   2.811   2.271  1.0075  0.3376 -0.7947
  933SOL    HW2 3731   1.980   2.852   2.211  0.5343 -0.7404 -0.9744
  933SOL     MW 3732   2.038   2.788   2.234  0.3823 -0.3568 -0.0928
  934SOL     OW 3733   1.980   2.624   2.435  0.5105  0.4566 -0.2397
  934SOL    HW1 3734   1.971   2.680   2.506  0.9513  1.3642 -0.0990
  934SOL    HW2 3735   1.995   2.686   2.362 -3.3068 -1.2895 -0.8336
  934SOL     MW 3736   1.980   2.639   2.435  0.0650  0.3459 -0.2995
  935SOL     OW 3737   2.710   1.577   1.804  0.0889 -0.1742  0.0173
  935SOL    HW1 3738   2.799   1.557   1.776 -0.8518  1.2456  0.2850
  935SOL    HW2 3739   2.646   1.541   1.748 -4.2490 -2.2277 -0.1110
  935SOL     MW 3740   2.713   1.570   1.793 -0.6075 -0.2578  0.0357
  936SOL     OW 3741   2.961   2.281   3.092 -0.5184 -0.1532  0.1170
  936SOL    HW1 3742   3.020   2.341   3.143 -0.0242 -0.4809 -0.5071
  936SOL    HW2 3743   2.875   2.324   3.099 -2.0030 -0.0765  0.7060
  936SOL     MW 3744   2.958   2.294   3.100 -0.6491 -0.1863  0.1124
  937SOL     OW 3745   2.008   2.169   2.708 -0.4635 -0.4557  0.4011
  937SOL    HW1 3746   2.099   2.143   2.733  1.3577 -0.4054 -0.2243
  937SOL    HW2 3747   2.002   2.148   2.614  0.5023 -0.4502  2.4964
  937SOL     MW 3748   2.019   2.163   2.699 -0.0958 -0.4483  0.5950
  938SOL     OW 3749   2.316   1.737   1.928  0.8367 -0.3201  0.1522
  938SOL    HW1 3750   2.321   1.767   1.839 -1.0315  0.4555  0.6819
  938SOL    HW2 3751   2.312   1.821   1.975  0.0138 -0.1750 -1.9219
  938SOL     MW 3752   2.316   1.752   1.922  0.4816 -0.1986 -0.0516
  939SOL     OW 3753   2.782   1.975   2.254 -0.5976  0.4374 -0.0914
  939SOL    HW1 3754   2.816   1.923   2.174 -3.3507 -1.2787 -0.5368
  939SOL    HW2 3755   2.693   1.986   2.237  0.3251 -1.7026  0.2067
  939SOL     MW 3756   2.775   1.970   2.241 -0.8391 -0.0714 -0.1109
  940SOL     OW 3757   2.233   0.157   2.667 -0.1172  0.0737 -0.1884
  940SOL    HW1 3758   2.259   0.077   2.626 -2.7850 -0.7272 -0.6975
  940SOL    HW2 3759   2.302   0.164   2.735 -0.2974  1.4768 -0.5604
  940SOL     MW 3760   2.246   0.148   2.671 -0.4930  0.1532 -0.3046
  941SOL     OW 3761   0.179   2.405   2.061  0.2725  0.3739 -0.2632
  941SOL    HW1 3762   0.261   2.369   2.082  0.5414  0.6362 -0.0956
  941SOL    HW2 3763   0.176   2.414   1.969  3.0758 -0.9303 -0.1892
  941SOL     MW 3764   0.190   2.401   2.051  0.6779  0.2365 -0.2313
  942SOL     OW 3765   2.863   2.236   2.249  0.3217 -0.0734  0.2350
  942SOL    HW1 3766   2.837   2.259   2.164 -2.1185 -1.1716  2.4997
  942SOL    HW2 3767   2.834   2.146   2.273 -1.6424 -2.2716 -0.0300
  942SOL     MW 3768   2.856   2.227   2.241 -0.2594 -0.5083  0.4988
  943SOL     OW 3769   0.242   2.104   2.282  0.2694  0.0089 -0.1586
  943SOL    HW1 3770   0.200   2.152   2.357 -1.9948 -1.2349  2.1940
  943SOL    HW2 3771   0.337   2.087   2.315 -3.0308 -1.7240  2.7420
  943SOL     MW 3772   0.249   2.108   2.297 -0.4648 -0.3839  0.5345
  944SOL     OW 3773   2.107   2.655   2.005 -0.2659  0.7822 -0.0058
  944SOL    HW1 3774   2.172   2.591   2.043 -1.5577 -0.7064 -2.1035
  944SOL    HW2 3775   2.070   2.695   2.084 -0.6837  0.6531  1.1500
  944SOL     MW 3776   2.111   2.652   2.020 -0.4914  0.5688 -0.1301
  945SOL     OW 3777   2.847   2.724   2.810  0.5212  0.1783 -0.3756
  945SOL    HW1 3778   2.829   2.632   2.816 -0.0047  3.5396 -0.8174
  945SOL    HW2 3779   2.814   2.749   2.722 -0.8361  1.7107 -0.0238
  945SOL     MW 3780   2.840   2.715   2.799  0.2727  0.8240 -0.3874
  946SOL     OW 3781   2.445   2.670   2.240  0.1921 -0.1090 -0.1079
  946SOL    HW1 3782   2.503   2.713   2.157  1.4101  0.6825 -2.2275
  946SOL    HW2 3783   2.399   2.589   2.210 -1.2789 -2.1589  1.0379
  946SOL     MW 3784   2.447   2.665   2.225  0.1587 -0.2750 -0.2364
  947SOL     OW 3785   2.016   0.042   0.249  0.2802  0.5111 -0.2433
  947SOL    HW1 3786   2.024  -0.045   0.223 -0.3491  4.7876 -1.1514
  947SOL    HW2 3787   2.075   0.046   0.324  0.0007  1.0937  1.0694
  947SOL     MW 3788   2.025   0.031   0.255  0.1603  1.1522 -0.1900
  948SOL     OW 3789   1.809   2.999   2.676  0.7978 -0.2721 -0.6956
  948SOL    HW1 3790   1.875   2.929   2.662 -1.3026 -0.0390  0.2659
  948SOL    HW2 3791   1.792   3.011   2.579  1.3450 -1.1386 -2.2657
  948SOL     MW 3792   1.815   2.991   2.661  0.5929 -0.3556 -0.7759
  949SOL     OW 3793   2.493   1.952   2.275 -0.0316 -0.6850 -0.9071
  949SOL    HW1 3794   2.494   1.864   2.312  0.1390  1.1535 -2.0949
  949SOL    HW2 3795   2.446   2.008   2.342 -0.8419  0.6828 -0.3421
  949SOL     MW 3796   2.487   1.948   2.289 -0.1160 -0.2619 -0.9892
  950SOL     OW 3797   2.295   2.578   2.939  0.4431 -0.3223  0.3014
  950SOL    HW1 3798   2.344   2.509   2.891 -0.6682 -2.2673 -0.1051
  950SOL    HW2 3799   2.205   2.600   2.884 -2.7017 -1.0787  0.0306
  950SOL     MW 3800   2.289   2.572   2.925 -0.1185 -0.6787  0.2120
  951SOL     OW 3801   3.083   2.212   2.853  0.2857 -0.2214 -0.3479
  951SOL    HW1 3802   3.033   2.251   2.930 -1.5731 -0.4905 -0.6747
  951SOL    HW2 3803   3.025   2.142   2.823 -1.0168 -0.0000 -1.9394
  951SOL     MW 3804   3.069   2.208   2.859 -0.1314 -0.2277 -0.6010
  952SOL     OW 3805   3.031   1.658   2.132 -0.2329 -0.1010  0.4600
  952SOL    HW1 3806   2.983   1.716   2.074  2.7764  2.4116 -0.1319
  952SOL    HW2 3807   3.092   1.728   2.166  0.2135 -1.3903  1.4218
  952SOL     MW 3808   3.033   1.675   2.129  0.2231  0.0604  0.5088
  953SOL     OW 3809   1.962   1.757   2.893 -0.0125 -0.7478 -0.4827
  953SOL    HW1 3810   1.883   1.735   2.940 -0.2373 -1.4905  0.3448
  953SOL    HW2 3811   1.982   1.697   2.809  1.8260 -0.6857 -1.1426
  953SOL     MW 3812   1.954   1.746   2.888  0.2004 -0.8376 -0.4606
  954SOL     OW 3813   2.465   2.134   2.929  0.2603  0.2649  0.5304
  954SOL    HW1 3814   2.375   2.125   2.892 -0.2931  1.5614 -2.1626
  954SOL    HW2 3815   2.514   2.106   2.860 -1.1984  4.3226  1.3680
  954SOL     MW 3816   2.459   2.129   2.915 -0.0052  0.9713  0.2856
  955SOL     OW 3817   1.564   1.597   2.540  0.7979  0.0827  0.1623
  955SOL    HW1 3818   1.532   1.639   2.454  0.7929  0.4507 -0.7197
  955SOL    HW2 3819   1.654   1.632   2.556 -0.6449 -1.3747 -1.3974
  955SOL     MW 3820   1.572   1.607   2.530  0.6069 -0.0610 -0.1598
  956SOL     OW 3821   2.712   2.483   2.836  0.1625  0.4621  0.4644
  956SOL    HW1 3822   2.720   2.468   2.939 -2.5608  0.3708  4.3030
  956SOL    HW2 3823   2.777   2.427   2.793  0.3209 -1.9998  0.8356
  956SOL     MW 3824   2.721   2.474   2.844 -0.1759  0.1253  1.0198
  957SOL     OW 3825   2.256   2.887   0.505 -0.2780 -0.4618  0.7081
  957SOL    HW1 3826   2.215   2.857   0.422 -0.5261  2.4361 -0.6630
  957SOL    HW2 3827   2.228   2.816   0.562  0.2571 -2.3129  1.7008
  957SOL     MW 3828   2.247   2.874   0.502 -0.2401 -0.3237  0.6581
  958SOL     OW 3829   2.054   2.655   2.828  0.1063 -0.2546  0.4229
  958SOL    HW1 3830   2.024   2.577   2.769 -0.9248 -0.7716 -1.5659
  958SOL    HW2 3831   1.976   2.649   2.887  0.0262  0.3876  0.0597
  958SOL     MW 3832   2.040   2.644   2.828 -0.0403 -0.2381  0.1126
  959SOL     OW 3833   2.515   2.800   0.456  0.0591  0.0862 -0.2320
  959SOL    HW1 3834   2.489   2.798   0.364  1.3763  0.9156 -0.3903
  959SOL    HW2 3835   2.440   2.842   0.507 -0.2995 -1.3552  0.9719
  959SOL     MW 3836   2.502   2.805   0.450  0.1856  0.0054 -0.0941
  960SOL     OW 3837   1.940   2.335   2.329 -0.0460  0.4993 -0.3617
  960SOL    HW1 3838   1.929   2.249   2.368  0.4866 -0.4251 -1.6868
  960SOL    HW2 3839   1.893   2.390   2.397 -1.5854  0.5743 -0.5971
  960SOL     MW 3840   1.932   2.331   2.343 -0.1789  0.3872 -0.5676
  961SOL     OW 3841   2.215   2.306   2.297 -0.3409 -0.7245  0.1932
  961SOL    HW1 3842   2.121   2.326   2.286  1.5588  3.4100 -2.9081
  961SOL    HW2 3843   2.240   2.378   2.357  0.2438 -3.3501 -2.1408
  961SOL     MW 3844   2.206   2.318   2.303 -0.0131 -0.5254 -0.5239
  962SOL     OW 3845   2.240   2.061   2.828 -0.6513  0.7274  0.3685
  962SOL    HW1 3846   2.204   2.003   2.895 -0.0577 -0.9405  0.9036
  962SOL    HW2 3847   2.268   2.005   2.762  0.3154 -3.2739  1.7662
  962SOL     MW 3848   2.239   2.046   2.828 -0.4454 -0.0206  0.6235
  963SOL     OW 3849   1.801   2.510   2.156  0.3909  0.6338  0.4023
  963SOL    HW1 3850   1.858   2.456   2.218  1.4321 -1.1566 -2.4124
  963SOL    HW2 3851   1.846   2.490   2.071  0.3315 -1.6522 -0.2417
  963SOL     MW 3852   1.815   2.500   2.153  0.5204  0.0960 -0.0540
  964SOL     OW 3853   1.831   1.928   2.745 -0.0733  0.1313  0.8130
  964SOL    HW1 3854   1.880   2.013   2.728  2.0849  1.9752  3.3798
  964SOL    HW2 3855   1.891   1.882   2.816  0.8828 -1.3123  0.2909
  964SOL     MW 3856   1.846   1.933   2.752  0.3376  0.1841  1.0828
  965SOL     OW 3857   2.225   2.696   0.687 -0.5057 -0.3668 -0.0329
  965SOL    HW1 3858   2.260   2.608   0.667  0.8344 -0.5838  1.7575
  965SOL    HW2 3859   2.278   2.714   0.771 -1.9218 -2.8439  0.8181
  965SOL     MW 3860   2.236   2.687   0.695 -0.5157 -0.7223  0.3156
  966SOL     OW 3861   2.674   2.608   2.367 -0.0080 -0.0933  0.2964
  966SOL    HW1 3862   2.587   2.622   2.332  1.6744  1.6622  1.3105
  966SOL    HW2 3863   2.677   2.518   2.393 -0.9250  0.5848 -3.2511
  966SOL     MW 3864   2.663   2.598   2.366  0.0930  0.2278 -0.0379
  967SOL     OW 3865   2.828   3.051   2.952  0.0899 -0.2894  0.2229
  967SOL    HW1 3866   2.788   2.988   3.016 -0.2092 -0.1464 -3.6657
  967SOL    HW2 3867   2.754   3.065   2.886 -0.6598 -0.3006 -0.2852
  967SOL     MW 3868   2.813   3.044   2.952 -0.0485 -0.2720 -0.3572
  968SOL     OW 3869   3.032   2.626   2.999  0.1001  0.0046 -0.5443
  968SOL    HW1 3870   2.966   2.687   2.961 -1.8277 -1.4882  0.9525
  968SOL    HW2 3871   3.065   2.592   2.918  2.0739  0.7729 -0.2673
  968SOL     MW 3872   3.027   2.630   2.984  0.1062 -0.0910 -0.3103
  969SOL     OW 3873   1.613   2.213   1.681 -0.2016  0.3570 -0.0197
  969SOL    HW1 3874   1.680   2.146   1.708 -0.7939 -0.8405 -1.5712
  969SOL    HW2 3875   1.575   2.243   1.766  2.3636  0.0399 -1.5757
  969SOL     MW 3876   1.617   2.208   1.696  0.0587  0.1572 -0.4297
  970SOL     OW 3877   1.798   1.828   1.912  0.3658  0.0608  0.4534
  970SOL    HW1 3878   1.844   1.752   1.953 -1.1538 -0.6771  1.4037
  970SOL    HW2 3879   1.708   1.804   1.934  0.9142 -2.5288 -2.7932
  970SOL     MW 3880   1.792   1.815   1.920  0.2377 -0.3783  0.1504
  971SOL     OW 3881   1.773   3.030   2.414 -0.4424  0.2449 -0.1978
  971SOL    HW1 3882   1.808   3.012   2.326  0.4602 -0.7227  1.8380
  971SOL    HW2 3883   1.790   3.119   2.417  0.1376  0.3863  0.9538
  971SOL     MW 3884   1.780   3.039   2.403 -0.2468  0.1359  0.2228
  972SOL     OW 3885   0.283   2.825   2.449 -0.1588 -0.0485 -0.3338
  972SOL    HW1 3886   0.365   2.773   2.450  1.3435 -2.2276 -0.9848
  972SOL    HW2 3887   0.312   2.917   2.477 -0.5413  0.8623  1.5502
  972SOL     MW 3888   0.298   2.830   2.453 -0.0111 -0.2158 -0.1711
  973SOL     OW 3889   2.589   3.042   2.138 -0.4674 -0.5787  0.4886
  973SOL    HW1 3890   2.579   2.947   2.111  1.8459  0.8151  0.5609
  973SOL    HW2 3891   2.606   3.082   2.053 -0.3155 -1.3923  0.3327
  973SOL     MW 3892   2.590   3.034   2.123 -0.1421 -0.5021  0.4776
  974SOL     OW 3893   1.969   0.140   2.628 -0.4961 -0.1469 -0.5239
  974SOL    HW1 3894   2.064   0.144   2.657  0.2419 -1.3417 -0.7308
  974SOL    HW2 3895   1.937   0.062   2.668 -0.7764  0.2008 -1.3416
  974SOL     MW 3896   1.977   0.130   2.637 -0.4357 -0.2587 -0.6591
  975SOL     OW 3897   2.215   2.482   2.497  0.1061  0.1121  0.4979
  975SOL    HW1 3898   2.283   2.548   2.495 -0.5743  0.3514 -1.3712
  975SOL    HW2 3899   2.137   2.521   2.452  0.9566  1.1056 -1.1497
  975SOL     MW 3900   2.214   2.496   2.491  0.1286  0.2747  0.0339
  976SOL     OW 3901   0.170   0.371   1.705 -0.0487  0.5226 -0.5192
  976SOL    HW1 3902   0.241   0.313   1.702  1.1442  1.8980 -1.8438
  976SOL    HW2 3903   0.093   0.314   1.731  1.1443  0.4840 -0.5109
  976SOL     MW 3904   0.169   0.355   1.708  0.2661  0.6990 -0.6928
  977SOL     OW 3905   1.708   2.707   2.438 -0.1227 -0.1475 -0.4037
  977SOL    HW1 3906   1.774   2.637   2.440  3.1269  4.1443 -0.7790
  977SOL    HW2 3907   1.766   2.784   2.435 -1.0956 -0.4081 -2.1203
  977SOL     MW 3908   1.724   2.708   2.438  0.1777  0.3844 -0.6797
   3.10000   3.10000   3.10000
