977 TIP4P/2005f water molecules t=   0.50000 step= 500
 3908
    1SOL     OW    1   0.261   0.798   0.034 -1.1818  0.2591 -0.4285
    1SOL    HW1    2   0.242   0.822  -0.054  0.1715  0.0565  0.8449
    1SOL    HW2    3   0.234   0.707   0.043 -1.2056  2.0245 -0.7876
    1SOL     MW    4   0.255   0.789   0.023 -1.0064  0.4653 -0.3079
    2SOL     OW    5   0.266   3.053   1.167 -0.1169 -0.9267 -0.3959
    2SOL    HW1    6   0.341   3.103   1.128 -0.9814  3.5683 -1.9187
    2SOL    HW2    7   0.184   3.109   1.167  0.2611  0.6639 -1.6526
    2SOL     MW    8   0.265   3.067   1.162 -0.1811 -0.1238 -0.7627
    3SOL     OW    9   2.688   0.388   0.930  0.5669  0.3964 -0.0060
    3SOL    HW1   10   2.728   0.458   0.882  0.6334 -3.1120 -0.8561
    3SOL    HW2   11   2.667   0.436   1.016  0.3457 -2.0959 -0.3150
    3SOL     MW   12   2.691   0.404   0.935  0.5464 -0.3954 -0.1590
    4SOL     OW   13   3.042   1.756   0.596  0.5892  0.3376  0.2378
    4SOL    HW1   14   2.973   1.785   0.537  1.2398 -0.2364 -1.3628
    4SOL    HW2   15   3.091   1.706   0.531  1.4935 -1.2674  0.0904
    4SOL     MW   16   3.039   1.753   0.579  0.7944  0.0501  0.0072
    5SOL     OW   17   1.744   1.504   0.596 -0.3825 -0.5242  0.2816
    5SOL    HW1   18   1.793   1.436   0.647 -0.7632 -0.1703 -2.2993
    5SOL    HW2   19   1.651   1.508   0.625 -1.9292 -0.1764 -0.7663
    5SOL     MW   20   1.739   1.495   0.606 -0.6368 -0.4316 -0.1971
    6SOL     OW   21   0.864   1.383   0.689  0.0536  0.3863 -0.1636
    6SOL    HW1   22   0.772   1.370   0.692  1.5302 -0.2957  2.4771
    6SOL    HW2   23   0.898   1.299   0.669  0.1421  0.2675  0.1597
    6SOL     MW   24   0.856   1.371   0.686  0.2601  0.2806  0.2275
    7SOL     OW   25   1.990   1.083   0.051  0.1654  0.4591 -0.2322
    7SOL    HW1   26   2.036   1.162   0.033  0.9798 -1.0622 -0.6591
    7SOL    HW2   27   2.026   1.060   0.140  3.6048 -0.6654  0.0043
    7SOL     MW   28   2.001   1.091   0.060  0.7266  0.1100 -0.2574
    8SOL     OW   29   0.963   1.357   1.016 -0.2699  0.5979  0.1833
    8SOL    HW1   30   0.995   1.298   0.947 -0.4063 -0.8971 -1.7580
    8SOL    HW2   31   0.964   1.296   1.096 -1.3572 -3.3140 -2.5118
    8SOL     MW   32   0.968   1.341   1.017 -0.4313 -0.1155 -0.4284
    9SOL     OW   33   1.075   0.480   1.367 -0.0251 -0.0284  0.1329
    9SOL    HW1   34   1.020   0.428   1.311  0.3507  0.6403 -0.8106
    9SOL    HW2   35   1.103   0.426   1.442  2.5399  2.2601 -1.8844
    9SOL     MW   36   1.072   0.466   1.370  0.3629  0.3618 -0.2577
   10SOL     OW   37   0.269   0.772   0.450 -0.4605 -0.0355 -0.4529
   10SOL    HW1   38   0.359   0.805   0.423  2.2038  3.6075  0.2198
   10SOL    HW2   39   0.238   0.824   0.527 -1.6590  0.9256  0.7849
   10SOL     MW   40   0.277   0.783   0.457 -0.2671  0.5719 -0.2008
   11SOL     OW   41   0.799   1.093   1.630 -0.1878  0.1803  0.1702
   11SOL    HW1   42   0.779   1.088   1.721  0.8758  1.0014  0.0886
   11SOL    HW2   43   0.784   1.009   1.581  1.4129  2.1891  2.3781
   11SOL     MW   44   0.795   1.081   1.636  0.1637  0.5537  0.4508
   12SOL     OW   45   0.039   1.074   0.863  0.0965 -0.3928 -0.2034
   12SOL    HW1   46   0.069   1.156   0.898 -3.4148 -0.5408 -3.8569
   12SOL    HW2   47  -0.022   1.129   0.814  1.8087 -1.2271 -0.9708
   12SOL     MW   48   0.035   1.092   0.861 -0.1409 -0.5224 -0.7867
   13SOL     OW   49   1.879   1.409   1.321 -0.5901  0.6111 -0.0811
   13SOL    HW1   50   1.894   1.365   1.241  1.0431  0.6577  2.5833
   13SOL    HW2   51   1.862   1.506   1.297 -2.1198  1.1528 -1.0504
   13SOL     MW   52   1.879   1.416   1.308 -0.5764  0.6887  0.1425
   14SOL     OW   53   0.592   0.308   1.799 -0.0017  0.1306  0.2620
   14SOL    HW1   54   0.577   0.252   1.716 -3.0858  1.3779 -0.0304
   14SOL    HW2   55   0.669   0.264   1.838 -1.7429 -1.2290  0.1292
   14SOL     MW   56   0.600   0.295   1.793 -0.6384  0.1158  0.2059
   15SOL     OW   57   1.975   0.510   0.958 -0.4232  0.2519  0.2243
   15SOL    HW1   58   1.993   0.540   1.051  2.7746  2.6645  1.6419
   15SOL    HW2   59   2.057   0.471   0.916 -2.7411 -1.9910 -1.5452
   15SOL     MW   60   1.988   0.509   0.965 -0.3071  0.2743  0.1779
   16SOL     OW   61   0.214   1.770   0.335  0.5005  0.4553  0.1390
   16SOL    HW1   62   0.299   1.728   0.315  0.3307  1.2559 -0.9520
   16SOL    HW2   63   0.239   1.855   0.377  0.4565 -0.2130 -5.1395
   16SOL     MW   64   0.228   1.776   0.338  0.4723  0.4728 -0.7014
   17SOL     OW   65   1.008   0.824   1.493 -0.4172  0.6211  0.0090
   17SOL    HW1   66   1.055   0.825   1.576  1.5113 -1.6447 -2.4544
   17SOL    HW2   67   0.922   0.786   1.518 -0.5951 -0.4272 -0.5975
   17SOL     MW   68   1.003   0.819   1.507 -0.1863  0.1838 -0.3960
   18SOL     OW   69   0.083   1.569   0.452 -0.0698  0.4252 -0.2765
   18SOL    HW1   70   0.125   1.632   0.390  2.3096  0.3627  1.0604
   18SOL    HW2   71   0.029   1.516   0.397  0.7014  0.4048 -0.5170
   18SOL     MW   72   0.082   1.570   0.437  0.3459  0.4142 -0.1319
   19SOL     OW   73   0.086   1.313   0.983  0.0206 -0.4178  0.1833
   19SOL    HW1   74   0.138   1.352   0.911  0.7078 -0.4345 -0.5376
   19SOL    HW2   75   0.008   1.365   0.990  0.8064 -2.2424  1.8199
   19SOL     MW   76   0.082   1.325   0.974  0.2150 -0.6607  0.3041
   20SOL     OW   77   0.435   2.135   1.304 -0.4671 -0.2179 -0.0890
   20SOL    HW1   78   0.390   2.060   1.261  1.7294  0.8487  0.7757
   20SOL    HW2   79   0.378   2.182   1.365  1.2914  0.8238 -1.2825
   20SOL     MW   80   0.422   2.131   1.306  0.0547  0.0603 -0.1324
   21SOL     OW   81   0.524   0.842   0.353 -0.0253 -0.3806  0.4274
   21SOL    HW1   82   0.595   0.818   0.410  0.9372  1.6902  1.8487
   21SOL    HW2   83   0.540   0.815   0.261 -2.3435 -1.4887  0.5986
   21SOL     MW   84   0.535   0.835   0.349 -0.2042 -0.2536  0.6375
   22SOL     OW   85   1.562   0.581   1.106 -0.3419 -0.0746  0.1308
   22SOL    HW1   86   1.618   0.530   1.035 -0.3999  0.4853  1.6208
   22SOL    HW2   87   1.495   0.629   1.056  1.5651  1.5835  2.2064
   22SOL     MW   88   1.560   0.580   1.090 -0.0980  0.2180  0.6013
   23SOL     OW   89   3.074   0.750   0.702  0.0509 -0.0320 -0.1615
   23SOL    HW1   90   3.131   0.678   0.729  0.0848  1.6225  1.5039
   23SOL    HW2   91   3.140   0.823   0.697  2.0623  0.5012  0.1604
   23SOL     MW   92   3.091   0.750   0.705  0.3208  0.2567  0.1007
   24SOL     OW   93   2.010   2.175   0.070 -0.3486  0.2361 -0.0366
   24SOL    HW1   94   2.027   2.147   0.162 -2.0700  0.5203  0.2580
   24SOL    HW2   95   2.047   2.103   0.022  1.2432  2.7710  0.2310
   24SOL     MW   96   2.018   2.161   0.076 -0.3657  0.6081  0.0376
   25SOL     OW   97   0.319   1.431   0.522 -0.5909 -0.3332 -0.0764
   25SOL    HW1   98   0.258   1.506   0.498 -1.6994  1.3940 -0.7859
   25SOL    HW2   99   0.366   1.415   0.447 -0.9293  1.1040  4.0860
   25SOL     MW  100   0.317   1.439   0.509 -0.7818  0.0843  0.3792
   26SOL     OW  101   2.047   0.904   0.470 -0.8846  0.0144 -0.4622
   26SOL    HW1  102   1.970   0.945   0.436  3.7096 -0.4567  0.8284
   26SOL    HW2  103   2.111   0.915   0.397  1.1291  1.6323  1.1134
   26SOL     MW  104   2.045   0.911   0.456 -0.0127  0.1657 -0.0840
   27SOL     OW  105   2.037   1.376   0.261 -0.0336  0.4060  0.5390
   27SOL    HW1  106   1.943   1.379   0.285 -0.5713  0.1743 -0.0803
   27SOL    HW2  107   2.080   1.436   0.324  1.8596  0.1160 -0.6108
   27SOL     MW  108   2.030   1.384   0.272  0.1453  0.3372  0.3055
   28SOL     OW  109   0.353   1.050   1.966 -0.5470  0.7799  0.2041
   28SOL    HW1  110   0.432   1.000   1.985  0.9418  4.3199  3.1905
   28SOL    HW2  111   0.295   0.979   1.990  3.5015 -2.5675 -2.5576
   28SOL     MW  112   0.355   1.034   1.972  0.1836  0.8053  0.2337
   29SOL     OW  113   0.269   1.420   0.813 -0.2386  0.2435  0.0435
   29SOL    HW1  114   0.266   1.513   0.788  0.4327 -0.8873 -1.0449
   29SOL    HW2  115   0.271   1.378   0.727  0.6401  1.6881  1.2818
   29SOL     MW  116   0.269   1.427   0.798 -0.0341  0.2849  0.0633
   30SOL     OW  117   0.875   1.092   1.219 -0.0120  0.7836  0.2894
   30SOL    HW1  118   0.786   1.096   1.259 -1.6288  0.7683  1.7366
   30SOL    HW2  119   0.937   1.113   1.292  2.1134 -0.0239  1.4356
   30SOL     MW  120   0.872   1.095   1.234  0.0551  0.6751  0.6316
   31SOL     OW  121   0.396   0.248   0.199 -0.4175 -0.2907 -0.9208
   31SOL    HW1  122   0.407   0.165   0.257  1.6797 -0.8227  1.6533
   31SOL    HW2  123   0.400   0.217   0.111  1.1729  1.4648  0.7586
   31SOL     MW  124   0.398   0.233   0.195  0.0690 -0.1293 -0.3596
   32SOL     OW  125   2.759   1.048   1.118  0.1528 -0.5125  0.0357
   32SOL    HW1  126   2.709   0.973   1.086  0.3266  0.9764  1.6203
   32SOL    HW2  127   2.852   1.025   1.105 -0.3132 -1.2865 -3.8069
   32SOL     MW  128   2.765   1.035   1.112  0.1143 -0.4182 -0.2622
   33SOL     OW  129   1.777   1.363   0.351  0.8124  0.0732 -0.2486
   33SOL    HW1  130   1.784   1.277   0.393  2.1052  0.1014 -0.4889
   33SOL    HW2  131   1.772   1.428   0.419 -0.5751  1.6321 -2.7439
   33SOL     MW  132   1.777   1.360   0.365  0.7999  0.2826 -0.6095
   34SOL     OW  133   1.213   1.891   1.100  0.5580  0.0637  0.3215
   34SOL    HW1  134   1.122   1.915   1.132 -1.3869  2.7019  0.2797
   34SOL    HW2  135   1.276   1.909   1.176 -1.0987 -1.7825 -1.7687
   34SOL     MW  136   1.209   1.896   1.114  0.0828  0.1682  0.0402
   35SOL     OW  137   0.319   0.128   1.812  0.4172  0.0862 -0.1269
   35SOL    HW1  138   0.367   0.130   1.891 -1.3986  0.2944  0.7968
   35SOL    HW2  139   0.359   0.052   1.762  1.2035  0.7002 -0.4750
   35SOL     MW  140   0.330   0.118   1.816  0.2813  0.1947 -0.0509
   36SOL     OW  141   1.857   1.941   0.507 -0.4928 -0.5457 -0.8320
   36SOL    HW1  142   1.895   1.949   0.414  0.1744  0.7638 -1.1975
   36SOL    HW2  143   1.875   1.852   0.541  1.7301 -4.1624  1.4456
   36SOL     MW  144   1.864   1.931   0.500 -0.1115 -0.8501 -0.5797
   37SOL     OW  145   1.746   2.065   1.013 -0.1119 -0.1812  0.8242
   37SOL    HW1  146   1.725   1.991   0.958  1.3489 -0.4470 -1.2756
   37SOL    HW2  147   1.679   2.084   1.092  1.9940 -1.2105  3.5671
   37SOL     MW  148   1.734   2.057   1.016  0.3587 -0.3521  0.9091
   38SOL     OW  149   2.830   0.924   0.176 -0.0227 -0.1974 -0.0388
   38SOL    HW1  150   2.885   0.950   0.251  1.3649  3.3417  1.0084
   38SOL    HW2  151   2.895   0.881   0.123  0.9718  3.2576 -1.0845
   38SOL     MW  152   2.846   0.922   0.179  0.2916  0.7254 -0.0386
   39SOL     OW  153   1.434   0.620   0.801 -0.3398 -0.2155 -0.0552
   39SOL    HW1  154   1.435   0.534   0.759 -2.0390 -1.7324  2.6499
   39SOL    HW2  155   1.342   0.645   0.809  0.4125  1.5582  0.7735
   39SOL     MW  156   1.422   0.612   0.797 -0.4647 -0.1816  0.4110
   40SOL     OW  157   1.238   1.881   0.252 -1.0224 -0.3234 -0.2040
   40SOL    HW1  158   1.275   1.797   0.289  2.3093  2.0857  1.3574
   40SOL    HW2  159   1.233   1.934   0.332  1.7701  0.3574 -0.8890
   40SOL     MW  160   1.242   1.877   0.268 -0.2144  0.0843 -0.0883
   41SOL     OW  161   0.598   0.483   1.572 -0.0557  0.2305  0.0609
   41SOL    HW1  162   0.680   0.528   1.570  0.2829 -0.3978  0.8759
   41SOL    HW2  163   0.599   0.436   1.652  0.5458  0.4491 -1.1841
   41SOL     MW  164   0.609   0.483   1.583  0.0683  0.1765  0.0042
   42SOL     OW  165   1.286   3.002   1.988 -0.6564 -0.4281  0.0184
   42SOL    HW1  166   1.209   3.006   2.041  0.9206 -2.2127 -1.6504
   42SOL    HW2  167   1.348   2.932   2.009 -2.0195 -2.3464 -0.9769
   42SOL     MW  168   1.284   2.993   1.998 -0.6282 -0.9167 -0.3331
   43SOL     OW  169   1.523   0.169   1.713 -0.4819 -0.3529  0.1877
   43SOL    HW1  170   1.604   0.137   1.673  0.7934 -0.6990  1.3172
   43SOL    HW2  171   1.450   0.100   1.732 -3.8867 -2.1981  1.4676
   43SOL     MW  172   1.524   0.156   1.710 -0.7629 -0.6420  0.5056
   44SOL     OW  173   1.274   0.733   1.085 -0.5342 -0.0959 -0.0912
   44SOL    HW1  174   1.258   0.832   1.086 -4.5487  0.8246  1.7296
   44SOL    HW2  175   1.269   0.721   1.181 -1.0142 -0.9754 -0.1124
   44SOL     MW  176   1.271   0.744   1.098 -1.1272 -0.0905  0.1462
   45SOL     OW  177   1.163   0.724   0.787 -0.8130  0.3328  0.3858
   45SOL    HW1  178   1.127   0.695   0.874  3.2688 -2.1056 -1.7761
   45SOL    HW2  179   1.095   0.694   0.722  0.5072  0.1333  2.0489
   45SOL     MW  180   1.149   0.716   0.790 -0.1002 -0.0152  0.3200
   46SOL     OW  181   0.558   1.158   0.528 -0.5719  0.1448  0.7972
   46SOL    HW1  182   0.529   1.158   0.431  0.6685 -0.4668 -1.3694
   46SOL    HW2  183   0.655   1.137   0.528 -0.9952  0.3348  2.1998
   46SOL     MW  184   0.567   1.155   0.515 -0.4641  0.0891  0.6964
   47SOL     OW  185   0.202   1.908   1.807  0.5884 -0.1642 -0.6496
   47SOL    HW1  186   0.276   1.842   1.797  1.7994  2.7870  1.4348
   47SOL    HW2  187   0.183   1.919   1.905 -2.1278  0.6036 -0.6191
   47SOL     MW  188   0.209   1.901   1.818  0.3898  0.3265 -0.3706
   48SOL     OW  189   1.031   0.612   1.022  0.2918  0.2778  0.0893
   48SOL    HW1  190   0.940   0.631   1.051 -0.4703 -2.7448 -1.7752
   48SOL    HW2  191   1.090   0.678   1.058 -1.6571 -1.5964 -0.6726
   48SOL     MW  192   1.027   0.623   1.031 -0.0659 -0.3683 -0.2572
   49SOL     OW  193   1.809   0.765   1.565  0.1659 -0.5084 -0.6009
   49SOL    HW1  194   1.780   0.736   1.653 -1.0390 -2.2685  1.4357
   49SOL    HW2  195   1.871   0.685   1.551  1.6083 -2.1552  2.5927
   49SOL     MW  196   1.814   0.751   1.575  0.1972 -0.9579  0.0892
   50SOL     OW  197   1.176   1.048   0.511 -0.4378  0.3825  0.0107
   50SOL    HW1  198   1.170   1.073   0.600  0.5842  1.2153 -0.3284
   50SOL    HW2  199   1.240   0.972   0.526 -0.4965 -1.3057 -1.0392
   50SOL     MW  200   1.183   1.041   0.525 -0.3107  0.2697 -0.1726
   51SOL     OW  201   0.339   2.879   0.958  0.4401 -0.0130  0.1901
   51SOL    HW1  202   0.434   2.876   0.976 -0.1374 -1.0610 -1.2366
   51SOL    HW2  203   0.302   2.915   1.041  0.3724  0.7062 -0.5082
   51SOL     MW  204   0.347   2.884   0.971  0.3550 -0.0563 -0.0903
   52SOL     OW  205   0.793   1.780   0.385  0.2456  0.6962  0.2525
   52SOL    HW1  206   0.781   1.868   0.416 -1.7151 -0.6219 -2.8661
   52SOL    HW2  207   0.783   1.783   0.289  1.5389  0.1463 -0.1967
   52SOL     MW  208   0.790   1.792   0.376  0.1576  0.4498 -0.2183
   53SOL     OW  209   0.504   2.115   0.591  0.2582  0.8092  0.2672
   53SOL    HW1  210   0.423   2.074   0.548 -0.9153  1.5734  0.0855
   53SOL    HW2  211   0.514   2.209   0.582 -1.3783  3.9270 -1.0729
   53SOL     MW  212   0.495   2.122   0.584 -0.1126  1.3214  0.0664
   54SOL     OW  213   2.176   0.813   0.844  0.3718 -0.0452  0.2242
   54SOL    HW1  214   2.234   0.770   0.781  2.2451  3.0064  1.0798
   54SOL    HW2  215   2.087   0.797   0.818 -0.5120  1.2350 -0.7732
   54SOL     MW  216   2.172   0.805   0.832  0.5023  0.5263  0.2055
   55SOL     OW  217   0.548   1.493   1.574  0.0696  0.0253  0.2210
   55SOL    HW1  218   0.516   1.545   1.498  2.1328  1.2645 -1.0118
   55SOL    HW2  219   0.621   1.443   1.539  3.2521  0.7649 -0.6927
   55SOL     MW  220   0.554   1.493   1.559  0.7617  0.2864 -0.0622
   56SOL     OW  221   0.554   0.782   0.087  0.2502 -0.6098 -0.0642
   56SOL    HW1  222   0.575   0.860   0.033 -0.1203 -1.5119  1.6185
   56SOL    HW2  223   0.465   0.770   0.067  2.0932 -1.0040  1.7603
   56SOL     MW  224   0.545   0.791   0.078  0.4445 -0.7808  0.3985
   57SOL     OW  225   1.259   1.231   1.218 -0.3512  0.2231 -0.4294
   57SOL    HW1  226   1.343   1.232   1.167 -0.1090 -0.8704  2.1785
   57SOL    HW2  227   1.265   1.170   1.288  0.5292  0.4570 -2.9570
   57SOL     MW  228   1.271   1.223   1.221 -0.2030  0.1097 -0.4188
   58SOL     OW  229   0.595   1.123   1.291 -0.7945  0.3135 -0.2895
   58SOL    HW1  230   0.574   1.210   1.259 -1.1028  1.3083 -1.0129
   58SOL    HW2  231   0.602   1.141   1.382 -0.1371  2.2374 -2.0992
   58SOL     MW  232   0.593   1.137   1.299 -0.7484  0.6986 -0.6238
   59SOL     OW  233   1.586   1.624   0.370 -0.1656  0.1952  0.1103
   59SOL    HW1  234   1.668   1.640   0.425 -0.4233  1.5189  2.5892
   59SOL    HW2  235   1.510   1.651   0.423 -0.4655 -1.2833  0.1757
   59SOL     MW  236   1.587   1.629   0.385 -0.2392  0.1748  0.4460
   60SOL     OW  237   0.035   0.217   1.694  0.8331 -0.1351  0.4385
   60SOL    HW1  238  -0.052   0.227   1.658  1.5564  1.2302 -0.3644
   60SOL    HW2  239   0.049   0.133   1.736  0.3229 -2.0511  0.5689
   60SOL     MW  240   0.025   0.207   1.695  0.8612 -0.2078  0.3498
   61SOL     OW  241   2.040   1.438   0.003  0.1744  0.2302  0.0010
   61SOL    HW1  242   2.031   1.423   0.102 -1.8085  0.6596  0.7326
   61SOL    HW2  243   2.094   1.367  -0.027 -2.0004 -2.3604 -1.0421
   61SOL     MW  244   2.046   1.427   0.012 -0.3742 -0.0549 -0.0401
   62SOL     OW  245   0.664   1.668   0.623  0.0684  0.2583 -0.2001
   62SOL    HW1  246   0.710   1.669   0.540 -2.8133  1.8906  4.4447
   62SOL    HW2  247   0.649   1.572   0.642 -0.0326 -1.6837 -0.3418
   62SOL     MW  248   0.668   1.656   0.614 -0.3251  0.2174  0.3941
   63SOL     OW  249   1.662   0.745   0.710 -0.1239  0.0003  0.0932
   63SOL    HW1  250   1.646   0.804   0.635  0.8738  0.9246  1.8452
   63SOL    HW2  251   1.578   0.718   0.748 -0.6462 -0.6095  0.6174
   63SOL     MW  252   1.649   0.749   0.705 -0.0612  0.0418  0.3935
   64SOL     OW  253   0.260   1.696   0.760 -0.0179  0.2793 -0.7956
   64SOL    HW1  254   0.338   1.746   0.766 -1.0684  0.7626 -3.2976
   64SOL    HW2  255   0.184   1.752   0.783  2.4436 -2.4262  1.9945
   64SOL     MW  256   0.260   1.710   0.764  0.1683 -0.0139 -0.7576
   65SOL     OW  257   1.551   2.315   0.364 -0.7225  0.5003  0.8278
   65SOL    HW1  258   1.643   2.301   0.377 -1.0173 -1.8471 -0.2991
   65SOL    HW2  259   1.535   2.371   0.440 -0.1148 -1.8558 -2.8713
   65SOL     MW  260   1.561   2.320   0.375 -0.6812 -0.1203  0.1910
   66SOL     OW  261   0.331   0.514   0.513 -0.8433 -0.2871  0.4790
   66SOL    HW1  262   0.410   0.508   0.460 -2.3245 -3.8378  1.5390
   66SOL    HW2  263   0.300   0.606   0.495 -0.2904  2.3011  2.1582
   66SOL     MW  264   0.338   0.525   0.504 -0.9658 -0.4141  0.8404
   67SOL     OW  265   1.467   0.107   2.040 -0.1641  0.0230  0.2248
   67SOL    HW1  266   1.508   0.117   1.953 -1.2855  1.6628  1.0304
   67SOL    HW2  267   1.402   0.036   2.035  1.9139  2.1216 -0.5291
   67SOL     MW  268   1.463   0.099   2.028 -0.0379  0.5162  0.2316
   68SOL     OW  269   0.633   0.081   2.964 -0.1469  0.2510  0.6246
   68SOL    HW1  270   0.657   0.106   2.870  0.0124  1.6150  0.0099
   68SOL    HW2  271   0.617   0.169   3.007 -2.0112 -0.0246  0.1994
   68SOL     MW  272   0.634   0.096   2.957 -0.3719  0.3946  0.4874
   69SOL     OW  273   1.001   0.203   1.952 -0.4994 -0.6740  0.2201
   69SOL    HW1  274   1.074   0.258   1.985 -0.7677  0.4148 -0.2326
   69SOL    HW2  275   1.012   0.112   1.985 -1.0477  2.1824 -0.2145
   69SOL     MW  276   1.012   0.198   1.961 -0.6071 -0.1535  0.1031
   70SOL     OW  277   0.571   1.788   1.122  0.0769 -0.2240  0.0288
   70SOL    HW1  278   0.601   1.712   1.179  0.7466  1.0902  0.8233
   70SOL    HW2  279   0.626   1.792   1.050 -1.9993  0.2346 -1.4818
   70SOL     MW  280   0.582   1.778   1.120 -0.1087  0.0099 -0.0657
   71SOL     OW  281   1.714   0.618   1.320 -0.3074 -0.2253  0.0367
   71SOL    HW1  282   1.690   0.653   1.406  0.8336  0.5974  2.5578
   71SOL    HW2  283   1.635   0.613   1.259 -1.7327 -1.4665  0.6892
   71SOL     MW  284   1.701   0.622   1.323 -0.3449 -0.2805  0.4555
   72SOL     OW  285   0.822   1.761   0.966 -0.5599 -0.0399  0.8614
   72SOL    HW1  286   0.813   1.825   0.887 -0.4654  0.9025 -1.6694
   72SOL    HW2  287   0.781   1.673   0.948 -0.3905  0.9262 -0.9572
   72SOL     MW  288   0.815   1.758   0.953 -0.5250  0.2119  0.2876
   73SOL     OW  289   1.204   0.716   1.345  0.0924 -0.3455  0.1220
   73SOL    HW1  290   1.156   0.634   1.359 -0.8381  0.0445 -0.5618
   73SOL    HW2  291   1.143   0.775   1.392  0.7086  1.4753 -0.6338
   73SOL     MW  292   1.190   0.713   1.353  0.0509 -0.0538 -0.0679
   74SOL     OW  293   2.883   0.190   0.998  0.4090  0.2282 -0.6608
   74SOL    HW1  294   2.896   0.125   0.927 -0.6116  1.3500 -0.8910
   74SOL    HW2  295   2.833   0.260   0.957 -2.5913  0.7859  3.7399
   74SOL     MW  296   2.878   0.191   0.983 -0.1215  0.4498 -0.1106
   75SOL     OW  297   1.603   1.347   0.128  0.0663  1.1601  0.4412
   75SOL    HW1  298   1.627   1.361   0.220  1.7914 -3.0563 -1.0997
   75SOL    HW2  299   1.653   1.264   0.103  0.3774  0.4398  0.6836
   75SOL     MW  300   1.613   1.338   0.137  0.3349  0.5087  0.2699
   76SOL     OW  301   3.004   0.640   0.456  0.6464 -0.1088 -0.5066
   76SOL    HW1  302   3.040   0.684   0.530 -0.2773 -0.2545 -1.5753
   76SOL    HW2  303   3.073   0.577   0.430 -1.3921 -1.2238 -1.1114
   76SOL     MW  304   3.018   0.637   0.462  0.2556 -0.2752 -0.7274
   77SOL     OW  305   0.831   0.508   0.441 -0.0636  0.9887 -0.1035
   77SOL    HW1  306   0.754   0.508   0.382  2.1273 -0.8072 -2.3239
   77SOL    HW2  307   0.801   0.437   0.500 -0.2235  3.3523 -0.3791
   77SOL     MW  308   0.817   0.498   0.441  0.2044  1.0636 -0.4328
   78SOL     OW  309   0.733   0.798   1.228 -0.0023  0.0062  0.2945
   78SOL    HW1  310   0.651   0.832   1.187  1.3667 -0.3647  1.7189
   78SOL    HW2  311   0.791   0.872   1.238 -0.5474  0.8602 -2.2176
   78SOL     MW  312   0.730   0.812   1.224  0.1064  0.0699  0.1510
   79SOL     OW  313   1.921   1.701   0.611  0.4994  0.5211  0.5213
   79SOL    HW1  314   1.844   1.644   0.607 -1.8971 -0.2962 -4.1261
   79SOL    HW2  315   1.925   1.720   0.702 -1.6752 -0.2017 -1.4320
   79SOL     MW  316   1.912   1.696   0.622 -0.1037  0.3179 -0.3496
   80SOL     OW  317   0.151   1.024   0.319 -0.1023  0.1362 -0.7104
   80SOL    HW1  318   0.061   0.990   0.332 -0.7746 -0.1938  0.3417
   80SOL    HW2  319   0.200   0.947   0.355  0.3036 -2.2803  1.9787
   80SOL     MW  320   0.146   1.009   0.326 -0.1375 -0.2262 -0.2168
   81SOL     OW  321   1.905   1.924   0.204  0.6222  0.3035 -0.3241
   81SOL    HW1  322   1.842   1.852   0.188 -2.1232  0.7147 -0.5442
   81SOL    HW2  323   1.840   1.999   0.198  0.9710 -0.0326 -0.5133
   81SOL     MW  324   1.888   1.924   0.201  0.3060  0.3134 -0.3781
   82SOL     OW  325   0.806   1.052   0.530  0.2736  0.0162  0.2562
   82SOL    HW1  326   0.821   1.088   0.449  1.6447  0.2423  1.1777
   82SOL    HW2  327   0.791   0.964   0.514  1.2315 -1.4056  1.3571
   82SOL     MW  328   0.806   1.045   0.517  0.5809 -0.1415  0.5230
   83SOL     OW  329   0.200   0.600   1.315  0.3855 -0.4595 -0.5199
   83SOL    HW1  330   0.152   0.677   1.319  0.9069 -0.5489  0.0925
   83SOL    HW2  331   0.270   0.604   1.385  1.3027  1.3294  0.6850
   83SOL     MW  332   0.203   0.611   1.324  0.5753 -0.2353 -0.2801
   84SOL     OW  333   0.075   0.215   0.900  0.1160 -0.6399 -0.5371
   84SOL    HW1  334   0.002   0.278   0.871 -1.4083  0.8782  2.1202
   84SOL    HW2  335   0.038   0.170   0.978 -0.4518  0.5298  0.8544
   84SOL     MW  336   0.060   0.217   0.907 -0.1601 -0.2852 -0.0029
   85SOL     OW  337   0.444   0.450   0.749  0.2121  0.3980 -0.0057
   85SOL    HW1  338   0.430   0.493   0.657  4.9825  1.3672 -0.6689
   85SOL    HW2  339   0.417   0.359   0.746  0.9073 -2.3672 -1.3890
   85SOL     MW  340   0.439   0.444   0.736  0.9332  0.1610 -0.2757
   86SOL     OW  341   1.235   0.393   1.057  0.0816 -0.5982 -0.4464
   86SOL    HW1  342   1.152   0.440   1.036  0.5103  1.6436  0.8439
   86SOL    HW2  343   1.266   0.422   1.142  2.2119 -1.1966  0.6926
   86SOL     MW  344   1.228   0.403   1.065  0.4192 -0.3814 -0.1259
   87SOL     OW  345   1.188   1.487   1.219 -0.0729 -0.5269  0.4297
   87SOL    HW1  346   1.192   1.519   1.131 -1.7427 -0.2568  2.1500
   87SOL    HW2  347   1.208   1.393   1.212 -0.3667  1.6645 -0.5256
   87SOL     MW  348   1.191   1.479   1.206 -0.3320 -0.2021  0.5307
   88SOL     OW  349   1.244   1.011   1.047 -0.3772  0.0625  0.0535
   88SOL    HW1  350   1.342   1.022   1.043 -0.9268  0.6369  0.1661
   88SOL    HW2  351   1.222   1.079   1.115  0.1388 -0.6398  2.2085
   88SOL     MW  352   1.254   1.022   1.055 -0.3816  0.0456  0.3527
   89SOL     OW  353   1.771   0.667   0.331 -0.0440  0.3727 -0.3742
   89SOL    HW1  354   1.816   0.590   0.369 -0.2238 -2.5922  0.5055
   89SOL    HW2  355   1.840   0.701   0.272  0.6951 -2.4108 -1.1513
   89SOL     MW  356   1.786   0.661   0.328  0.0298 -0.3858 -0.3607
   90SOL     OW  357   0.687   1.188   2.800 -0.5566 -0.6416  0.8111
   90SOL    HW1  358   0.738   1.105   2.805  0.4313  2.3693  0.1528
   90SOL    HW2  359   0.702   1.207   2.886 -0.4794  1.4487 -2.4545
   90SOL     MW  360   0.696   1.179   2.812 -0.4161  0.0315  0.2934
   91SOL     OW  361   2.203   0.703   0.570  0.5789  0.0700 -0.5889
   91SOL    HW1  362   2.143   0.774   0.567  0.5366 -2.2156 -1.0249
   91SOL    HW2  363   2.164   0.644   0.505 -0.7915 -1.3610 -0.0287
   91SOL     MW  364   2.190   0.704   0.561  0.3925 -0.4204 -0.5725
   92SOL     OW  365   1.639   0.864   0.445 -0.1234 -0.0119 -0.0401
   92SOL    HW1  366   1.545   0.832   0.441  0.7341  1.5209 -0.5193
   92SOL    HW2  367   1.690   0.791   0.402 -1.1237  0.5806 -1.2037
   92SOL     MW  368   1.634   0.850   0.439 -0.1422  0.2685 -0.2569
   93SOL     OW  369   1.042   0.313   0.348 -0.2645 -0.0929  0.3629
   93SOL    HW1  370   0.970   0.376   0.341 -1.9137 -1.3756 -0.2268
   93SOL    HW2  371   1.095   0.316   0.267  2.0418  0.6782 -0.1237
   93SOL     MW  372   1.039   0.321   0.337 -0.1778 -0.1604  0.2209
   94SOL     OW  373   1.923   1.340   1.583 -0.3251 -0.4011 -0.1756
   94SOL    HW1  374   1.905   1.352   1.488  1.9015 -0.0029 -0.5157
   94SOL    HW2  375   1.863   1.264   1.613  0.2512  0.9411  0.3672
   94SOL     MW  376   1.913   1.332   1.574  0.0447 -0.1715 -0.1489
   95SOL     OW  377   0.721   1.511   0.942 -0.1467  0.0699  0.5397
   95SOL    HW1  378   0.808   1.470   0.963 -0.0690  0.7818  0.5764
   95SOL    HW2  379   0.649   1.463   0.988 -2.2934 -1.3546 -0.9041
   95SOL     MW  380   0.723   1.499   0.951 -0.4196 -0.0241  0.3540
   96SOL     OW  381   1.211   1.810   1.588  0.2276  0.4421 -0.3855
   96SOL    HW1  382   1.122   1.781   1.579 -3.5764 -1.4399  0.2094
   96SOL    HW2  383   1.264   1.753   1.540  0.3625  2.7042 -0.1558
   96SOL     MW  384   1.206   1.799   1.581 -0.2565  0.4923 -0.2767
   97SOL     OW  385   1.202   1.424   0.763 -0.1496  0.2290 -0.2508
   97SOL    HW1  386   1.242   1.490   0.823  2.3427  0.1831  0.3906
   97SOL    HW2  387   1.116   1.460   0.742  3.0651  0.4213 -2.2520
   97SOL     MW  388   1.196   1.437   0.768  0.6033  0.2483 -0.4302
   98SOL     OW  389   1.497   1.293   1.063 -0.2037 -0.1915  0.0110
   98SOL    HW1  390   1.508   1.344   1.143  0.5282 -1.1788 -1.4554
   98SOL    HW2  391   1.510   1.351   0.989  2.5886  0.3746  0.2572
   98SOL     MW  392   1.500   1.308   1.064  0.2613 -0.2471 -0.1500
   99SOL     OW  393   1.468   0.359   1.298 -0.7457 -0.3294 -0.0665
   99SOL    HW1  394   1.492   0.420   1.227  0.3317  1.7577 -0.0520
   99SOL    HW2  395   1.455   0.402   1.379 -0.0755 -0.4977  0.8614
   99SOL     MW  396   1.470   0.373   1.299 -0.5151 -0.0762  0.0578
  100SOL     OW  397   1.002   1.098   1.471  0.0692  0.2159  0.2901
  100SOL    HW1  398   0.952   1.116   1.556  4.0288 -0.7788  2.7475
  100SOL    HW2  399   1.018   1.005   1.467  0.0154  1.4581 -0.2213
  100SOL     MW  400   0.997   1.088   1.482  0.5845  0.2485  0.5469
  101SOL     OW  401   0.574   1.092   0.253 -0.1377 -0.4757  0.0354
  101SOL    HW1  402   0.561   1.005   0.297  0.2216 -0.2901 -1.9061
  101SOL    HW2  403   0.530   1.081   0.171 -0.3215 -0.5052 -1.6529
  101SOL     MW  404   0.567   1.079   0.248 -0.1145 -0.4551 -0.4435
  102SOL     OW  405   2.964   0.651   0.985  1.1758  0.3060 -0.0787
  102SOL    HW1  406   3.041   0.694   0.957 -0.3486  4.1463 -0.3253
  102SOL    HW2  407   2.991   0.600   1.060 -1.5012 -0.9061 -1.0549
  102SOL     MW  408   2.978   0.650   0.991  0.6215  0.6527 -0.2401
  103SOL     OW  409   1.669   0.370   1.853  0.3465  0.0574 -0.0761
  103SOL    HW1  410   1.626   0.312   1.799  1.3095 -2.5523  0.8730
  103SOL    HW2  411   1.742   0.325   1.888 -0.1336 -0.2715 -2.5363
  103SOL     MW  412   1.673   0.356   1.850  0.4102 -0.3303 -0.2755
  104SOL     OW  413   0.158   1.831   1.447  0.5551 -0.7877  0.9620
  104SOL    HW1  414   0.212   1.811   1.517 -3.9142  1.9534  1.4259
  104SOL    HW2  415   0.146   1.744   1.405 -0.8807 -1.8739 -1.7391
  104SOL     MW  416   0.164   1.817   1.451 -0.2240 -0.5694  0.6668
  105SOL     OW  417   0.113   1.227   0.515 -0.3276  0.5849 -0.8468
  105SOL    HW1  418   0.140   1.146   0.460 -0.5704 -2.3710  0.2097
  105SOL    HW2  419   0.176   1.299   0.505 -1.7811 -0.5422  0.7219
  105SOL     MW  420   0.125   1.225   0.506 -0.5514  0.0462 -0.5004
  106SOL     OW  421   0.845   0.307   0.976 -0.1507  0.1628  0.4503
  106SOL    HW1  422   0.794   0.366   0.923 -0.3440  0.7397  0.9284
  106SOL    HW2  423   0.929   0.290   0.931 -1.5483 -2.8865  2.2434
  106SOL     MW  424   0.850   0.313   0.963 -0.3606 -0.1634  0.7500
  107SOL     OW  425   0.822   2.169   2.968 -0.1522 -0.1289  0.3166
  107SOL    HW1  426   0.755   2.115   2.926 -2.2313  3.9025 -3.1652
  107SOL    HW2  427   0.833   2.123   3.052 -0.1043  3.0492  2.3957
  107SOL     MW  428   0.815   2.156   2.973 -0.4202  0.8223  0.1315
  108SOL     OW  429   1.331   1.608   1.422 -0.3185 -0.5894  0.0136
  108SOL    HW1  430   1.263   1.550   1.377 -1.1775 -0.8976  1.6604
  108SOL    HW2  431   1.351   1.560   1.503 -0.9738 -1.8327 -4.4881
  108SOL     MW  432   1.324   1.594   1.427 -0.5183 -0.7942 -0.3631
  109SOL     OW  433   1.986   0.780   0.169  0.3913 -0.1141  0.2540
  109SOL    HW1  434   2.020   0.817   0.083  0.0410  6.4045 -1.4131
  109SOL    HW2  435   2.065   0.791   0.220  1.6464  0.2773 -1.0753
  109SOL     MW  436   2.001   0.786   0.164  0.5107  0.7976 -0.1413
  110SOL     OW  437   0.482   1.888   0.747 -0.3068  0.5567  0.9664
  110SOL    HW1  438   0.566   1.836   0.727  2.1696 -1.6630 -1.0147
  110SOL    HW2  439   0.496   1.969   0.705 -1.3278  1.0891  3.0716
  110SOL     MW  440   0.495   1.892   0.739 -0.1148  0.3341  0.9828
  111SOL     OW  441   0.719   0.869   1.486  0.0216  0.4992  0.3178
  111SOL    HW1  442   0.708   0.824   1.403 -0.7942  2.1831 -1.0185
  111SOL    HW2  443   0.649   0.838   1.542 -0.0675  1.0222  1.1118
  111SOL     MW  444   0.708   0.859   1.482 -0.0978  0.7904  0.2462
  112SOL     OW  445   1.317   1.095   1.711  0.0292 -0.6195 -0.1381
  112SOL    HW1  446   1.266   1.172   1.696 -0.9276 -1.4886  2.0765
  112SOL    HW2  447   1.250   1.027   1.726 -1.7052 -2.0720  2.0989
  112SOL     MW  448   1.301   1.096   1.711 -0.3258 -0.9258  0.4493
  113SOL     OW  449   1.323   3.097   1.734 -0.6149 -0.0600  0.0709
  113SOL    HW1  450   1.284   3.062   1.816  0.2404 -1.6220 -0.6409
  113SOL    HW2  451   1.299   3.035   1.659 -1.5143 -0.6439 -0.7858
  113SOL     MW  452   1.315   3.084   1.735 -0.6207 -0.3431 -0.1360
  114SOL     OW  453   0.479   2.814   1.916 -0.2933  0.2226  0.5222
  114SOL    HW1  454   0.439   2.884   1.966 -0.1192 -0.4443 -0.8616
  114SOL    HW2  455   0.466   2.829   1.819 -1.6933 -1.3679  0.5330
  114SOL     MW  456   0.472   2.825   1.910 -0.4551 -0.0752  0.3411
  115SOL     OW  457   0.487   0.833   1.115  0.0870 -0.2439  0.0773
  115SOL    HW1  458   0.514   0.747   1.143  3.0847 -2.1183 -1.1090
  115SOL    HW2  459   0.436   0.871   1.184  0.0508 -0.7551 -1.8707
  115SOL     MW  460   0.484   0.827   1.128  0.4777 -0.5586 -0.3363
  116SOL     OW  461   0.782   1.054   0.968  0.0624 -0.3799  0.0635
  116SOL    HW1  462   0.862   1.068   0.913  0.9709 -0.5484 -2.8357
  116SOL    HW2  463   0.818   1.056   1.058  1.6711  0.5652 -0.9861
  116SOL     MW  464   0.797   1.056   0.973  0.3945 -0.2774 -0.4575
  117SOL     OW  465   1.224   1.132   0.763 -0.1336  0.5158  0.1634
  117SOL    HW1  466   1.231   1.081   0.846 -2.5496  3.6428  0.3904
  117SOL    HW2  467   1.237   1.223   0.784 -0.3296 -1.9125  0.5529
  117SOL     MW  468   1.226   1.137   0.777 -0.4783  0.6080  0.2448
  118SOL     OW  469   3.070   2.951   1.701 -0.4047 -0.4313  0.3715
  118SOL    HW1  470   3.123   3.003   1.762 -0.1332 -2.9712 -0.9071
  118SOL    HW2  471   2.990   2.995   1.705 -0.5100 -1.2077 -1.7942
  118SOL     MW  472   3.066   2.964   1.709 -0.3828 -0.8689 -0.0829
  119SOL     OW  473   0.497   1.367   1.205 -0.8633  0.2425 -0.4319
  119SOL    HW1  474   0.494   1.349   1.114  0.1473 -1.3842 -1.0350
  119SOL    HW2  475   0.408   1.362   1.225  1.5986  0.2569 -1.9968
  119SOL     MW  476   0.485   1.364   1.195 -0.4051  0.0298 -0.7180
  120SOL     OW  477   0.166   0.708   0.967 -0.1160 -0.3189  0.9343
  120SOL    HW1  478   0.212   0.654   1.029 -0.0747  1.8604  0.0455
  120SOL    HW2  479   0.220   0.781   0.947 -1.1980 -3.4536 -2.3005
  120SOL     MW  480   0.179   0.710   0.972 -0.2533 -0.4450  0.3903
  121SOL     OW  481   1.854   1.111   1.715 -0.1604  0.2391 -0.5240
  121SOL    HW1  482   1.765   1.078   1.726 -0.9346 -0.8292 -1.0864
  121SOL    HW2  483   1.886   1.052   1.650  0.8658  0.8602  2.0506
  121SOL     MW  484   1.847   1.099   1.708 -0.1271  0.1801 -0.2585
  122SOL     OW  485   0.149   0.540   0.743  0.4486  0.5780 -0.0782
  122SOL    HW1  486   0.222   0.515   0.688 -0.7576  0.0393 -1.1752
  122SOL    HW2  487   0.189   0.584   0.819  0.5929  1.5234 -0.7844
  122SOL     MW  488   0.164   0.543   0.746  0.3085  0.6317 -0.3161
  123SOL     OW  489   1.819   1.089   0.476  0.1583  0.2765  0.6475
  123SOL    HW1  490   1.764   1.007   0.465  1.2708 -1.6141  0.0815
  123SOL    HW2  491   1.825   1.099   0.576  0.2376 -0.2404 -0.0510
  123SOL     MW  492   1.813   1.080   0.488  0.3155 -0.0412  0.4807
  124SOL     OW  493   0.660   0.556   0.916 -0.1336  0.1140  0.3739
  124SOL    HW1  494   0.584   0.539   0.855 -1.8256  0.0293 -0.1705
  124SOL    HW2  495   0.689   0.643   0.894 -0.1860  1.5708 -1.7624
  124SOL     MW  496   0.654   0.565   0.905 -0.3638  0.2951  0.0202
  125SOL     OW  497   0.659   1.732   1.697 -0.3577  0.1382 -0.1793
  125SOL    HW1  498   0.608   1.662   1.648 -0.8535 -0.0462  1.1301
  125SOL    HW2  499   0.624   1.821   1.678  0.5461  2.6969 -3.5194
  125SOL     MW  500   0.648   1.734   1.688 -0.3039  0.4514 -0.4472
  126SOL     OW  501   2.084   1.606   1.951 -0.0238  0.1293 -0.0077
  126SOL    HW1  502   2.149   1.678   1.942  0.8364  0.4109 -2.3999
  126SOL    HW2  503   2.121   1.525   1.984  1.6248 -2.1138  0.0188
  126SOL     MW  504   2.098   1.605   1.954  0.3072 -0.1295 -0.3198
  127SOL     OW  505   0.618   0.749   1.876  0.1240 -0.1647  0.3286
  127SOL    HW1  506   0.708   0.711   1.889  2.7658 -1.2576  0.3194
  127SOL    HW2  507   0.622   0.832   1.926 -0.8066 -0.6848 -0.8436
  127SOL     MW  508   0.630   0.755   1.884  0.3498 -0.3775  0.1727
  128SOL     OW  509   1.842   0.786   2.880 -0.3755 -0.3141 -0.5509
  128SOL    HW1  510   1.854   0.765   2.788 -0.0833  0.8975 -0.0011
  128SOL    HW2  511   1.780   0.866   2.883 -0.0334  1.1092  1.6753
  128SOL     MW  512   1.835   0.794   2.868 -0.2918  0.0335 -0.1846
  129SOL     OW  513   1.546   0.983   0.180  0.2509 -0.0654  0.1728
  129SOL    HW1  514   1.485   0.918   0.186  2.3678  0.6452  1.5651
  129SOL    HW2  515   1.602   0.968   0.258  1.5807  1.7131 -0.5116
  129SOL     MW  516   1.546   0.972   0.191  0.7056  0.2630  0.2662
  130SOL     OW  517   0.737   1.415   0.405  0.0921  0.0839  0.1728
  130SOL    HW1  518   0.804   1.406   0.466  1.0709 -1.3002  2.3207
  130SOL    HW2  519   0.777   1.444   0.321 -0.0095 -2.4477 -3.0409
  130SOL     MW  520   0.751   1.418   0.402  0.2079 -0.4328  0.0322
  131SOL     OW  521   3.019   0.829   0.018 -0.2940 -0.3450 -0.3857
  131SOL    HW1  522   3.020   0.890  -0.063 -0.7713  3.2100 -0.7638
  131SOL    HW2  523   3.106   0.806   0.025  0.4176 -3.4081 -2.4166
  131SOL     MW  524   3.030   0.834   0.008 -0.2631 -0.2801 -0.7035
  132SOL     OW  525   2.776   0.143   1.244  0.0278 -0.3547 -0.4387
  132SOL    HW1  526   2.810   0.153   1.156 -0.8683 -0.9430 -0.5667
  132SOL    HW2  527   2.681   0.141   1.222 -0.4735  1.4308  0.2232
  132SOL     MW  528   2.768   0.144   1.229 -0.1565 -0.1967 -0.3682
  133SOL     OW  529   1.092   0.119   1.715  0.2291  0.2496  0.2286
  133SOL    HW1  530   1.170   0.062   1.713  0.0766  0.9688  0.0263
  133SOL    HW2  531   1.083   0.150   1.807 -1.2298 -2.0775  0.9163
  133SOL     MW  532   1.101   0.116   1.727  0.0165  0.0374  0.2927
  134SOL     OW  533   1.398   2.518   1.433  0.5640  0.1106  0.2422
  134SOL    HW1  534   1.346   2.582   1.386  0.9956  0.1852 -1.4614
  134SOL    HW2  535   1.434   2.549   1.518 -1.4648 -0.0218 -1.1246
  134SOL     MW  536   1.396   2.530   1.438  0.3533  0.1030 -0.1629
  135SOL     OW  537   3.033   1.003   2.902  0.8252  0.5414 -0.4161
  135SOL    HW1  538   3.099   1.070   2.927 -1.8008  1.0253  0.5827
  135SOL    HW2  539   2.952   1.050   2.900  4.6847  0.0421  0.6567
  135SOL     MW  540   3.031   1.018   2.905  0.9880  0.5394 -0.1427
  136SOL     OW  541   0.229   2.010   0.833  1.0099  0.2773 -0.0480
  136SOL    HW1  542   0.149   1.952   0.831  0.2296  1.6963  0.1788
  136SOL    HW2  543   0.309   1.976   0.801  0.2566  3.1268 -0.4666
  136SOL     MW  544   0.229   1.998   0.829  0.8076  0.8405 -0.0733
  137SOL     OW  545   0.767   2.022   0.506  0.0318  0.0049  0.1190
  137SOL    HW1  546   0.774   1.994   0.596  1.4043  0.2670 -0.8564
  137SOL    HW2  547   0.675   2.052   0.498  0.7220 -0.4974 -0.4265
  137SOL     MW  548   0.755   2.022   0.517  0.3039 -0.0268 -0.0817
  138SOL     OW  549   0.532   0.566   1.159 -0.2764 -0.5123  0.5469
  138SOL    HW1  550   0.443   0.523   1.147 -0.9015  0.9848  0.9532
  138SOL    HW2  551   0.573   0.567   1.073 -0.7972 -0.8465  2.9272
  138SOL     MW  552   0.525   0.560   1.146 -0.4276 -0.3589  0.9146
  139SOL     OW  553   2.678   0.522   1.392 -0.4768 -0.2048  0.6997
  139SOL    HW1  554   2.745   0.466   1.351 -0.2956 -1.5094  2.3407
  139SOL    HW2  555   2.715   0.615   1.399  4.8563  0.6984 -0.3547
  139SOL     MW  556   2.692   0.527   1.388  0.2508 -0.2577  0.7771
  140SOL     OW  557   0.850   0.399   2.075  0.1243  0.1403 -0.1313
  140SOL    HW1  558   0.893   0.317   2.040 -0.8266  1.4118 -0.9091
  140SOL    HW2  559   0.891   0.420   2.160  0.3685  0.7433 -0.1979
  140SOL     MW  560   0.861   0.391   2.082  0.0311  0.3876 -0.2427
  141SOL     OW  561   1.044   0.585   1.749  0.8817 -0.2030 -0.0944
  141SOL    HW1  562   1.080   0.499   1.731  0.6460  3.3145  0.1069
  141SOL    HW2  563   1.115   0.646   1.742  1.8354  1.4843  0.9144
  141SOL     MW  564   1.058   0.582   1.746  0.9764  0.4837  0.0653
  142SOL     OW  565   0.948   1.110   0.753 -0.2333 -0.6576  0.5267
  142SOL    HW1  566   0.925   1.057   0.670 -0.6019 -0.3004 -1.4375
  142SOL    HW2  567   1.040   1.100   0.765 -0.2615 -2.0208  2.4725
  142SOL     MW  568   0.957   1.102   0.744 -0.2857 -0.7903  0.5242
  143SOL     OW  569   1.785   0.789   1.102  0.0157 -0.2112  0.2035
  143SOL    HW1  570   1.821   0.743   1.026 -2.2517  1.1333 -0.7302
  143SOL    HW2  571   1.752   0.718   1.165 -2.0627 -1.6963  0.0061
  143SOL     MW  572   1.785   0.773   1.100 -0.5577 -0.2298  0.0543
  144SOL     OW  573   0.224   1.219   1.537 -0.7700  0.6671 -0.0000
  144SOL    HW1  574   0.313   1.182   1.551 -0.1367  0.8787 -3.4554
  144SOL    HW2  575   0.200   1.242   1.627  2.6351 -0.4330  2.6408
  144SOL     MW  576   0.232   1.217   1.551 -0.2372  0.5499 -0.1075
  145SOL     OW  577   0.295   0.439   1.060  0.6604 -0.4163  1.0582
  145SOL    HW1  578   0.278   0.375   1.134 -2.2959  3.1405 -1.6506
  145SOL    HW2  579   0.294   0.381   0.979 -1.9123 -2.0842 -3.8948
  145SOL     MW  580   0.293   0.423   1.059 -0.0691 -0.1670  0.0473
  146SOL     OW  581   0.866   1.955   1.393 -0.5507  0.7216 -0.3124
  146SOL    HW1  582   0.901   1.947   1.300 -0.5162  1.5799 -0.2829
  146SOL    HW2  583   0.765   1.931   1.392 -4.4429 -2.6320 -0.9817
  146SOL     MW  584   0.857   1.950   1.380 -1.0597  0.3924 -0.3969
  147SOL     OW  585   0.388   0.439   2.954 -0.5808 -0.3312  0.3559
  147SOL    HW1  586   0.334   0.474   3.027 -2.0436  0.5773  0.7105
  147SOL    HW2  587   0.345   0.475   2.879 -0.6236 -2.4648 -2.1469
  147SOL     MW  588   0.375   0.448   2.954 -0.7795 -0.4929  0.0725
  148SOL     OW  589   0.075   0.870   1.371  0.1470  0.0680  0.3244
  148SOL    HW1  590   0.166   0.913   1.355  1.6108 -1.3007  0.4844
  148SOL    HW2  591   0.053   0.871   1.459  0.9798  1.9446 -0.4431
  148SOL     MW  592   0.084   0.875   1.380  0.4500  0.1350  0.2443
  149SOL     OW  593   1.390   1.149   1.463 -0.0933  0.5515 -0.2019
  149SOL    HW1  594   1.365   1.106   1.544 -2.3471  1.0177  0.5676
  149SOL    HW2  595   1.449   1.220   1.477  0.9091 -2.5135 -2.1474
  149SOL     MW  596   1.395   1.152   1.476 -0.2584  0.2086 -0.3570
  150SOL     OW  597   1.863   1.334   0.786  0.2768  0.7358 -0.7794
  150SOL    HW1  598   1.854   1.241   0.768  0.3634  0.5918 -1.5577
  150SOL    HW2  599   1.949   1.348   0.819 -0.3602  1.2979 -0.7978
  150SOL     MW  600   1.873   1.323   0.788  0.2042  0.7910 -0.8845
  151SOL     OW  601   1.659   1.867   0.850  0.0995  0.0971  0.1194
  151SOL    HW1  602   1.622   1.910   0.773 -1.8475  1.1072  1.6035
  151SOL    HW2  603   1.589   1.835   0.911  1.3411  1.9578 -2.8324
  151SOL     MW  604   1.645   1.868   0.848  0.0064  0.4759 -0.0742
  152SOL     OW  605   0.781   1.339   1.475  0.0154  0.1485 -0.3169
  152SOL    HW1  606   0.794   1.254   1.499 -2.7142  2.3585  0.4889
  152SOL    HW2  607   0.868   1.378   1.471  1.5067 -0.5914 -0.0102
  152SOL     MW  608   0.794   1.333   1.477 -0.1480  0.3424 -0.1701
  153SOL     OW  609   2.612   1.271   0.741 -0.3608 -0.3155 -0.0321
  153SOL    HW1  610   2.707   1.248   0.752  0.1128  1.0839  1.3332
  153SOL    HW2  611   2.558   1.192   0.724  1.0663  0.9981  3.5273
  153SOL     MW  612   2.617   1.257   0.741 -0.1100  0.0425  0.6177
  154SOL     OW  613   0.376   1.723   1.689  0.0294  0.1159  0.4642
  154SOL    HW1  614   0.389   1.685   1.602 -1.8033 -1.8061 -1.1162
  154SOL    HW2  615   0.351   1.659   1.748  2.4081  2.8582 -0.4079
  154SOL     MW  616   0.375   1.710   1.686  0.1014  0.2241  0.1406
  155SOL     OW  617   1.096   0.649   0.296 -0.1557 -0.3094 -0.2305
  155SOL    HW1  618   1.083   0.610   0.384  2.0275  1.1264  1.6591
  155SOL    HW2  619   1.038   0.731   0.304 -1.7749 -1.0395  0.1927
  155SOL     MW  620   1.086   0.655   0.309 -0.0813 -0.2163  0.0746
  156SOL     OW  621   1.518   3.011   1.053  0.7139  0.2943  0.2381
  156SOL    HW1  622   1.571   3.089   1.081  1.7520  1.7278 -0.5694
  156SOL    HW2  623   1.526   2.949   1.125 -0.2214 -1.1151  3.0640
  156SOL     MW  624   1.526   3.013   1.066  0.7274  0.2975  0.5044
  157SOL     OW  625   1.370   1.222   0.129  0.8219 -0.8050 -0.0037
  157SOL    HW1  626   1.405   1.140   0.163  2.4590  2.3118  1.7510
  157SOL    HW2  627   1.450   1.275   0.129 -1.1301 -0.0928 -0.1787
  157SOL     MW  628   1.385   1.218   0.134  0.7804 -0.2998  0.2047
  158SOL     OW  629   0.473   1.606   2.228 -0.2753  0.2520  0.0341
  158SOL    HW1  630   0.479   1.668   2.158 -0.0780  1.3701 -0.0850
  158SOL    HW2  631   0.386   1.626   2.261  1.0157  0.0476  3.4234
  158SOL     MW  632   0.463   1.617   2.223 -0.0789  0.3726  0.4656
  159SOL     OW  633   1.325   1.693   0.461 -0.4814  0.3747  0.2788
  159SOL    HW1  634   1.294   1.610   0.428  1.3071  3.1069 -1.0626
  159SOL    HW2  635   1.240   1.726   0.502  1.2378 -0.6091  1.2316
  159SOL     MW  636   1.310   1.686   0.462 -0.0186  0.6054  0.2275
  160SOL     OW  637   0.473   1.127   1.563  0.0817  0.0585  0.1574
  160SOL    HW1  638   0.483   1.045   1.616 -0.3209  1.5834 -0.6285
  160SOL    HW2  639   0.496   1.191   1.638 -1.7616 -1.8324  1.6462
  160SOL     MW  640   0.477   1.125   1.580 -0.2146  0.0102  0.2501
  161SOL     OW  641   0.542   2.153   2.645 -0.1060  0.1763 -0.4949
  161SOL    HW1  642   0.465   2.108   2.678  0.6300 -0.4191 -0.9323
  161SOL    HW2  643   0.552   2.121   2.559  0.1242  1.6558 -1.1587
  161SOL     MW  644   0.533   2.143   2.638  0.0215  0.2930 -0.6402
  162SOL     OW  645   0.997   1.683   1.734  0.0632  0.7020  0.1795
  162SOL    HW1  646   1.033   1.778   1.752 -1.8683  1.1879  1.7712
  162SOL    HW2  647   0.922   1.682   1.799 -3.5751  1.0547  1.5745
  162SOL     MW  648   0.992   1.695   1.745 -0.6717  0.8127  0.5735
  163SOL     OW  649   2.117   0.132   0.978  0.0037 -0.6428 -0.0070
  163SOL    HW1  650   2.122   0.117   0.882 -0.0974 -0.2820  3.3352
  163SOL    HW2  651   2.051   0.068   1.009 -0.9474 -0.4172 -1.2798
  163SOL     MW  652   2.109   0.122   0.969 -0.1351 -0.5655  0.2660
  164SOL     OW  653   0.290   0.217   0.732  0.3203 -0.1790  0.3766
  164SOL    HW1  654   0.212   0.218   0.790 -1.7195  0.1268  0.2659
  164SOL    HW2  655   0.284   0.125   0.702  1.2648 -0.6448  2.6852
  164SOL     MW  656   0.279   0.205   0.736  0.1758 -0.2001  0.6666
  165SOL     OW  657   1.363   1.269   0.414 -0.0139 -0.0116 -0.3980
  165SOL    HW1  658   1.309   1.211   0.473 -1.4746 -0.7855  1.2720
  165SOL    HW2  659   1.366   1.233   0.325 -3.7603 -2.0432  2.8709
  165SOL     MW  660   1.356   1.257   0.410 -0.7009 -0.3818  0.2536
  166SOL     OW  661   0.522   1.020   0.930  0.0679  0.3843  0.0311
  166SOL    HW1  662   0.502   0.963   1.011 -0.1493 -0.0806  0.4542
  166SOL    HW2  663   0.615   1.038   0.946 -0.7689 -3.6155  0.4937
  166SOL     MW  664   0.532   1.015   0.943 -0.0711 -0.2048  0.1479
  167SOL     OW  665   0.840   1.173   0.256 -0.3570 -0.2203 -0.7869
  167SOL    HW1  666   0.743   1.153   0.236 -0.3231  0.3155 -2.5419
  167SOL    HW2  667   0.890   1.213   0.192 -0.2503 -0.9913  2.8112
  167SOL     MW  668   0.834   1.175   0.245 -0.3384 -0.2513 -0.5437
  168SOL     OW  669   1.694   1.712   2.914 -0.4998 -0.4465  0.3820
  168SOL    HW1  670   1.606   1.723   2.882  0.2962 -0.0123 -0.1362
  168SOL    HW2  671   1.704   1.627   2.945 -1.9989  1.8102 -1.0337
  168SOL     MW  672   1.683   1.702   2.913 -0.5926 -0.0915  0.1268
  169SOL     OW  673   0.349   0.967   1.315  0.1814  0.3330 -0.5339
  169SOL    HW1  674   0.417   0.960   1.379  0.4647  0.3894 -1.0429
  169SOL    HW2  675   0.392   1.043   1.270  1.7248  1.6610  1.3818
  169SOL     MW  676   0.364   0.976   1.318  0.4224  0.5156 -0.3483
  170SOL     OW  677   1.051   1.465   1.500 -0.4709 -0.1041 -0.0481
  170SOL    HW1  678   0.999   1.546   1.500  0.0610 -1.7680 -0.7544
  170SOL    HW2  679   1.086   1.438   1.407 -1.4570  1.0545  1.3421
  170SOL     MW  680   1.049   1.472   1.488 -0.5309 -0.1708  0.0422
  171SOL     OW  681   0.581   1.399   0.685 -0.2772  0.5179  0.1123
  171SOL    HW1  682   0.553   1.389   0.771 -0.5383 -1.8193 -0.7139
  171SOL    HW2  683   0.532   1.335   0.632 -2.2568  3.1798  0.8004
  171SOL     MW  684   0.571   1.390   0.689 -0.5729  0.5607  0.0941
  172SOL     OW  685   0.861   0.317   1.245  0.3485  0.1576  0.5018
  172SOL    HW1  686   0.858   0.320   1.143  2.2603  0.5723  0.0712
  172SOL    HW2  687   0.767   0.310   1.279 -1.7855 -1.8001  0.3869
  172SOL     MW  688   0.848   0.316   1.236  0.3192 -0.0460  0.4299
  173SOL     OW  689   0.473   1.687   0.382 -0.0304 -0.5814  0.3953
  173SOL    HW1  690   0.500   1.594   0.360  2.2750 -3.4586 -1.3691
  173SOL    HW2  691   0.496   1.695   0.474 -1.1065 -1.0952  1.9782
  173SOL     MW  692   0.479   1.676   0.391  0.1318 -1.0288  0.3713
  174SOL     OW  693   1.985   0.918   1.443 -0.3418  0.4469  0.1428
  174SOL    HW1  694   1.923   0.855   1.496 -2.3377  1.9789  0.9864
  174SOL    HW2  695   1.921   0.946   1.380  0.9128 -0.7145  0.1861
  174SOL     MW  696   1.969   0.913   1.442 -0.4396  0.4958  0.2598
  175SOL     OW  697   0.498   1.420   0.320  0.4192 -0.1685  0.2554
  175SOL    HW1  698   0.478   1.393   0.233 -0.7055 -1.0126  2.2253
  175SOL    HW2  699   0.587   1.402   0.340 -2.3900 -2.2177 -0.1508
  175SOL     MW  700   0.507   1.414   0.311 -0.0998 -0.5502  0.4617
  176SOL     OW  701   0.237   1.273   1.275  0.3103  0.4903  0.4496
  176SOL    HW1  702   0.157   1.245   1.228 -1.7511 -0.6552 -0.1684
  176SOL    HW2  703   0.236   1.251   1.376 -1.8311  1.0219 -0.7679
  176SOL     MW  704   0.226   1.267   1.282 -0.2442  0.4093  0.2074
  177SOL     OW  705   0.585   0.333   1.325 -0.1361 -0.1263 -0.4955
  177SOL    HW1  706   0.578   0.383   1.247 -0.6789 -2.1370 -1.3962
  177SOL    HW2  707   0.585   0.397   1.398 -1.0040  0.7113 -5.6075
  177SOL     MW  708   0.584   0.348   1.325 -0.3222 -0.2811 -1.2888
  178SOL     OW  709   3.055   0.411   2.911 -0.1632 -0.5186 -0.1752
  178SOL    HW1  710   3.033   0.462   2.993 -0.3790 -1.0404 -0.1446
  178SOL    HW2  711   2.963   0.410   2.874  1.2161 -0.3305  0.1059
  178SOL     MW  712   3.040   0.417   2.917 -0.0097 -0.5627 -0.1341
  179SOL     OW  713   1.640   1.316   1.437 -0.1648  0.1496  0.1646
  179SOL    HW1  714   1.654   1.374   1.517  1.6040  3.7273 -0.9393
  179SOL    HW2  715   1.724   1.325   1.390  2.4641 -2.0408 -1.8470
  179SOL     MW  716   1.653   1.325   1.442  0.4154  0.3326 -0.2465
  180SOL     OW  717   2.995   0.182   0.437 -0.3987 -0.2212 -0.1679
  180SOL    HW1  718   2.956   0.195   0.348  0.2651  0.2677  0.5360
  180SOL    HW2  719   3.052   0.265   0.444  0.6398  1.6321 -1.2617
  180SOL     MW  720   2.997   0.195   0.426 -0.1741  0.0878 -0.2194
  181SOL     OW  721   1.154   1.452   3.017 -0.0583  0.2487  0.6178
  181SOL    HW1  722   1.226   1.450   3.080 -0.0957  1.5956 -0.4226
  181SOL    HW2  723   1.198   1.416   2.938  0.6299 -3.0982  0.6317
  181SOL     MW  724   1.169   1.447   3.015  0.0275 -0.0152  0.4824
  182SOL     OW  725   0.475   0.848   1.661  0.0336 -0.0523 -0.1691
  182SOL    HW1  726   0.387   0.850   1.699  1.5711  1.8638  0.3875
  182SOL    HW2  727   0.522   0.804   1.733 -0.2217 -1.1216  0.0644
  182SOL     MW  728   0.469   0.842   1.675  0.2028  0.0594 -0.0649
  183SOL     OW  729   1.550   1.479   1.249 -0.5213  0.1921 -0.6549
  183SOL    HW1  730   1.461   1.513   1.275 -1.1302 -0.3630 -0.9043
  183SOL    HW2  731   1.577   1.425   1.322 -0.9603 -1.1297 -0.6355
  183SOL     MW  732   1.542   1.476   1.262 -0.6596 -0.0555 -0.6853
  184SOL     OW  733   0.858   0.629   1.942  0.0900 -0.7836  0.4968
  184SOL    HW1  734   0.937   0.634   1.885 -0.0284  2.4946  0.0491
  184SOL    HW2  735   0.858   0.551   1.989 -1.2605  2.1111  1.8360
  184SOL     MW  736   0.868   0.619   1.941 -0.1038  0.0308  0.6144
  185SOL     OW  737   1.197   0.935   1.982  0.4031 -0.0865 -0.4975
  185SOL    HW1  738   1.196   0.859   2.037 -0.3178 -0.1118 -1.7631
  185SOL    HW2  739   1.234   1.004   2.028 -0.8117 -0.4158  0.6940
  185SOL     MW  740   1.202   0.934   1.996  0.1477 -0.1333 -0.5073
  186SOL     OW  741   0.418   1.653   1.409 -0.1324 -0.0797 -0.3291
  186SOL    HW1  742   0.417   1.739   1.371  0.3667  0.6191 -0.8236
  186SOL    HW2  743   0.342   1.611   1.376  0.3034 -0.4332  2.6502
  186SOL     MW  744   0.408   1.659   1.399 -0.0091 -0.0342 -0.0013
  187SOL     OW  745   1.468   0.745   1.475 -0.4897  0.5098 -0.1984
  187SOL    HW1  746   1.471   0.714   1.567  0.2046 -1.7829 -2.4863
  187SOL    HW2  747   1.386   0.712   1.438  0.7151  0.1935  0.5118
  187SOL     MW  748   1.458   0.736   1.483 -0.2391  0.1655 -0.4066
  188SOL     OW  749   1.887   1.048   0.729 -0.1594  0.0249  0.5678
  188SOL    HW1  750   1.890   0.961   0.764 -1.9479  1.7529 -1.6034
  188SOL    HW2  751   1.979   1.072   0.725  0.5779  2.3161  2.7128
  188SOL     MW  752   1.900   1.040   0.733 -0.2981  0.5552  0.5643
  189SOL     OW  753   0.690   0.835   0.799  0.6805 -0.1709 -0.5786
  189SOL    HW1  754   0.625   0.893   0.753  0.3041  1.1099  0.6042
  189SOL    HW2  755   0.709   0.889   0.875  0.3950  1.2181  2.0033
  189SOL     MW  756   0.684   0.850   0.803  0.5932  0.1814 -0.0819
  190SOL     OW  757   1.870   0.227   2.018  0.1103 -0.5791  0.1669
  190SOL    HW1  758   1.894   0.139   2.012  2.7712 -1.8321  1.2669
  190SOL    HW2  759   1.955   0.266   2.006  1.2457  1.4305  2.7261
  190SOL     MW  760   1.884   0.221   2.016  0.6112 -0.4792  0.6497
  191SOL     OW  761   1.516   0.980   1.300 -0.0744 -0.2419 -0.8549
  191SOL    HW1  762   1.466   1.041   1.356  0.2237 -0.0500  0.1791
  191SOL    HW2  763   1.493   0.897   1.343 -0.0668 -1.3429 -1.5964
  191SOL     MW  764   1.507   0.977   1.313 -0.0341 -0.3618 -0.8163
  192SOL     OW  765   0.682   1.989   2.835 -0.9017 -0.0712 -0.2640
  192SOL    HW1  766   0.632   2.036   2.768 -0.4942 -1.5624  3.6141
  192SOL    HW2  767   0.628   1.908   2.851 -0.6014  1.0735 -0.6176
  192SOL     MW  768   0.668   1.985   2.829 -0.8083 -0.1170  0.2010
  193SOL     OW  769   0.966   1.639   0.760  0.3412 -0.2695 -0.7475
  193SOL    HW1  770   0.931   1.678   0.837  1.3881 -2.0174  3.0435
  193SOL    HW2  771   0.904   1.575   0.724  0.7048  0.4311 -0.7902
  193SOL     MW  772   0.953   1.636   0.765  0.5273 -0.4077 -0.2530
  194SOL     OW  773   0.484   1.308   0.941  0.7711  0.1563  0.4811
  194SOL    HW1  774   0.494   1.215   0.939  1.4443  3.5273  2.0355
  194SOL    HW2  775   0.400   1.330   0.911  1.7303 -0.8640  2.3536
  194SOL     MW  776   0.475   1.299   0.937  0.9865  0.4665  0.9332
  195SOL     OW  777   1.298   1.097   2.967 -0.0027 -0.2431 -0.5742
  195SOL    HW1  778   1.340   1.123   3.053  0.4820 -1.6744  2.0760
  195SOL    HW2  779   1.218   1.054   2.991 -0.6991  0.0663 -0.6146
  195SOL     MW  780   1.293   1.095   2.981 -0.0306 -0.3911 -0.2299
  196SOL     OW  781   2.200   1.080   0.621 -0.2340  0.1942  0.0046
  196SOL    HW1  782   2.134   1.033   0.566  1.4191  0.4587 -1.5066
  196SOL    HW2  783   2.199   1.176   0.602  2.5962  0.7709 -0.1176
  196SOL     MW  784   2.191   1.086   0.611  0.3575  0.3052 -0.2109
  197SOL     OW  785   0.624   1.258   2.031  0.2804  0.1458  0.1454
  197SOL    HW1  786   0.602   1.162   2.035  3.6793  2.3616 -0.6081
  197SOL    HW2  787   0.597   1.274   1.944 -0.1348  1.5965 -0.0129
  197SOL     MW  788   0.618   1.247   2.020  0.6740  0.6296  0.0251
  198SOL     OW  789   2.939   1.478   1.020  0.0513 -0.0799  0.5816
  198SOL    HW1  790   2.935   1.577   1.006 -0.1840  2.5335 -0.1401
  198SOL    HW2  791   2.855   1.454   0.986  0.9510  0.5325  1.9704
  198SOL     MW  792   2.927   1.488   1.014  0.1390  0.3457  0.6696
  199SOL     OW  793   0.505   1.301   1.761  0.0687  0.0203  1.0072
  199SOL    HW1  794   0.419   1.306   1.797  0.0839  0.7726 -1.0657
  199SOL    HW2  795   0.517   1.383   1.701  0.6616 -1.6902 -1.8431
  199SOL     MW  796   0.495   1.312   1.758  0.1489 -0.1061  0.3576
  200SOL     OW  797   1.899   3.100   1.341 -0.0076  0.0044  0.2691
  200SOL    HW1  798   1.885   3.059   1.256  1.7634  0.1030  1.3312
  200SOL    HW2  799   1.815   3.128   1.377  2.6619 -0.8151  1.9376
  200SOL     MW  800   1.886   3.098   1.334  0.5783 -0.0907  0.6294
  201SOL     OW  801   1.075   0.286   0.808 -0.2668 -0.4030 -0.2369
  201SOL    HW1  802   1.072   0.193   0.802 -1.2323 -1.1278  2.0945
  201SOL    HW2  803   1.082   0.308   0.710  1.2500  0.8926 -3.3092
  201SOL     MW  804   1.075   0.277   0.794 -0.1941 -0.3277 -0.3347
  202SOL     OW  805   1.539   1.669   1.045  0.0725  0.1316 -0.0837
  202SOL    HW1  806   1.585   1.614   0.976  0.5867 -0.8264  0.3377
  202SOL    HW2  807   1.555   1.617   1.124  0.1037  1.0369 -0.2467
  202SOL     MW  808   1.547   1.655   1.046  0.1445  0.1246 -0.0496
  203SOL     OW  809  -0.004   0.482   1.168 -0.0463  0.0372 -0.4027
  203SOL    HW1  810   0.033   0.418   1.111 -1.8341 -1.6978 -0.6951
  203SOL    HW2  811   0.074   0.510   1.224 -0.1393 -1.3349  0.5128
  203SOL     MW  812   0.011   0.477   1.168 -0.2945 -0.3727 -0.3205
  204SOL     OW  813   1.053   1.784   0.525 -0.2054  0.1150  0.2822
  204SOL    HW1  814   1.016   1.728   0.593 -0.1666  1.6186 -0.3780
  204SOL    HW2  815   0.973   1.799   0.476  1.2694 -0.0136 -1.7554
  204SOL     MW  816   1.037   1.779   0.528 -0.0057  0.2964 -0.0737
  205SOL     OW  817   1.358   0.102   1.340  0.1081 -0.2354  0.4212
  205SOL    HW1  818   1.308   0.082   1.264  0.2670  0.2502  1.6607
  205SOL    HW2  819   1.374   0.192   1.317 -3.0069 -2.2772 -1.7884
  205SOL     MW  820   1.353   0.111   1.327 -0.2819 -0.4407  0.2932
  206SOL     OW  821   0.417   3.088   1.418 -0.1472  0.0781 -0.0358
  206SOL    HW1  822   0.352   3.094   1.354 -0.0736 -0.8074  3.6447
  206SOL    HW2  823   0.484   3.018   1.404 -2.2977 -2.0061  1.5415
  206SOL     MW  824   0.417   3.079   1.408 -0.4212 -0.3137  0.6579
  207SOL     OW  825   0.952   1.502   0.207  0.5857  0.0721 -0.3555
  207SOL    HW1  826   0.929   1.593   0.198  1.0624 -0.5976  1.5966
  207SOL    HW2  827   1.019   1.494   0.269 -2.0936  0.7723 -2.8208
  207SOL     MW  828   0.958   1.513   0.214  0.2951  0.0761 -0.4232
  208SOL     OW  829   0.696   1.586   1.275  0.0935 -0.3516  0.8006
  208SOL    HW1  830   0.745   1.611   1.357  0.4260  1.6844  3.4292
  208SOL    HW2  831   0.669   1.496   1.273  0.3626 -0.9598  1.3882
  208SOL     MW  832   0.699   1.577   1.285  0.1729 -0.1632  1.2250
  209SOL     OW  833   1.560   0.537   2.827  0.1374 -0.0508  0.5346
  209SOL    HW1  834   1.598   0.594   2.895  1.8007  1.2740 -2.0298
  209SOL    HW2  835   1.618   0.454   2.831 -1.6876  2.9423  0.2148
  209SOL     MW  836   1.573   0.533   2.836  0.1161  0.5189  0.1541
  210SOL     OW  837   1.617   1.449   0.880  0.3328 -0.1623 -0.0169
  210SOL    HW1  838   1.703   1.412   0.864 -1.0857 -0.5810 -2.0836
  210SOL    HW2  839   1.564   1.435   0.797  0.5149  0.5080 -3.1104
  210SOL     MW  840   1.621   1.442   0.867  0.1696 -0.1291 -0.6977
  211SOL     OW  841   1.712   0.419   0.931 -0.6317 -1.1793  0.0054
  211SOL    HW1  842   1.698   0.416   0.836  2.2176 -2.3464  2.5468
  211SOL    HW2  843   1.805   0.436   0.942  0.8282  0.3566  1.4462
  211SOL     MW  844   1.723   0.421   0.920 -0.0631 -1.1306  0.5308
  212SOL     OW  845   0.235   1.136   0.090  0.1653 -0.2039  0.1494
  212SOL    HW1  846   0.187   1.101   0.169 -1.2144 -1.7786 -2.4334
  212SOL    HW2  847   0.299   1.067   0.073 -1.0458 -0.3518 -0.0984
  212SOL     MW  848   0.237   1.122   0.098 -0.1765 -0.4312 -0.2240
  213SOL     OW  849   0.403   1.758   3.043  0.0711  0.5042 -0.7742
  213SOL    HW1  850   0.461   1.794   3.109 -0.2168 -1.6092  0.3719
  213SOL    HW2  851   0.447   1.774   2.960  3.6443 -0.0964  0.0209
  213SOL     MW  852   0.417   1.765   3.041  0.5046  0.1461 -0.5181
  214SOL     OW  853   0.628   0.276   2.244 -0.5003  0.4241 -0.1694
  214SOL    HW1  854   0.543   0.326   2.237 -3.1947  1.0745 -0.6992
  214SOL    HW2  855   0.683   0.321   2.185  1.9151 -1.4898 -0.7120
  214SOL     MW  856   0.624   0.288   2.235 -0.5371  0.2574 -0.3109
  215SOL     OW  857   0.466   0.702   2.608 -0.0736 -0.4470  0.1544
  215SOL    HW1  858   0.437   0.677   2.520 -0.6224 -0.0268 -0.5567
  215SOL    HW2  859   0.396   0.662   2.669 -0.8076  0.0412  3.6005
  215SOL     MW  860   0.453   0.694   2.604 -0.2429 -0.3272  0.5153
  216SOL     OW  861   3.044   3.037   2.674 -0.4439 -0.1728 -0.3322
  216SOL    HW1  862   3.009   3.061   2.764 -0.2672  3.8164 -3.4254
  216SOL    HW2  863   3.033   3.126   2.638 -0.0321 -0.6789  0.0072
  216SOL     MW  864   3.038   3.052   2.681 -0.3663  0.2868 -0.6956
  217SOL     OW  865   0.964   1.272   0.025 -0.1072  0.0967  0.3779
  217SOL    HW1  866   1.009   1.189   0.024 -3.2006 -0.3263 -1.1433
  217SOL    HW2  867   1.025   1.340   0.029  0.5550 -2.4090 -1.3279
  217SOL     MW  868   0.978   1.270   0.026 -0.4280 -0.2897 -0.0479
  218SOL     OW  869   0.912   1.319   2.542 -0.4818  0.5577 -0.2059
  218SOL    HW1  870   0.928   1.241   2.595 -1.4220  0.9966 -3.0052
  218SOL    HW2  871   0.972   1.377   2.576 -2.1363  0.5071 -1.3586
  218SOL     MW  872   0.922   1.317   2.554 -0.8242  0.6090 -0.7273
  219SOL     OW  873   1.054   0.462   2.519  0.2429  0.2328 -0.0527
  219SOL    HW1  874   1.122   0.477   2.586 -1.3375 -0.9936  3.0126
  219SOL    HW2  875   1.006   0.547   2.510  0.7720  0.0025 -0.9213
  219SOL     MW  876   1.057   0.475   2.526  0.1042  0.0406  0.2371
  220SOL     OW  877   1.798   0.438   2.185 -0.0291 -0.3642  0.2997
  220SOL    HW1  878   1.731   0.496   2.147  0.7079 -2.8937  0.1444
  220SOL    HW2  879   1.792   0.366   2.126 -1.4051  0.5559  1.0415
  220SOL     MW  880   1.788   0.436   2.172 -0.1134 -0.5766  0.3771
  221SOL     OW  881   0.363   1.328   2.895 -0.4108  0.1082 -0.2786
  221SOL    HW1  882   0.398   1.247   2.863 -0.8883  0.2620 -1.0943
  221SOL    HW2  883   0.360   1.365   2.810 -0.4339 -1.9180 -1.1726
  221SOL     MW  884   0.367   1.322   2.880 -0.4768 -0.1388 -0.5042
  222SOL     OW  885   0.277   0.911   2.618  0.0713 -0.4301  0.1321
  222SOL    HW1  886   0.263   0.969   2.540 -0.2529  1.1489 -3.0599
  222SOL    HW2  887   0.342   0.849   2.589 -2.1151 -0.1786 -0.0673
  222SOL     MW  888   0.284   0.911   2.604 -0.2599 -0.1885 -0.3153
  223SOL     OW  889   0.032   2.052   2.607  0.1396  0.7613  0.1527
  223SOL    HW1  890   0.067   1.971   2.634 -1.8188 -3.1961  0.1468
  223SOL    HW2  891   0.090   2.091   2.537  3.5895  1.3647  0.1656
  223SOL     MW  892   0.044   2.046   2.601  0.3364  0.3187  0.1536
  224SOL     OW  893   1.476   0.809   2.587  0.2837 -0.3787  0.4119
  224SOL    HW1  894   1.428   0.828   2.662  0.9814 -0.7560 -1.3335
  224SOL    HW2  895   1.496   0.887   2.540 -1.4432  0.9626 -0.7667
  224SOL     MW  896   1.472   0.822   2.591  0.1479 -0.2515  0.0261
  225SOL     OW  897   2.973   1.514   2.291 -0.7050  0.2756  0.6164
  225SOL    HW1  898   2.997   1.567   2.214  1.7715  1.9646  2.4886
  225SOL    HW2  899   2.916   1.573   2.342 -0.3570  1.6334  0.1029
  225SOL     MW  900   2.969   1.529   2.287 -0.3323  0.6776  0.7957
  226SOL     OW  901   0.401   1.431   2.607 -0.0155 -0.4056  0.1196
  226SOL    HW1  902   0.498   1.420   2.617  0.9445  1.9421  0.3261
  226SOL    HW2  903   0.399   1.528   2.592  0.2452 -1.1364 -0.9676
  226SOL     MW  904   0.414   1.442   2.606  0.1455 -0.1923  0.0034
  227SOL     OW  905   0.443   1.058   2.805  0.2407 -0.1463 -0.5306
  227SOL    HW1  906   0.514   1.108   2.770  1.1127  1.7339  1.6349
  227SOL    HW2  907   0.400   1.022   2.725 -0.2864  2.5316  1.6589
  227SOL     MW  908   0.447   1.060   2.790  0.2862  0.4551  0.0440
  228SOL     OW  909   0.645   1.002   1.998 -0.3073  0.2498  0.0963
  228SOL    HW1  910   0.727   1.050   1.967  1.6551  0.1315 -0.1089
  228SOL    HW2  911   0.667   0.950   2.084 -0.1530 -0.8763  0.6954
  228SOL     MW  912   0.659   1.002   2.006 -0.0280  0.0856  0.1483
  229SOL     OW  913   0.186   0.546   3.087  0.1480  0.4629 -0.1599
  229SOL    HW1  914   0.124   0.516   3.018 -0.8100  1.5271 -0.8489
  229SOL    HW2  915   0.164   0.484   3.160 -0.3457  2.5878 -3.0206
  229SOL     MW  916   0.175   0.534   3.088 -0.0435  0.8837 -0.6282
  230SOL     OW  917   1.763   1.386   2.027 -0.2681  0.7279 -0.0913
  230SOL    HW1  918   1.743   1.384   2.122  0.3407  0.0446  0.7173
  230SOL    HW2  919   1.838   1.329   2.038  0.2373  0.4863  0.6394
  230SOL     MW  920   1.770   1.378   2.041 -0.1211  0.6058  0.1118
  231SOL     OW  921   2.777   1.330   2.208  0.3551  0.3821  0.6166
  231SOL    HW1  922   2.845   1.399   2.209 -1.7067 -0.5744 -0.4562
  231SOL    HW2  923   2.716   1.356   2.134  2.7408  3.6756 -1.3625
  231SOL     MW  924   2.778   1.343   2.198  0.3978  0.6905  0.2139
  232SOL     OW  925   2.280   0.868   2.140 -0.1381  0.3257  0.0954
  232SOL    HW1  926   2.224   0.908   2.071 -0.3749  0.5081  0.6793
  232SOL    HW2  927   2.220   0.874   2.213 -0.3196 -1.4445 -2.2649
  232SOL     MW  928   2.265   0.874   2.141 -0.1933  0.1162 -0.1390
  233SOL     OW  929   2.046   0.523   1.957 -0.1806  0.5415  0.4897
  233SOL    HW1  930   2.078   0.534   1.870  0.5204 -4.1425 -1.2507
  233SOL    HW2  931   2.110   0.482   2.011  0.7674 -2.7400 -1.6559
  233SOL     MW  932   2.059   0.519   1.952  0.0369 -0.5095 -0.0230
  234SOL     OW  933   0.281   1.002   2.385  0.5163 -0.3240  0.4726
  234SOL    HW1  934   0.202   1.054   2.367  0.0687 -2.1163  2.2246
  234SOL    HW2  935   0.356   1.063   2.396  1.4171  1.2360  1.3748
  234SOL     MW  936   0.280   1.017   2.384  0.5761 -0.3547  0.8228
  235SOL     OW  937   1.086   3.069   2.740  0.1371  0.6187  0.1679
  235SOL    HW1  938   1.113   3.003   2.807 -2.0439 -1.3129 -0.4738
  235SOL    HW2  939   1.054   3.143   2.788  0.7800 -2.4451 -0.0607
  235SOL     MW  940   1.085   3.070   2.756 -0.0659 -0.0404  0.0531
  236SOL     OW  941   2.960   0.544   0.016  0.3707  0.1726  0.1959
  236SOL    HW1  942   2.868   0.537  -0.021  1.7916 -1.1199 -2.3732
  236SOL    HW2  943   2.960   0.639   0.041 -0.4880 -0.0317  2.8993
  236SOL     MW  944   2.948   0.555   0.015  0.4448 -0.0249  0.2136
  237SOL     OW  945   1.808   0.966   2.156  0.7361  0.2073  0.1219
  237SOL    HW1  946   1.850   1.047   2.124  0.6447  1.9591 -2.1881
  237SOL    HW2  947   1.810   0.972   2.254 -3.8981  0.0473  3.2468
  237SOL     MW  948   1.814   0.978   2.165  0.1126  0.4173  0.2294
  238SOL     OW  949   1.063   1.771   2.973 -0.0225  0.1145  0.5501
  238SOL    HW1  950   1.008   1.689   2.970 -0.6168  1.7030 -3.2669
  238SOL    HW2  951   1.155   1.736   2.973 -0.7208 -0.6011 -0.9012
  238SOL     MW  952   1.068   1.756   2.973 -0.1931  0.2297 -0.1450
  239SOL     OW  953   1.202   1.434   2.348  0.5680 -0.4179  0.5779
  239SOL    HW1  954   1.180   1.461   2.436 -2.1018  2.6187 -0.7924
  239SOL    HW2  955   1.255   1.356   2.348  0.2454  1.0030  0.8470
  239SOL     MW  956   1.206   1.428   2.359  0.1732  0.1702  0.4326
  240SOL     OW  957   0.684   0.892   2.251  0.3825 -0.5770 -1.0597
  240SOL    HW1  958   0.678   0.929   2.341  1.3729  0.5579  1.3657
  240SOL    HW2  959   0.783   0.885   2.237  3.4502 -2.1730 -1.7834
  240SOL     MW  960   0.696   0.896   2.261  0.9179 -0.6378 -0.8352
  241SOL     OW  961   0.620   0.339   3.052  0.4328 -0.0906  0.4521
  241SOL    HW1  962   0.636   0.408   3.121 -0.1176  2.8009  1.0617
  241SOL    HW2  963   0.555   0.392   3.002  0.5486  0.3997  0.6055
  241SOL     MW  964   0.614   0.355   3.055  0.3754  0.3556  0.5528
  242SOL     OW  965   1.521   1.752   2.266  0.4600 -0.3823 -0.2725
  242SOL    HW1  966   1.456   1.800   2.314  2.3308 -1.6165 -0.3361
  242SOL    HW2  967   1.484   1.709   2.192  0.8098 -2.3667  0.7687
  242SOL     MW  968   1.507   1.753   2.262  0.7530 -0.8069 -0.1435
  243SOL     OW  969   0.965   0.220   2.368  0.6336  0.3373  0.7598
  243SOL    HW1  970   1.043   0.163   2.341  0.9111  1.0751  0.1304
  243SOL    HW2  971   0.996   0.297   2.412  0.0862 -2.4218  0.6328
  243SOL     MW  972   0.979   0.222   2.370  0.5980  0.0706  0.6600
  244SOL     OW  973   0.222   0.707   2.349  0.0711  0.2506  0.4896
  244SOL    HW1  974   0.227   0.805   2.352  1.1221  2.9616 -0.3431
  244SOL    HW2  975   0.308   0.684   2.325  0.3738 -0.5763  2.9563
  244SOL     MW  976   0.234   0.717   2.346  0.2497  0.4992  0.7052
  245SOL     OW  977   1.258   0.231   2.343  0.3561 -0.1418 -0.4155
  245SOL    HW1  978   1.335   0.176   2.359  2.0101 -0.6371 -0.7650
  245SOL    HW2  979   1.283   0.311   2.384 -1.6315  0.6727  1.4314
  245SOL     MW  980   1.271   0.234   2.351  0.3121 -0.0997 -0.2179
  246SOL     OW  981   1.260   1.188   2.111 -0.8643  0.4413  0.7827
  246SOL    HW1  982   1.190   1.135   2.150 -0.2708 -0.1676  1.2953
  246SOL    HW2  983   1.344   1.163   2.157 -1.4496  2.1070 -3.8225
  246SOL     MW  984   1.262   1.178   2.122 -0.8632  0.5807  0.2428
  247SOL     OW  985   0.706   0.527   0.122  0.6305  0.8581 -0.1655
  247SOL    HW1  986   0.677   0.619   0.128  0.2618  0.4435 -3.7453
  247SOL    HW2  987   0.798   0.541   0.099  1.1446 -2.4743 -0.8117
  247SOL     MW  988   0.715   0.541   0.120  0.6497  0.3637 -0.7231
  248SOL     OW  989   0.476   1.208   2.451  0.4942 -0.5125  0.0933
  248SOL    HW1  990   0.484   1.260   2.366  0.1470  0.6019 -2.3090
  248SOL    HW2  991   0.474   1.276   2.518 -1.0764  0.3367  3.2248
  248SOL     MW  992   0.477   1.224   2.449  0.2412 -0.2535  0.1895
  249SOL     OW  993   0.202   1.831   2.687 -0.0913 -0.5488 -0.4839
  249SOL    HW1  994   0.142   1.758   2.673  2.1693 -0.9483  1.4498
  249SOL    HW2  995   0.198   1.851   2.778 -1.0793  1.5190 -2.1501
  249SOL     MW  996   0.193   1.824   2.697  0.0766 -0.3287 -0.4486
  250SOL     OW  997   2.130   0.842   2.389  0.2221 -0.1346  0.7655
  250SOL    HW1  998   2.153   0.745   2.389 -1.4009 -2.6819 -1.2659
  250SOL    HW2  999   2.193   0.891   2.437 -0.9721 -0.1425 -0.5247
  250SOL     MW 1000   2.141   0.836   2.395 -0.1496 -0.4718  0.3272
  251SOL     OW 1001   0.223   0.827   2.063 -0.4361  0.3687  0.4216
  251SOL    HW1 1002   0.209   0.759   2.125 -1.4095 -1.0420 -0.1561
  251SOL    HW2 1003   0.228   0.792   1.972  0.6018  2.4264  2.2440
  251SOL     MW 1004   0.222   0.813   2.059 -0.4276  0.4540  0.5859
  252SOL     OW 1005   1.681   1.023   2.869 -0.1196  0.2465  0.3760
  252SOL    HW1 1006   1.692   1.101   2.924 -1.0043  0.9910 -1.8282
  252SOL    HW2 1007   1.743   1.040   2.793 -0.7106 -1.4113 -0.1697
  252SOL     MW 1008   1.690   1.036   2.867 -0.3143  0.1260  0.0132
  253SOL     OW 1009   1.149   1.724   2.541 -0.2273 -0.0090  0.3108
  253SOL    HW1 1010   1.147   1.742   2.440 -1.6661  0.7018 -0.0154
  253SOL    HW2 1011   1.076   1.782   2.582 -1.5326  1.1819  2.5777
  253SOL     MW 1012   1.139   1.734   2.533 -0.5894  0.2419  0.5668
  254SOL     OW 1013   1.023   1.077   2.226  0.2989 -0.0777 -0.2066
  254SOL    HW1 1014   1.000   0.982   2.220 -2.3060 -0.8930  0.8718
  254SOL    HW2 1015   0.936   1.121   2.223 -2.2418  0.6077  1.5733
  254SOL     MW 1016   1.008   1.071   2.225 -0.3800 -0.0949  0.1705
  255SOL     OW 1017   0.832   2.454   2.156  0.1504  1.0170 -0.3929
  255SOL    HW1 1018   0.752   2.422   2.197  1.6786 -1.1447 -3.5810
  255SOL    HW2 1019   0.883   2.493   2.225  0.7147 -0.1827 -1.4447
  255SOL     MW 1020   0.828   2.455   2.171  0.4265  0.5735 -0.9523
  256SOL     OW 1021   1.168   2.842   2.877 -0.0311  0.3165 -1.0229
  256SOL    HW1 1022   1.128   2.773   2.832  1.8537 -0.7802  1.2482
  256SOL    HW2 1023   1.261   2.806   2.876  1.6986 -0.6994 -2.4454
  256SOL     MW 1024   1.175   2.828   2.871  0.4458  0.0378 -0.9110
  257SOL     OW 1025   0.169   1.909   0.104 -0.1925  0.2980  0.2576
  257SOL    HW1 1026   0.210   1.857   0.170  0.8335  1.5245  0.8582
  257SOL    HW2 1027   0.143   1.848   0.031 -1.3384  4.2072  0.4102
  257SOL     MW 1028   0.171   1.894   0.103 -0.2083  0.9756  0.3569
  258SOL     OW 1029   0.702   1.038   2.477 -0.3229  0.0648  1.0173
  258SOL    HW1 1030   0.737   1.102   2.415  0.8250  0.9916 -3.3813
  258SOL    HW2 1031   0.617   1.072   2.491  0.1791 -2.8183  0.8768
  258SOL     MW 1032   0.696   1.051   2.471 -0.1052 -0.1933  0.4184
  259SOL     OW 1033   0.761   0.518   2.366 -0.1424 -0.0814 -0.4623
  259SOL    HW1 1034   0.679   0.566   2.373 -0.1800  2.3587  0.1794
  259SOL    HW2 1035   0.734   0.425   2.374  3.0918 -0.3956 -3.1189
  259SOL     MW 1036   0.747   0.512   2.368  0.2794  0.1991 -0.7281
  260SOL     OW 1037   0.590   0.142   1.594 -0.1345  0.4129  0.3805
  260SOL    HW1 1038   0.534   0.103   1.527  2.3885 -0.3793  0.3370
  260SOL    HW2 1039   0.682   0.139   1.560 -0.1267  0.3172  0.8571
  260SOL     MW 1040   0.595   0.136   1.581  0.1994  0.2957  0.4377
  261SOL     OW 1041   1.197   0.679   2.062  0.4622 -0.3521 -0.2230
  261SOL    HW1 1042   1.219   0.688   2.157  0.9873 -0.1039  0.2470
  261SOL    HW2 1043   1.243   0.603   2.021 -2.2586  0.7864 -3.1407
  261SOL     MW 1044   1.206   0.670   2.069  0.1725 -0.1692 -0.5460
  262SOL     OW 1045   1.172   0.315   0.098  0.3842  0.1197  0.2346
  262SOL    HW1 1046   1.267   0.302   0.072  0.0090 -1.1019 -0.5741
  262SOL    HW2 1047   1.135   0.233   0.085  0.4023 -0.9666  0.4105
  262SOL     MW 1048   1.180   0.303   0.093  0.3371 -0.1848  0.1511
  263SOL     OW 1049   0.445   3.048   2.499 -0.3976  0.2699  0.6316
  263SOL    HW1 1050   0.362   3.097   2.506 -1.8017 -1.9692 -0.1245
  263SOL    HW2 1051   0.472   3.029   2.408  1.0306 -2.3875  0.6256
  263SOL     MW 1052   0.438   3.052   2.488 -0.3945 -0.3761  0.5311
  264SOL     OW 1053   1.530   1.307   1.926  0.0183  0.2602  0.2046
  264SOL    HW1 1054   1.464   1.315   1.992 -0.2597 -2.9751  0.7515
  264SOL    HW2 1055   1.618   1.340   1.956 -1.7304  0.2453 -0.6587
  264SOL     MW 1056   1.533   1.312   1.939 -0.2491 -0.1686  0.1628
  265SOL     OW 1057   0.643   2.711   2.248 -0.5269  0.2673  0.3923
  265SOL    HW1 1058   0.675   2.636   2.204 -1.9744  0.0766 -2.9267
  265SOL    HW2 1059   0.675   2.712   2.334  1.6581  2.3761 -3.0207
  265SOL     MW 1060   0.651   2.702   2.253 -0.4296  0.5204 -0.4960
  266SOL     OW 1061   0.932   0.817   2.189  0.7738  0.0467 -0.3634
  266SOL    HW1 1062   0.948   0.779   2.106  0.4429  0.1713 -0.2298
  266SOL    HW2 1063   0.936   0.751   2.252 -0.3505  2.2686 -1.8323
  266SOL     MW 1064   0.935   0.803   2.186  0.5818  0.3563 -0.5396
  267SOL     OW 1065   1.368   1.693   2.694 -0.0145 -0.5392  0.3002
  267SOL    HW1 1066   1.444   1.689   2.636 -0.9007 -2.0829 -0.8322
  267SOL    HW2 1067   1.286   1.714   2.650  1.6555 -0.1857 -2.5565
  267SOL     MW 1068   1.367   1.695   2.680  0.0889 -0.6963 -0.2261
  268SOL     OW 1069   0.250   0.758   1.777  0.0742  0.1335 -0.0343
  268SOL    HW1 1070   0.184   0.809   1.720 -0.2128  3.3862 -2.7374
  268SOL    HW2 1071   0.263   0.677   1.729 -0.5559 -0.1351  2.5178
  268SOL     MW 1072   0.243   0.754   1.763 -0.0468  0.5273 -0.0543
  269SOL     OW 1073   1.371   1.918   2.427  0.2096  0.0560 -0.5209
  269SOL    HW1 1074   1.415   2.000   2.433  0.0146  0.0354 -1.3450
  269SOL    HW2 1075   1.313   1.918   2.506  2.3084  0.9501 -3.2174
  269SOL     MW 1076   1.369   1.929   2.438  0.4608  0.1713 -0.9854
  270SOL     OW 1077   1.171   0.363   1.607 -0.0230 -0.2817  0.1638
  270SOL    HW1 1078   1.149   0.278   1.643  1.1912 -1.1801 -1.5321
  270SOL    HW2 1079   1.266   0.370   1.607  2.3827  0.0795  2.4923
  270SOL     MW 1080   1.181   0.353   1.612  0.4546 -0.3526  0.2473
  271SOL     OW 1081   0.851   3.057   2.401  0.5132  0.4408  0.3106
  271SOL    HW1 1082   0.882   3.015   2.480  0.2384  2.6991 -0.2632
  271SOL    HW2 1083   0.880   3.151   2.394  1.1758  2.4318  0.2091
  271SOL     MW 1084   0.859   3.064   2.410  0.5644  1.0015  0.2215
  272SOL     OW 1085   1.446   2.860   2.797  0.9157 -0.5187  0.2905
  272SOL    HW1 1086   1.401   2.932   2.748 -3.0680  0.3310 -4.2488
  272SOL    HW2 1087   1.478   2.897   2.878 -1.2112  3.5636 -1.9038
  272SOL     MW 1088   1.445   2.874   2.801  0.1094  0.1320 -0.5979
  273SOL     OW 1089   1.424   0.870   2.870 -0.0339 -0.4928  0.1271
  273SOL    HW1 1090   1.505   0.912   2.848  2.3910  0.0125 -1.7570
  273SOL    HW2 1091   1.369   0.942   2.903 -0.7144 -0.8624 -0.0896
  273SOL     MW 1092   1.427   0.885   2.872  0.1962 -0.4749 -0.1501
  274SOL     OW 1093   1.378   0.751   0.225  0.4928 -0.1885 -0.2780
  274SOL    HW1 1094   1.422   0.666   0.214 -0.6207 -2.3103  1.0138
  274SOL    HW2 1095   1.301   0.731   0.273  0.6242  0.5621 -0.1439
  274SOL     MW 1096   1.374   0.737   0.230  0.3632 -0.3694 -0.0899
  275SOL     OW 1097   1.720   0.685   1.797 -0.0462  0.2949 -0.5036
  275SOL    HW1 1098   1.788   0.726   1.857 -1.9678  0.2993 -0.9755
  275SOL    HW2 1099   1.704   0.597   1.828  0.5539  1.8675 -0.2761
  275SOL     MW 1100   1.727   0.679   1.809 -0.2206  0.5029 -0.5359
  276SOL     OW 1101   0.208   1.262   1.800 -0.1140 -0.0270  0.1216
  276SOL    HW1 1102   0.201   1.186   1.858  2.4395  1.5065  0.0342
  276SOL    HW2 1103   0.117   1.304   1.797  2.3071  1.1681  1.2903
  276SOL     MW 1104   0.195   1.258   1.807  0.5423  0.3330  0.2643
  277SOL     OW 1105   1.899   1.351   2.578 -0.0473 -0.1524 -0.4090
  277SOL    HW1 1106   1.976   1.392   2.540  0.9967  3.8423 -1.1336
  277SOL    HW2 1107   1.926   1.261   2.609  1.5194 -0.5523  1.6456
  277SOL     MW 1108   1.913   1.344   2.577  0.2971  0.3219 -0.2335
  278SOL     OW 1109   1.418   0.708   1.744  0.0033 -0.7112  0.0899
  278SOL    HW1 1110   1.410   0.633   1.807  2.8506  0.0563  3.6765
  278SOL    HW2 1111   1.494   0.757   1.777  0.0690 -0.5008  1.0433
  278SOL     MW 1112   1.427   0.705   1.757  0.3877 -0.5822  0.6889
  279SOL     OW 1113   0.545   0.002   2.243 -0.2408  0.5114 -0.0700
  279SOL    HW1 1114   0.592  -0.068   2.195 -1.8352  0.7393 -2.6848
  279SOL    HW2 1115   0.593   0.084   2.227  2.1452  0.3575  1.1241
  279SOL     MW 1116   0.558   0.004   2.234 -0.1364  0.5211 -0.2574
  280SOL     OW 1117   1.502   1.131   2.203  0.1992 -0.3326  0.1602
  280SOL    HW1 1118   1.541   1.056   2.162 -0.8761 -0.2495  0.1830
  280SOL    HW2 1119   1.506   1.109   2.293 -0.5257  1.5515 -0.3157
  280SOL     MW 1120   1.508   1.118   2.210 -0.0383 -0.0731  0.1004
  281SOL     OW 1121   1.280   1.313   2.792  0.5170 -0.8134 -0.4652
  281SOL    HW1 1122   1.367   1.349   2.768 -1.2745  2.1326 -3.1373
  281SOL    HW2 1123   1.291   1.230   2.841  1.4835  0.1587  0.3699
  281SOL     MW 1124   1.293   1.307   2.795  0.4082 -0.2965 -0.7076
  282SOL     OW 1125   1.130   1.302   1.697 -0.3222  0.5372  0.1012
  282SOL    HW1 1126   1.097   1.372   1.633 -1.2756 -1.0244  1.7493
  282SOL    HW2 1127   1.080   1.306   1.779  0.5352  0.1807  0.0383
  282SOL     MW 1128   1.119   1.312   1.700 -0.3348  0.2842  0.3104
  283SOL     OW 1129   0.687   1.266   0.001  0.1515  0.0445 -0.1702
  283SOL    HW1 1130   0.783   1.263   0.013  0.4482 -0.8552 -1.4157
  283SOL    HW2 1131   0.654   1.349   0.032 -1.2222  1.5343  0.9436
  283SOL     MW 1132   0.695   1.277   0.007  0.0094  0.1224 -0.1875
  284SOL     OW 1133   0.504   0.651   2.352  0.4641 -0.1135  0.6179
  284SOL    HW1 1134   0.561   0.720   2.319  1.1566 -1.1870 -1.3784
  284SOL    HW2 1135   0.486   0.596   2.270  0.2744  0.5737 -4.1907
  284SOL     MW 1136   0.510   0.653   2.337  0.5304 -0.1645 -0.2799
  285SOL     OW 1137   0.825   0.950   2.863  0.4327  0.4023  0.7077
  285SOL    HW1 1138   0.897   0.971   2.797  1.2312 -0.1787 -0.9025
  285SOL    HW2 1139   0.786   0.875   2.827  0.2655 -0.7872  2.6206
  285SOL     MW 1140   0.829   0.943   2.849  0.5160  0.1687  0.7477
  286SOL     OW 1141   1.140   1.466   2.618 -0.2955 -0.0574 -0.5383
  286SOL    HW1 1142   1.199   1.418   2.682  2.4247 -1.1757 -0.3302
  286SOL    HW2 1143   1.161   1.559   2.606  0.2041 -1.7598 -0.0449
  286SOL     MW 1144   1.150   1.472   2.625  0.1293 -0.4296 -0.4458
  287SOL     OW 1145   0.994   0.899   0.319 -0.2423  0.2814 -0.2080
  287SOL    HW1 1146   1.038   0.944   0.389  0.9858 -1.3954 -1.2992
  287SOL    HW2 1147   0.975   0.966   0.256  0.0181  0.5990 -1.2121
  287SOL     MW 1148   0.997   0.914   0.320 -0.0459  0.1021 -0.4844
  288SOL     OW 1149   1.569   0.628   2.103  0.4403  0.0671  0.0135
  288SOL    HW1 1150   1.533   0.639   2.194 -0.4385 -1.9734 -0.6208
  288SOL    HW2 1151   1.565   0.718   2.071  2.5795 -1.0029 -1.9910
  288SOL     MW 1152   1.564   0.641   2.111  0.6066 -0.3433 -0.3347
  289SOL     OW 1153   0.937   1.054   2.634  0.3239 -0.0653  0.4170
  289SOL    HW1 1154   0.995   0.979   2.631 -2.9270  2.7401 -1.3614
  289SOL    HW2 1155   0.870   1.040   2.565 -1.8246 -1.1328 -1.7424
  289SOL     MW 1156   0.936   1.042   2.625 -0.3885  0.1640 -0.1026
  290SOL     OW 1157   0.865   0.544   1.555 -0.1806 -0.2822  0.4436
  290SOL    HW1 1158   0.921   0.543   1.479  1.0558 -1.0587  1.4818
  290SOL    HW2 1159   0.932   0.577   1.619  0.4718 -2.2392 -0.1301
  290SOL     MW 1160   0.882   0.548   1.553  0.0686 -0.6428  0.5049
  291SOL     OW 1161   0.130   0.334   0.164 -0.4081 -0.2530  0.1009
  291SOL    HW1 1162   0.222   0.297   0.191  4.4166 -1.4624  0.9901
  291SOL    HW2 1163   0.099   0.283   0.091  0.8928  1.3359 -0.9157
  291SOL     MW 1164   0.138   0.322   0.158  0.4001 -0.2030  0.0841
  292SOL     OW 1165   0.984   0.527   0.063  0.0479  0.0695  0.0586
  292SOL    HW1 1166   1.016   0.558   0.151 -0.7181  1.6331  1.8875
  292SOL    HW2 1167   1.015   0.438   0.051  1.1008 -0.7923 -1.2755
  292SOL     MW 1168   0.992   0.519   0.073  0.0857  0.1621  0.1239
  293SOL     OW 1169   0.216   0.121   2.472  0.3110  0.6032 -0.1870
  293SOL    HW1 1170   0.132   0.077   2.463 -0.7026  1.5621  0.4076
  293SOL    HW2 1171   0.206   0.194   2.536  1.3888  1.4110  1.6301
  293SOL     MW 1172   0.204   0.125   2.479  0.3195  0.8363  0.1312
  294SOL     OW 1173   1.502   0.638   2.381  0.4810 -0.7769  0.6029
  294SOL    HW1 1174   1.510   0.687   2.458  0.2685  0.0943  1.1863
  294SOL    HW2 1175   1.489   0.547   2.411  1.2541  1.6551  1.1002
  294SOL     MW 1176   1.501   0.633   2.395  0.5550 -0.3411  0.7455
  295SOL     OW 1177   0.896   0.685   2.521  0.0634 -0.1122  0.0787
  295SOL    HW1 1178   0.857   0.634   2.459  1.9481 -0.1194 -0.4114
  295SOL    HW2 1179   0.831   0.690   2.593 -1.6169 -3.9400  0.3078
  295SOL     MW 1180   0.882   0.679   2.522  0.0904 -0.6182  0.0443
  296SOL     OW 1181   1.285   0.296   2.066  0.2441  0.5137 -0.0341
  296SOL    HW1 1182   1.352   0.220   2.057 -1.2145  0.6048  1.0012
  296SOL    HW2 1183   1.259   0.289   2.165 -1.6105 -0.0826 -0.4076
  296SOL     MW 1184   1.291   0.285   2.078 -0.1931  0.4470  0.0532
  297SOL     OW 1185   1.482   0.416   1.580  0.1198  0.0047  0.7130
  297SOL    HW1 1186   1.523   0.482   1.631  0.3315 -1.6235  0.9684
  297SOL    HW2 1187   1.500   0.329   1.615 -1.9723 -1.1106  0.9654
  297SOL     MW 1188   1.490   0.413   1.591 -0.1283 -0.3573  0.7800
  298SOL     OW 1189   1.540   0.891   2.051  0.9132 -0.4954 -0.2061
  298SOL    HW1 1190   1.529   0.930   1.964  1.5836 -0.2825 -0.3561
  298SOL    HW2 1191   1.634   0.894   2.063  0.8842 -1.3028 -0.9535
  298SOL     MW 1192   1.551   0.897   2.041  0.9978 -0.5738 -0.3245
  299SOL     OW 1193   0.510   1.035   3.092 -0.1350 -0.0058 -0.5297
  299SOL    HW1 1194   0.561   1.115   3.095 -1.4764 -0.0321  0.8320
  299SOL    HW2 1195   0.483   1.021   3.004  1.8194  0.1093  1.7062
  299SOL     MW 1196   0.513   1.044   3.081 -0.0541  0.0059 -0.0550
  300SOL     OW 1197   1.263   1.173   2.505 -0.7797  0.4414  0.0551
  300SOL    HW1 1198   1.203   1.104   2.497 -1.1040  1.4372 -0.7405
  300SOL    HW2 1199   1.233   1.230   2.580  1.1498 -2.8686  0.4369
  300SOL     MW 1200   1.251   1.172   2.514 -0.5679  0.1361  0.0005
  301SOL     OW 1201   1.359   0.841   0.573  0.7376  0.6651  0.0478
  301SOL    HW1 1202   1.362   0.892   0.654 -3.3014  3.3048 -0.4539
  301SOL    HW2 1203   1.326   0.752   0.598 -0.7240 -1.7938 -1.1161
  301SOL     MW 1204   1.355   0.836   0.587  0.0119  0.6889 -0.1720
  302SOL     OW 1205   0.102   1.470   2.013 -0.5597  0.9246 -0.2241
  302SOL    HW1 1206   0.135   1.407   2.079 -1.1502  2.4193 -0.2137
  302SOL    HW2 1207   0.060   1.546   2.054  1.6539  4.7585  0.3521
  302SOL     MW 1208   0.101   1.472   2.027 -0.3455  1.6276 -0.1467
  303SOL     OW 1209   0.393   1.710   2.568 -0.3666 -0.1827 -0.2300
  303SOL    HW1 1210   0.384   1.716   2.473 -1.3914 -1.6483 -1.1381
  303SOL    HW2 1211   0.313   1.738   2.610 -0.4409  1.1559  0.7097
  303SOL     MW 1212   0.382   1.714   2.561 -0.5116 -0.1995 -0.2259
  304SOL     OW 1213   0.646   2.063   2.397  0.1794 -0.3117  0.0706
  304SOL    HW1 1214   0.686   2.123   2.337 -0.8437 -0.1854  0.5556
  304SOL    HW2 1215   0.712   1.991   2.390  1.4105 -0.0840  1.8518
  304SOL     MW 1216   0.660   2.062   2.388  0.2068 -0.2650  0.3696
  305SOL     OW 1217   1.073   0.563   0.570 -0.2622 -0.1652 -0.4412
  305SOL    HW1 1218   0.981   0.526   0.543 -1.5929 -2.2349 -1.2254
  305SOL    HW2 1219   1.124   0.484   0.593 -1.1196 -1.9780 -0.3266
  305SOL     MW 1220   1.068   0.548   0.570 -0.5509 -0.6774 -0.5296
  306SOL     OW 1221   1.222   1.476   0.326 -0.0781 -0.1742 -0.8620
  306SOL    HW1 1222   1.268   1.398   0.352 -0.4180  2.0162 -1.7192
  306SOL    HW2 1223   1.266   1.501   0.242 -1.7875 -2.8669 -4.4121
  306SOL     MW 1224   1.234   1.469   0.318 -0.3485 -0.2405 -1.4435
  307SOL     OW 1225   1.387   0.499   1.916  0.2533 -0.3572 -0.1512
  307SOL    HW1 1226   1.345   0.422   1.971 -0.4866  2.0311  1.9267
  307SOL    HW2 1227   1.462   0.516   1.977 -0.1600 -0.3649 -0.1925
  307SOL     MW 1228   1.391   0.491   1.931  0.1012 -0.0431  0.1175
  308SOL     OW 1229   2.146   0.641   2.655 -0.2970 -0.2195  0.0974
  308SOL    HW1 1230   2.187   0.574   2.719 -0.4488  0.1497  0.2331
  308SOL    HW2 1231   2.149   0.735   2.691 -2.5393 -0.8060 -1.5534
  308SOL     MW 1232   2.152   0.645   2.668 -0.6129 -0.2482 -0.1025
  309SOL     OW 1233   0.541   0.407   0.386 -0.6026 -0.9833  0.1675
  309SOL    HW1 1234   0.584   0.342   0.444 -1.9759 -0.5223  0.1464
  309SOL    HW2 1235   0.485   0.365   0.319 -0.7040 -0.0800 -0.5326
  309SOL     MW 1236   0.539   0.393   0.385 -0.7971 -0.8033  0.0724
  310SOL     OW 1237   0.470   0.539   1.930 -0.0133 -0.0089 -0.0687
  310SOL    HW1 1238   0.518   0.471   1.887 -0.4612 -1.0711 -2.4053
  310SOL    HW2 1239   0.525   0.616   1.904  0.2359 -0.0811  0.0248
  310SOL     MW 1240   0.483   0.540   1.921 -0.0395 -0.1586 -0.3646
  311SOL     OW 1241   1.903   0.780   1.953 -0.0794 -0.0394 -0.1117
  311SOL    HW1 1242   1.885   0.831   2.032  0.2496 -0.4881 -2.9895
  311SOL    HW2 1243   1.938   0.692   1.985 -1.3358 -0.4356  1.1003
  311SOL     MW 1244   1.905   0.775   1.968 -0.2017 -0.1509 -0.3315
  312SOL     OW 1245   1.712   2.498   0.032 -0.4888 -0.0104  0.9039
  312SOL    HW1 1246   1.764   2.535   0.109  1.2841  1.1663 -1.3002
  312SOL    HW2 1247   1.622   2.542   0.038 -0.4574 -0.6499  0.3498
  312SOL     MW 1248   1.707   2.509   0.043 -0.2508  0.0605  0.5400
  313SOL     OW 1249   0.116   1.180   2.939 -0.2421 -0.2190  0.5110
  313SOL    HW1 1250   0.149   1.145   3.025  0.8011  0.4016  0.6934
  313SOL    HW2 1251   0.198   1.188   2.883  0.9555  0.4743 -3.7012
  313SOL     MW 1252   0.131   1.176   2.943  0.0535 -0.0456 -0.0207
  314SOL     OW 1253   2.140   2.986   3.002  0.5252  0.2593  0.1903
  314SOL    HW1 1254   2.070   3.034   2.960 -1.8656 -0.7819 -1.6088
  314SOL    HW2 1255   2.182   3.052   3.054 -1.4997  0.4398  1.2577
  314SOL     MW 1256   2.136   3.001   3.003 -0.0574  0.1458  0.0938
  315SOL     OW 1257   1.508   1.889   3.056 -0.0164 -0.9453  0.2204
  315SOL    HW1 1258   1.467   1.956   3.110 -1.1162 -0.7733  0.2691
  315SOL    HW2 1259   1.583   1.930   2.998  0.1631  1.3661  0.5027
  315SOL     MW 1260   1.513   1.903   3.056 -0.1379 -0.6176  0.2641
  316SOL     OW 1261   1.254   0.622   2.712  0.0935 -0.4047 -0.0405
  316SOL    HW1 1262   1.348   0.618   2.701  0.3564 -1.9445  0.2356
  316SOL    HW2 1263   1.224   0.565   2.777 -1.4068  1.7340 -1.3981
  316SOL     MW 1264   1.263   0.614   2.719 -0.0698 -0.3257 -0.1832
  317SOL     OW 1265   0.678   1.438   2.611  0.1021  0.4129 -0.9198
  317SOL    HW1 1266   0.760   1.389   2.632  0.8586  0.9851 -0.3342
  317SOL    HW2 1267   0.700   1.505   2.532  3.1322 -1.4115  0.1651
  317SOL     MW 1268   0.692   1.440   2.603  0.6017  0.2477 -0.6994
  318SOL     OW 1269   1.354   0.386   2.911 -0.1305  0.3964  0.1852
  318SOL    HW1 1270   1.275   0.435   2.937  1.5362  0.1455 -1.4560
  318SOL    HW2 1271   1.425   0.450   2.888  2.3055 -0.5481 -2.2007
  318SOL     MW 1272   1.353   0.401   2.911  0.4108  0.2387 -0.3461
  319SOL     OW 1273   0.833   0.482   2.814  0.3527 -0.4071 -0.1093
  319SOL    HW1 1274   0.807   0.400   2.770 -0.0436 -0.7298  0.8717
  319SOL    HW2 1275   0.809   0.482   2.908 -2.3638  2.5041 -0.3553
  319SOL     MW 1276   0.826   0.471   2.821 -0.0580 -0.0656 -0.0123
  320SOL     OW 1277   1.042   1.352   1.976 -0.3858 -0.1873 -0.6960
  320SOL    HW1 1278   1.097   1.305   2.030 -1.3230  0.2636 -1.0690
  320SOL    HW2 1279   1.091   1.427   1.948 -0.1128 -1.8357  0.9078
  320SOL     MW 1280   1.055   1.356   1.979 -0.4734 -0.3453 -0.5336
  321SOL     OW 1281   1.040   1.002   3.065 -0.4107  0.4164 -0.1136
  321SOL    HW1 1282   0.958   0.981   3.024  0.4380 -1.3481  0.2914
  321SOL    HW2 1283   1.089   0.918   3.057 -0.8276 -0.9755  0.2594
  321SOL     MW 1284   1.036   0.988   3.059 -0.3537 -0.0001 -0.0110
  322SOL     OW 1285   1.186   0.833   1.729 -0.4817  0.0881  0.0384
  322SOL    HW1 1286   1.279   0.800   1.738  0.3480 -1.3183 -1.6797
  322SOL    HW2 1287   1.179   0.878   1.819  1.3763 -0.8550  1.6396
  322SOL     MW 1288   1.198   0.835   1.742 -0.1271 -0.2219  0.0230
  323SOL     OW 1289   1.189   1.537   1.827  0.7104 -0.4470 -0.4686
  323SOL    HW1 1290   1.208   1.460   1.774  1.6600  2.9500 -0.1008
  323SOL    HW2 1291   1.115   1.585   1.786  0.8209  3.6714  0.1210
  323SOL     MW 1292   1.181   1.533   1.814  0.8503  0.5446 -0.3422
  324SOL     OW 1293   1.515   1.074   2.486  0.3604  0.0207 -0.4122
  324SOL    HW1 1294   1.422   1.097   2.511 -2.1442 -1.3991  0.2596
  324SOL    HW2 1295   1.568   1.149   2.515 -2.2191 -3.1194  2.2327
  324SOL     MW 1296   1.510   1.087   2.493 -0.3104 -0.5810  0.0254
  325SOL     OW 1297   1.088   0.483   2.906 -0.0484 -0.6916  0.1276
  325SOL    HW1 1298   1.063   0.537   2.987  0.7977  2.9554  0.5498
  325SOL    HW2 1299   1.027   0.505   2.838  0.0829  0.3284  0.1400
  325SOL     MW 1300   1.076   0.493   2.907  0.0806 -0.0759  0.1849
  326SOL     OW 1301   0.483   1.350   2.239  0.2031 -0.0402 -0.4853
  326SOL    HW1 1302   0.511   1.323   2.149 -1.6271  0.0877 -1.0461
  326SOL    HW2 1303   0.483   1.447   2.237  0.7581 -0.3566 -1.4363
  326SOL     MW 1304   0.487   1.360   2.227  0.0348 -0.0650 -0.6848
  327SOL     OW 1305   1.849   0.904   2.463  0.1267 -0.3233  0.7985
  327SOL    HW1 1306   1.833   0.822   2.519 -0.0544  1.6291 -1.5916
  327SOL    HW2 1307   1.937   0.906   2.433 -1.0205  0.5987  2.3479
  327SOL     MW 1308   1.858   0.894   2.467 -0.0485  0.0559  0.6876
  328SOL     OW 1309   0.195   1.314   2.211  0.5537 -0.2870  1.0049
  328SOL    HW1 1310   0.184   1.235   2.159  1.6054 -0.3686 -2.7604
  328SOL    HW2 1311   0.291   1.311   2.210 -1.3019  0.9313 -0.8493
  328SOL     MW 1312   0.206   1.304   2.204  0.4476 -0.1371  0.2635
  329SOL     OW 1313   0.106   0.127   1.447 -0.1424 -0.4283 -0.0400
  329SOL    HW1 1314   0.079   0.166   1.537 -0.5363  1.3761  2.4417
  329SOL    HW2 1315   0.167   0.199   1.408  1.6746  2.5526 -2.8428
  329SOL     MW 1316   0.111   0.142   1.454  0.0454  0.2031 -0.0824
  330SOL     OW 1317   0.349   3.000   2.064 -0.0988  0.2849  0.3004
  330SOL    HW1 1318   0.407   3.041   2.127  2.0620  4.3115  0.2477
  330SOL    HW2 1319   0.268   2.968   2.114  0.9488  0.0083 -0.4241
  330SOL     MW 1320   0.346   3.001   2.079  0.3245  0.7797  0.1979
  331SOL     OW 1321   0.765   1.217   2.281 -0.3929  0.2485  0.0078
  331SOL    HW1 1322   0.718   1.270   2.216  1.1938  0.3668  1.2277
  331SOL    HW2 1323   0.804   1.274   2.352 -0.7034 -0.8336  1.9541
  331SOL     MW 1324   0.764   1.231   2.282 -0.2245  0.1213  0.4256
  332SOL     OW 1325   1.341   1.694   2.977 -0.1915 -0.8129  0.5029
  332SOL    HW1 1326   1.358   1.692   2.884 -0.5342  0.6780  0.7638
  332SOL    HW2 1327   1.406   1.767   3.013 -1.4589  1.9830 -0.0954
  332SOL     MW 1328   1.352   1.704   2.970 -0.4039 -0.2473  0.4583
  333SOL     OW 1329   1.722   1.469   3.010  0.1805 -0.1674 -0.0111
  333SOL    HW1 1330   1.815   1.446   3.011  0.6893  3.2817  1.0418
  333SOL    HW2 1331   1.701   1.447   3.104 -0.7960 -2.6355 -0.6358
  333SOL     MW 1332   1.731   1.463   3.023  0.1188 -0.0380  0.0454
  334SOL     OW 1333   1.335   3.065   2.624  0.5754 -0.0939 -0.1917
  334SOL    HW1 1334   1.247   3.074   2.668  3.0820 -0.1181  0.5066
  334SOL    HW2 1335   1.373   3.153   2.651 -1.1128  2.8419  0.8061
  334SOL     MW 1336   1.328   3.078   2.633  0.6834  0.2902  0.0321
  335SOL     OW 1337   1.224   0.781   3.053 -0.3946  0.5897  0.1393
  335SOL    HW1 1338   1.260   0.761   3.139  0.6988 -0.2152  1.3892
  335SOL    HW2 1339   1.290   0.806   2.990 -4.0731  0.7150 -0.1461
  335SOL     MW 1340   1.237   0.781   3.056 -0.7357  0.5001  0.2666
  336SOL     OW 1341   0.886   1.111   1.919  0.2085 -0.1491  0.2295
  336SOL    HW1 1342   0.934   1.191   1.945 -1.3341 -2.2744 -0.8205
  336SOL    HW2 1343   0.949   1.041   1.944  0.7895  0.2889 -0.3173
  336SOL     MW 1344   0.901   1.112   1.925  0.0816 -0.3717  0.0188
  337SOL     OW 1345   0.515   1.788   2.803 -0.0921 -0.0730 -0.2829
  337SOL    HW1 1346   0.482   1.780   2.715 -1.7301  1.2754  3.1522
  337SOL    HW2 1347   0.583   1.716   2.801 -0.4692  0.8219  0.5297
  337SOL     MW 1348   0.519   1.777   2.791 -0.3580  0.2229  0.2776
  338SOL     OW 1349   1.124   0.847   2.531 -0.0754  0.3667 -0.1373
  338SOL    HW1 1350   1.038   0.802   2.540  0.3406 -2.2473 -1.5481
  338SOL    HW2 1351   1.186   0.811   2.599 -0.6425 -0.9807  1.9419
  338SOL     MW 1352   1.121   0.836   2.541 -0.0953 -0.1559 -0.0491
  339SOL     OW 1353   1.587   1.036   1.818 -0.5833 -0.3698 -0.3912
  339SOL    HW1 1354   1.514   1.040   1.762 -0.2285 -1.2045 -0.6342
  339SOL    HW2 1355   1.573   1.115   1.872  0.2442  2.7488  0.8168
  339SOL     MW 1356   1.576   1.047   1.817 -0.4273 -0.0685 -0.2639
  340SOL     OW 1357   1.361   1.527   0.081  0.0544 -0.4005 -0.0875
  340SOL    HW1 1358   1.349   1.587   0.006  0.0676 -0.0005  2.4151
  340SOL    HW2 1359   1.449   1.500   0.064  1.0614 -1.5561 -1.0561
  340SOL     MW 1360   1.371   1.531   0.069  0.1890 -0.5002  0.1149
  341SOL     OW 1361   0.136   1.352   2.662  0.1395 -0.0055 -0.0814
  341SOL    HW1 1362   0.213   1.384   2.615  0.2215 -0.4833  0.1761
  341SOL    HW2 1363   0.071   1.359   2.593  1.3265  1.3774  0.2024
  341SOL     MW 1364   0.138   1.357   2.646  0.3069  0.1139 -0.0100
  342SOL     OW 1365   1.444   0.311   0.065  0.0357  0.0639  0.2451
  342SOL    HW1 1366   1.481   0.384   0.119  3.2458 -0.9249 -1.3673
  342SOL    HW2 1367   1.435   0.345  -0.022 -1.4811 -0.5409  1.5823
  342SOL     MW 1368   1.448   0.325   0.061  0.2591 -0.1464  0.2088
  343SOL     OW 1369   0.225   0.284   2.232 -0.0806 -0.0339 -0.0375
  343SOL    HW1 1370   0.248   0.213   2.289 -0.0967 -0.3862  1.8039
  343SOL    HW2 1371   0.148   0.241   2.184 -2.0648  1.7723 -2.2379
  343SOL     MW 1372   0.218   0.269   2.233 -0.3445  0.1579 -0.0849
  344SOL     OW 1373   1.681   2.067   0.253 -0.1855 -0.2089 -0.3499
  344SOL    HW1 1374   1.673   2.129   0.184  0.0577  0.4283  1.5710
  344SOL    HW2 1375   1.622   1.990   0.228  1.9623  0.0165  0.2282
  344SOL     MW 1376   1.672   2.065   0.240  0.1300 -0.0951 -0.0202
  345SOL     OW 1377   0.723   1.584   2.387 -0.0262 -0.0543  0.4140
  345SOL    HW1 1378   0.642   1.601   2.344  1.5069  0.6164 -1.2742
  345SOL    HW2 1379   0.785   1.563   2.308 -0.8325  0.6634 -0.0419
  345SOL     MW 1380   0.721   1.583   2.371  0.0697  0.1289  0.1311
  346SOL     OW 1381   1.722   1.135   0.030  0.4039  0.1868  0.2284
  346SOL    HW1 1382   1.820   1.121   0.047  1.3444  1.9230 -2.5715
  346SOL    HW2 1383   1.670   1.057   0.060 -0.0678 -0.3090  1.1068
  346SOL     MW 1384   1.728   1.123   0.036  0.4658  0.3505 -0.0251
  347SOL     OW 1385   1.242   0.716   2.322  0.1547  0.2466 -0.6910
  347SOL    HW1 1386   1.328   0.682   2.346 -2.1087  1.6682 -0.1949
  347SOL    HW2 1387   1.214   0.768   2.400 -0.7048 -2.8191 -1.4766
  347SOL     MW 1388   1.250   0.718   2.336 -0.2573  0.0297 -0.7292
  348SOL     OW 1389   1.312   2.595   1.891  0.0231 -0.4177  0.0070
  348SOL    HW1 1390   1.361   2.515   1.912 -1.6696  3.5585  1.1975
  348SOL    HW2 1391   1.356   2.669   1.935 -0.8331  0.8805 -0.7853
  348SOL     MW 1392   1.324   2.595   1.900 -0.3132  0.2782  0.0595
  349SOL     OW 1393   1.440   0.231   2.689  0.4509  0.4323  0.6663
  349SOL    HW1 1394   1.417   0.259   2.777  1.2905  3.7815 -0.5042
  349SOL    HW2 1395   1.525   0.193   2.708  2.2681  0.3737 -1.6371
  349SOL     MW 1396   1.449   0.230   2.703  0.8015  0.8665  0.2080
  350SOL     OW 1397   1.868   0.670   2.607  0.3761 -0.2092 -0.4277
  350SOL    HW1 1398   1.820   0.608   2.556  1.0137 -2.4400 -0.7310
  350SOL    HW2 1399   1.954   0.631   2.638  0.1356  1.9866  1.4032
  350SOL     MW 1400   1.873   0.657   2.604  0.4285 -0.2138 -0.2261
  351SOL     OW 1401   0.095   0.951   1.629  0.6537 -0.2312  0.0614
  351SOL    HW1 1402   0.027   1.005   1.675 -3.0004 -0.5820 -0.4613
  351SOL    HW2 1403   0.162   1.014   1.609  0.4195  0.9264  3.0248
  351SOL     MW 1404   0.095   0.967   1.632  0.1406 -0.1247  0.3834
  352SOL     OW 1405   0.738   1.640   2.777  0.9081 -0.3915 -0.1110
  352SOL    HW1 1406   0.797   1.594   2.839 -0.1254 -2.0610  3.5383
  352SOL    HW2 1407   0.704   1.560   2.731  1.7329 -0.1261  1.8673
  352SOL     MW 1408   0.741   1.623   2.779  0.8805 -0.5767  0.6315
  353SOL     OW 1409   3.001   2.438   2.720  0.5347 -0.2686 -0.3381
  353SOL    HW1 1410   3.091   2.415   2.687  1.4461  1.4930 -1.0642
  353SOL    HW2 1411   2.960   2.495   2.652  1.1455  0.3914 -2.3630
  353SOL     MW 1412   3.007   2.443   2.707  0.7355  0.0509 -0.7011
  354SOL     OW 1413   0.415   2.422   0.844  0.1503  0.5052 -0.0607
  354SOL    HW1 1414   0.450   2.400   0.928  0.6425  1.7282  0.6784
  354SOL    HW2 1415   0.350   2.351   0.844  0.4561  1.4514  0.3858
  354SOL     MW 1416   0.411   2.410   0.855  0.2556  0.7914  0.0957
  355SOL     OW 1417   0.063   2.176   0.399 -0.3014 -0.0650  0.6077
  355SOL    HW1 1418  -0.020   2.124   0.374 -0.8134  0.5839 -1.8190
  355SOL    HW2 1419   0.051   2.213   0.485 -0.0830  3.7276  1.1085
  355SOL     MW 1420   0.051   2.174   0.407 -0.3401  0.5210  0.3536
  356SOL     OW 1421   0.853   2.936   1.022 -0.5631 -0.7683  0.1911
  356SOL    HW1 1422   0.900   2.902   0.940 -0.0660  0.3327 -2.9732
  356SOL    HW2 1423   0.771   2.888   1.026  2.8137  1.0185 -0.3029
  356SOL     MW 1424   0.848   2.925   1.011 -0.0520 -0.3873 -0.2916
  357SOL     OW 1425   1.747   2.925   0.381  0.4753  0.5506  0.3196
  357SOL    HW1 1426   1.697   2.853   0.423  3.9453 -0.1955 -1.4948
  357SOL    HW2 1427   1.820   2.877   0.344 -3.2807 -0.0510  2.0422
  357SOL     MW 1428   1.750   2.909   0.382  0.4376  0.3728  0.3075
  358SOL     OW 1429   0.443   0.124   1.049 -0.7689 -0.2763 -0.1908
  358SOL    HW1 1430   0.538   0.127   1.034 -0.2761  0.6482 -1.5280
  358SOL    HW2 1431   0.404   0.146   0.966 -2.2042 -0.1744 -1.8762
  358SOL     MW 1432   0.451   0.127   1.036 -0.8933 -0.1409 -0.5896
  359SOL     OW 1433   0.969   2.875   1.823 -0.3184  0.0257  0.0149
  359SOL    HW1 1434   0.957   2.790   1.875 -0.6249  0.7127 -0.4929
  359SOL    HW2 1435   1.001   2.831   1.744 -0.1043  0.3096  4.0612
  359SOL     MW 1436   0.972   2.858   1.819 -0.3306  0.1538  0.4818
  360SOL     OW 1437   0.612   2.774   1.009 -0.6992 -0.1278  0.2449
  360SOL    HW1 1438   0.620   2.706   0.942  2.6419 -1.3051  0.3203
  360SOL    HW2 1439   0.574   2.718   1.078 -3.3276 -1.5884  1.3025
  360SOL     MW 1440   0.608   2.757   1.009 -0.6052 -0.4758  0.3944
  361SOL     OW 1441   0.180   2.713   1.347  0.0765 -0.7852 -0.5660
  361SOL    HW1 1442   0.155   2.792   1.402 -0.2730  1.7604  1.6763
  361SOL    HW2 1443   0.274   2.697   1.351 -2.4314  0.5716 -0.1194
  361SOL     MW 1444   0.189   2.721   1.355 -0.3005 -0.2704 -0.2112
  362SOL     OW 1445   1.488   2.426   0.600 -0.3296  0.8259  0.2749
  362SOL    HW1 1446   1.483   2.342   0.654  1.2533  1.7643 -0.0563
  362SOL    HW2 1447   1.498   2.485   0.675  2.5031  0.2677 -1.1080
  362SOL     MW 1448   1.489   2.423   0.617  0.2530  0.8760  0.0488
  363SOL     OW 1449   0.279   3.027   0.744  0.5622 -0.1789 -0.3724
  363SOL    HW1 1450   0.279   2.974   0.825 -0.3254 -3.5315  0.2733
  363SOL    HW2 1451   0.193   3.015   0.712  1.4334 -1.2281 -0.4234
  363SOL     MW 1452   0.268   3.018   0.750  0.5601 -0.7596 -0.2940
  364SOL     OW 1453   0.725   0.163   0.257  0.3680  0.3230 -0.0636
  364SOL    HW1 1454   0.662   0.086   0.258  2.0643 -1.5034 -0.6327
  364SOL    HW2 1455   0.669   0.237   0.235  0.9629 -2.8789  2.7693
  364SOL     MW 1456   0.709   0.163   0.254  0.6703 -0.3404  0.2351
  365SOL     OW 1457   0.924   1.953   1.129 -0.3408 -0.7498 -0.3344
  365SOL    HW1 1458   0.863   2.018   1.094  0.2355 -1.8718  2.5990
  365SOL    HW2 1459   0.910   1.874   1.074 -0.7630  1.1814 -0.7162
  365SOL     MW 1460   0.914   1.951   1.117 -0.3205 -0.6431  0.0023
  366SOL     OW 1461   2.880   2.604   1.007  0.5077  0.1214  0.1772
  366SOL    HW1 1462   2.968   2.620   1.053 -0.6606  2.8447 -1.1261
  366SOL    HW2 1463   2.906   2.614   0.907  1.7996  1.0389  1.3874
  366SOL     MW 1464   2.895   2.607   1.000  0.5240  0.6018  0.1650
  367SOL     OW 1465   1.267   2.792   0.874 -0.2981  0.0985 -0.1676
  367SOL    HW1 1466   1.184   2.835   0.910 -0.1795  0.5796  1.2001
  367SOL    HW2 1467   1.245   2.769   0.785 -0.1571  0.1731  2.8463
  367SOL     MW 1468   1.253   2.795   0.867 -0.2638  0.1719  0.4105
  368SOL     OW 1469   1.677   0.473   0.668 -0.1610  0.1025 -0.1897
  368SOL    HW1 1470   1.748   0.439   0.611 -1.0694  0.1691 -0.2631
  368SOL    HW2 1471   1.703   0.564   0.681 -0.4273 -2.1519 -1.2736
  368SOL     MW 1472   1.690   0.480   0.662 -0.3160 -0.1861 -0.3424
  369SOL     OW 1473   0.139   2.473   1.701  0.3253 -0.5361  0.0450
  369SOL    HW1 1474   0.226   2.460   1.740  2.9634 -0.2663 -1.2025
  369SOL    HW2 1475   0.092   2.542   1.751  0.5604 -0.4624  1.8669
  369SOL     MW 1476   0.144   2.480   1.713  0.7044 -0.4908  0.1208
  370SOL     OW 1477   0.699   0.071   0.995  1.5623  0.3736  0.1256
  370SOL    HW1 1478   0.760   0.143   1.005 -0.1530  1.2026 -0.7290
  370SOL    HW2 1479   0.752  -0.009   0.999 -0.9129 -0.0532  2.2294
  370SOL     MW 1480   0.714   0.070   0.997  1.0094  0.4267  0.2904
  371SOL     OW 1481   1.313   2.979   1.494  0.0825  0.7861  0.0360
  371SOL    HW1 1482   1.272   2.913   1.436 -1.4220  1.1712  2.9573
  371SOL    HW2 1483   1.305   3.064   1.453  1.0732 -1.0485  0.7541
  371SOL     MW 1484   1.307   2.981   1.481  0.0147  0.5948  0.5161
  372SOL     OW 1485   0.829   2.287   0.480  0.0886  0.1211 -0.3644
  372SOL    HW1 1486   0.823   2.192   0.494 -0.9626  1.1057  0.3857
  372SOL    HW2 1487   0.835   2.308   0.383  0.5575  1.2815 -0.7549
  372SOL     MW 1488   0.829   2.278   0.469  0.0118  0.4041 -0.3169
  373SOL     OW 1489   2.832   3.003   1.394 -0.5366 -0.3900  0.0828
  373SOL    HW1 1490   2.905   2.959   1.350  0.7611 -0.7037 -0.8194
  373SOL    HW2 1491   2.825   3.092   1.347  3.1222  0.3037 -0.6514
  373SOL     MW 1492   2.841   3.009   1.382  0.1174 -0.3398 -0.1331
  374SOL     OW 1493   1.531   0.506   0.254 -0.1779 -0.1568  0.1209
  374SOL    HW1 1494   1.597   0.552   0.310  0.0840 -0.7336 -2.8729
  374SOL    HW2 1495   1.484   0.465   0.326  1.1726 -2.7029 -2.4899
  374SOL     MW 1496   1.534   0.507   0.271  0.0348 -0.5688 -0.6186
  375SOL     OW 1497   1.122   2.122   2.315  0.0929 -0.0771  0.0336
  375SOL    HW1 1498   1.119   2.124   2.410  1.3572  0.4469 -3.3253
  375SOL    HW2 1499   1.146   2.030   2.301 -1.3370 -1.0513  1.1929
  375SOL     MW 1500   1.124   2.110   2.326  0.0711 -0.1365 -0.2566
  376SOL     OW 1501   0.684   2.535   0.071  0.4976 -0.8224 -0.4519
  376SOL    HW1 1502   0.739   2.482   0.131 -1.7958  1.5709  0.0684
  376SOL    HW2 1503   0.651   2.467   0.008  0.2884 -3.5363 -2.4538
  376SOL     MW 1504   0.687   2.519   0.071  0.1674 -0.8647 -0.6474
  377SOL     OW 1505   1.306   1.966   0.846 -0.1107 -0.5006  0.0932
  377SOL    HW1 1506   1.220   1.972   0.799 -1.1985 -0.6595  2.0159
  377SOL    HW2 1507   1.279   1.929   0.931  3.8200  2.0511  1.3701
  377SOL     MW 1508   1.291   1.962   0.851  0.2644 -0.1849  0.5153
  378SOL     OW 1509   1.033   2.784   1.562  0.5992  0.4046  0.1613
  378SOL    HW1 1510   0.983   2.700   1.548  0.2747  0.3220  0.8710
  378SOL    HW2 1511   0.990   2.849   1.498 -0.8811 -0.9365 -2.3123
  378SOL     MW 1512   1.020   2.781   1.551  0.3611  0.2168 -0.0715
  379SOL     OW 1513   1.110   1.801   2.259  0.5123  0.2333 -0.2301
  379SOL    HW1 1514   1.016   1.803   2.246 -2.0216 -1.9427 -0.3226
  379SOL    HW2 1515   1.147   1.722   2.213 -1.5003 -1.8521  0.2088
  379SOL     MW 1516   1.102   1.791   2.251 -0.0876 -0.3289 -0.1844
  380SOL     OW 1517   0.878   0.093   1.540 -0.1444 -1.0261 -0.0511
  380SOL    HW1 1518   0.917   0.103   1.452  1.1894  0.5765  0.5441
  380SOL    HW2 1519   0.948   0.085   1.600 -2.7062 -2.5717  3.1681
  380SOL     MW 1520   0.892   0.093   1.537 -0.3064 -1.0186  0.4521
  381SOL     OW 1521   0.790   1.959   0.771 -0.4353  0.0662  0.1796
  381SOL    HW1 1522   0.890   1.964   0.768  1.1075 -0.6935 -0.4273
  381SOL    HW2 1523   0.762   2.011   0.841 -0.9623 -0.0777 -1.1586
  381SOL     MW 1524   0.799   1.966   0.780 -0.3013 -0.0530 -0.0770
  382SOL     OW 1525   0.731   0.070   0.715  0.1147  0.4107 -0.1204
  382SOL    HW1 1526   0.716   0.084   0.811 -2.4343 -0.2278  2.3493
  382SOL    HW2 1527   0.692  -0.022   0.707 -0.5287 -1.8571 -0.6415
  382SOL     MW 1528   0.724   0.060   0.727 -0.3065  0.0272  0.1367
  383SOL     OW 1529   0.429   0.051   0.369  0.6231 -0.3999 -0.4094
  383SOL    HW1 1530   0.474  -0.021   0.329 -1.0956  2.4464  1.2772
  383SOL    HW2 1531   0.349   0.006   0.395  1.0433  2.1399  3.2426
  383SOL     MW 1532   0.424   0.035   0.367  0.4518  0.3108  0.2950
  384SOL     OW 1533   0.632   2.914   0.652  0.2118 -0.1968  0.0437
  384SOL    HW1 1534   0.637   2.843   0.707  1.4889  2.3499  0.4143
  384SOL    HW2 1535   0.547   2.897   0.606  0.1784  1.1889  1.0820
  384SOL     MW 1536   0.622   2.902   0.654  0.3759  0.3220  0.2296
  385SOL     OW 1537   1.314   2.069   1.525 -0.2081 -0.3373 -0.5225
  385SOL    HW1 1538   1.379   2.083   1.591 -0.1401 -1.3085 -1.1049
  385SOL    HW2 1539   1.263   1.992   1.551  0.7236  2.1925 -1.1356
  385SOL     MW 1540   1.316   2.061   1.537 -0.0762 -0.1317 -0.6802
  386SOL     OW 1541   1.364   0.336   0.819  0.2185 -0.4869  0.3018
  386SOL    HW1 1542   1.281   0.299   0.813  2.9713 -3.1150 -2.6300
  386SOL    HW2 1543   1.357   0.394   0.897 -0.8970  0.6298 -0.3311
  386SOL     MW 1544   1.352   0.339   0.828  0.4345 -0.6863 -0.1685
  387SOL     OW 1545   0.828   2.203   1.470 -0.3036 -0.4735 -0.2741
  387SOL    HW1 1546   0.910   2.259   1.453 -0.5089  1.7395  0.6725
  387SOL    HW2 1547   0.849   2.108   1.434  0.4056 -2.4747  0.4432
  387SOL     MW 1548   0.841   2.198   1.463 -0.2371 -0.4455 -0.0545
  388SOL     OW 1549   1.548   2.779   1.270  0.6752 -0.1591  0.4741
  388SOL    HW1 1550   1.476   2.719   1.247  1.0429 -0.8392 -0.4001
  388SOL    HW2 1551   1.607   2.756   1.196  0.2161 -0.0199  1.0463
  388SOL     MW 1552   1.546   2.768   1.257  0.6631 -0.2304  0.4343
  389SOL     OW 1553   0.360   0.086   3.091  0.2108 -0.9396 -0.1388
  389SOL    HW1 1554   0.444   0.057   3.055 -0.9105 -0.4110 -1.4878
  389SOL    HW2 1555   0.293   0.058   3.018 -0.3576 -0.9545 -2.0523
  389SOL     MW 1556   0.362   0.078   3.077 -0.0122 -0.8718 -0.5693
  390SOL     OW 1557   1.320   0.011   0.626 -0.7695 -0.2033 -0.2330
  390SOL    HW1 1558   1.389   0.038   0.570 -0.4133  0.1043 -0.6790
  390SOL    HW2 1559   1.341   0.046   0.713 -1.5626 -2.9797  0.3155
  390SOL     MW 1560   1.332   0.019   0.630 -0.8271 -0.5290 -0.2195
  391SOL     OW 1561   0.290   2.266   1.511 -0.1406  0.2768  0.0472
  391SOL    HW1 1562   0.228   2.192   1.512  0.2112  0.3250  0.2074
  391SOL    HW2 1563   0.229   2.336   1.474  0.8570  0.2008  1.7554
  391SOL     MW 1564   0.274   2.265   1.506  0.0374  0.2731  0.2938
  392SOL     OW 1565   2.003   2.196   0.375  0.6283 -0.7497  0.2812
  392SOL    HW1 1566   1.932   2.187   0.441 -1.4403 -0.3351 -0.0599
  392SOL    HW2 1567   2.067   2.256   0.412  2.5639  0.8835 -0.3468
  392SOL     MW 1568   2.002   2.203   0.388  0.6108 -0.4795  0.1534
  393SOL     OW 1569   0.236   2.989   2.810 -0.1755  0.2069 -0.1241
  393SOL    HW1 1570   0.293   3.059   2.796 -0.1296 -0.2154  1.0216
  393SOL    HW2 1571   0.167   2.999   2.743  1.4546 -1.8401  1.9454
  393SOL     MW 1572   0.234   3.000   2.800  0.0457 -0.1189  0.3001
  394SOL     OW 1573   0.868   1.682   1.470  0.0690 -0.0565  0.1088
  394SOL    HW1 1574   0.852   1.691   1.564  0.8753 -2.9524  0.4558
  394SOL    HW2 1575   0.893   1.768   1.440 -0.1916  1.4246  1.0946
  394SOL     MW 1576   0.869   1.695   1.479  0.1410 -0.2432  0.2847
  395SOL     OW 1577   0.965   2.852   2.616  0.1700 -0.0755  0.2125
  395SOL    HW1 1578   1.007   2.930   2.656  2.7674 -1.1501  2.9790
  395SOL    HW2 1579   1.050   2.792   2.594 -0.0360 -2.4658 -1.1866
  395SOL     MW 1580   0.982   2.854   2.618  0.4855 -0.5326  0.3929
  396SOL     OW 1581   0.831   1.842   2.369  0.5660 -0.1494  0.1061
  396SOL    HW1 1582   0.875   1.847   2.455 -1.3493  1.6429  3.1081
  396SOL    HW2 1583   0.790   1.757   2.369  3.1554  0.8071 -2.6459
  396SOL     MW 1584   0.832   1.832   2.380  0.6550  0.2133  0.1391
  397SOL     OW 1585   1.022   2.352   1.368  0.2200  0.2151  0.3874
  397SOL    HW1 1586   1.045   2.377   1.276  1.7544  0.6658  1.4622
  397SOL    HW2 1587   1.112   2.349   1.405  1.6783  2.8134 -0.8916
  397SOL     MW 1588   1.037   2.355   1.361  0.6149  0.6174  0.3605
  398SOL     OW 1589   0.656   2.627   0.777  0.0351  0.1127  0.4815
  398SOL    HW1 1590   0.612   2.552   0.735  1.2501 -2.5062 -2.9734
  398SOL    HW2 1591   0.739   2.608   0.721 -0.1288 -1.1855 -0.2569
  398SOL     MW 1592   0.661   2.615   0.764  0.1738 -0.4042 -0.0717
  399SOL     OW 1593   0.284   2.003   0.434 -0.1171  0.0813 -0.0225
  399SOL    HW1 1594   0.204   2.055   0.462 -1.9563  1.5706  1.8982
  399SOL    HW2 1595   0.320   2.044   0.350  0.7772  2.9383  0.9355
  399SOL     MW 1596   0.278   2.015   0.426 -0.2418  0.6548  0.3573
  400SOL     OW 1597   0.574   1.828   0.161 -0.3493 -0.0421  0.8096
  400SOL    HW1 1598   0.531   1.908   0.169 -0.1373  0.3184  1.9358
  400SOL    HW2 1599   0.554   1.782   0.244  1.7822  2.0647 -0.7759
  400SOL     MW 1600   0.566   1.832   0.173 -0.0401  0.2834  0.7490
  401SOL     OW 1601   0.907   2.078   0.207 -0.0378  0.1163 -0.1156
  401SOL    HW1 1602   0.919   1.995   0.171  0.2644 -1.2224 -0.1200
  401SOL    HW2 1603   0.993   2.102   0.239 -2.5573  0.7981 -0.2970
  401SOL     MW 1604   0.920   2.070   0.206 -0.3304  0.0297 -0.1401
  402SOL     OW 1605   0.680   2.952   1.686 -0.0087  0.5910 -0.1023
  402SOL    HW1 1606   0.736   2.935   1.763 -1.0510  0.9393 -2.1236
  402SOL    HW2 1607   0.722   3.030   1.645 -0.6283 -0.0489  0.5198
  402SOL     MW 1608   0.693   2.960   1.691 -0.2280  0.5525 -0.2869
  403SOL     OW 1609   0.061   0.388   0.446  0.6652  0.2488 -0.3522
  403SOL    HW1 1610   0.138   0.363   0.502  0.9733 -0.0557  1.2330
  403SOL    HW2 1611   0.082   0.354   0.360  0.1271 -0.6212  1.0905
  403SOL     MW 1612   0.074   0.380   0.442  0.6348  0.0938  0.0473
  404SOL     OW 1613   0.984   2.867   0.800 -0.2006 -0.6167 -0.0740
  404SOL    HW1 1614   1.027   2.801   0.746  0.9317  2.4515  0.9043
  404SOL    HW2 1615   1.005   2.952   0.754 -0.6780  0.9141  0.1325
  404SOL     MW 1616   0.993   2.870   0.786 -0.1142 -0.0099  0.0823
  405SOL     OW 1617   0.493   2.438   1.578  0.3049 -0.2613 -0.0188
  405SOL    HW1 1618   0.467   2.510   1.519 -0.4190 -4.3226  0.9552
  405SOL    HW2 1619   0.431   2.362   1.546 -1.3670 -1.8005 -2.1680
  405SOL     MW 1620   0.481   2.437   1.566 -0.0112 -1.0002 -0.1738
  406SOL     OW 1621   0.402   2.308   1.094 -0.3758  0.2025 -0.1190
  406SOL    HW1 1622   0.308   2.339   1.091 -2.7238 -0.0670 -2.1547
  406SOL    HW2 1623   0.417   2.238   1.169  3.3788  1.3447  2.7904
  406SOL     MW 1624   0.391   2.303   1.104 -0.1902  0.3176 -0.0037
  407SOL     OW 1625   0.026   2.723   1.110 -0.6245  0.3643 -0.0411
  407SOL    HW1 1626   0.093   2.712   1.181 -2.7879 -1.8607 -0.0145
  407SOL    HW2 1627   0.063   2.683   1.029  2.2857  0.1454 -4.6744
  407SOL     MW 1628   0.039   2.716   1.109 -0.5260  0.0418 -0.6489
  408SOL     OW 1629   2.098   2.044   0.664 -0.2480 -0.1144  0.1804
  408SOL    HW1 1630   2.046   2.110   0.709 -0.2117  0.8815  1.0136
  408SOL    HW2 1631   2.043   2.012   0.598  2.4272  2.3495  1.4031
  408SOL     MW 1632   2.084   2.048   0.661  0.1097  0.3420  0.4516
  409SOL     OW 1633   1.360   0.071   0.891  0.6981  0.0515  0.5609
  409SOL    HW1 1634   1.393   0.158   0.922  1.0813  2.9836 -0.4724
  409SOL    HW2 1635   1.410   0.008   0.944 -1.3139 -0.0428 -0.6963
  409SOL     MW 1636   1.371   0.074   0.902  0.4832  0.4259  0.2587
  410SOL     OW 1637   1.106   2.439   1.131 -0.1669 -0.0586 -0.7525
  410SOL    HW1 1638   1.027   2.453   1.078  1.7730  1.8680  0.6414
  410SOL    HW2 1639   1.156   2.375   1.073  0.5703 -1.6275  1.6640
  410SOL     MW 1640   1.102   2.433   1.117  0.1863 -0.0114 -0.2498
  411SOL     OW 1641   1.955   0.062   2.865  0.1597 -0.6276  0.6902
  411SOL    HW1 1642   1.901   0.025   2.786  0.6781 -2.3269 -1.3306
  411SOL    HW2 1643   1.897   0.069   2.940 -3.7871  1.6701 -0.7232
  411SOL     MW 1644   1.941   0.058   2.864 -0.2926 -0.5487  0.2371
  412SOL     OW 1645   1.082   2.207   0.601 -0.1821  0.1824  0.0132
  412SOL    HW1 1646   1.153   2.268   0.608 -0.8099 -1.7368  1.3876
  412SOL    HW2 1647   1.011   2.263   0.597  1.2864 -1.6229  0.9931
  412SOL     MW 1648   1.082   2.223   0.601 -0.0712 -0.3090  0.3238
  413SOL     OW 1649   0.543   2.771   0.089 -0.0453  0.3555 -0.0313
  413SOL    HW1 1650   0.593   2.688   0.094 -3.8831 -2.0221 -1.9258
  413SOL    HW2 1651   0.558   2.813   0.003 -0.8065 -0.3983 -1.0142
  413SOL     MW 1652   0.551   2.765   0.078 -0.6521 -0.0577 -0.4110
  414SOL     OW 1653   1.962   3.006   1.073 -0.4249 -0.7275 -0.7295
  414SOL    HW1 1654   1.927   2.979   0.987 -1.3829 -1.9271  2.0848
  414SOL    HW2 1655   2.051   2.966   1.088  0.9399 -0.8119 -1.4216
  414SOL     MW 1656   1.969   2.997   1.064 -0.3713 -0.8969 -0.4495
  415SOL     OW 1657   1.702   2.651   1.085 -0.0180 -0.3286  0.5157
  415SOL    HW1 1658   1.668   2.566   1.121  0.0814 -1.1841 -0.6807
  415SOL    HW2 1659   1.799   2.652   1.110  0.7426 -1.7963  2.0494
  415SOL     MW 1660   1.711   2.640   1.093  0.0955 -0.6351  0.5602
  416SOL     OW 1661   0.615   1.910   1.359  0.4330 -0.0340 -0.5165
  416SOL    HW1 1662   0.578   1.996   1.349 -0.3079  0.7362 -0.1920
  416SOL    HW2 1663   0.591   1.863   1.277  0.4570 -2.0299 -1.8529
  416SOL     MW 1664   0.607   1.915   1.347  0.3384 -0.1957 -0.6500
  417SOL     OW 1665   1.010   3.056   2.040 -0.0790 -0.0788 -0.3701
  417SOL    HW1 1666   0.943   3.027   2.104 -0.8841  0.1838 -0.3139
  417SOL    HW2 1667   0.989   3.000   1.966 -1.0512 -0.6278  2.5224
  417SOL     MW 1668   0.999   3.044   2.039 -0.3135 -0.1166  0.0190
  418SOL     OW 1669   0.635   2.982   0.223 -0.6153 -0.1105 -0.2711
  418SOL    HW1 1670   0.714   2.981   0.166  0.8004  0.8885  0.2241
  418SOL    HW2 1671   0.573   2.915   0.191 -0.0823  2.7359  0.1126
  418SOL     MW 1672   0.637   2.973   0.212 -0.3582  0.3969 -0.1551
  419SOL     OW 1673   0.446   2.644   1.384  0.6768 -0.1623  0.2251
  419SOL    HW1 1674   0.508   2.721   1.385  0.4576  1.0857 -1.0597
  419SOL    HW2 1675   0.476   2.601   1.302 -0.8631 -1.3539 -0.2437
  419SOL     MW 1676   0.458   2.648   1.373  0.4447 -0.1549 -0.0063
  420SOL     OW 1677   0.762   2.133   0.992 -0.2782 -0.2165 -0.0001
  420SOL    HW1 1678   0.701   2.163   1.062  0.1436 -1.0167  1.4271
  420SOL    HW2 1679   0.801   2.217   0.970  0.4935  1.7087  0.6094
  420SOL     MW 1680   0.759   2.148   0.998 -0.1207 -0.0681  0.2686
  421SOL     OW 1681   2.941   0.070   0.031  0.0527  0.3370 -0.1838
  421SOL    HW1 1682   2.909   0.023  -0.050 -1.3517 -1.7494  0.2271
  421SOL    HW2 1683   2.963   0.002   0.092  2.0323  2.2374 -1.5864
  421SOL     MW 1684   2.940   0.055   0.028  0.1286  0.3124 -0.3147
  422SOL     OW 1685   0.831   2.459   0.985 -0.4351  0.0160  0.5634
  422SOL    HW1 1686   0.738   2.475   0.997 -0.4759 -0.7938  0.5641
  422SOL    HW2 1687   0.852   2.477   0.890  2.9497  1.7217  1.1702
  422SOL     MW 1688   0.821   2.463   0.974  0.0061  0.1342  0.6435
  423SOL     OW 1689   1.526   0.157   0.505  0.1437 -0.1391 -0.1575
  423SOL    HW1 1690   1.522   0.157   0.404 -1.5833 -1.1605  0.6286
  423SOL    HW2 1691   1.519   0.249   0.524 -0.0056 -2.8226  3.3550
  423SOL     MW 1692   1.525   0.169   0.494 -0.1038 -0.6279  0.4097
  424SOL     OW 1693   0.685   2.254   1.250 -0.1294 -0.7696 -0.0543
  424SOL    HW1 1694   0.607   2.236   1.294  2.3770  3.0067 -3.5122
  424SOL    HW2 1695   0.750   2.243   1.320 -0.3540  0.7705  0.2475
  424SOL     MW 1696   0.683   2.250   1.265  0.1717 -0.0682 -0.4707
  425SOL     OW 1697   1.720   2.825   1.925 -0.0386 -0.0622 -0.4859
  425SOL    HW1 1698   1.739   2.867   1.839 -1.7384  0.5241  0.3273
  425SOL    HW2 1699   1.774   2.744   1.939 -0.9000  0.1851  2.2944
  425SOL     MW 1700   1.730   2.820   1.915 -0.3765  0.0478 -0.0118
  426SOL     OW 1701   0.810   1.688   1.933  0.5908  0.2482  0.2907
  426SOL    HW1 1702   0.737   1.693   1.876  1.1517  2.7328 -2.3884
  426SOL    HW2 1703   0.800   1.769   1.977 -0.3245  1.0374 -0.8557
  426SOL     MW 1704   0.799   1.699   1.932  0.5440  0.6801 -0.2140
  427SOL     OW 1705   0.323   1.548   1.891 -0.1020 -0.0748  0.0789
  427SOL    HW1 1706   0.381   1.553   1.962 -3.9657 -3.7814  0.3769
  427SOL    HW2 1707   0.230   1.527   1.920 -0.3702 -1.8058 -2.0869
  427SOL     MW 1708   0.318   1.546   1.904 -0.6472 -0.7922 -0.1676
  428SOL     OW 1709   0.562   2.541   1.141 -0.0145  0.0906 -0.5339
  428SOL    HW1 1710   0.640   2.548   1.200 -2.7128  1.3814 -0.0513
  428SOL    HW2 1711   0.533   2.450   1.137 -2.0066  2.3904  0.9001
  428SOL     MW 1712   0.568   2.530   1.148 -0.6333  0.5643 -0.2810
  429SOL     OW 1713   1.345   2.612   1.083 -0.0286 -0.2065  0.1212
  429SOL    HW1 1714   1.262   2.559   1.097 -0.9448  0.2602  1.2368
  429SOL    HW2 1715   1.316   2.697   1.042 -0.2654  1.6728  0.1962
  429SOL     MW 1716   1.330   2.616   1.080 -0.1807  0.1030  0.2783
  430SOL     OW 1717   1.116   2.689   0.639 -0.5568  0.0414 -0.4730
  430SOL    HW1 1718   1.149   2.600   0.666  2.0307  1.4818  0.0487
  430SOL    HW2 1719   1.078   2.687   0.551  0.3554 -0.0282 -0.5768
  430SOL     MW 1720   1.115   2.677   0.631 -0.0950  0.2222 -0.4179
  431SOL     OW 1721   0.341   1.951   1.120 -0.3146 -0.2212 -0.3576
  431SOL    HW1 1722   0.413   1.888   1.103  3.0319 -0.9819  1.1250
  431SOL    HW2 1723   0.321   1.988   1.038 -0.7181 -1.3649 -2.0149
  431SOL     MW 1724   0.348   1.948   1.107  0.0737 -0.4725 -0.3807
  432SOL     OW 1725   0.043   0.084   1.178 -0.1427  0.4627  0.1801
  432SOL    HW1 1726   0.058   0.094   1.275 -0.3160  0.6860 -0.9487
  432SOL    HW2 1727  -0.029   0.011   1.172 -0.1040 -0.4186  0.2545
  432SOL     MW 1728   0.035   0.076   1.190 -0.1605  0.3759  0.0410
  433SOL     OW 1729   0.613   2.896   1.422  0.0210 -0.1903 -0.3741
  433SOL    HW1 1730   0.636   2.877   1.513  1.2064  2.1807 -1.6185
  433SOL    HW2 1731   0.699   2.916   1.381 -2.9104  0.2952 -1.0692
  433SOL     MW 1732   0.627   2.896   1.429 -0.2094  0.1866 -0.6300
  434SOL     OW 1733   1.558   2.822   1.533  0.5954 -0.6231 -0.5594
  434SOL    HW1 1734   1.470   2.858   1.550 -1.5551 -0.6652 -1.6112
  434SOL    HW2 1735   1.549   2.789   1.446 -0.2826  1.9852  0.3490
  434SOL     MW 1736   1.545   2.822   1.523  0.1958 -0.2845 -0.5783
  435SOL     OW 1737   2.866   1.762   0.192  0.0387  0.3295 -0.2382
  435SOL    HW1 1738   2.904   1.838   0.145 -0.7133  2.5807 -1.9432
  435SOL    HW2 1739   2.828   1.707   0.128 -0.7776  2.8853  0.2176
  435SOL     MW 1740   2.866   1.765   0.177 -0.1682  0.9637 -0.4030
  436SOL     OW 1741   1.394   2.744   0.322 -0.2847  0.1704  0.5990
  436SOL    HW1 1742   1.460   2.745   0.394  1.8534  2.2343 -1.7700
  436SOL    HW2 1743   1.337   2.818   0.333  1.0690 -2.1759 -0.3932
  436SOL     MW 1744   1.395   2.754   0.333  0.1760  0.1332  0.1556
  437SOL     OW 1745   0.893   2.918   1.359 -0.1614 -1.0233 -0.1923
  437SOL    HW1 1746   0.921   3.008   1.330 -0.1707  0.0847 -0.5321
  437SOL    HW2 1747   0.913   2.855   1.292 -0.6283 -0.5271 -1.2384
  437SOL     MW 1748   0.899   2.922   1.346 -0.2242 -0.8117 -0.3752
  438SOL     OW 1749   0.904   2.632   1.957  0.1428  0.3036 -0.2315
  438SOL    HW1 1750   0.877   2.585   2.039  1.7265 -1.6085  1.1325
  438SOL    HW2 1751   0.855   2.590   1.885  3.6018  0.9523 -1.7544
  438SOL     MW 1752   0.894   2.620   1.958  0.8081  0.1369 -0.2525
  439SOL     OW 1753   1.146   2.175   0.335 -0.4768 -0.1980  0.3186
  439SOL    HW1 1754   1.121   2.199   0.427  1.5027  2.4882  1.5894
  439SOL    HW2 1755   1.163   2.267   0.300  2.3255 -0.7991 -2.2816
  439SOL     MW 1756   1.145   2.190   0.342  0.1541  0.0771  0.1432
  440SOL     OW 1757   1.602   2.931   3.031 -0.1776 -1.5111 -0.0463
  440SOL    HW1 1758   1.564   2.926   3.119  0.4506 -0.2812 -0.8375
  440SOL    HW2 1759   1.668   2.860   3.031  0.6587  2.2780 -2.4745
  440SOL     MW 1760   1.606   2.921   3.043  0.0156 -0.8489 -0.4711
  441SOL     OW 1761   0.345   2.579   0.520  0.0461 -0.2802  0.0425
  441SOL    HW1 1762   0.318   2.547   0.433  1.7416 -0.1496 -1.9643
  441SOL    HW2 1763   0.364   2.675   0.521 -2.9479 -0.5288 -0.0024
  441SOL     MW 1764   0.344   2.588   0.509 -0.1252 -0.2958 -0.2282
  442SOL     OW 1765   3.052   2.291   0.638 -0.2725 -0.5144 -0.0693
  442SOL    HW1 1766   3.079   2.381   0.654  1.3501 -0.9807  1.4422
  442SOL    HW2 1767   2.964   2.288   0.678 -0.2468  1.1797 -1.6183
  442SOL     MW 1768   3.044   2.302   0.645 -0.0550 -0.3524 -0.0743
  443SOL     OW 1769   1.350   1.737   1.827  0.0929 -0.0145  0.3489
  443SOL    HW1 1770   1.310   1.791   1.752  0.3542  2.1425 -0.0174
  443SOL    HW2 1771   1.306   1.652   1.830  2.2374  0.2371  0.5183
  443SOL     MW 1772   1.339   1.733   1.818  0.4103  0.3033  0.3229
  444SOL     OW 1773   0.851   2.583   1.546  0.4549  0.1243 -0.0648
  444SOL    HW1 1774   0.934   2.532   1.576  5.6044  3.0124  1.3564
  444SOL    HW2 1775   0.796   2.572   1.628  0.4707 -0.1412  0.7965
  444SOL     MW 1776   0.855   2.575   1.561  1.1364  0.4703  0.2363
  445SOL     OW 1777   0.967   0.059   1.279 -0.1930  0.4446 -0.0286
  445SOL    HW1 1778   0.946   0.152   1.293  0.0656  2.6183 -1.2288
  445SOL    HW2 1779   1.018   0.059   1.201 -1.4248 -0.1473 -0.7612
  445SOL     MW 1780   0.971   0.071   1.271 -0.3214  0.6533 -0.2836
  446SOL     OW 1781   2.711   2.826   1.050 -0.6336 -0.6193  0.1587
  446SOL    HW1 1782   2.634   2.834   0.993 -1.1714 -0.9846 -0.5260
  446SOL    HW2 1783   2.760   2.748   1.022  0.7791 -1.1135  0.7410
  446SOL     MW 1784   2.707   2.816   1.039 -0.5181 -0.7327  0.1452
  447SOL     OW 1785   3.045   2.032   1.713  0.2262  0.4661  0.1535
  447SOL    HW1 1786   3.109   1.964   1.742 -1.8149  2.4692  0.0285
  447SOL    HW2 1787   2.987   1.984   1.650 -1.5885 -0.4460  0.4727
  447SOL     MW 1788   3.046   2.016   1.708 -0.2825  0.6100  0.1791
  448SOL     OW 1789   1.676   2.340   1.661 -0.5319  0.9476 -0.0895
  448SOL    HW1 1790   1.607   2.276   1.691  1.7104  0.8364 -2.8028
  448SOL    HW2 1791   1.635   2.433   1.650 -0.1417 -1.9777 -1.4386
  448SOL     MW 1792   1.662   2.344   1.664 -0.1846  0.5470 -0.6255
  449SOL     OW 1793   0.809   2.968   0.450 -0.5710 -0.2550 -0.0705
  449SOL    HW1 1794   0.748   2.981   0.376 -1.6782 -1.9242  0.7586
  449SOL    HW2 1795   0.749   2.956   0.526 -1.5614 -0.0825 -0.2653
  449SOL     MW 1796   0.793   2.968   0.451 -0.8477 -0.4525  0.0132
  450SOL     OW 1797   1.230   2.415   0.689 -0.2473 -0.0310  0.1526
  450SOL    HW1 1798   1.231   2.359   0.767 -0.1552 -2.5518  0.5391
  450SOL    HW2 1799   1.323   2.420   0.665 -0.3448 -1.9769 -0.2010
  450SOL     MW 1800   1.242   2.408   0.696 -0.2480 -0.6203  0.1569
  451SOL     OW 1801   0.586   2.034   1.657 -0.0958 -0.1470  0.0015
  451SOL    HW1 1802   0.680   2.069   1.682  1.5070 -0.4494  1.9391
  451SOL    HW2 1803   0.563   2.077   1.576 -0.8463  1.0305 -1.3967
  451SOL     MW 1804   0.596   2.044   1.650  0.0167 -0.0316  0.0727
  452SOL     OW 1805   0.276   2.735   0.132 -0.4886 -0.2181 -0.7276
  452SOL    HW1 1806   0.370   2.734   0.126  1.2364 -0.0364 -1.7000
  452SOL    HW2 1807   0.245   2.732   0.035 -0.7344  0.3607  0.1039
  452SOL     MW 1808   0.285   2.735   0.119 -0.2935 -0.1178 -0.7462
  453SOL     OW 1809   0.407   2.972   1.704  0.1120  0.2595  0.0791
  453SOL    HW1 1810   0.504   2.978   1.719  1.1171  2.3623 -1.1336
  453SOL    HW2 1811   0.405   3.005   1.611  0.7616 -0.9006  1.3432
  453SOL     MW 1812   0.420   2.977   1.694  0.3303  0.3839  0.0859
  454SOL     OW 1813   1.034   2.787   1.165 -0.4780 -0.4510  1.2674
  454SOL    HW1 1814   0.988   2.703   1.150 -1.5853 -1.1911 -0.8799
  454SOL    HW2 1815   0.976   2.850   1.119 -2.7410  1.2037  2.9032
  454SOL     MW 1816   1.020   2.784   1.157 -0.9227 -0.3303  1.1999
  455SOL     OW 1817   1.542   2.965   0.201 -0.5551 -0.4170 -0.0170
  455SOL    HW1 1818   1.609   2.963   0.270 -0.6968  0.3802 -0.9572
  455SOL    HW2 1819   1.473   2.900   0.222 -1.7586 -0.8009  0.4188
  455SOL     MW 1820   1.541   2.956   0.213 -0.7326 -0.3624 -0.0836
  456SOL     OW 1821   2.903   0.367   1.335 -0.2691  1.3073 -0.2406
  456SOL    HW1 1822   2.873   0.281   1.303 -0.6393 -2.3685 -1.3312
  456SOL    HW2 1823   2.971   0.401   1.272 -1.1290 -1.9254 -1.3082
  456SOL     MW 1824   2.908   0.360   1.322 -0.4314  0.3958 -0.5253
  457SOL     OW 1825   0.877   1.552   2.994  1.0186  0.3058 -0.0393
  457SOL    HW1 1826   0.792   1.575   3.041  0.9572 -0.2487 -0.9753
  457SOL    HW2 1827   0.929   1.487   3.036 -2.7468  1.5838 -0.0116
  457SOL     MW 1828   0.872   1.546   3.005  0.5137  0.4012 -0.1591
  458SOL     OW 1829   1.475   1.404   0.633  0.1558  0.1881 -0.1584
  458SOL    HW1 1830   1.388   1.430   0.660 -1.9370 -0.8469  0.7913
  458SOL    HW2 1831   1.455   1.363   0.553  0.1473  2.8454  2.9681
  458SOL     MW 1832   1.461   1.402   0.626 -0.1214  0.4022  0.3794
  459SOL     OW 1833   1.554   0.144   0.246  0.3318  0.4545 -0.0610
  459SOL    HW1 1834   1.532   0.050   0.229  1.0621  0.8804 -0.1411
  459SOL    HW2 1835   1.515   0.204   0.174  1.6656 -2.2110 -0.3535
  459SOL     MW 1836   1.546   0.140   0.234  0.6041  0.1590 -0.1102
  460SOL     OW 1837   1.732   2.152   0.624  0.3011  0.1965  0.3509
  460SOL    HW1 1838   1.645   2.140   0.671 -3.6721  0.6807 -1.2573
  460SOL    HW2 1839   1.730   2.071   0.563 -2.5973 -1.3066  1.3111
  460SOL     MW 1840   1.720   2.140   0.622 -0.6055  0.0621  0.2654
  461SOL     OW 1841   0.559   2.439   0.620 -0.4187  0.2220 -0.1712
  461SOL    HW1 1842   0.494   2.493   0.573  1.7802  0.1504 -3.1903
  461SOL    HW2 1843   0.522   2.396   0.703  0.4313 -2.3583 -1.0000
  461SOL     MW 1844   0.546   2.440   0.625 -0.0164 -0.1279 -0.6789
  462SOL     OW 1845   0.312   0.252   1.261 -0.6170  0.1250 -0.1309
  462SOL    HW1 1846   0.360   0.203   1.202 -0.6858 -2.0559 -0.3109
  462SOL    HW2 1847   0.386   0.298   1.308 -2.5672 -1.2325 -0.4313
  462SOL     MW 1848   0.328   0.252   1.259 -0.8834 -0.3419 -0.1943
  463SOL     OW 1849   0.999   0.045   0.701 -0.2921 -0.1944 -0.7135
  463SOL    HW1 1850   1.022   0.040   0.608  0.1364  1.1853 -0.9710
  463SOL    HW2 1851   0.899   0.050   0.704 -0.1167 -0.7142  1.9246
  463SOL     MW 1852   0.989   0.045   0.689 -0.2124 -0.0810 -0.3994
  464SOL     OW 1853   0.742   2.939   2.163  0.0545 -0.0344  0.1021
  464SOL    HW1 1854   0.704   2.847   2.160  3.3466  1.9645 -1.4139
  464SOL    HW2 1855   0.783   2.956   2.247  1.4507  0.6815  2.6822
  464SOL     MW 1856   0.742   2.929   2.174  0.6731  0.3238  0.2425
  465SOL     OW 1857   0.733   0.256   0.515 -0.5125  0.6227  0.6852
  465SOL    HW1 1858   0.741   0.202   0.597  1.3566 -0.0523 -0.7017
  465SOL    HW2 1859   0.748   0.207   0.435  0.8275  2.5027 -0.0891
  465SOL     MW 1860   0.736   0.242   0.515 -0.0891  0.7817  0.4000
  466SOL     OW 1861   1.061   1.967   0.720  0.3879  0.4589 -0.1372
  466SOL    HW1 1862   1.082   1.914   0.640  0.2189  0.9077 -0.4340
  466SOL    HW2 1863   1.062   2.060   0.689 -0.0445  0.4637  0.0884
  466SOL     MW 1864   1.064   1.972   0.705  0.3085  0.5187 -0.1466
  467SOL     OW 1865   1.228   2.260   0.954 -0.0334 -0.1744 -0.4496
  467SOL    HW1 1866   1.317   2.301   0.954  1.0220 -0.9458 -0.2698
  467SOL    HW2 1867   1.240   2.164   0.939  1.7660 -2.4412 -2.3792
  467SOL     MW 1868   1.241   2.253   0.952  0.3433 -0.5752 -0.6805
  468SOL     OW 1869   0.352   2.601   2.005  0.3753 -0.5431  0.0177
  468SOL    HW1 1870   0.372   2.539   1.935 -1.8171  2.3550 -3.7576
  468SOL    HW2 1871   0.393   2.685   1.987  0.7091 -3.9807  2.7242
  468SOL     MW 1872   0.360   2.604   1.994  0.1301 -0.6142 -0.1233
  469SOL     OW 1873   0.392   2.135   1.820 -0.4366  0.3970 -0.2023
  469SOL    HW1 1874   0.317   2.075   1.823  1.8973  1.3695  0.5993
  469SOL    HW2 1875   0.441   2.115   1.740 -1.9908 -0.9749  0.6659
  469SOL     MW 1876   0.388   2.125   1.810 -0.3337  0.3443  0.0180
  470SOL     OW 1877   3.037   2.547   0.163 -0.4375  0.3930 -0.5465
  470SOL    HW1 1878   2.961   2.490   0.185 -0.0286 -0.1354  1.9306
  470SOL    HW2 1879   3.027   2.566   0.071  0.3812  1.4914 -0.9229
  470SOL     MW 1880   3.026   2.542   0.154 -0.2755  0.4682 -0.2693
  471SOL     OW 1881   1.232   2.744   1.348  0.7879 -0.1288  0.5208
  471SOL    HW1 1882   1.189   2.718   1.433 -0.0100 -0.5485  2.2026
  471SOL    HW2 1883   1.154   2.741   1.288  1.5566 -0.0674  0.3785
  471SOL     MW 1884   1.216   2.740   1.352  0.7840 -0.1761  0.7239
  472SOL     OW 1885   2.901   2.098   0.325 -0.2742 -0.4916 -0.4483
  472SOL    HW1 1886   2.932   2.071   0.234  1.8805  1.7300  2.8039
  472SOL    HW2 1887   2.882   2.014   0.377 -0.4132  1.3035  1.8333
  472SOL     MW 1888   2.903   2.083   0.320 -0.0082  0.0384  0.2818
  473SOL     OW 1889   0.781   2.547   1.283  0.1864  0.4195 -1.2440
  473SOL    HW1 1890   0.792   2.452   1.284 -1.5364 -0.6163  0.9173
  473SOL    HW2 1891   0.795   2.554   1.382 -0.3229 -2.7842  0.9319
  473SOL     MW 1892   0.784   2.535   1.296 -0.1081 -0.1399 -0.6718
  474SOL     OW 1893   0.781   2.233   1.732 -0.4207  0.2808 -0.3248
  474SOL    HW1 1894   0.873   2.204   1.761  2.3516  1.1630  0.9250
  474SOL    HW2 1895   0.794   2.224   1.632  0.1210  0.0424 -2.0496
  474SOL     MW 1896   0.795   2.228   1.723  0.0165  0.3657 -0.3875
  475SOL     OW 1897   1.630   3.081   1.436 -0.1234  0.6643  0.0851
  475SOL    HW1 1898   1.542   3.112   1.401 -2.1104  1.7493 -0.4128
  475SOL    HW2 1899   1.614   2.988   1.457 -0.6151  1.4021  0.8734
  475SOL     MW 1900   1.616   3.072   1.434 -0.4504  0.9048  0.1234
  476SOL     OW 1901   1.469   2.590   0.806  0.2374  0.0145  0.0070
  476SOL    HW1 1902   1.413   2.602   0.887  0.8519 -2.1330 -0.4532
  476SOL    HW2 1903   1.490   2.680   0.783  1.6112 -2.5976 -2.6214
  476SOL     MW 1904   1.464   2.604   0.814  0.4997 -0.6135 -0.4005
  477SOL     OW 1905   0.865   2.505   0.668 -0.7864 -0.1857  0.5791
  477SOL    HW1 1906   0.913   2.560   0.615  1.2511 -0.9756 -1.2307
  477SOL    HW2 1907   0.835   2.438   0.606  0.2639  0.4299 -0.9162
  477SOL     MW 1908   0.868   2.503   0.653 -0.3790 -0.2087  0.1430
  478SOL     OW 1909   0.239   2.625   0.905  0.0188  0.6357 -0.0541
  478SOL    HW1 1910   0.268   2.725   0.915 -1.1992  2.0632 -0.1459
  478SOL    HW2 1911   0.315   2.569   0.884  0.8994  1.2241 -0.0888
  478SOL     MW 1912   0.253   2.631   0.904 -0.0257  0.9016 -0.0708
  479SOL     OW 1913   1.397   1.945   1.299  0.2173 -0.0905 -0.0110
  479SOL    HW1 1914   1.349   1.978   1.378 -2.1621 -0.3145  3.3744
  479SOL    HW2 1915   1.454   1.879   1.338  0.3564 -1.7489 -1.4508
  479SOL     MW 1916   1.398   1.940   1.315 -0.0783 -0.3389  0.2457
  480SOL     OW 1917   1.850   2.389   1.299  0.0808  0.3487  0.1753
  480SOL    HW1 1918   1.875   2.300   1.329 -0.4390 -0.3460  1.3666
  480SOL    HW2 1919   1.884   2.383   1.208  0.8537  1.0481  0.4750
  480SOL     MW 1920   1.858   2.376   1.291  0.1142  0.3493  0.3720
  481SOL     OW 1921   1.212   0.122   1.106 -0.3533  0.3274  0.0029
  481SOL    HW1 1922   1.248   0.096   1.018  0.9855 -1.5041 -1.7883
  481SOL    HW2 1923   1.201   0.217   1.096 -1.6862 -0.9022  0.9622
  481SOL     MW 1924   1.215   0.131   1.093 -0.3525 -0.0765 -0.1069
  482SOL     OW 1925   1.049   0.038   0.430  0.1979 -0.0502  0.3528
  482SOL    HW1 1926   0.968  -0.014   0.430  1.5301 -0.5342  0.5490
  482SOL    HW2 1927   1.022   0.124   0.399 -1.9760 -1.1602 -2.0086
  482SOL     MW 1928   1.035   0.042   0.426  0.0868 -0.2605  0.0671
  483SOL     OW 1929   0.369   2.853   0.554  1.0662  0.5404 -0.1265
  483SOL    HW1 1930   0.324   2.907   0.492 -0.7399 -4.8800  0.6132
  483SOL    HW2 1931   0.353   2.891   0.643 -1.3298  0.0186  1.2381
  483SOL     MW 1932   0.361   2.865   0.558  0.5118 -0.2436  0.1512
  484SOL     OW 1933   1.669   1.851   1.449 -0.2590 -0.3159 -0.2036
  484SOL    HW1 1934   1.725   1.926   1.424  2.4240  2.0405  0.0091
  484SOL    HW2 1935   1.693   1.848   1.542 -0.1554  0.4237  0.4684
  484SOL     MW 1936   1.680   1.861   1.458  0.1087  0.0926 -0.0868
  485SOL     OW 1937   0.552   2.300   0.358 -0.1884 -0.2003  0.2622
  485SOL    HW1 1938   0.611   2.319   0.432  2.6575 -5.5188  1.5936
  485SOL    HW2 1939   0.573   2.368   0.290 -3.0993  1.0497 -6.3125
  485SOL     MW 1940   0.563   2.311   0.359 -0.1970 -0.7371 -0.4296
  486SOL     OW 1941   0.103   2.470   1.430 -0.1897  0.3776 -0.1336
  486SOL    HW1 1942   0.149   2.555   1.396  0.4326 -1.7781 -0.3258
  486SOL    HW2 1943   0.120   2.480   1.526 -1.0235 -1.3392 -1.4471
  486SOL     MW 1944   0.111   2.483   1.438 -0.2176 -0.1334 -0.3323
  487SOL     OW 1945   1.267   1.622   0.972 -0.3711  0.1656  0.4178
  487SOL    HW1 1946   1.224   1.705   0.975 -0.2846  1.0708  0.7685
  487SOL    HW2 1947   1.353   1.648   1.004 -0.9251  1.3665  1.0838
  487SOL     MW 1948   1.273   1.637   0.976 -0.4328  0.4435  0.5519
  488SOL     OW 1949   1.528   1.874   0.581  0.1538  0.3809 -0.5269
  488SOL    HW1 1950   1.528   1.931   0.504  2.3153 -0.1839  0.7888
  488SOL    HW2 1951   1.450   1.824   0.572  1.3404  0.0450 -1.4128
  488SOL     MW 1952   1.518   1.875   0.569  0.5956  0.2620 -0.4702
  489SOL     OW 1953   0.746   0.774   0.504  0.3052 -0.0830 -0.1179
  489SOL    HW1 1954   0.806   0.720   0.454 -0.4378  2.2765  0.2572
  489SOL    HW2 1955   0.758   0.740   0.588  3.8561 -0.7233 -0.9975
  489SOL     MW 1956   0.755   0.762   0.508  0.6757  0.1438 -0.1844
  490SOL     OW 1957   1.407   2.084   0.408  0.3299  0.4866 -0.3274
  490SOL    HW1 1958   1.476   2.148   0.380 -0.7182  1.4183 -0.7664
  490SOL    HW2 1959   1.325   2.126   0.388  0.6418  0.9783  0.1766
  490SOL     MW 1960   1.405   2.098   0.401  0.2328  0.6744 -0.3189
  491SOL     OW 1961   1.244   2.957   0.389 -0.1411 -0.5179 -0.2406
  491SOL    HW1 1962   1.274   2.990   0.473 -0.3205 -1.6850 -0.6080
  491SOL    HW2 1963   1.178   3.027   0.375 -1.4628  2.7071 -0.6605
  491SOL     MW 1964   1.239   2.971   0.398 -0.3392 -0.2463 -0.3445
  492SOL     OW 1965   1.447   2.136   0.698  0.5419 -0.0889  0.2457
  492SOL    HW1 1966   1.430   2.100   0.612 -0.0711 -0.1716 -0.1652
  492SOL    HW2 1967   1.402   2.082   0.767  0.3053 -0.6764  1.5051
  492SOL     MW 1968   1.439   2.124   0.696  0.4298 -0.1773  0.3577
  493SOL     OW 1969   0.196   2.990   0.376 -0.8360 -0.2044 -0.7926
  493SOL    HW1 1970   0.117   3.028   0.422 -0.3876  2.9464  0.1332
  493SOL    HW2 1971   0.178   2.987   0.278  0.3953  0.4410 -1.0363
  493SOL     MW 1972   0.183   2.995   0.369 -0.6144  0.2965 -0.7026
  494SOL     OW 1973   0.391   2.413   1.817 -0.1199 -0.0823  0.2946
  494SOL    HW1 1974   0.411   2.315   1.831  0.8832  1.5918 -1.1433
  494SOL    HW2 1975   0.421   2.419   1.726  0.4951  1.1946 -1.3731
  494SOL     MW 1976   0.398   2.401   1.807  0.0936  0.3070 -0.1151
  495SOL     OW 1977   2.912   1.654   2.727 -0.2167  0.0387 -0.1590
  495SOL    HW1 1978   2.876   1.731   2.766  2.9948 -2.0883  1.4737
  495SOL    HW2 1979   2.909   1.581   2.790 -2.6003 -1.8932 -0.1025
  495SOL     MW 1980   2.907   1.655   2.740 -0.1074 -0.4968  0.0639
  496SOL     OW 1981   2.754   2.259   2.709 -0.1316  0.0592 -0.1743
  496SOL    HW1 1982   2.771   2.166   2.693  1.6573 -1.1312 -0.5569
  496SOL    HW2 1983   2.843   2.296   2.732  0.8829  1.8953  1.5429
  496SOL     MW 1984   2.768   2.252   2.710  0.2383  0.1444  0.0018
  497SOL     OW 1985   1.506   2.334   2.528  0.1008  0.2546 -0.3347
  497SOL    HW1 1986   1.504   2.272   2.446 -1.4962 -2.2146 -2.0405
  497SOL    HW2 1987   1.486   2.276   2.601  1.6600 -1.8911  0.7627
  497SOL     MW 1988   1.503   2.318   2.527  0.0958 -0.3543 -0.4150
  498SOL     OW 1989   1.532   2.797   2.270  0.5237 -0.4523 -0.4134
  498SOL    HW1 1990   1.536   2.703   2.254 -0.9872  0.2782 -0.4512
  498SOL    HW2 1991   1.610   2.807   2.331  1.4663 -0.0822  1.9843
  498SOL     MW 1992   1.543   2.786   2.276  0.4487 -0.3071 -0.1021
  499SOL     OW 1993   0.928   0.145   0.046 -0.0534  0.3284 -0.8709
  499SOL    HW1 1994   0.857   0.183   0.097 -0.5638 -3.6184 -0.7023
  499SOL    HW2 1995   0.908   0.053   0.036 -0.4477  0.4304 -0.3858
  499SOL     MW 1996   0.916   0.138   0.052 -0.1728 -0.1789 -0.7846
  500SOL     OW 1997   1.036   2.490   2.765  0.2619 -0.4641  0.2432
  500SOL    HW1 1998   1.077   2.474   2.853 -1.5776 -4.0812  1.5476
  500SOL    HW2 1999   0.961   2.550   2.789  0.0065  0.0293 -0.6054
  500SOL     MW 2000   1.032   2.496   2.780 -0.0145 -0.8763  0.3034
  501SOL     OW 2001   1.723   2.215   0.019  0.3058 -0.2919 -0.0195
  501SOL    HW1 2002   1.711   2.311   0.036 -1.1165 -0.5371  1.0571
  501SOL    HW2 2003   1.817   2.196   0.024  0.6066  0.6214  1.1517
  501SOL     MW 2004   1.734   2.225   0.022  0.1579 -0.2037  0.2771
  502SOL     OW 2005   0.175   2.711   2.969 -0.0633  0.9026 -0.0961
  502SOL    HW1 2006   0.090   2.668   2.951  1.5987 -1.2458  1.6194
  502SOL    HW2 2007   0.191   2.769   2.893 -2.5302 -0.1287 -0.8629
  502SOL     MW 2008   0.166   2.713   2.956 -0.1695  0.4830  0.0290
  503SOL     OW 2009   1.140   2.602   2.110  0.2814  0.2774 -0.7757
  503SOL    HW1 2010   1.206   2.581   2.048  0.4279 -2.9522  2.8310
  503SOL    HW2 2011   1.066   2.630   2.059  0.2978  1.3765 -0.2416
  503SOL     MW 2012   1.139   2.603   2.095  0.3029 -0.0037 -0.2293
  504SOL     OW 2013   0.090   2.617   2.103 -0.0198  0.1414 -0.6251
  504SOL    HW1 2014   0.174   2.593   2.070  0.1700 -0.1180  0.4772
  504SOL    HW2 2015   0.059   2.546   2.156 -4.5375  2.0828  1.5072
  504SOL     MW 2016   0.097   2.605   2.106 -0.5908  0.3633 -0.1984
  505SOL     OW 2017   1.630   2.671   2.707  0.1381 -0.4586 -0.0986
  505SOL    HW1 2018   1.657   2.698   2.615  0.2676  1.6743 -3.5810
  505SOL    HW2 2019   1.569   2.740   2.723  1.9546 -0.6374 -0.9853
  505SOL     MW 2020   1.625   2.683   2.697  0.3948 -0.2008 -0.6750
  506SOL     OW 2021   1.598   0.032   2.813  0.0137 -0.0021  0.3229
  506SOL    HW1 2022   1.621  -0.035   2.876 -1.9175  3.4449 -1.8673
  506SOL    HW2 2023   1.655   0.003   2.742  2.6364  0.2840  0.0558
  506SOL     MW 2024   1.609   0.019   2.812  0.1049  0.4905 -0.0013
  507SOL     OW 2025   0.873   2.693   2.844  0.4075 -0.2417 -0.2578
  507SOL    HW1 2026   0.880   2.763   2.780 -2.5165  1.8884  1.5832
  507SOL    HW2 2027   0.776   2.672   2.854 -0.8372  0.4883  3.6360
  507SOL     MW 2028   0.861   2.699   2.837 -0.1425  0.1356  0.4989
  508SOL     OW 2029   1.136   2.073   2.591  0.1952  0.3587 -0.4081
  508SOL    HW1 2030   1.217   2.118   2.630  1.1270 -1.1061 -0.9356
  508SOL    HW2 2031   1.064   2.104   2.650 -0.5363  1.5211  0.5057
  508SOL     MW 2032   1.137   2.083   2.604  0.2216  0.3188 -0.3571
  509SOL     OW 2033   0.610   2.566   2.835 -0.1556  0.1612  0.2233
  509SOL    HW1 2034   0.629   2.537   2.745 -3.1249  0.1136 -1.4698
  509SOL    HW2 2035   0.524   2.600   2.832 -1.4224 -1.3316 -1.2128
  509SOL     MW 2036   0.601   2.567   2.823 -0.7145 -0.0420 -0.1896
  510SOL     OW 2037   1.512   2.583   1.674 -0.6082  0.0061  0.2417
  510SOL    HW1 2038   1.542   2.673   1.643  0.4983  2.8229 -0.3799
  510SOL    HW2 2039   1.448   2.593   1.745  2.1463  2.2714  0.5470
  510SOL     MW 2040   1.507   2.596   1.680 -0.0988  0.6766  0.1999
  511SOL     OW 2041   0.327   2.534   2.521 -0.4099  0.5663  0.2155
  511SOL    HW1 2042   0.411   2.504   2.565  0.2604  0.9478  1.6986
  511SOL    HW2 2043   0.350   2.553   2.427 -0.0065  0.1809  1.1849
  511SOL     MW 2044   0.341   2.533   2.515 -0.2683  0.5658  0.5391
  512SOL     OW 2045   1.039   1.998   2.856  0.0607 -0.1612  0.1757
  512SOL    HW1 2046   0.986   2.058   2.906  0.4196 -0.1828 -1.3451
  512SOL    HW2 2047   1.051   1.924   2.918  0.2131  2.0581  0.7110
  512SOL     MW 2048   1.034   1.996   2.871  0.1281  0.1288  0.0457
  513SOL     OW 2049   1.595   2.534   2.159  0.9399 -0.2889 -0.0110
  513SOL    HW1 2050   1.672   2.568   2.107 -3.3067 -0.2294  2.2912
  513SOL    HW2 2051   1.631   2.490   2.241 -0.6948  2.0697  1.2237
  513SOL     MW 2052   1.610   2.533   2.163  0.1639  0.0302  0.4557
  514SOL     OW 2053   0.165   2.365   2.652 -0.3707 -0.1554  0.2572
  514SOL    HW1 2054   0.224   2.426   2.599 -0.0025 -1.1801 -1.3724
  514SOL    HW2 2055   0.211   2.309   2.714  1.7495  2.2459 -0.4979
  514SOL     MW 2056   0.179   2.365   2.653 -0.0424  0.0262 -0.0574
  515SOL     OW 2057   1.096   1.928   1.842 -0.4839  0.0625  0.0979
  515SOL    HW1 2058   1.079   2.029   1.832 -0.6499 -0.6046  1.8278
  515SOL    HW2 2059   1.151   1.918   1.917 -0.8439  1.2404  1.8979
  515SOL     MW 2060   1.101   1.940   1.851 -0.5533  0.1299  0.5637
  516SOL     OW 2061   1.360   2.550   2.943  0.7158 -0.3783 -0.1700
  516SOL    HW1 2062   1.355   2.545   2.848  1.8641  0.0169 -1.1604
  516SOL    HW2 2063   1.283   2.501   2.973 -1.8834  1.1660  1.7117
  516SOL     MW 2064   1.349   2.543   2.935  0.5244 -0.1224 -0.0524
  517SOL     OW 2065   0.615   2.368   2.294  0.0935 -0.4024  0.0956
  517SOL    HW1 2066   0.559   2.423   2.349 -1.1628  2.4994 -0.1673
  517SOL    HW2 2067   0.553   2.308   2.260 -0.0118 -1.5338  0.1623
  517SOL     MW 2068   0.600   2.368   2.297 -0.0862 -0.1688  0.0697
  518SOL     OW 2069   1.785   0.038   3.090  0.2875 -0.4642 -0.5651
  518SOL    HW1 2070   1.779   0.100   3.162 -0.8682 -0.1559  1.5260
  518SOL    HW2 2071   1.697   0.002   3.098 -0.4637  0.1750  1.0495
  518SOL     MW 2072   1.773   0.041   3.101  0.0359 -0.3392 -0.0762
  519SOL     OW 2073   0.745   2.501   1.791 -0.0243  0.3162  0.0714
  519SOL    HW1 2074   0.750   2.405   1.791 -1.7468 -2.0067 -1.4013
  519SOL    HW2 2075   0.653   2.517   1.799 -0.5509  0.8498 -0.6324
  519SOL     MW 2076   0.734   2.490   1.792 -0.3210  0.0801 -0.2158
  520SOL     OW 2077   1.234   2.172   2.935 -0.4732  0.4821 -0.0274
  520SOL    HW1 2078   1.187   2.093   2.895 -0.7033  0.9895  0.5088
  520SOL    HW2 2079   1.288   2.141   3.011 -0.5636  2.3296 -0.8582
  520SOL     MW 2080   1.235   2.157   2.940 -0.5155  0.7928 -0.0662
  521SOL     OW 2081   1.791   2.087   2.231 -0.1916  0.2774 -0.1830
  521SOL    HW1 2082   1.785   2.080   2.137 -1.7739 -1.2561  0.8737
  521SOL    HW2 2083   1.791   2.000   2.272 -1.1523  2.8402  0.6092
  521SOL     MW 2084   1.790   2.075   2.224 -0.5271  0.4132  0.0609
  522SOL     OW 2085   2.886   2.539   2.242  0.1082  0.2450  0.3523
  522SOL    HW1 2086   2.968   2.493   2.247  1.9516 -1.9061  0.1795
  522SOL    HW2 2087   2.905   2.636   2.227 -0.1041 -2.1970 -0.0103
  522SOL     MW 2088   2.899   2.546   2.241  0.3234 -0.3610  0.2816
  523SOL     OW 2089   0.836   1.521   2.147  0.3607 -0.1721 -0.0310
  523SOL    HW1 2090   0.833   1.575   2.070  0.9183 -0.0828 -0.2095
  523SOL    HW2 2091   0.895   1.452   2.113  4.4760  1.5339  0.3966
  523SOL     MW 2092   0.844   1.519   2.132  0.9773  0.0648  0.0019
  524SOL     OW 2093   0.586   2.340   2.974 -0.5584 -0.1477 -0.0838
  524SOL    HW1 2094   0.610   2.426   2.936 -0.9631  0.8576 -1.9922
  524SOL    HW2 2095   0.669   2.284   2.967  2.5264 -0.6310  0.4110
  524SOL     MW 2096   0.600   2.344   2.968 -0.2048 -0.0788 -0.2703
  525SOL     OW 2097   0.459   2.217   2.122  0.5977 -0.3423 -0.0461
  525SOL    HW1 2098   0.435   2.140   2.170  0.2970 -0.7913  4.8588
  525SOL    HW2 2099   0.512   2.186   2.045  0.4700 -0.3153  0.3275
  525SOL     MW 2100   0.463   2.203   2.118  0.5412 -0.3980  0.6503
  526SOL     OW 2101   0.713   2.165   1.981 -0.1953 -0.0940 -0.4319
  526SOL    HW1 2102   0.722   2.189   1.895 -0.6809 -0.6525  2.3589
  526SOL    HW2 2103   0.801   2.180   2.018 -1.8597 -1.6741 -2.2859
  526SOL     MW 2104   0.726   2.170   1.974 -0.4789 -0.3762 -0.3083
  527SOL     OW 2105   1.276   1.898   2.046  0.2252  0.1056  0.5254
  527SOL    HW1 2106   1.238   1.862   2.128 -0.2013 -2.6378 -1.0920
  527SOL    HW2 2107   1.318   1.833   1.995  1.3150  2.2284  2.1695
  527SOL     MW 2108   1.277   1.885   2.050  0.3128  0.0237  0.5289
  528SOL     OW 2109   0.668   2.911   2.939  0.1666  0.0404 -0.1329
  528SOL    HW1 2110   0.649   3.000   2.974  0.5263  0.7961 -2.9928
  528SOL    HW2 2111   0.654   2.926   2.848 -0.6527  2.5498 -0.0968
  528SOL     MW 2112   0.663   2.925   2.932  0.1060  0.4712 -0.5055
  529SOL     OW 2113   1.026   2.215   1.840 -1.1100  0.5304  0.1921
  529SOL    HW1 2114   1.067   2.244   1.922  1.9806 -1.0318 -0.0841
  529SOL    HW2 2115   1.030   2.289   1.779 -0.4984  2.6431  3.8253
  529SOL     MW 2116   1.032   2.228   1.843 -0.6215  0.6030  0.6350
  530SOL     OW 2117   1.138   2.419   3.005 -0.3622  0.0807  0.2164
  530SOL    HW1 2118   1.086   2.432   3.081  0.2646  0.8205 -3.5704
  530SOL    HW2 2119   1.154   2.327   2.992 -1.7515  1.8511  0.0057
  530SOL     MW 2120   1.133   2.409   3.013 -0.4628  0.4119 -0.3110
  531SOL     OW 2121   0.929   1.848   2.658 -0.4791  0.6619  0.0958
  531SOL    HW1 2122   0.968   1.898   2.729  2.1547 -1.6298 -0.2609
  531SOL    HW2 2123   0.848   1.817   2.687  1.1267 -1.1716  0.0098
  531SOL     MW 2124   0.923   1.850   2.671  0.0802  0.1177  0.0374
  532SOL     OW 2125   1.687   0.300   2.848  0.5226 -0.3678 -0.2912
  532SOL    HW1 2126   1.669   0.204   2.868 -1.0366 -2.3845  1.0632
  532SOL    HW2 2127   1.772   0.317   2.891 -0.1980 -0.1786  0.0493
  532SOL     MW 2128   1.696   0.289   2.856  0.2218 -0.6089 -0.0676
  533SOL     OW 2129   1.770   2.703   2.971 -0.2715  0.2496  0.6673
  533SOL    HW1 2130   1.741   2.622   3.026 -2.1631 -1.1336 -1.0633
  533SOL    HW2 2131   1.730   2.693   2.880  2.0221 -2.5480 -1.6544
  533SOL     MW 2132   1.761   2.691   2.966 -0.2185 -0.3020  0.1326
  534SOL     OW 2133   1.725   2.463   2.458 -0.0389 -0.3640 -0.8225
  534SOL    HW1 2134   1.648   2.418   2.492 -1.8670 -0.2148  1.1443
  534SOL    HW2 2135   1.782   2.450   2.536 -0.6392  1.2213 -0.6341
  534SOL     MW 2136   1.723   2.456   2.473 -0.3593 -0.1352 -0.5381
  535SOL     OW 2137   1.833   2.329   1.909  0.4058  0.0646  0.2864
  535SOL    HW1 2138   1.783   2.346   1.825  4.3323  1.2543 -0.0608
  535SOL    HW2 2139   1.923   2.342   1.889  0.1316 -2.3679  2.1698
  535SOL     MW 2140   1.838   2.333   1.895  0.8877 -0.0994  0.4891
  536SOL     OW 2141   0.453   1.821   2.013  0.0676 -0.2057  0.1212
  536SOL    HW1 2142   0.482   1.849   1.928  1.3848  0.8053  2.5744
  536SOL    HW2 2143   0.519   1.866   2.068  1.6669  2.5633 -0.7497
  536SOL     MW 2144   0.466   1.831   2.009  0.4524  0.2930  0.3300
  537SOL     OW 2145   1.079   0.211   2.923  0.0682  0.3450  0.0866
  537SOL    HW1 2146   1.007   0.198   2.990 -0.2862  0.1014 -2.7951
  537SOL    HW2 2147   1.089   0.308   2.903 -1.6450  4.0271  0.8224
  537SOL     MW 2148   1.071   0.222   2.929 -0.2046  0.7987 -0.1965
  538SOL     OW 2149   1.284   0.058   2.976  0.0920 -0.5040 -0.2215
  538SOL    HW1 2150   1.203   0.117   2.957 -0.6585 -0.3313  0.7690
  538SOL    HW2 2151   1.360   0.105   2.939  0.2308 -0.1739 -0.1260
  538SOL     MW 2152   1.283   0.072   2.969  0.0113 -0.4377 -0.0782
  539SOL     OW 2153   0.747   2.680   2.515  0.1575 -0.5416 -0.3488
  539SOL    HW1 2154   0.820   2.736   2.528 -1.3529 -1.4685 -1.9870
  539SOL    HW2 2155   0.769   2.592   2.500  1.9960 -0.7647  3.0177
  539SOL     MW 2156   0.759   2.676   2.514  0.2008 -0.6934 -0.1207
  540SOL     OW 2157   0.319   2.260   2.880  0.3053 -0.1385  0.3163
  540SOL    HW1 2158   0.409   2.261   2.903 -2.1587  1.4108  1.3965
  540SOL    HW2 2159   0.275   2.226   2.956 -0.6065 -0.0704  0.0266
  540SOL     MW 2160   0.325   2.256   2.893 -0.1401  0.0749  0.4206
  541SOL     OW 2161   0.156   2.853   2.221 -0.2506  0.2908 -0.1182
  541SOL    HW1 2162   0.140   2.779   2.164 -0.4663  0.9937 -1.2273
  541SOL    HW2 2163   0.176   2.808   2.302 -0.6017 -2.6115 -0.9933
  541SOL     MW 2164   0.156   2.838   2.224 -0.3254  0.0006 -0.3800
  542SOL     OW 2165   0.924   2.254   2.680  0.5022 -0.2931 -0.3927
  542SOL    HW1 2166   0.873   2.219   2.750 -0.6241 -4.4252  1.7493
  542SOL    HW2 2167   0.969   2.337   2.713 -0.3347  0.1560  0.8544
  542SOL     MW 2168   0.923   2.261   2.693  0.2432 -0.7790  0.0544
  543SOL     OW 2169   1.376   2.550   2.650 -0.4165  0.1877  0.1202
  543SOL    HW1 2170   1.387   2.465   2.597  0.5819 -0.6757 -1.2244
  543SOL    HW2 2171   1.465   2.574   2.680  1.1930 -1.6462 -0.6171
  543SOL     MW 2172   1.389   2.542   2.647 -0.0724 -0.1681 -0.1545
  544SOL     OW 2173   0.640   0.188   2.727 -0.6944  0.4396  0.5360
  544SOL    HW1 2174   0.549   0.198   2.730 -3.8528 -0.6762 -1.9595
  544SOL    HW2 2175   0.646   0.141   2.643  1.4545  1.1583 -1.6614
  544SOL     MW 2176   0.629   0.183   2.716 -0.8276  0.3872 -0.0832
  545SOL     OW 2177   1.537   2.146   2.324  0.3114 -0.2453 -0.9176
  545SOL    HW1 2178   1.497   2.172   2.239 -4.1425 -1.4520  2.8065
  545SOL    HW2 2179   1.626   2.121   2.299 -0.6012  0.6250  2.1887
  545SOL     MW 2180   1.543   2.146   2.309 -0.3966 -0.2897 -0.0164
  546SOL     OW 2181   3.008   1.989   0.098 -0.2051  0.3749  0.4825
  546SOL    HW1 2182   3.022   2.065   0.047  0.2165 -3.1457  1.2885
  546SOL    HW2 2183   3.093   1.952   0.113 -0.9595 -1.1258  0.1320
  546SOL     MW 2184   3.021   1.994   0.093 -0.2490 -0.2876  0.5426
  547SOL     OW 2185   0.174   3.016   0.110  0.7142  0.0937  0.8906
  547SOL    HW1 2186   0.235   3.085   0.081 -1.2841  0.6903 -3.3703
  547SOL    HW2 2187   0.222   2.931   0.102  0.0177 -2.2909  1.9193
  547SOL     MW 2188   0.188   3.014   0.105  0.3586 -0.1422  0.4642
  548SOL     OW 2189   0.299   2.496   0.270  0.3010  0.9127  0.0638
  548SOL    HW1 2190   0.267   2.565   0.208 -0.4241  1.7262  0.7024
  548SOL    HW2 2191   0.249   2.411   0.253  0.2416 -1.4963  0.2311
  548SOL     MW 2192   0.288   2.494   0.260  0.1975  0.7022  0.1701
  549SOL     OW 2193   0.705   1.909   2.099 -0.6640 -0.1106 -0.7476
  549SOL    HW1 2194   0.722   1.997   2.075  0.7942  0.5663 -1.5712
  549SOL    HW2 2195   0.743   1.895   2.181  0.8609 -0.2186 -2.6754
  549SOL     MW 2196   0.712   1.919   2.106 -0.2704 -0.0355 -1.1106
  550SOL     OW 2197   1.821   1.755   2.587  0.2581 -0.0407 -0.0194
  550SOL    HW1 2198   1.837   1.792   2.500 -2.1514  0.9210 -0.3719
  550SOL    HW2 2199   1.828   1.834   2.641  1.9428 -0.6220  0.5122
  550SOL     MW 2200   1.824   1.770   2.582  0.1625  0.0095  0.0042
  551SOL     OW 2201   0.858   2.337   0.209 -0.0145  0.0908  0.0697
  551SOL    HW1 2202   0.943   2.377   0.182  2.5620  0.2845 -0.4820
  551SOL    HW2 2203   0.878   2.240   0.207  1.5059 -0.9418 -1.9871
  551SOL     MW 2204   0.872   2.330   0.205  0.5260 -0.0199 -0.2745
  552SOL     OW 2205   1.783   1.818   2.288 -0.5212 -0.4725 -0.3912
  552SOL    HW1 2206   1.686   1.803   2.288 -3.7856  0.2984 -1.4631
  552SOL    HW2 2207   1.796   1.753   2.213 -0.5581  3.7327  1.0227
  552SOL     MW 2208   1.772   1.808   2.278 -0.9567  0.1840 -0.3461
  553SOL     OW 2209   1.223   2.321   1.531  0.7692 -0.3145 -0.3019
  553SOL    HW1 2210   1.253   2.232   1.528 -2.6011 -0.2384 -0.7060
  553SOL    HW2 2211   1.294   2.375   1.502 -1.2788 -0.2140 -2.2552
  553SOL     MW 2212   1.236   2.316   1.527  0.0543 -0.2912 -0.6129
  554SOL     OW 2213   0.566   2.849   2.669  0.1234  0.4093 -0.2464
  554SOL    HW1 2214   0.536   2.913   2.606  0.9010 -1.2702 -3.3878
  554SOL    HW2 2215   0.607   2.782   2.622 -1.2139 -0.3006 -0.7728
  554SOL     MW 2216   0.568   2.849   2.654  0.0496  0.0940 -0.7303
  555SOL     OW 2217   0.570   2.418   2.582 -0.2707  0.4238 -0.1833
  555SOL    HW1 2218   0.574   2.335   2.631  2.6709  3.4912 -0.9448
  555SOL    HW2 2219   0.650   2.396   2.527  4.0913  0.6376  0.5457
  555SOL     MW 2220   0.581   2.404   2.581  0.6929  0.8567 -0.1876
  556SOL     OW 2221   0.984   1.807   0.139 -0.1999 -0.0244  0.4687
  556SOL    HW1 2222   1.001   1.782   0.048 -2.3276 -1.1642  1.6106
  556SOL    HW2 2223   1.072   1.821   0.179  0.4747  0.8011 -1.0039
  556SOL     MW 2224   0.998   1.806   0.132 -0.3917 -0.0659  0.4251
  557SOL     OW 2225   0.899   2.685   0.451 -0.4471  0.8007  0.2840
  557SOL    HW1 2226   0.965   2.665   0.384  1.8412 -2.6189  1.1810
  557SOL    HW2 2227   0.880   2.775   0.431 -1.6135 -1.8561  0.8322
  557SOL     MW 2228   0.905   2.694   0.439 -0.2991 -0.0010  0.4747
  558SOL     OW 2229   0.268   2.184   0.019  0.1045  0.5255  0.1163
  558SOL    HW1 2230   0.244   2.092   0.051  2.3692 -1.5623  1.4078
  558SOL    HW2 2231   0.207   2.231   0.080 -2.2281 -1.5151  2.5714
  558SOL     MW 2232   0.256   2.178   0.031  0.0956 -0.0192  0.6106
  559SOL     OW 2233   1.190   2.327   2.100 -0.1123 -0.2031  0.8888
  559SOL    HW1 2234   1.154   2.410   2.110  1.0534 -0.3409 -2.2882
  559SOL    HW2 2235   1.181   2.288   2.185  1.1797  0.2652 -1.4187
  559SOL     MW 2236   1.184   2.333   2.113  0.2120 -0.1595  0.1651
  560SOL     OW 2237   1.999   2.796   0.028 -0.2914 -0.1418  0.6660
  560SOL    HW1 2238   2.049   2.851  -0.028 -0.7982 -1.7848  3.4650
  560SOL    HW2 2239   1.917   2.776  -0.018 -1.5913 -1.2221  0.1349
  560SOL     MW 2240   1.995   2.801   0.015 -0.5298 -0.5011  0.9652
  561SOL     OW 2241   0.440   2.081   0.218 -0.1047  0.0494  0.3210
  561SOL    HW1 2242   0.420   2.135   0.137 -0.1922  2.9003 -3.2848
  561SOL    HW2 2243   0.484   2.137   0.282  1.7958  0.3730  2.6676
  561SOL     MW 2244   0.443   2.095   0.216  0.1345  0.4682  0.1549
  562SOL     OW 2245   0.903   2.173   2.162  0.0750  0.4759  0.2496
  562SOL    HW1 2246   0.887   2.262   2.183 -0.5276 -1.9355  0.5465
  562SOL    HW2 2247   0.971   2.153   2.230 -1.8033  1.3283 -1.3276
  562SOL     MW 2248   0.910   2.182   2.173 -0.2523  0.2702  0.0807
  563SOL     OW 2249   1.225   0.275   0.569 -0.1243  0.9733  0.3361
  563SOL    HW1 2250   1.195   0.290   0.478  1.3859 -0.0638 -2.1091
  563SOL    HW2 2251   1.241   0.179   0.582  0.5049 -0.2004 -0.0185
  563SOL     MW 2252   1.223   0.264   0.559  0.1580  0.6816 -0.0333
  564SOL     OW 2253   1.082   2.559   2.382  0.7127  0.0616 -0.3360
  564SOL    HW1 2254   1.110   2.588   2.292 -0.6448 -1.6204 -2.2631
  564SOL    HW2 2255   1.125   2.609   2.453  1.7374 -0.5693  2.3057
  564SOL     MW 2256   1.091   2.569   2.379  0.6688 -0.2436 -0.2417
  565SOL     OW 2257   2.894   2.682   2.577 -0.4034  0.4719 -0.8275
  565SOL    HW1 2258   2.971   2.720   2.535  0.2215  0.2039  0.0304
  565SOL    HW2 2259   2.835   2.674   2.508  2.1163 -0.2599  4.1340
  565SOL     MW 2260   2.897   2.686   2.563  0.0115  0.3400 -0.0597
  566SOL     OW 2261   2.256   1.904   2.362  0.1873 -0.4091  0.3827
  566SOL    HW1 2262   2.269   1.908   2.265 -0.0600 -1.7502 -0.6462
  566SOL    HW2 2263   2.281   1.992   2.393 -0.2486  1.4357 -0.3406
  566SOL     MW 2264   2.261   1.916   2.353  0.0972 -0.3426  0.1515
  567SOL     OW 2265   1.166   2.871   0.046 -0.5010  0.3635  0.2957
  567SOL    HW1 2266   1.231   2.943   0.051 -2.1453 -0.0598 -0.6341
  567SOL    HW2 2267   1.155   2.851  -0.050  0.3408  0.7216 -0.4496
  567SOL     MW 2268   1.173   2.878   0.034 -0.6069  0.3549  0.0747
  568SOL     OW 2269   1.651   2.105   2.864 -0.1434 -0.3450  0.6223
  568SOL    HW1 2270   1.682   2.131   2.951 -0.0167 -2.6733  0.4403
  568SOL    HW2 2271   1.727   2.066   2.827  0.2193 -2.1256  4.5374
  568SOL     MW 2272   1.665   2.104   2.870 -0.0788 -0.8871  1.1148
  569SOL     OW 2273   0.219   2.182   2.427  0.1621  0.2166  0.3107
  569SOL    HW1 2274   0.158   2.238   2.377 -0.6502  0.5114 -1.3178
  569SOL    HW2 2275   0.226   2.236   2.508  0.5593  0.6282 -2.9820
  569SOL     MW 2276   0.212   2.197   2.431  0.1073  0.3098 -0.3386
  570SOL     OW 2277   1.440   0.411   0.518  0.0050  0.4829  0.4364
  570SOL    HW1 2278   1.373   0.354   0.562  0.9178  0.7345 -1.4120
  570SOL    HW2 2279   1.516   0.443   0.575  2.8792  0.3914 -1.3439
  570SOL     MW 2280   1.441   0.407   0.531  0.5047  0.5040 -0.0424
  571SOL     OW 2281   1.485   2.399   1.929 -0.0681 -0.1812  0.6187
  571SOL    HW1 2282   1.507   2.443   2.014  3.1694 -1.6773  1.1087
  571SOL    HW2 2283   1.473   2.307   1.952 -1.6373 -0.6076 -0.5535
  571SOL     MW 2284   1.486   2.393   1.943  0.1520 -0.4348  0.5287
  572SOL     OW 2285   0.937   2.658   0.064 -0.0366  0.5565  0.6973
  572SOL    HW1 2286   0.941   2.660  -0.031  0.6782  0.7361 -0.1466
  572SOL    HW2 2287   0.847   2.632   0.088  1.5660  0.7117  0.1062
  572SOL     MW 2288   0.926   2.655   0.055  0.2692  0.6007  0.5080
  573SOL     OW 2289   1.139   2.409   0.177  0.6920 -0.3843  0.3760
  573SOL    HW1 2290   1.213   2.394   0.128 -4.7908  1.6002 -0.5399
  573SOL    HW2 2291   1.156   2.494   0.217 -1.2298  1.3222  0.5082
  573SOL     MW 2292   1.151   2.419   0.176 -0.2850  0.1027  0.2726
  574SOL     OW 2293   1.116   2.658   0.291 -0.3841 -0.6726 -0.2301
  574SOL    HW1 2294   1.191   2.710   0.306  1.7870 -0.4149  1.2396
  574SOL    HW2 2295   1.076   2.691   0.209 -1.9691 -2.1693  2.2915
  574SOL     MW 2296   1.121   2.669   0.282 -0.3068 -0.8361  0.2965
  575SOL     OW 2297   3.065   2.280   1.819  0.3177 -0.2087 -0.5385
  575SOL    HW1 2298   3.064   2.189   1.778  0.1474  1.0104 -1.3025
  575SOL    HW2 2299   3.133   2.324   1.765  1.3356 -0.4747  0.2572
  575SOL     MW 2300   3.074   2.274   1.806  0.4295 -0.0830 -0.5343
  576SOL     OW 2301   2.820   1.831   2.054  0.1500  0.1515  0.0019
  576SOL    HW1 2302   2.820   1.912   2.007  4.3031 -2.3416 -2.9947
  576SOL    HW2 2303   2.744   1.801   2.007  0.1795  1.7569 -2.2498
  576SOL     MW 2304   2.810   1.838   2.042  0.7018  0.0344 -0.6906
  577SOL     OW 2305   2.080   0.312   0.046 -0.1138  0.2164 -0.3643
  577SOL    HW1 2306   2.028   0.355  -0.024 -0.4977  1.3210  1.0071
  577SOL    HW2 2307   2.002   0.280   0.101 -2.3613  1.2451  2.8971
  577SOL     MW 2308   2.063   0.313   0.044 -0.4610  0.4979  0.2469
  578SOL     OW 2309   2.032   2.036   2.420 -0.4922 -0.4272  0.3307
  578SOL    HW1 2310   1.970   2.067   2.347 -2.0242  0.2802 -0.1028
  578SOL    HW2 2311   2.107   1.991   2.375  1.2698 -0.0710  1.6261
  578SOL     MW 2312   2.033   2.034   2.404 -0.4619 -0.2869  0.4444
  579SOL     OW 2313   0.856   2.419   2.466 -0.2075  0.1463  0.4012
  579SOL    HW1 2314   0.877   2.352   2.535 -0.8334  2.6483  3.2569
  579SOL    HW2 2315   0.947   2.452   2.447  1.1633 -0.1878 -1.3493
  579SOL     MW 2316   0.871   2.415   2.473 -0.1092  0.4323  0.5470
  580SOL     OW 2317   0.869   2.983   0.010 -0.5451 -0.1541  0.0489
  580SOL    HW1 2318   0.934   2.916   0.032  2.2903 -3.4208  2.9002
  580SOL    HW2 2319   0.812   2.942  -0.059  0.7398  1.5760 -1.3063
  580SOL     MW 2320   0.870   2.969   0.004 -0.0015 -0.3569  0.2463
  581SOL     OW 2321   1.061   2.452   1.699 -0.2176 -0.8973  0.3595
  581SOL    HW1 2322   1.094   2.464   1.788 -0.1400  2.2207  0.2389
  581SOL    HW2 2323   1.124   2.404   1.647 -0.3410  1.5864  0.1936
  581SOL     MW 2324   1.074   2.447   1.704 -0.2236 -0.1582  0.3217
  582SOL     OW 2325   0.007   2.828   2.476 -0.4902 -0.3545  0.0274
  582SOL    HW1 2326  -0.013   2.900   2.541 -3.3962  0.3467  1.4349
  582SOL    HW2 2327   0.104   2.804   2.485 -1.9798 -2.4878  1.2309
  582SOL     MW 2328   0.017   2.834   2.486 -1.0701 -0.5435  0.3719
  583SOL     OW 2329   1.929   2.451   2.641  0.0482  0.0681 -0.0692
  583SOL    HW1 2330   1.980   2.457   2.561 -1.6912 -1.8799  0.2126
  583SOL    HW2 2331   1.956   2.371   2.685  1.3726 -1.4950  0.8587
  583SOL     MW 2332   1.939   2.441   2.636 -0.0065 -0.3952  0.0904
  584SOL     OW 2333   0.196   1.897   2.090  0.2969  0.4117 -0.0093
  584SOL    HW1 2334   0.277   1.849   2.082  1.7504  0.3018 -1.2208
  584SOL    HW2 2335   0.226   1.970   2.136 -0.0029 -1.2646 -0.9283
  584SOL     MW 2336   0.211   1.900   2.095  0.4491  0.1761 -0.2904
  585SOL     OW 2337   1.481   2.654   0.083  0.1993  0.5334 -0.0963
  585SOL    HW1 2338   1.411   2.640   0.025  1.5503  1.1621 -2.4159
  585SOL    HW2 2339   1.448   2.661   0.169 -1.3702 -0.8697  1.2240
  585SOL     MW 2340   1.468   2.653   0.087  0.1705  0.4312 -0.2281
  586SOL     OW 2341   1.286   2.903   2.397  0.8558 -1.6470 -0.1220
  586SOL    HW1 2342   1.368   2.873   2.357  0.0497  0.1264 -0.9606
  586SOL    HW2 2343   1.313   2.980   2.443  1.0309  0.9237  0.4246
  586SOL     MW 2344   1.300   2.909   2.398  0.7725 -1.0738 -0.1605
  587SOL     OW 2345   1.265   1.618   2.114  0.2139 -0.1166 -0.6489
  587SOL    HW1 2346   1.246   1.543   2.174 -0.0056  0.2576  1.4448
  587SOL    HW2 2347   1.247   1.588   2.026  3.1541 -1.7498  2.8410
  587SOL     MW 2348   1.260   1.604   2.110  0.5728 -0.2827  0.0878
  588SOL     OW 2349   1.414   2.159   2.739 -0.2469  0.0860  0.0380
  588SOL    HW1 2350   1.502   2.147   2.779  0.0375  0.7247  0.7372
  588SOL    HW2 2351   1.355   2.199   2.809  2.6585  2.4033 -1.0325
  588SOL     MW 2352   1.418   2.162   2.754  0.1740  0.4760 -0.0110
  589SOL     OW 2353   1.362   2.093   0.070  0.2532  0.1241 -0.0488
  589SOL    HW1 2354   1.366   2.186   0.102  1.4192 -0.1460 -0.4295
  589SOL    HW2 2355   1.301   2.044   0.126 -0.3693  1.5739 -0.3982
  589SOL     MW 2356   1.354   2.099   0.082  0.3249  0.2798 -0.1451
  590SOL     OW 2357   0.402   2.580   2.263  0.6639  0.0547 -0.3149
  590SOL    HW1 2358   0.368   2.600   2.175 -0.3512  1.8262  0.9642
  590SOL    HW2 2359   0.484   2.631   2.265 -0.5071  1.5267 -2.4794
  590SOL     MW 2360   0.408   2.589   2.252  0.3754  0.4826 -0.4317
  591SOL     OW 2361   2.293   0.710   0.025 -0.1440 -0.1826 -0.0546
  591SOL    HW1 2362   2.228   0.766  -0.020 -0.5299  1.3560  0.4091
  591SOL    HW2 2363   2.380   0.736  -0.011 -2.0679 -1.1590  0.9568
  591SOL     MW 2364   2.296   0.721   0.014 -0.4488 -0.1084  0.1400
  592SOL     OW 2365   1.872   3.039   0.814  0.2271  0.3670 -0.2079
  592SOL    HW1 2366   1.880   3.098   0.740  1.3342 -0.5899 -2.5657
  592SOL    HW2 2367   1.905   2.950   0.793 -0.7889 -1.6074  3.3645
  592SOL     MW 2368   1.878   3.035   0.801  0.2391 -0.0197 -0.0476
  593SOL     OW 2369   1.899   0.755   0.840 -0.4429  0.1334  0.3250
  593SOL    HW1 2370   1.807   0.751   0.809  0.9707 -0.9159 -0.0581
  593SOL    HW2 2371   1.928   0.671   0.879  0.2750 -1.9861 -0.3438
  593SOL     MW 2372   1.891   0.744   0.841 -0.1617 -0.2847  0.1862
  594SOL     OW 2373   2.730   1.130   1.406 -0.0579  0.0182  0.1302
  594SOL    HW1 2374   2.826   1.149   1.418 -1.0481  0.9944  2.2582
  594SOL    HW2 2375   2.729   1.098   1.318 -1.8224  1.0099  2.1311
  594SOL     MW 2376   2.743   1.128   1.396 -0.4214  0.2778  0.6750
  595SOL     OW 2377   0.463   0.949   0.670  0.8964  0.1130 -0.1863
  595SOL    HW1 2378   0.480   1.032   0.620  0.1062  1.6277 -0.0423
  595SOL    HW2 2379   0.477   0.972   0.766 -1.2092 -0.4707  0.6333
  595SOL     MW 2380   0.467   0.963   0.676  0.5143  0.2358 -0.0592
  596SOL     OW 2381   2.437   1.381   0.561  0.4801  0.2373 -0.0556
  596SOL    HW1 2382   2.478   1.450   0.512 -1.4987 -3.0835 -1.1313
  596SOL    HW2 2383   2.496   1.347   0.628  0.5191 -0.2164  0.8757
  596SOL     MW 2384   2.450   1.386   0.564  0.2242 -0.2607 -0.0746
  597SOL     OW 2385   2.192   0.679   1.691  0.3129 -0.0531 -0.4429
  597SOL    HW1 2386   2.239   0.599   1.726  0.0120  1.8985 -1.9071
  597SOL    HW2 2387   2.118   0.644   1.633  0.1579  0.7332 -1.5959
  597SOL     MW 2388   2.189   0.664   1.688  0.2528  0.3081 -0.7882
  598SOL     OW 2389   2.601   1.018   2.867  0.3985 -0.4453 -0.5424
  598SOL    HW1 2390   2.655   0.993   2.797  0.2079  2.1747  3.3164
  598SOL    HW2 2391   2.673   1.046   2.920  1.7307 -0.8133 -0.6791
  598SOL     MW 2392   2.618   1.018   2.864  0.5491 -0.1482 -0.0513
  599SOL     OW 2393   2.915   0.327   2.072 -0.4116  0.2947  0.2699
  599SOL    HW1 2394   2.878   0.365   2.157 -0.1238 -0.0027 -1.5016
  599SOL    HW2 2395   2.933   0.415   2.027 -1.2927  1.0284 -0.0227
  599SOL     MW 2396   2.912   0.343   2.077 -0.4899  0.3523 -0.0024
  600SOL     OW 2397   1.894   1.713   0.887  0.2601  0.0447 -0.2516
  600SOL    HW1 2398   1.902   1.741   0.977 -1.8779 -0.9420  0.0466
  600SOL    HW2 2399   1.812   1.753   0.857  0.0344  1.2437  0.1593
  600SOL     MW 2400   1.885   1.722   0.895 -0.0518  0.0727 -0.1581
  601SOL     OW 2401   2.512   0.806   0.824 -0.4914  0.3133 -0.0577
  601SOL    HW1 2402   2.504   0.825   0.919 -0.3772  0.0279 -1.2587
  601SOL    HW2 2403   2.486   0.711   0.812  1.8192 -0.8198 -1.7715
  601SOL     MW 2404   2.508   0.796   0.835 -0.1715  0.1261 -0.4422
  602SOL     OW 2405   2.322   1.936   0.758  0.0834  0.3978  1.2550
  602SOL    HW1 2406   2.268   1.869   0.810 -0.1547 -0.3052 -0.7238
  602SOL    HW2 2407   2.248   1.983   0.715  1.0462 -1.0382  3.0623
  602SOL     MW 2408   2.305   1.933   0.759  0.1790  0.1156  1.2323
  603SOL     OW 2409   3.077   1.377   1.791  0.1000 -0.3240 -0.1049
  603SOL    HW1 2410   3.132   1.420   1.859  1.8915  0.6670 -0.1172
  603SOL    HW2 2411   3.041   1.291   1.822  1.9277 -0.2933 -1.6197
  603SOL     MW 2412   3.080   1.371   1.804  0.5775 -0.1892 -0.3064
  604SOL     OW 2413   2.107   1.574   0.444 -0.2929 -0.0982 -0.2905
  604SOL    HW1 2414   2.151   1.523   0.506 -2.1526  0.8992  1.8491
  604SOL    HW2 2415   2.033   1.609   0.496  0.0367 -3.2608  1.2892
  604SOL     MW 2416   2.103   1.572   0.459 -0.4947 -0.3839  0.2002
  605SOL     OW 2417   2.708   1.553   0.834  0.2935 -0.2839 -0.7534
  605SOL    HW1 2418   2.641   1.621   0.849  1.0499  1.0861  1.6143
  605SOL    HW2 2419   2.652   1.480   0.803  1.9635 -0.4276  3.3615
  605SOL     MW 2420   2.691   1.552   0.832  0.6137 -0.1221  0.1019
  606SOL     OW 2421   2.569   1.785   1.844  0.0431  0.2834 -0.6760
  606SOL    HW1 2422   2.473   1.784   1.861  0.5373  1.3656 -0.3134
  606SOL    HW2 2423   2.591   1.692   1.823  0.8597 -1.7466  1.9937
  606SOL     MW 2424   2.559   1.773   1.843  0.2160  0.1583 -0.2759
  607SOL     OW 2425   2.353   1.017   2.958  0.6694 -0.4209  0.0271
  607SOL    HW1 2426   2.446   1.040   2.927 -1.2205 -1.4146  0.4265
  607SOL    HW2 2427   2.366   1.013   3.048  1.0838 -0.1213 -1.3246
  607SOL     MW 2428   2.367   1.020   2.966  0.4747 -0.5125 -0.0986
  608SOL     OW 2429   1.865   0.310   0.557 -0.7267 -1.0253  0.1669
  608SOL    HW1 2430   1.876   0.361   0.478  0.4047  0.7591  1.0902
  608SOL    HW2 2431   1.834   0.221   0.531  4.7851  0.3634  0.5991
  608SOL     MW 2432   1.862   0.305   0.543  0.1498 -0.6067  0.3457
  609SOL     OW 2433   2.135   1.958   3.071 -0.8995  0.1392 -0.0869
  609SOL    HW1 2434   2.062   1.896   3.050  1.1619 -2.1478  0.5459
  609SOL    HW2 2435   2.168   1.931   3.160  0.2159  0.8987 -1.3277
  609SOL     MW 2436   2.130   1.946   3.080 -0.4803 -0.0623 -0.1672
  610SOL     OW 2437   1.791   1.027   1.239 -1.1605 -0.4209 -0.1292
  610SOL    HW1 2438   1.786   0.943   1.189  1.0452 -1.3343 -0.5738
  610SOL    HW2 2439   1.708   1.020   1.279 -1.5529 -1.1786 -0.5888
  610SOL     MW 2440   1.779   1.015   1.238 -0.9212 -0.6414 -0.2485
  611SOL     OW 2441   2.442   1.676   0.750  0.4493  0.1491 -0.4385
  611SOL    HW1 2442   2.400   1.754   0.725 -0.6473 -1.3182 -0.4239
  611SOL    HW2 2443   2.480   1.658   0.664 -0.4689 -1.1820  1.0770
  611SOL     MW 2444   2.441   1.684   0.735  0.1834 -0.2201 -0.2366
  612SOL     OW 2445   2.780   2.847   0.443  0.0752 -0.2274 -0.0488
  612SOL    HW1 2446   2.835   2.881   0.516 -0.7491 -1.2151  0.2709
  612SOL    HW2 2447   2.845   2.836   0.372  0.8164  0.6441  0.8299
  612SOL     MW 2448   2.796   2.850   0.443  0.0642 -0.2428  0.1093
  613SOL     OW 2449   1.506   1.036   1.001 -0.4583 -0.0585 -0.5579
  613SOL    HW1 2450   1.522   1.129   1.016  2.1792 -0.0873 -0.7661
  613SOL    HW2 2451   1.558   0.995   1.069  1.8339 -2.0225  0.0785
  613SOL     MW 2452   1.515   1.042   1.012  0.1921 -0.3214 -0.5014
  614SOL     OW 2453   2.001   0.560   1.547 -0.7493  0.1628  0.3138
  614SOL    HW1 2454   2.005   0.469   1.578 -2.0400 -0.5946 -0.2407
  614SOL    HW2 2455   2.027   0.569   1.455 -0.9317 -0.8305 -0.9490
  614SOL     MW 2456   2.005   0.549   1.539 -0.9436 -0.0682  0.0740
  615SOL     OW 2457   2.248   0.809   0.277  0.9881 -0.6889  0.8216
  615SOL    HW1 2458   2.308   0.778   0.342 -0.2144  1.0285  0.4622
  615SOL    HW2 2459   2.277   0.776   0.195 -1.1505 -0.0949  0.0598
  615SOL     MW 2460   2.260   0.801   0.275  0.5473 -0.3839  0.6737
  616SOL     OW 2461   2.574   0.352   1.606 -0.3236  0.6275 -0.0384
  616SOL    HW1 2462   2.499   0.321   1.553 -1.5937 -1.7626  0.5913
  616SOL    HW2 2463   2.625   0.394   1.539  0.0886 -2.1121  0.7274
  616SOL     MW 2464   2.571   0.353   1.590 -0.4368 -0.0493  0.1457
  617SOL     OW 2465   2.844   0.541   1.682  0.6387 -0.4439  0.0400
  617SOL    HW1 2466   2.800   0.510   1.764 -0.9563  1.3683  2.4847
  617SOL    HW2 2467   2.849   0.458   1.632  0.4383 -1.7856  0.6206
  617SOL     MW 2468   2.839   0.526   1.686  0.4018 -0.3818  0.4392
  618SOL     OW 2469   2.684   0.357   1.956 -0.1851 -0.5835  0.5136
  618SOL    HW1 2470   2.694   0.456   1.954 -0.8806 -0.0304  1.6272
  618SOL    HW2 2471   2.765   0.328   2.004  0.6955  0.3777  0.9979
  618SOL     MW 2472   2.696   0.366   1.962 -0.1607 -0.3837  0.7244
  619SOL     OW 2473   2.631   0.728   0.141 -0.0319 -0.4268  0.0289
  619SOL    HW1 2474   2.702   0.793   0.139 -0.3629  0.5240  0.7401
  619SOL    HW2 2475   2.592   0.742   0.223  1.8305  1.0573 -3.4763
  619SOL     MW 2476   2.635   0.739   0.152  0.1701 -0.1056 -0.3397
  620SOL     OW 2477   2.332   1.064   0.993  0.2968 -0.2911  0.0543
  620SOL    HW1 2478   2.318   1.070   0.899  1.1392 -0.1819  0.8912
  620SOL    HW2 2479   2.287   0.984   1.013  0.0761  0.8654  0.5961
  620SOL     MW 2480   2.324   1.054   0.984  0.3788 -0.1241  0.2362
  621SOL     OW 2481   1.469   2.115   1.986  0.3251  0.9102  0.0224
  621SOL    HW1 2482   1.404   2.051   2.005 -0.0351 -2.4307  0.5130
  621SOL    HW2 2483   1.552   2.067   1.980  1.3795 -0.5896 -0.9872
  621SOL     MW 2484   1.471   2.100   1.988  0.4167  0.2715 -0.0461
  622SOL     OW 2485   2.659   0.180   0.258 -0.2891 -0.3433  0.2975
  622SOL    HW1 2486   2.749   0.212   0.233 -1.0672 -0.8759 -0.8814
  622SOL    HW2 2487   2.678   0.084   0.254 -1.3719 -0.6300  4.2343
  622SOL     MW 2488   2.673   0.171   0.254 -0.5346 -0.4514  0.6614
  623SOL     OW 2489   2.316   2.735   0.917 -0.5733 -0.3731 -0.7862
  623SOL    HW1 2490   2.383   2.807   0.905  0.9324  1.3665  0.2043
  623SOL    HW2 2491   2.255   2.775   0.985 -0.6759 -1.1742  0.8852
  623SOL     MW 2492   2.317   2.750   0.924 -0.3882 -0.2492 -0.4350
  624SOL     OW 2493   2.220   1.678   3.002  0.1892 -0.6643 -0.4377
  624SOL    HW1 2494   2.151   1.634   3.049  0.4803 -0.5093  1.1915
  624SOL    HW2 2495   2.201   1.773   3.014  2.6957 -1.2546 -0.8263
  624SOL     MW 2496   2.208   1.685   3.010  0.5583 -0.7217 -0.2740
  625SOL     OW 2497   2.177   1.989   1.110  0.7766  0.4148  0.6905
  625SOL    HW1 2498   2.258   1.947   1.138 -1.0223  0.7370 -0.9763
  625SOL    HW2 2499   2.193   2.049   1.037  1.1418  1.7980  0.1730
  625SOL     MW 2500   2.190   1.992   1.104  0.5874  0.6398  0.4023
  626SOL     OW 2501   0.176   1.638   2.326  0.5723  0.3024  0.6270
  626SOL    HW1 2502   0.166   1.547   2.319  1.3022 -0.7479 -2.4675
  626SOL    HW2 2503   0.097   1.673   2.360  0.5094 -1.6893 -1.6018
  626SOL     MW 2504   0.165   1.631   2.330  0.6603 -0.0990 -0.0754
  627SOL     OW 2505   2.508   0.822   2.627  0.0289  0.2151  0.0462
  627SOL    HW1 2506   2.446   0.897   2.616 -0.2998  1.4508  3.5700
  627SOL    HW2 2507   2.483   0.758   2.554 -0.6588 -0.5140 -0.9401
  627SOL     MW 2508   2.496   0.824   2.616 -0.1052  0.2820  0.3810
  628SOL     OW 2509   2.249   1.362   1.362 -0.1552  0.4134  0.0926
  628SOL    HW1 2510   2.214   1.302   1.302 -1.9732  1.0617 -0.6347
  628SOL    HW2 2511   2.342   1.342   1.368 -0.2915  1.6101 -2.4153
  628SOL     MW 2512   2.256   1.351   1.355 -0.4131  0.6568 -0.3343
  629SOL     OW 2513   1.993   0.556   1.249 -0.3891  0.4847 -0.2961
  629SOL    HW1 2514   2.036   0.640   1.225 -2.3679  2.1029  0.0902
  629SOL    HW2 2515   1.903   0.583   1.267 -0.4294  0.4428 -0.6221
  629SOL     MW 2516   1.987   0.571   1.249 -0.6555  0.6926 -0.2881
  630SOL     OW 2517   2.485   1.847   3.044 -0.2983 -0.3500  0.7733
  630SOL    HW1 2518   2.482   1.914   2.977 -1.6885 -0.2199  2.0071
  630SOL    HW2 2519   2.434   1.777   3.023 -1.3875  1.1127 -0.2604
  630SOL     MW 2520   2.478   1.847   3.032 -0.6254 -0.1398  0.7997
  631SOL     OW 2521   1.979   1.827   1.597  0.2735  0.5604 -0.4047
  631SOL    HW1 2522   1.989   1.736   1.625  1.5164  0.8796 -0.4779
  631SOL    HW2 2523   1.995   1.820   1.505  1.9171  1.0548 -0.2796
  631SOL     MW 2524   1.982   1.814   1.588  0.6543  0.6677 -0.3979
  632SOL     OW 2525   0.101   2.085   1.493 -0.2723 -0.4161  0.0147
  632SOL    HW1 2526   0.048   2.073   1.565 -0.3754  1.8659 -2.4718
  632SOL    HW2 2527   0.120   2.000   1.462  1.0699  1.3098 -0.7506
  632SOL     MW 2528   0.097   2.072   1.498 -0.1088  0.1127 -0.4144
  633SOL     OW 2529   2.478   0.684   0.387  0.4524 -0.0771 -0.5630
  633SOL    HW1 2530   2.560   0.675   0.437 -0.5607  0.3056  2.6429
  633SOL    HW2 2531   2.478   0.591   0.354  2.3788 -0.3416  0.7348
  633SOL     MW 2532   2.489   0.671   0.389  0.5729 -0.0615  0.0312
  634SOL     OW 2533   2.627   3.073   0.697  0.4843 -0.7531 -0.3292
  634SOL    HW1 2534   2.676   3.157   0.688  3.1870 -0.1573 -1.2093
  634SOL    HW2 2535   2.594   3.044   0.608 -2.6850 -0.5963 -1.9470
  634SOL     MW 2536   2.629   3.080   0.684  0.4227 -0.6538 -0.6588
  635SOL     OW 2537   2.592   0.126   1.839 -0.0273  0.0425 -0.2508
  635SOL    HW1 2538   2.669   0.081   1.796  1.4895 -1.8684  0.0305
  635SOL    HW2 2539   2.625   0.214   1.872  1.7566  0.4201 -1.9784
  635SOL     MW 2540   2.606   0.132   1.838  0.4082 -0.1598 -0.4416
  636SOL     OW 2541   2.913   1.755   0.996 -0.3266  0.3006  1.5954
  636SOL    HW1 2542   2.828   1.802   0.992 -0.5834  3.5068 -0.9531
  636SOL    HW2 2543   2.961   1.789   1.071  0.1797 -0.1843  0.9765
  636SOL     MW 2544   2.908   1.766   1.005 -0.2937  0.6596  1.1775
  637SOL     OW 2545   2.915   1.524   0.665 -0.7659  0.1742  0.2545
  637SOL    HW1 2546   2.958   1.612   0.662 -0.3602 -0.0626  1.5615
  637SOL    HW2 2547   2.843   1.536   0.726  0.3076 -1.8924  0.4283
  637SOL     MW 2548   2.911   1.537   0.673 -0.5707 -0.1297  0.4499
  638SOL     OW 2549   2.725   0.574   0.517  0.2494 -0.3196  0.5365
  638SOL    HW1 2550   2.808   0.590   0.464  0.0262 -0.4664 -0.7949
  638SOL    HW2 2551   2.763   0.565   0.609  2.0300 -0.2067  0.1588
  638SOL     MW 2552   2.741   0.575   0.522  0.4549 -0.3241  0.3110
  639SOL     OW 2553   1.775   0.070   0.507 -0.2521  0.3281  0.3431
  639SOL    HW1 2554   1.685   0.097   0.499 -0.2959  0.0935 -1.4710
  639SOL    HW2 2555   1.775  -0.013   0.460  3.0001 -0.8302  2.5079
  639SOL     MW 2556   1.763   0.063   0.500  0.1712  0.1443  0.3894
  640SOL     OW 2557   0.342   1.380   0.067  0.1496  0.3275 -0.3529
  640SOL    HW1 2558   0.368   1.368  -0.026 -2.1837 -1.1909 -0.5719
  640SOL    HW2 2559   0.310   1.294   0.094 -2.9190  0.7829  2.8000
  640SOL     MW 2560   0.341   1.367   0.058 -0.5631  0.1872  0.0342
  641SOL     OW 2561   2.203   0.452   0.386 -0.1064 -0.0202  0.1985
  641SOL    HW1 2562   2.248   0.462   0.305 -2.3219 -0.3401  1.3765
  641SOL    HW2 2563   2.266   0.411   0.441 -0.8093  2.6898  0.7722
  641SOL     MW 2564   2.217   0.448   0.383 -0.4915  0.2951  0.4296
  642SOL     OW 2565   0.040   3.097   0.582 -0.4619 -0.2366  0.5370
  642SOL    HW1 2566  -0.006   3.167   0.533 -0.7320  2.0920 -0.3634
  642SOL    HW2 2567  -0.038   3.059   0.617  1.5375  1.0453  0.8990
  642SOL     MW 2568   0.024   3.101   0.580 -0.2338  0.2397  0.4660
  643SOL     OW 2569   2.073   0.337   1.707  0.6305  0.3246  0.2127
  643SOL    HW1 2570   2.078   0.292   1.791 -1.0102  0.6593  0.8882
  643SOL    HW2 2571   2.104   0.280   1.633 -3.5051  1.1458 -3.1121
  643SOL     MW 2572   2.078   0.323   1.709 -0.1317  0.4771 -0.1369
  644SOL     OW 2573   2.721   1.944   1.072 -0.0324  0.1008 -0.2592
  644SOL    HW1 2574   2.694   1.899   1.151 -0.3076  2.4860  4.3065
  644SOL    HW2 2575   2.642   1.956   1.018  0.6932 -0.0930 -1.3803
  644SOL     MW 2576   2.707   1.940   1.075  0.0270  0.3899  0.1952
  645SOL     OW 2577   2.835   0.881   0.675  0.0912  0.0477  0.1193
  645SOL    HW1 2578   2.915   0.829   0.675 -1.9221  0.7106 -1.2100
  645SOL    HW2 2579   2.767   0.820   0.705  0.5180 -0.2900  2.0519
  645SOL     MW 2580   2.837   0.866   0.679 -0.1181  0.0906  0.1989
  646SOL     OW 2581   0.194   2.265   0.807 -0.5928  0.1941 -0.3458
  646SOL    HW1 2582   0.209   2.163   0.816 -1.8708 -2.3245 -1.0694
  646SOL    HW2 2583   0.106   2.258   0.758  0.1227  1.4262 -0.0919
  646SOL     MW 2584   0.184   2.251   0.802 -0.6671  0.0244 -0.4078
  647SOL     OW 2585   2.715   0.502   2.985  0.1763 -0.4137 -0.1050
  647SOL    HW1 2586   2.669   0.446   3.051  1.2494  1.0859 -0.6532
  647SOL    HW2 2587   2.661   0.586   2.983 -1.1680  3.6904  0.9321
  647SOL     MW 2588   2.702   0.506   2.993  0.1405  0.3256 -0.0405
  648SOL     OW 2589   2.134   0.749   1.126 -0.1491 -0.0178 -0.3740
  648SOL    HW1 2590   2.150   0.769   1.031 -1.6793 -0.5623 -0.8606
  648SOL    HW2 2591   2.185   0.810   1.173 -0.5274  1.6931 -0.7057
  648SOL     MW 2592   2.143   0.760   1.120 -0.4009  0.1361 -0.4820
  649SOL     OW 2593   2.369   2.776   1.278 -0.6487  0.2758  0.2309
  649SOL    HW1 2594   2.449   2.830   1.287  0.2282  0.3669 -0.1866
  649SOL    HW2 2595   2.398   2.689   1.256 -1.7382 -0.3784  2.3537
  649SOL     MW 2596   2.383   2.772   1.276 -0.6767  0.2015  0.4559
  650SOL     OW 2597   2.828   0.187   0.670 -0.0660 -0.2181  0.2511
  650SOL    HW1 2598   2.884   0.253   0.707  0.2577  0.2320 -3.3503
  650SOL    HW2 2599   2.860   0.183   0.576  0.8077 -1.8753 -0.7162
  650SOL     MW 2600   2.840   0.195   0.663  0.0920 -0.3774 -0.3517
  651SOL     OW 2601   2.983   0.405   0.795 -0.0760  0.0887 -0.3891
  651SOL    HW1 2602   3.051   0.445   0.738 -1.0748 -0.6362  0.3089
  651SOL    HW2 2603   2.951   0.475   0.854  2.9811  0.4690  0.5486
  651SOL     MW 2604   2.988   0.420   0.796  0.1956  0.0432 -0.1733
  652SOL     OW 2605   2.393   1.489   3.025  0.5007  0.9209  0.3200
  652SOL    HW1 2606   2.453   1.502   2.957  0.0209 -1.1484 -1.1290
  652SOL    HW2 2607   2.327   1.563   3.004 -0.7003 -0.5084 -0.1382
  652SOL     MW 2608   2.392   1.501   3.013  0.2790  0.4593  0.0684
  653SOL     OW 2609   1.911   0.438   0.334  0.4711 -0.0276  0.1222
  653SOL    HW1 2610   1.872   0.372   0.270 -1.7484  1.3558 -2.1364
  653SOL    HW2 2611   2.007   0.434   0.338 -0.8628  2.0663 -3.9544
  653SOL     MW 2612   1.918   0.429   0.326  0.0022  0.4312 -0.7137
  654SOL     OW 2613   2.458   1.058   0.702  0.1719  0.6019  0.1343
  654SOL    HW1 2614   2.370   1.056   0.661  2.4836  2.4637 -2.6612
  654SOL    HW2 2615   2.471   0.972   0.746 -0.4968 -1.9727 -1.6623
  654SOL     MW 2616   2.448   1.046   0.703  0.3886  0.5078 -0.4716
  655SOL     OW 2617   2.992   0.924   0.385 -0.5116 -0.1769 -0.1896
  655SOL    HW1 2618   2.915   0.950   0.441  1.2128 -0.0541  2.8443
  655SOL    HW2 2619   3.001   0.826   0.403 -2.5460 -1.5592 -0.2869
  655SOL     MW 2620   2.983   0.915   0.395 -0.5525 -0.3431  0.1979
  656SOL     OW 2621   1.973   2.675   1.205  0.1534  0.1485 -0.2071
  656SOL    HW1 2622   1.933   2.758   1.238 -1.1546  0.8769  2.7840
  656SOL    HW2 2623   2.019   2.636   1.277  0.5310  2.6679  0.7064
  656SOL     MW 2624   1.974   2.681   1.219  0.0307  0.5770  0.3081
  657SOL     OW 2625   0.194   1.581   1.270  0.0564  0.1669  0.1517
  657SOL    HW1 2626   0.127   1.625   1.213 -1.3679 -1.3768 -0.2925
  657SOL    HW2 2627   0.198   1.490   1.240 -1.2216 -0.6851  2.4078
  657SOL     MW 2628   0.186   1.575   1.259 -0.3001 -0.1492  0.3908
  658SOL     OW 2629   2.687   1.360   0.196 -0.2084 -0.7298 -0.4032
  658SOL    HW1 2630   2.612   1.319   0.248 -2.2024 -0.6158 -3.8607
  658SOL    HW2 2631   2.746   1.409   0.262 -0.1052  1.0684  1.1095
  658SOL     MW 2632   2.685   1.361   0.212 -0.4579 -0.4775 -0.6598
  659SOL     OW 2633   2.295   1.532   1.033  0.6061 -0.2951 -0.1035
  659SOL    HW1 2634   2.379   1.493   1.066 -4.8521  2.9448  2.2704
  659SOL    HW2 2635   2.255   1.576   1.108 -1.2542 -0.8613 -2.3937
  659SOL     MW 2636   2.301   1.532   1.047 -0.3595  0.0577 -0.0925
  660SOL     OW 2637   2.033   1.574   1.693 -0.0847 -0.3542  0.3096
  660SOL    HW1 2638   2.041   1.571   1.793 -0.2587 -0.0930 -0.3476
  660SOL    HW2 2639   2.003   1.490   1.663  0.4091  1.7299 -0.4704
  660SOL     MW 2640   2.030   1.563   1.702 -0.0425 -0.0448  0.1200
  661SOL     OW 2641   2.376   1.063   0.213 -0.3128 -1.0129  0.6688
  661SOL    HW1 2642   2.446   1.091   0.279  0.2490 -0.1285  3.0338
  661SOL    HW2 2643   2.334   0.977   0.237 -0.5000 -0.3873 -1.9855
  661SOL     MW 2644   2.379   1.055   0.225 -0.2634 -0.8137  0.6306
  662SOL     OW 2645   2.506   2.927   0.891  0.5725 -0.1162  0.1547
  662SOL    HW1 2646   2.467   3.007   0.928 -0.1874 -2.0064 -1.7998
  662SOL    HW2 2647   2.558   2.966   0.821  0.4013  0.8741  0.1449
  662SOL     MW 2648   2.508   2.943   0.887  0.4497 -0.2349 -0.1044
  663SOL     OW 2649   2.846   1.509   0.364  0.3803 -0.8074 -0.2805
  663SOL    HW1 2650   2.890   1.574   0.314 -2.5010 -0.5459 -0.7491
  663SOL    HW2 2651   2.851   1.545   0.457 -1.3752  2.7355  1.4503
  663SOL     MW 2652   2.852   1.522   0.370 -0.2314 -0.3054 -0.1139
  664SOL     OW 2653   2.464   1.557   1.570  0.1420 -0.0268  0.1375
  664SOL    HW1 2654   2.452   1.653   1.550  1.4272 -1.9559 -0.2820
  664SOL    HW2 2655   2.379   1.523   1.597  0.0370  0.0745 -2.2413
  664SOL     MW 2656   2.451   1.566   1.571  0.2977 -0.2680 -0.2317
  665SOL     OW 2657   2.844   0.801   2.074  0.0615 -0.0790 -0.3869
  665SOL    HW1 2658   2.838   0.844   1.989  1.4883  0.2595 -1.4511
  665SOL    HW2 2659   2.903   0.736   2.046 -1.1889  3.7469 -0.8376
  665SOL     MW 2660   2.851   0.798   2.059  0.0848  0.4704 -0.5868
  666SOL     OW 2661   2.749   3.042   1.680 -0.5575 -0.3689 -0.0379
  666SOL    HW1 2662   2.781   2.999   1.601  0.5530  0.7686 -0.9968
  666SOL    HW2 2663   2.713   2.967   1.737 -1.5700  0.2705  1.0531
  666SOL     MW 2664   2.748   3.027   1.677 -0.5446 -0.1344 -0.0205
  667SOL     OW 2665   1.987   2.686   1.665  0.2273 -0.4411  0.4811
  667SOL    HW1 2666   2.020   2.612   1.720 -1.4224  0.5676  0.6705
  667SOL    HW2 2667   2.059   2.749   1.673 -1.2982 -1.0361 -1.1360
  667SOL     MW 2668   2.001   2.684   1.673 -0.1916 -0.3865  0.2927
  668SOL     OW 2669   2.741   0.633   0.804 -0.8490 -0.3930 -0.6312
  668SOL    HW1 2670   2.813   0.652   0.870  1.9893 -0.5297  0.8498
  668SOL    HW2 2671   2.664   0.695   0.822  1.0468  0.7732 -0.0333
  668SOL     MW 2672   2.740   0.644   0.815 -0.2244 -0.2572 -0.3569
  669SOL     OW 2673   0.186   0.946   0.660 -0.7647  0.4449  0.1874
  669SOL    HW1 2674   0.158   1.014   0.715  0.5904 -0.4142  1.0602
  669SOL    HW2 2675   0.282   0.971   0.662  2.9668 -2.5962 -3.6250
  669SOL     MW 2676   0.195   0.958   0.668 -0.0936 -0.0697 -0.2005
  670SOL     OW 2677   2.883   0.296   0.202 -0.1041  0.5045  0.2237
  670SOL    HW1 2678   2.921   0.244   0.125  1.8279 -0.1486 -0.4091
  670SOL    HW2 2679   2.903   0.386   0.176 -2.3469  0.8888 -0.7182
  670SOL     MW 2680   2.891   0.301   0.188 -0.1451  0.4690  0.0159
  671SOL     OW 2681   2.140   3.025   1.560 -0.5320  0.2919 -0.8457
  671SOL    HW1 2682   2.086   3.021   1.481 -0.3644  1.3350  3.0398
  671SOL    HW2 2683   2.137   3.116   1.589 -0.5462 -1.7715 -1.9337
  671SOL     MW 2684   2.132   3.037   1.554 -0.5117  0.1573 -0.4766
  672SOL     OW 2685   1.846   1.690   1.317 -0.0358 -0.1979  0.2197
  672SOL    HW1 2686   1.784   1.742   1.374 -0.7778 -0.7372 -2.7184
  672SOL    HW2 2687   1.865   1.759   1.248 -1.5767 -1.4174 -1.5901
  672SOL     MW 2688   1.840   1.706   1.315 -0.3370 -0.4300 -0.4068
  673SOL     OW 2689   2.787   1.104   0.495  0.0651 -0.2869  0.2245
  673SOL    HW1 2690   2.779   1.029   0.551 -0.1744 -0.2577  1.0031
  673SOL    HW2 2691   2.821   1.176   0.553  0.6066  1.2993  1.5077
  673SOL     MW 2692   2.790   1.104   0.510  0.1050 -0.0737  0.4966
  674SOL     OW 2693   2.515   0.115   1.211 -0.0133 -0.3955 -0.0490
  674SOL    HW1 2694   2.478   0.089   1.126 -2.4719  2.5385 -0.3267
  674SOL    HW2 2695   2.538   0.032   1.254 -0.0711  2.6436 -0.3888
  674SOL     MW 2696   2.513   0.101   1.205 -0.3453  0.3926 -0.1305
  675SOL     OW 2697   3.020   0.942   1.102 -0.3040 -0.6445  0.2563
  675SOL    HW1 2698   3.077   0.937   1.178 -0.3241  2.3957 -1.3242
  675SOL    HW2 2699   3.072   0.966   1.025  0.6642  0.1231  0.0778
  675SOL     MW 2700   3.035   0.945   1.102 -0.1789 -0.1421  0.0242
  676SOL     OW 2701   2.890   1.509   1.631  0.0054  0.0396  0.1521
  676SOL    HW1 2702   2.835   1.437   1.594  2.6446  0.1930  2.9162
  676SOL    HW2 2703   2.946   1.469   1.693 -0.1343  1.4737 -2.2217
  676SOL     MW 2704   2.890   1.494   1.634  0.3352  0.2491  0.2036
  677SOL     OW 2705   2.452   0.729   1.922 -0.2346 -0.3663  0.7247
  677SOL    HW1 2706   2.413   0.651   1.881  1.5273  1.6787  0.6922
  677SOL    HW2 2707   2.383   0.764   1.967  1.3737 -1.0034 -1.5214
  677SOL     MW 2708   2.438   0.723   1.922  0.2100 -0.1805  0.4240
  678SOL     OW 2709   2.537   1.600   0.404 -0.6082  0.9261 -0.5323
  678SOL    HW1 2710   2.473   1.676   0.412  1.6683 -0.1531 -2.1064
  678SOL    HW2 2711   2.549   1.596   0.311  2.1152 -1.2970 -1.2279
  678SOL     MW 2712   2.530   1.610   0.393  0.0515  0.4904 -0.8317
  679SOL     OW 2713   2.308   0.503   1.155 -0.6295  0.1891  0.6521
  679SOL    HW1 2714   2.246   0.430   1.178  0.3065 -2.0666 -1.5864
  679SOL    HW2 2715   2.256   0.581   1.133  0.6815 -0.1174  0.0015
  679SOL     MW 2716   2.293   0.503   1.155 -0.3330 -0.1490  0.2709
  680SOL     OW 2717   2.383   0.251   1.404 -0.4338 -0.3274 -0.3617
  680SOL    HW1 2718   2.308   0.204   1.402  1.2883  0.6089 -4.2287
  680SOL    HW2 2719   2.427   0.213   1.322 -2.9040 -1.6730 -0.1847
  680SOL     MW 2720   2.379   0.240   1.393 -0.5325 -0.3814 -0.8485
  681SOL     OW 2721   0.344   0.589   1.550  0.7027  0.4882  0.0381
  681SOL    HW1 2722   0.293   0.517   1.592 -1.0159 -2.6194 -2.6348
  681SOL    HW2 2723   0.441   0.564   1.552  1.4217  0.0873 -2.7182
  681SOL     MW 2724   0.350   0.576   1.556  0.5708  0.0253 -0.6782
  682SOL     OW 2725   0.131   2.946   1.467  0.2784 -0.0296 -0.3133
  682SOL    HW1 2726   0.120   3.040   1.459 -1.5832  2.2351 -2.6795
  682SOL    HW2 2727   0.080   2.932   1.545  3.5041 -2.1755  0.9452
  682SOL     MW 2728   0.123   2.956   1.476  0.4584 -0.0139 -0.4595
  683SOL     OW 2729   2.077   0.861   3.039 -0.2032  0.5073 -0.1398
  683SOL    HW1 2730   2.001   0.839   2.982  0.0217  0.5324  0.9675
  683SOL    HW2 2731   2.064   0.948   3.083  1.4496  0.8138  3.3149
  683SOL     MW 2732   2.065   0.870   3.037  0.0445  0.5511  0.4621
  684SOL     OW 2733   2.199   1.769   0.907 -0.0346  0.5454  0.1188
  684SOL    HW1 2734   2.108   1.737   0.896 -2.0248 -2.8448 -1.5778
  684SOL    HW2 2735   2.253   1.690   0.918 -0.0314 -1.1185  0.0302
  684SOL     MW 2736   2.194   1.755   0.907 -0.2967 -0.1215 -0.1167
  685SOL     OW 2737   2.624   1.744   1.245  0.2954  0.0598 -0.4573
  685SOL    HW1 2738   2.671   1.743   1.327  2.3762  1.8494 -1.4232
  685SOL    HW2 2739   2.615   1.650   1.216  2.0222 -0.5421 -1.3320
  685SOL     MW 2740   2.629   1.731   1.252  0.7978  0.2165 -0.7002
  686SOL     OW 2741   2.865   0.709   1.459  0.4405  0.5117  0.0829
  686SOL    HW1 2742   2.876   0.679   1.554  0.2380  0.6137  0.4866
  686SOL    HW2 2743   2.925   0.664   1.406 -1.3238 -1.2345 -2.4580
  686SOL     MW 2744   2.874   0.699   1.465  0.1810  0.2948 -0.1991
  687SOL     OW 2745   2.153   0.291   1.214  0.2149 -0.2423 -0.5508
  687SOL    HW1 2746   2.135   0.254   1.123 -3.2027  1.7704  0.0824
  687SOL    HW2 2747   2.070   0.340   1.230 -1.7273 -0.3186  1.7493
  687SOL     MW 2748   2.140   0.292   1.204 -0.4923  0.0132 -0.1638
  688SOL     OW 2749   2.365   0.615   1.477 -0.1376  0.4020 -0.0050
  688SOL    HW1 2750   2.324   0.536   1.444 -0.2687  1.4488  0.0552
  688SOL    HW2 2751   2.318   0.645   1.555 -2.9131 -0.4004  1.3110
  688SOL     MW 2752   2.353   0.608   1.483 -0.5211  0.4343  0.1766
  689SOL     OW 2753   2.551   0.741   2.990 -0.0399 -0.2074  0.5029
  689SOL    HW1 2754   2.568   0.828   2.951 -1.4929 -1.2941 -1.6595
  689SOL    HW2 2755   2.583   0.731   3.087 -0.4185  2.2529 -0.4008
  689SOL     MW 2756   2.557   0.751   2.997 -0.2815 -0.0262  0.0983
  690SOL     OW 2757   2.118   0.949   1.905  0.1203 -0.3120  0.0762
  690SOL    HW1 2758   2.046   0.893   1.927 -0.1829  0.8189 -1.4874
  690SOL    HW2 2759   2.142   0.941   1.811  0.0124  0.3877 -0.8116
  690SOL     MW 2760   2.112   0.941   1.895  0.0661 -0.0705 -0.2472
  691SOL     OW 2761   2.439   0.274   0.831  0.2332 -0.1046 -0.3992
  691SOL    HW1 2762   2.517   0.314   0.882 -0.6562 -0.5098 -0.1754
  691SOL    HW2 2763   2.361   0.320   0.860 -1.3305  1.9808  1.6176
  691SOL     MW 2764   2.439   0.285   0.841 -0.0905  0.1171 -0.1036
  692SOL     OW 2765   2.817   1.706   1.460  0.4267 -1.1645  0.3469
  692SOL    HW1 2766   2.850   1.654   1.525  0.8829  1.3361  3.0667
  692SOL    HW2 2767   2.817   1.796   1.486 -2.8571  0.1270  0.8744
  692SOL     MW 2768   2.821   1.711   1.472  0.0536 -0.6642  0.7753
  693SOL     OW 2769   2.333   0.439   0.117 -0.1220 -0.0091  0.0479
  693SOL    HW1 2770   2.264   0.380   0.099 -0.3277 -1.9968 -0.7848
  693SOL    HW2 2771   2.322   0.507   0.052  1.9828 -2.2896  1.6416
  693SOL     MW 2772   2.322   0.441   0.106  0.1286 -0.5722  0.1483
  694SOL     OW 2773   1.937   1.287   1.091 -0.0975 -0.4393  0.4008
  694SOL    HW1 2774   2.010   1.235   1.124 -0.9551 -0.0272  1.2212
  694SOL    HW2 2775   1.865   1.227   1.093 -0.1122 -0.4692 -2.3996
  694SOL     MW 2776   1.937   1.272   1.096 -0.2126 -0.3889  0.1396
  695SOL     OW 2777   2.970   1.439   1.303  0.2720 -0.1948 -0.1756
  695SOL    HW1 2778   2.965   1.482   1.220 -0.4493  0.1388 -0.8529
  695SOL    HW2 2779   2.955   1.513   1.361  0.7239  1.6584 -0.3852
  695SOL     MW 2780   2.968   1.454   1.299  0.2364  0.0937 -0.2926
  696SOL     OW 2781   2.100   1.394   0.896 -0.1646 -0.0272  0.0216
  696SOL    HW1 2782   2.187   1.425   0.928  2.0357  0.2371  1.3720
  696SOL    HW2 2783   2.052   1.349   0.969 -1.6101  0.2873 -0.2627
  696SOL     MW 2784   2.105   1.392   0.910 -0.0650  0.0492  0.1623
  697SOL     OW 2785   2.924   1.100   2.142 -0.3637  0.3618 -0.4675
  697SOL    HW1 2786   2.875   1.180   2.158 -2.4004  1.5816  1.6802
  697SOL    HW2 2787   2.864   1.029   2.122  0.5826 -3.9790 -1.6680
  697SOL     MW 2788   2.910   1.101   2.141 -0.5076 -0.0500 -0.3426
  698SOL     OW 2789   2.567   0.286   0.017  0.0146  0.3277 -0.3027
  698SOL    HW1 2790   2.496   0.336   0.049 -0.3159 -2.0240 -2.5289
  698SOL    HW2 2791   2.614   0.248   0.102  3.3542 -0.4003 -0.0950
  698SOL     MW 2792   2.564   0.288   0.033  0.4116 -0.0786 -0.5690
  699SOL     OW 2793   1.835   1.645   2.058 -0.6199 -0.1981  0.0035
  699SOL    HW1 2794   1.806   1.552   2.048 -2.2557  0.8069 -0.8685
  699SOL    HW2 2795   1.927   1.645   2.022 -0.3401  1.1734  1.5438
  699SOL     MW 2796   1.843   1.632   2.052 -0.7988  0.1154  0.0917
  700SOL     OW 2797   2.730   0.908   1.572  0.5222  0.2765  0.3298
  700SOL    HW1 2798   2.743   0.978   1.504 -1.1834 -0.1183 -0.7444
  700SOL    HW2 2799   2.791   0.834   1.555 -3.5503 -0.4205  1.0108
  700SOL     MW 2800   2.740   0.907   1.561 -0.2402  0.1324  0.2779
  701SOL     OW 2801   1.655   1.282   2.584 -0.7150  0.1177 -0.7076
  701SOL    HW1 2802   1.747   1.302   2.599 -2.7740 -2.5272 -1.4735
  701SOL    HW2 2803   1.608   1.334   2.655  0.5977 -2.0352  2.1602
  701SOL     MW 2804   1.661   1.292   2.596 -0.8134 -0.5153 -0.4303
  702SOL     OW 2805   2.186   0.397   0.839 -0.2474 -0.1729  0.4439
  702SOL    HW1 2806   2.132   0.333   0.794 -0.4763 -0.8951  1.9697
  702SOL    HW2 2807   2.236   0.460   0.786  0.5173 -0.8673  0.7832
  702SOL     MW 2808   2.186   0.397   0.826 -0.1767 -0.3598  0.6900
  703SOL     OW 2809   2.677   1.289   1.014  0.1677  0.0384  0.7928
  703SOL    HW1 2810   2.631   1.268   0.933  1.7972 -3.9772 -1.6207
  703SOL    HW2 2811   2.693   1.195   1.043  0.5516 -1.3491  1.7393
  703SOL     MW 2812   2.673   1.274   1.007  0.4334 -0.6745  0.5992
  704SOL     OW 2813   3.092   1.327   0.287 -0.4199 -0.4260 -0.1843
  704SOL    HW1 2814   3.022   1.269   0.255  1.0416  0.6669 -2.1919
  704SOL    HW2 2815   3.106   1.297   0.381  1.5439  2.8010  3.8541
  704SOL     MW 2816   3.085   1.315   0.295  0.0320  0.1440  0.0837
  705SOL     OW 2817   2.171   1.613   1.260  0.3447 -0.5512  0.6267
  705SOL    HW1 2818   2.078   1.599   1.230  6.0751  0.8014  1.7093
  705SOL    HW2 2819   2.200   1.533   1.301  0.9644 -0.8211 -1.0230
  705SOL     MW 2820   2.162   1.601   1.261  1.1825 -0.4083  0.5518
  706SOL     OW 2821   2.960   1.256   0.675 -0.4640 -0.7950  0.8446
  706SOL    HW1 2822   3.043   1.250   0.641 -0.0956  0.4260  1.3376
  706SOL    HW2 2823   2.945   1.353   0.675 -1.1821  0.1750  0.5669
  706SOL     MW 2824   2.969   1.268   0.671 -0.5101 -0.5059  0.8730
  707SOL     OW 2825   2.384   0.049   0.982  0.0120  0.2777  0.2587
  707SOL    HW1 2826   2.407   0.135   0.933 -0.8753  0.5867  0.3037
  707SOL    HW2 2827   2.289   0.061   0.987  0.2373 -0.0078  0.1901
  707SOL     MW 2828   2.375   0.062   0.976 -0.0753  0.2808  0.2556
  708SOL     OW 2829   2.542   1.584   0.131  0.0574 -0.1632  0.5466
  708SOL    HW1 2830   2.603   1.510   0.156 -1.1837 -0.9722  1.9504
  708SOL    HW2 2831   2.491   1.553   0.057 -0.6408 -1.2001 -1.9256
  708SOL     MW 2832   2.543   1.571   0.125 -0.1985 -0.4067  0.4056
  709SOL     OW 2833   1.714   1.744   0.130  0.3807 -0.4210  0.6501
  709SOL    HW1 2834   1.668   1.741   0.043 -0.1945 -0.4426 -1.2333
  709SOL    HW2 2835   1.664   1.714   0.201 -0.3515 -1.1138 -2.3938
  709SOL     MW 2836   1.702   1.740   0.128  0.2082 -0.5153  0.0000
  710SOL     OW 2837   2.135   1.145   1.191 -0.5775 -0.0084  0.1484
  710SOL    HW1 2838   2.218   1.135   1.139  0.0973 -0.7417  0.1484
  710SOL    HW2 2839   2.133   1.068   1.250  2.8565  1.9807  0.2141
  710SOL     MW 2840   2.146   1.133   1.192 -0.0354  0.1573  0.1571
  711SOL     OW 2841   2.320   0.119   1.742  0.2518  0.0976  0.8385
  711SOL    HW1 2842   2.410   0.118   1.784 -2.8417  0.9630 -1.8210
  711SOL    HW2 2843   2.352   0.096   1.657 -0.1609 -0.6739  0.3151
  711SOL     MW 2844   2.336   0.116   1.736 -0.2108  0.1100  0.4185
  712SOL     OW 2845   1.757   0.614   3.075  1.1442  0.1774 -0.6561
  712SOL    HW1 2846   1.781   0.671   3.001  3.9328 -0.0668  1.3311
  712SOL    HW2 2847   1.809   0.639   3.147  3.1469 -1.9144  2.4214
  712SOL     MW 2848   1.767   0.625   3.075  1.7764 -0.1308  0.0121
  713SOL     OW 2849   2.590   0.802   1.088  0.0840  0.9349 -0.0699
  713SOL    HW1 2850   2.609   0.705   1.095  0.7798 -2.4171 -3.1716
  713SOL    HW2 2851   2.570   0.829   1.177  2.7136  1.1201 -0.6325
  713SOL     MW 2852   2.590   0.793   1.101  0.5227  0.5171 -0.5534
  714SOL     OW 2853   2.157   0.210   1.948 -0.4022  0.3068  0.0616
  714SOL    HW1 2854   2.197   0.196   2.034 -0.4006  0.8581 -0.2045
  714SOL    HW2 2855   2.228   0.186   1.876  0.0714 -0.4721 -2.2305
  714SOL     MW 2856   2.172   0.205   1.950 -0.3395  0.2768 -0.2759
  715SOL     OW 2857   1.757   1.908   1.721 -0.2533  0.5135  0.8109
  715SOL    HW1 2858   1.849   1.897   1.676 -3.1111 -3.5638 -0.0132
  715SOL    HW2 2859   1.737   1.818   1.749 -1.1617  0.4841  0.6585
  715SOL     MW 2860   1.767   1.895   1.719 -0.7502 -0.0284  0.6820
  716SOL     OW 2861   2.390   0.567   0.730  0.4983 -0.5004  0.1979
  716SOL    HW1 2862   2.424   0.497   0.673  0.3204  1.0737  1.7313
  716SOL    HW2 2863   2.338   0.623   0.671  0.8948  1.7374  0.6844
  716SOL     MW 2864   2.388   0.565   0.715  0.5272  0.0026  0.4644
  717SOL     OW 2865   2.861   1.469   2.901 -0.0757 -0.0178 -0.2436
  717SOL    HW1 2866   2.953   1.445   2.919 -1.8315  1.9518 -0.6568
  717SOL    HW2 2867   2.832   1.531   2.968 -0.5532  0.0827 -1.6135
  717SOL     MW 2868   2.869   1.474   2.912 -0.3704  0.2553 -0.4788
  718SOL     OW 2869   2.530   1.329   1.392 -0.2709  0.6343 -0.2783
  718SOL    HW1 2870   2.552   1.411   1.442  1.3152 -2.2022 -0.3055
  718SOL    HW2 2871   2.612   1.284   1.371 -0.3033 -0.6226 -0.7044
  718SOL     MW 2872   2.543   1.334   1.396 -0.0659  0.0942 -0.3381
  719SOL     OW 2873   2.167   1.339   0.599 -0.2632 -0.7303 -0.6528
  719SOL    HW1 2874   2.262   1.355   0.585  0.7076 -2.3032 -3.5883
  719SOL    HW2 2875   2.144   1.387   0.677 -1.9776  0.0081 -1.4056
  719SOL     MW 2876   2.176   1.348   0.607 -0.3613 -0.8404 -1.1394
  720SOL     OW 2877   2.886   1.193   0.135 -0.0478 -0.0366  0.3625
  720SOL    HW1 2878   2.852   1.108   0.147 -0.9175  0.7104  0.8551
  720SOL    HW2 2879   2.811   1.244   0.156  0.7603  1.1213  1.1927
  720SOL     MW 2880   2.872   1.189   0.139 -0.0559  0.2147  0.5371
  721SOL     OW 2881   2.520   0.836   1.357  0.0104  0.0620 -0.2827
  721SOL    HW1 2882   2.461   0.765   1.393 -0.8109 -3.2693  2.4442
  721SOL    HW2 2883   2.578   0.870   1.433 -1.0912 -0.1369  1.4604
  721SOL     MW 2884   2.520   0.831   1.372 -0.2433 -0.4037  0.3071
  722SOL     OW 2885   2.539   1.214   0.379  0.2503 -0.3528 -1.0145
  722SOL    HW1 2886   2.498   1.294   0.427  2.3905  2.7739  2.0117
  722SOL    HW2 2887   2.605   1.188   0.439 -1.2625 -0.0420  0.1775
  722SOL     MW 2888   2.542   1.221   0.393  0.3331  0.1008 -0.4580
  723SOL     OW 2889   2.226   1.377   1.635 -0.5931 -0.0462 -0.0239
  723SOL    HW1 2890   2.211   1.350   1.546 -0.6355  0.3124  1.3915
  723SOL    HW2 2891   2.162   1.445   1.647 -0.1880 -2.3709  2.9109
  723SOL     MW 2892   2.216   1.383   1.625 -0.5453 -0.3056  0.5500
  724SOL     OW 2893   2.489   0.369   0.550  0.2372  0.1621 -0.2152
  724SOL    HW1 2894   2.485   0.304   0.617  1.7182  1.2443  0.2850
  724SOL    HW2 2895   2.577   0.399   0.560 -0.3216 -1.6057 -0.4329
  724SOL     MW 2896   2.500   0.364   0.560  0.3589  0.0717 -0.1779
  725SOL     OW 2897   2.586   0.530   1.138 -0.0854 -0.3303 -0.5961
  725SOL    HW1 2898   2.621   0.540   1.222  1.3946  1.2781  0.3715
  725SOL    HW2 2899   2.495   0.501   1.150  0.9665 -1.6478 -0.4791
  725SOL     MW 2900   2.578   0.527   1.151  0.2487 -0.2919 -0.4530
  726SOL     OW 2901   2.563   2.429   0.533  0.4425 -0.1574  0.6344
  726SOL    HW1 2902   2.503   2.492   0.488 -3.0770  0.5317 -0.1478
  726SOL    HW2 2903   2.508   2.374   0.585  2.4258  1.5505 -1.9488
  726SOL     MW 2904   2.548   2.430   0.534  0.2398  0.1589  0.1904
  727SOL     OW 2905   2.873   0.287   1.601  0.5614 -0.1541 -0.2964
  727SOL    HW1 2906   2.889   0.323   1.507  0.9750  3.0540 -2.1312
  727SOL    HW2 2907   2.789   0.243   1.605  1.0892 -1.8232  0.4248
  727SOL     MW 2908   2.864   0.286   1.589  0.6856  0.0489 -0.4433
  728SOL     OW 2909   2.820   1.156   2.969 -0.1639 -0.0130 -0.0466
  728SOL    HW1 2910   2.803   1.234   2.919  0.5976  0.3211  3.9192
  728SOL    HW2 2911   2.871   1.181   3.049 -2.8372  0.1760 -0.3015
  728SOL     MW 2912   2.825   1.170   2.973 -0.4162  0.0560  0.4430
  729SOL     OW 2913   2.556   1.478   1.159  0.3826  0.1697  0.1699
  729SOL    HW1 2914   2.520   1.411   1.221  0.8332  4.0858 -0.5131
  729SOL    HW2 2915   2.612   1.426   1.097 -0.8585  0.2979 -1.8281
  729SOL     MW 2916   2.559   1.462   1.159  0.2783  0.7033 -0.1838
  730SOL     OW 2917   2.116   1.120   0.285 -0.1477 -0.1785  0.0450
  730SOL    HW1 2918   2.210   1.118   0.259 -1.0910 -0.6011 -2.2259
  730SOL    HW2 2919   2.086   1.210   0.289  0.1233  1.9185  0.7668
  730SOL     MW 2920   2.125   1.131   0.282 -0.2364  0.0424 -0.1594
  731SOL     OW 2921   2.805   1.852   2.903  0.0924 -0.3465 -0.0486
  731SOL    HW1 2922   2.738   1.903   2.856 -0.9064 -1.4443 -1.5930
  731SOL    HW2 2923   2.883   1.908   2.894 -1.0040  1.0186 -0.2082
  731SOL     MW 2924   2.806   1.866   2.896 -0.1841 -0.3112 -0.2734
  732SOL     OW 2925   2.251   0.938   1.339 -0.6696  0.2255 -0.6574
  732SOL    HW1 2926   2.196   0.891   1.399  1.2659 -1.1614  0.6803
  732SOL    HW2 2927   2.335   0.893   1.361 -0.9028 -1.6923 -0.3496
  732SOL     MW 2928   2.255   0.926   1.350 -0.4450 -0.2105 -0.4403
  733SOL     OW 2929   2.348   2.824   3.075 -0.1465 -0.6222 -0.1588
  733SOL    HW1 2930   2.276   2.873   3.039  1.3911  1.2643 -1.5501
  733SOL    HW2 2931   2.309   2.733   3.073 -1.2739  0.2150 -0.6201
  733SOL     MW 2932   2.333   2.818   3.070 -0.0924 -0.2628 -0.4033
  734SOL     OW 2933   1.495   0.382   2.450 -0.1836 -0.4742  0.0157
  734SOL    HW1 2934   1.462   0.353   2.537 -1.7182 -0.5780  0.0432
  734SOL    HW2 2935   1.502   0.297   2.406 -0.1146  2.5526  2.8316
  734SOL     MW 2936   1.492   0.367   2.456 -0.3769 -0.0885  0.3908
  735SOL     OW 2937   3.025   0.988   2.623 -0.2297 -0.2356 -0.7724
  735SOL    HW1 2938   3.037   0.892   2.615 -0.3371  1.1376 -2.3625
  735SOL    HW2 2939   3.023   1.007   2.714 -2.3082  0.2038 -0.8570
  735SOL     MW 2940   3.026   0.978   2.634 -0.5181  0.0036 -0.9933
  736SOL     OW 2941   0.073   0.594   2.559 -0.0367 -0.3372  0.1340
  736SOL    HW1 2942   0.121   0.641   2.488 -0.4571  0.7863 -0.7135
  736SOL    HW2 2943   0.050   0.511   2.511 -1.5971  0.4516  1.1836
  736SOL     MW 2944   0.076   0.589   2.544 -0.2981 -0.0849  0.1607
  737SOL     OW 2945   2.913   0.698   2.613  0.0982 -0.2198  0.0015
  737SOL    HW1 2946   2.855   0.673   2.538 -0.4817 -1.9854  0.6724
  737SOL    HW2 2947   2.996   0.660   2.593 -1.1880  0.8220  0.6787
  737SOL     MW 2948   2.916   0.690   2.600 -0.1480 -0.3153  0.1794
  738SOL     OW 2949   0.163   0.537   1.981 -0.1022  0.0056 -0.2682
  738SOL    HW1 2950   0.256   0.544   1.998  1.4234 -2.1983 -0.9746
  738SOL    HW2 2951   0.162   0.473   1.908  2.5371  2.3832 -0.8824
  738SOL     MW 2952   0.175   0.529   1.974  0.4473  0.0285 -0.4425
  739SOL     OW 2953   2.525   0.944   2.152 -0.5758  0.1326 -0.1787
  739SOL    HW1 2954   2.427   0.935   2.144 -0.1405 -1.9200 -0.4736
  739SOL    HW2 2955   2.560   0.986   2.074  0.8306 -0.5748 -0.5379
  739SOL     MW 2956   2.517   0.948   2.141 -0.3328 -0.2315 -0.2650
  740SOL     OW 2957   0.130   1.777   2.958 -0.7897  0.2087 -0.3844
  740SOL    HW1 2958   0.087   1.690   2.947  0.9822 -1.1622  1.2572
  740SOL    HW2 2959   0.223   1.752   2.975 -1.8228 -0.5922  0.4861
  740SOL     MW 2960   0.137   1.762   2.959 -0.6922 -0.0778 -0.0530
  741SOL     OW 2961   2.223   1.207   2.710  0.5990  0.3936  0.5461
  741SOL    HW1 2962   2.197   1.290   2.661 -1.6723 -1.3942 -0.3541
  741SOL    HW2 2963   2.200   1.215   2.802 -1.4277  0.2447 -1.2662
  741SOL     MW 2964   2.217   1.219   2.716  0.0319  0.1380  0.1882
  742SOL     OW 2965   1.655   1.371   2.278 -0.1812  0.4072 -0.1785
  742SOL    HW1 2966   1.584   1.314   2.251  0.1239  2.1077 -0.0468
  742SOL    HW2 2967   1.652   1.377   2.378  1.5116 -1.8412  0.3307
  742SOL     MW 2968   1.645   1.364   2.288  0.0824  0.3349 -0.0939
  743SOL     OW 2969   2.496   1.233   2.696 -0.1284 -0.0094  0.3877
  743SOL    HW1 2970   2.408   1.198   2.702  1.2421  0.2024 -1.6913
  743SOL    HW2 2971   2.543   1.161   2.743 -2.3796  2.7533  0.2693
  743SOL     MW 2972   2.491   1.219   2.703 -0.2446  0.3830  0.0978
  744SOL     OW 2973   2.789   0.990   1.833 -0.1336  0.1350 -0.2078
  744SOL    HW1 2974   2.709   1.030   1.872  0.1230  0.6890  1.2092
  744SOL    HW2 2975   2.765   0.958   1.746 -0.7299 -0.0514 -0.6975
  744SOL     MW 2976   2.775   0.991   1.827 -0.1784  0.1835 -0.0854
  745SOL     OW 2977   1.777   0.433   2.457  0.4007  0.2819 -0.5744
  745SOL    HW1 2978   1.782   0.423   2.361 -2.2967  0.7288 -0.4765
  745SOL    HW2 2979   1.688   0.411   2.482  0.0417 -2.2583  1.2984
  745SOL     MW 2980   1.766   0.429   2.448 -0.0026  0.0057 -0.3144
  746SOL     OW 2981   1.505   1.474   1.688 -0.2731  0.2245  0.0189
  746SOL    HW1 2982   1.569   1.532   1.731  1.1440 -1.9546  0.6149
  746SOL    HW2 2983   1.509   1.408   1.752  0.6155 -0.4395 -2.3920
  746SOL     MW 2984   1.514   1.473   1.702  0.0311 -0.1506 -0.2206
  747SOL     OW 2985   2.568   1.114   1.921 -0.1040  0.6548 -0.0144
  747SOL    HW1 2986   2.477   1.129   1.883 -0.4814 -0.1279  3.0738
  747SOL    HW2 2987   2.599   1.200   1.949  0.3396 -0.2486 -2.4113
  747SOL     MW 2988   2.560   1.128   1.920 -0.0953  0.4323  0.0768
  748SOL     OW 2989   0.075   3.057   1.908 -0.2705 -0.1609 -0.0230
  748SOL    HW1 2990   0.169   3.048   1.901 -1.1247 -0.0631  0.7926
  748SOL    HW2 2991   0.062   3.114   1.978 -0.2443  0.2455  0.0069
  748SOL     MW 2992   0.086   3.063   1.916 -0.3797 -0.0944  0.0886
  749SOL     OW 2993   2.438   0.606   2.778  0.6273 -0.4614  0.0160
  749SOL    HW1 2994   2.424   0.686   2.725  1.7433  0.1900 -0.7215
  749SOL    HW2 2995   2.445   0.638   2.874  2.2452  0.3520  2.0540
  749SOL     MW 2996   2.437   0.621   2.783  0.9880 -0.2681  0.1876
  750SOL     OW 2997   2.068   3.052   1.944 -0.2667  0.5784  0.3083
  750SOL    HW1 2998   2.110   3.140   1.936 -1.3709 -2.9554  0.2876
  750SOL    HW2 2999   2.136   2.989   1.954  0.7391 -2.3861  0.0257
  750SOL     MW 3000   2.082   3.055   1.944 -0.2797 -0.2790  0.2683
  751SOL     OW 3001   3.090   0.374   2.380  0.2809  0.5539  0.3258
  751SOL    HW1 3002   3.008   0.395   2.342  1.8898 -0.7300 -0.0365
  751SOL    HW2 3003   3.155   0.364   2.306  2.4633 -1.6157  0.5097
  751SOL     MW 3004   3.088   0.376   2.365  0.7811  0.0983  0.3023
  752SOL     OW 3005   2.142   0.893   2.788 -0.6201  0.0977  0.3261
  752SOL    HW1 3006   2.204   0.963   2.778 -0.2568  0.1389 -0.2508
  752SOL    HW2 3007   2.137   0.892   2.886  0.8287  0.7558 -0.7620
  752SOL     MW 3008   2.149   0.902   2.800 -0.3810  0.1900  0.1064
  753SOL     OW 3009   2.825   0.432   2.311  0.4833 -0.0254  0.0115
  753SOL    HW1 3010   2.774   0.352   2.315  0.9778 -0.2797 -0.4470
  753SOL    HW2 3011   2.785   0.494   2.372 -1.7636  0.4663  1.2698
  753SOL     MW 3012   2.813   0.430   2.319  0.2521  0.0059  0.1170
  754SOL     OW 3013   2.283   2.981   2.626 -0.5344  0.6915 -0.6677
  754SOL    HW1 3014   2.316   2.970   2.533 -1.9630 -1.1734 -1.2480
  754SOL    HW2 3015   2.336   2.920   2.679 -0.6590 -0.8518  1.1546
  754SOL     MW 3016   2.295   2.972   2.621 -0.7393  0.2418 -0.5039
  755SOL     OW 3017   2.805   1.582   2.479  0.5438 -0.0815 -0.4373
  755SOL    HW1 3018   2.753   1.507   2.504 -1.0668  1.2758 -0.7601
  755SOL    HW2 3019   2.846   1.625   2.557 -1.0436  0.2392  1.7447
  755SOL     MW 3020   2.804   1.578   2.493  0.1219  0.1399 -0.1920
  756SOL     OW 3021   2.230   1.266   2.986  0.2240 -0.1234 -0.7364
  756SOL    HW1 3022   2.296   1.333   3.024  3.2831  3.0580  0.3305
  756SOL    HW2 3023   2.290   1.191   2.972 -0.2002 -1.4720  0.6442
  756SOL     MW 3024   2.247   1.265   2.989  0.5716  0.1184 -0.4135
  757SOL     OW 3025   2.198   0.947   1.651 -0.0105 -0.5371 -0.1538
  757SOL    HW1 3026   2.198   0.848   1.653  2.8371 -3.0917 -0.0753
  757SOL    HW2 3027   2.141   0.968   1.572  0.2362 -0.6066 -1.5812
  757SOL     MW 3028   2.190   0.936   1.641  0.3977 -0.8833 -0.3318
  758SOL     OW 3029   2.261   1.815   2.620  0.6168 -0.5895 -0.2589
  758SOL    HW1 3030   2.254   1.842   2.524 -0.2188 -0.5146  0.8401
  758SOL    HW2 3031   2.344   1.769   2.626  0.2301 -2.1097  0.3819
  758SOL     MW 3032   2.271   1.812   2.608  0.4555 -0.7802 -0.0293
  759SOL     OW 3033   1.536   1.421   2.768  0.1154 -0.4261 -0.1447
  759SOL    HW1 3034   1.557   1.490   2.709 -0.3772  2.0151 -0.1840
  759SOL    HW2 3035   1.608   1.425   2.838 -1.2834  0.9872  1.2805
  759SOL     MW 3036   1.549   1.431   2.770 -0.1342  0.0825  0.0382
  760SOL     OW 3037   2.635   1.988   2.703 -0.1787  0.3100 -0.5572
  760SOL    HW1 3038   2.580   1.909   2.700  3.5768  0.6113  0.0435
  760SOL    HW2 3039   2.703   1.980   2.640 -2.0493  0.9320  1.7217
  760SOL     MW 3040   2.637   1.976   2.694  0.0700  0.4318 -0.1773
  761SOL     OW 3041   2.181   0.448   2.453 -0.2959 -0.3026 -0.3678
  761SOL    HW1 3042   2.116   0.388   2.482 -2.1953  2.3924  2.1068
  761SOL    HW2 3043   2.157   0.524   2.505 -1.4145  2.9334  0.7311
  761SOL     MW 3044   2.169   0.450   2.464 -0.6941  0.4800  0.1037
  762SOL     OW 3045   0.035   0.163   2.091 -0.0095 -0.1501 -0.5001
  762SOL    HW1 3046   0.020   0.095   2.158  3.4988 -0.6954  1.1753
  762SOL    HW2 3047  -0.047   0.211   2.079  0.2980  0.6613  1.9781
  762SOL     MW 3048   0.022   0.160   2.098  0.4940 -0.1150  0.0479
  763SOL     OW 3049   2.435   1.159   2.362  0.0917  0.1523  0.9422
  763SOL    HW1 3050   2.476   1.083   2.319  0.3633 -0.2515 -0.4402
  763SOL    HW2 3051   2.498   1.226   2.372 -0.8573  0.2294 -0.0465
  763SOL     MW 3052   2.449   1.157   2.358  0.0023  0.1092  0.6293
  764SOL     OW 3053   0.334   0.176   2.773 -0.2642  0.3377  0.1366
  764SOL    HW1 3054   0.274   0.236   2.731 -0.2202 -1.6542  1.6297
  764SOL    HW2 3055   0.358   0.222   2.850 -0.7863 -2.0425 -1.1525
  764SOL     MW 3056   0.329   0.190   2.778 -0.3273 -0.2392  0.1635
  765SOL     OW 3057   2.740   0.169   2.332  0.6205  0.3915 -0.3678
  765SOL    HW1 3058   2.708   0.127   2.251 -1.9809  0.9323 -1.3886
  765SOL    HW2 3059   2.779   0.097   2.381  0.0056 -0.1612 -0.0283
  765SOL     MW 3060   2.741   0.154   2.328  0.1961  0.3899 -0.4577
  766SOL     OW 3061   1.849   3.008   2.105 -0.1241 -0.2149 -0.4009
  766SOL    HW1 3062   1.923   3.012   2.046  1.7893 -1.4470  0.7980
  766SOL    HW2 3063   1.774   2.982   2.051  0.8341 -0.7081 -0.7630
  766SOL     MW 3064   1.849   3.005   2.090  0.2548 -0.4426 -0.2905
  767SOL     OW 3065   2.699   0.621   1.948  0.7658  0.1052 -0.1046
  767SOL    HW1 3066   2.735   0.682   2.011 -4.1767  2.0143  1.9499
  767SOL    HW2 3067   2.609   0.658   1.932  0.5853 -0.1943 -2.1767
  767SOL     MW 3068   2.691   0.634   1.954  0.0898  0.3176 -0.1069
  768SOL     OW 3069   0.033   1.452   2.965  0.1939  0.1624 -0.4208
  768SOL    HW1 3070   0.061   1.481   3.053  0.1098  0.2340 -1.3674
  768SOL    HW2 3071   0.079   1.365   2.959 -0.9394  1.3293 -0.7452
  768SOL     MW 3072   0.043   1.444   2.976  0.0332  0.3258 -0.5885
  769SOL     OW 3073   2.387   0.659   2.443  0.5147 -0.2668  0.4576
  769SOL    HW1 3074   2.376   0.570   2.482 -2.2977 -4.0828 -0.5737
  769SOL    HW2 3075   2.425   0.639   2.358 -1.8169 -1.9282  3.0552
  769SOL     MW 3076   2.390   0.644   2.437 -0.1640 -0.9895  0.6643
  770SOL     OW 3077   0.065   1.617   2.642  0.2887  0.4496 -0.3544
  770SOL    HW1 3078  -0.025   1.623   2.673  0.5061 -0.5128  0.9550
  770SOL    HW2 3079   0.101   1.528   2.651  0.6862  2.6488 -0.4097
  770SOL     MW 3080   0.058   1.606   2.647  0.3699  0.6128 -0.1889
  771SOL     OW 3081   2.988   0.562   1.964 -0.0611  0.2004  0.3780
  771SOL    HW1 3082   2.976   0.572   1.872 -1.8446  1.6630 -1.6309
  771SOL    HW2 3083   3.079   0.557   1.972 -0.2285 -1.3576 -0.1208
  771SOL     MW 3084   2.999   0.563   1.953 -0.3185  0.1878  0.0471
  772SOL     OW 3085   0.014   3.080   2.317  0.1241 -0.1853  0.0790
  772SOL    HW1 3086  -0.079   3.061   2.327  1.2872 -1.7530 -1.6725
  772SOL    HW2 3087   0.054   2.992   2.309 -1.0634 -0.4929 -0.4199
  772SOL     MW 3088   0.007   3.066   2.317  0.1209 -0.4327 -0.2179
  773SOL     OW 3089   2.478   2.844   2.807 -0.1513 -0.0326 -0.2616
  773SOL    HW1 3090   2.474   2.765   2.746 -0.4082 -1.1137 -3.1848
  773SOL    HW2 3091   2.430   2.821   2.891 -2.3652  0.5480  0.7761
  773SOL     MW 3092   2.471   2.831   2.810 -0.4773 -0.0987 -0.5103
  774SOL     OW 3093   2.288   1.176   1.827 -0.1504 -0.4076  0.0272
  774SOL    HW1 3094   2.274   1.247   1.761  2.2617 -0.6997 -0.0347
  774SOL    HW2 3095   2.246   1.094   1.786 -1.3434 -1.7234 -4.2442
  774SOL     MW 3096   2.280   1.175   1.813  0.0105 -0.6198 -0.5445
  775SOL     OW 3097   2.287   2.967   2.336  0.4754  0.4083  0.0132
  775SOL    HW1 3098   2.325   3.030   2.270 -0.2780  2.4220 -0.6402
  775SOL    HW2 3099   2.328   2.882   2.317 -1.4285  1.9545 -1.1997
  775SOL     MW 3100   2.298   2.964   2.324  0.1248  0.8780 -0.2330
  776SOL     OW 3101   0.107   1.525   0.122 -0.2951 -0.5272 -0.0240
  776SOL    HW1 3102   0.204   1.505   0.120  0.6919 -2.3982  1.1545
  776SOL    HW2 3103   0.065   1.455   0.171  2.1584  0.5152  1.7403
  776SOL     MW 3104   0.114   1.513   0.128  0.1588 -0.6365  0.3642
  777SOL     OW 3105   3.017   1.128   1.731  0.5863  0.4562 -0.3914
  777SOL    HW1 3106   3.019   1.155   1.641 -0.5447 -0.1318  1.7497
  777SOL    HW2 3107   2.934   1.106   1.766  1.4508  1.1108  0.8406
  777SOL     MW 3108   3.006   1.129   1.724  0.5511  0.4650  0.0536
  778SOL     OW 3109   2.800   0.424   2.702  0.0545  0.1651 -0.1003
  778SOL    HW1 3110   2.757   0.424   2.786  0.7032  0.0745 -3.7339
  778SOL    HW2 3111   2.790   0.517   2.677 -1.9082 -0.0965 -1.4245
  778SOL     MW 3112   2.793   0.436   2.710 -0.1189  0.1186 -0.7545
  779SOL     OW 3113   2.240   0.565   2.173  0.1838 -0.1324  0.9020
  779SOL    HW1 3114   2.170   0.621   2.200  1.2916  1.7817 -3.5640
  779SOL    HW2 3115   2.251   0.500   2.245 -0.1237  1.5895 -0.1546
  779SOL     MW 3116   2.232   0.564   2.186  0.2894  0.3473  0.1733
  780SOL     OW 3117   0.117   0.307   2.684 -0.2033  0.5320  0.0051
  780SOL    HW1 3118   0.045   0.247   2.678 -0.6673 -1.3293  2.3451
  780SOL    HW2 3119   0.089   0.393   2.704  1.5510  2.3731 -2.3761
  780SOL     MW 3120   0.104   0.311   2.686 -0.0330  0.5293 -0.0003
  781SOL     OW 3121   3.050   1.316   2.452  0.4446 -0.0839 -0.2701
  781SOL    HW1 3122   3.027   1.381   2.381  1.1696 -1.7216 -0.8876
  781SOL    HW2 3123   3.070   1.235   2.407  1.8550 -2.0278  0.0123
  781SOL     MW 3124   3.049   1.314   2.436  0.7263 -0.5564 -0.3143
  782SOL     OW 3125   0.629   1.574   0.042  0.4341  0.0119 -0.6792
  782SOL    HW1 3126   0.553   1.550  -0.006  4.5382  4.0640  1.6080
  782SOL    HW2 3127   0.605   1.665   0.073  0.7456  0.9586  0.8892
  782SOL     MW 3128   0.616   1.583   0.040  1.0167  0.6715 -0.1705
  783SOL     OW 3129   2.711   0.632   2.456 -0.0504  0.7005  0.4005
  783SOL    HW1 3130   2.679   0.670   2.377  0.2349 -3.4935  0.7365
  783SOL    HW2 3131   2.635   0.573   2.472 -1.1824 -0.0702 -0.1476
  783SOL     MW 3132   2.697   0.629   2.448 -0.1621  0.0454  0.3725
  784SOL     OW 3133   0.160   0.859   2.874 -0.8109 -0.2934 -0.0762
  784SOL    HW1 3134   0.067   0.881   2.878  2.8248  0.1986  0.4971
  784SOL    HW2 3135   0.188   0.908   2.793  0.0490  0.0525  0.3568
  784SOL     MW 3136   0.151   0.869   2.864 -0.2178 -0.1829  0.0566
  785SOL     OW 3137   0.440   0.457   2.172 -0.0041  0.3272 -0.8736
  785SOL    HW1 3138   0.459   0.496   2.085 -0.9190  2.9815  1.7150
  785SOL    HW2 3139   0.360   0.412   2.153  0.3176 -1.4004  1.9690
  785SOL     MW 3140   0.432   0.457   2.158 -0.0824  0.4495 -0.1570
  786SOL     OW 3141   1.904   0.388   2.966  0.4433 -0.1942 -0.2012
  786SOL    HW1 3142   1.865   0.472   2.958 -0.0989  1.9087  0.5749
  786SOL    HW2 3143   1.966   0.380   2.896 -1.5111 -2.5454 -0.6920
  786SOL     MW 3144   1.907   0.398   2.956  0.1139 -0.2270 -0.1636
  787SOL     OW 3145   2.479   0.085   2.942  0.1715 -0.0248  0.8507
  787SOL    HW1 3146   2.558   0.045   2.894  1.1993 -3.1097 -0.4794
  787SOL    HW2 3147   2.510   0.161   2.996  0.4671  2.7655 -2.4452
  787SOL     MW 3148   2.494   0.089   2.943  0.3461 -0.0637  0.2404
  788SOL     OW 3149   2.874   3.046   2.428  0.5215 -0.0826  0.2705
  788SOL    HW1 3150   2.891   3.062   2.522  0.8102 -0.3283  0.7021
  788SOL    HW2 3151   2.813   2.969   2.424 -1.2265  0.5046  0.7237
  788SOL     MW 3152   2.868   3.038   2.440  0.3290 -0.0376  0.3873
  789SOL     OW 3153   0.075   0.195   3.035 -0.7406  0.3032  0.0231
  789SOL    HW1 3154  -0.006   0.142   3.041 -0.8847 -2.6843 -2.3681
  789SOL    HW2 3155   0.050   0.249   2.957  1.4256 -0.0980  0.3773
  789SOL     MW 3156   0.061   0.195   3.025 -0.4738 -0.1439 -0.2457
  790SOL     OW 3157   3.090   1.038   2.359 -0.1904  0.2459 -0.1011
  790SOL    HW1 3158   3.055   1.031   2.448 -0.5468 -1.7054 -0.7417
  790SOL    HW2 3159   3.015   1.049   2.298 -3.0112  0.0823 -1.0929
  790SOL     MW 3160   3.075   1.039   2.362 -0.6096 -0.0332 -0.3165
  791SOL     OW 3161   2.556   0.437   2.577  0.2642 -0.3175 -0.3626
  791SOL    HW1 3162   2.522   0.512   2.641  0.0248  2.2002  0.1288
  791SOL    HW2 3163   2.638   0.400   2.615  1.1683 -0.8033  3.0441
  791SOL     MW 3164   2.562   0.442   2.591  0.3519 -0.0494  0.1517
  792SOL     OW 3165   2.332   0.204   2.427 -0.0100 -0.4554 -0.1427
  792SOL    HW1 3166   2.297   0.296   2.419  2.6366  0.9896  0.2962
  792SOL    HW2 3167   2.305   0.162   2.510 -0.7873  0.7926  0.9036
  792SOL     MW 3168   2.324   0.210   2.437  0.2366 -0.1001  0.0532
  793SOL     OW 3169   1.930   1.165   1.987  1.0056  0.7999 -0.1390
  793SOL    HW1 3170   1.898   1.148   1.894  1.5214 -2.6855 -0.4993
  793SOL    HW2 3171   2.020   1.184   1.957 -1.1480  1.5902 -1.0790
  793SOL     MW 3172   1.938   1.165   1.971  0.7895  0.4443 -0.3106
  794SOL     OW 3173   1.409   2.374   0.133 -0.0176  0.2996  0.3167
  794SOL    HW1 3174   1.458   2.428   0.064  0.5620  0.7469 -1.2910
  794SOL    HW2 3175   1.469   2.365   0.207  0.0978 -0.5249 -0.1060
  794SOL     MW 3176   1.423   2.380   0.134  0.0741  0.2499  0.0488
  795SOL     OW 3177   2.317   1.005   2.547  0.3730  0.0220 -0.4853
  795SOL    HW1 3178   2.259   1.067   2.596 -0.5684  0.5293 -0.0380
  795SOL    HW2 3179   2.366   1.068   2.492  1.1965 -0.8686 -3.6632
  795SOL     MW 3180   2.316   1.021   2.546  0.3574 -0.0286 -0.8456
  796SOL     OW 3181   0.249   0.616   2.753  0.0715 -0.6257  0.2120
  796SOL    HW1 3182   0.201   0.688   2.795  0.0005  1.7066  0.9836
  796SOL    HW2 3183   0.200   0.609   2.668 -1.3854  0.6986  0.9736
  796SOL     MW 3184   0.236   0.624   2.747 -0.1301 -0.1433  0.4143
  797SOL     OW 3185   2.613   0.140   2.580 -0.5117  0.4202  0.1477
  797SOL    HW1 3186   2.543   0.195   2.589  2.7145 -0.2580  1.1944
  797SOL    HW2 3187   2.643   0.161   2.486  2.6507  0.8685  1.4095
  797SOL     MW 3188   2.608   0.150   2.569  0.3312  0.3898  0.4523
  798SOL     OW 3189   2.350   0.089   2.144 -0.3092 -0.2002 -0.0755
  798SOL    HW1 3190   2.353   0.154   2.213  1.7940 -1.6795 -2.5410
  798SOL    HW2 3191   2.439   0.072   2.111 -0.4231  0.4338  0.2667
  798SOL     MW 3192   2.362   0.095   2.149 -0.0467 -0.3118 -0.3557
  799SOL     OW 3193   2.561   2.954   0.117  0.0802 -0.2746  0.0826
  799SOL    HW1 3194   2.495   2.894   0.090 -0.8325  0.7742 -1.3831
  799SOL    HW2 3195   2.538   2.961   0.211  0.7703 -0.8701 -1.1783
  799SOL     MW 3196   2.550   2.947   0.126  0.0508 -0.2148 -0.2771
  800SOL     OW 3197   1.928   0.042   1.724 -0.2731 -0.6578 -0.7860
  800SOL    HW1 3198   1.885  -0.035   1.689  0.4928 -0.3287 -0.0835
  800SOL    HW2 3199   1.981   0.003   1.795 -1.6639  1.0998  3.7330
  800SOL     MW 3200   1.929   0.027   1.729 -0.3556 -0.3824 -0.0971
  801SOL     OW 3201   2.815   1.244   2.607  0.0143  0.3944  0.4412
  801SOL    HW1 3202   2.838   1.152   2.623  0.4548 -1.5232 -1.6047
  801SOL    HW2 3203   2.889   1.279   2.555 -0.2045 -0.9351  1.6510
  801SOL     MW 3204   2.828   1.236   2.602  0.0436 -0.0340  0.3309
  802SOL     OW 3205   2.599   1.482   2.808 -0.2249  0.1513  0.3568
  802SOL    HW1 3206   2.573   1.397   2.773  1.8936 -0.2997  1.8831
  802SOL    HW2 3207   2.691   1.463   2.837  0.6643 -3.5004  2.0805
  802SOL     MW 3208   2.608   1.469   2.807  0.1720 -0.3900  0.7856
  803SOL     OW 3209   2.232   1.361   2.034 -0.0223  0.6587  0.2257
  803SOL    HW1 3210   2.223   1.355   2.128 -0.5648  1.1656  0.6186
  803SOL    HW2 3211   2.244   1.277   1.987  0.1656  1.9055 -2.1919
  803SOL     MW 3212   2.233   1.349   2.040 -0.0691  0.8901 -0.0414
  804SOL     OW 3213   2.254   0.081   0.049 -0.1041  0.0680 -0.6078
  804SOL    HW1 3214   2.199   0.163   0.053  0.1760  0.9992 -0.4023
  804SOL    HW2 3215   2.325   0.092  -0.012 -2.4154 -2.4050  0.3309
  804SOL     MW 3216   2.256   0.093   0.041 -0.3721 -0.1354 -0.4568
  805SOL     OW 3217   2.744   0.947   2.595 -0.8228  0.1095  0.2806
  805SOL    HW1 3218   2.668   0.889   2.594  0.6666 -0.3634  0.5700
  805SOL    HW2 3219   2.813   0.885   2.614 -0.0475 -1.3269 -0.3827
  805SOL     MW 3220   2.743   0.931   2.598 -0.5240 -0.1424  0.2313
  806SOL     OW 3221   2.511   0.636   2.224  0.3430 -0.5319  0.0102
  806SOL    HW1 3222   2.423   0.620   2.184  2.4868 -0.3874 -2.0605
  806SOL    HW2 3223   2.533   0.715   2.180  1.0781 -1.9689  0.8982
  806SOL     MW 3224   2.503   0.644   2.213  0.7228 -0.7024 -0.1458
  807SOL     OW 3225   0.090   1.079   2.045  1.0706 -0.0305  0.0510
  807SOL    HW1 3226   0.117   1.002   2.094  1.0440  3.3810 -0.3888
  807SOL    HW2 3227  -0.009   1.079   2.063  1.6691  0.2084 -1.6744
  807SOL     MW 3228   0.081   1.069   2.054  1.1460  0.4512 -0.2347
  808SOL     OW 3229   2.648   3.069   2.777  0.0701 -0.2539 -0.1211
  808SOL    HW1 3230   2.586   2.997   2.789 -1.6830 -1.0632  1.6123
  808SOL    HW2 3231   2.625   3.110   2.691 -0.0882 -1.8315  1.6095
  808SOL     MW 3232   2.636   3.065   2.767 -0.1821 -0.5689  0.3360
  809SOL     OW 3233   2.592   1.379   2.446 -0.4213  0.2708  0.4518
  809SOL    HW1 3234   2.624   1.325   2.515 -1.9559 -3.9768 -1.1511
  809SOL    HW2 3235   2.659   1.377   2.369 -0.9573  0.1318 -0.2004
  809SOL     MW 3236   2.605   1.372   2.445 -0.6945 -0.3079  0.1542
  810SOL     OW 3237   2.232   1.315   2.298 -0.0041 -0.0185 -0.2149
  810SOL    HW1 3238   2.285   1.237   2.302 -1.9235  2.2148  1.0323
  810SOL    HW2 3239   2.194   1.326   2.386  0.8060  0.5320  0.7052
  810SOL     MW 3240   2.234   1.306   2.310 -0.1505  0.3488  0.0710
  811SOL     OW 3241   1.524   0.143   2.322  0.0962  0.2992 -0.1586
  811SOL    HW1 3242   1.620   0.122   2.337  0.2617 -0.5485  0.6594
  811SOL    HW2 3243   1.508   0.115   2.233  0.1108 -0.6928  0.5169
  811SOL     MW 3244   1.535   0.136   2.312  0.1200  0.0565  0.0384
  812SOL     OW 3245   1.463   2.781   2.009 -0.3201  0.0005  0.1309
  812SOL    HW1 3246   1.550   2.795   1.966 -1.3382 -0.4305  1.7257
  812SOL    HW2 3247   1.480   2.794   2.103 -1.4550  1.6656 -2.2788
  812SOL     MW 3248   1.476   2.784   2.015 -0.6042  0.1633  0.0234
  813SOL     OW 3249   1.970   0.620   2.241  0.0310  0.9217  0.2374
  813SOL    HW1 3250   1.922   0.543   2.221 -0.5510  0.0579  1.3481
  813SOL    HW2 3251   1.920   0.653   2.313 -3.5112  0.5711  1.1105
  813SOL     MW 3252   1.957   0.615   2.248 -0.5131  0.7614  0.4992
  814SOL     OW 3253   2.698   1.258   1.635 -0.0220 -0.0662 -0.3572
  814SOL    HW1 3254   2.630   1.234   1.694 -1.3858 -0.9110 -0.0560
  814SOL    HW2 3255   2.680   1.200   1.552 -1.5821  1.7964 -0.0975
  814SOL     MW 3256   2.687   1.247   1.632 -0.4078  0.0680 -0.2832
  815SOL     OW 3257   2.576   1.741   2.413 -0.1445  0.0986 -0.3586
  815SOL    HW1 3258   2.506   1.671   2.410  0.4383  0.9513  0.7465
  815SOL    HW2 3259   2.661   1.711   2.453  1.0393 -0.9834  3.3677
  815SOL     MW 3260   2.578   1.728   2.418  0.0886  0.0683  0.2788
  816SOL     OW 3261   0.726   0.703   2.715 -0.2323 -0.2457 -0.1794
  816SOL    HW1 3262   0.739   0.616   2.757  0.1321 -0.9699  2.1077
  816SOL    HW2 3263   0.632   0.688   2.677 -0.0472  1.9109 -5.1753
  816SOL     MW 3264   0.716   0.690   2.715 -0.1598 -0.0567 -0.5368
  817SOL     OW 3265   3.004   1.210   1.450  0.3945  0.1601  0.1854
  817SOL    HW1 3266   3.097   1.183   1.435  3.0471 -0.1751 -1.5586
  817SOL    HW2 3267   2.992   1.300   1.409  0.6023 -0.1904 -1.6128
  817SOL     MW 3268   3.014   1.218   1.443  0.7719  0.0696 -0.2820
  818SOL     OW 3269   1.907   1.042   2.689 -0.0722 -0.5875  0.2180
  818SOL    HW1 3270   1.879   0.994   2.609  0.4727 -2.1883  2.4256
  818SOL    HW2 3271   1.981   0.989   2.724 -1.2501  0.3114  1.9183
  818SOL     MW 3272   1.913   1.029   2.683 -0.1557 -0.6801  0.7336
  819SOL     OW 3273   1.995   0.267   2.517 -0.0121 -0.5702  0.1651
  819SOL    HW1 3274   1.909   0.317   2.496  0.7705  0.6948 -2.6269
  819SOL    HW2 3275   2.007   0.263   2.612 -1.7825  1.6143 -0.3882
  819SOL     MW 3276   1.986   0.273   2.526 -0.1424 -0.1151 -0.2763
  820SOL     OW 3277   2.517   1.732   2.666 -0.2046  0.9205  0.3765
  820SOL    HW1 3278   2.551   1.651   2.703 -1.8334  0.4405 -1.7816
  820SOL    HW2 3279   2.536   1.726   2.567 -0.9859 -2.6434 -0.1071
  820SOL     MW 3280   2.524   1.720   2.658 -0.5226  0.3870  0.0280
  821SOL     OW 3281   2.576   1.364   2.011  0.4406  0.0406  0.2807
  821SOL    HW1 3282   2.617   1.419   1.940 -2.3956 -0.0698  5.6146
  821SOL    HW2 3283   2.480   1.381   2.016  1.4575  0.1248 -2.6757
  821SOL     MW 3284   2.569   1.373   2.002  0.2006  0.0371  0.5944
  822SOL     OW 3285   2.793   2.660   1.403 -0.6750 -0.7703 -0.2780
  822SOL    HW1 3286   2.832   2.680   1.492  2.1667  0.1768 -1.8164
  822SOL    HW2 3287   2.753   2.743   1.373 -2.6114  0.8409 -2.1289
  822SOL     MW 3288   2.793   2.674   1.411 -0.5556 -0.4327 -0.7252
  823SOL     OW 3289   2.373   0.477   1.783 -0.3600 -0.0986 -0.9102
  823SOL    HW1 3290   2.447   0.471   1.731 -0.3530 -0.7162  2.0877
  823SOL    HW2 3291   2.368   0.411   1.852  1.2210  0.2500 -2.5035
  823SOL     MW 3292   2.382   0.467   1.785 -0.1505 -0.1341 -0.7249
  824SOL     OW 3293   2.165   1.428   2.552 -0.4183  0.6114 -0.6156
  824SOL    HW1 3294   2.250   1.465   2.524  0.3204 -0.6830  0.2540
  824SOL    HW2 3295   2.130   1.491   2.612 -2.8231 -0.0390 -1.5825
  824SOL     MW 3296   2.171   1.441   2.556 -0.6381  0.3548 -0.6285
  825SOL     OW 3297   1.870   2.534   0.271 -1.0772  0.6301 -0.3455
  825SOL    HW1 3298   1.845   2.484   0.344  1.9478  2.0285 -1.3477
  825SOL    HW2 3299   1.950   2.492   0.236  0.0647  1.8237 -0.8583
  825SOL     MW 3300   1.877   2.522   0.276 -0.5274  0.9721 -0.5454
  826SOL     OW 3301   1.832   2.390   0.519  0.5221 -0.3362  0.6501
  826SOL    HW1 3302   1.790   2.311   0.556  1.7738 -0.4660 -0.2145
  826SOL    HW2 3303   1.787   2.461   0.566  0.7322 -0.9643 -2.4462
  826SOL     MW 3304   1.820   2.389   0.530  0.7150 -0.4362  0.1275
  827SOL     OW 3305   1.928   2.186   0.849  0.3076 -0.2689  1.0696
  827SOL    HW1 3306   1.857   2.214   0.795  1.4727 -0.5795  1.3505
  827SOL    HW2 3307   1.871   2.148   0.924 -1.6455  0.2728 -1.9284
  827SOL     MW 3308   1.911   2.184   0.852  0.2036 -0.2384  0.7111
  828SOL     OW 3309   0.048   2.569   0.574  0.2619  0.1727  0.2342
  828SOL    HW1 3310   0.141   2.579   0.564 -1.0220 -0.0977  1.1629
  828SOL    HW2 3311   0.019   2.625   0.505  0.6423  0.0385  1.7394
  828SOL     MW 3312   0.056   2.578   0.563  0.1427  0.1193  0.5553
  829SOL     OW 3313   2.991   2.963   1.154  0.0390  0.4086 -0.2086
  829SOL    HW1 3314   2.905   2.935   1.115  0.2894 -0.3468  0.6684
  829SOL    HW2 3315   3.040   2.879   1.157  1.0216  1.3742  1.5094
  829SOL     MW 3316   2.986   2.948   1.149  0.2017  0.4363  0.1338
  830SOL     OW 3317   2.568   2.815   2.031 -0.1823  0.3586  0.4153
  830SOL    HW1 3318   2.476   2.844   2.004 -3.3128  0.4850 -0.0898
  830SOL    HW2 3319   2.622   2.802   1.950 -0.1006 -0.7874 -3.0254
  830SOL     MW 3320   2.563   2.817   2.017 -0.5846  0.2241 -0.1053
  831SOL     OW 3321   2.372   2.495   1.216  0.4478  0.3628 -0.0728
  831SOL    HW1 3322   2.354   2.457   1.299  1.6805  0.1338  2.1383
  831SOL    HW2 3323   2.449   2.457   1.175 -2.0858 -0.5231  2.1612
  831SOL     MW 3324   2.380   2.485   1.222  0.2761  0.2157  0.5137
  832SOL     OW 3325   2.361   2.193   1.913  0.0262 -0.0412 -0.0040
  832SOL    HW1 3326   2.386   2.282   1.940  3.7452  1.0963  0.4201
  832SOL    HW2 3327   2.450   2.157   1.902 -2.1348 -0.7894  0.2765
  832SOL     MW 3328   2.376   2.200   1.915  0.2318  0.0102  0.0890
  833SOL     OW 3329   1.731   2.456   0.896  0.5739  0.0001  0.6109
  833SOL    HW1 3330   1.641   2.431   0.910 -0.6684  0.5636  1.2364
  833SOL    HW2 3331   1.752   2.511   0.961 -2.2789 -2.7873 -1.0644
  833SOL     MW 3332   1.722   2.460   0.906  0.0336 -0.2933  0.4724
  834SOL     OW 3333   2.113   2.455   0.599 -0.0363  0.0271  0.4202
  834SOL    HW1 3334   2.019   2.447   0.563 -2.5957 -0.6284  0.1526
  834SOL    HW2 3335   2.163   2.431   0.511  0.4194  1.7514  0.4438
  834SOL     MW 3336   2.107   2.451   0.582 -0.3139  0.1681  0.3880
  835SOL     OW 3337   1.764   2.611   0.672  0.4707  0.3686  1.0401
  835SOL    HW1 3338   1.748   2.570   0.763 -1.2659 -0.7692  2.7920
  835SOL    HW2 3339   1.824   2.674   0.694 -0.4776 -1.1742 -0.9133
  835SOL     MW 3340   1.770   2.614   0.687  0.1164  0.0149  1.0135
  836SOL     OW 3341   1.928   2.215   1.631 -0.0289 -0.0163  0.2843
  836SOL    HW1 3342   1.992   2.283   1.624 -1.8784  1.2434  0.3493
  836SOL    HW2 3343   1.844   2.264   1.635 -1.3315 -1.7269  1.5772
  836SOL     MW 3344   1.925   2.230   1.631 -0.4448 -0.0758  0.4635
  837SOL     OW 3345   2.084   0.193   0.679 -0.1514 -0.9100  0.2256
  837SOL    HW1 3346   2.003   0.229   0.637  0.6491  0.3467 -3.9999
  837SOL    HW2 3347   2.113   0.127   0.617 -1.6721 -0.7002  0.0200
  837SOL     MW 3348   2.077   0.189   0.665 -0.2464 -0.7165 -0.3590
  838SOL     OW 3349   2.931   2.057   0.917 -0.4327  0.3420  0.1465
  838SOL    HW1 3350   2.852   2.020   0.955  0.3900 -0.0507  0.7502
  838SOL    HW2 3351   2.967   1.985   0.867  0.0262  0.0165 -0.0638
  838SOL     MW 3352   2.925   2.043   0.915 -0.2636  0.2473  0.1984
  839SOL     OW 3353   1.482   2.341   0.971  0.7440 -0.2486 -0.1616
  839SOL    HW1 3354   1.503   2.407   1.039 -3.7584  2.7753 -1.8992
  839SOL    HW2 3355   1.522   2.255   1.009 -0.0450 -2.0541 -0.6475
  839SOL     MW 3356   1.490   2.338   0.985  0.0459 -0.0879 -0.4550
  840SOL     OW 3357   2.366   2.155   2.435  0.1516 -0.3784 -0.2303
  840SOL    HW1 3358   2.303   2.222   2.403  0.2084 -3.1147  1.8294
  840SOL    HW2 3359   2.388   2.189   2.521  2.4420 -0.8228 -0.0103
  840SOL     MW 3360   2.361   2.168   2.442  0.4613 -0.7980  0.0705
  841SOL     OW 3361   2.113   2.430   0.138 -0.2300 -0.0228  0.2716
  841SOL    HW1 3362   2.160   2.482   0.067 -1.6235 -0.1858 -3.0439
  841SOL    HW2 3363   2.105   2.345   0.092  0.8356  0.5066  2.5909
  841SOL     MW 3364   2.118   2.426   0.122 -0.2733  0.0256  0.1402
  842SOL     OW 3365   2.584   2.081   1.533 -0.7112  0.3222 -0.3041
  842SOL    HW1 3366   2.512   2.027   1.559 -0.5721 -2.8926 -1.8850
  842SOL    HW2 3367   2.551   2.111   1.451  1.1420 -1.4158  0.1767
  842SOL     MW 3368   2.570   2.078   1.525 -0.4484 -0.3313 -0.4493
  843SOL     OW 3369   2.664   2.765   1.750 -0.3410  0.0501  0.0245
  843SOL    HW1 3370   2.750   2.719   1.721  1.2636 -2.9985 -1.6986
  843SOL    HW2 3371   2.592   2.693   1.740 -2.9650 -1.8492 -2.3767
  843SOL     MW 3372   2.666   2.750   1.745 -0.4755 -0.6027 -0.5197
  844SOL     OW 3373   2.585   2.325   1.145  0.1490  0.1234 -0.0101
  844SOL    HW1 3374   2.644   2.346   1.072  0.0635  0.7908  1.2252
  844SOL    HW2 3375   2.649   2.323   1.215  2.4435  0.1330 -2.5957
  844SOL     MW 3376   2.601   2.327   1.144  0.4405  0.2127 -0.1883
  845SOL     OW 3377   2.825   2.446   0.299 -0.2420  0.1344  0.2586
  845SOL    HW1 3378   2.762   2.373   0.301  1.1638 -0.3429 -1.3522
  845SOL    HW2 3379   2.837   2.488   0.384  2.9086  0.2863  1.3553
  845SOL     MW 3380   2.818   2.442   0.311  0.3592  0.0915  0.1908
  846SOL     OW 3381   1.533   2.909   0.744 -0.4991  0.2397 -0.2651
  846SOL    HW1 3382   1.601   2.951   0.798  2.8936 -1.2588 -1.2751
  846SOL    HW2 3383   1.451   2.911   0.803 -0.6694  0.8124  0.6323
  846SOL     MW 3384   1.531   2.915   0.759 -0.0739  0.1176 -0.2799
  847SOL     OW 3385   2.602   1.924   0.175  0.3321 -0.3603  0.1257
  847SOL    HW1 3386   2.683   1.883   0.187 -2.1392  0.1126 -1.4132
  847SOL    HW2 3387   2.569   1.884   0.088  2.2427  0.9313  0.6026
  847SOL     MW 3388   2.608   1.914   0.165  0.2581 -0.1275 -0.0144
  848SOL     OW 3389   2.442   2.131   1.299 -0.8865 -0.4959 -0.2011
  848SOL    HW1 3390   2.490   2.170   1.230  0.5023 -0.6854  0.3656
  848SOL    HW2 3391   2.414   2.043   1.282 -1.3283 -1.1145  0.3891
  848SOL     MW 3392   2.445   2.125   1.288 -0.7616 -0.6025 -0.0485
  849SOL     OW 3393   1.978   2.782   0.737 -0.1741 -0.1580 -0.3412
  849SOL    HW1 3394   2.013   2.728   0.803 -0.8522 -1.2248 -1.3714
  849SOL    HW2 3395   2.066   2.801   0.693 -2.1603 -0.0931  0.9599
  849SOL     MW 3396   1.994   2.778   0.740 -0.5257 -0.2902 -0.3055
  850SOL     OW 3397   2.208   1.954   1.676 -0.6805  0.7281  0.1442
  850SOL    HW1 3398   2.125   1.900   1.657 -1.8072  0.4337 -3.4306
  850SOL    HW2 3399   2.166   2.040   1.692 -0.6362 -1.9380  0.8304
  850SOL     MW 3400   2.191   1.958   1.676 -0.8233  0.3375 -0.2369
  851SOL     OW 3401   2.254   2.399   0.368 -0.1777  0.4438 -0.3310
  851SOL    HW1 3402   2.202   2.394   0.281 -0.0126 -1.3828  2.0224
  851SOL    HW2 3403   2.320   2.472   0.351 -0.1831  2.2699 -1.2019
  851SOL     MW 3404   2.256   2.408   0.354 -0.1566  0.4437 -0.1354
  852SOL     OW 3405   2.312   2.163   0.177  0.1841 -0.3262  0.1604
  852SOL    HW1 3406   2.305   2.246   0.232 -0.1007 -1.6264  0.5679
  852SOL    HW2 3407   2.406   2.165   0.142 -1.0782  0.6816 -0.4521
  852SOL     MW 3408   2.323   2.174   0.180 -0.0200 -0.3648  0.1334
  853SOL     OW 3409   2.463   2.452   1.976 -0.4867  0.1634 -0.3659
  853SOL    HW1 3410   2.477   2.488   1.890 -1.9819  2.1607 -0.6840
  853SOL    HW2 3411   2.555   2.448   2.005 -0.4750 -0.1606  1.6518
  853SOL     MW 3412   2.477   2.456   1.969 -0.6825  0.3842 -0.1417
  854SOL     OW 3413   2.832   2.276   0.788 -0.3984 -0.2863 -0.2836
  854SOL    HW1 3414   2.762   2.222   0.755 -0.6947 -1.7132  1.9512
  854SOL    HW2 3415   2.873   2.218   0.854 -1.3122  1.7583  1.2687
  854SOL     MW 3416   2.828   2.261   0.792 -0.5581 -0.2048  0.2161
  855SOL     OW 3417   2.665   2.222   0.325  0.2276 -0.0930  0.3039
  855SOL    HW1 3418   2.637   2.258   0.413  1.3563  1.0693  2.7721
  855SOL    HW2 3419   2.752   2.188   0.330 -1.6381  1.5013  0.6862
  855SOL     MW 3420   2.672   2.223   0.337  0.1304  0.2707  0.6800
  856SOL     OW 3421   2.189   1.926   0.232 -0.0173 -0.4354  0.2365
  856SOL    HW1 3422   2.094   1.922   0.247  0.0115 -1.7044  2.5590
  856SOL    HW2 3423   2.223   2.017   0.224  0.4041 -0.9763 -0.6457
  856SOL     MW 3424   2.181   1.938   0.233  0.0421 -0.6742  0.4266
  857SOL     OW 3425   2.591   2.018   0.485  0.4146  0.2411 -0.5019
  857SOL    HW1 3426   2.616   2.079   0.410  1.8981  1.8884 -1.5193
  857SOL    HW2 3427   2.515   1.976   0.453 -4.0830 -0.1102  0.7590
  857SOL     MW 3428   2.584   2.020   0.471  0.0169  0.4121 -0.4698
  858SOL     OW 3429   2.889   2.649   1.672 -0.1361  0.1224  0.0594
  858SOL    HW1 3430   2.966   2.687   1.718  0.3821 -1.5366 -1.1581
  858SOL    HW2 3431   2.873   2.561   1.706 -4.0021  1.5246 -1.0241
  858SOL     MW 3432   2.897   2.642   1.682 -0.5778  0.0885 -0.2442
  859SOL     OW 3433   2.127   2.491   0.862  0.2415  0.2496  0.1837
  859SOL    HW1 3434   2.111   2.452   0.773  2.0938 -0.1291  0.9658
  859SOL    HW2 3435   2.224   2.508   0.861 -1.1255  1.3172 -0.2703
  859SOL     MW 3436   2.138   2.488   0.850  0.3055  0.3405  0.2270
  860SOL     OW 3437   2.663   2.583   0.125  0.1082  0.3652 -0.3271
  860SOL    HW1 3438   2.717   2.565   0.204 -1.3177  1.5114  1.2919
  860SOL    HW2 3439   2.691   2.673   0.095  1.8871  0.1947  1.2745
  860SOL     MW 3440   2.674   2.593   0.132  0.1548  0.4939  0.0978
  861SOL     OW 3441   1.565   2.136   1.208  0.0739 -0.0908 -0.8285
  861SOL    HW1 3442   1.541   2.219   1.242 -2.0482  3.5129 -2.1067
  861SOL    HW2 3443   1.499   2.071   1.233  0.3377  0.2413 -2.6825
  861SOL     MW 3444   1.553   2.138   1.216 -0.1713  0.4285 -1.2418
  862SOL     OW 3445   2.411   1.869   1.516  0.3922 -1.1092  0.8040
  862SOL    HW1 3446   2.352   1.892   1.591  2.1711 -3.1047  1.1882
  862SOL    HW2 3447   2.365   1.855   1.429  1.1648  0.4008 -0.9127
  862SOL     MW 3448   2.397   1.870   1.514  0.7289 -1.1733  0.6282
  863SOL     OW 3449   0.026   1.799   1.181  0.0472  1.1710 -0.4681
  863SOL    HW1 3450   0.098   1.860   1.157  1.3864 -0.2711 -3.6333
  863SOL    HW2 3451  -0.027   1.851   1.235 -1.0545 -0.8416 -1.2866
  863SOL     MW 3452   0.029   1.814   1.185  0.0785  0.7152 -0.9937
  864SOL     OW 3453   0.014   1.839   0.826  0.1148 -0.0349 -0.5811
  864SOL    HW1 3454  -0.047   1.784   0.879  0.2176  1.7557  1.6254
  864SOL    HW2 3455   0.005   1.813   0.736 -0.1007  0.8657  2.0493
  864SOL     MW 3456   0.005   1.828   0.821  0.1000  0.3202  0.0571
  865SOL     OW 3457   2.551   2.171   0.051  0.5610 -0.2466 -0.1001
  865SOL    HW1 3458   2.571   2.091   0.097 -2.7983  2.0415 -1.2625
  865SOL    HW2 3459   2.503   2.150  -0.029  1.4071  1.1228  0.4122
  865SOL     MW 3460   2.547   2.158   0.046  0.2294  0.2360 -0.1859
  866SOL     OW 3461   2.633   2.341   1.615 -0.0490  0.3511  0.2930
  866SOL    HW1 3462   2.599   2.246   1.614  1.1555 -1.8348  1.4128
  866SOL    HW2 3463   2.683   2.335   1.531  4.3675  0.6011  2.3517
  866SOL     MW 3464   2.635   2.328   1.604  0.6926  0.0957  0.7124
  867SOL     OW 3465   0.041   2.703   1.828  0.2220 -0.7405  0.1311
  867SOL    HW1 3466   0.050   2.727   1.917 -2.5030  2.1738  0.8958
  867SOL    HW2 3467   0.045   2.790   1.779 -1.8222  0.1864  1.0145
  867SOL     MW 3468   0.042   2.718   1.833 -0.4073 -0.2337  0.3485
  868SOL     OW 3469   2.798   2.589   0.561  0.2135 -0.0946 -0.7523
  868SOL    HW1 3470   2.719   2.529   0.564 -2.1689  1.7622 -0.2146
  868SOL    HW2 3471   2.784   2.670   0.510 -1.4529 -0.3620  2.3771
  868SOL     MW 3472   2.786   2.592   0.555 -0.3207  0.1151 -0.2685
  869SOL     OW 3473   1.989   2.361   1.055  0.0257  0.7983  0.5248
  869SOL    HW1 3474   2.051   2.406   0.998 -0.9795  2.4015 -0.1582
  869SOL    HW2 3475   1.933   2.325   0.986 -2.7592 -2.7249 -1.2128
  869SOL     MW 3476   1.990   2.362   1.039 -0.4744  0.5450  0.2055
  870SOL     OW 3477   2.178   3.099   0.469 -0.0832  0.0074 -0.1378
  870SOL    HW1 3478   2.253   3.162   0.443 -1.8124  1.9522  2.6122
  870SOL    HW2 3479   2.227   3.016   0.459  3.8247  0.9440 -0.1757
  870SOL     MW 3480   2.195   3.096   0.464  0.2043  0.3875  0.2201
  871SOL     OW 3481   2.502   2.079   0.923  0.4760  0.4594 -0.3965
  871SOL    HW1 3482   2.447   2.033   0.856 -0.2885 -2.1835 -0.8423
  871SOL    HW2 3483   2.446   2.142   0.967  2.3348 -0.8101  0.0335
  871SOL     MW 3484   2.488   2.081   0.920  0.6203 -0.0568 -0.3986
  872SOL     OW 3485   2.053   2.525   1.425  0.0985  0.1043 -0.1174
  872SOL    HW1 3486   2.034   2.556   1.515 -0.7097  1.1838  1.7532
  872SOL    HW2 3487   1.975   2.487   1.386  0.1501 -1.6723 -1.2097
  872SOL     MW 3488   2.040   2.524   1.432 -0.0013  0.0123 -0.0147
  873SOL     OW 3489   2.842   2.072   1.956  0.2224 -0.2731  0.2147
  873SOL    HW1 3490   2.872   2.126   2.029  3.5124  0.4444 -2.3718
  873SOL    HW2 3491   2.907   2.094   1.889  2.9661 -1.1835 -1.8292
  873SOL     MW 3492   2.854   2.082   1.957  1.0185 -0.2986 -0.3962
  874SOL     OW 3493   2.382   1.557   2.445 -0.6972  0.0594 -0.1587
  874SOL    HW1 3494   2.334   1.520   2.375 -1.1132 -0.9003  0.0116
  874SOL    HW2 3495   2.455   1.487   2.447  2.3046 -2.5147 -2.0469
  874SOL     MW 3496   2.385   1.543   2.436 -0.3560 -0.4068 -0.3854
  875SOL     OW 3497   2.287   2.277   1.017 -0.6856  0.4064  0.8746
  875SOL    HW1 3498   2.324   2.334   0.949 -1.1457 -1.2980 -0.0622
  875SOL    HW2 3499   2.276   2.325   1.095 -0.0226  2.3458 -0.7706
  875SOL     MW 3500   2.290   2.291   1.018 -0.6589  0.4374  0.5339
  876SOL     OW 3501   3.027   2.345   1.255  0.4686  0.0177 -0.2649
  876SOL    HW1 3502   3.056   2.378   1.175 -0.7501  1.5171 -2.0516
  876SOL    HW2 3503   3.074   2.401   1.317  0.3994 -1.5695  0.1988
  876SOL     MW 3504   3.037   2.356   1.253  0.2986  0.0061 -0.4394
  877SOL     OW 3505   3.057   2.741   0.383 -0.0362  0.8056  0.3645
  877SOL    HW1 3506   3.144   2.780   0.399  0.6248 -2.7718  1.9917
  877SOL    HW2 3507   3.060   2.712   0.291  3.4360 -0.8372  0.5806
  877SOL     MW 3508   3.069   2.742   0.373  0.5091  0.1168  0.6077
  878SOL     OW 3509   2.364   1.846   1.251  0.5520 -0.0628 -0.3529
  878SOL    HW1 3510   2.313   1.778   1.211 -3.2392  1.2645  1.4649
  878SOL    HW2 3511   2.450   1.808   1.261  1.3380  0.6662 -0.1317
  878SOL     MW 3512   2.369   1.832   1.247  0.1555  0.2085 -0.0839
  879SOL     OW 3513   2.678   2.453   0.918 -0.2646  0.2619  0.4141
  879SOL    HW1 3514   2.746   2.510   0.953 -0.6727 -0.8314 -2.6957
  879SOL    HW2 3515   2.730   2.378   0.876  1.1016 -0.9160 -3.1023
  879SOL     MW 3516   2.694   2.450   0.917 -0.1382 -0.0378 -0.4602
  880SOL     OW 3517   2.576   2.188   0.696 -0.1827  0.0808  0.7604
  880SOL    HW1 3518   2.551   2.161   0.786  0.3335 -0.0124 -1.3145
  880SOL    HW2 3519   2.575   2.112   0.644 -1.1273  0.8446 -0.2596
  880SOL     MW 3520   2.573   2.174   0.701 -0.2392  0.1693  0.3521
  881SOL     OW 3521   2.958   2.691   0.765  0.0799 -0.0929  0.3455
  881SOL    HW1 3522   2.888   2.656   0.707 -2.8681  1.0114  0.0847
  881SOL    HW2 3523   3.034   2.663   0.716 -0.2235  0.1444 -0.6856
  881SOL     MW 3524   2.959   2.683   0.751 -0.3491  0.0841  0.1751
  882SOL     OW 3525   2.302   2.813   1.963 -0.2749  0.5155  0.0151
  882SOL    HW1 3526   2.284   2.798   1.871  0.2944 -3.0897  0.0700
  882SOL    HW2 3527   2.246   2.742   1.985 -1.0973  1.0925 -0.8749
  882SOL     MW 3528   2.293   2.801   1.953 -0.3083  0.1160 -0.0951
  883SOL     OW 3529   2.289   2.319   1.427 -0.1156 -0.2007  0.2612
  883SOL    HW1 3530   2.344   2.245   1.404 -0.7974 -1.0142 -0.2861
  883SOL    HW2 3531   2.212   2.294   1.370  0.3199 -1.9864  1.5278
  883SOL     MW 3532   2.286   2.306   1.416 -0.1481 -0.5436  0.3561
  884SOL     OW 3533   1.932   1.875   1.127  0.7097 -0.0550  0.2071
  884SOL    HW1 3534   1.875   1.952   1.098  0.9072  1.8332 -0.3966
  884SOL    HW2 3535   2.026   1.904   1.112 -0.1843 -0.0142 -1.7262
  884SOL     MW 3536   1.937   1.889   1.121  0.6178  0.1995 -0.1276
  885SOL     OW 3537   2.814   2.404   1.818  0.5669 -0.0342 -0.6207
  885SOL    HW1 3538   2.893   2.352   1.821 -0.7785  3.3712 -1.8214
  885SOL    HW2 3539   2.753   2.367   1.745 -0.9409 -0.0494 -1.1857
  885SOL     MW 3540   2.816   2.392   1.809  0.1904  0.4131 -0.8537
  886SOL     OW 3541   2.755   2.379   1.385  0.2290  0.2555  0.2642
  886SOL    HW1 3542   2.840   2.366   1.341 -1.3558  0.4260 -0.0134
  886SOL    HW2 3543   2.758   2.474   1.395  2.9238  1.3977 -1.7856
  886SOL     MW 3544   2.767   2.390   1.381  0.3755  0.4287 -0.0429
  887SOL     OW 3545   2.330   2.633   1.515  0.4557 -0.2420 -0.2882
  887SOL    HW1 3546   2.336   2.682   1.431  1.2372  0.1005  3.0764
  887SOL    HW2 3547   2.277   2.555   1.488  0.0158  1.6335 -2.7862
  887SOL     MW 3548   2.324   2.629   1.500  0.5007  0.0506 -0.1738
  888SOL     OW 3549   1.877   2.053   1.415  0.1489 -0.1650 -0.3539
  888SOL    HW1 3550   1.962   2.047   1.377  2.3785  0.6624  0.8967
  888SOL    HW2 3551   1.883   2.108   1.492 -1.3703  1.2559 -1.5584
  888SOL     MW 3552   1.889   2.060   1.420  0.2427  0.1317 -0.3478
  889SOL     OW 3553   2.343   2.002   2.112 -0.5872 -0.4847  0.1336
  889SOL    HW1 3554   2.428   2.002   2.165 -0.6686 -0.7701  1.9212
  889SOL    HW2 3555   2.344   2.077   2.049  2.3814  1.0702  2.6582
  889SOL     MW 3556   2.354   2.012   2.111 -0.2063 -0.3172  0.7026
  890SOL     OW 3557   0.106   2.332   0.177  0.2741  0.1534  0.3661
  890SOL    HW1 3558   0.059   2.414   0.186 -2.9681 -0.7098  0.9981
  890SOL    HW2 3559   0.082   2.277   0.256  0.0465  2.4241  0.6524
  890SOL     MW 3560   0.097   2.336   0.188 -0.1837  0.3391  0.4873
  891SOL     OW 3561   2.989   2.021   1.299 -0.5236 -0.0766 -0.2109
  891SOL    HW1 3562   3.050   2.057   1.367 -1.2222  0.1911  1.6883
  891SOL    HW2 3563   2.987   2.093   1.241 -0.7987  1.1559 -0.2310
  891SOL     MW 3564   2.997   2.035   1.301 -0.6520  0.1213  0.0370
  892SOL     OW 3565   2.389   2.357   2.924  0.5600 -0.0048 -0.5947
  892SOL    HW1 3566   2.441   2.273   2.922  1.4317 -1.6351 -2.3274
  892SOL    HW2 3567   2.455   2.426   2.931 -2.8567 -0.5235  0.7807
  892SOL     MW 3568   2.404   2.355   2.924  0.2242 -0.2884 -0.6419
  893SOL     OW 3569   1.580   2.434   1.242  0.0550 -0.6000  0.5029
  893SOL    HW1 3570   1.527   2.459   1.322 -0.4542  1.6196 -1.3886
  893SOL    HW2 3571   1.662   2.417   1.284 -3.2786  0.1823 -0.2114
  893SOL     MW 3572   1.584   2.435   1.258 -0.4520 -0.2040  0.1591
  894SOL     OW 3573   2.847   1.869   0.451 -0.4343 -0.6465 -0.4566
  894SOL    HW1 3574   2.761   1.904   0.446 -3.8411 -0.8860 -0.4323
  894SOL    HW2 3575   2.854   1.812   0.370  2.3266  0.1725  0.9140
  894SOL     MW 3576   2.836   1.866   0.439 -0.5195 -0.5700 -0.2726
  895SOL     OW 3577   2.097   2.208   1.248  0.5815  0.2539  0.1713
  895SOL    HW1 3578   2.071   2.250   1.162  0.3597 -1.2219  2.6400
  895SOL    HW2 3579   2.131   2.123   1.211 -0.5626  0.3458 -0.8439
  895SOL     MW 3580   2.098   2.202   1.232  0.4013  0.0713  0.3631
  896SOL     OW 3581   2.162   2.839   1.115  0.0982 -0.3101  0.1522
  896SOL    HW1 3582   2.228   2.835   1.181  1.3601  0.7206  0.4881
  896SOL    HW2 3583   2.101   2.767   1.146 -1.1626  1.4140 -0.8403
  896SOL     MW 3584   2.163   2.829   1.128  0.0984  0.0534  0.0656
  897SOL     OW 3585   2.980   2.903   0.130 -0.4132 -0.4273 -0.5672
  897SOL    HW1 3586   3.067   2.881   0.095 -0.6081 -1.5323  0.0361
  897SOL    HW2 3587   2.906   2.871   0.071  3.5570 -2.0115  0.0059
  897SOL     MW 3588   2.982   2.896   0.118  0.0849 -0.7821 -0.4120
  898SOL     OW 3589   2.087   0.184   1.453  0.1793 -0.6698 -0.4285
  898SOL    HW1 3590   2.021   0.129   1.415  1.7262 -0.2749  0.3049
  898SOL    HW2 3591   2.122   0.231   1.375 -0.1743  1.6671  0.2096
  898SOL     MW 3592   2.083   0.183   1.438  0.3367 -0.3093 -0.2476
  899SOL     OW 3593   2.891   2.944   0.660 -0.3477 -0.4756 -0.2177
  899SOL    HW1 3594   2.918   2.869   0.716  0.3325 -1.4984 -1.3648
  899SOL    HW2 3595   2.814   2.990   0.699 -0.6229  0.3456 -0.0696
  899SOL     MW 3596   2.884   2.940   0.672 -0.2943 -0.5022 -0.3495
  900SOL     OW 3597   0.130   2.411   1.038 -0.2079 -0.3229 -0.4749
  900SOL    HW1 3598   0.181   2.471   0.979  0.1220 -1.3855 -2.6774
  900SOL    HW2 3599   0.121   2.336   0.972 -2.3015 -0.7003  0.0691
  900SOL     MW 3600   0.136   2.409   1.022 -0.4406 -0.5129 -0.6937
  901SOL     OW 3601   1.796   2.902   1.673  0.2332 -0.0783  0.1091
  901SOL    HW1 3602   1.861   2.830   1.665 -0.4871  1.4264 -1.6688
  901SOL    HW2 3603   1.723   2.867   1.624 -1.9530  2.5322 -1.9155
  901SOL     MW 3604   1.795   2.888   1.666 -0.1503  0.4647 -0.3926
  902SOL     OW 3605   2.593   2.050   1.861  0.0667  0.2392  0.1188
  902SOL    HW1 3606   2.573   1.958   1.850  1.5013  1.4114  0.8709
  902SOL    HW2 3607   2.676   2.051   1.904 -0.0002 -1.6102 -1.2263
  902SOL     MW 3608   2.601   2.038   1.865  0.2471  0.1499  0.0406
  903SOL     OW 3609   1.586   2.748   0.511 -0.3964  0.4845 -0.7781
  903SOL    HW1 3610   1.644   2.693   0.567 -0.1848  0.1967  1.6785
  903SOL    HW2 3611   1.548   2.799   0.577  3.7841 -2.6647 -1.0599
  903SOL     MW 3612   1.589   2.748   0.527  0.1831  0.0310 -0.4912
  904SOL     OW 3613   2.493   2.559   1.711  0.3962 -0.0325 -0.2835
  904SOL    HW1 3614   2.443   2.591   1.637  0.2581 -2.3099  0.4320
  904SOL    HW2 3615   2.551   2.494   1.674 -0.6383 -0.1786  2.6847
  904SOL     MW 3616   2.494   2.555   1.696  0.2415 -0.3522  0.2025
  905SOL     OW 3617   2.308   2.500   2.209 -0.0096 -0.4157  0.1410
  905SOL    HW1 3618   2.377   2.480   2.151  0.3697  0.1925  2.3106
  905SOL    HW2 3619   2.268   2.420   2.249  0.4861  0.8772 -2.0574
  905SOL     MW 3620   2.312   2.487   2.207  0.1059 -0.1649  0.1372
  906SOL     OW 3621   2.401   2.467   0.837 -0.4353  0.6033  0.3179
  906SOL    HW1 3622   2.495   2.456   0.852 -0.7889 -1.8121 -0.2236
  906SOL    HW2 3623   2.396   2.560   0.854 -2.1718  0.4370  1.0041
  906SOL     MW 3624   2.412   2.478   0.841 -0.7111  0.2627  0.3370
  907SOL     OW 3625   2.594   2.926   1.281 -0.9607 -0.2962  0.2356
  907SOL    HW1 3626   2.672   2.961   1.326 -0.2608  0.9849 -2.1648
  907SOL    HW2 3627   2.629   2.895   1.201 -0.4154 -1.0260 -1.0512
  907SOL     MW 3628   2.609   2.926   1.277 -0.7964 -0.2234 -0.2509
  908SOL     OW 3629   2.725   2.365   3.092  0.8458  0.3340  0.0142
  908SOL    HW1 3630   2.667   2.293   3.120  2.5743  3.0453 -1.7625
  908SOL    HW2 3631   2.703   2.434   3.147 -1.8990 -1.0173  1.4043
  908SOL     MW 3632   2.714   2.364   3.103  0.7117  0.5134 -0.0368
  909SOL     OW 3633   1.573   0.183   1.110  0.1972 -0.1018  0.0122
  909SOL    HW1 3634   1.627   0.244   1.056 -2.3210  1.4220 -1.4618
  909SOL    HW2 3635   1.547   0.234   1.183 -0.4427 -2.1516 -0.8418
  909SOL     MW 3636   1.577   0.197   1.113 -0.2195 -0.1712 -0.2950
  910SOL     OW 3637   2.310   1.754   0.386  0.1496 -0.3485  0.0393
  910SOL    HW1 3638   2.237   1.699   0.409  3.6992 -3.0365 -0.5975
  910SOL    HW2 3639   2.276   1.820   0.318 -1.0968  0.2574 -1.2179
  910SOL     MW 3640   2.296   1.755   0.380  0.4534 -0.6232 -0.2106
  911SOL     OW 3641   2.216   2.270   1.692  0.3773 -0.3921  0.1525
  911SOL    HW1 3642   2.282   2.238   1.749  0.0691  0.5766 -3.4341
  911SOL    HW2 3643   2.266   2.284   1.609  1.2285 -0.3725 -0.9164
  911SOL     MW 3644   2.231   2.268   1.688  0.4490 -0.2617 -0.4617
  912SOL     OW 3645   2.830   1.956   1.514  0.1863 -0.4970  0.1445
  912SOL    HW1 3646   2.871   1.973   1.429 -0.0920  0.9999 -2.5837
  912SOL    HW2 3647   2.744   2.002   1.505 -1.7802 -1.6228 -1.8144
  912SOL     MW 3648   2.824   1.964   1.502 -0.1099 -0.4481 -0.4739
  913SOL     OW 3649   2.531   2.969   0.430  0.3554 -0.0073 -0.0845
  913SOL    HW1 3650   2.617   2.923   0.435  1.7814  1.6623 -0.8888
  913SOL    HW2 3651   2.466   2.899   0.430 -0.0516 -0.5847 -1.2001
  913SOL     MW 3652   2.534   2.954   0.431  0.4898  0.1368 -0.3378
  914SOL     OW 3653   2.746   1.642   3.070 -0.1752 -0.7628 -0.5509
  914SOL    HW1 3654   2.742   1.722   3.017 -1.7558 -3.0039  1.9583
  914SOL    HW2 3655   2.665   1.631   3.116  3.4545  0.4976 -4.3597
  914SOL     MW 3656   2.735   1.651   3.069  0.0952 -0.8922 -0.7224
  915SOL     OW 3657   1.831   0.236   0.186 -0.3197  0.9265 -0.1524
  915SOL    HW1 3658   1.878   0.167   0.232  1.6762  0.0375 -1.5547
  915SOL    HW2 3659   1.740   0.214   0.205  0.4126 -0.3712  0.9222
  915SOL     MW 3660   1.825   0.224   0.194  0.0403  0.6380 -0.1956
  916SOL     OW 3661   1.737   2.070   1.937 -0.5642  0.1841 -0.2731
  916SOL    HW1 3662   1.759   2.161   1.905 -0.0072  0.8606  0.2299
  916SOL    HW2 3663   1.772   2.011   1.870 -0.8890 -2.5259  0.9067
  916SOL     MW 3664   1.744   2.074   1.924 -0.5336 -0.0842 -0.0511
  917SOL     OW 3665   2.449   2.317   2.644  0.0563 -0.0266 -0.4650
  917SOL    HW1 3666   2.421   2.319   2.734  1.4092  2.8640 -0.5502
  917SOL    HW2 3667   2.428   2.399   2.599  2.3885  0.2599 -2.4599
  917SOL     MW 3668   2.443   2.328   2.650  0.5425  0.3926 -0.7395
  918SOL     OW 3669   2.060   1.643   2.704 -0.0199  0.1698  0.0267
  918SOL    HW1 3670   1.969   1.669   2.683  2.2284 -0.1939  0.4389
  918SOL    HW2 3671   2.121   1.711   2.655  1.5841  2.5605  0.4092
  918SOL     MW 3672   2.056   1.656   2.695  0.4884  0.4373  0.1316
  919SOL     OW 3673   0.059   2.379   2.263  0.5164 -0.1471  0.1176
  919SOL    HW1 3674  -0.014   2.316   2.236  0.9098  0.6249 -0.6477
  919SOL    HW2 3675   0.112   2.358   2.188  0.2165  0.7540  0.2017
  919SOL     MW 3676   0.056   2.368   2.249  0.5287  0.0737  0.0277
  920SOL     OW 3677   2.751   2.798   3.097 -0.1173 -0.4738  0.0220
  920SOL    HW1 3678   2.676   2.853   3.127  3.2518  0.6255 -0.0761
  920SOL    HW2 3679   2.742   2.779   3.003  0.7487 -0.2462 -2.9536
  920SOL     MW 3680   2.740   2.803   3.089  0.4415 -0.2987 -0.3835
  921SOL     OW 3681   2.463   2.620   2.651  0.3677  0.1949 -0.1175
  921SOL    HW1 3682   2.532   2.635   2.587 -2.3867  0.7219  2.1794
  921SOL    HW2 3683   2.514   2.567   2.721  0.5170  2.9957  2.0885
  921SOL     MW 3684   2.479   2.615   2.652  0.0240  0.6340  0.4766
  922SOL     OW 3685   1.996   2.776   0.310 -0.4728 -0.5869 -0.0173
  922SOL    HW1 3686   2.002   2.797   0.213 -0.3993  1.1123 -3.8950
  922SOL    HW2 3687   1.971   2.686   0.306  0.7128  2.1611 -1.7940
  922SOL     MW 3688   1.994   2.767   0.296 -0.3067 -0.0001 -0.7634
  923SOL     OW 3689   2.221   2.808   1.704 -0.0402  0.1322  0.4654
  923SOL    HW1 3690   2.248   2.738   1.638 -1.2256 -1.7687  0.8631
  923SOL    HW2 3691   2.196   2.892   1.656  0.8815  1.0218 -0.6401
  923SOL     MW 3692   2.222   2.810   1.689 -0.0750 -0.0013  0.3720
  924SOL     OW 3693   1.204   2.741   2.588  0.8241  0.2369  0.1028
  924SOL    HW1 3694   1.242   2.803   2.523 -2.2545 -1.2977 -1.6559
  924SOL    HW2 3695   1.271   2.677   2.617 -0.6789 -2.8319 -0.6710
  924SOL     MW 3696   1.218   2.741   2.583  0.2196 -0.3705 -0.2313
  925SOL     OW 3697   2.956   0.180   2.594 -0.1579  0.3355 -0.3637
  925SOL    HW1 3698   2.971   0.232   2.520  2.1495 -0.3028 -2.2885
  925SOL    HW2 3699   2.873   0.208   2.638 -1.8386 -0.4385  2.0351
  925SOL     MW 3700   2.947   0.190   2.590 -0.0752  0.1491 -0.3012
  926SOL     OW 3701   2.714   2.412   2.082  0.0887  0.2463  0.1519
  926SOL    HW1 3702   2.782   2.469   2.114  0.2207 -0.6719 -1.8042
  926SOL    HW2 3703   2.743   2.394   1.993 -1.3134 -0.6926  1.3716
  926SOL     MW 3704   2.727   2.417   2.075 -0.0789  0.0013  0.0547
  927SOL     OW 3705   2.375   0.148   0.307 -0.0546  0.2262  0.2541
  927SOL    HW1 3706   2.464   0.170   0.306 -0.4338 -1.1504 -1.4696
  927SOL    HW2 3707   2.354   0.105   0.224 -1.4685  4.5369  1.1013
  927SOL     MW 3708   2.384   0.145   0.296 -0.2912  0.6133  0.1385
  928SOL     OW 3709   2.081   2.479   1.808 -0.0966 -0.4129  0.4933
  928SOL    HW1 3710   2.138   2.411   1.772  0.7901  0.0218  1.2697
  928SOL    HW2 3711   2.106   2.502   1.898 -2.1126  0.3653 -1.0353
  928SOL     MW 3712   2.092   2.473   1.815 -0.2456 -0.2529  0.3940
  929SOL     OW 3713   2.695   2.374   2.448 -0.5730  0.0959 -0.1164
  929SOL    HW1 3714   2.782   2.354   2.410 -4.1859  1.3555 -2.5707
  929SOL    HW2 3715   2.699   2.323   2.533  1.4825  0.7066 -0.8560
  929SOL     MW 3716   2.707   2.365   2.454 -0.7785  0.3426 -0.5378
  930SOL     OW 3717   2.013   2.924   2.663 -0.1180  0.0933 -0.4111
  930SOL    HW1 3718   2.012   2.837   2.713 -1.8915 -2.9500 -1.0216
  930SOL    HW2 3719   2.105   2.941   2.658 -1.8057  1.4560 -2.0398
  930SOL     MW 3720   2.025   2.915   2.669 -0.5747 -0.1285 -0.7065
  931SOL     OW 3721   2.938   2.799   2.252  0.3136  0.0762  0.1380
  931SOL    HW1 3722   3.011   2.787   2.314  3.1780  2.0179 -2.3915
  931SOL    HW2 3723   2.969   2.856   2.186 -0.3321 -1.0615  3.1189
  931SOL     MW 3724   2.952   2.805   2.252  0.6063  0.1823  0.1975
  932SOL     OW 3725   2.867   1.900   2.568  0.7799  0.0999 -0.6238
  932SOL    HW1 3726   2.942   1.955   2.588  1.3312  2.9278 -0.4441
  932SOL    HW2 3727   2.846   1.940   2.483  2.4605 -0.8675 -3.0237
  932SOL     MW 3728   2.874   1.913   2.560  1.0743  0.3453 -0.9167
  933SOL     OW 3729   2.061   2.867   2.215  0.2854 -0.1495  0.9249
  933SOL    HW1 3730   2.138   2.921   2.243  0.2793  1.6850 -0.5333
  933SOL    HW2 3731   1.990   2.925   2.184  2.3137  0.9671  0.3704
  933SOL     MW 3732   2.062   2.881   2.215  0.5522  0.2399  0.6594
  934SOL     OW 3733   2.014   2.751   2.455 -0.7866 -0.0826 -0.7621
  934SOL    HW1 3734   2.003   2.819   2.527  0.1032 -3.0314  0.5270
  934SOL    HW2 3735   2.025   2.801   2.372 -0.6509  2.2205 -0.8417
  934SOL     MW 3736   2.014   2.767   2.454 -0.6513 -0.1678 -0.6025
  935SOL     OW 3737   2.632   1.525   1.804  0.1128  0.4068  0.1388
  935SOL    HW1 3738   2.723   1.537   1.766  0.3403 -0.4494 -2.0171
  935SOL    HW2 3739   2.581   1.533   1.722  0.9308 -0.4696 -2.5749
  935SOL     MW 3740   2.637   1.527   1.788  0.2507  0.1782 -0.5037
  936SOL     OW 3741   2.996   2.250   3.092  0.1153 -0.2299 -0.0038
  936SOL    HW1 3742   3.045   2.297   3.159 -0.5990  1.3873  1.2669
  936SOL    HW2 3743   2.907   2.292   3.079 -0.8291  1.4186  1.6523
  936SOL     MW 3744   2.991   2.262   3.099 -0.1035  0.2010  0.3824
  937SOL     OW 3745   2.052   2.172   2.673  0.4484  0.0119  0.7190
  937SOL    HW1 3746   2.116   2.116   2.715 -5.4986  0.5718  0.3012
  937SOL    HW2 3747   2.048   2.151   2.576  1.4977  1.5101  1.1204
  937SOL     MW 3748   2.060   2.162   2.665 -0.1978  0.2834  0.7168
  938SOL     OW 3749   2.294   1.817   1.918  0.2054 -0.0968  0.5427
  938SOL    HW1 3750   2.276   1.878   1.840 -0.3347  1.4308 -1.1209
  938SOL    HW2 3751   2.310   1.867   1.999  1.2430 -0.3076  1.5995
  938SOL     MW 3752   2.294   1.832   1.918  0.2710  0.0770  0.4626
  939SOL     OW 3753   2.817   1.999   2.308 -0.0479 -0.1204  0.0869
  939SOL    HW1 3754   2.842   1.932   2.245  0.8157  0.7147  0.6800
  939SOL    HW2 3755   2.719   2.010   2.302  0.0543 -2.2609  1.2378
  939SOL     MW 3756   2.807   1.991   2.299  0.0795 -0.2927  0.3170
  940SOL     OW 3757   2.321   0.136   2.727 -0.1345  0.0614 -0.5072
  940SOL    HW1 3758   2.310   0.040   2.694  0.0139 -0.6702  0.6302
  940SOL    HW2 3759   2.348   0.131   2.816 -1.0796  1.6932  0.9698
  940SOL     MW 3760   2.323   0.123   2.734 -0.2396  0.1802 -0.1623
  941SOL     OW 3761   0.227   2.329   2.042 -0.3295 -0.4513 -0.3374
  941SOL    HW1 3762   0.326   2.317   2.068 -2.5692  1.7396 -0.8062
  941SOL    HW2 3763   0.229   2.350   1.953  0.5401  1.9608  4.2383
  941SOL     MW 3764   0.240   2.330   2.034 -0.5103  0.1560  0.2045
  942SOL     OW 3765   2.914   2.223   2.183  0.6898  0.0005  0.1074
  942SOL    HW1 3766   2.839   2.269   2.161  0.9181  0.0382  0.5170
  942SOL    HW2 3767   2.876   2.154   2.238  2.1401  1.9044 -1.7598
  942SOL     MW 3768   2.899   2.220   2.187  0.9113  0.2567 -0.0849
  943SOL     OW 3769   0.401   1.994   2.281  0.2505 -0.3729 -0.6962
  943SOL    HW1 3770   0.338   2.039   2.345 -0.3764  0.0829  0.7689
  943SOL    HW2 3771   0.487   1.997   2.320 -0.2265 -0.8130  2.9755
  943SOL     MW 3772   0.404   2.000   2.294  0.1049 -0.3708 -0.0185
  944SOL     OW 3773   2.108   2.621   2.086 -0.2214  0.1845  0.5010
  944SOL    HW1 3774   2.175   2.580   2.143 -0.4591  0.5121  0.0676
  944SOL    HW2 3775   2.089   2.693   2.143 -0.7903 -0.1647  1.3388
  944SOL     MW 3776   2.114   2.625   2.101 -0.3278  0.1816  0.5544
  945SOL     OW 3777   2.777   2.722   2.834  0.1601  0.0885  0.4135
  945SOL    HW1 3778   2.734   2.636   2.856 -3.2563 -0.2525  0.0534
  945SOL    HW2 3779   2.822   2.711   2.747 -1.2141 -0.1387  0.8503
  945SOL     MW 3780   2.778   2.709   2.826 -0.4720  0.0135  0.4236
  946SOL     OW 3781   2.446   2.740   2.268  0.5453 -0.3800  0.3745
  946SOL    HW1 3782   2.484   2.756   2.182 -2.1185  0.4273  0.0359
  946SOL    HW2 3783   2.407   2.656   2.266  0.1103  0.7779 -1.8019
  946SOL     MW 3784   2.446   2.731   2.256  0.1364 -0.1207  0.0426
  947SOL     OW 3785   2.013   0.048   0.234 -0.4517  0.5352 -0.2324
  947SOL    HW1 3786   2.037   0.008   0.156  1.7450 -0.9253  0.0894
  947SOL    HW2 3787   2.083   0.028   0.309 -1.1384  3.3101 -1.4050
  947SOL     MW 3788   2.026   0.040   0.233 -0.2525  0.7086 -0.3446
  948SOL     OW 3789   1.796   3.075   2.645  0.0973 -0.3150  0.2329
  948SOL    HW1 3790   1.878   3.016   2.644 -0.7680 -0.3572  0.9881
  948SOL    HW2 3791   1.765   3.088   2.552 -0.7360 -0.0267  1.9114
  948SOL     MW 3792   1.803   3.069   2.633 -0.1268 -0.2825  0.5540
  949SOL     OW 3793   2.539   1.994   2.280 -0.0267 -0.6182 -0.2975
  949SOL    HW1 3794   2.511   1.903   2.316  0.0500 -2.7212  3.7662
  949SOL    HW2 3795   2.501   2.057   2.342 -2.0991 -1.1814  0.8659
  949SOL     MW 3796   2.530   1.991   2.293 -0.2900 -0.9700  0.3921
  950SOL     OW 3797   2.244   2.564   3.017  0.6960  0.0737  0.1584
  950SOL    HW1 3798   2.288   2.491   2.963  2.9581  1.2260 -2.0152
  950SOL    HW2 3799   2.173   2.597   2.969  3.4053 -0.1291  0.2266
  950SOL     MW 3800   2.241   2.559   3.004  1.3519  0.1990 -0.1194
  951SOL     OW 3801   2.964   2.065   2.835  0.2775  0.5608 -0.4029
  951SOL    HW1 3802   2.956   2.125   2.906 -1.2859 -0.9583 -1.1624
  951SOL    HW2 3803   3.038   2.102   2.791  3.3831 -0.1106  1.0245
  951SOL     MW 3804   2.973   2.078   2.838  0.4809  0.2718 -0.3148
  952SOL     OW 3805   3.075   1.689   2.103 -0.2209 -0.0030  0.2679
  952SOL    HW1 3806   3.005   1.741   2.065  0.3062  0.1701 -0.4097
  952SOL    HW2 3807   3.151   1.747   2.126  0.3147 -1.4076 -0.2084
  952SOL     MW 3808   3.076   1.704   2.101 -0.0807 -0.1655  0.1157
  953SOL     OW 3809   1.969   1.807   2.941 -0.2855  0.2771  0.3452
  953SOL    HW1 3810   1.870   1.798   2.939  0.0863  1.9749 -1.3781
  953SOL    HW2 3811   2.014   1.737   2.894  1.2116 -1.1225  0.4537
  953SOL     MW 3812   1.962   1.797   2.935 -0.0389  0.3164  0.1321
  954SOL     OW 3813   2.485   2.103   2.892 -0.2880 -0.1633 -0.4588
  954SOL    HW1 3814   2.401   2.086   2.856  1.9824 -2.1516 -3.0508
  954SOL    HW2 3815   2.546   2.087   2.821  0.2306 -2.5473 -0.5985
  954SOL     MW 3816   2.482   2.098   2.878  0.0800 -0.7402 -0.8192
  955SOL     OW 3817   1.579   1.630   2.519  0.6027  0.2033 -0.0073
  955SOL    HW1 3818   1.567   1.668   2.434  0.5737  1.7480 -1.4297
  955SOL    HW2 3819   1.653   1.664   2.560 -3.4820 -1.6735 -1.9635
  955SOL     MW 3820   1.587   1.639   2.514  0.0600  0.1595 -0.4531
  956SOL     OW 3821   2.639   2.474   2.838  0.4525 -0.4154 -0.0381
  956SOL    HW1 3822   2.671   2.436   2.919 -1.2075  0.6806 -2.1342
  956SOL    HW2 3823   2.627   2.399   2.782 -0.1420  0.0058 -2.1032
  956SOL     MW 3824   2.641   2.459   2.841  0.1550 -0.2152 -0.5871
  957SOL     OW 3825   2.275   2.812   0.387 -0.4985  0.6809  0.0008
  957SOL    HW1 3826   2.187   2.799   0.358 -0.4613 -1.6214  0.3858
  957SOL    HW2 3827   2.265   2.796   0.480 -2.2242  0.9986  0.6829
  957SOL     MW 3828   2.262   2.808   0.395 -0.7213  0.4191  0.1416
  958SOL     OW 3829   2.008   2.678   2.818 -0.3856 -0.1510  0.3991
  958SOL    HW1 3830   1.987   2.606   2.751  1.5359  1.5319  2.3380
  958SOL    HW2 3831   1.931   2.674   2.878 -0.4676 -2.4214 -0.9038
  958SOL     MW 3832   1.995   2.668   2.817 -0.1429 -0.2285  0.4830
  959SOL     OW 3833   2.440   2.586   0.305  0.4067  0.1716  0.2947
  959SOL    HW1 3834   2.516   2.579   0.243  3.2790 -1.4706 -2.4707
  959SOL    HW2 3835   2.402   2.674   0.297  0.7967  2.8975 -0.2334
  959SOL     MW 3836   2.445   2.597   0.296  0.8371  0.3146 -0.1398
  960SOL     OW 3837   1.900   2.316   2.285  0.0836 -0.0777 -0.3203
  960SOL    HW1 3838   1.861   2.229   2.278 -1.8612 -1.1530 -1.7595
  960SOL    HW2 3839   1.829   2.365   2.326  0.8634 -1.4771  2.7107
  960SOL     MW 3840   1.886   2.311   2.289 -0.0701 -0.4042 -0.1103
  961SOL     OW 3841   2.163   2.320   2.357 -0.0770  0.1511 -0.1291
  961SOL    HW1 3842   2.080   2.307   2.316 -2.8065 -3.5985 -2.0739
  961SOL    HW2 3843   2.157   2.399   2.406 -0.3956 -0.2371  0.0779
  961SOL     MW 3844   2.151   2.329   2.358 -0.4791 -0.3948 -0.3584
  962SOL     OW 3845   2.228   2.026   2.807  0.2396 -0.5918 -0.1205
  962SOL    HW1 3846   2.189   2.003   2.893  0.8570  0.1066 -1.7009
  962SOL    HW2 3847   2.247   1.947   2.758  1.4693  0.6982 -1.4381
  962SOL     MW 3848   2.225   2.012   2.812  0.4833 -0.3294 -0.5029
  963SOL     OW 3849   1.847   2.587   2.035  0.3388 -0.5286 -0.7593
  963SOL    HW1 3850   1.934   2.584   2.071 -2.6477  1.7167  1.4857
  963SOL    HW2 3851   1.842   2.503   1.990  0.3121  2.9402  0.9620
  963SOL     MW 3852   1.858   2.575   2.034 -0.0588  0.2253 -0.2360
  964SOL     OW 3853   1.869   1.975   2.749 -0.0073 -0.4389  0.3547
  964SOL    HW1 3854   1.934   2.047   2.714  0.3661  0.4013 -0.5234
  964SOL    HW2 3855   1.906   1.931   2.824 -1.7694  0.3380 -5.1293
  964SOL     MW 3856   1.882   1.979   2.754 -0.1905 -0.2256 -0.4847
  965SOL     OW 3857   2.235   2.719   0.643  0.7659  0.5089  0.7398
  965SOL    HW1 3858   2.176   2.648   0.633  0.2854  0.6152 -1.2143
  965SOL    HW2 3859   2.266   2.726   0.734  1.3695  0.3924  0.5723
  965SOL     MW 3860   2.231   2.711   0.654  0.7821  0.5076  0.4599
  966SOL     OW 3861   2.626   2.645   2.439 -0.5137 -0.4052  0.2849
  966SOL    HW1 3862   2.563   2.658   2.370 -0.3641  1.9271  1.3727
  966SOL    HW2 3863   2.643   2.544   2.433  0.0059 -0.8225 -0.0335
  966SOL     MW 3864   2.620   2.633   2.429 -0.4254 -0.1526  0.3864
  967SOL     OW 3865   2.904   3.036   2.903  0.9901 -0.0187 -0.0120
  967SOL    HW1 3866   2.888   2.949   2.934 -0.9206  1.6741  0.4339
  967SOL    HW2 3867   2.820   3.051   2.854 -0.5994 -0.1339  2.3338
  967SOL     MW 3868   2.890   3.027   2.900  0.5283  0.1894  0.3563
  968SOL     OW 3869   3.046   2.592   2.928 -0.4781  0.0287  0.0170
  968SOL    HW1 3870   2.969   2.645   2.918  0.3173  2.5160 -2.9218
  968SOL    HW2 3871   3.031   2.540   2.842 -1.2545  0.5933  0.7543
  968SOL     MW 3872   3.034   2.592   2.916 -0.4756  0.4313 -0.2735
  969SOL     OW 3873   1.514   2.129   1.713 -0.2866  0.1908 -0.3436
  969SOL    HW1 3874   1.593   2.076   1.698  1.8538 -2.9338  0.0895
  969SOL    HW2 3875   1.500   2.138   1.807 -0.2290  1.5613 -0.0834
  969SOL     MW 3876   1.522   2.123   1.724  0.0034 -0.0406 -0.2521
  970SOL     OW 3877   1.681   1.672   1.838  0.6331 -0.8647 -0.2643
  970SOL    HW1 3878   1.725   1.655   1.920 -2.9401 -0.5663 -1.1619
  970SOL    HW2 3879   1.610   1.728   1.866  0.2975  1.6609 -1.0466
  970SOL     MW 3880   1.678   1.677   1.852  0.1174 -0.4921 -0.4860
  971SOL     OW 3881   1.794   0.028   2.372 -0.4210 -0.2564  0.6595
  971SOL    HW1 3882   1.817  -0.026   2.291 -1.6249 -2.6808 -5.5697
  971SOL    HW2 3883   1.874   0.068   2.392  1.3366 -0.1336 -2.5862
  971SOL     MW 3884   1.808   0.026   2.364 -0.3480 -0.5601 -0.5906
  972SOL     OW 3885   0.281   2.800   2.503 -0.3441  0.0915 -0.7080
  972SOL    HW1 3886   0.306   2.719   2.545  0.1606 -0.2976 -0.4364
  972SOL    HW2 3887   0.350   2.853   2.545 -0.3584 -0.9295 -1.9077
  972SOL     MW 3888   0.294   2.796   2.514 -0.2794 -0.0945 -0.8304
  973SOL     OW 3889   2.612   0.025   2.096 -0.7582 -0.1013  0.5875
  973SOL    HW1 3890   2.636  -0.068   2.079  1.3231  0.9720 -0.9625
  973SOL    HW2 3891   2.602   0.066   2.010 -0.2731  0.7790  4.8157
  973SOL     MW 3892   2.614   0.018   2.083 -0.4196  0.1565  0.9409
  974SOL     OW 3893   2.097   0.281   2.789 -0.5413  0.3946 -0.1192
  974SOL    HW1 3894   2.183   0.242   2.769 -1.2015 -2.7637 -1.0998
  974SOL    HW2 3895   2.053   0.195   2.810  1.6837  0.9540 -1.1847
  974SOL     MW 3896   2.103   0.265   2.789 -0.3349  0.0517 -0.3891
  975SOL     OW 3897   2.189   2.560   2.525 -0.5050  0.0802 -0.1831
  975SOL    HW1 3898   2.264   2.598   2.574  0.5164  1.0789  2.1238
  975SOL    HW2 3899   2.128   2.631   2.507 -0.1369 -0.4866  0.0675
  975SOL     MW 3900   2.191   2.574   2.529 -0.3217  0.1372  0.1544
  976SOL     OW 3901   0.248   0.398   1.717  0.6445  0.3872  0.7054
  976SOL    HW1 3902   0.327   0.349   1.754 -1.0781  1.0385  1.6341
  976SOL    HW2 3903   0.182   0.339   1.688  0.9668 -1.7579 -0.2858
  976SOL     MW 3904   0.250   0.384   1.718  0.4597  0.1901  0.6971
  977SOL     OW 3905   1.736   2.742   2.464  0.5538  0.0409 -0.0599
  977SOL    HW1 3906   1.723   2.645   2.456  0.5710  2.1676  0.4384
  977SOL    HW2 3907   1.826   2.750   2.431  0.8691 -0.3055 -0.4255
  977SOL     MW 3908   1.746   2.730   2.458  0.5977  0.2758 -0.0424
   3.10000   3.10000   3.10000
