977 TIP4P/2005f water molecules t=   1.61000 step= 1610
 3908
    1SOL     OW    1   0.400   0.808   0.107 -0.2067 -0.2620  0.3894
    1SOL    HW1    2   0.387   0.814   0.016  0.5419 -3.5925 -0.2480
    1SOL    HW2    3   0.399   0.718   0.140 -0.4400 -0.8621 -1.6823
    1SOL     MW    4   0.398   0.797   0.099 -0.1387 -0.7806  0.0320
    2SOL     OW    5   0.325   3.010   1.064 -0.0268 -0.6428 -0.0503
    2SOL    HW1    6   0.370   3.098   1.061 -1.9005  0.2331  2.1262
    2SOL    HW2    7   0.235   3.035   1.083  0.9665  1.1200  0.9072
    2SOL     MW    8   0.319   3.025   1.066 -0.1430 -0.2946  0.3632
    3SOL     OW    9   2.628   0.347   0.966  0.0798  0.5080 -0.0002
    3SOL    HW1   10   2.660   0.426   0.940 -1.5253 -0.4952  3.6047
    3SOL    HW2   11   2.635   0.362   1.061  0.0902  1.1103 -0.5869
    3SOL     MW   12   2.633   0.360   0.975 -0.1306  0.4551  0.3980
    4SOL     OW   13   2.999   1.694   0.528  0.1400 -0.7609  0.0359
    4SOL    HW1   14   2.938   1.758   0.495 -0.6078 -1.0947  0.4112
    4SOL    HW2   15   3.075   1.697   0.463 -0.2552  1.0352 -1.4747
    4SOL     MW   16   3.001   1.703   0.515 -0.0108 -0.5680 -0.1139
    5SOL     OW   17   1.634   1.409   0.643 -0.6517  0.1204  0.1001
    5SOL    HW1   18   1.656   1.408   0.731 -1.3553  3.3635  0.6068
    5SOL    HW2   19   1.549   1.446   0.647  0.6557 -0.1572  0.6700
    5SOL     MW   20   1.626   1.413   0.655 -0.5721  0.5116  0.2422
    6SOL     OW   21   0.798   1.435   0.587  0.1967 -0.2802  0.1202
    6SOL    HW1   22   0.700   1.438   0.603  0.3489 -0.8526 -0.0984
    6SOL    HW2   23   0.819   1.350   0.621  0.3103 -0.3635 -3.5213
    6SOL     MW   24   0.788   1.424   0.594  0.2317 -0.3667 -0.3891
    7SOL     OW   25   1.922   1.051   0.027 -0.2988  0.5525 -0.0367
    7SOL    HW1   26   1.974   1.127   0.027  1.6856 -2.5948  1.4581
    7SOL    HW2   27   1.935   1.014   0.119  1.7013 -0.0052  0.3303
    7SOL     MW   28   1.931   1.056   0.039  0.2269  0.0636  0.2090
    8SOL     OW   29   0.787   1.473   1.114  0.0787 -0.0471 -0.5172
    8SOL    HW1   30   0.873   1.509   1.127  1.5211 -2.0270 -1.5576
    8SOL    HW2   31   0.781   1.379   1.120  0.7737 -0.3247 -2.2039
    8SOL     MW   32   0.797   1.465   1.117  0.3607 -0.3450 -0.8771
    9SOL     OW   33   0.964   0.466   1.354 -0.4471 -0.3706  0.4018
    9SOL    HW1   34   0.926   0.391   1.298 -1.3914 -0.8235 -0.6462
    9SOL    HW2   35   1.014   0.412   1.416 -1.8853 -0.6977 -2.6339
    9SOL     MW   36   0.965   0.449   1.355 -0.7614 -0.4735 -0.1370
   10SOL     OW   37   0.285   0.872   0.476  0.1380  0.0693 -0.3396
   10SOL    HW1   38   0.376   0.877   0.439  1.2151 -0.6555  1.1996
   10SOL    HW2   39   0.280   0.906   0.565  0.2462 -0.5579  0.4431
   10SOL     MW   40   0.296   0.877   0.483  0.2944 -0.1091 -0.0333
   11SOL     OW   41   0.764   1.130   1.493  0.1136 -0.6614 -0.5591
   11SOL    HW1   42   0.824   1.140   1.570 -1.2764  4.4216 -0.4954
   11SOL    HW2   43   0.785   1.042   1.459 -2.5458  0.0983 -1.7641
   11SOL     MW   44   0.774   1.119   1.499 -0.4206  0.1095 -0.7097
   12SOL     OW   45   3.075   1.095   0.870  0.2131 -0.4955 -0.2823
   12SOL    HW1   46   3.105   1.158   0.935  2.8264 -2.2999  0.1506
   12SOL    HW2   47   3.045   1.157   0.799  2.2243 -1.4534  0.8476
   12SOL     MW   48   3.075   1.111   0.869  0.8232 -0.8599 -0.0761
   13SOL     OW   49   1.806   1.424   1.277  0.3121 -0.3194  0.0797
   13SOL    HW1   50   1.814   1.349   1.222 -0.7431 -3.1597  1.2779
   13SOL    HW2   51   1.891   1.473   1.267 -0.7069  0.6463 -1.2357
   13SOL     MW   52   1.818   1.421   1.268  0.0384 -0.5667  0.0642
   14SOL     OW   53   0.521   0.356   1.787  0.3674 -0.0369 -0.7600
   14SOL    HW1   54   0.466   0.279   1.798  1.7777  0.5122 -3.9779
   14SOL    HW2   55   0.535   0.368   1.694  1.2593 -3.0399  1.2831
   14SOL     MW   56   0.516   0.347   1.776  0.6712 -0.3607 -0.9150
   15SOL     OW   57   2.003   0.416   1.014  0.4878  0.1520 -0.2914
   15SOL    HW1   58   1.997   0.504   1.050 -0.1974 -0.1024 -1.5197
   15SOL    HW2   59   2.073   0.439   0.949  1.1118  1.1346 -1.8995
   15SOL     MW   60   2.011   0.430   1.010  0.4797  0.2481 -0.6656
   16SOL     OW   61   0.304   1.824   0.289  0.4363  0.2850  0.1467
   16SOL    HW1   62   0.398   1.797   0.293  2.5472  0.9551 -1.2497
   16SOL    HW2   63   0.309   1.913   0.324  2.4047 -2.2764  2.1406
   16SOL     MW   64   0.317   1.832   0.294  0.9745  0.0355  0.2255
   17SOL     OW   65   1.108   0.885   1.434  0.1401 -0.6871  0.0422
   17SOL    HW1   66   1.143   0.858   1.522  0.5670 -1.6363  2.1518
   17SOL    HW2   67   1.015   0.880   1.438  1.3665 -1.1182 -1.4211
   17SOL     MW   68   1.100   0.881   1.446  0.3582 -0.8692  0.1275
   18SOL     OW   69   0.092   1.649   0.347 -1.3375  0.4813  0.5091
   18SOL    HW1   70   0.169   1.709   0.334  2.4657 -0.8066 -0.9078
   18SOL    HW2   71   0.070   1.607   0.265 -2.4361 -0.7193 -3.2116
   18SOL     MW   72   0.100   1.651   0.335 -0.9807  0.1530 -0.1687
   19SOL     OW   73   0.076   1.323   0.965 -0.1110  0.3203  0.2411
   19SOL    HW1   74   0.118   1.365   0.886  0.4343 -1.0198  2.8062
   19SOL    HW2   75  -0.014   1.355   0.973 -2.5982 -1.2548  4.4520
   19SOL     MW   76   0.070   1.333   0.955 -0.3672 -0.0643  1.1351
   20SOL     OW   77   0.444   2.114   1.274  0.2112  0.2728 -0.0003
   20SOL    HW1   78   0.392   2.039   1.232 -0.3922  0.8479 -1.9195
   20SOL    HW2   79   0.402   2.146   1.358  0.3259 -0.2234 -0.7297
   20SOL     MW   80   0.432   2.108   1.280  0.1467  0.2832 -0.3497
   21SOL     OW   81   0.570   0.855   0.429  0.0156 -0.0428 -0.2856
   21SOL    HW1   82   0.646   0.881   0.492  0.9742  3.8308  0.2284
   21SOL    HW2   83   0.593   0.853   0.334 -0.9719 -0.3400  1.4940
   21SOL     MW   84   0.583   0.858   0.425  0.0118  0.4291  0.0170
   22SOL     OW   85   1.531   0.713   1.018 -0.2886 -0.0390  0.1834
   22SOL    HW1   86   1.516   0.707   0.927 -1.7164  1.7301  0.2246
   22SOL    HW2   87   1.455   0.755   1.051 -0.0257 -0.6359  3.1865
   22SOL     MW   88   1.519   0.718   1.010 -0.4423  0.1157  0.5851
   23SOL     OW   89   3.088   0.799   0.724  0.1931  0.3839  0.6789
   23SOL    HW1   90   3.132   0.722   0.767 -1.7278  0.6548  1.7235
   23SOL    HW2   91   3.150   0.872   0.725 -1.7883  2.4397 -0.5397
   23SOL     MW   92   3.102   0.799   0.729 -0.3218  0.6909  0.6559
   24SOL     OW   93   2.083   2.206   0.038 -0.2806  0.4866  0.4003
   24SOL    HW1   94   2.055   2.230   0.126 -0.2215 -2.5643  0.1849
   24SOL    HW2   95   2.132   2.123   0.049  1.2605  1.8142  3.6936
   24SOL     MW   96   2.085   2.199   0.051 -0.0695  0.2593  0.8064
   25SOL     OW   97   0.178   1.402   0.432 -0.1827  0.1553  0.0494
   25SOL    HW1   98   0.154   1.494   0.424  0.0344 -2.6892 -1.0782
   25SOL    HW2   99   0.205   1.371   0.347  0.4197 -0.4342 -0.9375
   25SOL     MW  100   0.178   1.410   0.419 -0.0746 -0.2978 -0.2296
   26SOL     OW  101   1.981   1.023   0.295 -0.2578  0.0940 -0.3235
   26SOL    HW1  102   1.921   1.060   0.363 -2.5576 -0.5119 -2.1459
   26SOL    HW2  103   2.035   1.103   0.271 -2.2413  0.2313 -2.0758
   26SOL     MW  104   1.981   1.039   0.301 -0.8230  0.0322 -0.7952
   27SOL     OW  105   1.876   1.368   0.144 -0.7126  0.6788  0.1744
   27SOL    HW1  106   1.811   1.432   0.180 -0.7138  1.3439  2.2942
   27SOL    HW2  107   1.929   1.353   0.222  0.1941 -1.7174  1.1769
   27SOL     MW  108   1.874   1.374   0.159 -0.5931  0.4504  0.5863
   28SOL     OW  109   0.429   0.930   2.001 -0.1466  0.5611 -0.3301
   28SOL    HW1  110   0.465   0.939   2.087 -0.3746 -1.5937 -1.1171
   28SOL    HW2  111   0.342   0.913   2.021 -0.5632 -0.9087  0.0416
   28SOL     MW  112   0.422   0.929   2.015 -0.2317  0.0829 -0.3849
   29SOL     OW  113   0.225   1.388   0.726  0.0625 -0.2546  0.1702
   29SOL    HW1  114   0.246   1.486   0.741 -2.5620 -1.2236  1.4805
   29SOL    HW2  115   0.181   1.374   0.642  0.0903  0.7896 -0.5804
   29SOL     MW  116   0.222   1.399   0.717 -0.2801 -0.2447  0.2440
   30SOL     OW  117   0.766   1.208   1.236 -0.4448 -0.0935 -0.9902
   30SOL    HW1  118   0.671   1.220   1.233 -0.4888  0.2547  0.7365
   30SOL    HW2  119   0.779   1.183   1.328 -3.1513 -2.0315  1.1660
   30SOL     MW  120   0.755   1.207   1.248 -0.8077 -0.3032 -0.4779
   31SOL     OW  121   0.492   0.306   0.188 -0.0211 -0.1311 -0.1243
   31SOL    HW1  122   0.523   0.246   0.255 -0.7997 -1.3958  0.4587
   31SOL    HW2  123   0.497   0.269   0.097  1.0316  2.1042  1.0811
   31SOL     MW  124   0.497   0.293   0.185  0.0150 -0.0030  0.1117
   32SOL     OW  125   2.730   0.972   1.096 -0.0272 -0.4369 -0.0143
   32SOL    HW1  126   2.696   0.878   1.103 -1.6403 -1.9320  0.1806
   32SOL    HW2  127   2.827   0.962   1.081 -2.2308 -1.2482  1.2780
   32SOL     MW  128   2.739   0.959   1.095 -0.5308 -0.7412  0.1819
   33SOL     OW  129   1.660   1.250   0.386 -0.4486 -0.1134 -0.6063
   33SOL    HW1  130   1.752   1.237   0.395  0.5598 -0.5979  0.1816
   33SOL    HW2  131   1.628   1.292   0.469 -0.9343 -3.3769  0.1008
   33SOL     MW  132   1.668   1.254   0.398 -0.3796 -0.6079 -0.4090
   34SOL     OW  133   1.163   1.943   1.147 -0.7144  0.5154 -0.7428
   34SOL    HW1  134   1.078   1.989   1.173 -0.0233 -0.3852  1.9201
   34SOL    HW2  135   1.226   1.968   1.223  0.9737  0.3361 -0.3909
   34SOL     MW  136   1.160   1.953   1.160 -0.4005  0.3729 -0.3450
   35SOL     OW  137   0.331   0.147   1.808 -1.1493 -0.4699 -0.1620
   35SOL    HW1  138   0.354   0.094   1.887  1.2637  1.6114  1.6438
   35SOL    HW2  139   0.329   0.088   1.735  1.6105  1.9774 -1.3728
   35SOL     MW  140   0.333   0.132   1.809 -0.4668  0.1276 -0.0835
   36SOL     OW  141   1.927   1.978   0.587 -0.0933  0.2589  0.4220
   36SOL    HW1  142   1.891   1.974   0.500 -1.0034  1.5275 -0.2941
   36SOL    HW2  143   1.957   1.892   0.616  1.8920  3.6023  0.5454
   36SOL     MW  144   1.926   1.966   0.579  0.0486  0.8674  0.3438
   37SOL     OW  145   1.807   2.050   0.996  0.0562  0.1335 -0.4583
   37SOL    HW1  146   1.742   2.028   0.930 -0.6920 -3.7412  1.0058
   37SOL    HW2  147   1.754   2.077   1.069 -1.8403  1.5190 -0.7589
   37SOL     MW  148   1.792   2.050   0.997 -0.2927 -0.1949 -0.3048
   38SOL     OW  149   2.856   0.958   0.138 -0.3923  0.0333 -0.5630
   38SOL    HW1  150   2.882   0.955   0.232 -0.7540 -1.0602 -0.8640
   38SOL    HW2  151   2.929   0.931   0.088 -0.3252  0.6851 -2.0913
   38SOL     MW  152   2.869   0.954   0.143 -0.4312 -0.0249 -0.8044
   39SOL     OW  153   1.496   0.642   0.748 -0.3842  0.3108  0.4399
   39SOL    HW1  154   1.469   0.558   0.783  1.1089  1.4668  0.5227
   39SOL    HW2  155   1.422   0.696   0.737  2.4428  2.4571 -1.5561
   39SOL     MW  156   1.483   0.638   0.751  0.1858  0.7465  0.1875
   40SOL     OW  157   1.262   1.856   0.247  0.4047  0.0853  0.0371
   40SOL    HW1  158   1.319   1.804   0.308  1.2411 -0.9819  1.5380
   40SOL    HW2  159   1.215   1.916   0.307  0.2312 -0.8508  2.0112
   40SOL     MW  160   1.264   1.857   0.263  0.4921 -0.1790  0.4956
   41SOL     OW  161   0.521   0.577   1.570  0.1514 -0.2371 -0.7804
   41SOL    HW1  162   0.602   0.618   1.553 -2.8611  1.4338 -0.2109
   41SOL    HW2  163   0.454   0.636   1.541  0.1459  2.2091 -3.4517
   41SOL     MW  164   0.523   0.591   1.564 -0.2468  0.3061 -1.0577
   42SOL     OW  165   1.239   2.982   1.963  0.1990  0.0872  0.6027
   42SOL    HW1  166   1.148   2.996   1.998  0.4904  2.9621  0.3560
   42SOL    HW2  167   1.280   2.906   2.004 -0.6486  0.1556 -1.4425
   42SOL     MW  168   1.233   2.974   1.973  0.1256  0.4755  0.3003
   43SOL     OW  169   1.458   0.112   1.719 -0.2060 -0.4951  0.9339
   43SOL    HW1  170   1.520   0.083   1.648 -0.3919 -4.5396  0.9387
   43SOL    HW2  171   1.387   0.051   1.709 -2.4309  1.3036 -3.1645
   43SOL     MW  172   1.457   0.100   1.708 -0.5241 -0.7914  0.3938
   44SOL     OW  173   1.261   0.796   1.052  0.4077  0.2116 -0.7105
   44SOL    HW1  174   1.261   0.893   1.053 -0.1501 -0.6341  0.3341
   44SOL    HW2  175   1.235   0.758   1.138  0.9874 -0.9426 -0.6777
   44SOL     MW  176   1.258   0.804   1.064  0.4106 -0.0523 -0.5684
   45SOL     OW  177   1.284   0.831   0.751  0.1186  0.3404 -0.2224
   45SOL    HW1  178   1.249   0.835   0.841 -0.5111 -0.4709  0.1153
   45SOL    HW2  179   1.225   0.805   0.683  2.2777  0.4499  0.8091
   45SOL     MW  180   1.271   0.828   0.754  0.3204  0.2478 -0.0418
   46SOL     OW  181   0.464   1.099   0.663 -0.6512  0.6749  0.1972
   46SOL    HW1  182   0.485   1.117   0.573  1.6196 -1.4645  0.1627
   46SOL    HW2  183   0.490   1.175   0.713 -1.7766 -0.2464 -2.2748
   46SOL     MW  184   0.470   1.112   0.658 -0.5001  0.2710 -0.1335
   47SOL     OW  185   0.106   2.058   1.878 -0.9163  0.3781  0.3214
   47SOL    HW1  186   0.103   1.981   1.818  1.6625 -0.9043 -0.6726
   47SOL    HW2  187   0.093   2.024   1.966  0.9142  0.2436 -3.3664
   47SOL     MW  188   0.104   2.044   1.882 -0.3345  0.1911 -0.2963
   48SOL     OW  189   1.196   0.513   1.022  0.3386 -0.2532 -0.2259
   48SOL    HW1  190   1.180   0.485   0.931  1.2049  2.1548  1.6928
   48SOL    HW2  191   1.168   0.604   1.025  0.5313 -0.5466 -2.2838
   48SOL     MW  192   1.190   0.521   1.010  0.4783  0.0258 -0.2443
   49SOL     OW  193   1.664   0.673   1.551  0.4121  0.2818  0.0873
   49SOL    HW1  194   1.728   0.629   1.612 -0.1277 -0.1748  0.4743
   49SOL    HW2  195   1.700   0.657   1.463  1.0256  2.7944 -0.8844
   49SOL     MW  196   1.677   0.665   1.547  0.4218  0.5530  0.0101
   50SOL     OW  197   1.277   1.250   0.595  0.2234  0.5614  0.3920
   50SOL    HW1  198   1.205   1.232   0.649  4.3756  0.8068 -4.7788
   50SOL    HW2  199   1.348   1.191   0.631  1.6817 -0.3153  1.3029
   50SOL     MW  200   1.277   1.240   0.607  0.9637  0.4781 -0.1701
   51SOL     OW  201   0.309   2.898   0.829  0.0253 -0.0028 -0.1803
   51SOL    HW1  202   0.383   2.844   0.843 -1.2022  1.5749  1.6182
   51SOL    HW2  203   0.300   2.947   0.907  2.1187 -1.5847 -2.4177
   51SOL     MW  204   0.318   2.898   0.841  0.1396 -0.0034 -0.2382
   52SOL     OW  205   0.809   1.799   0.470 -0.1793  0.0391 -0.0361
   52SOL    HW1  206   0.775   1.892   0.493 -0.9204  0.6383  1.1605
   52SOL    HW2  207   0.809   1.792   0.373 -0.3850  0.2657 -0.4182
   52SOL     MW  208   0.805   1.810   0.461 -0.3042  0.1481  0.0714
   53SOL     OW  209   0.473   2.143   0.514  0.8671  0.3088  0.7538
   53SOL    HW1  210   0.408   2.134   0.445  0.1301  0.2499  0.5763
   53SOL    HW2  211   0.455   2.232   0.539  1.4760 -1.5104  2.2180
   53SOL     MW  212   0.462   2.153   0.509  0.8502  0.0610  0.9236
   54SOL     OW  213   2.024   0.967   0.727  0.0508 -0.1017 -0.1800
   54SOL    HW1  214   2.096   0.975   0.667 -1.8368  1.4049  0.5346
   54SOL    HW2  215   2.035   0.871   0.753  2.0618  0.3007 -1.8901
   54SOL     MW  216   2.035   0.955   0.723  0.0670  0.1502 -0.3113
   55SOL     OW  217   0.445   1.517   1.681 -0.0919  0.2285 -0.0325
   55SOL    HW1  218   0.391   1.556   1.614  0.8255  0.4970  1.4374
   55SOL    HW2  219   0.526   1.486   1.634  2.6226  2.0109  0.5711
   55SOL     MW  220   0.449   1.518   1.666  0.3873  0.4991  0.2411
   56SOL     OW  221   0.659   0.903   0.150  0.5072  0.3529 -0.3210
   56SOL    HW1  222   0.665   0.997   0.173 -0.2114  0.4919  3.8807
   56SOL    HW2  223   0.576   0.880   0.110  0.1559  1.2684 -1.7504
   56SOL     MW  224   0.649   0.912   0.147  0.3661  0.4920  0.0448
   57SOL     OW  225   1.103   1.278   1.131  0.4248  0.2379  0.4533
   57SOL    HW1  226   1.191   1.318   1.156  1.6814 -0.5116  2.6921
   57SOL    HW2  227   1.088   1.227   1.210  0.8922  0.4344  1.5757
   57SOL     MW  228   1.113   1.276   1.144  0.6523  0.1649  0.8968
   58SOL     OW  229   0.425   1.264   1.294 -0.1581  0.4267  0.0160
   58SOL    HW1  230   0.411   1.356   1.297 -0.6031 -0.0843 -0.1889
   58SOL    HW2  231   0.438   1.251   1.390 -2.4570  2.1161 -1.9818
   58SOL     MW  232   0.425   1.275   1.307 -0.5201  0.5822 -0.2746
   59SOL     OW  233   1.422   1.694   0.399 -0.2269 -0.1420 -0.6321
   59SOL    HW1  234   1.486   1.737   0.461 -0.7629  0.0177 -0.0569
   59SOL    HW2  235   1.338   1.678   0.441  0.0049 -0.1486  2.8287
   59SOL     MW  236   1.419   1.698   0.413 -0.2670 -0.1218 -0.0996
   60SOL     OW  237   3.076   0.179   1.648  0.0730 -0.1820  0.1837
   60SOL    HW1  238   2.984   0.214   1.659 -0.3136 -1.0341 -0.2214
   60SOL    HW2  239   3.097   0.107   1.708  0.5623 -3.4876  3.2231
   60SOL     MW  240   3.066   0.175   1.658  0.0865 -0.7306  0.5313
   61SOL     OW  241   1.939   1.377   3.001  0.4439 -0.1699 -0.5248
   61SOL    HW1  242   1.920   1.369   3.095  0.0007 -1.6337 -0.6724
   61SOL    HW2  243   2.021   1.334   2.990 -1.0703 -0.5485 -0.4815
   61SOL     MW  244   1.947   1.370   3.012  0.1856 -0.4130 -0.5385
   62SOL     OW  245   0.595   1.710   0.614 -0.2237  0.0620  0.7778
   62SOL    HW1  246   0.687   1.725   0.591  0.6233  0.6945  0.3657
   62SOL    HW2  247   0.569   1.623   0.581  0.5894 -0.2521  0.9650
   62SOL     MW  248   0.604   1.701   0.606 -0.0047  0.1040  0.7481
   63SOL     OW  249   1.734   0.705   0.644  0.3197  0.6143 -0.2923
   63SOL    HW1  250   1.740   0.793   0.611  2.3451 -0.7927 -0.7256
   63SOL    HW2  251   1.638   0.694   0.676  0.8378 -0.5513  1.6574
   63SOL     MW  252   1.723   0.715   0.644  0.6553  0.2749 -0.0923
   64SOL     OW  253   0.248   1.666   0.740  0.5021  0.9081 -0.2217
   64SOL    HW1  254   0.312   1.734   0.747  2.6445 -1.0904 -1.6134
   64SOL    HW2  255   0.163   1.713   0.752 -3.7270  0.2487 -1.4641
   64SOL     MW  256   0.245   1.681   0.742  0.2268  0.5574 -0.5693
   65SOL     OW  257   1.474   2.317   0.372 -0.0693  0.0099  0.6225
   65SOL    HW1  258   1.567   2.326   0.375 -0.6951 -0.3768 -1.8868
   65SOL    HW2  259   1.425   2.348   0.451 -1.8948  0.1851  1.4685
   65SOL     MW  260   1.480   2.322   0.382 -0.3927 -0.0180  0.4030
   66SOL     OW  261   0.358   0.590   0.482  0.1907 -0.4767 -0.3068
   66SOL    HW1  262   0.415   0.592   0.403  2.1170 -2.2384 -2.0363
   66SOL    HW2  263   0.340   0.688   0.492  1.3791 -0.7759  0.0015
   66SOL     MW  264   0.363   0.603   0.473  0.6016 -0.7486 -0.4943
   67SOL     OW  265   1.470   0.041   1.998 -0.3650 -0.2234 -0.5848
   67SOL    HW1  266   1.500   0.044   1.904 -2.2228 -0.9820 -0.2214
   67SOL    HW2  267   1.390  -0.012   1.991 -4.3449  0.5568  0.0135
   67SOL     MW  268   1.464   0.034   1.985 -1.1352 -0.2205 -0.4579
   68SOL     OW  269   0.774   0.021   2.960 -0.2811  1.3835 -0.7198
   68SOL    HW1  270   0.765   0.070   2.878  0.3600  0.8177 -0.7735
   68SOL    HW2  271   0.856   0.054   3.004  0.8003 -2.5783 -2.0855
   68SOL     MW  272   0.784   0.032   2.955 -0.0538  0.7862 -0.9070
   69SOL     OW  273   1.031   0.225   1.937  0.4627 -0.3363 -0.2823
   69SOL    HW1  274   1.122   0.243   1.952  0.2599 -0.3076 -2.4174
   69SOL    HW2  275   1.012   0.148   1.995  1.1535 -1.3595  1.6674
   69SOL     MW  276   1.041   0.217   1.946  0.5271 -0.4675 -0.3068
   70SOL     OW  277   0.501   1.752   1.072  0.2059 -0.2839  0.2490
   70SOL    HW1  278   0.586   1.803   1.080  0.6514  2.2939 -2.1145
   70SOL    HW2  279   0.535   1.684   1.013 -2.1113 -0.1041 -3.4351
   70SOL     MW  280   0.517   1.750   1.065 -0.0410  0.0799 -0.5490
   71SOL     OW  281   1.525   0.546   1.255  0.0319  0.3929  0.3786
   71SOL    HW1  282   1.494   0.628   1.304  0.4876  0.9473  1.2300
   71SOL    HW2  283   1.523   0.577   1.164  2.5272 -0.6939  1.3558
   71SOL     MW  284   1.521   0.561   1.249  0.4213  0.3227  0.6198
   72SOL     OW  285   0.763   1.823   1.006  0.6304 -0.5432  0.1580
   72SOL    HW1  286   0.762   1.904   0.953  1.4716  1.2150  0.0655
   72SOL    HW2  287   0.804   1.749   0.957 -0.6104  0.2040 -0.1594
   72SOL     MW  288   0.768   1.824   0.993  0.5776 -0.2126  0.1039
   73SOL     OW  289   1.168   0.671   1.284 -1.0775  0.3933 -0.2419
   73SOL    HW1  290   1.103   0.590   1.299 -0.4409 -1.9956  2.0261
   73SOL    HW2  291   1.141   0.748   1.338 -1.2520  0.2635  0.9094
   73SOL     MW  292   1.156   0.670   1.293 -1.0165  0.0610  0.2093
   74SOL     OW  293   2.824   0.109   0.990 -0.4741 -0.5421 -0.5795
   74SOL    HW1  294   2.899   0.165   0.960  1.1694 -2.2102 -0.4246
   74SOL    HW2  295   2.746   0.153   0.952 -2.2698  1.5794  0.8491
   74SOL     MW  296   2.824   0.122   0.981 -0.4942 -0.4823 -0.3706
   75SOL     OW  297   1.562   1.344   0.155 -0.0652 -0.0204 -0.0760
   75SOL    HW1  298   1.605   1.282   0.095 -1.5938 -1.4854  0.8345
   75SOL    HW2  299   1.589   1.309   0.248  0.1935 -2.4712  1.6102
   75SOL     MW  300   1.571   1.331   0.160 -0.2328 -0.5370  0.2666
   76SOL     OW  301   2.987   0.647   0.482  0.1010 -0.1364 -0.1762
   76SOL    HW1  302   3.025   0.701   0.554  0.8474  3.3006 -0.9156
   76SOL    HW2  303   3.071   0.596   0.475  0.3014  3.4148 -0.5305
   76SOL     MW  304   3.003   0.647   0.490  0.2259  0.7856 -0.3205
   77SOL     OW  305   0.864   0.620   0.427 -0.4335  0.0840  0.0431
   77SOL    HW1  306   0.825   0.648   0.343  0.4625  3.5133  0.2532
   77SOL    HW2  307   0.827   0.533   0.447 -1.6671 -0.7026  1.5904
   77SOL     MW  308   0.854   0.613   0.419 -0.4780  0.4327  0.2750
   78SOL     OW  309   0.757   0.865   1.109  0.1846  0.9677  0.1581
   78SOL    HW1  310   0.770   0.959   1.100  2.3622 -1.9050  1.6881
   78SOL    HW2  311   0.661   0.842   1.125 -1.4292 -0.3754 -0.3349
   78SOL     MW  312   0.746   0.874   1.110  0.2590  0.4115  0.2949
   79SOL     OW  313   1.875   1.540   0.572  0.2391 -0.6438  0.0803
   79SOL    HW1  314   1.785   1.514   0.572 -2.4266  0.3749  0.3310
   79SOL    HW2  315   1.890   1.539   0.662  0.3706 -0.0220 -0.9410
   79SOL     MW  316   1.865   1.537   0.584 -0.0952 -0.4273 -0.0214
   80SOL     OW  317   0.102   0.998   0.321  0.2190  0.5702 -0.2948
   80SOL    HW1  318   0.009   0.957   0.319  1.7598 -3.7767 -2.0660
   80SOL    HW2  319   0.142   0.950   0.393 -0.3744  2.1233  0.3117
   80SOL     MW  320   0.095   0.986   0.330  0.3440  0.2016 -0.4485
   81SOL     OW  321   1.798   1.871   0.336 -0.5983  0.1448  0.0416
   81SOL    HW1  322   1.785   1.783   0.314  0.1067  1.8446 -1.0936
   81SOL    HW2  323   1.763   1.918   0.251  1.7869  0.0827  0.5095
   81SOL     MW  324   1.792   1.866   0.322 -0.1906  0.3609 -0.0464
   82SOL     OW  325   0.914   1.053   0.508  0.7997 -0.0183 -0.0390
   82SOL    HW1  326   0.853   1.075   0.440  2.0946  0.8595 -0.8124
   82SOL    HW2  327   0.877   0.970   0.539 -1.6532  2.1819  0.4848
   82SOL     MW  328   0.901   1.045   0.503  0.6469  0.3878 -0.0719
   83SOL     OW  329   0.024   0.785   1.546  0.0577 -0.0714 -0.0547
   83SOL    HW1  330   0.044   0.859   1.484 -2.6900 -1.2134  1.5456
   83SOL    HW2  331   0.079   0.713   1.532 -1.4046  1.4605  1.5384
   83SOL     MW  332   0.034   0.785   1.536 -0.4978 -0.0200  0.3666
   84SOL     OW  333   0.045   0.195   0.914  0.0413 -0.1792  0.1369
   84SOL    HW1  334   0.021   0.279   0.953 -0.9791 -0.2219 -0.3686
   84SOL    HW2  335   0.051   0.121   0.976 -0.0453 -1.1465  1.2704
   84SOL     MW  336   0.043   0.197   0.927 -0.1047 -0.3124  0.2198
   85SOL     OW  337   0.390   0.470   0.736 -0.3140  0.2518  0.5024
   85SOL    HW1  338   0.384   0.493   0.642 -4.0541  0.6663  0.8111
   85SOL    HW2  339   0.355   0.381   0.743  0.2185  1.7273 -1.1977
   85SOL     MW  340   0.385   0.461   0.725 -0.7372  0.5012  0.3188
   86SOL     OW  341   1.230   0.274   1.178  0.2820  0.0749  0.3113
   86SOL    HW1  342   1.223   0.355   1.122 -0.8623  0.8987  1.8103
   86SOL    HW2  343   1.322   0.259   1.194  0.0461 -1.9412 -2.1086
   86SOL     MW  344   1.241   0.283   1.172  0.0999 -0.0825  0.1898
   87SOL     OW  345   1.051   1.532   1.209 -0.0446  0.4150 -0.0293
   87SOL    HW1  346   1.114   1.583   1.164 -1.4106 -0.7853 -1.0342
   87SOL    HW2  347   1.049   1.448   1.161  2.5790 -1.2199 -2.4640
   87SOL     MW  348   1.059   1.527   1.197  0.1214  0.0409 -0.4831
   88SOL     OW  349   1.248   1.067   1.019 -0.3550 -0.0767 -0.2127
   88SOL    HW1  350   1.334   1.103   0.991  0.9944  1.2391 -1.6203
   88SOL    HW2  351   1.209   1.130   1.081 -3.1355  1.3157  0.0687
   88SOL     MW  352   1.254   1.080   1.024 -0.5438  0.2806 -0.3613
   89SOL     OW  353   1.751   0.708   0.265  0.5964 -0.2313 -0.2151
   89SOL    HW1  354   1.685   0.642   0.291  0.0068  1.1309  0.1913
   89SOL    HW2  355   1.839   0.681   0.290  0.0401 -1.9577 -0.6485
   89SOL     MW  356   1.754   0.695   0.271  0.4452 -0.2794 -0.2187
   90SOL     OW  357   0.831   1.218   2.895 -0.2780  0.2552 -0.0516
   90SOL    HW1  358   0.917   1.181   2.898 -1.3859  1.4677  1.1012
   90SOL    HW2  359   0.819   1.281   2.965  0.1442 -1.3606  0.8068
   90SOL     MW  360   0.841   1.222   2.904 -0.3685  0.2020  0.2138
   91SOL     OW  361   2.182   0.624   0.457  0.0023 -0.3412  0.0833
   91SOL    HW1  362   2.263   0.651   0.418  1.7834  0.3103 -1.5440
   91SOL    HW2  363   2.159   0.539   0.424 -0.4626  1.0246  2.8018
   91SOL     MW  364   2.190   0.616   0.448  0.1760 -0.0750  0.2273
   92SOL     OW  365   1.640   0.960   0.555 -0.2904 -0.0409 -0.2721
   92SOL    HW1  366   1.576   1.009   0.602  0.9869  0.4831  0.8473
   92SOL    HW2  367   1.595   0.945   0.475 -0.7042 -0.9212 -0.2367
   92SOL     MW  368   1.626   0.964   0.551 -0.1765 -0.0879 -0.1197
   93SOL     OW  369   1.064   0.260   0.348 -0.5645  0.4762  0.0324
   93SOL    HW1  370   0.985   0.304   0.382  0.1115  0.6936 -0.8705
   93SOL    HW2  371   1.076   0.311   0.264  0.5866  1.8273 -2.1203
   93SOL     MW  372   1.055   0.272   0.342 -0.3234  0.6832 -0.3707
   94SOL     OW  373   1.861   1.391   1.588  0.2950  0.2234  0.1810
   94SOL    HW1  374   1.861   1.393   1.489 -1.9088 -0.0343 -0.2564
   94SOL    HW2  375   1.873   1.296   1.607  0.9529 -0.9066  1.8058
   94SOL     MW  376   1.863   1.379   1.577  0.0910  0.0403  0.3377
   95SOL     OW  377   0.592   1.554   0.915 -0.1603 -0.1000 -0.2192
   95SOL    HW1  378   0.672   1.522   0.962 -3.6050  2.2301 -0.5701
   95SOL    HW2  379   0.551   1.479   0.873  3.1350  1.0588 -1.2687
   95SOL     MW  380   0.597   1.540   0.916 -0.1800  0.3603 -0.4040
   96SOL     OW  381   1.319   1.847   1.647 -0.1334  0.0368  0.1288
   96SOL    HW1  382   1.228   1.836   1.669 -0.5960  0.1258 -3.6734
   96SOL    HW2  383   1.348   1.755   1.629  3.4807  0.0422  0.7946
   96SOL     MW  384   1.310   1.833   1.648  0.2824  0.0493 -0.2850
   97SOL     OW  385   1.073   1.512   0.893  0.0029  0.6097 -0.9885
   97SOL    HW1  386   1.138   1.571   0.933  0.5203  0.8403  1.1087
   97SOL    HW2  387   0.993   1.568   0.882  0.0145 -0.1453 -3.6876
   97SOL     MW  388   1.071   1.527   0.897  0.0727  0.5405 -1.0679
   98SOL     OW  389   1.340   1.387   1.182 -0.6585  0.0572 -0.0048
   98SOL    HW1  390   1.404   1.428   1.244  2.8195  2.2008 -0.8853
   98SOL    HW2  391   1.356   1.432   1.097 -1.7044 -0.1286 -1.6477
   98SOL     MW  392   1.350   1.399   1.179 -0.3376  0.3155 -0.3378
   99SOL     OW  393   1.492   0.285   1.296  0.0143  0.4213  0.9014
   99SOL    HW1  394   1.525   0.384   1.287 -0.3800 -1.0633 -1.9391
   99SOL    HW2  395   1.421   0.299   1.353  1.4899  1.2593 -2.7635
   99SOL     MW  396   1.487   0.300   1.302  0.1570  0.3360  0.0431
  100SOL     OW  397   1.072   1.156   1.368  0.2329  0.2642  0.4291
  100SOL    HW1  398   1.113   1.189   1.449  1.5813 -1.6363 -0.2970
  100SOL    HW2  399   1.068   1.061   1.380 -1.8337 -1.8048 -3.4609
  100SOL     MW  400   1.077   1.148   1.381  0.1381 -0.2595 -0.1799
  101SOL     OW  401   0.545   1.208   0.417  0.2158  0.0532 -0.0146
  101SOL    HW1  402   0.457   1.197   0.371 -1.5745 -1.0171 -0.7808
  101SOL    HW2  403   0.623   1.208   0.352  2.3843  0.2371  3.2054
  101SOL     MW  404   0.544   1.207   0.402  0.2657 -0.0637  0.3092
  102SOL     OW  405   2.915   0.651   1.112  0.0708 -0.4806 -0.6055
  102SOL    HW1  406   2.940   0.742   1.096  1.4838 -0.9051 -2.2210
  102SOL    HW2  407   2.871   0.647   1.200  0.2503  1.0410  3.5391
  102SOL     MW  408   2.912   0.663   1.121  0.2809 -0.3359 -0.2718
  103SOL     OW  409   1.866   0.248   1.823 -0.0071 -0.1863 -0.4541
  103SOL    HW1  410   1.851   0.152   1.817 -0.3961  1.9472 -0.6590
  103SOL    HW2  411   1.862   0.261   1.921 -0.3023 -0.6620  0.2279
  103SOL     MW  412   1.863   0.237   1.835 -0.0974  0.0324 -0.3912
  104SOL     OW  413   0.094   1.506   1.657 -0.2785 -0.0538  0.0819
  104SOL    HW1  414   0.155   1.428   1.692  0.4721  0.4486  0.4274
  104SOL    HW2  415  -0.002   1.485   1.679  2.6303 -0.5665 -0.6733
  104SOL     MW  416   0.090   1.493   1.665  0.2043 -0.0552  0.0279
  105SOL     OW  417   3.068   1.237   0.401  0.5042  0.1204 -0.0146
  105SOL    HW1  418   3.114   1.157   0.391  2.3323  1.5443  0.3918
  105SOL    HW2  419   3.137   1.299   0.418 -1.9856  0.7258  0.8708
  105SOL     MW  420   3.083   1.235   0.401  0.4169  0.3881  0.1558
  106SOL     OW  421   0.794   0.369   0.847  0.2846 -0.5943 -0.5807
  106SOL    HW1  422   0.718   0.427   0.853 -1.4279 -1.3517  0.3110
  106SOL    HW2  423   0.869   0.418   0.827  0.2877  0.6413  2.2924
  106SOL     MW  424   0.794   0.383   0.845  0.0590 -0.5312 -0.0839
  107SOL     OW  425   0.796   2.167   2.886 -0.5121  0.4876  0.4897
  107SOL    HW1  426   0.707   2.196   2.882 -0.3039 -1.6816 -1.1612
  107SOL    HW2  427   0.805   2.127   2.978  0.4582 -2.2119 -0.0987
  107SOL     MW  428   0.786   2.166   2.897 -0.3566 -0.1548  0.1942
  108SOL     OW  429   1.363   1.567   1.644  0.4804  0.1788 -0.0405
  108SOL    HW1  430   1.298   1.521   1.577 -1.2494  0.4628  0.5992
  108SOL    HW2  431   1.447   1.524   1.625  4.6040  0.6854  1.9583
  108SOL     MW  432   1.366   1.555   1.632  0.7962  0.2831  0.3077
  109SOL     OW  433   2.055   0.762   0.253 -0.0817  0.0469  0.5636
  109SOL    HW1  434   2.029   0.859   0.269 -1.1860  2.7261 -1.4577
  109SOL    HW2  435   2.098   0.729   0.334 -0.9656  1.5862  3.1854
  109SOL     MW  436   2.057   0.770   0.266 -0.3440  0.6035  0.6428
  110SOL     OW  437   0.422   1.957   0.727  0.0544 -0.7418  0.6819
  110SOL    HW1  438   0.499   1.907   0.738 -1.0129 -2.6612 -1.4621
  110SOL    HW2  439   0.428   1.998   0.642  0.7350  0.5960 -2.0791
  110SOL     MW  440   0.433   1.956   0.717  0.0034 -0.8186  0.0347
  111SOL     OW  441   0.850   0.888   1.357  0.1730  0.2588 -0.0394
  111SOL    HW1  442   0.818   0.884   1.264 -2.8115  0.7010  0.4016
  111SOL    HW2  443   0.809   0.802   1.392 -0.8469 -2.3498  1.4470
  111SOL     MW  444   0.841   0.876   1.349 -0.3554 -0.0271  0.2149
  112SOL     OW  445   1.376   1.073   1.595  0.6000  0.2448 -0.6662
  112SOL    HW1  446   1.306   1.142   1.576  0.4526  0.5129 -2.4260
  112SOL    HW2  447   1.320   0.996   1.604  0.1745  1.6923  2.3196
  112SOL     MW  448   1.359   1.072   1.594  0.5244  0.4711 -0.5045
  113SOL     OW  449   1.229   3.029   1.682 -0.4923 -0.2231 -0.0753
  113SOL    HW1  450   1.228   3.001   1.774 -3.6384 -1.1114  0.1701
  113SOL    HW2  451   1.218   2.947   1.637 -0.0739  0.6273 -0.8105
  113SOL     MW  452   1.227   3.014   1.688 -0.8522 -0.2281 -0.1399
  114SOL     OW  453   0.258   2.897   1.864  0.0111 -0.5263 -0.9633
  114SOL    HW1  454   0.327   2.949   1.892  1.9690 -1.0247 -2.0702
  114SOL    HW2  455   0.178   2.946   1.888 -1.0791  1.4437 -1.0754
  114SOL     MW  456   0.257   2.910   1.871  0.1256 -0.3322 -1.1241
  115SOL     OW  457   0.487   0.819   1.175  1.1773  0.0900 -0.1684
  115SOL    HW1  458   0.482   0.730   1.215 -0.2320  1.6017  0.3502
  115SOL    HW2  459   0.440   0.878   1.235 -1.0494  1.9741  3.0963
  115SOL     MW  460   0.480   0.815   1.188  0.6976  0.5380  0.3308
  116SOL     OW  461   0.766   1.112   0.961 -0.5448  0.4087  0.5057
  116SOL    HW1  462   0.801   1.151   0.874 -0.7424 -2.4320 -3.6262
  116SOL    HW2  463   0.826   1.159   1.025 -0.7529 -1.4903 -0.1306
  116SOL     MW  464   0.779   1.124   0.958 -0.5983 -0.2166 -0.1234
  117SOL     OW  465   1.131   1.245   0.828 -0.1195  0.1723  0.0715
  117SOL    HW1  466   1.156   1.186   0.897  0.7452  1.7134 -2.1430
  117SOL    HW2  467   1.113   1.339   0.854 -1.3087  1.6294 -0.2444
  117SOL     MW  468   1.132   1.250   0.841 -0.1623  0.5679 -0.2624
  118SOL     OW  469   3.035   2.959   1.743  0.1002 -0.2695  0.2947
  118SOL    HW1  470   3.084   3.020   1.806 -2.1123  0.6163  1.2936
  118SOL    HW2  471   2.950   3.001   1.730 -2.9344  0.4731  2.2096
  118SOL     MW  472   3.030   2.973   1.750 -0.5921 -0.0546  0.6792
  119SOL     OW  473   0.392   1.554   1.244 -0.7531 -0.1010  0.3263
  119SOL    HW1  474   0.437   1.627   1.195  2.3044 -0.5107  2.1070
  119SOL    HW2  475   0.302   1.551   1.215 -0.3523 -0.0991  2.9567
  119SOL     MW  476   0.386   1.563   1.234 -0.2968 -0.1548  0.9083
  120SOL     OW  477   0.257   0.798   0.991 -0.3125 -0.4655 -0.4441
  120SOL    HW1  478   0.297   0.782   1.078  1.4745  3.4932  0.4260
  120SOL    HW2  479   0.319   0.847   0.936 -2.4581 -0.4194 -0.6866
  120SOL     MW  480   0.271   0.802   0.995 -0.3598  0.0629 -0.3613
  121SOL     OW  481   1.791   1.114   1.620 -0.1986  0.2249 -0.0675
  121SOL    HW1  482   1.728   1.136   1.553 -1.0459  2.9830  4.0045
  121SOL    HW2  483   1.810   1.018   1.602 -2.0625  0.5125 -0.3960
  121SOL     MW  484   1.786   1.104   1.608 -0.5563  0.6267  0.4264
  122SOL     OW  485   0.132   0.602   0.844 -0.3644  0.5813  0.1812
  122SOL    HW1  486   0.208   0.561   0.814 -1.2502  5.0989 -1.5681
  122SOL    HW2  487   0.162   0.669   0.908 -1.2655  1.6551  3.7628
  122SOL     MW  488   0.146   0.605   0.848 -0.6002  1.3190  0.4229
  123SOL     OW  489   1.870   1.114   0.531  0.5628 -0.5321  0.6418
  123SOL    HW1  490   1.776   1.089   0.544  0.2219  0.6025 -0.6825
  123SOL    HW2  491   1.911   1.058   0.594  0.5572  3.6926  4.4305
  123SOL     MW  492   1.863   1.103   0.541  0.5171  0.1750  0.9670
  124SOL     OW  493   0.537   0.488   0.956  0.3863 -1.1428  0.2567
  124SOL    HW1  494   0.475   0.461   0.886 -0.0410 -0.3648  1.0451
  124SOL    HW2  495   0.570   0.572   0.924 -1.8961 -0.5065 -0.4777
  124SOL     MW  496   0.533   0.496   0.943  0.0288 -0.9562  0.2638
  125SOL     OW  497   0.692   1.726   1.804 -0.2053  0.0701  0.4539
  125SOL    HW1  498   0.662   1.688   1.722 -2.1881  2.0474  0.1253
  125SOL    HW2  499   0.629   1.803   1.804 -2.4416  0.2985 -0.0753
  125SOL     MW  500   0.680   1.731   1.793 -0.7620  0.3611  0.3407
  126SOL     OW  501   2.171   1.525   1.935 -0.0945 -0.5950 -0.4172
  126SOL    HW1  502   2.229   1.601   1.928 -3.4690 -1.1002 -1.7231
  126SOL    HW2  503   2.235   1.449   1.938  1.4290  0.0354  1.5845
  126SOL     MW  504   2.187   1.525   1.934 -0.3387 -0.5785 -0.3254
  127SOL     OW  505   0.535   0.813   1.778 -0.0292 -0.9091  0.3367
  127SOL    HW1  506   0.628   0.799   1.785  1.8080 -2.5737  3.3191
  127SOL    HW2  507   0.504   0.844   1.867  0.5051  0.0285 -0.1442
  127SOL     MW  508   0.543   0.815   1.791  0.2837 -1.0050  0.6667
  128SOL     OW  509   1.746   0.708   2.879  0.0513  0.7631  0.4803
  128SOL    HW1  510   1.783   0.688   2.789  3.1938 -0.4203 -4.0683
  128SOL    HW2  511   1.732   0.804   2.886 -1.4482  1.5455  0.9962
  128SOL     MW  512   1.749   0.718   2.868  0.2681  0.7102 -0.0518
  129SOL     OW  513   1.578   0.927   0.191  0.1782 -0.1855  0.0910
  129SOL    HW1  514   1.518   0.854   0.165 -0.1932  0.9692 -0.3723
  129SOL    HW2  515   1.652   0.873   0.227 -0.9941 -1.4233 -3.2719
  129SOL     MW  516   1.580   0.910   0.193 -0.0255 -0.1964 -0.4138
  130SOL     OW  517   0.832   1.443   0.328 -0.4882 -0.3138  0.3031
  130SOL    HW1  518   0.821   1.423   0.427 -0.0427 -0.9972 -1.2843
  130SOL    HW2  519   0.922   1.471   0.326  1.7517  1.2939  1.1012
  130SOL     MW  520   0.842   1.444   0.341 -0.1339 -0.1918  0.1990
  131SOL     OW  521   0.024   0.774   0.057  0.5737  0.0010  0.2464
  131SOL    HW1  522   0.008   0.818  -0.024  0.3550 -1.6648 -1.7980
  131SOL    HW2  523   0.119   0.793   0.075  0.5226  2.2783  0.0781
  131SOL     MW  524   0.034   0.782   0.049  0.5381  0.0817 -0.0455
  132SOL     OW  525   2.744   0.108   1.264 -0.3773 -0.3632 -0.0396
  132SOL    HW1  526   2.786   0.093   1.180  0.9060  0.4019 -3.1184
  132SOL    HW2  527   2.642   0.088   1.248 -2.8417  0.2886  0.8718
  132SOL     MW  528   2.736   0.103   1.251 -0.5331 -0.1763 -0.3256
  133SOL     OW  529   1.042   0.128   1.648  0.7295  0.7638  0.3607
  133SOL    HW1  530   1.121   0.065   1.645  1.9305 -0.3789 -0.3861
  133SOL    HW2  531   1.026   0.153   1.739  1.3897  0.2202  0.4710
  133SOL     MW  532   1.050   0.123   1.660  0.9750  0.5413  0.2767
  134SOL     OW  533   1.416   2.427   1.489 -0.0972 -0.0008  0.4180
  134SOL    HW1  534   1.338   2.481   1.458  1.4604 -0.7778 -2.8231
  134SOL    HW2  535   1.457   2.464   1.570 -0.9416  2.8366 -2.4799
  134SOL     MW  536   1.411   2.439   1.495 -0.0031  0.2711 -0.3920
  135SOL     OW  537   2.987   0.993   2.980  0.0663 -0.0023  0.4099
  135SOL    HW1  538   3.056   1.062   2.990 -0.5950  1.6828 -2.4370
  135SOL    HW2  539   2.923   1.053   2.936 -0.4898  0.3932 -0.3679
  135SOL     MW  540   2.988   1.010   2.976 -0.0943  0.2722 -0.0684
  136SOL     OW  541   0.201   1.981   0.871 -0.4790 -0.4696 -0.4351
  136SOL    HW1  542   0.134   1.925   0.835  2.3795 -0.3304  1.9931
  136SOL    HW2  543   0.277   1.970   0.813 -2.1843 -1.6857  0.2481
  136SOL     MW  544   0.202   1.973   0.859 -0.3269 -0.6117 -0.0246
  137SOL     OW  545   0.714   2.029   0.556  0.2072  0.4168 -0.1740
  137SOL    HW1  546   0.741   2.038   0.650  2.3188  3.2171 -0.4871
  137SOL    HW2  547   0.628   2.075   0.540  2.6277  0.5608  1.2246
  137SOL     MW  548   0.706   2.036   0.567  0.8052  0.8053 -0.0308
  138SOL     OW  549   0.457   0.547   1.232  0.7237  0.0941  0.1080
  138SOL    HW1  550   0.364   0.536   1.254 -2.7126  0.8709 -0.6989
  138SOL    HW2  551   0.474   0.496   1.154 -0.5946 -0.8718 -0.1884
  138SOL     MW  552   0.447   0.539   1.224  0.0964  0.0691 -0.0376
  139SOL     OW  553   2.836   0.567   1.340  0.5056 -0.3285  0.4507
  139SOL    HW1  554   2.903   0.499   1.318 -1.2700 -0.4477 -1.1957
  139SOL    HW2  555   2.856   0.588   1.432  1.6393 -0.5520 -0.9659
  139SOL     MW  556   2.848   0.561   1.349  0.4209 -0.3737  0.0466
  140SOL     OW  557   0.891   0.460   1.962 -0.5464 -0.5958  0.0097
  140SOL    HW1  558   0.937   0.378   1.948  0.3792 -1.0244 -0.6541
  140SOL    HW2  559   0.866   0.466   2.054  3.3526  0.4764  0.3092
  140SOL     MW  560   0.894   0.450   1.972  0.0902 -0.5109 -0.0384
  141SOL     OW  561   1.013   0.637   1.628  0.3662 -0.7307 -0.2632
  141SOL    HW1  562   1.045   0.549   1.598 -1.1053 -1.3647 -1.1331
  141SOL    HW2  563   1.082   0.671   1.677 -0.5567 -1.1568  0.4933
  141SOL     MW  564   1.026   0.630   1.631  0.0503 -0.8706 -0.2782
  142SOL     OW  565   0.869   1.209   0.730 -0.1527  0.4493  0.4769
  142SOL    HW1  566   0.891   1.139   0.665 -1.4024 -0.1852 -0.3470
  142SOL    HW2  567   0.960   1.231   0.748  1.9908 -0.8444 -0.0437
  142SOL     MW  568   0.884   1.203   0.724 -0.0348  0.1949  0.2995
  143SOL     OW  569   1.840   0.661   1.054 -0.2883  0.3134 -0.7341
  143SOL    HW1  570   1.875   0.667   0.964  0.6074 -1.3448  2.0899
  143SOL    HW2  571   1.743   0.652   1.038 -0.8927  1.9055  3.4721
  143SOL     MW  572   1.832   0.660   1.040 -0.2499  0.3047  0.1935
  144SOL     OW  573   0.263   1.326   1.752 -0.0482 -0.2783 -0.1201
  144SOL    HW1  574   0.332   1.383   1.712 -2.0302 -0.5073 -1.7351
  144SOL    HW2  575   0.309   1.279   1.829 -2.1105  0.9151  2.0016
  144SOL     MW  576   0.279   1.327   1.757 -0.5818 -0.1510 -0.0533
  145SOL     OW  577   0.155   0.451   1.250  0.0123 -0.1842 -0.1451
  145SOL    HW1  578   0.211   0.367   1.252  0.1949  0.5210 -1.7373
  145SOL    HW2  579   0.115   0.453   1.161 -3.6832  0.5039  0.3258
  145SOL     MW  580   0.157   0.440   1.239 -0.4512 -0.0004 -0.2930
  146SOL     OW  581   0.825   1.906   1.431 -0.0457  0.2744  0.3207
  146SOL    HW1  582   0.842   1.942   1.342 -0.5892  0.0758  1.6233
  146SOL    HW2  583   0.745   1.858   1.430  1.1819 -0.7946 -1.5266
  146SOL     MW  584   0.816   1.904   1.419  0.0445  0.1072  0.2488
  147SOL     OW  585   0.440   0.467   2.915 -0.0722  0.2180  0.4648
  147SOL    HW1  586   0.359   0.489   2.959 -1.1188  2.3823 -1.3097
  147SOL    HW2  587   0.459   0.543   2.863  0.5708 -1.7420  0.0302
  147SOL     MW  588   0.432   0.480   2.914 -0.1255  0.2450  0.1733
  148SOL     OW  589   0.069   0.916   1.315  0.0481 -0.5457  0.4819
  148SOL    HW1  590   0.158   0.940   1.328  2.4223 -1.8101 -3.1941
  148SOL    HW2  591   0.023   0.998   1.333  3.0247 -0.5409 -2.3377
  148SOL     MW  592   0.075   0.930   1.319  0.7541 -0.7119 -0.3751
  149SOL     OW  593   1.583   1.162   1.425  0.1415 -0.3926 -0.6879
  149SOL    HW1  594   1.505   1.128   1.482 -3.5764 -1.5476  1.7276
  149SOL    HW2  595   1.565   1.250   1.391  0.9240 -0.1929 -1.8324
  149SOL     MW  596   1.570   1.169   1.428 -0.2458 -0.5186 -0.5202
  150SOL     OW  597   1.733   1.406   0.892 -0.3398  0.7537  0.0630
  150SOL    HW1  598   1.794   1.327   0.876  3.0625  3.1843  0.3757
  150SOL    HW2  599   1.793   1.478   0.881 -0.0462 -0.8706  0.9428
  150SOL     MW  600   1.749   1.405   0.889  0.1479  0.8601  0.2203
  151SOL     OW  601   1.680   1.900   0.822 -0.0492  0.4735  0.0145
  151SOL    HW1  602   1.669   1.867   0.731 -0.1014  0.8548  2.0375
  151SOL    HW2  603   1.610   1.859   0.870  0.5807  1.5058  0.2228
  151SOL     MW  604   1.669   1.890   0.817  0.0270  0.6600  0.3089
  152SOL     OW  605   0.686   1.402   1.574 -0.9101 -0.6804 -0.4134
  152SOL    HW1  606   0.739   1.438   1.495  3.5593 -3.6376  1.3284
  152SOL    HW2  607   0.694   1.311   1.555  0.7747  1.5472  0.6534
  152SOL     MW  608   0.694   1.395   1.561 -0.0981 -0.7767 -0.0428
  153SOL     OW  609   2.565   1.203   0.725  0.3732  0.6550 -0.7033
  153SOL    HW1  610   2.638   1.172   0.671 -1.3314 -0.3409  1.0713
  153SOL    HW2  611   2.520   1.113   0.745 -1.1317 -0.9711 -2.5663
  153SOL     MW  612   2.569   1.187   0.720 -0.0503  0.3091 -0.7149
  154SOL     OW  613   0.102   1.778   1.771  0.7431 -0.1331  0.3548
  154SOL    HW1  614   0.087   1.687   1.738 -2.6176 -2.6633  0.5358
  154SOL    HW2  615   0.194   1.773   1.792 -2.5650 -0.2832  1.1676
  154SOL     MW  616   0.112   1.765   1.770 -0.1368 -0.4868  0.4859
  155SOL     OW  617   1.220   0.735   0.290 -0.1368  0.0561 -0.5251
  155SOL    HW1  618   1.205   0.688   0.382  1.6999  1.0303  0.5186
  155SOL    HW2  619   1.223   0.826   0.324  0.3760 -0.1273  0.0635
  155SOL     MW  620   1.218   0.740   0.307  0.1732  0.1604 -0.3097
  156SOL     OW  621   1.535   3.084   1.087  0.1562  0.4814 -0.6781
  156SOL    HW1  622   1.598   3.111   1.150 -2.2158 -0.6046  1.1841
  156SOL    HW2  623   1.543   2.989   1.083  2.2828 -0.2704  0.9080
  156SOL     MW  624   1.544   3.075   1.095  0.1238  0.2389 -0.2232
  157SOL     OW  625   1.355   1.165   0.124 -1.0083  0.3197  0.6509
  157SOL    HW1  626   1.380   1.100   0.186 -0.6397  3.5645 -1.0289
  157SOL    HW2  627   1.426   1.229   0.125 -3.5981  0.6473 -0.0243
  157SOL     MW  628   1.367   1.165   0.133 -1.3014  0.7910  0.3402
  158SOL     OW  629   0.438   1.671   2.262 -0.5489 -0.5587 -0.0382
  158SOL    HW1  630   0.474   1.714   2.185  2.5219 -1.2607 -0.0361
  158SOL    HW2  631   0.372   1.732   2.294  0.0734  0.6893 -1.9241
  158SOL     MW  632   0.434   1.684   2.256 -0.0616 -0.4867 -0.2867
  159SOL     OW  633   1.190   1.629   0.508 -0.4190  0.2429  0.6140
  159SOL    HW1  634   1.156   1.605   0.419 -0.1127  1.5995 -1.4047
  159SOL    HW2  635   1.115   1.672   0.556 -1.5453  0.0296  2.4892
  159SOL     MW  636   1.175   1.632   0.503 -0.5272  0.3938  0.5951
  160SOL     OW  637   0.509   1.179   1.553  0.6244 -0.0192  0.2519
  160SOL    HW1  638   0.452   1.121   1.614  0.3611  1.1283  0.5831
  160SOL    HW2  639   0.590   1.128   1.539  0.0324  0.9699  0.7092
  160SOL     MW  640   0.512   1.165   1.559  0.5116  0.2627  0.3559
  161SOL     OW  641   0.418   2.249   2.650 -0.4001 -0.3602  0.1660
  161SOL    HW1  642   0.370   2.315   2.605 -0.0543  2.9494 -3.1863
  161SOL    HW2  643   0.447   2.173   2.587  3.5994  0.7211  0.3722
  161SOL     MW  644   0.415   2.247   2.636  0.1733  0.2191 -0.2491
  162SOL     OW  645   1.074   1.811   1.771  0.0007  0.3103 -0.2547
  162SOL    HW1  646   1.074   1.901   1.797 -0.3652 -1.0474  1.0594
  162SOL    HW2  647   1.022   1.767   1.836  0.6413  1.5756 -1.2978
  162SOL     MW  648   1.067   1.817   1.783  0.0370  0.2981 -0.2190
  163SOL     OW  649   2.127   3.093   0.855 -0.1939  0.1164 -0.2669
  163SOL    HW1  650   2.106   3.154   0.782 -0.4947 -1.2903  0.6790
  163SOL    HW2  651   2.066   3.013   0.837 -3.9266 -0.1358 -0.4044
  163SOL     MW  652   2.116   3.091   0.843 -0.7261 -0.1025 -0.1603
  164SOL     OW  653   0.306   0.215   0.801 -0.1623 -0.0362  0.0476
  164SOL    HW1  654   0.216   0.202   0.830 -0.2660  0.4054 -1.2198
  164SOL    HW2  655   0.329   0.138   0.751  0.8522 -0.5344  3.9137
  164SOL     MW  656   0.298   0.203   0.799 -0.0421 -0.0437  0.3905
  165SOL     OW  657   1.210   1.291   0.339  0.4577 -0.0816  0.3742
  165SOL    HW1  658   1.243   1.279   0.432 -0.2537 -0.2587 -0.1889
  165SOL    HW2  659   1.224   1.203   0.296  1.8328 -0.6354  0.8274
  165SOL     MW  660   1.216   1.278   0.346  0.5452 -0.1781  0.3597
  166SOL     OW  661   0.480   1.115   1.033 -0.2346  0.6619 -0.1976
  166SOL    HW1  662   0.448   1.155   1.115  1.0165  2.7497  2.5984
  166SOL    HW2  663   0.578   1.113   1.025 -1.4046 -1.2786  0.2498
  166SOL     MW  664   0.489   1.120   1.042 -0.2239  0.6814  0.2304
  167SOL     OW  665   0.801   1.160   0.297  0.2348  0.3441  0.1266
  167SOL    HW1  666   0.844   1.248   0.313 -0.7499  1.2977 -0.1681
  167SOL    HW2  667   0.872   1.114   0.241  2.7591 -0.4388  0.9579
  167SOL     MW  668   0.816   1.165   0.291  0.4379  0.3666  0.1974
  168SOL     OW  669   1.724   1.617   3.047  0.2010 -0.2166  0.0733
  168SOL    HW1  670   1.663   1.689   3.026  0.2687  0.8196 -2.5392
  168SOL    HW2  671   1.675   1.539   3.023 -1.1333  1.3871  0.0771
  168SOL     MW  672   1.709   1.617   3.041  0.0339  0.1317 -0.2709
  169SOL     OW  673   0.332   1.018   1.360 -0.1551  0.1999 -0.5673
  169SOL    HW1  674   0.351   1.024   1.457 -0.4267  1.2120 -1.8407
  169SOL    HW2  675   0.362   1.099   1.316 -2.1453  3.0628 -0.1056
  169SOL     MW  676   0.339   1.029   1.367 -0.4536  0.7111 -0.6744
  170SOL     OW  677   1.159   1.507   1.474 -0.6540 -0.3057 -0.2174
  170SOL    HW1  678   1.146   1.602   1.478 -0.3525  0.3586  0.3095
  170SOL    HW2  679   1.164   1.477   1.382  1.5856 -0.0845 -0.4950
  170SOL     MW  680   1.158   1.515   1.463 -0.3187 -0.1889 -0.1845
  171SOL     OW  681   0.517   1.473   0.515 -0.2298 -0.1222  0.8754
  171SOL    HW1  682   0.425   1.441   0.549 -2.3882  1.6270  0.1701
  171SOL    HW2  683   0.557   1.403   0.455  1.3381 -3.8025  0.6063
  171SOL     MW  684   0.510   1.459   0.511 -0.3077 -0.3770  0.7469
  172SOL     OW  685   0.745   0.292   1.277  0.2911  0.5997  0.1463
  172SOL    HW1  686   0.732   0.245   1.189 -0.0547  1.2038 -0.7860
  172SOL    HW2  687   0.788   0.223   1.328  1.3826 -1.4782  0.8994
  172SOL     MW  688   0.749   0.277   1.272  0.3895  0.4053  0.1227
  173SOL     OW  689   0.556   1.734   0.320 -0.1733  0.3044 -0.6583
  173SOL    HW1  690   0.553   1.652   0.275 -1.4877  3.1753  3.9798
  173SOL    HW2  691   0.606   1.725   0.401  2.7985 -0.7218 -0.8265
  173SOL     MW  692   0.562   1.722   0.324  0.0453  0.5478 -0.0686
  174SOL     OW  693   1.866   0.856   1.499  0.1414  0.0202 -0.2115
  174SOL    HW1  694   1.788   0.797   1.493  2.3600 -4.0104 -0.9892
  174SOL    HW2  695   1.861   0.893   1.407  2.5960 -1.5617 -1.6458
  174SOL     MW  696   1.855   0.853   1.486  0.7580 -0.7203 -0.5034
  175SOL     OW  697   0.574   1.491   0.152 -0.2770 -0.4011  0.0317
  175SOL    HW1  698   0.519   1.413   0.159  2.5339 -1.4097  0.2133
  175SOL    HW2  699   0.667   1.457   0.131  0.9741  2.0748  1.0373
  175SOL     MW  700   0.579   1.476   0.150  0.2589 -0.2075  0.1884
  176SOL     OW  701   0.123   1.489   1.192 -0.5718  0.2858  0.2331
  176SOL    HW1  702   0.120   1.422   1.119  1.0635 -3.0352 -2.3116
  176SOL    HW2  703   0.037   1.483   1.235  0.1471 -2.4636  0.4220
  176SOL     MW  704   0.111   1.480   1.188 -0.2612 -0.5151 -0.0777
  177SOL     OW  705   0.537   0.325   1.427 -0.8907  0.3251 -0.4670
  177SOL    HW1  706   0.587   0.336   1.346  1.8122 -0.0843 -0.5064
  177SOL    HW2  707   0.523   0.413   1.462 -1.0070 -1.1125 -0.0300
  177SOL     MW  708   0.542   0.338   1.421 -0.5494  0.0814 -0.4145
  178SOL     OW  709   3.084   0.491   3.003 -0.5637 -0.1818  0.4444
  178SOL    HW1  710   3.039   0.502   3.091  1.4070  1.8811 -0.8326
  178SOL    HW2  711   3.012   0.466   2.949 -1.0197  1.6056 -2.1492
  178SOL     MW  712   3.069   0.489   3.007 -0.3639  0.3262 -0.0663
  179SOL     OW  713   1.556   1.466   1.333 -0.5105  0.1525 -0.0176
  179SOL    HW1  714   1.563   1.485   1.427 -2.4249 -0.2966 -2.8015
  179SOL    HW2  715   1.648   1.454   1.299 -2.0940 -0.5644  0.2169
  179SOL     MW  716   1.569   1.467   1.341 -0.9720 -0.0013 -0.3540
  180SOL     OW  717   3.085   0.290   0.445  0.6000 -0.5108 -0.2049
  180SOL    HW1  718   3.036   0.298   0.367  4.2721 -0.2570 -0.8158
  180SOL    HW2  719   3.145   0.366   0.442  1.8638  1.2611 -0.1399
  180SOL     MW  720   3.087   0.301   0.434  1.2512 -0.2435 -0.2769
  181SOL     OW  721   1.106   1.285   3.091 -0.1148  0.3678  0.0020
  181SOL    HW1  722   1.159   1.355   3.134 -4.3430 -0.6769  0.7504
  181SOL    HW2  723   1.150   1.252   3.011  0.4969 -3.0225 -0.8383
  181SOL     MW  724   1.119   1.290   3.086 -0.5919 -0.2174 -0.0101
  182SOL     OW  725   0.377   0.970   1.643 -0.2325 -0.1905 -0.2428
  182SOL    HW1  726   0.295   0.924   1.677  1.7025  1.6537  2.8781
  182SOL    HW2  727   0.437   0.915   1.693 -1.7980  0.2465  0.4647
  182SOL     MW  728   0.374   0.957   1.654 -0.1838  0.1105  0.2623
  183SOL     OW  729   1.567   1.740   1.284  0.8893  0.5949  0.6745
  183SOL    HW1  730   1.664   1.744   1.288 -1.3655 -0.7125  0.0588
  183SOL    HW2  731   1.543   1.646   1.288  1.4189  1.7358 -2.2470
  183SOL     MW  732   1.577   1.728   1.285  0.6617  0.5729  0.2078
  184SOL     OW  733   0.801   0.724   1.783  0.3031  0.0381 -0.3235
  184SOL    HW1  734   0.867   0.684   1.728  1.3878  0.3159 -0.5846
  184SOL    HW2  735   0.774   0.655   1.839 -0.9366 -1.5535 -1.3796
  184SOL     MW  736   0.806   0.710   1.783  0.2826 -0.1352 -0.4973
  185SOL     OW  737   1.102   0.964   1.862  0.6825  0.0099 -0.7462
  185SOL    HW1  738   1.063   0.889   1.908  3.7775  0.8011  0.9546
  185SOL    HW2  739   1.145   1.007   1.940 -0.8846 -0.7816  1.9365
  185SOL     MW  740   1.103   0.960   1.878  0.8841  0.0098 -0.1678
  186SOL     OW  741   0.291   1.618   1.484 -0.2307 -0.4008 -0.0519
  186SOL    HW1  742   0.314   1.609   1.394 -0.6901 -3.0112  0.8849
  186SOL    HW2  743   0.208   1.575   1.507 -2.3826  0.3576 -1.9834
  186SOL     MW  744   0.283   1.612   1.475 -0.5752 -0.6452 -0.1831
  187SOL     OW  745   1.433   0.762   1.389 -0.2591 -0.0161  0.1205
  187SOL    HW1  746   1.465   0.757   1.479 -0.6214 -0.6904 -0.1608
  187SOL    HW2  747   1.344   0.727   1.376  0.2525 -2.8607 -1.9725
  187SOL     MW  748   1.425   0.757   1.399 -0.2394 -0.4804 -0.1928
  188SOL     OW  749   1.899   1.203   0.846 -0.3305 -0.1472  0.3046
  188SOL    HW1  750   1.882   1.160   0.932  1.8039 -0.6511  3.6173
  188SOL    HW2  751   1.957   1.135   0.807  1.3717 -1.2487 -1.1707
  188SOL     MW  752   1.905   1.188   0.852  0.1757 -0.3591  0.5470
  189SOL     OW  753   0.677   0.727   0.871  0.1678 -0.2399 -0.5179
  189SOL    HW1  754   0.609   0.794   0.858  1.6207 -2.5046  1.0819
  189SOL    HW2  755   0.733   0.754   0.948 -2.6663  1.0371  1.1991
  189SOL     MW  756   0.675   0.739   0.879 -0.0145 -0.3702 -0.0803
  190SOL     OW  757   1.868   0.293   2.102  0.0072  0.5303 -0.7044
  190SOL    HW1  758   1.860   0.251   2.194  2.6644 -0.5911  1.9729
  190SOL    HW2  759   1.967   0.312   2.103  0.2934  1.5016  1.9577
  190SOL     MW  760   1.880   0.290   2.114  0.3955  0.5105  0.0001
  191SOL     OW  761   1.539   0.977   1.237  0.5419 -0.1702 -0.3170
  191SOL    HW1  762   1.555   1.045   1.304 -1.3316  0.4396  2.1765
  191SOL    HW2  763   1.486   0.912   1.285 -0.0152 -0.3400  0.8792
  191SOL     MW  764   1.534   0.977   1.252  0.2212 -0.1121  0.1698
  192SOL     OW  765   0.541   2.186   2.880  0.3976  0.1949  0.5670
  192SOL    HW1  766   0.506   2.199   2.794  0.0646  1.7367 -0.1913
  192SOL    HW2  767   0.552   2.092   2.870  0.2785  0.1016  0.3015
  192SOL     MW  768   0.538   2.175   2.867  0.3380  0.3860  0.4320
  193SOL     OW  769   0.846   1.637   0.801 -0.7470  0.1237  0.5974
  193SOL    HW1  770   0.748   1.660   0.803 -3.1116  3.2352  0.7860
  193SOL    HW2  771   0.849   1.552   0.747  0.1361  2.9979  1.3820
  193SOL     MW  772   0.833   1.629   0.794 -0.9424  0.9135  0.7258
  194SOL     OW  773   0.479   1.326   0.809 -0.6379 -0.0466  0.3560
  194SOL    HW1  774   0.453   1.271   0.887  0.1379 -0.3258 -0.5345
  194SOL    HW2  775   0.395   1.342   0.765  0.2954  4.4473  1.3118
  194SOL     MW  776   0.464   1.321   0.813 -0.4124  0.5095  0.3646
  195SOL     OW  777   1.290   1.093   2.984 -0.5659 -0.2142  0.3614
  195SOL    HW1  778   1.319   1.124   3.069  0.5313 -0.0018 -0.5431
  195SOL    HW2  779   1.232   1.022   3.002 -1.8138  0.9474  1.0466
  195SOL     MW  780   1.286   1.088   2.997 -0.5858 -0.0329  0.3324
  196SOL     OW  781   2.270   1.025   0.590 -0.2084  0.2874  0.1234
  196SOL    HW1  782   2.304   1.000   0.498  0.0641 -1.5510  0.4122
  196SOL    HW2  783   2.233   1.115   0.580  2.3656  1.6572 -1.4545
  196SOL     MW  784   2.270   1.034   0.577  0.1672  0.2256 -0.0467
  197SOL     OW  785   0.638   1.351   2.204  0.1032  0.7356 -0.3692
  197SOL    HW1  786   0.643   1.279   2.145 -0.9983  1.5527  0.5006
  197SOL    HW2  787   0.713   1.406   2.170 -2.0788  0.0013 -3.0185
  197SOL     MW  788   0.649   1.349   2.192 -0.3300  0.7465 -0.6039
  198SOL     OW  789   2.936   1.431   0.978  0.4070  0.1140 -0.3553
  198SOL    HW1  790   2.923   1.523   0.962  0.9745 -0.4134 -1.3167
  198SOL    HW2  791   2.857   1.378   0.956 -1.6700  3.0267  1.3428
  198SOL     MW  792   2.924   1.436   0.973  0.2078  0.4287 -0.2581
  199SOL     OW  793   0.698   1.313   1.822 -0.8596 -0.1817 -0.4536
  199SOL    HW1  794   0.610   1.279   1.847 -2.1174 -0.5470  0.3897
  199SOL    HW2  795   0.684   1.357   1.735  1.0312 -0.1632 -2.6986
  199SOL     MW  796   0.684   1.314   1.814 -0.7761 -0.2274 -0.6385
  200SOL     OW  797   1.844   2.917   1.335 -0.1021 -0.3751 -0.3751
  200SOL    HW1  798   1.896   2.962   1.262  0.9791  2.2991 -0.9511
  200SOL    HW2  799   1.760   2.977   1.346 -2.9224  3.4465  0.3689
  200SOL     MW  800   1.840   2.931   1.327 -0.3315  0.4820 -0.3529
  201SOL     OW  801   1.166   0.334   0.803  0.7460  0.0133  0.2916
  201SOL    HW1  802   1.136   0.240   0.794  1.2190 -0.3046  1.8015
  201SOL    HW2  803   1.250   0.325   0.847 -0.9649 -2.2059  0.5297
  201SOL     MW  804   1.173   0.320   0.807  0.5827 -0.3215  0.5222
  202SOL     OW  805   1.502   1.761   0.985  0.1814 -0.7524 -0.2402
  202SOL    HW1  806   1.513   1.665   0.981  1.1047  1.4748 -0.4080
  202SOL    HW2  807   1.509   1.783   1.075 -0.5766 -2.4311 -3.6416
  202SOL     MW  808   1.504   1.751   0.996  0.2032 -0.6800 -0.7111
  203SOL     OW  809   3.003   0.351   1.317  0.4322  0.1387 -0.7532
  203SOL    HW1  810   3.032   0.266   1.338 -2.3045 -1.4329  0.8985
  203SOL    HW2  811   3.090   0.390   1.310  2.1517  0.7621  3.0378
  203SOL     MW  812   3.018   0.345   1.319  0.2980  0.0136 -0.0351
  204SOL     OW  813   1.016   1.787   0.644  0.4326  0.0017  0.1216
  204SOL    HW1  814   0.955   1.739   0.699 -1.6607  1.0943  1.0157
  204SOL    HW2  815   0.965   1.803   0.564  0.8844  2.0245  1.4198
  204SOL     MW  816   1.001   1.783   0.641  0.2160  0.4128  0.4108
  205SOL     OW  817   1.388   3.041   1.317 -0.2495 -0.1080 -0.0370
  205SOL    HW1  818   1.431   3.076   1.239 -0.3803  1.5079 -0.2179
  205SOL    HW2  819   1.338   3.110   1.364  1.2292 -0.9404  1.1954
  205SOL     MW  820   1.387   3.054   1.313 -0.0717 -0.0046  0.1017
  206SOL     OW  821   0.402   2.974   1.345 -0.1808 -0.5156  0.2877
  206SOL    HW1  822   0.377   2.990   1.253  0.4046 -4.1637 -1.3899
  206SOL    HW2  823   0.490   3.001   1.361 -0.8457  0.3401 -0.8042
  206SOL     MW  824   0.410   2.980   1.335 -0.1913 -0.8840 -0.0777
  207SOL     OW  825   0.869   1.780   0.209  0.0727  0.1352 -0.6191
  207SOL    HW1  826   0.941   1.833   0.183 -0.2047  0.6109 -0.0774
  207SOL    HW2  827   0.895   1.691   0.243 -1.9653  0.8362  2.8458
  207SOL     MW  828   0.882   1.775   0.210 -0.2328  0.2904 -0.0905
  208SOL     OW  829   0.781   1.574   1.390 -0.4768 -0.3569 -0.3346
  208SOL    HW1  830   0.869   1.607   1.407  2.3511  0.7014 -2.1604
  208SOL    HW2  831   0.797   1.531   1.309 -1.8077 -1.3588  3.3908
  208SOL     MW  832   0.795   1.572   1.382 -0.2793 -0.3494 -0.0840
  209SOL     OW  833   1.535   0.523   2.849  0.0173 -0.2156 -0.0385
  209SOL    HW1  834   1.594   0.596   2.869  0.8854 -1.7664  2.1267
  209SOL    HW2  835   1.596   0.452   2.816  0.8291 -1.4451 -0.0167
  209SOL     MW  836   1.551   0.523   2.847  0.2389 -0.5824  0.2501
  210SOL     OW  837   1.466   1.469   0.949 -0.2454 -0.2128 -0.2456
  210SOL    HW1  838   1.561   1.459   0.945  0.8880 -1.0787  0.9574
  210SOL    HW2  839   1.434   1.489   0.858 -2.7080 -0.6460  0.4651
  210SOL     MW  840   1.475   1.470   0.937 -0.4208 -0.3842  0.0069
  211SOL     OW  841   1.735   0.350   0.957 -0.3990  0.6878 -0.4141
  211SOL    HW1  842   1.749   0.384   0.867  0.3512 -1.9849 -2.2220
  211SOL    HW2  843   1.816   0.357   1.013 -2.2326 -1.9810 -0.1517
  211SOL     MW  844   1.748   0.355   0.953 -0.5420 -0.0170 -0.6180
  212SOL     OW  845   0.319   1.134   0.247  0.4717  0.7516 -0.6618
  212SOL    HW1  846   0.234   1.083   0.260  0.2842  2.4015 -2.3091
  212SOL    HW2  847   0.371   1.065   0.210  1.5394 -0.5956 -0.2150
  212SOL     MW  848   0.315   1.118   0.244  0.5879  0.7916 -0.8202
  213SOL     OW  849   0.367   1.870   3.030  0.1128  0.1181 -0.0074
  213SOL    HW1  850   0.418   1.871   3.115 -1.0373  1.5051 -1.2825
  213SOL    HW2  851   0.436   1.880   2.957  0.2710  0.3975 -2.0447
  213SOL     MW  852   0.383   1.872   3.032 -0.0181  0.3379 -0.4445
  214SOL     OW  853   0.595   0.297   2.119 -0.0751 -0.2886 -0.0869
  214SOL    HW1  854   0.524   0.367   2.136 -4.3365  3.2977  2.7125
  214SOL    HW2  855   0.630   0.310   2.033  2.5071  0.5154 -1.0915
  214SOL     MW  856   0.590   0.308   2.110 -0.2967  0.2907  0.1499
  215SOL     OW  857   0.498   0.545   2.527  0.4064 -0.0050  0.1220
  215SOL    HW1  858   0.468   0.590   2.452 -1.5528  0.2945  2.5388
  215SOL    HW2  859   0.430   0.582   2.586 -1.0958 -3.4881  2.5559
  215SOL     MW  860   0.485   0.556   2.525 -0.0503 -0.4251  0.7620
  216SOL     OW  861   2.923   3.082   2.717 -0.1239  0.3651 -0.2912
  216SOL    HW1  862   2.887   3.050   2.803  0.9361  1.4492  2.3394
  216SOL    HW2  863   2.922   3.185   2.719 -0.8722  1.4696  0.6170
  216SOL     MW  864   2.918   3.091   2.729 -0.0828  0.6539  0.1757
  217SOL     OW  865   1.020   1.072   0.152 -0.4785 -0.0171  0.2611
  217SOL    HW1  866   1.043   1.010   0.082 -1.6498  1.3541  2.2948
  217SOL    HW2  867   1.044   1.153   0.098 -1.1186  0.5823 -1.7491
  217SOL     MW  868   1.026   1.074   0.136 -0.7175  0.2429  0.2642
  218SOL     OW  869   0.865   1.366   2.646 -0.1994  0.1459 -0.3015
  218SOL    HW1  870   0.848   1.322   2.733 -1.9080  3.1048  2.2098
  218SOL    HW2  871   0.959   1.393   2.641 -0.8250  1.3594 -1.7254
  218SOL     MW  872   0.875   1.364   2.657 -0.5074  0.6964 -0.1581
  219SOL     OW  873   1.040   0.404   2.621  0.2623 -0.1429 -0.1392
  219SOL    HW1  874   1.108   0.471   2.625 -1.8703 -0.2156  0.8086
  219SOL    HW2  875   0.957   0.457   2.606  0.2217  0.8380  1.1615
  219SOL     MW  876   1.038   0.420   2.620 -0.0244 -0.0231  0.1575
  220SOL     OW  877   1.728   0.519   2.177  0.3608  0.0457 -0.1426
  220SOL    HW1  878   1.664   0.527   2.104 -0.3969  1.7246  0.0430
  220SOL    HW2  879   1.774   0.438   2.149  0.6307  1.2224 -0.7735
  220SOL     MW  880   1.725   0.509   2.164  0.2964  0.4225 -0.2014
  221SOL     OW  881   0.349   1.329   2.932  0.6563  0.2285 -0.1396
  221SOL    HW1  882   0.418   1.266   2.931 -1.7857 -0.9895  0.5625
  221SOL    HW2  883   0.388   1.397   2.883 -0.1085 -0.9426 -2.6925
  221SOL     MW  884   0.364   1.330   2.925  0.2332 -0.0867 -0.3838
  222SOL     OW  885   0.508   0.964   2.682 -0.1595 -0.4505  0.2875
  222SOL    HW1  886   0.420   0.995   2.682  0.6922 -0.9342 -2.2730
  222SOL    HW2  887   0.509   0.867   2.684  1.4741  1.5639  0.9316
  222SOL     MW  888   0.496   0.955   2.682  0.1684 -0.2486  0.0346
  223SOL     OW  889   0.018   2.049   2.530 -0.1325 -0.3529 -0.6290
  223SOL    HW1  890   0.017   2.061   2.626  2.3560 -2.4292  1.5843
  223SOL    HW2  891   0.065   2.136   2.508 -2.7697  3.5646  0.3484
  223SOL     MW  892   0.024   2.062   2.540 -0.1521 -0.1100 -0.2080
  224SOL     OW  893   1.446   0.715   2.462  0.0859 -0.0569 -0.2627
  224SOL    HW1  894   1.491   0.703   2.540 -0.5459 -3.3844 -0.1000
  224SOL    HW2  895   1.447   0.812   2.464  0.2003 -0.3026  0.6038
  224SOL     MW  896   1.452   0.726   2.472  0.0176 -0.5283 -0.1269
  225SOL     OW  897   2.925   1.454   2.310 -0.7083  0.6575  0.5966
  225SOL    HW1  898   2.964   1.534   2.270  0.0834 -1.6167 -0.2639
  225SOL    HW2  899   2.842   1.480   2.346  0.0854 -1.6471 -0.3152
  225SOL     MW  900   2.919   1.468   2.309 -0.4992  0.0534  0.3628
  226SOL     OW  901   0.426   1.480   2.715  0.1492 -0.0193 -0.3609
  226SOL    HW1  902   0.519   1.499   2.698 -0.2141  1.6882  3.2978
  226SOL    HW2  903   0.388   1.564   2.711  1.7860  1.7212  1.9603
  226SOL     MW  904   0.433   1.494   2.712  0.3173  0.4356  0.4281
  227SOL     OW  905   0.547   1.146   2.926 -0.0719  0.3244  0.0331
  227SOL    HW1  906   0.636   1.178   2.924 -3.5717  0.4800 -2.3827
  227SOL    HW2  907   0.535   1.074   2.861 -1.2543 -0.5463  0.2545
  227SOL     MW  908   0.557   1.140   2.917 -0.6897  0.2301 -0.2564
  228SOL     OW  909   0.748   1.131   2.044 -0.2982  0.2741 -0.1000
  228SOL    HW1  910   0.760   1.177   1.960 -0.8106 -1.4697  1.4954
  228SOL    HW2  911   0.826   1.158   2.094 -0.5281  0.7460 -0.3914
  228SOL     MW  912   0.760   1.141   2.039 -0.3961  0.1063  0.0720
  229SOL     OW  913   0.253   0.566   3.082  0.3781 -0.4675 -0.0170
  229SOL    HW1  914   0.155   0.552   3.057 -0.0374 -1.1916  0.2531
  229SOL    HW2  915   0.262   0.477   3.127  0.4119 -1.4246  1.1713
  229SOL     MW  916   0.241   0.552   3.085  0.3277 -0.6894  0.1754
  230SOL     OW  917   1.793   1.370   2.017  0.0113 -0.3867 -0.0048
  230SOL    HW1  918   1.757   1.332   2.094 -0.6838  1.4543 -2.5319
  230SOL    HW2  919   1.882   1.334   1.999 -0.1722 -0.8523  1.8161
  230SOL     MW  920   1.800   1.360   2.025 -0.1046 -0.2052 -0.0980
  231SOL     OW  921   2.711   1.232   2.268 -0.7057 -0.5688  0.0595
  231SOL    HW1  922   2.761   1.297   2.324  0.8895  0.0874  0.1926
  231SOL    HW2  923   2.707   1.274   2.186  2.1776  2.6246  1.7752
  231SOL     MW  924   2.717   1.246   2.265 -0.1148 -0.0609  0.3034
  232SOL     OW  925   2.299   0.825   1.942 -0.2822  0.7548 -0.2749
  232SOL    HW1  926   2.218   0.853   1.890 -1.0830  0.7389  0.7026
  232SOL    HW2  927   2.273   0.814   2.033  0.8885  1.2158 -0.9574
  232SOL     MW  928   2.285   0.827   1.947 -0.2334  0.8135 -0.2359
  233SOL     OW  929   2.102   0.427   2.080 -0.3201 -0.3188  0.0160
  233SOL    HW1  930   2.158   0.352   2.052  1.5284 -1.2180 -0.7993
  233SOL    HW2  931   2.137   0.460   2.156  0.3882 -0.9685 -1.1019
  233SOL     MW  932   2.114   0.422   2.087  0.0173 -0.5232 -0.2391
  234SOL     OW  933   0.229   1.034   2.650 -0.2831  0.0005  0.7495
  234SOL    HW1  934   0.159   1.002   2.596 -0.5464  0.3154 -0.7236
  234SOL    HW2  935   0.257   1.114   2.595 -2.0440  0.6475  0.0292
  234SOL     MW  936   0.223   1.040   2.635 -0.5501  0.1274  0.4601
  235SOL     OW  937   1.114   3.015   2.824  0.9984  0.4952 -0.0570
  235SOL    HW1  938   1.108   2.990   2.916  1.5640 -0.7907 -0.5513
  235SOL    HW2  939   1.087   3.112   2.827 -3.0931 -2.0404  0.3174
  235SOL     MW  940   1.110   3.025   2.836  0.5332 -0.0090 -0.0728
  236SOL     OW  941   2.957   0.617   0.216  0.0400  0.2175  0.5152
  236SOL    HW1  942   2.974   0.625   0.309  0.0352  0.4453  1.0384
  236SOL    HW2  943   2.998   0.681   0.162  0.2066 -0.6500  1.2330
  236SOL     MW  944   2.964   0.626   0.221  0.0613  0.1331  0.6789
  237SOL     OW  945   1.938   1.070   2.144 -0.5199  0.6921  0.5903
  237SOL    HW1  946   1.857   1.110   2.179 -3.8044 -1.0355 -0.6189
  237SOL    HW2  947   1.903   1.006   2.088  0.0533 -0.5036 -2.0775
  237SOL     MW  948   1.923   1.067   2.141 -0.8776  0.3064  0.0788
  238SOL     OW  949   1.090   1.741   2.949 -0.5399 -0.6251 -0.3649
  238SOL    HW1  950   1.042   1.664   2.947  0.0551  0.6067 -0.5507
  238SOL    HW2  951   1.179   1.706   2.926 -0.1783 -0.0015 -1.5598
  238SOL     MW  952   1.096   1.727   2.945 -0.4137 -0.3803 -0.5470
  239SOL     OW  953   1.176   1.288   2.301  0.3263  0.0061  0.7957
  239SOL    HW1  954   1.090   1.254   2.280  1.0891  0.4155  1.2637
  239SOL    HW2  955   1.162   1.278   2.399 -1.0934  0.1521 -0.1587
  239SOL     MW  956   1.163   1.282   2.311  0.2397  0.0793  0.7315
  240SOL     OW  957   0.586   0.885   2.214  0.1492 -0.3577  0.3884
  240SOL    HW1  958   0.591   0.951   2.294 -0.8538  0.8640  3.8951
  240SOL    HW2  959   0.678   0.855   2.203 -1.2655 -1.7223 -0.5362
  240SOL     MW  960   0.599   0.890   2.223 -0.1698 -0.3766  0.7291
  241SOL     OW  961   0.665   0.447   3.068 -0.0973 -0.0794 -0.0208
  241SOL    HW1  962   0.694   0.530   3.102 -0.7021 -2.1873 -1.1357
  241SOL    HW2  963   0.578   0.463   3.027 -0.7166  0.0886 -0.3633
  241SOL     MW  964   0.657   0.460   3.067 -0.2588 -0.3354 -0.2131
  242SOL     OW  965   1.510   1.675   2.317  0.3963 -0.2919  0.2319
  242SOL    HW1  966   1.450   1.745   2.307 -0.2081  1.4649 -0.9189
  242SOL    HW2  967   1.463   1.604   2.266  1.7520  0.4180 -0.5915
  242SOL     MW  968   1.496   1.675   2.309  0.4954  0.0335 -0.0286
  243SOL     OW  969   1.042   0.323   2.356 -0.3325 -0.0446 -0.1329
  243SOL    HW1  970   1.123   0.281   2.323 -0.9122 -0.8845  0.6119
  243SOL    HW2  971   1.062   0.378   2.428 -0.2380  0.1027  3.1988
  243SOL     MW  972   1.055   0.325   2.361 -0.3965 -0.1360  0.4050
  244SOL     OW  973   0.117   0.743   2.384  0.3847 -0.2935 -0.3353
  244SOL    HW1  974   0.101   0.833   2.410 -0.4844  2.5848 -0.5630
  244SOL    HW2  975   0.207   0.745   2.357  1.6987 -0.2697  0.6847
  244SOL     MW  976   0.127   0.755   2.384  0.4434  0.0894 -0.2307
  245SOL     OW  977   1.292   0.182   2.391 -0.1190 -0.5925  0.8958
  245SOL    HW1  978   1.363   0.140   2.332  1.0617  1.2870 -1.0829
  245SOL    HW2  979   1.264   0.115   2.462  2.7332 -4.1126 -1.4899
  245SOL     MW  980   1.297   0.168   2.393  0.4131 -0.8090  0.3199
  246SOL     OW  981   1.233   1.096   2.085  0.1757  0.2836  0.6450
  246SOL    HW1  982   1.187   1.122   2.161 -0.0292  0.3737  0.2061
  246SOL    HW2  983   1.329   1.081   2.112  1.3990 -1.6539  1.1630
  246SOL     MW  984   1.239   1.098   2.099  0.3101  0.0398  0.6554
  247SOL     OW  985   0.765   0.650   0.127  0.5214 -0.1387  0.0059
  247SOL    HW1  986   0.729   0.740   0.137 -2.4316 -0.2090 -0.6733
  247SOL    HW2  987   0.864   0.653   0.126 -1.1577  2.7681  1.0856
  247SOL     MW  988   0.774   0.662   0.128 -0.0897  0.2356  0.0588
  248SOL     OW  989   0.301   1.284   2.537 -0.1340  0.4480 -0.0379
  248SOL    HW1  990   0.314   1.319   2.443  0.3161 -1.8700 -1.7127
  248SOL    HW2  991   0.332   1.358   2.596 -3.1174 -0.2713 -0.8664
  248SOL     MW  992   0.307   1.299   2.532 -0.4682  0.0473 -0.3682
  249SOL     OW  993   2.982   1.935   2.795 -0.3887 -0.1759 -0.5630
  249SOL    HW1  994   2.933   1.860   2.768 -0.6424 -0.6235  0.6945
  249SOL    HW2  995   3.054   1.903   2.850  0.1460  1.3919 -0.7415
  249SOL     MW  996   2.985   1.921   2.799 -0.3517 -0.0281 -0.4206
  250SOL     OW  997   2.198   0.810   2.194  0.5985  0.4408 -0.0991
  250SOL    HW1  998   2.202   0.719   2.231 -0.7080 -6.5003  1.2308
  250SOL    HW2  999   2.191   0.864   2.271 -3.1100  2.7945 -2.6254
  250SOL     MW 1000   2.198   0.805   2.209 -0.0632 -0.1645 -0.2569
  251SOL     OW 1001   0.130   0.878   2.039 -0.0318 -0.0248  0.6989
  251SOL    HW1 1002   0.078   0.798   2.054 -1.8699 -2.5963  0.2772
  251SOL    HW2 1003   0.142   0.880   1.943 -1.4686 -0.3874  2.1136
  251SOL     MW 1004   0.124   0.868   2.028 -0.4639 -0.4120  0.8299
  252SOL     OW 1005   1.675   0.975   2.843  0.3011 -0.4014  0.4230
  252SOL    HW1 1006   1.639   1.051   2.890 -2.4417 -0.7595  2.2392
  252SOL    HW2 1007   1.755   1.007   2.793  1.2878  0.9450 -2.5926
  252SOL     MW 1008   1.681   0.989   2.843  0.0694 -0.2710  0.2648
  253SOL     OW 1009   1.180   1.713   2.464  0.0945  0.5881 -0.0357
  253SOL    HW1 1010   1.151   1.683   2.377 -2.3067  2.5322 -1.5014
  253SOL    HW2 1011   1.094   1.755   2.486  1.1207 -4.3111 -2.2378
  253SOL     MW 1012   1.165   1.715   2.456 -0.0869  0.1982 -0.5197
  254SOL     OW 1013   0.961   1.127   2.224 -0.0936 -0.0004 -0.3510
  254SOL    HW1 1014   0.955   1.029   2.212 -2.5781 -1.9326  2.5823
  254SOL    HW2 1015   0.890   1.134   2.291  0.3239 -0.7127  1.4555
  254SOL     MW 1016   0.950   1.115   2.231 -0.3663 -0.3493  0.2744
  255SOL     OW 1017   0.833   2.555   2.120  0.2864 -0.0237 -0.1260
  255SOL    HW1 1018   0.748   2.513   2.106  0.0279  1.1388 -1.0962
  255SOL    HW2 1019   0.910   2.508   2.139 -0.1919  1.0773 -0.8322
  255SOL     MW 1020   0.832   2.544   2.121  0.1892  0.2749 -0.3472
  256SOL     OW 1021   1.219   2.767   2.999  0.1830 -0.0811 -0.1379
  256SOL    HW1 1022   1.218   2.674   3.026  2.4106 -1.4705  1.7053
  256SOL    HW2 1023   1.296   2.769   2.938  2.9076  1.2251 -0.7544
  256SOL     MW 1024   1.229   2.755   2.994  0.8364 -0.0921  0.0240
  257SOL     OW 1025   0.029   1.877   0.108 -0.5350  0.2228  0.3651
  257SOL    HW1 1026   0.087   1.832   0.173  0.0974 -0.0578  0.6776
  257SOL    HW2 1027   0.064   1.883   0.021 -1.5328 -0.1961 -0.7511
  257SOL     MW 1028   0.041   1.872   0.105 -0.5832  0.1305  0.2591
  258SOL     OW 1029   0.647   1.002   2.459  0.0361  0.1086  0.2844
  258SOL    HW1 1030   0.666   1.090   2.433  2.1949 -2.7511  2.5076
  258SOL    HW2 1031   0.597   1.004   2.540  2.0252  1.3379  2.1941
  258SOL     MW 1032   0.643   1.014   2.466  0.5834 -0.1065  0.8297
  259SOL     OW 1033   0.834   0.504   2.267  0.1935 -0.2264 -0.3006
  259SOL    HW1 1034   0.759   0.451   2.267  2.2079 -0.4034 -0.0250
  259SOL    HW2 1035   0.907   0.442   2.279 -1.2446 -2.4131 -1.1621
  259SOL     MW 1036   0.834   0.489   2.268  0.2696 -0.5383 -0.3779
  260SOL     OW 1037   0.649   0.124   1.573  0.4023  0.7639  0.2653
  260SOL    HW1 1038   0.599   0.190   1.533 -0.0449 -2.2026 -0.0488
  260SOL    HW2 1039   0.711   0.102   1.507 -0.2740  0.7173  0.6837
  260SOL     MW 1040   0.650   0.130   1.559  0.2540  0.3664  0.2791
  261SOL     OW 1041   1.029   0.700   1.997  0.5589 -0.0424 -0.0401
  261SOL    HW1 1042   1.075   0.677   2.077  1.7434  1.4549  1.6088
  261SOL    HW2 1043   0.993   0.620   1.967 -0.7664  0.5505  1.2773
  261SOL     MW 1044   1.030   0.686   2.003  0.5403  0.2334  0.3512
  262SOL     OW 1045   1.154   0.386   0.102 -0.4262  0.8957  0.0011
  262SOL    HW1 1046   1.241   0.347   0.089  1.5315  0.5169  0.1310
  262SOL    HW2 1047   1.096   0.335   0.041 -1.0644 -0.7914 -1.0314
  262SOL     MW 1048   1.158   0.374   0.092 -0.2521  0.6231 -0.1180
  263SOL     OW 1049   0.373   0.022   2.515  0.0001  0.1345  0.8532
  263SOL    HW1 1050   0.279   0.047   2.523  1.8373 -1.4549 -0.4526
  263SOL    HW2 1051   0.423   0.058   2.438  0.8990  0.1054  2.7526
  263SOL     MW 1052   0.368   0.030   2.506  0.3611 -0.0791  0.9315
  264SOL     OW 1053   1.533   1.439   1.932 -0.1171  0.8573  0.0584
  264SOL    HW1 1054   1.499   1.351   1.912 -2.2657  1.6318 -0.7245
  264SOL    HW2 1055   1.614   1.421   1.981 -3.0363 -2.3905 -1.9678
  264SOL     MW 1056   1.540   1.425   1.936 -0.7858  0.5310 -0.3122
  265SOL     OW 1057   0.729   2.819   2.276 -0.0059  0.3478 -0.0920
  265SOL    HW1 1058   0.806   2.762   2.260  1.1598  0.0595 -0.9405
  265SOL    HW2 1059   0.701   2.807   2.367 -2.9147  0.8003 -0.4565
  265SOL     MW 1060   0.735   2.810   2.286 -0.2359  0.3694 -0.2520
  266SOL     OW 1061   0.856   0.890   2.141 -0.7815 -0.2767  0.7477
  266SOL    HW1 1062   0.804   0.944   2.079  1.0271  3.7521  0.1794
  266SOL    HW2 1063   0.909   0.839   2.093 -1.7549  1.1670  1.3679
  266SOL     MW 1064   0.856   0.890   2.126 -0.6713  0.4453  0.7545
  267SOL     OW 1065   1.367   1.675   2.658 -0.0149  0.0132  0.2597
  267SOL    HW1 1066   1.438   1.624   2.631 -1.2523 -0.5427  2.2174
  267SOL    HW2 1067   1.324   1.699   2.575  2.7356  0.3367  0.2709
  267SOL     MW 1068   1.371   1.672   2.644  0.1847 -0.0175  0.5194
  268SOL     OW 1069   0.158   0.895   1.774 -0.5315 -0.0844 -0.4379
  268SOL    HW1 1070   0.109   0.978   1.758  1.0274  2.7169  0.9381
  268SOL    HW2 1071   0.102   0.836   1.724  0.9197 -0.9110 -0.2240
  268SOL     MW 1072   0.144   0.898   1.765 -0.1344  0.1761 -0.2282
  269SOL     OW 1073   1.300   1.888   2.298 -0.3195  0.3076  0.1245
  269SOL    HW1 1074   1.351   1.952   2.349  0.6692 -1.6351 -0.7832
  269SOL    HW2 1075   1.247   1.838   2.367 -0.3079 -1.8786 -0.1356
  269SOL     MW 1076   1.300   1.890   2.314 -0.1876 -0.2372 -0.0296
  270SOL     OW 1077   1.118   0.361   1.560  0.0309 -0.3222 -0.2324
  270SOL    HW1 1078   1.094   0.285   1.614 -0.0847 -1.7828  0.6424
  270SOL    HW2 1079   1.213   0.374   1.567 -0.3308 -1.2193 -0.3574
  270SOL     MW 1080   1.127   0.353   1.568 -0.0320 -0.6333 -0.1335
  271SOL     OW 1081   0.893   0.130   2.485  0.5053  0.3203  0.5205
  271SOL    HW1 1082   0.941   0.051   2.505  0.4927  1.6201 -0.8156
  271SOL    HW2 1083   0.958   0.194   2.457 -2.2282 -1.0892 -0.6588
  271SOL     MW 1084   0.908   0.128   2.484  0.1430  0.3058  0.1886
  272SOL     OW 1085   1.463   2.788   2.819  0.3548 -0.1372 -0.2640
  272SOL    HW1 1086   1.406   2.787   2.744  1.1229 -0.7812 -0.1826
  272SOL    HW2 1087   1.500   2.875   2.830  0.5171 -2.6657 -0.0961
  272SOL     MW 1088   1.460   2.800   2.810  0.4775 -0.5558 -0.2311
  273SOL     OW 1089   1.414   0.812   2.766  0.4404  0.5028  0.4538
  273SOL    HW1 1090   1.490   0.760   2.778 -0.6122 -0.7330 -1.6209
  273SOL    HW2 1091   1.435   0.887   2.707  0.7174  0.3666  1.9127
  273SOL     MW 1092   1.427   0.815   2.760  0.3381  0.3218  0.3726
  274SOL     OW 1093   1.454   0.677   0.152 -0.2120 -0.8737 -0.4291
  274SOL    HW1 1094   1.497   0.593   0.171 -0.2724 -1.3247 -0.5844
  274SOL    HW2 1095   1.386   0.689   0.221  1.0582  1.0931 -0.6083
  274SOL     MW 1096   1.451   0.667   0.163 -0.0524 -0.6737 -0.4733
  275SOL     OW 1097   1.802   0.544   1.745  0.0727  0.0681 -0.2430
  275SOL    HW1 1098   1.860   0.586   1.813  1.9081  0.1212  0.9489
  275SOL    HW2 1099   1.818   0.453   1.764  0.5251 -0.7250  0.1160
  275SOL     MW 1100   1.812   0.538   1.756  0.3746 -0.0295 -0.0384
  276SOL     OW 1101   0.444   1.202   1.915 -0.2972  0.1204 -0.0726
  276SOL    HW1 1102   0.429   1.105   1.922 -2.0587 -1.2552  3.6947
  276SOL    HW2 1103   0.378   1.232   1.984 -1.9400 -2.3766  1.7655
  276SOL     MW 1104   0.434   1.193   1.925 -0.7464 -0.3906  0.6669
  277SOL     OW 1105   1.973   1.094   2.437 -0.2947  0.5612  0.0731
  277SOL    HW1 1106   2.023   1.165   2.477 -1.1782  1.9184 -0.8612
  277SOL    HW2 1107   1.985   1.104   2.343 -0.5447 -0.3585  1.0752
  277SOL     MW 1108   1.981   1.105   2.430 -0.4442  0.6189  0.0820
  278SOL     OW 1109   1.438   0.631   1.702 -0.8809 -0.4292 -0.0478
  278SOL    HW1 1110   1.422   0.593   1.801 -0.4437 -2.3839  1.7524
  278SOL    HW2 1111   1.529   0.650   1.684 -2.0488 -0.2411  1.2179
  278SOL     MW 1112   1.448   0.629   1.713 -0.9773 -0.6623  0.3567
  279SOL     OW 1113   0.518   0.082   2.296 -0.1787  0.4631 -0.6143
  279SOL    HW1 1114   0.607   0.040   2.297  1.2467 -0.8032  1.5946
  279SOL    HW2 1115   0.546   0.167   2.255 -3.0450  2.2701  0.0699
  279SOL     MW 1116   0.533   0.088   2.290 -0.3688  0.5345 -0.2326
  280SOL     OW 1117   1.472   1.079   2.212 -0.3538 -0.2159  0.3395
  280SOL    HW1 1118   1.522   1.014   2.166  1.2377  1.7863  0.4746
  280SOL    HW2 1119   1.455   1.049   2.305  1.9109 -1.2715  0.3014
  280SOL     MW 1120   1.476   1.066   2.218  0.1550 -0.0910  0.3523
  281SOL     OW 1121   1.322   1.150   2.719  0.0999  0.2486  0.7162
  281SOL    HW1 1122   1.383   1.225   2.710 -0.4342 -1.3016  2.4274
  281SOL    HW2 1123   1.335   1.120   2.808  1.6459  0.6681  1.2204
  281SOL     MW 1124   1.332   1.156   2.729  0.2334  0.0994  1.0085
  282SOL     OW 1125   1.190   1.268   1.590  0.1589  0.0339 -0.0711
  282SOL    HW1 1126   1.176   1.356   1.562 -1.8523 -1.6514 -0.5098
  282SOL    HW2 1127   1.107   1.255   1.649 -3.3140 -2.5953 -0.3988
  282SOL     MW 1128   1.177   1.278   1.594 -0.5646 -0.5354 -0.1722
  283SOL     OW 1129   0.825   1.403   0.009 -0.4995 -0.0371 -0.2024
  283SOL    HW1 1130   0.911   1.398   0.047  0.1024 -1.9223 -1.0855
  283SOL    HW2 1131   0.823   1.497  -0.017 -0.7061 -1.8448 -4.2317
  283SOL     MW 1132   0.836   1.415   0.010 -0.4473 -0.5243 -0.8506
  284SOL     OW 1133   0.393   0.694   2.325 -0.5440  0.0717 -0.2481
  284SOL    HW1 1134   0.452   0.767   2.282  2.7418  0.0275  0.5683
  284SOL    HW2 1135   0.404   0.624   2.252  1.0931  1.0383 -3.7895
  284SOL     MW 1136   0.402   0.695   2.310  0.1055  0.1934 -0.6076
  285SOL     OW 1137   0.886   0.833   2.881 -0.1928 -0.3348  0.1092
  285SOL    HW1 1138   0.907   0.882   2.803  0.2821 -3.0465 -1.7212
  285SOL    HW2 1139   0.832   0.756   2.856  2.0173 -0.3343  0.5433
  285SOL     MW 1140   0.881   0.830   2.867  0.1614 -0.6925 -0.0750
  286SOL     OW 1141   1.117   1.464   2.613 -0.3608 -0.2549  0.7265
  286SOL    HW1 1142   1.137   1.374   2.609  0.3535  2.2012  1.3886
  286SOL    HW2 1143   1.192   1.516   2.576 -1.0100  3.2748  1.8110
  286SOL     MW 1144   1.129   1.459   2.608 -0.3522  0.5349  0.9569
  287SOL     OW 1145   1.185   0.999   0.373 -0.5336 -0.7817  0.0305
  287SOL    HW1 1146   1.124   1.018   0.443  2.5705 -2.5569 -0.0034
  287SOL    HW2 1147   1.138   1.029   0.289  0.9126 -1.3966 -2.1160
  287SOL     MW 1148   1.171   1.005   0.371  0.0668 -1.0971 -0.2572
  288SOL     OW 1149   1.464   0.619   2.133  0.4933  0.3086  0.2673
  288SOL    HW1 1150   1.412   0.570   2.208 -2.0445 -2.5630  0.6337
  288SOL    HW2 1151   1.478   0.713   2.146 -0.8987 -2.7050  1.3638
  288SOL     MW 1152   1.459   0.625   2.145 -0.0252 -0.4679  0.4603
  289SOL     OW 1153   0.921   0.949   2.597 -0.5854  0.1922  0.1912
  289SOL    HW1 1154   0.971   0.882   2.559 -0.4549  1.6350 -2.0962
  289SOL    HW2 1155   0.833   0.948   2.555 -0.2527 -0.7792  1.7078
  289SOL     MW 1156   0.916   0.940   2.587 -0.5243  0.2544  0.0895
  290SOL     OW 1157   0.788   0.655   1.462 -0.7553  0.0417  0.1420
  290SOL    HW1 1158   0.815   0.590   1.398 -1.8213 -0.7960  0.9484
  290SOL    HW2 1159   0.859   0.648   1.530 -1.1084 -0.0678  1.9097
  290SOL     MW 1160   0.801   0.646   1.463 -0.9425 -0.0833  0.4816
  291SOL     OW 1161   0.233   0.333   0.144  0.7153 -0.2291 -0.2911
  291SOL    HW1 1162   0.329   0.321   0.166  0.0235  0.0096  0.4367
  291SOL    HW2 1163   0.209   0.241   0.131  0.4265  0.1322 -1.2566
  291SOL     MW 1164   0.242   0.320   0.145  0.5859 -0.1500 -0.3225
  292SOL     OW 1165   1.030   0.627   0.103 -0.5010 -0.4820  0.4602
  292SOL    HW1 1166   1.085   0.680   0.158  0.7030 -1.3214 -2.1938
  292SOL    HW2 1167   1.075   0.539   0.103 -0.3010  0.8765 -1.9378
  292SOL     MW 1168   1.043   0.623   0.110 -0.3158 -0.4135 -0.2063
  293SOL     OW 1169   0.098   0.096   2.559  0.0952 -0.6251  0.1903
  293SOL    HW1 1170   0.073   0.060   2.475  1.2982  0.9342 -0.2234
  293SOL    HW2 1171   0.015   0.129   2.596 -1.5603 -0.0659  0.8864
  293SOL     MW 1172   0.084   0.096   2.553  0.0355 -0.3456  0.2276
  294SOL     OW 1173   1.330   0.474   2.343  0.7064 -0.2074 -0.0821
  294SOL    HW1 1174   1.366   0.542   2.399  0.9344 -2.0111  2.8803
  294SOL    HW2 1175   1.365   0.393   2.379 -2.8459 -0.7908 -0.9901
  294SOL     MW 1176   1.339   0.472   2.355  0.2678 -0.5224  0.1890
  295SOL     OW 1177   0.845   0.611   2.543  0.4322  0.3136  0.0823
  295SOL    HW1 1178   0.805   0.613   2.456 -2.2154  0.6143 -0.6221
  295SOL    HW2 1179   0.774   0.625   2.614 -0.6164 -1.5135 -0.1334
  295SOL     MW 1180   0.830   0.613   2.541 -0.0555  0.1122 -0.0391
  296SOL     OW 1181   1.274   0.270   2.058  0.7046  0.7174 -0.0201
  296SOL    HW1 1182   1.309   0.185   2.035  0.9842  0.3263  1.7898
  296SOL    HW2 1183   1.290   0.279   2.151 -0.3415  0.9116  2.3442
  296SOL     MW 1184   1.281   0.260   2.067  0.6035  0.6914  0.5306
  297SOL     OW 1185   1.379   0.379   1.606 -1.0736 -0.0762  0.1036
  297SOL    HW1 1186   1.391   0.460   1.653 -2.9056  0.2173 -0.6124
  297SOL    HW2 1187   1.428   0.316   1.658  1.2807  0.2026  0.0115
  297SOL     MW 1188   1.387   0.382   1.619 -1.0047 -0.0007 -0.0030
  298SOL     OW 1189   1.587   0.880   2.097  0.0653 -0.6821 -0.2958
  298SOL    HW1 1190   1.618   0.908   2.008  1.2564  1.1022 -0.9797
  298SOL    HW2 1191   1.668   0.845   2.137 -1.6786  1.1328  0.1911
  298SOL     MW 1192   1.602   0.879   2.090 -0.0076 -0.2072 -0.3218
  299SOL     OW 1193   0.582   1.185   0.086  0.1096  0.1064  0.5882
  299SOL    HW1 1194   0.571   1.170  -0.007  2.2728 -0.6610 -0.7300
  299SOL    HW2 1195   0.677   1.200   0.087  0.5809  0.5536 -2.2625
  299SOL     MW 1196   0.593   1.185   0.074  0.4572  0.0642  0.0382
  300SOL     OW 1197   1.095   1.165   2.553 -0.4100 -0.3842 -0.3478
  300SOL    HW1 1198   1.023   1.105   2.566  1.4866 -1.7030 -1.3032
  300SOL    HW2 1199   1.165   1.141   2.621  0.9562 -0.3640  1.5005
  300SOL     MW 1200   1.095   1.154   2.564  0.0205 -0.5556 -0.2300
  301SOL     OW 1201   1.457   1.067   0.751  0.4311  0.2092  0.0673
  301SOL    HW1 1202   1.500   1.087   0.835  0.3305  1.2645 -0.5461
  301SOL    HW2 1203   1.407   0.981   0.755 -0.2301 -2.0532 -0.6975
  301SOL     MW 1204   1.456   1.058   0.763  0.3306  0.0499 -0.1146
  302SOL     OW 1205   0.173   1.579   2.033  0.0989  0.7823 -0.1164
  302SOL    HW1 1206   0.151   1.484   2.012 -1.9843  1.5722 -0.2797
  302SOL    HW2 1207   0.084   1.611   2.047 -0.5545 -0.1473  0.9679
  302SOL     MW 1208   0.158   1.571   2.032 -0.2622  0.7638  0.0051
  303SOL     OW 1209   0.330   1.774   2.653 -0.1357  0.0866  0.0287
  303SOL    HW1 1210   0.268   1.799   2.586 -3.9013 -1.6883  0.7697
  303SOL    HW2 1211   0.287   1.802   2.735 -2.3546  0.5537  0.0702
  303SOL     MW 1212   0.316   1.781   2.655 -0.9253 -0.0860  0.1319
  304SOL     OW 1213   0.491   2.049   2.452  0.1129 -0.0058  1.0492
  304SOL    HW1 1214   0.556   2.102   2.396  4.4583 -0.5627  1.2367
  304SOL    HW2 1215   0.549   1.979   2.486  0.3607 -1.0826  0.0317
  304SOL     MW 1216   0.507   2.046   2.449  0.7189 -0.2213  0.9397
  305SOL     OW 1217   1.129   0.673   0.536  0.1448 -0.4779  0.0623
  305SOL    HW1 1218   1.046   0.652   0.496  1.7279  1.0073  0.3473
  305SOL    HW2 1219   1.170   0.588   0.556  2.2972 -0.1050  2.6673
  305SOL     MW 1220   1.124   0.659   0.533  0.6376 -0.2328  0.4436
  306SOL     OW 1221   1.090   1.518   0.274  0.4981 -0.1936  0.3194
  306SOL    HW1 1222   1.136   1.445   0.313 -1.1930  1.6144  2.8005
  306SOL    HW2 1223   1.131   1.534   0.186  1.2840  2.1603  0.6336
  306SOL     MW 1224   1.102   1.511   0.268  0.3787  0.3555  0.6882
  307SOL     OW 1225   1.400   0.472   1.910  0.6673  0.3695  0.0761
  307SOL    HW1 1226   1.357   0.393   1.947 -0.5935  0.3508 -0.5428
  307SOL    HW2 1227   1.414   0.520   1.993 -2.4816  1.2881  0.3029
  307SOL     MW 1228   1.396   0.468   1.926  0.0855  0.4882  0.0244
  308SOL     OW 1229   2.204   0.501   2.689  0.0526  0.7253  0.3449
  308SOL    HW1 1230   2.301   0.511   2.702 -0.5301 -4.4511  1.4339
  308SOL    HW2 1231   2.175   0.593   2.691  0.8334 -1.5955  1.1132
  308SOL     MW 1232   2.213   0.515   2.691  0.0788 -0.2639  0.5899
  309SOL     OW 1233   0.509   0.568   0.242 -0.1260 -0.1819 -0.0365
  309SOL    HW1 1234   0.596   0.574   0.200  0.2069 -0.3257  0.8256
  309SOL    HW2 1235   0.482   0.479   0.227  0.4772  1.3024  1.4025
  309SOL     MW 1236   0.517   0.557   0.235 -0.0025 -0.0050  0.2671
  310SOL     OW 1237   0.431   0.583   1.883 -0.2834 -0.3120  0.3246
  310SOL    HW1 1238   0.477   0.514   1.826 -1.0283  0.8916 -1.6305
  310SOL    HW2 1239   0.456   0.670   1.836 -0.0176  1.1202 -0.4670
  310SOL     MW 1240   0.440   0.586   1.869 -0.3466  0.0358 -0.0378
  311SOL     OW 1241   1.967   0.619   1.956  0.1470  0.2468  0.0165
  311SOL    HW1 1242   1.922   0.651   2.039  0.2573 -0.6724  0.4592
  311SOL    HW2 1243   2.023   0.545   1.997  0.4617 -1.6615  1.4905
  311SOL     MW 1244   1.968   0.613   1.973  0.2030 -0.1262  0.2694
  312SOL     OW 1245   1.732   2.441   0.104  0.1537 -0.2985 -0.1743
  312SOL    HW1 1246   1.772   2.428   0.189 -1.6335 -1.0162  1.4926
  312SOL    HW2 1247   1.685   2.527   0.114 -1.0859 -0.4577 -0.8714
  312SOL     MW 1248   1.731   2.451   0.116 -0.2456 -0.4142 -0.0464
  313SOL     OW 1249   0.138   1.119   3.033  0.1227  0.1937 -0.0436
  313SOL    HW1 1250   0.095   1.151   3.116  0.2136 -1.0324  0.9627
  313SOL    HW2 1251   0.165   1.200   2.982 -0.3524 -1.3900  0.2702
  313SOL     MW 1252   0.136   1.134   3.037  0.0720 -0.1770  0.1306
  314SOL     OW 1253   2.161   2.943   0.026 -0.1999 -0.0441 -0.1565
  314SOL    HW1 1254   2.113   2.950  -0.052  4.3844  1.3597  1.3373
  314SOL    HW2 1255   2.209   3.033   0.026 -1.4675  1.2644 -1.4863
  314SOL     MW 1256   2.161   2.956   0.015  0.2377  0.3137 -0.1348
  315SOL     OW 1257   1.541   1.834   2.963 -0.1110  0.3284  0.0749
  315SOL    HW1 1258   1.499   1.894   3.030 -0.2380 -1.4012  0.3365
  315SOL    HW2 1259   1.571   1.907   2.907  0.0030  1.9978 -0.5578
  315SOL     MW 1260   1.540   1.851   2.964 -0.1127  0.3205  0.0259
  316SOL     OW 1261   1.197   0.644   2.699  0.0308  0.0804  0.3521
  316SOL    HW1 1262   1.277   0.704   2.717  1.1617 -1.7957 -0.2958
  316SOL    HW2 1263   1.153   0.624   2.790  0.2638  1.5957  0.9926
  316SOL     MW 1264   1.202   0.649   2.714  0.2108  0.0328  0.3511
  317SOL     OW 1265   0.667   1.588   2.636  0.2942 -0.5608 -0.2888
  317SOL    HW1 1266   0.725   1.515   2.655  3.9904 -0.9389  4.6937
  317SOL    HW2 1267   0.652   1.586   2.537  1.3627 -0.3887  0.2280
  317SOL     MW 1268   0.673   1.578   2.626  0.9229 -0.5880  0.4368
  318SOL     OW 1269   1.327   0.380   2.959  0.4112 -0.0707 -0.3264
  318SOL    HW1 1270   1.271   0.455   2.947  0.8298 -2.3906  0.5902
  318SOL    HW2 1271   1.413   0.425   2.930  1.7621 -0.2357 -0.7142
  318SOL     MW 1272   1.331   0.396   2.954  0.6447 -0.3986 -0.2567
  319SOL     OW 1273   0.790   0.427   2.815 -0.4317 -0.1398  0.4133
  319SOL    HW1 1274   0.806   0.337   2.811 -0.1620  0.5545  0.9049
  319SOL    HW2 1275   0.748   0.436   2.897  2.7565  1.6930 -2.6546
  319SOL     MW 1276   0.787   0.416   2.825  0.0246  0.1936  0.0734
  320SOL     OW 1277   1.057   1.361   1.963 -0.0748 -0.3001 -0.1119
  320SOL    HW1 1278   1.116   1.329   2.027  1.9203  0.7208  0.2183
  320SOL    HW2 1279   1.117   1.422   1.916  0.9947 -0.9993  2.2262
  320SOL     MW 1280   1.073   1.365   1.965  0.3296 -0.2577  0.2402
  321SOL     OW 1281   1.088   0.911   3.046 -0.4078 -0.2895  0.0445
  321SOL    HW1 1282   1.011   0.878   2.998 -0.7983  2.4291 -0.7469
  321SOL    HW2 1283   1.142   0.832   3.073  0.2635  0.7231  2.0058
  321SOL     MW 1284   1.085   0.897   3.043 -0.3707  0.2028  0.1989
  322SOL     OW 1285   1.254   0.850   1.662 -0.0385 -0.0143 -0.1988
  322SOL    HW1 1286   1.304   0.773   1.679 -0.1034  1.2182 -0.2092
  322SOL    HW2 1287   1.221   0.874   1.747  1.0062 -0.8937  0.1151
  322SOL     MW 1288   1.256   0.843   1.675  0.0907  0.0323 -0.1588
  323SOL     OW 1289   1.241   1.568   1.894 -0.1932 -0.7181  0.4259
  323SOL    HW1 1290   1.273   1.586   1.806  0.9993  0.1081  1.0857
  323SOL    HW2 1291   1.221   1.654   1.931  0.5241 -0.8813  1.1839
  323SOL     MW 1292   1.242   1.582   1.887  0.0588 -0.6307  0.6129
  324SOL     OW 1293   1.454   1.002   2.470  0.2866  0.2252  0.2212
  324SOL    HW1 1294   1.397   1.065   2.529 -1.1830  3.7800  2.7260
  324SOL    HW2 1295   1.546   1.034   2.485 -0.9594  3.5918  0.4831
  324SOL     MW 1296   1.459   1.015   2.480 -0.0717  1.1384  0.5862
  325SOL     OW 1297   1.050   0.533   2.914 -0.0536  0.1439 -0.6521
  325SOL    HW1 1298   1.015   0.594   2.978 -1.7403  0.6404  1.4659
  325SOL    HW2 1299   0.977   0.511   2.859 -1.2048 -0.1401  0.3129
  325SOL     MW 1300   1.035   0.538   2.915 -0.4281  0.1719 -0.2454
  326SOL     OW 1301   0.338   1.399   2.286  0.1943  0.2846  0.3462
  326SOL    HW1 1302   0.425   1.356   2.291  2.3571  0.3320  0.1584
  326SOL    HW2 1303   0.363   1.483   2.253  3.4528  0.5329 -0.7094
  326SOL     MW 1304   0.353   1.404   2.282  0.9096  0.3236  0.1822
  327SOL     OW 1305   1.960   0.815   2.421  0.2819 -0.1618 -0.3624
  327SOL    HW1 1306   1.900   0.758   2.475 -1.7426  0.3364  0.0173
  327SOL    HW2 1307   1.950   0.906   2.444 -1.1797 -0.9875  1.8374
  327SOL     MW 1308   1.951   0.820   2.431 -0.1780 -0.2050 -0.0220
  328SOL     OW 1309   0.203   1.304   2.046  0.4625 -0.3500  0.4316
  328SOL    HW1 1310   0.130   1.248   2.050 -0.8824  0.6102  0.1627
  328SOL    HW2 1311   0.230   1.337   2.131  3.1629  1.2991  0.4193
  328SOL     MW 1312   0.197   1.301   2.057  0.6414 -0.0057  0.3945
  329SOL     OW 1313   0.031   0.112   1.399 -0.0023 -0.0177 -0.4838
  329SOL    HW1 1314   0.012   0.106   1.493 -0.7447  1.4874  1.3162
  329SOL    HW2 1315   0.125   0.146   1.387 -0.8836 -1.2568  0.9726
  329SOL     MW 1316   0.041   0.116   1.409 -0.2166  0.0174 -0.0541
  330SOL     OW 1317   0.391   3.097   2.041 -0.0242  0.2594 -0.0464
  330SOL    HW1 1318   0.443   3.133   2.115  0.5719  0.7505 -0.9048
  330SOL    HW2 1319   0.331   3.028   2.079 -1.1579  1.7340  1.7311
  330SOL     MW 1320   0.390   3.093   2.056 -0.0951  0.5188  0.0749
  331SOL     OW 1321   0.778   1.239   2.416  0.0765  0.3280 -0.7236
  331SOL    HW1 1322   0.723   1.296   2.361  0.8748 -1.6463  1.5384
  331SOL    HW2 1323   0.818   1.289   2.490 -0.8754  2.3853 -1.7452
  331SOL     MW 1324   0.776   1.253   2.419  0.0562  0.3390 -0.5599
  332SOL     OW 1325   1.335   1.634   2.936  0.5229 -0.3243  0.4688
  332SOL    HW1 1326   1.339   1.603   2.846  0.1991  0.9638 -1.8488
  332SOL    HW2 1327   1.421   1.683   2.945  0.3926  0.6743 -0.5874
  332SOL     MW 1328   1.347   1.636   2.925  0.4630 -0.0226  0.0237
  333SOL     OW 1329   1.682   1.336   2.942 -0.6367 -1.1632  0.3219
  333SOL    HW1 1330   1.780   1.357   2.942  1.3235  0.9186  1.4174
  333SOL    HW2 1331   1.664   1.265   3.001  2.7271 -0.4785 -0.7629
  333SOL     MW 1332   1.692   1.329   2.949  0.0657 -0.7982  0.3233
  334SOL     OW 1333   1.304   0.003   2.614  0.5601  1.0501 -0.6395
  334SOL    HW1 1334   1.225  -0.006   2.670 -2.0173  0.2247 -1.1069
  334SOL    HW2 1335   1.364   0.067   2.657 -2.2674  0.1782 -1.0923
  334SOL     MW 1336   1.302   0.010   2.627 -0.1530  0.8262 -0.7609
  335SOL     OW 1337   1.298   0.695   3.021  0.5281  0.0354 -0.3618
  335SOL    HW1 1338   1.341   0.679   3.098  1.0884  2.4978  0.6241
  335SOL    HW2 1339   1.354   0.721   2.946 -2.2233 -0.4812 -0.1356
  335SOL     MW 1340   1.311   0.696   3.021  0.2390  0.2921 -0.2019
  336SOL     OW 1341   0.967   1.156   1.715 -0.3453  0.3032  0.1907
  336SOL    HW1 1342   0.976   1.234   1.782 -0.7490  0.8214 -0.4267
  336SOL    HW2 1343   0.998   1.075   1.755 -0.3366 -1.1496 -0.3788
  336SOL     MW 1344   0.972   1.156   1.729 -0.3974  0.1799  0.0341
  337SOL     OW 1345   0.555   1.919   2.832 -0.2432  0.4580 -0.5972
  337SOL    HW1 1346   0.512   1.879   2.756 -1.2577  0.5706 -0.9600
  337SOL    HW2 1347   0.649   1.883   2.828  0.2284 -1.4899  0.0312
  337SOL     MW 1348   0.561   1.909   2.822 -0.3149  0.2159 -0.5622
  338SOL     OW 1349   1.062   0.739   2.497 -0.0834  0.2826 -0.8736
  338SOL    HW1 1350   0.971   0.696   2.513 -0.2961  0.4239 -0.7886
  338SOL    HW2 1351   1.110   0.706   2.582 -0.5588  1.2642 -0.5146
  338SOL     MW 1352   1.057   0.729   2.511 -0.1742  0.4308 -0.8150
  339SOL     OW 1353   1.436   1.199   1.854  0.0974  0.4372  0.8423
  339SOL    HW1 1354   1.418   1.160   1.766 -2.1286  3.0816 -0.5088
  339SOL    HW2 1355   1.364   1.160   1.904 -0.4851  0.8408 -1.4723
  339SOL     MW 1356   1.424   1.188   1.849 -0.2732  0.8394  0.3586
  340SOL     OW 1357   1.252   1.509   0.066  0.2355  0.0293 -0.0208
  340SOL    HW1 1358   1.278   1.564  -0.009 -2.5158  3.6821  0.4858
  340SOL    HW2 1359   1.332   1.503   0.129  2.9141 -1.1535 -0.6851
  340SOL     MW 1360   1.266   1.516   0.065  0.2259  0.3552 -0.0416
  341SOL     OW 1361   0.115   1.375   2.823  0.3152  0.1657 -0.3463
  341SOL    HW1 1362   0.210   1.356   2.841  0.7381  3.9488  1.1097
  341SOL    HW2 1363   0.094   1.318   2.746  1.4218  0.0850  2.0523
  341SOL     MW 1364   0.125   1.365   2.815  0.5170  0.6542  0.1623
  342SOL     OW 1365   1.429   0.298   0.111  0.3518  0.3296 -0.6854
  342SOL    HW1 1366   1.481   0.351   0.167  1.7039 -1.7999  1.6721
  342SOL    HW2 1367   1.403   0.347   0.032  0.9968 -1.5008 -1.6458
  342SOL     MW 1368   1.432   0.311   0.108  0.6153 -0.1928 -0.5010
  343SOL     OW 1369   0.233   0.273   2.180 -0.8478 -0.1318 -0.9456
  343SOL    HW1 1370   0.284   0.191   2.159 -0.2757 -2.0531  1.9945
  343SOL    HW2 1371   0.152   0.248   2.140 -0.2605  1.5399  0.9902
  343SOL     MW 1372   0.229   0.259   2.172 -0.6948 -0.1647 -0.3022
  344SOL     OW 1373   1.693   1.990   0.116 -0.6553 -0.8378  0.0902
  344SOL    HW1 1374   1.730   2.055   0.052  2.3912  2.5116  0.1978
  344SOL    HW2 1375   1.604   2.002   0.107 -0.2549  1.5302  3.2736
  344SOL     MW 1376   1.686   2.000   0.106 -0.2005 -0.0834  0.5244
  345SOL     OW 1377   0.686   1.591   2.356  0.0946  0.1571 -0.2245
  345SOL    HW1 1378   0.609   1.621   2.305 -1.5830 -1.0054  1.8592
  345SOL    HW2 1379   0.748   1.555   2.291 -1.3321  0.5740  0.3511
  345SOL     MW 1380   0.684   1.590   2.340 -0.3150  0.0587  0.1264
  346SOL     OW 1381   1.664   1.116   3.090 -0.1525  0.5132  0.3429
  346SOL    HW1 1382   1.755   1.096   3.104 -2.4353  1.3243  0.6456
  346SOL    HW2 1383   1.624   1.057   3.146 -3.8565  2.1866 -2.4598
  346SOL     MW 1384   1.671   1.105   3.099 -0.9424  0.8410  0.0131
  347SOL     OW 1385   1.148   0.669   2.234 -0.0908 -0.5716 -0.3134
  347SOL    HW1 1386   1.181   0.588   2.270  0.6326  1.3342 -1.8101
  347SOL    HW2 1387   1.115   0.721   2.306 -0.1224 -1.4171  1.4249
  347SOL     MW 1388   1.148   0.665   2.248  0.0004 -0.4317 -0.2815
  348SOL     OW 1389   1.338   2.542   1.910 -0.1526  0.3635 -0.3655
  348SOL    HW1 1390   1.332   2.476   1.980  0.8006 -0.0652 -2.6700
  348SOL    HW2 1391   1.352   2.627   1.962  2.4986 -0.9195 -0.9166
  348SOL     MW 1392   1.339   2.545   1.926  0.3230  0.1376 -0.7423
  349SOL     OW 1393   1.450   0.165   2.774  0.5269 -0.2823  0.3050
  349SOL    HW1 1394   1.406   0.231   2.835 -0.4095 -0.8435  1.7364
  349SOL    HW2 1395   1.491   0.086   2.818  3.0169 -1.3143  1.4871
  349SOL     MW 1396   1.450   0.163   2.788  0.7319 -0.4925  0.6498
  350SOL     OW 1397   1.849   0.661   2.627  0.3924  0.4254  0.3428
  350SOL    HW1 1398   1.798   0.585   2.585 -1.7740  1.1095 -0.5480
  350SOL    HW2 1399   1.937   0.643   2.656 -2.6933 -2.7426  0.6806
  350SOL     MW 1400   1.854   0.649   2.625 -0.3006  0.0976  0.2699
  351SOL     OW 1401   0.101   1.121   1.629  0.2866  0.0764  0.0285
  351SOL    HW1 1402   0.025   1.118   1.688  0.4575 -0.7892  0.1562
  351SOL    HW2 1403   0.156   1.185   1.669 -1.5049  0.3860 -2.9282
  351SOL     MW 1404   0.098   1.129   1.642  0.0728  0.0030 -0.3448
  352SOL     OW 1405   0.793   1.787   2.803 -0.6850  0.4155  0.0672
  352SOL    HW1 1406   0.799   1.733   2.888 -3.4751  0.1194  1.1341
  352SOL    HW2 1407   0.760   1.725   2.735 -2.0154  0.1271 -1.7903
  352SOL     MW 1408   0.789   1.772   2.805 -1.2287  0.3384 -0.0371
  353SOL     OW 1409   0.015   2.560   2.690 -0.0358  0.3182 -0.5637
  353SOL    HW1 1410   0.096   2.523   2.652 -1.0488 -2.2029  1.2388
  353SOL    HW2 1411  -0.020   2.629   2.634 -1.4082 -0.3039 -0.4185
  353SOL     MW 1412   0.021   2.564   2.678 -0.3505 -0.0965 -0.3067
  354SOL     OW 1413   0.349   2.447   0.890 -0.2889  0.5760  0.4005
  354SOL    HW1 1414   0.366   2.436   0.986  2.9440 -1.1422 -1.2289
  354SOL    HW2 1415   0.307   2.367   0.853 -0.9321 -4.3838 -1.4935
  354SOL     MW 1416   0.345   2.435   0.898  0.0528 -0.3051 -0.0643
  355SOL     OW 1417   3.091   2.174   0.375  0.8361  0.0067  0.6318
  355SOL    HW1 1418   2.999   2.153   0.374 -0.8970 -2.0640 -0.1004
  355SOL    HW2 1419   3.095   2.210   0.469 -0.0477 -1.3105  2.3406
  355SOL     MW 1420   3.079   2.176   0.387  0.4908 -0.4403  0.7606
  356SOL     OW 1421   0.782   2.894   1.050 -0.0398  0.5666  0.6185
  356SOL    HW1 1422   0.828   2.891   0.970 -0.1830  3.3540 -0.3894
  356SOL    HW2 1423   0.690   2.898   1.018 -1.3978  0.8332  3.1809
  356SOL     MW 1424   0.776   2.894   1.035 -0.2379  0.9696  0.8236
  357SOL     OW 1425   1.837   2.817   0.481  0.2724  0.1773  0.0463
  357SOL    HW1 1426   1.805   2.756   0.548 -0.8912 -0.3160 -0.8988
  357SOL    HW2 1427   1.929   2.784   0.466  1.2178 -0.9312  1.6496
  357SOL     MW 1428   1.845   2.805   0.488  0.2436 -0.0340  0.1331
  358SOL     OW 1429   0.411   0.169   1.040 -0.1066  0.3131  0.0541
  358SOL    HW1 1430   0.503   0.145   1.036  0.8097 -2.6987 -0.2120
  358SOL    HW2 1431   0.389   0.194   0.949 -0.1897 -0.3873 -0.3865
  358SOL     MW 1432   0.420   0.169   1.028  0.0033 -0.1767 -0.0391
  359SOL     OW 1433   0.895   2.983   1.837  0.1739  0.2568  0.2820
  359SOL    HW1 1434   0.909   2.888   1.847  2.6944 -3.3530  1.1675
  359SOL    HW2 1435   0.923   3.014   1.753  0.5342 -0.6576  3.0489
  359SOL     MW 1436   0.900   2.975   1.828  0.5540 -0.3401  0.7639
  360SOL     OW 1437   0.559   2.784   0.881 -0.1107  0.1996 -0.0281
  360SOL    HW1 1438   0.548   2.763   0.786 -1.9872  1.3755  1.3450
  360SOL    HW2 1439   0.555   2.705   0.934 -0.2253 -0.0355  0.2247
  360SOL     MW 1440   0.557   2.771   0.875 -0.3734  0.3238  0.1865
  361SOL     OW 1441   0.243   2.655   1.383  0.2822  0.9303 -0.2959
  361SOL    HW1 1442   0.195   2.731   1.422  1.8388  1.2610  0.7833
  361SOL    HW2 1443   0.323   2.698   1.374 -0.6287 -1.3179  1.3521
  361SOL     MW 1444   0.247   2.671   1.387  0.3674  0.6773  0.0639
  362SOL     OW 1445   1.383   2.410   0.610 -0.3364  0.0530 -0.0880
  362SOL    HW1 1446   1.429   2.351   0.665  0.6752  2.0250 -0.4530
  362SOL    HW2 1447   1.435   2.493   0.606 -1.7804  0.3498 -2.8938
  362SOL     MW 1448   1.396   2.413   0.617 -0.3935  0.3523 -0.5063
  363SOL     OW 1449   0.339   3.088   0.649  0.1679 -0.0646  0.7639
  363SOL    HW1 1450   0.314   3.013   0.711  4.5058 -1.5534  1.3345
  363SOL    HW2 1451   0.258   3.110   0.600  1.6002  2.3958 -0.9595
  363SOL     MW 1452   0.325   3.081   0.651  0.9292  0.0636  0.6118
  364SOL     OW 1453   0.795   0.253   0.133 -0.0853 -0.5481  0.1751
  364SOL    HW1 1454   0.721   0.188   0.127  0.5845  0.4032 -0.5894
  364SOL    HW2 1455   0.761   0.338   0.099  1.3179  0.5024  1.6987
  364SOL     MW 1456   0.780   0.256   0.128  0.1882 -0.2840  0.2752
  365SOL     OW 1457   0.902   2.023   1.188 -0.3709 -0.8185  0.6044
  365SOL    HW1 1458   0.882   2.096   1.127 -0.0000  0.7882  0.3788
  365SOL    HW2 1459   0.875   1.940   1.143  3.9110  3.3254 -0.1613
  365SOL     MW 1460   0.896   2.022   1.174  0.2430 -0.0598  0.4736
  366SOL     OW 1461   2.952   2.639   0.965 -0.5373  0.0352  0.1361
  366SOL    HW1 1462   3.021   2.649   1.030 -0.1424 -2.6166  2.2965
  366SOL    HW2 1463   2.956   2.702   0.889  0.7541  0.9078 -0.3970
  366SOL     MW 1464   2.962   2.649   0.964 -0.3148 -0.1995  0.3508
  367SOL     OW 1465   1.194   2.951   0.945 -0.5269 -0.4740  0.8321
  367SOL    HW1 1466   1.248   3.013   0.895  0.6195  0.7771 -1.2945
  367SOL    HW2 1467   1.115   2.940   0.886 -2.9690  2.2132 -2.7188
  367SOL     MW 1468   1.191   2.958   0.931 -0.6978  0.0456  0.0830
  368SOL     OW 1469   1.751   0.417   0.682 -0.2341  0.2196 -0.9478
  368SOL    HW1 1470   1.793   0.356   0.626  1.6388 -1.1975  1.3958
  368SOL    HW2 1471   1.765   0.505   0.645  0.6768  1.0877  1.2453
  368SOL     MW 1472   1.758   0.420   0.670  0.1332  0.1472 -0.3493
  369SOL     OW 1473   0.147   2.385   1.772 -0.4415 -0.0698  0.4641
  369SOL    HW1 1474   0.249   2.393   1.774  2.2751 -1.8958 -3.3373
  369SOL    HW2 1475   0.122   2.482   1.763  1.8665 -1.3408  1.5949
  369SOL     MW 1476   0.157   2.399   1.771  0.2215 -0.4784  0.1117
  370SOL     OW 1477   0.734   0.134   1.008 -0.0230 -0.0130  0.5385
  370SOL    HW1 1478   0.744   0.216   0.960 -0.6211  0.6492  0.4440
  370SOL    HW2 1479   0.817   0.094   1.016  1.0880 -2.0931  1.2447
  370SOL     MW 1480   0.746   0.139   1.003  0.0447 -0.2001  0.6192
  371SOL     OW 1481   1.236   2.827   1.495 -0.3483  0.5868 -0.2723
  371SOL    HW1 1482   1.233   2.743   1.451 -0.2205  1.6576 -1.9228
  371SOL    HW2 1483   1.202   2.895   1.436 -4.5807  2.4584  1.5088
  371SOL     MW 1484   1.231   2.825   1.482 -0.8898  0.9750 -0.2550
  372SOL     OW 1485   0.785   2.327   0.512 -0.0280  0.1828  0.0223
  372SOL    HW1 1486   0.742   2.248   0.546 -0.8140 -0.7681 -2.5078
  372SOL    HW2 1487   0.794   2.306   0.419  1.6207 -2.0246  0.9392
  372SOL     MW 1488   0.780   2.314   0.504  0.0858 -0.2339 -0.1906
  373SOL     OW 1489   2.841   3.009   1.421  0.2280 -0.3370  0.4697
  373SOL    HW1 1490   2.925   2.975   1.398 -2.0415 -0.8375  0.3150
  373SOL    HW2 1491   2.817   3.075   1.357 -1.9521 -0.1725  1.7449
  373SOL     MW 1492   2.849   3.013   1.410 -0.3591 -0.3813  0.6175
  374SOL     OW 1493   1.598   0.466   0.293 -0.4565  0.2642 -0.4014
  374SOL    HW1 1494   1.674   0.413   0.273  1.3550 -0.3007  2.6098
  374SOL    HW2 1495   1.565   0.428   0.374  0.5040 -0.0991  1.8284
  374SOL     MW 1496   1.604   0.454   0.301 -0.0907  0.1417  0.2901
  375SOL     OW 1497   0.966   2.164   2.302  1.1443 -0.5454 -0.4185
  375SOL    HW1 1498   1.028   2.145   2.376 -1.3611 -0.9198 -1.4556
  375SOL    HW2 1499   0.949   2.082   2.257  1.0558  1.8072  2.0657
  375SOL     MW 1500   0.972   2.151   2.305  0.8021 -0.2844 -0.2275
  376SOL     OW 1501   0.756   2.512   0.058  0.4557 -0.4539  0.4246
  376SOL    HW1 1502   0.692   2.443   0.077  2.0347  1.8944 -0.0810
  376SOL    HW2 1503   0.767   2.503  -0.036 -0.1102 -0.6461  0.8853
  376SOL     MW 1504   0.749   2.501   0.048  0.5894 -0.1694  0.4187
  377SOL     OW 1505   1.304   2.055   0.908  0.0808 -0.3544  0.3517
  377SOL    HW1 1506   1.228   2.039   0.856  1.0546 -1.7396  0.2720
  377SOL    HW2 1507   1.285   2.015   0.991  0.9900 -2.7536  0.0041
  377SOL     MW 1508   1.292   2.048   0.912  0.3293 -0.8537  0.2953
  378SOL     OW 1509   0.919   2.861   1.542 -0.4729 -0.0448 -0.2285
  378SOL    HW1 1510   0.971   2.778   1.570 -0.1120  0.3042 -2.5937
  378SOL    HW2 1511   0.935   2.858   1.445 -0.0150 -1.5780  0.9603
  378SOL     MW 1512   0.928   2.850   1.533 -0.3649 -0.2010 -0.3837
  379SOL     OW 1513   1.126   1.635   2.215  0.1801 -0.4531  0.5910
  379SOL    HW1 1514   1.077   1.631   2.135 -0.9282  1.6405 -0.1097
  379SOL    HW2 1515   1.208   1.585   2.194 -2.9974 -1.5689 -2.0051
  379SOL     MW 1516   1.130   1.628   2.201 -0.3853 -0.3241  0.1560
  380SOL     OW 1517   0.884   0.085   1.427 -0.4714  0.4940 -0.1386
  380SOL    HW1 1518   0.929   0.010   1.377 -1.5167 -1.0655 -0.6713
  380SOL    HW2 1519   0.936   0.099   1.507 -1.0551  1.0829  1.7190
  380SOL     MW 1520   0.897   0.077   1.431 -0.6863  0.3659  0.0362
  381SOL     OW 1521   0.827   2.049   0.835  0.4093  0.1335 -0.3894
  381SOL    HW1 1522   0.923   2.044   0.821  2.2020  1.0622  2.1868
  381SOL    HW2 1523   0.803   2.133   0.884  0.9756 -1.5132 -0.8443
  381SOL     MW 1524   0.836   2.059   0.840  0.7206  0.0387 -0.1095
  382SOL     OW 1525   0.820   0.147   0.632  0.4806  0.0808 -0.1818
  382SOL    HW1 1526   0.778   0.207   0.697 -0.0920  2.1389 -0.2075
  382SOL    HW2 1527   0.778   0.060   0.649 -0.9910 -1.0026 -0.1849
  382SOL     MW 1528   0.809   0.144   0.643  0.2109  0.2094 -0.1856
  383SOL     OW 1529   0.592   0.064   0.314  0.3032  0.3020  0.3527
  383SOL    HW1 1530   0.654   0.021   0.254  1.0779 -0.2445 -1.0881
  383SOL    HW2 1531   0.549  -0.006   0.368  0.6081 -1.1660  0.2829
  383SOL     MW 1532   0.594   0.049   0.313  0.4456  0.0362  0.1534
  384SOL     OW 1533   0.746   2.964   0.666 -0.1213 -0.0615  0.1413
  384SOL    HW1 1534   0.819   2.937   0.734 -0.7017  0.3533  3.0113
  384SOL    HW2 1535   0.700   2.881   0.649 -0.2581  1.8197  1.4557
  384SOL     MW 1536   0.750   2.949   0.673 -0.2159  0.2415  0.6934
  385SOL     OW 1537   1.402   2.099   1.545 -0.2981 -0.5171  0.0265
  385SOL    HW1 1538   1.468   2.150   1.597 -3.0516  1.0550 -0.3990
  385SOL    HW2 1539   1.363   2.032   1.602  0.8570  2.2140 -0.0323
  385SOL     MW 1540   1.406   2.097   1.560 -0.5090  0.0507 -0.0374
  386SOL     OW 1541   1.422   0.381   0.890  0.0379  0.4688  0.3823
  386SOL    HW1 1542   1.425   0.404   0.983  1.1223  2.6588 -0.3079
  386SOL    HW2 1543   1.454   0.290   0.893  1.2685  0.2885  2.1163
  386SOL     MW 1544   1.427   0.372   0.903  0.3433  0.7340  0.5200
  387SOL     OW 1545   0.807   2.139   1.556  0.2430  0.7248  0.3278
  387SOL    HW1 1546   0.887   2.181   1.525 -3.0768  0.5230 -0.9406
  387SOL    HW2 1547   0.803   2.054   1.510  2.3240 -0.1986 -0.8774
  387SOL     MW 1548   0.817   2.133   1.546  0.0795  0.5764  0.0014
  388SOL     OW 1549   1.470   2.775   1.320  0.4428  0.0080  0.4720
  388SOL    HW1 1550   1.420   2.864   1.325 -2.6015 -1.7473 -2.0888
  388SOL    HW2 1551   1.396   2.711   1.304 -2.6160  0.2597 -0.2670
  388SOL     MW 1552   1.453   2.778   1.319 -0.3624 -0.1904  0.0366
  389SOL     OW 1553   0.532   0.146   3.059 -0.4508  0.0598  0.2932
  389SOL    HW1 1554   0.605   0.091   3.065  0.2397  0.9758 -1.1324
  389SOL    HW2 1555   0.524   0.164   2.967 -0.3221  1.5111  3.3375
  389SOL     MW 1556   0.541   0.141   3.048 -0.3427  0.3722  0.5068
  390SOL     OW 1557   1.365   0.035   0.747  0.6173  0.2247 -0.1450
  390SOL    HW1 1558   1.397   0.046   0.662 -1.5431  0.8637  1.8997
  390SOL    HW2 1559   1.439   0.064   0.796  2.5898 -0.8966  0.5943
  390SOL     MW 1560   1.379   0.040   0.742  0.5925  0.1611  0.2223
  391SOL     OW 1561   0.357   2.191   1.522 -0.2085  0.3528  0.1725
  391SOL    HW1 1562   0.321   2.106   1.550  1.9433  1.9882  0.3268
  391SOL    HW2 1563   0.283   2.250   1.516 -1.5061 -0.1457  1.6242
  391SOL     MW 1564   0.343   2.187   1.525 -0.0958  0.5028  0.3844
  392SOL     OW 1565   2.028   2.228   0.306 -0.6449 -0.0325 -0.0370
  392SOL    HW1 1566   2.098   2.281   0.340  0.0662 -0.5549 -2.5835
  392SOL    HW2 1567   1.953   2.286   0.322 -0.4593  2.9701  0.8815
  392SOL     MW 1568   2.027   2.242   0.313 -0.5266  0.2947 -0.2518
  393SOL     OW 1569   0.256   2.969   2.871  0.0929 -0.1314  0.5572
  393SOL    HW1 1570   0.320   2.944   2.799 -1.6540  1.3968 -0.2929
  393SOL    HW2 1571   0.248   3.069   2.870 -2.6234  1.5800 -1.2644
  393SOL     MW 1572   0.264   2.979   2.861 -0.4960  0.2960  0.2047
  394SOL     OW 1573   1.016   1.760   1.522  0.2932  0.8936 -0.1098
  394SOL    HW1 1574   1.014   1.760   1.615 -1.2133 -1.8834  0.9190
  394SOL    HW2 1575   0.949   1.823   1.488  1.6900  2.0211  0.0392
  394SOL     MW 1576   1.007   1.768   1.530  0.2787  0.6759  0.0456
  395SOL     OW 1577   0.934   2.973   2.605 -0.3752 -0.1987  0.8797
  395SOL    HW1 1578   0.961   3.002   2.687 -1.1005 -0.3230  1.9267
  395SOL    HW2 1579   0.991   2.894   2.587 -0.3645 -0.4194  1.3660
  395SOL     MW 1580   0.945   2.966   2.613 -0.4695 -0.2442  1.0820
  396SOL     OW 1581   0.724   1.888   2.428  0.1153  0.6858  0.0648
  396SOL    HW1 1582   0.806   1.907   2.469  0.4043  3.3379 -2.3606
  396SOL    HW2 1583   0.728   1.793   2.435  2.6463  0.8694 -3.1539
  396SOL     MW 1584   0.735   1.878   2.435  0.4873  1.0600 -0.6799
  397SOL     OW 1585   0.966   2.305   1.382  0.0842 -0.2008 -0.7257
  397SOL    HW1 1586   0.999   2.330   1.295 -2.9926 -0.4608 -0.1856
  397SOL    HW2 1587   1.052   2.297   1.425  2.0757  1.7886  3.4793
  397SOL     MW 1588   0.982   2.307   1.376 -0.0590  0.0274 -0.0997
  398SOL     OW 1589   0.602   2.728   0.626  0.1708  0.1436  0.5078
  398SOL    HW1 1590   0.580   2.733   0.532  2.2429 -1.4225 -2.3550
  398SOL    HW2 1591   0.675   2.664   0.636 -0.6744 -0.6848  0.1135
  398SOL     MW 1592   0.609   2.720   0.615  0.3327 -0.1723  0.0781
  399SOL     OW 1593   0.273   2.102   0.326  0.4807 -0.1586 -0.6319
  399SOL    HW1 1594   0.184   2.127   0.344 -0.4643  2.4508  0.2213
  399SOL    HW2 1595   0.292   2.126   0.234 -1.4552 -0.8310  0.7698
  399SOL     MW 1596   0.264   2.109   0.316  0.1006  0.0969 -0.3344
  400SOL     OW 1597   0.588   1.896   0.116  0.3621 -0.5406  0.3197
  400SOL    HW1 1598   0.534   1.971   0.133  1.5005 -2.7987  1.3101
  400SOL    HW2 1599   0.602   1.842   0.194  1.1846 -2.3128  1.3945
  400SOL     MW 1600   0.582   1.899   0.128  0.6209 -1.0723  0.5922
  401SOL     OW 1601   0.796   2.072   0.033  0.0240  0.3830 -0.4436
  401SOL    HW1 1602   0.873   2.013   0.043 -0.2391 -1.2470  0.1187
  401SOL    HW2 1603   0.723   2.021   0.065 -0.5238  0.8948 -0.3016
  401SOL     MW 1604   0.796   2.057   0.039 -0.0830  0.2355 -0.3507
  402SOL     OW 1605   0.538   3.013   1.708 -0.0951 -0.2055  0.6197
  402SOL    HW1 1606   0.575   3.041   1.789  2.0985 -0.2529 -2.7704
  402SOL    HW2 1607   0.578   3.077   1.647  1.0658 -1.1757  2.3526
  402SOL     MW 1608   0.548   3.025   1.711  0.3475 -0.3398  0.4010
  403SOL     OW 1609   0.124   0.522   0.392  0.2658  0.0524  0.7652
  403SOL    HW1 1610   0.219   0.549   0.418  1.2984 -0.1955  0.3899
  403SOL    HW2 1611   0.128   0.491   0.303  1.0550 -1.2852 -2.1926
  403SOL     MW 1612   0.137   0.522   0.384  0.5062 -0.1568  0.3255
  404SOL     OW 1613   0.960   2.916   0.818 -0.3082 -0.3593  0.9087
  404SOL    HW1 1614   1.021   2.860   0.767  2.6218  1.2252  0.7567
  404SOL    HW2 1615   0.985   3.010   0.795  0.4142  1.7772 -1.5630
  404SOL     MW 1616   0.971   2.921   0.808  0.1737  0.1317  0.5625
  405SOL     OW 1617   0.450   2.474   1.510  0.4716 -0.2065 -0.5238
  405SOL    HW1 1618   0.416   2.518   1.432  0.1526  0.2981 -1.8749
  405SOL    HW2 1619   0.512   2.416   1.477  0.5694 -0.0015  2.5831
  405SOL     MW 1620   0.454   2.472   1.495  0.4424 -0.1129 -0.2921
  406SOL     OW 1621   0.392   2.378   1.164  0.2522 -0.6085 -0.0880
  406SOL    HW1 1622   0.298   2.374   1.175  2.3998  1.4433  0.6680
  406SOL    HW2 1623   0.422   2.294   1.204 -0.1325 -0.0129 -0.1462
  406SOL     MW 1624   0.383   2.366   1.170  0.4848 -0.2592  0.0040
  407SOL     OW 1625   0.047   2.654   1.164 -0.0810  0.0292 -0.2296
  407SOL    HW1 1626   0.111   2.631   1.231 -1.5777 -1.2505 -1.0453
  407SOL    HW2 1627   0.111   2.651   1.088 -1.5539 -0.4736 -2.1684
  407SOL     MW 1628   0.064   2.651   1.163 -0.4728 -0.2060 -0.5930
  408SOL     OW 1629   2.118   2.127   0.750  0.2785  0.3781  0.1322
  408SOL    HW1 1630   2.041   2.149   0.810 -2.1179 -1.8250 -3.0090
  408SOL    HW2 1631   2.064   2.106   0.674 -2.7718  0.7301  0.7747
  408SOL     MW 1632   2.101   2.127   0.748 -0.4401  0.1339 -0.1975
  409SOL     OW 1633   1.578   0.140   0.880  0.3924  0.0420 -0.2206
  409SOL    HW1 1634   1.638   0.211   0.908  1.0747 -3.4789  1.5612
  409SOL    HW2 1635   1.576   0.070   0.948  1.6640 -1.7637 -0.6909
  409SOL     MW 1636   1.586   0.140   0.893  0.6502 -0.6608 -0.0475
  410SOL     OW 1637   1.064   2.424   1.165  0.6478 -0.5639  0.0714
  410SOL    HW1 1638   0.992   2.448   1.102 -1.3817 -4.3072  0.9462
  410SOL    HW2 1639   1.141   2.392   1.116 -0.7995 -0.2512 -0.9500
  410SOL     MW 1640   1.065   2.423   1.150  0.1891 -1.0166  0.0520
  411SOL     OW 1641   2.013   2.988   2.884  0.2548 -0.9057  0.9038
  411SOL    HW1 1642   2.019   2.936   2.806  1.0348  1.6493 -0.5550
  411SOL    HW2 1643   1.999   3.081   2.862 -1.7453 -0.2316  2.0472
  411SOL     MW 1644   2.012   2.993   2.871  0.0938 -0.4796  0.8622
  412SOL     OW 1645   1.046   2.250   0.607 -0.4412 -0.7661  0.1016
  412SOL    HW1 1646   1.076   2.335   0.637 -2.0129 -0.9269 -1.6340
  412SOL    HW2 1647   0.969   2.274   0.558  1.0748  0.4063 -0.3072
  412SOL     MW 1648   1.040   2.264   0.605 -0.4485 -0.6326 -0.1814
  413SOL     OW 1649   0.588   2.762   0.092 -0.4758 -0.2511  0.5503
  413SOL    HW1 1650   0.633   2.676   0.096  2.7995 -2.5861  1.8750
  413SOL    HW2 1651   0.600   2.785  -0.008  1.9750 -0.7030  2.4200
  413SOL     MW 1652   0.596   2.753   0.079  0.2797 -0.6188  0.9717
  414SOL     OW 1653   1.995   3.044   1.130 -0.1667  0.1536 -0.9184
  414SOL    HW1 1654   2.054   3.118   1.131  1.9769  0.1765  0.7878
  414SOL    HW2 1655   1.952   3.036   1.045  1.0280  0.4515 -0.2640
  414SOL     MW 1656   1.997   3.053   1.119  0.2737  0.1960 -0.6070
  415SOL     OW 1657   1.627   2.834   1.120  0.1015  0.2243  0.2678
  415SOL    HW1 1658   1.581   2.810   1.204 -1.3992  3.0741 -0.4315
  415SOL    HW2 1659   1.721   2.832   1.137  0.5483  1.3035  1.7036
  415SOL     MW 1660   1.633   2.831   1.134 -0.0376  0.7427  0.3649
  416SOL     OW 1661   0.603   1.748   1.500  0.1305 -0.7701  0.2959
  416SOL    HW1 1662   0.511   1.711   1.492 -2.2759 -1.4202 -0.1133
  416SOL    HW2 1663   0.651   1.674   1.465 -2.9928 -0.4506  0.4545
  416SOL     MW 1664   0.598   1.733   1.494 -0.5991 -0.8138  0.2629
  417SOL     OW 1665   0.986   3.071   2.088  0.3781  0.8491 -0.5124
  417SOL    HW1 1666   0.915   3.096   2.147  1.0198 -0.6947 -1.1967
  417SOL    HW2 1667   0.941   3.048   2.003 -1.2932  1.3220 -1.5347
  417SOL     MW 1668   0.971   3.071   2.085  0.2422  0.7078 -0.7375
  418SOL     OW 1669   0.758   2.994   0.163  0.3654 -0.0228 -0.0583
  418SOL    HW1 1670   0.826   2.956   0.106  0.1452 -2.1922  0.2429
  418SOL    HW2 1671   0.695   2.921   0.174 -1.0176 -0.2864 -2.7643
  418SOL     MW 1672   0.758   2.979   0.157  0.1539 -0.3439 -0.3756
  419SOL     OW 1673   0.548   2.687   1.341  0.1056 -0.4820 -0.2623
  419SOL    HW1 1674   0.585   2.775   1.357 -0.2804  0.9205  1.2723
  419SOL    HW2 1675   0.614   2.634   1.383  1.6069  0.3597  1.7483
  419SOL     MW 1676   0.562   2.692   1.349  0.2527 -0.1859  0.2054
  420SOL     OW 1677   0.766   2.231   1.030  0.3737  0.3048 -0.1934
  420SOL    HW1 1678   0.725   2.234   1.119 -0.6010  0.0994  0.0534
  420SOL    HW2 1679   0.795   2.324   1.010 -1.1634  0.0115  0.3302
  420SOL     MW 1680   0.764   2.243   1.039  0.0423  0.2390 -0.0917
  421SOL     OW 1681   2.923   0.159   0.018 -0.0899 -0.4055  0.0024
  421SOL    HW1 1682   2.832   0.142   0.001 -0.7809 -1.3823  1.9653
  421SOL    HW2 1683   2.965   0.068   0.021  1.4523 -0.1138  1.3710
  421SOL     MW 1684   2.917   0.145   0.016  0.0224 -0.4959  0.4420
  422SOL     OW 1685   0.836   2.533   0.984  0.4035  0.0515 -0.1050
  422SOL    HW1 1686   0.743   2.543   1.009 -0.5848  0.6322 -0.0148
  422SOL    HW2 1687   0.845   2.568   0.897  1.9173  1.1026 -0.5219
  422SOL     MW 1688   0.825   2.539   0.975  0.4728  0.2668 -0.1481
  423SOL     OW 1689   1.449   0.064   0.485  0.4268  0.2258 -0.0669
  423SOL    HW1 1690   1.484   0.068   0.397 -0.7987 -0.3679  2.7558
  423SOL    HW2 1691   1.466   0.155   0.502  3.1626 -2.4953 -0.0657
  423SOL     MW 1692   1.456   0.076   0.476  0.6261 -0.2115  0.3057
  424SOL     OW 1693   0.641   2.291   1.366 -0.3665 -0.4340  0.1983
  424SOL    HW1 1694   0.575   2.220   1.347 -0.2447 -0.0528  0.7448
  424SOL    HW2 1695   0.719   2.246   1.404  0.0743 -0.6863 -1.0391
  424SOL     MW 1696   0.642   2.276   1.368 -0.2923 -0.4170  0.1071
  425SOL     OW 1697   1.670   2.787   2.058 -0.2993  0.3409  0.1141
  425SOL    HW1 1698   1.677   2.817   1.965  2.1114 -0.0966 -2.5194
  425SOL    HW2 1699   1.742   2.718   2.071 -0.4537  1.8458  0.6108
  425SOL     MW 1700   1.681   2.782   2.048 -0.0016  0.4817 -0.1678
  426SOL     OW 1701   0.906   1.734   1.996 -0.2868 -0.2161 -0.2428
  426SOL    HW1 1702   0.827   1.737   1.934  0.0894  1.7175 -2.5162
  426SOL    HW2 1703   0.896   1.816   2.045 -0.5514 -4.1765  1.3992
  426SOL     MW 1704   0.895   1.745   1.994 -0.2721 -0.4835 -0.3261
  427SOL     OW 1705   0.352   1.693   1.879  0.3087 -0.0839 -0.2688
  427SOL    HW1 1706   0.383   1.618   1.824 -0.2339  1.2318  0.5844
  427SOL    HW2 1707   0.302   1.652   1.959 -2.9821 -1.3199  4.0088
  427SOL     MW 1708   0.349   1.678   1.882 -0.1970 -0.0734  0.4082
  428SOL     OW 1709   0.577   2.583   1.090 -0.1708  0.1988  0.3865
  428SOL    HW1 1710   0.520   2.514   1.131  3.2059  1.1340  1.0874
  428SOL    HW2 1711   0.589   2.639   1.172 -0.9334 -0.8909 -1.9802
  428SOL     MW 1712   0.571   2.582   1.106  0.1741  0.1784  0.1667
  429SOL     OW 1713   1.186   2.739   1.110  0.2508 -0.3921 -0.5441
  429SOL    HW1 1714   1.098   2.743   1.153 -0.7922  1.1179  1.6465
  429SOL    HW2 1715   1.186   2.810   1.042 -0.0794  2.3931  1.0996
  429SOL     MW 1716   1.175   2.749   1.107  0.0696  0.1746 -0.0382
  430SOL     OW 1717   1.160   2.759   0.694 -0.1456  0.6178  0.7304
  430SOL    HW1 1718   1.168   2.664   0.721  1.3447 -0.4938  0.3838
  430SOL    HW2 1719   1.119   2.754   0.597  2.1716 -1.1954 -0.5937
  430SOL     MW 1720   1.155   2.746   0.685  0.3568  0.2319  0.5100
  431SOL     OW 1721   0.288   1.925   1.122 -0.0438  0.1932 -0.3381
  431SOL    HW1 1722   0.364   1.868   1.092  2.4920 -2.6361 -0.3204
  431SOL    HW2 1723   0.257   1.973   1.041 -2.4754  0.9589 -0.2802
  431SOL     MW 1724   0.294   1.924   1.107 -0.0301 -0.0790 -0.3281
  432SOL     OW 1725   0.084   0.016   1.137 -0.1703 -0.2628 -0.0030
  432SOL    HW1 1726   0.079   0.048   1.226  0.5437 -0.9354  0.8138
  432SOL    HW2 1727   0.013  -0.049   1.130  2.8430 -0.1216  2.7658
  432SOL     MW 1728   0.074   0.012   1.148  0.3215 -0.3329  0.4701
  433SOL     OW 1729   0.664   2.928   1.469 -0.0418 -0.0991 -0.1491
  433SOL    HW1 1730   0.617   2.926   1.552 -0.1178 -0.6025 -2.2928
  433SOL    HW2 1731   0.757   2.895   1.499 -1.8845  2.6175  1.5597
  433SOL     MW 1732   0.670   2.924   1.484 -0.2950  0.1929 -0.2065
  434SOL     OW 1733   1.491   2.840   1.589  0.0813 -0.3307  0.8992
  434SOL    HW1 1734   1.402   2.875   1.587  0.6250 -2.3316  3.2142
  434SOL    HW2 1735   1.504   2.801   1.500  0.2789  0.8632 -0.5818
  434SOL     MW 1736   1.481   2.839   1.577  0.1791 -0.4372  1.0092
  435SOL     OW 1737   2.758   1.778   0.207 -0.2357 -0.1603  0.1147
  435SOL    HW1 1738   2.819   1.841   0.191 -0.8262 -0.6751  0.7600
  435SOL    HW2 1739   2.681   1.805   0.164  2.0894  0.5049 -1.5494
  435SOL     MW 1740   2.756   1.790   0.199 -0.0068 -0.1404 -0.0197
  436SOL     OW 1741   1.360   2.692   0.326 -0.1293  0.0826  0.1757
  436SOL    HW1 1742   1.399   2.655   0.405  1.4325  2.5145 -0.2401
  436SOL    HW2 1743   1.353   2.785   0.353 -1.2518 -0.0221  0.7354
  436SOL     MW 1744   1.364   2.700   0.340 -0.0713  0.3896  0.1947
  437SOL     OW 1745   1.064   2.983   1.294 -0.0016 -0.0179 -0.2256
  437SOL    HW1 1746   1.082   3.031   1.214 -0.4007 -0.1209  1.2044
  437SOL    HW2 1747   1.005   2.918   1.261  0.5135  0.3285  1.5992
  437SOL     MW 1748   1.059   2.980   1.279  0.0137  0.0142  0.2039
  438SOL     OW 1749   0.904   2.730   1.914 -0.0045 -0.3066 -0.4401
  438SOL    HW1 1750   0.867   2.687   1.992  2.7831  1.4800  0.7864
  438SOL    HW2 1751   0.842   2.703   1.847  0.9556  0.4448  1.3947
  438SOL     MW 1752   0.891   2.721   1.915  0.4899  0.0283 -0.0362
  439SOL     OW 1753   1.203   2.083   0.415  0.4584 -0.0542 -0.0080
  439SOL    HW1 1754   1.169   2.130   0.489  2.7395  0.4806  0.4768
  439SOL    HW2 1755   1.196   2.151   0.341  2.3389 -0.9189 -0.3125
  439SOL     MW 1756   1.198   2.098   0.415  1.0075 -0.0977  0.0158
  440SOL     OW 1757   1.780   2.974   3.058 -0.0322  0.1226 -0.5364
  440SOL    HW1 1758   1.780   2.934   3.144  0.2828 -0.1957 -1.2793
  440SOL    HW2 1759   1.864   2.959   3.017  1.0800 -1.3655 -2.1465
  440SOL     MW 1760   1.791   2.966   3.064  0.1561 -0.1157 -0.8469
  441SOL     OW 1761   0.363   2.662   0.431  0.9543 -0.1530 -0.5079
  441SOL    HW1 1762   0.322   2.605   0.363  1.7660  1.2071  2.0914
  441SOL    HW2 1763   0.376   2.752   0.397 -0.5712  0.2485 -1.9852
  441SOL     MW 1764   0.359   2.666   0.418  0.8601  0.0794 -0.3599
  442SOL     OW 1765   0.005   2.297   0.618  0.6245  0.4416  0.1983
  442SOL    HW1 1766   0.028   2.385   0.603 -0.7592  0.5533 -3.8433
  442SOL    HW2 1767  -0.088   2.294   0.647 -0.3443  0.3534  1.4463
  442SOL     MW 1768  -0.004   2.308   0.620  0.3141  0.4447 -0.1703
  443SOL     OW 1769   1.493   1.790   1.904 -0.2203  0.4059 -0.1865
  443SOL    HW1 1770   1.458   1.813   1.817  0.4613 -1.7543  1.2023
  443SOL    HW2 1771   1.485   1.696   1.918 -1.2078 -0.9336 -0.3047
  443SOL     MW 1772   1.487   1.781   1.894 -0.2606 -0.0559 -0.0188
  444SOL     OW 1773   0.999   2.607   1.638 -0.4079  0.1157  0.5480
  444SOL    HW1 1774   1.058   2.558   1.696  1.9148  0.5743  0.2538
  444SOL    HW2 1775   0.909   2.596   1.670 -1.7844 -0.1481 -0.2194
  444SOL     MW 1776   0.995   2.599   1.650 -0.2831  0.1414  0.4079
  445SOL     OW 1777   1.245   0.134   1.419  0.6519  0.0651 -0.5506
  445SOL    HW1 1778   1.195   0.199   1.473 -1.5934 -1.4265 -0.1935
  445SOL    HW2 1779   1.228   0.165   1.329  0.0005  3.1669 -0.7761
  445SOL     MW 1780   1.236   0.147   1.415  0.2697  0.2776 -0.5333
  446SOL     OW 1781   2.787   2.839   1.040  0.0765 -0.2707  0.3986
  446SOL    HW1 1782   2.766   2.902   0.976  0.4831 -1.5030  1.0453
  446SOL    HW2 1783   2.823   2.761   1.006  0.5722  1.2395 -1.2283
  446SOL     MW 1784   2.789   2.837   1.027  0.1955 -0.2340  0.2693
  447SOL     OW 1785   0.019   1.952   1.572 -0.1829 -0.3772 -0.7493
  447SOL    HW1 1786   0.022   1.900   1.652 -1.7646  1.2248  1.1646
  447SOL    HW2 1787  -0.060   1.922   1.516 -3.9323 -0.6228 -1.8552
  447SOL     MW 1788   0.009   1.941   1.575 -0.8863 -0.1982 -0.6427
  448SOL     OW 1789   1.778   2.408   1.668 -0.2868 -0.1892  0.1590
  448SOL    HW1 1790   1.706   2.343   1.667  2.2128 -0.4317  0.1674
  448SOL    HW2 1791   1.738   2.494   1.661  1.4104 -2.6624 -0.1036
  448SOL     MW 1792   1.763   2.411   1.667  0.2669 -0.5475  0.1255
  449SOL     OW 1793   0.881   2.930   0.389 -0.2104 -0.1235  0.0237
  449SOL    HW1 1794   0.833   2.948   0.305  1.7356  0.3348  0.0582
  449SOL    HW2 1795   0.819   2.939   0.464  0.8315 -0.4543 -1.1361
  449SOL     MW 1796   0.866   2.933   0.388  0.1839 -0.1066 -0.1248
  450SOL     OW 1797   1.188   2.482   0.780  0.2290  0.1512 -0.1686
  450SOL    HW1 1798   1.178   2.425   0.854 -1.9768 -1.2069  1.3604
  450SOL    HW2 1799   1.269   2.455   0.734 -0.1913  1.5463 -1.3258
  450SOL     MW 1800   1.197   2.471   0.784 -0.1175  0.1561 -0.1196
  451SOL     OW 1801   0.526   1.960   1.699 -0.2636 -0.5506  0.0475
  451SOL    HW1 1802   0.599   1.986   1.639  0.6156 -1.5324 -2.6694
  451SOL    HW2 1803   0.470   1.912   1.637 -1.7664 -2.0695 -0.3242
  451SOL     MW 1804   0.528   1.957   1.683 -0.3459 -0.8805 -0.3600
  452SOL     OW 1805   0.356   2.610   0.038 -0.2515 -0.6102 -0.2808
  452SOL    HW1 1806   0.431   2.668   0.049  1.4654 -0.8071  1.3634
  452SOL    HW2 1807   0.294   2.676   0.019  1.1828  2.9325 -1.1314
  452SOL     MW 1808   0.358   2.627   0.037  0.1642 -0.1687 -0.1761
  453SOL     OW 1809   0.299   3.085   1.590 -0.2240 -0.1197 -0.5804
  453SOL    HW1 1810   0.381   3.049   1.625  1.1056 -0.8087 -0.6044
  453SOL    HW2 1811   0.309   3.071   1.494  0.2830 -1.3204 -2.6630
  453SOL     MW 1812   0.311   3.078   1.582  0.0183 -0.3690 -0.8584
  454SOL     OW 1813   0.911   2.767   1.239 -0.0190  0.3427 -0.1695
  454SOL    HW1 1814   0.864   2.682   1.261 -2.3849 -2.7380 -1.8240
  454SOL    HW2 1815   0.854   2.792   1.163 -0.5695 -0.1413 -0.4180
  454SOL     MW 1816   0.897   2.759   1.232 -0.4038 -0.1276 -0.4205
  455SOL     OW 1817   1.715   2.876   0.237  0.4722  0.5339 -0.3261
  455SOL    HW1 1818   1.754   2.848   0.324 -0.9340 -1.4377 -1.8347
  455SOL    HW2 1819   1.668   2.794   0.211  2.6137 -0.7924 -0.4891
  455SOL     MW 1820   1.714   2.861   0.245  0.5692  0.0988 -0.5467
  456SOL     OW 1821   2.753   0.282   1.476 -0.1141  0.0791 -0.2995
  456SOL    HW1 1822   2.730   0.205   1.420 -1.3715 -2.1848 -0.7977
  456SOL    HW2 1823   2.831   0.321   1.426  1.8344 -1.0232 -0.8648
  456SOL     MW 1824   2.760   0.277   1.462 -0.0229 -0.3650 -0.4398
  457SOL     OW 1825   0.786   1.676   3.055  0.3357  0.6576  0.3703
  457SOL    HW1 1826   0.689   1.676   3.057 -0.5865  2.0795  2.0256
  457SOL    HW2 1827   0.810   1.715   3.136  0.1489  2.5170 -2.2517
  457SOL     MW 1828   0.777   1.681   3.066  0.1894  1.0905  0.2428
  458SOL     OW 1829   1.374   1.499   0.704  0.1879 -0.5593  0.2124
  458SOL    HW1 1830   1.318   1.564   0.652 -0.2004 -1.9799  2.0588
  458SOL    HW2 1831   1.335   1.411   0.681 -2.6067 -3.8935 -1.6274
  458SOL     MW 1832   1.362   1.496   0.694 -0.2321 -1.1866  0.2132
  459SOL     OW 1833   1.567   0.022   0.243  0.2838 -0.6364  0.5556
  459SOL    HW1 1834   1.616  -0.059   0.254 -0.0707 -0.0089 -0.6628
  459SOL    HW2 1835   1.539   0.020   0.146 -1.0836 -0.2179  1.6588
  459SOL     MW 1836   1.570   0.011   0.231  0.0566 -0.4984  0.5404
  460SOL     OW 1837   1.788   2.227   0.648  0.1713  0.3394 -0.4134
  460SOL    HW1 1838   1.707   2.217   0.700  0.9780  1.5928 -2.5085
  460SOL    HW2 1839   1.824   2.136   0.647  0.4092 -0.7341  1.0490
  460SOL     MW 1840   1.782   2.213   0.655  0.3091  0.3631 -0.4968
  461SOL     OW 1841   0.451   2.438   0.633 -0.2342  0.1096 -0.6339
  461SOL    HW1 1842   0.460   2.524   0.598 -1.1856 -1.3519  1.3434
  461SOL    HW2 1843   0.447   2.454   0.727 -1.3762 -0.6173  1.7069
  461SOL     MW 1844   0.452   2.452   0.640 -0.5104 -0.1791 -0.0641
  462SOL     OW 1845   0.292   0.204   1.314 -0.0618  0.3958  0.3315
  462SOL    HW1 1846   0.294   0.190   1.221 -0.4683  2.9444  0.1785
  462SOL    HW2 1847   0.375   0.236   1.350  0.9493  2.2689 -1.9654
  462SOL     MW 1848   0.303   0.206   1.307  0.0180  0.9792  0.0082
  463SOL     OW 1849   1.058   0.053   0.731 -0.0958  0.5996 -0.0041
  463SOL    HW1 1850   1.139   0.052   0.679 -0.2921 -0.6825  3.1861
  463SOL    HW2 1851   0.991   0.072   0.661 -0.5019 -2.6519  0.1609
  463SOL     MW 1852   1.060   0.055   0.715 -0.1753  0.0014  0.4386
  464SOL     OW 1853   0.788   0.004   2.265 -0.2173 -0.1315  0.5138
  464SOL    HW1 1854   0.789  -0.085   2.290  0.7194  2.7589 -0.3464
  464SOL    HW2 1855   0.819   0.054   2.340 -1.0677 -0.9889 -1.7160
  464SOL     MW 1856   0.792  -0.001   2.279 -0.2059  0.1367  0.1061
  465SOL     OW 1857   0.783   0.314   0.408 -0.4700  0.0685 -0.0546
  465SOL    HW1 1858   0.784   0.251   0.489  2.9705 -2.9481 -1.2866
  465SOL    HW2 1859   0.784   0.259   0.328 -0.5912  1.0241  2.8332
  465SOL     MW 1860   0.783   0.298   0.408 -0.0321 -0.2035  0.1639
  466SOL     OW 1861   1.084   2.022   0.762 -0.1150  0.2235  0.5496
  466SOL    HW1 1862   1.077   1.942   0.715  0.6377 -1.0446  1.5625
  466SOL    HW2 1863   1.078   2.096   0.694 -0.0376  0.2848 -0.6572
  466SOL     MW 1864   1.083   2.021   0.747 -0.0055  0.0643  0.5240
  467SOL     OW 1865   1.267   2.320   0.999 -0.0150 -0.1544 -0.2518
  467SOL    HW1 1866   1.354   2.360   1.011 -0.3214  2.4819  0.1983
  467SOL    HW2 1867   1.289   2.229   0.975  0.3069 -2.0319  1.8413
  467SOL     MW 1868   1.281   2.314   0.997 -0.0130 -0.0543  0.0837
  468SOL     OW 1869   0.483   2.661   1.894  0.5141  0.3551  0.3007
  468SOL    HW1 1870   0.458   2.571   1.867  2.1439 -1.5103  2.0908
  468SOL    HW2 1871   0.408   2.716   1.874  3.7682 -2.0601  0.0170
  468SOL     MW 1872   0.470   2.656   1.888  1.1585 -0.2097  0.4995
  469SOL     OW 1873   0.392   2.131   1.873  0.3148 -0.3346 -0.1923
  469SOL    HW1 1874   0.290   2.122   1.867 -1.3017 -0.8763 -3.4768
  469SOL    HW2 1875   0.422   2.062   1.812 -1.1225  1.5868 -2.1063
  469SOL     MW 1876   0.382   2.121   1.864 -0.0881 -0.1526 -0.8782
  470SOL     OW 1877   3.061   2.601   0.128  0.0114  0.5703 -0.5843
  470SOL    HW1 1878   2.975   2.584   0.176 -0.8436 -0.3659 -0.0243
  470SOL    HW2 1879   3.031   2.609   0.035 -1.5009 -0.6177 -3.2892
  470SOL     MW 1880   3.046   2.600   0.122 -0.3009  0.2901 -0.8673
  471SOL     OW 1881   1.174   2.557   1.424 -0.1046  0.7539 -0.0911
  471SOL    HW1 1882   1.103   2.554   1.485 -1.1893 -0.4974 -2.1271
  471SOL    HW2 1883   1.127   2.565   1.341  3.2362  2.4680 -0.2295
  471SOL     MW 1884   1.158   2.558   1.421  0.1931  0.8150 -0.3780
  472SOL     OW 1885   2.827   2.101   0.355  0.2208  0.0160 -0.0942
  472SOL    HW1 1886   2.855   2.068   0.270  2.2261 -0.3700  1.8067
  472SOL    HW2 1887   2.811   2.026   0.410 -3.2761  0.4843  0.1803
  472SOL     MW 1888   2.828   2.086   0.351  0.0240  0.0269  0.1928
  473SOL     OW 1889   0.809   2.551   1.392  0.0078  0.2126  0.3360
  473SOL    HW1 1890   0.850   2.462   1.376  1.7358 -0.2832  0.9049
  473SOL    HW2 1891   0.835   2.565   1.479  0.0781  0.6193 -0.7899
  473SOL     MW 1892   0.818   2.541   1.401  0.2451  0.2009  0.2626
  474SOL     OW 1893   0.697   2.293   1.746 -0.9279  0.6052  0.6166
  474SOL    HW1 1894   0.781   2.307   1.800 -0.8762  1.5935  3.0335
  474SOL    HW2 1895   0.736   2.244   1.671 -1.9263 -0.6248  3.2883
  474SOL     MW 1896   0.713   2.289   1.743 -1.0528  0.5733  1.2880
  475SOL     OW 1897   1.607   3.092   1.499  0.2975  0.0729  0.4225
  475SOL    HW1 1898   1.523   3.097   1.453  1.1338  1.8451 -0.7946
  475SOL    HW2 1899   1.608   3.012   1.552  1.6196 -0.8019  0.5350
  475SOL     MW 1900   1.596   3.082   1.500  0.5823  0.1913  0.2768
  476SOL     OW 1901   1.423   2.583   1.089 -0.1884  0.1492  0.2587
  476SOL    HW1 1902   1.332   2.622   1.092  0.9168 -0.3102  2.9965
  476SOL    HW2 1903   1.472   2.657   1.114 -1.1333 -1.5576 -2.3122
  476SOL     MW 1904   1.417   2.598   1.093 -0.1672 -0.1366  0.2807
  477SOL     OW 1905   0.838   2.569   0.656  0.3122 -0.2551 -0.3439
  477SOL    HW1 1906   0.905   2.602   0.594 -0.2758 -0.1616 -0.5286
  477SOL    HW2 1907   0.813   2.488   0.628  1.6219  1.8322  2.0595
  477SOL     MW 1908   0.844   2.563   0.644  0.4074  0.0327 -0.0512
  478SOL     OW 1909   0.184   2.646   0.921  0.6131 -0.4173  0.7336
  478SOL    HW1 1910   0.217   2.724   0.879  1.4442 -1.2680 -1.1259
  478SOL    HW2 1911   0.256   2.578   0.903  1.5614 -0.0755 -0.6280
  478SOL     MW 1912   0.198   2.647   0.913  0.8478 -0.4845  0.3086
  479SOL     OW 1913   1.431   1.982   1.287 -0.0587  0.0884  0.0550
  479SOL    HW1 1914   1.415   2.017   1.371 -1.4765 -1.1913 -0.7233
  479SOL    HW2 1915   1.482   1.900   1.300 -0.7961  0.6171  0.1848
  479SOL     MW 1916   1.435   1.976   1.300 -0.3431 -0.0107 -0.0306
  480SOL     OW 1917   2.016   2.440   1.307 -0.0307  0.2198 -0.0549
  480SOL    HW1 1918   2.005   2.345   1.318 -2.0034 -1.5848  0.1334
  480SOL    HW2 1919   2.044   2.451   1.216 -1.2286 -2.1523 -1.8210
  480SOL     MW 1920   2.018   2.429   1.297 -0.4490 -0.3313 -0.2631
  481SOL     OW 1921   1.032   0.048   1.063 -0.1097  0.3854 -0.5012
  481SOL    HW1 1922   1.073  -0.031   1.024  2.4100  0.7423 -2.4235
  481SOL    HW2 1923   1.093   0.123   1.064  0.0555 -0.8000  0.2764
  481SOL     MW 1924   1.045   0.047   1.058  0.2446  0.2761 -0.6522
  482SOL     OW 1925   1.095   3.073   0.283  0.2307  0.2957  0.0536
  482SOL    HW1 1926   1.015   3.020   0.301  0.0254 -2.1185  2.0861
  482SOL    HW2 1927   1.072   3.165   0.306 -1.0536 -2.2237  0.7307
  482SOL     MW 1928   1.081   3.078   0.289  0.0341 -0.3553  0.4111
  483SOL     OW 1929   0.427   2.959   0.408 -0.3793  0.3645  0.5878
  483SOL    HW1 1930   0.342   3.001   0.377 -2.1847  2.3989 -1.9325
  483SOL    HW2 1931   0.429   2.992   0.498 -0.6448  0.2021  1.5095
  483SOL     MW 1932   0.416   2.969   0.416 -0.6525  0.6115  0.3769
  484SOL     OW 1933   1.876   1.930   1.500 -0.2500  0.1160  0.1816
  484SOL    HW1 1934   1.895   2.025   1.491  1.9467  1.5421  3.6731
  484SOL    HW2 1935   1.810   1.933   1.568  1.4411  0.4125 -0.3599
  484SOL     MW 1936   1.870   1.943   1.508  0.2629  0.3433  0.5708
  485SOL     OW 1937   0.573   2.315   0.257 -0.0818  0.7282 -0.2760
  485SOL    HW1 1938   0.586   2.322   0.347 -1.1881  0.9823 -0.6913
  485SOL    HW2 1939   0.493   2.370   0.238  2.5898  1.7550 -1.5121
  485SOL     MW 1940   0.564   2.323   0.266  0.1247  0.8972 -0.4939
  486SOL     OW 1941   0.172   2.398   1.488  0.1405  0.2983 -0.5684
  486SOL    HW1 1942   0.220   2.482   1.484 -0.6166 -0.5458 -1.9565
  486SOL    HW2 1943   0.167   2.382   1.584  0.0538 -1.0443  1.5237
  486SOL     MW 1944   0.178   2.407   1.500  0.0292  0.0098 -0.4755
  487SOL     OW 1945   1.220   1.691   1.048 -0.2167  0.2425 -0.1501
  487SOL    HW1 1946   1.179   1.766   1.092  0.1549  1.1801  0.7594
  487SOL    HW2 1947   1.313   1.716   1.036 -0.3090  4.5394  2.8259
  487SOL     MW 1948   1.227   1.704   1.053 -0.1798  0.9331  0.3625
  488SOL     OW 1949   1.605   1.826   0.569  0.1748  0.2689  0.2939
  488SOL    HW1 1950   1.682   1.828   0.518 -0.3470  1.9185  1.3367
  488SOL    HW2 1951   1.574   1.917   0.551 -0.3855 -0.9729  1.6063
  488SOL     MW 1952   1.611   1.838   0.560  0.0320  0.3227  0.6047
  489SOL     OW 1953   0.761   0.831   0.624 -0.0403  0.2524  0.2502
  489SOL    HW1 1954   0.760   0.743   0.583 -0.3504 -0.3081  1.2786
  489SOL    HW2 1955   0.729   0.810   0.711  1.9352  0.5304 -1.4461
  489SOL     MW 1956   0.757   0.817   0.630  0.1794  0.2151  0.1620
  490SOL     OW 1957   1.477   2.053   0.477  0.2726 -0.2635  0.5757
  490SOL    HW1 1958   1.516   2.122   0.430  1.5111 -0.4442  1.6022
  490SOL    HW2 1959   1.380   2.054   0.443  1.6223 -2.2172 -1.3438
  490SOL     MW 1960   1.469   2.062   0.466  0.6141 -0.5451  0.4579
  491SOL     OW 1961   1.303   2.930   0.437  0.3393  0.7353  0.2875
  491SOL    HW1 1962   1.367   2.994   0.451  1.0981 -0.2959 -0.7709
  491SOL    HW2 1963   1.229   2.979   0.390 -1.2806 -1.8945 -1.3184
  491SOL     MW 1964   1.301   2.945   0.432  0.2257  0.2522 -0.0640
  492SOL     OW 1965   1.482   2.191   0.741  0.2183 -0.2671 -0.0376
  492SOL    HW1 1966   1.487   2.121   0.681  1.1130  0.1435  0.0170
  492SOL    HW2 1967   1.418   2.167   0.811 -2.7166  0.7466 -0.2468
  492SOL     MW 1968   1.474   2.179   0.742 -0.0509 -0.0792 -0.0580
  493SOL     OW 1969   0.170   3.043   0.349  0.0611 -0.5792 -0.2981
  493SOL    HW1 1970   0.116   3.091   0.417 -2.3071  2.1877 -1.8709
  493SOL    HW2 1971   0.166   3.091   0.269 -1.9497 -3.0184  0.1838
  493SOL     MW 1972   0.162   3.055   0.348 -0.5167 -0.5360 -0.4420
  494SOL     OW 1973   0.419   2.404   1.777  0.5980 -0.0603  0.0142
  494SOL    HW1 1974   0.479   2.329   1.791  0.6268 -1.3285 -0.6854
  494SOL    HW2 1975   0.427   2.418   1.680 -0.3072  0.2837 -1.0581
  494SOL     MW 1976   0.428   2.396   1.766  0.4824 -0.1822 -0.2196
  495SOL     OW 1977   2.879   1.678   2.589 -0.0220  0.4760  0.1020
  495SOL    HW1 1978   2.835   1.759   2.574 -0.3317  1.8859 -0.6861
  495SOL    HW2 1979   2.860   1.647   2.679  0.3752 -0.3175 -0.8574
  495SOL     MW 1980   2.871   1.684   2.599 -0.0105  0.5574 -0.1286
  496SOL     OW 1981   2.916   2.391   2.711  0.2741 -0.6776  0.0401
  496SOL    HW1 1982   2.950   2.310   2.759  0.0027  1.4661  0.7760
  496SOL    HW2 1983   2.992   2.449   2.711 -0.9054  0.6499  0.5664
  496SOL     MW 1984   2.930   2.388   2.718  0.0827 -0.2196  0.2066
  497SOL     OW 1985   1.630   2.189   2.628 -0.3670  0.2177 -0.1068
  497SOL    HW1 1986   1.591   2.115   2.579 -0.7387 -0.9625  1.1729
  497SOL    HW2 1987   1.642   2.154   2.717  0.1928 -0.4241  0.2682
  497SOL     MW 1988   1.627   2.175   2.633 -0.3422 -0.0227  0.1115
  498SOL     OW 1989   1.442   2.715   2.343  0.0825 -0.4009 -0.0889
  498SOL    HW1 1990   1.467   2.626   2.360  0.1826  1.6867 -0.2885
  498SOL    HW2 1991   1.531   2.755   2.316  1.0186 -0.4680 -0.2035
  498SOL     MW 1992   1.457   2.709   2.342  0.2192 -0.1343 -0.1304
  499SOL     OW 1993   1.005   0.136   3.082  0.2469 -0.2641 -0.5995
  499SOL    HW1 1994   0.934   0.175   3.139 -1.2684  2.0990  4.0139
  499SOL    HW2 1995   1.051   0.071   3.129  0.4540  0.1806  2.5532
  499SOL     MW 1996   1.002   0.133   3.096  0.0743  0.1063  0.4252
  500SOL     OW 1997   1.108   2.521   2.759  0.4665 -0.1801 -0.2921
  500SOL    HW1 1998   1.190   2.477   2.781  0.6418  1.7213 -0.0468
  500SOL    HW2 1999   1.045   2.499   2.828  1.3727 -0.4410  0.1082
  500SOL     MW 2000   1.111   2.513   2.771  0.6092  0.0363 -0.2069
  501SOL     OW 2001   1.797   2.211   3.078  0.4829  0.6862  0.6045
  501SOL    HW1 2002   1.756   2.290   3.117  1.3684 -1.2417 -1.9699
  501SOL    HW2 2003   1.894   2.226   3.074 -0.6613 -0.4245 -0.5849
  501SOL     MW 2004   1.805   2.223   3.083  0.4488  0.2853  0.1079
  502SOL     OW 2005   0.147   2.815   3.085  0.2291  0.7503 -0.0593
  502SOL    HW1 2006   0.074   2.760   3.046  1.4441  1.8876 -0.9705
  502SOL    HW2 2007   0.185   2.853   3.007 -1.4348 -0.9408  2.9144
  502SOL     MW 2008   0.142   2.812   3.070  0.1699  0.6772  0.2128
  503SOL     OW 2009   1.033   2.810   2.182 -0.3171  0.4283 -0.2232
  503SOL    HW1 2010   0.969   2.781   2.125 -0.3851 -0.7121  2.0503
  503SOL    HW2 2011   1.001   2.901   2.180  0.8104  2.4341 -0.7309
  503SOL     MW 2012   1.021   2.818   2.175 -0.1773  0.5425  0.0098
  504SOL     OW 2013   0.066   2.692   2.107  0.0191  0.3372 -0.1879
  504SOL    HW1 2014   0.113   2.621   2.062 -3.7546 -1.0285  1.9163
  504SOL    HW2 2015   0.024   2.642   2.179 -0.8268 -0.5251  2.0000
  504SOL     MW 2016   0.066   2.676   2.110 -0.5904  0.0432  0.3784
  505SOL     OW 2017   1.693   2.691   2.681  0.0296 -0.0553  0.1220
  505SOL    HW1 2018   1.670   2.690   2.592 -0.9559  3.0670  1.3440
  505SOL    HW2 2019   1.621   2.732   2.732 -1.5607 -0.9048 -0.3870
  505SOL     MW 2020   1.681   2.696   2.676 -0.3102  0.2446  0.2161
  506SOL     OW 2021   1.622   3.041   2.837 -0.0522 -0.2916  0.1417
  506SOL    HW1 2022   1.666   3.024   2.923  0.2606 -0.1415  0.5423
  506SOL    HW2 2023   1.683   3.024   2.761 -0.2543 -0.7989  1.0299
  506SOL     MW 2024   1.636   3.036   2.838 -0.0376 -0.3387  0.3118
  507SOL     OW 2025   0.880   2.732   2.861 -0.2659 -0.0701 -0.0883
  507SOL    HW1 2026   0.932   2.757   2.781  3.8842  1.6330 -2.7395
  507SOL    HW2 2027   0.812   2.794   2.857  0.6577 -1.0236  0.7901
  507SOL     MW 2028   0.878   2.744   2.850  0.4035  0.0288 -0.3222
  508SOL     OW 2029   1.132   2.086   2.525  0.1850  0.0425  0.1292
  508SOL    HW1 2030   1.225   2.074   2.545  1.3548 -1.1386  0.2171
  508SOL    HW2 2031   1.107   2.160   2.587 -1.1798  1.1142 -1.9255
  508SOL     MW 2032   1.141   2.094   2.536  0.1592  0.0281 -0.1303
  509SOL     OW 2033   0.594   2.541   2.871  0.3966  0.4054  0.8702
  509SOL    HW1 2034   0.616   2.552   2.782  1.4843  1.8780  3.3536
  509SOL    HW2 2035   0.511   2.498   2.878 -1.4690  0.9998  1.4175
  509SOL     MW 2036   0.586   2.537   2.860  0.2940  0.6781  1.2701
  510SOL     OW 2037   1.512   2.557   1.708 -0.4087  0.5846  0.0400
  510SOL    HW1 2038   1.490   2.644   1.691 -0.6358 -2.4058  1.3035
  510SOL    HW2 2039   1.465   2.547   1.790 -0.4697 -1.2692 -2.4577
  510SOL     MW 2040   1.503   2.567   1.716 -0.4467 -0.0546 -0.1229
  511SOL     OW 2041   0.430   2.634   2.445 -0.3516 -0.9410 -0.4853
  511SOL    HW1 2042   0.497   2.570   2.475 -0.4543  2.2984  2.2547
  511SOL    HW2 2043   0.441   2.640   2.353 -4.0964  0.2838  1.9661
  511SOL     MW 2044   0.441   2.626   2.437 -0.8592 -0.3520  0.1997
  512SOL     OW 2045   1.047   2.009   2.864 -0.1539 -0.2068 -0.4436
  512SOL    HW1 2046   0.952   2.024   2.876 -0.7260 -1.8899 -0.4236
  512SOL    HW2 2047   1.062   1.914   2.858  0.0966 -0.1431  1.3082
  512SOL     MW 2048   1.036   1.998   2.865 -0.1963 -0.4204 -0.2098
  513SOL     OW 2049   1.498   2.428   2.372 -0.4218 -0.0284  0.6582
  513SOL    HW1 2050   1.575   2.412   2.429 -1.8524 -0.4960  0.1829
  513SOL    HW2 2051   1.461   2.341   2.378  2.4816 -1.1803  0.3077
  513SOL     MW 2052   1.503   2.415   2.380 -0.2274 -0.2421  0.5493
  514SOL     OW 2053   0.270   2.474   2.598  0.6762 -0.2810  0.5998
  514SOL    HW1 2054   0.324   2.530   2.542 -0.8066  0.1807  3.9957
  514SOL    HW2 2055   0.288   2.486   2.690  0.6794  0.0010 -0.1645
  514SOL     MW 2056   0.279   2.483   2.602  0.4809 -0.1829  0.9470
  515SOL     OW 2057   1.045   2.074   1.845 -0.3027 -0.2289  1.0460
  515SOL    HW1 2058   0.977   2.136   1.877  0.6870 -0.1586  0.9801
  515SOL    HW2 2059   1.100   2.059   1.919  2.4362  0.9590  2.1284
  515SOL     MW 2060   1.043   2.080   1.859  0.1892 -0.0629  1.1801
  516SOL     OW 2061   1.479   2.499   3.026  0.3425  0.0598 -0.1111
  516SOL    HW1 2062   1.554   2.467   2.966 -1.4662  0.6379 -1.0452
  516SOL    HW2 2063   1.397   2.459   2.994  2.5693 -1.4550 -2.5323
  516SOL     MW 2064   1.478   2.490   3.014  0.3977 -0.0638 -0.5538
  517SOL     OW 2065   0.601   2.414   2.133 -0.5945 -0.3325 -0.2482
  517SOL    HW1 2066   0.567   2.502   2.144  0.6451  1.9898  0.7513
  517SOL    HW2 2067   0.527   2.358   2.120 -1.3851 -1.1081  2.2005
  517SOL     MW 2068   0.586   2.418   2.133 -0.5353 -0.1284  0.2067
  518SOL     OW 2069   1.918   0.145   2.947 -0.2150  0.0634 -0.4383
  518SOL    HW1 2070   1.854   0.195   2.893 -2.7279 -1.6089 -1.0348
  518SOL    HW2 2071   1.869   0.101   3.015 -0.6524  1.3246 -1.3407
  518SOL     MW 2072   1.903   0.146   2.949 -0.6042  0.0092 -0.6360
  519SOL     OW 2073   0.743   2.586   1.718  0.3621  0.2620  0.3131
  519SOL    HW1 2074   0.724   2.492   1.716  2.2164 -3.2667  1.8149
  519SOL    HW2 2075   0.666   2.621   1.763 -2.0344  3.1001  0.9878
  519SOL     MW 2076   0.730   2.578   1.724  0.2906  0.1709  0.6003
  520SOL     OW 2077   1.264   2.142   2.944 -0.0203 -0.5344 -0.0457
  520SOL    HW1 2078   1.181   2.099   2.912 -1.4199  1.6086  4.0944
  520SOL    HW2 2079   1.293   2.067   2.998  0.4939 -1.7683  0.7921
  520SOL     MW 2080   1.257   2.127   2.947 -0.1371 -0.4144  0.6111
  521SOL     OW 2081   1.721   2.064   2.284  0.1509  0.3825 -0.8537
  521SOL    HW1 2082   1.714   2.102   2.197 -2.0560 -0.1885  0.3267
  521SOL    HW2 2083   1.741   1.970   2.277  0.5029  0.3437 -3.5241
  521SOL     MW 2084   1.723   2.057   2.271 -0.0938  0.3020 -1.0503
  522SOL     OW 2085   2.837   2.565   2.173 -0.1983  0.1354  0.3399
  522SOL    HW1 2086   2.928   2.568   2.212 -0.3303  1.0091  1.8671
  522SOL    HW2 2087   2.777   2.582   2.245 -0.4328 -0.1584 -0.9094
  522SOL     MW 2088   2.841   2.568   2.187 -0.2467  0.2119  0.3765
  523SOL     OW 2089   0.843   1.508   2.135 -0.0774 -0.0502  0.0701
  523SOL    HW1 2090   0.852   1.598   2.103  0.1842 -1.6787 -0.7325
  523SOL    HW2 2091   0.888   1.457   2.072 -1.1852 -0.3424  1.2778
  523SOL     MW 2092   0.850   1.513   2.122 -0.1891 -0.3036  0.1235
  524SOL     OW 2093   0.890   2.440   2.917 -0.0822  0.1684  0.5147
  524SOL    HW1 2094   0.857   2.525   2.892  1.7510 -0.3667  1.8922
  524SOL    HW2 2095   0.827   2.373   2.901 -0.1124  1.3835  0.1933
  524SOL     MW 2096   0.877   2.442   2.911  0.1557  0.2581  0.6540
  525SOL     OW 2097   0.366   2.262   2.097 -0.8227  0.5952 -0.4475
  525SOL    HW1 2098   0.310   2.208   2.157 -2.6620 -1.2980 -0.9273
  525SOL    HW2 2099   0.385   2.200   2.022 -1.8559  1.0061 -0.3036
  525SOL     MW 2100   0.361   2.247   2.095 -1.2017  0.3996 -0.4918
  526SOL     OW 2101   0.712   2.099   1.983  0.0092  0.2803  0.0181
  526SOL    HW1 2102   0.696   2.146   1.902 -2.0306 -0.7051 -0.8656
  526SOL    HW2 2103   0.643   2.132   2.033 -0.4590 -1.0534  0.1730
  526SOL     MW 2104   0.701   2.109   1.979 -0.3217 -0.0257 -0.0780
  527SOL     OW 2105   1.330   1.967   2.025  0.4171 -0.0450  0.2292
  527SOL    HW1 2106   1.322   1.927   2.113 -0.1198  0.7702  2.4916
  527SOL    HW2 2107   1.399   1.909   1.993  1.6298 -0.7044 -1.7089
  527SOL     MW 2108   1.338   1.954   2.033  0.5063 -0.0244  0.2720
  528SOL     OW 2109   0.628   2.878   2.954  0.0863  0.2460 -0.2814
  528SOL    HW1 2110   0.666   2.963   2.967 -0.4505 -0.2947 -1.1575
  528SOL    HW2 2111   0.573   2.884   2.874  0.3507 -0.1613  1.2027
  528SOL     MW 2112   0.626   2.890   2.945  0.0504  0.1209 -0.2012
  529SOL     OW 2113   0.916   2.319   1.895  0.0738 -0.7552  0.4889
  529SOL    HW1 2114   0.907   2.366   1.973  1.7735 -1.1573 -0.7362
  529SOL    HW2 2115   0.993   2.363   1.851 -1.7869 -0.5918  1.9923
  529SOL     MW 2116   0.925   2.331   1.899  0.0525 -0.7867  0.5256
  530SOL     OW 2117   1.224   2.395   3.014  0.1916  0.3431 -0.5112
  530SOL    HW1 2118   1.145   2.420   3.068 -2.0314  1.5764  2.5759
  530SOL    HW2 2119   1.232   2.296   2.998  1.8098  0.0664  1.1049
  530SOL     MW 2120   1.214   2.385   3.019  0.1118  0.4693  0.1094
  531SOL     OW 2121   0.966   1.859   2.573 -0.2320 -0.1355 -0.3044
  531SOL    HW1 2122   1.022   1.936   2.585 -1.5331 -0.8276 -3.4530
  531SOL    HW2 2123   0.913   1.853   2.652 -4.0493  0.3989  3.6191
  531SOL     MW 2124   0.966   1.869   2.585 -0.9073 -0.1563 -0.2022
  532SOL     OW 2125   1.756   0.321   2.806 -0.0628 -0.7904 -0.7788
  532SOL    HW1 2126   1.743   0.307   2.712  0.3715  1.3975 -0.3002
  532SOL    HW2 2127   1.834   0.373   2.819 -1.1412  0.7591  0.7721
  532SOL     MW 2128   1.764   0.326   2.795 -0.1478 -0.2973 -0.5110
  533SOL     OW 2129   1.821   2.683   3.029 -0.1245 -0.1734  0.5299
  533SOL    HW1 2130   1.766   2.600   3.021 -0.2841  0.4831  1.2313
  533SOL    HW2 2131   1.754   2.753   3.011 -0.5527  2.0166 -0.3987
  533SOL     MW 2132   1.805   2.681   3.026 -0.2021  0.2022  0.4999
  534SOL     OW 2133   1.754   2.420   2.491 -0.4712 -0.2059 -0.4144
  534SOL    HW1 2134   1.753   2.329   2.530  1.2166 -2.0036  0.4083
  534SOL    HW2 2135   1.821   2.460   2.544  0.4238  0.3410  0.4833
  534SOL     MW 2136   1.763   2.413   2.503 -0.1305 -0.3709 -0.1874
  535SOL     OW 2137   1.904   2.393   1.909 -0.2497  0.0293 -0.4483
  535SOL    HW1 2138   1.844   2.407   1.827 -0.0699 -1.1688 -1.9241
  535SOL    HW2 2139   1.988   2.380   1.863 -0.6736 -1.6104  0.3372
  535SOL     MW 2140   1.907   2.393   1.892 -0.2819 -0.3451 -0.5394
  536SOL     OW 2141   0.584   1.810   2.054  0.3896  0.2774 -0.2310
  536SOL    HW1 2142   0.547   1.760   1.979 -1.6472 -0.7372  0.0945
  536SOL    HW2 2143   0.596   1.898   2.031  0.5223  1.3606 -0.7045
  536SOL     MW 2144   0.580   1.815   2.041  0.1384  0.2865 -0.2505
  537SOL     OW 2145   1.088   0.167   2.776  0.0651  0.1670 -0.3034
  537SOL    HW1 2146   1.073   0.199   2.863  1.2733 -0.6061 -1.7468
  537SOL    HW2 2147   1.073   0.244   2.725 -2.0868  0.1897 -0.1564
  537SOL     MW 2148   1.084   0.181   2.781 -0.0594  0.0680 -0.4744
  538SOL     OW 2149   1.464   0.051   3.087  0.2834  0.1377  0.7564
  538SOL    HW1 2150   1.450   0.141   3.114  1.0897  0.7932  0.6322
  538SOL    HW2 2151   1.374   0.008   3.077 -0.6643  2.2658 -0.4382
  538SOL     MW 2152   1.450   0.058   3.089  0.2647  0.5050  0.5824
  539SOL     OW 2153   0.706   2.808   2.587 -0.2298  0.1781 -0.0729
  539SOL    HW1 2154   0.780   2.874   2.595  4.2105 -1.7676  0.8003
  539SOL    HW2 2155   0.730   2.716   2.559 -0.3171 -2.6845  0.9586
  539SOL     MW 2156   0.719   2.805   2.584  0.3446 -0.4563  0.1784
  540SOL     OW 2157   0.303   2.487   2.894 -1.3057 -0.6490 -0.0290
  540SOL    HW1 2158   0.302   2.538   2.974  1.0083 -1.2991  0.3246
  540SOL    HW2 2159   0.270   2.402   2.933 -0.7576  0.9104 -0.3039
  540SOL     MW 2160   0.298   2.482   2.910 -0.9280 -0.5290 -0.0187
  541SOL     OW 2161   0.194   2.916   2.153  0.2680 -0.0838 -0.3991
  541SOL    HW1 2162   0.132   2.845   2.120 -3.2654  1.0349  0.9242
  541SOL    HW2 2163   0.240   2.886   2.232  2.6733 -0.6698  0.6529
  541SOL     MW 2164   0.192   2.903   2.159  0.1192 -0.0135 -0.0857
  542SOL     OW 2165   1.004   2.263   2.679 -0.3723 -0.5025 -0.0888
  542SOL    HW1 2166   0.971   2.221   2.759 -1.2433 -1.2170 -1.0962
  542SOL    HW2 2167   1.017   2.359   2.702  2.0114  0.7497  0.4772
  542SOL     MW 2168   1.002   2.270   2.692 -0.1727 -0.4315 -0.1471
  543SOL     OW 2169   1.663   2.431   2.848 -0.8347  0.5354  0.2879
  543SOL    HW1 2170   1.634   2.363   2.780 -0.1236 -1.7619 -0.2001
  543SOL    HW2 2171   1.655   2.515   2.795 -3.2083  2.0077 -0.1086
  543SOL     MW 2172   1.658   2.433   2.832 -1.0540  0.4266  0.1712
  544SOL     OW 2173   0.782   0.155   2.729  0.2556  0.1716 -0.5994
  544SOL    HW1 2174   0.685   0.177   2.732 -0.7817 -0.4775  1.7712
  544SOL    HW2 2175   0.817   0.160   2.636 -0.1825 -0.3527 -1.6195
  544SOL     MW 2176   0.774   0.159   2.717  0.0610  0.0168 -0.4212
  545SOL     OW 2177   1.451   2.134   2.318  0.2213 -0.6723 -0.2572
  545SOL    HW1 2178   1.407   2.155   2.236 -0.1431 -0.0181 -1.3043
  545SOL    HW2 2179   1.547   2.101   2.293  1.7223  0.7995 -1.0578
  545SOL     MW 2180   1.458   2.133   2.304  0.3713 -0.3918 -0.5010
  546SOL     OW 2181   2.893   2.001   0.114  0.3115 -0.3028 -0.6069
  546SOL    HW1 2182   2.887   2.083   0.065 -0.2202 -1.2762  0.6335
  546SOL    HW2 2183   2.980   1.967   0.090 -2.7593  0.2020 -0.2401
  546SOL     MW 2184   2.904   2.008   0.104 -0.1638 -0.3646 -0.3949
  547SOL     OW 2185   0.216   0.055   0.104  0.1056 -0.2876  0.0990
  547SOL    HW1 2186   0.301   0.033   0.081  0.6775 -0.9910  0.9581
  547SOL    HW2 2187   0.156   0.022   0.038  2.0987  0.8119 -0.0981
  547SOL     MW 2188   0.219   0.048   0.092  0.4441 -0.2353  0.1864
  548SOL     OW 2189   0.308   2.431   0.234  0.1119 -0.4133 -0.4028
  548SOL    HW1 2190   0.320   2.493   0.160  0.4388 -2.5045  0.9508
  548SOL    HW2 2191   0.210   2.407   0.228 -4.3196 -0.5633  0.3706
  548SOL     MW 2192   0.297   2.436   0.224 -0.4296 -0.7090 -0.1222
  549SOL     OW 2193   0.855   1.950   2.154  0.4000  0.1319 -0.7369
  549SOL    HW1 2194   0.814   2.004   2.081 -0.5273 -1.4301 -2.6900
  549SOL    HW2 2195   0.791   1.944   2.229 -0.2965  0.0068  3.6135
  549SOL     MW 2196   0.841   1.956   2.154  0.1858 -0.0907 -0.4206
  550SOL     OW 2197   1.869   1.755   2.542  0.7282  0.3736  0.1233
  550SOL    HW1 2198   1.846   1.781   2.448 -1.3671 -0.0431 -1.6546
  550SOL    HW2 2199   1.847   1.824   2.608  0.2852  1.0295  0.4026
  550SOL     MW 2200   1.863   1.767   2.538  0.3933  0.4052 -0.0744
  551SOL     OW 2201   0.867   2.223   0.259 -0.7336 -0.2260 -0.1328
  551SOL    HW1 2202   0.949   2.202   0.223  1.2077 -2.0276  2.3718
  551SOL    HW2 2203   0.817   2.177   0.193  3.6684 -0.8038  3.0552
  551SOL     MW 2204   0.871   2.214   0.246  0.1033 -0.5399  0.6183
  552SOL     OW 2205   1.759   1.784   2.259 -0.0312 -0.0013  0.2535
  552SOL    HW1 2206   1.673   1.745   2.281  1.4940 -6.5625  0.0729
  552SOL    HW2 2207   1.799   1.712   2.194  0.2092 -1.3653 -0.1560
  552SOL     MW 2208   1.753   1.769   2.253  0.2018 -1.0469  0.1756
  553SOL     OW 2209   1.183   2.271   1.539 -0.1720  0.8361  0.0329
  553SOL    HW1 2210   1.241   2.192   1.521  1.4522 -1.3369 -2.6799
  553SOL    HW2 2211   1.250   2.338   1.513  0.0421  2.3143 -0.6576
  553SOL     MW 2212   1.200   2.269   1.533  0.0705  0.7444 -0.4161
  554SOL     OW 2213   0.469   2.911   2.692 -0.2567 -0.0627 -0.1698
  554SOL    HW1 2214   0.457   2.984   2.630  2.5276  1.4774 -0.5281
  554SOL    HW2 2215   0.543   2.863   2.656 -0.9989  1.5220 -0.2450
  554SOL     MW 2216   0.477   2.915   2.679  0.0127  0.3496 -0.2270
  555SOL     OW 2217   0.605   2.451   2.577  0.2065 -0.3934 -0.2525
  555SOL    HW1 2218   0.545   2.380   2.601 -0.3962  0.6434  0.2678
  555SOL    HW2 2219   0.694   2.422   2.554 -1.2706  3.2066 -2.2175
  555SOL     MW 2220   0.609   2.438   2.577 -0.0679  0.2184 -0.4431
  556SOL     OW 2221   1.051   1.925   0.070 -0.8137 -0.0726 -0.2362
  556SOL    HW1 2222   1.069   1.863   0.003  0.2197  2.4945  1.3077
  556SOL    HW2 2223   1.127   1.911   0.132 -0.5868  0.6278 -0.4857
  556SOL     MW 2224   1.063   1.915   0.070 -0.6474  0.3585 -0.0654
  557SOL     OW 2225   1.033   2.720   0.464  0.0250  0.0891 -0.1062
  557SOL    HW1 2226   1.066   2.651   0.398 -2.4660  0.7514 -1.7527
  557SOL    HW2 2227   0.993   2.792   0.412 -0.5647 -2.8433 -0.2171
  557SOL     MW 2228   1.032   2.720   0.448 -0.3814 -0.2104 -0.3380
  558SOL     OW 2229   0.182   2.246   3.020 -0.2578 -0.1114 -0.0388
  558SOL    HW1 2230   0.110   2.223   2.965  1.0915  1.7569 -0.5452
  558SOL    HW2 2231   0.134   2.253   3.104 -1.3886  3.2207  1.4690
  558SOL     MW 2232   0.166   2.244   3.024 -0.2289  0.5747  0.0933
  559SOL     OW 2233   1.036   2.381   2.148 -0.6674 -0.3522 -1.0936
  559SOL    HW1 2234   1.131   2.396   2.146  1.8179 -0.1837 -0.2867
  559SOL    HW2 2235   1.026   2.306   2.208  0.3122 -1.3283 -1.0104
  559SOL     MW 2236   1.047   2.373   2.156 -0.2102 -0.4587 -0.9762
  560SOL     OW 2237   2.007   2.739   0.144  0.9941 -0.9170 -0.1808
  560SOL    HW1 2238   2.055   2.815   0.108 -0.4778 -0.3300  0.0170
  560SOL    HW2 2239   1.951   2.707   0.076 -0.9672  0.7368  1.4533
  560SOL     MW 2240   2.006   2.745   0.131  0.5411 -0.6214  0.0609
  561SOL     OW 2241   0.451   2.131   0.105  0.7222  0.0393  0.1699
  561SOL    HW1 2242   0.425   2.155   0.015  0.0977 -1.3042  1.5906
  561SOL    HW2 2243   0.488   2.206   0.160  2.5930  0.7130  0.3115
  561SOL     MW 2244   0.453   2.144   0.100  0.8866 -0.0491  0.3760
  562SOL     OW 2245   0.677   2.183   2.295 -0.1408  0.3716  0.3244
  562SOL    HW1 2246   0.663   2.269   2.272 -0.9896 -1.1262  2.3439
  562SOL    HW2 2247   0.775   2.164   2.299  2.8392 -1.4797  1.8359
  562SOL     MW 2248   0.688   2.192   2.292  0.1404 -0.0703  0.7903
  563SOL     OW 2249   1.225   0.407   0.546 -0.4036 -0.0919  0.5632
  563SOL    HW1 2250   1.189   0.366   0.464  2.0818 -0.3640 -0.0249
  563SOL    HW2 2251   1.169   0.385   0.627  3.3776  2.1511 -0.2570
  563SOL     MW 2252   1.213   0.399   0.546  0.4232  0.1682  0.3774
  564SOL     OW 2253   1.045   2.606   2.367  0.2004  0.6047  0.0019
  564SOL    HW1 2254   1.042   2.671   2.292 -2.5536 -0.9162  1.9414
  564SOL    HW2 2255   1.061   2.661   2.448 -2.1512  0.5715  2.6280
  564SOL     MW 2256   1.047   2.622   2.367 -0.4732  0.3997  0.6043
  565SOL     OW 2257   2.768   2.834   2.559 -0.0409 -0.0075  0.1621
  565SOL    HW1 2258   2.748   2.911   2.508  0.5726  0.0925 -0.1152
  565SOL    HW2 2259   2.731   2.758   2.523  2.2064  0.6260  1.0027
  565SOL     MW 2260   2.760   2.834   2.547  0.3365  0.0893  0.2364
  566SOL     OW 2261   2.185   1.939   2.307  0.0201  0.2107  0.2828
  566SOL    HW1 2262   2.202   1.923   2.215 -0.1750 -1.0206 -1.0296
  566SOL    HW2 2263   2.267   1.982   2.344  1.6031  2.6153  0.1455
  566SOL     MW 2264   2.198   1.943   2.300  0.2032  0.3655  0.0915
  567SOL     OW 2265   1.210   3.024  -0.001  0.0311  0.2371 -0.3295
  567SOL    HW1 2266   1.213   3.030   0.096  0.3104 -1.7406  2.0046
  567SOL    HW2 2267   1.249   2.941  -0.023  1.3656  0.6218  2.0865
  567SOL     MW 2268   1.216   3.014   0.009  0.2440  0.0269  0.2973
  568SOL     OW 2269   1.659   2.102   2.871  0.2464 -0.7367 -0.0338
  568SOL    HW1 2270   1.709   2.163   2.927  2.0994 -2.3239  1.3736
  568SOL    HW2 2271   1.726   2.036   2.856  1.4333  3.1208  0.6278
  568SOL     MW 2272   1.675   2.101   2.876  0.6475 -0.4372  0.2392
  569SOL     OW 2273   0.107   2.292   2.465 -0.1496 -0.0298  0.2276
  569SOL    HW1 2274   0.036   2.342   2.420  0.3185  0.8176 -2.2906
  569SOL    HW2 2275   0.172   2.352   2.506  1.0775 -1.5151  0.9044
  569SOL     MW 2276   0.106   2.306   2.464  0.0740 -0.1140 -0.0153
  570SOL     OW 2277   1.499   0.333   0.533  0.4455 -0.5193 -0.1825
  570SOL    HW1 2278   1.414   0.371   0.547 -0.2996 -2.3764 -0.0985
  570SOL    HW2 2279   1.565   0.368   0.593  0.2199 -1.1443 -0.3659
  570SOL     MW 2280   1.496   0.342   0.543  0.3174 -0.8468 -0.1956
  571SOL     OW 2281   1.342   2.363   2.129  0.2048  0.0854  0.0853
  571SOL    HW1 2282   1.410   2.401   2.180  0.4184 -3.3249  1.0563
  571SOL    HW2 2283   1.383   2.309   2.064  0.0645 -0.9714 -0.0889
  571SOL     MW 2284   1.356   2.361   2.128  0.2144 -0.5040  0.1904
  572SOL     OW 2285   1.024   2.562   0.074  0.3149 -0.0427  0.3775
  572SOL    HW1 2286   1.000   2.652   0.057  1.7775  3.2449 -1.2184
  572SOL    HW2 2287   0.935   2.514   0.083  0.5093 -1.2785  0.8406
  572SOL     MW 2288   1.009   2.567   0.073  0.5335  0.2280  0.2281
  573SOL     OW 2289   1.169   2.280   0.233 -0.1172 -0.5246 -0.0650
  573SOL    HW1 2290   1.244   2.310   0.179  0.2412  3.0662 -0.4680
  573SOL    HW2 2291   1.150   2.364   0.276 -2.9548 -0.7227 -1.3653
  573SOL     MW 2292   1.176   2.295   0.232 -0.4443 -0.0770 -0.2897
  574SOL     OW 2293   1.154   2.528   0.303 -0.8963 -0.0606 -0.3390
  574SOL    HW1 2294   1.225   2.589   0.290  3.5419 -0.9066  3.0980
  574SOL    HW2 2295   1.102   2.551   0.224  0.7161  2.7473  2.6437
  574SOL     MW 2296   1.157   2.539   0.291 -0.0980  0.1983  0.5080
  575SOL     OW 2297   3.058   2.201   1.663  0.1977  0.0280 -0.3016
  575SOL    HW1 2298   3.096   2.143   1.594  0.3074  0.6644 -0.3025
  575SOL    HW2 2299   3.134   2.236   1.712 -3.6581  2.4565 -0.2586
  575SOL     MW 2300   3.073   2.198   1.661 -0.2966  0.4324 -0.2961
  576SOL     OW 2301   2.826   1.850   2.008  0.3018  0.6842 -0.4179
  576SOL    HW1 2302   2.860   1.924   1.948  1.7794  1.5044 -1.4607
  576SOL    HW2 2303   2.738   1.834   1.966 -2.1447 -1.3946 -0.5794
  576SOL     MW 2304   2.819   1.857   1.994  0.1740  0.5182 -0.5768
  577SOL     OW 2305   2.118   0.234   0.023  0.2265 -0.1547 -0.3650
  577SOL    HW1 2306   2.059   0.228  -0.057  3.0525  0.9380  0.9063
  577SOL    HW2 2307   2.075   0.197   0.097  2.6859 -0.5430  0.7790
  577SOL     MW 2308   2.104   0.228   0.022  0.9238 -0.0618 -0.0463
  578SOL     OW 2309   1.991   2.108   2.408 -0.3256  0.1576  0.0115
  578SOL    HW1 2310   1.906   2.087   2.370 -1.0713  1.7667  1.5462
  578SOL    HW2 2311   2.054   2.048   2.362  0.5297  0.5816  3.0902
  578SOL     MW 2312   1.988   2.097   2.397 -0.3111  0.4258  0.6202
  579SOL     OW 2313   0.886   2.429   2.501 -0.9179  0.1762  0.1210
  579SOL    HW1 2314   0.935   2.353   2.550  1.0332  0.2511  0.0481
  579SOL    HW2 2315   0.943   2.480   2.439  1.3589 -0.3667 -0.6286
  579SOL     MW 2316   0.900   2.425   2.499 -0.3600  0.1144  0.0125
  580SOL     OW 2317   0.959   2.834   3.095 -0.0630 -0.4398  0.0705
  580SOL    HW1 2318   1.054   2.836   3.071 -0.0807  0.9860  0.4124
  580SOL    HW2 2319   0.915   2.789   3.021 -0.9165  0.1097  0.8547
  580SOL     MW 2320   0.966   2.829   3.082 -0.1779 -0.1792  0.2190
  581SOL     OW 2321   1.144   2.424   1.768  0.1167 -0.3224  0.7398
  581SOL    HW1 2322   1.214   2.467   1.814 -2.7321 -1.1085  0.2448
  581SOL    HW2 2323   1.188   2.368   1.700  3.4890  0.3950 -1.9944
  581SOL     MW 2324   1.159   2.422   1.765  0.1858 -0.3314  0.3137
  582SOL     OW 2325   0.015   2.869   2.722 -0.1910 -0.2831 -0.2967
  582SOL    HW1 2326  -0.048   2.947   2.728 -2.0236 -0.9461 -2.3223
  582SOL    HW2 2327   0.092   2.891   2.774 -0.1585  2.4273 -2.9982
  582SOL     MW 2328   0.016   2.882   2.729 -0.4285 -0.0129 -0.9204
  583SOL     OW 2329   1.988   2.427   2.687 -0.3684  0.1592  0.1836
  583SOL    HW1 2330   2.051   2.443   2.620  1.1099  1.4573 -0.7172
  583SOL    HW2 2331   1.986   2.332   2.694  1.0955  0.8556 -4.2975
  583SOL     MW 2332   1.996   2.416   2.679  0.0198  0.4223 -0.5265
  584SOL     OW 2333   0.110   1.902   2.198  0.5091  0.1257  0.4416
  584SOL    HW1 2334   0.136   1.853   2.281  0.8651 -0.4507 -0.6377
  584SOL    HW2 2335   0.155   1.989   2.212 -0.0326 -1.4330  1.7841
  584SOL     MW 2336   0.119   1.907   2.211  0.4846 -0.1560  0.4763
  585SOL     OW 2337   1.552   2.644   0.131 -0.2924  0.2812 -0.0920
  585SOL    HW1 2338   1.508   2.596   0.060  0.3295  2.6335  1.8068
  585SOL    HW2 2339   1.483   2.674   0.186 -1.0355  0.0674 -0.4443
  585SOL     MW 2340   1.537   2.642   0.129 -0.3084  0.5633  0.1121
  586SOL     OW 2341   1.333   2.807   2.583 -0.3407 -0.1348  0.7000
  586SOL    HW1 2342   1.383   2.780   2.495 -0.1591  0.3811 -2.1678
  586SOL    HW2 2343   1.356   2.900   2.592 -1.3763  2.2110 -0.2679
  586SOL     MW 2344   1.343   2.816   2.572 -0.4534  0.2428  0.1939
  587SOL     OW 2345   1.355   1.500   2.172  0.0210 -0.1172 -0.5105
  587SOL    HW1 2346   1.314   1.415   2.204 -1.9605  2.0463 -0.0053
  587SOL    HW2 2347   1.400   1.475   2.089 -1.1206 -0.4554 -1.9159
  587SOL     MW 2348   1.355   1.486   2.165 -0.3911  0.1237 -0.6293
  588SOL     OW 2349   1.384   1.980   2.629 -0.0750 -0.0679  0.1425
  588SOL    HW1 2350   1.379   1.886   2.658 -2.2378  1.0616 -0.5099
  588SOL    HW2 2351   1.364   2.034   2.705  0.2228  1.2113 -0.3805
  588SOL     MW 2352   1.381   1.975   2.643 -0.3211  0.2499 -0.0126
  589SOL     OW 2353   1.429   1.992   0.070  0.2901  0.3018  0.1885
  589SOL    HW1 2354   1.404   2.083   0.085 -0.5289 -0.9214  1.4973
  589SOL    HW2 2355   1.396   1.944   0.144  1.8514  0.8721 -1.0547
  589SOL     MW 2356   1.421   1.998   0.082  0.3880  0.2157  0.1971
  590SOL     OW 2357   0.507   2.670   2.158  0.4468 -0.4886  0.1337
  590SOL    HW1 2358   0.516   2.666   2.059  1.4077  1.9140  0.7041
  590SOL    HW2 2359   0.570   2.734   2.187 -1.7771  2.6157 -2.7480
  590SOL     MW 2360   0.517   2.678   2.148  0.2802  0.2380 -0.1712
  591SOL     OW 2361   2.246   0.666   0.102 -0.3235  0.4073  0.5051
  591SOL    HW1 2362   2.169   0.686   0.151  0.7384 -3.8784  0.7031
  591SOL    HW2 2363   2.233   0.717   0.024 -0.1871  1.2850 -0.3947
  591SOL     MW 2364   2.234   0.676   0.098 -0.1654 -0.0424  0.4125
  592SOL     OW 2365   1.693   2.970   0.811 -0.2186  0.3766  0.3984
  592SOL    HW1 2366   1.679   3.043   0.747  0.7119  3.0229  0.3653
  592SOL    HW2 2367   1.782   2.940   0.789  0.4881 -1.9392 -2.1328
  592SOL     MW 2368   1.703   2.976   0.799 -0.0026  0.4202  0.0601
  593SOL     OW 2369   1.997   0.711   0.773 -0.3206  0.3968 -0.0315
  593SOL    HW1 2370   1.907   0.700   0.737  0.8880 -1.4328 -0.3182
  593SOL    HW2 2371   2.039   0.628   0.755 -0.7317  0.9527  0.0644
  593SOL     MW 2372   1.991   0.699   0.766 -0.2154  0.2288 -0.0567
  594SOL     OW 2373   2.711   1.048   1.393 -0.0172 -0.7508  0.1721
  594SOL    HW1 2374   2.780   1.089   1.347 -3.6014  2.6630  0.0278
  594SOL    HW2 2375   2.637   1.062   1.330  1.0008  0.8923 -0.0946
  594SOL     MW 2376   2.710   1.055   1.378 -0.3558 -0.0836  0.1179
  595SOL     OW 2377   0.486   0.914   0.858  0.0820  0.0238 -0.1922
  595SOL    HW1 2378   0.484   0.982   0.790  2.7393 -0.8710  1.7922
  595SOL    HW2 2379   0.481   0.967   0.945  2.4589 -0.2185  0.1794
  595SOL     MW 2380   0.485   0.930   0.860  0.7462 -0.1262  0.1186
  596SOL     OW 2381   2.459   1.346   0.524  0.0182  0.0764 -0.1134
  596SOL    HW1 2382   2.525   1.408   0.496 -0.0617 -1.7016 -1.6420
  596SOL    HW2 2383   2.486   1.299   0.604  0.8240  1.3399  1.6653
  596SOL     MW 2384   2.472   1.348   0.531  0.1139  0.0085 -0.0804
  597SOL     OW 2385   2.214   0.633   1.566 -0.0982 -0.0673 -0.4185
  597SOL    HW1 2386   2.257   0.577   1.632 -3.9029  0.9764 -1.2644
  597SOL    HW2 2387   2.139   0.573   1.526 -1.1378 -2.2631  0.5968
  597SOL     MW 2388   2.210   0.618   1.570 -0.7374 -0.2193 -0.3961
  598SOL     OW 2389   2.594   1.058   2.862  0.0909  0.1923  0.3816
  598SOL    HW1 2390   2.610   0.980   2.809 -2.3877  1.4326 -0.1276
  598SOL    HW2 2391   2.682   1.108   2.855  2.6287 -3.0237 -2.3192
  598SOL     MW 2392   2.608   1.054   2.854  0.0987 -0.0684 -0.0419
  599SOL     OW 2393   3.051   0.419   2.224  0.9193 -0.6358  0.9457
  599SOL    HW1 2394   3.097   0.426   2.299 -2.4560  1.5037  0.0376
  599SOL    HW2 2395   3.058   0.510   2.189  0.7741 -0.4179  1.0630
  599SOL     MW 2396   3.058   0.432   2.229  0.4548 -0.3247  0.8413
  600SOL     OW 2397   1.850   1.662   0.850 -0.0073  0.5423 -0.6871
  600SOL    HW1 2398   1.894   1.690   0.932 -0.2475 -1.3463 -1.2952
  600SOL    HW2 2399   1.775   1.718   0.835 -0.1659 -0.9594 -0.3019
  600SOL     MW 2400   1.846   1.673   0.859 -0.0599  0.0950 -0.7165
  601SOL     OW 2401   2.544   0.718   0.815  0.0729  0.2091 -0.0816
  601SOL    HW1 2402   2.527   0.721   0.909 -0.3184  1.3839 -1.2709
  601SOL    HW2 2403   2.496   0.634   0.789 -0.3967 -2.0727  1.4065
  601SOL     MW 2404   2.536   0.708   0.824 -0.0407  0.0630 -0.0422
  602SOL     OW 2405   2.298   1.903   0.742 -0.3544 -0.7831 -0.2266
  602SOL    HW1 2406   2.218   1.842   0.727 -0.3345  0.8200 -0.9205
  602SOL    HW2 2407   2.240   1.983   0.758 -1.1641 -1.1993 -0.8902
  602SOL     MW 2408   2.280   1.905   0.742 -0.4586 -0.6265 -0.4057
  603SOL     OW 2409   2.963   1.376   1.984  0.1387 -0.0052  0.2953
  603SOL    HW1 2410   2.925   1.414   2.066 -2.2341  3.2684 -0.8516
  603SOL    HW2 2411   3.012   1.289   1.999 -0.8477 -3.8377 -1.8993
  603SOL     MW 2412   2.965   1.370   1.997 -0.3045 -0.0789 -0.1455
  604SOL     OW 2413   2.027   1.385   0.409  0.2478  0.2313 -0.4280
  604SOL    HW1 2414   2.092   1.343   0.470 -1.2308 -2.1886  2.3766
  604SOL    HW2 2415   1.963   1.427   0.470  0.2248  1.5421  0.4398
  604SOL     MW 2416   2.027   1.385   0.425  0.0497  0.0850  0.0565
  605SOL     OW 2417   2.428   1.467   0.844 -0.4095 -0.0785  0.5832
  605SOL    HW1 2418   2.429   1.532   0.770  1.3168  1.8072  1.0619
  605SOL    HW2 2419   2.437   1.382   0.802 -0.2128 -1.0569 -0.8769
  605SOL     MW 2420   2.429   1.464   0.829 -0.1557  0.0412  0.4537
  606SOL     OW 2421   2.613   1.802   1.862  0.0241 -0.3150 -0.6963
  606SOL    HW1 2422   2.527   1.760   1.894 -0.3806 -2.1801 -2.0484
  606SOL    HW2 2423   2.625   1.744   1.795  1.6580  1.1443  1.5634
  606SOL     MW 2424   2.603   1.789   1.858  0.1863 -0.3685 -0.5766
  607SOL     OW 2425   2.399   1.014   3.068 -0.5040 -0.4457 -0.1335
  607SOL    HW1 2426   2.470   1.056   3.017  0.5638 -0.8309  0.9229
  607SOL    HW2 2427   2.436   1.000   3.152  0.4912  2.5068 -0.4351
  607SOL     MW 2428   2.413   1.018   3.072 -0.2318 -0.1070 -0.0339
  608SOL     OW 2429   1.863   0.204   0.533  0.3310 -0.0028  0.0165
  608SOL    HW1 2430   1.861   0.239   0.446 -2.0395 -1.2633  1.3720
  608SOL    HW2 2431   1.800   0.121   0.546  0.5063 -2.2295 -1.1552
  608SOL     MW 2432   1.855   0.198   0.523  0.0414 -0.4629  0.0408
  609SOL     OW 2433   2.131   1.891   3.085  0.2819  0.0018  0.1075
  609SOL    HW1 2434   2.055   1.847   3.045 -0.6184 -1.7240 -0.8450
  609SOL    HW2 2435   2.109   1.887   3.176 -3.3497 -0.0674 -1.2393
  609SOL     MW 2436   2.118   1.884   3.092 -0.3160 -0.2350 -0.1958
  610SOL     OW 2437   1.815   0.910   1.227  0.3722  0.0926 -0.3758
  610SOL    HW1 2438   1.867   0.849   1.170  0.5204 -1.6724  2.6660
  610SOL    HW2 2439   1.721   0.902   1.206 -0.3788  1.5048 -1.5071
  610SOL     MW 2440   1.810   0.901   1.217  0.2927  0.0460 -0.1238
  611SOL     OW 2441   2.501   1.636   0.628 -0.1079  0.3899 -0.4568
  611SOL    HW1 2442   2.572   1.613   0.568  0.0735 -1.1595  0.7839
  611SOL    HW2 2443   2.420   1.629   0.586 -1.9967  0.4478  0.5555
  611SOL     MW 2444   2.500   1.632   0.615 -0.3332  0.1931 -0.1595
  612SOL     OW 2445   2.946   2.972   0.317 -0.2413  0.1386  0.1446
  612SOL    HW1 2446   2.958   2.980   0.406 -0.8656 -1.0990 -1.0497
  612SOL    HW2 2447   3.006   2.901   0.295 -3.6444  1.2489  0.7674
  612SOL     MW 2448   2.955   2.964   0.326 -0.7727  0.1218  0.0692
  613SOL     OW 2449   1.515   1.156   1.011 -0.3479  0.0222  0.1024
  613SOL    HW1 2450   1.512   1.243   1.046 -0.8188  1.2634  0.0445
  613SOL    HW2 2451   1.528   1.106   1.089 -0.8372  1.3257 -0.6802
  613SOL     MW 2452   1.516   1.160   1.026 -0.4746  0.3579 -0.0085
  614SOL     OW 2453   2.015   0.480   1.394 -0.1147  0.0421  0.1034
  614SOL    HW1 2454   2.001   0.428   1.473 -0.6556  0.9556  2.6420
  614SOL    HW2 2455   1.930   0.519   1.363  0.3001 -2.4209 -1.1466
  614SOL     MW 2456   2.002   0.478   1.400 -0.1314 -0.1623  0.2734
  615SOL     OW 2457   2.408   0.715   0.322  0.1342 -0.2554  0.1119
  615SOL    HW1 2458   2.483   0.655   0.323 -2.2659 -0.8975 -3.8764
  615SOL    HW2 2459   2.368   0.702   0.228 -1.8213 -0.9447 -1.9629
  615SOL     MW 2460   2.413   0.706   0.309 -0.4405 -0.4311 -0.6880
  616SOL     OW 2461   2.530   0.406   1.612  0.6265 -0.4380  0.2916
  616SOL    HW1 2462   2.578   0.347   1.557 -0.8951  0.4656 -1.5629
  616SOL    HW2 2463   2.520   0.480   1.547  0.2646 -0.9811 -0.0564
  616SOL     MW 2464   2.535   0.408   1.597  0.3780 -0.3904  0.0010
  617SOL     OW 2465   2.891   0.549   1.860  0.5490 -0.2680 -0.3053
  617SOL    HW1 2466   2.820   0.552   1.922  0.5298 -0.6519  0.1944
  617SOL    HW2 2467   2.897   0.462   1.827 -3.2458  0.5227  0.4984
  617SOL     MW 2468   2.882   0.538   1.864  0.0458 -0.2143 -0.1333
  618SOL     OW 2469   2.763   0.259   1.995 -0.0133 -0.4134  0.0155
  618SOL    HW1 2470   2.718   0.310   2.068  0.4227 -1.0430  1.1635
  618SOL    HW2 2471   2.853   0.266   2.010 -0.1898 -0.6300  0.8096
  618SOL     MW 2472   2.769   0.266   2.006  0.0209 -0.5250  0.2717
  619SOL     OW 2473   2.686   0.733   0.080  0.3894  0.0596  0.4319
  619SOL    HW1 2474   2.728   0.817   0.080  1.1026 -1.8767  0.2714
  619SOL    HW2 2475   2.718   0.695   0.159  1.8624 -0.4685 -2.1906
  619SOL     MW 2476   2.696   0.739   0.091  0.6779 -0.2655  0.0647
  620SOL     OW 2477   2.213   1.059   0.913  0.2882 -0.1102 -0.0154
  620SOL    HW1 2478   2.299   1.021   0.897  0.0067 -0.7610 -3.3364
  620SOL    HW2 2479   2.154   1.006   0.855 -3.8380  0.0211  2.5539
  620SOL     MW 2480   2.217   1.047   0.904 -0.2934 -0.1787 -0.1146
  621SOL     OW 2481   1.472   2.199   1.963  0.2387 -0.1129  0.0798
  621SOL    HW1 2482   1.433   2.109   1.966 -1.5118 -0.4065  0.1247
  621SOL    HW2 2483   1.570   2.197   1.984  2.5163 -0.5940 -1.6076
  621SOL     MW 2484   1.480   2.187   1.966  0.3083 -0.2151 -0.1369
  622SOL     OW 2485   2.652   0.233   0.271 -0.1602 -0.1502 -0.3649
  622SOL    HW1 2486   2.745   0.267   0.256  2.2774  0.0864 -0.5492
  622SOL    HW2 2487   2.657   0.137   0.274 -0.1484  1.1770  2.4540
  622SOL     MW 2488   2.665   0.225   0.270  0.1630  0.0562 -0.0173
  623SOL     OW 2489   2.392   2.752   0.884  0.0640 -0.3367 -0.5566
  623SOL    HW1 2490   2.454   2.823   0.882  0.9156  1.8027 -0.6132
  623SOL    HW2 2491   2.343   2.767   0.973 -0.7337 -0.5323  0.0133
  623SOL     MW 2492   2.394   2.764   0.895  0.0711 -0.0803 -0.4888
  624SOL     OW 2493   2.153   1.551   3.053 -0.4209 -0.5781  0.4530
  624SOL    HW1 2494   2.065   1.508   3.068 -0.7932  0.3634 -0.1836
  624SOL    HW2 2495   2.126   1.632   3.005 -1.4775  1.9220 -2.1892
  624SOL     MW 2496   2.138   1.556   3.049 -0.6095 -0.1240  0.0204
  625SOL     OW 2497   2.216   1.886   1.025 -0.2730 -0.7022 -0.5115
  625SOL    HW1 2498   2.259   1.821   1.080  1.3681  2.6656  0.1415
  625SOL    HW2 2499   2.241   1.862   0.937 -0.7730  1.4250 -1.4039
  625SOL     MW 2500   2.225   1.874   1.020 -0.1224  0.0228 -0.5431
  626SOL     OW 2501   0.138   1.809   2.457  0.4977  0.6823  0.3641
  626SOL    HW1 2502   0.102   1.731   2.490 -0.5992  1.6322 -2.1294
  626SOL    HW2 2503   0.073   1.874   2.471  0.3656  0.4180 -2.7120
  626SOL     MW 2504   0.124   1.808   2.463  0.3355  0.7728 -0.3707
  627SOL     OW 2505   2.531   0.846   2.551  0.4644  0.3043  0.0346
  627SOL    HW1 2506   2.438   0.847   2.541  1.8304  0.7605 -0.0469
  627SOL    HW2 2507   2.558   0.781   2.486  0.2953  0.6049 -0.6659
  627SOL     MW 2508   2.522   0.837   2.541  0.6223  0.4042 -0.0686
  628SOL     OW 2509   2.301   1.354   1.309  0.4982  0.1745 -0.1227
  628SOL    HW1 2510   2.271   1.290   1.246  1.0955  1.7340  2.6732
  628SOL    HW2 2511   2.387   1.387   1.285  1.3315 -1.6615 -0.1665
  628SOL     MW 2512   2.308   1.350   1.297  0.6869  0.1380  0.2405
  629SOL     OW 2513   1.779   0.579   1.315  0.4462  0.3001  0.1049
  629SOL    HW1 2514   1.814   0.604   1.227  0.8474  0.6706 -0.8505
  629SOL    HW2 2515   1.686   0.550   1.302  1.6328 -0.2723  1.5739
  629SOL     MW 2516   1.771   0.579   1.301  0.6557  0.2735  0.1727
  630SOL     OW 2517   2.430   1.889   3.041  0.1636  0.1127  0.3616
  630SOL    HW1 2518   2.443   1.981   3.003  2.2716 -0.2863  3.7896
  630SOL    HW2 2519   2.336   1.865   3.038  1.6121  0.6759  2.1310
  630SOL     MW 2520   2.419   1.898   3.035  0.6328  0.1344  1.0473
  631SOL     OW 2521   2.114   1.771   1.505 -0.1666  0.2496  0.2291
  631SOL    HW1 2522   2.078   1.697   1.549  1.0225 -1.2107 -0.3335
  631SOL    HW2 2523   2.040   1.832   1.489  0.1265  1.5168 -5.0748
  631SOL     MW 2524   2.100   1.769   1.508  0.0290  0.2241 -0.5449
  632SOL     OW 2525   0.299   1.892   1.548  0.3340 -0.4967  0.3173
  632SOL    HW1 2526   0.203   1.896   1.556  4.4387  0.2017 -1.3063
  632SOL    HW2 2527   0.303   1.806   1.508 -0.7778  2.3998  0.1477
  632SOL     MW 2528   0.287   1.881   1.544  0.7289 -0.0224  0.0807
  633SOL     OW 2529   2.617   0.540   0.405 -0.3624 -0.1224  0.1175
  633SOL    HW1 2530   2.671   0.553   0.483 -0.4291  0.6016  1.4620
  633SOL    HW2 2531   2.631   0.453   0.373 -0.7755  2.5966  0.8582
  633SOL     MW 2532   2.626   0.530   0.411 -0.4257  0.3319  0.3926
  634SOL     OW 2533   2.620  -0.001   0.647 -0.1390  0.1916 -0.1735
  634SOL    HW1 2534   2.653   0.090   0.628  0.8722  0.4095 -0.6946
  634SOL    HW2 2535   2.596  -0.035   0.561 -2.0057 -0.9710  1.3228
  634SOL     MW 2536   2.621   0.007   0.633 -0.2519  0.0669 -0.0449
  635SOL     OW 2537   2.632   0.049   1.886  0.1025  0.2764 -0.8113
  635SOL    HW1 2538   2.674   0.011   1.806 -0.7556 -0.7406  2.8723
  635SOL    HW2 2539   2.682   0.125   1.916 -0.8124 -0.5026 -1.3216
  635SOL     MW 2540   2.644   0.054   1.879 -0.1314  0.0394 -0.3926
  636SOL     OW 2541   2.721   1.700   0.796 -0.2315  0.4749 -0.6135
  636SOL    HW1 2542   2.629   1.691   0.764 -0.4075  0.3207 -1.7697
  636SOL    HW2 2543   2.713   1.776   0.851 -0.1876 -0.4381  2.5558
  636SOL     MW 2544   2.708   1.709   0.799 -0.2489  0.3341 -0.3479
  637SOL     OW 2545   2.861   1.509   0.658 -0.0939  0.3603 -0.1114
  637SOL    HW1 2546   2.927   1.567   0.613  1.0489 -0.3709  0.9538
  637SOL    HW2 2547   2.812   1.570   0.717  0.0303  1.5589  2.0363
  637SOL     MW 2548   2.863   1.525   0.660  0.0733  0.4220  0.3125
  638SOL     OW 2549   2.790   0.511   0.618 -0.0901  0.6257 -0.1478
  638SOL    HW1 2550   2.860   0.571   0.585 -0.2513 -1.5424  1.1671
  638SOL    HW2 2551   2.796   0.531   0.709  0.5326  1.3615 -1.1820
  638SOL     MW 2552   2.800   0.521   0.626 -0.0292  0.4367 -0.1108
  639SOL     OW 2553   1.704   3.074   0.552 -0.6814  0.5563 -0.4440
  639SOL    HW1 2554   1.610   3.086   0.533 -1.8919 -3.4220  0.0483
  639SOL    HW2 2555   1.729   2.986   0.530  1.6912 -1.7239 -1.4415
  639SOL     MW 2556   1.695   3.064   0.546 -0.5281 -0.2694 -0.5107
  640SOL     OW 2557   0.304   1.371   0.109 -0.2338 -0.1888  0.6187
  640SOL    HW1 2558   0.321   1.341   0.016  1.3801 -0.1109 -2.1474
  640SOL    HW2 2559   0.313   1.291   0.160 -2.5692  2.3385 -0.1323
  640SOL     MW 2560   0.307   1.356   0.103 -0.3290  0.1549  0.1546
  641SOL     OW 2561   2.159   0.339   0.403  0.9715 -0.6819  0.3503
  641SOL    HW1 2562   2.250   0.317   0.373  0.7915 -1.9459 -2.7806
  641SOL    HW2 2563   2.156   0.296   0.486  5.1713  1.1153 -0.4455
  641SOL     MW 2564   2.171   0.330   0.410  1.5019 -0.6116 -0.1678
  642SOL     OW 2565   0.043   0.051   0.566 -0.1465  0.5485 -0.4612
  642SOL    HW1 2566   0.014   0.145   0.542  0.7615 -1.2221  2.3840
  642SOL    HW2 2567  -0.036   0.025   0.611 -0.7562 -0.0135 -0.8062
  642SOL     MW 2568   0.029   0.060   0.568 -0.1071  0.2407 -0.1313
  643SOL     OW 2569   2.070   0.310   1.656  0.1638  0.1449 -0.3865
  643SOL    HW1 2570   2.002   0.270   1.711  0.1995 -1.7895 -0.0427
  643SOL    HW2 2571   2.094   0.250   1.586  0.5669  0.6770 -2.7086
  643SOL     MW 2572   2.064   0.297   1.654  0.2217 -0.0401 -0.6475
  644SOL     OW 2573   2.678   1.905   1.002 -0.2591  0.3479 -0.6225
  644SOL    HW1 2574   2.679   1.827   1.062  0.1035 -0.0037 -0.1316
  644SOL    HW2 2575   2.590   1.908   0.963  1.0507 -1.6262  1.0817
  644SOL     MW 2576   2.667   1.895   1.005 -0.0385  0.0411 -0.3329
  645SOL     OW 2577   2.762   0.868   0.714 -0.1096  0.4379  0.0569
  645SOL    HW1 2578   2.846   0.843   0.742 -2.2422  0.1818  1.7587
  645SOL    HW2 2579   2.704   0.793   0.744  2.2361  1.3995  1.1404
  645SOL     MW 2580   2.765   0.855   0.722 -0.0815  0.5310  0.4244
  646SOL     OW 2581   0.179   2.244   0.842  0.1060 -0.0185  0.5282
  646SOL    HW1 2582   0.201   2.146   0.840 -1.1605 -0.8711  2.0988
  646SOL    HW2 2583   0.125   2.256   0.761  0.8718 -1.4291 -0.0267
  646SOL     MW 2584   0.174   2.233   0.831  0.0399 -0.3171  0.6622
  647SOL     OW 2585   2.738   0.504   3.024  0.4572  0.0913 -0.2719
  647SOL    HW1 2586   2.667   0.436   3.025 -2.0959 -0.9010  0.6262
  647SOL    HW2 2587   2.718   0.578   3.085 -0.0085  0.9042  2.8270
  647SOL     MW 2588   2.726   0.504   3.033  0.0589  0.0676  0.2555
  648SOL     OW 2589   2.257   0.669   1.116  0.1165 -0.1939  0.3115
  648SOL    HW1 2590   2.279   0.590   1.163 -0.3718  2.7682 -0.6853
  648SOL    HW2 2591   2.254   0.742   1.178 -3.5591 -1.5200  0.2057
  648SOL     MW 2592   2.260   0.669   1.130 -0.4329  0.0219  0.1660
  649SOL     OW 2593   2.448   2.710   1.249 -0.1715  0.1875  0.2009
  649SOL    HW1 2594   2.529   2.764   1.259 -0.6539 -0.6800  1.0478
  649SOL    HW2 2595   2.476   2.620   1.229  1.5235  3.5459 -1.8955
  649SOL     MW 2596   2.462   2.705   1.247 -0.0115  0.5161  0.0360
  650SOL     OW 2597   2.781   0.229   0.607  0.0403 -0.0756 -0.7405
  650SOL    HW1 2598   2.824   0.315   0.615 -0.0003 -0.2299 -3.4022
  650SOL    HW2 2599   2.824   0.185   0.533  0.8255 -1.2753  0.7354
  650SOL     MW 2600   2.792   0.234   0.598  0.1385 -0.2542 -0.8969
  651SOL     OW 2601   3.085   0.456   1.006  0.4928  0.0700  0.2592
  651SOL    HW1 2602   3.139   0.499   0.932  2.2714 -0.7024  0.9589
  651SOL    HW2 2603   3.016   0.515   1.033 -1.7554 -0.9565  0.8789
  651SOL     MW 2604   3.083   0.470   1.000  0.4308 -0.1674  0.4333
  652SOL     OW 2605   2.390   1.418   3.003  0.6064 -0.0360 -0.2026
  652SOL    HW1 2606   2.465   1.450   2.949  0.4950 -0.0875 -0.4013
  652SOL    HW2 2607   2.332   1.493   3.018  2.1018 -0.2843  1.9702
  652SOL     MW 2608   2.392   1.432   2.998  0.7890 -0.0756  0.0579
  653SOL     OW 2609   1.857   0.344   0.272 -0.3262 -0.3415  0.1479
  653SOL    HW1 2610   1.836   0.270   0.209  1.3154 -0.5640 -0.8523
  653SOL    HW2 2611   1.945   0.371   0.248  0.2721 -0.1665 -0.3100
  653SOL     MW 2612   1.865   0.338   0.261 -0.0306 -0.3478 -0.0445
  654SOL     OW 2613   2.452   0.970   0.772 -0.9645  0.2826  0.3215
  654SOL    HW1 2614   2.382   0.971   0.703  0.9788 -0.3206 -0.8586
  654SOL    HW2 2615   2.489   0.883   0.777 -0.3247 -2.1436 -1.3319
  654SOL     MW 2616   2.448   0.959   0.763 -0.6237 -0.1171 -0.0524
  655SOL     OW 2617   2.918   0.930   0.403 -0.5895 -0.0202 -0.7228
  655SOL    HW1 2618   2.886   0.989   0.474 -1.9117  0.9789 -0.3775
  655SOL    HW2 2619   2.934   0.843   0.445  0.0123 -0.1147  0.7023
  655SOL     MW 2620   2.916   0.926   0.418 -0.6846  0.0992 -0.4892
  656SOL     OW 2621   1.827   2.660   1.405  0.1312  0.1445 -0.1075
  656SOL    HW1 2622   1.846   2.750   1.373 -0.4388  0.8181  1.7569
  656SOL    HW2 2623   1.894   2.603   1.371  1.0705  0.9332 -0.0789
  656SOL     MW 2624   1.839   2.665   1.396  0.1800  0.3375  0.1423
  657SOL     OW 2625   0.065   1.811   1.218 -0.2361  0.3733 -0.7325
  657SOL    HW1 2626   0.155   1.820   1.182  1.2965  0.8298  0.2314
  657SOL    HW2 2627   0.069   1.779   1.307  0.5279 -3.8072 -0.8019
  657SOL     MW 2628   0.077   1.808   1.225  0.0669 -0.1180 -0.6145
  658SOL     OW 2629   2.736   1.356   0.245 -0.1815 -0.1729 -0.2073
  658SOL    HW1 2630   2.708   1.275   0.299 -0.3782 -1.5284  1.5030
  658SOL    HW2 2631   2.738   1.431   0.303  0.7028 -1.9860 -1.5989
  658SOL     MW 2632   2.732   1.356   0.260 -0.0908 -0.5910 -0.1652
  659SOL     OW 2633   2.178   1.480   1.024 -0.2580 -0.6197 -0.2517
  659SOL    HW1 2634   2.253   1.423   1.044 -0.5869  1.6758 -1.6583
  659SOL    HW2 2635   2.143   1.513   1.108 -1.5080  0.1827  1.8750
  659SOL     MW 2636   2.183   1.476   1.038 -0.4663 -0.2110 -0.1567
  660SOL     OW 2637   2.078   1.506   1.665  0.6134  0.7165 -0.2259
  660SOL    HW1 2638   2.101   1.527   1.757  0.5767  0.1488  2.0986
  660SOL    HW2 2639   1.993   1.459   1.659  0.5193  0.1246 -3.1921
  660SOL     MW 2640   2.070   1.502   1.676  0.5961  0.5635 -0.3106
  661SOL     OW 2641   2.409   0.978   0.249  0.5136 -0.0409  0.4867
  661SOL    HW1 2642   2.491   1.031   0.266 -0.9049 -1.1583  0.7791
  661SOL    HW2 2643   2.434   0.882   0.278  0.0968 -1.8493 -2.5005
  661SOL     MW 2644   2.423   0.972   0.255  0.2714 -0.4270  0.1311
  662SOL     OW 2645   2.580   2.971   0.879 -0.2985 -0.2664 -0.1374
  662SOL    HW1 2646   2.515   3.030   0.929  0.5162  1.6906 -1.1966
  662SOL    HW2 2647   2.593   3.014   0.788 -0.6286 -0.6691 -1.3308
  662SOL     MW 2648   2.573   2.984   0.873 -0.2345 -0.0613 -0.4346
  663SOL     OW 2649   2.698   1.529   0.448  0.5431  1.2192 -0.0695
  663SOL    HW1 2650   2.732   1.596   0.391 -2.1339 -0.5557  1.4333
  663SOL    HW2 2651   2.753   1.531   0.529  0.0821 -0.4489 -2.8157
  663SOL     MW 2652   2.710   1.538   0.451  0.1291  0.7650 -0.2335
  664SOL     OW 2653   2.535   1.489   1.527 -0.4264 -0.3765 -0.3267
  664SOL    HW1 2654   2.509   1.566   1.481  1.7763  0.0733  0.6533
  664SOL    HW2 2655   2.468   1.425   1.562  0.0562 -1.5529 -0.6040
  664SOL     MW 2656   2.523   1.490   1.525 -0.0721 -0.4724 -0.2340
  665SOL     OW 2657   2.854   0.821   2.108  0.2187  0.3869  0.4223
  665SOL    HW1 2658   2.831   0.834   2.014  0.8842 -0.5279 -0.5057
  665SOL    HW2 2659   2.939   0.777   2.108 -0.9572 -0.0574 -1.3872
  665SOL     MW 2660   2.862   0.817   2.095  0.1514  0.2076  0.0611
  666SOL     OW 2661   2.760   3.020   1.677  0.0588  0.1574  0.1466
  666SOL    HW1 2662   2.787   3.023   1.586 -0.2393  0.3470  0.1607
  666SOL    HW2 2663   2.700   2.947   1.691  1.8619 -2.2124  1.1756
  666SOL     MW 2664   2.755   3.011   1.667  0.2574 -0.1303  0.2842
  667SOL     OW 2665   1.977   2.718   1.721 -0.0614  0.6775  0.1438
  667SOL    HW1 2666   2.022   2.660   1.785  0.5793 -1.2064 -1.2622
  667SOL    HW2 2667   2.039   2.790   1.713 -2.6807  1.4017  2.8632
  667SOL     MW 2668   1.991   2.720   1.728 -0.3224  0.5245  0.3171
  668SOL     OW 2669   2.777   0.569   0.882  0.4454 -0.2818  0.6705
  668SOL    HW1 2670   2.817   0.577   0.977 -0.0331  0.1658  1.7710
  668SOL    HW2 2671   2.699   0.621   0.884  3.7969 -0.3603 -0.7678
  668SOL     MW 2672   2.772   0.577   0.895  0.8245 -0.2331  0.6259
  669SOL     OW 2673   0.211   0.990   0.727  0.3562  0.7110  0.1708
  669SOL    HW1 2674   0.156   1.022   0.800  0.4772 -2.3173 -1.0936
  669SOL    HW2 2675   0.286   1.046   0.702  0.1385 -1.3203 -1.4527
  669SOL     MW 2676   0.214   1.002   0.734  0.3434  0.0434 -0.2102
  670SOL     OW 2677   2.913   0.344   0.215 -0.1835  0.0004  0.6703
  670SOL    HW1 2678   2.924   0.291   0.132 -3.3546 -0.9075 -0.8112
  670SOL    HW2 2679   2.945   0.432   0.204 -1.5899 -0.8068  1.1688
  670SOL     MW 2680   2.919   0.349   0.203 -0.7874 -0.2259  0.5406
  671SOL     OW 2681   2.002   3.012   1.531 -0.5113  0.2698 -0.2266
  671SOL    HW1 2682   1.946   2.972   1.463  0.1327  1.8779 -0.7933
  671SOL    HW2 2683   1.946   3.032   1.609  3.3107  1.3082  1.2280
  671SOL     MW 2684   1.987   3.009   1.532  0.0779  0.6190 -0.1094
  672SOL     OW 2685   1.828   1.732   1.305  0.0583  0.2293 -0.0860
  672SOL    HW1 2686   1.835   1.817   1.354 -2.0681 -2.6232 -0.6969
  672SOL    HW2 2687   1.866   1.745   1.216 -0.0776  0.1634  1.4736
  672SOL     MW 2688   1.834   1.745   1.300 -0.2402 -0.1558  0.0392
  673SOL     OW 2689   2.780   1.101   0.560  0.2726 -0.9344  0.1585
  673SOL    HW1 2690   2.768   1.035   0.622  0.5322  1.7138 -2.0106
  673SOL    HW2 2691   2.845   1.163   0.595 -0.0058  2.2646 -1.5637
  673SOL     MW 2692   2.787   1.100   0.572  0.2701 -0.1629 -0.3549
  674SOL     OW 2693   2.498   3.100   1.221  0.6564 -0.6121  0.7077
  674SOL    HW1 2694   2.444   3.108   1.146  1.9218  0.0658  2.1657
  674SOL    HW2 2695   2.522   3.007   1.237  1.6883 -2.2224  0.7365
  674SOL     MW 2696   2.494   3.089   1.213  0.9595 -0.7351  0.9039
  675SOL     OW 2697   2.997   0.902   1.076  0.4235 -0.1028  0.8436
  675SOL    HW1 2698   3.076   0.882   1.130  1.5239  0.2774  0.1504
  675SOL    HW2 2699   3.033   0.955   1.006  4.9796  0.1090  2.2694
  675SOL     MW 2700   3.012   0.907   1.074  1.1698 -0.0247  0.9403
  676SOL     OW 2701   2.912   1.461   1.708 -0.3397  0.2349 -0.4138
  676SOL    HW1 2702   2.884   1.384   1.659  0.3149  3.2387 -0.4543
  676SOL    HW2 2703   2.924   1.437   1.808  0.7800  2.1644  2.0009
  676SOL     MW 2704   2.910   1.447   1.715 -0.1056  0.8858 -0.1006
  677SOL     OW 2705   2.411   0.573   1.998  0.5371 -0.3883 -0.3046
  677SOL    HW1 2706   2.361   0.510   1.943 -1.7538  0.7601 -4.1150
  677SOL    HW2 2707   2.369   0.658   1.964  2.7459 -0.6133 -2.4913
  677SOL     MW 2708   2.399   0.576   1.986  0.5263 -0.2665 -1.0959
  678SOL     OW 2709   2.386   1.642   0.292 -0.7880 -0.3037  0.6751
  678SOL    HW1 2710   2.295   1.625   0.308 -0.9165  1.1577  1.9286
  678SOL    HW2 2711   2.411   1.553   0.256  1.6823 -0.8453  3.0511
  678SOL     MW 2712   2.377   1.628   0.289 -0.4790 -0.1824  1.1540
  679SOL     OW 2713   2.249   0.419   1.258  0.5646  0.1212  0.4659
  679SOL    HW1 2714   2.272   0.339   1.211 -1.1124  1.4289 -1.1525
  679SOL    HW2 2715   2.158   0.411   1.290  2.1595  0.8489 -2.3076
  679SOL     MW 2716   2.240   0.408   1.256  0.5538  0.3897 -0.1136
  680SOL     OW 2717   2.407   0.105   1.488  0.2083 -0.2509  0.6296
  680SOL    HW1 2718   2.336   0.136   1.436  0.9264  2.4531 -2.4047
  680SOL    HW2 2719   2.441   0.024   1.443  2.5355  1.1747 -0.5822
  680SOL     MW 2720   2.402   0.099   1.475  0.6101  0.2940  0.0693
  681SOL     OW 2721   0.253   0.592   1.496  0.4596  0.1698 -0.2718
  681SOL    HW1 2722   0.309   0.536   1.558  1.8604  1.4115  0.3496
  681SOL    HW2 2723   0.202   0.534   1.441 -1.7025 -0.9071  0.3475
  681SOL     MW 2724   0.254   0.577   1.497  0.3591  0.1915 -0.1081
  682SOL     OW 2725   0.075   2.905   1.535 -0.1948 -0.7242  0.3899
  682SOL    HW1 2726   0.152   2.950   1.551 -0.1339 -3.8648  0.0455
  682SOL    HW2 2727   0.013   2.923   1.604  1.0022 -0.7183  1.1751
  682SOL     MW 2728   0.077   2.913   1.546 -0.0288 -1.1378  0.4481
  683SOL     OW 2729   2.066   0.826   2.999  0.4153 -0.5409  0.0011
  683SOL    HW1 2730   2.013   0.769   3.053  0.9529  2.7037 -0.1257
  683SOL    HW2 2731   2.023   0.913   3.015  0.4875 -0.9254  0.1449
  683SOL     MW 2732   2.053   0.830   3.008  0.4958 -0.1635  0.0033
  684SOL     OW 2733   2.114   1.741   0.647 -0.3738  0.1267 -0.4190
  684SOL    HW1 2734   2.135   1.709   0.556 -0.1735  0.5902  2.0121
  684SOL    HW2 2735   2.085   1.660   0.687  1.0935 -0.9592  0.5657
  684SOL     MW 2736   2.113   1.726   0.640 -0.1538  0.0446  0.0317
  685SOL     OW 2737   2.681   1.686   1.166 -0.0876  0.0912  0.4248
  685SOL    HW1 2738   2.698   1.650   1.249  0.6576 -0.1024 -0.5976
  685SOL    HW2 2739   2.631   1.608   1.127 -1.1246  0.9580 -1.6146
  685SOL     MW 2740   2.676   1.671   1.172 -0.1261  0.1800  0.0208
  686SOL     OW 2741   2.905   0.630   1.595 -0.2052  0.1651  0.0756
  686SOL    HW1 2742   2.902   0.616   1.685 -1.1912  0.8472 -3.0916
  686SOL    HW2 2743   2.983   0.683   1.580  1.6068 -0.6517  2.9207
  686SOL     MW 2744   2.915   0.635   1.605 -0.0962  0.1473  0.0331
  687SOL     OW 2745   2.157   0.179   1.113 -0.7127  0.3712  0.1050
  687SOL    HW1 2746   2.197   0.162   1.026 -0.3478 -1.7554 -1.6353
  687SOL    HW2 2747   2.081   0.239   1.092 -0.5500 -0.9283  0.2669
  687SOL     MW 2748   2.152   0.185   1.099 -0.6431 -0.0808 -0.1032
  688SOL     OW 2749   2.416   0.597   1.403  0.1053  0.0356 -0.4055
  688SOL    HW1 2750   2.391   0.515   1.357 -0.0025 -0.0825  0.4574
  688SOL    HW2 2751   2.349   0.604   1.479  0.7221  2.1092 -0.6563
  688SOL     MW 2752   2.404   0.587   1.407  0.1724  0.2937 -0.3247
  689SOL     OW 2753   2.506   0.780   2.983  0.1858 -0.3539  0.3118
  689SOL    HW1 2754   2.478   0.866   3.008  0.6801  0.2870 -0.2223
  689SOL    HW2 2755   2.571   0.755   3.050 -0.2975  0.0343 -1.0144
  689SOL     MW 2756   2.511   0.788   2.995  0.1873 -0.2181  0.0663
  690SOL     OW 2757   2.047   0.861   1.851 -0.2674 -0.1269 -0.7712
  690SOL    HW1 2758   2.054   0.773   1.878  1.9437  0.9350 -1.1476
  690SOL    HW2 2759   2.077   0.861   1.760  0.9265 -0.3710  1.0659
  690SOL     MW 2760   2.052   0.849   1.842  0.1819 -0.0190 -0.5785
  691SOL     OW 2761   2.392   0.290   0.869  0.4588  0.2780  0.0472
  691SOL    HW1 2762   2.469   0.338   0.912  3.5266  0.0389  4.0093
  691SOL    HW2 2763   2.322   0.352   0.858  0.4061  2.3070  1.8513
  691SOL     MW 2764   2.393   0.304   0.873  0.8566  0.5142  0.8080
  692SOL     OW 2765   2.888   1.598   1.436 -0.0508 -0.0506  0.0951
  692SOL    HW1 2766   2.861   1.575   1.522 -1.9306 -1.2590 -0.3503
  692SOL    HW2 2767   2.909   1.693   1.439 -1.1351 -0.0437  2.7617
  692SOL     MW 2768   2.887   1.608   1.447 -0.4419 -0.2091  0.3882
  693SOL     OW 2769   2.347   0.434   0.057  0.3244 -0.2516 -0.0456
  693SOL    HW1 2770   2.274   0.377   0.083 -2.5090 -1.3633 -2.5207
  693SOL    HW2 2771   2.305   0.526   0.075 -0.6380 -0.8150 -2.5658
  693SOL     MW 2772   2.332   0.438   0.063 -0.1764 -0.4726 -0.7047
  694SOL     OW 2773   1.868   1.199   1.132 -0.0681  0.4708  0.8148
  694SOL    HW1 2774   1.968   1.200   1.139  3.9019  1.9124  0.8504
  694SOL    HW2 2775   1.844   1.108   1.162 -0.5780  2.4483 -0.0769
  694SOL     MW 2776   1.878   1.187   1.137  0.3884  0.9219  0.7018
  695SOL     OW 2777   2.969   1.397   1.269  0.1992  0.5382  0.2432
  695SOL    HW1 2778   2.931   1.381   1.184 -0.6388 -0.8843 -3.5976
  695SOL    HW2 2779   2.923   1.470   1.317  0.3698 -0.1811 -1.5981
  695SOL     MW 2780   2.958   1.405   1.264  0.1111  0.2556 -0.5065
  696SOL     OW 2781   2.078   1.448   0.764 -0.5998  0.0562  0.4015
  696SOL    HW1 2782   2.118   1.485   0.839 -1.5119  1.1660 -0.9209
  696SOL    HW2 2783   2.041   1.366   0.798 -0.9249 -1.8384 -0.3782
  696SOL     MW 2784   2.078   1.442   0.778 -0.7631 -0.0473  0.1241
  697SOL     OW 2785   2.921   1.065   2.254  0.3663  0.2416 -0.9407
  697SOL    HW1 2786   2.845   1.130   2.269 -2.5609  3.6766 -1.5649
  697SOL    HW2 2787   2.874   0.989   2.215 -1.4196  0.5713  2.0885
  697SOL     MW 2788   2.905   1.064   2.250 -0.2556  0.7383 -0.6234
  698SOL     OW 2789   2.564   0.295   3.049  0.5404  0.2731 -0.7094
  698SOL    HW1 2790   2.484   0.346   3.072 -0.1743 -0.1110  1.0182
  698SOL    HW2 2791   2.593   0.263   3.131 -0.2436 -0.6600  0.0814
  698SOL     MW 2792   2.558   0.298   3.063  0.3427  0.0993 -0.3771
  699SOL     OW 2793   1.889   1.616   2.085  0.0128  0.4362  0.0018
  699SOL    HW1 2794   1.845   1.538   2.043 -2.5934  0.1997  3.1241
  699SOL    HW2 2795   1.971   1.615   2.036 -0.7948 -2.0863  1.8578
  699SOL     MW 2796   1.894   1.605   2.073 -0.4376  0.0722  0.6586
  700SOL     OW 2797   2.691   0.819   1.568 -0.2613  0.2895  0.0281
  700SOL    HW1 2798   2.717   0.890   1.512  0.3880 -3.2769 -2.1882
  700SOL    HW2 2799   2.748   0.746   1.546 -2.2184 -0.2933  2.6052
  700SOL     MW 2800   2.702   0.819   1.557 -0.4339 -0.2580  0.0757
  701SOL     OW 2801   1.678   1.149   2.508  0.0087 -0.5987 -0.4372
  701SOL    HW1 2802   1.774   1.139   2.519  0.9387  2.2435  1.6796
  701SOL    HW2 2803   1.651   1.173   2.593  0.5423 -2.3111 -2.3629
  701SOL     MW 2804   1.687   1.151   2.520  0.2018 -0.4496 -0.4120
  702SOL     OW 2805   2.148   0.423   0.787 -0.1403  0.3563 -0.8383
  702SOL    HW1 2806   2.136   0.344   0.734 -0.9385  2.9502 -2.6306
  702SOL    HW2 2807   2.221   0.474   0.745 -1.0149  0.1575 -1.5734
  702SOL     MW 2808   2.156   0.419   0.775 -0.3610  0.6723 -1.1718
  703SOL     OW 2809   2.729   1.218   0.956 -0.0793  0.2495 -0.1950
  703SOL    HW1 2810   2.662   1.230   0.887 -0.1712 -0.0244  0.6569
  703SOL    HW2 2811   2.718   1.141   1.010  1.2027 -0.5825 -0.3929
  703SOL     MW 2812   2.719   1.209   0.954  0.0777  0.1036 -0.1087
  704SOL     OW 2813   3.063   1.222   0.123  0.2268  0.2036  0.8324
  704SOL    HW1 2814   2.971   1.200   0.091  0.1248 -2.1260 -0.8890
  704SOL    HW2 2815   3.038   1.228   0.216  3.0951 -2.1003  0.2358
  704SOL     MW 2816   3.047   1.220   0.131  0.5918 -0.4077  0.5265
  705SOL     OW 2817   2.078   1.578   1.303 -0.2350 -0.2424  0.4355
  705SOL    HW1 2818   2.027   1.643   1.346  0.5729 -3.6573 -1.2079
  705SOL    HW2 2819   2.100   1.514   1.368 -2.9674  0.7881  1.6056
  705SOL     MW 2820   2.074   1.578   1.317 -0.4889 -0.5570  0.3731
  706SOL     OW 2821   2.981   1.252   0.663  0.6298 -0.6202 -0.4574
  706SOL    HW1 2822   3.009   1.257   0.566 -1.1471 -0.1692 -1.5036
  706SOL    HW2 2823   2.951   1.342   0.683  0.5325 -1.2982 -1.3130
  706SOL     MW 2824   2.981   1.264   0.653  0.3825 -0.6502 -0.7083
  707SOL     OW 2825   2.374   0.038   0.975  0.5620  0.0012 -0.2376
  707SOL    HW1 2826   2.377   0.123   0.928  1.9418  1.9013 -1.9123
  707SOL    HW2 2827   2.304  -0.017   0.934 -0.9622 -1.9531 -1.8201
  707SOL     MW 2828   2.365   0.042   0.963  0.5429 -0.0059 -0.6673
  708SOL     OW 2829   2.436   1.384   0.177 -0.7552 -0.1904 -0.0403
  708SOL    HW1 2830   2.531   1.398   0.169 -0.3597  0.7921  2.2044
  708SOL    HW2 2831   2.418   1.400   0.081  1.8393  1.1833 -0.4116
  708SOL     MW 2832   2.446   1.388   0.163 -0.3607  0.1205  0.2069
  709SOL     OW 2833   1.731   1.599   0.224  0.4974  0.0936  0.0853
  709SOL    HW1 2834   1.719   1.615   0.130  0.5137  0.0924 -0.5422
  709SOL    HW2 2835   1.652   1.595   0.268  4.1746 -1.9116  1.6180
  709SOL     MW 2836   1.719   1.601   0.217  0.9847 -0.1711  0.2047
  710SOL     OW 2837   2.150   1.173   1.172  0.2979 -0.7394  0.4390
  710SOL    HW1 2838   2.194   1.137   1.095 -3.6364 -0.6442  1.8203
  710SOL    HW2 2839   2.162   1.108   1.239  1.2831 -0.6611 -0.3833
  710SOL     MW 2840   2.158   1.160   1.171 -0.0912 -0.7165  0.5128
  711SOL     OW 2841   2.398   0.181   1.770  0.5638 -0.3938 -0.1128
  711SOL    HW1 2842   2.487   0.151   1.801  1.0992  0.3769  0.4431
  711SOL    HW2 2843   2.395   0.160   1.673  1.3467  1.4981 -2.5459
  711SOL     MW 2844   2.409   0.174   1.761  0.7378 -0.0425 -0.3605
  712SOL     OW 2845   1.907   0.610   0.017  0.1563  0.0714  0.4930
  712SOL    HW1 2846   1.833   0.627  -0.044  1.3846 -2.1096 -0.2876
  712SOL    HW2 2847   1.865   0.643   0.096 -2.9808 -4.8800 -2.1205
  712SOL     MW 2848   1.892   0.617   0.019 -0.0956 -0.8696  0.0452
  713SOL     OW 2849   2.523   0.696   1.089 -0.1126 -0.1321  0.2005
  713SOL    HW1 2850   2.543   0.678   1.182 -0.2049  0.2364 -1.3848
  713SOL    HW2 2851   2.422   0.698   1.092 -1.8687 -1.9951 -0.8497
  713SOL     MW 2852   2.512   0.694   1.101 -0.3565 -0.3293 -0.1472
  714SOL     OW 2853   2.225   0.208   1.998 -0.1673  0.0640 -0.6475
  714SOL    HW1 2854   2.260   0.140   2.054 -1.1421  1.4931  0.6469
  714SOL    HW2 2855   2.274   0.198   1.915  1.2465  0.8882 -0.0040
  714SOL     MW 2856   2.236   0.197   1.995 -0.1094  0.3613 -0.3918
  715SOL     OW 2857   1.801   2.050   1.777  0.2775 -0.0405 -0.1752
  715SOL    HW1 2858   1.884   2.067   1.736 -0.0306  0.0723 -1.1617
  715SOL    HW2 2859   1.808   1.970   1.842 -1.2161 -0.1542  1.5186
  715SOL     MW 2860   1.813   2.042   1.780  0.0397 -0.0406 -0.0819
  716SOL     OW 2861   2.343   0.544   0.664 -0.4905  0.1327  0.1534
  716SOL    HW1 2862   2.392   0.464   0.637 -0.3041  0.7348 -2.1468
  716SOL    HW2 2863   2.286   0.569   0.584  2.1936  2.3544  2.1962
  716SOL     MW 2864   2.342   0.537   0.650 -0.1117  0.5052  0.1194
  717SOL     OW 2865   2.825   1.565   2.867  0.2910  0.2876 -0.1019
  717SOL    HW1 2866   2.912   1.580   2.894 -1.9959 -1.1364 -2.0021
  717SOL    HW2 2867   2.789   1.641   2.901  1.1166 -2.3361  1.5410
  717SOL     MW 2868   2.831   1.577   2.875  0.0982 -0.2465 -0.1358
  718SOL     OW 2869   2.657   1.348   1.315 -0.0592 -0.2028  0.0847
  718SOL    HW1 2870   2.620   1.404   1.381 -2.2951 -0.2239 -1.8644
  718SOL    HW2 2871   2.747   1.343   1.344  1.6088  1.2032  0.5041
  718SOL     MW 2872   2.664   1.355   1.328 -0.1342 -0.0201 -0.1171
  719SOL     OW 2873   2.184   1.275   0.583 -0.2398  0.1293 -0.0599
  719SOL    HW1 2874   2.266   1.309   0.566  0.4361 -1.7208  0.4736
  719SOL    HW2 2875   2.160   1.338   0.654  0.4228  1.6404  1.5938
  719SOL     MW 2876   2.191   1.288   0.590 -0.0632  0.0846  0.2286
  720SOL     OW 2877   2.804   1.214   0.027  0.2024  0.1390 -0.2687
  720SOL    HW1 2878   2.790   1.121   0.058 -0.1160 -0.1573 -1.0047
  720SOL    HW2 2879   2.774   1.265   0.105  0.0255 -0.0219 -0.2559
  720SOL     MW 2880   2.798   1.208   0.042  0.1370  0.0787 -0.3641
  721SOL     OW 2881   2.468   0.850   1.351  0.3097  0.1052  0.0577
  721SOL    HW1 2882   2.438   0.766   1.381 -0.7326  0.2926  0.2159
  721SOL    HW2 2883   2.557   0.854   1.379 -3.4578  2.0136 -1.8363
  721SOL     MW 2884   2.476   0.840   1.359 -0.3249  0.3817 -0.1713
  722SOL     OW 2885   2.605   1.133   0.367  0.5410  0.1717  0.2912
  722SOL    HW1 2886   2.545   1.200   0.408  1.6267 -1.2626 -0.6462
  722SOL    HW2 2887   2.681   1.121   0.429 -1.1957 -3.5081 -2.7677
  722SOL     MW 2888   2.607   1.140   0.380  0.4551 -0.5031 -0.2361
  723SOL     OW 2889   2.289   1.364   1.583 -0.1765  0.6952 -0.4504
  723SOL    HW1 2890   2.292   1.353   1.484  0.2304 -0.5398 -0.4799
  723SOL    HW2 2891   2.206   1.412   1.606 -4.2884 -0.3474  0.6654
  723SOL     MW 2892   2.278   1.369   1.573 -0.6653  0.3947 -0.3071
  724SOL     OW 2893   2.489   0.304   0.611  0.0917 -0.2786 -0.1651
  724SOL    HW1 2894   2.475   0.261   0.697 -0.6359 -0.1144 -0.1642
  724SOL    HW2 2895   2.584   0.301   0.597  1.7419  0.9848  1.7695
  724SOL     MW 2896   2.499   0.298   0.620  0.2134 -0.0902  0.0903
  725SOL     OW 2897   2.630   0.411   1.240 -0.0060 -0.2731 -0.3175
  725SOL    HW1 2898   2.689   0.490   1.252  0.5487  0.5724  1.5509
  725SOL    HW2 2899   2.659   0.364   1.316 -0.3791  0.3107 -0.2015
  725SOL     MW 2900   2.642   0.415   1.252  0.0179 -0.0846 -0.0557
  726SOL     OW 2901   2.519   2.500   0.488 -0.0001 -0.6044 -0.4444
  726SOL    HW1 2902   2.492   2.591   0.476  1.5728  0.0923 -1.4750
  726SOL    HW2 2903   2.499   2.484   0.579 -2.3338  0.5295  0.3190
  726SOL     MW 2904   2.513   2.510   0.498 -0.1005 -0.3629 -0.4797
  727SOL     OW 2905   2.865   0.304   1.744  0.7478 -0.3398 -0.6063
  727SOL    HW1 2906   2.811   0.309   1.664  0.7103 -0.3201  1.7643
  727SOL    HW2 2907   2.801   0.297   1.815 -1.1619  0.0222  1.4058
  727SOL     MW 2908   2.849   0.304   1.743  0.4909 -0.2894 -0.0280
  728SOL     OW 2909   2.837   1.189   2.850  0.0920  0.2187  0.3897
  728SOL    HW1 2910   2.852   1.250   2.782  1.3006  0.2508 -0.2294
  728SOL    HW2 2911   2.824   1.239   2.933  0.1693 -0.4910 -1.2123
  728SOL     MW 2912   2.837   1.203   2.852  0.2617  0.1293  0.0966
  729SOL     OW 2913   2.504   1.498   1.099 -0.1551 -0.0940 -0.7627
  729SOL    HW1 2914   2.543   1.421   1.135 -0.6802  0.3351  0.0001
  729SOL    HW2 2915   2.483   1.483   1.003 -1.4903  0.3664  0.0399
  729SOL     MW 2916   2.506   1.486   1.091 -0.4005  0.0234 -0.5561
  730SOL     OW 2917   2.196   1.177   0.216  0.2680  0.4766 -0.9502
  730SOL    HW1 2918   2.261   1.111   0.252 -0.3355  0.1480 -1.5489
  730SOL    HW2 2919   2.238   1.262   0.217 -1.4733 -1.1062 -0.8132
  730SOL     MW 2920   2.210   1.180   0.221 -0.0414  0.2244 -1.0111
  731SOL     OW 2921   2.744   2.102   2.869 -0.3215 -0.0637 -0.0737
  731SOL    HW1 2922   2.702   2.050   2.796  1.1256 -0.1512  0.3089
  731SOL    HW2 2923   2.834   2.069   2.867 -1.2690 -2.3467 -0.0238
  731SOL     MW 2924   2.751   2.091   2.859 -0.2556 -0.3765 -0.0166
  732SOL     OW 2925   2.217   0.984   1.367  0.4416  0.4236 -0.1995
  732SOL    HW1 2926   2.175   0.969   1.450 -2.5611  2.3927  0.0335
  732SOL    HW2 2927   2.299   0.933   1.357 -2.5253 -1.9900  1.2223
  732SOL     MW 2928   2.222   0.975   1.377 -0.3460  0.3649  0.0189
  733SOL     OW 2929   2.385   2.822   3.027 -0.7853  0.5969 -0.0014
  733SOL    HW1 2930   2.305   2.869   3.058  0.6820 -0.2068 -0.5721
  733SOL    HW2 2931   2.351   2.730   3.019  0.2864  0.6734  1.4658
  733SOL     MW 2932   2.370   2.816   3.030 -0.4503  0.5010  0.1169
  734SOL     OW 2933   1.585   0.253   2.540  0.7101 -0.0223  0.0331
  734SOL    HW1 2934   1.553   0.237   2.629 -1.3723  1.6798  0.5458
  734SOL    HW2 2935   1.565   0.173   2.492 -0.5445  0.8724  0.8945
  734SOL     MW 2936   1.578   0.241   2.545  0.2698  0.3204  0.2144
  735SOL     OW 2937   3.005   0.954   2.692  0.0463 -0.3556 -0.4696
  735SOL    HW1 2938   3.005   0.856   2.668 -0.7196 -0.8169  1.8163
  735SOL    HW2 2939   3.017   0.950   2.786  0.2167  0.3844  0.3829
  735SOL     MW 2940   3.006   0.940   2.701 -0.0322 -0.3189 -0.0555
  736SOL     OW 2941   0.125   0.598   2.606  0.2466 -0.7407 -0.0976
  736SOL    HW1 2942   0.131   0.648   2.522 -0.8093  0.1454 -0.1269
  736SOL    HW2 2943   0.126   0.503   2.582 -0.2940 -0.5002 -0.9297
  736SOL     MW 2944   0.126   0.592   2.592  0.0359 -0.5920 -0.2113
  737SOL     OW 2945   2.973   0.681   2.608  0.4731  0.2298  0.3731
  737SOL    HW1 2946   2.906   0.630   2.552 -0.3641 -1.3247 -1.6528
  737SOL    HW2 2947   3.052   0.629   2.610 -2.2195 -0.3245  0.4184
  737SOL     MW 2948   2.975   0.668   2.601  0.0073 -0.0484  0.1118
  738SOL     OW 2949   0.161   0.533   1.885 -0.4944 -0.5105  0.0317
  738SOL    HW1 2950   0.256   0.564   1.897  0.7770 -0.6253 -1.4244
  738SOL    HW2 2951   0.166   0.462   1.817 -1.9433 -0.9879 -0.9536
  738SOL     MW 2952   0.174   0.528   1.878 -0.5178 -0.5886 -0.2905
  739SOL     OW 2953   2.478   1.008   2.071  0.2249  0.0084 -0.2091
  739SOL    HW1 2954   2.402   0.985   2.010 -1.3471  3.8986 -1.6496
  739SOL    HW2 2955   2.554   1.008   2.010  1.3691 -1.8763  1.2141
  739SOL     MW 2956   2.478   1.005   2.055  0.1685  0.2730 -0.2114
  740SOL     OW 2957   0.094   1.867   2.930 -0.1669 -0.2365 -0.3911
  740SOL    HW1 2958   0.077   1.774   2.925  0.2568  0.7144 -0.2005
  740SOL    HW2 2959   0.191   1.879   2.939 -1.0842  1.4629  0.6127
  740SOL     MW 2960   0.105   1.857   2.931 -0.2320  0.1131 -0.2335
  741SOL     OW 2961   2.259   1.176   2.725 -0.1425 -0.2505  0.2571
  741SOL    HW1 2962   2.195   1.224   2.680 -0.9808 -0.7353  0.8713
  741SOL    HW2 2963   2.242   1.168   2.820 -0.7399  0.6897  3.1590
  741SOL     MW 2964   2.249   1.181   2.732 -0.3319 -0.1904  0.7210
  742SOL     OW 2965   1.691   1.230   2.232 -0.1066 -0.7084  0.5080
  742SOL    HW1 2966   1.620   1.175   2.196 -0.7150  0.5305 -0.0650
  742SOL    HW2 2967   1.685   1.201   2.325  0.8915 -1.5668  0.5475
  742SOL     MW 2968   1.681   1.219   2.240 -0.0552 -0.6582  0.4376
  743SOL     OW 2969   2.534   1.252   2.684 -0.3486 -0.0389  0.3127
  743SOL    HW1 2970   2.439   1.251   2.690  0.3465 -0.6314 -4.0403
  743SOL    HW2 2971   2.551   1.186   2.749 -0.4414  0.7664 -2.6591
  743SOL     MW 2972   2.523   1.243   2.693 -0.2692 -0.0109 -0.6537
  744SOL     OW 2973   2.771   0.934   1.863 -0.6007 -0.3972  0.0317
  744SOL    HW1 2974   2.737   1.022   1.846 -1.9358 -1.3531 -0.7599
  744SOL    HW2 2975   2.732   0.896   1.785  0.8705 -1.7780 -0.2738
  744SOL     MW 2976   2.762   0.941   1.851 -0.5827 -0.7055 -0.1131
  745SOL     OW 2977   1.690   0.507   2.458 -0.1487 -0.2946 -0.4907
  745SOL    HW1 2978   1.698   0.532   2.364 -0.1950  4.2151  0.0093
  745SOL    HW2 2979   1.615   0.446   2.469  0.4801  0.5345 -0.5316
  745SOL     MW 2980   1.681   0.502   2.447 -0.0718  0.4098 -0.4302
  746SOL     OW 2981   1.587   1.431   1.639  0.5243 -0.2771  0.2144
  746SOL    HW1 2982   1.679   1.420   1.631 -1.5669  1.5119 -0.4254
  746SOL    HW2 2983   1.564   1.421   1.731 -0.9441  0.0514 -1.5068
  746SOL     MW 2984   1.596   1.429   1.650  0.0547  0.0023 -0.0971
  747SOL     OW 2985   2.604   1.162   1.817 -0.1607 -0.0406  0.1458
  747SOL    HW1 2986   2.507   1.157   1.796 -1.1689 -0.9759 -0.9908
  747SOL    HW2 2987   2.608   1.216   1.899  0.8753  0.7016 -0.1827
  747SOL     MW 2988   2.592   1.169   1.825 -0.1571 -0.0660 -0.0475
  748SOL     OW 2989   0.088   0.045   1.863  0.2431  1.3638 -0.5815
  748SOL    HW1 2990   0.166   0.096   1.834 -1.9396 -1.0044 -1.2495
  748SOL    HW2 2991   0.050   0.092   1.943 -0.1240  2.2708  1.2068
  748SOL     MW 2992   0.093   0.058   1.870 -0.0933  1.1710 -0.4337
  749SOL     OW 2993   2.467   0.605   2.728  0.2229 -0.2353 -0.1376
  749SOL    HW1 2994   2.477   0.695   2.696 -0.2955  1.0769 -0.3536
  749SOL    HW2 2995   2.461   0.630   2.821 -3.1302  0.6920  1.7846
  749SOL     MW 2996   2.468   0.620   2.736 -0.2879  0.0602  0.0875
  750SOL     OW 2997   2.051   3.070   1.986  0.1964 -0.6080  0.1719
  750SOL    HW1 2998   2.083   3.152   1.953 -0.6686 -1.2085 -1.0788
  750SOL    HW2 2999   2.128   3.015   1.962  1.3464  0.9396 -1.6365
  750SOL     MW 3000   2.066   3.074   1.979  0.2340 -0.4831 -0.2317
  751SOL     OW 3001   0.125   0.341   2.468  0.2953 -0.4053  0.6029
  751SOL    HW1 3002   0.113   0.253   2.503  0.3121 -0.9561  0.1001
  751SOL    HW2 3003   0.177   0.331   2.386  1.0738  0.8227 -1.7066
  751SOL     MW 3004   0.130   0.328   2.462  0.4002 -0.3160  0.2319
  752SOL     OW 3005   2.090   0.749   2.728  0.1420 -0.1604 -0.0113
  752SOL    HW1 3006   2.146   0.815   2.682  0.5252  0.6867 -1.1570
  752SOL    HW2 3007   2.080   0.777   2.822 -1.5944 -1.0723  1.9052
  752SOL     MW 3008   2.096   0.761   2.735 -0.0365 -0.1690  0.0904
  753SOL     OW 3009   2.897   0.212   2.402 -0.1485 -0.1678 -0.5030
  753SOL    HW1 3010   2.838   0.141   2.382  0.8857  1.2968  1.6388
  753SOL    HW2 3011   2.881   0.287   2.345  1.9244  1.5572 -1.3605
  753SOL     MW 3012   2.887   0.213   2.392  0.2615  0.2531 -0.3335
  754SOL     OW 3013   2.220   2.976   2.573 -0.0370 -0.0630  0.4259
  754SOL    HW1 3014   2.253   2.936   2.490  0.2186 -0.6728 -0.4830
  754SOL    HW2 3015   2.294   2.944   2.638 -0.7047  2.1897 -0.0047
  754SOL     MW 3016   2.234   2.967   2.571 -0.0914  0.1538  0.2491
  755SOL     OW 3017   2.699   1.516   2.445  0.3020 -0.3037 -0.4742
  755SOL    HW1 3018   2.701   1.445   2.507 -1.8881  0.5869 -2.1417
  755SOL    HW2 3019   2.768   1.580   2.482 -1.9238  1.4190 -0.8233
  755SOL     MW 3020   2.708   1.515   2.458 -0.2806  0.0411 -0.7403
  756SOL     OW 3021   2.170   1.215   3.004  0.3538  0.3058 -0.2240
  756SOL    HW1 3022   2.246   1.280   3.001 -0.7794 -1.1650  0.0005
  756SOL    HW2 3023   2.195   1.162   3.085  3.1058 -1.2975 -1.4507
  756SOL     MW 3024   2.184   1.217   3.014  0.5674 -0.0998 -0.3562
  757SOL     OW 3025   2.148   0.889   1.609  0.7258 -0.2510 -0.0822
  757SOL    HW1 3026   2.185   0.802   1.597  0.2138  2.2532  0.1426
  757SOL    HW2 3027   2.053   0.881   1.574  0.0672 -0.5696  0.9550
  757SOL     MW 3028   2.140   0.877   1.603  0.5714  0.0374  0.0843
  758SOL     OW 3029   2.224   1.852   2.628 -0.0420  0.1534  0.4255
  758SOL    HW1 3030   2.218   1.865   2.527 -1.1863  1.1551  0.3561
  758SOL    HW2 3031   2.306   1.815   2.655 -0.4419  0.9247  2.3372
  758SOL     MW 3032   2.234   1.849   2.618 -0.2457  0.3873  0.6686
  759SOL     OW 3033   1.558   1.312   2.692 -0.4582 -1.3099  0.0092
  759SOL    HW1 3034   1.583   1.376   2.622  0.1877  0.8476 -0.8735
  759SOL    HW2 3035   1.605   1.337   2.774 -2.8279  1.0263  0.7172
  759SOL     MW 3036   1.568   1.324   2.694 -0.6856 -0.7170 -0.0139
  760SOL     OW 3037   2.541   1.991   2.714 -0.2986  0.3088  0.2097
  760SOL    HW1 3038   2.539   1.904   2.671 -2.3043  1.5947 -3.3637
  760SOL    HW2 3039   2.539   2.058   2.643 -0.1634 -3.6020  1.5640
  760SOL     MW 3040   2.540   1.988   2.699 -0.5454 -0.0375 -0.0831
  761SOL     OW 3041   2.133   0.343   2.474  0.2088  0.1624  0.7652
  761SOL    HW1 3042   2.073   0.267   2.492 -0.4307  1.2188  1.4653
  761SOL    HW2 3043   2.156   0.386   2.557  0.1116  1.1314 -1.7760
  761SOL     MW 3044   2.128   0.339   2.487  0.1116  0.4296  0.5223
  762SOL     OW 3045   3.095   0.164   2.113 -0.3324  0.3460 -0.0495
  762SOL    HW1 3046   3.115   0.098   2.187  3.9458 -1.5422 -0.5505
  762SOL    HW2 3047   3.042   0.236   2.133  0.7652 -1.7645 -1.2613
  762SOL     MW 3048   3.091   0.165   2.125  0.3769 -0.1816 -0.2755
  763SOL     OW 3049   2.336   1.032   2.348 -0.3194  0.0517 -0.2353
  763SOL    HW1 3050   2.400   1.023   2.276  1.0773 -0.0943  0.1340
  763SOL    HW2 3051   2.391   1.087   2.410  0.7779  2.1334  2.3197
  763SOL     MW 3052   2.352   1.038   2.347  0.0097  0.3071  0.1505
  764SOL     OW 3053   0.522   0.240   2.799 -0.1067  0.0887  0.2510
  764SOL    HW1 3054   0.439   0.192   2.775 -3.0952 -0.3306 -0.5561
  764SOL    HW2 3055   0.482   0.324   2.817 -1.8157 -0.0374 -0.7794
  764SOL     MW 3056   0.506   0.245   2.798 -0.7265  0.0167  0.0085
  765SOL     OW 3057   2.745   3.089   2.354 -0.1774 -0.3934 -0.3630
  765SOL    HW1 3058   2.702   3.065   2.269 -1.1574  0.6140  2.0049
  765SOL    HW2 3059   2.827   3.036   2.347 -0.3686  0.1917 -0.8696
  765SOL     MW 3060   2.750   3.079   2.342 -0.3319 -0.1833 -0.1174
  766SOL     OW 3061   1.850   2.972   2.167 -0.3227  0.0301  0.0935
  766SOL    HW1 3062   1.909   3.023   2.110  1.1815  0.5338 -1.6712
  766SOL    HW2 3063   1.795   2.918   2.105  1.4369 -1.3589  0.5849
  766SOL     MW 3064   1.850   2.971   2.151  0.1080 -0.0867 -0.0745
  767SOL     OW 3065   2.688   0.581   2.081 -0.0008  0.6919  0.4785
  767SOL    HW1 3066   2.716   0.667   2.110  0.2490  0.4941 -1.3295
  767SOL    HW2 3067   2.591   0.595   2.055 -0.2867  3.2773 -0.4909
  767SOL     MW 3068   2.679   0.594   2.081 -0.0056  1.0070  0.1121
  768SOL     OW 3069   3.095   1.592   2.921  0.1204 -0.4500 -0.5317
  768SOL    HW1 3070   3.109   1.565   3.014 -1.1424 -1.7294  0.1668
  768SOL    HW2 3071   3.133   1.521   2.884  3.2652  2.7582  0.1619
  768SOL     MW 3072   3.102   1.579   2.928  0.3687 -0.1955 -0.3480
  769SOL     OW 3073   2.443   0.699   2.339  0.0911 -0.2405  0.2655
  769SOL    HW1 3074   2.386   0.634   2.299  0.6449 -2.7383 -1.1976
  769SOL    HW2 3075   2.402   0.779   2.307 -0.9536 -0.9256  0.6770
  769SOL     MW 3076   2.430   0.701   2.329  0.0263 -0.6605  0.1268
  770SOL     OW 3077   0.040   1.590   2.611 -0.3537  0.2420  0.1116
  770SOL    HW1 3078  -0.049   1.625   2.603  4.3940  2.0845 -1.0914
  770SOL    HW2 3079   0.035   1.538   2.693 -0.4963  1.5059 -1.6645
  770SOL     MW 3080   0.028   1.587   2.621  0.2539  0.6519 -0.2815
  771SOL     OW 3081   3.080   0.647   2.041 -0.3284 -0.0686  0.2320
  771SOL    HW1 3082   3.012   0.631   1.975 -2.1964 -0.8427  0.9462
  771SOL    HW2 3083   3.164   0.603   2.001  2.8383  0.9078  0.5963
  771SOL     MW 3084   3.082   0.639   2.027 -0.1571 -0.0419  0.3743
  772SOL     OW 3085   0.059   3.088   2.310  0.3055  0.2535  0.3960
  772SOL    HW1 3086  -0.016   3.036   2.324  0.8050 -1.9393  0.0528
  772SOL    HW2 3087   0.116   3.025   2.268  0.8345 -0.7155  0.7418
  772SOL     MW 3088   0.056   3.073   2.306  0.4412 -0.1636  0.3963
  773SOL     OW 3089   2.388   2.864   2.758 -0.1928  0.0378  0.0275
  773SOL    HW1 3090   2.439   2.788   2.718  1.1408 -0.0875 -1.4533
  773SOL    HW2 3091   2.381   2.856   2.852  0.9514  1.6813 -0.5044
  773SOL     MW 3092   2.393   2.853   2.765  0.1341  0.2381 -0.2380
  774SOL     OW 3093   2.330   1.094   1.735  0.6593  0.3254  0.0981
  774SOL    HW1 3094   2.307   1.151   1.662  0.3308 -1.2837 -2.2882
  774SOL    HW2 3095   2.283   1.011   1.728 -1.8862 -1.6904  0.9284
  774SOL     MW 3096   2.320   1.091   1.724  0.2801 -0.1528 -0.1072
  775SOL     OW 3097   2.304   2.905   2.339  0.3560 -0.2761  0.0385
  775SOL    HW1 3098   2.320   2.994   2.302 -0.7376 -0.2222 -1.1887
  775SOL    HW2 3099   2.362   2.837   2.310  1.1351 -0.9879  0.2674
  775SOL     MW 3100   2.314   2.908   2.330  0.3145 -0.3629 -0.0932
  776SOL     OW 3101   0.061   1.487   0.100 -0.1777  0.0799  0.2370
  776SOL    HW1 3102   0.151   1.464   0.077 -2.5250  0.4317  0.4720
  776SOL    HW2 3103   0.014   1.399   0.117  0.4002 -1.9126 -1.6248
  776SOL     MW 3104   0.067   1.472   0.100 -0.4111 -0.1366  0.0224
  777SOL     OW 3105   2.953   1.100   1.751  0.1551 -0.7010  0.0059
  777SOL    HW1 3106   2.888   1.140   1.696 -0.3522  0.1104  2.0218
  777SOL    HW2 3107   2.916   1.028   1.800  2.7836 -2.8706 -0.6829
  777SOL     MW 3108   2.940   1.096   1.751  0.4350 -0.8802  0.1810
  778SOL     OW 3109   2.891   0.503   2.796  0.0002  0.3188 -0.7014
  778SOL    HW1 3110   2.827   0.526   2.871  0.3211 -1.0870 -1.4181
  778SOL    HW2 3111   2.910   0.583   2.749 -2.3371 -1.1245 -1.9151
  778SOL     MW 3112   2.885   0.516   2.800 -0.2658 -0.0571 -0.9561
  779SOL     OW 3113   2.164   0.585   2.343 -0.2435 -0.4983 -0.0533
  779SOL    HW1 3114   2.099   0.638   2.393  2.4951  0.8009 -2.6011
  779SOL    HW2 3115   2.162   0.499   2.383  0.9686  2.5182  1.2724
  779SOL     MW 3116   2.156   0.580   2.355  0.2778  0.0711 -0.2146
  780SOL     OW 3117   0.262   0.134   2.792 -0.1237  0.0793 -0.0992
  780SOL    HW1 3118   0.212   0.178   2.863  1.9800 -0.3976  1.2554
  780SOL    HW2 3119   0.208   0.136   2.713  0.2339 -0.7271 -0.9757
  780SOL     MW 3120   0.248   0.140   2.791  0.2011 -0.0900 -0.0362
  781SOL     OW 3121   3.063   1.290   2.515 -0.0343  0.1864  0.1193
  781SOL    HW1 3122   3.060   1.346   2.436  0.7351 -1.1753 -0.9899
  781SOL    HW2 3123   3.116   1.211   2.496 -1.1061  0.2126  0.0041
  781SOL     MW 3124   3.070   1.287   2.502 -0.0742  0.0102 -0.0423
  782SOL     OW 3125   0.524   1.628   3.011  0.1978  0.2725  0.3002
  782SOL    HW1 3126   0.450   1.691   3.013 -2.8220  0.8948 -0.8128
  782SOL    HW2 3127   0.515   1.584   3.101  0.2615 -1.9095  3.9306
  782SOL     MW 3128   0.513   1.630   3.023 -0.1922  0.0667  0.6323
  783SOL     OW 3129   2.800   0.526   2.465  0.0480  0.4874  0.0345
  783SOL    HW1 3130   2.735   0.499   2.395  0.0263  0.3302  1.0391
  783SOL    HW2 3131   2.754   0.486   2.542 -2.4253  1.4945 -1.9396
  783SOL     MW 3132   2.785   0.517   2.466 -0.2812  0.5995 -0.0934
  784SOL     OW 3133   0.259   0.920   2.884  0.4501 -0.1179 -0.2907
  784SOL    HW1 3134   0.201   0.983   2.939  1.8447 -2.0156 -1.0687
  784SOL    HW2 3135   0.235   0.955   2.793 -1.5072 -1.1710 -0.9802
  784SOL     MW 3136   0.248   0.933   2.879  0.3759 -0.5072 -0.4843
  785SOL     OW 3137   0.410   0.495   2.135 -0.7024 -0.1445  0.1245
  785SOL    HW1 3138   0.419   0.531   2.040  0.7296 -2.4554 -2.0643
  785SOL    HW2 3139   0.334   0.438   2.149 -2.0883 -1.2865 -1.5431
  785SOL     MW 3140   0.401   0.493   2.124 -0.6963 -0.6001 -0.3843
  786SOL     OW 3141   1.970   0.445   2.846 -0.0583 -0.1867  0.0487
  786SOL    HW1 3142   1.978   0.493   2.929  1.9666  2.8900  1.2076
  786SOL    HW2 3143   2.058   0.442   2.824  1.2360 -0.8187  0.9655
  786SOL     MW 3144   1.983   0.451   2.854  0.3796  0.1359  0.3225
  787SOL     OW 3145   2.414   0.139   2.885 -0.3994  0.4831  0.2165
  787SOL    HW1 3146   2.484   0.081   2.834  0.6910  0.2530  0.1792
  787SOL    HW2 3147   2.467   0.211   2.933 -1.5748 -0.0007 -1.7567
  787SOL     MW 3148   2.430   0.141   2.885 -0.4106  0.3889 -0.0487
  788SOL     OW 3149   2.947   2.913   2.271 -0.0797  0.5865 -0.5983
  788SOL    HW1 3150   2.910   2.882   2.190  0.4833  1.0233  2.5177
  788SOL    HW2 3151   2.974   2.838   2.320  0.9245 -0.0462 -0.7587
  788SOL     MW 3152   2.945   2.899   2.267  0.1271  0.5607 -0.2084
  789SOL     OW 3153   0.061   0.227   2.988 -0.3113  0.2823  0.0566
  789SOL    HW1 3154  -0.029   0.194   2.994  2.0050 -1.0888 -0.6795
  789SOL    HW2 3155   0.050   0.323   3.006 -0.2786  2.2510  2.5975
  789SOL     MW 3156   0.047   0.236   2.991 -0.0014  0.3612  0.2947
  790SOL     OW 3157   0.030   1.023   2.449  0.0317  0.0549  0.5675
  790SOL    HW1 3158  -0.033   1.007   2.516  0.4689  2.5081  0.6895
  790SOL    HW2 3159  -0.023   1.027   2.372 -0.6171  1.9980  1.9153
  790SOL     MW 3160   0.015   1.021   2.448  0.0038  0.6349  0.7614
  791SOL     OW 3161   2.677   0.378   2.666 -0.6082 -0.1429 -0.0534
  791SOL    HW1 3162   2.612   0.442   2.683  1.5083 -2.1773 -1.9383
  791SOL    HW2 3163   2.757   0.405   2.712 -1.5795 -2.5889  0.0514
  791SOL     MW 3164   2.679   0.390   2.674 -0.4571 -0.7341 -0.2882
  792SOL     OW 3165   2.412   0.236   2.389 -0.6973  0.2507  0.3364
  792SOL    HW1 3166   2.333   0.275   2.438 -0.9420 -1.5945  1.6631
  792SOL    HW2 3167   2.475   0.189   2.456 -0.6949 -2.6365  0.3791
  792SOL     MW 3168   2.410   0.235   2.404 -0.7293 -0.3737  0.5171
  793SOL     OW 3169   1.762   1.007   1.894  0.3514 -0.0645 -0.4912
  793SOL    HW1 3170   1.740   1.087   1.836 -1.7252 -0.7471  0.1475
  793SOL    HW2 3171   1.852   0.986   1.872 -1.0978  0.5378 -1.4282
  793SOL     MW 3172   1.771   1.014   1.883 -0.1138 -0.0751 -0.5306
  794SOL     OW 3173   1.424   2.278   0.116  0.1557  0.2980  0.2629
  794SOL    HW1 3174   1.460   2.342   0.058  2.9556 -1.3818  1.4764
  794SOL    HW2 3175   1.451   2.308   0.201 -0.0112  2.1253  0.0416
  794SOL     MW 3176   1.432   2.290   0.120  0.5031  0.3174  0.3938
  795SOL     OW 3177   2.255   0.935   2.608  0.7120 -0.1681  0.4547
  795SOL    HW1 3178   2.277   1.008   2.667  1.6136  0.6111 -0.3879
  795SOL    HW2 3179   2.268   0.970   2.520  0.0509 -0.9807 -2.3093
  795SOL     MW 3180   2.259   0.950   2.604  0.7437 -0.1725 -0.0211
  796SOL     OW 3181   0.351   0.683   2.737 -0.1384  0.1599  0.4326
  796SOL    HW1 3182   0.326   0.744   2.806  2.0231 -0.9432  0.9923
  796SOL    HW2 3183   0.262   0.650   2.707  2.0176  0.5968 -0.9518
  796SOL     MW 3184   0.336   0.687   2.742  0.4313  0.0720  0.3238
  797SOL     OW 3185   2.580   0.116   2.554  0.1782  0.2332 -0.0917
  797SOL    HW1 3186   2.605   0.200   2.601 -0.1492  4.9947  0.0474
  797SOL    HW2 3187   2.639   0.106   2.477 -0.9710 -1.1789 -0.6504
  797SOL     MW 3188   2.591   0.125   2.550 -0.0166  0.6751 -0.1471
  798SOL     OW 3189   2.337   0.029   2.206  0.1791  0.1400  0.2499
  798SOL    HW1 3190   2.351   0.108   2.267 -2.2717  1.7058 -2.0781
  798SOL    HW2 3191   2.428  -0.008   2.194  1.8897 -1.9451 -0.3169
  798SOL     MW 3192   2.351   0.034   2.213  0.0815  0.0715 -0.1321
  799SOL     OW 3193   2.483   2.907   0.194  0.2349  0.4031  0.0510
  799SOL    HW1 3194   2.451   2.838   0.132 -1.0494 -2.2177  1.2991
  799SOL    HW2 3195   2.455   2.989   0.163  1.3392  0.8622 -0.7194
  799SOL     MW 3196   2.475   2.908   0.182  0.2111  0.1179  0.1140
  800SOL     OW 3197   1.886   3.079   1.772  0.3115  0.6670 -0.2331
  800SOL    HW1 3198   1.831   3.004   1.794  1.0202  0.1553  2.2259
  800SOL    HW2 3199   1.953   3.073   1.842  1.4411  0.4667  0.1575
  800SOL     MW 3200   1.887   3.068   1.784  0.5541  0.5731  0.1429
  801SOL     OW 3201   2.801   1.311   2.609 -0.0235 -0.6964 -0.6513
  801SOL    HW1 3202   2.767   1.219   2.588 -0.8473  1.0297 -0.8154
  801SOL    HW2 3203   2.891   1.304   2.577  0.7951  2.0280 -1.8331
  801SOL     MW 3204   2.808   1.298   2.602 -0.0242 -0.1092 -0.8289
  802SOL     OW 3205   2.557   1.482   2.804 -0.3799  0.0359 -0.5208
  802SOL    HW1 3206   2.546   1.390   2.770 -2.6044 -0.8065  1.4969
  802SOL    HW2 3207   2.652   1.475   2.823  4.0347 -0.5618 -2.7592
  802SOL     MW 3208   2.568   1.469   2.802 -0.0910 -0.1541 -0.5499
  803SOL     OW 3209   2.320   1.289   1.955 -0.7729  0.5970  0.5976
  803SOL    HW1 3210   2.269   1.249   2.023  0.1398  0.6090  2.0993
  803SOL    HW2 3211   2.324   1.227   1.885 -0.8025 -1.4033  0.0913
  803SOL     MW 3212   2.314   1.276   1.955 -0.6564  0.3347  0.7289
  804SOL     OW 3213   2.326   0.072   0.033  0.4532  0.1947  0.1794
  804SOL    HW1 3214   2.250   0.136   0.026  0.7838 -2.6064 -0.4840
  804SOL    HW2 3215   2.368   0.078  -0.055  0.4644 -0.0979 -0.1708
  804SOL     MW 3216   2.322   0.081   0.021  0.4983 -0.2135  0.0457
  805SOL     OW 3217   2.738   1.040   2.543  0.3064  0.1931 -0.2791
  805SOL    HW1 3218   2.667   0.972   2.530  1.4504 -1.7120 -0.2554
  805SOL    HW2 3219   2.808   0.993   2.595  1.6293 -0.8900  0.2587
  805SOL     MW 3220   2.738   1.025   2.548  0.6319 -0.2011 -0.2050
  806SOL     OW 3221   2.644   0.397   2.283  0.1672 -0.4713  0.4014
  806SOL    HW1 3222   2.552   0.392   2.315  1.6422 -1.7085  2.1638
  806SOL    HW2 3223   2.645   0.472   2.217  1.3492 -1.7939 -2.1828
  806SOL     MW 3224   2.632   0.406   2.278  0.5178 -0.8091  0.2930
  807SOL     OW 3225   3.071   1.127   2.038 -0.1809  0.1115 -0.3834
  807SOL    HW1 3226   3.127   1.049   2.042 -0.5187 -1.0099 -0.3390
  807SOL    HW2 3227   3.024   1.117   2.124  0.7294 -0.7085  0.4604
  807SOL     MW 3228   3.072   1.116   2.050 -0.1054 -0.1446 -0.2662
  808SOL     OW 3229   2.582   3.056   2.780 -0.2569  0.0801  0.4011
  808SOL    HW1 3230   2.522   2.980   2.777 -3.2439  0.3847 -0.6446
  808SOL    HW2 3231   2.587   3.085   2.685  2.1469  0.2712  2.2125
  808SOL     MW 3232   2.575   3.050   2.767 -0.3339  0.1455  0.5021
  809SOL     OW 3233   2.492   1.238   2.416  0.0940  0.2731 -0.2332
  809SOL    HW1 3234   2.528   1.218   2.510 -1.8030  1.2087  2.4825
  809SOL    HW2 3235   2.568   1.245   2.355  1.7959 -1.1721 -0.4185
  809SOL     MW 3236   2.507   1.236   2.420  0.0683  0.2058  0.1006
  810SOL     OW 3237   2.195   1.205   2.185  0.2540  0.3588 -0.6850
  810SOL    HW1 3238   2.255   1.145   2.243 -1.3671  0.9807  3.0964
  810SOL    HW2 3239   2.132   1.145   2.143 -1.6365 -0.8574  2.3747
  810SOL     MW 3240   2.194   1.189   2.187 -0.2093  0.2804  0.2176
  811SOL     OW 3241   1.489   0.098   2.254 -0.5264 -0.2317 -0.2527
  811SOL    HW1 3242   1.559   0.028   2.271 -0.5380  1.7920  2.0750
  811SOL    HW2 3243   1.478   0.084   2.152 -1.9227  2.6677 -2.1086
  811SOL     MW 3244   1.497   0.087   2.243 -0.7121  0.4178 -0.1904
  812SOL     OW 3245   1.393   2.764   2.071 -0.2774 -0.5022  0.1771
  812SOL    HW1 3246   1.484   2.789   2.093  2.2398 -0.3429 -0.2256
  812SOL    HW2 3247   1.356   2.759   2.160  0.6764 -1.2864  0.4902
  812SOL     MW 3248   1.400   2.767   2.085  0.1805 -0.5846  0.1653
  813SOL     OW 3249   1.817   0.801   2.185 -0.0639 -0.5663  0.1253
  813SOL    HW1 3250   1.795   0.716   2.220 -2.0524 -1.5984  0.3726
  813SOL    HW2 3251   1.887   0.825   2.249  0.3377 -1.4827 -3.9289
  813SOL     MW 3252   1.823   0.793   2.198 -0.2733 -0.8234 -0.3770
  814SOL     OW 3253   2.753   1.220   1.607  0.7719 -0.4602  0.1433
  814SOL    HW1 3254   2.678   1.213   1.675  0.9535 -0.6429 -1.0077
  814SOL    HW2 3255   2.730   1.168   1.527  0.1723 -2.6165  0.0633
  814SOL     MW 3256   2.740   1.212   1.606  0.7168 -0.7688 -0.0191
  815SOL     OW 3257   2.447   1.628   2.361 -0.0695 -1.1253  0.1955
  815SOL    HW1 3258   2.384   1.556   2.356  1.9966  1.1579 -1.0936
  815SOL    HW2 3259   2.527   1.583   2.393 -2.1764 -0.8358 -0.2880
  815SOL     MW 3260   2.449   1.613   2.364 -0.0749 -0.7859 -0.0384
  816SOL     OW 3261   0.634   0.645   2.749 -0.5106  1.0243 -0.8424
  816SOL    HW1 3262   0.668   0.556   2.779 -0.0438  3.5458  0.3984
  816SOL    HW2 3263   0.577   0.629   2.668 -0.3705  0.2183 -0.4821
  816SOL     MW 3264   0.631   0.631   2.742 -0.4305  1.2507 -0.6311
  817SOL     OW 3265   3.038   1.144   1.397 -0.0979  0.7017 -0.0162
  817SOL    HW1 3266   3.109   1.148   1.463  0.5925 -2.1120 -1.6621
  817SOL    HW2 3267   3.033   1.232   1.357 -3.4275 -1.6155 -0.4359
  817SOL     MW 3268   3.046   1.156   1.401 -0.4462  0.0247 -0.2887
  818SOL     OW 3269   1.942   0.991   2.701 -0.0883 -0.1297 -0.5518
  818SOL    HW1 3270   1.993   1.035   2.629  0.6407  1.2846 -0.1569
  818SOL    HW2 3271   1.972   0.899   2.694  1.5442  1.3156 -1.7472
  818SOL     MW 3272   1.953   0.985   2.690  0.2233  0.2476 -0.6574
  819SOL     OW 3273   1.831   0.246   2.360 -0.1938  0.4991  0.8555
  819SOL    HW1 3274   1.751   0.291   2.399 -1.2425  1.2656 -0.7914
  819SOL    HW2 3275   1.889   0.216   2.434  0.8667 -1.4806  0.9181
  819SOL     MW 3276   1.828   0.248   2.375 -0.1923  0.3391  0.6465
  820SOL     OW 3277   2.484   1.711   2.632 -0.4158  0.2411 -0.1119
  820SOL    HW1 3278   2.489   1.641   2.699  0.1454 -2.3430 -1.7015
  820SOL    HW2 3279   2.453   1.656   2.556 -0.7037 -1.9070 -2.3166
  820SOL     MW 3280   2.481   1.694   2.631 -0.3798 -0.3832 -0.6125
  821SOL     OW 3281   2.577   1.341   2.024  0.0268 -0.4540  0.4903
  821SOL    HW1 3282   2.598   1.405   1.958 -0.1749  0.4057  2.2080
  821SOL    HW2 3283   2.482   1.335   2.016  0.6369  1.4641  0.8828
  821SOL     MW 3284   2.567   1.349   2.014  0.0807 -0.0875  0.7687
  822SOL     OW 3285   2.866   2.688   1.397  0.4947  0.1127 -0.3232
  822SOL    HW1 3286   2.826   2.761   1.436 -0.0963  0.5219 -1.0503
  822SOL    HW2 3287   2.922   2.716   1.327  1.2391 -0.4586  2.8107
  822SOL     MW 3288   2.868   2.702   1.393  0.5149  0.0913 -0.0057
  823SOL     OW 3289   2.280   0.470   1.762  0.4192  0.0001  0.2921
  823SOL    HW1 3290   2.355   0.415   1.729 -2.0578 -2.9497  1.1700
  823SOL    HW2 3291   2.212   0.410   1.739  2.1890 -0.8269  1.6814
  823SOL     MW 3292   2.281   0.455   1.755  0.3259 -0.4982  0.5913
  824SOL     OW 3293   2.116   1.344   2.540 -0.1018 -0.9345  0.5355
  824SOL    HW1 3294   2.166   1.372   2.454  1.7883  1.6145  1.3976
  824SOL    HW2 3295   2.089   1.429   2.574 -0.0911  1.2704 -0.0813
  824SOL     MW 3296   2.119   1.359   2.533  0.1490 -0.3072  0.5679
  825SOL     OW 3297   2.194   2.421   0.406  0.5527 -1.0434 -0.5654
  825SOL    HW1 3298   2.267   2.362   0.371  0.6396  2.5397  0.7063
  825SOL    HW2 3299   2.185   2.417   0.500  0.6626 -3.1686 -1.8839
  825SOL     MW 3300   2.203   2.413   0.413  0.5786 -0.8511 -0.5716
  826SOL     OW 3301   1.744   2.333   0.397 -0.2577 -0.0967 -0.0652
  826SOL    HW1 3302   1.770   2.282   0.478  0.2281 -0.5695  1.8545
  826SOL    HW2 3303   1.715   2.410   0.438  0.9675 -2.5156  0.8238
  826SOL     MW 3304   1.743   2.336   0.413 -0.0319 -0.4782  0.3054
  827SOL     OW 3305   1.940   2.288   0.908 -0.0709  0.1042 -0.2060
  827SOL    HW1 3306   1.881   2.309   0.834 -2.6157 -2.8339  0.7365
  827SOL    HW2 3307   1.883   2.220   0.947 -3.2400  1.5092 -0.9732
  827SOL     MW 3308   1.925   2.282   0.903 -0.8248 -0.0981 -0.1829
  828SOL     OW 3309   0.072   2.619   0.570 -0.6236 -0.2931  0.0309
  828SOL    HW1 3310   0.167   2.613   0.569  0.9822  1.0410 -2.2489
  828SOL    HW2 3311   0.051   2.679   0.494 -0.8947  0.3418 -0.4887
  828SOL     MW 3312   0.082   2.626   0.560 -0.4475 -0.0333 -0.3385
  829SOL     OW 3313   3.007   2.898   1.190 -0.3076 -0.0502 -0.1337
  829SOL    HW1 3314   2.932   2.895   1.136  0.9513 -2.3548  2.4043
  829SOL    HW2 3315   3.051   2.818   1.182  0.9966  0.1645  1.4224
  829SOL     MW 3316   3.003   2.887   1.182  0.0306 -0.3260  0.4065
  830SOL     OW 3317   2.543   2.781   2.001 -0.7016  0.2220  0.0612
  830SOL    HW1 3318   2.456   2.815   1.964  3.0124 -1.2779  0.7796
  830SOL    HW2 3319   2.594   2.774   1.916 -0.8833 -0.1615  0.1494
  830SOL     MW 3320   2.539   2.785   1.985 -0.2356 -0.0265  0.1676
  831SOL     OW 3321   2.482   2.445   1.177 -0.2027 -0.5937 -0.0975
  831SOL    HW1 3322   2.456   2.385   1.242  0.6141 -0.1996  1.1200
  831SOL    HW2 3323   2.576   2.420   1.153 -1.5517 -1.5798 -0.4768
  831SOL     MW 3324   2.491   2.434   1.182 -0.2729 -0.6718  0.0131
  832SOL     OW 3325   2.419   2.134   1.859 -0.2470  0.1399  0.8079
  832SOL    HW1 3326   2.459   2.215   1.884  1.0452 -1.6169  0.8569
  832SOL    HW2 3327   2.488   2.064   1.859  1.2552  2.8254 -1.1400
  832SOL     MW 3328   2.433   2.136   1.863  0.1217  0.2625  0.5574
  833SOL     OW 3329   1.671   2.602   0.898 -0.7514 -0.6231 -0.1888
  833SOL    HW1 3330   1.625   2.527   0.946  1.3734  2.5438  0.3414
  833SOL    HW2 3331   1.601   2.669   0.885  2.3122  1.8605 -1.8406
  833SOL     MW 3332   1.656   2.601   0.903 -0.0669  0.1224 -0.3368
  834SOL     OW 3333   2.258   2.348   0.686  0.1016 -0.1558  0.6071
  834SOL    HW1 3334   2.220   2.287   0.745 -0.9130  1.8288 -1.9600
  834SOL    HW2 3335   2.340   2.303   0.667  0.2730 -3.1458 -0.6840
  834SOL     MW 3336   2.264   2.334   0.692 -0.0096 -0.2884  0.0981
  835SOL     OW 3337   1.743   2.542   0.620 -0.7168 -0.2940 -0.6122
  835SOL    HW1 3338   1.718   2.551   0.714  0.6328  3.6740 -2.0256
  835SOL    HW2 3339   1.838   2.530   0.612 -0.6682  1.1680  1.4000
  835SOL     MW 3340   1.752   2.542   0.632 -0.5323  0.4224 -0.5332
  836SOL     OW 3341   2.045   2.121   1.671  0.3224 -0.4291  0.2244
  836SOL    HW1 3342   2.137   2.127   1.654 -0.0471 -2.2645 -0.7243
  836SOL    HW2 3343   2.020   2.211   1.693 -0.5396 -0.1812  0.4398
  836SOL     MW 3344   2.054   2.133   1.672  0.1599 -0.6386  0.1277
  837SOL     OW 3345   2.109   0.201   0.642 -0.1940  0.1474 -0.1870
  837SOL    HW1 3346   2.017   0.212   0.607 -1.3238  0.6227 -4.2509
  837SOL    HW2 3347   2.144   0.127   0.578 -4.0132 -2.2248 -1.9155
  837SOL     MW 3348   2.101   0.193   0.629 -0.8469 -0.1029 -0.9512
  838SOL     OW 3349   2.859   2.074   0.910  0.0017 -0.4570 -0.3316
  838SOL    HW1 3350   2.798   2.003   0.942 -2.3925  0.4017  0.9121
  838SOL    HW2 3351   2.918   2.081   0.985  1.7836 -0.2993  0.0621
  838SOL     MW 3352   2.858   2.065   0.924 -0.0791 -0.3229 -0.1155
  839SOL     OW 3353   1.572   2.366   1.036 -0.0877  0.4677  0.3859
  839SOL    HW1 3354   1.555   2.445   1.099  0.5665  0.2797 -2.1597
  839SOL    HW2 3355   1.617   2.295   1.093  3.4084 -1.7970  3.5981
  839SOL     MW 3356   1.576   2.367   1.052  0.4599  0.1441  0.4739
  840SOL     OW 3357   2.400   2.092   2.397  0.6377  0.3108 -0.1156
  840SOL    HW1 3358   2.368   2.168   2.345  1.3859  1.9154 -2.8075
  840SOL    HW2 3359   2.442   2.133   2.474 -0.0341 -0.9155  0.1687
  840SOL     MW 3360   2.401   2.108   2.401  0.6478  0.3607 -0.4333
  841SOL     OW 3361   2.322   2.354   0.080 -0.2881 -1.1856  0.1719
  841SOL    HW1 3362   2.294   2.431   0.027 -0.5417 -0.0019  1.9084
  841SOL    HW2 3363   2.244   2.298   0.073 -0.6366 -1.8971  2.7064
  841SOL     MW 3364   2.308   2.357   0.072 -0.3675 -1.1233  0.7354
  842SOL     OW 3365   2.667   1.934   1.413 -0.2162 -0.4284  0.2235
  842SOL    HW1 3366   2.609   1.862   1.433  0.4501 -2.1966 -0.8656
  842SOL    HW2 3367   2.645   1.963   1.323  0.1294 -0.7065 -1.2902
  842SOL     MW 3368   2.656   1.928   1.404 -0.0827 -0.6984 -0.1199
  843SOL     OW 3369   2.638   2.778   1.742  0.6847  0.4714 -0.2681
  843SOL    HW1 3370   2.715   2.727   1.766 -2.2240 -0.4351 -1.1455
  843SOL    HW2 3371   2.573   2.715   1.708  0.0479 -2.5265  1.2950
  843SOL     MW 3372   2.639   2.763   1.741  0.2169 -0.0438 -0.1776
  844SOL     OW 3373   2.723   2.335   1.123 -0.2818 -0.0593 -0.7776
  844SOL    HW1 3374   2.720   2.378   1.038 -3.7055  0.0629  0.5873
  844SOL    HW2 3375   2.788   2.377   1.176 -2.6424  0.5110 -0.3151
  844SOL     MW 3376   2.731   2.347   1.119 -1.0450  0.0321 -0.5365
  845SOL     OW 3377   2.841   2.563   0.285 -0.2427  0.3668  0.4639
  845SOL    HW1 3378   2.828   2.477   0.325 -0.7356 -1.4626  2.4823
  845SOL    HW2 3379   2.840   2.629   0.354 -0.3574  0.2381  1.2553
  845SOL     MW 3380   2.839   2.560   0.300 -0.3229  0.1084  0.8346
  846SOL     OW 3381   1.451   2.810   0.782  0.3947 -0.9708 -0.5178
  846SOL    HW1 3382   1.513   2.886   0.792 -0.0147 -0.3079  1.7888
  846SOL    HW2 3383   1.359   2.845   0.786 -1.3722 -0.3954  0.2189
  846SOL     MW 3384   1.447   2.825   0.784  0.1076 -0.8074 -0.1163
  847SOL     OW 3385   2.490   1.873   0.195 -0.2139 -0.1727 -0.3679
  847SOL    HW1 3386   2.461   1.793   0.232  1.9724  1.9274 -0.4311
  847SOL    HW2 3387   2.464   1.876   0.099  0.7877 -0.0083  1.7085
  847SOL     MW 3388   2.482   1.863   0.187  0.2067  0.1261 -0.1023
  848SOL     OW 3389   2.638   2.093   1.192  1.1248  0.0242  0.0040
  848SOL    HW1 3390   2.689   2.165   1.166 -1.5508  0.1963  3.0656
  848SOL    HW2 3391   2.637   2.034   1.115  0.1217 -2.4886 -0.3266
  848SOL     MW 3392   2.645   2.095   1.178  0.6395 -0.2847  0.3643
  849SOL     OW 3393   1.979   2.854   0.794  0.1048  0.3603 -0.4439
  849SOL    HW1 3394   1.943   2.807   0.873 -0.5307 -1.7105 -1.1649
  849SOL    HW2 3395   2.048   2.797   0.757 -0.5241  0.2645 -0.8508
  849SOL     MW 3396   1.984   2.840   0.800 -0.0621  0.0745 -0.5927
  850SOL     OW 3397   2.336   1.845   1.645 -0.1849  0.4365 -0.5425
  850SOL    HW1 3398   2.258   1.820   1.590  0.8407 -1.0712 -3.4852
  850SOL    HW2 3399   2.357   1.938   1.620  1.0099  2.5661  0.9686
  850SOL     MW 3400   2.329   1.854   1.634  0.1081  0.5185 -0.7314
  851SOL     OW 3401   2.412   2.269   0.328 -0.0103 -0.2115  0.7779
  851SOL    HW1 3402   2.400   2.308   0.243  1.1375 -0.1216  2.2062
  851SOL    HW2 3403   2.454   2.340   0.382  0.9682  0.8325  3.1150
  851SOL     MW 3404   2.416   2.284   0.324  0.2702 -0.0619  1.2747
  852SOL     OW 3405   2.316   1.996   0.343  0.1413 -0.0612  0.0023
  852SOL    HW1 3406   2.349   2.085   0.337  0.1138 -1.5585 -0.0507
  852SOL    HW2 3407   2.369   1.949   0.275 -1.1243 -1.1718  3.5223
  852SOL     MW 3408   2.328   2.002   0.333 -0.0293 -0.4053  0.4597
  853SOL     OW 3409   2.513   2.385   1.927 -0.0635 -0.2891 -0.0744
  853SOL    HW1 3410   2.503   2.442   1.850 -0.1945  0.6747 -2.1573
  853SOL    HW2 3411   2.606   2.378   1.954  0.2270 -0.0099  1.8113
  853SOL     MW 3412   2.524   2.392   1.920 -0.0424 -0.1251 -0.1004
  854SOL     OW 3413   2.851   2.259   0.722  0.1453  0.0274 -0.0992
  854SOL    HW1 3414   2.789   2.230   0.653 -0.1869 -0.6878 -1.0092
  854SOL    HW2 3415   2.867   2.180   0.781  0.0252  0.4883  0.7216
  854SOL     MW 3416   2.845   2.245   0.720  0.0856 -0.0062 -0.1110
  855SOL     OW 3417   2.771   2.361   0.448 -0.2846  0.4627 -0.1237
  855SOL    HW1 3418   2.681   2.382   0.465 -0.3216 -1.8009  2.4509
  855SOL    HW2 3419   2.772   2.267   0.419  0.7780 -0.8198  0.8295
  855SOL     MW 3420   2.759   2.352   0.446 -0.1493 -0.0052  0.3418
  856SOL     OW 3421   2.067   1.898   0.266 -0.1471 -0.0238  0.2394
  856SOL    HW1 3422   1.983   1.926   0.302 -2.8605 -1.2679 -1.4383
  856SOL    HW2 3423   2.135   1.951   0.311  0.5621 -0.8655 -0.6319
  856SOL     MW 3424   2.065   1.909   0.277 -0.4115 -0.2990 -0.0969
  857SOL     OW 3425   2.515   1.945   0.542 -0.2815 -0.1881  0.5336
  857SOL    HW1 3426   2.452   1.943   0.470 -1.4236  0.7392  1.4749
  857SOL    HW2 3427   2.450   1.927   0.606 -2.0287 -1.1055 -1.9428
  857SOL     MW 3428   2.498   1.942   0.541 -0.6627 -0.1868  0.3311
  858SOL     OW 3429   2.882   2.671   1.788 -0.4291  0.6653 -0.1807
  858SOL    HW1 3430   2.952   2.721   1.749  0.3948 -0.3009  0.6771
  858SOL    HW2 3431   2.903   2.578   1.771  3.4021 -0.6117  0.5775
  858SOL     MW 3432   2.894   2.665   1.780  0.1851  0.3693  0.0325
  859SOL     OW 3433   1.894   2.718   1.013 -0.8929 -0.4976  0.0815
  859SOL    HW1 3434   1.805   2.694   0.985 -2.4957 -3.8610  0.2828
  859SOL    HW2 3435   1.953   2.644   1.025 -0.9807 -2.2101 -0.1537
  859SOL     MW 3436   1.890   2.705   1.011 -1.1160 -1.1673  0.0771
  860SOL     OW 3437   2.600   2.645   0.167  0.0852 -0.4217  0.0910
  860SOL    HW1 3438   2.684   2.641   0.221  0.3295 -2.0747  0.1813
  860SOL    HW2 3439   2.619   2.701   0.097 -0.2130 -0.9968  1.7651
  860SOL     MW 3440   2.614   2.652   0.165  0.0781 -0.7157  0.3238
  861SOL     OW 3441   1.647   2.154   1.199 -0.1429 -0.3401 -0.0646
  861SOL    HW1 3442   1.652   2.236   1.249 -0.8474  0.0891 -1.5653
  861SOL    HW2 3443   1.562   2.118   1.219 -0.4538 -1.2206  0.4884
  861SOL     MW 3444   1.636   2.160   1.208 -0.2769 -0.3996 -0.1896
  862SOL     OW 3445   2.486   1.743   1.418 -1.2392  0.4989 -0.3110
  862SOL    HW1 3446   2.433   1.734   1.497 -1.1404  1.5595 -1.0616
  862SOL    HW2 3447   2.423   1.751   1.350 -1.3012  0.1954  2.9505
  862SOL     MW 3448   2.471   1.743   1.420 -1.2344  0.5988  0.0203
  863SOL     OW 3449   3.011   1.707   0.965 -0.1973 -0.4970 -0.1297
  863SOL    HW1 3450   3.073   1.656   1.018  3.2872  2.7475  1.3554
  863SOL    HW2 3451   2.959   1.761   1.022  0.2297 -1.9144  2.2117
  863SOL     MW 3452   3.013   1.708   0.980  0.3188 -0.2559  0.3752
  864SOL     OW 3453   0.012   1.816   0.747  0.3034 -0.3097  0.0611
  864SOL    HW1 3454  -0.036   1.794   0.826 -0.7149  2.7376 -1.0174
  864SOL    HW2 3455  -0.040   1.775   0.676  0.7215 -0.6533  1.3592
  864SOL     MW 3456  -0.002   1.807   0.748  0.2242  0.0470  0.0900
  865SOL     OW 3457   2.600   2.180   0.091 -0.4205 -0.4636  0.4584
  865SOL    HW1 3458   2.596   2.102   0.149 -2.8366 -0.0688  0.7172
  865SOL    HW2 3459   2.564   2.144   0.011  0.0045  3.2435 -2.5365
  865SOL     MW 3460   2.595   2.165   0.088 -0.6832  0.0776  0.0974
  866SOL     OW 3461   2.665   2.393   1.527  0.3079  0.0361  0.3568
  866SOL    HW1 3462   2.639   2.302   1.539 -1.4464 -1.2610 -1.3148
  866SOL    HW2 3463   2.725   2.402   1.453 -4.5741  2.1690  0.3166
  866SOL     MW 3464   2.669   2.382   1.518 -0.5677  0.1464  0.1310
  867SOL     OW 3465   0.112   2.648   1.755 -0.1567  0.1941 -0.1731
  867SOL    HW1 3466   0.162   2.710   1.808 -1.1406  1.6079 -3.1951
  867SOL    HW2 3467   0.095   2.691   1.676 -0.0371 -1.5329  1.5086
  867SOL     MW 3468   0.116   2.662   1.751 -0.2707  0.1528 -0.3500
  868SOL     OW 3469   2.759   2.703   0.513  0.1205  0.2085  0.0496
  868SOL    HW1 3470   2.725   2.613   0.535 -2.4258  3.8304 -3.8359
  868SOL    HW2 3471   2.685   2.761   0.506 -1.7541 -0.5692  1.2051
  868SOL     MW 3472   2.745   2.698   0.515 -0.4628  0.5838 -0.3106
  869SOL     OW 3473   2.065   2.504   1.043  0.1363  0.4507  0.3185
  869SOL    HW1 3474   2.132   2.559   1.005 -0.8430  2.4415  0.2993
  869SOL    HW2 3475   2.038   2.431   0.987 -2.5196 -2.0835  1.9300
  869SOL     MW 3476   2.070   2.502   1.031 -0.3434  0.3790  0.5286
  870SOL     OW 3477   2.203   0.015   0.468  0.3885 -0.5368  0.5133
  870SOL    HW1 3478   2.284   0.037   0.416  1.6404  0.1639  0.8321
  870SOL    HW2 3479   2.222  -0.067   0.506  0.7868  2.6325 -1.6669
  870SOL     MW 3480   2.216   0.007   0.466  0.6062 -0.0262  0.2677
  871SOL     OW 3481   2.469   2.104   0.861 -0.3221  0.5860  0.5472
  871SOL    HW1 3482   2.397   2.043   0.840  3.2927 -2.3444  0.4591
  871SOL    HW2 3483   2.425   2.170   0.917  0.7991  0.4119  0.7986
  871SOL     MW 3484   2.454   2.105   0.865  0.3028  0.1764  0.5687
  872SOL     OW 3485   2.126   2.569   1.537  0.2910 -0.0300  0.2272
  872SOL    HW1 3486   2.051   2.604   1.588 -0.4388  0.2568  0.9317
  872SOL    HW2 3487   2.092   2.509   1.468  1.0500 -0.9797 -2.2071
  872SOL     MW 3488   2.112   2.566   1.534  0.2949 -0.1174 -0.0011
  873SOL     OW 3489   2.850   2.089   1.828 -0.0599  0.0292  0.2863
  873SOL    HW1 3490   2.838   2.166   1.878  1.9497  0.0129 -1.3196
  873SOL    HW2 3491   2.922   2.121   1.766  1.9849  1.1743  1.9501
  873SOL     MW 3492   2.858   2.104   1.826  0.4750  0.1782  0.2939
  874SOL     OW 3493   2.290   1.424   2.328 -0.1446  0.0998 -0.2696
  874SOL    HW1 3494   2.257   1.371   2.254  0.1840 -0.4124 -2.2758
  874SOL    HW2 3495   2.357   1.364   2.368  3.4372  0.0402  2.1167
  874SOL     MW 3496   2.295   1.409   2.323  0.3713  0.0243 -0.2194
  875SOL     OW 3497   2.349   2.351   0.953  0.4094  0.3989 -0.5032
  875SOL    HW1 3498   2.383   2.394   0.872  0.6822 -0.3554 -2.8996
  875SOL    HW2 3499   2.405   2.386   1.031  0.3017 -2.0388  0.7196
  875SOL     MW 3500   2.361   2.361   0.953  0.4312 -0.0223 -0.6580
  876SOL     OW 3501   3.093   2.259   1.346  0.2789  0.3033  0.3486
  876SOL    HW1 3502   3.121   2.286   1.257  1.1775 -0.4511  0.4524
  876SOL    HW2 3503   3.156   2.312   1.402  0.1771 -1.2106  0.7075
  876SOL     MW 3504   3.105   2.269   1.341  0.3840  0.0040  0.4097
  877SOL     OW 3505   0.058   2.763   0.334  0.2038 -0.3644  0.1755
  877SOL    HW1 3506   0.099   2.840   0.303 -1.3255 -0.0385 -1.4641
  877SOL    HW2 3507   0.037   2.703   0.266  1.5883  0.7557  1.2666
  877SOL     MW 3508   0.061   2.765   0.321  0.1847 -0.1736  0.1031
  878SOL     OW 3509   2.310   1.702   1.207 -0.1355  0.3256  0.3888
  878SOL    HW1 3510   2.232   1.679   1.270  0.1512  0.9003  1.0289
  878SOL    HW2 3511   2.359   1.619   1.177 -1.4736  0.6597 -0.3004
  878SOL     MW 3512   2.306   1.688   1.211 -0.2742  0.4455  0.3823
  879SOL     OW 3513   2.747   2.462   0.890  0.2069  0.2822  0.6678
  879SOL    HW1 3514   2.812   2.526   0.906 -1.7648 -0.4972  0.4279
  879SOL    HW2 3515   2.804   2.401   0.842  0.1875  2.0319  2.1503
  879SOL     MW 3516   2.763   2.462   0.886 -0.0558  0.4102  0.8318
  880SOL     OW 3517   2.591   2.222   0.632  0.3199  0.5225  0.1048
  880SOL    HW1 3518   2.576   2.212   0.727 -0.8348  0.3447  0.6920
  880SOL    HW2 3519   2.561   2.138   0.579 -3.9978  0.8660 -0.8441
  880SOL     MW 3520   2.585   2.209   0.637 -0.4022  0.5444  0.0571
  881SOL     OW 3521   2.947   2.762   0.702  0.3912 -0.3311 -0.6169
  881SOL    HW1 3522   2.881   2.727   0.649 -0.3275  1.6807  0.8492
  881SOL    HW2 3523   3.031   2.718   0.698 -1.3155  1.7670  0.8468
  881SOL     MW 3524   2.949   2.752   0.694  0.0712  0.2112 -0.2303
  882SOL     OW 3525   2.281   2.873   1.939 -0.8058  0.2286 -0.0505
  882SOL    HW1 3526   2.253   2.887   1.848 -0.5591 -0.4671  2.0549
  882SOL    HW2 3527   2.247   2.786   1.964  0.5914  1.0176  0.4500
  882SOL     MW 3528   2.273   2.863   1.930 -0.5889  0.2409  0.2933
  883SOL     OW 3529   2.425   2.216   1.318  0.6956 -0.4890  0.1138
  883SOL    HW1 3530   2.504   2.170   1.286 -1.9298  1.2384 -0.1223
  883SOL    HW2 3531   2.354   2.205   1.247  0.2447  0.8364 -1.2165
  883SOL     MW 3532   2.426   2.208   1.305  0.2897 -0.0862 -0.0929
  884SOL     OW 3533   1.943   1.820   1.076 -0.2521  0.2752 -0.0499
  884SOL    HW1 3534   1.897   1.901   1.048  1.0522  2.1564  0.4785
  884SOL    HW2 3535   2.034   1.843   1.071 -1.9488 -1.2530 -1.0035
  884SOL     MW 3536   1.949   1.834   1.072 -0.3039  0.3218 -0.1060
  885SOL     OW 3537   2.877   2.393   1.701  0.7973 -0.2128 -0.2597
  885SOL    HW1 3538   2.949   2.333   1.677 -2.0952  0.4378 -0.5362
  885SOL    HW2 3539   2.804   2.380   1.641  1.9594 -2.6986 -1.3083
  885SOL     MW 3540   2.877   2.383   1.690  0.5690 -0.4549 -0.4346
  886SOL     OW 3541   2.861   2.402   1.346  0.8585  0.2315 -0.8949
  886SOL    HW1 3542   2.941   2.353   1.379 -2.1484  0.4674  1.3683
  886SOL    HW2 3543   2.888   2.499   1.376 -1.7950  1.3458 -1.4059
  886SOL     MW 3544   2.875   2.408   1.354  0.1117  0.4097 -0.6637
  887SOL     OW 3545   2.368   2.696   1.516  0.0061  0.0074  0.0833
  887SOL    HW1 3546   2.377   2.700   1.421  0.9665 -1.8996  1.5763
  887SOL    HW2 3547   2.280   2.656   1.534  2.0215  0.4505  0.7816
  887SOL     MW 3548   2.357   2.691   1.506  0.3987 -0.1857  0.3724
  888SOL     OW 3549   2.054   2.171   1.362  0.1785 -0.1485  0.6866
  888SOL    HW1 3550   2.116   2.166   1.288 -0.3736  0.5519  0.2293
  888SOL    HW2 3551   2.107   2.202   1.440  0.3928  0.8097  2.4056
  888SOL     MW 3552   2.069   2.175   1.363  0.1339  0.0704  0.8531
  889SOL     OW 3553   2.278   1.913   2.031 -0.2990 -0.0597 -0.2870
  889SOL    HW1 3554   2.360   1.911   2.085 -0.9822 -0.3807 -1.3125
  889SOL    HW2 3555   2.278   1.988   1.971 -0.2094  0.8458 -1.3508
  889SOL     MW 3556   2.289   1.923   2.031 -0.3773  0.0174 -0.5626
  890SOL     OW 3557   0.037   2.347   0.163  0.3183 -0.0321 -0.7102
  890SOL    HW1 3558   0.010   2.441   0.169  0.1976 -1.0930  3.1425
  890SOL    HW2 3559  -0.001   2.303   0.242 -2.0078 -0.0251  1.8130
  890SOL     MW 3560   0.029   2.353   0.174 -0.0046 -0.1711  0.1310
  891SOL     OW 3561   2.994   2.043   1.156  0.7902 -0.4349 -0.0991
  891SOL    HW1 3562   3.082   2.007   1.152 -1.4252  0.6526 -1.0391
  891SOL    HW2 3563   2.988   2.099   1.232 -1.1521  2.2448 -1.6921
  891SOL     MW 3564   3.005   2.046   1.166  0.2416  0.0622 -0.4333
  892SOL     OW 3565   2.495   2.405   2.833  0.1921 -0.0700 -0.0335
  892SOL    HW1 3566   2.475   2.328   2.887 -2.6143 -0.6300 -2.1118
  892SOL    HW2 3567   2.596   2.426   2.846  0.1744  0.8949 -3.4924
  892SOL     MW 3568   2.506   2.397   2.842 -0.1805 -0.0165 -0.7641
  893SOL     OW 3569   1.677   2.378   1.383  0.0483 -0.2031  0.3999
  893SOL    HW1 3570   1.588   2.380   1.415 -1.7497 -1.4986  0.8545
  893SOL    HW2 3571   1.716   2.447   1.435 -2.2827  0.5729  0.6653
  893SOL     MW 3572   1.670   2.387   1.394 -0.4965 -0.2717  0.4949
  894SOL     OW 3573   2.758   1.865   0.471 -0.0382  0.5631 -0.4028
  894SOL    HW1 3574   2.661   1.884   0.504 -3.9617 -0.5206  0.2867
  894SOL    HW2 3575   2.740   1.847   0.378 -0.4018 -0.5972 -2.2553
  894SOL     MW 3576   2.743   1.865   0.463 -0.6038  0.2670 -0.5562
  895SOL     OW 3577   2.203   2.188   1.114  0.5862 -0.2080 -0.8191
  895SOL    HW1 3578   2.234   2.249   1.048 -1.8041 -0.8803 -0.9756
  895SOL    HW2 3579   2.181   2.113   1.066  2.7892  0.6429  0.5463
  895SOL     MW 3580   2.205   2.186   1.099  0.5615 -0.1845 -0.6596
  896SOL     OW 3581   2.215   2.754   1.082 -0.4000 -0.1751 -0.1502
  896SOL    HW1 3582   2.230   2.749   1.179  0.2119  1.6426  1.2088
  896SOL    HW2 3583   2.124   2.781   1.064 -0.2241 -0.5063  0.4855
  896SOL     MW 3584   2.205   2.757   1.093 -0.2961  0.0210  0.1130
  897SOL     OW 3585   3.056   3.016   3.101 -0.1897  0.4586  0.2770
  897SOL    HW1 3586   3.117   2.945   3.098  1.1479 -0.3111 -0.0692
  897SOL    HW2 3587   2.982   2.996   3.038 -2.6448  0.6653 -1.2178
  897SOL     MW 3588   3.054   3.004   3.092 -0.3371  0.3843  0.0341
  898SOL     OW 3589   2.121   0.141   1.448  1.1145 -0.2314  0.3704
  898SOL    HW1 3590   2.083   0.057   1.483  1.6010 -0.6019  0.8435
  898SOL    HW2 3591   2.091   0.145   1.358  1.1808 -1.8670  2.9007
  898SOL     MW 3592   2.112   0.130   1.440  1.1874 -0.4961  0.7667
  899SOL     OW 3593   2.885   3.035   0.599 -0.2171  0.3850  0.0693
  899SOL    HW1 3594   2.898   2.943   0.637  0.1590 -1.3237 -1.0236
  899SOL    HW2 3595   2.807   3.062   0.644 -0.9267  0.3224 -0.8923
  899SOL     MW 3596   2.876   3.026   0.610 -0.2611  0.1513 -0.2018
  900SOL     OW 3597   0.094   2.351   1.085  0.1618 -0.1373 -0.3172
  900SOL    HW1 3598   0.010   2.395   1.073  0.0412  0.4258 -0.0105
  900SOL    HW2 3599   0.112   2.315   0.999  0.2332 -1.2481  0.3854
  900SOL     MW 3600   0.085   2.352   1.072  0.1553 -0.2095 -0.1841
  901SOL     OW 3601   1.753   2.849   1.800  0.3648  0.7359 -0.4491
  901SOL    HW1 3602   1.827   2.787   1.789 -0.6444 -4.0775  0.3051
  901SOL    HW2 3603   1.680   2.831   1.741 -0.8887 -1.0966  0.4898
  901SOL     MW 3604   1.753   2.839   1.791  0.0662 -0.1410 -0.2257
  902SOL     OW 3605   2.639   2.124   1.595 -0.0816 -0.4434  0.1466
  902SOL    HW1 3606   2.653   2.061   1.519  0.3004 -0.8802 -1.6961
  902SOL    HW2 3607   2.713   2.105   1.654 -0.0011  0.4318 -0.6960
  902SOL     MW 3608   2.651   2.113   1.593 -0.0206 -0.3856 -0.2077
  903SOL     OW 3609   1.494   2.660   0.567  0.2630  0.5225 -0.4754
  903SOL    HW1 3610   1.581   2.616   0.580 -0.8328 -0.7300  4.1724
  903SOL    HW2 3611   1.487   2.717   0.654 -0.1614 -2.7846  1.4550
  903SOL     MW 3612   1.504   2.662   0.580  0.0625 -0.0791  0.3925
  904SOL     OW 3613   2.480   2.546   1.698  0.1898 -0.3328 -0.0095
  904SOL    HW1 3614   2.442   2.613   1.628  1.4830 -0.7502 -2.2127
  904SOL    HW2 3615   2.545   2.494   1.649  0.6602  0.9365  0.6158
  904SOL     MW 3616   2.484   2.548   1.683  0.4225 -0.2204 -0.2177
  905SOL     OW 3617   2.303   2.445   2.090 -0.6046  0.1044  0.0190
  905SOL    HW1 3618   2.373   2.403   2.041 -0.5926  0.6030  1.9397
  905SOL    HW2 3619   2.288   2.372   2.160 -0.1320  1.1569 -1.5648
  905SOL     MW 3620   2.310   2.430   2.093 -0.5407  0.3091  0.0634
  906SOL     OW 3621   2.502   2.519   0.759 -0.4041  0.0734 -0.4593
  906SOL    HW1 3622   2.577   2.495   0.808 -2.7095  0.0076  3.5712
  906SOL    HW2 3623   2.480   2.608   0.787 -0.5395  0.6302  0.0062
  906SOL     MW 3624   2.509   2.528   0.769 -0.7261  0.1382  0.1339
  907SOL     OW 3625   2.647   2.877   1.274 -0.5594  0.1270 -0.3836
  907SOL    HW1 3626   2.722   2.919   1.323  1.0834  2.4593  1.2922
  907SOL    HW2 3627   2.687   2.851   1.195  3.1243  4.0959 -1.7586
  907SOL     MW 3628   2.663   2.879   1.270  0.1434  0.9584 -0.3439
  908SOL     OW 3629   2.721   2.428   0.034  0.1485 -0.6342 -0.1409
  908SOL    HW1 3630   2.668   2.363   0.081 -1.8640  2.1193 -0.5432
  908SOL    HW2 3631   2.687   2.504   0.076  0.9588  1.4081  1.3744
  908SOL     MW 3632   2.709   2.429   0.046 -0.0101 -0.0014  0.0060
  909SOL     OW 3633   1.706   0.129   1.277 -0.2538 -0.5553  0.6867
  909SOL    HW1 3634   1.627   0.179   1.271  0.3034 -0.9690 -2.4500
  909SOL    HW2 3635   1.718   0.104   1.368 -0.1808 -0.6993 -0.3718
  909SOL     MW 3636   1.697   0.132   1.288 -0.1707 -0.6289  0.1332
  910SOL     OW 3637   2.141   1.640   0.390  0.2566 -0.4998 -0.1727
  910SOL    HW1 3638   2.077   1.566   0.399 -0.0764  0.2514  0.5706
  910SOL    HW2 3639   2.087   1.699   0.335 -0.3365 -1.6700  1.4368
  910SOL     MW 3640   2.126   1.638   0.384  0.1344 -0.5551  0.1378
  911SOL     OW 3641   2.334   2.128   1.574  0.2296 -0.0589  0.3008
  911SOL    HW1 3642   2.400   2.142   1.651  2.5530 -0.0279  0.7747
  911SOL    HW2 3643   2.384   2.162   1.496 -1.1605 -0.3076  0.0612
  911SOL     MW 3644   2.349   2.135   1.574  0.3528 -0.0877  0.3317
  912SOL     OW 3645   2.925   1.864   1.398 -0.1919  0.3175  0.0447
  912SOL    HW1 3646   2.958   1.899   1.321 -3.0408 -1.9493  3.4990
  912SOL    HW2 3647   2.836   1.894   1.401 -0.6877  0.2624 -0.2824
  912SOL     MW 3648   2.918   1.873   1.388 -0.6332  0.0112  0.4573
  913SOL     OW 3649   2.706   3.074   0.266 -0.0220  0.4744  0.0311
  913SOL    HW1 3650   2.798   3.039   0.279  0.1103  0.4983  0.5938
  913SOL    HW2 3651   2.661   3.014   0.206  2.1008 -3.0620 -2.1631
  913SOL     MW 3652   2.712   3.062   0.260  0.2755  0.0110 -0.1842
  914SOL     OW 3653   2.707   1.816   2.932 -0.0160 -0.1174 -0.1295
  914SOL    HW1 3654   2.743   1.908   2.941  1.1641 -0.0141 -1.7264
  914SOL    HW2 3655   2.611   1.825   2.941  2.5705  0.4216 -0.0315
  914SOL     MW 3656   2.699   1.830   2.935  0.4810 -0.0327 -0.3273
  915SOL     OW 3657   1.802   0.122   0.104  0.2199 -0.4302 -0.6803
  915SOL    HW1 3658   1.875   0.085   0.149  0.3397  0.3761  0.9617
  915SOL    HW2 3659   1.725   0.070   0.139  1.2020  0.9979  2.0539
  915SOL     MW 3660   1.802   0.110   0.115  0.3652 -0.1354 -0.1029
  916SOL     OW 3661   1.749   2.183   2.002  0.2827 -0.3078  0.1320
  916SOL    HW1 3662   1.803   2.264   1.994 -0.3568 -0.9795  0.2880
  916SOL    HW2 3663   1.787   2.137   1.928  0.8892  1.6195  0.2972
  916SOL     MW 3664   1.761   2.188   1.991  0.2783 -0.1421  0.1744
  917SOL     OW 3665   2.515   2.239   2.594  0.0484 -1.0461 -0.1621
  917SOL    HW1 3666   2.512   2.300   2.669  1.6831  1.2304 -0.1523
  917SOL    HW2 3667   2.594   2.262   2.552 -0.4305  1.3300 -0.2527
  917SOL     MW 3668   2.525   2.250   2.598  0.2009 -0.4323 -0.1728
  918SOL     OW 3669   2.084   1.599   2.625  0.3211  0.7421  0.1450
  918SOL    HW1 3670   2.018   1.646   2.575 -0.6351  0.2690 -1.8423
  918SOL    HW2 3671   2.158   1.665   2.629  1.0651  1.1406 -0.4565
  918SOL     MW 3672   2.085   1.614   2.619  0.2931  0.7323 -0.1966
  919SOL     OW 3673   3.092   2.412   2.250  0.0179 -0.0884 -0.0887
  919SOL    HW1 3674   3.029   2.347   2.227 -1.0832  0.2418 -4.8179
  919SOL    HW2 3675   3.153   2.408   2.177 -0.5267 -0.1775  0.2169
  919SOL     MW 3676   3.092   2.403   2.237 -0.1992 -0.0566 -0.6723
  920SOL     OW 3677   2.663   2.761   3.037 -0.1962 -0.4055  0.0621
  920SOL    HW1 3678   2.577   2.779   3.003  2.9301 -0.7353  0.3993
  920SOL    HW2 3679   2.714   2.751   2.956 -1.6844  0.6663 -0.0154
  920SOL     MW 3680   2.658   2.762   3.022  0.0199 -0.3076  0.0964
  921SOL     OW 3681   2.485   2.637   2.628  0.1255 -0.1084  0.3303
  921SOL    HW1 3682   2.541   2.605   2.556 -1.1952  1.7064 -1.9513
  921SOL    HW2 3683   2.490   2.570   2.695  1.9859 -1.0704 -1.2515
  921SOL     MW 3684   2.493   2.624   2.627  0.1967  0.0041 -0.1794
  922SOL     OW 3685   2.095   2.700   0.406 -0.1224 -0.3303  0.0110
  922SOL    HW1 3686   2.061   2.724   0.321  2.5927 -0.3400  2.1899
  922SOL    HW2 3687   2.127   2.602   0.402 -3.6494 -1.4767  0.5607
  922SOL     MW 3688   2.095   2.690   0.394 -0.2295 -0.4828  0.3710
  923SOL     OW 3689   2.200   2.878   1.663 -0.1499  0.8649  0.3353
  923SOL    HW1 3690   2.258   2.835   1.599 -1.0229 -2.0210 -0.3515
  923SOL    HW2 3691   2.137   2.936   1.618  0.4266  1.1270  0.6180
  923SOL     MW 3692   2.199   2.880   1.649 -0.1890  0.5187  0.2820
  924SOL     OW 3693   1.084   2.739   2.608 -0.0946  0.2033 -0.0837
  924SOL    HW1 3694   1.179   2.775   2.593 -1.5635 -1.3550 -2.1947
  924SOL    HW2 3695   1.104   2.656   2.652  0.7732 -1.6374 -0.7271
  924SOL     MW 3696   1.099   2.733   2.612 -0.1739 -0.2451 -0.4471
  925SOL     OW 3697   2.976   0.242   2.672  0.2391 -0.1181 -0.2771
  925SOL    HW1 3698   2.934   0.260   2.584  1.1246 -1.2909 -0.4300
  925SOL    HW2 3699   2.982   0.325   2.715 -1.5698 -3.0410 -0.1402
  925SOL     MW 3700   2.971   0.255   2.666  0.1172 -0.6585 -0.2792
  926SOL     OW 3701   2.800   2.352   1.967  0.3281  0.2992 -0.4803
  926SOL    HW1 3702   2.808   2.431   2.028 -0.3543 -1.8035 -1.9719
  926SOL    HW2 3703   2.844   2.380   1.886  0.0894 -0.6998 -0.1921
  926SOL     MW 3704   2.807   2.366   1.965  0.2066 -0.1101 -0.6391
  927SOL     OW 3705   2.377   0.153   0.288 -0.2151 -0.1919  0.1469
  927SOL    HW1 3706   2.459   0.203   0.289 -1.1987  2.2852 -3.8226
  927SOL    HW2 3707   2.366   0.129   0.197  1.5176  0.5868 -2.0623
  927SOL     MW 3708   2.387   0.157   0.276 -0.1163  0.2377 -0.6683
  928SOL     OW 3709   2.127   2.369   1.758  0.0934 -0.2464  0.8573
  928SOL    HW1 3710   2.165   2.432   1.698 -0.2491 -2.4405 -0.2471
  928SOL    HW2 3711   2.195   2.309   1.794 -1.6128 -2.1041  2.6084
  928SOL     MW 3712   2.141   2.369   1.755 -0.1769 -0.7810  0.9427
  929SOL     OW 3713   2.771   2.353   2.488 -0.2286 -0.0906  0.1543
  929SOL    HW1 3714   2.818   2.306   2.427  4.5460  0.0634  2.3370
  929SOL    HW2 3715   2.830   2.364   2.565  1.6289  0.9507 -0.3986
  929SOL     MW 3716   2.785   2.349   2.490  0.6465  0.0671  0.3693
  930SOL     OW 3717   2.048   2.803   2.673 -0.2906 -0.3871  0.2869
  930SOL    HW1 3718   2.087   2.730   2.723  3.2169  0.9858 -2.3744
  930SOL    HW2 3719   2.115   2.865   2.633  1.6361  3.3462  1.0999
  930SOL     MW 3720   2.062   2.801   2.674  0.4264  0.2866  0.0430
  931SOL     OW 3721   0.035   2.777   2.473  0.0721  0.1474  0.0519
  931SOL    HW1 3722   0.033   2.828   2.553  0.1857 -2.5396 -3.9071
  931SOL    HW2 3723   0.128   2.789   2.451  2.1980 -0.0001  1.1679
  931SOL     MW 3724   0.047   2.786   2.481  0.3676 -0.2266 -0.3232
  932SOL     OW 3725   2.840   1.943   2.521 -0.0753  0.7541  0.0789
  932SOL    HW1 3726   2.925   1.986   2.528 -0.9082  2.7768  0.7544
  932SOL    HW2 3727   2.815   1.946   2.425  1.8785  0.5667  0.0709
  932SOL     MW 3728   2.848   1.949   2.510  0.0726  0.9963  0.1670
  933SOL     OW 3729   2.070   2.795   2.215  0.1931  0.0338 -0.2794
  933SOL    HW1 3730   2.138   2.852   2.244  1.4468  2.8826  0.5086
  933SOL    HW2 3731   1.997   2.848   2.191  3.6506 -1.3820  0.1388
  933SOL     MW 3732   2.069   2.809   2.216  0.8147  0.2229 -0.1203
  934SOL     OW 3733   2.015   2.646   2.429  0.3902  0.4003  0.0342
  934SOL    HW1 3734   1.997   2.688   2.514 -0.9679 -3.0184 -2.8454
  934SOL    HW2 3735   2.045   2.712   2.359 -1.2891 -1.9912  0.0119
  934SOL     MW 3736   2.017   2.660   2.431 -0.0105 -0.3663 -0.3487
  935SOL     OW 3737   2.638   1.495   1.778 -0.0964 -0.6204 -0.2814
  935SOL    HW1 3738   2.726   1.480   1.751 -1.3184  1.3545 -2.2496
  935SOL    HW2 3739   2.605   1.509   1.687  2.4464 -2.5225 -2.8039
  935SOL     MW 3740   2.645   1.495   1.762  0.0779 -0.6108 -0.8739
  936SOL     OW 3741   2.949   2.244   3.093  0.0061  0.1120  0.6453
  936SOL    HW1 3742   3.008   2.283   3.156 -1.1392 -1.0454  0.6406
  936SOL    HW2 3743   2.871   2.301   3.102  2.3159 -0.2153  0.4022
  936SOL     MW 3744   2.946   2.256   3.102  0.1597 -0.0839  0.6126
  937SOL     OW 3745   1.980   2.148   2.675  0.0952 -0.5800 -0.7160
  937SOL    HW1 3746   2.065   2.133   2.716 -1.1052 -2.5037  2.7803
  937SOL    HW2 3747   1.991   2.132   2.582 -0.3939 -2.4663  0.3053
  937SOL     MW 3748   1.993   2.144   2.668 -0.1277 -1.0827 -0.1200
  938SOL     OW 3749   2.366   1.714   1.879  0.3199  0.2946 -0.6567
  938SOL    HW1 3750   2.376   1.754   1.790  0.0981 -2.9661 -3.5609
  938SOL    HW2 3751   2.349   1.788   1.945 -0.9937  0.2911 -0.6485
  938SOL     MW 3752   2.365   1.729   1.876  0.1173 -0.1361 -1.0388
  939SOL     OW 3753   2.774   1.949   2.256  0.1968 -0.4483  0.4880
  939SOL    HW1 3754   2.812   1.891   2.186  0.5549 -0.0744 -0.0281
  939SOL    HW2 3755   2.682   1.940   2.241 -0.5370  2.2846 -1.7078
  939SOL     MW 3756   2.767   1.940   2.245  0.1472 -0.0384  0.1302
  940SOL     OW 3757   2.209   0.132   2.686 -0.7445  0.0545  0.2196
  940SOL    HW1 3758   2.210   0.049   2.639  0.4634 -2.0044  0.8522
  940SOL    HW2 3759   2.277   0.134   2.754 -0.6479 -0.2638  1.8388
  940SOL     MW 3760   2.218   0.121   2.689 -0.5724 -0.2591  0.5167
  941SOL     OW 3761   0.180   2.441   2.032 -0.1468 -0.1490  0.1953
  941SOL    HW1 3762   0.248   2.387   2.064  2.1896 -1.4038  0.8465
  941SOL    HW2 3763   0.155   2.418   1.943 -4.0498 -1.6475  0.9139
  941SOL     MW 3764   0.185   2.431   2.025 -0.3535 -0.5123  0.3760
  942SOL     OW 3765   2.879   2.231   2.210  0.1161  0.3539 -0.1850
  942SOL    HW1 3766   2.851   2.263   2.124  0.9101  0.3275 -3.4339
  942SOL    HW2 3767   2.879   2.137   2.212  1.0020  1.2167  1.4917
  942SOL     MW 3768   2.875   2.223   2.199  0.3377  0.4643 -0.3924
  943SOL     OW 3769   0.279   2.123   2.298  0.4821 -0.0422 -0.0661
  943SOL    HW1 3770   0.213   2.174   2.356  0.1783 -2.2607  1.5469
  943SOL    HW2 3771   0.350   2.081   2.353  0.4198 -0.8409 -2.4744
  943SOL     MW 3772   0.279   2.124   2.313  0.4338 -0.4403 -0.1710
  944SOL     OW 3773   2.137   2.639   1.975  0.8438 -0.1618 -0.0220
  944SOL    HW1 3774   2.196   2.575   2.015  1.6252 -1.3174  1.0364
  944SOL    HW2 3775   2.087   2.678   2.040 -0.3389 -2.7579 -0.6417
  944SOL     MW 3776   2.138   2.636   1.989  0.7909 -0.6568  0.0359
  945SOL     OW 3777   2.815   2.769   2.816  0.0875  0.4128  0.0690
  945SOL    HW1 3778   2.779   2.681   2.816  0.0372  5.0182 -2.5429
  945SOL    HW2 3779   2.813   2.797   2.720 -0.1764 -0.2771  2.3181
  945SOL     MW 3780   2.810   2.761   2.803  0.0460  0.9294  0.0211
  946SOL     OW 3781   2.462   2.645   2.239  0.2936  0.1545  0.3590
  946SOL    HW1 3782   2.490   2.703   2.169  0.0966  0.3748 -4.2546
  946SOL    HW2 3783   2.421   2.576   2.182  0.6936 -0.2627  0.3475
  946SOL     MW 3784   2.460   2.644   2.222  0.3204  0.1285 -0.2512
  947SOL     OW 3785   2.048   0.041   0.228  0.1483 -0.9084 -0.5749
  947SOL    HW1 3786   2.071  -0.041   0.178 -1.0268  0.5654  0.3804
  947SOL    HW2 3787   2.102   0.050   0.305 -0.1000  0.1865 -3.1761
  947SOL     MW 3788   2.058   0.031   0.232 -0.0395 -0.5695 -0.7921
  948SOL     OW 3789   1.793   3.005   2.623 -0.4522 -0.0741 -1.0687
  948SOL    HW1 3790   1.803   2.914   2.640  0.1895  1.5254 -0.8141
  948SOL    HW2 3791   1.773   3.020   2.530 -1.1960 -1.3627 -0.9097
  948SOL     MW 3792   1.792   2.995   2.613 -0.4657 -0.0331 -1.0141
  949SOL     OW 3793   2.483   1.898   2.214 -0.0467 -0.3604 -0.4643
  949SOL    HW1 3794   2.448   1.811   2.245 -1.2182  2.8328 -0.1422
  949SOL    HW2 3795   2.469   1.966   2.284  0.8336  0.1535 -0.6684
  949SOL     MW 3796   2.477   1.895   2.227 -0.0851  0.1287 -0.4488
  950SOL     OW 3797   2.315   2.567   2.993  0.6042 -0.2553  0.0650
  950SOL    HW1 3798   2.363   2.498   2.947  2.0854 -1.1358  0.4926
  950SOL    HW2 3799   2.230   2.555   2.963 -0.0278 -0.8818  1.4781
  950SOL     MW 3800   2.310   2.556   2.983  0.7162 -0.4541  0.3078
  951SOL     OW 3801   3.052   2.193   2.852  0.2356  0.5529 -0.1616
  951SOL    HW1 3802   3.005   2.209   2.938 -6.2782 -0.8611  0.0181
  951SOL    HW2 3803   3.019   2.104   2.838 -0.7561  0.4840  0.9012
  951SOL     MW 3804   3.042   2.183   2.862 -0.7547  0.3573  0.0024
  952SOL     OW 3805   3.034   1.697   2.132  0.2781 -0.1257 -0.1786
  952SOL    HW1 3806   2.977   1.712   2.056 -1.7874 -0.7448  2.0200
  952SOL    HW2 3807   3.110   1.758   2.135  0.6288  3.3315 -0.4942
  952SOL     MW 3808   3.037   1.707   2.122  0.0519  0.2488  0.0698
  953SOL     OW 3809   1.964   1.714   2.920 -0.1368 -0.1473  0.3435
  953SOL    HW1 3810   1.897   1.655   2.953 -0.5380  0.9398 -0.5206
  953SOL    HW2 3811   1.972   1.671   2.833 -1.3147 -1.9161  2.2034
  953SOL     MW 3812   1.956   1.700   2.913 -0.3451 -0.2372  0.4749
  954SOL     OW 3813   2.436   2.131   2.922 -0.8491  0.1468 -0.2642
  954SOL    HW1 3814   2.348   2.097   2.903  0.0685 -0.1794  2.9208
  954SOL    HW2 3815   2.486   2.116   2.844  2.5767  0.5462 -1.2150
  954SOL     MW 3816   2.431   2.125   2.909 -0.2760  0.1564  0.0306
  955SOL     OW 3817   1.586   1.536   2.533  0.2017 -0.3894 -0.0848
  955SOL    HW1 3818   1.547   1.582   2.449 -1.1495 -0.2110 -1.8358
  955SOL    HW2 3819   1.663   1.584   2.546  0.7456 -2.3274 -2.2310
  955SOL     MW 3820   1.591   1.549   2.523  0.0952 -0.6216 -0.5990
  956SOL     OW 3821   2.741   2.514   2.854  0.0800 -0.3769 -0.2270
  956SOL    HW1 3822   2.731   2.501   2.946  0.7209 -0.6500 -0.7162
  956SOL    HW2 3823   2.805   2.449   2.821  0.5595 -0.7537 -1.2318
  956SOL     MW 3824   2.748   2.504   2.862  0.2278 -0.4626 -0.4241
  957SOL     OW 3825   2.271   2.848   0.561 -0.0792 -0.2092  0.7475
  957SOL    HW1 3826   2.222   2.771   0.520  1.2912 -1.9349  1.0075
  957SOL    HW2 3827   2.272   2.836   0.656  2.7525 -0.5234 -3.0460
  957SOL     MW 3828   2.265   2.836   0.568  0.4752 -0.4783  0.2813
  958SOL     OW 3829   2.064   2.604   2.870 -0.3708 -0.9665  0.0295
  958SOL    HW1 3830   2.029   2.550   2.799  0.2642  2.0981 -2.3725
  958SOL    HW2 3831   1.986   2.641   2.908  2.1379  1.2709 -3.3089
  958SOL     MW 3832   2.049   2.602   2.866  0.0440 -0.2669 -0.7279
  959SOL     OW 3833   2.526   2.813   0.451  0.2833 -0.1865  0.1156
  959SOL    HW1 3834   2.512   2.821   0.353 -1.6968 -0.0809  0.7513
  959SOL    HW2 3835   2.441   2.836   0.491  1.8136 -1.2254  2.0442
  959SOL     MW 3836   2.513   2.817   0.443  0.2240 -0.3097  0.4539
  960SOL     OW 3837   1.919   2.345   2.286 -0.1874  0.2400 -0.4946
  960SOL    HW1 3838   1.962   2.271   2.332 -1.0328 -0.2684 -0.9275
  960SOL    HW2 3839   1.848   2.375   2.344  1.4446  2.0971  0.3402
  960SOL     MW 3840   1.915   2.339   2.300 -0.0837  0.4179 -0.4415
  961SOL     OW 3841   2.236   2.290   2.310  0.5343  0.4542 -0.2114
  961SOL    HW1 3842   2.153   2.261   2.269 -0.3169  0.7195  0.9301
  961SOL    HW2 3843   2.219   2.364   2.368  0.3086 -0.6801 -2.8030
  961SOL     MW 3844   2.223   2.296   2.312  0.3922  0.3396 -0.4027
  962SOL     OW 3845   2.207   2.040   2.828 -0.6041 -0.6573 -0.2585
  962SOL    HW1 3846   2.149   2.007   2.896 -1.0904  0.1342 -0.1907
  962SOL    HW2 3847   2.208   1.976   2.752 -0.8843 -4.7512 -4.1098
  962SOL     MW 3848   2.199   2.027   2.827 -0.7052 -1.0930 -0.7577
  963SOL     OW 3849   1.858   2.580   2.102  0.6562  0.3504 -0.3087
  963SOL    HW1 3850   1.907   2.541   2.172 -0.1149  1.8380  0.6520
  963SOL    HW2 3851   1.881   2.518   2.022 -0.9546 -0.3009 -1.2588
  963SOL     MW 3852   1.867   2.567   2.101  0.3420  0.4607 -0.3073
  964SOL     OW 3853   1.830   1.905   2.782 -0.5034 -0.2048 -0.1655
  964SOL    HW1 3854   1.883   1.980   2.745  2.1463 -0.6581 -0.5161
  964SOL    HW2 3855   1.873   1.847   2.848 -1.0822  1.3520 -2.3883
  964SOL     MW 3856   1.843   1.907   2.786 -0.2302 -0.0592 -0.5050
  965SOL     OW 3857   2.194   2.621   0.758 -0.6528  0.0172  0.9142
  965SOL    HW1 3858   2.207   2.530   0.735  0.1781  0.5026  1.6696
  965SOL    HW2 3859   2.271   2.641   0.809 -1.1351  3.1098 -0.0647
  965SOL     MW 3860   2.206   2.612   0.762 -0.6068  0.4893  0.8847
  966SOL     OW 3861   2.663   2.605   2.422 -0.2987 -0.0251  0.1312
  966SOL    HW1 3862   2.604   2.605   2.344  4.6158 -1.7423  0.8964
  966SOL    HW2 3863   2.686   2.512   2.440 -0.4874  1.5346 -2.2275
  966SOL     MW 3864   2.659   2.593   2.414  0.3248 -0.0459 -0.0791
  967SOL     OW 3865   2.781   3.023   2.972 -0.6846  0.1912  0.4372
  967SOL    HW1 3866   2.756   2.937   2.988 -0.7649  0.0583  1.2238
  967SOL    HW2 3867   2.705   3.053   2.916 -0.5170  3.0510 -1.0581
  967SOL     MW 3868   2.768   3.016   2.967 -0.6731  0.5510  0.3437
  968SOL     OW 3869   3.057   2.661   2.951 -0.5128  0.0331 -0.5242
  968SOL    HW1 3870   2.997   2.714   2.902  2.0512  3.3597 -0.8333
  968SOL    HW2 3871   3.098   2.613   2.880  0.6383  0.8443 -1.8297
  968SOL     MW 3872   3.054   2.662   2.935 -0.0226  0.5791 -0.7372
  969SOL     OW 3873   1.597   2.211   1.718 -0.5799 -0.1053  0.3459
  969SOL    HW1 3874   1.672   2.149   1.735 -1.5623 -1.3022  0.6668
  969SOL    HW2 3875   1.538   2.203   1.795 -2.0231 -0.5919  3.5505
  969SOL     MW 3876   1.599   2.202   1.730 -0.8999 -0.3274  0.8111
  970SOL     OW 3877   1.791   1.831   1.924 -0.4714 -0.5415  0.0548
  970SOL    HW1 3878   1.827   1.778   1.993 -0.5530  1.0211 -1.0851
  970SOL    HW2 3879   1.708   1.790   1.894 -1.6528  2.9829  1.2325
  970SOL     MW 3880   1.784   1.819   1.929 -0.6381  0.1297  0.0598
  971SOL     OW 3881   1.731   3.094   2.376  0.1007 -0.1445  0.2458
  971SOL    HW1 3882   1.771   3.046   2.298 -1.4343 -0.7309  3.0814
  971SOL    HW2 3883   1.751   3.184   2.366  0.2176 -1.8385 -0.3750
  971SOL     MW 3884   1.739   3.099   2.365 -0.0864 -0.4454  0.5381
  972SOL     OW 3885   0.317   2.887   2.387 -0.3806  1.0344 -0.5275
  972SOL    HW1 3886   0.375   2.822   2.424  1.7715  0.1879 -1.3434
  972SOL    HW2 3887   0.343   2.967   2.433 -0.8428  0.3472 -1.3866
  972SOL     MW 3888   0.328   2.889   2.398 -0.1577  0.8321 -0.7485
  973SOL     OW 3889   2.566   3.020   2.130  0.3236 -0.9722  0.0708
  973SOL    HW1 3890   2.553   2.930   2.097  2.0283 -1.6219  2.5542
  973SOL    HW2 3891   2.590   3.070   2.050  0.0378  2.9382 -2.1573
  973SOL     MW 3892   2.567   3.015   2.115  0.5108 -0.5420  0.1045
  974SOL     OW 3893   1.949   0.158   2.591  0.7015  0.4797 -0.3103
  974SOL    HW1 3894   2.021   0.168   2.650 -0.6503  0.0324  0.2826
  974SOL    HW2 3895   1.920   0.066   2.610 -3.2373  0.1134  1.7044
  974SOL     MW 3896   1.955   0.147   2.601  0.0034  0.3724  0.0337
  975SOL     OW 3897   2.229   2.479   2.495  0.0115  0.1768  0.5006
  975SOL    HW1 3898   2.302   2.530   2.527  0.7846 -1.3940 -2.3899
  975SOL    HW2 3899   2.171   2.547   2.442 -2.4960 -1.1052 -3.2835
  975SOL     MW 3900   2.231   2.494   2.492 -0.2173 -0.1996 -0.3800
  976SOL     OW 3901   0.205   0.356   1.654  0.5812 -0.3434 -0.5697
  976SOL    HW1 3902   0.255   0.289   1.695 -0.8242  2.4932  1.3528
  976SOL    HW2 3903   0.126   0.309   1.627  2.1326 -0.7912 -1.0060
  976SOL     MW 3904   0.201   0.341   1.655  0.6004 -0.0282 -0.3736
  977SOL     OW 3905   1.733   2.760   2.390  0.6442  0.2039 -0.3725
  977SOL    HW1 3906   1.784   2.680   2.377  3.3655  0.5032  1.2555
  977SOL    HW2 3907   1.771   2.814   2.319 -3.9039  2.1850 -0.7492
  977SOL     MW 3908   1.745   2.757   2.379  0.4032  0.5048 -0.2074
   3.10000   3.10000   3.10000
