977 TIP4P/2005f water molecules t=   1.23000 step= 1230
 3908
    1SOL     OW    1   0.419   0.799   0.011 -0.4973  0.5871  0.4603
    1SOL    HW1    2   0.399   0.844  -0.070  1.9822 -2.1578 -0.6892
    1SOL    HW2    3   0.354   0.734   0.015 -0.6096 -0.1887 -0.7704
    1SOL     MW    4   0.408   0.796   0.001 -0.1849  0.1226  0.1463
    2SOL     OW    5   0.354   3.045   1.184  0.1239 -0.2609  0.3957
    2SOL    HW1    6   0.396   3.097   1.119 -0.8816 -0.5068  0.6884
    2SOL    HW2    7   0.263   3.081   1.186  0.6164 -0.8684  0.1760
    2SOL     MW    8   0.347   3.057   1.176  0.0562 -0.3735  0.4054
    3SOL     OW    9   2.579   0.343   0.983  0.2008 -0.6610 -0.3454
    3SOL    HW1   10   2.612   0.406   0.917 -0.1192  3.4622 -2.2745
    3SOL    HW2   11   2.558   0.408   1.065 -1.6770 -2.2744 -0.3519
    3SOL     MW   12   2.581   0.360   0.985 -0.0892 -0.3299 -0.6008
    4SOL     OW   13   3.047   1.738   0.549  0.6425  0.0567  0.2518
    4SOL    HW1   14   2.961   1.778   0.521  1.5435  1.7890 -2.3542
    4SOL    HW2   15   3.092   1.688   0.480  1.7208 -0.4765 -0.6980
    4SOL     MW   16   3.041   1.737   0.536  0.9037  0.2149 -0.2173
    5SOL     OW   17   1.671   1.514   0.534 -0.2076 -0.1214  0.7561
    5SOL    HW1   18   1.666   1.472   0.622 -3.3200  0.8101 -0.8017
    5SOL    HW2   19   1.587   1.556   0.535 -1.0748 -0.0575  2.8079
    5SOL     MW   20   1.659   1.514   0.546 -0.7327  0.0099  0.8213
    6SOL     OW   21   0.828   1.384   0.575  0.0025 -0.0869 -0.2226
    6SOL    HW1   22   0.735   1.374   0.596  0.0063 -1.7832 -1.0469
    6SOL    HW2   23   0.856   1.298   0.613  2.4407  0.2725  0.7110
    6SOL     MW   24   0.819   1.371   0.583  0.3247 -0.2633 -0.2082
    7SOL     OW   25   2.065   1.041   0.001 -0.0718  0.1962  0.3593
    7SOL    HW1   26   2.133   1.084  -0.055 -1.3668  0.9156 -0.7879
    7SOL    HW2   27   2.082   1.062   0.090  0.3951  1.9572 -1.0907
    7SOL     MW   28   2.076   1.050   0.005 -0.1811  0.5235  0.0167
    8SOL     OW   29   0.887   1.490   1.202 -0.6119  1.0908 -0.0416
    8SOL    HW1   30   0.982   1.492   1.191 -1.7494  0.7227  0.7551
    8SOL    HW2   31   0.864   1.400   1.216  1.2313  2.7756 -1.0575
    8SOL     MW   32   0.897   1.478   1.202 -0.5188  1.2645 -0.0705
    9SOL     OW   33   1.001   0.504   1.396  0.4017 -0.3128 -0.2611
    9SOL    HW1   34   0.960   0.426   1.353  1.5710  2.0101 -1.1101
    9SOL    HW2   35   1.033   0.468   1.476 -1.3651  1.5387  2.0571
    9SOL     MW   36   1.000   0.489   1.401  0.3228  0.2380 -0.0672
   10SOL     OW   37   0.244   0.813   0.512  0.3696  0.2747  0.4070
   10SOL    HW1   38   0.328   0.859   0.490 -0.4324  0.7306  1.1214
   10SOL    HW2   39   0.226   0.834   0.602 -0.7322 -1.1499 -1.1685
   10SOL     MW   40   0.253   0.822   0.521  0.1184  0.1469  0.2934
   11SOL     OW   41   0.780   1.109   1.620 -0.5897 -0.3122 -0.2377
   11SOL    HW1   42   0.835   1.107   1.700  2.3143 -1.1117  0.6440
   11SOL    HW2   43   0.813   1.037   1.571  1.4665 -0.7708 -1.0167
   11SOL     MW   44   0.791   1.099   1.624  0.0648 -0.4782 -0.2241
   12SOL     OW   45   3.080   1.081   0.870 -0.1698  0.4490 -0.6170
   12SOL    HW1   46   3.124   1.142   0.929 -0.3865 -2.3051  2.9994
   12SOL    HW2   47   3.040   1.140   0.801 -0.5980  0.2502  2.1930
   12SOL     MW   48   3.080   1.097   0.869 -0.2549  0.0594  0.2309
   13SOL     OW   49   1.847   1.401   1.337 -0.5821  0.5951 -0.3885
   13SOL    HW1   50   1.865   1.333   1.268  4.1904 -1.0811 -1.4769
   13SOL    HW2   51   1.869   1.488   1.304  0.5381  1.6172  2.7535
   13SOL     MW   52   1.852   1.403   1.323  0.1953  0.5088 -0.1175
   14SOL     OW   53   0.560   0.319   1.856 -0.0473 -0.2231  0.1780
   14SOL    HW1   54   0.513   0.232   1.855 -0.1717 -0.2685  2.2938
   14SOL    HW2   55   0.588   0.325   1.767 -1.3917 -0.6121  0.6694
   14SOL     MW   56   0.557   0.308   1.844 -0.2411 -0.2804  0.5220
   15SOL     OW   57   1.967   0.327   1.048  0.1985 -0.0581 -0.3501
   15SOL    HW1   58   1.938   0.401   1.107 -0.7276 -1.0518 -0.5079
   15SOL    HW2   59   2.041   0.364   1.002  0.2046  0.7790  1.4693
   15SOL     MW   60   1.973   0.342   1.050  0.0771 -0.0787 -0.1309
   16SOL     OW   61   0.215   1.822   0.303  0.5307  0.3564  0.2103
   16SOL    HW1   62   0.307   1.798   0.280 -0.0529 -1.1833  2.3519
   16SOL    HW2   63   0.215   1.920   0.311 -0.2641  0.6188  1.2455
   16SOL     MW   64   0.227   1.831   0.301  0.3489  0.1879  0.6294
   17SOL     OW   65   1.020   0.933   1.450 -0.3908 -0.2775 -0.5513
   17SOL    HW1   66   1.074   0.897   1.523  2.1339 -0.0554  0.2409
   17SOL    HW2   67   0.930   0.899   1.453 -0.5472  1.1637  1.0202
   17SOL     MW   68   1.015   0.924   1.460 -0.0783 -0.0580 -0.2394
   18SOL     OW   69   0.086   1.598   0.361 -0.1930  0.3881 -0.1903
   18SOL    HW1   70   0.127   1.687   0.351  0.5406  0.5300  2.3453
   18SOL    HW2   71   0.056   1.565   0.274  1.6472 -2.7169  3.0131
   18SOL     MW   72   0.087   1.605   0.348  0.1466 -0.0028  0.5669
   19SOL     OW   73   0.095   1.304   1.002 -0.0392  0.5984 -0.5698
   19SOL    HW1   74   0.127   1.329   0.913  2.3399 -1.6430 -0.0611
   19SOL    HW2   75   0.005   1.339   1.002 -1.7252  0.4643 -3.0806
   19SOL     MW   76   0.087   1.312   0.991  0.0523  0.2850 -0.8340
   20SOL     OW   77   0.437   2.171   1.168  0.0454 -0.0210  0.0918
   20SOL    HW1   78   0.388   2.111   1.114  0.3897 -2.0469  0.5606
   20SOL    HW2   79   0.387   2.187   1.253  1.0656 -1.4270  0.3654
   20SOL     MW   80   0.424   2.165   1.172  0.2254 -0.4738  0.1897
   21SOL     OW   81   0.482   0.870   0.417  0.0853 -0.7338 -0.1547
   21SOL    HW1   82   0.557   0.840   0.469  1.6153  0.0310 -2.2287
   21SOL    HW2   83   0.523   0.872   0.328  1.5094 -0.0559 -0.8088
   21SOL     MW   84   0.497   0.867   0.412  0.4750 -0.5435 -0.5146
   22SOL     OW   85   1.530   0.698   1.013 -0.3043  0.4020 -0.4180
   22SOL    HW1   86   1.477   0.659   0.944  1.9776 -1.0416  1.5035
   22SOL    HW2   87   1.524   0.789   0.999  1.4456 -1.5524 -1.3574
   22SOL     MW   88   1.522   0.705   1.002  0.2276 -0.0463 -0.2884
   23SOL     OW   89   3.060   0.666   0.701  0.4528  0.0116 -0.1528
   23SOL    HW1   90   3.130   0.608   0.720  0.7525 -0.5928 -1.1270
   23SOL    HW2   91   3.104   0.750   0.714  1.3362 -0.7452  0.3604
   23SOL     MW   92   3.075   0.670   0.705  0.6089 -0.1680 -0.2136
   24SOL     OW   93   2.029   2.218   0.031  0.2102 -0.2691  0.0752
   24SOL    HW1   94   2.044   2.214   0.127  0.0065  0.3594  2.2967
   24SOL    HW2   95   2.051   2.131  -0.010  2.5981  1.3256  0.0329
   24SOL     MW   96   2.034   2.206   0.038  0.4984  0.0242  0.3627
   25SOL     OW   97   0.194   1.408   0.526  0.2002 -0.5242 -0.0631
   25SOL    HW1   98   0.163   1.466   0.457 -1.6306  0.2420 -0.9857
   25SOL    HW2   99   0.283   1.398   0.508  0.5084  0.2777 -1.8007
   25SOL     MW  100   0.202   1.414   0.514 -0.0007 -0.3173 -0.4141
   26SOL     OW  101   2.062   1.071   0.286  0.0270  0.3623 -0.3454
   26SOL    HW1  102   1.993   1.102   0.348 -0.3274 -1.4857 -0.8288
   26SOL    HW2  103   2.132   1.140   0.273 -0.6950 -2.4738 -1.4910
   26SOL     MW  104   2.062   1.084   0.292 -0.1150 -0.2557 -0.5603
   27SOL     OW  105   1.974   1.464   0.208 -0.0937 -0.0414 -0.1400
   27SOL    HW1  106   1.908   1.527   0.238 -0.4267  1.5172 -0.7717
   27SOL    HW2  107   2.046   1.475   0.269  0.0636 -3.3229 -0.0088
   27SOL     MW  108   1.975   1.474   0.220 -0.1169 -0.2687 -0.2060
   28SOL     OW  109   0.442   1.016   1.967  0.2888 -0.1182  0.2235
   28SOL    HW1  110   0.511   1.008   2.036 -1.8776  0.5817 -0.9223
   28SOL    HW2  111   0.360   0.982   2.004 -3.0142  2.5571  2.4287
   28SOL     MW  112   0.440   1.011   1.981 -0.4328  0.3271  0.3633
   29SOL     OW  113   0.232   1.433   0.803  0.1758 -0.2123 -0.8658
   29SOL    HW1  114   0.221   1.527   0.813  1.4067 -0.6683 -1.7103
   29SOL    HW2  115   0.206   1.421   0.712  3.3424 -1.0576  1.0644
   29SOL     MW  116   0.227   1.444   0.792  0.7560 -0.3840 -0.7226
   30SOL     OW  117   0.802   1.239   1.225  0.6187  0.2863  0.2760
   30SOL    HW1  118   0.719   1.234   1.277 -0.4319  0.7233  1.8773
   30SOL    HW2  119   0.882   1.209   1.281  1.7458  0.2752  2.3551
   30SOL     MW  120   0.801   1.234   1.239  0.6288  0.3425  0.7616
   31SOL     OW  121   0.397   0.257   0.171  0.3341  0.6089  0.3780
   31SOL    HW1  122   0.424   0.182   0.230 -0.5786 -0.6692  1.5646
   31SOL    HW2  123   0.418   0.219   0.082 -3.9494 -1.8135  0.6207
   31SOL     MW  124   0.404   0.242   0.167 -0.3515  0.1207  0.5666
   32SOL     OW  125   2.758   0.982   1.175 -0.1615 -0.1607 -0.2921
   32SOL    HW1  126   2.697   0.913   1.128 -0.3104 -2.1124  1.2430
   32SOL    HW2  127   2.851   0.954   1.158  0.5707 -1.3382  2.6271
   32SOL     MW  128   2.762   0.969   1.167 -0.0846 -0.5736  0.2956
   33SOL     OW  129   1.657   1.297   0.351 -0.3209  0.1329  0.1938
   33SOL    HW1  130   1.726   1.244   0.387 -0.5132  1.0221  0.5745
   33SOL    HW2  131   1.649   1.376   0.409  0.1698 -0.1556  0.4378
   33SOL     MW  132   1.665   1.300   0.364 -0.2815  0.2122  0.2762
   34SOL     OW  133   1.233   1.918   1.120  0.1201 -0.3827 -0.1626
   34SOL    HW1  134   1.157   1.962   1.159  1.9534  0.4138  1.2509
   34SOL    HW2  135   1.314   1.943   1.165 -0.7915 -1.4365  0.4061
   34SOL     MW  136   1.234   1.927   1.131  0.2417 -0.4167  0.0989
   35SOL     OW  137   0.353   0.117   1.854 -0.2864 -0.5140 -0.1840
   35SOL    HW1  138   0.356   0.047   1.918 -1.1148  0.2244 -0.6263
   35SOL    HW2  139   0.408   0.091   1.782  0.6170  0.1187  1.6922
   35SOL     MW  140   0.361   0.105   1.853 -0.2765 -0.3331  0.0052
   36SOL     OW  141   1.979   1.922   0.561  0.1237 -0.0386  0.5109
   36SOL    HW1  142   1.951   1.919   0.470 -0.1261 -1.9804  0.4708
   36SOL    HW2  143   1.974   1.831   0.594  1.9753 -0.7311 -1.2040
   36SOL     MW  144   1.975   1.910   0.553  0.3350 -0.3862  0.2794
   37SOL     OW  145   1.793   2.028   0.959 -0.0070 -0.2932  0.0043
   37SOL    HW1  146   1.735   1.977   0.908 -0.4654 -1.4145 -0.8149
   37SOL    HW2  147   1.731   2.079   1.010  1.3549  1.6621 -3.0366
   37SOL     MW  148   1.777   2.028   0.959  0.1122 -0.1832 -0.5050
   38SOL     OW  149   2.822   0.959   0.124  0.1929  0.1360  0.1194
   38SOL    HW1  150   2.836   0.960   0.219 -1.0192  0.2003 -0.2674
   38SOL    HW2  151   2.899   0.917   0.087 -2.9265 -0.9630 -0.6656
   38SOL     MW  152   2.834   0.954   0.132 -0.3786 -0.0005 -0.0352
   39SOL     OW  153   1.436   0.594   0.777  0.7756 -0.6846 -0.3040
   39SOL    HW1  154   1.407   0.505   0.786 -0.0380  0.6234 -0.4211
   39SOL    HW2  155   1.367   0.640   0.731  0.6069 -0.1746 -2.3757
   39SOL     MW  156   1.423   0.588   0.772  0.6460 -0.4448 -0.5928
   40SOL     OW  157   1.168   1.903   0.271  0.4531 -0.0403 -0.4986
   40SOL    HW1  158   1.183   1.823   0.324 -1.0388 -2.3333 -2.3566
   40SOL    HW2  159   1.174   1.971   0.338  1.6290 -0.8947  1.0295
   40SOL     MW  160   1.171   1.902   0.286  0.4114 -0.4555 -0.5422
   41SOL     OW  161   0.550   0.487   1.582  0.6422 -0.5768  0.0606
   41SOL    HW1  162   0.635   0.527   1.583 -0.3115  1.1897 -0.6592
   41SOL    HW2  163   0.481   0.559   1.614 -1.5465  1.1813 -0.5403
   41SOL     MW  164   0.552   0.502   1.586  0.2276 -0.1118 -0.1136
   42SOL     OW  165   1.283   3.008   2.000  0.9152  0.0474 -0.3978
   42SOL    HW1  166   1.191   2.998   2.033 -0.6769  0.2860  0.9980
   42SOL    HW2  167   1.337   2.930   2.028  1.0047 -0.7797  2.1216
   42SOL     MW  168   1.278   2.996   2.008  0.7169 -0.0303  0.1188
   43SOL     OW  169   1.485   0.142   1.657  0.1984  0.5871 -0.9569
   43SOL    HW1  170   1.530   0.080   1.607 -0.1247  1.4575  0.1134
   43SOL    HW2  171   1.405   0.097   1.674 -1.1662 -0.2988  1.9127
   43SOL     MW  172   1.480   0.127   1.653 -0.0243  0.5850 -0.4371
   44SOL     OW  173   1.188   0.776   1.009  0.8982  0.3732  0.3749
   44SOL    HW1  174   1.159   0.870   1.010  1.1145  0.8971  2.1030
   44SOL    HW2  175   1.224   0.769   1.101 -0.7363 -1.1157  0.3802
   44SOL     MW  176   1.189   0.788   1.021  0.7111  0.2459  0.6036
   45SOL     OW  177   1.219   0.752   0.688 -0.2465  0.2398  0.5381
   45SOL    HW1  178   1.177   0.763   0.772 -0.1546 -0.8997  0.2772
   45SOL    HW2  179   1.177   0.695   0.623 -0.8093  1.0194  0.7824
   45SOL     MW  180   1.208   0.746   0.690 -0.3086  0.1923  0.5359
   46SOL     OW  181   0.549   1.108   0.576 -0.0953 -0.0066  0.1087
   46SOL    HW1  182   0.502   1.114   0.494 -1.2462 -4.3154  0.2195
   46SOL    HW2  183   0.638   1.080   0.565  0.0253  0.3260 -1.1233
   46SOL     MW  184   0.555   1.105   0.564 -0.2312 -0.5312 -0.0392
   47SOL     OW  185   0.214   1.962   1.968 -0.0910 -0.5967 -0.1550
   47SOL    HW1  186   0.295   1.928   2.009  0.2892  0.9352  1.6216
   47SOL    HW2  187   0.143   1.964   2.037  0.6689 -1.3102  2.3238
   47SOL     MW  188   0.216   1.958   1.983  0.0594 -0.4887  0.4065
   48SOL     OW  189   1.088   0.516   1.055 -0.5965 -0.1146 -0.7026
   48SOL    HW1  190   0.998   0.501   1.027  2.3084 -2.4854  0.7084
   48SOL    HW2  191   1.096   0.611   1.065 -0.2037  1.6633 -0.6705
   48SOL     MW  192   1.077   0.526   1.053 -0.1614 -0.1928 -0.5122
   49SOL     OW  193   1.739   0.642   1.529  0.7049 -0.5536 -0.5267
   49SOL    HW1  194   1.708   0.602   1.613 -0.5848 -1.0023  0.4727
   49SOL    HW2  195   1.829   0.613   1.522  0.4932 -0.0646  0.6232
   49SOL     MW  196   1.747   0.632   1.539  0.5068 -0.5483 -0.2431
   50SOL     OW  197   1.278   1.125   0.538 -0.7111  0.5648 -0.0120
   50SOL    HW1  198   1.214   1.152   0.602 -0.1390 -2.0827 -0.2610
   50SOL    HW2  199   1.348   1.071   0.577 -0.5664 -0.7378  0.9103
   50SOL     MW  200   1.279   1.121   0.551 -0.6165  0.0436  0.0768
   51SOL     OW  201   0.329   2.927   0.912 -0.0428  0.1339  0.0617
   51SOL    HW1  202   0.419   2.888   0.919  1.0370  0.2529 -1.1152
   51SOL    HW2  203   0.328   2.956   1.003  1.0628  0.5334  0.0610
   51SOL     MW  204   0.341   2.926   0.925  0.2455  0.2023 -0.0937
   52SOL     OW  205   0.815   1.777   0.438 -0.5349  0.3079  0.6365
   52SOL    HW1  206   0.779   1.871   0.432  0.5223  0.1973  0.4545
   52SOL    HW2  207   0.848   1.750   0.349  1.2887  2.5696 -0.0758
   52SOL     MW  208   0.814   1.786   0.425 -0.1548  0.5917  0.5185
   53SOL     OW  209   0.432   2.139   0.462  0.7349  0.3426 -0.1192
   53SOL    HW1  210   0.351   2.117   0.416 -2.5773  0.0870  1.2860
   53SOL    HW2  211   0.410   2.225   0.507 -0.7505 -0.1554 -0.9056
   53SOL     MW  212   0.418   2.148   0.462  0.1019  0.2432 -0.0375
   54SOL     OW  213   2.031   0.923   0.780  0.7230  0.3904 -0.0768
   54SOL    HW1  214   2.084   0.901   0.703  1.2337 -0.6903 -0.6793
   54SOL    HW2  215   2.007   0.834   0.814  1.0227  0.6596 -0.0562
   54SOL     MW  216   2.035   0.908   0.774  0.8299  0.2833 -0.1536
   55SOL     OW  217   0.543   1.573   1.655 -0.2966  0.6644  0.6688
   55SOL    HW1  218   0.489   1.595   1.576 -1.6235 -3.5752 -0.7378
   55SOL    HW2  219   0.612   1.515   1.625 -2.5158 -0.4995 -1.9464
   55SOL     MW  220   0.545   1.568   1.641 -0.7645 -0.0485  0.1381
   56SOL     OW  221   0.627   0.841   0.175  0.0788  0.2957  0.0543
   56SOL    HW1  222   0.648   0.935   0.162 -0.7783  0.7272 -1.9506
   56SOL    HW2  223   0.562   0.825   0.108  0.4512 -3.0159  2.7121
   56SOL     MW  224   0.621   0.852   0.164  0.0148 -0.0843  0.1404
   57SOL     OW  225   1.184   1.254   1.139  0.5699 -0.0958  0.2671
   57SOL    HW1  226   1.276   1.250   1.150 -1.5700  1.2732  2.5180
   57SOL    HW2  227   1.141   1.222   1.226  0.0128 -2.3451  2.0186
   57SOL     MW  228   1.191   1.250   1.152  0.2140 -0.2120  0.7952
   58SOL     OW  229   0.537   1.227   1.306 -0.6234  0.1271 -0.4814
   58SOL    HW1  230   0.526   1.321   1.284  0.7269  0.6146 -1.8579
   58SOL    HW2  231   0.514   1.225   1.404  0.5479 -2.0489  0.4486
   58SOL     MW  232   0.532   1.239   1.316 -0.2907 -0.0957 -0.5403
   59SOL     OW  233   1.503   1.712   0.348  0.2306  0.3433  0.0230
   59SOL    HW1  234   1.568   1.749   0.408 -0.6931 -0.4589 -1.4030
   59SOL    HW2  235   1.428   1.717   0.412 -1.2969  0.3078  0.6430
   59SOL     MW  236   1.502   1.717   0.364 -0.0928  0.2327 -0.0833
   60SOL     OW  237   0.031   0.230   1.677 -1.1295 -0.7598 -0.0023
   60SOL    HW1  238  -0.058   0.266   1.711  3.0240 -0.0493  0.2194
   60SOL    HW2  239   0.033   0.138   1.704 -0.1603 -0.2086  0.2585
   60SOL     MW  240   0.019   0.222   1.685 -0.4536 -0.5933  0.0613
   61SOL     OW  241   2.006   1.372   3.053  0.3268 -0.4497  0.3053
   61SOL    HW1  242   1.992   1.410   3.139 -1.1394 -0.8545 -1.3449
   61SOL    HW2  243   2.079   1.318   3.070 -0.9496 -1.5535  3.4273
   61SOL     MW  244   2.014   1.370   3.067 -0.0351 -0.6488  0.4995
   62SOL     OW  245   0.560   1.683   0.507 -0.1477  0.0421 -0.0949
   62SOL    HW1  246   0.651   1.710   0.477 -0.2274  3.6180 -3.0329
   62SOL    HW2  247   0.567   1.596   0.562 -1.1491  0.1104 -0.3072
   62SOL     MW  248   0.573   1.675   0.510 -0.2903  0.5229 -0.5106
   63SOL     OW  249   1.722   0.639   0.715 -0.1258 -0.6187 -0.0230
   63SOL    HW1  250   1.746   0.706   0.652  0.7640 -1.6181 -0.3235
   63SOL    HW2  251   1.634   0.663   0.750  0.7872  0.4864  2.0439
   63SOL     MW  252   1.713   0.651   0.711  0.1121 -0.6048  0.2100
   64SOL     OW  253   0.258   1.706   0.839  0.6825 -0.3060 -0.7258
   64SOL    HW1  254   0.301   1.765   0.781  0.7029 -1.4543  0.7837
   64SOL    HW2  255   0.172   1.755   0.843  1.6046  1.8124  2.3315
   64SOL     MW  256   0.252   1.720   0.832  0.8069 -0.1780 -0.1233
   65SOL     OW  257   1.582   2.314   0.448 -0.0955  0.2737  0.2606
   65SOL    HW1  258   1.671   2.295   0.479  0.9240 -2.8592 -3.0230
   65SOL    HW2  259   1.529   2.352   0.520 -0.9637 -1.2944 -0.9599
   65SOL     MW  260   1.587   2.317   0.462 -0.0755 -0.3466 -0.3337
   66SOL     OW  261   0.319   0.543   0.489  0.4260  0.0712 -0.8445
   66SOL    HW1  262   0.383   0.526   0.426  0.0192 -0.1287  0.4821
   66SOL    HW2  263   0.297   0.638   0.488 -3.2096 -0.7511  0.3042
   66SOL     MW  264   0.324   0.554   0.481 -0.1074 -0.0637 -0.5179
   67SOL     OW  265   1.466   0.130   1.992 -0.5126 -0.3025  0.2196
   67SOL    HW1  266   1.476   0.137   1.898  0.1596  0.1954 -1.4126
   67SOL    HW2  267   1.395   0.064   2.001  1.6854 -0.6173  1.5846
   67SOL     MW  268   1.458   0.122   1.981 -0.1339 -0.2784  0.1844
   68SOL     OW  269   0.700   0.084   2.976  0.8617 -0.1146 -0.4312
   68SOL    HW1  270   0.735   0.146   2.913 -0.4091  0.6194 -1.3399
   68SOL    HW2  271   0.767   0.089   3.041 -2.1145 -2.2723 -2.4401
   68SOL     MW  272   0.714   0.093   2.976  0.3014 -0.3024 -0.8162
   69SOL     OW  273   0.973   0.190   1.997 -0.7755 -0.0703 -0.0568
   69SOL    HW1  274   1.055   0.238   2.008 -0.4032 -0.2963  1.8848
   69SOL    HW2  275   0.994   0.101   2.033 -0.2584  0.2171 -2.2175
   69SOL     MW  276   0.987   0.184   2.003 -0.6581 -0.0622 -0.0857
   70SOL     OW  277   0.555   1.753   1.138 -0.0197 -1.0342 -0.2558
   70SOL    HW1  278   0.605   1.715   1.214 -1.2923  1.1526 -0.9301
   70SOL    HW2  279   0.634   1.792   1.094 -1.4911  1.0627 -2.2305
   70SOL     MW  280   0.572   1.753   1.142 -0.3818 -0.4690 -0.6053
   71SOL     OW  281   1.597   0.498   1.199 -0.2354  0.5381 -0.5132
   71SOL    HW1  282   1.572   0.558   1.267 -1.4104 -2.3172 -0.9556
   71SOL    HW2  283   1.583   0.548   1.118  0.1353  1.2566  1.3378
   71SOL     MW  284   1.592   0.512   1.197 -0.3415  0.2562 -0.3274
   72SOL     OW  285   0.806   1.835   1.030  0.2247  0.0579 -0.2204
   72SOL    HW1  286   0.806   1.889   0.951  3.9083 -1.4553 -0.8547
   72SOL    HW2  287   0.801   1.738   1.007 -1.9330  0.8886 -1.3219
   72SOL     MW  288   0.805   1.830   1.016  0.4261 -0.0322 -0.4494
   73SOL     OW  289   1.191   0.725   1.288  0.0398 -0.1302  0.2503
   73SOL    HW1  290   1.127   0.652   1.284  1.7883 -0.0085 -1.0848
   73SOL    HW2  291   1.128   0.792   1.311  1.2884  2.1772 -1.4812
   73SOL     MW  292   1.174   0.725   1.291  0.4352  0.1903 -0.1543
   74SOL     OW  293   2.785   0.244   1.134 -0.0668  0.3508  0.2226
   74SOL    HW1  294   2.863   0.263   1.080  1.8851  2.6906  0.6556
   74SOL    HW2  295   2.716   0.281   1.076  3.2429  1.4221  0.4324
   74SOL     MW  296   2.786   0.251   1.119  0.6274  0.8009  0.3074
   75SOL     OW  297   1.564   1.403   0.113  0.3047 -0.3309  0.1947
   75SOL    HW1  298   1.647   1.426   0.069  2.0235 -3.2578 -1.0908
   75SOL    HW2  299   1.597   1.370   0.197  0.0152  0.3799 -2.1925
   75SOL     MW  300   1.580   1.402   0.118  0.4933 -0.6233 -0.2899
   76SOL     OW  301   2.974   0.584   0.466  0.6340 -0.5755 -0.5752
   76SOL    HW1  302   3.004   0.619   0.554 -0.9352 -2.0228  1.0146
   76SOL    HW2  303   3.053   0.533   0.438 -0.5227 -2.0409 -1.0219
   76SOL     MW  304   2.988   0.582   0.474  0.2744 -0.9598 -0.4244
   77SOL     OW  305   0.799   0.556   0.480  0.0109 -0.4416  0.0287
   77SOL    HW1  306   0.789   0.576   0.384  0.0142  2.9220  0.0622
   77SOL    HW2  307   0.792   0.458   0.491 -1.2149  0.5330 -0.6489
   77SOL     MW  308   0.797   0.545   0.469 -0.1504  0.1308 -0.0563
   78SOL     OW  309   0.752   0.851   1.188 -0.1827 -0.4148 -0.1780
   78SOL    HW1  310   0.772   0.929   1.128  0.1544  0.2509  0.2232
   78SOL    HW2  311   0.662   0.840   1.157 -1.8361  0.5759 -1.5863
   78SOL     MW  312   0.743   0.860   1.176 -0.3564 -0.1962 -0.3109
   79SOL     OW  313   1.915   1.656   0.637 -0.0833  0.0263  0.1538
   79SOL    HW1  314   1.835   1.628   0.590 -0.5217 -0.1995 -0.7610
   79SOL    HW2  315   1.905   1.631   0.729  0.4636 -0.9910  0.6750
   79SOL     MW  316   1.903   1.649   0.643 -0.0690 -0.1377  0.1019
   80SOL     OW  317   0.071   0.932   0.349 -0.0976 -0.2433  0.5274
   80SOL    HW1  318  -0.020   0.934   0.381  1.5138  0.8363 -0.5227
   80SOL    HW2  319   0.130   0.884   0.411  0.2195  2.0425  0.3006
   80SOL     MW  320   0.066   0.926   0.361  0.1568  0.2008  0.3589
   81SOL     OW  321   1.852   1.900   0.315 -0.0793 -0.4880 -0.2684
   81SOL    HW1  322   1.821   1.813   0.280 -0.7985  1.3694  1.3455
   81SOL    HW2  323   1.812   1.968   0.267  2.7309  1.7943  0.2811
   81SOL     MW  324   1.843   1.897   0.304  0.1966  0.0582  0.0171
   82SOL     OW  325   0.838   0.994   0.528  0.2858  0.6570 -0.5329
   82SOL    HW1  326   0.834   1.013   0.435  0.0766 -1.5633  0.5805
   82SOL    HW2  327   0.818   0.902   0.526 -0.7268 -0.7825  0.2218
   82SOL     MW  328   0.835   0.984   0.515  0.1246  0.1741 -0.2864
   83SOL     OW  329   0.058   0.735   1.472 -0.0997  0.6826  0.4168
   83SOL    HW1  330   0.087   0.804   1.410 -0.5787 -0.5754 -0.0455
   83SOL    HW2  331   0.138   0.690   1.497 -4.1955 -3.3627  0.3473
   83SOL     MW  332   0.072   0.738   1.467 -0.7033 -0.0171  0.3466
   84SOL     OW  333   0.067   0.174   0.938 -0.3212 -0.0897 -0.4898
   84SOL    HW1  334   0.021   0.260   0.961  0.4287  1.5072  0.3401
   84SOL    HW2  335   0.046   0.111   1.013 -3.9413 -1.4076 -3.1587
   84SOL     MW  336   0.058   0.177   0.951 -0.6999 -0.0529 -0.7324
   85SOL     OW  337   0.437   0.448   0.739  0.3361  0.2801 -0.4501
   85SOL    HW1  338   0.406   0.471   0.652  2.5264 -0.4438  0.5375
   85SOL    HW2  339   0.409   0.359   0.758 -2.9838 -1.7100  0.6968
   85SOL     MW  340   0.429   0.439   0.730  0.1871 -0.0780 -0.1685
   86SOL     OW  341   1.171   0.260   1.126  0.5748 -0.2970 -0.1870
   86SOL    HW1  342   1.119   0.344   1.125 -0.2293  1.5312 -0.7947
   86SOL    HW2  343   1.240   0.261   1.193  0.3880  1.1398  1.7958
   86SOL     MW  344   1.173   0.272   1.135  0.4440  0.1338 -0.0056
   87SOL     OW  345   1.154   1.519   1.244  0.1711 -0.4578 -0.4932
   87SOL    HW1  346   1.185   1.591   1.186 -1.3835  0.0004 -3.8053
   87SOL    HW2  347   1.185   1.437   1.203 -0.6312  2.1898  1.5247
   87SOL     MW  348   1.163   1.518   1.231 -0.1399 -0.0480 -0.6639
   88SOL     OW  349   1.182   1.039   0.974 -0.1941 -1.1391 -0.1385
   88SOL    HW1  350   1.274   1.047   0.955  2.1081  2.1555 -1.1824
   88SOL    HW2  351   1.171   1.107   1.045  0.8301 -0.9928 -1.3101
   88SOL     MW  352   1.193   1.049   0.981  0.2448 -0.6851 -0.4308
   89SOL     OW  353   1.772   0.755   0.331  0.0115 -0.0632  0.2712
   89SOL    HW1  354   1.780   0.658   0.330  0.8967 -0.8121  0.4353
   89SOL    HW2  355   1.866   0.776   0.302  1.2126  1.2254  0.3222
   89SOL     MW  356   1.785   0.745   0.327  0.2867  0.0080  0.2995
   90SOL     OW  357   0.828   1.126   2.812  0.3904  1.0025  0.5736
   90SOL    HW1  358   0.857   1.034   2.820 -1.3120  2.2831 -1.5094
   90SOL    HW2  359   0.843   1.171   2.899 -0.9674  1.4220  0.2009
   90SOL     MW  360   0.834   1.120   2.825 -0.0134  1.2268  0.2496
   91SOL     OW  361   2.156   0.693   0.492  0.2536 -0.1044  0.1691
   91SOL    HW1  362   2.221   0.742   0.444 -3.7533 -0.7463 -0.8830
   91SOL    HW2  363   2.186   0.598   0.476 -1.3580  2.4314  1.2439
   91SOL     MW  364   2.168   0.687   0.484 -0.4877  0.1455  0.1721
   92SOL     OW  365   1.753   0.907   0.578  0.1410 -0.4738 -0.3660
   92SOL    HW1  366   1.659   0.928   0.588  1.7530 -1.6021  0.3802
   92SOL    HW2  367   1.760   0.858   0.492 -1.1842 -0.8435  0.3903
   92SOL     MW  368   1.741   0.904   0.568  0.1789 -0.6714 -0.1678
   93SOL     OW  369   1.054   0.175   0.421  0.3501 -0.0806  0.6017
   93SOL    HW1  370   0.964   0.212   0.434 -0.6964  0.2615  0.1194
   93SOL    HW2  371   1.079   0.221   0.339  0.0972 -0.3419 -0.5191
   93SOL     MW  372   1.046   0.186   0.412  0.1786 -0.0699  0.3902
   94SOL     OW  373   1.848   1.378   1.643 -0.6880 -0.6377 -0.0073
   94SOL    HW1  374   1.851   1.366   1.543 -0.3653  0.8112  1.6188
   94SOL    HW2  375   1.816   1.297   1.683 -1.5423  0.3759  0.1435
   94SOL     MW  376   1.844   1.366   1.635 -0.7581 -0.3128  0.2272
   95SOL     OW  377   0.763   1.579   0.977 -0.5846  0.3572 -0.0103
   95SOL    HW1  378   0.810   1.535   1.048 -2.2989 -2.7724 -2.4455
   95SOL    HW2  379   0.680   1.535   0.977 -1.9357  3.5794  0.5337
   95SOL     MW  380   0.758   1.567   0.986 -0.9890  0.3694 -0.2598
   96SOL     OW  381   1.313   1.889   1.717  0.1505 -0.5204 -0.1214
   96SOL    HW1  382   1.229   1.875   1.768  0.2689 -0.0237 -1.2857
   96SOL    HW2  383   1.337   1.806   1.678  0.3582  3.4170  2.3467
   96SOL     MW  384   1.305   1.876   1.718  0.1935  0.0647  0.0506
   97SOL     OW  385   1.132   1.450   0.875  0.2486 -0.0409  0.2065
   97SOL    HW1  386   1.179   1.518   0.926 -0.2220 -0.0022  0.3491
   97SOL    HW2  387   1.047   1.491   0.842  2.9078  0.3221  1.8199
   97SOL     MW  388   1.127   1.465   0.878  0.5374  0.0121  0.4382
   98SOL     OW  389   1.484   1.276   1.099 -0.2059 -0.0737  0.1090
   98SOL    HW1  390   1.519   1.338   1.165 -0.9390 -0.7362  1.7111
   98SOL    HW2  391   1.478   1.315   1.006  0.3450  1.0670  0.5560
   98SOL     MW  392   1.488   1.289   1.096 -0.2300 -0.0106  0.3794
   99SOL     OW  393   1.423   0.279   1.306  0.4795  0.0383 -0.2520
   99SOL    HW1  394   1.475   0.325   1.244 -0.7079 -0.6699 -1.1792
   99SOL    HW2  395   1.397   0.343   1.373  1.1331 -2.6944 -0.6940
   99SOL     MW  396   1.427   0.293   1.307  0.4091 -0.4157 -0.4327
  100SOL     OW  397   1.051   1.196   1.372  0.0679 -0.4188  0.3096
  100SOL    HW1  398   1.052   1.249   1.451  0.5947  0.2709 -0.0793
  100SOL    HW2  399   1.036   1.101   1.397  1.6722 -1.2443  0.3992
  100SOL     MW  400   1.049   1.191   1.386  0.3491 -0.4368  0.2701
  101SOL     OW  401   0.468   1.195   0.318 -0.3622  0.2115  0.6396
  101SOL    HW1  402   0.408   1.155   0.258  0.7371  4.1560 -0.0270
  101SOL    HW2  403   0.556   1.191   0.283  2.0118 -1.7494 -0.4224
  101SOL     MW  404   0.472   1.189   0.306  0.0960  0.4732  0.4115
  102SOL     OW  405   2.903   0.645   0.974 -0.2169 -0.3131  0.0234
  102SOL    HW1  406   2.952   0.732   0.980 -1.1113 -1.0385  0.7417
  102SOL    HW2  407   2.888   0.638   1.069  0.8053  1.3229  0.7118
  102SOL     MW  408   2.908   0.656   0.987 -0.2000 -0.1930  0.2090
  103SOL     OW  409   1.730   0.245   1.876  0.9704  0.0182 -0.1174
  103SOL    HW1  410   1.775   0.160   1.854  1.4868  2.6986 -0.1824
  103SOL    HW2  411   1.695   0.229   1.968  0.0763 -1.5721  2.5334
  103SOL     MW  412   1.731   0.232   1.885  0.9206  0.1620  0.2237
  104SOL     OW  413   0.157   1.524   1.567 -0.2392 -0.1394 -0.2949
  104SOL    HW1  414   0.187   1.448   1.608  0.4240  0.8858  0.5240
  104SOL    HW2  415   0.061   1.517   1.568 -1.9433 -0.1435 -0.0998
  104SOL     MW  416   0.148   1.513   1.573 -0.3765 -0.0046 -0.1611
  105SOL     OW  417   0.039   1.186   0.418 -0.3147  0.0924 -0.1004
  105SOL    HW1  418   0.066   1.086   0.402 -0.2481 -1.6806  0.3806
  105SOL    HW2  419   0.124   1.240   0.432  1.2218 -0.6488  2.3091
  105SOL     MW  420   0.054   1.180   0.417 -0.1032 -0.2393  0.2810
  106SOL     OW  421   0.829   0.399   1.013  0.6078  0.1452  0.0006
  106SOL    HW1  422   0.758   0.465   0.992 -1.3624 -1.1659  2.2186
  106SOL    HW2  423   0.870   0.396   0.920  1.4896  0.4533  0.0278
  106SOL     MW  424   0.825   0.407   0.998  0.4642  0.0129  0.2968
  107SOL     OW  425   0.803   2.142   2.914 -0.2023 -0.0408  0.2490
  107SOL    HW1  426   0.724   2.123   2.864  1.5589  0.1392 -0.5553
  107SOL    HW2  427   0.782   2.093   2.998  1.9017 -2.2502  0.0468
  107SOL     MW  428   0.790   2.133   2.918  0.3077 -0.3085  0.1162
  108SOL     OW  429   1.327   1.636   1.635 -0.1488  0.8120  0.1962
  108SOL    HW1  430   1.241   1.625   1.575  0.5032 -1.2735  2.3979
  108SOL    HW2  431   1.376   1.561   1.609 -2.0117 -0.2388 -0.3013
  108SOL     MW  432   1.322   1.625   1.624 -0.3085  0.3982  0.4210
  109SOL     OW  433   2.023   0.754   0.272 -0.2378 -0.1534  0.3731
  109SOL    HW1  434   2.067   0.842   0.264 -2.5322  0.8659 -1.4611
  109SOL    HW2  435   2.061   0.714   0.350 -0.9110 -0.3640 -0.6964
  109SOL     MW  436   2.034   0.760   0.281 -0.6294 -0.0467 -0.0100
  110SOL     OW  437   0.407   1.926   0.627  0.0112  0.2768  0.2275
  110SOL    HW1  438   0.402   1.843   0.573 -0.6814 -2.7260  0.0858
  110SOL    HW2  439   0.402   2.006   0.572  1.4126 -0.4363  2.3473
  110SOL     MW  440   0.406   1.926   0.613  0.1047 -0.2135  0.4885
  111SOL     OW  441   0.750   0.868   1.461 -0.0085  0.3070 -0.4164
  111SOL    HW1  442   0.733   0.851   1.369  0.9014 -0.6213 -0.0846
  111SOL    HW2  443   0.772   0.790   1.508  0.8668  2.3017  1.0270
  111SOL     MW  444   0.751   0.856   1.455  0.2270  0.4477 -0.1822
  112SOL     OW  445   1.316   1.088   1.634 -0.1040 -0.2839 -0.0894
  112SOL    HW1  446   1.251   1.152   1.654  0.1090 -0.2264 -1.7614
  112SOL    HW2  447   1.267   1.004   1.647 -1.2753  0.1936 -0.4816
  112SOL     MW  448   1.301   1.085   1.638 -0.2304 -0.2133 -0.3618
  113SOL     OW  449   1.252   3.059   1.735 -0.6251 -0.4551  0.0453
  113SOL    HW1  450   1.271   3.023   1.823  3.6074 -1.7665 -1.4756
  113SOL    HW2  451   1.259   2.986   1.670 -0.3583 -0.5129 -2.0265
  113SOL     MW  452   1.256   3.045   1.738 -0.0314 -0.6357 -0.4287
  114SOL     OW  453   0.242   2.876   1.873  0.0141 -0.0113 -0.1875
  114SOL    HW1  454   0.312   2.910   1.922 -1.5710 -1.7048 -1.0588
  114SOL    HW2  455   0.188   2.950   1.842 -3.0398  1.8668 -2.1363
  114SOL     MW  456   0.244   2.891   1.875 -0.5979  0.0131 -0.5596
  115SOL     OW  457   0.485   0.864   1.113 -0.1209 -0.0487  0.1637
  115SOL    HW1  458   0.503   0.783   1.153 -1.4137  0.6252  1.1189
  115SOL    HW2  459   0.447   0.926   1.176 -1.5967 -0.0454  0.3057
  115SOL     MW  460   0.483   0.861   1.126 -0.4862  0.0407  0.3085
  116SOL     OW  461   0.784   1.083   1.011 -0.1061 -0.7528 -0.1036
  116SOL    HW1  462   0.823   1.108   0.924  1.1004 -2.8558 -0.3648
  116SOL    HW2  463   0.795   1.164   1.066  0.9164  1.4633  0.9033
  116SOL     MW  464   0.791   1.097   1.007  0.1880 -0.7378 -0.0053
  117SOL     OW  465   1.143   1.203   0.764 -0.0825  0.1630  0.2678
  117SOL    HW1  466   1.170   1.147   0.838  0.5472  2.3387 -0.3656
  117SOL    HW2  467   1.139   1.294   0.795 -1.8556  2.0942  3.3425
  117SOL     MW  468   1.146   1.208   0.778 -0.2334  0.7049  0.5899
  118SOL     OW  469   3.033   2.971   1.650  0.4670 -0.0132  0.0768
  118SOL    HW1  470   3.088   3.021   1.714 -1.0685 -1.7562  1.4409
  118SOL    HW2  471   2.945   3.016   1.646 -1.8331 -0.1393 -1.5673
  118SOL     MW  472   3.028   2.984   1.658 -0.0391 -0.2598  0.0399
  119SOL     OW  473   0.458   1.474   1.217 -0.6714 -0.5439  0.2290
  119SOL    HW1  474   0.497   1.539   1.159  1.3995 -0.1462 -1.3213
  119SOL    HW2  475   0.361   1.485   1.203 -1.6427 -0.6198  0.3014
  119SOL     MW  476   0.450   1.484   1.207 -0.5263 -0.5014  0.0340
  120SOL     OW  477   0.264   0.720   0.966 -0.0275 -0.8976  0.5867
  120SOL    HW1  478   0.262   0.649   1.031 -3.0027 -0.1706 -0.4355
  120SOL    HW2  479   0.338   0.781   0.991  0.1494 -0.3262  2.6830
  120SOL     MW  480   0.274   0.719   0.978 -0.3967 -0.7263  0.7284
  121SOL     OW  481   1.789   1.104   1.686  0.0716  0.5672 -0.2233
  121SOL    HW1  482   1.699   1.085   1.664 -3.2772 -0.6231 -0.4987
  121SOL    HW2  483   1.838   1.081   1.607 -1.2307  4.0968  0.7793
  121SOL     MW  484   1.784   1.099   1.673 -0.5421  0.8759 -0.1274
  122SOL     OW  485   0.179   0.512   0.835  0.2712  0.7040  0.1286
  122SOL    HW1  486   0.260   0.476   0.800  0.0844  2.1228  1.0261
  122SOL    HW2  487   0.207   0.597   0.870 -2.6319 -0.4105 -0.4234
  122SOL     MW  488   0.193   0.518   0.835 -0.1364  0.7441  0.1742
  123SOL     OW  489   1.853   1.158   0.478 -0.2355  0.2458 -0.4332
  123SOL    HW1  490   1.813   1.071   0.509  1.5989 -1.7560 -1.5374
  123SOL    HW2  491   1.879   1.212   0.554 -1.3492 -0.1790 -0.8367
  123SOL     MW  492   1.851   1.154   0.492 -0.1404 -0.0743 -0.6321
  124SOL     OW  493   0.628   0.558   0.936 -0.3254  0.1630 -0.0053
  124SOL    HW1  494   0.563   0.532   0.873  1.1910 -1.3372 -1.0547
  124SOL    HW2  495   0.669   0.643   0.898 -0.4105 -1.4709 -3.7271
  124SOL     MW  496   0.625   0.566   0.923 -0.1366 -0.2505 -0.6348
  125SOL     OW  497   0.701   1.771   1.738  0.4263  0.4054  0.2261
  125SOL    HW1  498   0.635   1.706   1.705  0.1077  0.1767 -0.3129
  125SOL    HW2  499   0.665   1.853   1.718 -1.1831 -3.6128  2.2245
  125SOL     MW  500   0.688   1.773   1.731  0.1719 -0.1550  0.4186
  126SOL     OW  501   2.115   1.598   1.985  0.5132 -0.4528  0.1294
  126SOL    HW1  502   2.169   1.679   1.970 -0.8499 -0.0649  0.0358
  126SOL    HW2  503   2.168   1.537   2.030  0.5108  0.6528  0.3283
  126SOL     MW  504   2.129   1.601   1.989  0.3330 -0.2557  0.1433
  127SOL     OW  505   0.573   0.802   1.817 -0.1278  0.2095 -0.1715
  127SOL    HW1  506   0.663   0.785   1.849 -0.2395 -1.7057 -1.3634
  127SOL    HW2  507   0.531   0.871   1.871 -1.6264  0.1193  0.9239
  127SOL     MW  508   0.579   0.809   1.828 -0.3402 -0.0551 -0.1842
  128SOL     OW  509   1.739   0.711   2.895  0.2305 -0.1819  0.3178
  128SOL    HW1  510   1.764   0.718   2.804  0.3372 -1.5228  1.6778
  128SOL    HW2  511   1.728   0.803   2.924 -0.6555 -0.7629  2.2274
  128SOL     MW  512   1.741   0.724   2.887  0.1277 -0.4354  0.7492
  129SOL     OW  513   1.634   0.911   0.136  0.1792  0.1567 -0.4678
  129SOL    HW1  514   1.543   0.876   0.133  0.7631  0.1193 -0.7773
  129SOL    HW2  515   1.664   0.845   0.195  1.9265  2.4462  1.2466
  129SOL     MW  516   1.626   0.897   0.143  0.4867  0.4538 -0.2824
  130SOL     OW  517   0.791   1.372   0.287  0.6358  0.0086 -0.5335
  130SOL    HW1  518   0.797   1.402   0.375 -0.4214  0.3751 -0.4919
  130SOL    HW2  519   0.837   1.443   0.240  0.0682 -0.6419  2.7027
  130SOL     MW  520   0.798   1.385   0.292  0.4214 -0.0289 -0.1011
  131SOL     OW  521   3.040   0.853   0.016 -0.0896 -0.1436 -0.2177
  131SOL    HW1  522   3.056   0.874  -0.077 -1.3951 -0.4068 -2.8363
  131SOL    HW2  523   3.117   0.812   0.047  1.9078 -0.6726 -3.1924
  131SOL     MW  524   3.052   0.850   0.008  0.0017 -0.2481 -0.9556
  132SOL     OW  525   2.693   0.128   1.352  0.5794  0.6723 -0.2519
  132SOL    HW1  526   2.724   0.169   1.272  0.2814 -0.1426 -2.0249
  132SOL    HW2  527   2.602   0.094   1.339  0.7762 -0.2416  0.4624
  132SOL     MW  528   2.685   0.129   1.340  0.5661  0.4442 -0.3916
  133SOL     OW  529   1.066   0.167   1.702 -0.5328 -0.2324 -0.1119
  133SOL    HW1  530   1.119   0.084   1.713  1.2930 -0.3819  0.9394
  133SOL    HW2  531   1.034   0.196   1.788 -1.3465  2.2766 -2.0649
  133SOL     MW  532   1.069   0.160   1.715 -0.3992  0.0789 -0.2309
  134SOL     OW  533   1.404   2.514   1.389  0.5139  0.2219 -0.4488
  134SOL    HW1  534   1.334   2.581   1.400 -0.6534 -1.7394  0.9534
  134SOL    HW2  535   1.460   2.510   1.464 -0.6626 -1.3822  2.2696
  134SOL     MW  536   1.402   2.522   1.400  0.2047 -0.2485  0.0949
  135SOL     OW  537   2.996   0.971   2.866 -0.2139 -0.4836 -0.1128
  135SOL    HW1  538   3.077   1.035   2.875  1.9346  2.1102 -0.7689
  135SOL    HW2  539   2.921   1.025   2.888  2.3985  2.0707 -1.2622
  135SOL     MW  540   2.997   0.987   2.870  0.4142  0.1956 -0.3510
  136SOL     OW  541   0.213   2.033   0.784  0.2130 -0.1764 -0.0357
  136SOL    HW1  542   0.153   1.955   0.784 -0.3866  1.4908 -1.1862
  136SOL    HW2  543   0.297   2.006   0.737  2.1372  0.4847 -0.3535
  136SOL     MW  544   0.216   2.019   0.778  0.3878  0.1308 -0.2294
  137SOL     OW  545   0.693   2.021   0.496 -0.1898  0.3026 -0.3174
  137SOL    HW1  546   0.705   1.997   0.587  1.9186  0.9156  0.5588
  137SOL    HW2  547   0.595   2.017   0.493 -0.8583  0.1533  2.1314
  137SOL     MW  548   0.681   2.017   0.508  0.0002  0.3638  0.1213
  138SOL     OW  549   0.503   0.595   1.175 -0.3982 -0.4687  0.2987
  138SOL    HW1  550   0.412   0.566   1.165 -2.9450  0.9648  0.9867
  138SOL    HW2  551   0.547   0.591   1.090  0.9964  1.0647 -0.0405
  138SOL     MW  552   0.497   0.591   1.163 -0.5502 -0.0772  0.3447
  139SOL     OW  553   2.868   0.560   1.235  0.0483 -0.4440  0.4015
  139SOL    HW1  554   2.945   0.514   1.277 -1.0532 -0.4484 -0.4033
  139SOL    HW2  555   2.849   0.630   1.299  0.7545  0.2935  0.5101
  139SOL     MW  556   2.875   0.563   1.249 -0.0039 -0.3473  0.3096
  140SOL     OW  557   0.964   0.500   2.033  0.3587  0.4270 -0.8367
  140SOL    HW1  558   0.987   0.424   1.978 -0.3253  0.1330  1.5017
  140SOL    HW2  559   0.929   0.465   2.116 -1.0940  1.4197  2.5091
  140SOL     MW  560   0.963   0.485   2.037  0.0768  0.5192 -0.0868
  141SOL     OW  561   1.016   0.644   1.711 -0.2855  0.2071 -0.4559
  141SOL    HW1  562   1.073   0.576   1.677 -0.3503 -0.2801 -2.0925
  141SOL    HW2  563   1.061   0.726   1.696 -0.8160 -2.6206 -1.3568
  141SOL     MW  564   1.029   0.646   1.705 -0.3640 -0.2303 -0.7907
  142SOL     OW  565   0.878   1.119   0.769 -0.5902  0.1095 -0.2793
  142SOL    HW1  566   0.850   1.069   0.684 -1.7795 -0.3410  0.4570
  142SOL    HW2  567   0.971   1.140   0.755  1.3826 -1.9889 -0.0382
  142SOL     MW  568   0.886   1.115   0.756 -0.4869 -0.2268 -0.1503
  143SOL     OW  569   1.814   0.723   1.065 -0.6621 -0.4921  0.9758
  143SOL    HW1  570   1.872   0.712   0.987  0.5738 -0.5079  0.2132
  143SOL    HW2  571   1.727   0.713   1.032  0.3626  2.3328 -1.4359
  143SOL     MW  572   1.810   0.720   1.051 -0.3639 -0.1215  0.5570
  144SOL     OW  573   0.278   1.302   1.686 -0.4802  0.4749  0.2077
  144SOL    HW1  574   0.355   1.252   1.649 -0.8829  1.3977 -2.6598
  144SOL    HW2  575   0.283   1.290   1.787 -2.0879  0.5502  1.4512
  144SOL     MW  576   0.289   1.294   1.695 -0.7454  0.6066 -0.0065
  145SOL     OW  577   0.231   0.502   1.177  0.1966  0.1711  0.0138
  145SOL    HW1  578   0.267   0.426   1.221  2.0984  1.4947 -0.7366
  145SOL    HW2  579   0.146   0.478   1.156 -2.7040  1.2245 -1.0262
  145SOL     MW  580   0.225   0.489   1.180  0.0648  0.4847 -0.2224
  146SOL     OW  581   0.838   1.993   1.412  0.5145  0.0786 -0.0968
  146SOL    HW1  582   0.890   1.994   1.328  0.0162  0.2863 -4.3003
  146SOL    HW2  583   0.746   1.988   1.381  1.2079  1.6089  1.2341
  146SOL     MW  584   0.832   1.993   1.397  0.5403  0.3079 -0.4758
  147SOL     OW  585   0.359   0.484   2.994  0.0322  0.2516 -0.3753
  147SOL    HW1  586   0.313   0.486   3.075  0.3124  0.4063 -2.5440
  147SOL    HW2  587   0.310   0.543   2.931  1.2331  1.8018 -0.5851
  147SOL     MW  588   0.346   0.492   2.997  0.2276  0.4765 -0.6891
  148SOL     OW  589   0.089   0.957   1.309 -0.3519  0.3601 -0.0743
  148SOL    HW1  590   0.176   0.965   1.341  0.6716 -3.6060  3.6581
  148SOL    HW2  591   0.058   1.050   1.321 -0.9226 -0.2285 -2.0405
  148SOL     MW  592   0.096   0.971   1.314 -0.2922 -0.2409  0.1587
  149SOL     OW  593   1.463   1.091   1.381  0.7090 -0.2031  0.0516
  149SOL    HW1  594   1.395   1.089   1.447 -0.1490  2.2389 -0.1560
  149SOL    HW2  595   1.493   1.183   1.382 -1.2031 -0.0246  1.0026
  149SOL     MW  596   1.458   1.102   1.390  0.3435  0.1427  0.1497
  150SOL     OW  597   1.738   1.370   0.774 -0.1704  0.1098 -0.0192
  150SOL    HW1  598   1.785   1.291   0.795 -1.7808  1.0693  2.9353
  150SOL    HW2  599   1.784   1.427   0.828 -2.4257 -0.6072 -1.2445
  150SOL     MW  600   1.751   1.367   0.784 -0.6804  0.1418  0.2089
  151SOL     OW  601   1.664   1.806   0.794 -0.2177  0.7974  0.0329
  151SOL    HW1  602   1.655   1.811   0.697 -1.7339  0.4925 -2.5016
  151SOL    HW2  603   1.591   1.759   0.825  2.8267  0.5254  0.7425
  151SOL     MW  604   1.653   1.801   0.785 -0.0160  0.7213 -0.2079
  152SOL     OW  605   0.797   1.443   1.625  0.1448  0.4238  0.2487
  152SOL    HW1  606   0.754   1.395   1.696 -3.0235  1.7204 -0.7504
  152SOL    HW2  607   0.841   1.369   1.576 -0.3529 -3.3339  2.0010
  152SOL     MW  608   0.797   1.427   1.628 -0.3389  0.0991  0.3481
  153SOL     OW  609   2.594   1.217   0.801 -0.0191 -0.0767  0.1428
  153SOL    HW1  610   2.674   1.210   0.749  0.9652  2.3507 -0.3013
  153SOL    HW2  611   2.537   1.145   0.788 -1.0747  2.6304  0.0339
  153SOL     MW  612   2.597   1.207   0.792 -0.0285  0.6007  0.0698
  154SOL     OW  613   0.155   1.757   1.710 -0.2315 -0.2795  0.1972
  154SOL    HW1  614   0.159   1.678   1.665  2.4446 -1.0190  1.4351
  154SOL    HW2  615   0.237   1.757   1.763 -0.1087 -0.9005 -1.3846
  154SOL     MW  616   0.167   1.747   1.711  0.1378 -0.4590  0.1519
  155SOL     OW  617   1.159   0.682   0.274 -0.0338 -0.1762 -0.1028
  155SOL    HW1  618   1.152   0.654   0.363 -1.0728  1.7135  1.2403
  155SOL    HW2  619   1.153   0.781   0.283 -0.3456  1.1250 -0.1703
  155SOL     MW  620   1.157   0.691   0.287 -0.2120  0.2448  0.0655
  156SOL     OW  621   1.543   3.005   1.076  0.4886 -0.3767 -0.4108
  156SOL    HW1  622   1.605   3.064   1.121  1.6047 -0.4370 -2.6594
  156SOL    HW2  623   1.545   2.920   1.114  0.8429 -0.6251  0.1735
  156SOL     MW  624   1.551   3.002   1.087  0.6826 -0.4175 -0.6304
  157SOL     OW  625   1.420   1.186   0.100 -0.5701 -1.0658  0.0500
  157SOL    HW1  626   1.478   1.127   0.137 -0.8184  4.5682 -0.6005
  157SOL    HW2  627   1.479   1.269   0.096  1.3628 -1.0680 -1.0057
  157SOL     MW  628   1.436   1.189   0.105 -0.3478 -0.3227 -0.1752
  158SOL     OW  629   0.403   1.626   2.256 -0.3197 -0.1578  0.5855
  158SOL    HW1  630   0.431   1.698   2.198  1.1997 -1.5391  0.0334
  158SOL    HW2  631   0.362   1.664   2.332 -1.4591 -0.3667 -2.1213
  158SOL     MW  632   0.401   1.641   2.258 -0.2696 -0.3676  0.1555
  159SOL     OW  633   1.281   1.713   0.476  0.2146 -0.2184 -0.0560
  159SOL    HW1  634   1.249   1.653   0.410 -2.2178  1.0385 -1.1449
  159SOL    HW2  635   1.203   1.741   0.528  1.9477 -0.3372 -0.8386
  159SOL     MW  636   1.267   1.709   0.474  0.1223 -0.0682 -0.3029
  160SOL     OW  637   0.506   1.147   1.577 -0.0250  0.3636 -0.3970
  160SOL    HW1  638   0.475   1.054   1.583  1.4370 -0.5347 -0.9460
  160SOL    HW2  639   0.595   1.141   1.608 -0.0221  2.7810  0.7330
  160SOL     MW  640   0.514   1.134   1.582  0.1683  0.5640 -0.3203
  161SOL     OW  641   0.477   2.247   2.540 -0.1565 -0.5094 -0.5442
  161SOL    HW1  642   0.383   2.274   2.554 -2.9770  1.0184  0.2322
  161SOL    HW2  643   0.480   2.171   2.481 -0.8099 -1.2449 -2.5528
  161SOL     MW  644   0.465   2.240   2.534 -0.6149 -0.4049 -0.7067
  162SOL     OW  645   1.093   1.792   1.867 -0.4983 -0.2402 -0.8375
  162SOL    HW1  646   1.100   1.868   1.929 -0.7408  1.8035  2.3312
  162SOL    HW2  647   1.006   1.760   1.858 -0.0228 -3.4570  1.4374
  162SOL     MW  648   1.083   1.798   1.874 -0.4676 -0.3950 -0.1192
  163SOL     OW  649   2.096   3.023   0.881 -0.8464  0.4110  0.4493
  163SOL    HW1  650   2.073   3.097   0.824 -0.8697 -2.8779  1.7145
  163SOL    HW2  651   2.093   2.943   0.825  0.1406 -0.6925 -2.6633
  163SOL     MW  652   2.092   3.022   0.866 -0.7193 -0.1686  0.2056
  164SOL     OW  653   0.308   0.222   0.807 -0.1437 -0.3510  0.0284
  164SOL    HW1  654   0.220   0.211   0.856 -0.5530 -1.2447 -1.3868
  164SOL    HW2  655   0.313   0.146   0.751 -1.5166  1.8537 -0.1866
  164SOL     MW  656   0.297   0.210   0.806 -0.3788 -0.1780 -0.1867
  165SOL     OW  657   1.309   1.303   0.343 -0.6448 -0.5502  0.1079
  165SOL    HW1  658   1.299   1.222   0.403 -1.1532 -0.6728  0.4622
  165SOL    HW2  659   1.320   1.271   0.252 -0.5420  1.6837 -0.7650
  165SOL     MW  660   1.309   1.288   0.339 -0.6983 -0.2717  0.0395
  166SOL     OW  661   0.541   1.208   0.988 -0.2583  0.1386  0.5869
  166SOL    HW1  662   0.502   1.193   1.075  2.8110 -0.8875 -0.5180
  166SOL    HW2  663   0.621   1.152   0.987  2.0733 -0.2055 -4.4781
  166SOL     MW  664   0.546   1.198   0.999  0.4543 -0.0422 -0.2272
  167SOL     OW  665   0.814   1.098   0.259  0.0046  0.1806 -0.2213
  167SOL    HW1  666   0.817   1.197   0.281 -1.6435 -0.4175 -3.5508
  167SOL    HW2  667   0.902   1.095   0.216  2.6462 -0.0589  0.5933
  167SOL     MW  668   0.826   1.111   0.256  0.1357  0.0701 -0.5531
  168SOL     OW  669   1.724   1.656   3.029  0.0201  0.0413 -0.2492
  168SOL    HW1  670   1.643   1.695   3.013  4.3240 -2.4340  0.9716
  168SOL    HW2  671   1.707   1.569   2.994 -0.8671 -1.0106 -1.3601
  168SOL     MW  672   1.711   1.649   3.022  0.4709 -0.4241 -0.2347
  169SOL     OW  673   0.368   0.999   1.343 -0.0326 -0.0832 -0.0865
  169SOL    HW1  674   0.421   0.965   1.418 -0.2363  0.8715  0.5893
  169SOL    HW2  675   0.402   1.088   1.330 -1.7915 -0.1826  1.0610
  169SOL     MW  676   0.380   1.006   1.351 -0.2916  0.0297  0.1541
  170SOL     OW  677   1.097   1.543   1.508  0.2427  0.1377 -0.3102
  170SOL    HW1  678   1.033   1.612   1.520 -0.6076 -0.5886 -0.3372
  170SOL    HW2  679   1.098   1.528   1.411 -1.8082  2.4577 -3.1760
  170SOL     MW  680   1.089   1.550   1.497 -0.1401  0.3480 -0.6919
  171SOL     OW  681   0.562   1.378   0.609  0.0620  0.5537 -0.7571
  171SOL    HW1  682   0.549   1.373   0.702  0.8770 -4.4743 -0.5109
  171SOL    HW2  683   0.553   1.282   0.594  1.1277  1.2172 -3.7414
  171SOL     MW  684   0.559   1.365   0.619  0.3101 -0.0222 -1.1184
  172SOL     OW  685   0.878   0.309   1.277 -0.0831  0.0984 -0.4093
  172SOL    HW1  686   0.889   0.298   1.183 -2.7084  0.7971  1.4441
  172SOL    HW2  687   0.778   0.300   1.279 -2.0981 -0.2662  2.7373
  172SOL     MW  688   0.866   0.306   1.265 -0.6954  0.1425  0.2504
  173SOL     OW  689   0.465   1.760   0.277  0.1953  0.1476 -0.7355
  173SOL    HW1  690   0.471   1.668   0.240 -3.1266 -0.6281 -1.5597
  173SOL    HW2  691   0.509   1.746   0.368  2.5563  1.1166 -1.2643
  173SOL     MW  692   0.472   1.746   0.284  0.0685  0.1731 -0.9140
  174SOL     OW  693   1.840   0.911   1.494 -0.1330 -0.2944 -0.0571
  174SOL    HW1  694   1.803   0.825   1.510 -0.1123 -0.9588 -1.1184
  174SOL    HW2  695   1.828   0.934   1.403  0.7147  0.7429 -1.8578
  174SOL     MW  696   1.834   0.903   1.484 -0.0184 -0.2452 -0.4347
  175SOL     OW  697   0.476   1.504   0.200 -0.4410  0.1782  0.4814
  175SOL    HW1  698   0.415   1.435   0.167 -0.5798  3.0516  1.0275
  175SOL    HW2  699   0.534   1.465   0.275  0.6642 -2.3909 -0.3778
  175SOL     MW  700   0.476   1.490   0.206 -0.3135  0.2184  0.4401
  176SOL     OW  701   0.183   1.470   1.197  0.8617  0.1958  0.6357
  176SOL    HW1  702   0.158   1.407   1.124 -2.8597 -3.4438 -3.8639
  176SOL    HW2  703   0.100   1.473   1.247 -0.9067 -0.0486 -2.1706
  176SOL     MW  704   0.169   1.462   1.194  0.1374 -0.3167 -0.3282
  177SOL     OW  705   0.582   0.347   1.311 -0.4840 -0.1569  0.2740
  177SOL    HW1  706   0.569   0.432   1.258 -0.9539 -2.4283  1.2287
  177SOL    HW2  707   0.587   0.380   1.402  0.0732  0.9714  0.4188
  177SOL     MW  708   0.581   0.363   1.316 -0.4725 -0.3077  0.4191
  178SOL     OW  709   3.060   0.546   2.967 -0.1445 -0.6900  0.8634
  178SOL    HW1  710   2.984   0.568   3.020  1.3439 -0.8550 -1.3991
  178SOL    HW2  711   3.025   0.532   2.880 -2.2345 -0.1916 -0.2949
  178SOL     MW  712   3.046   0.547   2.962 -0.2238 -0.6460  0.4121
  179SOL     OW  713   1.586   1.406   1.328  0.1086  0.5224  0.4718
  179SOL    HW1  714   1.545   1.441   1.407  2.3868 -0.0757 -3.0295
  179SOL    HW2  715   1.681   1.397   1.339  0.1143 -3.0596 -0.9232
  179SOL     MW  716   1.593   1.409   1.340  0.4099 -0.0291 -0.1743
  180SOL     OW  717   2.981   0.221   0.447  0.0396 -0.1308  0.1206
  180SOL    HW1  718   2.939   0.246   0.361  0.3540 -0.6195 -0.3091
  180SOL    HW2  719   3.046   0.297   0.464  1.4655 -0.7822  1.3866
  180SOL     MW  720   2.984   0.235   0.438  0.2692 -0.2812  0.2309
  181SOL     OW  721   1.121   1.340   3.057  0.0195  0.0014 -0.1656
  181SOL    HW1  722   1.187   1.398   3.090  0.2730 -1.0228  1.1587
  181SOL    HW2  723   1.171   1.266   3.025  1.3721  2.0029  0.6880
  181SOL     MW  724   1.136   1.338   3.057  0.2314  0.1304  0.1218
  182SOL     OW  725   0.459   0.885   1.579 -0.6684  0.8584 -0.1023
  182SOL    HW1  726   0.377   0.853   1.621  1.5006  0.8935  2.6772
  182SOL    HW2  727   0.544   0.848   1.614 -0.6348 -1.6606 -0.3886
  182SOL     MW  728   0.459   0.876   1.589 -0.3778  0.5306  0.2266
  183SOL     OW  729   1.594   1.710   1.213  0.0947  0.7036  0.3603
  183SOL    HW1  730   1.679   1.728   1.249  0.2467 -2.4830  1.6885
  183SOL    HW2  731   1.568   1.634   1.264 -0.1436  2.3787  0.3069
  183SOL     MW  732   1.602   1.702   1.224  0.0833  0.5042  0.5285
  184SOL     OW  733   0.817   0.726   1.948 -0.2437  0.1640 -0.1913
  184SOL    HW1  734   0.887   0.729   1.877  1.3760 -1.6032 -0.1406
  184SOL    HW2  735   0.833   0.638   1.986 -1.2369  2.2610  0.0709
  184SOL     MW  736   0.829   0.715   1.943 -0.1610  0.2075 -0.1500
  185SOL     OW  737   1.125   0.985   1.925 -0.3036  0.1449 -0.1091
  185SOL    HW1  738   1.157   0.904   1.968  0.2068 -0.5276  1.5115
  185SOL    HW2  739   1.162   1.049   1.981  0.9544 -1.5482  0.5869
  185SOL     MW  740   1.134   0.983   1.938 -0.0702 -0.1672  0.1966
  186SOL     OW  741   0.347   1.647   1.441  0.1998  0.3698  0.3691
  186SOL    HW1  742   0.380   1.607   1.363  0.2015  1.4294  0.5652
  186SOL    HW2  743   0.268   1.598   1.479  0.4587  2.7733  1.2767
  186SOL     MW  744   0.341   1.635   1.435  0.2342  0.8268  0.5147
  187SOL     OW  745   1.505   0.740   1.352  0.0125  0.0660 -0.0243
  187SOL    HW1  746   1.551   0.747   1.435  2.2793  0.9506 -1.4757
  187SOL    HW2  747   1.417   0.714   1.382 -1.5504 -0.3235  0.2855
  187SOL     MW  748   1.499   0.738   1.367  0.1054  0.1313 -0.1749
  188SOL     OW  749   1.890   1.168   0.860  0.3636  0.2876 -0.8534
  188SOL    HW1  750   1.877   1.155   0.951  0.2006 -0.7685 -0.1421
  188SOL    HW2  751   1.926   1.089   0.821 -1.9272 -1.3500 -1.8413
  188SOL     MW  752   1.893   1.156   0.867  0.0399 -0.0678 -0.8899
  189SOL     OW  753   0.687   0.816   0.864  0.1118 -0.1787 -0.3840
  189SOL    HW1  754   0.587   0.847   0.861 -1.2100 -3.7960 -3.2623
  189SOL    HW2  755   0.727   0.886   0.912  2.5191 -0.6551 -1.4263
  189SOL     MW  756   0.679   0.829   0.870  0.2551 -0.7188 -0.9013
  190SOL     OW  757   1.887   0.235   2.176 -0.3619 -0.1039  0.1123
  190SOL    HW1  758   1.903   0.224   2.267 -1.1791  1.4541 -0.4008
  190SOL    HW2  759   1.957   0.289   2.135 -0.4193 -1.9124  3.3016
  190SOL     MW  760   1.898   0.241   2.183 -0.4773 -0.1369  0.4654
  191SOL     OW  761   1.566   0.955   1.186  0.0199 -0.2505  0.4144
  191SOL    HW1  762   1.534   1.021   1.245 -0.9897 -1.9031  1.0036
  191SOL    HW2  763   1.520   0.878   1.215  2.1752  1.0327  0.7205
  191SOL     MW  764   1.556   0.953   1.197  0.1710 -0.2992  0.5325
  192SOL     OW  765   0.574   2.122   2.763  0.0379 -0.0243  0.2633
  192SOL    HW1  766   0.542   2.154   2.676 -0.1039  0.5170 -0.6192
  192SOL    HW2  767   0.567   2.029   2.766 -4.7506 -0.8172  0.8733
  192SOL     MW  768   0.569   2.114   2.752 -0.6126 -0.0575  0.2273
  193SOL     OW  769   0.930   1.567   0.750 -0.6838  0.7102  0.5565
  193SOL    HW1  770   0.877   1.571   0.828  1.6412 -1.1380 -0.7845
  193SOL    HW2  771   0.891   1.507   0.677 -1.1605  0.4221 -2.2185
  193SOL     MW  772   0.918   1.560   0.751 -0.4399  0.4283  0.0135
  194SOL     OW  773   0.502   1.449   0.902 -0.2456 -0.2373  0.1238
  194SOL    HW1  774   0.519   1.357   0.936 -2.9985 -2.8302 -1.8486
  194SOL    HW2  775   0.405   1.460   0.892 -0.3357 -2.2207  0.8949
  194SOL     MW  776   0.491   1.438   0.905 -0.6207 -0.8411 -0.0347
  195SOL     OW  777   1.295   1.158   2.959  0.0026 -0.2025 -0.5716
  195SOL    HW1  778   1.332   1.169   3.051 -0.4687  1.2965  0.9042
  195SOL    HW2  779   1.247   1.076   2.949  0.5831  2.3150  0.9654
  195SOL     MW  780   1.294   1.149   2.970  0.0170  0.3275 -0.1741
  196SOL     OW  781   2.209   0.986   0.542  0.2894  0.2834 -0.4265
  196SOL    HW1  782   2.164   0.980   0.453 -1.6459 -0.9438  2.0463
  196SOL    HW2  783   2.188   1.074   0.566 -1.0987 -0.9102 -1.3422
  196SOL     MW  784   2.200   0.997   0.533 -0.1490 -0.0360 -0.2211
  197SOL     OW  785   0.669   1.367   2.150 -0.3741 -0.4742  0.0955
  197SOL    HW1  786   0.678   1.272   2.104 -0.5598 -2.3249  2.5648
  197SOL    HW2  787   0.660   1.422   2.073 -0.8247 -0.8484  0.1798
  197SOL     MW  788   0.669   1.362   2.134 -0.4581 -0.7677  0.4325
  198SOL     OW  789   2.920   1.402   1.051 -0.1367 -0.4084 -0.9686
  198SOL    HW1  790   2.884   1.479   1.012  0.1195  1.0162  0.0559
  198SOL    HW2  791   2.847   1.340   1.049  0.2315  0.0649  1.4033
  198SOL     MW  792   2.905   1.404   1.045 -0.0543 -0.1580 -0.5205
  199SOL     OW  793   0.588   1.403   1.859  1.1540 -0.5550  0.3102
  199SOL    HW1  794   0.511   1.363   1.902 -0.5335 -0.0823 -0.8321
  199SOL    HW2  795   0.543   1.461   1.797 -1.6398  0.1458 -0.4520
  199SOL     MW  796   0.572   1.406   1.857  0.5627 -0.4002  0.0590
  200SOL     OW  797   1.858   2.909   1.381 -0.1208  0.2216 -0.0635
  200SOL    HW1  798   1.922   2.918   1.304 -0.7043 -0.1424 -0.6685
  200SOL    HW2  799   1.794   2.982   1.372  0.7602  4.0626 -2.3126
  200SOL     MW  800   1.858   2.920   1.370 -0.0815  0.6804 -0.4401
  201SOL     OW  801   0.979   0.376   0.798 -0.2587 -0.1408 -0.5471
  201SOL    HW1  802   0.991   0.292   0.750 -0.7114  0.6300  0.9234
  201SOL    HW2  803   1.069   0.389   0.824  1.7362  0.3509  1.2200
  201SOL     MW  804   0.992   0.366   0.795 -0.0552  0.0258 -0.1200
  202SOL     OW  805   1.503   1.598   0.903 -0.3217  0.8015  0.1248
  202SOL    HW1  806   1.493   1.513   0.864 -1.4337  0.2927  1.5959
  202SOL    HW2  807   1.551   1.588   0.985  0.7804  1.5134  0.0174
  202SOL     MW  808   1.508   1.586   0.909 -0.3230  0.8283  0.3047
  203SOL     OW  809   3.022   0.459   1.422 -0.0815  0.2972  0.3766
  203SOL    HW1  810   3.080   0.381   1.418 -0.6948  1.8560  0.6147
  203SOL    HW2  811   3.072   0.538   1.432  0.8399 -1.0761 -0.9999
  203SOL     MW  812   3.036   0.459   1.423 -0.0409  0.3217  0.2264
  204SOL     OW  813   1.028   1.778   0.596 -0.2325  0.5968  0.3314
  204SOL    HW1  814   1.018   1.700   0.653  0.5586 -1.6603 -0.1954
  204SOL    HW2  815   0.947   1.780   0.538  1.3876 -0.1949 -2.1659
  204SOL     MW  816   1.016   1.768   0.596  0.0856  0.1945 -0.0676
  205SOL     OW  817   1.414   3.089   1.298 -0.5238  0.2331 -0.2208
  205SOL    HW1  818   1.457   3.040   1.226  2.3755 -0.9026 -0.6676
  205SOL    HW2  819   1.428   3.183   1.277 -0.0457  0.8337 -0.3957
  205SOL     MW  820   1.422   3.095   1.286 -0.0782  0.1625 -0.3028
  206SOL     OW  821   0.491   3.091   1.417  0.3366  0.3016  0.2637
  206SOL    HW1  822   0.436   3.074   1.337 -1.1012  2.6093  2.2647
  206SOL    HW2  823   0.552   3.019   1.418 -1.2605 -0.2608  0.3913
  206SOL     MW  824   0.492   3.079   1.407 -0.0638  0.5319  0.5445
  207SOL     OW  825   0.925   1.617   0.226 -0.5487 -0.3220  0.3117
  207SOL    HW1  826   0.937   1.693   0.171 -1.7569  2.7909  0.3802
  207SOL    HW2  827   1.016   1.584   0.248 -0.2524 -0.3790  1.9017
  207SOL     MW  828   0.939   1.623   0.222 -0.6690  0.0812  0.5305
  208SOL     OW  829   0.733   1.666   1.321 -0.4459  0.5543  0.5762
  208SOL    HW1  830   0.773   1.698   1.406  3.1961 -0.0017  0.0453
  208SOL    HW2  831   0.783   1.595   1.286 -3.7042  2.7657  1.7642
  208SOL     MW  832   0.745   1.661   1.328 -0.3953  0.7727  0.6629
  209SOL     OW  833   1.554   0.496   2.863  0.1893  0.4828 -1.1068
  209SOL    HW1  834   1.597   0.585   2.865 -0.0316  0.3283 -0.9503
  209SOL    HW2  835   1.624   0.424   2.837  1.9549  1.7254 -0.7009
  209SOL     MW  836   1.569   0.498   2.860  0.3931  0.6263 -1.0326
  210SOL     OW  837   1.463   1.345   0.825  0.0726  0.5356  1.1617
  210SOL    HW1  838   1.547   1.318   0.778 -0.3836  3.5830  0.7701
  210SOL    HW2  839   1.411   1.379   0.752 -0.8989  1.0988  0.0688
  210SOL     MW  840   1.468   1.346   0.809 -0.1158  1.0120  0.9658
  211SOL     OW  841   1.718   0.255   0.995  0.3418  0.5047  0.6355
  211SOL    HW1  842   1.692   0.305   0.917  0.3844 -0.0289 -1.2740
  211SOL    HW2  843   1.808   0.290   1.011  0.2200  1.9146  3.0838
  211SOL     MW  844   1.726   0.266   0.987  0.3314  0.6203  0.7066
  212SOL     OW  845   0.263   1.056   0.189  0.5133  0.0709 -0.0261
  212SOL    HW1  846   0.175   1.020   0.197  2.4944 -0.2199 -1.5532
  212SOL    HW2  847   0.316   0.984   0.157 -1.3194 -1.0567 -0.1580
  212SOL     MW  848   0.259   1.041   0.186  0.5329 -0.1163 -0.2450
  213SOL     OW  849   0.502   1.746   2.992 -0.1804 -0.0460  0.2816
  213SOL    HW1  850   0.520   1.822   3.054  1.9030  1.9723  0.2048
  213SOL    HW2  851   0.576   1.757   2.929 -1.4924 -0.5759  0.7025
  213SOL     MW  852   0.514   1.758   2.992 -0.0786  0.1504  0.3270
  214SOL     OW  853   0.654   0.378   2.176 -0.4059 -0.2554 -0.1809
  214SOL    HW1  854   0.576   0.439   2.182  0.6674 -0.3439  1.0466
  214SOL    HW2  855   0.634   0.346   2.091  0.8747 -1.5624  1.4452
  214SOL     MW  856   0.641   0.382   2.165 -0.0954 -0.4395  0.1956
  215SOL     OW  857   0.498   0.697   2.639 -0.2396 -0.4313 -0.3180
  215SOL    HW1  858   0.502   0.681   2.549  2.1025  1.9122  2.1673
  215SOL    HW2  859   0.426   0.650   2.679  0.3314  2.0708  1.2250
  215SOL     MW  860   0.489   0.689   2.632  0.1447  0.2080  0.2135
  216SOL     OW  861   2.987   2.995   2.743  0.1734  0.4110  0.3405
  216SOL    HW1  862   2.910   3.002   2.796  2.3319 -0.3896 -1.2394
  216SOL    HW2  863   3.012   3.087   2.739 -1.0595 -0.9904  0.0171
  216SOL     MW  864   2.980   3.008   2.749  0.2955  0.1205  0.0894
  217SOL     OW  865   1.068   1.113   0.131 -0.3023 -0.0742 -0.0741
  217SOL    HW1  866   1.080   1.058   0.053 -0.8209  1.1916  0.6166
  217SOL    HW2  867   1.043   1.192   0.091 -1.2786  0.4722 -0.2659
  217SOL     MW  868   1.066   1.116   0.115 -0.4995  0.1649 -0.0083
  218SOL     OW  869   0.909   1.346   2.633 -0.2906 -0.0530  0.5946
  218SOL    HW1  870   0.916   1.267   2.691 -0.2896 -1.5624 -0.7438
  218SOL    HW2  871   0.992   1.394   2.632  0.4069 -2.2795 -0.2744
  218SOL     MW  872   0.921   1.342   2.640 -0.1984 -0.5459  0.3033
  219SOL     OW  873   1.130   0.353   2.596 -0.1427 -0.3143 -0.2368
  219SOL    HW1  874   1.212   0.396   2.639  1.3336  1.3495  2.4247
  219SOL    HW2  875   1.065   0.417   2.581  0.5461 -2.0634  1.2548
  219SOL     MW  876   1.132   0.367   2.600  0.1430 -0.3256  0.3112
  220SOL     OW  877   1.701   0.452   2.213 -0.9187  0.2929  0.0898
  220SOL    HW1  878   1.639   0.472   2.144  1.3794  0.3038  0.2489
  220SOL    HW2  879   1.758   0.382   2.183 -1.2277 -0.3912  0.7933
  220SOL     MW  880   1.700   0.445   2.200 -0.6563  0.2041  0.2036
  221SOL     OW  881   0.343   1.313   2.916  0.1517  0.3238 -0.1708
  221SOL    HW1  882   0.411   1.246   2.910 -2.3316 -2.0000 -0.3524
  221SOL    HW2  883   0.390   1.387   2.875  1.2707  1.2115 -1.8688
  221SOL     MW  884   0.358   1.314   2.910 -0.0283  0.1343 -0.4188
  222SOL     OW  885   0.459   0.962   2.646  0.5771 -0.5709 -0.4124
  222SOL    HW1  886   0.384   1.002   2.600  0.1546 -0.7405 -0.9448
  222SOL    HW2  887   0.469   0.869   2.623 -3.0968  2.0410 -3.6744
  222SOL     MW  888   0.451   0.955   2.637  0.0366 -0.2487 -0.9131
  223SOL     OW  889   0.100   2.024   2.527 -0.1664 -0.4118  0.1345
  223SOL    HW1  890   0.099   1.993   2.618  0.2523  0.4831 -1.0205
  223SOL    HW2  891   0.135   2.117   2.527 -1.1130  0.0532  0.0002
  223SOL     MW  892   0.104   2.033   2.539 -0.2361 -0.2324 -0.0356
  224SOL     OW  893   1.557   0.726   2.520 -0.4924 -0.0149 -0.1517
  224SOL    HW1  894   1.537   0.732   2.611  0.5257 -1.5945 -0.7446
  224SOL    HW2  895   1.573   0.819   2.493  2.0308  1.1467 -1.3295
  224SOL     MW  896   1.557   0.739   2.528 -0.0252 -0.0701 -0.3853
  225SOL     OW  897   2.935   1.472   2.299 -0.6332  0.3215 -0.1102
  225SOL    HW1  898   2.968   1.539   2.241 -1.1377  0.8953  1.5259
  225SOL    HW2  899   2.885   1.515   2.371 -1.7081 -0.0074  2.3385
  225SOL     MW  900   2.933   1.486   2.301 -0.8416  0.3538  0.4288
  226SOL     OW  901   0.416   1.532   2.760 -0.0488 -0.0085  0.0015
  226SOL    HW1  902   0.498   1.501   2.712 -1.0796  0.7694 -2.8876
  226SOL    HW2  903   0.419   1.626   2.736  0.6184 -2.2025 -0.9890
  226SOL     MW  904   0.428   1.540   2.751 -0.0968 -0.1953 -0.5103
  227SOL     OW  905   0.537   1.139   2.843 -0.1143 -0.2394 -0.5135
  227SOL    HW1  906   0.630   1.118   2.851  0.6194  3.0285  0.7279
  227SOL    HW2  907   0.504   1.090   2.772 -0.0570  0.1688  1.4542
  227SOL     MW  908   0.545   1.130   2.834 -0.0099  0.2456 -0.0901
  228SOL     OW  909   0.736   1.122   2.047 -0.0002  0.3794  0.3949
  228SOL    HW1  910   0.789   1.131   1.967  0.1149  0.9681  1.5766
  228SOL    HW2  911   0.806   1.099   2.107  1.4142  3.9158  1.5957
  228SOL     MW  912   0.752   1.120   2.044  0.2016  0.9236  0.7092
  229SOL     OW  913   0.137   0.664   0.064  0.0948  0.1043  0.1289
  229SOL    HW1  914   0.084   0.637  -0.010 -0.8504  0.8487 -0.5843
  229SOL    HW2  915   0.162   0.581   0.107 -0.2145  0.9627 -1.5286
  229SOL     MW  916   0.133   0.649   0.060 -0.0707  0.3158 -0.1839
  230SOL     OW  917   1.740   1.330   2.028  0.9603  0.1265 -0.3651
  230SOL    HW1  918   1.672   1.301   2.088 -0.1049 -0.7831 -0.3537
  230SOL    HW2  919   1.781   1.251   1.995  1.7952 -1.4482  2.0027
  230SOL     MW  920   1.736   1.316   2.031  0.9299 -0.2012 -0.0512
  231SOL     OW  921   2.769   1.261   2.177 -0.3642 -0.0742 -0.1856
  231SOL    HW1  922   2.802   1.343   2.194 -2.7637 -1.3974 -3.2502
  231SOL    HW2  923   2.701   1.284   2.115  2.2981  1.9550 -0.9467
  231SOL     MW  924   2.764   1.275   2.171 -0.3295  0.0190 -0.6903
  232SOL     OW  925   2.242   0.856   2.029  0.3935  0.1345  0.3797
  232SOL    HW1  926   2.178   0.868   1.960 -0.1178 -0.6955  1.4060
  232SOL    HW2  927   2.203   0.897   2.112 -0.8352  0.6267  3.5217
  232SOL     MW  928   2.228   0.863   2.031  0.1639  0.0899  0.9297
  233SOL     OW  929   2.057   0.419   2.053 -0.0421 -0.3824  0.5522
  233SOL    HW1  930   2.099   0.348   2.001 -1.6682 -2.2182 -4.5561
  233SOL    HW2  931   2.138   0.464   2.075  2.9360  0.4301 -3.2126
  233SOL     MW  932   2.073   0.416   2.049  0.1363 -0.5174 -0.6185
  234SOL     OW  933   0.197   1.032   2.518 -0.4430  0.0445  0.3704
  234SOL    HW1  934   0.101   1.044   2.498  0.1768  0.5701 -0.0715
  234SOL    HW2  935   0.239   1.118   2.503  1.4962 -0.2229  3.0529
  234SOL     MW  936   0.190   1.045   2.513 -0.1054  0.0786  0.6661
  235SOL     OW  937   1.137   3.053   2.788  0.0061 -0.5545  0.6102
  235SOL    HW1  938   1.139   2.993   2.859 -3.6472 -1.4919 -0.8535
  235SOL    HW2  939   1.122   3.142   2.828  1.6792 -0.1973 -0.1404
  235SOL     MW  940   1.135   3.057   2.803 -0.2552 -0.6310  0.3180
  236SOL     OW  941   2.914   0.579   0.094  0.2515 -0.0127 -0.7411
  236SOL    HW1  942   2.834   0.635   0.089 -0.9241  0.3448  0.8896
  236SOL    HW2  943   2.980   0.641   0.111 -2.2339  0.1172 -0.4934
  236SOL     MW  944   2.912   0.595   0.096 -0.2315  0.0516 -0.4933
  237SOL     OW  945   2.013   1.144   2.231 -0.1903 -0.9514  0.1232
  237SOL    HW1  946   1.977   1.133   2.146 -0.0624  3.2766  1.8288
  237SOL    HW2  947   2.062   1.060   2.241 -3.2973 -0.4056 -2.2633
  237SOL     MW  948   2.014   1.132   2.221 -0.5833 -0.3215  0.0333
  238SOL     OW  949   1.098   1.776   2.959 -0.5262 -0.1969 -0.3871
  238SOL    HW1  950   1.038   1.703   2.969  1.9089 -1.6537  2.0815
  238SOL    HW2  951   1.180   1.732   2.935 -0.8871  0.0856  0.8093
  238SOL     MW  952   1.101   1.760   2.957 -0.2525 -0.3518  0.0964
  239SOL     OW  953   1.259   1.447   2.377 -0.2237 -0.2120 -0.3956
  239SOL    HW1  954   1.180   1.457   2.430 -1.0214  2.0036  1.6775
  239SOL    HW2  955   1.273   1.354   2.380  0.1057 -1.6199 -2.5936
  239SOL     MW  956   1.251   1.436   2.384 -0.2855 -0.1055 -0.4121
  240SOL     OW  957   0.621   0.919   2.309 -0.0820 -0.0737 -0.3123
  240SOL    HW1  958   0.665   0.957   2.379  0.2180 -1.1364  1.0449
  240SOL    HW2  959   0.692   0.858   2.281  0.9110  0.6357  2.4445
  240SOL     MW  960   0.637   0.916   2.315  0.0886 -0.1203  0.2305
  241SOL     OW  961   0.685   0.410   0.020 -0.1022 -0.0465 -0.1463
  241SOL    HW1  962   0.722   0.483   0.079 -0.3552  4.9524 -1.1421
  241SOL    HW2  963   0.596   0.433   0.011  2.2425 -0.4565  2.4703
  241SOL     MW  964   0.678   0.423   0.026  0.1738  0.5590  0.0675
  242SOL     OW  965   1.488   1.730   2.307  0.2068 -0.2576 -0.0169
  242SOL    HW1  966   1.454   1.805   2.259 -2.4460 -2.2294 -1.6334
  242SOL    HW2  967   1.459   1.655   2.251 -0.1166  0.0842 -2.7270
  242SOL     MW  968   1.480   1.730   2.294 -0.1858 -0.4727 -0.5877
  243SOL     OW  969   0.987   0.174   2.449  0.0595  0.1241 -0.4718
  243SOL    HW1  970   1.056   0.157   2.384 -1.3067 -2.8844 -0.7667
  243SOL    HW2  971   1.035   0.221   2.523 -1.5581 -0.0736 -0.1333
  243SOL     MW  972   1.003   0.178   2.450 -0.3342 -0.2989 -0.4660
  244SOL     OW  973   0.171   0.821   2.345 -0.3569  0.0126 -0.3492
  244SOL    HW1  974   0.194   0.911   2.377 -0.3342  1.1332  0.2093
  244SOL    HW2  975   0.257   0.779   2.341 -0.0841  0.3049  0.5031
  244SOL     MW  976   0.185   0.827   2.349 -0.3179  0.1990 -0.1631
  245SOL     OW  977   1.241   0.178   2.294 -0.3663  0.3197  0.5057
  245SOL    HW1  978   1.265   0.110   2.352  1.3918  1.5555 -2.9162
  245SOL    HW2  979   1.274   0.249   2.344  1.7051  0.3696  1.5807
  245SOL     MW  980   1.248   0.178   2.308  0.1390  0.4893  0.1960
  246SOL     OW  981   1.225   1.156   2.107 -1.2034  0.0458  0.4664
  246SOL    HW1  982   1.150   1.145   2.169 -0.1510 -0.3884  0.3634
  246SOL    HW2  983   1.286   1.084   2.113  1.5557 -0.7711 -3.0219
  246SOL     MW  984   1.223   1.145   2.116 -0.7005 -0.1193 -0.0074
  247SOL     OW  985   0.757   0.594   0.211  0.4258  0.0916 -0.0401
  247SOL    HW1  986   0.732   0.684   0.206  3.2532  0.2308 -0.8708
  247SOL    HW2  987   0.846   0.594   0.161  0.6497 -1.3911 -1.9178
  247SOL     MW  988   0.766   0.606   0.204  0.8284 -0.0857 -0.3975
  248SOL     OW  989   0.324   1.287   2.571  0.2687  0.2635 -0.2819
  248SOL    HW1  990   0.370   1.323   2.491 -0.7045 -1.6205 -0.0546
  248SOL    HW2  991   0.337   1.351   2.647 -2.1195  1.2322  0.2270
  248SOL     MW  992   0.332   1.300   2.571 -0.1748  0.1428 -0.1848
  249SOL     OW  993   0.088   1.849   2.734 -0.7273  0.1155  0.3281
  249SOL    HW1  994   0.074   1.768   2.686 -0.5934  1.6169  1.4453
  249SOL    HW2  995   0.125   1.817   2.816  0.7786 -3.7654 -0.6151
  249SOL     MW  996   0.091   1.834   2.738 -0.5109 -0.1984  0.3511
  250SOL     OW  997   2.149   0.918   2.267 -0.7804  0.1987 -0.6935
  250SOL    HW1  998   2.134   0.822   2.283  1.2591 -0.0488 -1.1783
  250SOL    HW2  999   2.246   0.938   2.278  1.0124 -2.2656  0.8503
  250SOL     MW 1000   2.160   0.908   2.271 -0.2748 -0.1591 -0.5538
  251SOL     OW 1001   0.151   0.909   1.949  0.1072 -0.3266  0.0005
  251SOL    HW1 1002   0.153   0.824   1.984 -1.8283 -1.3206  2.1067
  251SOL    HW2 1003   0.162   0.887   1.856 -1.6329  1.1645  2.9601
  251SOL     MW 1004   0.153   0.895   1.941 -0.3778 -0.2610  0.6689
  252SOL     OW 1005   1.725   0.974   2.949 -0.5128  0.1039  0.2292
  252SOL    HW1 1006   1.732   1.036   3.022 -0.6633 -1.1281 -0.6171
  252SOL    HW2 1007   1.792   1.005   2.888  1.8204 -0.2451 -0.5941
  252SOL     MW 1008   1.734   0.987   2.950 -0.2248 -0.1047  0.0089
  253SOL     OW 1009   1.128   1.731   2.517  0.0515 -0.0812 -0.6402
  253SOL    HW1 1010   1.139   1.733   2.415 -3.3206 -3.7744  0.3195
  253SOL    HW2 1011   1.045   1.787   2.524  0.0675 -0.1037 -0.7821
  253SOL     MW 1012   1.119   1.739   2.504 -0.3913 -0.5714 -0.5323
  254SOL     OW 1013   0.995   1.085   2.233 -0.5930  0.6781  0.0659
  254SOL    HW1 1014   1.036   1.021   2.289  1.2780  0.6776 -0.8555
  254SOL    HW2 1015   0.947   1.149   2.290 -0.4148 -1.9312 -1.2698
  254SOL     MW 1016   0.994   1.085   2.248 -0.3226  0.3337 -0.2319
  255SOL     OW 1017   0.839   2.516   2.150 -0.0047 -0.2857 -0.2663
  255SOL    HW1 1018   0.752   2.474   2.142  0.7708 -2.4619 -1.6563
  255SOL    HW2 1019   0.899   2.443   2.136 -2.3281 -0.7980  0.0721
  255SOL     MW 1020   0.835   2.501   2.147 -0.2089 -0.6404 -0.4051
  256SOL     OW 1021   1.284   2.727   2.961 -0.8504  0.4407  0.2150
  256SOL    HW1 1022   1.228   2.669   2.912  1.0990  0.2617  1.8988
  256SOL    HW2 1023   1.357   2.754   2.904  2.5273 -0.6854 -1.0401
  256SOL     MW 1024   1.286   2.723   2.947 -0.1475  0.2685  0.2715
  257SOL     OW 1025   0.156   1.952   0.026 -0.6622  0.1314 -0.4210
  257SOL    HW1 1026   0.197   1.929   0.104  0.2666  1.7750  1.5512
  257SOL    HW2 1027   0.178   1.882  -0.033  0.2680  0.2243 -0.0223
  257SOL     MW 1028   0.164   1.940   0.029 -0.4169  0.3605 -0.1082
  258SOL     OW 1029   0.811   0.995   2.526 -0.0475  0.0092 -0.2162
  258SOL    HW1 1030   0.802   1.088   2.491  0.6287  1.4032  0.9648
  258SOL    HW2 1031   0.799   0.989   2.618 -1.9164  0.1637 -4.2272
  258SOL     MW 1032   0.808   1.006   2.534 -0.2049  0.2135 -0.5896
  259SOL     OW 1033   0.903   0.404   2.295 -0.4415  0.0516 -0.3536
  259SOL    HW1 1034   0.818   0.368   2.257 -2.3169  0.6960  1.6638
  259SOL    HW2 1035   0.952   0.325   2.330 -0.7375 -0.5694  1.5552
  259SOL     MW 1036   0.898   0.389   2.295 -0.7280  0.0547  0.1644
  260SOL     OW 1037   0.605   0.151   1.622  0.2554 -0.1383 -0.4897
  260SOL    HW1 1038   0.557   0.110   1.551  0.3024  0.9467  0.1766
  260SOL    HW2 1039   0.695   0.140   1.581  2.8604 -1.8494  0.6813
  260SOL     MW 1040   0.610   0.144   1.607  0.6053 -0.2209 -0.2473
  261SOL     OW 1041   1.171   0.725   2.030 -0.4551 -0.4138 -0.1257
  261SOL    HW1 1042   1.182   0.701   2.128  0.8964 -1.4908  2.3642
  261SOL    HW2 1043   1.099   0.668   2.001 -0.3665  1.6982  0.3752
  261SOL     MW 1044   1.163   0.715   2.039 -0.2651 -0.2773  0.2689
  262SOL     OW 1045   1.061   0.311   0.170  0.2669  0.4710  0.2438
  262SOL    HW1 1046   1.152   0.337   0.158 -0.7342  1.3652 -0.2604
  262SOL    HW2 1047   1.038   0.235   0.113  1.6812  0.6450  1.8729
  262SOL     MW 1048   1.070   0.304   0.161  0.3214  0.6119  0.3922
  263SOL     OW 1049   0.456   0.044   2.468  0.3647 -0.1799  0.1329
  263SOL    HW1 1050   0.375   0.099   2.466  0.6235 -0.0490  2.3516
  263SOL    HW2 1051   0.492   0.065   2.381  1.9257  1.5386  0.2017
  263SOL     MW 1052   0.450   0.054   2.456  0.6048  0.0641  0.4347
  264SOL     OW 1053   1.531   1.340   1.844  0.3521 -0.3018  0.7407
  264SOL    HW1 1054   1.506   1.248   1.851  1.1430 -1.3220 -0.6892
  264SOL    HW2 1055   1.599   1.347   1.908  1.7455  2.5411 -0.0894
  264SOL     MW 1056   1.536   1.329   1.853  0.6403 -0.0613  0.4425
  265SOL     OW 1057   0.802   2.796   2.233 -0.1582 -0.1702  0.2368
  265SOL    HW1 1058   0.805   2.702   2.209 -1.4635 -0.3300  2.1918
  265SOL    HW2 1059   0.759   2.792   2.319 -3.0646 -2.4351 -0.0474
  265SOL     MW 1060   0.797   2.783   2.241 -0.7139 -0.4901  0.4572
  266SOL     OW 1061   0.848   0.796   2.206  0.4429  0.4173 -0.0905
  266SOL    HW1 1062   0.843   0.784   2.108  1.2401  1.6485 -1.8547
  266SOL    HW2 1063   0.888   0.721   2.243 -1.6013  1.8212  1.7487
  266SOL     MW 1064   0.853   0.785   2.198  0.2784  0.7650 -0.0806
  267SOL     OW 1065   1.347   1.787   2.660 -0.2530  0.1751 -0.4089
  267SOL    HW1 1066   1.412   1.723   2.627 -0.9727 -1.3909 -0.0432
  267SOL    HW2 1067   1.284   1.766   2.597  1.2598  0.0596  1.5792
  267SOL     MW 1068   1.348   1.776   2.647 -0.1484 -0.0468 -0.0984
  268SOL     OW 1069   0.185   0.895   1.653  0.0233  0.1377  0.0705
  268SOL    HW1 1070   0.147   0.979   1.621  0.3575 -1.2618 -1.4341
  268SOL    HW2 1071   0.116   0.838   1.615 -0.9585  0.8718 -1.2644
  268SOL     MW 1072   0.171   0.898   1.644 -0.0622  0.0499 -0.3042
  269SOL     OW 1073   1.350   1.993   2.321 -0.2713 -0.0585 -0.3941
  269SOL    HW1 1074   1.416   2.054   2.348 -0.6026 -2.7308  0.6819
  269SOL    HW2 1075   1.278   2.025   2.365 -1.9647  0.6544 -0.0084
  269SOL     MW 1076   1.349   2.006   2.330 -0.5384 -0.3170 -0.2012
  270SOL     OW 1077   1.150   0.395   1.588 -0.1888  0.2506 -0.4119
  270SOL    HW1 1078   1.111   0.318   1.633  1.8709  1.6883 -0.6992
  270SOL    HW2 1079   1.240   0.362   1.577  2.0500  0.1155  1.0551
  270SOL     MW 1080   1.157   0.381   1.593  0.3783  0.4225 -0.2562
  271SOL     OW 1081   0.752   0.012   2.542 -0.1167  0.5291 -0.7144
  271SOL    HW1 1082   0.806  -0.060   2.583  0.3571  2.2366 -1.0395
  271SOL    HW2 1083   0.820   0.074   2.499 -0.2783  2.6125 -2.1631
  271SOL     MW 1084   0.768   0.010   2.542 -0.0755  1.0293 -0.9484
  272SOL     OW 1085   1.511   2.807   2.821 -0.5199  0.0976  0.5205
  272SOL    HW1 1086   1.495   2.799   2.724 -1.3274  0.4164 -0.6071
  272SOL    HW2 1087   1.524   2.896   2.845  0.2727 -0.9001  1.4575
  272SOL     MW 1088   1.510   2.818   2.812 -0.5218  0.0080  0.4953
  273SOL     OW 1089   1.484   0.912   2.791 -0.2293  0.0865  0.1613
  273SOL    HW1 1090   1.566   0.939   2.831 -0.7601 -1.8536  0.7811
  273SOL    HW2 1091   1.443   0.996   2.800 -0.6009  0.2441 -1.0354
  273SOL     MW 1092   1.489   0.927   2.798 -0.3484 -0.1487  0.0852
  274SOL     OW 1093   1.420   0.737   0.116 -0.1722  0.3735  0.3982
  274SOL    HW1 1094   1.472   0.679   0.173 -1.8192 -1.0392  0.3036
  274SOL    HW2 1095   1.340   0.741   0.166 -0.3700  1.7731 -3.3532
  274SOL     MW 1096   1.416   0.730   0.130 -0.4156  0.3718 -0.1092
  275SOL     OW 1097   1.682   0.542   1.768  0.7059 -0.0251 -0.0406
  275SOL    HW1 1098   1.754   0.563   1.829  1.1169 -1.5951  0.8974
  275SOL    HW2 1099   1.657   0.455   1.795 -0.0945 -0.6964 -1.2450
  275SOL     MW 1100   1.688   0.533   1.779  0.6545 -0.3208 -0.0757
  276SOL     OW 1101   0.350   1.270   1.960  1.0947  0.7986  0.1452
  276SOL    HW1 1102   0.365   1.178   1.976 -2.5867 -0.1808  0.0978
  276SOL    HW2 1103   0.279   1.289   2.019  1.2827  0.2256 -0.2187
  276SOL     MW 1104   0.342   1.260   1.970  0.6338  0.5938  0.0909
  277SOL     OW 1105   1.960   1.146   2.502  0.0863 -0.0336 -0.9165
  277SOL    HW1 1106   1.995   1.236   2.513 -2.5289  2.3937  1.8414
  277SOL    HW2 1107   1.986   1.130   2.411  1.0155  1.5009 -0.0870
  277SOL     MW 1108   1.968   1.156   2.492 -0.1361  0.4891 -0.4432
  278SOL     OW 1109   1.373   0.666   1.664 -0.1793 -0.2321  0.1479
  278SOL    HW1 1110   1.334   0.597   1.727 -1.9069 -1.3370  0.9555
  278SOL    HW2 1111   1.468   0.664   1.683 -1.3205  0.5748 -1.7282
  278SOL     MW 1112   1.380   0.657   1.675 -0.5578 -0.2714  0.0069
  279SOL     OW 1113   0.562   0.117   2.227 -0.2651  0.0203 -0.2036
  279SOL    HW1 1114   0.642   0.058   2.223  0.9241  0.8670 -1.7306
  279SOL    HW2 1115   0.579   0.211   2.205 -0.8813  1.4172 -2.1328
  279SOL     MW 1116   0.575   0.121   2.223 -0.1895  0.3163 -0.6596
  280SOL     OW 1117   1.435   0.975   2.150 -0.3643 -0.1979  0.3144
  280SOL    HW1 1118   1.494   0.919   2.093 -1.5749  1.6844 -2.2573
  280SOL    HW2 1119   1.447   0.956   2.243 -1.4110  3.4826  0.0983
  280SOL     MW 1120   1.445   0.965   2.155 -0.6622  0.5361 -0.0534
  281SOL     OW 1121   1.363   1.287   2.714  0.0166 -1.2145 -0.4225
  281SOL    HW1 1122   1.462   1.291   2.716  0.9321  0.4736  2.4138
  281SOL    HW2 1123   1.342   1.248   2.802  3.3620  0.9672  0.1303
  281SOL     MW 1124   1.373   1.283   2.726  0.5788 -0.7039  0.0247
  282SOL     OW 1125   1.109   1.275   1.633  0.6311 -0.8622  0.1285
  282SOL    HW1 1126   1.129   1.367   1.632  2.0649 -2.2058 -0.3351
  282SOL    HW2 1127   1.056   1.269   1.714  0.0324 -3.0537 -0.0320
  282SOL     MW 1128   1.104   1.286   1.644  0.7413 -1.3286  0.0461
  283SOL     OW 1129   0.825   1.258   3.045 -0.0086  0.1436  0.3312
  283SOL    HW1 1130   0.901   1.314   3.061  2.9330  1.0914  1.3759
  283SOL    HW2 1131   0.750   1.308   3.082 -2.6497 -0.7355  0.9775
  283SOL     MW 1132   0.825   1.272   3.052  0.0310  0.1527  0.5543
  284SOL     OW 1133   0.428   0.737   2.366 -0.1071  0.6838 -0.0417
  284SOL    HW1 1134   0.490   0.809   2.341 -0.5704 -1.2111  1.8245
  284SOL    HW2 1135   0.447   0.666   2.297  2.0513  0.1873  0.9520
  284SOL     MW 1136   0.439   0.737   2.354  0.1166  0.3683  0.3357
  285SOL     OW 1137   0.915   0.867   2.830 -0.6542  0.2858 -0.3915
  285SOL    HW1 1138   0.979   0.875   2.755 -0.3491  0.6562 -0.1609
  285SOL    HW2 1139   0.865   0.784   2.817  0.1813  2.0793  1.2404
  285SOL     MW 1140   0.917   0.857   2.818 -0.5037  0.5713 -0.1458
  286SOL     OW 1141   1.145   1.498   2.636 -0.6173 -0.2628 -0.6726
  286SOL    HW1 1142   1.236   1.476   2.643 -2.2956 -0.9212 -2.0197
  286SOL    HW2 1143   1.135   1.590   2.602  0.5293 -1.9190  0.8909
  286SOL     MW 1144   1.156   1.507   2.633 -0.6875 -0.5682 -0.6441
  287SOL     OW 1145   1.161   0.978   0.323  0.3940  1.1851 -0.0589
  287SOL    HW1 1146   1.187   1.024   0.404 -1.0858  0.4992  2.0978
  287SOL    HW2 1147   1.120   1.041   0.252  1.6222  0.6506 -0.0425
  287SOL     MW 1148   1.159   0.992   0.324  0.3608  1.0241  0.2278
  288SOL     OW 1149   1.499   0.572   2.062 -0.1752 -0.1100 -0.1402
  288SOL    HW1 1150   1.456   0.585   2.145 -2.2287  2.6104 -0.7980
  288SOL    HW2 1151   1.535   0.653   2.017 -0.6620  0.5299 -0.8563
  288SOL     MW 1152   1.498   0.585   2.067 -0.5103  0.3334 -0.3215
  289SOL     OW 1153   1.087   0.977   2.571 -0.0196 -0.1343 -0.5103
  289SOL    HW1 1154   1.121   0.884   2.568  1.3517 -1.1502  0.4744
  289SOL    HW2 1155   0.999   0.976   2.536  1.6469 -0.4173  1.6513
  289SOL     MW 1156   1.080   0.964   2.566  0.3812 -0.3057 -0.0952
  290SOL     OW 1157   0.797   0.606   1.546 -0.2858 -0.5217 -0.1414
  290SOL    HW1 1158   0.859   0.590   1.473  0.8762  1.6551 -0.9606
  290SOL    HW2 1159   0.862   0.633   1.612  1.5921  0.6305  0.4683
  290SOL     MW 1160   0.813   0.607   1.545  0.1153 -0.0825 -0.1690
  291SOL     OW 1161   0.169   0.390   0.116 -0.0442  0.1324  0.3622
  291SOL    HW1 1162   0.240   0.337   0.152  0.7061  1.5011  2.0629
  291SOL    HW2 1163   0.157   0.367   0.022 -1.4798  3.1486  1.0124
  291SOL     MW 1164   0.177   0.380   0.108 -0.1346  0.7109  0.6724
  292SOL     OW 1165   0.992   0.569   0.086 -0.3962  0.7719  0.3855
  292SOL    HW1 1166   1.049   0.625   0.141  3.0895 -1.7101  2.6842
  292SOL    HW2 1167   1.005   0.484   0.131  2.0256  2.0325 -2.3101
  292SOL     MW 1168   1.001   0.566   0.099  0.3832  0.6107  0.3331
  293SOL     OW 1169   0.179   0.134   2.456 -0.7918  0.4822 -0.0342
  293SOL    HW1 1170   0.134   0.084   2.389 -1.9289 -1.8297  0.2674
  293SOL    HW2 1171   0.106   0.175   2.506 -1.1802  0.6724 -0.5100
  293SOL     MW 1172   0.163   0.133   2.453 -0.9930  0.2023 -0.0572
  294SOL     OW 1173   1.424   0.590   2.337 -0.5529 -0.2062  0.0635
  294SOL    HW1 1174   1.435   0.635   2.423  1.8710 -2.1796  2.7730
  294SOL    HW2 1175   1.435   0.503   2.369 -1.3348  0.0707  0.5606
  294SOL     MW 1176   1.427   0.584   2.352 -0.3363 -0.4300  0.4866
  295SOL     OW 1177   0.928   0.531   2.527  0.5447 -0.1305 -0.0517
  295SOL    HW1 1178   0.916   0.502   2.434  2.6826  1.9761 -1.3766
  295SOL    HW2 1179   0.845   0.554   2.566 -3.1778 -1.9384 -0.1613
  295SOL     MW 1180   0.916   0.530   2.520  0.3356 -0.0911 -0.2410
  296SOL     OW 1181   1.235   0.278   2.031 -0.3423 -0.2114  0.2386
  296SOL    HW1 1182   1.319   0.243   1.998  0.4686  1.3942  1.1332
  296SOL    HW2 1183   1.230   0.240   2.120  1.1995  0.5641 -2.0272
  296SOL     MW 1184   1.245   0.268   2.038 -0.0319  0.1027  0.0577
  297SOL     OW 1185   1.443   0.409   1.537  0.1380 -0.1694  0.0979
  297SOL    HW1 1186   1.442   0.488   1.584 -0.2797 -0.3358  1.7784
  297SOL    HW2 1187   1.477   0.332   1.583  1.8254 -0.1286  1.0383
  297SOL     MW 1188   1.447   0.409   1.549  0.3055 -0.1859  0.4437
  298SOL     OW 1189   1.639   0.849   2.011 -0.2545  0.0844 -0.2464
  298SOL    HW1 1190   1.700   0.907   1.971  0.9372  0.5141  2.4994
  298SOL    HW2 1191   1.694   0.807   2.080  3.3883 -0.4850  2.3783
  298SOL     MW 1192   1.654   0.851   2.015  0.3834  0.0659  0.4621
  299SOL     OW 1193   0.593   1.106   0.036  0.5134  0.2087 -0.1008
  299SOL    HW1 1194   0.567   1.133  -0.055  3.8181  0.0241  0.6668
  299SOL    HW2 1195   0.685   1.127   0.053 -0.6695  1.7996 -2.3563
  299SOL     MW 1196   0.602   1.112   0.026  0.7933  0.3942 -0.2971
  300SOL     OW 1197   1.261   1.181   2.476 -0.7711  0.0765  0.0225
  300SOL    HW1 1198   1.190   1.130   2.517 -1.4588  4.0493  0.8549
  300SOL    HW2 1199   1.295   1.228   2.551 -2.7061 -0.4173  0.3357
  300SOL     MW 1200   1.256   1.181   2.491 -1.1172  0.5355  0.1736
  301SOL     OW 1201   1.468   0.979   0.657 -0.3851  0.2981  0.1135
  301SOL    HW1 1202   1.451   1.025   0.738 -0.9613 -1.9804  0.1293
  301SOL    HW2 1203   1.420   0.892   0.657 -0.7071  1.3448 -0.0699
  301SOL     MW 1204   1.460   0.973   0.668 -0.5036  0.1356  0.0914
  302SOL     OW 1205   0.154   1.591   1.988  0.7679 -0.7269 -0.1534
  302SOL    HW1 1206   0.174   1.544   2.070 -0.8103  0.8911  0.4372
  302SOL    HW2 1207   0.096   1.658   2.025  1.5944 -0.2179  1.1826
  302SOL     MW 1208   0.149   1.594   2.003  0.6687 -0.4463  0.1008
  303SOL     OW 1209   0.389   1.780   2.680  0.1662 -0.0183  0.8577
  303SOL    HW1 1210   0.351   1.787   2.591 -2.1239 -0.5949  1.7661
  303SOL    HW2 1211   0.327   1.837   2.729 -1.1231  0.1648 -3.4727
  303SOL     MW 1212   0.376   1.788   2.675 -0.3061 -0.0702  0.4062
  304SOL     OW 1213   0.514   2.049   2.343 -0.6236 -0.0652 -0.0599
  304SOL    HW1 1214   0.593   2.110   2.316  2.2186 -1.5575 -1.1847
  304SOL    HW2 1215   0.569   1.974   2.363 -0.0662  2.5007  2.2760
  304SOL     MW 1216   0.532   2.047   2.342 -0.1750  0.0764  0.0999
  305SOL     OW 1217   1.092   0.560   0.508 -0.1121  0.3858  0.6959
  305SOL    HW1 1218   0.997   0.571   0.516  1.2247  0.4208 -1.6329
  305SOL    HW2 1219   1.113   0.472   0.541 -1.4689 -0.8462 -1.1005
  305SOL     MW 1220   1.082   0.550   0.514 -0.1148  0.2279  0.1516
  306SOL     OW 1221   1.180   1.546   0.283  0.3559  0.5657 -0.0499
  306SOL    HW1 1222   1.197   1.451   0.311 -0.0191  1.2984 -0.5798
  306SOL    HW2 1223   1.229   1.545   0.204 -1.9961 -0.9735 -0.9611
  306SOL     MW 1224   1.189   1.534   0.276 -0.0039  0.4593 -0.2400
  307SOL     OW 1225   1.347   0.483   1.846  0.0176 -0.1758 -0.2111
  307SOL    HW1 1226   1.283   0.423   1.884 -1.0121 -0.7278  3.4476
  307SOL    HW2 1227   1.402   0.518   1.919  0.8556  0.2651  1.4274
  307SOL     MW 1228   1.346   0.480   1.860 -0.0077 -0.1905  0.4878
  308SOL     OW 1229   2.197   0.520   2.721 -0.1755 -0.4736 -0.1633
  308SOL    HW1 1230   2.294   0.522   2.732  2.9229 -0.5164  0.7664
  308SOL    HW2 1231   2.159   0.605   2.692 -0.2799  1.4673  1.0182
  308SOL     MW 1232   2.205   0.531   2.718  0.2196 -0.2231  0.1153
  309SOL     OW 1233   0.479   0.507   0.258 -0.5144 -0.1580 -0.6153
  309SOL    HW1 1234   0.543   0.555   0.208  1.6516 -0.7984 -0.4858
  309SOL    HW2 1235   0.449   0.427   0.213 -1.1532 -0.4537  0.3143
  309SOL     MW 1236   0.483   0.503   0.246 -0.3129 -0.2815 -0.4756
  310SOL     OW 1237   0.423   0.585   1.915 -0.0189 -0.3811 -0.1677
  310SOL    HW1 1238   0.462   0.494   1.913 -0.2308  2.0132 -0.4673
  310SOL    HW2 1239   0.490   0.642   1.877  0.0911  1.1924 -0.7571
  310SOL     MW 1240   0.437   0.580   1.910 -0.0324  0.1424 -0.2850
  311SOL     OW 1241   1.902   0.604   1.922 -0.4617  1.2020 -0.2096
  311SOL    HW1 1242   1.861   0.625   2.009  0.7493 -1.8883 -0.8069
  311SOL    HW2 1243   1.946   0.521   1.954  0.2702  0.0435 -0.8511
  311SOL     MW 1244   1.902   0.596   1.938 -0.2053  0.6414 -0.3730
  312SOL     OW 1245   1.818   2.470   0.168  0.4122 -0.0103  0.7695
  312SOL    HW1 1246   1.883   2.461   0.235  0.0161  4.1859  0.1947
  312SOL    HW2 1247   1.731   2.489   0.206  0.3754  0.5215 -2.5205
  312SOL     MW 1248   1.815   2.471   0.182  0.3551  0.6135  0.2596
  313SOL     OW 1249   0.131   1.145   2.959  0.1038 -0.6739 -0.0211
  313SOL    HW1 1250   0.108   1.171   3.056 -1.3600  0.3507  0.9538
  313SOL    HW2 1251   0.194   1.215   2.945 -1.6048  0.5894  1.0610
  313SOL     MW 1252   0.136   1.158   2.970 -0.3147 -0.3721  0.2503
  314SOL     OW 1253   2.175   3.010   2.946 -0.1835  0.0890 -0.0110
  314SOL    HW1 1254   2.105   3.049   2.892  1.7702 -0.8370 -0.7578
  314SOL    HW2 1255   2.212   3.068   3.015  0.7616 -1.1509  1.3535
  314SOL     MW 1256   2.170   3.023   2.948  0.1990 -0.1967  0.0705
  315SOL     OW 1257   1.528   1.855   3.003 -0.0581 -0.6548 -0.2627
  315SOL    HW1 1258   1.488   1.876   3.084 -2.8004  0.3380 -0.1334
  315SOL    HW2 1259   1.554   1.943   2.959  0.5426 -2.1025 -0.4879
  315SOL     MW 1260   1.526   1.870   3.008 -0.3407 -0.7148 -0.2753
  316SOL     OW 1261   1.321   0.521   2.722 -0.4247  0.3108  0.0883
  316SOL    HW1 1262   1.411   0.523   2.741  0.0817  0.8689  1.0392
  316SOL    HW2 1263   1.265   0.532   2.804 -0.2878 -0.8545  0.0574
  316SOL     MW 1264   1.325   0.523   2.736 -0.3398  0.2307  0.2097
  317SOL     OW 1265   0.658   1.490   2.639  0.0821  0.8539  0.3938
  317SOL    HW1 1266   0.722   1.416   2.624  2.0467 -1.3724  0.1569
  317SOL    HW2 1267   0.660   1.520   2.546  1.4397 -1.5727  0.8673
  317SOL     MW 1268   0.667   1.484   2.624  0.5205  0.2400  0.4250
  318SOL     OW 1269   1.359   0.352   2.971  0.1982 -0.7439  0.1884
  318SOL    HW1 1270   1.275   0.386   2.928  0.3698  0.6784 -1.4983
  318SOL    HW2 1271   1.424   0.410   2.930 -1.3998  0.8823 -0.8715
  318SOL     MW 1272   1.356   0.364   2.960  0.0100 -0.3417 -0.1740
  319SOL     OW 1273   0.855   0.413   2.891  0.2691 -0.2260  0.7526
  319SOL    HW1 1274   0.809   0.365   2.818  1.9282  1.8484 -0.3344
  319SOL    HW2 1275   0.807   0.395   2.970 -0.5101 -1.6472  0.5679
  319SOL     MW 1276   0.842   0.405   2.892  0.3852 -0.1398  0.5848
  320SOL     OW 1277   1.077   1.354   1.990  0.1036 -0.1504 -0.2013
  320SOL    HW1 1278   1.141   1.291   2.034  1.5682 -0.7551 -2.3793
  320SOL    HW2 1279   1.137   1.420   1.955 -0.5143  1.1452  1.3331
  320SOL     MW 1280   1.094   1.354   1.991  0.2153 -0.0593 -0.2862
  321SOL     OW 1281   1.120   0.948   3.020  0.2934 -0.4483  0.2760
  321SOL    HW1 1282   1.058   0.901   2.963 -0.3550 -2.0550  1.4641
  321SOL    HW2 1283   1.169   0.875   3.048 -0.0943 -1.2807  0.0476
  321SOL     MW 1284   1.119   0.932   3.016  0.1567 -0.7701  0.4026
  322SOL     OW 1285   1.173   0.860   1.674 -0.1378  0.5469  0.0192
  322SOL    HW1 1286   1.254   0.803   1.697 -0.3760  0.7761 -0.1281
  322SOL    HW2 1287   1.155   0.905   1.761  1.8875 -0.6797  0.7636
  322SOL     MW 1288   1.181   0.859   1.689  0.0980  0.4153  0.0980
  323SOL     OW 1289   1.244   1.535   1.880 -0.0201 -0.2521  0.3011
  323SOL    HW1 1290   1.280   1.565   1.793 -1.5188  0.4114 -1.0351
  323SOL    HW2 1291   1.172   1.606   1.890  1.4025  0.2102 -1.0483
  323SOL     MW 1292   1.239   1.548   1.870 -0.0302 -0.1036 -0.0533
  324SOL     OW 1293   1.481   0.993   2.426  0.2861  0.4721 -0.3310
  324SOL    HW1 1294   1.412   1.044   2.454  1.8645  2.7660  0.9450
  324SOL    HW2 1295   1.554   1.048   2.447 -0.8622  0.9023 -0.4278
  324SOL     MW 1296   1.482   1.007   2.433  0.3429  0.8316 -0.1754
  325SOL     OW 1297   1.116   0.515   2.923 -0.1099 -0.1117  0.0643
  325SOL    HW1 1298   1.094   0.583   2.989 -2.0605 -1.6827 -0.1975
  325SOL    HW2 1299   1.033   0.484   2.899  1.2710  1.1838  0.7142
  325SOL     MW 1300   1.102   0.520   2.928 -0.1851 -0.1480  0.1155
  326SOL     OW 1301   0.435   1.360   2.344 -0.6668  0.8019 -0.5034
  326SOL    HW1 1302   0.519   1.328   2.314  1.7425  0.9789 -0.9564
  326SOL    HW2 1303   0.419   1.441   2.303 -3.4360 -3.2225  0.5671
  326SOL     MW 1304   0.444   1.366   2.334 -0.7143  0.2943 -0.4219
  327SOL     OW 1305   1.908   0.770   2.443  0.1306 -0.3155  0.3047
  327SOL    HW1 1306   1.917   0.727   2.531  1.1105  1.0112 -0.9904
  327SOL    HW2 1307   1.929   0.866   2.447  0.5319  1.2660 -0.8251
  327SOL     MW 1308   1.912   0.777   2.455  0.3128  0.0682 -0.0153
  328SOL     OW 1309   0.183   1.345   2.156  0.2561 -0.5840 -0.2490
  328SOL    HW1 1310   0.129   1.273   2.119 -1.4237 -0.5433  0.1606
  328SOL    HW2 1311   0.238   1.304   2.218 -1.7169  0.1777 -0.1494
  328SOL     MW 1312   0.183   1.330   2.159 -0.2259 -0.4782 -0.1818
  329SOL     OW 1313   0.081   0.229   1.405 -0.9145 -0.9585  0.0815
  329SOL    HW1 1314   0.087   0.207   1.503 -2.5846  0.9480  1.3871
  329SOL    HW2 1315   0.173   0.221   1.382 -2.3138  1.9445 -0.5869
  329SOL     MW 1316   0.094   0.225   1.415 -1.3195 -0.3239  0.1656
  330SOL     OW 1317   0.378   3.059   2.065 -0.1160 -0.3964 -0.2847
  330SOL    HW1 1318   0.454   3.091   2.114 -0.0639 -2.1419 -1.9195
  330SOL    HW2 1319   0.316   3.012   2.123 -2.1206  1.1785 -1.1623
  330SOL     MW 1320   0.380   3.057   2.079 -0.3736 -0.4189 -0.6162
  331SOL     OW 1321   0.820   1.258   2.389  0.0539 -0.3337  0.8043
  331SOL    HW1 1322   0.793   1.336   2.335 -0.7049  0.0172  2.6710
  331SOL    HW2 1323   0.851   1.294   2.474  2.1772  0.1088  1.5613
  331SOL     MW 1324   0.821   1.273   2.393  0.2340 -0.2290  1.1505
  332SOL     OW 1325   1.339   1.687   2.908  0.4346 -0.5331 -0.0711
  332SOL    HW1 1326   1.331   1.709   2.814  2.7105 -1.6404 -0.1662
  332SOL    HW2 1327   1.402   1.757   2.935 -0.2226 -2.2702  0.6804
  332SOL     MW 1328   1.347   1.699   2.899  0.6482 -0.9084  0.0155
  333SOL     OW 1329   1.735   1.366   2.944 -0.2622  0.3760 -0.5893
  333SOL    HW1 1330   1.826   1.357   2.915  3.4916  1.3896 -0.3885
  333SOL    HW2 1331   1.721   1.288   2.996 -0.4920 -1.2899 -0.5756
  333SOL     MW 1332   1.746   1.355   2.947  0.2028  0.2900 -0.5610
  334SOL     OW 1333   1.267   0.024   2.564 -0.4291 -1.1569 -0.4312
  334SOL    HW1 1334   1.223  -0.005   2.641  1.1027  0.0293 -0.3325
  334SOL    HW2 1335   1.315   0.103   2.600 -0.3860 -1.1748  1.3283
  334SOL     MW 1336   1.268   0.030   2.579 -0.2213 -1.0028 -0.1860
  335SOL     OW 1337   1.328   0.736   2.957 -0.3769 -0.0358 -0.1608
  335SOL    HW1 1338   1.393   0.722   3.026 -0.3435 -0.1209 -1.5840
  335SOL    HW2 1339   1.382   0.793   2.891  1.3589 -1.8439  1.2286
  335SOL     MW 1340   1.344   0.742   2.957 -0.1434 -0.2856 -0.1652
  336SOL     OW 1341   0.926   1.169   1.832  0.4074  0.2817  0.0400
  336SOL    HW1 1342   0.971   1.244   1.880 -1.0758 -1.3841 -2.1603
  336SOL    HW2 1343   0.987   1.098   1.856 -0.8106 -0.4612  0.9551
  336SOL     MW 1344   0.940   1.170   1.842  0.0510 -0.0361 -0.1296
  337SOL     OW 1345   0.670   1.820   2.783 -0.0153  0.2996 -0.9720
  337SOL    HW1 1346   0.594   1.797   2.730  0.5545 -0.8127  0.1680
  337SOL    HW2 1347   0.734   1.750   2.785  2.0118  0.6856  2.2360
  337SOL     MW 1348   0.668   1.807   2.776  0.3274  0.2038 -0.3983
  338SOL     OW 1349   1.137   0.709   2.595  0.1599  0.5294 -0.4231
  338SOL    HW1 1350   1.056   0.657   2.578  1.0800 -1.5795  0.5693
  338SOL    HW2 1351   1.197   0.640   2.625 -0.2221  2.8161 -1.0351
  338SOL     MW 1352   1.134   0.693   2.597  0.2309  0.5529 -0.3729
  339SOL     OW 1353   1.496   1.062   1.844  0.4824  0.0036  0.0468
  339SOL    HW1 1354   1.443   1.079   1.766  0.2844 -0.4202  0.3335
  339SOL    HW2 1355   1.444   0.998   1.890 -2.5544 -0.1092 -2.4632
  339SOL     MW 1356   1.483   1.056   1.840  0.0556 -0.0672 -0.2465
  340SOL     OW 1357   1.327   1.517   0.041  0.4201  0.0470 -0.4963
  340SOL    HW1 1358   1.341   1.538  -0.047  0.9657  1.4387  0.9654
  340SOL    HW2 1359   1.411   1.480   0.077 -0.2359  1.6794  0.1302
  340SOL     MW 1360   1.340   1.515   0.034  0.4055  0.4460 -0.2208
  341SOL     OW 1361   0.047   1.335   2.740  0.8039  0.4782  0.4641
  341SOL    HW1 1362   0.119   1.285   2.706  0.2915 -0.8992 -1.0354
  341SOL    HW2 1363  -0.014   1.325   2.662  1.3651  0.0205 -1.2893
  341SOL     MW 1364   0.048   1.327   2.725  0.8103  0.2361  0.0349
  342SOL     OW 1365   1.320   0.349   0.138  0.3833  0.0970  0.1750
  342SOL    HW1 1366   1.366   0.411   0.183 -0.1859 -1.5659  1.0087
  342SOL    HW2 1367   1.333   0.365   0.043 -0.2285 -0.3598 -2.1128
  342SOL     MW 1368   1.328   0.359   0.131  0.2275 -0.1827 -0.0169
  343SOL     OW 1369   0.270   0.307   2.142 -0.1769 -0.1431  0.6876
  343SOL    HW1 1370   0.329   0.237   2.107  3.7778 -0.5256  0.3767
  343SOL    HW2 1371   0.188   0.258   2.132 -1.3749  1.6000 -0.6915
  343SOL     MW 1372   0.267   0.291   2.136  0.1868  0.0364  0.4646
  344SOL     OW 1373   1.696   2.052   0.179 -0.7199  0.5169 -0.2994
  344SOL    HW1 1374   1.703   2.124   0.113 -2.2019 -1.4280 -2.2057
  344SOL    HW2 1375   1.623   2.080   0.233 -2.7959  1.6282  1.8984
  344SOL     MW 1376   1.687   2.065   0.177 -1.1894  0.4069 -0.2609
  345SOL     OW 1377   0.712   1.578   2.353  0.1372 -0.3694  0.9671
  345SOL    HW1 1378   0.653   1.536   2.286  0.1278  1.0273 -2.7280
  345SOL    HW2 1379   0.800   1.573   2.310  0.1722  0.6236 -1.5247
  345SOL     MW 1380   0.716   1.572   2.339  0.1406 -0.0541  0.1508
  346SOL     OW 1381   1.755   1.153   0.043 -0.3178 -0.2441  0.0186
  346SOL    HW1 1382   1.847   1.178   0.055  1.9993 -0.9330 -1.3623
  346SOL    HW2 1383   1.744   1.076   0.104 -2.7405  0.2041  2.5694
  346SOL     MW 1384   1.766   1.146   0.052 -0.3317 -0.2758  0.1729
  347SOL     OW 1385   1.164   0.645   2.308 -0.1336  0.6011  0.4706
  347SOL    HW1 1386   1.253   0.613   2.309  0.4858 -0.0145 -0.5944
  347SOL    HW2 1387   1.154   0.655   2.397  0.9563 -0.6705 -3.6170
  347SOL     MW 1388   1.175   0.642   2.320  0.0919  0.3521 -0.2093
  348SOL     OW 1389   1.294   2.628   1.875 -0.2016 -0.3444  0.0406
  348SOL    HW1 1390   1.317   2.537   1.905 -0.4841 -0.3100 -0.6612
  348SOL    HW2 1391   1.361   2.684   1.918  1.7799  1.8737  0.3071
  348SOL     MW 1392   1.306   2.623   1.885  0.0226 -0.0472 -0.0168
  349SOL     OW 1393   1.441   0.211   2.701 -0.1872  0.3587 -0.2175
  349SOL    HW1 1394   1.410   0.250   2.780  0.3947 -0.3120 -1.1770
  349SOL    HW2 1395   1.526   0.188   2.727 -1.0999 -0.3052  0.7112
  349SOL     MW 1396   1.448   0.213   2.715 -0.2309  0.1826 -0.2216
  350SOL     OW 1397   1.835   0.643   2.657 -0.2501  0.1584 -0.1957
  350SOL    HW1 1398   1.767   0.584   2.626  0.3550 -1.3378  0.1607
  350SOL    HW2 1399   1.882   0.590   2.724 -1.3975  2.0119 -3.3633
  350SOL     MW 1400   1.832   0.628   2.661 -0.3216  0.2055 -0.5666
  351SOL     OW 1401   0.090   1.142   1.596 -0.3834  0.4341  0.6935
  351SOL    HW1 1402   0.044   1.118   1.675 -0.6002 -2.0353  1.9882
  351SOL    HW2 1403   0.158   1.202   1.642  0.6549  0.2207  3.6578
  351SOL     MW 1404   0.093   1.147   1.612 -0.2750  0.0801  1.2554
  352SOL     OW 1405   0.878   1.641   2.736 -0.2463  0.0874 -0.0755
  352SOL    HW1 1406   0.914   1.599   2.808  1.1930  2.0332  1.0043
  352SOL    HW2 1407   0.833   1.570   2.688 -0.8071 -0.3463  1.8718
  352SOL     MW 1408   0.877   1.626   2.739 -0.1304  0.2869  0.3239
  353SOL     OW 1409   0.018   2.505   2.735  0.5672  0.2424  0.5352
  353SOL    HW1 1410   0.110   2.491   2.730 -1.4971 -3.1953 -2.8490
  353SOL    HW2 1411   0.015   2.594   2.694  0.7318 -0.7732 -0.4007
  353SOL     MW 1412   0.030   2.515   2.729  0.3165 -0.3452 -0.0348
  354SOL     OW 1413   0.276   2.466   0.796  0.2088  0.7748 -0.1149
  354SOL    HW1 1414   0.320   2.466   0.879 -1.8781 -2.2912  0.3858
  354SOL    HW2 1415   0.204   2.406   0.817  3.9054 -0.0001 -1.4970
  354SOL     MW 1416   0.273   2.458   0.810  0.4212  0.2680 -0.2312
  355SOL     OW 1417   3.090   2.224   0.363 -0.4631  0.1205  0.3049
  355SOL    HW1 1418   3.009   2.174   0.351  0.7042 -1.2161 -2.5074
  355SOL    HW2 1419   3.073   2.280   0.433  1.0236 -0.0402  0.1149
  355SOL     MW 1420   3.077   2.225   0.370 -0.1129 -0.0770 -0.0912
  356SOL     OW 1421   0.844   2.798   0.977  0.2378 -0.0159  0.6533
  356SOL    HW1 1422   0.869   2.858   0.903 -1.3328 -0.7657 -0.2856
  356SOL    HW2 1423   0.746   2.803   0.970 -2.0140 -1.7800 -1.1367
  356SOL     MW 1424   0.834   2.806   0.966 -0.2665 -0.3476  0.2933
  357SOL     OW 1425   1.778   2.895   0.383  0.3482 -0.4356  0.4703
  357SOL    HW1 1426   1.745   2.813   0.414 -0.3530  0.4473  0.7807
  357SOL    HW2 1427   1.854   2.865   0.332 -0.4076  1.1948 -0.7945
  357SOL     MW 1428   1.784   2.880   0.381  0.1560 -0.1040  0.3443
  358SOL     OW 1429   0.466   0.143   1.031  0.1510 -0.0789 -0.3051
  358SOL    HW1 1430   0.559   0.150   1.010 -2.1720  1.7613 -1.8446
  358SOL    HW2 1431   0.427   0.174   0.953  0.8595 -2.2377  0.9073
  358SOL     MW 1432   0.473   0.148   1.018 -0.0620 -0.1209 -0.3483
  359SOL     OW 1433   0.836   2.858   1.854 -0.4519 -0.3039  0.6655
  359SOL    HW1 1434   0.830   2.767   1.878  0.8985 -0.8173  0.4800
  359SOL    HW2 1435   0.866   2.861   1.762 -0.4702  3.8192 -0.1457
  359SOL     MW 1436   0.839   2.847   1.845 -0.2761  0.1724  0.5340
  360SOL     OW 1437   0.580   2.806   0.916 -0.0914 -0.2448 -0.3865
  360SOL    HW1 1438   0.590   2.789   0.821 -1.2044 -0.3514 -0.8965
  360SOL    HW2 1439   0.559   2.720   0.956 -0.0634  1.9204 -0.2206
  360SOL     MW 1440   0.579   2.792   0.909 -0.2346  0.0268 -0.4319
  361SOL     OW 1441   0.219   2.629   1.341 -0.0081 -0.3308 -0.2473
  361SOL    HW1 1442   0.210   2.702   1.401 -0.5131  1.7527 -1.3144
  361SOL    HW2 1443   0.318   2.628   1.330 -1.5776  1.9397  1.1998
  361SOL     MW 1444   0.231   2.638   1.347 -0.2818  0.2436 -0.1972
  362SOL     OW 1445   1.453   2.428   0.649 -0.1283 -0.9713  0.4301
  362SOL    HW1 1446   1.470   2.399   0.742 -0.1131  0.9014 -0.9933
  362SOL    HW2 1447   1.503   2.515   0.644 -2.3630  0.0972  0.5683
  362SOL     MW 1448   1.462   2.435   0.661 -0.4211 -0.5832  0.2605
  363SOL     OW 1449   0.311   3.101   0.660  0.2760 -0.0076 -0.6074
  363SOL    HW1 1450   0.308   3.057   0.744 -0.1523  0.2248 -4.6120
  363SOL    HW2 1451   0.220   3.107   0.626 -0.7974  0.5538  0.2203
  363SOL     MW 1452   0.298   3.096   0.667  0.0778  0.0971 -1.0266
  364SOL     OW 1453   0.761   0.217   0.233 -0.6994  0.0018  0.0244
  364SOL    HW1 1454   0.682   0.159   0.250  1.0062 -1.4032  0.5293
  364SOL    HW2 1455   0.723   0.296   0.192  0.7766  0.7618  0.2856
  364SOL     MW 1456   0.745   0.219   0.230 -0.2796 -0.0833  0.1255
  365SOL     OW 1457   0.984   2.003   1.185  0.0713 -0.9055  0.3290
  365SOL    HW1 1458   0.947   2.073   1.134  0.1679  0.0420 -2.1240
  365SOL    HW2 1459   0.953   1.924   1.135 -2.4388  0.8193  0.9330
  365SOL     MW 1460   0.975   2.002   1.172 -0.2471 -0.5529  0.0850
  366SOL     OW 1461   2.896   2.667   0.991  0.2788 -0.7100 -0.0732
  366SOL    HW1 1462   2.961   2.673   1.060 -0.6128  0.4026 -2.9630
  366SOL    HW2 1463   2.936   2.691   0.906  0.8887 -0.1486  0.9695
  366SOL     MW 1464   2.910   2.671   0.989  0.2416 -0.4891 -0.3169
  367SOL     OW 1465   1.245   2.947   0.882  0.1515 -0.5078 -0.6865
  367SOL    HW1 1466   1.270   3.021   0.819  0.0524 -1.0036 -2.5409
  367SOL    HW2 1467   1.201   2.877   0.831 -0.2785 -1.1058 -2.9143
  367SOL     MW 1468   1.243   2.948   0.867  0.0817 -0.6521 -1.2251
  368SOL     OW 1469   1.649   0.353   0.743  0.0137  0.0875  0.0091
  368SOL    HW1 1470   1.712   0.306   0.686  0.4889  2.5593  0.9347
  368SOL    HW2 1471   1.692   0.438   0.738  0.2362 -1.2706 -1.1839
  368SOL     MW 1472   1.663   0.358   0.735  0.1058  0.2345 -0.0262
  369SOL     OW 1473   0.130   2.409   1.799 -0.2267 -0.0051 -0.1003
  369SOL    HW1 1474   0.229   2.420   1.802  0.5765 -0.5641  1.5378
  369SOL    HW2 1475   0.102   2.503   1.808  1.8512 -1.8077 -1.6418
  369SOL     MW 1476   0.139   2.423   1.801  0.1534 -0.3167 -0.0875
  370SOL     OW 1477   0.737   0.144   0.949  0.6354  0.7915 -0.4404
  370SOL    HW1 1478   0.764   0.230   0.970  1.1193 -0.3284 -3.6367
  370SOL    HW2 1479   0.807   0.076   0.975 -2.3549 -1.6545 -0.2380
  370SOL     MW 1480   0.750   0.146   0.955  0.3047  0.3210 -0.8354
  371SOL     OW 1481   1.340   2.880   1.527 -0.4762 -0.8137  0.1911
  371SOL    HW1 1482   1.273   2.828   1.480  1.4759  0.6348 -1.0322
  371SOL    HW2 1483   1.339   2.956   1.471  0.3883 -4.0821 -1.7879
  371SOL     MW 1484   1.331   2.883   1.513 -0.1046 -1.0538 -0.2314
  372SOL     OW 1485   0.805   2.271   0.492  0.4464  0.0938  0.4916
  372SOL    HW1 1486   0.750   2.193   0.493  1.2486 -0.3977 -2.9060
  372SOL    HW2 1487   0.817   2.266   0.396  0.3282  0.2292 -3.0847
  372SOL     MW 1488   0.799   2.260   0.480  0.5367  0.0468 -0.4285
  373SOL     OW 1489   2.813   3.002   1.460 -0.2179  0.0533 -0.0741
  373SOL    HW1 1490   2.888   2.979   1.402  0.7761  0.0790 -1.3329
  373SOL    HW2 1491   2.786   3.092   1.427  1.0123 -2.4854 -0.0913
  373SOL     MW 1492   2.819   3.011   1.448  0.0756 -0.2782 -0.2424
  374SOL     OW 1493   1.503   0.523   0.268 -0.0303  0.6544  0.9386
  374SOL    HW1 1494   1.575   0.469   0.239  0.7923 -1.2765  1.6272
  374SOL    HW2 1495   1.472   0.490   0.355 -4.1062  0.6552 -0.2041
  374SOL     MW 1496   1.509   0.512   0.276 -0.4596  0.3997  0.8787
  375SOL     OW 1497   0.970   2.096   2.236  0.4223 -0.0930 -0.2937
  375SOL    HW1 1498   1.035   2.088   2.308  0.3340 -1.3729  1.4802
  375SOL    HW2 1499   0.939   2.010   2.201 -0.2596 -2.9739 -0.4407
  375SOL     MW 1500   0.974   2.083   2.241  0.3207 -0.6420 -0.0790
  376SOL     OW 1501   0.793   2.561   0.059 -0.4589  0.3758 -0.3949
  376SOL    HW1 1502   0.776   2.507   0.139 -0.4965 -3.8698 -0.2064
  376SOL    HW2 1503   0.767   2.489   0.002 -1.3814 -3.1929 -2.6698
  376SOL     MW 1504   0.788   2.544   0.062 -0.5856 -0.6552 -0.6702
  377SOL     OW 1505   1.257   2.006   0.840  0.0746  0.3766 -0.2231
  377SOL    HW1 1506   1.159   2.003   0.809  0.0469  0.1404  1.6889
  377SOL    HW2 1507   1.254   1.972   0.929  2.3755 -1.4463 -0.2853
  377SOL     MW 1508   1.244   2.001   0.848  0.3745  0.1049  0.0210
  378SOL     OW 1509   0.881   2.847   1.579  0.5085 -0.0340 -0.1053
  378SOL    HW1 1510   0.876   2.752   1.559  0.3963 -1.1745  0.8274
  378SOL    HW2 1511   0.951   2.887   1.532  1.3901  0.8160  0.1196
  378SOL     MW 1512   0.890   2.840   1.570  0.6100 -0.0723  0.0474
  379SOL     OW 1513   1.123   1.703   2.246 -0.7734 -0.4116 -0.6029
  379SOL    HW1 1514   1.050   1.647   2.218 -3.6426 -0.2593  2.0823
  379SOL    HW2 1515   1.200   1.641   2.233 -0.0066 -0.1935 -1.8082
  379SOL     MW 1516   1.124   1.688   2.240 -1.0508 -0.3627 -0.4076
  380SOL     OW 1517   0.856   0.113   1.518  0.5355  0.1866 -0.7995
  380SOL    HW1 1518   0.855   0.029   1.459  0.1552 -2.3331  0.9201
  380SOL    HW2 1519   0.941   0.114   1.568  1.6757 -1.8066  2.1959
  380SOL     MW 1520   0.867   0.102   1.517  0.6357 -0.4088 -0.1774
  381SOL     OW 1521   0.760   2.026   0.829 -0.4658  0.6225  0.3989
  381SOL    HW1 1522   0.849   2.029   0.790  1.3529 -0.1606  0.0794
  381SOL    HW2 1523   0.755   2.104   0.888 -0.5594 -3.3519  1.9600
  381SOL     MW 1524   0.771   2.037   0.831 -0.2382 -0.0052  0.5627
  382SOL     OW 1525   0.716   0.087   0.644 -0.1770 -0.1943 -0.2533
  382SOL    HW1 1526   0.707   0.104   0.738  0.7800  0.3716 -1.7722
  382SOL    HW2 1527   0.690  -0.005   0.619  0.2979  2.9425  1.5130
  382SOL     MW 1528   0.712   0.077   0.653  0.0119  0.2942 -0.2206
  383SOL     OW 1529   0.545   0.032   0.283  0.1378 -0.0627  0.2858
  383SOL    HW1 1530   0.567  -0.040   0.222  0.6974 -1.1590  0.8716
  383SOL    HW2 1531   0.494  -0.022   0.352  1.2497 -0.6507  0.5373
  383SOL     MW 1532   0.541   0.016   0.284  0.3583 -0.2849  0.3963
  384SOL     OW 1533   0.716   2.927   0.591  0.0386  0.3320 -0.8854
  384SOL    HW1 1534   0.796   2.917   0.650 -0.3825  1.6637  0.7020
  384SOL    HW2 1535   0.661   2.844   0.601 -0.7723 -0.9298  1.1267
  384SOL     MW 1536   0.720   2.914   0.600 -0.1239  0.3412 -0.4105
  385SOL     OW 1537   1.407   2.081   1.494 -0.1798  0.0442  0.0257
  385SOL    HW1 1538   1.483   2.091   1.552  0.2958  0.0354  1.7064
  385SOL    HW2 1539   1.364   2.003   1.534  3.7722 -4.1689  1.5183
  385SOL     MW 1540   1.411   2.072   1.507  0.4044 -0.5128  0.4444
  386SOL     OW 1541   1.244   0.382   0.874 -0.5169  0.2251  0.0473
  386SOL    HW1 1542   1.199   0.438   0.943  0.4063  1.9746 -1.8967
  386SOL    HW2 1543   1.286   0.316   0.935  0.1421 -1.1650 -0.4782
  386SOL     MW 1544   1.243   0.381   0.891 -0.3082  0.2725 -0.2786
  387SOL     OW 1545   0.829   2.218   1.544 -0.3485  0.0277  0.0594
  387SOL    HW1 1546   0.895   2.286   1.505 -1.3331  1.0790 -0.6368
  387SOL    HW2 1547   0.834   2.137   1.490  0.6633 -0.8648  0.9828
  387SOL     MW 1548   0.838   2.216   1.532 -0.3449  0.0486  0.0893
  388SOL     OW 1549   1.506   2.789   1.237 -0.7680  0.8309  0.5380
  388SOL    HW1 1550   1.423   2.820   1.211  0.7915 -1.6690  1.9104
  388SOL    HW2 1551   1.529   2.722   1.170 -0.7240 -0.4590  0.2890
  388SOL     MW 1552   1.498   2.784   1.225 -0.5564  0.3309  0.6862
  389SOL     OW 1553   0.452   0.140   3.027 -0.0488  0.1356  0.2689
  389SOL    HW1 1554   0.546   0.121   3.009 -1.1455  1.3187 -2.3354
  389SOL    HW2 1555   0.416   0.164   2.946  3.4426  0.0417  3.6488
  389SOL     MW 1556   0.460   0.140   3.014  0.2672  0.2793  0.3712
  390SOL     OW 1557   1.337   0.057   0.727  0.6864 -0.2459  0.1808
  390SOL    HW1 1558   1.389   0.055   0.650 -2.2107 -1.1569  1.2190
  390SOL    HW2 1559   1.394   0.095   0.795 -1.9579 -0.4801  0.9894
  390SOL     MW 1560   1.352   0.061   0.726 -0.0447 -0.3970  0.4244
  391SOL     OW 1561   0.361   2.218   1.428  0.2803 -0.6522  0.4058
  391SOL    HW1 1562   0.335   2.130   1.455  1.6544  1.5207  0.8871
  391SOL    HW2 1563   0.280   2.266   1.446 -1.2414  1.2026  0.8732
  391SOL     MW 1564   0.347   2.212   1.434  0.2608 -0.1208  0.5310
  392SOL     OW 1565   2.041   2.202   0.348  0.3860  0.3712  0.0364
  392SOL    HW1 1566   2.084   2.152   0.418 -2.0808  1.2744  1.8439
  392SOL    HW2 1567   1.993   2.264   0.402  0.5350  2.2355  1.3676
  392SOL     MW 1568   2.040   2.203   0.364  0.0802  0.7363  0.4505
  393SOL     OW 1569   0.288   2.919   2.784  0.2834 -0.1974 -0.4026
  393SOL    HW1 1570   0.364   2.926   2.721 -2.7241 -1.7920  0.1907
  393SOL    HW2 1571   0.271   3.010   2.808 -0.9757 -0.2856 -0.5113
  393SOL     MW 1572   0.296   2.932   2.779 -0.2795 -0.4194 -0.3387
  394SOL     OW 1573   0.890   1.756   1.536  0.2710 -0.2930 -0.3521
  394SOL    HW1 1574   0.843   1.742   1.624 -1.0296  1.2593  1.3811
  394SOL    HW2 1575   0.871   1.851   1.511 -0.0848 -0.9725 -1.2333
  394SOL     MW 1576   0.881   1.767   1.544  0.0525 -0.1778 -0.2397
  395SOL     OW 1577   0.948   2.910   2.631  0.2531  0.4938 -0.8513
  395SOL    HW1 1578   0.997   2.979   2.674  0.0339  0.1997 -3.1907
  395SOL    HW2 1579   1.017   2.859   2.588  0.1331 -1.0286  0.4481
  395SOL     MW 1580   0.964   2.913   2.631  0.2083  0.2541 -0.9885
  396SOL     OW 1581   0.696   1.848   2.378 -0.3840  0.4084  0.0402
  396SOL    HW1 1582   0.769   1.862   2.446  0.0557 -2.2606  1.7439
  396SOL    HW2 1583   0.690   1.754   2.381 -2.0551  3.4894 -1.7550
  396SOL     MW 1584   0.705   1.838   2.388 -0.5465  0.4628  0.0281
  397SOL     OW 1585   1.042   2.369   1.409  0.2096  0.1382  0.5991
  397SOL    HW1 1586   1.065   2.370   1.315  0.7514  1.4363 -1.3234
  397SOL    HW2 1587   1.122   2.345   1.453 -0.1960  0.2470 -2.0527
  397SOL     MW 1588   1.056   2.366   1.402  0.2275  0.3238 -0.0044
  398SOL     OW 1589   0.588   2.700   0.660  0.3773  0.2770 -0.1398
  398SOL    HW1 1590   0.520   2.689   0.594  2.8717  1.9315  0.9145
  398SOL    HW2 1591   0.626   2.615   0.669 -0.5812  2.6800  1.6332
  398SOL     MW 1592   0.584   2.688   0.653  0.5799  0.8124  0.2332
  399SOL     OW 1593   0.227   2.090   0.289 -0.1080  0.1852 -0.2616
  399SOL    HW1 1594   0.154   2.152   0.298  1.1293  1.4549 -0.3964
  399SOL    HW2 1595   0.263   2.107   0.207 -1.9432 -0.4745  0.5838
  399SOL     MW 1596   0.222   2.100   0.280 -0.1869  0.2657 -0.1678
  400SOL     OW 1597   0.547   1.930   0.069  0.1312  0.1756 -0.4404
  400SOL    HW1 1598   0.488   2.006   0.051 -2.9503  1.0490 -0.0910
  400SOL    HW2 1599   0.529   1.893   0.155  1.8069  1.2458  1.3637
  400SOL     MW 1600   0.537   1.935   0.078 -0.0543  0.4321 -0.1563
  401SOL     OW 1601   0.789   2.048   0.068  0.5840  0.3193  0.3803
  401SOL    HW1 1602   0.855   1.979   0.084 -2.2227 -0.1591 -0.8150
  401SOL    HW2 1603   0.699   2.008   0.067  0.3244 -1.0530  0.4774
  401SOL     MW 1604   0.786   2.034   0.070  0.1794  0.0751  0.2354
  402SOL     OW 1605   0.589   2.960   1.751 -0.6780  0.6437 -0.0631
  402SOL    HW1 1606   0.660   2.920   1.796 -1.3902 -2.7132  1.3041
  402SOL    HW2 1607   0.618   3.050   1.729  0.0820  0.4364  2.2790
  402SOL     MW 1608   0.602   2.967   1.754 -0.6717  0.1734  0.4263
  403SOL     OW 1609   0.076   0.417   0.400 -0.0769  0.2870  0.0841
  403SOL    HW1 1610   0.157   0.445   0.442 -1.8523  1.6972 -0.9717
  403SOL    HW2 1611   0.096   0.421   0.305 -1.8612  0.5127 -1.8922
  403SOL     MW 1612   0.090   0.422   0.393 -0.5466  0.5028 -0.3160
  404SOL     OW 1613   0.948   2.906   0.727  0.1967  0.2585 -0.4064
  404SOL    HW1 1614   1.017   2.840   0.704  2.7066  0.4972 -0.2323
  404SOL    HW2 1615   0.988   2.996   0.711  0.7120  0.9018 -0.1235
  404SOL     MW 1616   0.962   2.909   0.722  0.5959  0.3749 -0.3461
  405SOL     OW 1617   0.563   2.412   1.533 -0.0267 -0.3764 -0.3348
  405SOL    HW1 1618   0.552   2.504   1.503 -1.5505  1.3331  2.4567
  405SOL    HW2 1619   0.507   2.356   1.484 -0.0441 -0.9400 -0.5075
  405SOL     MW 1620   0.554   2.417   1.522 -0.2300 -0.2252  0.0108
  406SOL     OW 1621   0.322   2.414   1.083  0.1509 -0.0809  0.4982
  406SOL    HW1 1622   0.226   2.418   1.110 -1.8482 -0.4331 -1.7710
  406SOL    HW2 1623   0.351   2.325   1.107  0.2939  0.3502  1.6150
  406SOL     MW 1624   0.313   2.403   1.089 -0.0940 -0.0705  0.3462
  407SOL     OW 1625   0.023   2.715   1.143  0.4536 -0.1517  0.1713
  407SOL    HW1 1626   0.105   2.694   1.199  2.2786  0.6922  1.7843
  407SOL    HW2 1627   0.061   2.726   1.054 -1.0826  1.2687 -0.4247
  407SOL     MW 1628   0.038   2.714   1.139  0.4917  0.1471  0.3055
  408SOL     OW 1629   2.142   2.147   0.588 -0.2834 -0.1657 -0.5221
  408SOL    HW1 1630   2.132   2.189   0.671 -0.1166 -1.5902  0.7541
  408SOL    HW2 1631   2.074   2.076   0.586 -1.6301 -0.7402 -3.3219
  408SOL     MW 1632   2.132   2.143   0.598 -0.4391 -0.4295 -0.7231
  409SOL     OW 1633   1.477   0.152   0.961 -0.6011  0.0863 -0.2337
  409SOL    HW1 1634   1.566   0.184   0.966 -0.4188 -1.2525  1.4142
  409SOL    HW2 1635   1.489   0.058   0.986  2.2897  0.3223  1.8288
  409SOL     MW 1636   1.490   0.144   0.965 -0.1957 -0.0592  0.2558
  410SOL     OW 1637   1.096   2.432   1.143  0.1751 -0.3556  0.0766
  410SOL    HW1 1638   1.021   2.461   1.083  2.7314  1.7834 -1.1749
  410SOL    HW2 1639   1.152   2.376   1.094 -0.0773  0.5813  1.7309
  410SOL     MW 1640   1.093   2.428   1.129  0.4791  0.0503  0.1297
  411SOL     OW 1641   1.935   0.054   2.878 -0.7473 -0.8498  0.4482
  411SOL    HW1 1642   1.889   0.003   2.812  0.2532 -0.0177 -1.2746
  411SOL    HW2 1643   1.881   0.061   2.955  1.6512 -0.4218  1.3965
  411SOL     MW 1644   1.922   0.048   2.880 -0.2988 -0.6835  0.3460
  412SOL     OW 1645   1.044   2.237   0.555 -0.1237 -0.5183  0.2996
  412SOL    HW1 1646   1.085   2.315   0.593  0.3079 -1.2712 -2.2604
  412SOL    HW2 1647   0.960   2.257   0.525  2.1310 -1.1866 -1.4878
  412SOL     MW 1648   1.038   2.250   0.556  0.2307 -0.7058 -0.2740
  413SOL     OW 1649   0.544   2.732   3.063 -0.1133  0.1682  0.2674
  413SOL    HW1 1650   0.601   2.652   3.062  0.8957  2.1429  1.4788
  413SOL    HW2 1651   0.564   2.787   2.989  0.8706  1.7237 -2.8992
  413SOL     MW 1652   0.555   2.728   3.053  0.1496  0.6340  0.0094
  414SOL     OW 1653   1.978   2.992   1.139  0.6851  0.6073  0.5110
  414SOL    HW1 1654   1.893   3.041   1.122 -2.5718  1.4879  0.0098
  414SOL    HW2 1655   2.027   3.007   1.055 -0.8763 -2.2637 -1.3669
  414SOL     MW 1656   1.973   3.001   1.126  0.0494  0.3447  0.1971
  415SOL     OW 1657   1.815   2.716   1.085 -0.5878  0.6135  0.7719
  415SOL    HW1 1658   1.805   2.693   1.176 -1.9685 -0.7831  0.3535
  415SOL    HW2 1659   1.870   2.794   1.075  1.3719  1.2165  2.6512
  415SOL     MW 1660   1.821   2.723   1.095 -0.5114  0.5088  0.9646
  416SOL     OW 1661   0.556   1.989   1.336 -0.4702  0.3040  0.0613
  416SOL    HW1 1662   0.500   2.056   1.295 -0.6507  2.2385 -0.3199
  416SOL    HW2 1663   0.528   1.917   1.277 -2.6217  0.1950 -3.8810
  416SOL     MW 1664   0.545   1.988   1.323 -0.7779  0.5449 -0.5091
  417SOL     OW 1665   0.991   3.003   2.059  0.1791 -0.1722  0.1025
  417SOL    HW1 1666   0.927   2.977   2.131  0.7891  0.4091 -0.1352
  417SOL    HW2 1667   0.943   2.962   1.989 -0.3363  1.0803 -1.6447
  417SOL     MW 1668   0.976   2.994   2.059  0.1916  0.0698 -0.1594
  418SOL     OW 1669   0.660   2.923   0.132  0.4039 -0.2678  0.5288
  418SOL    HW1 1670   0.751   2.911   0.096  1.3552  1.2149  0.9103
  418SOL    HW2 1671   0.615   2.845   0.092 -1.0150 -0.1488  1.2021
  418SOL     MW 1672   0.666   2.911   0.122  0.3422 -0.0565  0.6680
  419SOL     OW 1673   0.484   2.630   1.319  0.0568 -0.2898 -0.3272
  419SOL    HW1 1674   0.532   2.699   1.365  1.3868  0.6403 -1.6108
  419SOL    HW2 1675   0.512   2.635   1.227  1.5888  4.8139 -0.1317
  419SOL     MW 1676   0.494   2.640   1.313  0.4344  0.5063 -0.4708
  420SOL     OW 1677   0.827   2.211   1.041 -0.7981  0.0635  0.1242
  420SOL    HW1 1678   0.779   2.223   1.122  0.4058 -1.0328  0.8807
  420SOL    HW2 1679   0.857   2.294   1.016 -1.1029  0.3850  0.1637
  420SOL     MW 1680   0.824   2.224   1.048 -0.6795 -0.0387  0.2292
  421SOL     OW 1681   2.986   0.202   3.050  0.2867 -0.2592  0.1522
  421SOL    HW1 1682   2.911   0.202   2.985 -1.6967 -1.5758 -0.0311
  421SOL    HW2 1683   3.004   0.110   3.059 -0.8724  0.3624 -3.3493
  421SOL     MW 1684   2.978   0.190   3.043 -0.1279 -0.3509 -0.3339
  422SOL     OW 1685   0.883   2.498   0.940 -0.3474 -0.8210  0.4069
  422SOL    HW1 1686   0.895   2.594   0.964 -0.2170  1.7239  0.4325
  422SOL    HW2 1687   0.867   2.497   0.846  1.3392 -0.6591  1.4484
  422SOL     MW 1688   0.883   2.511   0.931 -0.1077 -0.4639  0.5477
  423SOL     OW 1689   1.442   0.091   0.482  0.2675 -0.3340  0.4050
  423SOL    HW1 1690   1.453   0.074   0.390  4.0757 -0.8384  0.5875
  423SOL    HW2 1691   1.463   0.178   0.491 -2.7479 -3.0368  0.9555
  423SOL     MW 1692   1.446   0.100   0.471  0.3721 -0.7571  0.5017
  424SOL     OW 1693   0.667   2.305   1.256 -0.3587 -0.3163  0.2993
  424SOL    HW1 1694   0.592   2.249   1.232  5.3971 -2.4576 -0.6462
  424SOL    HW2 1695   0.697   2.269   1.338 -1.0188  2.1456  1.1218
  424SOL     MW 1696   0.661   2.293   1.264  0.3136 -0.2740  0.2830
  425SOL     OW 1697   1.716   2.778   2.043  0.0944 -0.3908  0.4209
  425SOL    HW1 1698   1.720   2.782   1.939 -3.2396 -0.1940  0.3139
  425SOL    HW2 1699   1.740   2.688   2.071 -2.8135 -1.2802  3.5053
  425SOL     MW 1700   1.720   2.767   2.033 -0.7292 -0.4822  0.8138
  426SOL     OW 1701   0.840   1.663   1.954  0.1319  0.1968  0.3270
  426SOL    HW1 1702   0.793   1.685   1.874  3.6436 -0.5207  1.6164
  426SOL    HW2 1703   0.814   1.740   2.003  0.7676  0.7833 -1.3701
  426SOL     MW 1704   0.830   1.676   1.950  0.6791  0.1795  0.2732
  427SOL     OW 1705   0.387   1.670   1.864 -0.3375  0.2236 -0.4842
  427SOL    HW1 1706   0.443   1.627   1.796 -0.1835 -0.3861  2.3845
  427SOL    HW2 1707   0.322   1.607   1.904 -1.9643 -0.1092  0.7698
  427SOL     MW 1708   0.386   1.656   1.860 -0.5318  0.0993  0.0597
  428SOL     OW 1709   0.552   2.553   1.014 -0.0346  0.2744 -0.2557
  428SOL    HW1 1710   0.637   2.514   1.007 -2.2069  1.3673 -1.8406
  428SOL    HW2 1711   0.485   2.490   1.055 -1.5101 -0.7895 -0.8125
  428SOL     MW 1712   0.554   2.540   1.018 -0.5159  0.2782 -0.5383
  429SOL     OW 1713   1.251   2.814   1.136 -0.2352  0.1244  0.1915
  429SOL    HW1 1714   1.157   2.809   1.138 -0.8466  1.7323 -0.7372
  429SOL    HW2 1715   1.274   2.850   1.051  3.1318 -0.1714  0.7779
  429SOL     MW 1716   1.242   2.818   1.125  0.1284  0.2975  0.1463
  430SOL     OW 1717   1.158   2.731   0.716 -0.0258  0.5222  0.1524
  430SOL    HW1 1718   1.151   2.636   0.724 -0.5579 -0.9779 -1.9914
  430SOL    HW2 1719   1.122   2.730   0.631 -0.5166  0.2226 -1.4646
  430SOL     MW 1720   1.152   2.718   0.706 -0.1607  0.2848 -0.3438
  431SOL     OW 1721   0.325   1.964   1.019 -0.5261  0.4503  0.2106
  431SOL    HW1 1722   0.402   1.920   0.993 -0.6550 -0.1430 -0.5392
  431SOL    HW2 1723   0.272   1.985   0.940 -0.0754 -0.4631  2.6933
  431SOL     MW 1724   0.328   1.961   1.005 -0.4836  0.2515  0.4393
  432SOL     OW 1725   0.076   0.051   1.191  0.1075  0.3088 -0.0503
  432SOL    HW1 1726   0.077   0.123   1.253 -2.6583 -2.5113  1.2223
  432SOL    HW2 1727   0.010  -0.010   1.219  1.7031  0.8018 -0.4796
  432SOL     MW 1728   0.068   0.052   1.203 -0.0469  0.0018  0.0609
  433SOL     OW 1729   0.615   2.812   1.498  0.0469  0.1623 -0.2125
  433SOL    HW1 1730   0.600   2.835   1.589 -0.7373 -1.7677 -2.2022
  433SOL    HW2 1731   0.711   2.842   1.488 -0.2065  3.5775 -1.3856
  433SOL     MW 1732   0.626   2.819   1.508 -0.0900  0.3582 -0.6298
  434SOL     OW 1733   1.589   2.764   1.528 -0.6172 -0.6544  0.0503
  434SOL    HW1 1734   1.500   2.802   1.540 -1.7605 -1.5290 -0.8353
  434SOL    HW2 1735   1.593   2.748   1.432 -0.4214 -0.6044  0.2665
  434SOL     MW 1736   1.578   2.767   1.517 -0.7422 -0.7632 -0.0380
  435SOL     OW 1737   2.819   1.800   0.186 -0.1771  0.1016  0.4495
  435SOL    HW1 1738   2.891   1.862   0.160 -1.7147  2.1450  0.6722
  435SOL    HW2 1739   2.763   1.779   0.102 -0.3201  0.6680  1.9370
  435SOL     MW 1740   2.821   1.806   0.172 -0.3989  0.4460  0.6751
  436SOL     OW 1741   1.394   2.679   0.420 -0.5642 -0.1019 -0.4412
  436SOL    HW1 1742   1.451   2.675   0.499  1.4615  1.1894 -0.0749
  436SOL    HW2 1743   1.354   2.761   0.409  0.4980 -2.2671  0.1136
  436SOL     MW 1744   1.396   2.690   0.429 -0.1568 -0.2172 -0.3197
  437SOL     OW 1745   0.895   3.009   1.343  0.5229  0.2151 -0.3449
  437SOL    HW1 1746   0.968   3.062   1.308 -1.5600  0.5866 -1.8508
  437SOL    HW2 1747   0.922   2.926   1.301  2.0617 -0.0753  1.5797
  437SOL     MW 1748   0.908   3.005   1.333  0.4511  0.2258 -0.2897
  438SOL     OW 1749   0.806   2.591   1.879 -0.0907 -0.5905  1.2427
  438SOL    HW1 1750   0.843   2.566   1.966 -0.1154  2.3770  1.3365
  438SOL    HW2 1751   0.766   2.514   1.841 -0.0034  2.5598  1.4221
  438SOL     MW 1752   0.806   2.578   1.886 -0.0825  0.2167  1.2788
  439SOL     OW 1753   1.239   2.110   0.410 -0.0054 -0.2302  0.2585
  439SOL    HW1 1754   1.174   2.133   0.476  1.1190 -2.1937 -0.8783
  439SOL    HW2 1755   1.215   2.167   0.336  0.5595  1.3712  0.2479
  439SOL     MW 1756   1.227   2.121   0.409  0.2175 -0.2780  0.1071
  440SOL     OW 1757   1.741   3.002   3.066 -0.3148 -0.3505 -0.2067
  440SOL    HW1 1758   1.687   2.936   3.119 -0.0018 -0.3084  3.5256
  440SOL    HW2 1759   1.827   2.968   3.083 -0.1799 -1.3593 -0.2792
  440SOL     MW 1760   1.745   2.989   3.075 -0.2557 -0.4781  0.2762
  441SOL     OW 1761   0.353   2.661   0.499  0.3870  0.4898  0.4979
  441SOL    HW1 1762   0.345   2.608   0.417  2.6546 -0.5972 -1.9007
  441SOL    HW2 1763   0.377   2.743   0.457 -0.6853 -0.5161  1.1822
  441SOL     MW 1764   0.355   2.665   0.482  0.5447  0.2137  0.2717
  442SOL     OW 1765   3.071   2.377   0.614 -0.8180 -0.7153 -0.7050
  442SOL    HW1 1766   3.084   2.474   0.587  0.3567  1.8626 -0.9662
  442SOL    HW2 1767   2.987   2.379   0.656  0.4393  0.3713 -0.9880
  442SOL     MW 1768   3.062   2.390   0.616 -0.4971 -0.2318 -0.7768
  443SOL     OW 1769   1.455   1.757   1.950  0.4618 -0.4460  0.4467
  443SOL    HW1 1770   1.416   1.793   1.869  4.9126  0.9506 -1.2472
  443SOL    HW2 1771   1.390   1.692   1.967 -1.7382  0.3377  0.1281
  443SOL     MW 1772   1.441   1.753   1.941  0.7587 -0.1584  0.1812
  444SOL     OW 1773   0.863   2.565   1.579  0.6287 -0.3498  0.0667
  444SOL    HW1 1774   0.935   2.554   1.637  0.1060  2.0603 -0.9290
  444SOL    HW2 1775   0.784   2.538   1.623 -0.0035  0.9937 -0.3756
  444SOL     MW 1776   0.862   2.560   1.592  0.4763  0.1454 -0.1231
  445SOL     OW 1777   1.103   0.068   1.319  0.2922 -0.6589  0.1640
  445SOL    HW1 1778   1.049   0.145   1.346 -1.5436 -0.2884 -0.1336
  445SOL    HW2 1779   1.142   0.076   1.235  0.9382  2.8647  1.6920
  445SOL     MW 1780   1.101   0.079   1.311  0.1352 -0.1451  0.3263
  446SOL     OW 1781   2.763   2.878   1.098  0.1836 -0.3077 -0.1244
  446SOL    HW1 1782   2.706   2.916   1.034  0.0749 -2.4687  1.4324
  446SOL    HW2 1783   2.812   2.815   1.046  0.7252  0.0231 -1.5219
  446SOL     MW 1784   2.762   2.875   1.083  0.2407 -0.5492 -0.1034
  447SOL     OW 1785   0.043   1.995   1.644 -0.7831  0.0796  0.0176
  447SOL    HW1 1786   0.068   1.913   1.692  1.2730  0.3533 -1.0700
  447SOL    HW2 1787  -0.018   1.973   1.568 -0.1632  0.4988 -0.5525
  447SOL     MW 1788   0.038   1.981   1.640 -0.4300  0.1710 -0.2011
  448SOL     OW 1789   1.719   2.406   1.658  0.4427 -0.2339  0.6306
  448SOL    HW1 1790   1.674   2.316   1.655 -0.1242  1.1279  0.1052
  448SOL    HW2 1791   1.647   2.466   1.662  1.0901 -2.7357 -1.6451
  448SOL     MW 1792   1.704   2.402   1.658  0.4533 -0.3843  0.2610
  449SOL     OW 1793   0.835   2.893   0.361  0.6433 -0.0718  0.0368
  449SOL    HW1 1794   0.769   2.890   0.289 -3.0076  1.6826 -0.0799
  449SOL    HW2 1795   0.796   2.920   0.447  1.4563 -2.0933 -0.9200
  449SOL     MW 1796   0.821   2.896   0.363  0.2688 -0.1070 -0.1048
  450SOL     OW 1797   1.182   2.433   0.719 -0.2207 -0.2758 -0.0564
  450SOL    HW1 1798   1.192   2.408   0.814 -0.6045  2.9862  2.3813
  450SOL    HW2 1799   1.266   2.439   0.677  1.1904  0.4053  0.0458
  450SOL     MW 1800   1.195   2.430   0.726 -0.0852  0.2444  0.2787
  451SOL     OW 1801   0.552   2.027   1.642  0.1893 -0.5015  0.0705
  451SOL    HW1 1802   0.558   2.120   1.635  0.7544 -2.5137  0.9901
  451SOL    HW2 1803   0.532   1.992   1.554 -0.0924 -0.9032  2.4068
  451SOL     MW 1804   0.550   2.034   1.629  0.2267 -0.8200  0.5001
  452SOL     OW 1805   0.277   2.670   0.052 -0.2445 -0.2980 -0.0631
  452SOL    HW1 1806   0.356   2.666   0.005  0.2803  0.9158  0.6257
  452SOL    HW2 1807   0.232   2.728  -0.002  0.2605  3.1316  2.9909
  452SOL     MW 1808   0.282   2.677   0.038 -0.1086  0.3147  0.4307
  453SOL     OW 1809   0.336   2.985   1.604  0.2607  0.3430  0.0361
  453SOL    HW1 1810   0.404   2.945   1.662 -0.5909 -1.1257 -2.4661
  453SOL    HW2 1811   0.388   3.002   1.521  0.7555  0.4976  0.5181
  453SOL     MW 1812   0.351   2.982   1.600  0.2136  0.1696 -0.2305
  454SOL     OW 1813   0.974   2.771   1.217  0.0859  0.6122 -0.2387
  454SOL    HW1 1814   0.919   2.690   1.230  1.1645 -0.6161 -2.6398
  454SOL    HW2 1815   0.939   2.794   1.127  2.5906  3.9758 -2.8357
  454SOL     MW 1816   0.962   2.763   1.207  0.5587  0.8939 -0.8981
  455SOL     OW 1817   1.607   2.867   0.155 -0.1972 -0.3260 -0.1037
  455SOL    HW1 1818   1.667   2.882   0.231  1.9035 -1.1296 -0.0729
  455SOL    HW2 1819   1.570   2.779   0.155 -1.0458  0.0065  1.0893
  455SOL     MW 1820   1.610   2.858   0.165 -0.0320 -0.3882  0.0578
  456SOL     OW 1821   2.731   0.356   1.520  0.1621 -0.4164  0.5524
  456SOL    HW1 1822   2.698   0.278   1.469 -1.9530 -4.0035 -0.3183
  456SOL    HW2 1823   2.813   0.380   1.490 -1.4583 -2.6023  1.9411
  456SOL     MW 1824   2.738   0.349   1.509 -0.3308 -1.1781  0.6208
  457SOL     OW 1825   0.902   1.580   3.017 -0.2853  0.6755  0.8264
  457SOL    HW1 1826   0.803   1.565   3.031 -1.0498 -3.2585 -3.2869
  457SOL    HW2 1827   0.948   1.543   3.088 -1.7288  0.0558  1.6775
  457SOL     MW 1828   0.895   1.573   3.029 -0.5766  0.0747  0.3960
  458SOL     OW 1829   1.371   1.477   0.566  0.0245 -0.0430  0.0195
  458SOL    HW1 1830   1.314   1.555   0.555 -0.4296 -1.8227  1.2790
  458SOL    HW2 1831   1.362   1.425   0.484 -1.2099 -0.5246 -0.3438
  458SOL     MW 1832   1.362   1.481   0.554 -0.1983 -0.3413  0.1377
  459SOL     OW 1833   1.482   0.027   0.213  0.0804  0.0500  0.3702
  459SOL    HW1 1834   1.496  -0.069   0.208  1.4203 -0.0396  1.3035
  459SOL    HW2 1835   1.421   0.045   0.142 -2.0539 -1.5778  0.6253
  459SOL     MW 1836   1.475   0.016   0.203 -0.0244 -0.1766  0.5270
  460SOL     OW 1837   1.767   2.128   0.617  0.5643  0.3407  0.2014
  460SOL    HW1 1838   1.697   2.089   0.673  0.4783  0.5227  1.6392
  460SOL    HW2 1839   1.828   2.060   0.589 -1.1241  0.8554 -1.8615
  460SOL     MW 1840   1.766   2.114   0.621  0.3302  0.4327  0.1189
  461SOL     OW 1841   0.393   2.390   0.557  0.7083  0.0327 -0.4371
  461SOL    HW1 1842   0.370   2.479   0.538 -2.2798  2.2045  1.7863
  461SOL    HW2 1843   0.362   2.384   0.649 -1.4306 -1.5956  0.8298
  461SOL     MW 1844   0.386   2.401   0.567  0.0319  0.1044  0.0234
  462SOL     OW 1845   0.320   0.257   1.288  0.1753 -0.1461 -0.6700
  462SOL    HW1 1846   0.362   0.222   1.211 -0.8899  0.2994  1.7647
  462SOL    HW2 1847   0.399   0.262   1.345 -0.1261 -1.8478  1.9132
  462SOL     MW 1848   0.336   0.253   1.285 -0.0050 -0.3118 -0.0079
  463SOL     OW 1849   0.986   0.089   0.682 -0.4630  0.3412 -0.2536
  463SOL    HW1 1850   1.023   0.099   0.596 -0.3601 -1.4023 -0.6827
  463SOL    HW2 1851   0.890   0.098   0.663  2.1510  0.9590 -1.7248
  463SOL     MW 1852   0.978   0.091   0.668 -0.1045  0.1927 -0.5043
  464SOL     OW 1853   0.780   3.076   2.269 -0.5242 -0.2118 -0.3243
  464SOL    HW1 1854   0.765   2.985   2.252  0.6193  0.1823  1.2203
  464SOL    HW2 1855   0.775   3.079   2.363  0.3471 -0.7400 -2.4585
  464SOL     MW 1856   0.778   3.064   2.279 -0.2584 -0.2295 -0.4021
  465SOL     OW 1857   0.813   0.288   0.482  1.6291 -0.4633 -0.3841
  465SOL    HW1 1858   0.766   0.222   0.542 -0.4553  0.7446 -1.0042
  465SOL    HW2 1859   0.787   0.270   0.387  2.3440  0.4532  0.2327
  465SOL     MW 1860   0.803   0.277   0.477  1.4484 -0.1830 -0.3845
  466SOL     OW 1861   1.007   2.033   0.712 -0.5533  0.4073  0.2120
  466SOL    HW1 1862   1.012   1.954   0.658 -1.1003 -1.3614  1.3705
  466SOL    HW2 1863   1.034   2.108   0.655  0.1574 -0.5126  0.3477
  466SOL     MW 1864   1.011   2.032   0.697 -0.5317  0.0526  0.3827
  467SOL     OW 1865   1.222   2.286   0.937  0.2397  0.3859  0.3365
  467SOL    HW1 1866   1.317   2.295   0.952  1.2901  0.0909 -1.6996
  467SOL    HW2 1867   1.204   2.195   0.911 -0.8642 -1.2773 -0.9481
  467SOL     MW 1868   1.232   2.275   0.935  0.2326  0.1275 -0.1016
  468SOL     OW 1869   0.406   2.636   2.002  0.6977  0.0975 -0.2352
  468SOL    HW1 1870   0.410   2.591   1.918 -2.1331  0.7855  0.9440
  468SOL    HW2 1871   0.321   2.667   2.007  1.3798  1.3471 -2.8867
  468SOL     MW 1872   0.395   2.634   1.992  0.4142  0.3531 -0.4295
  469SOL     OW 1873   0.376   2.153   1.841  0.0741 -0.3499  0.4798
  469SOL    HW1 1874   0.312   2.084   1.866  0.2073 -2.0298  0.7470
  469SOL    HW2 1875   0.447   2.104   1.798 -1.0835  1.2216  2.6813
  469SOL     MW 1876   0.377   2.138   1.838 -0.0610 -0.3642  0.8056
  470SOL     OW 1877   3.023   2.618   0.130 -0.0642 -0.5659  0.0876
  470SOL    HW1 1878   2.933   2.595   0.158 -2.4992 -2.0926  1.2679
  470SOL    HW2 1879   3.021   2.638   0.034 -0.1136  1.0778  0.7872
  470SOL     MW 1880   3.011   2.618   0.121 -0.3920 -0.5505  0.3356
  471SOL     OW 1881   1.181   2.665   1.448 -0.3454 -0.4534 -0.1043
  471SOL    HW1 1882   1.134   2.635   1.521  1.1997  0.5524  0.6196
  471SOL    HW2 1883   1.143   2.633   1.364  0.3965  0.5551 -1.3264
  471SOL     MW 1884   1.170   2.657   1.446 -0.0436 -0.1876 -0.1700
  472SOL     OW 1885   2.842   2.123   0.329 -0.3665  0.5815  0.2510
  472SOL    HW1 1886   2.876   2.085   0.241 -1.8499 -2.1651  0.8888
  472SOL    HW2 1887   2.809   2.039   0.366 -2.8358  0.3527  0.3734
  472SOL     MW 1888   2.842   2.107   0.322 -0.8880  0.1889  0.3513
  473SOL     OW 1889   0.822   2.532   1.271 -0.7796 -0.4991  0.3119
  473SOL    HW1 1890   0.747   2.474   1.287  1.6735  0.1561  3.3327
  473SOL    HW2 1891   0.893   2.500   1.327  0.1998  1.0634  1.9719
  473SOL     MW 1892   0.821   2.520   1.280 -0.3267 -0.2065  0.9295
  474SOL     OW 1893   0.865   2.079   1.805 -0.1060 -0.0847 -0.0633
  474SOL    HW1 1894   0.948   2.120   1.820  0.6724 -0.5897  2.0081
  474SOL    HW2 1895   0.837   2.100   1.716 -3.8517 -0.7903  1.0802
  474SOL     MW 1896   0.872   2.087   1.795 -0.4975 -0.2444  0.3609
  475SOL     OW 1897   1.645   3.067   1.445  0.3988  0.2573  0.2098
  475SOL    HW1 1898   1.561   3.059   1.395 -1.2482  0.0978 -1.3643
  475SOL    HW2 1899   1.656   2.986   1.498  0.2869 -1.5157 -0.3950
  475SOL     MW 1900   1.635   3.055   1.445  0.1667  0.0023 -0.0777
  476SOL     OW 1901   1.430   2.608   1.031 -0.3050  0.4315  0.0890
  476SOL    HW1 1902   1.340   2.638   1.056  1.2661  0.1242  1.7373
  476SOL    HW2 1903   1.461   2.666   0.965  1.9890 -2.7891  0.1080
  476SOL     MW 1904   1.422   2.620   1.026  0.2050 -0.0340  0.3090
  477SOL     OW 1905   0.809   2.503   0.675 -0.1567 -0.4630 -0.2553
  477SOL    HW1 1906   0.872   2.547   0.616 -0.1468 -1.3837 -3.8047
  477SOL    HW2 1907   0.778   2.424   0.627  0.8152 -1.8032  0.0875
  477SOL     MW 1908   0.813   2.498   0.661 -0.0272 -0.7613 -0.6784
  478SOL     OW 1909   0.181   2.684   0.925 -0.1622 -0.8734 -0.1453
  478SOL    HW1 1910   0.227   2.757   0.901  0.6671  0.6604  1.2672
  478SOL    HW2 1911   0.217   2.609   0.883 -1.1511 -2.7627  0.2984
  478SOL     MW 1912   0.192   2.684   0.916 -0.1832 -0.9203  0.0996
  479SOL     OW 1913   1.464   1.987   1.241  0.2768 -0.2906 -0.1223
  479SOL    HW1 1914   1.448   2.003   1.333 -0.2490 -1.3594  0.6983
  479SOL    HW2 1915   1.503   1.896   1.236 -2.3423 -1.5087  0.0254
  479SOL     MW 1916   1.467   1.977   1.252 -0.1381 -0.5923  0.0055
  480SOL     OW 1917   1.887   2.417   1.259  0.7199 -0.3925  0.4232
  480SOL    HW1 1918   1.830   2.345   1.288  0.3064 -2.0820 -2.6395
  480SOL    HW2 1919   1.935   2.371   1.187  1.2353  1.8403 -3.2185
  480SOL     MW 1920   1.886   2.401   1.254  0.7334 -0.3208 -0.4614
  481SOL     OW 1921   1.016   0.010   0.983  0.2485 -0.0808  1.0528
  481SOL    HW1 1922   1.086  -0.053   0.961  0.9859 -0.9843 -0.0383
  481SOL    HW2 1923   1.066   0.090   0.987 -0.9427 -0.8190  0.4238
  481SOL     MW 1924   1.032   0.012   0.980  0.1886 -0.2974  0.8259
  482SOL     OW 1925   1.080   3.058   0.275  0.4434 -0.4973 -0.0734
  482SOL    HW1 1926   1.001   3.020   0.313  0.0297  1.6221  2.7638
  482SOL    HW2 1927   1.068   3.149   0.299 -1.3220 -0.0009  1.7567
  482SOL     MW 1928   1.068   3.065   0.283  0.1559 -0.1522  0.5424
  483SOL     OW 1929   0.422   2.949   0.435 -0.3847  0.8099 -0.2110
  483SOL    HW1 1930   0.343   2.944   0.374  0.5809 -1.4435 -1.8029
  483SOL    HW2 1931   0.400   3.007   0.510 -0.2797  2.5727 -0.8015
  483SOL     MW 1932   0.409   2.956   0.437 -0.2434  0.7452 -0.4990
  484SOL     OW 1933   1.766   1.892   1.442  0.6779  0.1218  0.8196
  484SOL    HW1 1934   1.770   1.988   1.433 -1.8255  0.4806  1.7149
  484SOL    HW2 1935   1.735   1.878   1.531  1.5186  1.6922  0.5833
  484SOL     MW 1936   1.762   1.903   1.453  0.4586  0.3764  0.9066
  485SOL     OW 1937   0.478   2.292   0.232 -0.3410 -0.6238  0.2697
  485SOL    HW1 1938   0.467   2.251   0.326 -2.1569  0.4335  2.9939
  485SOL    HW2 1939   0.446   2.382   0.245 -2.4609 -2.7099  2.2215
  485SOL     MW 1940   0.472   2.299   0.246 -0.8603 -0.7595  0.8866
  486SOL     OW 1941   0.164   2.400   1.529  0.5737  0.3502 -0.7699
  486SOL    HW1 1942   0.159   2.480   1.483  3.4453  0.3630  1.4750
  486SOL    HW2 1943   0.154   2.423   1.627  1.1679  3.2605 -0.0841
  486SOL     MW 1944   0.162   2.413   1.536  1.0309  0.7359 -0.3833
  487SOL     OW 1945   1.242   1.660   1.022 -1.0157 -0.0794  0.0090
  487SOL    HW1 1946   1.232   1.752   1.056 -0.7421  2.5597  1.4357
  487SOL    HW2 1947   1.331   1.653   0.972  0.8449 -2.4788 -2.2173
  487SOL     MW 1948   1.252   1.671   1.020 -0.7341 -0.0478 -0.0965
  488SOL     OW 1949   1.672   1.851   0.491 -0.8263 -0.2998 -0.4663
  488SOL    HW1 1950   1.746   1.873   0.430  2.1786 -0.0929 -1.8470
  488SOL    HW2 1951   1.602   1.922   0.485  2.2064 -0.2746 -0.4119
  488SOL     MW 1952   1.672   1.864   0.482 -0.0297 -0.2691 -0.6413
  489SOL     OW 1953   0.688   0.757   0.595  0.0512 -0.0803  0.0754
  489SOL    HW1 1954   0.737   0.678   0.557  0.5357  0.2647 -2.9573
  489SOL    HW2 1955   0.703   0.780   0.686 -0.7146 -0.0585 -0.6895
  489SOL     MW 1956   0.696   0.750   0.602  0.0140 -0.0319 -0.4256
  490SOL     OW 1957   1.490   2.046   0.466 -0.8230  0.3647 -0.1489
  490SOL    HW1 1958   1.535   2.131   0.471 -0.3246  0.9444 -0.1127
  490SOL    HW2 1959   1.394   2.065   0.449  1.1494 -2.4868  2.5674
  490SOL     MW 1960   1.483   2.060   0.465 -0.4970  0.0650  0.2143
  491SOL     OW 1961   1.300   2.916   0.401  0.5624  0.2704 -0.8204
  491SOL    HW1 1962   1.327   2.997   0.440  2.9051 -0.1565  0.7468
  491SOL    HW2 1963   1.238   2.937   0.329 -0.1747 -1.6048 -1.5399
  491SOL     MW 1964   1.296   2.929   0.397  0.7742 -0.0333 -0.7085
  492SOL     OW 1965   1.517   2.082   0.722 -0.3893 -0.1728  0.6165
  492SOL    HW1 1966   1.480   2.085   0.630 -0.7261 -0.2554 -0.9092
  492SOL    HW2 1967   1.438   2.081   0.774  0.9417 -1.7413 -2.1596
  492SOL     MW 1968   1.502   2.082   0.717 -0.2581 -0.3906  0.0489
  493SOL     OW 1969   0.213   2.994   0.276  0.2703  0.1978  0.1500
  493SOL    HW1 1970   0.178   3.062   0.333 -1.7410 -0.8662  1.3240
  493SOL    HW2 1971   0.225   3.038   0.189  1.6537 -1.3876 -0.6587
  493SOL     MW 1972   0.210   3.009   0.272  0.1874 -0.1518  0.1982
  494SOL     OW 1973   0.409   2.453   1.796 -0.2800 -0.0055 -0.0670
  494SOL    HW1 1974   0.428   2.372   1.847 -0.6454 -1.0163  0.7082
  494SOL    HW2 1975   0.468   2.452   1.713 -0.2558 -0.7001 -1.6497
  494SOL     MW 1976   0.419   2.442   1.792 -0.3250 -0.2305 -0.1736
  495SOL     OW 1977   2.925   1.675   2.594 -0.2582 -0.5574 -0.0581
  495SOL    HW1 1978   2.910   1.771   2.567 -0.4859  0.1761 -1.5359
  495SOL    HW2 1979   2.889   1.663   2.686  0.8954  0.6064 -1.9252
  495SOL     MW 1980   2.918   1.686   2.603 -0.1361 -0.3071 -0.4994
  496SOL     OW 1981   2.913   2.296   2.676 -0.1258  0.2440  0.3407
  496SOL    HW1 1982   2.950   2.212   2.698  1.7752  1.2961 -1.7341
  496SOL    HW2 1983   2.972   2.367   2.679  0.7902  0.1244  0.9963
  496SOL     MW 1984   2.925   2.295   2.679  0.2459  0.3670  0.1534
  497SOL     OW 1985   1.514   2.264   2.642 -0.7223 -0.2387 -0.0541
  497SOL    HW1 1986   1.469   2.262   2.556 -0.9118  0.2201  0.2576
  497SOL    HW2 1987   1.491   2.177   2.674  1.0670  0.8038  1.7922
  497SOL     MW 1988   1.505   2.252   2.635 -0.5112 -0.0406  0.2306
  498SOL     OW 1989   1.542   2.746   2.374 -0.1743  0.0175 -0.2758
  498SOL    HW1 1990   1.514   2.668   2.331 -1.7362 -0.6744 -1.6207
  498SOL    HW2 1991   1.626   2.726   2.423  1.6966 -1.3513 -1.7431
  498SOL     MW 1992   1.549   2.733   2.375 -0.1335 -0.2544 -0.6469
  499SOL     OW 1993   0.935   0.092   0.070 -0.2699 -0.2320  0.3142
  499SOL    HW1 1994   0.875   0.142   0.135 -0.2676  1.0716 -0.7508
  499SOL    HW2 1995   0.982   0.043   0.138 -0.0509  0.4548  3.7079
  499SOL     MW 1996   0.933   0.092   0.088 -0.2407  0.0306  0.6214
  500SOL     OW 1997   1.115   2.575   2.777 -0.1708  0.0183 -0.2003
  500SOL    HW1 1998   1.133   2.523   2.855 -0.4428 -0.1866 -0.8905
  500SOL    HW2 1999   1.041   2.623   2.816 -0.3052  1.0833 -1.9078
  500SOL     MW 2000   1.108   2.574   2.793 -0.2244  0.1318 -0.5166
  501SOL     OW 2001   1.754   2.261   0.022 -0.5307  0.3834 -0.0506
  501SOL    HW1 2002   1.759   2.321   0.092  4.2652 -3.5941  0.0244
  501SOL    HW2 2003   1.843   2.228   0.012  1.3238 -0.6908 -1.4061
  501SOL     MW 2004   1.767   2.264   0.030  0.3467 -0.2831 -0.2195
  502SOL     OW 2005   0.102   2.841   2.965  0.0384  0.1073  0.5366
  502SOL    HW1 2006   0.051   2.770   2.917  0.5762  0.8926 -0.5763
  502SOL    HW2 2007   0.171   2.861   2.902 -1.6136  2.6594  2.5768
  502SOL     MW 2008   0.105   2.835   2.950 -0.1086  0.5476  0.6590
  503SOL     OW 2009   1.130   2.715   2.120  0.2378  0.2304  0.0470
  503SOL    HW1 2010   1.168   2.698   2.034 -0.8859  0.8859  1.1824
  503SOL    HW2 2011   1.046   2.757   2.108 -1.4615  0.5742  3.0283
  503SOL     MW 2012   1.124   2.718   2.107 -0.1347  0.3623  0.5901
  504SOL     OW 2013   0.023   2.714   2.120  0.6008 -0.1062 -0.0331
  504SOL    HW1 2014   0.053   2.629   2.092  1.8067  0.8169  0.5461
  504SOL    HW2 2015  -0.069   2.727   2.091  1.7354  0.2016 -2.0499
  504SOL     MW 2016   0.015   2.704   2.112  0.9096  0.0562 -0.2228
  505SOL     OW 2017   1.747   2.669   2.831  0.9965  0.6033  0.8252
  505SOL    HW1 2018   1.772   2.673   2.737 -0.1579  1.1993 -1.0043
  505SOL    HW2 2019   1.665   2.726   2.837 -1.8799  1.1710 -0.2680
  505SOL     MW 2020   1.740   2.677   2.820  0.4647  0.7569  0.4396
  506SOL     OW 2021   1.585   3.081   2.847  0.2294 -0.2646 -0.2543
  506SOL    HW1 2022   1.628   3.050   2.929 -1.5012  2.0119  0.6537
  506SOL    HW2 2023   1.650   3.056   2.775  2.4235  0.6132  1.1322
  506SOL     MW 2024   1.599   3.074   2.848  0.2906  0.1516  0.0484
  507SOL     OW 2025   0.904   2.735   2.832 -0.2082  0.7231  0.6853
  507SOL    HW1 2026   0.918   2.794   2.755  0.0639  2.5503 -2.7659
  507SOL    HW2 2027   0.828   2.681   2.794  1.4240  2.2450  0.1462
  507SOL     MW 2028   0.896   2.736   2.817  0.0431  1.1650  0.1588
  508SOL     OW 2029   1.140   2.098   2.487  0.0213  0.3303  0.2905
  508SOL    HW1 2030   1.206   2.075   2.553  3.1679  0.5419 -0.5959
  508SOL    HW2 2031   1.103   2.181   2.521  3.4469 -2.7983 -1.9890
  508SOL     MW 2032   1.144   2.106   2.500  0.8884 -0.0546 -0.1272
  509SOL     OW 2033   0.678   2.595   2.719  0.5452 -0.5253  0.1200
  509SOL    HW1 2034   0.691   2.537   2.647  0.6838 -0.2963  0.7630
  509SOL    HW2 2035   0.587   2.590   2.734  0.0655  0.8628  0.1229
  509SOL     MW 2036   0.668   2.587   2.712  0.5002 -0.3119  0.2052
  510SOL     OW 2037   1.496   2.558   1.677 -0.2567 -0.6177  0.0624
  510SOL    HW1 2038   1.541   2.630   1.631 -0.5922  3.5453 -0.1309
  510SOL    HW2 2039   1.442   2.602   1.737 -0.3856  0.2668  1.2600
  510SOL     MW 2040   1.495   2.573   1.679 -0.3180  0.0483  0.1949
  511SOL     OW 2041   0.421   2.643   2.462  0.0648 -0.1074  0.0712
  511SOL    HW1 2042   0.503   2.580   2.462 -1.1593  0.6836 -0.2857
  511SOL    HW2 2043   0.441   2.696   2.381  0.5289  2.4015 -1.6695
  511SOL     MW 2044   0.434   2.642   2.452 -0.0354  0.3280 -0.2056
  512SOL     OW 2045   1.022   2.010   2.822  0.7957 -0.0073  0.0569
  512SOL    HW1 2046   0.937   2.042   2.853  1.4972  0.9820 -0.5906
  512SOL    HW2 2047   1.022   1.917   2.842  0.1847  0.3924  2.4139
  512SOL     MW 2048   1.011   2.002   2.829  0.8077  0.1760  0.2824
  513SOL     OW 2049   1.593   2.480   2.290 -0.3965  0.1286  0.2017
  513SOL    HW1 2050   1.657   2.506   2.221  1.8885  0.5392 -0.1887
  513SOL    HW2 2051   1.646   2.476   2.371 -3.1412 -0.2056  2.0069
  513SOL     MW 2052   1.608   2.483   2.292 -0.4572  0.1387  0.3883
  514SOL     OW 2053   0.293   2.460   2.637  0.0162 -0.3242  0.0808
  514SOL    HW1 2054   0.317   2.541   2.590 -1.0647 -1.7964 -0.2285
  514SOL    HW2 2055   0.341   2.479   2.723  1.5476 -0.8836  0.9096
  514SOL     MW 2056   0.302   2.473   2.642  0.0756 -0.5923  0.1493
  515SOL     OW 2057   1.140   2.026   1.994 -0.6337  0.8233 -0.5787
  515SOL    HW1 2058   1.133   2.100   1.934  1.6361  0.3823 -0.1960
  515SOL    HW2 2059   1.233   2.030   2.022 -0.1595  0.1825  2.7117
  515SOL     MW 2060   1.151   2.036   1.990 -0.2717  0.6806 -0.0941
  516SOL     OW 2061   1.445   2.520   0.008  0.1582 -0.4145  0.5948
  516SOL    HW1 2062   1.498   2.499  -0.069  0.0869 -0.1943  0.4864
  516SOL    HW2 2063   1.359   2.519  -0.027  1.5353 -2.7553  1.7789
  516SOL     MW 2064   1.441   2.517  -0.006  0.3305 -0.6943  0.7367
  517SOL     OW 2065   0.576   2.429   2.111  0.3784  0.0380  0.5370
  517SOL    HW1 2066   0.543   2.516   2.085 -2.2153 -0.9642 -1.2558
  517SOL    HW2 2067   0.489   2.372   2.105  1.5824 -0.6808 -0.1915
  517SOL     MW 2068   0.560   2.433   2.107  0.1950 -0.1891  0.2044
  518SOL     OW 2069   1.777   0.207   3.065  0.5571  0.5649 -0.0981
  518SOL    HW1 2070   1.714   0.273   3.041  2.3636 -3.6371 -2.0630
  518SOL    HW2 2071   1.753   0.178   3.155  0.3245  0.1697  0.0831
  518SOL     MW 2072   1.765   0.212   3.074  0.7648 -0.0417 -0.3334
  519SOL     OW 2073   0.729   2.363   1.765 -0.1246  0.4217 -0.2533
  519SOL    HW1 2074   0.804   2.305   1.769 -1.5187 -0.0442  1.1102
  519SOL    HW2 2075   0.711   2.347   1.672 -1.7840  1.3224 -2.2568
  519SOL     MW 2076   0.736   2.353   1.753 -0.5275  0.4791 -0.3377
  520SOL     OW 2077   1.284   2.109   2.958 -0.0068 -0.1629 -0.4666
  520SOL    HW1 2078   1.198   2.066   2.934 -2.3565  1.5578 -0.0685
  520SOL    HW2 2079   1.330   2.074   3.036  2.2430 -0.1621  0.8135
  520SOL     MW 2080   1.278   2.098   2.965 -0.0200  0.0643 -0.2452
  521SOL     OW 2081   1.713   2.001   2.190 -0.1211 -0.2328 -0.1142
  521SOL    HW1 2082   1.767   2.043   2.120 -2.1459  0.8739  1.9336
  521SOL    HW2 2083   1.670   1.928   2.147  1.3917 -1.3323  3.1170
  521SOL     MW 2084   1.714   1.997   2.175 -0.1886 -0.2319  0.5823
  522SOL     OW 2085   2.876   2.546   2.215 -0.5716  0.4979 -0.1489
  522SOL    HW1 2086   2.929   2.467   2.222 -0.1680 -0.4751  1.6510
  522SOL    HW2 2087   2.922   2.618   2.268  1.4050  1.1364  3.0984
  522SOL     MW 2088   2.889   2.545   2.223 -0.2575  0.4537  0.5170
  523SOL     OW 2089   0.923   1.535   2.189 -0.3268  0.1631 -0.5126
  523SOL    HW1 2090   0.878   1.577   2.116  1.5389  0.7362 -1.3943
  523SOL    HW2 2091   0.968   1.470   2.131  0.8772  2.7815 -0.8389
  523SOL     MW 2092   0.923   1.532   2.172  0.0782  0.5842 -0.6720
  524SOL     OW 2093   0.680   2.413   2.964  0.1058 -0.1628 -0.2167
  524SOL    HW1 2094   0.716   2.455   2.879  1.4742 -2.4098 -1.2053
  524SOL    HW2 2095   0.691   2.316   2.956 -3.8460 -0.5720 -0.1700
  524SOL     MW 2096   0.686   2.406   2.951 -0.2350 -0.5133 -0.3410
  525SOL     OW 2097   0.326   2.297   2.075  0.3249  0.1556 -0.3814
  525SOL    HW1 2098   0.299   2.238   2.142 -0.8528  0.2363 -3.9421
  525SOL    HW2 2099   0.340   2.245   2.001  1.5471  2.2938 -1.8636
  525SOL     MW 2100   0.324   2.282   2.074  0.3308  0.4484 -1.0467
  526SOL     OW 2101   0.656   2.095   2.006  0.4192  0.7678  0.2105
  526SOL    HW1 2102   0.721   2.113   1.940 -1.7916 -0.2726  0.1432
  526SOL    HW2 2103   0.657   2.153   2.080 -2.4749  0.3506 -2.6024
  526SOL     MW 2104   0.664   2.105   2.007 -0.2543  0.5755 -0.1695
  527SOL     OW 2105   1.423   2.028   2.069  0.4615  0.2718  0.1558
  527SOL    HW1 2106   1.397   2.027   2.160 -0.0315 -2.0089 -1.2367
  527SOL    HW2 2107   1.465   1.943   2.056  1.0658 -0.3885  2.3596
  527SOL     MW 2108   1.425   2.017   2.079  0.4762 -0.1162  0.2628
  528SOL     OW 2109   0.651   2.891   2.892 -0.3991 -0.0686  0.5765
  528SOL    HW1 2110   0.688   2.972   2.927 -1.4944  0.1066  1.3314
  528SOL    HW2 2111   0.581   2.919   2.837  0.7047 -0.3283  0.6865
  528SOL     MW 2112   0.646   2.906   2.889 -0.3980 -0.0798  0.6906
  529SOL     OW 2113   1.073   2.276   1.854 -0.3919  0.6586 -0.1058
  529SOL    HW1 2114   1.056   2.312   1.938  0.4003 -0.4410  1.6951
  529SOL    HW2 2115   1.079   2.336   1.775 -0.0594  1.3946 -3.8492
  529SOL     MW 2116   1.072   2.289   1.854 -0.2435  0.6107 -0.3621
  530SOL     OW 2117   1.181   2.405   3.020  0.0119 -0.3564  0.1344
  530SOL    HW1 2118   1.137   2.441   3.101  2.5412  0.6665 -0.0238
  530SOL    HW2 2119   1.215   2.320   3.043  2.1775  0.8814 -0.1141
  530SOL     MW 2120   1.180   2.399   3.033  0.6313 -0.0582  0.0807
  531SOL     OW 2121   0.901   1.874   2.565 -0.0414 -0.0004  0.4257
  531SOL    HW1 2122   0.931   1.947   2.611 -0.6257 -0.1121 -2.8104
  531SOL    HW2 2123   0.893   1.803   2.633  1.4234 -0.4157  2.8085
  531SOL     MW 2124   0.904   1.875   2.580  0.0748 -0.0699  0.3131
  532SOL     OW 2125   1.720   0.311   2.805 -0.3070 -0.0580  0.0546
  532SOL    HW1 2126   1.748   0.233   2.853 -0.4293 -1.3217  0.4206
  532SOL    HW2 2127   1.803   0.360   2.808  0.9026  0.6410  1.5261
  532SOL     MW 2128   1.735   0.307   2.812 -0.1635 -0.1325  0.2970
  533SOL     OW 2129   1.908   2.623   3.067 -1.0286 -0.2229  0.0458
  533SOL    HW1 2130   1.856   2.579   3.141 -2.6457 -0.2583  1.6861
  533SOL    HW2 2131   1.844   2.617   2.995  0.4045  1.3997  2.4583
  533SOL     MW 2132   1.893   2.616   3.067 -1.0529 -0.0135  0.5805
  534SOL     OW 2133   1.730   2.409   2.535 -0.1708  0.0596  0.2856
  534SOL    HW1 2134   1.666   2.357   2.587 -0.4976 -0.7607  0.3376
  534SOL    HW2 2135   1.816   2.394   2.583  0.8966  1.4037  1.0616
  534SOL     MW 2136   1.733   2.400   2.548 -0.0731  0.1287  0.3948
  535SOL     OW 2137   1.926   2.397   1.856 -0.1901  0.2880  0.2061
  535SOL    HW1 2138   1.861   2.403   1.781 -1.4022  1.2676  0.2311
  535SOL    HW2 2139   2.012   2.427   1.825 -0.4910 -0.8082  1.0966
  535SOL     MW 2140   1.929   2.402   1.842 -0.3897  0.2726  0.3269
  536SOL     OW 2141   0.452   1.845   2.084 -0.3273 -0.2237  0.4110
  536SOL    HW1 2142   0.456   1.804   1.993 -0.1772  0.7811 -2.6101
  536SOL    HW2 2143   0.514   1.922   2.089 -0.6140  1.5262  2.8222
  536SOL     MW 2144   0.461   1.850   2.073 -0.3453  0.1397  0.3305
  537SOL     OW 2145   1.086   0.223   2.848  0.1709  0.3281 -0.0511
  537SOL    HW1 2146   1.043   0.278   2.918 -1.9197  2.3555 -0.8111
  537SOL    HW2 2147   1.070   0.255   2.762  1.1264 -1.0172  0.8651
  537SOL     MW 2148   1.078   0.235   2.846  0.0211  0.4181 -0.0305
  538SOL     OW 2149   1.332   0.074   3.085  0.0911  0.3403  0.2750
  538SOL    HW1 2150   1.328   0.166   3.078  1.5765 -0.3769  0.5512
  538SOL    HW2 2151   1.362   0.045   2.999  0.3553 -1.6652 -1.3336
  538SOL     MW 2152   1.335   0.082   3.073  0.3219 -0.0189  0.0992
  539SOL     OW 2153   0.695   2.793   2.477 -0.3608 -0.2219  0.1052
  539SOL    HW1 2154   0.776   2.838   2.509  0.9062 -0.0895 -0.3084
  539SOL    HW2 2155   0.703   2.709   2.524  1.5172 -0.0927  0.9166
  539SOL     MW 2156   0.707   2.788   2.487  0.0542 -0.1874  0.1577
  540SOL     OW 2157   0.408   2.501   2.897 -0.2575  0.1602  0.4554
  540SOL    HW1 2158   0.486   2.447   2.907 -0.6529 -0.0273  0.2640
  540SOL    HW2 2159   0.356   2.452   2.961 -0.0684 -0.6033 -2.2689
  540SOL     MW 2160   0.412   2.488   2.907 -0.2848  0.0347  0.0707
  541SOL     OW 2161   0.190   2.908   2.193  0.5080  0.4003 -0.1722
  541SOL    HW1 2162   0.137   2.838   2.157 -1.1756 -1.8448 -0.1435
  541SOL    HW2 2163   0.225   2.884   2.276  2.9570 -0.3471  0.0475
  541SOL     MW 2164   0.188   2.896   2.199  0.6090  0.0054 -0.1394
  542SOL     OW 2165   1.035   2.296   2.657  0.1223  0.0413  0.0341
  542SOL    HW1 2166   1.024   2.230   2.727  2.1258  0.6188 -0.1924
  542SOL    HW2 2167   1.084   2.367   2.696  0.1893  1.8170  0.7939
  542SOL     MW 2168   1.040   2.297   2.672  0.3955  0.3518  0.1044
  543SOL     OW 2169   1.592   2.442   2.880  0.9110 -0.0967  0.7219
  543SOL    HW1 2170   1.559   2.378   2.819  1.2778  1.0672  0.4324
  543SOL    HW2 2171   1.651   2.507   2.835 -1.6402 -0.1662 -3.6619
  543SOL     MW 2172   1.595   2.442   2.866  0.6228  0.0477  0.1053
  544SOL     OW 2173   0.718   0.225   2.735  0.1791  0.0250 -0.2330
  544SOL    HW1 2174   0.633   0.266   2.757 -0.6488  0.7674 -1.8202
  544SOL    HW2 2175   0.702   0.149   2.677 -2.1896  1.1330 -3.3484
  544SOL     MW 2176   0.705   0.220   2.730 -0.2426  0.2691 -0.8535
  545SOL     OW 2177   1.559   2.178   2.355 -0.4066 -0.1440  0.0592
  545SOL    HW1 2178   1.562   2.263   2.305  1.7988  1.4440  0.3150
  545SOL    HW2 2179   1.610   2.106   2.307 -1.4734 -2.7796  3.2854
  545SOL     MW 2180   1.566   2.180   2.342 -0.2564 -0.2822  0.5186
  546SOL     OW 2181   3.005   2.004   0.131 -0.6249  0.3408 -0.3407
  546SOL    HW1 2182   2.994   2.085   0.074 -0.7831  0.1119 -1.5685
  546SOL    HW2 2183   3.091   1.970   0.102 -2.4063 -1.4966 -2.4725
  546SOL     MW 2184   3.015   2.010   0.120 -0.8808  0.0682 -0.7840
  547SOL     OW 2185   0.240   0.027   0.051 -0.2172  0.6640  0.4159
  547SOL    HW1 2186   0.335   0.050   0.022  2.5497  3.4835 -3.6269
  547SOL    HW2 2187   0.186   0.006  -0.026 -1.3194 -1.4988 -1.4506
  547SOL     MW 2188   0.245   0.028   0.037  0.0024  0.7506 -0.3638
  548SOL     OW 2189   0.302   2.499   0.262 -0.0605  0.2969  0.4335
  548SOL    HW1 2190   0.296   2.564   0.195 -0.9973 -1.1358  0.8671
  548SOL    HW2 2191   0.234   2.434   0.249 -0.0240 -1.6711  0.1869
  548SOL     MW 2192   0.292   2.499   0.251 -0.1793 -0.1518  0.4582
  549SOL     OW 2193   0.797   1.881   2.137 -0.0212 -0.7067 -0.2116
  549SOL    HW1 2194   0.767   1.964   2.094 -0.4813  2.7232 -0.0603
  549SOL    HW2 2195   0.749   1.877   2.222 -0.1063  0.1206 -0.6673
  549SOL     MW 2196   0.787   1.892   2.143 -0.0931 -0.1450 -0.2517
  550SOL     OW 2197   1.788   1.747   2.546  0.1207 -0.4470 -0.0804
  550SOL    HW1 2198   1.800   1.746   2.448 -1.9004  1.8551  0.1762
  550SOL    HW2 2199   1.761   1.835   2.586  0.5501 -2.3077  1.8395
  550SOL     MW 2200   1.786   1.759   2.538 -0.0893 -0.3888  0.2068
  551SOL     OW 2201   0.871   2.278   0.192  0.7796 -0.3792  0.2658
  551SOL    HW1 2202   0.965   2.280   0.201  0.0462  1.2285  1.7630
  551SOL    HW2 2203   0.832   2.195   0.161  0.2231  0.8753 -0.8484
  551SOL     MW 2204   0.878   2.267   0.189  0.6094 -0.0015  0.3163
  552SOL     OW 2205   1.761   1.717   2.274 -0.0851  0.7188 -0.5651
  552SOL    HW1 2206   1.667   1.701   2.278 -1.5028  1.5157  0.8577
  552SOL    HW2 2207   1.803   1.666   2.193  3.0845  3.9524  2.4984
  552SOL     MW 2208   1.754   1.708   2.264  0.1460  1.2506  0.0268
  553SOL     OW 2209   1.283   2.331   1.539  0.0803 -0.4034  0.8306
  553SOL    HW1 2210   1.328   2.247   1.538 -0.2011  2.1797  0.6001
  553SOL    HW2 2211   1.319   2.391   1.468 -0.1095  1.6628  2.2044
  553SOL     MW 2212   1.293   2.328   1.529  0.0181  0.2100  0.9815
  554SOL     OW 2213   0.527   2.929   2.635  0.4361 -0.1354 -0.1033
  554SOL    HW1 2214   0.531   3.018   2.584  0.5203  0.1579  0.4372
  554SOL    HW2 2215   0.571   2.865   2.578  1.4297  3.2399  0.4514
  554SOL     MW 2216   0.533   2.932   2.621  0.5783  0.3486  0.0412
  555SOL     OW 2217   0.635   2.469   2.467 -0.7487 -0.1498  0.0005
  555SOL    HW1 2218   0.592   2.381   2.492 -0.6807 -1.4407  1.3664
  555SOL    HW2 2219   0.728   2.460   2.445 -4.4522 -0.9186  1.1639
  555SOL     MW 2220   0.641   2.456   2.467 -1.2284 -0.4216  0.3342
  556SOL     OW 2221   0.977   1.858   0.085 -0.6395 -0.0221 -0.3148
  556SOL    HW1 2222   1.025   1.855   0.005 -0.6849  1.6374 -1.0019
  556SOL    HW2 2223   1.045   1.877   0.151  2.3562  2.4434 -1.8842
  556SOL     MW 2224   0.993   1.860   0.083 -0.2503  0.5221 -0.6125
  557SOL     OW 2225   0.955   2.640   0.502  0.5155  0.3259 -0.2523
  557SOL    HW1 2226   1.030   2.608   0.458 -0.8161  2.0275 -0.6106
  557SOL    HW2 2227   0.915   2.711   0.449  0.4343 -3.7682  1.0573
  557SOL     MW 2228   0.960   2.645   0.489  0.3291  0.0102 -0.1268
  558SOL     OW 2229   0.208   2.333   2.998  0.4295 -0.0086  0.0242
  558SOL    HW1 2230   0.140   2.284   2.951 -2.6656  1.1733  2.1961
  558SOL    HW2 2231   0.166   2.371   3.074 -1.4793 -1.4293 -1.9963
  558SOL     MW 2232   0.194   2.331   3.002 -0.2307 -0.0401  0.0442
  559SOL     OW 2233   1.058   2.352   2.123  0.6141 -0.2890 -0.1158
  559SOL    HW1 2234   1.113   2.408   2.173  0.4921 -0.7599  0.4720
  559SOL    HW2 2235   1.042   2.270   2.170 -0.2286 -0.0574  0.9169
  559SOL     MW 2236   1.063   2.349   2.136  0.4869 -0.3206  0.0980
  560SOL     OW 2237   1.983   2.886   0.018  0.0731  0.4472  0.0729
  560SOL    HW1 2238   2.033   2.921  -0.056 -2.3008 -0.8643  1.5965
  560SOL    HW2 2239   1.956   2.792   0.000 -2.4452 -0.5668 -2.4932
  560SOL     MW 2240   1.986   2.878   0.006 -0.5724  0.1404 -0.0646
  561SOL     OW 2241   0.375   2.150   0.047 -0.4557 -0.8351 -0.0745
  561SOL    HW1 2242   0.331   2.195  -0.023 -0.9568  0.6730  0.9113
  561SOL    HW2 2243   0.423   2.222   0.101 -0.3772 -1.1018  1.0896
  561SOL     MW 2244   0.376   2.165   0.045 -0.5114 -0.6713  0.2092
  562SOL     OW 2245   0.700   2.214   2.261 -0.4159  0.6174  0.4355
  562SOL    HW1 2246   0.711   2.295   2.217 -0.3402 -0.7401  1.3472
  562SOL    HW2 2247   0.792   2.186   2.297 -0.9683  0.8570  1.8622
  562SOL     MW 2248   0.714   2.221   2.260 -0.4788  0.4699  0.7440
  563SOL     OW 2249   1.243   0.319   0.564  0.4721  0.0554 -0.0511
  563SOL    HW1 2250   1.191   0.265   0.506 -0.5207  2.1454  0.6571
  563SOL    HW2 2251   1.256   0.266   0.648  0.0284  2.0488  0.6523
  563SOL     MW 2252   1.238   0.305   0.568  0.2825  0.5942  0.1351
  564SOL     OW 2253   1.167   2.533   2.329  0.1179  0.8859  0.7019
  564SOL    HW1 2254   1.154   2.604   2.266  2.1691 -0.8857 -0.5296
  564SOL    HW2 2255   1.157   2.580   2.406  0.4137  2.9365  0.4881
  564SOL     MW 2256   1.164   2.549   2.331  0.4276  0.9227  0.5112
  565SOL     OW 2257   2.813   2.775   2.649 -0.3605  0.0125  0.0113
  565SOL    HW1 2258   2.867   2.851   2.631 -1.6019  0.4798 -1.0734
  565SOL    HW2 2259   2.796   2.731   2.569  1.6932 -1.6754 -0.7986
  565SOL     MW 2260   2.818   2.780   2.636 -0.2533 -0.1485 -0.2386
  566SOL     OW 2261   2.123   1.824   2.402 -0.0967 -0.0206  0.5260
  566SOL    HW1 2262   2.117   1.766   2.326  0.0145 -1.7649  0.7301
  566SOL    HW2 2263   2.196   1.891   2.371  2.2498 -0.9013 -1.1759
  566SOL     MW 2264   2.132   1.825   2.388  0.2276 -0.3669  0.3284
  567SOL     OW 2265   1.164   2.945   3.037 -1.1542  0.0874 -0.1033
  567SOL    HW1 2266   1.223   3.011   3.078  0.7929  1.4866 -0.1441
  567SOL    HW2 2267   1.211   2.855   3.025  3.1128 -1.2521  3.7599
  567SOL     MW 2268   1.178   2.942   3.041 -0.3343  0.0953  0.4010
  568SOL     OW 2269   1.619   2.078   2.883  0.4664 -0.2838 -0.6208
  568SOL    HW1 2270   1.651   2.131   2.956 -0.8562  0.0533  2.6969
  568SOL    HW2 2271   1.690   2.037   2.839  0.8721  0.0952 -1.6353
  568SOL     MW 2272   1.632   2.079   2.887  0.3455 -0.1893 -0.3169
  569SOL     OW 2273   0.163   2.277   2.459  0.1708  0.0988  0.3954
  569SOL    HW1 2274   0.082   2.299   2.407  0.4221 -0.5716  0.3276
  569SOL    HW2 2275   0.188   2.347   2.515  0.3892 -1.8152 -0.2171
  569SOL     MW 2276   0.156   2.289   2.460  0.2328 -0.2422  0.3057
  570SOL     OW 2277   1.513   0.358   0.507 -0.3057  0.1295 -0.4652
  570SOL    HW1 2278   1.414   0.357   0.514  0.3341  1.0425  1.9366
  570SOL    HW2 2279   1.543   0.379   0.597 -0.4411  0.5741  0.5651
  570SOL     MW 2280   1.504   0.360   0.520 -0.2392  0.3086 -0.0124
  571SOL     OW 2281   1.413   2.430   2.014 -0.8329 -0.2290  0.2381
  571SOL    HW1 2282   1.444   2.442   2.104 -2.7787  1.1508  1.1963
  571SOL    HW2 2283   1.474   2.359   1.981  2.4355 -2.2073 -0.1365
  571SOL     MW 2284   1.425   2.422   2.021 -0.6584 -0.3079  0.3151
  572SOL     OW 2285   1.050   2.582   0.114  0.3672  0.3628  0.0227
  572SOL    HW1 2286   1.051   2.678   0.106  1.0400  0.1478  0.2265
  572SOL    HW2 2287   0.954   2.563   0.092 -3.0148 -1.6829 -1.4105
  572SOL     MW 2288   1.037   2.592   0.110  0.0098  0.0646 -0.1395
  573SOL     OW 2289   1.167   2.297   0.206  0.8402 -0.0083 -0.3246
  573SOL    HW1 2290   1.262   2.306   0.181  1.8350 -0.4423  1.5003
  573SOL    HW2 2291   1.164   2.365   0.278 -0.8360  2.0149  0.6371
  573SOL     MW 2292   1.179   2.307   0.212  0.7503  0.2014  0.0431
  574SOL     OW 2293   1.155   2.515   0.361  0.7458  0.5280 -0.0282
  574SOL    HW1 2294   1.238   2.564   0.362 -0.1738  0.9867  2.1922
  574SOL    HW2 2295   1.106   2.545   0.280 -0.4563 -1.3332 -3.0952
  574SOL     MW 2296   1.159   2.525   0.350  0.4658  0.3430 -0.1399
  575SOL     OW 2297   3.075   2.196   1.802 -0.2939 -0.0156  0.0230
  575SOL    HW1 2298   3.092   2.127   1.736 -1.2154 -2.8308  0.7690
  575SOL    HW2 2299   3.143   2.269   1.794 -1.1321  0.5783  0.5411
  575SOL     MW 2300   3.086   2.197   1.792 -0.5260 -0.3087  0.1898
  576SOL     OW 2301   2.804   1.809   2.070  0.4618  0.0051 -0.6312
  576SOL    HW1 2302   2.828   1.878   2.010 -0.2546 -0.5946 -0.9304
  576SOL    HW2 2303   2.705   1.790   2.060  0.9480  2.2036 -1.1109
  576SOL     MW 2304   2.794   1.816   2.061  0.4314  0.2161 -0.7339
  577SOL     OW 2305   2.034   0.197   0.060  0.3479 -0.2223 -0.1355
  577SOL    HW1 2306   1.948   0.205   0.007 -0.3538 -1.9873 -2.5403
  577SOL    HW2 2307   1.998   0.181   0.148 -1.4572 -0.3384  1.7547
  577SOL     MW 2308   2.018   0.196   0.064  0.0171 -0.4705 -0.2034
  578SOL     OW 2309   1.955   2.041   2.355 -0.3861 -0.0495 -0.4232
  578SOL    HW1 2310   1.875   1.994   2.319 -0.5720  0.1448  2.0118
  578SOL    HW2 2311   2.008   1.962   2.379  0.0527 -3.6703 -1.8108
  578SOL     MW 2312   1.952   2.024   2.353 -0.3528 -0.5016 -0.2850
  579SOL     OW 2313   0.907   2.415   2.435  1.2462  0.4023  0.1179
  579SOL    HW1 2314   0.934   2.372   2.511 -1.4375 -1.4108 -1.8313
  579SOL    HW2 2315   0.987   2.454   2.400 -0.9984  1.8726 -0.1844
  579SOL     MW 2316   0.921   2.415   2.440  0.5960  0.3571 -0.1791
  580SOL     OW 2317   0.914   2.850   0.021 -0.1639 -0.5041  0.2642
  580SOL    HW1 2318   0.999   2.891  -0.007  0.2725  0.1757  0.0316
  580SOL    HW2 2319   0.876   2.825  -0.060  0.5120 -0.4552  1.8361
  580SOL     MW 2320   0.920   2.852   0.006 -0.0172 -0.4079  0.4409
  581SOL     OW 2321   1.128   2.525   1.677 -0.1367  0.6767  0.1778
  581SOL    HW1 2322   1.170   2.571   1.748 -0.4797 -1.8669 -3.3172
  581SOL    HW2 2323   1.206   2.474   1.636  4.0419  0.5611 -1.8397
  581SOL     MW 2324   1.144   2.524   1.681  0.3694  0.3258 -0.5495
  582SOL     OW 2325   0.040   2.792   2.633 -0.1855 -0.1430  0.7923
  582SOL    HW1 2326  -0.018   2.857   2.674  0.4798  3.2653  1.2797
  582SOL    HW2 2327   0.122   2.841   2.614  1.7312 -1.5847  0.2962
  582SOL     MW 2328   0.043   2.807   2.636  0.1551  0.1165  0.7912
  583SOL     OW 2329   1.987   2.407   2.654  0.3390  0.0471  0.2165
  583SOL    HW1 2330   2.054   2.416   2.588  0.5058 -0.6519 -0.5021
  583SOL    HW2 2331   1.989   2.312   2.668 -1.7725 -0.2001  2.3053
  583SOL     MW 2332   1.996   2.395   2.647  0.0824 -0.0777  0.3973
  584SOL     OW 2333   0.106   1.878   2.244  0.2969  0.4282 -0.5453
  584SOL    HW1 2334   0.170   1.810   2.221  0.1588 -2.9120  0.4832
  584SOL    HW2 2335   0.151   1.960   2.272 -0.5034 -0.5335  0.1756
  584SOL     MW 2336   0.120   1.880   2.244  0.1731 -0.1394 -0.3145
  585SOL     OW 2337   1.575   2.599   0.246 -0.3393 -1.3174 -0.4462
  585SOL    HW1 2338   1.529   2.571   0.161  0.3784 -3.2561 -2.5808
  585SOL    HW2 2339   1.501   2.634   0.306 -1.3894 -0.2984  0.2825
  585SOL     MW 2340   1.559   2.600   0.243 -0.3831 -1.4387 -0.6317
  586SOL     OW 2341   1.374   2.856   2.568  0.1530 -0.0644  0.2122
  586SOL    HW1 2342   1.437   2.815   2.506  0.0579  0.0907  2.3534
  586SOL    HW2 2343   1.385   2.954   2.558  1.2172  2.8129 -0.7410
  586SOL     MW 2344   1.384   2.863   2.559  0.2809  0.3357  0.3689
  587SOL     OW 2345   1.348   1.550   2.150  0.2686 -0.9038  0.6172
  587SOL    HW1 2346   1.310   1.497   2.228  2.3266 -0.3177  0.3129
  587SOL    HW2 2347   1.340   1.500   2.071  0.0455 -0.8581  0.6560
  587SOL     MW 2348   1.342   1.536   2.150  0.5107 -0.8204  0.5822
  588SOL     OW 2349   1.331   2.042   2.672  0.4486  0.0338  0.1628
  588SOL    HW1 2350   1.344   1.947   2.647  0.3673  0.7922  0.4744
  588SOL    HW2 2351   1.327   2.039   2.768  1.5426  0.0551 -1.7224
  588SOL     MW 2352   1.332   2.029   2.682  0.5822  0.1367 -0.0448
  589SOL     OW 2353   1.381   2.015   0.124  0.2750  0.2929  0.0586
  589SOL    HW1 2354   1.396   2.106   0.133 -0.2756 -0.5999  0.7511
  589SOL    HW2 2355   1.314   1.980   0.185  1.1433  1.3649  1.4975
  589SOL     MW 2356   1.374   2.022   0.133  0.3169  0.3166  0.3398
  590SOL     OW 2357   0.492   2.781   2.219  0.4316  0.0815 -0.7807
  590SOL    HW1 2358   0.445   2.757   2.136 -0.5940  1.0089  0.8533
  590SOL    HW2 2359   0.588   2.794   2.201  0.2458 -0.9408  1.6703
  590SOL     MW 2360   0.498   2.779   2.205  0.2718  0.0690 -0.2417
  591SOL     OW 2361   2.234   0.668   0.008 -0.1982  0.5056  0.4346
  591SOL    HW1 2362   2.167   0.720  -0.045  3.4057 -1.9748 -0.0383
  591SOL    HW2 2363   2.306   0.691  -0.056 -2.0637  1.5172 -0.1415
  591SOL     MW 2364   2.234   0.678  -0.007  0.0311  0.3118  0.2962
  592SOL     OW 2365   1.738   2.940   0.780 -0.2591 -0.4017  0.0710
  592SOL    HW1 2366   1.739   3.003   0.706  1.3682  3.4798 -0.8819
  592SOL    HW2 2367   1.825   2.906   0.798 -1.6402 -1.1114  1.3724
  592SOL     MW 2368   1.750   2.944   0.773 -0.2266  0.0168  0.1170
  593SOL     OW 2369   1.966   0.623   0.870  0.2610 -0.3327 -0.2002
  593SOL    HW1 2370   1.896   0.605   0.808 -0.3924  1.6385  0.2499
  593SOL    HW2 2371   2.009   0.537   0.875 -0.4733 -1.1071  0.4767
  593SOL     MW 2372   1.962   0.609   0.863  0.0779 -0.1748 -0.0515
  594SOL     OW 2373   2.775   1.144   1.389  0.0758  0.3482 -0.5658
  594SOL    HW1 2374   2.878   1.158   1.378 -0.3818  0.4626 -1.0393
  594SOL    HW2 2375   2.753   1.084   1.315 -1.5258  1.2025  0.2059
  594SOL     MW 2376   2.786   1.138   1.378 -0.1959  0.4760 -0.5265
  595SOL     OW 2377   0.477   0.987   0.815  0.3114 -0.1430  0.1962
  595SOL    HW1 2378   0.509   1.027   0.727  1.0315 -0.4390 -2.5666
  595SOL    HW2 2379   0.453   1.059   0.871  0.0584  0.1166 -3.5099
  595SOL     MW 2380   0.478   1.002   0.811  0.3730 -0.1478 -0.6573
  596SOL     OW 2381   2.486   1.308   0.571 -0.0454  0.5142 -0.2020
  596SOL    HW1 2382   2.547   1.369   0.531  0.0203 -0.2709  1.8828
  596SOL    HW2 2383   2.521   1.296   0.664 -0.9764 -1.4044 -0.7322
  596SOL     MW 2384   2.498   1.315   0.578 -0.1596  0.1575  0.0031
  597SOL     OW 2385   2.177   0.681   1.625 -0.1243  0.4681  0.0722
  597SOL    HW1 2386   2.224   0.632   1.690 -0.0536  1.4275 -2.7692
  597SOL    HW2 2387   2.115   0.622   1.588 -0.2752 -2.2617  3.6373
  597SOL     MW 2388   2.175   0.667   1.629 -0.1349  0.2345  0.1677
  598SOL     OW 2389   2.552   1.035   2.770  0.0957 -0.3106  0.6038
  598SOL    HW1 2390   2.542   1.002   2.682 -1.5326 -2.4444  2.2480
  598SOL    HW2 2391   2.643   1.035   2.795  1.2845 -0.2088 -2.1385
  598SOL     MW 2392   2.562   1.031   2.761  0.0377 -0.5787  0.4589
  599SOL     OW 2393   2.992   0.402   2.096 -0.3447 -0.0402 -0.2881
  599SOL    HW1 2394   3.045   0.420   2.175  0.1430  1.7352  0.2071
  599SOL    HW2 2395   2.982   0.492   2.057 -0.7010  0.5557  2.3728
  599SOL     MW 2396   2.998   0.416   2.101 -0.3273  0.2726  0.1283
  600SOL     OW 2397   1.838   1.624   0.897  0.0093  0.0922  0.3035
  600SOL    HW1 2398   1.883   1.675   0.966  0.6974  1.8008  0.3134
  600SOL    HW2 2399   1.768   1.689   0.876 -0.1797  2.9514  1.8007
  600SOL     MW 2400   1.835   1.639   0.904  0.0752  0.6948  0.5024
  601SOL     OW 2401   2.513   0.769   0.811  0.2839  0.4012  0.4464
  601SOL    HW1 2402   2.518   0.784   0.905  1.4827  0.3835 -0.0419
  601SOL    HW2 2403   2.433   0.723   0.806  1.4929  2.6984  3.0540
  601SOL     MW 2404   2.503   0.765   0.823  0.6016  0.7020  0.7261
  602SOL     OW 2405   2.268   1.970   0.764  0.3225 -0.3713 -0.3228
  602SOL    HW1 2406   2.199   1.903   0.762 -0.0272 -1.2723 -1.8904
  602SOL    HW2 2407   2.245   2.027   0.689  0.1806  2.3919  2.7811
  602SOL     MW 2408   2.256   1.969   0.754  0.2577 -0.1256 -0.1201
  603SOL     OW 2409  -0.002   1.381   1.913 -0.5203  0.7959  0.7220
  603SOL    HW1 2410   0.051   1.454   1.953  3.4691 -0.5047  2.0196
  603SOL    HW2 2411   0.019   1.295   1.956  2.0229 -0.5735  1.4713
  603SOL     MW 2412   0.008   1.380   1.924  0.3416  0.4436  0.9921
  604SOL     OW 2413   2.080   1.521   0.463 -0.3667 -1.0553  0.2054
  604SOL    HW1 2414   2.097   1.437   0.507 -1.0210 -1.3660 -0.4800
  604SOL    HW2 2415   2.021   1.574   0.526  2.7294 -3.6103  0.4019
  604SOL     MW 2416   2.075   1.517   0.477 -0.0446 -1.4334  0.1409
  605SOL     OW 2417   2.514   1.501   0.893  0.2650  0.2412 -0.3024
  605SOL    HW1 2418   2.522   1.550   0.816 -0.6253 -0.1530 -0.4538
  605SOL    HW2 2419   2.500   1.408   0.868 -0.8573 -1.7099  2.0988
  605SOL     MW 2420   2.513   1.495   0.880 -0.0005 -0.0682 -0.0056
  606SOL     OW 2421   2.544   1.725   2.035 -0.0671  0.6399  0.0477
  606SOL    HW1 2422   2.465   1.751   1.989  0.9051 -0.0710  1.5673
  606SOL    HW2 2423   2.588   1.664   1.973 -1.3691  0.6589  1.8598
  606SOL     MW 2424   2.539   1.720   2.021 -0.1106  0.5486  0.4873
  607SOL     OW 2425   2.410   1.038   3.018 -0.4309 -0.0166 -0.1003
  607SOL    HW1 2426   2.457   1.040   2.934 -2.9112  1.9534  0.7284
  607SOL    HW2 2427   2.473   1.013   3.088 -1.8074 -1.5949  3.2422
  607SOL     MW 2428   2.425   1.035   3.016 -0.9397  0.0351  0.4501
  608SOL     OW 2429   1.848   0.292   0.564  0.1630  0.1074 -0.2193
  608SOL    HW1 2430   1.835   0.359   0.489 -2.8283  1.3664  0.4934
  608SOL    HW2 2431   1.800   0.207   0.541 -0.0655 -3.3030 -1.6001
  608SOL     MW 2432   1.840   0.290   0.551 -0.2618 -0.1764 -0.3074
  609SOL     OW 2433   2.099   1.961   3.044  0.1767  0.1256  0.9140
  609SOL    HW1 2434   2.018   1.921   3.022  2.6046  0.3174  0.2769
  609SOL    HW2 2435   2.114   1.943   3.140  1.6579  1.4378  1.7949
  609SOL     MW 2436   2.090   1.954   3.054  0.6925  0.3240  0.9461
  610SOL     OW 2437   1.821   0.962   1.226  0.1340 -0.5551 -0.0242
  610SOL    HW1 2438   1.836   0.892   1.164  0.0399  2.3738 -0.0913
  610SOL    HW2 2439   1.723   0.955   1.225  0.4891 -0.2082  1.7683
  610SOL     MW 2440   1.810   0.952   1.217  0.1684 -0.1229  0.2035
  611SOL     OW 2441   2.534   1.657   0.670 -0.2185 -0.4179  0.3610
  611SOL    HW1 2442   2.560   1.739   0.638 -2.0301 -2.0876 -0.0683
  611SOL    HW2 2443   2.442   1.658   0.654  0.9737 -1.6975  1.5225
  611SOL     MW 2444   2.525   1.668   0.664 -0.3002 -0.8070  0.4576
  612SOL     OW 2445   2.844   2.893   0.377 -0.7793 -0.1680 -0.3452
  612SOL    HW1 2446   2.876   2.942   0.453 -1.5426  0.2903 -0.6024
  612SOL    HW2 2447   2.925   2.882   0.326  2.2969  2.9642  0.6264
  612SOL     MW 2448   2.859   2.898   0.380 -0.4741  0.3058 -0.2509
  613SOL     OW 2449   1.445   1.054   0.924 -0.1648  0.2690  0.0555
  613SOL    HW1 2450   1.462   1.146   0.914  1.0244  0.4901 -0.0451
  613SOL    HW2 2451   1.478   1.034   1.015 -1.5872 -0.8491  0.5563
  613SOL     MW 2452   1.452   1.064   0.935 -0.1955  0.1506  0.1084
  614SOL     OW 2453   1.979   0.534   1.501 -0.2748 -0.0372  0.2184
  614SOL    HW1 2454   1.973   0.461   1.572  2.3363  1.0147 -0.5310
  614SOL    HW2 2455   1.938   0.513   1.413 -2.6342 -0.0041 -0.7203
  614SOL     MW 2456   1.973   0.522   1.499 -0.2416  0.1059 -0.0043
  615SOL     OW 2457   2.311   0.767   0.281  0.6379 -0.0979  0.3938
  615SOL    HW1 2458   2.375   0.696   0.277 -0.6441 -0.0120 -1.0886
  615SOL    HW2 2459   2.253   0.744   0.207 -0.7531 -1.9639 -1.5320
  615SOL     MW 2460   2.312   0.755   0.271  0.2852 -0.3327 -0.0559
  616SOL     OW 2461   2.514   0.436   1.678  0.0900  0.1995 -0.0223
  616SOL    HW1 2462   2.589   0.392   1.629  1.7384  1.5661 -1.0727
  616SOL    HW2 2463   2.483   0.488   1.602  1.2961  0.7497  0.9309
  616SOL     MW 2464   2.520   0.437   1.662  0.4666  0.4524 -0.0351
  617SOL     OW 2465   2.809   0.586   1.672  0.6788 -0.1957 -0.0031
  617SOL    HW1 2466   2.734   0.580   1.724  2.8620 -0.0936 -0.9959
  617SOL    HW2 2467   2.833   0.496   1.671 -0.6444  1.8607 -1.0361
  617SOL     MW 2468   2.802   0.573   1.679  0.7923  0.0891 -0.2704
  618SOL     OW 2469   2.695   0.365   1.963  0.3365  0.3837  0.4452
  618SOL    HW1 2470   2.656   0.452   1.952 -2.4323 -1.4322 -0.6572
  618SOL    HW2 2471   2.776   0.397   1.998 -0.1589  0.8324 -1.4405
  618SOL     MW 2472   2.700   0.381   1.966 -0.0942  0.2033  0.0510
  619SOL     OW 2473   2.693   0.725   0.050  0.6389 -0.1719 -0.2392
  619SOL    HW1 2474   2.735   0.809   0.066  2.2819 -3.2128  3.5414
  619SOL    HW2 2475   2.636   0.713   0.124  0.3033 -2.5235  0.2633
  619SOL     MW 2476   2.691   0.734   0.062  0.8114 -0.8834  0.3259
  620SOL     OW 2477   2.239   1.055   0.914  0.5606  0.2832 -0.4094
  620SOL    HW1 2478   2.292   1.045   0.838 -1.6459  1.1898  0.9745
  620SOL    HW2 2479   2.149   1.023   0.903  1.0890 -0.7436  2.3573
  620SOL     MW 2480   2.234   1.050   0.902  0.3392  0.2673  0.1382
  621SOL     OW 2481   1.575   2.220   1.929 -0.2741  0.3843 -0.0625
  621SOL    HW1 2482   1.545   2.150   1.993 -1.7607  0.7797  2.8523
  621SOL    HW2 2483   1.672   2.211   1.928  1.5387  2.0147  0.7997
  621SOL     MW 2484   1.584   2.210   1.937 -0.2311  0.6516  0.4359
  622SOL     OW 2485   2.651   0.208   0.249 -0.0579  0.1144  0.2359
  622SOL    HW1 2486   2.744   0.235   0.255  2.4809  2.2638 -1.6967
  622SOL    HW2 2487   2.643   0.117   0.282  1.9358 -0.0662 -0.2180
  622SOL     MW 2488   2.662   0.199   0.254  0.5401  0.3741 -0.0790
  623SOL     OW 2489   2.460   2.752   0.864 -0.5187 -0.1934  0.4044
  623SOL    HW1 2490   2.520   2.826   0.856 -1.1913 -2.8025  2.8297
  623SOL    HW2 2491   2.393   2.771   0.929  0.3082 -1.0728  0.6936
  623SOL     MW 2492   2.459   2.764   0.871 -0.4984 -0.6536  0.7625
  624SOL     OW 2493   2.109   1.631   3.031 -0.0454  0.2109 -0.0298
  624SOL    HW1 2494   2.066   1.548   3.023 -0.9433 -3.7816 -1.2350
  624SOL    HW2 2495   2.038   1.687   2.993  2.5607 -1.2655  2.0095
  624SOL     MW 2496   2.094   1.628   3.025  0.1800 -0.5106  0.0803
  625SOL     OW 2497   2.225   1.914   1.078 -0.1284  0.0339  0.2330
  625SOL    HW1 2498   2.283   1.853   1.122  1.2341  1.8566  1.9021
  625SOL    HW2 2499   2.281   1.938   1.002 -0.8150  0.4720 -0.6365
  625SOL     MW 2500   2.240   1.909   1.074 -0.0392  0.3322  0.3385
  626SOL     OW 2501   0.249   1.768   2.444 -0.8515 -0.0272  0.2358
  626SOL    HW1 2502   0.189   1.721   2.504 -0.0199  0.6047  1.9359
  626SOL    HW2 2503   0.189   1.834   2.407  1.1760 -0.7444  1.4294
  626SOL     MW 2504   0.233   1.770   2.447 -0.4742 -0.0385  0.6176
  627SOL     OW 2505   2.528   0.739   2.565  0.2809  0.4366 -0.1717
  627SOL    HW1 2506   2.469   0.814   2.567  1.5634  0.7208  2.8874
  627SOL    HW2 2507   2.498   0.704   2.478 -0.7911  3.0044  0.5356
  627SOL     MW 2508   2.516   0.744   2.553  0.3087  0.8129  0.3252
  628SOL     OW 2509   2.255   1.379   1.290 -0.8708  0.0662  0.3950
  628SOL    HW1 2510   2.228   1.293   1.257  0.2932  0.4154 -0.9784
  628SOL    HW2 2511   2.353   1.385   1.272  2.7415 -0.0965  3.5476
  628SOL     MW 2512   2.264   1.368   1.283 -0.2406  0.0908  0.6297
  629SOL     OW 2513   1.864   0.508   1.243 -0.1868 -0.5092  0.2174
  629SOL    HW1 2514   1.875   0.599   1.221  1.7844  1.1833 -0.0571
  629SOL    HW2 2515   1.771   0.484   1.220  0.3453 -0.8269 -0.6652
  629SOL     MW 2516   1.853   0.517   1.237  0.1435 -0.3278  0.0647
  630SOL     OW 2517   2.389   1.885   3.027  0.2445 -0.1713 -0.2800
  630SOL    HW1 2518   2.389   1.966   2.974 -2.3749 -1.2707  0.8001
  630SOL    HW2 2519   2.299   1.855   3.036  1.5104  1.7786 -1.5000
  630SOL     MW 2520   2.377   1.891   3.021  0.0659 -0.0591 -0.2984
  631SOL     OW 2521   2.028   1.690   1.561 -0.6871  0.0831 -0.1443
  631SOL    HW1 2522   2.040   1.631   1.632  0.0436 -1.5753  0.2601
  631SOL    HW2 2523   1.958   1.651   1.510 -3.8264 -1.3528 -1.4863
  631SOL     MW 2524   2.021   1.677   1.563 -1.0049 -0.3252 -0.2680
  632SOL     OW 2525   0.240   1.955   1.441  0.5280 -0.2710 -0.0099
  632SOL    HW1 2526   0.185   1.956   1.526  0.2916 -0.4677 -0.4062
  632SOL    HW2 2527   0.247   1.858   1.423 -0.5770  1.6513  0.4971
  632SOL     MW 2528   0.234   1.943   1.450  0.3510 -0.0433  0.0047
  633SOL     OW 2529   2.505   0.576   0.271 -0.3004 -0.7470  0.2614
  633SOL    HW1 2530   2.564   0.579   0.349  2.2808  1.2830 -0.3746
  633SOL    HW2 2531   2.542   0.506   0.215  2.7441 -2.7689  0.7828
  633SOL     MW 2532   2.518   0.567   0.274  0.4419 -0.7459  0.2462
  634SOL     OW 2533   2.681   3.092   0.662  0.1699 -0.3288 -0.1830
  634SOL    HW1 2534   2.716   3.177   0.686  2.4277  1.4821  0.6897
  634SOL    HW2 2535   2.654   3.095   0.571  0.8058 -1.3756  0.3224
  634SOL     MW 2536   2.682   3.104   0.653  0.5517 -0.2280 -0.0012
  635SOL     OW 2537   2.582   0.157   1.836 -0.0186  0.0260 -0.5812
  635SOL    HW1 2538   2.651   0.099   1.801  1.2921  1.1158 -1.9755
  635SOL    HW2 2539   2.614   0.248   1.857  0.3956  4.0088 -0.1306
  635SOL     MW 2540   2.595   0.162   1.834  0.2090  0.6953 -0.7057
  636SOL     OW 2541   2.802   1.583   0.865 -0.4354 -0.0870 -0.0435
  636SOL    HW1 2542   2.707   1.564   0.862 -0.5694 -0.2554  1.0988
  636SOL    HW2 2543   2.812   1.679   0.879 -0.3885  1.5665 -0.4176
  636SOL     MW 2544   2.791   1.593   0.867 -0.4469  0.1089  0.0578
  637SOL     OW 2545   2.886   1.501   0.600  0.1905  0.3785 -0.0574
  637SOL    HW1 2546   2.953   1.568   0.604  1.1562 -0.8047 -0.7471
  637SOL    HW2 2547   2.837   1.524   0.681  0.2005  0.5062 -0.8550
  637SOL     MW 2548   2.889   1.513   0.611  0.3193  0.2393 -0.2537
  638SOL     OW 2549   2.696   0.512   0.505  0.5132  0.2742  0.2213
  638SOL    HW1 2550   2.788   0.528   0.474  0.9506 -0.1327 -0.8675
  638SOL    HW2 2551   2.701   0.505   0.599 -1.5206  0.2026 -0.8331
  638SOL     MW 2552   2.708   0.513   0.513  0.3026  0.2111 -0.0615
  639SOL     OW 2553   1.727   0.043   0.537 -0.1284 -0.0236 -0.5263
  639SOL    HW1 2554   1.633   0.026   0.517  2.5561 -0.5449 -1.7737
  639SOL    HW2 2555   1.767  -0.029   0.493 -0.0610 -0.7091 -0.1925
  639SOL     MW 2556   1.720   0.031   0.528  0.2347 -0.1828 -0.6469
  640SOL     OW 2557   0.294   1.352   0.100  0.5270 -0.0847  0.2155
  640SOL    HW1 2558   0.313   1.340   0.003 -1.3178  2.9367 -0.6555
  640SOL    HW2 2559   0.303   1.262   0.133  2.8376 -0.4738  0.2052
  640SOL     MW 2560   0.297   1.339   0.091  0.5885  0.2626  0.0993
  641SOL     OW 2561   2.231   0.452   0.422 -0.3933  0.5231  0.1047
  641SOL    HW1 2562   2.240   0.438   0.330  0.2073 -0.8315 -1.8902
  641SOL    HW2 2563   2.309   0.404   0.454 -0.2081 -3.0254  1.3756
  641SOL     MW 2564   2.242   0.444   0.414 -0.2896 -0.1238  0.0092
  642SOL     OW 2565   0.066   0.014   0.483  0.3486 -0.2654 -0.1217
  642SOL    HW1 2566  -0.011   0.076   0.476 -3.2571 -1.3354 -0.5604
  642SOL    HW2 2567   0.023  -0.066   0.484  2.9929  0.1324  0.5857
  642SOL     MW 2568   0.050   0.011   0.483  0.2218 -0.3541 -0.0862
  643SOL     OW 2569   1.998   0.339   1.735 -0.2652 -0.1715  0.1927
  643SOL    HW1 2570   1.910   0.305   1.769  0.9579 -0.2076 -0.5635
  643SOL    HW2 2571   2.035   0.261   1.692  1.7461 -0.1185  1.3708
  643SOL     MW 2572   1.991   0.324   1.734  0.1615 -0.1693  0.2484
  644SOL     OW 2573   2.664   1.863   1.015  0.0306 -0.4785 -0.0791
  644SOL    HW1 2574   2.669   1.832   1.105  0.5170 -1.8661  0.9160
  644SOL    HW2 2575   2.572   1.885   0.996  2.1810  1.7586 -3.3453
  644SOL     MW 2576   2.653   1.862   1.024  0.3785 -0.3664 -0.3788
  645SOL     OW 2577   2.810   0.819   0.701  0.4044 -0.1782  0.7820
  645SOL    HW1 2578   2.872   0.750   0.714  0.0891 -2.2327  0.4702
  645SOL    HW2 2579   2.736   0.809   0.764 -2.7636  0.4836 -0.9146
  645SOL     MW 2580   2.809   0.809   0.711 -0.0552 -0.3620  0.5170
  646SOL     OW 2581   0.085   2.277   0.864 -0.0648  0.2450  0.3385
  646SOL    HW1 2582   0.120   2.190   0.844  2.5845  0.2119  0.9511
  646SOL    HW2 2583   0.057   2.320   0.785 -0.5336 -2.9221  1.9933
  646SOL     MW 2584   0.086   2.271   0.851  0.2229 -0.1773  0.6377
  647SOL     OW 2585   2.717   0.481   2.978  0.0268 -0.0849  0.5443
  647SOL    HW1 2586   2.659   0.425   3.032  0.9298 -0.4646 -1.4203
  647SOL    HW2 2587   2.698   0.562   3.024 -0.9426 -2.0519  2.2303
  647SOL     MW 2588   2.707   0.485   2.992  0.0181 -0.3945  0.5075
  648SOL     OW 2589   2.218   0.733   1.090  0.4514 -0.0174 -0.2390
  648SOL    HW1 2590   2.239   0.648   1.117  0.7783  1.4961 -0.7532
  648SOL    HW2 2591   2.191   0.782   1.172 -0.8099  0.1198 -0.6909
  648SOL     MW 2592   2.217   0.729   1.104  0.3281  0.2004 -0.3664
  649SOL     OW 2593   2.413   2.698   1.336  0.2120  0.1426  0.1761
  649SOL    HW1 2594   2.505   2.703   1.359 -1.9555 -0.9339  0.0589
  649SOL    HW2 2595   2.397   2.601   1.323  1.9073  1.2788 -3.1754
  649SOL     MW 2596   2.423   2.686   1.338  0.1497  0.1505 -0.2815
  650SOL     OW 2597   2.810   0.246   0.704 -0.6447 -0.1372 -0.2283
  650SOL    HW1 2598   2.865   0.317   0.732 -0.3253 -1.0578  0.8801
  650SOL    HW2 2599   2.830   0.242   0.614 -0.4050 -0.2241  1.4973
  650SOL     MW 2600   2.820   0.255   0.696 -0.5709 -0.2701  0.1456
  651SOL     OW 2601   0.024   0.437   1.030 -0.0218 -0.0247  0.6695
  651SOL    HW1 2602   0.081   0.469   0.956  1.9313  1.3208  0.0868
  651SOL    HW2 2603  -0.053   0.494   1.019  0.5669 -0.0556  0.4077
  651SOL     MW 2604   0.021   0.448   1.019  0.3136  0.1487  0.5581
  652SOL     OW 2605   2.399   1.490   3.034 -0.2713 -0.6669 -0.4074
  652SOL    HW1 2606   2.469   1.508   2.964 -0.3582  0.5033 -0.9471
  652SOL    HW2 2607   2.336   1.550   3.004 -0.4580 -4.2069  0.8902
  652SOL     MW 2608   2.400   1.501   3.021 -0.3074 -0.9796 -0.3074
  653SOL     OW 2609   1.829   0.469   0.334  0.3931 -0.0750  0.2224
  653SOL    HW1 2610   1.757   0.410   0.314  3.1424  1.6032  0.0401
  653SOL    HW2 2611   1.884   0.453   0.258 -1.6712 -0.6885 -1.3087
  653SOL     MW 2612   1.827   0.459   0.322  0.4835  0.0654 -0.0036
  654SOL     OW 2613   2.422   1.011   0.704 -0.3992 -0.5431  0.1372
  654SOL    HW1 2614   2.368   0.999   0.627  0.0140 -1.2209  2.2805
  654SOL    HW2 2615   2.453   0.921   0.728 -0.3556  3.8198 -0.9904
  654SOL     MW 2616   2.419   0.998   0.697 -0.3390 -0.0569  0.2712
  655SOL     OW 2617   2.902   0.833   0.382 -0.2184  0.5003 -0.2804
  655SOL    HW1 2618   2.838   0.856   0.452 -0.6922  1.0688 -1.8479
  655SOL    HW2 2619   2.943   0.747   0.406 -0.1370  1.8314 -0.8816
  655SOL     MW 2620   2.899   0.825   0.394 -0.2702  0.7510 -0.5665
  656SOL     OW 2621   1.775   2.642   1.344  0.4091  0.2338 -0.2513
  656SOL    HW1 2622   1.811   2.722   1.384 -0.3334 -1.6621 -0.4622
  656SOL    HW2 2623   1.851   2.584   1.328  1.8125  0.1295  1.5002
  656SOL     MW 2624   1.790   2.645   1.347  0.4963 -0.0301 -0.0480
  657SOL     OW 2625   0.145   1.786   1.159 -0.4852  0.1970 -0.3373
  657SOL    HW1 2626   0.205   1.817   1.094  2.2757  0.0146  0.6118
  657SOL    HW2 2627   0.171   1.691   1.169  0.7619  0.5273 -0.9166
  657SOL     MW 2628   0.156   1.778   1.152  0.0436  0.2165 -0.2885
  658SOL     OW 2629   2.637   1.300   0.235 -0.1916  0.3228 -0.2666
  658SOL    HW1 2630   2.603   1.231   0.297  0.9967 -2.4276  3.6062
  658SOL    HW2 2631   2.654   1.368   0.302  0.4958  0.5463  0.2925
  658SOL     MW 2632   2.635   1.300   0.252  0.0559 -0.0106  0.3182
  659SOL     OW 2633   2.221   1.537   0.959 -0.7636 -0.0007 -0.0306
  659SOL    HW1 2634   2.289   1.485   0.999 -0.9120  1.1978  1.7701
  659SOL    HW2 2635   2.167   1.564   1.031  5.0005  1.0081 -0.8250
  659SOL     MW 2636   2.223   1.534   0.974 -0.0227  0.2905  0.1022
  660SOL     OW 2637   2.088   1.481   1.724  0.3358 -0.3218  0.2470
  660SOL    HW1 2638   2.103   1.499   1.817 -2.4171 -2.6841  0.0654
  660SOL    HW2 2639   2.004   1.435   1.718 -0.2150 -1.7298  1.0489
  660SOL     MW 2640   2.079   1.477   1.735 -0.1001 -0.8192  0.3289
  661SOL     OW 2641   2.496   0.940   0.211 -0.2011  0.0099 -0.5768
  661SOL    HW1 2642   2.522   0.978   0.293 -1.8498 -1.3603  2.2686
  661SOL    HW2 2643   2.416   0.888   0.225  3.5718 -0.9747  1.5053
  661SOL     MW 2644   2.489   0.938   0.223  0.0792 -0.3008  0.0734
  662SOL     OW 2645   2.591   2.986   0.892  0.1334 -0.3186 -0.1223
  662SOL    HW1 2646   2.531   3.056   0.908 -0.5401  1.3400 -0.8334
  662SOL    HW2 2647   2.621   3.014   0.804 -1.3062  2.2638 -0.2195
  662SOL     MW 2648   2.587   2.999   0.882 -0.1454  0.2410 -0.2290
  663SOL     OW 2649   2.647   1.495   0.449 -0.5242 -0.1242 -0.0042
  663SOL    HW1 2650   2.604   1.583   0.450  2.5015  0.1471  2.6882
  663SOL    HW2 2651   2.733   1.504   0.483 -0.7244  1.6897  0.0741
  663SOL     MW 2652   2.652   1.508   0.454 -0.1514  0.1509  0.3614
  664SOL     OW 2653   2.575   1.546   1.610  0.5354  0.1597  0.1046
  664SOL    HW1 2654   2.548   1.634   1.573 -2.0305  0.2585 -1.6619
  664SOL    HW2 2655   2.491   1.491   1.606  2.8221  1.0851  1.4639
  664SOL     MW 2656   2.560   1.551   1.604  0.4985  0.2948  0.0509
  665SOL     OW 2657   2.781   0.793   2.071  0.1779 -0.5931  0.7783
  665SOL    HW1 2658   2.744   0.858   2.009 -1.9925  0.7929  2.4803
  665SOL    HW2 2659   2.863   0.766   2.031 -1.3070 -0.5443 -0.8817
  665SOL     MW 2660   2.787   0.798   2.057 -0.3044 -0.4038  0.7839
  666SOL     OW 2661   2.766   3.056   1.720 -0.0763 -0.3154  0.5520
  666SOL    HW1 2662   2.766   3.064   1.621 -1.2631 -0.9147 -0.1155
  666SOL    HW2 2663   2.720   2.970   1.723 -1.4058 -0.0992 -1.4378
  666SOL     MW 2664   2.760   3.046   1.707 -0.4083 -0.3659  0.2014
  667SOL     OW 2665   1.979   2.697   1.734  0.0799 -0.0685 -0.5635
  667SOL    HW1 2666   2.002   2.657   1.818  0.6543 -0.5699 -0.8263
  667SOL    HW2 2667   2.042   2.768   1.730  0.5736 -0.2789 -2.1312
  667SOL     MW 2668   1.991   2.701   1.744  0.2209 -0.1624 -0.8050
  668SOL     OW 2669   2.680   0.530   0.810  0.2001 -0.8387  0.1331
  668SOL    HW1 2670   2.755   0.559   0.866 -0.1737 -0.4785  4.5740
  668SOL    HW2 2671   2.624   0.614   0.798 -1.4376  2.0447 -2.6314
  668SOL     MW 2672   2.683   0.545   0.816 -0.0653 -0.4107  0.3543
  669SOL     OW 2673   0.127   0.877   0.743 -0.4182  0.6053 -0.1709
  669SOL    HW1 2674   0.080   0.958   0.771  0.5513  0.4342  0.9874
  669SOL    HW2 2675   0.190   0.843   0.808 -1.8113  1.6550  1.3621
  669SOL     MW 2676   0.129   0.883   0.755 -0.4741  0.7212  0.1842
  670SOL     OW 2677   2.919   0.337   0.206  0.0854  0.5705  0.3120
  670SOL    HW1 2678   2.958   0.302   0.121  1.0730 -0.7377  0.4202
  670SOL    HW2 2679   2.911   0.435   0.188 -0.1615 -0.9297 -0.7547
  670SOL     MW 2680   2.923   0.346   0.192  0.1831  0.2000  0.1855
  671SOL     OW 2681   1.996   3.057   1.588 -0.0222 -0.2428  0.0719
  671SOL    HW1 2682   1.958   3.010   1.512  1.3610 -0.8781 -0.8762
  671SOL    HW2 2683   1.934   3.055   1.663 -0.2214  0.6752 -0.1932
  671SOL     MW 2684   1.983   3.050   1.588  0.1341 -0.2055 -0.0882
  672SOL     OW 2685   1.877   1.681   1.304 -0.6293 -0.0966 -0.5066
  672SOL    HW1 2686   1.855   1.760   1.354  0.3952 -0.4339  1.5885
  672SOL    HW2 2687   1.935   1.727   1.241  2.2820  0.7081 -0.8544
  672SOL     MW 2688   1.882   1.697   1.302 -0.1100 -0.0349 -0.2761
  673SOL     OW 2689   2.789   1.108   0.626 -0.4568 -0.0934  0.0029
  673SOL    HW1 2690   2.826   1.027   0.651 -1.9588 -1.5412 -0.4612
  673SOL    HW2 2691   2.865   1.170   0.623 -0.2121  1.3607  0.3400
  673SOL     MW 2692   2.804   1.106   0.629 -0.6227 -0.0926 -0.0139
  674SOL     OW 2693   2.448   0.010   1.250  0.1492 -0.1143  0.1243
  674SOL    HW1 2694   2.392   0.010   1.170 -1.0382  1.4411  5.3068
  674SOL    HW2 2695   2.463  -0.086   1.261  0.8132 -0.6397 -0.5837
  674SOL     MW 2696   2.442  -0.003   1.241  0.0802  0.0216  0.7147
  675SOL     OW 2697   3.011   0.884   1.099 -0.7692  0.3407 -0.3017
  675SOL    HW1 2698   3.071   0.878   1.173 -2.1391  0.5613 -1.3976
  675SOL    HW2 2699   3.044   0.952   1.046  0.6452 -0.0533 -3.5006
  675SOL     MW 2700   3.023   0.892   1.102 -0.7634  0.3178 -0.8683
  676SOL     OW 2701   2.978   1.461   1.692  0.1422 -0.4299  0.7920
  676SOL    HW1 2702   2.919   1.390   1.692  1.5327 -2.1358  0.2193
  676SOL    HW2 2703   3.005   1.446   1.779  1.7015  0.1719 -1.8036
  676SOL     MW 2704   2.974   1.449   1.703  0.5314 -0.5756  0.3740
  677SOL     OW 2705   2.360   0.595   2.008 -0.4194 -0.2184  0.3698
  677SOL    HW1 2706   2.303   0.553   1.948 -0.9909  0.6077 -0.6681
  677SOL    HW2 2707   2.338   0.693   2.008  0.4351  0.2866  3.4534
  677SOL     MW 2708   2.350   0.602   2.000 -0.3820 -0.0428  0.6397
  678SOL     OW 2709   2.484   1.705   0.343  0.0631 -0.4443  0.3609
  678SOL    HW1 2710   2.397   1.735   0.370 -0.1543 -3.5560  1.6674
  678SOL    HW2 2711   2.468   1.622   0.308 -0.4192  1.7966  0.9464
  678SOL     MW 2712   2.470   1.698   0.342 -0.0292 -0.5592  0.6105
  679SOL     OW 2713   2.201   0.472   1.341 -0.4904 -0.0111 -0.0038
  679SOL    HW1 2714   2.196   0.384   1.300  1.9368 -0.1848 -0.0539
  679SOL    HW2 2715   2.121   0.492   1.397  0.7877 -2.3585  2.3606
  679SOL     MW 2716   2.190   0.463   1.343 -0.0015 -0.3437  0.3015
  680SOL     OW 2717   2.378   0.180   1.467 -0.3721  0.3093  0.7753
  680SOL    HW1 2718   2.291   0.212   1.455  1.8254 -2.2658 -0.2602
  680SOL    HW2 2719   2.399   0.108   1.407  1.5606 -2.5199 -1.7881
  680SOL     MW 2720   2.369   0.174   1.458  0.1728 -0.4037  0.3005
  681SOL     OW 2721   0.288   0.606   1.577 -0.0264  0.7629 -0.1073
  681SOL    HW1 2722   0.259   0.549   1.652 -0.2920 -0.8890  3.0428
  681SOL    HW2 2723   0.327   0.549   1.512 -0.8099  0.8108  0.2181
  681SOL     MW 2724   0.289   0.591   1.578 -0.1649  0.5512  0.3513
  682SOL     OW 2725   0.153   2.802   1.542  0.2286 -0.0132 -0.7509
  682SOL    HW1 2726   0.217   2.870   1.577  0.3265  0.3093 -1.4150
  682SOL    HW2 2727   0.078   2.857   1.525 -3.3115 -1.1133  0.9053
  682SOL     MW 2728   0.152   2.818   1.545 -0.2256 -0.1158 -0.6200
  683SOL     OW 2729   2.071   0.814   2.964 -0.1386  0.2397  0.3112
  683SOL    HW1 2730   1.977   0.782   2.959 -1.1953  0.2741 -0.0357
  683SOL    HW2 2731   2.067   0.900   3.021 -0.2936  0.8774 -0.7057
  683SOL     MW 2732   2.058   0.821   2.971 -0.2985  0.3284  0.1313
  684SOL     OW 2733   2.239   1.664   0.696 -0.2258 -0.1844 -0.0630
  684SOL    HW1 2734   2.231   1.622   0.608  0.8629  1.6999 -2.4937
  684SOL    HW2 2735   2.231   1.603   0.770  1.6051  0.3904 -1.4773
  684SOL     MW 2736   2.237   1.651   0.694  0.1594  0.1400 -0.5703
  685SOL     OW 2737   2.684   1.702   1.276  0.8135 -0.1048  0.2288
  685SOL    HW1 2738   2.749   1.686   1.344  1.4146 -1.3431 -0.1311
  685SOL    HW2 2739   2.651   1.610   1.257  0.5258 -2.0878 -1.9119
  685SOL     MW 2740   2.688   1.688   1.283  0.8549 -0.5298 -0.1011
  686SOL     OW 2741   2.885   0.730   1.446 -0.4784 -0.4088 -0.5811
  686SOL    HW1 2742   2.876   0.662   1.518  2.1286 -0.3025  2.8140
  686SOL    HW2 2743   2.979   0.748   1.448 -3.4560 -0.4035 -0.1841
  686SOL     MW 2744   2.896   0.724   1.456 -0.5273 -0.3941 -0.0807
  687SOL     OW 2745   2.148   0.211   1.207 -0.1863  0.1140 -0.2202
  687SOL    HW1 2746   2.196   0.160   1.144 -0.3070 -0.7699  1.4253
  687SOL    HW2 2747   2.073   0.249   1.158  2.7469 -1.3453 -0.7131
  687SOL     MW 2748   2.144   0.209   1.192  0.1848 -0.1952 -0.0681
  688SOL     OW 2749   2.403   0.575   1.461 -0.5311  0.3831 -0.0062
  688SOL    HW1 2750   2.341   0.510   1.420  1.7065 -0.5546 -2.0615
  688SOL    HW2 2751   2.350   0.648   1.498 -1.0406 -1.6860  1.0358
  688SOL     MW 2752   2.388   0.576   1.460 -0.3031 -0.0136 -0.1399
  689SOL     OW 2753   2.440   0.708   2.906 -0.3062  0.0107 -0.5035
  689SOL    HW1 2754   2.451   0.792   2.863 -0.0757  1.8594  0.1350
  689SOL    HW2 2755   2.507   0.713   2.968 -2.6205 -0.3335 -2.2620
  689SOL     MW 2756   2.450   0.720   2.909 -0.5811  0.2092 -0.6513
  690SOL     OW 2757   1.995   0.859   1.897  0.0162  0.4314 -0.2821
  690SOL    HW1 2758   1.958   0.774   1.928  0.6831 -0.6708 -1.6489
  690SOL    HW2 2759   1.994   0.849   1.805 -0.3362 -1.1006  0.7817
  690SOL     MW 2760   1.990   0.846   1.889  0.0577  0.0838 -0.3221
  691SOL     OW 2761   2.373   0.228   0.846  0.2040  0.7023 -0.5541
  691SOL    HW1 2762   2.451   0.270   0.881 -0.8377 -1.6689  0.9074
  691SOL    HW2 2763   2.302   0.280   0.880 -0.0745 -2.5794  3.7783
  691SOL     MW 2764   2.374   0.240   0.855  0.0298 -0.0435  0.2104
  692SOL     OW 2765   2.863   1.646   1.456 -0.4611  0.0140  0.0294
  692SOL    HW1 2766   2.884   1.600   1.540 -0.3453 -4.1016  1.9207
  692SOL    HW2 2767   2.887   1.737   1.473  1.0480 -0.6992  1.2519
  692SOL     MW 2768   2.869   1.652   1.470 -0.2467 -0.6231  0.4403
  693SOL     OW 2769   2.255   0.409   0.098  0.5354  0.0688 -0.6882
  693SOL    HW1 2770   2.182   0.368   0.048  0.1916 -0.4552 -0.7594
  693SOL    HW2 2771   2.266   0.497   0.066 -1.5300 -2.0058  1.2039
  693SOL     MW 2772   2.247   0.415   0.087  0.2175 -0.2741 -0.4480
  694SOL     OW 2773   1.897   1.202   1.154 -0.0398 -0.3922 -1.1006
  694SOL    HW1 2774   1.993   1.196   1.172  1.3263 -1.0646 -2.0566
  694SOL    HW2 2775   1.874   1.107   1.169  3.8032 -2.2051  0.6311
  694SOL     MW 2776   1.906   1.189   1.158  0.6475 -0.7201 -0.9983
  695SOL     OW 2777   3.031   1.468   1.299 -0.1900 -0.8770  0.6305
  695SOL    HW1 2778   2.993   1.466   1.209  0.8104 -0.6791  0.8495
  695SOL    HW2 2779   2.977   1.537   1.349  1.3704  1.2586  2.8842
  695SOL     MW 2780   3.018   1.477   1.294  0.1479 -0.5691  0.9567
  696SOL     OW 2781   2.081   1.365   0.809  0.4782  0.0092 -0.5536
  696SOL    HW1 2782   2.102   1.443   0.869 -0.7975  1.6553  0.7623
  696SOL    HW2 2783   2.023   1.304   0.857 -1.7707 -3.1689  1.9501
  696SOL     MW 2784   2.077   1.367   0.823  0.0131 -0.1929 -0.0496
  697SOL     OW 2785   2.880   1.016   2.208  0.0311 -0.1870  0.7651
  697SOL    HW1 2786   2.824   1.087   2.196  1.1305 -1.9132  2.9101
  697SOL    HW2 2787   2.840   0.935   2.173 -1.2790  2.0848 -0.6830
  697SOL     MW 2788   2.867   1.015   2.202  0.0033 -0.1150  0.8570
  698SOL     OW 2789   2.546   0.349   0.037  0.0855  0.3697 -0.2196
  698SOL    HW1 2790   2.447   0.351   0.050 -2.0966 -0.4035  0.3670
  698SOL    HW2 2791   2.565   0.287   0.105 -0.1987 -0.8040  1.3907
  698SOL     MW 2792   2.535   0.341   0.047 -0.2399  0.1128  0.0702
  699SOL     OW 2793   1.857   1.591   2.057  0.0205 -0.2035 -0.3733
  699SOL    HW1 2794   1.818   1.503   2.043  0.6846  0.0764 -0.3869
  699SOL    HW2 2795   1.949   1.562   2.041  2.6554 -1.9371  0.8733
  699SOL     MW 2796   1.864   1.575   2.053  0.4558 -0.3953 -0.2106
  700SOL     OW 2797   2.743   0.932   1.537 -0.0216 -0.5281  0.5801
  700SOL    HW1 2798   2.766   1.003   1.479  2.9822 -0.0638 -0.3123
  700SOL    HW2 2799   2.785   0.855   1.499 -1.3699  0.8995 -3.4058
  700SOL     MW 2800   2.751   0.931   1.524  0.1968 -0.2785 -0.0635
  701SOL     OW 2801   1.678   1.198   2.462  0.4473 -0.2739  0.4043
  701SOL    HW1 2802   1.770   1.185   2.478  1.9857  0.0114 -0.7337
  701SOL    HW2 2803   1.658   1.258   2.540  0.9517 -1.1640  0.9503
  701SOL     MW 2804   1.688   1.204   2.474  0.7169 -0.3537  0.3262
  702SOL     OW 2805   2.132   0.415   0.847 -0.1989 -0.1258 -0.2018
  702SOL    HW1 2806   2.104   0.342   0.793  1.1991 -0.7695 -0.1356
  702SOL    HW2 2807   2.194   0.470   0.789 -0.1273  0.0236 -0.6991
  702SOL     MW 2808   2.137   0.413   0.832 -0.0050 -0.1910 -0.2587
  703SOL     OW 2809   2.705   1.242   1.050 -0.1535  0.6108 -0.5416
  703SOL    HW1 2810   2.653   1.236   0.968 -0.4898 -0.1354 -2.1520
  703SOL    HW2 2811   2.721   1.150   1.080 -3.4337  3.2309  0.1222
  703SOL     MW 2812   2.700   1.229   1.043 -0.6307  0.8581 -0.6665
  704SOL     OW 2813   0.012   1.183   0.114 -0.4126  0.8378  0.7427
  704SOL    HW1 2814  -0.076   1.195   0.074  1.2556  2.8942  0.2958
  704SOL    HW2 2815   0.007   1.178   0.208  0.9486 -2.9069 -1.5182
  704SOL     MW 2816  -0.000   1.184   0.121 -0.0129  0.6151  0.3854
  705SOL     OW 2817   2.183   1.635   1.261  0.3973 -0.3782 -0.0038
  705SOL    HW1 2818   2.117   1.668   1.322 -0.4432  1.1103  1.2707
  705SOL    HW2 2819   2.185   1.538   1.276 -0.3238 -0.8747  2.1455
  705SOL     MW 2820   2.175   1.627   1.271  0.1912 -0.2473  0.4480
  706SOL     OW 2821   3.022   1.244   0.656 -0.3687 -0.1210  0.2139
  706SOL    HW1 2822   3.078   1.234   0.570 -0.1966 -2.3718 -2.0542
  706SOL    HW2 2823   2.985   1.333   0.653 -2.5408  0.5368  1.5104
  706SOL     MW 2824   3.025   1.254   0.644 -0.6326 -0.3312  0.0857
  707SOL     OW 2825   2.281   0.051   1.030  0.1150 -0.1055  0.0818
  707SOL    HW1 2826   2.323   0.119   0.973 -0.7442 -0.1553  1.9616
  707SOL    HW2 2827   2.234  -0.006   0.969  0.1183  0.6362  0.9486
  707SOL     MW 2828   2.280   0.053   1.015  0.0021 -0.0142  0.4442
  708SOL     OW 2829   2.397   1.452   0.205 -0.4696  0.1228 -0.1217
  708SOL    HW1 2830   2.475   1.396   0.192 -0.2702  0.7548 -0.7206
  708SOL    HW2 2831   2.387   1.488   0.117  3.3236 -0.9270 -1.5414
  708SOL     MW 2832   2.406   1.449   0.192  0.0572  0.0677 -0.3880
  709SOL     OW 2833   1.767   1.655   0.246  0.4975  0.5361  0.7014
  709SOL    HW1 2834   1.770   1.651   0.150 -0.7477 -0.0077  0.2095
  709SOL    HW2 2835   1.675   1.652   0.274 -0.0216  0.5113 -0.7334
  709SOL     MW 2836   1.755   1.654   0.237  0.2648  0.4611  0.4472
  710SOL     OW 2837   2.162   1.107   1.171  0.0348 -0.9463  0.3278
  710SOL    HW1 2838   2.187   1.088   1.077 -1.1310 -2.0535  1.0606
  710SOL    HW2 2839   2.198   1.036   1.218 -2.4380  1.2329  0.5398
  710SOL     MW 2840   2.170   1.095   1.165 -0.4453 -0.8049  0.4525
  711SOL     OW 2841   2.312   0.135   1.760 -0.0893 -0.6793 -0.2352
  711SOL    HW1 2842   2.398   0.131   1.806  0.4011 -1.2431  0.5129
  711SOL    HW2 2843   2.335   0.134   1.663 -1.0365  0.5232 -0.6698
  711SOL     MW 2844   2.327   0.134   1.753 -0.1496 -0.5951 -0.1938
  712SOL     OW 2845   1.893   0.633   0.035 -0.3821  0.1040 -1.3181
  712SOL    HW1 2846   1.827   0.695   0.001 -0.8983  3.5336 -1.3629
  712SOL    HW2 2847   1.941   0.674   0.106 -0.3782  0.9466 -0.3227
  712SOL     MW 2848   1.891   0.647   0.040 -0.4497  0.6677 -1.1927
  713SOL     OW 2849   2.558   0.801   1.088 -0.5508 -0.7302 -0.3496
  713SOL    HW1 2850   2.570   0.712   1.116  1.5266 -3.0101  1.0779
  713SOL    HW2 2851   2.476   0.832   1.111 -1.1709 -1.9496  1.9745
  713SOL     MW 2852   2.549   0.793   1.094 -0.3585 -1.1919  0.1454
  714SOL     OW 2853   2.175   0.173   1.984 -0.6426 -0.3370 -0.0254
  714SOL    HW1 2854   2.231   0.148   2.061 -1.1066 -0.5100  1.0598
  714SOL    HW2 2855   2.217   0.150   1.897 -0.8241 -0.1704  3.2104
  714SOL     MW 2856   2.188   0.167   1.983 -0.7278 -0.3379  0.5448
  715SOL     OW 2857   1.786   1.953   1.720  0.5739  0.8598 -0.4216
  715SOL    HW1 2858   1.869   1.921   1.680  2.9082 -1.4945 -1.1281
  715SOL    HW2 2859   1.772   1.894   1.797  2.3848  1.1804 -0.0938
  715SOL     MW 2860   1.795   1.941   1.725  1.1208  0.5914 -0.4716
  716SOL     OW 2861   2.316   0.589   0.723 -0.3063 -0.4345 -0.2840
  716SOL    HW1 2862   2.368   0.532   0.668  0.8908 -0.5511  2.2614
  716SOL    HW2 2863   2.264   0.645   0.664 -1.0561  0.1971  0.9487
  716SOL     MW 2864   2.316   0.589   0.708 -0.2473 -0.3665  0.2145
  717SOL     OW 2865   2.846   1.585   2.860 -0.5444 -0.0817  0.1635
  717SOL    HW1 2866   2.915   1.532   2.909 -0.2912 -0.9009  1.9926
  717SOL    HW2 2867   2.831   1.653   2.926  0.8156 -2.6640  2.3753
  717SOL     MW 2868   2.853   1.587   2.875 -0.3315 -0.5305  0.6966
  718SOL     OW 2869   2.708   1.402   1.361 -0.2550  0.0300  0.6523
  718SOL    HW1 2870   2.689   1.443   1.445  2.1939 -2.4247  0.9861
  718SOL    HW2 2871   2.721   1.306   1.375 -1.7840 -1.2450 -1.0086
  718SOL     MW 2872   2.707   1.395   1.374 -0.1337 -0.4621  0.4772
  719SOL     OW 2873   2.205   1.258   0.587 -0.4176  0.3620 -0.4312
  719SOL    HW1 2874   2.296   1.284   0.575 -2.8766 -1.7973  0.3103
  719SOL    HW2 2875   2.171   1.283   0.674 -1.0534 -0.5553 -1.5456
  719SOL     MW 2876   2.213   1.265   0.597 -0.8259 -0.0439 -0.4804
  720SOL     OW 2877   2.851   1.215   0.047  0.4890  0.1992 -0.0387
  720SOL    HW1 2878   2.830   1.119   0.071  2.1024 -2.4970 -0.8851
  720SOL    HW2 2879   2.775   1.258   0.087  0.4970  0.7297 -3.0808
  720SOL     MW 2880   2.838   1.208   0.055  0.7029 -0.0866 -0.5517
  721SOL     OW 2881   2.491   0.885   1.398 -0.1634  0.0990  0.0452
  721SOL    HW1 2882   2.498   0.817   1.460  2.7760  2.0671  0.3991
  721SOL    HW2 2883   2.576   0.928   1.413 -0.9024  0.2202 -1.2890
  721SOL     MW 2884   2.503   0.881   1.408  0.1269  0.3747 -0.0841
  722SOL     OW 2885   2.564   1.085   0.443  0.2392 -0.0268  0.7871
  722SOL    HW1 2886   2.515   1.144   0.494 -1.6482  0.6611 -0.7421
  722SOL    HW2 2887   2.623   1.050   0.513  3.5761 -0.5068  1.6359
  722SOL     MW 2888   2.565   1.088   0.459  0.4304  0.0006  0.6973
  723SOL     OW 2889   2.328   1.394   1.581 -0.1674 -0.4035 -0.3066
  723SOL    HW1 2890   2.335   1.388   1.486  0.1145 -0.2977 -1.4809
  723SOL    HW2 2891   2.248   1.446   1.607 -1.7343 -0.0812  1.2196
  723SOL     MW 2892   2.318   1.400   1.572 -0.3369 -0.3470 -0.2602
  724SOL     OW 2893   2.459   0.378   0.581  0.5533 -0.3409 -0.2143
  724SOL    HW1 2894   2.451   0.309   0.648 -0.5903 -2.7051 -2.8626
  724SOL    HW2 2895   2.546   0.374   0.551 -0.3418  1.3329 -0.9831
  724SOL     MW 2896   2.469   0.368   0.586  0.2843 -0.4320 -0.6651
  725SOL     OW 2897   2.602   0.531   1.188  0.6905 -0.0663 -0.2105
  725SOL    HW1 2898   2.695   0.521   1.203 -1.0765 -0.3112  1.7595
  725SOL    HW2 2899   2.562   0.528   1.278  2.2351 -1.8144  0.2099
  725SOL     MW 2900   2.609   0.529   1.202  0.6612 -0.3293  0.1049
  726SOL     OW 2901   2.581   2.482   0.556 -0.0403  0.4354 -0.0254
  726SOL    HW1 2902   2.505   2.502   0.498  0.3558 -0.9816 -2.8400
  726SOL    HW2 2903   2.551   2.475   0.645  2.5007  0.5358 -2.7091
  726SOL     MW 2904   2.567   2.484   0.560  0.3472  0.2617 -0.7509
  727SOL     OW 2905   2.869   0.328   1.760 -0.1904  0.3555 -0.2528
  727SOL    HW1 2906   2.810   0.330   1.686  0.4162 -2.3285  3.2435
  727SOL    HW2 2907   2.807   0.323   1.830  0.1401 -2.5590 -0.7802
  727SOL     MW 2908   2.853   0.327   1.759 -0.0667 -0.3832  0.1389
  728SOL     OW 2909   2.785   1.127   2.898  0.2410  0.0637 -0.1079
  728SOL    HW1 2910   2.800   1.193   2.828  1.4025 -1.8695 -2.8277
  728SOL    HW2 2911   2.804   1.168   2.981 -0.3413 -0.5864  0.3391
  728SOL     MW 2912   2.789   1.142   2.899  0.3174 -0.2771 -0.4078
  729SOL     OW 2913   2.489   1.446   1.182  0.2197 -0.0652  0.0726
  729SOL    HW1 2914   2.572   1.412   1.230  1.4753 -1.1589 -1.5721
  729SOL    HW2 2915   2.522   1.461   1.093 -1.1220 -1.4338 -0.7988
  729SOL     MW 2916   2.504   1.444   1.177  0.2083 -0.3901 -0.2594
  730SOL     OW 2917   2.290   1.177   0.203  0.2168 -0.2104  0.6343
  730SOL    HW1 2918   2.343   1.093   0.190 -2.1804 -2.3875 -0.6097
  730SOL    HW2 2919   2.355   1.251   0.207  0.0770  0.1954 -0.5003
  730SOL     MW 2920   2.306   1.176   0.202 -0.1179 -0.4441  0.3205
  731SOL     OW 2921   2.781   2.011   2.906 -0.0558  0.7544 -0.1466
  731SOL    HW1 2922   2.740   2.025   2.825  2.3134  1.4689  0.0756
  731SOL    HW2 2923   2.873   2.038   2.889  1.1246 -1.0117  1.7124
  731SOL     MW 2924   2.788   2.017   2.893  0.4125  0.6157  0.1280
  732SOL     OW 2925   2.231   0.879   1.355  0.1377  0.1006  0.0555
  732SOL    HW1 2926   2.180   0.913   1.429 -2.4664  0.6756 -2.5503
  732SOL    HW2 2927   2.326   0.880   1.374 -1.2124  0.6428 -2.2339
  732SOL     MW 2928   2.237   0.884   1.367 -0.3840  0.2480 -0.5904
  733SOL     OW 2929   2.356   2.816   2.986 -0.2117  0.0788  0.0586
  733SOL    HW1 2930   2.281   2.874   2.965 -0.0845 -1.3797  0.8901
  733SOL    HW2 2931   2.318   2.727   2.974  0.7412 -1.1548 -1.8661
  733SOL     MW 2932   2.341   2.812   2.981 -0.0692 -0.2764 -0.0857
  734SOL     OW 2933   1.440   0.317   2.440 -0.3664  0.3350  0.3759
  734SOL    HW1 2934   1.447   0.282   2.531 -0.6634 -2.0570  0.2444
  734SOL    HW2 2935   1.475   0.251   2.378 -0.1869 -0.5597  0.1966
  734SOL     MW 2936   1.446   0.304   2.443 -0.3819 -0.0987  0.3349
  735SOL     OW 2937   2.922   0.883   2.611  0.2644 -0.5023 -0.1991
  735SOL    HW1 2938   2.901   0.788   2.595  0.2670 -1.4702 -1.6031
  735SOL    HW2 2939   2.979   0.894   2.684 -0.6258 -1.2789 -1.9129
  735SOL     MW 2940   2.927   0.872   2.619  0.1473 -0.7324 -0.6105
  736SOL     OW 2941   0.084   0.604   2.517 -0.0210 -0.1387  0.1635
  736SOL    HW1 2942   0.106   0.687   2.476 -3.4189 -0.3832  1.8961
  736SOL    HW2 2943   0.081   0.542   2.440  0.9882 -0.0186  1.4599
  736SOL     MW 2944   0.086   0.607   2.501 -0.3362 -0.1551  0.5632
  737SOL     OW 2945   2.930   0.613   2.593 -0.3355 -0.2800  0.0288
  737SOL    HW1 2946   2.864   0.594   2.521 -1.6652 -0.8024 -0.7812
  737SOL    HW2 2947   3.016   0.603   2.550 -0.1836  2.9442 -1.0504
  737SOL     MW 2948   2.932   0.609   2.578 -0.4909  0.0764 -0.2205
  738SOL     OW 2949   0.139   0.614   1.962  1.2753  0.3826  0.3168
  738SOL    HW1 2950   0.232   0.599   1.967  0.0820 -1.7620 -0.2592
  738SOL    HW2 2951   0.113   0.526   1.939 -2.4160  1.9894 -1.3692
  738SOL     MW 2952   0.148   0.601   1.960  0.6309  0.3116  0.0183
  739SOL     OW 2953   2.481   0.977   2.047 -0.2514  0.1237  0.3178
  739SOL    HW1 2954   2.395   0.939   2.030  0.8674 -2.4859 -0.2444
  739SOL    HW2 2955   2.494   1.032   1.970 -1.4534 -0.0726 -1.6990
  739SOL     MW 2956   2.472   0.979   2.035 -0.2624 -0.2465 -0.0225
  740SOL     OW 2957   0.215   1.743   2.948 -0.5460  0.2367 -0.5905
  740SOL    HW1 2958   0.153   1.670   2.935 -0.2369  1.6411  0.8025
  740SOL    HW2 2959   0.302   1.704   2.948  0.5199 -1.9355  0.1985
  740SOL     MW 2960   0.218   1.729   2.946 -0.3646  0.1354 -0.3026
  741SOL     OW 2961   2.207   1.129   2.768  0.0152  0.3760 -0.1030
  741SOL    HW1 2962   2.116   1.108   2.775  0.3581  2.8355 -1.9169
  741SOL    HW2 2963   2.219   1.196   2.834  0.9022  3.3460 -3.6228
  741SOL     MW 2964   2.197   1.135   2.778  0.1775  1.0924 -0.8068
  742SOL     OW 2965   1.582   1.225   2.202  0.3580  0.2780  0.0576
  742SOL    HW1 2966   1.521   1.150   2.183 -0.9532  0.7355 -2.3213
  742SOL    HW2 2967   1.612   1.209   2.290  0.2911  1.3938 -0.6931
  742SOL     MW 2968   1.578   1.213   2.211  0.1762  0.4856 -0.3554
  743SOL     OW 2969   2.491   1.316   2.714 -0.1554  0.3154  0.0344
  743SOL    HW1 2970   2.391   1.314   2.727 -1.7931 -0.1322 -1.4250
  743SOL    HW2 2971   2.517   1.230   2.743  0.6167 -3.2473 -0.4859
  743SOL     MW 2972   2.481   1.304   2.720 -0.2696 -0.2137 -0.2268
  744SOL     OW 2973   2.772   0.921   1.836 -0.0932  0.2675  0.4658
  744SOL    HW1 2974   2.743   1.007   1.811  1.6357 -1.0828  3.9806
  744SOL    HW2 2975   2.751   0.873   1.757  1.7925 -0.9465  0.7523
  744SOL     MW 2976   2.765   0.926   1.823  0.3837 -0.0709  0.9673
  745SOL     OW 2977   1.694   0.426   2.503  0.3899 -0.3080 -0.0552
  745SOL    HW1 2978   1.690   0.484   2.424 -0.4837  2.3210  0.6747
  745SOL    HW2 2979   1.610   0.379   2.493  0.0566 -0.4531  0.2952
  745SOL     MW 2980   1.683   0.427   2.491  0.2306  0.0197  0.0873
  746SOL     OW 2981   1.593   1.478   1.626  0.8995  0.3194  0.5182
  746SOL    HW1 2982   1.686   1.443   1.628  0.0652 -2.0210  1.4209
  746SOL    HW2 2983   1.555   1.455   1.712 -0.1570 -0.0424 -0.1373
  746SOL     MW 2984   1.601   1.471   1.638  0.6501 -0.0371  0.5508
  747SOL     OW 2985   2.567   1.150   1.819  0.1557 -0.0456  0.0414
  747SOL    HW1 2986   2.477   1.150   1.781 -0.3617  0.2928  1.3258
  747SOL    HW2 2987   2.578   1.214   1.895  1.5735 -2.0506  1.4698
  747SOL     MW 2988   2.557   1.158   1.824  0.2745 -0.2655  0.3993
  748SOL     OW 2989   0.103  -0.002   1.830 -0.0394  1.3089 -0.1231
  748SOL    HW1 2990   0.192   0.046   1.835  1.3748  0.0231  0.7547
  748SOL    HW2 2991   0.071   0.019   1.922 -0.4041  0.2664  2.1791
  748SOL     MW 2992   0.111   0.007   1.843  0.0991  1.0017  0.2965
  749SOL     OW 2993   2.490   0.504   2.698  0.7315 -0.2080 -0.1310
  749SOL    HW1 2994   2.518   0.575   2.640  2.7639 -1.9235 -0.4329
  749SOL    HW2 2995   2.482   0.561   2.771  1.8775 -0.5836 -0.0246
  749SOL     MW 2996   2.493   0.521   2.700  1.1508 -0.4839 -0.1568
  750SOL     OW 2997   2.019   3.056   1.996  0.0211  0.3016 -0.0259
  750SOL    HW1 2998   2.058   3.142   2.006  1.3429 -2.0079  1.9303
  750SOL    HW2 2999   2.087   2.995   2.007 -3.1645 -0.7788 -0.1585
  750SOL     MW 3000   2.033   3.060   1.999 -0.2248 -0.1457  0.2147
  751SOL     OW 3001   0.054   0.425   2.319  0.6265  0.3760  0.4596
  751SOL    HW1 3002  -0.034   0.384   2.348  2.3570  1.3747  0.0983
  751SOL    HW2 3003   0.116   0.356   2.309  1.8042  3.0247  1.9146
  751SOL     MW 3004   0.051   0.410   2.322  1.0102  0.8573  0.6039
  752SOL     OW 3005   2.143   0.821   2.685 -0.0236 -0.6669 -0.1823
  752SOL    HW1 3006   2.221   0.863   2.646 -1.2082  1.5545 -0.2299
  752SOL    HW2 3007   2.163   0.804   2.778  0.1557  2.4919 -0.0111
  752SOL     MW 3008   2.156   0.824   2.692 -0.1562  0.0430 -0.1660
  753SOL     OW 3009   2.930   0.311   2.402  0.1322 -0.3025  0.1506
  753SOL    HW1 3010   2.884   0.241   2.359 -2.0676 -2.6517  1.6754
  753SOL    HW2 3011   2.869   0.366   2.451  0.5917 -2.0247  2.8721
  753SOL     MW 3012   2.916   0.309   2.403 -0.0974 -0.8397  0.7108
  754SOL     OW 3013   2.241   2.986   2.617 -0.4057 -0.4279  0.0352
  754SOL    HW1 3014   2.259   2.986   2.518  1.5984 -1.6494  1.2849
  754SOL    HW2 3015   2.321   2.951   2.654  0.5590 -0.7862 -3.6983
  754SOL     MW 3016   2.254   2.981   2.608 -0.0140 -0.6364 -0.2925
  755SOL     OW 3017   2.737   1.519   2.492  0.5689 -0.0217 -0.3390
  755SOL    HW1 3018   2.751   1.434   2.542 -0.6676 -0.4917  2.6694
  755SOL    HW2 3019   2.790   1.589   2.539 -0.1779  1.7515 -2.2259
  755SOL     MW 3020   2.746   1.517   2.505  0.3072  0.1503 -0.1910
  756SOL     OW 3021   2.251   1.275   2.994 -0.0665 -0.3251  0.3034
  756SOL    HW1 3022   2.305   1.358   3.003  0.4011  0.0523  2.1631
  756SOL    HW2 3023   2.312   1.200   3.022  1.2221 -0.1466 -0.3767
  756SOL     MW 3024   2.266   1.276   2.999  0.1652 -0.2517  0.4590
  757SOL     OW 3025   2.100   0.944   1.616  0.4568 -0.4422  0.2713
  757SOL    HW1 3026   2.141   0.856   1.611  0.4637 -0.9335 -0.8742
  757SOL    HW2 3027   2.008   0.929   1.588  0.6725 -1.4765 -0.8326
  757SOL     MW 3028   2.093   0.931   1.611  0.4862 -0.6435 -0.0255
  758SOL     OW 3029   2.195   1.755   2.659 -0.1067 -0.5621  0.4429
  758SOL    HW1 3030   2.154   1.767   2.567 -1.3667  0.0031 -2.0022
  758SOL    HW2 3031   2.292   1.749   2.648  0.1964 -0.2537  2.2100
  758SOL     MW 3032   2.203   1.756   2.645 -0.2330 -0.4469  0.3535
  759SOL     OW 3033   1.618   1.345   2.700  0.2819  0.1142 -0.4237
  759SOL    HW1 3034   1.602   1.437   2.670 -1.3008 -2.5944 -1.4511
  759SOL    HW2 3035   1.656   1.358   2.788 -0.0540  1.3212 -1.7511
  759SOL     MW 3036   1.621   1.359   2.707  0.0288 -0.0839 -0.7344
  760SOL     OW 3037   2.607   1.996   2.693  1.0759 -0.5664  0.5812
  760SOL    HW1 3038   2.562   1.912   2.665 -0.5642  2.4477 -1.6590
  760SOL    HW2 3039   2.589   2.063   2.626 -1.4611  0.4484 -2.2656
  760SOL     MW 3040   2.598   1.994   2.680  0.5248 -0.0348 -0.0900
  761SOL     OW 3041   2.173   0.413   2.455  0.0510 -0.4743 -0.4144
  761SOL    HW1 3042   2.085   0.372   2.459 -1.2005 -1.5685 -0.9169
  761SOL    HW2 3043   2.198   0.419   2.548  0.9125  1.6178  1.5791
  761SOL     MW 3044   2.165   0.408   2.468 -0.0005 -0.3426 -0.2176
  762SOL     OW 3045   0.050   0.155   2.049  0.0808 -0.0301  0.3098
  762SOL    HW1 3046   0.044   0.089   2.117 -1.6951 -1.4145 -0.3159
  762SOL    HW2 3047  -0.028   0.206   2.045  0.7947 -1.5193 -1.3185
  762SOL     MW 3048   0.039   0.153   2.058 -0.0593 -0.4093  0.0124
  763SOL     OW 3049   2.409   1.068   2.283  0.0133 -0.1583 -0.0239
  763SOL    HW1 3050   2.457   1.035   2.203  2.8632 -0.4336 -0.0502
  763SOL    HW2 3051   2.471   1.138   2.321 -1.0225 -2.3357  0.6091
  763SOL     MW 3052   2.424   1.073   2.277  0.2526 -0.4819  0.0561
  764SOL     OW 3053   0.444   0.312   2.794 -0.2124  0.2352 -0.1682
  764SOL    HW1 3054   0.353   0.282   2.777 -4.5577  1.2973  1.5858
  764SOL    HW2 3055   0.428   0.366   2.872  1.1745  0.5391  0.2390
  764SOL     MW 3056   0.430   0.315   2.802 -0.6027  0.4154  0.1169
  765SOL     OW 3057   2.764   0.085   2.314 -0.5828  0.0815  0.1904
  765SOL    HW1 3058   2.731   0.074   2.225 -0.2269  1.1712 -0.5102
  765SOL    HW2 3059   2.802  -0.001   2.340 -1.3893  0.9976  0.4046
  765SOL     MW 3060   2.765   0.073   2.306 -0.6422  0.3462  0.1262
  766SOL     OW 3061   1.871   2.989   2.217 -0.2277 -0.0758 -0.7965
  766SOL    HW1 3062   1.916   3.040   2.150 -1.7264  0.6804  0.1602
  766SOL    HW2 3063   1.797   2.940   2.171 -1.6882 -1.4159 -0.9703
  766SOL     MW 3064   1.868   2.989   2.202 -0.6181 -0.1528 -0.6932
  767SOL     OW 3065   2.623   0.625   1.896  0.5003  0.1576 -0.2691
  767SOL    HW1 3066   2.665   0.668   1.972  0.0803  1.6546 -1.8032
  767SOL    HW2 3067   2.528   0.619   1.916  0.4529  1.5537 -0.5988
  767SOL     MW 3068   2.616   0.630   1.909  0.4386  0.5394 -0.5150
  768SOL     OW 3069   0.045   1.536   2.948 -0.2697  0.1461 -0.7584
  768SOL    HW1 3070   0.039   1.500   3.042 -0.5619 -1.8762  0.4528
  768SOL    HW2 3071   0.032   1.450   2.892  0.6791  0.1789 -0.0798
  768SOL     MW 3072   0.043   1.520   2.953 -0.1830 -0.1164 -0.5091
  769SOL     OW 3073   2.377   0.683   2.318  0.4656 -0.0637  0.7757
  769SOL    HW1 3074   2.293   0.642   2.306 -0.9897 -1.2060 -0.1315
  769SOL    HW2 3075   2.437   0.643   2.256  1.8214 -1.2956 -1.4321
  769SOL     MW 3076   2.374   0.672   2.308  0.4525 -0.3770  0.3647
  770SOL     OW 3077   0.103   1.614   2.606  0.5837 -0.0591 -0.1652
  770SOL    HW1 3078   0.006   1.607   2.581 -0.4646 -0.2698  0.2921
  770SOL    HW2 3079   0.129   1.523   2.633  2.5998 -1.3177  1.3848
  770SOL     MW 3080   0.094   1.601   2.606  0.7114 -0.2530  0.0996
  771SOL     OW 3081   2.957   0.633   1.922 -0.0544 -0.3730 -0.0599
  771SOL    HW1 3082   2.935   0.631   1.829  1.5477 -0.5556 -1.6532
  771SOL    HW2 3083   3.044   0.671   1.919 -1.9237  0.7646  1.3282
  771SOL     MW 3084   2.966   0.638   1.909 -0.0897 -0.2470 -0.0870
  772SOL     OW 3085   3.095   3.091   2.285  0.0763  0.4141  0.6542
  772SOL    HW1 3086   3.025   3.055   2.339 -0.2554  0.5721  0.1308
  772SOL    HW2 3087   3.148   3.008   2.260  0.3360 -2.5499 -2.2194
  772SOL     MW 3088   3.093   3.075   2.289  0.0668  0.0438  0.2060
  773SOL     OW 3089   2.476   2.848   2.760  0.1423  0.0838 -0.2020
  773SOL    HW1 3090   2.455   2.767   2.710  0.6329  0.1365 -1.9729
  773SOL    HW2 3091   2.448   2.822   2.851  2.5876 -1.8672 -0.5833
  773SOL     MW 3092   2.470   2.834   2.765  0.5297 -0.1666 -0.4860
  774SOL     OW 3093   2.265   1.179   1.719 -0.1252 -0.3535 -0.8624
  774SOL    HW1 3094   2.279   1.257   1.657  0.3397  0.8651  1.0916
  774SOL    HW2 3095   2.206   1.118   1.681 -1.7305 -1.9202  0.0870
  774SOL     MW 3096   2.259   1.181   1.706 -0.2757 -0.3995 -0.4793
  775SOL     OW 3097   2.296   2.900   2.308  0.4703  0.2680  0.0757
  775SOL    HW1 3098   2.330   2.975   2.254 -2.9675  0.8468 -0.9937
  775SOL    HW2 3099   2.361   2.827   2.300 -2.8029 -3.5717  2.2544
  775SOL     MW 3100   2.309   2.900   2.300 -0.4151 -0.1623  0.2220
  776SOL     OW 3101   0.042   1.452   0.108  0.4361 -0.0266  0.0308
  776SOL    HW1 3102   0.140   1.430   0.107 -0.4123  1.9639  1.0720
  776SOL    HW2 3103   0.016   1.355   0.113 -1.5537 -1.6152 -0.6313
  776SOL     MW 3104   0.051   1.436   0.109  0.0616  0.0265  0.0808
  777SOL     OW 3105   2.996   1.072   1.759 -0.1666  0.2402 -0.2512
  777SOL    HW1 3106   2.933   1.128   1.718  0.8857 -0.7778 -1.5142
  777SOL    HW2 3107   2.938   1.006   1.808 -1.8093  1.1558  1.9802
  777SOL     MW 3108   2.980   1.070   1.760 -0.2445  0.2267 -0.1234
  778SOL     OW 3109   2.891   0.409   2.772  0.1311  0.4185  0.5284
  778SOL    HW1 3110   2.837   0.442   2.850  1.8462 -1.8825  1.4228
  778SOL    HW2 3111   2.896   0.481   2.709  1.4859 -1.2749  0.8077
  778SOL     MW 3112   2.885   0.423   2.774  0.5362 -0.1085  0.6832
  779SOL     OW 3113   2.105   0.623   2.305  0.0319  0.1792 -0.1749
  779SOL    HW1 3114   2.039   0.681   2.357  2.4875 -1.2246  1.1913
  779SOL    HW2 3115   2.102   0.551   2.360  2.8743  4.2681  3.2328
  779SOL     MW 3116   2.096   0.621   2.319  0.7309  0.5335  0.4550
  780SOL     OW 3117   0.214   0.110   2.811 -0.0338 -0.4276  0.1155
  780SOL    HW1 3118   0.186   0.180   2.871  2.7849 -1.0253  0.1259
  780SOL    HW2 3119   0.172   0.118   2.727  3.3375 -0.7009 -0.3378
  780SOL     MW 3120   0.204   0.120   2.808  0.7829 -0.5426  0.0570
  781SOL     OW 3121   3.017   1.295   2.509 -0.3066 -0.1449 -0.5293
  781SOL    HW1 3122   2.996   1.359   2.443  1.7216 -2.5416  0.1736
  781SOL    HW2 3123   3.028   1.211   2.466 -1.0134  0.4401  1.5132
  781SOL     MW 3124   3.016   1.292   2.495 -0.1323 -0.3839 -0.1671
  782SOL     OW 3125   0.655   1.545   0.011 -0.3395 -0.2182 -0.4426
  782SOL    HW1 3126   0.604   1.604  -0.043 -2.0349  0.3919  0.1066
  782SOL    HW2 3127   0.598   1.529   0.087 -2.7187  0.4534  2.0881
  782SOL     MW 3128   0.641   1.551   0.014 -0.8771 -0.0491 -0.0363
  783SOL     OW 3129   2.718   0.492   2.449 -0.2048  0.6176  0.4056
  783SOL    HW1 3130   2.675   0.470   2.363  0.4840  1.8060 -0.0594
  783SOL    HW2 3131   2.671   0.449   2.523  0.4367  0.8157  1.2940
  783SOL     MW 3132   2.706   0.483   2.447 -0.0293  0.8006  0.4614
  784SOL     OW 3133   0.275   0.909   2.872 -0.4369  0.0557 -0.0225
  784SOL    HW1 3134   0.229   0.992   2.900  1.3551 -0.5991  2.2594
  784SOL    HW2 3135   0.315   0.924   2.782 -2.3459 -1.4804  3.0528
  784SOL     MW 3136   0.274   0.922   2.864 -0.4523 -0.2333  0.6843
  785SOL     OW 3137   0.439   0.545   2.183  0.1367  0.5409 -0.3381
  785SOL    HW1 3138   0.438   0.587   2.098 -0.6414  0.6423 -2.5021
  785SOL    HW2 3139   0.377   0.473   2.192  3.2821  1.2012  3.7581
  785SOL     MW 3140   0.431   0.541   2.173  0.4490  0.6414 -0.0832
  786SOL     OW 3141   1.948   0.493   2.886  0.1932  0.1567  0.2338
  786SOL    HW1 3142   1.968   0.529   2.965  1.3329 -0.8861 -3.2110
  786SOL    HW2 3143   2.032   0.472   2.847 -5.7881  0.3069 -2.7282
  786SOL     MW 3144   1.962   0.495   2.891 -0.4456  0.0390 -0.6115
  787SOL     OW 3145   2.430   0.130   2.962  0.1641  0.0654  0.0731
  787SOL    HW1 3146   2.482   0.080   2.896  0.8365  0.4988  2.6284
  787SOL    HW2 3147   2.493   0.190   3.002 -0.3096 -0.5502 -2.3232
  787SOL     MW 3148   2.445   0.131   2.959  0.1903  0.0414  0.0940
  788SOL     OW 3149   2.863   2.939   2.381 -0.1891  0.3893  0.3468
  788SOL    HW1 3150   2.770   2.903   2.366 -0.6328 -2.4607 -2.5961
  788SOL    HW2 3151   2.926   2.870   2.368 -1.5783 -1.8190  0.5660
  788SOL     MW 3152   2.859   2.925   2.378 -0.4309 -0.2781 -0.0125
  789SOL     OW 3153   0.116   0.313   2.968  0.2707  0.0765 -0.0380
  789SOL    HW1 3154   0.038   0.270   3.013 -0.5607  2.4177 -0.8478
  789SOL    HW2 3155   0.072   0.388   2.929 -2.8212 -0.8272 -2.1782
  789SOL     MW 3156   0.100   0.317   2.969 -0.2470  0.2662 -0.4272
  790SOL     OW 3157   3.029   1.049   2.423  0.1005 -0.7526 -0.2929
  790SOL    HW1 3158   2.982   0.999   2.488 -0.5896 -3.1102 -1.0535
  790SOL    HW2 3159   2.972   1.037   2.345  3.0567 -0.1228 -0.5820
  790SOL     MW 3160   3.015   1.041   2.421  0.3995 -0.9806 -0.4314
  791SOL     OW 3161   2.668   0.303   2.654  0.0516 -0.1830 -0.0044
  791SOL    HW1 3162   2.594   0.352   2.688  2.6207  0.9839 -3.7054
  791SOL    HW2 3163   2.744   0.337   2.698 -0.7386  0.3532 -1.6157
  791SOL     MW 3164   2.668   0.314   2.664  0.2863  0.0417 -0.7053
  792SOL     OW 3165   2.374   0.232   2.350  0.2918 -0.5500 -0.0273
  792SOL    HW1 3166   2.314   0.305   2.374 -0.0397 -1.0348  0.5682
  792SOL    HW2 3167   2.407   0.201   2.432  1.2521 -0.3615 -0.3652
  792SOL     MW 3168   2.370   0.238   2.364  0.3748 -0.5891  0.0067
  793SOL     OW 3169   1.860   1.080   1.945 -0.0711  0.0994 -0.0820
  793SOL    HW1 3170   1.841   1.094   1.857 -0.7246  1.5162  2.7708
  793SOL    HW2 3171   1.905   0.994   1.947  0.3499  2.5653  0.0109
  793SOL     MW 3172   1.864   1.071   1.934 -0.1018  0.6117  0.3066
  794SOL     OW 3173   1.439   2.282   0.152 -0.3585  0.5704 -0.1520
  794SOL    HW1 3174   1.463   2.346   0.082  0.2014  1.1808 -3.9451
  794SOL    HW2 3175   1.478   2.308   0.236 -1.1452 -0.8351  0.5062
  794SOL     MW 3176   1.447   2.294   0.154 -0.3885  0.4655 -0.5656
  795SOL     OW 3177   2.354   0.967   2.557 -0.0385 -0.0813  0.0942
  795SOL    HW1 3178   2.306   1.027   2.611 -0.0776 -0.5779 -2.1544
  795SOL    HW2 3179   2.385   1.012   2.474 -1.9655 -0.8489 -3.4512
  795SOL     MW 3180   2.351   0.981   2.553 -0.2979 -0.2481 -0.6703
  796SOL     OW 3181   0.226   0.623   2.800 -0.0166  0.4964  0.4518
  796SOL    HW1 3182   0.198   0.704   2.833  0.8714  0.6475 -2.9092
  796SOL    HW2 3183   0.183   0.605   2.716 -1.0542  3.1745  1.3751
  796SOL     MW 3184   0.217   0.631   2.793 -0.0364  0.8697  0.1302
  797SOL     OW 3185   2.577   0.100   2.515  0.6030  0.8732 -0.2194
  797SOL    HW1 3186   2.607   0.176   2.567 -1.0191 -3.9931 -3.0331
  797SOL    HW2 3187   2.640   0.088   2.440 -0.0063 -1.5464  1.0322
  797SOL     MW 3188   2.589   0.108   2.512  0.3086 -0.0881 -0.4255
  798SOL     OW 3189   2.354   0.049   2.167  0.3165 -0.1171  0.0358
  798SOL    HW1 3190   2.353   0.129   2.229  1.7924 -0.5748 -1.1844
  798SOL    HW2 3191   2.438   0.061   2.132 -1.6331  0.4771  2.0527
  798SOL     MW 3192   2.365   0.061   2.171  0.2540 -0.0991  0.1409
  799SOL     OW 3193   2.456   2.914   0.136  0.0589 -0.2028  0.3012
  799SOL    HW1 3194   2.406   2.868   0.069 -0.0122  1.7366  1.2112
  799SOL    HW2 3195   2.398   2.983   0.167 -0.3833  1.4524  0.3274
  799SOL     MW 3196   2.442   2.917   0.131 -0.0088  0.2714  0.4247
  800SOL     OW 3197   1.833   0.020   1.812  0.1707 -0.2637  0.1462
  800SOL    HW1 3198   1.771  -0.055   1.808 -1.2999  1.8885  1.1044
  800SOL    HW2 3199   1.904  -0.003   1.872  0.4824 -0.2246 -0.8424
  800SOL     MW 3200   1.834   0.007   1.819  0.0178  0.0254  0.1422
  801SOL     OW 3201   2.786   1.262   2.646 -0.3432  0.3190  0.4472
  801SOL    HW1 3202   2.764   1.183   2.587  1.6081 -0.9715 -3.1502
  801SOL    HW2 3203   2.873   1.282   2.615 -4.8805  0.0981  1.4482
  801SOL     MW 3204   2.794   1.254   2.634 -0.6844  0.1196  0.1047
  802SOL     OW 3205   2.564   1.567   2.818  0.0238  0.4732  0.4083
  802SOL    HW1 3206   2.549   1.480   2.767  1.5879  1.0802 -0.8297
  802SOL    HW2 3207   2.664   1.572   2.825  1.9487  0.1313 -0.1978
  802SOL     MW 3208   2.575   1.556   2.812  0.4842  0.5082  0.1650
  803SOL     OW 3209   2.293   1.339   1.943  0.3922 -0.0557  0.3929
  803SOL    HW1 3210   2.274   1.335   2.033  0.5153 -0.4959  3.3118
  803SOL    HW2 3211   2.278   1.251   1.909 -1.4312  0.0703  2.0472
  803SOL     MW 3212   2.289   1.327   1.950  0.1679 -0.0972  0.9963
  804SOL     OW 3213   2.275   0.033   0.077 -0.6646  0.2564  0.0882
  804SOL    HW1 3214   2.191   0.082   0.085  1.7936  1.0714 -0.3276
  804SOL    HW2 3215   2.330   0.081   0.017 -1.0405  0.6013  1.7017
  804SOL     MW 3216   2.272   0.046   0.070 -0.3899  0.4094  0.2462
  805SOL     OW 3217   2.719   1.050   2.518 -0.1678 -0.0717  0.1715
  805SOL    HW1 3218   2.703   1.008   2.436 -0.9212  1.0573 -0.9193
  805SOL    HW2 3219   2.769   0.989   2.571  3.1070  1.0040 -0.4073
  805SOL     MW 3220   2.724   1.037   2.514  0.1648  0.2192 -0.0488
  806SOL     OW 3221   2.571   0.399   2.236  0.3766  0.3330  0.4628
  806SOL    HW1 3222   2.514   0.325   2.266  0.2261 -3.3629  0.9929
  806SOL    HW2 3223   2.610   0.373   2.150  1.3716 -0.7096  0.5600
  806SOL     MW 3224   2.568   0.386   2.228  0.4880 -0.2922  0.5456
  807SOL     OW 3225   0.049   1.136   2.036 -0.6494 -0.5220 -0.6523
  807SOL    HW1 3226   0.086   1.044   2.003 -1.6948 -0.4580  0.3775
  807SOL    HW2 3227  -0.033   1.113   2.068  2.2640  0.7379  0.4271
  807SOL     MW 3228   0.043   1.121   2.036 -0.4029 -0.3473 -0.3740
  808SOL     OW 3229   2.565   3.098   2.774 -0.2686 -0.3418  0.1773
  808SOL    HW1 3230   2.542   3.003   2.769  1.2654  0.1932 -2.0489
  808SOL    HW2 3231   2.562   3.124   2.679 -1.3248  2.6987 -1.9557
  808SOL     MW 3232   2.562   3.089   2.760 -0.2056  0.1299 -0.3978
  809SOL     OW 3233   2.553   1.253   2.407 -0.0193  0.2893 -0.2051
  809SOL    HW1 3234   2.600   1.220   2.481 -0.1017 -2.2648  1.6300
  809SOL    HW2 3235   2.620   1.304   2.361  1.3813 -1.2543 -2.9132
  809SOL     MW 3236   2.568   1.256   2.411  0.1547 -0.2514 -0.3203
  810SOL     OW 3237   2.244   1.309   2.225 -0.1909  0.3050 -0.3186
  810SOL    HW1 3238   2.303   1.230   2.217  0.0901  0.3910 -2.8461
  810SOL    HW2 3239   2.155   1.268   2.240 -0.7583 -1.3559  2.5739
  810SOL     MW 3240   2.240   1.293   2.226 -0.2287  0.0972 -0.2704
  811SOL     OW 3241   1.543   0.105   2.273  0.7266 -1.0637 -0.2204
  811SOL    HW1 3242   1.616   0.080   2.327 -2.3709  2.3275 -1.8155
  811SOL    HW2 3243   1.552   0.087   2.176  0.0963  0.1309  1.2064
  811SOL     MW 3244   1.554   0.099   2.267  0.2348 -0.4586 -0.2426
  812SOL     OW 3245   1.433   2.771   2.082  0.0588 -0.2573 -0.8433
  812SOL    HW1 3246   1.531   2.766   2.085 -1.2717  0.8171 -1.0380
  812SOL    HW2 3247   1.404   2.780   2.171  0.1307  0.9723 -1.4850
  812SOL     MW 3248   1.442   2.772   2.094 -0.1072  0.0467 -0.9537
  813SOL     OW 3249   1.775   0.721   2.211  0.0372 -0.2016  0.1653
  813SOL    HW1 3250   1.757   0.627   2.223  0.9067 -0.3320 -1.9407
  813SOL    HW2 3251   1.827   0.743   2.292 -0.4962 -0.9134  0.7645
  813SOL     MW 3252   1.780   0.711   2.223  0.0815 -0.3127 -0.0335
  814SOL     OW 3253   2.786   1.226   1.660  0.2479 -0.2239  0.0527
  814SOL    HW1 3254   2.703   1.250   1.700 -2.4710 -1.5056 -2.5840
  814SOL    HW2 3255   2.765   1.220   1.569 -1.7471 -1.8298  0.8266
  814SOL     MW 3256   2.773   1.228   1.653 -0.3740 -0.6049 -0.1931
  815SOL     OW 3257   2.508   1.661   2.417  0.3983 -0.4321 -0.3876
  815SOL    HW1 3258   2.455   1.579   2.415 -1.9618 -1.3595  2.4424
  815SOL    HW2 3259   2.596   1.643   2.438  2.4883  2.2524  0.0487
  815SOL     MW 3260   2.513   1.648   2.419  0.3626 -0.2002  0.0434
  816SOL     OW 3261   0.764   0.626   2.749 -0.3723 -0.4887  0.7179
  816SOL    HW1 3262   0.779   0.560   2.813 -1.3094 -1.2034 -2.1197
  816SOL    HW2 3263   0.668   0.628   2.738  1.1150 -0.6932  1.4824
  816SOL     MW 3264   0.753   0.618   2.756 -0.2997 -0.6100  0.4444
  817SOL     OW 3265   3.030   1.207   1.376  0.3062 -0.5407 -0.4979
  817SOL    HW1 3266   3.078   1.188   1.458 -3.1967 -0.7279  0.0050
  817SOL    HW2 3267   3.025   1.303   1.357  0.9174 -2.1657 -1.3192
  817SOL     MW 3268   3.036   1.217   1.384 -0.0753 -0.7798 -0.5399
  818SOL     OW 3269   1.927   0.991   2.755 -0.0860 -0.3956  0.8634
  818SOL    HW1 3270   1.943   1.043   2.678 -2.7720 -0.2192  0.1690
  818SOL    HW2 3271   2.006   0.934   2.767 -0.1108  1.0724  0.7092
  818SOL     MW 3272   1.940   0.990   2.746 -0.4437 -0.1787  0.7514
  819SOL     OW 3273   1.938   0.291   2.488  0.6116 -0.1527  0.2597
  819SOL    HW1 3274   1.864   0.352   2.488  3.7797 -0.7134  0.4471
  819SOL    HW2 3275   1.971   0.288   2.583  1.4090 -1.5649  2.5595
  819SOL     MW 3276   1.933   0.299   2.500  1.1348 -0.4130  0.5878
  820SOL     OW 3277   2.471   1.763   2.657  0.5252  0.0634 -0.3756
  820SOL    HW1 3278   2.500   1.703   2.732  0.5834 -0.0069 -1.0965
  820SOL    HW2 3279   2.488   1.720   2.572 -2.2069 -0.6918  3.0777
  820SOL     MW 3280   2.477   1.749   2.656  0.1724 -0.0455 -0.0151
  821SOL     OW 3281   2.577   1.348   2.006 -0.0405  0.3324  0.1339
  821SOL    HW1 3282   2.622   1.425   1.967 -1.5910  0.5265 -0.4384
  821SOL    HW2 3283   2.488   1.369   1.981  2.9945 -0.6137 -2.4843
  821SOL     MW 3284   2.571   1.361   1.997  0.1553  0.2332 -0.2871
  822SOL     OW 3285   2.812   2.649   1.471  0.3527  0.2220 -0.1080
  822SOL    HW1 3286   2.870   2.696   1.531 -0.7481 -0.1350  0.1616
  822SOL    HW2 3287   2.751   2.714   1.444 -2.5474 -0.3022  0.2302
  822SOL     MW 3288   2.812   2.664   1.475 -0.1752  0.1057 -0.0278
  823SOL     OW 3289   2.258   0.467   1.814 -0.1011 -0.1341 -0.4046
  823SOL    HW1 3290   2.333   0.414   1.784  0.4820  1.0326 -1.4390
  823SOL    HW2 3291   2.175   0.419   1.803 -3.0816  0.5459 -1.0903
  823SOL     MW 3292   2.257   0.454   1.808 -0.4175  0.1095 -0.6316
  824SOL     OW 3293   2.064   1.405   2.509  0.0733  0.7209  0.3177
  824SOL    HW1 3294   2.160   1.422   2.508 -2.9212  1.4273 -2.8346
  824SOL    HW2 3295   2.028   1.445   2.585  2.6355  1.4715 -2.7452
  824SOL     MW 3296   2.072   1.413   2.519  0.0163  0.9132 -0.5023
  825SOL     OW 3297   2.084   2.546   0.280 -0.4625 -0.8629  0.0954
  825SOL    HW1 3298   2.152   2.536   0.346  2.2295 -2.1140 -2.9450
  825SOL    HW2 3299   2.139   2.514   0.203 -2.1422  0.4521  1.1457
  825SOL     MW 3300   2.100   2.540   0.279 -0.3290 -0.8545 -0.1672
  826SOL     OW 3301   1.931   2.366   0.545 -0.3121 -0.5536 -0.6691
  826SOL    HW1 3302   1.847   2.330   0.577  2.4660 -2.1084 -0.7299
  826SOL    HW2 3303   1.941   2.463   0.576  0.2372  0.5013 -1.2459
  826SOL     MW 3304   1.921   2.374   0.553  0.1270 -0.6196 -0.7533
  827SOL     OW 3305   1.962   2.179   0.816  0.0020  0.4423 -0.1104
  827SOL    HW1 3306   1.886   2.205   0.765 -1.0755 -1.1752 -0.5303
  827SOL    HW2 3307   1.930   2.102   0.869  1.6152 -1.4057  1.9014
  827SOL     MW 3308   1.947   2.172   0.816  0.0727 -0.0150  0.0996
  828SOL     OW 3309   0.076   2.635   0.506  0.1348 -0.5095 -0.3291
  828SOL    HW1 3310   0.172   2.636   0.517  2.7243 -1.7428 -1.1076
  828SOL    HW2 3311   0.061   2.713   0.448 -1.7314  1.3685  1.5713
  828SOL     MW 3312   0.086   2.645   0.500  0.2303 -0.4244 -0.1811
  829SOL     OW 3313   3.004   2.949   1.227  0.1530  0.3859 -0.2933
  829SOL    HW1 3314   2.925   2.940   1.171 -0.7058  0.8341 -0.3516
  829SOL    HW2 3315   3.050   2.871   1.208 -0.3684  0.2115 -1.1456
  829SOL     MW 3316   2.999   2.937   1.217 -0.0291  0.4221 -0.4134
  830SOL     OW 3317   2.517   2.879   2.033  0.8614  0.1516 -0.1931
  830SOL    HW1 3318   2.420   2.886   2.033 -0.8730 -1.1705 -0.6891
  830SOL    HW2 3319   2.540   2.858   1.944  0.1229 -0.8341  1.3459
  830SOL     MW 3320   2.508   2.877   2.021  0.5351 -0.1529 -0.0555
  831SOL     OW 3321   2.384   2.446   1.225 -0.4612  0.3409  0.1357
  831SOL    HW1 3322   2.364   2.387   1.302  0.2785 -3.0130 -1.2241
  831SOL    HW2 3323   2.479   2.423   1.213 -0.9219  0.2101  0.4998
  831SOL     MW 3324   2.394   2.435   1.234 -0.4244 -0.1189  0.0043
  832SOL     OW 3325   2.399   2.180   1.841 -0.6510 -0.5746 -0.5443
  832SOL    HW1 3326   2.438   2.269   1.845 -0.0026 -2.1670  0.7142
  832SOL    HW2 3327   2.476   2.116   1.838  3.0610 -0.0800 -0.8089
  832SOL     MW 3328   2.414   2.184   1.841 -0.0757 -0.7195 -0.4131
  833SOL     OW 3329   1.804   2.499   0.923 -0.2586 -0.3572 -0.1173
  833SOL    HW1 3330   1.737   2.438   0.927  3.9759 -1.5630 -2.2689
  833SOL    HW2 3331   1.816   2.574   0.984  1.0861  2.5230 -0.8112
  833SOL     MW 3332   1.797   2.500   0.931  0.4775 -0.1363 -0.4927
  834SOL     OW 3333   2.235   2.430   0.506  0.5599 -0.1372 -0.1625
  834SOL    HW1 3334   2.156   2.372   0.506 -1.5046  1.1963  2.1887
  834SOL    HW2 3335   2.279   2.410   0.416  2.2539 -1.3667 -1.5142
  834SOL     MW 3336   2.231   2.420   0.494  0.5110 -0.1235 -0.0306
  835SOL     OW 3337   1.880   2.590   0.672 -0.1164  0.1114 -0.0068
  835SOL    HW1 3338   1.846   2.528   0.740  2.4814  0.8415 -2.0421
  835SOL    HW2 3339   1.926   2.661   0.713 -0.6605 -0.0155  3.0997
  835SOL     MW 3340   1.882   2.591   0.686  0.1545  0.1910  0.1345
  836SOL     OW 3341   1.994   2.164   1.650  0.2970  0.0982 -0.2424
  836SOL    HW1 3342   2.089   2.152   1.646  0.1876 -0.7150 -1.7160
  836SOL    HW2 3343   1.976   2.243   1.702 -1.3007  0.2214  1.0365
  836SOL     MW 3344   2.004   2.173   1.656  0.0718  0.0072 -0.2681
  837SOL     OW 3345   2.065   0.175   0.691 -0.2018 -0.3813 -0.0468
  837SOL    HW1 3346   2.001   0.225   0.628 -1.3410  1.0220 -0.0964
  837SOL    HW2 3347   2.113   0.122   0.624  1.7817  2.3603  0.4417
  837SOL     MW 3348   2.063   0.175   0.674 -0.0904  0.1656  0.0111
  838SOL     OW 3349   2.886   2.039   0.919 -0.5373  0.3846 -0.1042
  838SOL    HW1 3350   2.815   1.979   0.942 -1.5310 -1.0085 -0.1750
  838SOL    HW2 3351   2.966   1.987   0.895 -0.1212  0.6312  1.8244
  838SOL     MW 3352   2.887   2.024   0.919 -0.6135  0.2333  0.1409
  839SOL     OW 3353   1.494   2.344   0.919  0.2127  0.0167 -0.1300
  839SOL    HW1 3354   1.488   2.426   0.966  1.8034 -0.7797 -0.3006
  839SOL    HW2 3355   1.534   2.282   0.983 -2.6413 -2.4683 -1.3797
  839SOL     MW 3356   1.499   2.346   0.934  0.0460 -0.4163 -0.3174
  840SOL     OW 3357   2.291   2.054   2.389 -0.1058 -0.0128 -0.2351
  840SOL    HW1 3358   2.251   2.128   2.359  3.6615 -1.6804  1.1876
  840SOL    HW2 3359   2.346   2.100   2.454  3.7802 -1.2547  1.2171
  840SOL     MW 3360   2.293   2.070   2.394  0.9040 -0.3967  0.1442
  841SOL     OW 3361   2.213   2.450   0.079  0.2000 -0.2220  0.6880
  841SOL    HW1 3362   2.284   2.479   0.020  2.8239  0.2330 -0.6921
  841SOL    HW2 3363   2.153   2.389   0.034  0.4591  0.8771  1.2805
  841SOL     MW 3364   2.215   2.446   0.065  0.5804 -0.0169  0.5841
  842SOL     OW 3365   2.671   1.981   1.564 -0.6491 -0.0895 -0.8591
  842SOL    HW1 3366   2.612   1.911   1.551  1.5989 -2.7435 -1.3578
  842SOL    HW2 3367   2.659   2.027   1.473 -0.1684  2.1521 -1.0845
  842SOL     MW 3368   2.661   1.978   1.550 -0.2891 -0.1439 -0.9547
  843SOL     OW 3369   2.631   2.814   1.795 -0.3338 -0.2432 -0.1816
  843SOL    HW1 3370   2.723   2.804   1.813 -0.3939 -2.1843  0.4009
  843SOL    HW2 3371   2.608   2.735   1.744 -0.2261  1.7312 -0.1351
  843SOL     MW 3372   2.640   2.802   1.791 -0.3276 -0.2388 -0.0986
  844SOL     OW 3373   2.633   2.353   1.199  0.3705  0.3685 -0.6442
  844SOL    HW1 3374   2.657   2.392   1.115  1.3635 -2.2941 -0.7838
  844SOL    HW2 3375   2.712   2.369   1.259 -1.9141 -2.1912  3.4068
  844SOL     MW 3376   2.647   2.361   1.196  0.2001 -0.3205 -0.1281
  845SOL     OW 3377   2.831   2.540   0.351  0.1435  0.4102 -0.2540
  845SOL    HW1 3378   2.766   2.469   0.350  0.4935 -1.6395  1.3431
  845SOL    HW2 3379   2.821   2.577   0.445 -0.2604  1.0715  1.9689
  845SOL     MW 3380   2.821   2.536   0.363  0.1364  0.2270  0.2500
  846SOL     OW 3381   1.496   2.819   0.847  0.1432  0.2658 -0.0248
  846SOL    HW1 3382   1.572   2.876   0.834  0.9009 -1.6333 -0.8622
  846SOL    HW2 3383   1.425   2.880   0.875 -2.8542 -2.0987  1.7837
  846SOL     MW 3384   1.496   2.834   0.849 -0.1523 -0.2967  0.1033
  847SOL     OW 3385   2.476   1.924   0.190 -0.4568  0.1947 -0.1028
  847SOL    HW1 3386   2.486   1.841   0.245  0.1317 -1.9946  2.6319
  847SOL    HW2 3387   2.460   1.895   0.099 -0.3281  0.8998 -1.7010
  847SOL     MW 3388   2.476   1.909   0.185 -0.3622 -0.0011  0.0471
  848SOL     OW 3389   2.594   2.100   1.286  0.1411 -0.2322 -0.6742
  848SOL    HW1 3390   2.616   2.175   1.238  0.5843  0.1721  1.6237
  848SOL    HW2 3391   2.582   2.033   1.221 -1.0289 -0.9556  0.3497
  848SOL     MW 3392   2.595   2.101   1.271  0.0452 -0.2743 -0.2359
  849SOL     OW 3393   2.033   2.797   0.772  0.6535 -0.3748  0.0132
  849SOL    HW1 3394   2.046   2.743   0.849 -2.1106  2.1449 -0.7083
  849SOL    HW2 3395   2.108   2.770   0.713  2.6355  1.7530 -0.0318
  849SOL     MW 3396   2.045   2.786   0.774  0.5503  0.2384 -0.0879
  850SOL     OW 3397   2.249   1.820   1.638  0.0548 -0.4990 -0.2252
  850SOL    HW1 3398   2.167   1.773   1.617  3.1614 -1.3682  1.2299
  850SOL    HW2 3399   2.239   1.918   1.620  2.8141  1.4505 -1.0180
  850SOL     MW 3400   2.237   1.827   1.633  0.8287 -0.3565 -0.1378
  851SOL     OW 3401   2.368   2.384   0.280 -0.0108  0.4641  0.5297
  851SOL    HW1 3402   2.314   2.381   0.195 -2.1847 -0.5819  1.4849
  851SOL    HW2 3403   2.466   2.384   0.266  1.1968  3.1927 -0.4758
  851SOL     MW 3404   2.374   2.383   0.267 -0.1383  0.6861  0.5231
  852SOL     OW 3405   2.341   2.093   0.329  0.2986 -0.0848  0.3443
  852SOL    HW1 3406   2.355   2.184   0.309 -1.6768  0.9414 -1.6236
  852SOL    HW2 3407   2.394   2.041   0.264 -0.1487  0.2283 -0.0073
  852SOL     MW 3408   2.350   2.098   0.318 -0.0211  0.0919  0.0383
  853SOL     OW 3409   2.464   2.440   1.919 -0.4794 -0.6912 -0.2380
  853SOL    HW1 3410   2.487   2.477   1.831  0.5426 -0.9072 -0.8663
  853SOL    HW2 3411   2.553   2.443   1.958  1.2780  0.8177 -0.8017
  853SOL     MW 3412   2.479   2.445   1.912 -0.1127 -0.5206 -0.3953
  854SOL     OW 3413   2.855   2.292   0.761 -0.2795 -0.2913 -0.2251
  854SOL    HW1 3414   2.777   2.241   0.723 -0.7881 -1.3354 -0.6760
  854SOL    HW2 3415   2.907   2.222   0.810 -0.2815  0.3308 -2.2824
  854SOL     MW 3416   2.851   2.276   0.762 -0.3469 -0.3470 -0.5560
  855SOL     OW 3417   2.639   2.318   0.336  0.3153 -0.2221 -0.3405
  855SOL    HW1 3418   2.637   2.336   0.430  1.3410 -3.7349  2.3833
  855SOL    HW2 3419   2.706   2.243   0.335  1.5048  2.0416 -1.7778
  855SOL     MW 3420   2.648   2.310   0.348  0.6076 -0.3869 -0.1707
  856SOL     OW 3421   2.117   1.928   0.228 -0.0035 -0.5561 -0.2283
  856SOL    HW1 3422   2.025   1.930   0.254 -1.1614 -2.6355 -0.1659
  856SOL    HW2 3423   2.174   2.000   0.268  1.4642 -1.8352  1.1069
  856SOL     MW 3424   2.113   1.938   0.237  0.0374 -0.9993 -0.0439
  857SOL     OW 3425   2.462   1.964   0.548 -0.1644  0.1312 -0.1829
  857SOL    HW1 3426   2.417   2.022   0.478  1.6086 -1.9944 -0.7960
  857SOL    HW2 3427   2.396   1.952   0.624 -0.7859 -0.0549  1.3092
  857SOL     MW 3428   2.448   1.970   0.549 -0.0124 -0.1738 -0.0669
  858SOL     OW 3429   2.899   2.705   1.757  0.1476 -0.0298  0.2258
  858SOL    HW1 3430   2.991   2.725   1.771 -3.0378  0.5250  1.9856
  858SOL    HW2 3431   2.898   2.609   1.766 -2.2696 -1.8298  1.0151
  858SOL     MW 3432   2.911   2.695   1.760 -0.5916 -0.1941  0.5622
  859SOL     OW 3433   2.145   2.575   0.942 -0.3090  0.3015  0.5889
  859SOL    HW1 3434   2.111   2.499   0.994  1.5239 -1.9238 -1.1047
  859SOL    HW2 3435   2.223   2.597   0.994 -1.9550  1.1683  1.9878
  859SOL     MW 3436   2.151   2.568   0.956 -0.2844  0.1223  0.5500
  860SOL     OW 3437   2.700   2.619   0.125  0.1203  0.3060  0.2871
  860SOL    HW1 3438   2.741   2.624   0.216  0.6921 -1.8462  3.3125
  860SOL    HW2 3439   2.696   2.712   0.089 -0.8332  3.1001 -2.6939
  860SOL     MW 3440   2.705   2.632   0.132  0.0699  0.3907  0.2930
  861SOL     OW 3441   1.605   2.186   1.123  0.0704  0.5467 -0.1796
  861SOL    HW1 3442   1.586   2.275   1.160 -0.8218  0.8985  0.2614
  861SOL    HW2 3443   1.558   2.120   1.172  0.6053 -0.2294 -1.3263
  861SOL     MW 3444   1.596   2.189   1.134  0.0233  0.4907 -0.2727
  862SOL     OW 3445   2.489   1.788   1.514  0.6698 -0.4486  0.2227
  862SOL    HW1 3446   2.413   1.799   1.574 -1.3210  0.0859 -0.2410
  862SOL    HW2 3447   2.454   1.819   1.430  0.1310  0.0376 -0.0690
  862SOL     MW 3448   2.474   1.794   1.511  0.3360 -0.3139  0.1230
  863SOL     OW 3449   2.987   1.763   1.045  0.0405  0.1461  0.3361
  863SOL    HW1 3450   3.078   1.770   1.072 -2.0860  0.6423  1.2177
  863SOL    HW2 3451   2.934   1.808   1.112 -1.8837 -0.0635  0.1978
  863SOL     MW 3452   2.992   1.770   1.057 -0.4939  0.1839  0.4342
  864SOL     OW 3453   0.009   1.826   0.805  0.7759  0.2646  0.2349
  864SOL    HW1 3454  -0.044   1.783   0.876 -0.1935 -0.1954  1.0900
  864SOL    HW2 3455  -0.011   1.808   0.709  1.8604  0.0582 -0.5221
  864SOL     MW 3456  -0.001   1.818   0.802  0.7911  0.1767  0.2479
  865SOL     OW 3457   2.488   2.195   0.071  1.0261 -0.0688 -0.0745
  865SOL    HW1 3458   2.474   2.138   0.146 -2.9370 -4.3473 -1.7027
  865SOL    HW2 3459   2.495   2.138  -0.006  0.4683 -0.1155 -0.1408
  865SOL     MW 3460   2.487   2.180   0.071  0.4296 -0.6395 -0.2980
  866SOL     OW 3461   2.667   2.344   1.629 -0.2608  0.0846 -0.1964
  866SOL    HW1 3462   2.656   2.251   1.634 -2.2005  0.0577 -0.6691
  866SOL    HW2 3463   2.697   2.353   1.535 -0.7345  3.0641 -1.0410
  866SOL     MW 3464   2.670   2.333   1.617 -0.5792  0.4741 -0.3702
  867SOL     OW 3465   0.070   2.681   1.775  0.6085 -0.2742  0.3906
  867SOL    HW1 3466   0.121   2.756   1.824  1.3809 -1.5297  5.2297
  867SOL    HW2 3467   0.086   2.706   1.684  1.1656  0.1847  1.5207
  867SOL     MW 3468   0.079   2.694   1.770  0.7839 -0.3793  1.1782
  868SOL     OW 3469   2.752   2.712   0.570 -0.1889  0.3033  0.2750
  868SOL    HW1 3470   2.677   2.667   0.526 -1.9056 -0.7790 -1.0045
  868SOL    HW2 3471   2.770   2.786   0.510  1.6025  1.4616 -0.8607
  868SOL     MW 3472   2.744   2.716   0.556 -0.1790  0.3133 -0.0437
  869SOL     OW 3473   2.080   2.330   1.051 -0.1680  0.1195 -0.2300
  869SOL    HW1 3474   2.173   2.325   1.019  0.6553 -2.5405 -3.1994
  869SOL    HW2 3475   2.040   2.292   0.970 -1.1017  0.8838 -0.7412
  869SOL     MW 3476   2.087   2.324   1.036 -0.1826 -0.1306 -0.6893
  870SOL     OW 3477   2.153   3.095   0.496 -0.1232  0.2198  0.0750
  870SOL    HW1 3478   2.220   3.137   0.433  2.9817  0.4115  0.2381
  870SOL    HW2 3479   2.179   3.006   0.500 -0.4865  0.5127  0.0753
  870SOL     MW 3480   2.165   3.089   0.488  0.2385  0.2838  0.0965
  871SOL     OW 3481   2.446   2.073   0.936  0.2402  0.4778 -0.1841
  871SOL    HW1 3482   2.377   2.046   0.875  2.3124  3.2500 -2.7384
  871SOL    HW2 3483   2.414   2.164   0.958 -0.2516  0.9098  0.7757
  871SOL     MW 3484   2.433   2.081   0.931  0.4487  0.9006 -0.3945
  872SOL     OW 3485   2.043   2.484   1.521 -0.0417  0.3497 -0.4221
  872SOL    HW1 3486   2.000   2.549   1.579 -1.2691  1.0687 -0.1280
  872SOL    HW2 3487   1.982   2.446   1.452  0.0824 -3.6590 -0.3751
  872SOL     MW 3488   2.029   2.487   1.519 -0.1873 -0.0844 -0.3771
  873SOL     OW 3489   2.881   2.046   1.981  0.2769  0.3988 -0.2206
  873SOL    HW1 3490   2.893   2.114   2.049 -0.9734  1.0690  3.2066
  873SOL    HW2 3491   2.970   2.051   1.938  0.1827 -0.6567 -2.0314
  873SOL     MW 3492   2.894   2.056   1.984  0.0995  0.3479 -0.0073
  874SOL     OW 3493   2.340   1.419   2.456  0.0028 -0.0802 -0.4318
  874SOL    HW1 3494   2.313   1.385   2.374  1.6355 -0.5307 -1.1246
  874SOL    HW2 3495   2.411   1.360   2.474 -1.2852  2.0710  0.3198
  874SOL     MW 3496   2.345   1.406   2.448  0.0483  0.1442 -0.4241
  875SOL     OW 3497   2.347   2.328   0.980  0.4558  0.4416 -0.0520
  875SOL    HW1 3498   2.397   2.386   0.922 -1.4141  0.5233 -1.4937
  875SOL    HW2 3499   2.366   2.368   1.066 -2.8279  2.8631  1.1083
  875SOL     MW 3500   2.356   2.341   0.984 -0.2242  0.7719 -0.0891
  876SOL     OW 3501   3.085   2.248   1.383 -0.5742 -0.0277 -0.0177
  876SOL    HW1 3502   3.096   2.302   1.301  1.9246  1.1600  2.1646
  876SOL    HW2 3503   3.157   2.279   1.445  1.6058  1.4316 -1.7531
  876SOL     MW 3504   3.096   2.259   1.381  0.0431  0.3215  0.0412
  877SOL     OW 3505   0.000   2.840   0.296 -0.2393  0.5437  0.3711
  877SOL    HW1 3506   0.072   2.895   0.259 -1.6618  1.9454  1.1515
  877SOL    HW2 3507  -0.018   2.773   0.231  0.7933  2.0751  1.0891
  877SOL     MW 3508   0.007   2.839   0.283 -0.2907  0.9307  0.5688
  878SOL     OW 3509   2.414   1.798   1.251 -0.0532 -0.1117 -0.6592
  878SOL    HW1 3510   2.343   1.747   1.289  2.9921  1.8102  1.5290
  878SOL    HW2 3511   2.499   1.757   1.268 -0.0875 -1.6623  1.8659
  878SOL     MW 3512   2.416   1.786   1.258  0.3441 -0.0627 -0.0373
  879SOL     OW 3513   2.739   2.449   0.963  0.3955  0.3194  0.2284
  879SOL    HW1 3514   2.794   2.524   0.954  2.3905 -1.7444  0.7658
  879SOL    HW2 3515   2.784   2.383   0.908  5.0675 -1.0384  2.9687
  879SOL     MW 3516   2.752   2.450   0.955  1.2751 -0.1320  0.6608
  880SOL     OW 3517   2.610   2.159   0.731  0.3115 -0.0737 -0.3053
  880SOL    HW1 3518   2.569   2.121   0.810 -4.9511 -1.0330 -0.4121
  880SOL    HW2 3519   2.607   2.088   0.670  1.3850  3.8426  1.3493
  880SOL     MW 3520   2.604   2.145   0.733 -0.2412  0.3165 -0.1011
  881SOL     OW 3521   2.984   2.711   0.723  0.1048  0.4337 -0.5485
  881SOL    HW1 3522   2.907   2.704   0.672  1.6365  1.7134  0.8497
  881SOL    HW2 3523   3.057   2.701   0.664  0.4257 -1.2651 -2.7394
  881SOL     MW 3524   2.983   2.709   0.709  0.3492  0.3784 -0.6531
  882SOL     OW 3525   2.242   2.895   1.969  0.1562  0.2403 -0.8014
  882SOL    HW1 3526   2.243   2.910   1.875 -0.8592 -1.1353  2.2315
  882SOL    HW2 3527   2.204   2.809   1.980 -0.7147 -2.0750  2.0014
  882SOL     MW 3528   2.237   2.886   1.958 -0.0927 -0.2467 -0.0314
  883SOL     OW 3529   2.330   2.201   1.382  0.1914  0.0086 -0.4563
  883SOL    HW1 3530   2.411   2.173   1.334 -0.4714  0.5281 -0.0703
  883SOL    HW2 3531   2.254   2.169   1.336 -1.8667 -0.0624 -3.4623
  883SOL     MW 3532   2.331   2.193   1.369 -0.1676  0.0678 -0.8020
  884SOL     OW 3533   1.954   1.817   1.079  0.1084 -0.0872  0.0899
  884SOL    HW1 3534   1.890   1.885   1.045 -2.5786  1.9640 -0.5039
  884SOL    HW2 3535   2.046   1.856   1.060  0.8510  0.8447 -0.0143
  884SOL     MW 3536   1.958   1.831   1.072 -0.1481  0.3064 -0.0022
  885SOL     OW 3537   2.862   2.430   1.813 -0.2611  0.4518 -0.4642
  885SOL    HW1 3538   2.910   2.350   1.821  0.1043  1.1083 -0.0160
  885SOL    HW2 3539   2.794   2.415   1.752  2.2161  0.1601  0.0380
  885SOL     MW 3540   2.860   2.417   1.806  0.1140  0.4999 -0.3388
  886SOL     OW 3541   2.816   2.394   1.399  0.1608  0.6216 -0.1987
  886SOL    HW1 3542   2.903   2.360   1.409  3.3118 -0.8810 -1.0580
  886SOL    HW2 3543   2.816   2.480   1.439  1.2115  0.1866 -0.5672
  886SOL     MW 3544   2.828   2.401   1.405  0.7151  0.3660 -0.3607
  887SOL     OW 3545   2.283   2.642   1.566  0.0624  0.4377 -0.5375
  887SOL    HW1 3546   2.323   2.685   1.487 -1.4222  0.9292 -3.0130
  887SOL    HW2 3547   2.219   2.583   1.528  1.4567 -0.3889 -0.6364
  887SOL     MW 3548   2.280   2.640   1.551  0.0505  0.3935 -0.8772
  888SOL     OW 3549   1.852   2.155   1.407  0.6177  0.5891 -0.4975
  888SOL    HW1 3550   1.937   2.136   1.363 -0.4601 -1.8045 -0.0296
  888SOL    HW2 3551   1.871   2.180   1.499 -2.0420 -0.1695  1.2148
  888SOL     MW 3552   1.865   2.156   1.414  0.1245  0.1732 -0.2099
  889SOL     OW 3553   2.352   2.024   2.084  0.2093 -0.2033 -0.0424
  889SOL    HW1 3554   2.411   2.024   2.157 -1.1359  0.9583  1.7038
  889SOL    HW2 3555   2.358   2.108   2.041 -0.3301 -0.3479  1.3430
  889SOL     MW 3556   2.361   2.035   2.088 -0.0394 -0.0692  0.3708
  890SOL     OW 3557   0.080   2.389   0.155  0.1432 -0.2942 -0.2958
  890SOL    HW1 3558   0.042   2.477   0.152 -0.5871  2.3714 -1.9704
  890SOL    HW2 3559   0.038   2.346   0.232  0.0485 -0.3947 -1.6604
  890SOL     MW 3560   0.070   2.395   0.165  0.0344  0.0442 -0.6968
  891SOL     OW 3561   3.094   1.999   1.281  0.2322 -0.8535 -0.2654
  891SOL    HW1 3562   3.179   1.964   1.287  0.3793  0.1929 -1.9348
  891SOL    HW2 3563   3.083   2.085   1.318 -2.7422 -0.1617 -2.4977
  891SOL     MW 3564   3.104   2.006   1.287 -0.1409 -0.6242 -0.7802
  892SOL     OW 3565   2.454   2.344   2.762  0.2047  0.1574  0.1228
  892SOL    HW1 3566   2.419   2.265   2.804  1.9637  2.4713 -1.2827
  892SOL    HW2 3567   2.548   2.343   2.797 -1.6412  2.1287 -1.3295
  892SOL     MW 3568   2.462   2.333   2.772  0.1933  0.7228 -0.2543
  893SOL     OW 3569   1.592   2.446   1.207 -0.1830  0.3670 -0.0513
  893SOL    HW1 3570   1.520   2.467   1.265 -1.4877 -1.4895 -0.0440
  893SOL    HW2 3571   1.662   2.503   1.238 -0.7873  0.9155  2.3477
  893SOL     MW 3572   1.591   2.457   1.219 -0.4348  0.1944  0.2662
  894SOL     OW 3573   2.725   1.873   0.434 -0.1997 -0.0942 -0.2762
  894SOL    HW1 3574   2.629   1.877   0.447  2.0663 -0.4312  0.3280
  894SOL    HW2 3575   2.724   1.815   0.355 -0.5394  2.1663 -0.9837
  894SOL     MW 3576   2.713   1.866   0.426  0.0545  0.1596 -0.2899
  895SOL     OW 3577   2.114   2.124   1.237 -0.5439  0.8044  0.8417
  895SOL    HW1 3578   2.103   2.198   1.172  0.8019  2.1021  1.3545
  895SOL    HW2 3579   2.154   2.051   1.188  0.2184 -0.6551 -1.3905
  895SOL     MW 3580   2.118   2.124   1.222 -0.2658  0.7830  0.6148
  896SOL     OW 3581   2.320   2.811   1.100  0.0901  0.1249 -0.2311
  896SOL    HW1 3582   2.351   2.759   1.172  1.4474  0.8787 -2.7711
  896SOL    HW2 3583   2.285   2.887   1.127  2.6397 -3.6547 -1.8496
  896SOL     MW 3584   2.320   2.814   1.113  0.6056 -0.2743 -0.7798
  897SOL     OW 3585   3.051   3.043   3.054  0.0795 -0.1837 -0.1507
  897SOL    HW1 3586   3.122   2.983   3.029  0.1759  0.2603 -2.0164
  897SOL    HW2 3587   2.960   3.019   3.047  1.5077  1.8546 -3.1080
  897SOL     MW 3588   3.049   3.032   3.050  0.2807  0.1438 -0.7870
  898SOL     OW 3589   2.095   0.188   1.476 -0.7190 -0.3553  0.1981
  898SOL    HW1 3590   2.057   0.108   1.511 -0.7938  0.5799 -0.8869
  898SOL    HW2 3591   2.091   0.182   1.381  1.9323  0.3564  1.8169
  898SOL     MW 3592   2.089   0.177   1.468 -0.3791 -0.1380  0.2685
  899SOL     OW 3593   2.938   2.969   0.619  0.9106  0.1278  0.1585
  899SOL    HW1 3594   2.952   2.890   0.677  0.2015  1.0473 -1.2459
  899SOL    HW2 3595   2.852   2.997   0.649  1.4489 -0.3661  1.6876
  899SOL     MW 3596   2.928   2.962   0.630  0.8880  0.1839  0.1750
  900SOL     OW 3597   0.069   2.402   1.134 -0.5353 -0.1377  0.3011
  900SOL    HW1 3598   0.050   2.497   1.110 -1.0229  0.7560  0.7321
  900SOL    HW2 3599   0.049   2.356   1.053 -0.6012  0.8002 -0.8668
  900SOL     MW 3600   0.064   2.408   1.120 -0.6083  0.1039  0.2038
  901SOL     OW 3601   1.735   2.842   1.773  0.1886  0.1036  0.4237
  901SOL    HW1 3602   1.821   2.796   1.746  3.8706 -0.4001 -0.3883
  901SOL    HW2 3603   1.669   2.817   1.708  0.9913  0.1915  1.0503
  901SOL     MW 3604   1.738   2.833   1.761  0.7803  0.0487  0.3992
  902SOL     OW 3605   2.661   2.080   1.823 -0.2721 -0.2868 -0.4956
  902SOL    HW1 3606   2.666   2.050   1.735  1.0537  1.2465  2.6107
  902SOL    HW2 3607   2.741   2.048   1.860 -1.9149 -1.1147  1.4245
  902SOL     MW 3608   2.672   2.072   1.816 -0.3139 -0.1938  0.1676
  903SOL     OW 3609   1.622   2.646   0.646 -0.2695  0.0225  0.1587
  903SOL    HW1 3610   1.719   2.631   0.654 -1.5467  4.0334  0.1377
  903SOL    HW2 3611   1.609   2.711   0.720  0.1833 -0.5174  1.5897
  903SOL     MW 3612   1.633   2.653   0.657 -0.3782  0.4804  0.3447
  904SOL     OW 3613   2.529   2.606   1.666 -0.0304 -0.2387 -0.2127
  904SOL    HW1 3614   2.449   2.597   1.619  2.3790 -0.4437 -1.3346
  904SOL    HW2 3615   2.592   2.548   1.617  2.3108 -0.4466 -0.4950
  904SOL     MW 3616   2.526   2.597   1.654  0.5964 -0.2932 -0.3980
  905SOL     OW 3617   2.264   2.510   2.130  0.5242 -0.2615 -0.2739
  905SOL    HW1 3618   2.333   2.473   2.077 -2.7703  2.0781 -0.3295
  905SOL    HW2 3619   2.231   2.443   2.192  0.7969 -1.5689  0.6742
  905SOL     MW 3620   2.268   2.496   2.131  0.1255 -0.1253 -0.1562
  906SOL     OW 3621   2.514   2.479   0.846 -0.1626  0.4482 -0.2373
  906SOL    HW1 3622   2.606   2.471   0.885  0.3247 -0.7920  1.0018
  906SOL    HW2 3623   2.499   2.570   0.841 -0.5367 -2.2481  0.0602
  906SOL     MW 3624   2.524   2.490   0.851 -0.1477 -0.0712 -0.0346
  907SOL     OW 3625   2.659   2.840   1.345 -0.0190  0.6406 -0.7351
  907SOL    HW1 3626   2.714   2.904   1.396  0.2331 -2.3508  1.3728
  907SOL    HW2 3627   2.690   2.844   1.254 -0.1306  0.7705  1.8090
  907SOL     MW 3628   2.671   2.849   1.340 -0.0005  0.2631 -0.1213
  908SOL     OW 3629   2.718   2.345   0.019 -0.3656 -0.0396  0.0887
  908SOL    HW1 3630   2.648   2.292   0.055 -2.5011  3.1510  0.6496
  908SOL    HW2 3631   2.706   2.437   0.058 -0.0524  1.5811  1.1322
  908SOL     MW 3632   2.707   2.350   0.029 -0.6060  0.5952  0.3004
  909SOL     OW 3633   1.723   0.057   1.196  0.6057 -0.2823  0.0549
  909SOL    HW1 3634   1.742   0.142   1.154  1.4461  0.2075 -2.1116
  909SOL    HW2 3635   1.694   0.082   1.290 -0.7081 -0.5854  0.2890
  909SOL     MW 3636   1.722   0.072   1.203  0.5432 -0.2577 -0.2001
  910SOL     OW 3637   2.229   1.760   0.405  0.0101  0.0883 -0.3933
  910SOL    HW1 3638   2.185   1.672   0.417  0.2223  0.2535 -0.3892
  910SOL    HW2 3639   2.182   1.800   0.330 -1.5309  1.0740  1.2991
  910SOL     MW 3640   2.217   1.754   0.397 -0.1652  0.2402 -0.1694
  911SOL     OW 3641   2.268   2.095   1.631 -0.1199 -0.3219 -0.3740
  911SOL    HW1 3642   2.309   2.146   1.707  2.4194  0.9564  0.7389
  911SOL    HW2 3643   2.295   2.144   1.553 -0.1980 -1.3129 -0.8151
  911SOL     MW 3644   2.277   2.108   1.630  0.2048 -0.2840 -0.2853
  912SOL     OW 3645   2.937   1.921   1.487  0.7232  0.3686 -0.4032
  912SOL    HW1 3646   2.962   1.952   1.406 -2.1452 -0.5761  2.5292
  912SOL    HW2 3647   2.856   1.952   1.526 -0.1715  1.5187  1.2325
  912SOL     MW 3648   2.929   1.929   1.481  0.2267  0.3957  0.1995
  913SOL     OW 3649   2.622   3.052   0.349 -0.3284 -0.2764  0.1413
  913SOL    HW1 3650   2.708   2.996   0.344  1.5318 -1.1840  0.0884
  913SOL    HW2 3651   2.557   3.000   0.301  1.9771  4.4067 -1.0804
  913SOL     MW 3652   2.625   3.038   0.342  0.2212  0.2217 -0.0268
  914SOL     OW 3653   2.720   1.765   3.029 -0.5328  0.3480 -0.2949
  914SOL    HW1 3654   2.740   1.854   3.004  1.1033 -0.3230 -2.0707
  914SOL    HW2 3655   2.638   1.751   2.993  2.3460 -0.2154 -0.7145
  914SOL     MW 3656   2.712   1.775   3.021  0.0629  0.1851 -0.5846
  915SOL     OW 3657   1.698   0.227   0.250  0.1519 -0.2395 -0.0877
  915SOL    HW1 3658   1.771   0.161   0.279  1.7539 -1.0060  0.1584
  915SOL    HW2 3659   1.614   0.183   0.253  0.7895  0.0654 -1.3384
  915SOL     MW 3660   1.696   0.212   0.255  0.4474 -0.3004 -0.2203
  916SOL     OW 3661   1.835   2.133   1.959 -0.0013 -0.1695  0.5667
  916SOL    HW1 3662   1.895   2.197   1.922 -0.0304  0.1131 -2.1625
  916SOL    HW2 3663   1.832   2.067   1.890 -0.4681 -0.1393  0.8321
  916SOL     MW 3664   1.842   2.132   1.945 -0.0667 -0.1282  0.2416
  917SOL     OW 3665   2.492   2.200   2.527 -0.5306 -0.2240  0.5257
  917SOL    HW1 3666   2.466   2.261   2.597  1.2239 -1.2134 -0.5250
  917SOL    HW2 3667   2.569   2.245   2.488 -1.0778 -1.4328  0.5491
  917SOL     MW 3668   2.499   2.214   2.531 -0.3713 -0.5140  0.3901
  918SOL     OW 3669   1.959   1.594   2.688 -0.6501 -0.2655 -0.3001
  918SOL    HW1 3670   1.908   1.625   2.612  1.6546  3.7111  1.6791
  918SOL    HW2 3671   2.048   1.639   2.680 -2.1793 -0.9798 -0.4540
  918SOL     MW 3672   1.964   1.604   2.677 -0.5477  0.1649 -0.0593
  919SOL     OW 3673   3.070   2.350   2.282 -0.2488 -0.1511  0.4324
  919SOL    HW1 3674   3.007   2.281   2.266  0.1366 -1.9285  2.8755
  919SOL    HW2 3675   3.112   2.372   2.190  2.1011  1.5614 -2.5573
  919SOL     MW 3676   3.067   2.344   2.268  0.1121 -0.1596  0.3603
  920SOL     OW 3677   2.704   2.859   3.100  0.3916  0.2278 -0.2053
  920SOL    HW1 3678   2.610   2.868   3.128 -1.5776 -2.8001  0.3640
  920SOL    HW2 3679   2.706   2.811   3.013  0.2399 -0.0251 -0.3404
  920SOL     MW 3680   2.692   2.854   3.092  0.1118 -0.2050 -0.1481
  921SOL     OW 3681   2.420   2.622   2.613  0.1976  0.3265 -0.0680
  921SOL    HW1 3682   2.489   2.614   2.548 -3.3221  0.7837  0.2777
  921SOL    HW2 3683   2.431   2.548   2.678 -0.3060 -0.3460 -0.6600
  921SOL     MW 3684   2.431   2.611   2.613 -0.3332  0.2981 -0.1005
  922SOL     OW 3685   2.037   2.817   0.277  0.1354  0.3950  0.1756
  922SOL    HW1 3686   2.052   2.846   0.184 -1.9159  1.3905 -0.6126
  922SOL    HW2 3687   2.042   2.717   0.271 -0.9858 -0.8021 -0.9056
  922SOL     MW 3688   2.040   2.807   0.264 -0.2832  0.3684 -0.0710
  923SOL     OW 3689   2.187   2.881   1.689  0.3349  0.8242 -0.0165
  923SOL    HW1 3690   2.212   2.808   1.633 -1.9409 -1.1375 -0.2376
  923SOL    HW2 3691   2.159   2.956   1.633 -0.5969 -0.1832 -0.3570
  923SOL     MW 3692   2.187   2.882   1.674 -0.0883  0.4325 -0.0906
  924SOL     OW 3693   1.141   2.725   2.550 -0.2324  0.0886  0.6651
  924SOL    HW1 3694   1.228   2.782   2.557  1.6178  1.5885  0.9190
  924SOL    HW2 3695   1.143   2.685   2.641  4.4629  0.6164  2.4719
  924SOL     MW 3696   1.152   2.727   2.563  0.6312  0.3561  0.9370
  925SOL     OW 3697   3.052   0.187   2.633 -0.1770  0.1157  0.5902
  925SOL    HW1 3698   3.007   0.234   2.564 -0.6532  1.2858  0.5148
  925SOL    HW2 3699   3.065   0.248   2.701 -0.6857 -0.5228 -2.2085
  925SOL     MW 3700   3.048   0.201   2.633 -0.3069  0.1858  0.2110
  926SOL     OW 3701   2.705   2.436   2.054 -0.2495 -0.1689 -0.1015
  926SOL    HW1 3702   2.760   2.482   2.117  2.3337  1.6848 -1.1739
  926SOL    HW2 3703   2.768   2.429   1.976  1.4757 -0.9777 -0.1420
  926SOL     MW 3704   2.720   2.441   2.052  0.3190 -0.0310 -0.2484
  927SOL     OW 3705   2.322   0.130   0.336  0.3241  0.2628  0.1808
  927SOL    HW1 3706   2.410   0.159   0.337 -2.8956  0.4391  0.9158
  927SOL    HW2 3707   2.300   0.112   0.247  0.7931  1.3410  0.5591
  927SOL     MW 3708   2.331   0.132   0.325 -0.0389  0.4283  0.3277
  928SOL     OW 3709   2.184   2.377   1.757  0.0603  0.2838  0.0415
  928SOL    HW1 3710   2.182   2.399   1.660  0.0548 -1.1548 -1.6862
  928SOL    HW2 3711   2.224   2.456   1.793 -0.9460  1.3560 -1.6046
  928SOL     MW 3712   2.189   2.390   1.749 -0.0732  0.2354 -0.4037
  929SOL     OW 3713   2.730   2.296   2.451 -0.1696 -0.0882  0.0383
  929SOL    HW1 3714   2.781   2.274   2.372  0.3906 -1.0669 -2.4001
  929SOL    HW2 3715   2.793   2.289   2.525  3.2152  1.6972 -2.9345
  929SOL     MW 3716   2.745   2.292   2.450  0.3509  0.0183 -0.6756
  930SOL     OW 3717   2.019   2.851   2.737  0.0744  0.2635 -0.5460
  930SOL    HW1 3718   2.032   2.757   2.770 -1.6882 -2.4805 -0.0586
  930SOL    HW2 3719   2.105   2.884   2.709 -0.3534 -1.3921 -0.4831
  930SOL     MW 3720   2.032   2.843   2.737 -0.2146 -0.3170 -0.4734
  931SOL     OW 3721   3.028   2.727   2.400 -0.1936 -0.1218  0.7402
  931SOL    HW1 3722   3.063   2.743   2.489  1.3247 -1.5246  0.2582
  931SOL    HW2 3723   3.082   2.653   2.368  3.9048 -1.8913 -1.7298
  931SOL     MW 3724   3.039   2.719   2.408  0.5475 -0.5404  0.3507
  932SOL     OW 3725   2.935   1.918   2.484  0.4717 -0.0705 -0.1036
  932SOL    HW1 3726   3.015   1.969   2.490  0.1711  0.4084 -0.7027
  932SOL    HW2 3727   2.882   1.952   2.411  0.0079 -1.4023  0.7696
  932SOL     MW 3728   2.939   1.929   2.475  0.3708 -0.1830 -0.0674
  933SOL     OW 3729   2.058   2.812   2.208 -0.5136  0.1108 -0.2451
  933SOL    HW1 3730   2.126   2.863   2.244  1.1480 -2.5874  1.3755
  933SOL    HW2 3731   1.983   2.867   2.213  0.3628 -1.7350  0.3994
  933SOL     MW 3732   2.057   2.826   2.213 -0.1787 -0.4888  0.0537
  934SOL     OW 3733   2.007   2.726   2.470  0.2802 -0.4974 -0.3453
  934SOL    HW1 3734   2.031   2.793   2.540  1.2438 -2.0414  2.6135
  934SOL    HW2 3735   2.036   2.754   2.384 -0.8779 -3.8638 -0.6463
  934SOL     MW 3736   2.014   2.739   2.468  0.2546 -1.1453  0.0054
  935SOL     OW 3737   2.688   1.567   1.857 -0.0258  0.0960 -0.5871
  935SOL    HW1 3738   2.781   1.572   1.879 -3.0457 -1.1840  5.6157
  935SOL    HW2 3739   2.673   1.574   1.762 -0.7078  0.6525 -1.7879
  935SOL     MW 3740   2.698   1.568   1.848 -0.5142  0.0005  0.0729
  936SOL     OW 3741   2.976   2.228   0.002  0.7002 -0.0953  0.2387
  936SOL    HW1 3742   3.014   2.294   0.061 -1.5336  1.7402  1.8446
  936SOL    HW2 3743   2.881   2.256   0.006  1.0324 -0.8659 -0.5205
  936SOL     MW 3744   2.969   2.240   0.010  0.4493  0.0452  0.3504
  937SOL     OW 3745   1.976   2.134   2.636 -0.4384  0.5264  0.6301
  937SOL    HW1 3746   2.057   2.090   2.663  0.5416  1.8261  2.1897
  937SOL    HW2 3747   1.967   2.110   2.548 -0.8200 -0.2314 -1.6644
  937SOL     MW 3748   1.986   2.125   2.628 -0.3595  0.5979  0.5331
  938SOL     OW 3749   2.286   1.813   1.939 -0.2173 -0.0779 -0.3753
  938SOL    HW1 3750   2.273   1.853   1.853  1.3588 -0.2484  1.5630
  938SOL    HW2 3751   2.298   1.891   1.992  1.1927 -0.0147 -0.2028
  938SOL     MW 3752   2.286   1.829   1.935  0.1767 -0.0920 -0.0968
  939SOL     OW 3753   2.770   1.976   2.278  0.2694  0.1880  0.1080
  939SOL    HW1 3754   2.777   1.910   2.209 -0.8668  2.6809 -1.9208
  939SOL    HW2 3755   2.673   1.957   2.302 -4.2219 -0.4839 -0.5769
  939SOL     MW 3756   2.758   1.965   2.272 -0.4731  0.4283 -0.2500
  940SOL     OW 3757   2.292   0.156   2.674  0.4098  0.1350  0.0842
  940SOL    HW1 3758   2.277   0.065   2.656 -0.8836  1.9557  1.8968
  940SOL    HW2 3759   2.334   0.143   2.754  1.7535  0.1337 -0.1285
  940SOL     MW 3760   2.296   0.142   2.682  0.4165  0.3751  0.2953
  941SOL     OW 3761   0.104   2.445   2.065  0.4061 -0.1995  0.6505
  941SOL    HW1 3762   0.187   2.413   2.086 -1.3103  0.7136  0.0251
  941SOL    HW2 3763   0.097   2.418   1.970 -0.4028  0.1593  0.1509
  941SOL     MW 3764   0.114   2.437   2.055  0.0729 -0.0317  0.5021
  942SOL     OW 3765   2.856   2.220   2.212 -0.0448  0.0674  0.5418
  942SOL    HW1 3766   2.793   2.248   2.149  0.4249  0.9581  2.0994
  942SOL    HW2 3767   2.820   2.130   2.239  2.5933  0.4768 -0.8386
  942SOL     MW 3768   2.843   2.212   2.208  0.3653  0.2389  0.5652
  943SOL     OW 3769   0.261   2.113   2.278 -0.1097  0.1487  0.1273
  943SOL    HW1 3770   0.235   2.184   2.346 -2.0570  1.7124  1.6197
  943SOL    HW2 3771   0.354   2.082   2.301 -0.0895  3.4462  1.1456
  943SOL     MW 3772   0.270   2.118   2.290 -0.3640  0.7901  0.4586
  944SOL     OW 3773   2.078   2.651   1.978 -0.1516 -0.5969  0.1958
  944SOL    HW1 3774   2.152   2.610   2.016 -0.4068 -1.7287 -1.6833
  944SOL    HW2 3775   2.041   2.702   2.049  0.0726  0.5138 -3.5023
  944SOL     MW 3776   2.083   2.652   1.993 -0.1557 -0.5997 -0.5400
  945SOL     OW 3777   2.723   2.668   2.901 -0.1266 -0.5236  0.0395
  945SOL    HW1 3778   2.733   2.567   2.902  1.3069 -1.0248  1.8825
  945SOL    HW2 3779   2.742   2.698   2.811  1.1850 -0.0921 -0.6807
  945SOL     MW 3780   2.727   2.659   2.889  0.2356 -0.5328  0.1877
  946SOL     OW 3781   2.477   2.691   2.242 -0.0404  0.2592  0.3063
  946SOL    HW1 3782   2.488   2.753   2.171 -0.7307 -0.4864  1.6335
  946SOL    HW2 3783   2.393   2.633   2.213 -1.2758 -0.3889 -0.6135
  946SOL     MW 3784   2.468   2.692   2.228 -0.2945  0.0753  0.3601
  947SOL     OW 3785   1.926   0.056   0.304  0.2229 -0.4032  0.0974
  947SOL    HW1 3786   1.950  -0.019   0.259 -0.4638  1.8072  0.4078
  947SOL    HW2 3787   1.977   0.048   0.390  2.5012 -0.7995 -0.1671
  947SOL     MW 3788   1.935   0.045   0.309  0.4329 -0.1639  0.1035
  948SOL     OW 3789   1.782   3.026   2.669  0.0598 -0.3106  0.5538
  948SOL    HW1 3790   1.830   2.942   2.675 -1.7695 -0.0995 -2.1560
  948SOL    HW2 3791   1.777   3.065   2.573  1.9611  0.4271 -0.6265
  948SOL     MW 3792   1.788   3.020   2.657  0.0693 -0.1854  0.0406
  949SOL     OW 3793   2.506   1.911   2.308 -0.0570  0.5656  0.4727
  949SOL    HW1 3794   2.512   1.815   2.310 -0.1740  0.9995  1.3119
  949SOL    HW2 3795   2.415   1.941   2.325 -1.8189 -0.7241 -0.7054
  949SOL     MW 3796   2.495   1.902   2.310 -0.3049  0.4527  0.4280
  950SOL     OW 3797   2.328   2.548   2.922  0.5698  0.9407 -0.3202
  950SOL    HW1 3798   2.374   2.473   2.884  0.0820 -0.1050  1.0268
  950SOL    HW2 3799   2.238   2.540   2.892 -1.3574  3.2173  0.7933
  950SOL     MW 3800   2.322   2.537   2.913  0.2512  1.1031  0.0045
  951SOL     OW 3801   3.055   2.114   2.851  0.1469  0.5031  0.6800
  951SOL    HW1 3802   3.040   2.139   2.940  0.9119 -0.7281 -0.7263
  951SOL    HW2 3803   3.118   2.042   2.856 -0.6956  0.4630 -0.7024
  951SOL     MW 3804   3.061   2.108   2.863  0.1367  0.3353  0.3120
  952SOL     OW 3805   3.028   1.697   2.154 -0.1352 -0.0006 -0.6061
  952SOL    HW1 3806   2.948   1.742   2.130  1.3672 -1.1678 -0.6355
  952SOL    HW2 3807   3.084   1.763   2.200 -3.6909  1.4830 -0.5630
  952SOL     MW 3808   3.025   1.712   2.157 -0.4061  0.0411 -0.6043
  953SOL     OW 3809   1.924   1.768   2.897  0.0258 -0.4485 -0.7204
  953SOL    HW1 3810   1.836   1.744   2.939 -0.7146  0.1754 -3.5884
  953SOL    HW2 3811   1.932   1.711   2.820  1.6663 -0.1882  1.4379
  953SOL     MW 3812   1.913   1.758   2.892  0.1446 -0.3318 -0.8141
  954SOL     OW 3813   2.387   2.083   2.847 -0.0423  0.3398  0.1422
  954SOL    HW1 3814   2.315   2.047   2.799  1.8589  3.8961  1.7186
  954SOL    HW2 3815   2.459   2.049   2.803 -1.6149  1.6251 -1.9584
  954SOL     MW 3816   2.387   2.074   2.835  0.0010  0.9786  0.0731
  955SOL     OW 3817   1.536   1.621   2.570  0.0897  0.2874  0.2884
  955SOL    HW1 3818   1.513   1.644   2.475  0.4235  2.5984 -1.1089
  955SOL    HW2 3819   1.625   1.666   2.574  1.5327  0.0194 -3.3055
  955SOL     MW 3820   1.544   1.630   2.558  0.3241  0.5569 -0.3701
  956SOL     OW 3821   2.720   2.394   2.840  0.2173  0.1781 -0.0805
  956SOL    HW1 3822   2.708   2.369   2.937 -0.2506 -1.3066 -1.4666
  956SOL    HW2 3823   2.795   2.345   2.787  1.2224 -2.1324 -0.7785
  956SOL     MW 3824   2.729   2.385   2.846  0.2882 -0.3227 -0.3555
  957SOL     OW 3825   2.247   2.863   0.446 -0.4705 -0.1213  0.1378
  957SOL    HW1 3826   2.171   2.847   0.395 -0.2159  1.7809  0.3967
  957SOL    HW2 3827   2.234   2.794   0.513  0.5164 -0.6588  3.2533
  957SOL     MW 3828   2.235   2.851   0.448 -0.3067  0.0587  0.5831
  958SOL     OW 3829   2.080   2.583   2.834  0.1124  0.2663  0.1189
  958SOL    HW1 3830   2.028   2.537   2.771 -0.9784 -2.5945 -2.5361
  958SOL    HW2 3831   2.025   2.582   2.916 -2.6180  1.4661 -0.2690
  958SOL     MW 3832   2.066   2.577   2.837 -0.3918  0.0472 -0.2826
  959SOL     OW 3833   2.475   2.707   0.387 -0.4227  0.7745  0.1453
  959SOL    HW1 3834   2.467   2.703   0.297 -1.0159  0.3901  0.6986
  959SOL    HW2 3835   2.420   2.778   0.422 -0.6289  1.3094  1.6787
  959SOL     MW 3836   2.467   2.716   0.380 -0.5281  0.7943  0.4207
  960SOL     OW 3837   1.882   2.332   2.318 -0.4130  0.1655 -0.0465
  960SOL    HW1 3838   1.885   2.239   2.304  0.1396  0.5323 -1.1158
  960SOL    HW2 3839   1.836   2.360   2.398  0.1201  0.5513 -0.7223
  960SOL     MW 3840   1.876   2.323   2.327 -0.2698  0.2648 -0.2767
  961SOL     OW 3841   2.173   2.315   2.318 -0.1296  0.6920  0.0585
  961SOL    HW1 3842   2.082   2.322   2.297 -0.6208 -0.4498  2.0719
  961SOL    HW2 3843   2.186   2.386   2.386 -0.8735 -1.6917  0.0192
  961SOL     MW 3844   2.163   2.326   2.324 -0.2926  0.2268  0.3189
  962SOL     OW 3845   2.155   1.978   2.774  0.9436  0.2065 -0.4429
  962SOL    HW1 3846   2.134   1.972   2.870  0.6314 -0.6492  1.0551
  962SOL    HW2 3847   2.154   1.884   2.740  0.2874 -2.6641 -0.4285
  962SOL     MW 3848   2.152   1.965   2.782  0.8159 -0.2852 -0.2433
  963SOL     OW 3849   1.768   2.485   2.103  0.1926 -0.2856  0.0498
  963SOL    HW1 3850   1.813   2.445   2.183  2.7508  0.1112 -0.9975
  963SOL    HW2 3851   1.831   2.468   2.033 -1.4281  1.5316 -2.6714
  963SOL     MW 3852   1.782   2.477   2.104  0.3163  0.0065 -0.4474
  964SOL     OW 3853   1.804   1.943   2.739  0.2644  0.1017  0.0418
  964SOL    HW1 3854   1.869   2.012   2.720  2.9621 -2.7792  2.3861
  964SOL    HW2 3855   1.858   1.881   2.790  1.6778  0.3731  1.9011
  964SOL     MW 3856   1.820   1.944   2.743  0.8068 -0.2426  0.5964
  965SOL     OW 3857   2.271   2.689   0.644  0.3849 -0.1126 -0.0550
  965SOL    HW1 3858   2.257   2.596   0.617 -2.0743 -1.2764  1.1854
  965SOL    HW2 3859   2.347   2.703   0.698 -0.3767  1.1158  0.8670
  965SOL     MW 3860   2.279   2.678   0.648 -0.0400 -0.1040  0.2303
  966SOL     OW 3861   2.653   2.606   2.452  0.2038  0.0318 -0.8984
  966SOL    HW1 3862   2.608   2.610   2.360 -0.3700 -2.3577  2.6622
  966SOL    HW2 3863   2.702   2.523   2.451 -0.3275 -1.5164 -0.3159
  966SOL     MW 3864   2.653   2.595   2.440  0.0580 -0.4877 -0.3518
  967SOL     OW 3865   2.788   3.100   2.957  0.0919 -0.0324 -0.1712
  967SOL    HW1 3866   2.728   3.042   3.005  0.7185  1.1556 -0.6280
  967SOL    HW2 3867   2.735   3.126   2.887 -0.4338 -1.5697  3.9709
  967SOL     MW 3868   2.773   3.096   2.954  0.1052 -0.0785  0.3151
  968SOL     OW 3869   2.983   2.627   2.953  0.9453  0.1479  0.1962
  968SOL    HW1 3870   2.897   2.670   2.931  0.8332 -0.1419  0.9289
  968SOL    HW2 3871   3.017   2.573   2.876  1.4662 -1.6725 -1.7838
  968SOL     MW 3872   2.976   2.626   2.940  0.9992 -0.1305  0.0316
  969SOL     OW 3873   1.608   2.172   1.658  0.2192  0.0102 -0.0448
  969SOL    HW1 3874   1.678   2.104   1.668 -0.5937  0.8019 -0.0660
  969SOL    HW2 3875   1.576   2.188   1.750 -0.8703  0.7601  1.7000
  969SOL     MW 3876   1.613   2.165   1.671 -0.0318  0.2136  0.1826
  970SOL     OW 3877   1.736   1.794   1.931  0.1753  0.1643 -0.3251
  970SOL    HW1 3878   1.799   1.729   1.958 -0.9937  5.4285 -0.6977
  970SOL    HW2 3879   1.654   1.749   1.938  2.8781  2.9538  0.7021
  970SOL     MW 3880   1.733   1.779   1.935  0.3777  1.2269 -0.2387
  971SOL     OW 3881   1.780   0.036   2.428  0.0941  0.0343 -0.6095
  971SOL    HW1 3882   1.814  -0.023   2.359 -1.4800 -0.5481 -1.0889
  971SOL    HW2 3883   1.842   0.110   2.442  0.8829  0.9424 -0.8560
  971SOL     MW 3884   1.793   0.038   2.421 -0.0095  0.0773 -0.7053
  972SOL     OW 3885   0.273   2.873   2.458 -0.7266  0.6668  0.6557
  972SOL    HW1 3886   0.333   2.802   2.482  1.9462 -0.0471 -0.6257
  972SOL    HW2 3887   0.323   2.956   2.471  0.3760 -0.7547 -1.8756
  972SOL     MW 3888   0.288   2.875   2.463 -0.2285  0.3851  0.1527
  973SOL     OW 3889   2.618   0.025   2.078  0.2379 -0.5174  0.5307
  973SOL    HW1 3890   2.600  -0.067   2.055  3.0144  1.4861 -1.1001
  973SOL    HW2 3891   2.603   0.068   1.992  0.8413 -0.1761  2.1538
  973SOL     MW 3892   2.613   0.018   2.064  0.6839 -0.2081  0.5297
  974SOL     OW 3893   2.053   0.264   2.735  0.1083 -0.6035  0.0283
  974SOL    HW1 3894   2.138   0.222   2.715 -0.5045 -1.3391 -2.4095
  974SOL    HW2 3895   1.999   0.204   2.783 -0.4785  3.1236 -0.3263
  974SOL     MW 3896   2.057   0.251   2.739 -0.0499 -0.2088 -0.3402
  975SOL     OW 3897   2.183   2.520   2.497 -0.0771  0.1727 -0.4853
  975SOL    HW1 3898   2.266   2.549   2.526 -0.3739 -1.1501 -1.0434
  975SOL    HW2 3899   2.128   2.595   2.473 -1.9381  0.5916  0.5944
  975SOL     MW 3900   2.187   2.533   2.498 -0.3618  0.0535 -0.4165
  976SOL     OW 3901   0.240   0.378   1.785  0.1602  0.3067  0.4452
  976SOL    HW1 3902   0.292   0.298   1.818 -0.3095 -1.6768  0.4034
  976SOL    HW2 3903   0.167   0.343   1.739 -0.4517 -0.2305 -0.8239
  976SOL     MW 3904   0.237   0.363   1.784  0.0175 -0.0259  0.2722
  977SOL     OW 3905   1.750   2.677   2.547 -0.4531 -0.0095 -0.5846
  977SOL    HW1 3906   1.738   2.585   2.538  2.3577  1.1204 -4.6726
  977SOL    HW2 3907   1.844   2.685   2.525  0.5148 -1.4983 -0.0559
  977SOL     MW 3908   1.761   2.666   2.543  0.0454 -0.0568 -1.0542
   3.10000   3.10000   3.10000
