977 TIP4P/2005f water molecules t=   0.59000 step= 590
 3908
    1SOL     OW    1   0.194   0.846   0.023 -0.5145 -0.0364 -0.2458
    1SOL    HW1    2   0.207   0.846  -0.070 -0.3673  2.2389 -0.0223
    1SOL    HW2    3   0.225   0.763   0.049  0.0285  0.4145  1.7906
    1SOL     MW    4   0.200   0.835   0.014 -0.4234  0.3233  0.0524
    2SOL     OW    5   0.252   3.017   1.173 -0.2487 -0.0653  0.3040
    2SOL    HW1    6   0.291   3.076   1.112  0.7576  0.3062 -1.3145
    2SOL    HW2    7   0.158   3.035   1.162  0.4195  2.0287  2.2468
    2SOL     MW    8   0.244   3.027   1.163 -0.0277  0.2600  0.3468
    3SOL     OW    9   2.679   0.399   0.916 -0.1404  0.2209  0.1814
    3SOL    HW1   10   2.673   0.465   0.849 -2.3617  2.5269 -2.1862
    3SOL    HW2   11   2.629   0.429   0.995 -1.6303  1.4214 -1.1528
    3SOL     MW   12   2.671   0.412   0.918 -0.6301  0.6835 -0.3070
    4SOL     OW   13   3.039   1.756   0.589 -0.3788 -0.4039 -0.1359
    4SOL    HW1   14   2.958   1.796   0.555  1.0789  0.6173  1.8023
    4SOL    HW2   15   3.096   1.737   0.516 -0.8226  1.4633  2.8002
    4SOL     MW   16   3.036   1.759   0.575 -0.2450 -0.0228  0.5072
    5SOL     OW   17   1.732   1.517   0.547  0.1368  0.2582 -0.0479
    5SOL    HW1   18   1.768   1.441   0.597  0.1182  1.5281 -1.4228
    5SOL    HW2   19   1.640   1.508   0.569  1.9564  0.9135 -1.2794
    5SOL     MW   20   1.724   1.506   0.557  0.3744  0.5122 -0.3918
    6SOL     OW   21   0.852   1.378   0.690 -0.3340 -0.4631  0.1149
    6SOL    HW1   22   0.764   1.408   0.701  2.0618  0.8864  1.6490
    6SOL    HW2   23   0.864   1.295   0.743  2.1303  1.7979  3.0866
    6SOL     MW   24   0.842   1.371   0.699  0.3072  0.0132  0.7094
    7SOL     OW   25   2.015   1.155   0.023 -0.0477  0.2741 -0.2708
    7SOL    HW1   26   2.053   1.225  -0.030 -0.5801 -1.4597 -0.4576
    7SOL    HW2   27   2.052   1.163   0.109  1.0559  2.5841 -0.3397
    7SOL     MW   28   2.025   1.165   0.027  0.0277  0.3501 -0.3045
    8SOL     OW   29   0.945   1.365   1.016  0.2933 -0.4398 -0.1209
    8SOL    HW1   30   0.983   1.289   0.984  1.4648 -1.2725  1.3613
    8SOL    HW2   31   0.942   1.348   1.111 -1.8282  1.3577  1.8661
    8SOL     MW   32   0.950   1.353   1.025  0.1680 -0.3125  0.3368
    9SOL     OW   33   1.078   0.462   1.386  0.4641  0.0596  0.0371
    9SOL    HW1   34   1.013   0.402   1.346 -0.5857 -0.6492 -0.3974
    9SOL    HW2   35   1.133   0.408   1.444 -3.6975 -3.1012 -0.2195
    9SOL     MW   36   1.077   0.447   1.388 -0.2235 -0.4509 -0.0541
   10SOL     OW   37   0.257   0.786   0.422  0.1916 -0.1567 -0.1685
   10SOL    HW1   38   0.346   0.802   0.425  0.9539 -0.5779 -1.1395
   10SOL    HW2   39   0.217   0.833   0.497 -0.6536  0.4179  0.3867
   10SOL     MW   40   0.263   0.794   0.432  0.1807 -0.1365 -0.2234
   11SOL     OW   41   0.778   1.158   1.669  0.0073  0.2221  0.3042
   11SOL    HW1   42   0.811   1.136   1.757  0.3071 -0.8309 -2.8570
   11SOL    HW2   43   0.770   1.076   1.623  0.4642  3.7851  2.1545
   11SOL     MW   44   0.781   1.144   1.675  0.1072  0.5533  0.1312
   12SOL     OW   45   0.005   1.056   0.872 -0.5794  0.6254  0.5267
   12SOL    HW1   46   0.038   1.140   0.913  3.5607 -3.1207  0.7187
   12SOL    HW2   47  -0.072   1.085   0.821 -1.8732 -3.3538 -1.4472
   12SOL     MW   48  -0.001   1.071   0.871 -0.2038 -0.3939  0.2916
   13SOL     OW   49   1.840   1.415   1.322 -0.1114 -0.1293  0.1884
   13SOL    HW1   50   1.851   1.382   1.235 -0.7479 -0.2927 -1.6285
   13SOL    HW2   51   1.845   1.516   1.319 -1.2961  1.2503 -0.2082
   13SOL     MW   52   1.842   1.424   1.310 -0.3517  0.0311 -0.1036
   14SOL     OW   53   0.596   0.331   1.803  0.3690  0.2674 -0.5375
   14SOL    HW1   54   0.542   0.258   1.771 -0.0516  0.3465  2.1594
   14SOL    HW2   55   0.680   0.293   1.832 -0.3236 -0.8141 -0.2168
   14SOL     MW   56   0.600   0.317   1.803  0.2221  0.1351 -0.1394
   15SOL     OW   57   1.917   0.505   0.978 -0.4075 -0.4692 -0.0458
   15SOL    HW1   58   1.938   0.519   1.076 -0.1428  0.1759  0.6355
   15SOL    HW2   59   1.997   0.461   0.950 -1.1878 -1.6469  0.0633
   15SOL     MW   60   1.930   0.501   0.987 -0.4755 -0.5395  0.0585
   16SOL     OW   61   0.260   1.804   0.325  0.3002  0.5819  0.1202
   16SOL    HW1   62   0.332   1.746   0.352 -0.1461  0.1026  0.0280
   16SOL    HW2   63   0.271   1.887   0.366 -2.8557  0.8793  0.6647
   16SOL     MW   64   0.271   1.807   0.334 -0.1751  0.5579  0.1798
   17SOL     OW   65   1.010   0.853   1.491  0.3978  0.2655 -0.1271
   17SOL    HW1   66   1.065   0.855   1.569  1.0286  0.1662 -0.2437
   17SOL    HW2   67   0.919   0.845   1.513  1.0568  1.3633  0.3503
   17SOL     MW   68   1.005   0.852   1.504  0.5680  0.3972 -0.0795
   18SOL     OW   69   0.092   1.585   0.401  0.1177  0.1312 -0.7048
   18SOL    HW1   70   0.151   1.660   0.390  0.9665  0.3045 -0.7979
   18SOL    HW2   71   0.064   1.560   0.309 -1.1158  2.3690 -1.0686
   18SOL     MW   72   0.096   1.591   0.387  0.0670  0.4493 -0.7650
   19SOL     OW   73   0.080   1.295   1.012 -0.0969 -0.2759  0.0570
   19SOL    HW1   74   0.146   1.342   0.958 -0.6297 -0.2455  0.7582
   19SOL    HW2   75   0.003   1.359   1.018  0.1866  4.6537  0.7863
   19SOL     MW   76   0.078   1.310   1.006 -0.1298  0.3785  0.2457
   20SOL     OW   77   0.406   2.125   1.267 -0.2112  0.0485 -1.2983
   20SOL    HW1   78   0.344   2.068   1.215 -1.0833  0.2165  0.6664
   20SOL    HW2   79   0.347   2.174   1.337 -2.6070 -1.0430 -0.5962
   20SOL     MW   80   0.390   2.124   1.269 -0.6424 -0.0734 -0.9465
   21SOL     OW   81   0.519   0.811   0.372 -0.0871 -0.2844 -0.3118
   21SOL    HW1   82   0.594   0.801   0.431  2.4305  0.9646 -1.4086
   21SOL    HW2   83   0.559   0.779   0.294  0.5624 -0.7504  0.8508
   21SOL     MW   84   0.535   0.806   0.369  0.3308 -0.1811 -0.3031
   22SOL     OW   85   1.501   0.555   1.105 -0.2988  0.0346 -0.5520
   22SOL    HW1   86   1.540   0.495   1.041 -2.0601  1.9229  2.2451
   22SOL    HW2   87   1.430   0.609   1.063 -0.1839 -0.0657 -0.2463
   22SOL     MW   88   1.497   0.554   1.091 -0.5160  0.2705 -0.1426
   23SOL     OW   89   3.085   0.772   0.647  0.2496  0.4907 -0.1194
   23SOL    HW1   90   3.109   0.702   0.706 -0.7385 -1.2623 -0.9113
   23SOL    HW2   91   3.161   0.835   0.653  1.0822 -2.4218 -1.9320
   23SOL     MW   92   3.098   0.771   0.655  0.2291 -0.1249 -0.4631
   24SOL     OW   93   2.004   2.206   0.101  0.2807 -0.0393  0.4908
   24SOL    HW1   94   2.018   2.187   0.196  0.5834  1.7021 -0.6271
   24SOL    HW2   95   2.074   2.151   0.061  2.7119 -0.5187  0.2103
   24SOL     MW   96   2.015   2.196   0.108  0.6414  0.1272  0.3063
   25SOL     OW   97   0.251   1.389   0.543 -0.9051 -0.3871  0.3600
   25SOL    HW1   98   0.195   1.466   0.514  0.6351  0.6380 -1.3808
   25SOL    HW2   99   0.333   1.410   0.507  2.4390 -1.5159 -0.9493
   25SOL     MW  100   0.254   1.402   0.535 -0.2606 -0.4007 -0.0424
   26SOL     OW  101   2.017   0.920   0.454 -0.0432 -0.0270 -0.4930
   26SOL    HW1  102   1.954   0.992   0.468  0.1968  3.0746  0.1703
   26SOL    HW2  103   2.074   0.978   0.403 -2.5950  3.0478  3.7457
   26SOL     MW  104   2.016   0.937   0.449 -0.3482  0.7879  0.1537
   27SOL     OW  105   2.065   1.392   0.238  0.2321  0.2776 -0.5168
   27SOL    HW1  106   1.977   1.364   0.268  0.5518 -1.3474  1.3230
   27SOL    HW2  107   2.083   1.462   0.300 -2.9879  1.1372 -1.5429
   27SOL     MW  108   2.056   1.398   0.251 -0.1506  0.1766 -0.4094
   28SOL     OW  109   0.413   1.098   1.967 -0.2307 -0.1994  0.3118
   28SOL    HW1  110   0.472   1.024   1.942  4.0891  1.7165  1.7538
   28SOL    HW2  111   0.331   1.067   2.009  0.0689  2.4860  0.1510
   28SOL     MW  112   0.410   1.084   1.969  0.3788  0.4077  0.4808
   29SOL     OW  113   0.279   1.433   0.825 -0.2073  0.2734  0.0998
   29SOL    HW1  114   0.286   1.527   0.820 -0.3033 -1.0173  1.7415
   29SOL    HW2  115   0.278   1.414   0.732  1.2965 -0.6620  0.1863
   29SOL     MW  116   0.279   1.443   0.812 -0.0215 -0.0203  0.3278
   30SOL     OW  117   0.851   1.153   1.229 -0.3983  0.4328 -0.2138
   30SOL    HW1  118   0.760   1.171   1.261  0.2161 -0.1726  0.0417
   30SOL    HW2  119   0.905   1.156   1.314 -0.5034  1.6102  0.2156
   30SOL     MW  120   0.846   1.156   1.245 -0.3311  0.5083 -0.1235
   31SOL     OW  121   0.384   0.197   0.154  0.0478 -0.8996 -0.3650
   31SOL    HW1  122   0.407   0.136   0.223 -0.8959 -2.9298 -2.3401
   31SOL    HW2  123   0.365   0.141   0.079 -1.3208 -1.4256 -2.3784
   31SOL     MW  124   0.385   0.182   0.153 -0.2573 -1.2369 -0.8912
   32SOL     OW  125   2.770   1.017   1.141  0.1653 -0.5172 -0.2428
   32SOL    HW1  126   2.704   0.953   1.119  1.2044  0.0368  0.8921
   32SOL    HW2  127   2.858   0.974   1.135  1.2897  2.6319 -0.3140
   32SOL     MW  128   2.773   1.003   1.137  0.4507 -0.0286 -0.1025
   33SOL     OW  129   1.798   1.327   0.363  0.5329 -0.4664 -0.0592
   33SOL    HW1  130   1.810   1.244   0.412 -0.4138 -0.6621  1.1344
   33SOL    HW2  131   1.798   1.402   0.425 -0.9027 -0.4089  0.4258
   33SOL     MW  132   1.800   1.326   0.378  0.2186 -0.4846  0.1623
   34SOL     OW  133   1.215   1.874   1.108 -0.1265  0.0444  0.0537
   34SOL    HW1  134   1.116   1.903   1.109  0.4093 -1.7879  2.0359
   34SOL    HW2  135   1.261   1.905   1.185  0.1505  0.4516 -2.6394
   34SOL     MW  136   1.208   1.882   1.118 -0.0192 -0.1436 -0.0401
   35SOL     OW  137   0.358   0.128   1.846  0.3371  0.1049  0.8545
   35SOL    HW1  138   0.366   0.092   1.932 -1.0615  0.6478 -1.2516
   35SOL    HW2  139   0.391   0.059   1.782 -0.8279  0.3120  0.9256
   35SOL     MW  140   0.363   0.114   1.849 -0.0012  0.2039  0.5860
   36SOL     OW  141   1.841   1.920   0.478 -0.1367  0.2072  0.2263
   36SOL    HW1  142   1.848   1.895   0.391  0.7248 -0.6843  2.8691
   36SOL    HW2  143   1.854   1.837   0.523 -0.9300 -1.8029  1.6476
   36SOL     MW  144   1.844   1.905   0.472 -0.1277 -0.1757  0.7625
   37SOL     OW  145   1.771   2.009   1.062 -0.1606 -0.5640  0.6450
   37SOL    HW1  146   1.720   1.953   1.001 -0.3570 -0.7988 -4.5594
   37SOL    HW2  147   1.703   2.060   1.110  0.4137 -0.0307 -0.5146
   37SOL     MW  148   1.755   2.008   1.060 -0.1108 -0.5246 -0.1947
   38SOL     OW  149   2.834   0.922   0.165  0.7686 -0.0498 -0.0292
   38SOL    HW1  150   2.870   0.906   0.257 -3.2742 -2.0965  1.3301
   38SOL    HW2  151   2.890   0.878   0.102 -0.3681 -2.8589 -0.2477
   38SOL     MW  152   2.846   0.914   0.169  0.0852 -0.6905  0.1213
   39SOL     OW  153   1.394   0.622   0.800 -0.1793  0.3398 -0.2682
   39SOL    HW1  154   1.380   0.527   0.798 -0.0581 -1.0342  0.4395
   39SOL    HW2  155   1.309   0.666   0.790  0.7173 -0.1535 -0.6492
   39SOL     MW  156   1.381   0.615   0.799 -0.0450  0.0934 -0.2251
   40SOL     OW  157   1.194   1.890   0.256 -0.0824  0.0466 -0.0506
   40SOL    HW1  158   1.237   1.836   0.322 -0.7106 -0.1384 -0.6325
   40SOL    HW2  159   1.173   1.974   0.302 -2.3701  0.6139 -0.7242
   40SOL     MW  160   1.197   1.894   0.271 -0.4671  0.0971 -0.2162
   41SOL     OW  161   0.607   0.475   1.559  0.0364 -0.3782 -0.2792
   41SOL    HW1  162   0.693   0.513   1.572 -0.1753 -0.6773 -0.5495
   41SOL    HW2  163   0.606   0.409   1.633  0.6542 -0.6726 -0.0969
   41SOL     MW  164   0.618   0.471   1.570  0.0900 -0.4565 -0.2908
   42SOL     OW  165   1.256   2.995   2.011  0.1574  0.0550  0.4706
   42SOL    HW1  166   1.165   3.002   2.031  1.0393  3.0388  1.5052
   42SOL    HW2  167   1.280   2.906   2.038 -0.8350  1.4760  0.3932
   42SOL     MW  168   1.247   2.984   2.017  0.1429  0.6361  0.5969
   43SOL     OW  169   1.536   0.145   1.748  0.6608 -0.2967  0.3130
   43SOL    HW1  170   1.587   0.102   1.682  0.0572 -2.6782  3.1270
   43SOL    HW2  171   1.466   0.079   1.745 -0.8016  1.5114 -2.1617
   43SOL     MW  172   1.533   0.131   1.739  0.3882 -0.3724  0.3577
   44SOL     OW  173   1.247   0.745   1.092 -0.0565 -0.0475  0.3196
   44SOL    HW1  174   1.213   0.834   1.057  0.3542  0.0413 -1.1076
   44SOL    HW2  175   1.242   0.748   1.190  0.0167  0.7738  1.1388
   44SOL     MW  176   1.242   0.757   1.100  0.0074  0.0726  0.2394
   45SOL     OW  177   1.133   0.714   0.764 -0.1886 -0.3654 -0.5848
   45SOL    HW1  178   1.105   0.681   0.845 -0.4695 -0.2437 -1.7437
   45SOL    HW2  179   1.094   0.658   0.701  0.1244 -1.8392  0.9139
   45SOL     MW  180   1.124   0.702   0.766 -0.1843 -0.5438 -0.5400
   46SOL     OW  181   0.544   1.196   0.540  0.1886  0.3254  0.0222
   46SOL    HW1  182   0.494   1.208   0.462  2.7903 -0.6127  2.5978
   46SOL    HW2  183   0.633   1.197   0.512 -0.5726  1.1106  1.4436
   46SOL     MW  184   0.549   1.197   0.526  0.4314  0.3053  0.5496
   47SOL     OW  185   0.171   1.945   1.780 -0.6896 -0.4449  0.1148
   47SOL    HW1  186   0.228   1.881   1.725 -0.6157  2.1003  0.1302
   47SOL    HW2  187   0.193   1.916   1.872  0.1338  1.1774 -1.0799
   47SOL     MW  188   0.182   1.933   1.785 -0.5712  0.1049 -0.0408
   48SOL     OW  189   1.047   0.588   1.020  0.5775 -0.0082 -0.2640
   48SOL    HW1  190   0.972   0.542   1.063 -0.1424 -0.9804  0.0306
   48SOL    HW2  191   1.088   0.653   1.078 -3.3839 -0.3684  0.7545
   48SOL     MW  192   1.043   0.590   1.033 -0.0401 -0.1840 -0.0908
   49SOL     OW  193   1.796   0.759   1.542  0.1830  0.0258  0.1897
   49SOL    HW1  194   1.742   0.751   1.627  0.8189  1.9298  2.9771
   49SOL    HW2  195   1.870   0.696   1.539  2.7767  0.2939 -1.4607
   49SOL     MW  196   1.799   0.749   1.553  0.6091  0.3124  0.3397
   50SOL     OW  197   1.175   1.057   0.498  0.2063 -0.2345  0.0966
   50SOL    HW1  198   1.133   1.090   0.580 -0.8044 -2.4691  1.1180
   50SOL    HW2  199   1.250   1.002   0.521 -1.0684 -0.3490 -0.4211
   50SOL     MW  200   1.179   1.054   0.512 -0.0953 -0.5444  0.1631
   51SOL     OW  201   0.345   2.889   0.933 -0.3464  0.2736 -0.5328
   51SOL    HW1  202   0.427   2.887   0.979 -2.0142  0.3434  0.8858
   51SOL    HW2  203   0.291   2.941   0.989 -1.9583 -1.2636 -1.5906
   51SOL     MW  204   0.349   2.896   0.946 -0.7791  0.0800 -0.4852
   52SOL     OW  205   0.820   1.802   0.418 -0.5639  0.5448  0.3697
   52SOL    HW1  206   0.782   1.886   0.434 -0.4158 -0.5072  2.1083
   52SOL    HW2  207   0.833   1.795   0.324  0.0286 -3.9272  1.4877
   52SOL     MW  208   0.817   1.812   0.408 -0.4662 -0.1841  0.7466
   53SOL     OW  209   0.493   2.149   0.613 -0.4577 -0.1042  0.3249
   53SOL    HW1  210   0.432   2.138   0.545 -1.8872  0.6813  4.6830
   53SOL    HW2  211   0.504   2.247   0.605 -1.2074  0.5128  3.3559
   53SOL     MW  212   0.486   2.160   0.603 -0.7452  0.0808  1.2998
   54SOL     OW  213   2.179   0.851   0.847 -0.4958  0.7331 -0.1035
   54SOL    HW1  214   2.226   0.850   0.760  0.3193 -0.6085 -0.9700
   54SOL    HW2  215   2.087   0.817   0.828 -0.4834  0.4079 -2.3460
   54SOL     MW  216   2.173   0.846   0.833 -0.3866  0.5132 -0.5137
   55SOL     OW  217   0.574   1.487   1.603  0.1266  0.8296  0.0036
   55SOL    HW1  218   0.525   1.553   1.552 -2.0560  0.5557  0.1128
   55SOL    HW2  219   0.631   1.442   1.543 -0.6900 -1.6883 -1.2422
   55SOL     MW  220   0.575   1.490   1.588 -0.2691  0.4613 -0.1464
   56SOL     OW  221   0.540   0.760   0.088 -0.3976  0.2374  0.0688
   56SOL    HW1  222   0.547   0.852   0.074 -0.2400  1.9245 -0.4262
   56SOL    HW2  223   0.447   0.739   0.102  0.9469  1.4199  0.8316
   56SOL     MW  224   0.528   0.769   0.088 -0.1994  0.6160  0.1041
   57SOL     OW  225   1.252   1.221   1.182 -0.2909  0.0643 -0.7543
   57SOL    HW1  226   1.323   1.274   1.138 -1.7355 -0.0130 -0.4255
   57SOL    HW2  227   1.296   1.199   1.263  0.5113 -0.3672 -0.3627
   57SOL     MW  228   1.267   1.225   1.187 -0.3756 -0.0028 -0.6592
   58SOL     OW  229   0.558   1.156   1.305 -0.1600  0.3218  0.4131
   58SOL    HW1  230   0.531   1.245   1.275 -0.3195 -0.1061  0.1027
   58SOL    HW2  231   0.538   1.148   1.404 -0.6443 -0.7516  2.1670
   58SOL     MW  232   0.552   1.167   1.314 -0.2449  0.1237  0.6035
   59SOL     OW  233   1.557   1.665   0.360 -0.8630  0.5501 -0.6478
   59SOL    HW1  234   1.604   1.700   0.430 -1.2358 -0.8601  2.1906
   59SOL    HW2  235   1.469   1.684   0.385 -1.2913 -2.1448  0.5246
   59SOL     MW  236   1.552   1.672   0.372 -0.9687  0.0085 -0.1186
   60SOL     OW  237   0.085   0.202   1.692  0.2681 -0.5971 -0.4872
   60SOL    HW1  238  -0.010   0.223   1.669 -2.1944 -1.3763 -3.1143
   60SOL    HW2  239   0.089   0.124   1.744 -1.7051 -0.2808  0.4077
   60SOL     MW  240   0.073   0.195   1.696 -0.3172 -0.6582 -0.7158
   61SOL     OW  241   2.047   1.458   3.063  0.4114 -0.0093 -0.6339
   61SOL    HW1  242   2.053   1.423   3.156 -0.5280 -1.9058 -0.9837
   61SOL    HW2  243   2.115   1.406   3.012 -1.8088 -0.6266 -2.6268
   61SOL     MW  244   2.057   1.446   3.068 -0.0055 -0.3409 -0.9430
   62SOL     OW  245   0.617   1.709   0.628 -0.4123  0.3062  0.2961
   62SOL    HW1  246   0.677   1.735   0.559  1.3574  1.1869 -3.4089
   62SOL    HW2  247   0.639   1.612   0.649  0.5602 -0.2703  0.0015
   62SOL     MW  248   0.628   1.700   0.622 -0.0505  0.3463 -0.2316
   63SOL     OW  249   1.648   0.735   0.708 -0.0643 -0.3817  0.1768
   63SOL    HW1  250   1.638   0.800   0.639 -0.4002  0.3784 -0.5644
   63SOL    HW2  251   1.558   0.721   0.740 -0.0540  1.1603  0.0952
   63SOL     MW  252   1.635   0.742   0.703 -0.1073 -0.0780  0.0682
   64SOL     OW  253   0.267   1.702   0.720  0.3675  0.0473 -0.0507
   64SOL    HW1  254   0.346   1.757   0.725  0.4903 -0.9923 -1.0906
   64SOL    HW2  255   0.196   1.771   0.712 -2.5695  2.2178  0.0843
   64SOL     MW  256   0.268   1.719   0.719 -0.0038  0.1965 -0.1701
   65SOL     OW  257   1.545   2.346   0.366  0.1583  0.2964  0.0668
   65SOL    HW1  258   1.632   2.307   0.354 -0.6814 -0.2130  0.7312
   65SOL    HW2  259   1.529   2.373   0.464  1.4196 -0.7419  1.5282
   65SOL     MW  260   1.555   2.344   0.377  0.2139  0.0922  0.3473
   66SOL     OW  261   0.302   0.541   0.530 -0.1719  0.3987  0.7479
   66SOL    HW1  262   0.356   0.477   0.481 -0.6290  4.2719 -1.3101
   66SOL    HW2  263   0.300   0.626   0.482  0.9834  0.8568  0.4042
   66SOL     MW  264   0.309   0.544   0.517 -0.0798  0.9701  0.4310
   67SOL     OW  265   1.444   0.094   2.036 -0.6304 -0.2019 -0.3372
   67SOL    HW1  266   1.483   0.121   1.952 -0.9769  0.1574 -0.5783
   67SOL    HW2  267   1.400   0.013   2.018  0.1329  1.2982 -1.0360
   67SOL     MW  268   1.443   0.087   2.022 -0.5754  0.0434 -0.4612
   68SOL     OW  269   0.625   0.093   2.980  0.4885  0.3931 -0.5434
   68SOL    HW1  270   0.626   0.133   2.892 -1.7205 -0.2585 -0.7994
   68SOL    HW2  271   0.650   0.170   3.027  1.1131 -1.3327 -0.0097
   68SOL     MW  272   0.628   0.108   2.975  0.2795  0.0794 -0.5068
   69SOL     OW  273   1.011   0.188   1.984  0.4153 -0.3012  0.2515
   69SOL    HW1  274   1.099   0.215   2.023  0.1327  0.7386  2.4334
   69SOL    HW2  275   0.996   0.093   2.016 -0.4449 -1.5420  0.5169
   69SOL     MW  276   1.020   0.179   1.994  0.2645 -0.3277  0.5744
   70SOL     OW  277   0.542   1.734   1.125 -0.9762 -0.4229  0.3568
   70SOL    HW1  278   0.598   1.670   1.165 -1.3181  1.4012 -0.1844
   70SOL    HW2  279   0.608   1.767   1.060  2.6313 -0.9725 -0.4337
   70SOL     MW  280   0.558   1.730   1.122 -0.5454 -0.2548  0.1811
   71SOL     OW  281   1.698   0.572   1.351 -0.5839 -0.6774  0.2630
   71SOL    HW1  282   1.692   0.651   1.407 -3.1716  0.2566 -0.2985
   71SOL    HW2  283   1.621   0.578   1.297 -1.0397 -1.6363 -1.3908
   71SOL     MW  284   1.687   0.583   1.351 -0.9855 -0.6807 -0.0293
   72SOL     OW  285   0.783   1.763   0.960  0.2115  0.2267  0.0207
   72SOL    HW1  286   0.778   1.814   0.874  1.4602 -0.5590 -1.2963
   72SOL    HW2  287   0.746   1.677   0.944 -1.4515  1.4103  0.3534
   72SOL     MW  288   0.778   1.758   0.946  0.1568  0.2792 -0.1092
   73SOL     OW  289   1.188   0.700   1.362 -0.4955  0.1668 -0.1350
   73SOL    HW1  290   1.162   0.606   1.363 -1.0156  0.1776 -0.2914
   73SOL    HW2  291   1.116   0.745   1.412  0.4364 -2.0048  2.4642
   73SOL     MW  292   1.175   0.693   1.369 -0.4412 -0.1183  0.1873
   74SOL     OW  293   2.873   0.185   0.955 -0.4637 -0.3537  0.0138
   74SOL    HW1  294   2.871   0.129   0.876 -2.0339 -0.4097 -1.4549
   74SOL    HW2  295   2.820   0.259   0.932  0.1327 -0.8984 -1.3358
   74SOL     MW  296   2.866   0.188   0.942 -0.5922 -0.4329 -0.3581
   75SOL     OW  297   1.649   1.393   0.141  1.0107 -0.1760 -0.1503
   75SOL    HW1  298   1.703   1.385   0.219 -0.1927 -0.0625  1.4066
   75SOL    HW2  299   1.655   1.303   0.097 -0.1221 -2.7880 -0.5982
   75SOL     MW  300   1.657   1.380   0.145  0.7025 -0.5056 -0.0040
   76SOL     OW  301   3.022   0.625   0.437 -0.4435 -0.1629 -0.2765
   76SOL    HW1  302   3.040   0.662   0.524  1.2498 -1.6016  1.1765
   76SOL    HW2  303   3.049   0.535   0.447 -2.2899  0.5062 -1.7033
   76SOL     MW  304   3.028   0.618   0.450 -0.4637 -0.2644 -0.2731
   77SOL     OW  305   0.810   0.527   0.390  0.2388 -0.2612  0.3641
   77SOL    HW1  306   0.787   0.543   0.294  1.0581  0.0417  1.6031
   77SOL    HW2  307   0.734   0.494   0.433 -0.7354  1.0360 -0.9087
   77SOL     MW  308   0.797   0.525   0.383  0.2184 -0.0501  0.3597
   78SOL     OW  309   0.753   0.844   1.250  0.0041  0.9547  0.2081
   78SOL    HW1  310   0.690   0.836   1.186  1.2750 -0.9770  1.5752
   78SOL    HW2  311   0.818   0.907   1.227  0.9019 -1.7701  1.0171
   78SOL     MW  312   0.753   0.851   1.239  0.2902  0.3403  0.4952
   79SOL     OW  313   1.916   1.690   0.620 -0.4657  0.2070  0.3913
   79SOL    HW1  314   1.847   1.625   0.589 -0.9059 -2.9051  0.5604
   79SOL    HW2  315   1.906   1.703   0.710 -2.1903 -2.2437 -3.9334
   79SOL     MW  316   1.905   1.683   0.628 -0.7513 -0.5270 -0.1570
   80SOL     OW  317   0.116   0.999   0.318 -0.0684  0.2592 -0.2638
   80SOL    HW1  318   0.024   0.959   0.318 -2.1484 -0.8277  0.5909
   80SOL    HW2  319   0.178   0.924   0.337 -0.1840 -0.9143  0.4713
   80SOL     MW  320   0.112   0.983   0.320 -0.3581 -0.0390 -0.0541
   81SOL     OW  321   1.907   1.918   0.203 -0.2386 -0.1697  0.0073
   81SOL    HW1  322   1.868   1.831   0.173 -0.7610 -1.8231 -2.3376
   81SOL    HW2  323   1.830   1.981   0.198  2.5373  0.3863  0.3161
   81SOL     MW  324   1.892   1.915   0.198  0.0587 -0.3145 -0.2614
   82SOL     OW  325   0.821   1.082   0.517 -0.2371  0.3632  0.3994
   82SOL    HW1  326   0.838   1.104   0.427  0.5158  1.5316  0.7035
   82SOL    HW2  327   0.811   0.993   0.514  1.3775  3.8957 -2.6145
   82SOL     MW  328   0.822   1.073   0.504  0.0753  0.9834  0.0418
   83SOL     OW  329   0.197   0.615   1.295 -0.4030  0.0382  0.3321
   83SOL    HW1  330   0.151   0.702   1.316  0.8381  2.6602  1.8847
   83SOL    HW2  331   0.233   0.604   1.384  1.7614 -0.6050  0.1882
   83SOL     MW  332   0.195   0.625   1.310  0.0464  0.2993  0.5179
   84SOL     OW  333   0.081   0.203   0.903  0.4911  0.3487 -0.2404
   84SOL    HW1  334   0.002   0.244   0.879  1.5920 -0.0773 -0.2467
   84SOL    HW2  335   0.061   0.164   0.991  1.6169  1.0471  0.6657
   84SOL     MW  336   0.068   0.203   0.911  0.7849  0.3847 -0.1216
   85SOL     OW  337   0.481   0.446   0.761  0.0492 -0.6227 -0.0531
   85SOL    HW1  338   0.445   0.502   0.695 -0.1422  3.2756  0.2888
   85SOL    HW2  339   0.422   0.370   0.750 -0.9238  3.0567 -0.5727
   85SOL     MW  340   0.469   0.443   0.751 -0.1044  0.3771 -0.0766
   86SOL     OW  341   1.219   0.384   1.072 -0.4301 -0.1932  0.3998
   86SOL    HW1  342   1.169   0.460   1.037  1.3693 -0.3702  0.8982
   86SOL    HW2  343   1.260   0.417   1.148  0.8712 -1.0719 -1.5484
   86SOL     MW  344   1.218   0.398   1.077 -0.0210 -0.3325  0.2085
   87SOL     OW  345   1.148   1.466   1.251 -0.1555 -0.2752 -0.2443
   87SOL    HW1  346   1.164   1.526   1.172  1.0228  0.0157 -1.4093
   87SOL    HW2  347   1.183   1.376   1.221 -0.5877 -1.6527  1.1147
   87SOL     MW  348   1.154   1.462   1.237 -0.0571 -0.4186 -0.2187
   88SOL     OW  349   1.221   1.013   0.996 -0.3466  0.0295 -0.6479
   88SOL    HW1  350   1.315   1.003   0.972  0.9235 -2.2208  0.7552
   88SOL    HW2  351   1.208   1.064   1.081  0.8973  0.2590 -1.2698
   88SOL     MW  352   1.231   1.019   1.004 -0.0149 -0.2371 -0.5448
   89SOL     OW  353   1.751   0.671   0.289 -0.1500  0.1436 -0.0249
   89SOL    HW1  354   1.810   0.593   0.312 -0.2242 -1.9141 -0.7260
   89SOL    HW2  355   1.817   0.734   0.261 -1.0555  2.3249  0.4670
   89SOL     MW  356   1.767   0.669   0.289 -0.2792  0.1599 -0.0525
   90SOL     OW  357   0.689   1.171   2.831  0.1474 -0.3031 -0.2431
   90SOL    HW1  358   0.751   1.107   2.853 -0.9796 -0.9284 -0.8263
   90SOL    HW2  359   0.687   1.247   2.895 -1.1993  3.6315 -1.4293
   90SOL     MW  360   0.697   1.173   2.842 -0.1789  0.1335 -0.4765
   91SOL     OW  361   2.228   0.660   0.549 -0.6018 -0.4030 -0.5609
   91SOL    HW1  362   2.246   0.720   0.474  1.7086  0.1116 -0.5767
   91SOL    HW2  363   2.223   0.571   0.512  0.1009 -0.0063  0.7800
   91SOL     MW  364   2.229   0.656   0.534 -0.2043 -0.2827 -0.3861
   92SOL     OW  365   1.630   0.902   0.472  0.3162 -0.0536  0.7432
   92SOL    HW1  366   1.531   0.888   0.496 -1.0160 -0.5767  0.2366
   92SOL    HW2  367   1.656   0.824   0.417  1.5155  1.3982 -0.5634
   92SOL     MW  368   1.620   0.890   0.468  0.2987  0.0690  0.5039
   93SOL     OW  369   1.029   0.306   0.368 -0.4396  0.4317  0.1843
   93SOL    HW1  370   0.944   0.347   0.360 -1.0703 -1.1437 -1.2159
   93SOL    HW2  371   1.068   0.309   0.280  1.2900  0.7542 -1.3184
   93SOL     MW  372   1.023   0.312   0.356 -0.2946  0.2664 -0.1987
   94SOL     OW  373   1.903   1.358   1.590 -0.2472  0.2822  0.3523
   94SOL    HW1  374   1.902   1.355   1.493 -0.5185 -1.3187  1.5747
   94SOL    HW2  375   1.893   1.273   1.626 -2.0144  0.3362 -2.4525
   94SOL     MW  376   1.901   1.346   1.582 -0.5162  0.0781  0.1435
   95SOL     OW  377   0.713   1.499   0.984 -0.1819  0.1314  0.2869
   95SOL    HW1  378   0.786   1.432   1.002 -1.4403 -1.1093 -0.5230
   95SOL    HW2  379   0.647   1.445   0.943  1.5395  0.4762  1.4211
   95SOL     MW  380   0.714   1.483   0.981 -0.1208  0.0132  0.3297
   96SOL     OW  381   1.226   1.795   1.562  0.1822  0.0504  0.3388
   96SOL    HW1  382   1.150   1.761   1.622  0.9578  1.0580 -0.2810
   96SOL    HW2  383   1.270   1.718   1.533 -0.8581 -2.0910 -1.3262
   96SOL     MW  384   1.222   1.780   1.566  0.1472 -0.0992  0.0373
   97SOL     OW  385   1.236   1.462   0.787  0.6897  0.3265  1.2821
   97SOL    HW1  386   1.264   1.508   0.865 -0.9155  0.5434  0.5730
   97SOL    HW2  387   1.164   1.517   0.748 -0.3910  2.0014 -0.8330
   97SOL     MW  388   1.230   1.476   0.792  0.3353  0.5761  0.9095
   98SOL     OW  389   1.482   1.298   1.055 -0.0531  0.5311  0.0257
   98SOL    HW1  390   1.485   1.374   1.108 -0.3688 -2.3688 -1.2132
   98SOL    HW2  391   1.537   1.332   0.986  0.6179  0.1446  0.2060
   98SOL     MW  392   1.490   1.313   1.053 -0.0062  0.0975 -0.1140
   99SOL     OW  393   1.418   0.384   1.304 -0.6209  0.0520  0.5556
   99SOL    HW1  394   1.437   0.447   1.232  0.9048 -2.2894 -1.1522
   99SOL    HW2  395   1.482   0.419   1.372  0.8510  0.5656  0.3217
   99SOL     MW  396   1.429   0.397   1.303 -0.2254 -0.1891  0.2994
  100SOL     OW  397   1.043   1.130   1.442 -0.0238  0.1808 -0.4745
  100SOL    HW1  398   1.046   1.165   1.531  1.6034  3.3355 -0.5506
  100SOL    HW2  399   1.059   1.036   1.448 -1.2289 -1.8279 -0.8611
  100SOL     MW  400   1.046   1.122   1.454  0.0319  0.3320 -0.5356
  101SOL     OW  401   0.548   1.068   0.262 -0.0793 -0.1707  0.0712
  101SOL    HW1  402   0.542   0.981   0.306 -1.6875  0.5918 -0.9018
  101SOL    HW2  403   0.497   1.064   0.176  1.7241  2.2751  1.3302
  101SOL     MW  404   0.541   1.056   0.256 -0.0536  0.2526  0.1090
  102SOL     OW  405   2.962   0.649   0.941 -0.7548 -0.0971 -0.3631
  102SOL    HW1  406   2.983   0.735   0.992 -1.1282 -1.1560  1.0052
  102SOL    HW2  407   2.977   0.585   1.015  0.8298 -0.3742  2.0337
  102SOL     MW  408   2.967   0.652   0.958 -0.5950 -0.2734  0.1336
  103SOL     OW  409   1.726   0.379   1.841  0.6774  0.1378 -0.0980
  103SOL    HW1  410   1.682   0.291   1.827  0.4433  1.6666 -0.0252
  103SOL    HW2  411   1.800   0.349   1.903  1.7042  0.9352  1.2238
  103SOL     MW  412   1.730   0.363   1.847  0.7820  0.4447  0.0860
  104SOL     OW  413   0.166   1.785   1.518 -0.4181 -0.2610  0.0551
  104SOL    HW1  414   0.083   1.736   1.499  1.8843  2.7200  0.2089
  104SOL    HW2  415   0.229   1.780   1.449 -0.6494 -0.7411  0.3639
  104SOL     MW  416   0.163   1.778   1.506 -0.1448  0.0690  0.1161
  105SOL     OW  417   0.040   1.196   0.504 -0.8753 -0.8962  0.1496
  105SOL    HW1  418   0.058   1.105   0.476 -2.4380 -0.1623  0.3135
  105SOL    HW2  419   0.126   1.233   0.522  0.4411 -4.3228 -2.1162
  105SOL     MW  420   0.054   1.189   0.502 -0.9078 -1.2515 -0.1277
  106SOL     OW  421   0.858   0.377   1.004  0.1163  0.9078  0.5787
  106SOL    HW1  422   0.798   0.442   0.958 -0.6126 -1.4279 -3.3240
  106SOL    HW2  423   0.916   0.346   0.935 -0.9914  0.1300 -0.4123
  106SOL     MW  424   0.858   0.381   0.989 -0.1260  0.4971 -0.0670
  107SOL     OW  425   0.810   2.161   2.985 -0.5754 -0.3189  0.1215
  107SOL    HW1  426   0.761   2.107   2.924  0.8772 -0.9475  1.4322
  107SOL    HW2  427   0.828   2.105   3.060  1.8394  2.2413  1.5399
  107SOL     MW  428   0.806   2.147   2.987 -0.0651 -0.0641  0.4815
  108SOL     OW  429   1.336   1.588   1.460 -0.1269 -0.1115  1.0817
  108SOL    HW1  430   1.264   1.528   1.425  2.4395 -0.8332 -1.3815
  108SOL    HW2  431   1.395   1.542   1.523  1.5735 -1.3889  3.1340
  108SOL     MW  432   1.334   1.574   1.464  0.4361 -0.3753  1.0275
  109SOL     OW  433   2.004   0.753   0.199 -0.0780 -0.3272 -0.2180
  109SOL    HW1  434   2.004   0.786   0.110  0.9691 -1.9500  2.5419
  109SOL    HW2  435   2.045   0.811   0.265 -1.5249  1.7296 -1.4641
  109SOL     MW  436   2.010   0.765   0.196 -0.1308 -0.2699 -0.0183
  110SOL     OW  437   0.501   1.891   0.771 -0.3172  0.0228 -0.2422
  110SOL    HW1  438   0.541   1.821   0.712 -0.4096  1.7741  1.2013
  110SOL    HW2  439   0.546   1.974   0.732  3.0064  0.8474  0.9374
  110SOL     MW  440   0.512   1.893   0.758  0.1092  0.3627  0.1039
  111SOL     OW  441   0.744   0.915   1.514  0.7268  0.6029  0.2602
  111SOL    HW1  442   0.737   0.889   1.420 -2.2744  1.0545 -0.0592
  111SOL    HW2  443   0.670   0.868   1.557  1.1450 -0.2903  0.4760
  111SOL     MW  444   0.733   0.905   1.507  0.3860  0.5447  0.2466
  112SOL     OW  445   1.301   1.070   1.671  0.2760  0.2006 -1.0661
  112SOL    HW1  446   1.242   1.144   1.690 -1.1882  1.5570 -1.2101
  112SOL    HW2  447   1.251   0.988   1.675  0.5453  0.7399 -4.4267
  112SOL     MW  448   1.287   1.069   1.674  0.1183  0.4507 -1.5285
  113SOL     OW  449   1.288   3.103   1.759 -0.7357  0.5454  0.1230
  113SOL    HW1  450   1.275   3.050   1.838 -0.6392  0.7509 -1.1209
  113SOL    HW2  451   1.304   3.040   1.684  2.4555  0.2115  0.2999
  113SOL     MW  452   1.288   3.087   1.760 -0.3019  0.5285 -0.0178
  114SOL     OW  453   0.453   2.837   1.941 -0.7792  0.2691 -0.0061
  114SOL    HW1  454   0.441   2.925   1.975  0.9471 -0.0605  1.8051
  114SOL    HW2  455   0.445   2.860   1.853  0.9444  2.7207 -0.0452
  114SOL     MW  456   0.451   2.852   1.934 -0.3240  0.5491  0.2277
  115SOL     OW  457   0.481   0.816   1.111 -0.0240  0.2899 -0.1997
  115SOL    HW1  458   0.479   0.734   1.160  0.3853  2.3503  2.7541
  115SOL    HW2  459   0.429   0.869   1.171 -1.0446  0.4136 -0.8823
  115SOL     MW  460   0.474   0.812   1.126 -0.1046  0.5781  0.1000
  116SOL     OW  461   0.772   1.000   0.993 -0.2805 -0.5141  0.2300
  116SOL    HW1  462   0.849   1.023   0.940  1.6798  1.7077 -0.4840
  116SOL    HW2  463   0.787   1.018   1.086  0.0611 -0.0339  1.7445
  116SOL     MW  464   0.784   1.006   0.999  0.0232 -0.1576  0.3356
  117SOL     OW  465   1.198   1.163   0.785 -0.1095  0.2094 -0.0348
  117SOL    HW1  466   1.200   1.113   0.868  0.8934  1.0510 -2.1781
  117SOL    HW2  467   1.188   1.255   0.800 -2.2271  2.0716 -2.9411
  117SOL     MW  468   1.197   1.168   0.798 -0.2566  0.5661 -0.7010
  118SOL     OW  469   3.028   2.900   1.694 -0.0990  0.0475  0.1617
  118SOL    HW1  470   3.059   2.957   1.762 -1.6519  2.7043 -1.9572
  118SOL    HW2  471   2.941   2.932   1.660  1.9208 -1.2640 -0.4903
  118SOL     MW  472   3.020   2.911   1.699 -0.0374  0.2250 -0.2039
  119SOL     OW  473   0.474   1.411   1.210 -0.3042  0.4619  0.1238
  119SOL    HW1  474   0.475   1.444   1.123  0.7896  0.7730 -0.2266
  119SOL    HW2  475   0.384   1.383   1.227  2.4365  1.9387 -0.3361
  119SOL     MW  476   0.462   1.412   1.201  0.2018  0.6978  0.0169
  120SOL     OW  477   0.223   0.682   1.024  0.9678 -0.1343  0.0923
  120SOL    HW1  478   0.209   0.591   1.055  1.6414 -1.2352  2.7007
  120SOL    HW2  479   0.296   0.708   1.078  0.9830 -0.0062 -2.0508
  120SOL     MW  480   0.231   0.673   1.035  1.0587 -0.2626  0.1537
  121SOL     OW  481   1.814   1.085   1.694 -0.5084 -0.0256 -0.1511
  121SOL    HW1  482   1.719   1.066   1.706 -0.4168  0.7071 -1.6918
  121SOL    HW2  483   1.852   1.040   1.615  1.2815 -0.2973  1.0914
  121SOL     MW  484   1.807   1.077   1.685 -0.2602  0.0352 -0.1905
  122SOL     OW  485   0.132   0.565   0.777  0.1082  0.5252  0.5259
  122SOL    HW1  486   0.210   0.560   0.723  1.3359  1.9645  1.2347
  122SOL    HW2  487   0.147   0.611   0.858 -1.1894  0.5773 -0.6333
  122SOL     MW  488   0.144   0.570   0.781  0.0990  0.7219  0.4665
  123SOL     OW  489   1.807   1.101   0.503 -0.2850  0.0832  0.8644
  123SOL    HW1  490   1.726   1.046   0.487  2.2491 -1.3671  1.3315
  123SOL    HW2  491   1.815   1.098   0.596 -1.7795  0.1655 -1.7616
  123SOL     MW  492   1.797   1.093   0.513 -0.1479 -0.0973  0.5796
  124SOL     OW  493   0.673   0.568   0.946  0.5575  0.1204  0.2385
  124SOL    HW1  494   0.618   0.509   0.891  0.2822 -1.9019 -0.0960
  124SOL    HW2  495   0.676   0.653   0.891  0.4272  0.1213 -0.2214
  124SOL     MW  496   0.666   0.571   0.931  0.5040 -0.1463  0.1337
  125SOL     OW  497   0.695   1.765   1.698  0.1352  0.4567 -0.2495
  125SOL    HW1  498   0.621   1.707   1.701 -0.4588 -0.1481  1.2268
  125SOL    HW2  499   0.649   1.852   1.684  2.8704 -1.3491 -1.3343
  125SOL     MW  500   0.679   1.769   1.697  0.4177  0.1387 -0.1979
  126SOL     OW  501   2.091   1.636   1.963 -0.1224  0.5177 -0.0512
  126SOL    HW1  502   2.171   1.691   1.952  0.0450 -0.4483 -1.3697
  126SOL    HW2  503   2.138   1.561   1.993  0.4623  0.4152 -1.3768
  126SOL     MW  504   2.108   1.634   1.966 -0.0232  0.3767 -0.4001
  127SOL     OW  505   0.649   0.764   1.869  0.4733  0.2692  0.0896
  127SOL    HW1  506   0.738   0.720   1.878  1.3481 -1.3917 -2.0737
  127SOL    HW2  507   0.649   0.846   1.913  1.2401 -1.6019  0.9835
  127SOL     MW  508   0.661   0.769   1.876  0.6899 -0.1968 -0.0779
  128SOL     OW  509   1.842   0.782   2.851 -0.0157  0.2256  0.1789
  128SOL    HW1  510   1.813   0.708   2.796  0.2530 -1.7979  1.0182
  128SOL    HW2  511   1.767   0.845   2.866 -0.2938 -1.6387 -3.7364
  128SOL     MW  512   1.828   0.781   2.846 -0.0170 -0.2874 -0.2269
  129SOL     OW  513   1.592   0.942   0.205  0.7234 -0.6359 -0.1588
  129SOL    HW1  514   1.530   0.871   0.188 -2.5265 -1.6288 -2.4626
  129SOL    HW2  515   1.594   0.954   0.298 -0.0774 -3.1108 -1.1899
  129SOL     MW  516   1.584   0.934   0.215  0.1889 -1.0935 -0.5988
  130SOL     OW  517   0.796   1.415   0.411  0.4502  0.3212 -0.4114
  130SOL    HW1  518   0.832   1.393   0.502 -0.8343 -0.9934 -2.9005
  130SOL    HW2  519   0.870   1.452   0.364  1.7999 -3.9903  1.4695
  130SOL     MW  520   0.810   1.417   0.417  0.4588 -0.4211 -0.4916
  131SOL     OW  521   3.015   0.821   3.079 -0.4030  0.2548 -0.0250
  131SOL    HW1  522   2.999   0.888   3.012  1.1443  0.1412  0.4048
  131SOL    HW2  523   3.116   0.810   3.094 -0.3213  0.8283 -0.2846
  131SOL     MW  524   3.026   0.828   3.072 -0.1881  0.3155 -0.0025
  132SOL     OW  525   2.810   0.137   1.220 -0.0180 -0.0436 -0.3663
  132SOL    HW1  526   2.841   0.143   1.132 -0.9629  2.1094 -0.3413
  132SOL    HW2  527   2.718   0.111   1.218  0.5898  1.6880  1.2352
  132SOL     MW  528   2.802   0.134   1.208 -0.0625  0.4689 -0.1517
  133SOL     OW  529   1.051   0.161   1.706 -0.1662  0.3296  0.1547
  133SOL    HW1  530   1.115   0.092   1.717  0.6778  1.7599 -1.8979
  133SOL    HW2  531   1.033   0.197   1.795  0.8561  0.5082  0.2526
  133SOL     MW  532   1.057   0.157   1.719  0.0800  0.5419 -0.1032
  134SOL     OW  533   1.430   2.517   1.430  0.2754 -0.0492  0.0732
  134SOL    HW1  534   1.380   2.594   1.397  0.2654  1.5517 -1.4330
  134SOL    HW2  535   1.460   2.548   1.518  1.3678 -0.4299 -1.6902
  134SOL     MW  536   1.427   2.531   1.438  0.4182  0.1118 -0.3582
  135SOL     OW  537   3.021   1.028   2.861 -0.0093  0.3335 -0.2535
  135SOL    HW1  538   3.082   1.101   2.892  3.3066  1.7003 -0.3998
  135SOL    HW2  539   2.933   1.065   2.877 -1.3982 -2.4174 -3.4606
  135SOL     MW  540   3.017   1.043   2.867  0.2450  0.1509 -0.6959
  136SOL     OW  541   0.256   2.044   0.875 -0.1865  0.6165  0.0051
  136SOL    HW1  542   0.173   2.003   0.846  2.1243 -0.1280  1.3555
  136SOL    HW2  543   0.318   1.997   0.825 -2.2632  1.7715 -1.0085
  136SOL     MW  544   0.254   2.032   0.865 -0.1556  0.6707  0.0495
  137SOL     OW  545   0.726   2.053   0.528 -0.1914  0.0040  0.2760
  137SOL    HW1  546   0.759   2.015   0.610 -1.9216  2.0517  0.8544
  137SOL    HW2  547   0.633   2.070   0.559 -0.2389 -0.7723  0.6743
  137SOL     MW  548   0.718   2.050   0.543 -0.4259  0.1717  0.4048
  138SOL     OW  549   0.525   0.549   1.168  0.3763 -0.2151 -0.1291
  138SOL    HW1  550   0.434   0.516   1.137 -0.5788 -2.2602 -2.0678
  138SOL    HW2  551   0.579   0.563   1.093 -3.2975 -1.9750  0.2184
  138SOL     MW  552   0.520   0.546   1.154 -0.2344 -0.7171 -0.3390
  139SOL     OW  553   2.662   0.540   1.393  0.3392  0.4841 -0.7748
  139SOL    HW1  554   2.732   0.477   1.381 -2.6449  1.0391  0.1628
  139SOL    HW2  555   2.707   0.616   1.423 -0.0253 -1.1696  0.0925
  139SOL     MW  556   2.677   0.542   1.396 -0.1026  0.3392 -0.5366
  140SOL     OW  557   0.839   0.373   2.094  0.2535 -0.0758 -0.5375
  140SOL    HW1  558   0.914   0.310   2.073  1.0748 -0.1086  0.6357
  140SOL    HW2  559   0.867   0.420   2.170  0.0449  2.0429 -0.0585
  140SOL     MW  560   0.853   0.371   2.101  0.3343  0.1994 -0.3195
  141SOL     OW  561   1.079   0.553   1.770 -0.1493 -0.5715  0.4134
  141SOL    HW1  562   1.119   0.504   1.703 -2.3449  0.3580  0.8417
  141SOL    HW2  563   1.100   0.647   1.751 -0.3503 -0.2872  0.0906
  141SOL     MW  564   1.087   0.559   1.759 -0.4655 -0.4113  0.4273
  142SOL     OW  565   0.932   1.124   0.766 -0.8488  0.4819  0.0338
  142SOL    HW1  566   0.903   1.099   0.676 -0.9080  1.0875 -0.0430
  142SOL    HW2  567   1.031   1.124   0.771  1.5037  2.2018 -0.6321
  142SOL     MW  568   0.941   1.121   0.755 -0.5463  0.7887 -0.0642
  143SOL     OW  569   1.780   0.773   1.097 -0.2824  0.2402  0.1160
  143SOL    HW1  570   1.814   0.792   1.009  0.2396 -0.0760  1.0140
  143SOL    HW2  571   1.689   0.760   1.089 -1.3304  0.0273 -0.8320
  143SOL     MW  572   1.772   0.774   1.085 -0.3518  0.1704  0.1094
  144SOL     OW  573   0.183   1.217   1.542  0.1668 -0.2123 -0.0104
  144SOL    HW1  574   0.277   1.203   1.518 -0.1108  0.2603 -2.0828
  144SOL    HW2  575   0.194   1.257   1.632  2.3259  2.5286  0.1199
  144SOL     MW  576   0.197   1.220   1.551  0.4151  0.2117 -0.2667
  145SOL     OW  577   0.285   0.418   1.052 -0.4188 -0.5096 -0.4046
  145SOL    HW1  578   0.309   0.368   1.132 -0.3764  1.9246 -2.9483
  145SOL    HW2  579   0.316   0.378   0.981  0.9908 -0.3302  3.7112
  145SOL     MW  580   0.292   0.406   1.053 -0.2272 -0.1648 -0.1971
  146SOL     OW  581   0.864   1.936   1.380 -0.6260  0.5291 -0.5991
  146SOL    HW1  582   0.916   1.948   1.297 -1.8496  1.2006  1.5422
  146SOL    HW2  583   0.777   1.949   1.354  3.3495 -2.0105  1.7819
  146SOL     MW  584   0.859   1.939   1.366 -0.2629  0.2826 -0.0024
  147SOL     OW  585   0.373   0.386   2.959  0.1510  0.1021  0.5817
  147SOL    HW1  586   0.343   0.410   3.046 -0.3216 -0.5798 -0.6638
  147SOL    HW2  587   0.312   0.442   2.903  0.3023  0.7287 -0.1430
  147SOL     MW  588   0.361   0.396   2.963  0.1086  0.0948  0.3217
  148SOL     OW  589   0.114   0.866   1.341  0.2135  0.1205 -0.6631
  148SOL    HW1  590   0.200   0.891   1.312 -3.5925 -0.0512 -0.1512
  148SOL    HW2  591   0.117   0.905   1.428  0.1168 -0.1087  2.6555
  148SOL     MW  592   0.126   0.875   1.349 -0.3014  0.0676 -0.1577
  149SOL     OW  593   1.397   1.180   1.407  0.0014 -0.4716 -0.4385
  149SOL    HW1  594   1.331   1.164   1.477 -1.1276 -0.7925 -1.2175
  149SOL    HW2  595   1.457   1.234   1.453 -3.8995  0.2621  0.0909
  149SOL     MW  596   1.396   1.185   1.422 -0.6622 -0.4171 -0.4715
  150SOL     OW  597   1.869   1.353   0.743 -0.4584  0.1478 -0.2109
  150SOL    HW1  598   1.866   1.260   0.760 -0.5696  0.2057 -1.2362
  150SOL    HW2  599   1.949   1.379   0.786  1.1162 -2.2662  0.6141
  150SOL     MW  600   1.879   1.344   0.751 -0.2653 -0.1631 -0.2373
  151SOL     OW  601   1.655   1.867   0.847 -0.2337 -0.1765 -0.2342
  151SOL    HW1  602   1.602   1.868   0.768  0.5752  0.0880 -1.8283
  151SOL    HW2  603   1.611   1.799   0.891  2.4227  3.1154  2.2516
  151SOL     MW  604   1.642   1.859   0.842  0.2235  0.2927 -0.1165
  152SOL     OW  605   0.757   1.325   1.471 -0.7569 -0.5677 -0.1624
  152SOL    HW1  606   0.762   1.266   1.542  3.2503 -0.4162 -0.1644
  152SOL    HW2  607   0.844   1.370   1.481 -0.6720 -0.6079 -2.2243
  152SOL     MW  608   0.769   1.323   1.482 -0.2170 -0.5530 -0.4347
  153SOL     OW  609   2.637   1.280   0.764 -0.0602 -0.4115 -0.0722
  153SOL    HW1  610   2.719   1.230   0.758  2.8851 -1.3836  1.3274
  153SOL    HW2  611   2.576   1.210   0.739 -0.2315  1.9566 -1.4515
  153SOL     MW  612   2.640   1.264   0.760  0.3058 -0.2273 -0.0695
  154SOL     OW  613   0.379   1.736   1.708  0.2653  0.1615  0.8484
  154SOL    HW1  614   0.341   1.728   1.622  2.0512  0.9732  2.4922
  154SOL    HW2  615   0.335   1.674   1.760  0.8511  2.6469 -0.6408
  154SOL     MW  616   0.368   1.727   1.704  0.5782  0.5965  0.8688
  155SOL     OW  617   1.122   0.690   0.285  0.8559  0.7542 -0.2703
  155SOL    HW1  618   1.130   0.649   0.374  1.3147 -0.3831  0.9185
  155SOL    HW2  619   1.082   0.780   0.296  2.2000  2.3530  1.3466
  155SOL     MW  620   1.118   0.696   0.298  1.0938  0.8151  0.0999
  156SOL     OW  621   1.589   3.005   1.079  0.6430 -0.3974 -0.0812
  156SOL    HW1  622   1.585   3.094   1.122 -1.9478  0.0217  0.5476
  156SOL    HW2  623   1.576   2.941   1.146 -0.9779  1.3449 -2.5369
  156SOL     MW  624   1.587   3.008   1.094  0.0873 -0.1122 -0.3222
  157SOL     OW  625   1.409   1.142   0.123  0.0646 -0.5123 -0.2604
  157SOL    HW1  626   1.474   1.078   0.155 -1.3952  2.2934 -0.6772
  157SOL    HW2  627   1.452   1.227   0.113  0.4216 -0.1031  2.1166
  157SOL     MW  628   1.423   1.145   0.126 -0.0809 -0.0881 -0.0018
  158SOL     OW  629   0.467   1.658   2.239 -0.0912 -0.2424  0.0125
  158SOL    HW1  630   0.458   1.696   2.155 -0.1097  1.4077  1.1859
  158SOL    HW2  631   0.380   1.660   2.278 -1.6222  0.4682  0.5345
  158SOL     MW  632   0.454   1.663   2.233 -0.2957  0.0691  0.2362
  159SOL     OW  633   1.281   1.713   0.432 -0.0221  0.2271 -0.9132
  159SOL    HW1  634   1.236   1.636   0.398  0.0801 -0.5166  0.1056
  159SOL    HW2  635   1.206   1.762   0.488  0.5208 -2.2049  0.6922
  159SOL     MW  636   1.265   1.709   0.435  0.0630 -0.1919 -0.5669
  160SOL     OW  637   0.465   1.128   1.567 -0.2326  0.2728  0.3155
  160SOL    HW1  638   0.466   1.042   1.610 -0.5377  2.8818  0.8367
  160SOL    HW2  639   0.507   1.188   1.629 -0.3417  0.3564 -4.3551
  160SOL     MW  640   0.470   1.124   1.581 -0.2873  0.6281 -0.2320
  161SOL     OW  641   0.535   2.184   2.605 -0.3012  0.5011 -0.5291
  161SOL    HW1  642   0.442   2.159   2.608 -1.0843  0.8827 -0.6658
  161SOL    HW2  643   0.583   2.127   2.544  2.3097  1.1857  0.9828
  161SOL     MW  644   0.529   2.174   2.598 -0.0600  0.6418 -0.3476
  162SOL     OW  645   1.036   1.733   1.765  0.7735 -0.0127  0.5978
  162SOL    HW1  646   1.057   1.828   1.784  2.3701  2.0120  3.3192
  162SOL    HW2  647   0.971   1.709   1.837  1.0425  0.3379  1.9307
  162SOL     MW  648   1.030   1.742   1.777  1.0197  0.3007  1.1328
  163SOL     OW  649   2.099   0.070   0.979 -0.2729 -0.2985 -0.3757
  163SOL    HW1  650   2.069   0.093   0.894 -0.4985  2.5528 -1.3837
  163SOL    HW2  651   2.031   0.012   1.018  2.0753 -0.4954  0.6316
  163SOL     MW  652   2.086   0.065   0.973  0.0072  0.0517 -0.3758
  164SOL     OW  653   0.335   0.202   0.793  0.0878  0.2054 -0.0129
  164SOL    HW1  654   0.240   0.217   0.813 -1.4278 -0.0782  0.4668
  164SOL    HW2  655   0.345   0.114   0.761  0.6050  1.3828 -0.9164
  164SOL     MW  656   0.324   0.192   0.791 -0.0440  0.3234 -0.0689
  165SOL     OW  657   1.328   1.248   0.395 -0.2733  0.0503 -0.5042
  165SOL    HW1  658   1.259   1.182   0.426 -0.0461  2.8383  0.5395
  165SOL    HW2  659   1.336   1.219   0.307  2.3597 -0.1801 -2.0722
  165SOL     MW  660   1.320   1.235   0.387  0.1041  0.3878 -0.5734
  166SOL     OW  661   0.511   1.061   0.953 -0.0295  0.0817  0.7861
  166SOL    HW1  662   0.462   0.996   1.001  1.3916 -0.4863 -3.0942
  166SOL    HW2  663   0.606   1.043   0.974  0.2783  1.1426 -0.9496
  166SOL     MW  664   0.517   1.050   0.962  0.1986  0.1467  0.0451
  167SOL     OW  665   0.830   1.113   0.258 -0.8267 -0.6808 -0.3456
  167SOL    HW1  666   0.741   1.096   0.236  2.2021  2.8697  0.5780
  167SOL    HW2  667   0.849   1.188   0.207 -0.3542 -0.3156 -0.7256
  167SOL     MW  668   0.821   1.121   0.249 -0.3647 -0.1642 -0.2739
  168SOL     OW  669   1.662   1.693   2.920 -0.7042 -0.3485 -0.1891
  168SOL    HW1  670   1.569   1.691   2.915 -0.6196 -1.0741 -0.0196
  168SOL    HW2  671   1.692   1.601   2.927 -0.0906  2.7243  2.5120
  168SOL     MW  672   1.654   1.681   2.920 -0.6121 -0.0388  0.1896
  169SOL     OW  673   0.364   0.969   1.298  0.6003 -0.2316  0.2726
  169SOL    HW1  674   0.406   0.940   1.377 -1.7138  0.2343 -1.1377
  169SOL    HW2  675   0.411   1.057   1.282 -2.0230  1.3261  1.5106
  169SOL     MW  676   0.375   0.977   1.306 -0.0511  0.0354  0.2499
  170SOL     OW  677   0.995   1.446   1.476 -0.1421  0.0920  0.3986
  170SOL    HW1  678   0.956   1.537   1.483 -1.6131 -1.0274  1.2808
  170SOL    HW2  679   1.045   1.459   1.384 -4.0152 -2.2938 -0.8661
  170SOL     MW  680   0.997   1.460   1.465 -0.8472 -0.3705  0.3482
  171SOL     OW  681   0.599   1.438   0.669  0.5469  0.0766 -0.8012
  171SOL    HW1  682   0.571   1.404   0.757 -1.1672 -1.0518  0.4490
  171SOL    HW2  683   0.569   1.368   0.610 -0.2184  1.6267 -2.5048
  171SOL     MW  684   0.591   1.424   0.673  0.2197  0.1322 -0.8610
  172SOL     OW  685   0.847   0.339   1.275 -0.6072 -0.2467  0.1414
  172SOL    HW1  686   0.851   0.346   1.175 -0.0168 -3.2981 -0.9721
  172SOL    HW2  687   0.751   0.344   1.303 -0.8093  2.9473 -1.6290
  172SOL     MW  688   0.835   0.340   1.266 -0.5559 -0.2279 -0.2391
  173SOL     OW  689   0.480   1.662   0.405 -0.0886  0.1971 -0.2569
  173SOL    HW1  690   0.495   1.569   0.372 -0.5234 -3.6114  0.7101
  173SOL    HW2  691   0.530   1.665   0.489 -1.5734 -1.8379  0.7270
  173SOL     MW  692   0.489   1.650   0.412 -0.3419 -0.5739  0.0005
  174SOL     OW  693   1.955   0.983   1.473 -0.9416  0.4716  0.4083
  174SOL    HW1  694   1.894   0.905   1.499  0.1046 -0.5709  1.1222
  174SOL    HW2  695   1.918   1.027   1.393  0.7899  1.5569 -0.2220
  174SOL     MW  696   1.942   0.979   1.466 -0.5751  0.4772  0.4194
  175SOL     OW  697   0.469   1.378   0.331 -0.1768 -0.6393 -0.0277
  175SOL    HW1  698   0.436   1.377   0.242 -0.3096  0.3088  0.6784
  175SOL    HW2  699   0.555   1.354   0.325  0.0404  2.1309  0.8888
  175SOL     MW  700   0.476   1.375   0.319 -0.1657 -0.1487  0.1864
  176SOL     OW  701   0.196   1.337   1.254 -1.0632  0.3994 -0.4405
  176SOL    HW1  702   0.149   1.319   1.169  1.9763  3.5612 -1.4997
  176SOL    HW2  703   0.129   1.312   1.313  1.3390  1.4165 -1.1939
  176SOL     MW  704   0.181   1.331   1.250 -0.3452  0.9508 -0.6797
  177SOL     OW  705   0.581   0.312   1.318 -0.2700  0.0040  0.6276
  177SOL    HW1  706   0.569   0.392   1.266  0.0774 -0.6173  0.7488
  177SOL    HW2  707   0.593   0.352   1.400  1.1808 -0.0291  0.7550
  177SOL     MW  708   0.581   0.328   1.322 -0.0327 -0.0823  0.6604
  178SOL     OW  709   3.027   0.407   2.885  0.4179  0.0033  0.1912
  178SOL    HW1  710   2.994   0.449   2.968  0.8638 -0.8332 -1.2856
  178SOL    HW2  711   2.957   0.421   2.821 -1.5073 -2.1762  2.5171
  178SOL     MW  712   3.014   0.414   2.887  0.2227 -0.3946  0.3032
  179SOL     OW  713   1.601   1.344   1.456 -0.2075  0.7725  0.0475
  179SOL    HW1  714   1.607   1.406   1.527  0.4482 -1.4214  1.4978
  179SOL    HW2  715   1.692   1.329   1.422 -2.1966  1.1152 -0.4199
  179SOL     MW  716   1.614   1.350   1.460 -0.3834  0.5282  0.1772
  180SOL     OW  717   2.983   0.202   0.452 -0.2405  0.0537  0.4844
  180SOL    HW1  718   2.945   0.218   0.365 -1.1165  2.0945 -0.3750
  180SOL    HW2  719   3.060   0.268   0.452  2.1864  0.2167  1.7613
  180SOL     MW  720   2.988   0.213   0.440 -0.0358  0.3445  0.5395
  181SOL     OW  721   1.156   1.394   3.042  0.6067 -0.8229  0.3230
  181SOL    HW1  722   1.231   1.427   3.088  0.3730 -0.0857  0.5770
  181SOL    HW2  723   1.159   1.423   2.954 -1.2994 -2.0615 -1.8895
  181SOL     MW  724   1.166   1.402   3.037  0.3244 -0.8890  0.0646
  182SOL     OW  725   0.500   0.862   1.675  0.0964 -0.0073 -0.0626
  182SOL    HW1  726   0.426   0.802   1.689 -0.9745 -0.5605  3.8752
  182SOL    HW2  727   0.570   0.840   1.737 -0.0140  0.2984 -1.7593
  182SOL     MW  728   0.500   0.851   1.685 -0.0595 -0.0400  0.2331
  183SOL     OW  729   1.495   1.509   1.249 -0.0873  0.1407 -0.5488
  183SOL    HW1  730   1.425   1.540   1.308  1.2825 -0.5734  0.2070
  183SOL    HW2  731   1.549   1.451   1.311  0.5534 -1.4970  1.0104
  183SOL     MW  732   1.493   1.506   1.265  0.1779 -0.1696 -0.2434
  184SOL     OW  733   0.896   0.637   1.966  0.3655 -0.1202 -0.0918
  184SOL    HW1  734   0.963   0.599   1.909  0.5049 -1.7197  1.8021
  184SOL    HW2  735   0.895   0.569   2.030  1.1630 -0.9509  0.5938
  184SOL     MW  736   0.905   0.623   1.967  0.4891 -0.4408  0.2486
  185SOL     OW  737   1.181   0.946   1.967 -0.4361  0.3649 -0.3227
  185SOL    HW1  738   1.206   0.882   2.032  1.2872 -1.2988 -0.3475
  185SOL    HW2  739   1.245   1.016   1.972 -4.3048 -0.3312  0.2491
  185SOL     MW  740   1.193   0.946   1.977 -0.7191  0.0535 -0.2505
  186SOL     OW  741   0.431   1.651   1.421  0.0520 -0.4798  0.1269
  186SOL    HW1  742   0.519   1.630   1.390  0.0378 -0.4508  1.6862
  186SOL    HW2  743   0.372   1.605   1.360  0.2817 -2.8487 -3.0980
  186SOL     MW  744   0.434   1.642   1.409  0.0804 -0.7885 -0.0929
  187SOL     OW  745   1.449   0.766   1.451 -0.1445 -0.3770 -0.0466
  187SOL    HW1  746   1.462   0.724   1.538  0.5562  0.7720  1.2620
  187SOL    HW2  747   1.360   0.743   1.423  0.2343  1.0190  0.5011
  187SOL     MW  748   1.439   0.757   1.459 -0.0021 -0.0412  0.1983
  188SOL     OW  749   1.899   1.091   0.797  0.2846  0.6576  0.4268
  188SOL    HW1  750   1.887   1.082   0.895  0.0702  0.9240  0.3151
  188SOL    HW2  751   1.985   1.061   0.772 -0.7529 -0.0094  0.8888
  188SOL     MW  752   1.908   1.086   0.806  0.1194  0.6047  0.4730
  189SOL     OW  753   0.736   0.778   0.782 -0.1681 -0.5527  0.9353
  189SOL    HW1  754   0.655   0.823   0.754 -0.1870 -1.5058  0.6790
  189SOL    HW2  755   0.775   0.823   0.861  1.2991 -1.5711 -1.6488
  189SOL     MW  756   0.731   0.790   0.789  0.0230 -0.8129  0.5605
  190SOL     OW  757   1.867   0.191   2.026 -0.1536 -0.5035 -0.1756
  190SOL    HW1  758   1.842   0.120   2.081  0.9917  1.1397 -1.6417
  190SOL    HW2  759   1.961   0.216   2.039 -2.6785  3.4817  2.4375
  190SOL     MW  760   1.876   0.185   2.035 -0.3357  0.2391 -0.0242
  191SOL     OW  761   1.469   0.954   1.241 -0.4464  0.1377 -0.5863
  191SOL    HW1  762   1.421   1.025   1.284 -0.6077  1.1353 -3.1700
  191SOL    HW2  763   1.492   0.893   1.313 -0.7462  2.6048  0.8596
  191SOL     MW  764   1.466   0.956   1.256 -0.5073  0.5948 -0.7364
  192SOL     OW  765   0.625   2.037   2.824 -0.5576  0.2611 -0.3927
  192SOL    HW1  766   0.592   2.087   2.746 -0.8187 -1.7738  2.9023
  192SOL    HW2  767   0.600   1.950   2.807  0.1687  1.9795  1.7196
  192SOL     MW  768   0.617   2.032   2.812 -0.4962  0.2193  0.3208
  193SOL     OW  769   1.012   1.590   0.720  0.0088 -0.3948  0.0756
  193SOL    HW1  770   1.008   1.623   0.809  0.2915 -3.5029 -2.7133
  193SOL    HW2  771   0.958   1.508   0.728  2.3772 -0.2268 -0.0880
  193SOL     MW  772   1.005   1.584   0.733  0.3586 -0.7827 -0.3140
  194SOL     OW  773   0.498   1.338   0.915 -0.5746  0.3618 -0.1647
  194SOL    HW1  774   0.485   1.239   0.936 -0.1419  2.5317 -1.3592
  194SOL    HW2  775   0.409   1.373   0.884  0.0030 -1.4670  0.7450
  194SOL     MW  776   0.484   1.329   0.914 -0.4413  0.4068 -0.2023
  195SOL     OW  777   1.289   1.088   2.967  0.5641  0.2929  0.1498
  195SOL    HW1  778   1.313   1.111   3.057  1.5641  2.0386 -3.1688
  195SOL    HW2  779   1.194   1.086   2.980 -1.2978 -2.2509 -0.1116
  195SOL     MW  780   1.279   1.091   2.981  0.4504  0.1876 -0.3225
  196SOL     OW  781   2.179   1.025   0.636 -0.2684 -0.4641  0.4804
  196SOL    HW1  782   2.117   0.967   0.588 -1.0985  0.3540  2.6927
  196SOL    HW2  783   2.171   1.114   0.599  3.0980 -1.6465 -2.1802
  196SOL     MW  784   2.170   1.029   0.625  0.0662 -0.5122  0.4212
  197SOL     OW  785   0.686   1.282   2.019  0.6333 -0.1949  0.3211
  197SOL    HW1  786   0.683   1.191   2.010 -1.5322  1.2593  0.5957
  197SOL    HW2  787   0.648   1.317   1.941  1.7340  0.1610 -0.8726
  197SOL     MW  788   0.680   1.274   2.008  0.4928  0.0439  0.1999
  198SOL     OW  789   2.946   1.457   1.045  0.2034 -0.7744 -0.1523
  198SOL    HW1  790   2.924   1.553   1.056 -0.3037 -0.0574  2.2740
  198SOL    HW2  791   2.858   1.412   1.031 -1.2799 -1.3911  2.2558
  198SOL     MW  792   2.932   1.464   1.045 -0.0592 -0.7611  0.4856
  199SOL     OW  793   0.511   1.336   1.792  0.4536  0.3039  0.0531
  199SOL    HW1  794   0.421   1.306   1.778 -0.1160  1.2988  1.3732
  199SOL    HW2  795   0.532   1.398   1.713 -0.7883  2.0434  0.5934
  199SOL     MW  796   0.502   1.340   1.780  0.2146  0.6647  0.2986
  200SOL     OW  797   1.906   3.077   1.358 -0.0160  0.1122 -0.1332
  200SOL    HW1  798   1.886   3.061   1.266 -0.9990 -0.2668 -0.6086
  200SOL    HW2  799   1.822   3.087   1.401 -3.2408 -0.3206 -3.9684
  200SOL     MW  800   1.892   3.076   1.351 -0.5712  0.0051 -0.7019
  201SOL     OW  801   1.019   0.245   0.817 -0.8467 -0.1018  0.2935
  201SOL    HW1  802   1.021   0.151   0.788  0.0619 -1.9536 -0.6164
  201SOL    HW2  803   1.060   0.287   0.748  0.7348 -0.8077  3.8030
  201SOL     MW  804   1.025   0.238   0.804 -0.5182 -0.4392  0.6365
  202SOL     OW  805   1.536   1.654   0.990 -0.5014 -0.7956 -0.4261
  202SOL    HW1  806   1.561   1.567   0.949 -0.1901  0.7319 -0.8625
  202SOL    HW2  807   1.564   1.647   1.082 -0.5294  2.8011  0.7712
  202SOL     MW  808   1.543   1.641   0.997 -0.4641 -0.1195 -0.3257
  203SOL     OW  809  -0.002   0.449   1.153  0.1964 -0.4362  0.0352
  203SOL    HW1  810   0.039   0.372   1.120 -1.2511  2.0193 -0.9795
  203SOL    HW2  811   0.068   0.512   1.174 -0.4263 -0.5938 -1.0829
  203SOL     MW  812   0.012   0.447   1.151 -0.0767 -0.1330 -0.2462
  204SOL     OW  813   1.054   1.804   0.542  0.4749  0.4609  0.6470
  204SOL    HW1  814   1.048   1.727   0.607  0.1222  0.4413  1.6681
  204SOL    HW2  815   0.964   1.803   0.503  0.2091  0.2973 -1.6078
  204SOL     MW  816   1.041   1.794   0.546  0.3933  0.4368  0.4842
  205SOL     OW  817   1.360   0.100   1.329 -0.0871  0.0998 -0.1153
  205SOL    HW1  818   1.285   0.090   1.266  0.8626 -1.1369 -3.1192
  205SOL    HW2  819   1.393   0.192   1.320  1.0363  1.2393  2.3759
  205SOL     MW  820   1.354   0.111   1.319  0.1864  0.0870 -0.1830
  206SOL     OW  821   0.418   3.074   1.433  0.0503 -0.1873 -0.3043
  206SOL    HW1  822   0.343   3.047   1.374  1.6607 -2.7506 -0.5240
  206SOL    HW2  823   0.472   2.995   1.412 -1.2668  3.0124 -0.3204
  206SOL     MW  824   0.415   3.060   1.422  0.0890 -0.1034 -0.3354
  207SOL     OW  825   0.957   1.536   0.205 -0.2368 -0.1204  0.3604
  207SOL    HW1  826   0.968   1.630   0.196 -1.8192 -0.2956  1.3340
  207SOL    HW2  827   1.040   1.501   0.217 -2.9645  0.5366 -0.0311
  207SOL     MW  828   0.970   1.544   0.205 -0.8055 -0.0568  0.4372
  208SOL     OW  829   0.680   1.595   1.320 -0.1674  0.5058  0.2974
  208SOL    HW1  830   0.760   1.617   1.376  0.0197 -0.5284  1.5155
  208SOL    HW2  831   0.692   1.504   1.298 -2.0429  1.4110  2.1485
  208SOL     MW  832   0.692   1.586   1.324 -0.3901  0.4888  0.7023
  209SOL     OW  833   1.584   0.546   2.850  0.2806 -0.1144  0.3333
  209SOL    HW1  834   1.621   0.601   2.921  2.0630 -0.8291 -0.4539
  209SOL    HW2  835   1.634   0.463   2.844 -4.5368  2.0624  1.0563
  209SOL     MW  836   1.595   0.542   2.859 -0.1199  0.0785  0.3248
  210SOL     OW  837   1.620   1.433   0.861 -0.2488 -0.5101 -0.5991
  210SOL    HW1  838   1.710   1.405   0.835  3.4684  1.2335  0.4298
  210SOL    HW2  839   1.571   1.420   0.777 -1.8812 -1.4533 -0.0489
  210SOL     MW  840   1.626   1.427   0.846  0.0263 -0.4045 -0.3908
  211SOL     OW  841   1.677   0.383   0.954 -0.3194  0.6763  0.1884
  211SOL    HW1  842   1.672   0.413   0.863  0.8057  1.4539 -1.2263
  211SOL    HW2  843   1.769   0.421   0.979  0.5086 -0.5228  0.9676
  211SOL     MW  844   1.689   0.392   0.945 -0.0617  0.6207  0.1046
  212SOL     OW  845   0.265   1.122   0.092 -0.0162  0.0836  0.5093
  212SOL    HW1  846   0.208   1.097   0.165 -0.3982  2.0138  0.5745
  212SOL    HW2  847   0.264   1.043   0.038 -0.5785 -0.5174  0.7684
  212SOL     MW  848   0.257   1.108   0.094 -0.1408  0.2590  0.5521
  213SOL     OW  849   0.389   1.763   3.034  0.5964 -0.2534  0.0534
  213SOL    HW1  850   0.432   1.767   3.119 -0.0932 -1.3419  1.1885
  213SOL    HW2  851   0.452   1.761   2.962  0.5401 -0.6763 -1.5232
  213SOL     MW  852   0.403   1.764   3.036  0.4980 -0.4528 -0.0048
  214SOL     OW  853   0.614   0.291   2.224 -0.8037 -0.3280  0.2277
  214SOL    HW1  854   0.554   0.366   2.204 -0.6976  1.1444 -0.6524
  214SOL    HW2  855   0.691   0.305   2.170  1.7848  0.9790 -1.4549
  214SOL     MW  856   0.616   0.303   2.214 -0.4482  0.0387 -0.1104
  215SOL     OW  857   0.468   0.669   2.635 -0.0415 -0.4660  0.3197
  215SOL    HW1  858   0.463   0.660   2.538  3.6767  1.5780 -0.1841
  215SOL    HW2  859   0.403   0.612   2.683  0.4588 -2.0159 -2.2876
  215SOL     MW  860   0.459   0.660   2.629  0.5151 -0.4008 -0.0908
  216SOL     OW  861   3.041   3.059   2.656  0.1125  0.8798  0.5224
  216SOL    HW1  862   3.016   3.046   2.751  0.3851  0.0950  0.2754
  216SOL    HW2  863   2.992   3.142   2.634 -3.4560  0.1410 -1.6792
  216SOL     MW  864   3.031   3.068   2.665 -0.3223  0.6788  0.1993
  217SOL     OW  865   0.924   1.247   0.026 -0.9773 -0.3021  0.2467
  217SOL    HW1  866   0.958   1.157   0.033 -0.8611  2.9470  0.8417
  217SOL    HW2  867   0.994   1.284  -0.032  0.4440 -0.0967 -0.3745
  217SOL     MW  868   0.938   1.240   0.019 -0.7744  0.1537  0.2433
  218SOL     OW  869   0.900   1.289   2.524  0.1085 -0.3815  0.7217
  218SOL    HW1  870   0.933   1.214   2.567  0.8871  2.1036  1.6469
  218SOL    HW2  871   0.962   1.354   2.548  0.7557 -3.3474 -0.7536
  218SOL     MW  872   0.913   1.288   2.533  0.2966 -0.4449  0.6492
  219SOL     OW  873   1.091   0.459   2.548 -0.0724  0.4954  0.3641
  219SOL    HW1  874   1.146   0.511   2.604  0.1876  0.0017 -0.8700
  219SOL    HW2  875   1.045   0.520   2.496  1.7245 -2.9349  0.0928
  219SOL     MW  876   1.092   0.474   2.549  0.1990 -0.0224  0.1655
  220SOL     OW  877   1.780   0.413   2.191  0.3487 -0.0206  0.3115
  220SOL    HW1  878   1.715   0.464   2.144  0.7972  0.1626  2.9947
  220SOL    HW2  879   1.792   0.325   2.147 -0.5279 -2.2624  3.1628
  220SOL     MW  880   1.773   0.408   2.179  0.2922 -0.2922  1.0418
  221SOL     OW  881   0.369   1.327   2.874  0.5514  0.7280  0.6527
  221SOL    HW1  882   0.390   1.233   2.854 -4.1044  0.4611 -1.5105
  221SOL    HW2  883   0.374   1.373   2.786 -0.6610  0.1477 -0.0250
  221SOL     MW  884   0.373   1.321   2.859 -0.2228  0.6162  0.2779
  222SOL     OW  885   0.309   0.894   2.649  0.3797 -0.0845 -0.5522
  222SOL    HW1  886   0.300   0.917   2.553  1.3963  0.3794 -1.5366
  222SOL    HW2  887   0.372   0.824   2.650 -1.8490 -0.2340 -0.5862
  222SOL     MW  888   0.316   0.888   2.637  0.2198 -0.0430 -0.6866
  223SOL     OW  889   0.041   2.076   2.607  0.1761  0.7525 -0.1527
  223SOL    HW1  890   0.097   2.004   2.626  1.4037  1.2114 -2.0339
  223SOL    HW2  891   0.101   2.116   2.546  0.1278 -1.4198  1.7296
  223SOL     MW  892   0.056   2.072   2.602  0.3317  0.5264 -0.1526
  224SOL     OW  893   1.503   0.802   2.609  0.1279 -0.5188  0.0090
  224SOL    HW1  894   1.481   0.831   2.694 -0.1200  1.3742  1.7846
  224SOL    HW2  895   1.474   0.873   2.555  0.5347 -0.6434 -1.1519
  224SOL     MW  896   1.496   0.815   2.613  0.1489 -0.2855  0.0901
  225SOL     OW  897   2.985   1.526   2.295  0.2851  0.0629  0.3838
  225SOL    HW1  898   3.023   1.608   2.260  0.1982 -0.0899  0.1553
  225SOL    HW2  899   2.928   1.550   2.369 -1.4314  0.5952 -0.8825
  225SOL     MW  900   2.983   1.540   2.300  0.0472  0.1130  0.1866
  226SOL     OW  901   0.405   1.416   2.617  0.2355  0.1685 -0.2037
  226SOL    HW1  902   0.496   1.417   2.594  1.2280 -0.2779 -2.0114
  226SOL    HW2  903   0.381   1.511   2.613 -1.0605 -0.7629  1.7176
  226SOL     MW  904   0.414   1.429   2.614  0.1954 -0.0133 -0.1887
  227SOL     OW  905   0.415   1.067   2.820  0.1826  0.1398  0.3698
  227SOL    HW1  906   0.505   1.079   2.789 -3.5026 -2.8599  0.6387
  227SOL    HW2  907   0.360   1.022   2.757  3.4756  1.1866  3.3428
  227SOL     MW  908   0.420   1.063   2.808  0.1308 -0.1178  0.7975
  228SOL     OW  909   0.676   0.995   2.010  0.9240 -0.3097  0.2408
  228SOL    HW1  910   0.772   1.005   1.990  1.0963 -1.6643 -2.4757
  228SOL    HW2  911   0.682   0.956   2.096  1.6658  0.8891  3.1293
  228SOL     MW  912   0.689   0.991   2.018  1.0446 -0.3303  0.2635
  229SOL     OW  913   0.144   0.542   3.090 -0.3316 -0.2136  0.1516
  229SOL    HW1  914   0.058   0.544   3.055 -1.4426  2.2695  0.7782
  229SOL    HW2  915   0.150   0.460   3.139  1.9083  3.1964 -1.4176
  229SOL     MW  916   0.134   0.532   3.092 -0.1826  0.5640  0.0273
  230SOL     OW  917   1.751   1.395   2.033  0.1570  0.2071 -0.1587
  230SOL    HW1  918   1.707   1.393   2.122 -0.5391  0.9384  0.2614
  230SOL    HW2  919   1.830   1.338   2.033 -0.2060  0.8996  1.3520
  230SOL     MW  920   1.756   1.387   2.045  0.0173  0.3950  0.0960
  231SOL     OW  921   2.754   1.338   2.256 -0.0493 -0.1785 -0.3382
  231SOL    HW1  922   2.837   1.391   2.255  2.0173  0.1192  1.8419
  231SOL    HW2  923   2.707   1.367   2.172 -3.1463  0.8020 -0.3983
  231SOL     MW  924   2.759   1.349   2.245 -0.1852 -0.0098 -0.0585
  232SOL     OW  925   2.240   0.860   2.155  0.2365 -0.5743  0.5136
  232SOL    HW1  926   2.176   0.895   2.087  0.0942 -1.5231  0.9694
  232SOL    HW2  927   2.205   0.861   2.247 -0.2806  2.3306  1.9668
  232SOL     MW  928   2.227   0.865   2.158  0.1495 -0.3162  0.7655
  233SOL     OW  929   2.033   0.535   1.967  0.1217 -0.2024  0.1083
  233SOL    HW1  930   2.107   0.497   1.923 -0.7440  2.4335  2.0934
  233SOL    HW2  931   2.073   0.537   2.054 -1.6679  0.0813 -0.0368
  233SOL     MW  932   2.048   0.531   1.973 -0.2287  0.1828  0.3511
  234SOL     OW  933   0.279   1.005   2.366 -0.2944  0.0865 -0.1314
  234SOL    HW1  934   0.189   1.037   2.364 -1.8090 -0.2594  2.1142
  234SOL    HW2  935   0.330   1.082   2.397 -1.6573  2.2031  1.4632
  234SOL     MW  936   0.274   1.019   2.370 -0.6740  0.3201  0.3753
  235SOL     OW  937   1.093   3.080   2.728  0.3883 -0.5796 -0.6492
  235SOL    HW1  938   1.134   3.031   2.799  0.6540 -2.2931 -1.4136
  235SOL    HW2  939   1.085   3.172   2.757 -3.3771  1.6754  0.1592
  235SOL     MW  940   1.098   3.086   2.741 -0.0734 -0.5082 -0.6434
  236SOL     OW  941   2.954   0.529   0.028 -0.2364 -0.3104 -0.5078
  236SOL    HW1  942   2.861   0.524   0.002 -1.1950  1.2967  1.1017
  236SOL    HW2  943   2.973   0.621   0.045 -0.4354 -0.1762  1.3987
  236SOL     MW  944   2.944   0.540   0.027 -0.3892 -0.0807 -0.0439
  237SOL     OW  945   1.868   0.982   2.159  0.9872  0.4331  0.1026
  237SOL    HW1  946   1.911   1.069   2.147  1.2892 -0.8640  2.6761
  237SOL    HW2  947   1.846   0.962   2.247  1.9543 -0.2608 -1.6777
  237SOL     MW  948   1.871   0.991   2.169  1.1547  0.1704  0.2072
  238SOL     OW  949   1.079   1.790   3.028  0.2035  0.5498  0.3339
  238SOL    HW1  950   1.025   1.710   2.998 -0.6599  1.7902 -1.0870
  238SOL    HW2  951   1.166   1.750   3.022  0.2800 -0.1070 -0.0201
  238SOL     MW  952   1.084   1.774   3.023  0.0996  0.6268  0.0997
  239SOL     OW  953   1.263   1.407   2.347  0.5297 -0.4469  0.1099
  239SOL    HW1  954   1.208   1.465   2.401  1.3769 -3.1465  1.0024
  239SOL    HW2  955   1.280   1.334   2.412  0.7516 -0.5171  2.5826
  239SOL     MW  956   1.258   1.405   2.363  0.6707 -0.8123  0.5539
  240SOL     OW  957   0.700   0.823   2.235  0.6051 -0.0451  0.4124
  240SOL    HW1  958   0.713   0.867   2.321 -0.6181 -0.9810  0.3523
  240SOL    HW2  959   0.780   0.766   2.219  0.6714 -2.9963 -0.9864
  240SOL     MW  960   0.712   0.821   2.244  0.4525 -0.5579  0.2199
  241SOL     OW  961   0.655   0.368   3.090  0.3757 -0.0162  0.1273
  241SOL    HW1  962   0.705   0.440   3.135 -0.5874  1.6471 -0.0085
  241SOL    HW2  963   0.574   0.403   3.056 -0.8222 -1.5860  1.0451
  241SOL     MW  964   0.651   0.382   3.092  0.0906 -0.0039  0.2305
  242SOL     OW  965   1.483   1.688   2.273 -0.2006 -0.4308  0.7724
  242SOL    HW1  966   1.448   1.773   2.296 -0.0886 -2.7367  0.2695
  242SOL    HW2  967   1.407   1.645   2.226  0.3048  1.6790 -1.0475
  242SOL     MW  968   1.468   1.694   2.270 -0.1191 -0.4566  0.4660
  243SOL     OW  969   1.013   0.233   2.420  0.2822  0.2220 -0.0065
  243SOL    HW1  970   1.100   0.234   2.386 -1.2192 -0.8835  4.5800
  243SOL    HW2  971   1.010   0.312   2.472  1.2986 -1.2495  2.2214
  243SOL     MW  972   1.024   0.244   2.422  0.2182 -0.1180  0.8926
  244SOL     OW  973   0.251   0.742   2.397  0.4582 -0.0521  0.2301
  244SOL    HW1  974   0.257   0.838   2.370  1.1266  0.6036  0.5938
  244SOL    HW2  975   0.333   0.695   2.365  1.1079  1.1510  2.9921
  244SOL     MW  976   0.262   0.748   2.389  0.6321  0.1931  0.6425
  245SOL     OW  977   1.275   0.230   2.330  0.4426  0.0438  0.1909
  245SOL    HW1  978   1.337   0.156   2.344  1.2619  2.2349 -0.5203
  245SOL    HW2  979   1.301   0.308   2.383 -1.0477 -0.8695  0.1452
  245SOL     MW  980   1.287   0.230   2.339  0.3540  0.2124  0.0911
  246SOL     OW  981   1.196   1.229   2.117 -0.4044  0.1827 -0.2401
  246SOL    HW1  982   1.136   1.161   2.152  0.4900  0.3886 -0.0436
  246SOL    HW2  983   1.239   1.261   2.198 -0.6949  1.5259  4.3409
  246SOL     MW  984   1.194   1.224   2.132 -0.3247  0.3871  0.3902
  247SOL     OW  985   0.758   0.572   0.144  0.2302  0.1621 -0.2305
  247SOL    HW1  986   0.718   0.654   0.123  1.2367 -0.2438 -0.5685
  247SOL    HW2  987   0.843   0.571   0.103  0.9155  3.8638  0.4486
  247SOL     MW  988   0.764   0.583   0.136  0.4534  0.5970 -0.1855
  248SOL     OW  989   0.462   1.173   2.475 -0.2563 -0.0672  0.0747
  248SOL    HW1  990   0.478   1.234   2.397  2.5242  0.0777 -1.7795
  248SOL    HW2  991   0.449   1.238   2.546  0.3138 -0.4876 -0.0822
  248SOL     MW  992   0.463   1.189   2.474  0.1858 -0.1036 -0.1907
  249SOL     OW  993   0.184   1.855   2.700 -0.1814 -0.8051  0.1696
  249SOL    HW1  994   0.125   1.790   2.660  2.8645  3.8370 -1.4971
  249SOL    HW2  995   0.161   1.847   2.794 -2.1742 -2.1347  1.1010
  249SOL     MW  996   0.173   1.845   2.707 -0.0424 -0.3680  0.0726
  250SOL     OW  997   2.139   0.863   2.425  0.5436  0.3955 -0.0583
  250SOL    HW1  998   2.181   0.781   2.443  4.0236 -0.6359  0.8624
  250SOL    HW2  999   2.197   0.926   2.468  1.3235 -0.8890 -0.7574
  250SOL     MW 1000   2.152   0.860   2.433  1.1057  0.0899 -0.0291
  251SOL     OW 1001   0.190   0.850   2.065 -0.3229  0.6343 -0.3497
  251SOL    HW1 1002   0.187   0.761   2.074 -0.0392  2.3778 -2.4630
  251SOL    HW2 1003   0.215   0.852   1.975  0.5507 -0.3770  0.5075
  251SOL     MW 1004   0.193   0.839   2.054 -0.1702  0.7309 -0.5154
  252SOL     OW 1005   1.668   1.015   2.895 -0.2119 -0.2705  0.4092
  252SOL    HW1 1006   1.679   1.079   2.970  1.2042 -0.5168  1.8777
  252SOL    HW2 1007   1.738   1.031   2.829 -0.2004  0.0387  1.4240
  252SOL     MW 1008   1.678   1.026   2.896 -0.0236 -0.2622  0.7369
  253SOL     OW 1009   1.143   1.741   2.564  0.3014  0.0539  0.1137
  253SOL    HW1 1010   1.163   1.770   2.478  2.4778  0.5494  1.5715
  253SOL    HW2 1011   1.083   1.811   2.605  0.5757  0.2204 -1.0610
  253SOL     MW 1012   1.138   1.754   2.558  0.6248  0.1412  0.1511
  254SOL     OW 1013   0.999   1.074   2.251  0.4324 -0.4791  0.1456
  254SOL    HW1 1014   0.987   0.989   2.204 -0.9087 -1.3834  0.5802
  254SOL    HW2 1015   0.907   1.119   2.261 -1.5610 -1.1800  2.4994
  254SOL     MW 1016   0.985   1.069   2.246 -0.0076 -0.6909  0.5135
  255SOL     OW 1017   0.834   2.517   2.195  0.0391  0.7402  0.8229
  255SOL    HW1 1018   0.762   2.463   2.228  0.3311  1.6643  0.6135
  255SOL    HW2 1019   0.875   2.547   2.280 -2.4899 -1.1962  1.9553
  255SOL     MW 1020   0.830   2.514   2.211 -0.2561  0.6066  0.9446
  256SOL     OW 1021   1.206   2.843   2.850 -0.0242 -0.0994 -0.1500
  256SOL    HW1 1022   1.177   2.790   2.775 -0.4324  0.0276  2.8242
  256SOL    HW2 1023   1.300   2.871   2.829  1.5684  0.6528  1.5599
  256SOL     MW 1024   1.215   2.839   2.838  0.1320  0.0166  0.4680
  257SOL     OW 1025   0.149   1.926   0.090 -0.5155 -0.4011 -0.5711
  257SOL    HW1 1026   0.186   1.868   0.162  1.8417 -0.7106 -0.1866
  257SOL    HW2 1027   0.137   1.867   0.014  1.7964 -4.0724  2.7553
  257SOL     MW 1028   0.152   1.910   0.089  0.1005 -0.9263 -0.0815
  258SOL     OW 1029   0.716   1.026   2.479  0.0764 -0.4747 -0.7346
  258SOL    HW1 1030   0.735   1.092   2.414  1.1251  3.0790 -0.2422
  258SOL    HW2 1031   0.630   1.064   2.509 -3.5599  0.4806 -0.1487
  258SOL     MW 1032   0.707   1.040   2.475 -0.2650  0.1202 -0.5923
  259SOL     OW 1033   0.764   0.515   2.337  0.2952  0.0316  0.3159
  259SOL    HW1 1034   0.677   0.557   2.316  0.7620  0.6067  0.9643
  259SOL    HW2 1035   0.732   0.424   2.325 -3.1806  0.8068 -2.2025
  259SOL     MW 1036   0.748   0.508   2.332 -0.1018  0.2098  0.0691
  260SOL     OW 1037   0.586   0.162   1.582 -0.0132  0.3446 -0.2419
  260SOL    HW1 1038   0.535   0.133   1.507 -1.3782 -0.2724  0.4659
  260SOL    HW2 1039   0.671   0.127   1.570  0.9919  2.2429 -1.8028
  260SOL     MW 1040   0.590   0.153   1.571 -0.0607  0.5137 -0.3545
  261SOL     OW 1041   1.214   0.681   2.021  0.0622  0.5290  0.2888
  261SOL    HW1 1042   1.258   0.689   2.107  1.0781  0.9937 -1.7704
  261SOL    HW2 1043   1.266   0.608   1.983  2.4895  0.0033  1.4708
  261SOL     MW 1044   1.227   0.672   2.027  0.5165  0.5209  0.1731
  262SOL     OW 1045   1.157   0.301   0.131 -0.2500 -0.8467  0.2991
  262SOL    HW1 1046   1.252   0.291   0.129 -0.3458  1.5209 -1.6807
  262SOL    HW2 1047   1.122   0.216   0.090  0.3968 -0.2106  0.0169
  262SOL     MW 1048   1.165   0.288   0.125 -0.1773 -0.4504  0.0006
  263SOL     OW 1049   0.411   3.055   2.512 -0.1008  0.2569 -0.5259
  263SOL    HW1 1050   0.334   3.113   2.506 -0.4183 -1.1425 -0.6507
  263SOL    HW2 1051   0.460   3.096   2.442 -0.4061 -0.0352  1.0539
  263SOL     MW 1052   0.408   3.068   2.502 -0.1830  0.0337 -0.3340
  264SOL     OW 1053   1.520   1.290   1.912 -0.0768  0.5772 -0.1822
  264SOL    HW1 1054   1.448   1.320   1.964  0.3733 -1.1240 -0.1963
  264SOL    HW2 1055   1.597   1.329   1.958 -1.2352 -1.1324  0.7388
  264SOL     MW 1056   1.521   1.299   1.925 -0.1702  0.1272 -0.0625
  265SOL     OW 1057   0.673   2.747   2.249  0.7663  0.1930 -0.1547
  265SOL    HW1 1058   0.717   2.681   2.198 -0.3199  3.6531 -0.1125
  265SOL    HW2 1059   0.724   2.735   2.330  0.9026  3.2331 -3.3243
  265SOL     MW 1060   0.686   2.737   2.253  0.6410  1.0507 -0.5674
  266SOL     OW 1061   0.990   0.794   2.159  0.1316 -0.0971  0.0850
  266SOL    HW1 1062   0.957   0.742   2.085  2.5541 -0.2403 -3.1180
  266SOL    HW2 1063   1.083   0.755   2.153  0.8182 -0.4840  0.9617
  266SOL     MW 1064   0.998   0.782   2.148  0.5418 -0.1670 -0.2220
  267SOL     OW 1065   1.379   1.657   2.703  0.3428 -0.1606 -0.2530
  267SOL    HW1 1066   1.449   1.667   2.640 -1.3936  0.3054  1.6601
  267SOL    HW2 1067   1.303   1.688   2.653 -3.3533 -0.2429  0.3746
  267SOL     MW 1068   1.378   1.663   2.689 -0.3740 -0.1100  0.0822
  268SOL     OW 1069   0.262   0.774   1.805  0.3415  0.1664  0.9591
  268SOL    HW1 1070   0.221   0.828   1.733 -1.6379  1.7282 -1.2712
  268SOL    HW2 1071   0.241   0.681   1.789  0.5788  0.3044 -0.9755
  268SOL     MW 1072   0.254   0.769   1.794  0.1116  0.3907  0.4096
  269SOL     OW 1073   1.389   1.924   2.375 -0.0038 -0.1431 -0.3328
  269SOL    HW1 1074   1.432   2.006   2.348 -1.0420 -1.5634 -0.7547
  269SOL    HW2 1075   1.335   1.942   2.458 -0.8545  0.6385  0.3201
  269SOL     MW 1076   1.388   1.937   2.383 -0.2530 -0.2274 -0.3023
  270SOL     OW 1077   1.198   0.382   1.603 -0.4511  0.0988 -0.0837
  270SOL    HW1 1078   1.159   0.301   1.641 -2.0969  1.5338  2.2141
  270SOL    HW2 1079   1.299   0.370   1.599  1.3674  0.3204  0.7373
  270SOL     MW 1080   1.206   0.370   1.608 -0.4283  0.3174  0.3278
  271SOL     OW 1081   0.893  -0.001   2.430  0.7019  0.3849  0.9115
  271SOL    HW1 1082   0.929  -0.026   2.517 -1.5748  0.3307  1.3529
  271SOL    HW2 1083   0.943   0.084   2.427  0.8746 -0.2342  3.1262
  271SOL     MW 1084   0.904   0.007   2.441  0.4243  0.2961  1.2619
  272SOL     OW 1085   1.463   2.859   2.782  0.4872  0.4486 -0.2020
  272SOL    HW1 1086   1.450   2.883   2.684 -1.8379  0.5161  0.2995
  272SOL    HW2 1087   1.485   2.939   2.833  0.6096  3.2556  0.5063
  272SOL     MW 1088   1.465   2.873   2.776  0.1966  0.8279 -0.0424
  273SOL     OW 1089   1.433   0.871   2.876  0.1509  0.5674  0.1384
  273SOL    HW1 1090   1.512   0.930   2.887 -0.4818 -0.0442  1.2348
  273SOL    HW2 1091   1.370   0.940   2.878 -1.0011 -0.6107  0.7823
  273SOL     MW 1092   1.435   0.888   2.877 -0.0846  0.3313  0.3680
  274SOL     OW 1093   1.379   0.736   0.187 -0.4798  0.0609 -0.2112
  274SOL    HW1 1094   1.413   0.646   0.182  0.7507  1.2543  0.0936
  274SOL    HW2 1095   1.292   0.731   0.236 -1.0572  0.2594  0.2302
  274SOL     MW 1096   1.372   0.724   0.193 -0.3936  0.2446 -0.1127
  275SOL     OW 1097   1.689   0.662   1.800  0.2287 -0.4396  0.1539
  275SOL    HW1 1098   1.748   0.700   1.864 -1.9373  0.0119 -0.8523
  275SOL    HW2 1099   1.691   0.566   1.814  1.7584 -2.7791  0.4042
  275SOL     MW 1100   1.697   0.654   1.810  0.1448 -0.6887  0.0542
  276SOL     OW 1101   0.253   1.254   1.816  0.0589 -0.3921 -0.1732
  276SOL    HW1 1102   0.305   1.198   1.879  0.0507  1.9243  0.1757
  276SOL    HW2 1103   0.196   1.309   1.866 -2.9810 -0.7347 -0.3603
  276SOL     MW 1104   0.252   1.254   1.831 -0.3433 -0.1317 -0.1518
  277SOL     OW 1105   1.893   1.284   2.560 -0.0916 -0.9716 -0.3220
  277SOL    HW1 1106   1.961   1.348   2.558 -1.7316 -4.2224  0.5599
  277SOL    HW2 1107   1.907   1.225   2.634 -0.9197  0.5695  1.0736
  277SOL     MW 1108   1.904   1.285   2.570 -0.4173 -1.1972 -0.0215
  278SOL     OW 1109   1.414   0.677   1.712 -0.1920 -0.4361 -0.6524
  278SOL    HW1 1110   1.361   0.632   1.781 -3.8785 -2.1144  1.0349
  278SOL    HW2 1111   1.500   0.686   1.755  0.2984  1.1795 -0.5052
  278SOL     MW 1112   1.419   0.672   1.727 -0.6137 -0.4444 -0.4103
  279SOL     OW 1113   0.532   0.036   2.253 -0.0455 -0.3075  0.4962
  279SOL    HW1 1114   0.617  -0.008   2.237  2.1780  3.0880  3.3336
  279SOL    HW2 1115   0.542   0.130   2.236 -2.8603 -0.2878 -4.1186
  279SOL     MW 1116   0.545   0.043   2.249 -0.1235  0.1431  0.2617
  280SOL     OW 1117   1.516   1.115   2.193  0.3402 -0.0389 -0.3299
  280SOL    HW1 1118   1.530   1.046   2.128 -1.1583  0.0620 -1.6515
  280SOL    HW2 1119   1.484   1.070   2.270  1.7216 -1.2861 -1.4241
  280SOL     MW 1120   1.514   1.100   2.194  0.3248 -0.1902 -0.6486
  281SOL     OW 1121   1.304   1.275   2.742 -0.0969 -0.1887 -0.6886
  281SOL    HW1 1122   1.395   1.309   2.753  0.3419 -0.3268  0.5879
  281SOL    HW2 1123   1.303   1.226   2.827  1.6849  1.8357  0.0265
  281SOL     MW 1124   1.316   1.273   2.755  0.1961  0.0602 -0.4258
  282SOL     OW 1125   1.143   1.277   1.687 -0.0935  0.1417 -0.3968
  282SOL    HW1 1126   1.099   1.341   1.630  5.8205  0.3596  3.0136
  282SOL    HW2 1127   1.086   1.280   1.762  0.0411 -1.4100 -0.8276
  282SOL     MW 1128   1.130   1.286   1.689  0.7046 -0.0343 -0.0037
  283SOL     OW 1129   0.667   1.302   3.079 -0.4141  0.7967 -0.1332
  283SOL    HW1 1130   0.762   1.291   3.094 -0.0947 -1.3556  1.2552
  283SOL    HW2 1131   0.658   1.395   3.077 -0.0749 -0.9616  0.7378
  283SOL     MW 1132   0.678   1.312   3.081 -0.3272  0.2808  0.1649
  284SOL     OW 1133   0.517   0.661   2.340 -0.6226 -0.0388 -0.1081
  284SOL    HW1 1134   0.573   0.734   2.313  0.3504 -0.5841  0.1766
  284SOL    HW2 1135   0.488   0.607   2.268 -0.0056 -0.1659  1.7835
  284SOL     MW 1136   0.520   0.664   2.327 -0.4128 -0.1275  0.1790
  285SOL     OW 1137   0.843   0.950   2.857  0.1076 -0.5497 -0.6969
  285SOL    HW1 1138   0.871   0.995   2.773 -2.3417  1.3145  0.4839
  285SOL    HW2 1139   0.786   0.870   2.832 -0.5764  0.4987 -1.3685
  285SOL     MW 1140   0.839   0.945   2.843 -0.3058 -0.1654 -0.6297
  286SOL     OW 1141   1.092   1.479   2.599 -0.4022  0.5751 -0.0506
  286SOL    HW1 1142   1.152   1.433   2.655 -0.9238 -1.0489 -2.8693
  286SOL    HW2 1143   1.128   1.568   2.593  0.2333  0.4829  1.3818
  286SOL     MW 1144   1.105   1.484   2.606 -0.3871  0.3486 -0.2335
  287SOL     OW 1145   1.016   0.920   0.304  0.8734 -0.0353 -0.0120
  287SOL    HW1 1146   1.055   0.975   0.375 -0.5312  1.5134  1.9863
  287SOL    HW2 1147   0.938   0.972   0.269  1.0100 -0.2995 -0.8951
  287SOL     MW 1148   1.011   0.934   0.308  0.7061  0.1342  0.1351
  288SOL     OW 1149   1.591   0.600   2.117 -0.2073  0.3471  0.1340
  288SOL    HW1 1150   1.579   0.615   2.214  0.4620  2.6561 -0.5718
  288SOL    HW2 1151   1.615   0.687   2.080  1.5122  2.0121  1.6836
  288SOL     MW 1152   1.593   0.613   2.125  0.1079  0.8714  0.2454
  289SOL     OW 1153   0.956   1.048   2.635  0.4947 -0.0718 -0.4724
  289SOL    HW1 1154   1.014   0.978   2.606 -1.0931  0.4327  5.0768
  289SOL    HW2 1155   0.874   1.038   2.589  1.5212 -0.5189 -0.8975
  289SOL     MW 1156   0.953   1.037   2.625  0.4207 -0.0642  0.2037
  290SOL     OW 1157   0.893   0.537   1.579  0.4280  0.0902  0.3266
  290SOL    HW1 1158   0.951   0.504   1.509 -1.1612 -1.2918  1.1032
  290SOL    HW2 1159   0.938   0.533   1.660 -0.1085  0.8263 -1.1156
  290SOL     MW 1160   0.907   0.532   1.580  0.1476  0.0050  0.2388
  291SOL     OW 1161   0.141   0.340   0.152  0.3089 -0.1668 -0.5269
  291SOL    HW1 1162   0.220   0.298   0.174  0.0993  0.3656  0.9054
  291SOL    HW2 1163   0.118   0.281   0.081  1.2846  0.5364  1.0131
  291SOL     MW 1164   0.149   0.327   0.146  0.4100 -0.0038 -0.1348
  292SOL     OW 1165   1.036   0.540   0.071  0.4128  0.6062  0.1109
  292SOL    HW1 1166   1.070   0.600   0.141  1.9578  1.2107  2.1100
  292SOL    HW2 1167   1.083   0.457   0.095  2.1969 -1.1344  1.1629
  292SOL     MW 1168   1.046   0.537   0.083  0.8521  0.4563  0.5134
  293SOL     OW 1169   0.222   0.149   2.458  0.1393 -0.0245  0.2238
  293SOL    HW1 1170   0.148   0.098   2.420  0.0992 -0.3492 -0.1841
  293SOL    HW2 1171   0.181   0.200   2.530 -1.9592 -0.3514 -1.7858
  293SOL     MW 1172   0.207   0.149   2.462 -0.1428 -0.1105 -0.0952
  294SOL     OW 1173   1.515   0.622   2.382 -0.3767 -0.0911  0.2270
  294SOL    HW1 1174   1.542   0.676   2.451  2.4503 -0.0220 -2.6806
  294SOL    HW2 1175   1.504   0.530   2.420  1.5132  2.5484 -1.0229
  294SOL     MW 1176   1.517   0.617   2.396  0.2456  0.2662 -0.3216
  295SOL     OW 1177   0.905   0.671   2.487 -0.1383 -0.2837 -0.1591
  295SOL    HW1 1178   0.844   0.606   2.448  2.5394  2.8520  2.1921
  295SOL    HW2 1179   0.861   0.696   2.569  0.3968  0.3651  0.1658
  295SOL     MW 1180   0.891   0.666   2.493  0.2856  0.2157  0.1940
  296SOL     OW 1181   1.238   0.290   2.057 -0.2059 -0.6305 -0.4654
  296SOL    HW1 1182   1.310   0.220   2.044 -0.5163  0.0217 -0.5787
  296SOL    HW2 1183   1.229   0.302   2.155  0.3063 -0.2572  0.0899
  296SOL     MW 1184   1.246   0.283   2.068 -0.1793 -0.4952 -0.4071
  297SOL     OW 1185   1.451   0.377   1.611 -0.0045 -0.2100 -0.1484
  297SOL    HW1 1186   1.473   0.454   1.667  1.5554 -1.2168  1.2972
  297SOL    HW2 1187   1.496   0.305   1.659  0.8124 -0.6527  0.1286
  297SOL     MW 1188   1.460   0.378   1.625  0.3091 -0.4013  0.0788
  298SOL     OW 1189   1.633   0.894   2.034  0.3611  0.1588 -0.1238
  298SOL    HW1 1190   1.626   0.923   1.945 -1.0857 -2.4703 -1.2648
  298SOL    HW2 1191   1.717   0.918   2.073  0.7468  1.8386  0.4142
  298SOL     MW 1192   1.643   0.901   2.028  0.2211  0.0336 -0.2034
  299SOL     OW 1193   0.519   1.051   3.072  0.1921 -0.1951  0.2595
  299SOL    HW1 1194   0.574   1.128   3.061  2.9841 -1.7549  0.5779
  299SOL    HW2 1195   0.479   1.047   2.988  2.5532 -0.4839  2.1659
  299SOL     MW 1196   0.521   1.060   3.059  0.8720 -0.4390  0.5530
  300SOL     OW 1197   1.235   1.185   2.495  0.2281 -0.2868  0.0564
  300SOL    HW1 1198   1.171   1.119   2.501  2.0811  0.8735  0.1770
  300SOL    HW2 1199   1.237   1.213   2.582 -2.7662 -0.8215 -3.0377
  300SOL     MW 1200   1.227   1.180   2.507  0.0776 -0.2042 -0.3359
  301SOL     OW 1201   1.382   0.895   0.588 -0.4946  0.7299  0.7241
  301SOL    HW1 1202   1.406   0.958   0.655 -1.0409 -1.5436 -0.0088
  301SOL    HW2 1203   1.341   0.826   0.632  1.4653  1.9609  1.3079
  301SOL     MW 1204   1.380   0.895   0.603 -0.3081  0.5923  0.7044
  302SOL     OW 1205   0.070   1.489   2.042 -0.0873 -0.0245  0.3106
  302SOL    HW1 1206   0.066   1.463   2.133  0.6375 -0.8687  1.9084
  302SOL    HW2 1207   0.057   1.584   2.054  1.7312  2.3340  0.8902
  302SOL     MW 1208   0.068   1.498   2.056  0.2482  0.1753  0.5979
  303SOL     OW 1209   0.389   1.686   2.573 -0.1186 -0.0294  0.8880
  303SOL    HW1 1210   0.340   1.666   2.493  0.0571  0.3739  1.4691
  303SOL    HW2 1211   0.326   1.745   2.614 -0.0059  0.9826 -0.3469
  303SOL     MW 1212   0.374   1.691   2.568 -0.0806  0.1574  0.8018
  304SOL     OW 1213   0.670   2.041   2.390  0.5073 -0.2256 -0.3360
  304SOL    HW1 1214   0.709   2.099   2.325 -0.2222  1.7018 -0.4871
  304SOL    HW2 1215   0.726   1.969   2.407 -0.4967 -0.0624 -2.1321
  304SOL     MW 1216   0.682   2.039   2.384  0.2786  0.0503 -0.5929
  305SOL     OW 1217   1.075   0.565   0.547 -0.0331  0.2490 -0.2810
  305SOL    HW1 1218   1.006   0.518   0.489  0.4338  1.2252  0.7382
  305SOL    HW2 1219   1.128   0.493   0.579  1.7649  0.3419  0.3324
  305SOL     MW 1220   1.073   0.549   0.544  0.2657  0.3900 -0.0656
  306SOL     OW 1221   1.227   1.492   0.298  0.4805  0.2548  0.3796
  306SOL    HW1 1222   1.260   1.427   0.357 -0.8075 -1.4187 -0.6728
  306SOL    HW2 1223   1.291   1.477   0.226 -0.4123  0.8098 -0.7627
  306SOL     MW 1224   1.240   1.481   0.296  0.1928  0.1072  0.0900
  307SOL     OW 1225   1.409   0.494   1.947 -0.0694  0.1443  0.0060
  307SOL    HW1 1226   1.381   0.408   1.994  1.2605 -4.9626 -0.8352
  307SOL    HW2 1227   1.479   0.524   2.004 -0.5442 -1.1286  0.5721
  307SOL     MW 1228   1.415   0.487   1.961  0.0434 -0.6975 -0.0303
  308SOL     OW 1229   2.152   0.632   2.684  0.2158 -0.1130  0.0587
  308SOL    HW1 1230   2.221   0.591   2.732  0.9733 -0.8267  2.0003
  308SOL    HW2 1231   2.155   0.731   2.713  0.7192 -0.7714  0.7053
  308SOL     MW 1232   2.161   0.639   2.694  0.3822 -0.2940  0.4001
  309SOL     OW 1233   0.456   0.371   0.393 -0.6368 -0.1523 -0.0350
  309SOL    HW1 1234   0.524   0.336   0.448 -1.4933  0.5602  0.0626
  309SOL    HW2 1235   0.448   0.310   0.321 -1.0646  0.2853  1.3329
  309SOL     MW 1236   0.464   0.358   0.391 -0.8062 -0.0005  0.1584
  310SOL     OW 1237   0.448   0.562   1.919 -0.0571  0.6398  0.8770
  310SOL    HW1 1238   0.500   0.509   1.857 -0.4365  0.2213 -1.3656
  310SOL    HW2 1239   0.494   0.642   1.934 -1.2941  1.1376 -0.6339
  310SOL     MW 1240   0.461   0.565   1.913 -0.2704  0.6502  0.3818
  311SOL     OW 1241   1.890   0.758   1.964 -0.5607 -0.4745 -0.0650
  311SOL    HW1 1242   1.904   0.785   2.054  0.5545 -2.1430  1.7011
  311SOL    HW2 1243   1.940   0.667   1.956  1.6529 -0.4945 -1.6182
  311SOL     MW 1244   1.898   0.749   1.975 -0.1215 -0.6973 -0.0369
  312SOL     OW 1245   1.670   2.479   0.060 -0.1207  0.0768  0.1350
  312SOL    HW1 1246   1.740   2.489   0.126  1.2019  0.8376 -1.4562
  312SOL    HW2 1247   1.611   2.551   0.085 -3.8298 -1.2042  1.1990
  312SOL     MW 1248   1.672   2.490   0.072 -0.4356  0.0082  0.0655
  313SOL     OW 1249   0.116   1.230   2.960 -0.5591  0.2341 -0.0154
  313SOL    HW1 1250   0.163   1.215   3.044 -1.8406  0.4111  0.7857
  313SOL    HW2 1251   0.190   1.245   2.892  1.5162  1.1848 -0.5540
  313SOL     MW 1252   0.132   1.230   2.962 -0.4544  0.3829  0.0192
  314SOL     OW 1253   2.140   2.965   3.016  0.1940 -0.0460  0.2854
  314SOL    HW1 1254   2.095   3.005   2.941 -0.1606  1.4432  0.6772
  314SOL    HW2 1255   2.185   3.034   3.056  1.0343 -1.9401 -0.2227
  314SOL     MW 1256   2.140   2.979   3.011  0.2581 -0.0994  0.2700
  315SOL     OW 1257   1.494   1.879   3.093 -0.0227 -0.2728  0.4049
  315SOL    HW1 1258   1.446   1.953   3.140 -3.0855  0.4976  1.1528
  315SOL    HW2 1259   1.554   1.928   3.029 -2.2100 -1.4877  0.3193
  315SOL     MW 1260   1.496   1.895   3.091 -0.7154 -0.3315  0.4923
  316SOL     OW 1261   1.252   0.616   2.685  0.4315  0.7030 -0.4882
  316SOL    HW1 1262   1.346   0.628   2.681  0.7714 -3.1018  0.8464
  316SOL    HW2 1263   1.239   0.596   2.781  0.2158  4.7819  1.5913
  316SOL     MW 1264   1.263   0.615   2.697  0.4479  0.7391 -0.0378
  317SOL     OW 1265   0.684   1.471   2.585  0.6857  0.2361 -0.4202
  317SOL    HW1 1266   0.749   1.402   2.573  0.8833  1.4148  0.1807
  317SOL    HW2 1267   0.689   1.535   2.503  0.3131  1.3072 -2.2569
  317SOL     MW 1268   0.693   1.470   2.573  0.6626  0.5329 -0.5832
  318SOL     OW 1269   1.356   0.399   2.931 -0.2113  0.2283  0.2252
  318SOL    HW1 1270   1.271   0.438   2.933  0.0701  1.4766 -0.4903
  318SOL    HW2 1271   1.421   0.464   2.899  1.7186 -0.3427 -1.3370
  318SOL     MW 1272   1.353   0.413   2.927  0.0804  0.3177 -0.0754
  319SOL     OW 1273   0.800   0.422   2.838 -0.2580 -0.4806  0.3511
  319SOL    HW1 1274   0.746   0.392   2.765 -3.2238 -0.8848  1.4489
  319SOL    HW2 1275   0.769   0.366   2.907 -2.3380  0.1402  1.4413
  319SOL     MW 1276   0.789   0.411   2.838 -0.9237 -0.4520  0.6398
  320SOL     OW 1277   1.024   1.342   1.966 -0.1149 -0.0165 -0.0818
  320SOL    HW1 1278   1.083   1.302   2.031 -1.2745  0.5915 -1.5747
  320SOL    HW2 1279   1.077   1.413   1.932 -1.1794  0.4696 -0.7464
  320SOL     MW 1280   1.039   1.346   1.970 -0.4083  0.1278 -0.3665
  321SOL     OW 1281   1.055   1.008   3.056 -0.0374 -0.3684  0.0495
  321SOL    HW1 1282   0.988   0.962   3.006 -3.1998  1.4704 -0.7850
  321SOL    HW2 1283   1.117   0.935   3.078 -0.4370 -0.8357 -0.4284
  321SOL     MW 1284   1.054   0.993   3.053 -0.5074 -0.1874 -0.1237
  322SOL     OW 1285   1.183   0.822   1.707 -0.0316 -0.4686  0.0290
  322SOL    HW1 1286   1.264   0.772   1.692  1.6288 -1.2785  0.5197
  322SOL    HW2 1287   1.186   0.849   1.802  1.3088  2.2577  0.3203
  322SOL     MW 1288   1.194   0.819   1.718  0.3644 -0.2158  0.1322
  323SOL     OW 1289   1.211   1.532   1.848 -0.1863  0.2574  0.4616
  323SOL    HW1 1290   1.221   1.501   1.762 -1.5816  2.4725  1.8744
  323SOL    HW2 1291   1.151   1.606   1.832 -0.7880  0.4709 -0.8425
  323SOL     MW 1292   1.204   1.538   1.835 -0.4498  0.5778  0.4759
  324SOL     OW 1293   1.451   1.025   2.458 -1.0229  0.1264  0.0267
  324SOL    HW1 1294   1.363   1.077   2.471 -2.3436 -1.0864  0.5186
  324SOL    HW2 1295   1.520   1.091   2.487 -1.7204 -1.2749 -2.3569
  324SOL     MW 1296   1.449   1.041   2.463 -1.2892 -0.2185 -0.2229
  325SOL     OW 1297   1.098   0.519   2.907 -0.0150  0.4179 -0.1137
  325SOL    HW1 1298   1.096   0.539   3.003  1.2071 -0.8929 -0.1719
  325SOL    HW2 1299   1.008   0.493   2.883 -2.5242 -1.0691 -2.0557
  325SOL     MW 1300   1.086   0.518   2.916 -0.1848  0.0487 -0.3776
  326SOL     OW 1301   0.478   1.357   2.209  0.2426  0.2269 -0.1600
  326SOL    HW1 1302   0.538   1.315   2.145  0.5472  0.3217  1.6783
  326SOL    HW2 1303   0.482   1.450   2.185  0.9011  0.6085 -0.4866
  326SOL     MW 1304   0.487   1.364   2.198  0.3697  0.2898  0.0395
  327SOL     OW 1305   1.882   0.892   2.463 -0.2869 -0.0916  0.0928
  327SOL    HW1 1306   1.873   0.818   2.532  0.4799  0.7329 -1.5453
  327SOL    HW2 1307   1.977   0.895   2.445 -0.3573  0.7762 -0.9238
  327SOL     MW 1308   1.893   0.883   2.469 -0.1950  0.1317 -0.2575
  328SOL     OW 1309   0.193   1.315   2.242 -0.0980  0.7512  0.5077
  328SOL    HW1 1310   0.139   1.255   2.182 -1.5596  0.4624 -0.2928
  328SOL    HW2 1311   0.285   1.315   2.213 -2.7009  1.5375  1.3502
  328SOL     MW 1312   0.198   1.307   2.230 -0.6342  0.8169  0.5132
  329SOL     OW 1313   0.112   0.116   1.430 -0.0645 -0.2982 -0.1884
  329SOL    HW1 1314   0.087   0.153   1.519 -0.5674  1.3153  2.0666
  329SOL    HW2 1315   0.171   0.175   1.380  0.1659  1.7978 -1.7511
  329SOL     MW 1316   0.116   0.129   1.435 -0.1005  0.1912 -0.0970
  330SOL     OW 1317   0.322   3.057   2.074 -0.1333  0.6283 -0.2514
  330SOL    HW1 1318   0.376   3.071   2.152 -2.5378 -0.4449  3.3483
  330SOL    HW2 1319   0.258   2.998   2.113 -0.0944  4.6731 -4.1800
  330SOL     MW 1320   0.320   3.051   2.090 -0.4454  1.0204 -0.2948
  331SOL     OW 1321   0.783   1.220   2.296 -0.4024 -0.0031 -0.4513
  331SOL    HW1 1322   0.767   1.283   2.222  0.7326 -0.4971 -2.2836
  331SOL    HW2 1323   0.846   1.270   2.358 -1.2110  1.1334 -0.8227
  331SOL     MW 1324   0.789   1.235   2.294 -0.3593  0.0817 -0.7420
  332SOL     OW 1325   1.338   1.685   2.974  0.3793  0.1187  0.2342
  332SOL    HW1 1326   1.345   1.677   2.881  1.8364  0.1290  0.7784
  332SOL    HW2 1327   1.382   1.775   2.999 -1.0133  3.0409  1.1672
  332SOL     MW 1328   1.345   1.696   2.965  0.3878  0.5056  0.4291
  333SOL     OW 1329   1.766   1.451   2.991  0.7969 -0.2301 -0.3169
  333SOL    HW1 1330   1.856   1.481   2.998  0.1284  0.5959  1.0935
  333SOL    HW2 1331   1.733   1.426   3.080  0.6172  0.7751 -3.8916
  333SOL     MW 1332   1.774   1.452   3.004  0.6850  0.0115 -0.6024
  334SOL     OW 1333   1.373   3.080   2.611  0.2749  0.5243 -0.1508
  334SOL    HW1 1334   1.278   3.093   2.620 -0.8745 -1.0230 -0.4081
  334SOL    HW2 1335   1.411   3.145   2.668  0.3207 -3.6408  0.8382
  334SOL     MW 1336   1.365   3.090   2.619  0.1293 -0.2294 -0.0543
  335SOL     OW 1337   1.221   0.797   3.086  0.4353 -0.4945  0.4603
  335SOL    HW1 1338   1.280   0.769   3.158  4.4179  1.2517 -3.1619
  335SOL    HW2 1339   1.284   0.792   3.011  1.3222  1.0164 -0.5547
  335SOL     MW 1340   1.237   0.792   3.085  1.0778 -0.0648 -0.1515
  336SOL     OW 1341   0.912   1.067   1.916  0.6934 -0.5176  0.0598
  336SOL    HW1 1342   0.942   1.146   1.948 -0.3381  0.4495 -2.3293
  336SOL    HW2 1343   0.987   1.009   1.926  3.3319  1.5043 -2.8638
  336SOL     MW 1344   0.926   1.069   1.921  0.9054 -0.1233 -0.6411
  337SOL     OW 1345   0.549   1.741   2.773  0.6521  0.2136  0.4237
  337SOL    HW1 1346   0.509   1.679   2.709 -0.1170 -3.3426 -0.3114
  337SOL    HW2 1347   0.639   1.706   2.788 -0.3031 -0.9692  0.3950
  337SOL     MW 1348   0.556   1.729   2.766  0.4246 -0.4116  0.3229
  338SOL     OW 1349   1.120   0.851   2.548 -0.1195 -0.3507  0.0542
  338SOL    HW1 1350   1.048   0.809   2.498 -0.4183  1.5958  0.0323
  338SOL    HW2 1351   1.151   0.780   2.601  2.4032  1.1742 -0.2354
  338SOL     MW 1352   1.114   0.836   2.549  0.1739  0.1073  0.0131
  339SOL     OW 1353   1.556   1.056   1.800  0.2995 -0.2138 -0.1318
  339SOL    HW1 1354   1.473   1.051   1.757 -1.7434  0.7181 -1.0185
  339SOL    HW2 1355   1.556   1.144   1.848 -0.0897  1.6384  1.2643
  339SOL     MW 1356   1.545   1.067   1.801 -0.0214  0.1536 -0.0646
  340SOL     OW 1357   1.391   1.494   0.074 -0.2593 -0.2032 -0.3756
  340SOL    HW1 1358   1.386   1.563   0.011 -0.3316  0.0370  0.6910
  340SOL    HW2 1359   1.483   1.488   0.107  0.8980  0.0381 -1.0616
  340SOL     MW 1360   1.402   1.503   0.070 -0.1162 -0.1397 -0.3254
  341SOL     OW 1361   0.138   1.353   2.664 -0.3992 -0.0062  0.3385
  341SOL    HW1 1362   0.224   1.368   2.630 -1.5018  1.7566  2.0085
  341SOL    HW2 1363   0.077   1.313   2.599  1.8474  1.0876 -0.0560
  341SOL     MW 1364   0.141   1.350   2.651 -0.2482  0.3707  0.5068
  342SOL     OW 1365   1.437   0.310   0.082 -0.0283 -0.2950  0.5434
  342SOL    HW1 1366   1.466   0.384   0.141 -3.5027 -1.4935  1.7000
  342SOL    HW2 1367   1.423   0.354  -0.003 -3.9334  0.2192  1.1646
  342SOL     MW 1368   1.439   0.326   0.078 -1.0019 -0.3853  0.7780
  343SOL     OW 1369   0.214   0.315   2.230 -0.1532  0.2968 -0.7105
  343SOL    HW1 1370   0.243   0.246   2.291  1.4002 -0.4187  1.1171
  343SOL    HW2 1371   0.153   0.268   2.169 -1.9052 -0.7582  2.0405
  343SOL     MW 1372   0.210   0.300   2.230 -0.1794  0.0632 -0.1064
  344SOL     OW 1373   1.677   2.072   0.224  0.0260  0.2318 -0.1841
  344SOL    HW1 1374   1.681   2.131   0.150 -1.6134 -0.6632 -0.9346
  344SOL    HW2 1375   1.625   1.994   0.188 -0.4687 -1.0179 -2.7993
  344SOL     MW 1376   1.671   2.069   0.209 -0.2556 -0.0512 -0.6281
  345SOL     OW 1377   0.709   1.636   2.329  0.2598  0.7295 -0.4892
  345SOL    HW1 1378   0.615   1.633   2.307 -1.5968 -2.7798 -2.2668
  345SOL    HW2 1379   0.751   1.606   2.245 -1.8495 -0.2884  0.2885
  345SOL     MW 1380   0.702   1.632   2.315 -0.2634  0.1322 -0.6211
  346SOL     OW 1381   1.720   1.151   0.040 -0.2741  0.0237  0.0170
  346SOL    HW1 1382   1.816   1.170   0.047 -0.5536  1.0297  2.6785
  346SOL    HW2 1383   1.709   1.066   0.084  1.5392  0.1172 -0.8711
  346SOL     MW 1384   1.731   1.143   0.047 -0.0717  0.1688  0.2509
  347SOL     OW 1385   1.274   0.733   2.292  0.4392  0.1383 -0.4128
  347SOL    HW1 1386   1.354   0.702   2.329  0.8164  0.1314 -3.5118
  347SOL    HW2 1387   1.208   0.740   2.360 -1.1137 -0.6928  1.6742
  347SOL     MW 1388   1.276   0.730   2.306  0.2841  0.0277 -0.5463
  348SOL     OW 1389   1.323   2.584   1.870  0.0698 -0.0383  0.0615
  348SOL    HW1 1390   1.389   2.511   1.891  3.3549 -1.2800 -0.9217
  348SOL    HW2 1391   1.366   2.660   1.914 -0.7833  0.9033  1.7290
  348SOL     MW 1392   1.337   2.584   1.879  0.3907 -0.0779  0.1518
  349SOL     OW 1393   1.433   0.237   2.724 -0.1519 -0.1747 -0.1390
  349SOL    HW1 1394   1.385   0.294   2.782 -0.7551  0.2993  1.2195
  349SOL    HW2 1395   1.527   0.241   2.752  0.1596 -2.2370  1.9473
  349SOL     MW 1396   1.439   0.245   2.735 -0.1904 -0.3843  0.3155
  350SOL     OW 1397   1.864   0.650   2.614  0.2349  0.2695  0.5830
  350SOL    HW1 1398   1.839   0.577   2.553 -1.1053 -0.2657 -2.2039
  350SOL    HW2 1399   1.951   0.624   2.643 -2.7785 -1.1727 -1.0142
  350SOL     MW 1400   1.872   0.637   2.610 -0.3395  0.0086  0.0046
  351SOL     OW 1401   0.130   0.978   1.622  0.0168  0.0911 -0.5039
  351SOL    HW1 1402   0.040   0.988   1.654 -0.5317  0.0221 -2.0883
  351SOL    HW2 1403   0.152   1.070   1.599 -1.4943  1.5852 -0.2530
  351SOL     MW 1404   0.121   0.991   1.623 -0.2549  0.2791 -0.6798
  352SOL     OW 1405   0.805   1.651   2.755  0.9470 -0.2366 -0.3075
  352SOL    HW1 1406   0.839   1.613   2.841  1.3269  1.2566  1.0903
  352SOL    HW2 1407   0.784   1.584   2.688 -2.7388  0.6621  0.8629
  352SOL     MW 1408   0.807   1.637   2.758  0.5108  0.0790  0.0313
  353SOL     OW 1409   3.018   2.446   2.674  0.7670  0.9519 -0.2801
  353SOL    HW1 1410   3.096   2.391   2.648  3.6229 -0.5772  0.7400
  353SOL    HW2 1411   3.012   2.512   2.608 -0.1911  1.6559  2.2841
  353SOL     MW 1412   3.027   2.447   2.662  1.0174  0.8430  0.1928
  354SOL     OW 1413   0.380   2.449   0.843 -0.5067  0.3967 -0.1024
  354SOL    HW1 1414   0.401   2.412   0.931  0.6254 -0.7644  0.2470
  354SOL    HW2 1415   0.309   2.401   0.799  2.1587  1.9402  0.8520
  354SOL     MW 1416   0.373   2.438   0.849 -0.0057  0.4472  0.0696
  355SOL     OW 1417   0.037   2.182   0.409  0.1221  0.2564  0.0211
  355SOL    HW1 1418  -0.046   2.135   0.390 -0.1228 -1.7612  0.9685
  355SOL    HW2 1419  -0.002   2.225   0.484  0.0220  3.4032 -0.3460
  355SOL     MW 1420   0.021   2.182   0.416  0.0766  0.4054  0.0977
  356SOL     OW 1421   0.852   2.877   1.050  0.6821 -0.3940  0.4017
  356SOL    HW1 1422   0.897   2.875   0.960  3.1590  1.3712  0.0637
  356SOL    HW2 1423   0.757   2.849   1.033  3.7762  0.0731  0.5549
  356SOL     MW 1424   0.845   2.873   1.036  1.4172 -0.0995  0.3773
  357SOL     OW 1425   1.762   2.921   0.356 -0.4297 -0.0570 -0.2899
  357SOL    HW1 1426   1.710   2.884   0.438 -0.9405  0.7389  1.0262
  357SOL    HW2 1427   1.843   2.874   0.327 -2.3081  0.5392 -1.3667
  357SOL     MW 1428   1.766   2.910   0.363 -0.7449  0.1267 -0.2583
  358SOL     OW 1429   0.386   0.109   1.028 -0.2745 -0.2803  1.1968
  358SOL    HW1 1430   0.483   0.116   1.028  0.3294 -4.3527  0.9766
  358SOL    HW2 1431   0.360   0.146   0.940  1.1312 -1.1580  0.9587
  358SOL     MW 1432   0.395   0.115   1.016 -0.0093 -0.9334  1.1363
  359SOL     OW 1433   0.916   2.887   1.785 -0.6966 -0.0869 -0.4515
  359SOL    HW1 1434   0.915   2.794   1.830 -0.2453  0.0494 -0.4620
  359SOL    HW2 1435   0.954   2.875   1.701 -1.6051 -0.9517 -0.8922
  359SOL     MW 1436   0.921   2.873   1.780 -0.7569 -0.1831 -0.5110
  360SOL     OW 1437   0.600   2.783   1.024 -0.1218 -0.1951  0.3017
  360SOL    HW1 1438   0.625   2.761   0.932  0.5295  0.9984 -0.4651
  360SOL    HW2 1439   0.577   2.702   1.076 -0.2729 -0.9694  0.2583
  360SOL     MW 1440   0.600   2.769   1.019 -0.0558 -0.1398  0.1948
  361SOL     OW 1441   0.207   2.698   1.313  0.3683  0.0254  0.1402
  361SOL    HW1 1442   0.202   2.785   1.350  0.6609  0.1191  1.5275
  361SOL    HW2 1443   0.292   2.681   1.351  2.2354 -1.5391  1.0591
  361SOL     MW 1444   0.218   2.707   1.323  0.6533 -0.1687  0.4445
  362SOL     OW 1445   1.467   2.417   0.642 -0.3161 -0.2219  0.8240
  362SOL    HW1 1446   1.481   2.324   0.674  2.2667  1.9741 -1.2208
  362SOL    HW2 1447   1.498   2.478   0.711 -0.8938 -0.8083  0.2484
  362SOL     MW 1448   1.473   2.413   0.655 -0.0516 -0.0095  0.4783
  363SOL     OW 1449   0.304   3.033   0.710  0.0605  0.0259 -0.7454
  363SOL    HW1 1450   0.314   2.969   0.786  1.7286  1.7803  1.3531
  363SOL    HW2 1451   0.213   3.056   0.684  0.3733  2.4653 -0.6253
  363SOL     MW 1452   0.294   3.028   0.717  0.3219  0.5792 -0.4527
  364SOL     OW 1453   0.759   0.180   0.249  0.1736  0.3537 -0.3715
  364SOL    HW1 1454   0.700   0.113   0.222 -1.3800 -1.2261  1.9623
  364SOL    HW2 1455   0.715   0.263   0.221 -0.0748  2.2787  0.3734
  364SOL     MW 1456   0.746   0.182   0.242 -0.0641  0.3993  0.0347
  365SOL     OW 1457   0.952   1.941   1.112  0.3763 -0.0397 -0.3803
  365SOL    HW1 1458   0.925   2.019   1.059 -1.3225  0.8505 -1.2222
  365SOL    HW2 1459   0.897   1.870   1.070 -1.2036  1.0597 -0.1930
  365SOL     MW 1460   0.941   1.942   1.100 -0.0563  0.2228 -0.4667
  366SOL     OW 1461   2.875   2.617   1.005  0.0850 -0.1189  0.0463
  366SOL    HW1 1462   2.953   2.631   1.054  0.6639  0.3888 -1.2564
  366SOL    HW2 1463   2.911   2.644   0.912 -1.3679 -1.4414 -2.5309
  366SOL     MW 1464   2.890   2.622   0.999 -0.0303 -0.2264 -0.4657
  367SOL     OW 1465   1.235   2.808   0.890 -0.4717  0.1147  0.1427
  367SOL    HW1 1466   1.150   2.838   0.879  0.9242  1.0321 -0.0325
  367SOL    HW2 1467   1.254   2.757   0.809 -0.9689 -0.9497  0.2156
  367SOL     MW 1468   1.227   2.805   0.878 -0.3531  0.0953  0.1292
  368SOL     OW 1469   1.677   0.450   0.698 -0.0211 -0.1765  0.3193
  368SOL    HW1 1470   1.755   0.420   0.644 -1.1773 -2.1414  1.3448
  368SOL    HW2 1471   1.675   0.546   0.702 -0.4343  1.9622 -2.9479
  368SOL     MW 1472   1.687   0.459   0.692 -0.2281 -0.1536  0.0235
  369SOL     OW 1473   0.161   2.457   1.693  0.5154 -0.2697 -0.6262
  369SOL    HW1 1474   0.254   2.453   1.723  0.5142  0.1432  3.1632
  369SOL    HW2 1475   0.130   2.531   1.744 -2.0956 -1.1663 -1.0833
  369SOL     MW 1476   0.169   2.467   1.704  0.1707 -0.3335 -0.1865
  370SOL     OW 1477   0.755   0.073   0.998 -0.0575 -0.2914 -0.0230
  370SOL    HW1 1478   0.787   0.156   1.030  1.0081  1.1651  0.8680
  370SOL    HW2 1479   0.764   0.005   1.064  3.7162  0.6431  2.9702
  370SOL     MW 1480   0.761   0.075   1.011  0.5810  0.0240  0.4895
  371SOL     OW 1481   1.347   2.966   1.506 -0.2272  0.4486  0.1258
  371SOL    HW1 1482   1.296   2.895   1.469 -1.1847  1.4472 -0.7990
  371SOL    HW2 1483   1.334   3.039   1.449  2.0139 -1.8666  0.2724
  371SOL     MW 1484   1.339   2.966   1.493 -0.0578  0.2749  0.0231
  372SOL     OW 1485   0.821   2.308   0.469 -0.7680  0.1595  0.1666
  372SOL    HW1 1486   0.774   2.223   0.473  0.2889  0.4163 -0.8591
  372SOL    HW2 1487   0.831   2.338   0.375 -0.6335  1.9225 -0.4136
  372SOL     MW 1488   0.816   2.301   0.457 -0.6108  0.4260 -0.0453
  373SOL     OW 1489   2.790   3.007   1.395 -0.1214  0.2862 -0.0405
  373SOL    HW1 1490   2.858   2.945   1.374 -0.2007  1.1569  1.9297
  373SOL    HW2 1491   2.811   3.077   1.329 -2.2378 -0.6212 -0.7310
  373SOL     MW 1492   2.801   3.008   1.384 -0.4111  0.2814  0.1283
  374SOL     OW 1493   1.539   0.519   0.232  0.4330  0.3030 -0.7639
  374SOL    HW1 1494   1.613   0.573   0.234 -0.1011 -0.9144  0.2816
  374SOL    HW2 1495   1.526   0.495   0.323  1.3653  2.2302 -1.9882
  374SOL     MW 1496   1.547   0.523   0.244  0.4856  0.3966 -0.7875
  375SOL     OW 1497   1.131   2.092   2.285 -0.2255 -0.6591 -0.0852
  375SOL    HW1 1498   1.163   2.107   2.376  1.2236 -0.4250 -2.5096
  375SOL    HW2 1499   1.150   2.001   2.269  0.7835  0.5765 -2.2755
  375SOL     MW 1500   1.138   2.082   2.295  0.0988 -0.4652 -0.6941
  376SOL     OW 1501   0.707   2.502   0.048  0.0280  0.5584 -0.0104
  376SOL    HW1 1502   0.759   2.436   0.087 -0.0043  1.4908 -0.2520
  376SOL    HW2 1503   0.651   2.444  -0.015  0.7451 -0.1106 -0.8993
  376SOL     MW 1504   0.706   2.485   0.045  0.1184  0.5932 -0.1596
  377SOL     OW 1505   1.316   1.983   0.857  0.0954  0.7340 -0.1385
  377SOL    HW1 1506   1.225   1.978   0.821  0.1190  0.0716  0.4998
  377SOL    HW2 1507   1.308   1.942   0.945 -1.1603 -0.4285 -0.3166
  377SOL     MW 1508   1.303   1.977   0.864 -0.0671  0.4933 -0.0778
  378SOL     OW 1509   1.049   2.816   1.571 -0.2321  0.1528  0.1987
  378SOL    HW1 1510   0.984   2.742   1.564 -0.8510 -0.3905  1.9648
  378SOL    HW2 1511   1.008   2.875   1.506 -0.8647 -0.6890  0.0996
  378SOL     MW 1512   1.035   2.814   1.562 -0.3973 -0.0299  0.4187
  379SOL     OW 1513   1.124   1.812   2.274  0.1567 -0.0386  0.3882
  379SOL    HW1 1514   1.027   1.814   2.296 -1.6082 -0.3466  1.6339
  379SOL    HW2 1515   1.124   1.731   2.226  1.1936  0.8636 -0.0682
  379SOL     MW 1516   1.111   1.801   2.270  0.0607  0.0398  0.4924
  380SOL     OW 1517   0.862   0.043   1.548  0.0452  0.2434 -0.1011
  380SOL    HW1 1518   0.889   0.058   1.458 -2.2871 -1.1576 -2.7512
  380SOL    HW2 1519   0.936   0.088   1.599  4.2845  2.5208 -2.9045
  380SOL     MW 1520   0.875   0.051   1.542  0.2968  0.3591 -0.8206
  381SOL     OW 1521   0.802   1.970   0.784  0.0757  0.2984 -0.4344
  381SOL    HW1 1522   0.899   1.985   0.776  0.2789  1.4676  1.0066
  381SOL    HW2 1523   0.779   2.023   0.857  0.2058  0.6595  1.3185
  381SOL     MW 1524   0.812   1.979   0.792  0.1197  0.5003 -0.0130
  382SOL     OW 1525   0.709   0.064   0.728 -0.0893 -0.0832 -0.3247
  382SOL    HW1 1526   0.730   0.081   0.821 -1.4232  2.6744  1.8435
  382SOL    HW2 1527   0.667  -0.026   0.724 -2.0475  0.0465  3.6371
  382SOL     MW 1528   0.706   0.054   0.740 -0.5237  0.2977  0.4841
  383SOL     OW 1529   0.466   0.040   0.347  0.0617  0.1421  0.0200
  383SOL    HW1 1530   0.499  -0.030   0.298 -0.5178 -0.9993 -2.0337
  383SOL    HW2 1531   0.418   0.011   0.423  1.9001 -1.0030 -0.4554
  383SOL     MW 1532   0.464   0.027   0.351  0.2278 -0.1596 -0.3137
  384SOL     OW 1533   0.650   2.907   0.658 -0.0973  0.6084 -0.9512
  384SOL    HW1 1534   0.682   2.826   0.701  2.3509 -3.5567 -0.1848
  384SOL    HW2 1535   0.573   2.887   0.609  0.1848 -0.2799  2.0359
  384SOL     MW 1536   0.644   2.894   0.657  0.2630 -0.0583 -0.4560
  385SOL     OW 1537   1.320   2.063   1.505  0.1275 -0.1133 -0.2592
  385SOL    HW1 1538   1.388   2.076   1.571 -0.5935 -0.4948 -0.3803
  385SOL    HW2 1539   1.269   1.978   1.526  0.4538  2.6348  0.3747
  385SOL     MW 1540   1.322   2.053   1.516  0.0754  0.1990 -0.1916
  386SOL     OW 1541   1.393   0.346   0.823  0.0439  0.3778 -0.0831
  386SOL    HW1 1542   1.316   0.296   0.782 -1.2297  0.6324  2.5840
  386SOL    HW2 1543   1.396   0.327   0.918 -1.2570 -0.4658  1.3492
  386SOL     MW 1544   1.383   0.337   0.830 -0.2958  0.3001  0.4578
  387SOL     OW 1545   0.826   2.213   1.449  0.2117 -0.1073 -0.1205
  387SOL    HW1 1546   0.890   2.282   1.428  0.6837  0.3043  0.2994
  387SOL    HW2 1547   0.867   2.133   1.417  0.8153  0.3588 -1.4530
  387SOL     MW 1548   0.840   2.211   1.442  0.3536  0.0085 -0.2409
  388SOL     OW 1549   1.567   2.788   1.241 -0.0386  0.2027 -0.2461
  388SOL    HW1 1550   1.485   2.780   1.194  0.5879 -0.7083 -0.3945
  388SOL    HW2 1551   1.633   2.746   1.181  0.2618 -0.5938 -1.2099
  388SOL     MW 1552   1.565   2.781   1.227  0.0837 -0.0226 -0.3929
  389SOL     OW 1553   0.357   0.034   3.037 -0.2537  0.1416 -0.3736
  389SOL    HW1 1554   0.450   0.051   3.014 -0.7075  0.0945 -1.7818
  389SOL    HW2 1555   0.311   0.076   2.969  0.6392 -3.4451  3.9637
  389SOL     MW 1556   0.363   0.042   3.025 -0.1958 -0.3379  0.0129
  390SOL     OW 1557   1.276   0.043   0.615 -0.0427  0.9316  0.2852
  390SOL    HW1 1558   1.363   0.070   0.585  0.9597 -0.2549  3.5661
  390SOL    HW2 1559   1.296   0.026   0.708  1.5724 -0.1203  0.8239
  390SOL     MW 1560   1.290   0.044   0.623  0.3026  0.6362  0.7891
  391SOL     OW 1561   0.282   2.256   1.455 -0.0826 -0.3701 -0.6427
  391SOL    HW1 1562   0.227   2.191   1.500 -0.0797 -1.7600 -0.5241
  391SOL    HW2 1563   0.227   2.338   1.447 -0.5551  0.0049 -0.4415
  391SOL     MW 1564   0.268   2.258   1.460 -0.1446 -0.5040 -0.6005
  392SOL     OW 1565   2.060   2.151   0.363  0.5923 -0.3641 -0.2735
  392SOL    HW1 1566   2.045   2.208   0.436  0.5065 -1.1693  1.3409
  392SOL    HW2 1567   2.065   2.064   0.393 -2.2941  0.5308  1.5410
  392SOL     MW 1568   2.059   2.147   0.376  0.2001 -0.3523  0.1789
  393SOL     OW 1569   0.199   3.007   2.790 -0.6145  0.4545 -0.7484
  393SOL    HW1 1570   0.254   3.081   2.806 -2.1036  0.8592 -1.1276
  393SOL    HW2 1571   0.112   3.041   2.750 -1.9698  1.7415 -2.9872
  393SOL     MW 1572   0.195   3.021   2.787 -0.9898  0.6777 -1.0938
  394SOL     OW 1573   0.877   1.697   1.496 -0.0076 -0.4477  0.2771
  394SOL    HW1 1574   0.835   1.705   1.585 -1.9832  2.1100  0.4490
  394SOL    HW2 1575   0.873   1.786   1.457 -0.3833  1.0152 -0.0605
  394SOL     MW 1576   0.871   1.710   1.502 -0.3178  0.0828  0.2552
  395SOL     OW 1577   0.951   2.857   2.628  0.1277  0.1762  0.1912
  395SOL    HW1 1578   0.990   2.929   2.683 -0.5405  1.1977  1.6254
  395SOL    HW2 1579   1.024   2.788   2.615  2.2066  0.6030  0.6600
  395SOL     MW 1580   0.966   2.858   2.633  0.3139  0.3673  0.4423
  396SOL     OW 1581   0.876   1.846   2.377 -0.0359  0.1245 -0.3376
  396SOL    HW1 1582   0.895   1.855   2.473 -0.6178 -0.3371 -0.1903
  396SOL    HW2 1583   0.825   1.768   2.366  3.2632  0.7011 -0.5032
  396SOL     MW 1584   0.872   1.837   2.388  0.3226  0.1397 -0.3400
  397SOL     OW 1585   1.034   2.377   1.363  0.6782  0.0044 -0.7424
  397SOL    HW1 1586   1.079   2.419   1.290 -1.5083  2.7329 -0.4787
  397SOL    HW2 1587   1.105   2.342   1.424  0.0605 -1.3609  0.1195
  397SOL     MW 1588   1.049   2.378   1.361  0.3082  0.1842 -0.5939
  398SOL     OW 1589   0.649   2.666   0.784 -0.3548 -0.5630  0.1594
  398SOL    HW1 1590   0.564   2.620   0.782  0.8328  3.1983 -1.2075
  398SOL    HW2 1591   0.717   2.609   0.743 -0.4699  1.3533  0.0149
  398SOL     MW 1592   0.647   2.653   0.778 -0.2133  0.1861 -0.0400
  399SOL     OW 1593   0.287   2.072   0.462  0.0722  0.5256 -0.1785
  399SOL    HW1 1594   0.212   2.132   0.429 -0.9801  1.8559  0.8720
  399SOL    HW2 1595   0.346   2.069   0.382  1.1724 -0.9899  0.2990
  399SOL     MW 1596   0.285   2.080   0.447  0.0785  0.5012  0.0231
  400SOL     OW 1597   0.547   1.820   0.194  0.0433 -0.8050 -0.2216
  400SOL    HW1 1598   0.530   1.912   0.200  0.3739 -0.9885 -0.4432
  400SOL    HW2 1599   0.527   1.784   0.273  1.5511  0.3568 -2.1865
  400SOL     MW 1600   0.542   1.827   0.205  0.2859 -0.6759 -0.5101
  401SOL     OW 1601   0.920   2.078   0.170  0.0342 -0.0784 -0.8142
  401SOL    HW1 1602   0.900   1.982   0.156  0.2506 -1.9015 -1.2581
  401SOL    HW2 1603   0.976   2.079   0.245  0.0600 -0.0121  1.9318
  401SOL     MW 1604   0.925   2.066   0.178  0.0661 -0.3102 -0.5104
  402SOL     OW 1605   0.683   2.958   1.673 -0.4735 -0.6630 -0.0135
  402SOL    HW1 1606   0.755   2.927   1.734  1.7338 -2.9299 -1.7245
  402SOL    HW2 1607   0.729   3.020   1.618 -2.7459 -1.1113  1.4191
  402SOL     MW 1608   0.698   2.962   1.674 -0.4821 -1.0212 -0.0502
  403SOL     OW 1609   0.062   0.394   0.406 -0.0076  0.1929 -0.2804
  403SOL    HW1 1610   0.140   0.445   0.422 -2.1372 -0.2337  0.2121
  403SOL    HW2 1611   0.073   0.374   0.315 -1.2253  0.3018  1.2177
  403SOL     MW 1612   0.074   0.398   0.396 -0.4493  0.1510 -0.0178
  404SOL     OW 1613   0.976   2.850   0.807 -0.0204 -0.9932  0.5744
  404SOL    HW1 1614   1.016   2.781   0.754  2.3948 -0.4154  2.3542
  404SOL    HW2 1615   0.988   2.936   0.760 -1.5094 -0.5316 -0.6104
  404SOL     MW 1616   0.983   2.852   0.793  0.1018 -0.8560  0.6529
  405SOL     OW 1617   0.522   2.419   1.541  0.0014 -0.1103 -0.5005
  405SOL    HW1 1618   0.508   2.490   1.483  0.8804 -0.5322  0.1273
  405SOL    HW2 1619   0.461   2.342   1.510  0.7711 -2.7828 -0.7975
  405SOL     MW 1620   0.512   2.418   1.530  0.2189 -0.5186 -0.4568
  406SOL     OW 1621   0.361   2.344   1.105 -0.1682  0.1925  0.2265
  406SOL    HW1 1622   0.268   2.383   1.099 -3.3886  1.5659  0.1921
  406SOL    HW2 1623   0.353   2.263   1.160  0.2722  1.3349 -1.3565
  406SOL     MW 1624   0.348   2.339   1.111 -0.5350  0.5244  0.0131
  407SOL     OW 1625   0.037   2.746   1.097 -0.0995  0.3957  0.2839
  407SOL    HW1 1626   0.086   2.734   1.175  1.0532  1.7955 -0.8020
  407SOL    HW2 1627   0.102   2.703   1.025  0.6403 -0.8941 -1.9116
  407SOL     MW 1628   0.052   2.739   1.098  0.1502  0.4102 -0.1491
  408SOL     OW 1629   2.077   2.060   0.678 -0.1567  0.0453  0.2081
  408SOL    HW1 1630   2.074   2.100   0.765 -0.3210 -0.4194  0.3804
  408SOL    HW2 1631   2.030   1.973   0.685  0.9056  0.9615  0.8636
  408SOL     MW 1632   2.070   2.054   0.691 -0.0382  0.1049  0.3173
  409SOL     OW 1633   1.384   0.025   0.904 -0.0505 -0.6974 -0.2224
  409SOL    HW1 1634   1.432   0.105   0.905  1.1233 -2.4334  0.1159
  409SOL    HW2 1635   1.422  -0.025   0.974 -1.6833 -0.2964  2.0075
  409SOL     MW 1636   1.395   0.029   0.914 -0.1111 -0.8735  0.1164
  410SOL     OW 1637   1.106   2.425   1.064  0.3828 -0.7770 -0.3428
  410SOL    HW1 1638   1.016   2.429   1.027 -0.9211 -2.7836 -2.6400
  410SOL    HW2 1639   1.149   2.351   1.023  0.2707  1.9048 -2.3924
  410SOL     MW 1640   1.100   2.416   1.054  0.1960 -0.6879 -0.9163
  411SOL     OW 1641   1.977   0.044   2.858 -0.0646 -0.0441 -0.7614
  411SOL    HW1 1642   1.919   0.031   2.780  0.9589 -0.4564  2.3139
  411SOL    HW2 1643   1.918   0.030   2.933  1.0368  1.2016  2.7555
  411SOL     MW 1644   1.961   0.041   2.858  0.2157  0.0658  0.1083
  412SOL     OW 1645   1.050   2.236   0.583 -0.1403 -0.0097  0.1031
  412SOL    HW1 1646   1.085   2.314   0.627  0.6249 -3.1922 -1.4204
  412SOL    HW2 1647   0.965   2.267   0.551  2.4909  3.9450  1.3870
  412SOL     MW 1648   1.044   2.251   0.585  0.3078  0.0922  0.0715
  413SOL     OW 1649   0.534   2.767   0.036  0.0121 -0.2027 -0.6609
  413SOL    HW1 1650   0.575   2.682   0.032  2.0712  1.4160 -0.6971
  413SOL    HW2 1651   0.581   2.803  -0.037  0.5265  1.7482  2.4980
  413SOL     MW 1652   0.546   2.760   0.026  0.3516  0.2683 -0.2489
  414SOL     OW 1653   1.912   2.989   1.077 -0.4214 -0.0440  0.1972
  414SOL    HW1 1654   1.876   2.983   0.989 -1.5865 -1.5957  0.8574
  414SOL    HW2 1655   1.994   2.936   1.061 -3.4487 -3.8242  0.8781
  414SOL     MW 1656   1.918   2.981   1.063 -0.9745 -0.7475  0.3742
  415SOL     OW 1657   1.736   2.576   1.135  0.1960 -0.2067  0.1288
  415SOL    HW1 1658   1.675   2.523   1.199  0.3134 -3.5902 -0.2258
  415SOL    HW2 1659   1.800   2.631   1.188  0.4068  2.0115 -0.9363
  415SOL     MW 1660   1.736   2.577   1.150  0.2393 -0.3605 -0.0585
  416SOL     OW 1661   0.578   1.926   1.353  0.3150  0.1704  0.6250
  416SOL    HW1 1662   0.507   1.993   1.329  0.5686  0.5637 -2.5424
  416SOL    HW2 1663   0.565   1.857   1.290 -0.3044 -0.8144  0.2062
  416SOL     MW 1664   0.567   1.926   1.342  0.2667  0.0923  0.1519
  417SOL     OW 1665   0.982   3.018   2.035 -0.3158 -0.2124 -0.0341
  417SOL    HW1 1666   0.917   3.006   2.108 -0.2786  1.8705  0.5866
  417SOL    HW2 1667   0.934   2.991   1.952  0.3437  0.7098 -3.4927
  417SOL     MW 1668   0.967   3.013   2.034 -0.2239  0.1841 -0.4085
  418SOL     OW 1669   0.635   2.996   0.188 -0.6404 -0.2821 -0.5963
  418SOL    HW1 1670   0.728   2.984   0.147  0.8237 -2.4363 -1.1414
  418SOL    HW2 1671   0.601   2.915   0.151  0.3439  1.5631  2.6372
  418SOL     MW 1672   0.643   2.984   0.178 -0.3174 -0.3228 -0.2416
  419SOL     OW 1673   0.477   2.630   1.386 -0.2791 -0.1223  0.1720
  419SOL    HW1 1674   0.504   2.726   1.405 -1.9876  0.2225  2.1451
  419SOL    HW2 1675   0.495   2.621   1.287 -1.0675 -1.2037 -0.6355
  419SOL     MW 1676   0.483   2.641   1.375 -0.6085 -0.2195  0.3258
  420SOL     OW 1677   0.777   2.150   0.984  0.8221  0.3340 -0.2382
  420SOL    HW1 1678   0.717   2.155   1.063  0.3177  0.3861 -2.2335
  420SOL    HW2 1679   0.820   2.233   0.979 -2.0351  0.5078  1.3549
  420SOL     MW 1680   0.775   2.162   0.994  0.3786  0.3638 -0.2913
  421SOL     OW 1681   2.937   0.083   0.050  0.0295 -0.3845  0.2231
  421SOL    HW1 1682   2.880   0.045  -0.018  1.2094  1.5402 -1.4157
  421SOL    HW2 1683   2.968  -0.000   0.094 -2.4625 -2.6378  2.9245
  421SOL     MW 1684   2.934   0.067   0.047 -0.1436 -0.4279  0.3633
  422SOL     OW 1685   0.846   2.430   0.962  0.5869 -0.3999 -0.7427
  422SOL    HW1 1686   0.831   2.516   0.997 -1.4483 -0.0881 -3.9391
  422SOL    HW2 1687   0.846   2.439   0.867  0.8855  0.9983 -0.5144
  422SOL     MW 1688   0.844   2.443   0.954  0.3578 -0.1743 -1.1343
  423SOL     OW 1689   1.507   0.142   0.505  0.0410 -0.0952 -0.3531
  423SOL    HW1 1690   1.516   0.146   0.409  0.8334 -0.8546  1.0911
  423SOL    HW2 1691   1.490   0.230   0.547 -1.1728  3.7722 -1.2799
  423SOL     MW 1692   1.506   0.154   0.498 -0.0146  0.3149 -0.2848
  424SOL     OW 1693   0.657   2.226   1.230 -0.3336  0.0700  0.0807
  424SOL    HW1 1694   0.568   2.195   1.247 -2.6538 -2.2781  0.0835
  424SOL    HW2 1695   0.705   2.222   1.310 -3.1063 -0.1002 -0.5542
  424SOL     MW 1696   0.651   2.222   1.243 -1.0055 -0.2622 -0.0027
  425SOL     OW 1697   1.709   2.820   1.924 -0.1062  0.1908  0.1746
  425SOL    HW1 1698   1.734   2.842   1.828  0.6413  0.1233 -1.1730
  425SOL    HW2 1699   1.738   2.724   1.931  1.2495  0.4486 -2.6754
  425SOL     MW 1700   1.716   2.810   1.913  0.1713  0.2159 -0.3792
  426SOL     OW 1701   0.795   1.679   1.937  0.0200 -0.7179  0.1753
  426SOL    HW1 1702   0.760   1.701   1.852  2.4686 -2.0624  1.1418
  426SOL    HW2 1703   0.791   1.752   2.000  1.7342 -2.7257 -0.4376
  426SOL     MW 1704   0.790   1.692   1.934  0.5692 -1.1602  0.2220
  427SOL     OW 1705   0.349   1.535   1.898  0.4218 -0.1196  0.1796
  427SOL    HW1 1706   0.400   1.460   1.853  0.9555  0.9575  0.8942
  427SOL    HW2 1707   0.280   1.491   1.938 -0.5789 -0.7676 -1.7959
  427SOL     MW 1708   0.347   1.519   1.897  0.3602 -0.0630  0.0132
  428SOL     OW 1709   0.538   2.548   1.148  0.3403  0.0481  0.1737
  428SOL    HW1 1710   0.617   2.502   1.176 -0.3560  0.4013  0.6933
  428SOL    HW2 1711   0.474   2.476   1.134  0.5771 -0.3892 -1.1703
  428SOL     MW 1712   0.540   2.532   1.150  0.2797  0.0370  0.0649
  429SOL     OW 1713   1.323   2.620   1.065 -0.5419  0.4410 -0.3026
  429SOL    HW1 1714   1.261   2.547   1.071  1.2190  0.3798 -1.4547
  429SOL    HW2 1715   1.266   2.689   1.018 -0.0619  0.3830 -0.8302
  429SOL     MW 1716   1.307   2.620   1.060 -0.2462  0.4253 -0.5242
  430SOL     OW 1717   1.123   2.683   0.640  0.3055  0.1502  0.4203
  430SOL    HW1 1718   1.138   2.590   0.653 -0.5917  0.3746  0.3585
  430SOL    HW2 1719   1.064   2.694   0.564  1.8880 -1.0119  1.5205
  430SOL     MW 1720   1.117   2.672   0.631  0.3960  0.0265  0.5573
  431SOL     OW 1721   0.315   1.923   1.116  0.1033 -0.5069  0.9813
  431SOL    HW1 1722   0.373   1.844   1.104  0.1827 -0.7132 -0.6080
  431SOL    HW2 1723   0.279   1.960   1.034 -0.7225  1.7646  0.7354
  431SOL     MW 1724   0.318   1.918   1.104  0.0048 -0.2344  0.7391
  432SOL     OW 1725   0.020   0.118   1.153 -0.3932 -0.0563 -0.1989
  432SOL    HW1 1726   0.042   0.130   1.247  2.9142  0.9394  0.9768
  432SOL    HW2 1727  -0.052   0.048   1.159  0.0245 -1.4363  1.4640
  432SOL     MW 1728   0.013   0.111   1.167  0.0983 -0.1070  0.1756
  433SOL     OW 1729   0.599   2.869   1.422  0.0104  0.0944  0.6215
  433SOL    HW1 1730   0.609   2.896   1.514  1.4251 -1.0906 -1.0653
  433SOL    HW2 1731   0.687   2.890   1.389 -1.5261 -1.5492  1.1044
  433SOL     MW 1732   0.612   2.875   1.430 -0.0057 -0.2788  0.4626
  434SOL     OW 1733   1.567   2.837   1.538  0.4833 -0.3107  0.0158
  434SOL    HW1 1734   1.485   2.890   1.514  0.9045  1.3694 -2.5761
  434SOL    HW2 1735   1.571   2.790   1.459  2.0908  2.6244 -0.3141
  434SOL     MW 1736   1.556   2.838   1.525  0.7510  0.2982 -0.3697
  435SOL     OW 1737   2.838   1.772   0.158 -0.1246 -0.2021  0.1718
  435SOL    HW1 1738   2.901   1.845   0.143 -2.5492  2.4098  1.4895
  435SOL    HW2 1739   2.843   1.714   0.085  2.1474 -0.4668  0.2448
  435SOL     MW 1740   2.847   1.774   0.146 -0.1448  0.1076  0.3553
  436SOL     OW 1741   1.345   2.728   0.303 -0.8068 -0.1975 -0.3100
  436SOL    HW1 1742   1.388   2.699   0.383  0.0592  0.4787  0.9092
  436SOL    HW2 1743   1.290   2.805   0.338  0.0875  2.7551 -1.9767
  436SOL     MW 1744   1.343   2.735   0.318 -0.5745  0.2813 -0.3690
  437SOL     OW 1745   0.871   2.901   1.369  0.2687  0.2470 -0.4804
  437SOL    HW1 1746   0.888   2.987   1.329 -1.2626  0.8862  1.2330
  437SOL    HW2 1747   0.895   2.841   1.300  1.9748  0.7896 -1.7272
  437SOL     MW 1748   0.876   2.905   1.355  0.2918  0.4029 -0.4189
  438SOL     OW 1749   0.918   2.633   1.930 -0.3215 -0.3621 -0.1171
  438SOL    HW1 1750   0.889   2.601   2.017 -0.5821  0.8529 -1.5022
  438SOL    HW2 1751   0.839   2.603   1.884 -0.5677 -0.6077 -1.2632
  438SOL     MW 1752   0.903   2.625   1.935 -0.3884 -0.2342 -0.4511
  439SOL     OW 1753   1.130   2.126   0.347 -0.5698 -0.4145  0.1746
  439SOL    HW1 1754   1.090   2.151   0.432  1.2768  0.4957 -0.5548
  439SOL    HW2 1755   1.139   2.203   0.283 -0.8384 -0.0638  0.8152
  439SOL     MW 1756   1.126   2.139   0.350 -0.3616 -0.2481  0.1629
  440SOL     OW 1757   1.594   2.901   3.030  0.3535  0.0610  0.3540
  440SOL    HW1 1758   1.551   2.878   3.109 -0.3610 -0.9250 -1.8197
  440SOL    HW2 1759   1.638   2.824   3.010 -0.0324  0.4262  0.7446
  440SOL     MW 1760   1.594   2.888   3.037  0.2083 -0.0209  0.1187
  441SOL     OW 1761   0.322   2.596   0.543  0.1164  0.5863 -0.0582
  441SOL    HW1 1762   0.291   2.589   0.452 -0.0382  0.9406 -0.2463
  441SOL    HW2 1763   0.361   2.680   0.542 -0.6596 -0.2588 -2.3065
  441SOL     MW 1764   0.323   2.606   0.531 -0.0064  0.5215 -0.3796
  442SOL     OW 1765   3.038   2.329   0.632  0.0345  0.6973 -0.2877
  442SOL    HW1 1766   3.064   2.424   0.635  1.7001 -0.0023 -1.1642
  442SOL    HW2 1767   2.962   2.320   0.693 -0.9742  1.7456 -2.1299
  442SOL     MW 1768   3.031   2.340   0.640  0.1212  0.7433 -0.6464
  443SOL     OW 1769   1.415   1.781   1.837  0.5868  0.1336  0.0890
  443SOL    HW1 1770   1.359   1.803   1.769 -0.8923 -2.8664  0.8971
  443SOL    HW2 1771   1.366   1.712   1.879  1.6295  1.5681 -0.9708
  443SOL     MW 1772   1.401   1.775   1.833  0.5292 -0.0730  0.0558
  444SOL     OW 1773   0.903   2.584   1.541  0.5260  0.0418 -0.1138
  444SOL    HW1 1774   0.963   2.540   1.607 -2.8567  1.7568  0.0164
  444SOL    HW2 1775   0.815   2.567   1.579  0.4216  2.9034  1.7099
  444SOL     MW 1776   0.900   2.576   1.555  0.0659  0.6456  0.1440
  445SOL     OW 1777   0.949   0.061   1.286 -0.4900 -0.4556  0.5368
  445SOL    HW1 1778   0.891   0.141   1.283 -1.8627  1.8370 -0.0736
  445SOL    HW2 1779   1.031   0.090   1.241  1.0871 -0.1929 -0.7674
  445SOL     MW 1780   0.952   0.076   1.279 -0.4630 -0.1185  0.2842
  446SOL     OW 1781   2.688   2.795   1.093 -0.4148  0.2266  0.2574
  446SOL    HW1 1782   2.648   2.843   1.020 -0.1946  0.5803  0.4186
  446SOL    HW2 1783   2.743   2.722   1.052  2.5574  2.1146 -1.3024
  446SOL     MW 1784   2.690   2.792   1.078  0.0064  0.5224  0.0729
  447SOL     OW 1785   3.038   2.025   1.702 -0.0509  0.3140 -0.5055
  447SOL    HW1 1786   3.120   1.977   1.730 -0.5255  1.6468  0.9477
  447SOL    HW2 1787   2.987   1.956   1.652 -0.5873 -0.9708  1.2381
  447SOL     MW 1788   3.042   2.010   1.699 -0.1843  0.3204 -0.0837
  448SOL     OW 1789   1.679   2.389   1.676  0.3085  0.0641  0.8453
  448SOL    HW1 1790   1.606   2.334   1.657  1.2713  0.5323  1.7141
  448SOL    HW2 1791   1.634   2.472   1.700  2.0680 -2.8192 -2.4331
  448SOL     MW 1792   1.664   2.392   1.676  0.6677 -0.2545  0.5274
  449SOL     OW 1793   0.787   2.954   0.421 -0.0570 -0.2528  0.2029
  449SOL    HW1 1794   0.733   2.962   0.339  0.0174 -0.0158 -0.4969
  449SOL    HW2 1795   0.728   2.967   0.495 -1.0508  0.7471 -2.7492
  449SOL     MW 1796   0.772   2.957   0.420 -0.1783 -0.0896 -0.2789
  450SOL     OW 1797   1.195   2.435   0.714 -0.4986  0.5236 -0.1345
  450SOL    HW1 1798   1.184   2.391   0.801 -0.0126  0.8723 -0.5016
  450SOL    HW2 1799   1.277   2.404   0.670 -3.3149 -0.6707  0.5096
  450SOL     MW 1800   1.205   2.425   0.720 -0.8061  0.4120 -0.0980
  451SOL     OW 1801   0.583   2.012   1.654  0.1510 -0.5817 -0.1635
  451SOL    HW1 1802   0.639   2.085   1.674 -4.4243 -1.3749 -0.5075
  451SOL    HW2 1803   0.564   2.018   1.561 -1.3049  2.7952  1.2855
  451SOL     MW 1804   0.588   2.022   1.644 -0.6448 -0.2408 -0.0177
  452SOL     OW 1805   0.271   2.747   0.087  0.6918 -0.0079 -0.7115
  452SOL    HW1 1806   0.355   2.773   0.071 -1.5733  0.8237  0.2205
  452SOL    HW2 1807   0.233   2.728  -0.000 -1.2731 -2.4857 -1.3642
  452SOL     MW 1808   0.277   2.748   0.073  0.1337 -0.2251 -0.6746
  453SOL     OW 1809   0.419   3.002   1.693  0.2840 -0.0118  0.0138
  453SOL    HW1 1810   0.521   2.988   1.699  1.2965 -0.8367  1.2080
  453SOL    HW2 1811   0.398   3.040   1.609  0.7335 -0.5268  0.3491
  453SOL     MW 1812   0.429   3.005   1.683  0.4769 -0.1886  0.2156
  454SOL     OW 1813   0.995   2.706   1.200 -0.0712 -0.4258  0.3917
  454SOL    HW1 1814   0.931   2.633   1.200  1.1813  0.1894 -2.3266
  454SOL    HW2 1815   0.964   2.761   1.128  1.0449  0.1881 -0.6958
  454SOL     MW 1816   0.983   2.703   1.191  0.2413 -0.2636 -0.1104
  455SOL     OW 1817   1.537   2.955   0.214 -0.0245 -0.3875  0.0255
  455SOL    HW1 1818   1.622   2.930   0.257  1.8379  2.5119  0.2624
  455SOL    HW2 1819   1.480   2.886   0.238  3.2232  0.6349  0.6769
  455SOL     MW 1820   1.541   2.943   0.223  0.6497  0.1299  0.1427
  456SOL     OW 1821   2.876   0.384   1.312  0.0107 -0.1335  0.0166
  456SOL    HW1 1822   2.846   0.306   1.259 -2.5075 -3.1895  0.0046
  456SOL    HW2 1823   2.964   0.407   1.286  0.0449 -1.1030  0.4689
  456SOL     MW 1824   2.884   0.377   1.302 -0.3170 -0.6646  0.0747
  457SOL     OW 1825   0.911   1.561   2.991 -0.2402  0.1908 -0.3730
  457SOL    HW1 1826   0.833   1.568   3.048  3.4620  1.3400 -1.5570
  457SOL    HW2 1827   0.969   1.523   3.060  0.1716 -1.2121  1.5748
  457SOL     MW 1828   0.908   1.557   3.008  0.3026  0.1573 -0.2723
  458SOL     OW 1829   1.453   1.418   0.630  0.1986  0.0881 -0.2891
  458SOL    HW1 1830   1.371   1.443   0.677 -0.1454 -0.3998  0.9913
  458SOL    HW2 1831   1.427   1.372   0.547 -1.4134 -3.0686 -3.2071
  458SOL     MW 1832   1.438   1.415   0.625 -0.0594 -0.3927 -0.5052
  459SOL     OW 1833   1.569   0.113   0.228 -0.3929 -0.2695 -0.0292
  459SOL    HW1 1834   1.546   0.017   0.215  0.5143 -1.2869  0.6777
  459SOL    HW2 1835   1.516   0.157   0.157 -0.4884  0.6910  1.5155
  459SOL     MW 1836   1.559   0.106   0.217 -0.2858 -0.2770  0.2679
  460SOL     OW 1837   1.760   2.161   0.648  0.7534 -0.4774  0.1019
  460SOL    HW1 1838   1.664   2.133   0.671 -1.1777 -1.9082  1.9244
  460SOL    HW2 1839   1.807   2.087   0.614  1.8915  3.2074  0.2761
  460SOL     MW 1840   1.754   2.148   0.646  0.6488 -0.1800  0.3654
  461SOL     OW 1841   0.544   2.423   0.608 -0.3741 -0.0179  0.3379
  461SOL    HW1 1842   0.484   2.463   0.543 -0.5928 -1.8282 -0.6219
  461SOL    HW2 1843   0.490   2.433   0.689  0.9227 -0.2915 -1.5365
  461SOL     MW 1844   0.529   2.430   0.610 -0.2319 -0.2929 -0.0360
  462SOL     OW 1845   0.305   0.242   1.277  0.7030  0.0550 -0.0474
  462SOL    HW1 1846   0.330   0.173   1.202  2.0525 -1.3701 -0.7547
  462SOL    HW2 1847   0.380   0.255   1.323 -0.3525  0.3938 -1.0512
  462SOL     MW 1848   0.318   0.235   1.273  0.7418 -0.0884 -0.2732
  463SOL     OW 1849   0.967   0.002   0.695 -0.5730  0.1621 -0.2713
  463SOL    HW1 1850   0.996  -0.003   0.606 -0.7351 -0.6290 -0.1939
  463SOL    HW2 1851   0.874   0.021   0.694 -0.3923 -0.6078 -0.8030
  463SOL     MW 1852   0.959   0.004   0.683 -0.5705 -0.0439 -0.3313
  464SOL     OW 1853   0.769   3.003   2.210 -0.5359  0.0492  0.4475
  464SOL    HW1 1854   0.733   2.915   2.224  0.3144  5.2923  0.4433
  464SOL    HW2 1855   0.796   3.033   2.295 -5.2891  1.1237  0.8132
  464SOL     MW 1856   0.768   2.995   2.223 -1.0508  0.8827  0.4952
  465SOL     OW 1857   0.709   0.315   0.533 -0.4122  0.3543 -0.4008
  465SOL    HW1 1858   0.708   0.247   0.598  0.8591 -0.6019 -1.3807
  465SOL    HW2 1859   0.746   0.266   0.461 -0.2786  0.7881  1.2432
  465SOL     MW 1860   0.714   0.299   0.532 -0.2269  0.2854 -0.3132
  466SOL     OW 1861   1.062   1.988   0.733  0.5091  0.4106  0.0752
  466SOL    HW1 1862   1.057   1.936   0.650 -0.4686 -1.5480 -0.1578
  466SOL    HW2 1863   1.061   2.081   0.700 -2.3908  0.8638  1.0549
  466SOL     MW 1864   1.061   1.994   0.717 -0.0025  0.2120  0.1737
  467SOL     OW 1865   1.251   2.240   0.901  0.3780 -0.0759  0.1219
  467SOL    HW1 1866   1.342   2.260   0.936  2.7782 -1.0280 -1.9496
  467SOL    HW2 1867   1.269   2.149   0.882 -2.1754  1.8366 -1.9922
  467SOL     MW 1868   1.266   2.230   0.903  0.3578  0.0508 -0.4304
  468SOL     OW 1869   0.344   2.586   2.012  0.2010  0.1714 -0.1232
  468SOL    HW1 1870   0.383   2.524   1.947  0.0491 -2.9529  0.5361
  468SOL    HW2 1871   0.368   2.678   1.981  0.3414 -1.8991  1.0780
  468SOL     MW 1872   0.352   2.590   1.999  0.1995 -0.5140  0.1223
  469SOL     OW 1873   0.372   2.128   1.799  0.5504 -0.0610 -0.2817
  469SOL    HW1 1874   0.298   2.069   1.801 -0.9694  1.3308 -1.3132
  469SOL    HW2 1875   0.442   2.075   1.759 -0.6311 -0.0060 -3.0228
  469SOL     MW 1876   0.372   2.114   1.794  0.1940  0.1299 -0.7795
  470SOL     OW 1877   3.034   2.587   0.125  0.4127  0.6604 -0.1366
  470SOL    HW1 1878   2.967   2.554   0.184 -1.1382  1.1097 -0.5605
  470SOL    HW2 1879   2.995   2.601   0.037 -1.4627  0.1786 -0.3345
  470SOL     MW 1880   3.020   2.585   0.122 -0.0393  0.6561 -0.2186
  471SOL     OW 1881   1.253   2.731   1.407 -0.4022 -0.4474  0.1168
  471SOL    HW1 1882   1.184   2.739   1.477 -3.0681  0.8306 -0.8611
  471SOL    HW2 1883   1.211   2.741   1.323  1.7683  0.5299 -1.6320
  471SOL     MW 1884   1.238   2.733   1.405 -0.4675 -0.1498 -0.2430
  472SOL     OW 1885   2.885   2.081   0.368 -0.5596 -0.2837  0.6237
  472SOL    HW1 1886   2.906   2.031   0.280  1.3949 -1.4874 -0.6148
  472SOL    HW2 1887   2.850   1.998   0.412 -1.8273 -2.0552  0.3473
  472SOL     MW 1888   2.883   2.064   0.362 -0.4690 -0.6763  0.4238
  473SOL     OW 1889   0.806   2.547   1.266  0.2325 -0.7689  0.6405
  473SOL    HW1 1890   0.854   2.465   1.267 -2.3294 -1.0318 -0.2112
  473SOL    HW2 1891   0.833   2.587   1.358 -2.7402  0.8884  1.0999
  473SOL     MW 1892   0.816   2.541   1.278 -0.4977 -0.5849  0.5888
  474SOL     OW 1893   0.754   2.254   1.720  0.1293  0.2352 -0.2482
  474SOL    HW1 1894   0.830   2.259   1.776  0.6877 -0.0678 -0.5368
  474SOL    HW2 1895   0.782   2.249   1.633 -1.2950  1.3439 -0.2889
  474SOL     MW 1896   0.768   2.254   1.716  0.0151  0.3415 -0.2916
  475SOL     OW 1897   1.614   0.045   1.449 -0.1469  0.4641  0.2259
  475SOL    HW1 1898   1.534   0.071   1.405  3.1201  2.4395  1.1385
  475SOL    HW2 1899   1.611  -0.050   1.456 -1.2062  0.6802  1.9604
  475SOL     MW 1900   1.603   0.036   1.444  0.1444  0.7533  0.5752
  476SOL     OW 1901   1.498   2.646   0.838  0.4718  0.2123  0.0953
  476SOL    HW1 1902   1.449   2.637   0.921 -2.3371 -0.2711  2.0431
  476SOL    HW2 1903   1.502   2.740   0.812 -2.1275  2.5263  2.5561
  476SOL     MW 1904   1.492   2.657   0.845 -0.2418  0.4538  0.6770
  477SOL     OW 1905   0.845   2.489   0.695 -0.5063  0.2456  0.2104
  477SOL    HW1 1906   0.895   2.559   0.636  2.7852  1.8607 -1.5399
  477SOL    HW2 1907   0.787   2.436   0.638 -0.1946 -0.7495  0.3160
  477SOL     MW 1908   0.844   2.491   0.679 -0.0309  0.3274 -0.0066
  478SOL     OW 1909   0.194   2.651   0.913 -0.4691 -0.3513 -0.1453
  478SOL    HW1 1910   0.255   2.726   0.905  0.7744  2.4530  0.7833
  478SOL    HW2 1911   0.245   2.598   0.854 -1.2965 -2.4221 -1.0338
  478SOL     MW 1912   0.209   2.654   0.904 -0.4142 -0.2545 -0.1400
  479SOL     OW 1913   1.442   1.931   1.297  0.4782 -0.0544  0.0279
  479SOL    HW1 1914   1.401   1.986   1.363 -1.4290  2.4970 -0.8605
  479SOL    HW2 1915   1.532   1.913   1.329  0.1838  0.4792  1.0639
  479SOL     MW 1916   1.449   1.936   1.310  0.1877  0.3527  0.0474
  480SOL     OW 1917   1.848   2.385   1.351  0.3048 -0.0014  0.7590
  480SOL    HW1 1918   1.883   2.300   1.362 -1.5346 -0.3019  0.9436
  480SOL    HW2 1919   1.878   2.411   1.264  0.4427 -0.4794  2.4487
  480SOL     MW 1920   1.856   2.377   1.341  0.0803 -0.1041  1.0063
  481SOL     OW 1921   1.181   0.108   1.114 -0.1603 -0.3275  0.0045
  481SOL    HW1 1922   1.236   0.070   1.040  1.4152  1.0559  0.6891
  481SOL    HW2 1923   1.184   0.202   1.093  0.6627  0.5208 -2.7048
  481SOL     MW 1924   1.189   0.115   1.101  0.1562 -0.0330 -0.2626
  482SOL     OW 1925   0.977   0.025   0.404 -0.9586 -0.2559 -0.2695
  482SOL    HW1 1926   0.900  -0.035   0.400 -1.7123 -2.6776  0.5838
  482SOL    HW2 1927   0.954   0.106   0.359 -1.3032  0.5400 -0.0252
  482SOL     MW 1928   0.964   0.028   0.398 -1.1035 -0.4704 -0.1247
  483SOL     OW 1929   0.410   2.861   0.513  0.1817  0.0954 -0.0096
  483SOL    HW1 1930   0.337   2.872   0.452 -1.0655  1.2915 -1.9100
  483SOL    HW2 1931   0.364   2.908   0.583  0.5276 -1.7844 -0.3479
  483SOL     MW 1932   0.394   2.869   0.514  0.0628  0.0052 -0.3049
  484SOL     OW 1933   1.673   1.886   1.427  0.3711  0.4787 -0.2514
  484SOL    HW1 1934   1.745   1.954   1.411  1.7554  2.7205 -0.3917
  484SOL    HW2 1935   1.664   1.877   1.521 -0.4681  0.7475 -0.8847
  484SOL     MW 1936   1.681   1.894   1.438  0.4430  0.8100 -0.3534
  485SOL     OW 1937   0.557   2.319   0.334 -0.1589  0.3130 -0.6095
  485SOL    HW1 1938   0.588   2.338   0.423 -0.9891  3.9203 -2.8662
  485SOL    HW2 1939   0.544   2.387   0.274  4.2766  0.2110  1.3049
  485SOL     MW 1940   0.559   2.330   0.338  0.3168  0.7755 -0.6547
  486SOL     OW 1941   0.090   2.458   1.435 -0.1970  0.2482 -0.4359
  486SOL    HW1 1942   0.126   2.537   1.391 -0.5239 -0.8194  1.2056
  486SOL    HW2 1943   0.107   2.456   1.528  2.7226  0.1681 -2.1453
  486SOL     MW 1944   0.097   2.468   1.441  0.1451  0.0967 -0.4449
  487SOL     OW 1945   1.247   1.620   1.020  0.0773 -0.5778  0.3496
  487SOL    HW1 1946   1.216   1.706   1.063  0.8985 -0.0452  3.6714
  487SOL    HW2 1947   1.347   1.628   1.025  1.8515 -3.5112  0.0622
  487SOL     MW 1948   1.256   1.632   1.026  0.4197 -0.8946  0.7500
  488SOL     OW 1949   1.548   1.862   0.552  0.1206 -0.4324  0.2005
  488SOL    HW1 1950   1.591   1.908   0.477  0.7971  2.4363  1.5880
  488SOL    HW2 1951   1.455   1.856   0.527 -0.0661  1.7211 -0.0590
  488SOL     MW 1952   1.541   1.867   0.539  0.1852  0.2302  0.3493
  489SOL     OW 1953   0.766   0.796   0.498  0.0583 -0.1470 -0.5925
  489SOL    HW1 1954   0.816   0.730   0.457  1.2939 -0.3450 -0.2670
  489SOL    HW2 1955   0.767   0.780   0.591  0.3243  2.7794 -0.6494
  489SOL     MW 1956   0.772   0.785   0.505  0.2564  0.2130 -0.5571
  490SOL     OW 1957   1.393   2.106   0.417  0.2027  0.0932  0.5103
  490SOL    HW1 1958   1.457   2.172   0.385  2.4494 -0.4906  0.9213
  490SOL    HW2 1959   1.304   2.145   0.402 -1.5958  0.8362 -0.6771
  490SOL     MW 1960   1.390   2.120   0.411  0.2618  0.1142  0.4079
  491SOL     OW 1961   1.224   2.958   0.406 -0.2661  0.0015  0.0381
  491SOL    HW1 1962   1.250   2.998   0.488 -1.4377  0.8388  1.1363
  491SOL    HW2 1963   1.162   3.015   0.361  0.7465 -1.4999  1.6252
  491SOL     MW 1964   1.219   2.971   0.411 -0.2871 -0.0861  0.3924
  492SOL     OW 1965   1.470   2.154   0.686 -0.0956  0.1355 -0.2775
  492SOL    HW1 1966   1.449   2.109   0.599  0.5663 -0.3463 -1.6609
  492SOL    HW2 1967   1.422   2.091   0.742  0.1898 -1.2739 -1.3412
  492SOL     MW 1968   1.461   2.140   0.682  0.0294 -0.1141 -0.6004
  493SOL     OW 1969   0.172   2.950   0.437  0.0440 -0.5631  0.4756
  493SOL    HW1 1970   0.110   3.003   0.493  1.6175  1.6666 -0.3801
  493SOL    HW2 1971   0.155   2.984   0.345 -0.4648  0.5474  0.6205
  493SOL     MW 1972   0.162   2.961   0.432  0.1845 -0.1224  0.3818
  494SOL     OW 1973   0.415   2.403   1.795  0.6785  0.2195 -0.2604
  494SOL    HW1 1974   0.410   2.304   1.807  1.7745 -2.3583 -1.4422
  494SOL    HW2 1975   0.455   2.408   1.714 -2.5996  0.8521  0.8162
  494SOL     MW 1976   0.420   2.390   1.786  0.3906 -0.0372 -0.2743
  495SOL     OW 1977   2.916   1.645   2.731  0.1660 -0.2673  0.4478
  495SOL    HW1 1978   2.894   1.720   2.780  2.2012 -0.4327 -1.7362
  495SOL    HW2 1979   2.909   1.575   2.796 -0.0917 -0.2073 -0.1513
  495SOL     MW 1980   2.912   1.646   2.746  0.4005 -0.2812  0.0806
  496SOL     OW 1981   2.801   2.291   2.659 -0.2273 -0.1379 -0.7636
  496SOL    HW1 1982   2.812   2.210   2.704 -0.4625  1.3459 -0.5978
  496SOL    HW2 1983   2.882   2.342   2.667  0.9533  0.6023 -2.0047
  496SOL     MW 1984   2.813   2.287   2.666 -0.1025  0.1556 -0.9055
  497SOL     OW 1985   1.488   2.303   2.498  0.0927 -0.0449 -0.4191
  497SOL    HW1 1986   1.481   2.250   2.414 -1.4150  1.3792 -0.8774
  497SOL    HW2 1987   1.485   2.246   2.573  1.2028 -3.6201  0.8617
  497SOL     MW 1988   1.487   2.289   2.497  0.0402 -0.3288 -0.3106
  498SOL     OW 1989   1.578   2.754   2.229  0.2448  0.2480 -0.5068
  498SOL    HW1 1990   1.590   2.663   2.197  0.9501 -1.4820 -0.1777
  498SOL    HW2 1991   1.636   2.753   2.312  2.0419  0.9569 -0.5736
  498SOL     MW 1992   1.587   2.742   2.236  0.5750  0.1132 -0.4722
  499SOL     OW 1993   0.905   0.142   0.020  0.0112  0.2146 -0.1212
  499SOL    HW1 1994   0.858   0.158   0.101  0.2566  1.1086  1.2389
  499SOL    HW2 1995   0.888   0.050   0.004  1.7712 -2.7710  1.4705
  499SOL     MW 1996   0.897   0.132   0.029  0.2758 -0.0613  0.2683
  500SOL     OW 1997   1.030   2.465   2.762  0.1629 -0.1389  0.5615
  500SOL    HW1 1998   1.079   2.458   2.843 -0.1643  0.3757 -0.4156
  500SOL    HW2 1999   0.963   2.534   2.771  0.6657 -0.6714 -0.8059
  500SOL     MW 2000   1.027   2.473   2.774  0.1861 -0.1412  0.2521
  501SOL     OW 2001   1.724   2.227   0.007 -0.1141  0.2765 -0.4232
  501SOL    HW1 2002   1.695   2.320   0.020 -0.7977 -0.0633 -0.4970
  501SOL    HW2 2003   1.816   2.224   0.040  0.0005 -1.3496 -0.8032
  501SOL     MW 2004   1.733   2.239   0.013 -0.1892  0.0171 -0.4830
  502SOL     OW 2005   0.161   2.782   2.923 -0.5367  0.1016 -0.1450
  502SOL    HW1 2006   0.084   2.734   2.894  0.4447  0.7367 -3.4028
  502SOL    HW2 2007   0.163   2.870   2.888  1.1825 -0.0653  0.4721
  502SOL     MW 2008   0.151   2.787   2.914 -0.1804  0.1634 -0.4934
  503SOL     OW 2009   1.159   2.605   2.096 -0.0053  0.0524  0.4093
  503SOL    HW1 2010   1.214   2.567   2.025  0.9747 -0.0252 -2.8573
  503SOL    HW2 2011   1.086   2.642   2.043  0.8014 -0.1456 -2.0073
  503SOL     MW 2012   1.157   2.605   2.080  0.2304  0.0160 -0.3405
  504SOL     OW 2013   0.089   2.642   2.076 -0.1215  0.3604 -0.0306
  504SOL    HW1 2014   0.174   2.604   2.059  0.5396  0.3889  1.3221
  504SOL    HW2 2015   0.044   2.575   2.123  2.3343  0.4825 -0.6114
  504SOL     MW 2016   0.094   2.628   2.080  0.2897  0.3802  0.0713
  505SOL     OW 2017   1.653   2.666   2.726  0.3660  0.2012  0.8777
  505SOL    HW1 2018   1.681   2.708   2.635 -0.6311  1.8760 -1.1773
  505SOL    HW2 2019   1.605   2.734   2.776  2.3660 -1.9300 -0.0851
  505SOL     MW 2020   1.650   2.681   2.720  0.4983  0.1410  0.4795
  506SOL     OW 2021   1.591   0.025   2.865 -0.3816  0.1184 -0.2815
  506SOL    HW1 2022   1.609  -0.023   2.944 -0.8542  0.0559  2.4976
  506SOL    HW2 2023   1.662   0.008   2.805 -0.4405 -1.8931 -1.6142
  506SOL     MW 2024   1.602   0.017   2.868 -0.4517 -0.1552 -0.0906
  507SOL     OW 2025   0.883   2.677   2.844 -0.0532  0.1050 -0.0557
  507SOL    HW1 2026   0.858   2.758   2.796 -1.1354  0.4993  1.2016
  507SOL    HW2 2027   0.809   2.664   2.900 -0.5400 -1.6912 -1.1140
  507SOL     MW 2028   0.870   2.686   2.845 -0.2602 -0.0800 -0.0294
  508SOL     OW 2029   1.205   2.113   2.558  0.8666  0.2529 -0.4675
  508SOL    HW1 2030   1.266   2.149   2.619  1.0102  0.1087  2.2719
  508SOL    HW2 2031   1.118   2.155   2.586  1.9108  0.5138 -0.3820
  508SOL     MW 2032   1.201   2.123   2.569  1.0234  0.2683 -0.0948
  509SOL     OW 2033   0.587   2.594   2.820  0.0560  0.8924 -0.0647
  509SOL    HW1 2034   0.586   2.545   2.739 -0.7132 -1.1975  0.5651
  509SOL    HW2 2035   0.558   2.676   2.789 -0.6575 -0.2693  1.7838
  509SOL     MW 2036   0.583   2.598   2.805 -0.1396  0.4634  0.2623
  510SOL     OW 2037   1.501   2.600   1.670  0.4789  0.3133 -0.2803
  510SOL    HW1 2038   1.508   2.703   1.655  1.2646  1.7953  0.4416
  510SOL    HW2 2039   1.428   2.590   1.729 -2.0279 -1.4856 -0.7176
  510SOL     MW 2040   1.492   2.612   1.676  0.2518  0.2715 -0.2427
  511SOL     OW 2041   0.322   2.559   2.543 -0.1398  0.3870  0.2334
  511SOL    HW1 2042   0.419   2.545   2.569  0.8379  1.6413 -1.3130
  511SOL    HW2 2043   0.332   2.535   2.450  0.2505  0.3703  0.5827
  511SOL     MW 2044   0.336   2.554   2.534  0.0407  0.5503  0.0754
  512SOL     OW 2045   1.007   2.017   2.887 -0.2339 -0.0219  0.3895
  512SOL    HW1 2046   0.930   2.049   2.931 -0.6167 -1.3225  1.0146
  512SOL    HW2 2047   1.032   1.932   2.927 -0.9548 -0.9400 -2.1606
  512SOL     MW 2048   1.000   2.010   2.898 -0.3795 -0.3146  0.1355
  513SOL     OW 2049   1.659   2.504   2.182  0.4433 -1.1932 -0.1865
  513SOL    HW1 2050   1.751   2.526   2.133  3.9589  0.7398 -0.0989
  513SOL    HW2 2051   1.690   2.474   2.264  0.9087 -2.1784 -0.7407
  513SOL     MW 2052   1.675   2.503   2.186  0.9685 -1.0681 -0.2480
  514SOL     OW 2053   0.192   2.350   2.656  0.4604  0.4326 -0.0201
  514SOL    HW1 2054   0.224   2.443   2.648  1.0989  1.8412  0.6863
  514SOL    HW2 2055   0.247   2.311   2.724 -1.8633 -3.1880 -0.5290
  514SOL     MW 2056   0.203   2.357   2.664  0.2381  0.1408  0.0060
  515SOL     OW 2057   1.077   1.994   1.897  0.0617  0.8851  0.8069
  515SOL    HW1 2058   1.032   2.075   1.900  1.4449 -1.9043 -1.1124
  515SOL    HW2 2059   1.141   2.005   1.973  1.6160 -0.5012 -0.2013
  515SOL     MW 2060   1.080   2.006   1.908  0.4492  0.3342  0.4207
  516SOL     OW 2061   1.392   2.530   2.947 -0.1335 -0.5411  0.4903
  516SOL    HW1 2062   1.396   2.519   2.849 -2.9281  0.5750 -1.2902
  516SOL    HW2 2063   1.296   2.527   2.969 -0.1140  3.0269 -1.7614
  516SOL     MW 2064   1.380   2.528   2.937 -0.4996  0.0769 -0.0417
  517SOL     OW 2065   0.616   2.372   2.277  0.6063  0.0548  0.0061
  517SOL    HW1 2066   0.543   2.440   2.285 -1.1264 -0.4928 -4.8602
  517SOL    HW2 2067   0.574   2.305   2.230 -3.1997  1.1668  0.3149
  517SOL     MW 2068   0.601   2.372   2.272 -0.1245  0.1293 -0.5952
  518SOL     OW 2069   1.770   0.018   3.074  0.1543 -0.1601  0.8092
  518SOL    HW1 2070   1.782   0.080   3.142  0.9253  0.4129 -2.4840
  518SOL    HW2 2071   1.747  -0.068   3.106  2.0450 -0.4507 -2.2869
  518SOL     MW 2072   1.769   0.015   3.087  0.5055 -0.1228 -0.0338
  519SOL     OW 2073   0.721   2.529   1.760 -0.1406  0.5403 -0.3539
  519SOL    HW1 2074   0.710   2.433   1.766 -0.4510 -2.4112 -1.4754
  519SOL    HW2 2075   0.638   2.564   1.738  0.7449  2.0304 -0.9918
  519SOL     MW 2076   0.708   2.521   1.758 -0.0647  0.3475 -0.5861
  520SOL     OW 2077   1.220   2.198   2.944  0.1323  0.1108 -0.0275
  520SOL    HW1 2078   1.146   2.130   2.923 -0.2681 -0.4489 -0.2100
  520SOL    HW2 2079   1.267   2.155   3.022 -0.4497  0.4171 -0.1429
  520SOL     MW 2080   1.217   2.184   2.952  0.0026  0.0774 -0.0668
  521SOL     OW 2081   1.766   2.061   2.224 -0.0404 -0.0220  0.6924
  521SOL    HW1 2082   1.775   2.064   2.129 -0.4982  2.5898  1.0550
  521SOL    HW2 2083   1.770   1.963   2.241 -0.6883 -0.3528  0.5219
  521SOL     MW 2084   1.768   2.049   2.214 -0.1863  0.2790  0.7178
  522SOL     OW 2085   2.906   2.518   2.274  0.2825 -0.1510  0.1339
  522SOL    HW1 2086   2.991   2.481   2.279 -3.0640  0.8518  0.2659
  522SOL    HW2 2087   2.909   2.610   2.293  0.6257 -1.8153 -1.0021
  522SOL     MW 2088   2.918   2.525   2.277 -0.1138 -0.2383  0.0014
  523SOL     OW 2089   0.893   1.507   2.142  0.3885  0.2107 -0.3565
  523SOL    HW1 2090   0.849   1.563   2.073 -1.3570 -0.4957 -1.7942
  523SOL    HW2 2091   0.942   1.442   2.094  1.0989 -0.0104  2.0199
  523SOL     MW 2092   0.894   1.506   2.127  0.2519  0.0883 -0.2327
  524SOL     OW 2093   0.586   2.345   2.952  0.6997  0.3150 -0.3351
  524SOL    HW1 2094   0.585   2.423   2.898 -1.1165  0.9615 -0.5198
  524SOL    HW2 2095   0.664   2.292   2.946 -3.3258  0.4049 -0.1588
  524SOL     MW 2096   0.596   2.348   2.944 -0.0711  0.4122 -0.3362
  525SOL     OW 2097   0.461   2.189   2.111 -0.4697  0.2476 -0.4201
  525SOL    HW1 2098   0.425   2.111   2.146 -1.8234  0.0315  0.5026
  525SOL    HW2 2099   0.527   2.166   2.039 -1.5381 -0.0037  1.8308
  525SOL     MW 2100   0.465   2.176   2.106 -0.7893  0.1859 -0.0014
  526SOL     OW 2101   0.690   2.155   1.960  0.3766  0.4554  0.0072
  526SOL    HW1 2102   0.692   2.186   1.869  1.3089  0.6215 -3.0629
  526SOL    HW2 2103   0.774   2.190   2.003 -3.1024 -2.9646  1.4985
  526SOL     MW 2104   0.701   2.164   1.954  0.0406  0.0261 -0.2011
  527SOL     OW 2105   1.292   1.927   2.050 -0.3103 -0.5350 -0.4552
  527SOL    HW1 2106   1.267   1.880   2.128 -1.1290 -0.0775  2.0582
  527SOL    HW2 2107   1.321   1.864   1.993 -1.0631 -0.8378  3.3632
  527SOL     MW 2108   1.292   1.913   2.053 -0.5177 -0.5146  0.3802
  528SOL     OW 2109   0.648   2.911   2.927 -0.3014  0.0776  0.4218
  528SOL    HW1 2110   0.652   3.007   2.935  0.6604  0.0714  0.4230
  528SOL    HW2 2111   0.608   2.895   2.837  1.2818 -2.5832 -2.1672
  528SOL     MW 2112   0.643   2.921   2.916  0.0344 -0.2743  0.0804
  529SOL     OW 2113   0.985   2.238   1.913 -0.1569  1.0263  0.3741
  529SOL    HW1 2114   1.027   2.275   1.992 -2.0138 -1.3177  0.5553
  529SOL    HW2 2115   1.022   2.285   1.838 -1.4338  0.0820  0.6773
  529SOL     MW 2116   0.995   2.249   1.913 -0.5704  0.5925  0.4380
  530SOL     OW 2117   1.132   2.454   3.045  0.6333  0.3539 -0.0480
  530SOL    HW1 2118   1.058   2.435   3.108 -1.4912  0.2166  0.1797
  530SOL    HW2 2119   1.165   2.369   3.013 -1.4617  0.6376 -0.3951
  530SOL     MW 2120   1.127   2.440   3.049  0.0766  0.3732 -0.0637
  531SOL     OW 2121   0.895   1.872   2.650  0.1433  0.6022  0.0655
  531SOL    HW1 2122   0.929   1.941   2.706  0.1413  0.2114  1.7541
  531SOL    HW2 2123   0.857   1.817   2.715  0.9008  1.4865  2.5049
  531SOL     MW 2124   0.895   1.874   2.666  0.2430  0.6673  0.6102
  532SOL     OW 2125   1.698   0.290   2.817 -0.1549 -0.0417 -0.2156
  532SOL    HW1 2126   1.667   0.202   2.856  0.1570  1.1467  0.5132
  532SOL    HW2 2127   1.779   0.311   2.868  1.7903  0.1187 -1.1852
  532SOL     MW 2128   1.705   0.281   2.829  0.1429  0.1363 -0.2473
  533SOL     OW 2129   1.763   2.662   2.965 -0.1296 -0.5539 -0.4074
  533SOL    HW1 2130   1.754   2.587   3.030  1.3700 -1.2166  2.4174
  533SOL    HW2 2131   1.710   2.626   2.890 -2.2597 -1.7471  0.4270
  533SOL     MW 2132   1.755   2.647   2.963 -0.2128 -0.7988  0.0754
  534SOL     OW 2133   1.734   2.450   2.450  0.0896 -0.8359  1.1040
  534SOL    HW1 2134   1.651   2.407   2.448  0.2740  0.7782  1.7207
  534SOL    HW2 2135   1.777   2.439   2.538  1.2395  0.7990 -2.2328
  534SOL     MW 2136   1.729   2.443   2.461  0.2656 -0.4072  0.7451
  535SOL     OW 2137   1.838   2.328   1.912 -0.6787  0.3339 -0.5300
  535SOL    HW1 2138   1.791   2.361   1.836  0.3754 -0.1200 -0.4293
  535SOL    HW2 2139   1.932   2.349   1.895  1.0508  0.1723 -0.5725
  535SOL     MW 2140   1.844   2.335   1.900 -0.3114  0.2527 -0.5223
  536SOL     OW 2141   0.450   1.785   1.995  0.0343 -0.2542 -0.7105
  536SOL    HW1 2142   0.465   1.729   1.916 -0.9778 -0.8316 -0.3496
  536SOL    HW2 2143   0.528   1.839   2.010  0.4142  0.9739 -0.4205
  536SOL     MW 2144   0.462   1.785   1.987 -0.0491 -0.1683 -0.6246
  537SOL     OW 2145   1.077   0.203   2.897  0.1649  0.0380 -0.0958
  537SOL    HW1 2146   1.002   0.195   2.956  0.1500 -2.1193 -1.3419
  537SOL    HW2 2147   1.086   0.301   2.883  1.6312 -0.7439  0.2618
  537SOL     MW 2148   1.068   0.215   2.903  0.3564 -0.3498 -0.2130
  538SOL     OW 2149   1.310   0.012   2.975  0.2016 -0.2739  0.0846
  538SOL    HW1 2150   1.249   0.081   2.959  1.6833 -1.8730  1.7751
  538SOL    HW2 2151   1.398   0.045   2.955  0.6356  0.7219 -2.3241
  538SOL     MW 2152   1.313   0.026   2.970  0.4544 -0.3535 -0.0102
  539SOL     OW 2153   0.775   2.714   2.495  0.2556  0.6007  0.3232
  539SOL    HW1 2154   0.838   2.772   2.535  1.9137 -0.6671 -0.1173
  539SOL    HW2 2155   0.811   2.633   2.520 -1.1380  3.9112 -0.2949
  539SOL     MW 2156   0.788   2.711   2.504  0.2905  0.8702  0.1835
  540SOL     OW 2157   0.335   2.266   2.866 -0.1353 -0.2754 -0.0094
  540SOL    HW1 2158   0.425   2.272   2.897  0.0669  1.4119  1.0228
  540SOL    HW2 2159   0.297   2.233   2.949  3.4015  0.4000  2.0237
  540SOL     MW 2160   0.342   2.262   2.881  0.3580  0.0364  0.3950
  541SOL     OW 2161   0.157   2.876   2.199 -0.1597  0.2977 -0.5330
  541SOL    HW1 2162   0.148   2.788   2.159 -2.7303  0.2373 -0.7519
  541SOL    HW2 2163   0.208   2.863   2.282  1.4708 -0.2928 -0.3130
  541SOL     MW 2164   0.163   2.863   2.204 -0.2837  0.2118 -0.5329
  542SOL     OW 2165   0.956   2.218   2.665  0.2149 -0.3794 -0.1939
  542SOL    HW1 2166   0.888   2.168   2.694  1.4730  0.8958 -2.5112
  542SOL    HW2 2167   0.973   2.287   2.729  0.0316 -0.0810  1.3123
  542SOL     MW 2168   0.949   2.220   2.678  0.3567 -0.1718 -0.3009
  543SOL     OW 2169   1.426   2.519   2.671  0.3719 -0.5560 -0.2124
  543SOL    HW1 2170   1.439   2.453   2.606  1.5405  0.5263  0.5281
  543SOL    HW2 2171   1.513   2.562   2.680  1.0943  0.2776  3.7216
  543SOL     MW 2172   1.440   2.516   2.664  0.6214 -0.3032  0.4043
  544SOL     OW 2173   0.581   0.217   2.725 -0.2085 -0.0108  0.1188
  544SOL    HW1 2174   0.497   0.245   2.773 -2.2404  0.9551  0.1892
  544SOL    HW2 2175   0.550   0.160   2.655  0.2836 -0.7962 -1.1962
  544SOL     MW 2176   0.566   0.213   2.722 -0.4117  0.0130 -0.0454
  545SOL     OW 2177   1.505   2.152   2.263 -0.2682  0.4648 -0.4858
  545SOL    HW1 2178   1.474   2.146   2.170  2.4169  0.3145 -3.1276
  545SOL    HW2 2179   1.601   2.136   2.246  0.9241  0.6267 -2.5068
  545SOL     MW 2180   1.514   2.149   2.248  0.2434  0.4663 -1.1010
  546SOL     OW 2181   2.979   1.998   0.104 -0.4321  0.0519  0.0422
  546SOL    HW1 2182   2.975   2.070   0.046  2.2835 -1.4539  0.5360
  546SOL    HW2 2183   3.072   1.976   0.108 -1.6574  0.5248 -0.4957
  546SOL     MW 2184   2.990   2.005   0.097 -0.2355 -0.0844  0.0364
  547SOL     OW 2185   0.195   3.006   0.130 -0.3536  0.3034  0.8929
  547SOL    HW1 2186   0.250   3.052   0.060 -0.4777  2.2744 -0.8561
  547SOL    HW2 2187   0.218   2.914   0.120  2.5685  0.2117 -0.6682
  547SOL     MW 2188   0.206   3.000   0.120  0.0156  0.5513  0.4562
  548SOL     OW 2189   0.324   2.534   0.261 -0.0008 -0.2763  0.2601
  548SOL    HW1 2190   0.319   2.600   0.190 -1.4339 -1.5821  0.0815
  548SOL    HW2 2191   0.254   2.476   0.234  1.0857  2.4004  2.6404
  548SOL     MW 2192   0.314   2.535   0.248 -0.0465 -0.0954  0.5506
  549SOL     OW 2193   0.710   1.904   2.078  0.0540 -0.2433  0.5604
  549SOL    HW1 2194   0.715   1.987   2.030 -0.1816 -3.6073 -0.0439
  549SOL    HW2 2195   0.736   1.934   2.166 -0.5823  0.7340 -1.6446
  549SOL     MW 2196   0.714   1.919   2.083 -0.0610 -0.5582  0.1897
  550SOL     OW 2197   1.849   1.768   2.542  0.0346  0.3402 -0.6115
  550SOL    HW1 2198   1.846   1.767   2.444  0.3445  1.0285  0.4416
  550SOL    HW2 2199   1.839   1.861   2.577 -0.0312 -0.8197 -1.3713
  550SOL     MW 2200   1.848   1.780   2.534  0.0668  0.2780 -0.5728
  551SOL     OW 2201   0.873   2.342   0.202  0.2863 -0.1898 -0.2869
  551SOL    HW1 2202   0.971   2.340   0.221 -1.6726  1.4259  1.6139
  551SOL    HW2 2203   0.855   2.246   0.190  0.6828 -1.6946  3.3832
  551SOL     MW 2204   0.884   2.329   0.203  0.0801 -0.1752  0.4481
  552SOL     OW 2205   1.779   1.792   2.288 -0.2208 -0.8364  0.0870
  552SOL    HW1 2206   1.691   1.744   2.276 -0.9870 -0.4206 -0.5459
  552SOL    HW2 2207   1.830   1.778   2.196  1.1292  0.9148 -0.4355
  552SOL     MW 2208   1.774   1.784   2.274 -0.1438 -0.5505 -0.0655
  553SOL     OW 2209   1.253   2.334   1.531 -0.3831 -0.2163 -0.1599
  553SOL    HW1 2210   1.291   2.247   1.515  2.9670  3.2563 -0.5649
  553SOL    HW2 2211   1.317   2.397   1.499  0.5168 -0.4564 -0.0074
  553SOL     MW 2212   1.266   2.331   1.525  0.1776  0.2102 -0.1932
  554SOL     OW 2213   0.596   2.858   2.658  0.3068 -0.3325  0.1341
  554SOL    HW1 2214   0.551   2.925   2.600 -1.9079  1.4617 -0.6906
  554SOL    HW2 2215   0.652   2.804   2.595  1.8933  1.6245 -1.4435
  554SOL     MW 2216   0.597   2.860   2.642  0.2239  0.1625 -0.1828
  555SOL     OW 2217   0.575   2.444   2.593  0.3878 -0.4945 -0.5182
  555SOL    HW1 2218   0.552   2.350   2.593 -2.6455 -0.6140  3.1266
  555SOL    HW2 2219   0.647   2.447   2.534 -0.6183  3.2735  3.6964
  555SOL     MW 2220   0.581   2.432   2.586 -0.1452 -0.0131  0.5188
  556SOL     OW 2221   0.953   1.798   0.163 -0.4182  0.6575  0.0805
  556SOL    HW1 2222   0.985   1.805   0.073  2.6405 -0.4136  0.8108
  556SOL    HW2 2223   1.045   1.805   0.201  0.3845 -1.3109 -0.0865
  556SOL     MW 2224   0.969   1.800   0.156  0.0913  0.2565  0.1548
  557SOL     OW 2225   0.898   2.698   0.495  0.2742 -0.4318  0.6774
  557SOL    HW1 2226   0.944   2.661   0.417  0.6833 -0.0221 -0.6971
  557SOL    HW2 2227   0.864   2.779   0.469 -0.1367 -1.8668 -1.6892
  557SOL     MW 2228   0.900   2.704   0.481  0.2740 -0.5671  0.1838
  558SOL     OW 2229   0.266   2.190   0.060 -0.2121  0.4657 -0.0941
  558SOL    HW1 2230   0.230   2.098   0.062 -0.5938  1.5030  3.7168
  558SOL    HW2 2231   0.214   2.251   0.112  3.1142  1.2454  0.4063
  558SOL     MW 2232   0.254   2.186   0.067  0.1764  0.7055  0.4747
  559SOL     OW 2233   1.162   2.299   2.114 -0.6645 -0.0122 -0.5661
  559SOL    HW1 2234   1.153   2.376   2.172 -0.1618 -1.6564  0.8002
  559SOL    HW2 2235   1.187   2.228   2.167  1.4848  0.1108  0.6042
  559SOL     MW 2236   1.164   2.300   2.128 -0.3146 -0.2129 -0.2314
  560SOL     OW 2237   1.963   2.803   0.034 -0.5429  0.2473  0.1771
  560SOL    HW1 2238   2.017   2.854  -0.021  0.2208 -1.5636  0.1154
  560SOL    HW2 2239   1.906   2.757  -0.025  1.4965 -0.1319 -0.7081
  560SOL     MW 2240   1.963   2.804   0.019 -0.1730 -0.0417  0.0522
  561SOL     OW 2241   0.447   2.072   0.233 -0.0344  0.6353  0.6823
  561SOL    HW1 2242   0.388   2.116   0.172 -0.0900  0.1394 -1.2860
  561SOL    HW2 2243   0.487   2.147   0.260 -0.9746 -2.2372 -3.1333
  561SOL     MW 2244   0.445   2.088   0.229 -0.1658  0.1909 -0.0808
  562SOL     OW 2245   0.873   2.212   2.178 -0.4197  0.1931  0.3934
  562SOL    HW1 2246   0.861   2.307   2.194 -2.8318 -0.4615  1.0831
  562SOL    HW2 2247   0.960   2.193   2.206 -2.9583  2.0171  0.0362
  562SOL     MW 2248   0.883   2.222   2.184 -1.0729  0.3474  0.4372
  563SOL     OW 2249   1.193   0.295   0.586 -0.3447  0.0786  0.2634
  563SOL    HW1 2250   1.136   0.278   0.509 -0.7440 -1.2900 -0.5371
  563SOL    HW2 2251   1.228   0.204   0.593  1.6528 -0.3075  1.7054
  563SOL     MW 2252   1.190   0.281   0.577 -0.1338 -0.1529  0.3481
  564SOL     OW 2253   1.101   2.550   2.360 -0.3008 -0.2579 -0.3280
  564SOL    HW1 2254   1.140   2.592   2.279  1.4649 -0.0425  1.1951
  564SOL    HW2 2255   1.142   2.604   2.434 -1.8662  0.4404 -1.1047
  564SOL     MW 2256   1.112   2.563   2.359 -0.2743 -0.1373 -0.2295
  565SOL     OW 2257   2.868   2.665   2.585  0.3838 -0.6603 -0.0823
  565SOL    HW1 2258   2.937   2.728   2.554 -0.1302  0.6322 -0.4000
  565SOL    HW2 2259   2.787   2.682   2.527  5.1729  1.8668 -0.5070
  565SOL     MW 2260   2.866   2.676   2.573  0.9478 -0.1563 -0.1803
  566SOL     OW 2261   2.231   1.888   2.389 -1.0453 -0.1796  0.3474
  566SOL    HW1 2262   2.216   1.879   2.295  0.0600  1.3687  0.4479
  566SOL    HW2 2263   2.293   1.963   2.392  0.4735  0.3588  1.2545
  566SOL     MW 2264   2.237   1.897   2.377 -0.6991  0.0957  0.4803
  567SOL     OW 2265   1.122   2.915   0.023 -0.1602  0.5329 -0.7405
  567SOL    HW1 2266   1.200   2.974   0.021 -0.7777  1.2346 -1.4894
  567SOL    HW2 2267   1.136   2.884  -0.067 -0.0348 -1.5885 -0.8811
  567SOL     MW 2268   1.134   2.918   0.010 -0.2251  0.3456 -0.8579
  568SOL     OW 2269   1.629   2.026   2.922 -0.1535 -0.7171  0.2474
  568SOL    HW1 2270   1.658   2.101   2.978 -2.2068 -1.2813  0.7948
  568SOL    HW2 2271   1.693   2.007   2.846  0.4236 -0.1551 -2.6396
  568SOL     MW 2272   1.641   2.033   2.920 -0.3482 -0.7174 -0.0613
  569SOL     OW 2273   0.223   2.213   2.435  0.0179  0.0634 -0.0187
  569SOL    HW1 2274   0.163   2.262   2.369  0.0455 -0.7073 -1.1176
  569SOL    HW2 2275   0.233   2.276   2.507 -0.4602 -0.4158 -1.3551
  569SOL     MW 2276   0.217   2.227   2.436 -0.0416 -0.1015 -0.3400
  570SOL     OW 2277   1.466   0.458   0.487  0.3543  0.1865  0.0214
  570SOL    HW1 2278   1.378   0.454   0.530 -2.3578 -1.9587 -1.5007
  570SOL    HW2 2279   1.529   0.434   0.559  0.8628 -0.6238  1.1561
  570SOL     MW 2280   1.463   0.454   0.502  0.0635 -0.2035 -0.0297
  571SOL     OW 2281   1.493   2.413   1.990  0.0928  0.1808  0.3542
  571SOL    HW1 2282   1.566   2.434   2.046 -1.9697  3.0427  0.6918
  571SOL    HW2 2283   1.458   2.330   2.026  1.3816  0.6944  3.2280
  571SOL     MW 2284   1.498   2.405   2.002 -0.0093  0.6261  0.7779
  572SOL     OW 2285   0.918   2.684   0.079 -0.3048 -0.1543 -0.0966
  572SOL    HW1 2286   0.942   2.682  -0.011 -1.3833 -1.7661  0.2937
  572SOL    HW2 2287   0.845   2.623   0.083 -0.5673 -1.1350 -1.0816
  572SOL     MW 2288   0.911   2.675   0.067 -0.4817 -0.4964 -0.1750
  573SOL     OW 2289   1.155   2.366   0.221  0.0217 -0.3470  0.5772
  573SOL    HW1 2290   1.243   2.376   0.168 -2.1268 -0.1412  2.5472
  573SOL    HW2 2291   1.147   2.456   0.263 -1.3915 -0.1784  0.5372
  573SOL     MW 2292   1.166   2.380   0.219 -0.4482 -0.2976  0.8318
  574SOL     OW 2293   1.079   2.623   0.300 -0.5867 -0.3548  0.0699
  574SOL    HW1 2294   1.165   2.676   0.287  0.1353  0.9561 -0.4966
  574SOL    HW2 2295   1.023   2.659   0.229  0.0367  0.0759  1.5893
  574SOL     MW 2296   1.083   2.635   0.289 -0.4092 -0.1250  0.1956
  575SOL     OW 2297   3.068   2.293   1.796  0.1076 -0.2692 -0.1290
  575SOL    HW1 2298   3.072   2.209   1.757  0.4497  0.7773  1.4441
  575SOL    HW2 2299   3.135   2.355   1.756  0.6985 -0.5983 -0.7666
  575SOL     MW 2300   3.078   2.290   1.786  0.2307 -0.1745 -0.0056
  576SOL     OW 2301   2.821   1.831   2.035 -0.5135  0.7392 -0.7878
  576SOL    HW1 2302   2.855   1.911   1.993  4.0510 -0.8567 -0.2538
  576SOL    HW2 2303   2.735   1.809   2.002 -0.6074 -0.8606  0.5484
  576SOL     MW 2304   2.814   1.838   2.025  0.0764  0.3176 -0.5411
  577SOL     OW 2305   2.088   0.313   0.065 -0.3747  0.1154  0.1396
  577SOL    HW1 2306   2.018   0.338   0.002  0.6189  0.3241  0.3723
  577SOL    HW2 2307   2.042   0.288   0.140  2.5541  0.2884  1.5445
  577SOL     MW 2308   2.073   0.313   0.067  0.1428  0.1658  0.3557
  578SOL     OW 2309   1.986   2.019   2.473 -0.0621 -0.1615  0.5641
  578SOL    HW1 2310   1.923   2.016   2.399 -0.8574  0.7996 -2.4155
  578SOL    HW2 2311   2.060   1.961   2.455 -2.3013 -0.3508  1.2034
  578SOL     MW 2312   1.987   2.011   2.461 -0.4625 -0.0597  0.2553
  579SOL     OW 2313   0.887   2.447   2.497  0.2785  0.6711 -0.1696
  579SOL    HW1 2314   0.905   2.365   2.545  0.6205 -0.3776 -2.0756
  579SOL    HW2 2315   0.973   2.479   2.461  0.8995 -1.4965  0.2842
  579SOL     MW 2316   0.901   2.440   2.499  0.4056  0.2467 -0.3612
  580SOL     OW 2317   0.852   2.976   0.051  0.1752  0.2272  0.0379
  580SOL    HW1 2318   0.947   2.934   0.054  1.9619  0.5796 -2.2060
  580SOL    HW2 2319   0.792   2.926  -0.005 -0.5988 -1.9085 -1.5214
  580SOL     MW 2320   0.857   2.964   0.044  0.3088 -0.0081 -0.4639
  581SOL     OW 2321   1.100   2.426   1.721  0.5298 -0.3708  0.6001
  581SOL    HW1 2322   1.167   2.477   1.768  0.5918  3.6285 -3.0064
  581SOL    HW2 2323   1.150   2.393   1.645  0.7219  0.3512  2.2607
  581SOL     MW 2324   1.116   2.428   1.717  0.5633  0.2521  0.3434
  582SOL     OW 2325   3.081   2.815   2.504 -0.1530 -0.0144 -0.0219
  582SOL    HW1 2326   3.096   2.890   2.569 -0.0366  2.2695  0.7761
  582SOL    HW2 2327   3.174   2.799   2.485 -2.3879 -1.6105  0.8304
  582SOL     MW 2328   3.095   2.823   2.510 -0.4325  0.0763  0.1959
  583SOL     OW 2329   1.947   2.440   2.642 -0.1421 -0.3564  0.0385
  583SOL    HW1 2330   2.021   2.466   2.588 -0.4758  0.3377  0.3922
  583SOL    HW2 2331   1.969   2.342   2.641 -1.3583 -0.1058  0.5904
  583SOL     MW 2332   1.960   2.430   2.635 -0.3466 -0.2318  0.1580
  584SOL     OW 2333   0.197   1.895   2.055 -0.0404  0.1280 -0.4944
  584SOL    HW1 2334   0.255   1.820   2.040  1.1393 -2.5091  1.2287
  584SOL    HW2 2335   0.246   1.952   2.114 -1.1273 -0.6911 -2.3968
  584SOL     MW 2336   0.211   1.893   2.061 -0.0281 -0.3280 -0.5181
  585SOL     OW 2337   1.476   2.681   0.059 -0.2826  0.1402  0.1637
  585SOL    HW1 2338   1.449   2.623  -0.009 -1.2922 -1.9305 -0.7914
  585SOL    HW2 2339   1.393   2.689   0.111 -0.7130 -1.0355  0.3900
  585SOL     MW 2340   1.461   2.674   0.057 -0.4726 -0.2881  0.0676
  586SOL     OW 2341   1.367   2.839   2.388  0.3587 -0.1155  0.7028
  586SOL    HW1 2342   1.442   2.805   2.340  1.3007 -0.9389  1.1528
  586SOL    HW2 2343   1.388   2.921   2.434 -1.0916 -2.0109 -1.4120
  586SOL     MW 2344   1.380   2.845   2.388  0.2917 -0.4742  0.4832
  587SOL     OW 2345   1.284   1.562   2.136  0.0445 -0.2793  0.2910
  587SOL    HW1 2346   1.275   1.489   2.203 -0.7204 -1.5092 -0.3070
  587SOL    HW2 2347   1.245   1.533   2.047  0.9348  0.0877 -2.0554
  587SOL     MW 2348   1.277   1.549   2.133  0.0610 -0.3931 -0.0975
  588SOL     OW 2349   1.414   2.174   2.737 -0.3607 -0.0152  0.5394
  588SOL    HW1 2350   1.450   2.091   2.768  2.9967  0.1109 -3.3453
  588SOL    HW2 2351   1.347   2.197   2.799  0.1137  0.2256 -0.5723
  588SOL     MW 2352   1.410   2.166   2.749  0.1449  0.0332 -0.1198
  589SOL     OW 2353   1.370   2.113   0.061 -0.1814  0.0311  0.3752
  589SOL    HW1 2354   1.399   2.198   0.097 -0.7049 -0.2320 -1.1049
  589SOL    HW2 2355   1.298   2.082   0.117 -3.1444  1.5083 -1.3757
  589SOL     MW 2356   1.364   2.120   0.073 -0.6414  0.1913 -0.0511
  590SOL     OW 2357   0.422   2.551   2.286  0.0404  0.0171 -0.0448
  590SOL    HW1 2358   0.404   2.538   2.188 -1.1263 -0.1192 -0.0096
  590SOL    HW2 2359   0.459   2.639   2.296  0.6078 -0.5900  2.0428
  590SOL     MW 2360   0.425   2.561   2.274 -0.0386 -0.0810  0.2353
  591SOL     OW 2361   2.293   0.695   0.020  0.2877  0.0771 -0.5143
  591SOL    HW1 2362   2.227   0.750  -0.015 -0.4866 -1.6404  3.4759
  591SOL    HW2 2363   2.370   0.711  -0.029 -2.7868 -1.7796 -1.0497
  591SOL     MW 2364   2.294   0.705   0.009 -0.2201 -0.3945 -0.0585
  592SOL     OW 2365   1.874   3.011   0.778 -0.0985 -0.8327  0.1301
  592SOL    HW1 2366   1.827   3.048   0.703 -0.3881 -1.5410  1.4150
  592SOL    HW2 2367   1.895   2.919   0.749 -1.2002  0.3710 -0.5191
  592SOL     MW 2368   1.870   3.004   0.764 -0.2820 -0.7674  0.2140
  593SOL     OW 2369   1.904   0.769   0.858  0.5056  0.1723 -0.2324
  593SOL    HW1 2370   1.836   0.751   0.797  1.2624 -0.8772  1.1538
  593SOL    HW2 2371   1.917   0.680   0.893 -0.2920 -0.5102  0.3221
  593SOL     MW 2372   1.897   0.755   0.855  0.5002 -0.0562  0.0236
  594SOL     OW 2373   2.765   1.137   1.386  0.5982  0.4223  0.6105
  594SOL    HW1 2374   2.853   1.180   1.392 -0.4553  1.4047 -0.4097
  594SOL    HW2 2375   2.756   1.110   1.295 -0.9141  1.1336  1.3126
  594SOL     MW 2376   2.775   1.139   1.375  0.2596  0.6457  0.5685
  595SOL     OW 2377   0.486   0.930   0.719  0.1413 -0.2224  0.5787
  595SOL    HW1 2378   0.491   1.008   0.658  1.0995  0.8044 -0.7575
  595SOL    HW2 2379   0.499   0.972   0.806 -2.3006  0.0765  1.4734
  595SOL     MW 2380   0.489   0.946   0.722 -0.0544 -0.0475  0.5204
  596SOL     OW 2381   2.456   1.387   0.525  0.2590 -0.5617 -0.4467
  596SOL    HW1 2382   2.483   1.477   0.497 -0.3473 -2.7755  1.7920
  596SOL    HW2 2383   2.525   1.374   0.591 -0.4323  0.0054 -1.3004
  596SOL     MW 2384   2.468   1.397   0.530  0.0878 -0.7789 -0.2640
  597SOL     OW 2385   2.187   0.670   1.647 -0.2164  0.4528 -0.6577
  597SOL    HW1 2386   2.261   0.608   1.670 -0.7840 -0.0496 -2.4201
  597SOL    HW2 2387   2.107   0.620   1.616 -0.6083  0.3472 -1.3756
  597SOL     MW 2388   2.186   0.655   1.646 -0.3430  0.3726 -0.9850
  598SOL     OW 2389   2.625   1.006   2.886 -0.3601  0.0412  0.8072
  598SOL    HW1 2390   2.653   1.000   2.787 -2.4497  0.7265  0.8681
  598SOL    HW2 2391   2.688   1.075   2.931 -0.0828  1.7524  2.1264
  598SOL     MW 2392   2.637   1.014   2.879 -0.5992  0.3574  0.9893
  599SOL     OW 2393   2.934   0.359   2.078 -0.2405  0.8751  0.0593
  599SOL    HW1 2394   2.899   0.381   2.166 -0.2926 -1.4813 -1.0113
  599SOL    HW2 2395   2.965   0.444   2.036 -1.1992  2.4454  0.7907
  599SOL     MW 2396   2.933   0.373   2.084 -0.3738  0.7714  0.0145
  600SOL     OW 2397   1.898   1.755   0.890 -0.2530  0.5124 -0.0659
  600SOL    HW1 2398   1.922   1.785   0.979  1.9316  0.1456  1.3123
  600SOL    HW2 2399   1.817   1.808   0.869  1.5157  0.8675 -0.3109
  600SOL     MW 2400   1.890   1.766   0.899  0.2686  0.5109  0.0837
  601SOL     OW 2401   2.510   0.802   0.814  0.3451  0.0247  0.1355
  601SOL    HW1 2402   2.509   0.824   0.909 -0.2532 -2.4882  1.0751
  601SOL    HW2 2403   2.456   0.717   0.815  0.8847 -0.6992  0.4038
  601SOL     MW 2404   2.503   0.793   0.827  0.3374 -0.4023  0.2948
  602SOL     OW 2405   2.313   1.949   0.824 -0.4388 -0.1571  0.6545
  602SOL    HW1 2406   2.262   1.874   0.869 -1.4370 -0.7933  0.7737
  602SOL    HW2 2407   2.262   1.971   0.751 -0.1608 -1.1470  0.0473
  602SOL     MW 2408   2.299   1.942   0.821 -0.5338 -0.3717  0.5901
  603SOL     OW 2409   0.001   1.387   1.781  0.1837 -0.1236  0.2192
  603SOL    HW1 2410   0.010   1.409   1.877  2.0091  0.0649  1.3446
  603SOL    HW2 2411  -0.019   1.294   1.784  0.5935  1.3723 -2.8001
  603SOL     MW 2412  -0.001   1.378   1.794  0.4786  0.0987 -0.0307
  604SOL     OW 2413   2.099   1.572   0.462 -0.2035 -0.6193  0.1417
  604SOL    HW1 2414   2.135   1.496   0.505  0.3366  1.9131  0.5517
  604SOL    HW2 2415   2.032   1.622   0.518  1.0010 -0.5744 -3.2010
  604SOL     MW 2416   2.095   1.569   0.475  0.0267 -0.2793 -0.2453
  605SOL     OW 2417   2.659   1.542   0.850 -0.3385  0.0096  0.2642
  605SOL    HW1 2418   2.591   1.586   0.796 -1.1265 -2.8925  0.4495
  605SOL    HW2 2419   2.647   1.447   0.831 -1.0772 -1.0448 -0.4886
  605SOL     MW 2420   2.648   1.536   0.840 -0.5399 -0.5124  0.1893
  606SOL     OW 2421   2.573   1.816   1.853  0.2411  0.4413  0.6702
  606SOL    HW1 2422   2.480   1.798   1.867  0.9165 -1.1071  0.6953
  606SOL    HW2 2423   2.600   1.723   1.831  0.9807 -0.4116  3.3432
  606SOL     MW 2424   2.564   1.801   1.852  0.4278  0.1244  1.0262
  607SOL     OW 2425   2.380   1.018   3.002  0.3450  0.4177  0.9036
  607SOL    HW1 2426   2.465   1.019   2.957 -1.8350 -0.0249 -0.2179
  607SOL    HW2 2427   2.400   1.036   3.098 -2.0384 -0.4375  0.2344
  607SOL     MW 2428   2.394   1.020   3.008 -0.2571  0.2465  0.6674
  608SOL     OW 2429   1.901   0.312   0.588  0.5609 -0.4426  0.4950
  608SOL    HW1 2430   1.923   0.345   0.499  0.8223  2.7736  0.4999
  608SOL    HW2 2431   1.850   0.230   0.566  2.6292  1.0887 -1.3973
  608SOL     MW 2432   1.897   0.306   0.573  0.8683  0.1838  0.2460
  609SOL     OW 2433   2.122   1.966   3.049 -0.5142 -0.0585  0.0796
  609SOL    HW1 2434   2.030   1.938   3.046 -0.1981 -0.8242 -2.4526
  609SOL    HW2 2435   2.159   1.931   3.134 -1.4402 -1.4550 -0.9015
  609SOL     MW 2436   2.115   1.957   3.060 -0.5947 -0.3438 -0.3840
  610SOL     OW 2437   1.776   1.023   1.239  0.5313 -0.0039 -0.0998
  610SOL    HW1 2438   1.786   0.947   1.182 -1.2969  0.6225  0.9624
  610SOL    HW2 2439   1.686   1.041   1.257 -0.6724  3.5226  0.3373
  610SOL     MW 2440   1.765   1.016   1.234  0.1313  0.5440  0.0980
  611SOL     OW 2441   2.484   1.700   0.709  0.0341  0.8919 -0.3501
  611SOL    HW1 2442   2.435   1.757   0.770 -0.0545  0.0698 -0.8728
  611SOL    HW2 2443   2.491   1.735   0.616  3.5440 -0.8956 -1.0875
  611SOL     MW 2444   2.479   1.712   0.705  0.4855  0.5476 -0.5164
  612SOL     OW 2445   2.801   2.826   0.408  0.0991  0.3817 -0.2776
  612SOL    HW1 2446   2.826   2.868   0.492  0.6179  1.1018 -0.7034
  612SOL    HW2 2447   2.882   2.831   0.360  0.7746 -0.1915  0.8878
  612SOL     MW 2448   2.815   2.832   0.413  0.2567  0.4011 -0.1800
  613SOL     OW 2449   1.485   0.990   0.973 -0.3105 -0.3959  0.0059
  613SOL    HW1 2450   1.479   1.087   0.987  0.6970  0.2503  0.2442
  613SOL    HW2 2451   1.473   0.953   1.066  1.6041 -0.2755  0.1201
  613SOL     MW 2452   1.483   0.998   0.987  0.0750 -0.2948  0.0524
  614SOL     OW 2453   1.980   0.541   1.527 -0.3269  0.3000 -0.5096
  614SOL    HW1 2454   2.012   0.465   1.578  1.4403 -1.4840  0.1514
  614SOL    HW2 2455   1.975   0.507   1.437 -1.8120  0.2149 -1.3922
  614SOL     MW 2456   1.983   0.527   1.522 -0.2897  0.0534 -0.5388
  615SOL     OW 2457   2.296   0.752   0.288  0.6555 -0.5301  0.0432
  615SOL    HW1 2458   2.377   0.712   0.314 -0.2363 -1.8783 -2.7368
  615SOL    HW2 2459   2.292   0.729   0.193  0.2250  0.1176 -1.1089
  615SOL     MW 2460   2.306   0.744   0.279  0.4810 -0.6225 -0.4756
  616SOL     OW 2461   2.529   0.369   1.577  0.0071  0.1938 -0.1803
  616SOL    HW1 2462   2.471   0.312   1.520 -1.2938  1.3632  1.6603
  616SOL    HW2 2463   2.577   0.434   1.527  0.2780 -0.6349  0.6286
  616SOL     MW 2464   2.528   0.370   1.563 -0.1288  0.2388  0.1693
  617SOL     OW 2465   2.912   0.563   1.731  0.7770  0.2154  0.1310
  617SOL    HW1 2466   2.822   0.585   1.767 -0.3537  0.3864 -1.7462
  617SOL    HW2 2467   2.919   0.467   1.734  0.9141  1.5606  0.9882
  617SOL     MW 2468   2.901   0.553   1.736  0.6459  0.4155 -0.0036
  618SOL     OW 2469   2.654   0.324   1.981  0.1009 -0.0906  0.1582
  618SOL    HW1 2470   2.641   0.413   1.951  0.5497 -0.6394 -2.5579
  618SOL    HW2 2471   2.751   0.321   2.003  0.3932 -0.2499  0.2903
  618SOL     MW 2472   2.665   0.335   1.980  0.1987 -0.1840 -0.1827
  619SOL     OW 2473   2.656   0.709   0.142  0.0649 -0.4782  0.0003
  619SOL    HW1 2474   2.715   0.786   0.139  1.1700 -3.7155 -3.1481
  619SOL    HW2 2475   2.635   0.694   0.232  2.6150  0.2746  1.2469
  619SOL     MW 2476   2.661   0.717   0.154  0.5472 -0.8060 -0.2506
  620SOL     OW 2477   2.330   1.051   1.005 -0.0307 -0.0352  0.1777
  620SOL    HW1 2478   2.405   1.067   0.945 -1.6557  0.5520 -2.7603
  620SOL    HW2 2479   2.270   0.986   0.962 -1.8425 -0.9431  1.4114
  620SOL     MW 2480   2.332   1.044   0.991 -0.4842 -0.0775 -0.0472
  621SOL     OW 2481   1.449   2.140   2.004  0.0062  0.6163 -0.2906
  621SOL    HW1 2482   1.406   2.058   2.011  0.2780  1.4257  0.9995
  621SOL    HW2 2483   1.541   2.129   1.990  2.0748  2.0640 -0.1939
  621SOL     MW 2484   1.456   2.128   2.003  0.3150  0.9141 -0.1076
  622SOL     OW 2485   2.614   0.158   0.278 -0.4019  0.1100  0.0080
  622SOL    HW1 2486   2.702   0.191   0.288  0.1465  0.1979 -0.9941
  622SOL    HW2 2487   2.599   0.063   0.289 -1.5215 -1.1379  1.1863
  622SOL     MW 2488   2.624   0.150   0.281 -0.4773 -0.0431  0.0313
  623SOL     OW 2489   2.343   2.765   0.895  0.0791  0.2203 -0.4243
  623SOL    HW1 2490   2.414   2.829   0.889  0.8430  0.8564 -1.9127
  623SOL    HW2 2491   2.280   2.795   0.965 -0.2948  0.5703 -1.3257
  623SOL     MW 2492   2.344   2.778   0.904  0.1305  0.3504 -0.7396
  624SOL     OW 2493   2.201   1.680   2.998  0.2573 -0.0342  0.2736
  624SOL    HW1 2494   2.136   1.621   3.044 -1.3022  0.0851  1.1692
  624SOL    HW2 2495   2.156   1.763   2.968 -3.0334  1.6042 -1.4590
  624SOL     MW 2496   2.186   1.683   3.000 -0.3826  0.1977  0.1632
  625SOL     OW 2497   2.203   2.030   1.118 -0.3479  0.4572 -0.2522
  625SOL    HW1 2498   2.261   1.961   1.084 -0.9374 -4.4158  0.8211
  625SOL    HW2 2499   2.253   2.107   1.088  0.4860 -1.2111  0.8795
  625SOL     MW 2500   2.217   2.031   1.109 -0.3157 -0.4058  0.0388
  626SOL     OW 2501   0.208   1.590   2.349 -0.0723 -1.3076 -0.4049
  626SOL    HW1 2502   0.209   1.494   2.350 -1.1609  1.0008 -0.0526
  626SOL    HW2 2503   0.119   1.601   2.388 -1.7402 -1.6388  1.0186
  626SOL     MW 2504   0.196   1.579   2.355 -0.4360 -1.0468 -0.1706
  627SOL     OW 2505   2.471   0.806   2.642 -0.2422 -0.0967  0.1863
  627SOL    HW1 2506   2.440   0.888   2.604  1.3080  0.2273 -0.5256
  627SOL    HW2 2507   2.421   0.749   2.581 -0.5095 -1.0222 -2.9971
  627SOL     MW 2508   2.461   0.809   2.629 -0.0729 -0.1761 -0.3277
  628SOL     OW 2509   2.237   1.341   1.381 -0.0238  0.0481  0.6272
  628SOL    HW1 2510   2.194   1.286   1.317 -0.6204 -1.2741 -0.0870
  628SOL    HW2 2511   2.330   1.345   1.358 -2.3772  1.5658  0.6223
  628SOL     MW 2512   2.244   1.334   1.370 -0.4131  0.0739  0.5323
  629SOL     OW 2513   1.955   0.561   1.240 -0.3923 -0.5415 -0.0611
  629SOL    HW1 2514   1.999   0.640   1.204  1.9939 -1.4114 -1.6896
  629SOL    HW2 2515   1.864   0.582   1.257  1.0571  0.2878  0.3995
  629SOL     MW 2516   1.948   0.574   1.238  0.1137 -0.5468 -0.2152
  630SOL     OW 2517   2.444   1.825   3.068 -0.5904 -0.2986  0.3904
  630SOL    HW1 2518   2.454   1.867   2.978  0.8405  1.0737  0.4516
  630SOL    HW2 2519   2.355   1.792   3.062  2.8749 -0.9271 -1.0159
  630SOL     MW 2520   2.433   1.826   3.055  0.0556 -0.2005  0.2129
  631SOL     OW 2521   1.971   1.820   1.567 -0.3886  0.0379 -0.1138
  631SOL    HW1 2522   2.008   1.742   1.612 -0.1997 -0.8356  0.7595
  631SOL    HW2 2523   1.967   1.795   1.475 -2.0303  0.0347  1.3746
  631SOL     MW 2524   1.975   1.807   1.561 -0.5803 -0.0777  0.1978
  632SOL     OW 2525   0.085   2.045   1.473  0.5811 -0.5701  0.1011
  632SOL    HW1 2526   0.031   2.055   1.550  1.4691 -1.4920  1.6956
  632SOL    HW2 2527   0.126   1.961   1.486 -3.7903  1.2288  0.9948
  632SOL     MW 2528   0.083   2.035   1.485  0.1215 -0.4544  0.4294
  633SOL     OW 2529   2.541   0.637   0.393  0.6759 -0.8757  0.5852
  633SOL    HW1 2530   2.617   0.616   0.441 -0.8697 -1.2796 -0.2325
  633SOL    HW2 2531   2.485   0.560   0.397 -3.2667  0.0293 -1.3048
  633SOL     MW 2532   2.543   0.624   0.400 -0.0482 -0.8096  0.2280
  634SOL     OW 2533   2.662   3.027   0.653 -0.2205 -0.2656 -0.3036
  634SOL    HW1 2534   2.713   3.111   0.669  2.0324  1.3163  0.3353
  634SOL    HW2 2535   2.604   3.053   0.578  0.2633  0.1373 -0.6849
  634SOL     MW 2536   2.661   3.042   0.645  0.1406 -0.0037 -0.2696
  635SOL     OW 2537   2.592   0.080   1.850  0.0022 -0.7493  0.5462
  635SOL    HW1 2538   2.660   0.040   1.787  3.0248 -0.7253  4.0208
  635SOL    HW2 2539   2.619   0.176   1.865  1.0866  1.3173  0.6933
  635SOL     MW 2540   2.604   0.088   1.844  0.5441 -0.4735  1.0240
  636SOL     OW 2541   2.927   1.733   1.077  0.4069 -0.3776  0.5070
  636SOL    HW1 2542   2.844   1.777   1.052  1.0795 -1.6846  1.1370
  636SOL    HW2 2543   2.983   1.800   1.109 -0.4737  0.8152 -0.7483
  636SOL     MW 2544   2.923   1.747   1.078  0.3795 -0.3926  0.4245
  637SOL     OW 2545   2.906   1.496   0.630  0.0634 -0.4099 -0.3184
  637SOL    HW1 2546   2.959   1.573   0.623 -1.6461 -0.3926  0.0515
  637SOL    HW2 2547   2.827   1.528   0.669  0.6000 -2.0365  1.0424
  637SOL     MW 2548   2.902   1.511   0.634 -0.0914 -0.6223 -0.0901
  638SOL     OW 2549   2.758   0.533   0.535  0.7039 -0.5254 -0.1671
  638SOL    HW1 2550   2.837   0.517   0.491  0.4387  0.1482  0.9208
  638SOL    HW2 2551   2.783   0.563   0.622 -3.7343 -2.0171 -1.3057
  638SOL     MW 2552   2.772   0.535   0.540  0.0833 -0.6333 -0.1738
  639SOL     OW 2553   1.779   0.048   0.564 -0.1066  0.3202  0.4754
  639SOL    HW1 2554   1.682   0.055   0.575 -2.0508 -0.6018  0.6788
  639SOL    HW2 2555   1.786  -0.006   0.485  0.2445 -1.2712  0.6544
  639SOL     MW 2556   1.767   0.042   0.555 -0.3168 -0.0114  0.5258
  640SOL     OW 2557   0.366   1.382   0.064  0.4356 -0.4320  0.1825
  640SOL    HW1 2558   0.358   1.382  -0.032  0.3797 -0.7420 -0.0952
  640SOL    HW2 2559   0.322   1.292   0.070 -0.6401 -0.5649 -2.5179
  640SOL     MW 2560   0.359   1.370   0.052  0.2863 -0.4904 -0.2104
  641SOL     OW 2561   2.233   0.444   0.374  0.7095 -0.3395 -0.3919
  641SOL    HW1 2562   2.248   0.459   0.283  0.0500 -1.4494 -1.4460
  641SOL    HW2 2563   2.271   0.356   0.388 -0.4331 -0.7097 -0.7881
  641SOL     MW 2564   2.240   0.435   0.364  0.4718 -0.5348 -0.5832
  642SOL     OW 2565   0.009   3.083   0.605  0.4693  0.2470 -0.1927
  642SOL    HW1 2566  -0.031   3.156   0.557 -1.2454 -1.0920  0.2832
  642SOL    HW2 2567  -0.063   3.032   0.637  1.6015  2.6066  0.7490
  642SOL     MW 2568  -0.006   3.086   0.603  0.3925  0.3817 -0.0057
  643SOL     OW 2569   2.085   0.331   1.708  0.2849 -0.5791  0.1169
  643SOL    HW1 2570   2.059   0.275   1.783 -0.2935 -1.9243 -2.4943
  643SOL    HW2 2571   2.088   0.269   1.635  2.0622 -2.1168  3.3348
  643SOL     MW 2572   2.082   0.315   1.708  0.4431 -0.9595  0.1970
  644SOL     OW 2573   2.723   1.960   1.069  0.6227  0.2304  0.0655
  644SOL    HW1 2574   2.689   1.889   1.134 -0.2189 -2.5816 -0.1685
  644SOL    HW2 2575   2.643   2.004   1.049 -0.1341 -1.2488 -0.6018
  644SOL     MW 2576   2.708   1.956   1.075  0.4118 -0.3358 -0.0534
  645SOL     OW 2577   2.834   0.869   0.686  0.0358 -0.4237  0.3485
  645SOL    HW1 2578   2.923   0.840   0.694 -1.7522 -2.5397 -1.4331
  645SOL    HW2 2579   2.782   0.800   0.726 -1.1250  0.0681  0.8852
  645SOL     MW 2580   2.839   0.856   0.692 -0.3532 -0.6380  0.1843
  646SOL     OW 2581   0.186   2.293   0.777  0.2889  0.0533 -0.1385
  646SOL    HW1 2582   0.225   2.197   0.787 -0.5599 -3.9976  0.7939
  646SOL    HW2 2583   0.104   2.297   0.720  1.0635  1.3874  0.4885
  646SOL     MW 2584   0.180   2.281   0.771  0.2791 -0.3051  0.0673
  647SOL     OW 2585   2.722   0.498   2.965 -0.2499  0.3278  0.2018
  647SOL    HW1 2586   2.670   0.426   3.006  0.6087  0.0477 -0.2679
  647SOL    HW2 2587   2.669   0.583   2.980  0.1724 -2.0092  1.8766
  647SOL     MW 2588   2.708   0.500   2.973 -0.0809 -0.0175  0.3608
  648SOL     OW 2589   2.143   0.732   1.115  0.1875 -0.4424 -0.2248
  648SOL    HW1 2590   2.151   0.757   1.025 -1.6252 -3.7128 -1.6637
  648SOL    HW2 2591   2.180   0.801   1.169  0.7463  2.6015 -1.7095
  648SOL     MW 2592   2.149   0.744   1.110  0.0220 -0.4723 -0.6105
  649SOL     OW 2593   2.339   2.761   1.296 -0.2968 -0.2245 -0.2258
  649SOL    HW1 2594   2.416   2.823   1.291  0.1263 -1.5349  1.4794
  649SOL    HW2 2595   2.360   2.678   1.248  1.6249 -0.3916  1.3422
  649SOL     MW 2596   2.352   2.759   1.289  0.0126 -0.4195  0.2061
  650SOL     OW 2597   2.817   0.169   0.674  0.1297 -0.2042 -0.2329
  650SOL    HW1 2598   2.890   0.219   0.714 -1.2646  2.3356 -0.6987
  650SOL    HW2 2599   2.844   0.181   0.582 -2.9212  0.6743  0.0304
  650SOL     MW 2600   2.830   0.178   0.667 -0.4568  0.2468 -0.2596
  651SOL     OW 2601   3.005   0.431   0.759 -0.1807 -0.0815 -0.4160
  651SOL    HW1 2602   3.087   0.477   0.765 -0.4533 -2.8682  1.0307
  651SOL    HW2 2603   2.959   0.479   0.827  0.2852  1.0589  0.5815
  651SOL     MW 2604   3.010   0.443   0.769 -0.1552 -0.2987 -0.0935
  652SOL     OW 2605   2.408   1.477   3.024 -0.2846  0.6433 -0.0744
  652SOL    HW1 2606   2.468   1.458   2.957 -0.3253 -1.4622  1.0814
  652SOL    HW2 2607   2.356   1.544   2.984 -0.8096 -2.0616  0.2171
  652SOL     MW 2608   2.409   1.483   3.010 -0.3593  0.0086  0.1166
  653SOL     OW 2609   1.937   0.451   0.356 -0.4254 -0.0279 -0.0675
  653SOL    HW1 2610   1.910   0.415   0.274  1.7917  0.9355  0.6108
  653SOL    HW2 2611   2.029   0.451   0.349  0.7548 -1.9218  3.2761
  653SOL     MW 2612   1.945   0.446   0.344  0.0229 -0.1507  0.4631
  654SOL     OW 2613   2.454   1.063   0.723  0.2082  0.0692  0.4334
  654SOL    HW1 2614   2.374   1.041   0.676 -1.4340  0.7683  2.4820
  654SOL    HW2 2615   2.500   0.975   0.727  0.6256 -0.4408 -2.5296
  654SOL     MW 2616   2.450   1.048   0.717  0.0466  0.0941  0.3128
  655SOL     OW 2617   2.966   0.900   0.389 -0.5116 -0.5873 -0.0592
  655SOL    HW1 2618   2.941   0.945   0.469 -2.1876  0.8359 -1.1192
  655SOL    HW2 2619   2.992   0.808   0.411  1.0788  0.5255 -0.8702
  655SOL     MW 2620   2.966   0.894   0.402 -0.5229 -0.2527 -0.3061
  656SOL     OW 2621   1.951   2.711   1.234 -0.1689  0.8846  0.5282
  656SOL    HW1 2622   1.922   2.795   1.260 -0.7058 -0.5155  1.6732
  656SOL    HW2 2623   1.999   2.674   1.305  1.5669 -0.6436 -1.1900
  656SOL     MW 2624   1.954   2.717   1.247 -0.0107  0.4983  0.4526
  657SOL     OW 2625   0.166   1.602   1.288 -0.1060  0.4018  0.3782
  657SOL    HW1 2626   0.072   1.596   1.275 -1.5801  0.5766 -0.3163
  657SOL    HW2 2627   0.194   1.510   1.272  0.9927  0.9420  1.3017
  657SOL     MW 2628   0.157   1.589   1.284 -0.1555  0.4961  0.4084
  658SOL     OW 2629   2.697   1.325   0.185 -0.0531 -0.5680  0.0190
  658SOL    HW1 2630   2.653   1.279   0.258  2.4299  0.1320  1.3691
  658SOL    HW2 2631   2.755   1.381   0.238 -2.2637  0.7340  1.2374
  658SOL     MW 2632   2.699   1.326   0.202 -0.0172 -0.3038  0.3579
  659SOL     OW 2633   2.307   1.519   1.036 -0.1680 -0.4399  0.5734
  659SOL    HW1 2634   2.392   1.524   1.068 -1.8303 -1.0365 -2.7384
  659SOL    HW2 2635   2.256   1.541   1.111 -0.2794  2.7888 -2.1017
  659SOL     MW 2636   2.311   1.522   1.050 -0.4020 -0.0926 -0.2165
  660SOL     OW 2637   2.030   1.586   1.687  0.0683  0.2746  0.1585
  660SOL    HW1 2638   2.015   1.605   1.779  2.0957 -0.9772 -2.4113
  660SOL    HW2 2639   1.972   1.514   1.660  0.4911  0.3199  1.5530
  660SOL     MW 2640   2.020   1.579   1.696  0.3916  0.1154  0.0035
  661SOL     OW 2641   2.362   1.017   0.210 -0.0416 -0.2739 -0.6051
  661SOL    HW1 2642   2.439   1.057   0.264  1.6279  0.8231 -0.8881
  661SOL    HW2 2643   2.362   0.925   0.243 -0.2092  1.1031 -0.1667
  661SOL     MW 2644   2.372   1.010   0.222  0.1566  0.0525 -0.5846
  662SOL     OW 2645   2.536   2.949   0.883  0.9639  1.3489  0.0137
  662SOL    HW1 2646   2.481   3.020   0.912  0.5065 -1.1168 -1.4516
  662SOL    HW2 2647   2.575   2.977   0.799 -0.3688  0.0238 -1.8110
  662SOL     MW 2648   2.534   2.962   0.875  0.7277  0.8488 -0.4204
  663SOL     OW 2649   2.830   1.487   0.352 -0.5292  0.1364  0.3124
  663SOL    HW1 2650   2.772   1.551   0.391 -0.6360 -2.1733 -0.7127
  663SOL    HW2 2651   2.894   1.468   0.414  0.7220  3.0988 -0.3558
  663SOL     MW 2652   2.830   1.493   0.366 -0.3782  0.2225  0.0890
  664SOL     OW 2653   2.471   1.510   1.597 -0.1498 -0.8897  0.3000
  664SOL    HW1 2654   2.464   1.608   1.572  0.8798 -2.3012 -1.5501
  664SOL    HW2 2655   2.379   1.476   1.604 -0.9357  0.4592  2.1137
  664SOL     MW 2656   2.458   1.518   1.595 -0.1177 -0.8980  0.2952
  665SOL     OW 2657   2.881   0.841   2.029  0.3511 -0.1381 -0.3552
  665SOL    HW1 2658   2.846   0.893   1.950 -0.0700  1.5466  0.6768
  665SOL    HW2 2659   2.937   0.764   2.012  3.3873 -1.4519  0.4507
  665SOL     MW 2660   2.884   0.837   2.016  0.6961 -0.0892 -0.1127
  666SOL     OW 2661   2.746   3.017   1.659  0.6909  0.1854 -0.1901
  666SOL    HW1 2662   2.752   3.021   1.559 -0.4270 -2.7923 -1.9059
  666SOL    HW2 2663   2.695   2.942   1.688 -1.2357  0.1903 -1.4843
  666SOL     MW 2664   2.740   3.007   1.650  0.2892 -0.2068 -0.5872
  667SOL     OW 2665   1.985   2.660   1.670  0.2304 -0.3218  0.3477
  667SOL    HW1 2666   2.008   2.582   1.716  1.9129  0.4438 -0.4702
  667SOL    HW2 2667   2.060   2.720   1.693  1.9370 -1.4935  1.6598
  667SOL     MW 2668   1.998   2.658   1.679  0.6776 -0.3754  0.4129
  668SOL     OW 2669   2.731   0.647   0.804  0.1540  0.5325  0.3180
  668SOL    HW1 2670   2.796   0.650   0.882  1.2109  0.0462  1.1675
  668SOL    HW2 2671   2.656   0.692   0.839  1.2483 -1.1343 -0.2241
  668SOL     MW 2672   2.730   0.653   0.819  0.4378  0.2484  0.3586
  669SOL     OW 2673   0.207   0.943   0.655  0.6862 -0.0243 -0.0698
  669SOL    HW1 2674   0.160   0.986   0.720  1.3895  0.3252  2.1280
  669SOL    HW2 2675   0.300   0.941   0.687  1.5124  0.6990  3.0906
  669SOL     MW 2676   0.213   0.949   0.668  0.8880  0.1173  0.6372
  670SOL     OW 2677   2.883   0.302   0.204 -0.2551 -0.3736  0.2556
  670SOL    HW1 2678   2.880   0.221   0.146 -0.4669 -0.0725  1.3645
  670SOL    HW2 2679   2.882   0.387   0.159 -0.8883 -1.2787 -0.1580
  670SOL     MW 2680   2.882   0.303   0.191 -0.3666 -0.4533  0.3473
  671SOL     OW 2681   2.105   2.974   1.530 -0.3067 -0.3893 -0.1268
  671SOL    HW1 2682   2.077   2.987   1.434 -3.3117 -3.2853 -1.1269
  671SOL    HW2 2683   2.045   3.027   1.582 -0.7859  0.2430  1.9675
  671SOL     MW 2684   2.093   2.983   1.524 -0.7664 -0.6880  0.0175
  672SOL     OW 2685   1.863   1.708   1.314  0.3082  0.1076  0.3903
  672SOL    HW1 2686   1.792   1.753   1.357  1.0896  0.2237  1.3361
  672SOL    HW2 2687   1.893   1.774   1.245  1.8828 -0.2971 -0.7312
  672SOL     MW 2688   1.857   1.722   1.311  0.6191  0.0695  0.3671
  673SOL     OW 2689   2.769   1.098   0.541 -0.4656  0.3344  0.5606
  673SOL    HW1 2690   2.780   1.014   0.587  1.5224 -2.1205 -2.1683
  673SOL    HW2 2691   2.836   1.153   0.579 -0.3920 -1.4484  0.0059
  673SOL     MW 2692   2.779   1.094   0.552 -0.1936 -0.2247  0.1273
  674SOL     OW 2693   2.520   0.074   1.223  0.2415  0.0765  0.0979
  674SOL    HW1 2694   2.471   0.079   1.137 -2.4866 -0.8338 -0.4148
  674SOL    HW2 2695   2.507  -0.017   1.244  0.7462  1.4865 -0.2378
  674SOL     MW 2696   2.512   0.062   1.215 -0.0518  0.1425 -0.0140
  675SOL     OW 2697   3.026   0.894   1.087  0.2752 -0.5679 -0.5324
  675SOL    HW1 2698   3.089   0.906   1.161 -0.5066 -1.1530  1.3527
  675SOL    HW2 2699   3.056   0.967   1.031 -0.0846 -0.8149 -0.9463
  675SOL     MW 2700   3.038   0.905   1.089  0.1246 -0.6777 -0.3383
  676SOL     OW 2701   2.859   1.477   1.660  0.4521 -0.0587 -0.2476
  676SOL    HW1 2702   2.809   1.389   1.647 -1.4019  1.4408 -0.4754
  676SOL    HW2 2703   2.937   1.453   1.710 -0.1018  1.6074 -1.3805
  676SOL     MW 2704   2.863   1.462   1.665  0.1344  0.3590 -0.4272
  677SOL     OW 2705   2.413   0.684   1.965 -0.4624 -0.3149  0.4722
  677SOL    HW1 2706   2.389   0.597   1.938 -1.9616 -2.5731 -1.0440
  677SOL    HW2 2707   2.347   0.728   2.021  1.5644 -0.9896  0.1410
  677SOL     MW 2708   2.401   0.678   1.969 -0.3928 -0.7018  0.2284
  678SOL     OW 2709   2.549   1.624   0.425  0.0634  0.4001  0.0487
  678SOL    HW1 2710   2.464   1.681   0.436  0.1869  2.8051  0.6267
  678SOL    HW2 2711   2.550   1.613   0.327 -0.9720  2.2347 -3.0293
  678SOL     MW 2712   2.538   1.630   0.413 -0.0569  0.9594 -0.2811
  679SOL     OW 2713   2.301   0.536   1.196 -0.3908  0.1383 -0.2513
  679SOL    HW1 2714   2.262   0.456   1.159  0.0702  0.5894  2.9886
  679SOL    HW2 2715   2.236   0.601   1.172 -2.1650 -1.5090  0.5229
  679SOL     MW 2716   2.287   0.534   1.188 -0.5641 -0.0195  0.2783
  680SOL     OW 2717   2.367   0.227   1.434  0.0610 -0.9172  0.2459
  680SOL    HW1 2718   2.261   0.233   1.436 -3.4199  2.2030  3.2710
  680SOL    HW2 2719   2.390   0.161   1.370 -1.7018 -0.2368 -0.1608
  680SOL     MW 2720   2.356   0.219   1.426 -0.6309 -0.4157  0.5914
  681SOL     OW 2721   0.344   0.593   1.550 -0.2079 -0.2706 -0.0740
  681SOL    HW1 2722   0.310   0.520   1.610  0.0402  0.3357  2.1595
  681SOL    HW2 2723   0.431   0.563   1.519 -0.8417  0.1403 -0.4097
  681SOL     MW 2724   0.351   0.579   1.554 -0.2588 -0.1364  0.1764
  682SOL     OW 2725   0.129   2.940   1.463 -0.4250 -0.5071  0.0313
  682SOL    HW1 2726   0.115   3.026   1.434 -0.4484  2.1411 -0.0314
  682SOL    HW2 2727   0.086   2.918   1.548  0.1330 -1.1027  1.8690
  682SOL     MW 2728   0.122   2.948   1.470 -0.3545 -0.2363  0.2655
  683SOL     OW 2729   2.044   0.860   3.023 -0.0974  0.2498 -0.3823
  683SOL    HW1 2730   1.996   0.841   2.941 -0.6355 -0.6228  0.4625
  683SOL    HW2 2731   2.018   0.948   3.040 -1.1596 -0.8136 -0.0028
  683SOL     MW 2732   2.035   0.869   3.015 -0.3086 -0.0057 -0.2207
  684SOL     OW 2733   2.183   1.743   0.936  0.1776 -0.1641  0.0276
  684SOL    HW1 2734   2.090   1.729   0.937  1.1685  0.9247 -1.3131
  684SOL    HW2 2735   2.224   1.658   0.975  1.3039  2.1450  3.1973
  684SOL     MW 2736   2.176   1.730   0.941  0.4569  0.2842  0.2689
  685SOL     OW 2737   2.663   1.755   1.231  0.3277  0.2300 -0.1008
  685SOL    HW1 2738   2.745   1.725   1.274  0.2640 -0.2793  2.8840
  685SOL    HW2 2739   2.639   1.674   1.180  2.1348 -2.2052  0.3781
  685SOL     MW 2740   2.671   1.740   1.230  0.5577 -0.1585  0.3562
  686SOL     OW 2741   2.902   0.725   1.491  0.3789  0.3102  0.8793
  686SOL    HW1 2742   2.894   0.643   1.546  1.6099  0.8386 -0.1609
  686SOL    HW2 2743   2.984   0.714   1.453 -2.8021 -0.6488  0.2020
  686SOL     MW 2744   2.912   0.712   1.493  0.1216  0.2534  0.6527
  687SOL     OW 2745   2.090   0.302   1.150 -0.8546  0.2602 -0.4498
  687SOL    HW1 2746   2.068   0.244   1.077 -0.2760  1.6561 -0.0458
  687SOL    HW2 2747   2.015   0.352   1.170  0.5631  1.6289 -2.2542
  687SOL     MW 2748   2.077   0.301   1.143 -0.5912  0.6249 -0.6346
  688SOL     OW 2749   2.366   0.632   1.432 -0.1987  0.0490 -0.3672
  688SOL    HW1 2750   2.347   0.586   1.348 -0.2535 -2.2341 -0.4361
  688SOL    HW2 2751   2.282   0.614   1.481 -0.3126 -1.0228  0.1479
  688SOL     MW 2752   2.352   0.624   1.427 -0.2210 -0.3936 -0.3084
  689SOL     OW 2753   2.544   0.720   3.004 -0.2678 -0.2674 -0.4666
  689SOL    HW1 2754   2.555   0.816   2.995  1.3761  0.2447  1.6007
  689SOL    HW2 2755   2.579   0.709   3.093  0.7370 -2.6284  0.9358
  689SOL     MW 2756   2.550   0.731   3.014  0.0817 -0.5113 -0.0088
  690SOL     OW 2757   2.110   0.926   1.900 -0.4552  0.3096 -0.1562
  690SOL    HW1 2758   2.032   0.870   1.899  0.8477 -0.0401  0.1522
  690SOL    HW2 2759   2.137   0.928   1.809  0.1630 -1.4083  0.5429
  690SOL     MW 2760   2.103   0.919   1.888 -0.2017  0.0368 -0.0233
  691SOL     OW 2761   2.474   0.264   0.807  0.1803 -0.1397 -0.4033
  691SOL    HW1 2762   2.559   0.298   0.839 -1.0780 -0.4512 -0.0351
  691SOL    HW2 2763   2.406   0.340   0.817 -0.1778  1.9823 -1.1726
  691SOL     MW 2764   2.476   0.279   0.813 -0.0329  0.0992 -0.4562
  692SOL     OW 2765   2.833   1.629   1.423  0.0038 -0.5537 -0.1157
  692SOL    HW1 2766   2.810   1.576   1.492  3.0104  2.4990 -2.6763
  692SOL    HW2 2767   2.839   1.713   1.474  1.4772  0.6898  1.6676
  692SOL     MW 2768   2.831   1.633   1.439  0.5949  0.0131 -0.2183
  693SOL     OW 2769   2.333   0.449   0.125  0.2877  0.5960 -0.1515
  693SOL    HW1 2770   2.255   0.401   0.097  1.5033  0.7993 -2.2435
  693SOL    HW2 2771   2.331   0.531   0.087 -0.4791  0.1204  2.6606
  693SOL     MW 2772   2.322   0.454   0.116  0.3469  0.5600 -0.0565
  694SOL     OW 2773   1.907   1.251   1.099 -0.0555 -0.7057  0.4653
  694SOL    HW1 2774   1.988   1.217   1.138 -1.3520 -0.5572 -0.7485
  694SOL    HW2 2775   1.838   1.190   1.126  1.8674 -1.4785 -1.5289
  694SOL     MW 2776   1.909   1.238   1.108  0.0272 -0.7881  0.0420
  695SOL     OW 2777   2.994   1.454   1.327  0.4635  0.5825  0.3492
  695SOL    HW1 2778   2.982   1.447   1.233 -0.2570 -0.6811 -0.7178
  695SOL    HW2 2779   2.929   1.517   1.368  1.3056 -2.2884  0.3658
  695SOL     MW 2780   2.984   1.461   1.320  0.4795  0.0370  0.2106
  696SOL     OW 2781   2.099   1.383   0.890  0.2298  0.0507 -0.0847
  696SOL    HW1 2782   2.184   1.417   0.927 -1.0902 -0.7178 -1.0141
  696SOL    HW2 2783   2.049   1.371   0.971  0.8427 -0.7690  0.5098
  696SOL     MW 2784   2.103   1.386   0.905  0.1365 -0.1588 -0.1289
  697SOL     OW 2785   2.915   1.102   2.139  0.1420  0.2113  0.3532
  697SOL    HW1 2786   2.827   1.106   2.186 -0.1791 -0.5710 -0.0993
  697SOL    HW2 2787   2.915   1.011   2.097 -0.0422 -1.9097 -0.9429
  697SOL     MW 2788   2.904   1.090   2.139  0.0754 -0.1718  0.1225
  698SOL     OW 2789   2.563   0.328   0.023 -0.0235 -0.0821  0.5400
  698SOL    HW1 2790   2.492   0.374   0.071 -1.0918  3.3798  0.4364
  698SOL    HW2 2791   2.626   0.301   0.091 -3.1115  4.0442 -0.7063
  698SOL     MW 2792   2.562   0.331   0.038 -0.5718  0.9191  0.3619
  699SOL     OW 2793   1.845   1.676   2.043  0.1619  0.1594 -0.5463
  699SOL    HW1 2794   1.820   1.580   2.060  2.2325 -1.1810  0.0431
  699SOL    HW2 2795   1.941   1.670   2.014  0.6253 -3.0080 -0.5572
  699SOL     MW 2796   1.854   1.663   2.042  0.4963 -0.4354 -0.4700
  700SOL     OW 2797   2.720   0.921   1.559 -0.1531 -0.1019 -0.7503
  700SOL    HW1 2798   2.718   0.993   1.494  3.4965 -1.9063  0.9428
  700SOL    HW2 2799   2.795   0.876   1.518 -0.9564  2.2925  1.5720
  700SOL     MW 2800   2.730   0.925   1.545  0.2225 -0.0241 -0.2205
  701SOL     OW 2801   1.609   1.275   2.521 -0.3768 -0.1369  0.1898
  701SOL    HW1 2802   1.697   1.242   2.522 -0.4694  0.6825  0.6442
  701SOL    HW2 2803   1.599   1.338   2.589 -2.1333 -0.3094 -2.5170
  701SOL     MW 2804   1.619   1.279   2.530 -0.6208 -0.0516 -0.1074
  702SOL     OW 2805   2.197   0.394   0.863  0.0671 -0.0235  0.2657
  702SOL    HW1 2806   2.201   0.316   0.804  0.9276  0.2260 -2.3179
  702SOL    HW2 2807   2.245   0.457   0.811  2.6690 -0.2686  1.6051
  702SOL     MW 2808   2.204   0.392   0.849  0.5239 -0.0229  0.1015
  703SOL     OW 2809   2.721   1.279   1.039  0.7825  0.0445 -0.0501
  703SOL    HW1 2810   2.676   1.282   0.950  0.6221 -0.0654  0.8931
  703SOL    HW2 2811   2.746   1.187   1.066  0.2964  0.3434 -0.5183
  703SOL     MW 2812   2.719   1.267   1.031  0.6972  0.0694  0.0125
  704SOL     OW 2813   3.084   1.320   0.262  0.2996 -0.0145 -0.2966
  704SOL    HW1 2814   3.023   1.264   0.219  0.3251 -0.3779  0.8204
  704SOL    HW2 2815   3.090   1.275   0.352 -1.9876 -2.3039  3.5876
  704SOL     MW 2816   3.077   1.307   0.268  0.0012 -0.3645  0.3633
  705SOL     OW 2817   2.221   1.633   1.297  0.7264 -0.1565  0.6441
  705SOL    HW1 2818   2.126   1.640   1.268 -4.6705 -0.7343 -4.6225
  705SOL    HW2 2819   2.228   1.550   1.337  0.5959  2.6225 -0.5664
  705SOL     MW 2820   2.209   1.623   1.298 -0.0029  0.1339 -0.2105
  706SOL     OW 2821   2.966   1.228   0.688  0.1275  0.1509 -0.1519
  706SOL    HW1 2822   3.039   1.224   0.622  2.0261 -0.9064 -3.1218
  706SOL    HW2 2823   2.942   1.321   0.693  1.4787  0.4534 -0.8029
  706SOL     MW 2824   2.972   1.240   0.680  0.5563  0.0513 -0.6297
  707SOL     OW 2825   2.384   0.056   0.961  0.4277 -0.3489 -0.0624
  707SOL    HW1 2826   2.409   0.130   0.898  0.2098  1.3880 -1.9146
  707SOL    HW2 2827   2.290   0.065   0.982  0.2392 -2.0479 -1.8192
  707SOL     MW 2828   2.375   0.067   0.955  0.3741 -0.3439 -0.5386
  708SOL     OW 2829   2.567   1.569   0.138  0.2710 -0.0085  0.1257
  708SOL    HW1 2830   2.615   1.487   0.135  1.6614  1.1582  0.3905
  708SOL    HW2 2831   2.501   1.545   0.070 -0.2874 -1.3367 -1.1929
  708SOL     MW 2832   2.565   1.555   0.129  0.3808 -0.0298 -0.0133
  709SOL     OW 2833   1.729   1.723   0.160  0.2042 -0.1173 -0.1365
  709SOL    HW1 2834   1.692   1.748   0.080 -0.0441 -1.4229 -1.2853
  709SOL    HW2 2835   1.653   1.701   0.211 -0.5147  1.5893  2.0927
  709SOL     MW 2836   1.714   1.724   0.156  0.0766 -0.0644  0.0061
  710SOL     OW 2837   2.169   1.169   1.175  0.2961 -0.0736 -0.8074
  710SOL    HW1 2838   2.231   1.144   1.104 -1.7237  0.6652 -0.2082
  710SOL    HW2 2839   2.181   1.092   1.228 -0.1502  0.9952 -0.6781
  710SOL     MW 2840   2.179   1.156   1.173 -0.0292  0.1649 -0.7113
  711SOL     OW 2841   2.336   0.128   1.767 -0.0139  0.1782 -0.3452
  711SOL    HW1 2842   2.434   0.116   1.797  0.5091 -1.3337  0.5939
  711SOL    HW2 2843   2.331   0.113   1.676 -0.5481  0.8134 -0.9578
  711SOL     MW 2844   2.348   0.124   1.759 -0.0154  0.0625 -0.3021
  712SOL     OW 2845   1.857   0.626   3.071  0.5932  0.2630  0.6352
  712SOL    HW1 2846   1.868   0.703   3.020 -0.3384  0.2012 -1.7307
  712SOL    HW2 2847   1.861   0.654   3.157  3.0116 -1.4794 -1.8389
  712SOL     MW 2848   1.859   0.640   3.075  0.7894  0.0250 -0.0034
  713SOL     OW 2849   2.575   0.815   1.085 -0.6412 -0.6414  0.0883
  713SOL    HW1 2850   2.581   0.718   1.083 -0.0734  1.4598  2.2435
  713SOL    HW2 2851   2.581   0.825   1.182  1.4415  0.4831  0.9129
  713SOL     MW 2852   2.576   0.803   1.098 -0.2915 -0.2158  0.4815
  714SOL     OW 2853   2.166   0.221   1.964  0.0872 -0.0100  0.3150
  714SOL    HW1 2854   2.217   0.212   2.047 -0.6105  1.9492 -0.9631
  714SOL    HW2 2855   2.225   0.199   1.896 -2.3373 -1.9448  1.2471
  714SOL     MW 2856   2.181   0.217   1.966 -0.3248 -0.0068  0.2694
  715SOL     OW 2857   1.722   1.903   1.719  0.2492  0.0197 -0.9597
  715SOL    HW1 2858   1.808   1.895   1.684 -0.7577  1.5973  1.6671
  715SOL    HW2 2859   1.704   1.811   1.751 -3.0748 -1.1733  1.7012
  715SOL     MW 2860   1.731   1.890   1.718 -0.3222  0.0704 -0.2620
  716SOL     OW 2861   2.377   0.567   0.741 -0.0039 -0.0862  0.5708
  716SOL    HW1 2862   2.429   0.512   0.686 -1.8599  0.1857  1.0067
  716SOL    HW2 2863   2.334   0.623   0.674 -0.6101  0.8130  0.0375
  716SOL     MW 2864   2.378   0.567   0.725 -0.3288  0.0683  0.5580
  717SOL     OW 2865   2.863   1.422   2.905  0.0672  0.4380  0.0353
  717SOL    HW1 2866   2.961   1.446   2.910 -0.6789  0.6621  1.0928
  717SOL    HW2 2867   2.824   1.485   2.976 -1.1192  1.7189  0.1993
  717SOL     MW 2868   2.870   1.434   2.915 -0.1878  0.6365  0.1965
  718SOL     OW 2869   2.507   1.366   1.369  0.2794  0.4718  0.0055
  718SOL    HW1 2870   2.502   1.413   1.457  1.7870 -0.5062 -1.6978
  718SOL    HW2 2871   2.581   1.308   1.378 -0.9954 -1.6917 -2.6044
  718SOL     MW 2872   2.516   1.365   1.382  0.3101  0.0573 -0.5636
  719SOL     OW 2873   2.192   1.347   0.584  0.5556 -0.1082  0.5289
  719SOL    HW1 2874   2.274   1.365   0.542  0.7579 -0.9324  0.7318
  719SOL    HW2 2875   2.197   1.369   0.678  3.0005 -0.0192  0.3178
  719SOL     MW 2876   2.203   1.352   0.591  0.9049 -0.2052  0.5278
  720SOL     OW 2877   2.902   1.171   0.128  0.4211 -0.2330 -0.5044
  720SOL    HW1 2878   2.876   1.079   0.148  1.9725  0.7507 -1.6556
  720SOL    HW2 2879   2.814   1.225   0.152 -1.2690 -3.8184 -1.3483
  720SOL     MW 2880   2.887   1.166   0.134  0.4028 -0.5763 -0.7677
  721SOL     OW 2881   2.515   0.861   1.360 -0.1702  0.8411 -0.4281
  721SOL    HW1 2882   2.480   0.789   1.409  5.0687  1.0846 -0.1226
  721SOL    HW2 2883   2.535   0.916   1.431 -1.0816  0.0156  1.5737
  721SOL     MW 2884   2.513   0.859   1.376  0.4007  0.7643 -0.1236
  722SOL     OW 2885   2.562   1.148   0.367  0.2045 -0.3180  0.2604
  722SOL    HW1 2886   2.531   1.221   0.427 -1.3578 -2.6889  0.8330
  722SOL    HW2 2887   2.638   1.114   0.419  2.5754 -2.7729  2.8104
  722SOL     MW 2888   2.568   1.153   0.382  0.3112 -0.9547  0.6724
  723SOL     OW 2889   2.241   1.394   1.643  0.4176  0.4407 -0.1929
  723SOL    HW1 2890   2.231   1.357   1.558  0.0043  0.3516  1.1637
  723SOL    HW2 2891   2.159   1.429   1.673  0.2873  2.2094 -1.6992
  723SOL     MW 2892   2.229   1.394   1.636  0.3459  0.6623 -0.2127
  724SOL     OW 2893   2.514   0.406   0.560  0.6078  0.5681  0.3108
  724SOL    HW1 2894   2.512   0.338   0.633 -1.1778 -0.3110  0.3582
  724SOL    HW2 2895   2.607   0.427   0.536  1.2749 -0.2101 -0.0812
  724SOL     MW 2896   2.526   0.400   0.567  0.4602  0.3494  0.2654
  725SOL     OW 2897   2.571   0.535   1.138 -0.1434  0.0817 -0.1865
  725SOL    HW1 2898   2.612   0.535   1.229  0.5748  3.1940  4.9086
  725SOL    HW2 2899   2.482   0.515   1.167  1.6798  0.3409  2.7272
  725SOL     MW 2900   2.565   0.532   1.154  0.1919  0.5265  0.8702
  726SOL     OW 2901   2.595   2.434   0.550 -0.3511  0.4135  0.3829
  726SOL    HW1 2902   2.517   2.478   0.530 -0.0314 -0.6407 -1.0173
  726SOL    HW2 2903   2.564   2.359   0.597  1.2927  1.1614 -1.2665
  726SOL     MW 2904   2.580   2.430   0.553 -0.0920  0.3731 -0.0195
  727SOL     OW 2905   2.926   0.259   1.574  0.2939 -0.0990 -0.1018
  727SOL    HW1 2906   2.899   0.299   1.488 -0.8540 -0.6182  1.0462
  727SOL    HW2 2907   2.888   0.172   1.568  2.3900 -0.2172 -1.2528
  727SOL     MW 2908   2.917   0.252   1.562  0.4190 -0.1831 -0.1022
  728SOL     OW 2909   2.814   1.166   2.981  0.3252 -0.5239  0.3685
  728SOL    HW1 2910   2.843   1.254   2.948 -4.8160  1.7121 -2.5484
  728SOL    HW2 2911   2.837   1.165   3.078 -0.3377 -0.4171 -1.0572
  728SOL     MW 2912   2.821   1.178   2.990 -0.4406 -0.2148 -0.2045
  729SOL     OW 2913   2.562   1.518   1.132 -0.2847  0.1685 -0.6997
  729SOL    HW1 2914   2.581   1.470   1.210 -0.9004  1.3370 -2.5593
  729SOL    HW2 2915   2.591   1.462   1.056  1.9502  0.7870  2.1954
  729SOL     MW 2916   2.568   1.504   1.132 -0.0711  0.4042 -0.5631
  730SOL     OW 2917   2.113   1.120   0.286  0.2161 -0.1162 -0.4921
  730SOL    HW1 2918   2.204   1.093   0.280 -0.6012  0.5618  0.8487
  730SOL    HW2 2919   2.121   1.215   0.294 -2.4060  1.5082  0.6516
  730SOL     MW 2920   2.126   1.129   0.286 -0.2377  0.1876 -0.1643
  731SOL     OW 2921   2.807   1.856   2.870  0.2605  0.2541 -0.3167
  731SOL    HW1 2922   2.771   1.896   2.787 -0.0494 -0.7200  2.4909
  731SOL    HW2 2923   2.863   1.930   2.890 -1.6646  1.0071 -0.6336
  731SOL     MW 2924   2.810   1.871   2.862 -0.0344  0.2249  0.0119
  732SOL     OW 2925   2.231   0.902   1.310  0.2953 -0.2308  0.7814
  732SOL    HW1 2926   2.212   0.854   1.389  0.5919  1.0805  0.5235
  732SOL    HW2 2927   2.326   0.905   1.295 -2.2917  2.1123 -0.6529
  732SOL     MW 2928   2.241   0.896   1.319 -0.0069  0.2514  0.5581
  733SOL     OW 2929   2.374   2.820   3.033  0.2526  0.0960 -0.5178
  733SOL    HW1 2930   2.282   2.849   3.019 -1.6203 -1.9404 -0.6732
  733SOL    HW2 2931   2.382   2.728   3.039  2.4008  1.8929  0.8226
  733SOL     MW 2932   2.363   2.812   3.032  0.2890  0.0644 -0.3614
  734SOL     OW 2933   1.501   0.358   2.468  0.1865 -0.2875 -0.4147
  734SOL    HW1 2934   1.467   0.317   2.552 -0.4418 -0.2221  1.3309
  734SOL    HW2 2935   1.515   0.282   2.402 -0.3922  0.5662  0.2350
  734SOL     MW 2936   1.498   0.342   2.470  0.0273 -0.1663 -0.0986
  735SOL     OW 2937   2.995   0.933   2.579 -0.5450 -0.3689 -0.4992
  735SOL    HW1 2938   2.959   0.846   2.600 -1.9951  1.4397  2.4512
  735SOL    HW2 2939   2.993   0.975   2.668  1.4205 -0.6683 -0.3419
  735SOL     MW 2940   2.990   0.927   2.594 -0.4770 -0.1698 -0.0892
  736SOL     OW 2941   0.079   0.605   2.554  0.4011  0.2981  0.1814
  736SOL    HW1 2942   0.139   0.673   2.519  0.0841  1.5233 -2.1957
  736SOL    HW2 2943   0.056   0.552   2.475  1.0162 -1.2613  0.7442
  736SOL     MW 2944   0.084   0.607   2.539  0.4404  0.2540 -0.0580
  737SOL     OW 2945   2.918   0.686   2.624 -0.2681 -0.6323 -0.2087
  737SOL    HW1 2946   2.851   0.673   2.553 -0.5565  0.7851  1.3807
  737SOL    HW2 2947   3.003   0.663   2.585 -1.6013 -2.0323  0.3065
  737SOL     MW 2948   2.921   0.681   2.610 -0.4820 -0.6300  0.0689
  738SOL     OW 2949   0.171   0.532   1.958  0.7261 -0.3822 -0.2156
  738SOL    HW1 2950   0.264   0.551   1.960  0.4096  4.2939 -0.3841
  738SOL    HW2 2951   0.166   0.452   1.901 -3.6255  0.7889  1.1042
  738SOL     MW 2952   0.182   0.524   1.951  0.1102  0.3893 -0.0637
  739SOL     OW 2953   2.516   0.987   2.161 -0.5054  0.5592 -0.2700
  739SOL    HW1 2954   2.431   0.943   2.165  0.4396  1.9184 -1.2840
  739SOL    HW2 2955   2.518   1.024   2.072 -0.1044 -2.1311 -0.2661
  739SOL     MW 2956   2.505   0.986   2.150 -0.3278  0.3836 -0.4033
  740SOL     OW 2957   0.136   1.775   2.961  0.2625 -0.0282  0.3941
  740SOL    HW1 2958   0.092   1.694   2.980 -1.9264  0.1604 -0.9758
  740SOL    HW2 2959   0.233   1.762   2.982  1.1729  1.6199 -1.6412
  740SOL     MW 2960   0.143   1.762   2.966  0.0938  0.2141 -0.0552
  741SOL     OW 2961   2.236   1.244   2.680  0.0018  0.7902 -0.0915
  741SOL    HW1 2962   2.206   1.326   2.637  4.2396 -1.2991 -2.0677
  741SOL    HW2 2963   2.204   1.244   2.770 -1.6675 -0.3290 -1.0347
  741SOL     MW 2964   2.228   1.255   2.686  0.3407  0.3669 -0.4767
  742SOL     OW 2965   1.621   1.365   2.264 -0.8644 -0.4597 -0.6964
  742SOL    HW1 2966   1.578   1.284   2.234 -0.9144 -0.9140  0.4384
  742SOL    HW2 2967   1.619   1.355   2.358  2.6916 -2.8471  0.6381
  742SOL     MW 2968   1.615   1.353   2.273 -0.4018 -0.8346 -0.3706
  743SOL     OW 2969   2.518   1.233   2.730 -0.1196 -0.4069  0.2574
  743SOL    HW1 2970   2.429   1.227   2.706  3.3454  1.2731 -0.5571
  743SOL    HW2 2971   2.541   1.161   2.778  0.6062 -1.7872  1.2880
  743SOL     MW 2972   2.509   1.223   2.733  0.4334 -0.3674  0.2859
  744SOL     OW 2973   2.787   0.997   1.822 -0.9145  0.1892 -0.4174
  744SOL    HW1 2974   2.715   1.045   1.865 -0.1983 -0.3978 -0.0826
  744SOL    HW2 2975   2.747   0.948   1.748 -0.8465  1.5476 -2.7880
  744SOL     MW 2976   2.772   0.997   1.818 -0.8111  0.2910 -0.6860
  745SOL     OW 2977   1.778   0.426   2.460 -0.5939 -0.5423  0.0524
  745SOL    HW1 2978   1.768   0.439   2.364  2.4781 -1.2579 -1.1589
  745SOL    HW2 2979   1.692   0.384   2.480 -0.5902  1.0145  0.0819
  745SOL     MW 2980   1.765   0.422   2.450 -0.1881 -0.4313 -0.1036
  746SOL     OW 2981   1.503   1.460   1.670 -0.1383 -0.3861  0.0068
  746SOL    HW1 2982   1.572   1.507   1.715  1.1644 -0.6979 -3.0434
  746SOL    HW2 2983   1.499   1.369   1.709  0.0299 -1.2159 -2.7191
  746SOL     MW 2984   1.511   1.454   1.681  0.0557 -0.5367 -0.7553
  747SOL     OW 2985   2.553   1.140   1.909  0.3342  0.4757 -0.0163
  747SOL    HW1 2986   2.475   1.143   1.850  0.0128  1.5454  2.2222
  747SOL    HW2 2987   2.564   1.226   1.950  2.3297 -1.7122  0.8275
  747SOL     MW 2988   2.544   1.151   1.906  0.5551  0.3282  0.3904
  748SOL     OW 2989   0.082   3.048   1.894 -0.0282 -0.1745 -0.5470
  748SOL    HW1 2990   0.166   3.083   1.923 -0.3671  0.9243 -2.1216
  748SOL    HW2 2991   0.022   3.101   1.938  0.4181 -0.0190  0.2924
  748SOL     MW 2992   0.085   3.060   1.904 -0.0140 -0.0090 -0.6440
  749SOL     OW 2993   2.454   0.568   2.776 -0.4378 -0.3681  0.3951
  749SOL    HW1 2994   2.471   0.648   2.721 -1.6714  1.3100 -0.8883
  749SOL    HW2 2995   2.470   0.602   2.858  1.0926 -0.9844  0.2584
  749SOL     MW 2996   2.458   0.583   2.780 -0.3986 -0.2280  0.2077
  750SOL     OW 2997   2.079   3.059   1.940  0.3618  0.1710 -0.1697
  750SOL    HW1 2998   2.125   3.138   1.956 -2.9500 -1.4308 -2.4664
  750SOL    HW2 2999   2.151   2.987   1.962 -0.5391 -1.6585 -1.1512
  750SOL     MW 3000   2.095   3.060   1.945 -0.1940 -0.2817 -0.6022
  751SOL     OW 3001   0.018   0.371   2.401  0.2083  0.0653  0.2592
  751SOL    HW1 3002  -0.070   0.390   2.377  1.7558  3.3305 -1.1696
  751SOL    HW2 3003   0.066   0.324   2.333  0.2227 -0.3081  2.7499
  751SOL     MW 3004   0.013   0.367   2.389  0.4144  0.4468  0.3993
  752SOL     OW 3005   2.134   0.892   2.749  0.2571 -0.1612  0.1974
  752SOL    HW1 3006   2.197   0.951   2.709 -2.3832 -0.7697 -2.2899
  752SOL    HW2 3007   2.155   0.887   2.844  1.3035  0.8914 -1.4928
  752SOL     MW 3008   2.145   0.899   2.756  0.0468 -0.1026 -0.3538
  753SOL     OW 3009   2.864   0.428   2.346  0.1856 -0.1915  0.4216
  753SOL    HW1 3010   2.836   0.338   2.363 -1.2277  0.0566 -0.9865
  753SOL    HW2 3011   2.798   0.485   2.386  0.9848 -2.1068  0.0082
  753SOL     MW 3012   2.852   0.423   2.354  0.1046 -0.4115  0.1813
  754SOL     OW 3013   2.248   3.008   2.598 -0.3424  0.1315  0.1295
  754SOL    HW1 3014   2.284   2.999   2.506  1.0578  0.7506 -0.3493
  754SOL    HW2 3015   2.318   2.970   2.661 -0.2759 -0.5612  1.2691
  754SOL     MW 3016   2.262   3.002   2.594 -0.1489  0.1218  0.2167
  755SOL     OW 3017   2.788   1.588   2.495  0.2844 -0.6063  0.0397
  755SOL    HW1 3018   2.706   1.541   2.512  0.3228 -0.2604  1.0070
  755SOL    HW2 3019   2.818   1.611   2.582  1.6486 -1.3906 -0.7936
  755SOL     MW 3020   2.781   1.585   2.509  0.4694 -0.6642  0.0573
  756SOL     OW 3021   2.255   1.271   2.986 -0.1391 -0.3020 -0.1381
  756SOL    HW1 3022   2.318   1.340   3.014 -0.7168  0.2764  1.9405
  756SOL    HW2 3023   2.282   1.180   2.990  0.4851 -0.0948  0.6049
  756SOL     MW 3024   2.267   1.268   2.990 -0.1329 -0.1983  0.2342
  757SOL     OW 3025   2.185   0.943   1.644 -0.5359  0.3387  0.0591
  757SOL    HW1 3026   2.197   0.847   1.655  0.5924 -0.9479  0.5175
  757SOL    HW2 3027   2.106   0.964   1.597  2.1221  0.0374 -1.8499
  757SOL     MW 3028   2.176   0.933   1.640 -0.0364  0.1292 -0.1323
  758SOL     OW 3029   2.264   1.768   2.636 -0.1243 -0.6738  0.1415
  758SOL    HW1 3030   2.267   1.792   2.541  1.0454 -1.8250  1.8388
  758SOL    HW2 3031   2.357   1.763   2.656  2.1508 -1.1896  1.1976
  758SOL     MW 3032   2.277   1.770   2.626  0.3303 -0.8937  0.5048
  759SOL     OW 3033   1.550   1.420   2.792  0.1045 -0.2908 -0.0084
  759SOL    HW1 3034   1.494   1.497   2.768  0.8812 -3.0179  1.0095
  759SOL    HW2 3035   1.585   1.429   2.879  0.3725  0.3586  1.3323
  759SOL     MW 3036   1.547   1.432   2.800  0.2423 -0.5650  0.3028
  760SOL     OW 3037   2.692   1.987   2.669  0.5463 -0.2629 -0.1323
  760SOL    HW1 3038   2.638   1.910   2.665  1.2920  3.9275  0.2408
  760SOL    HW2 3039   2.765   1.965   2.609  0.2167  2.5687  2.6439
  760SOL     MW 3040   2.695   1.974   2.661  0.6012  0.6636  0.2833
  761SOL     OW 3041   2.158   0.436   2.454 -0.4881 -0.5718  0.5128
  761SOL    HW1 3042   2.095   0.362   2.471 -2.9306 -3.4217 -1.9042
  761SOL    HW2 3043   2.153   0.504   2.530  1.2778 -0.6733 -0.0882
  761SOL     MW 3044   2.149   0.435   2.466 -0.5773 -0.9612  0.1146
  762SOL     OW 3045   0.025   0.157   2.093  0.2990  0.0990 -0.0649
  762SOL    HW1 3046   0.028   0.125   2.184 -0.8384  0.9628 -0.0780
  762SOL    HW2 3047  -0.038   0.230   2.089 -0.3501 -0.5672 -3.5586
  762SOL     MW 3048   0.017   0.163   2.105  0.0633  0.1251 -0.5276
  763SOL     OW 3049   2.449   1.146   2.356 -0.6132 -0.1608 -0.2761
  763SOL    HW1 3050   2.486   1.105   2.275  0.1449 -0.7605  1.6666
  763SOL    HW2 3051   2.526   1.186   2.393  0.0813 -1.7507  3.1902
  763SOL     MW 3052   2.464   1.146   2.350 -0.4215 -0.4497  0.4375
  764SOL     OW 3053   0.322   0.171   2.811 -0.3768 -0.4622  0.1706
  764SOL    HW1 3054   0.247   0.216   2.777  0.6442  1.5924  2.8009
  764SOL    HW2 3055   0.341   0.241   2.872 -3.1789 -2.8882  1.8037
  764SOL     MW 3056   0.314   0.186   2.815 -0.6118 -0.5112  0.7331
  765SOL     OW 3057   2.748   0.158   2.312 -0.3078 -0.3225 -0.1051
  765SOL    HW1 3058   2.688   0.125   2.245  0.9137 -0.5855  1.2815
  765SOL    HW2 3059   2.784   0.075   2.353 -2.0006 -1.7067 -0.0605
  765SOL     MW 3060   2.745   0.143   2.309 -0.3700 -0.5399  0.0838
  766SOL     OW 3061   1.844   3.001   2.110  0.2013  0.3390  0.2117
  766SOL    HW1 3062   1.912   3.002   2.043 -1.3484 -2.4516  0.4938
  766SOL    HW2 3063   1.785   2.949   2.055  1.1059  0.8356 -0.3657
  766SOL     MW 3064   1.845   2.994   2.094  0.1162  0.0364  0.1727
  767SOL     OW 3065   2.687   0.611   1.885 -0.3885  0.0708 -0.7255
  767SOL    HW1 3066   2.722   0.675   1.952 -0.0224 -1.5496  0.1870
  767SOL    HW2 3067   2.597   0.639   1.874 -0.2706 -2.6739  0.7621
  767SOL     MW 3068   2.680   0.623   1.892 -0.3246 -0.5051 -0.4088
  768SOL     OW 3069   0.015   1.503   2.938 -0.1447  0.6044 -0.5674
  768SOL    HW1 3070   0.047   1.521   3.030 -2.2795  2.2015  0.2655
  768SOL    HW2 3071   0.052   1.416   2.930  0.6525  0.3118 -1.8249
  768SOL     MW 3072   0.024   1.494   2.949 -0.3212  0.7765 -0.6234
  769SOL     OW 3073   2.370   0.619   2.452 -0.2437 -0.1862 -0.6926
  769SOL    HW1 3074   2.314   0.538   2.452  0.0037  1.6688  2.1496
  769SOL    HW2 3075   2.401   0.626   2.362 -0.8351  0.4737 -1.7763
  769SOL     MW 3076   2.367   0.609   2.440 -0.2891  0.1456 -0.4606
  770SOL     OW 3077   0.056   1.609   2.574 -0.2948  0.0727 -0.5181
  770SOL    HW1 3078  -0.030   1.623   2.616 -0.7788 -0.4984 -1.2781
  770SOL    HW2 3079   0.080   1.523   2.613  1.7207  3.4548 -0.6428
  770SOL     MW 3080   0.048   1.599   2.585 -0.0927  0.4436 -0.6348
  771SOL     OW 3081   3.015   0.605   1.973  0.3745  0.5844  0.3566
  771SOL    HW1 3082   2.987   0.574   1.882 -0.2134  1.3049 -0.7326
  771SOL    HW2 3083   3.109   0.596   1.984 -3.5487  1.6429 -2.5266
  771SOL     MW 3084   3.023   0.599   1.962 -0.2207  0.8191 -0.1676
  772SOL     OW 3085   0.043   0.010   2.320 -0.1418  0.0454  0.5510
  772SOL    HW1 3086  -0.031  -0.013   2.377  0.6932  0.7308  1.6398
  772SOL    HW2 3087   0.069  -0.062   2.263 -1.1728  1.9978 -0.7515
  772SOL     MW 3088   0.037  -0.002   2.320 -0.1677  0.3935  0.5228
  773SOL     OW 3089   2.415   2.894   2.771 -0.6892  0.7000 -0.5973
  773SOL    HW1 3090   2.426   2.803   2.747 -0.8492 -2.5338  0.0651
  773SOL    HW2 3091   2.404   2.887   2.866 -0.1575  0.7172 -1.0183
  773SOL     MW 3092   2.415   2.881   2.781 -0.6402  0.2756 -0.5654
  774SOL     OW 3093   2.299   1.176   1.803 -0.0753 -0.0653 -0.6721
  774SOL    HW1 3094   2.289   1.248   1.736 -0.6299  1.1667 -0.1572
  774SOL    HW2 3095   2.283   1.098   1.751  2.0206  0.3536  3.9383
  774SOL     MW 3096   2.295   1.175   1.787  0.1280  0.1525  0.0042
  775SOL     OW 3097   2.330   2.970   2.332  0.3658 -0.2200  0.0113
  775SOL    HW1 3098   2.340   3.057   2.286  2.3215 -0.3347  2.0772
  775SOL    HW2 3099   2.375   2.898   2.291  0.5264 -0.8691  0.4589
  775SOL     MW 3100   2.338   2.972   2.320  0.6450 -0.3208  0.3430
  776SOL     OW 3101   0.109   1.505   0.088  0.4501  0.2100 -0.1550
  776SOL    HW1 3102   0.206   1.487   0.073  0.5612  0.2123 -0.6294
  776SOL    HW2 3103   0.077   1.430   0.135 -2.2413  0.8989 -1.1509
  776SOL     MW 3104   0.118   1.493   0.092  0.1097  0.3012 -0.3490
  777SOL     OW 3105   3.007   1.105   1.716  0.1853 -0.0332  0.1998
  777SOL    HW1 3106   2.970   1.146   1.643 -1.2861 -4.2450 -2.0575
  777SOL    HW2 3107   2.928   1.080   1.763  1.2606 -0.1881 -1.3044
  777SOL     MW 3108   2.992   1.107   1.713  0.1330 -0.6093 -0.2965
  778SOL     OW 3109   2.827   0.459   2.724  0.0894  0.7789 -0.2460
  778SOL    HW1 3110   2.780   0.483   2.810  0.0132  0.4045 -2.4750
  778SOL    HW2 3111   2.856   0.548   2.690 -0.9665 -0.9962 -0.5999
  778SOL     MW 3112   2.824   0.474   2.731 -0.0600  0.4953 -0.5868
  779SOL     OW 3113   2.255   0.548   2.197 -0.0563 -0.0747 -0.4079
  779SOL    HW1 3114   2.208   0.629   2.178  0.5733 -1.2428  1.9329
  779SOL    HW2 3115   2.207   0.508   2.267 -2.9263  1.1277  0.8208
  779SOL     MW 3116   2.242   0.554   2.204 -0.3519 -0.0702  0.0630
  780SOL     OW 3117   0.138   0.311   2.672  0.4638 -0.1680 -0.2466
  780SOL    HW1 3118   0.068   0.338   2.734  1.0803 -0.3260 -0.8732
  780SOL    HW2 3119   0.131   0.382   2.608 -2.6574 -2.1101  2.4780
  780SOL     MW 3120   0.128   0.324   2.671  0.1333 -0.4451  0.0302
  781SOL     OW 3121   3.061   1.297   2.465 -0.6100  0.0035  0.0369
  781SOL    HW1 3122   3.084   1.372   2.413 -0.7733  1.7559  1.3468
  781SOL    HW2 3123   3.089   1.220   2.418  0.1125 -0.0222  0.0122
  781SOL     MW 3124   3.068   1.297   2.452 -0.5362  0.2313  0.2064
  782SOL     OW 3125   0.663   1.581   0.014  0.1545 -0.0787  0.0520
  782SOL    HW1 3126   0.574   1.588  -0.033 -3.0936 -1.9052 -1.9988
  782SOL    HW2 3127   0.651   1.635   0.088 -0.4562  2.1948 -0.3321
  782SOL     MW 3128   0.649   1.589   0.018 -0.3546 -0.0197 -0.2692
  783SOL     OW 3129   2.696   0.634   2.444  0.4794 -0.2068  0.0903
  783SOL    HW1 3130   2.655   0.645   2.359  3.5148  0.2372 -1.3138
  783SOL    HW2 3131   2.644   0.578   2.506 -1.6345 -0.6022  1.4163
  783SOL     MW 3132   2.684   0.628   2.441  0.6009 -0.2004  0.0800
  784SOL     OW 3133   0.129   0.807   2.858 -0.4243 -0.4587 -0.0842
  784SOL    HW1 3134   0.050   0.858   2.853 -3.5028  0.8172 -0.8250
  784SOL    HW2 3135   0.179   0.834   2.779  0.6883  0.3773  0.5145
  784SOL     MW 3136   0.125   0.818   2.847 -0.6837 -0.1800 -0.1030
  785SOL     OW 3137   0.419   0.482   2.170  0.1685  0.3529 -0.1789
  785SOL    HW1 3138   0.412   0.506   2.078 -1.2092 -0.6719  2.8276
  785SOL    HW2 3139   0.341   0.423   2.186  1.0653  3.4782 -3.4106
  785SOL     MW 3140   0.408   0.477   2.160  0.1050  0.6300 -0.2086
  786SOL     OW 3141   1.928   0.368   2.961  0.1826 -0.5456 -0.0385
  786SOL    HW1 3142   1.916   0.455   2.996 -0.6615 -3.8466 -0.9243
  786SOL    HW2 3143   1.969   0.365   2.875  3.1596 -0.3735 -0.3045
  786SOL     MW 3144   1.932   0.379   2.954  0.4640 -0.9584 -0.1904
  787SOL     OW 3145   2.472   0.100   2.968  0.2485  0.1752 -0.4857
  787SOL    HW1 3146   2.536   0.045   2.920 -0.7735  2.8009 -0.1632
  787SOL    HW2 3147   2.530   0.169   3.003  0.5515  1.0823 -1.3885
  787SOL     MW 3148   2.488   0.102   2.966  0.1536  0.6413 -0.5622
  788SOL     OW 3149   2.864   3.028   2.407  0.1163  0.0017 -0.9536
  788SOL    HW1 3150   2.857   3.003   2.497 -2.0275  0.3065 -3.0728
  788SOL    HW2 3151   2.867   2.950   2.354 -0.5374 -2.1980  0.4384
  788SOL     MW 3152   2.863   3.014   2.412 -0.2528 -0.2483 -1.0495
  789SOL     OW 3153   0.079   0.203   3.035  0.0232  0.2422 -0.0690
  789SOL    HW1 3154   0.021   0.128   3.047  0.8740  1.6690 -2.6642
  789SOL    HW2 3155   0.028   0.265   2.987  2.1489 -0.1108 -0.9565
  789SOL     MW 3156   0.065   0.201   3.030  0.4159  0.3839 -0.5285
  790SOL     OW 3157   0.008   1.058   2.327  0.2972 -0.2115  0.1784
  790SOL    HW1 3158  -0.040   1.018   2.397  1.2888 -1.8966  1.2029
  790SOL    HW2 3159  -0.060   1.088   2.264 -1.4385 -0.1801 -1.2701
  790SOL     MW 3160  -0.007   1.057   2.328  0.1991 -0.4297  0.1225
  791SOL     OW 3161   2.595   0.415   2.579  0.8511 -0.1872  0.3263
  791SOL    HW1 3162   2.522   0.436   2.644  0.4867  1.7147  0.0035
  791SOL    HW2 3163   2.679   0.408   2.631  3.5922 -2.5051  0.8740
  791SOL     MW 3164   2.596   0.417   2.595  1.1647 -0.2421  0.3560
  792SOL     OW 3165   2.339   0.205   2.414  0.1585  0.7987  0.2624
  792SOL    HW1 3166   2.267   0.263   2.434 -2.1203  0.1675  2.3349
  792SOL    HW2 3167   2.349   0.178   2.503 -0.3900  0.8887 -0.3387
  792SOL     MW 3168   2.331   0.209   2.429 -0.2145  0.7273  0.4565
  793SOL     OW 3169   1.967   1.214   1.969  0.0650 -0.1100 -0.5306
  793SOL    HW1 3170   1.921   1.214   1.888 -1.3925 -0.3229 -0.6050
  793SOL    HW2 3171   2.024   1.133   1.972  0.7479  0.1149  3.1134
  793SOL     MW 3172   1.969   1.203   1.959 -0.0372 -0.1084 -0.0597
  794SOL     OW 3173   1.401   2.370   0.131  0.1418 -0.1254 -0.2525
  794SOL    HW1 3174   1.444   2.382   0.050  0.8939  0.5592 -1.6681
  794SOL    HW2 3175   1.467   2.384   0.203  1.0922  1.5372 -0.3387
  794SOL     MW 3176   1.415   2.373   0.130  0.3665  0.1843 -0.4507
  795SOL     OW 3177   2.309   1.027   2.556  0.4419  0.9017  0.4477
  795SOL    HW1 3178   2.274   1.107   2.602  1.0672  2.1289 -2.6805
  795SOL    HW2 3179   2.359   1.062   2.485 -1.9376  1.6022 -0.0305
  795SOL     MW 3180   2.311   1.042   2.553  0.2105  1.1560 -0.0281
  796SOL     OW 3181   0.228   0.559   2.779 -0.1120 -0.5723  0.0849
  796SOL    HW1 3182   0.194   0.629   2.842 -1.0079  0.3824  1.3385
  796SOL    HW2 3183   0.173   0.573   2.700 -0.5826 -1.8621 -1.9745
  796SOL     MW 3184   0.216   0.570   2.777 -0.2923 -0.6165 -0.0214
  797SOL     OW 3185   2.613   0.137   2.587  0.1474 -0.7282  0.1947
  797SOL    HW1 3186   2.611   0.236   2.603  1.3403  2.5506  0.7793
  797SOL    HW2 3187   2.652   0.137   2.502  3.1644 -3.9642 -0.9236
  797SOL     MW 3188   2.618   0.150   2.578  0.7028 -0.7226  0.1243
  798SOL     OW 3189   2.296   0.109   2.171 -0.4634  0.2955 -0.1298
  798SOL    HW1 3190   2.313   0.154   2.254  3.2570 -4.8278  0.6421
  798SOL    HW2 3191   2.383   0.083   2.139 -0.5082 -0.1922  1.0310
  798SOL     MW 3192   2.310   0.112   2.178  0.0216 -0.4448  0.1252
  799SOL     OW 3193   2.558   2.923   0.109 -0.1982 -0.1636 -0.3888
  799SOL    HW1 3194   2.484   2.900   0.049 -0.7493 -1.8655  0.2919
  799SOL    HW2 3195   2.530   2.933   0.203  0.5474 -0.4539  2.3520
  799SOL     MW 3196   2.544   2.921   0.114 -0.1726 -0.4264  0.0626
  800SOL     OW 3197   1.935   0.014   1.694  0.6569 -0.7225 -0.0470
  800SOL    HW1 3198   1.880  -0.062   1.698  0.7398 -1.2029  0.1533
  800SOL    HW2 3199   1.987   0.014   1.774 -1.3618 -0.0574 -1.9012
  800SOL     MW 3200   1.935   0.004   1.705  0.4015 -0.6981 -0.2652
  801SOL     OW 3201   2.815   1.262   2.606 -0.0152  0.0989 -0.2739
  801SOL    HW1 3202   2.781   1.178   2.582 -1.6755  1.5749 -0.3595
  801SOL    HW2 3203   2.904   1.265   2.572  1.3105 -0.0026 -1.5313
  801SOL     MW 3204   2.823   1.251   2.598 -0.0593  0.2802 -0.4511
  802SOL     OW 3205   2.601   1.498   2.791  0.8371 -0.1268 -0.2020
  802SOL    HW1 3206   2.566   1.407   2.769 -0.1833 -0.1975 -0.5511
  802SOL    HW2 3207   2.690   1.489   2.834  0.0444  2.8545 -2.9265
  802SOL     MW 3208   2.608   1.485   2.794  0.5979  0.2572 -0.6076
  803SOL     OW 3209   2.267   1.403   2.012  0.8066  0.0960 -0.2598
  803SOL    HW1 3210   2.231   1.369   2.095  2.8769 -1.5681 -1.4603
  803SOL    HW2 3211   2.229   1.338   1.953 -2.3162 -0.3527  3.4013
  803SOL     MW 3212   2.257   1.390   2.015  0.6678 -0.1828  0.0648
  804SOL     OW 3213   2.262   0.097   0.049 -0.1044 -0.6741  0.4996
  804SOL    HW1 3214   2.193   0.171   0.043  2.1662 -0.7185  1.6296
  804SOL    HW2 3215   2.331   0.110  -0.021 -3.1804  2.9443 -0.5773
  804SOL     MW 3216   2.262   0.109   0.039 -0.2107 -0.2026  0.5066
  805SOL     OW 3217   2.726   0.994   2.588  0.3948  0.4723 -0.6167
  805SOL    HW1 3218   2.668   0.931   2.546 -0.6071  2.4173 -1.7343
  805SOL    HW2 3219   2.818   0.970   2.565 -0.3935  0.7817  0.8021
  805SOL     MW 3220   2.731   0.983   2.579  0.1586  0.7698 -0.5769
  806SOL     OW 3221   2.557   0.629   2.215  0.0638  0.2656 -0.1816
  806SOL    HW1 3222   2.574   0.549   2.168  1.4899 -2.5895  0.1745
  806SOL    HW2 3223   2.535   0.691   2.146 -1.6594 -0.5143  0.4880
  806SOL     MW 3224   2.557   0.627   2.200  0.0246 -0.2140 -0.0463
  807SOL     OW 3225   0.078   1.152   2.063 -0.4293  0.5671 -0.5540
  807SOL    HW1 3226   0.081   1.059   2.076 -0.8753 -0.6370 -0.3670
  807SOL    HW2 3227  -0.007   1.177   2.058  0.2512 -0.0434  0.1061
  807SOL     MW 3228   0.067   1.143   2.064 -0.3984  0.3277 -0.4422
  808SOL     OW 3229   2.661   3.037   2.813 -0.0017  0.2667  0.3292
  808SOL    HW1 3230   2.598   2.972   2.775 -3.7035  0.6086  0.0028
  808SOL    HW2 3231   2.670   3.094   2.741 -0.8934 -0.5537  0.8957
  808SOL     MW 3232   2.654   3.036   2.798 -0.6078  0.2036  0.3609
  809SOL     OW 3233   2.603   1.369   2.467  0.0302  0.1428  0.4234
  809SOL    HW1 3234   2.651   1.355   2.550  0.8609  2.5141  3.5786
  809SOL    HW2 3235   2.677   1.364   2.400 -0.1685 -1.0572 -1.1188
  809SOL     MW 3236   2.619   1.367   2.469  0.1136  0.2973  0.6362
  810SOL     OW 3237   2.225   1.328   2.285  0.2793 -0.0067 -0.4013
  810SOL    HW1 3238   2.278   1.255   2.311 -0.2511 -0.1547  1.1184
  810SOL    HW2 3239   2.147   1.325   2.335 -0.8500  0.8116 -1.0009
  810SOL     MW 3240   2.222   1.318   2.295  0.0604  0.0818 -0.2799
  811SOL     OW 3241   1.545   0.141   2.298 -0.0599  0.0715 -0.1482
  811SOL    HW1 3242   1.613   0.087   2.341  1.3746  0.4551  0.1027
  811SOL    HW2 3243   1.529   0.101   2.211 -0.3569 -0.7058  0.8579
  811SOL     MW 3244   1.552   0.129   2.292  0.0902  0.0196  0.0176
  812SOL     OW 3245   1.447   2.788   1.998 -0.2965  0.1095 -0.4989
  812SOL    HW1 3246   1.534   2.804   1.956 -1.1705  0.0388  0.6509
  812SOL    HW2 3247   1.475   2.776   2.088  2.1785 -2.7033 -2.1882
  812SOL     MW 3248   1.463   2.789   2.004 -0.0852 -0.2710 -0.5701
  813SOL     OW 3249   1.944   0.701   2.259 -0.8016  0.2209 -0.1799
  813SOL    HW1 3250   1.896   0.618   2.235  1.7875  0.7654 -0.2478
  813SOL    HW2 3251   1.903   0.740   2.335  0.9997  2.6260  0.3718
  813SOL     MW 3252   1.932   0.696   2.266 -0.2223  0.6101 -0.1160
  814SOL     OW 3253   2.696   1.269   1.644 -0.4309 -1.0853  0.0679
  814SOL    HW1 3254   2.635   1.249   1.709  0.2858  1.8886 -2.9237
  814SOL    HW2 3255   2.687   1.211   1.574  1.0924  0.1467 -0.5192
  814SOL     MW 3256   2.687   1.259   1.643 -0.1354 -0.5304 -0.4043
  815SOL     OW 3257   2.555   1.730   2.428 -0.8888  0.3681  0.4016
  815SOL    HW1 3258   2.498   1.663   2.410 -0.4974  2.2659  1.3323
  815SOL    HW2 3259   2.644   1.696   2.423  2.3869  1.9632  1.6180
  815SOL     MW 3260   2.559   1.717   2.425 -0.4050  0.8290  0.6849
  816SOL     OW 3261   0.740   0.722   2.743  0.8296  0.3758  0.6115
  816SOL    HW1 3262   0.745   0.635   2.789  2.3148 -2.2556 -1.4788
  816SOL    HW2 3263   0.660   0.733   2.696 -1.3210 -2.4271 -0.3332
  816SOL     MW 3264   0.730   0.712   2.743  0.7418 -0.3412  0.2110
  817SOL     OW 3265   3.013   1.216   1.452  0.0317 -0.1084  0.0019
  817SOL    HW1 3266   3.103   1.200   1.473 -2.0702 -0.0178  0.7806
  817SOL    HW2 3267   3.010   1.314   1.429 -3.6696  1.8333 -0.3734
  817SOL     MW 3268   3.025   1.227   1.452 -0.7340  0.1597  0.0551
  818SOL     OW 3269   1.885   1.063   2.706 -0.1519  0.6299 -0.4880
  818SOL    HW1 3270   1.859   1.024   2.617 -0.2693  1.7518 -0.9221
  818SOL    HW2 3271   1.967   1.016   2.726 -1.2203 -0.3054 -1.1130
  818SOL     MW 3272   1.892   1.052   2.696 -0.3084  0.6545 -0.6277
  819SOL     OW 3273   1.962   0.225   2.486 -0.5050 -0.4819 -1.1199
  819SOL    HW1 3274   1.907   0.305   2.466  0.6926 -0.6515  1.3643
  819SOL    HW2 3275   1.977   0.236   2.581  1.1380 -0.8441 -0.2163
  819SOL     MW 3276   1.957   0.237   2.496 -0.1302 -0.5521 -0.6729
  820SOL     OW 3277   2.540   1.734   2.704 -0.0618  0.0657 -0.6069
  820SOL    HW1 3278   2.554   1.642   2.737  1.9107 -1.2764  3.1715
  820SOL    HW2 3279   2.548   1.722   2.608  2.4348  1.2013 -1.0471
  820SOL     MW 3280   2.543   1.720   2.696  0.5279  0.0384 -0.1665
  821SOL     OW 3281   2.593   1.415   2.037 -0.0137  0.5125 -0.2224
  821SOL    HW1 3282   2.610   1.477   1.964  1.8903  2.2539  3.9527
  821SOL    HW2 3283   2.495   1.412   2.036 -2.6979 -1.6871  2.1283
  821SOL     MW 3284   2.582   1.423   2.027 -0.1166  0.4521  0.6386
  822SOL     OW 3285   2.747   2.658   1.393 -0.0175  0.0414  0.4156
  822SOL    HW1 3286   2.791   2.681   1.472 -1.7361 -0.8347 -1.2280
  822SOL    HW2 3287   2.663   2.701   1.396 -1.5820  1.4738  1.1255
  822SOL     MW 3288   2.741   2.666   1.404 -0.4507  0.1148  0.2924
  823SOL     OW 3289   2.356   0.476   1.769 -0.1655 -0.5821  0.3232
  823SOL    HW1 3290   2.428   0.438   1.720 -2.2480  4.1109  1.9267
  823SOL    HW2 3291   2.291   0.402   1.775 -2.4156  0.5901  1.3980
  823SOL     MW 3292   2.357   0.461   1.764 -0.7372  0.1917  0.6765
  824SOL     OW 3293   2.144   1.464   2.558 -0.2368  0.0874  0.6470
  824SOL    HW1 3294   2.207   1.521   2.515 -0.0975 -1.7675 -0.2659
  824SOL    HW2 3295   2.085   1.520   2.607  0.3985  0.2230 -2.8882
  824SOL     MW 3296   2.145   1.479   2.559 -0.1346 -0.1394  0.0602
  825SOL     OW 3297   1.856   2.530   0.292 -0.1704 -0.1750  1.0129
  825SOL    HW1 3298   1.888   2.480   0.372  1.7007 -1.2203  0.9010
  825SOL    HW2 3299   1.931   2.536   0.227 -1.4335 -1.0158 -0.3108
  825SOL     MW 3300   1.870   2.524   0.294 -0.0902 -0.4238  0.8235
  826SOL     OW 3301   1.856   2.394   0.539  0.1422  0.3641 -0.5473
  826SOL    HW1 3302   1.812   2.314   0.575  0.0878  0.0109  1.7261
  826SOL    HW2 3303   1.820   2.467   0.593 -2.3807 -1.5284 -2.6821
  826SOL     MW 3304   1.845   2.393   0.551 -0.1978  0.0678 -0.5290
  827SOL     OW 3305   1.946   2.188   0.914  0.0614  0.2147  0.5545
  827SOL    HW1 3306   1.892   2.216   0.837  2.7437  2.2530  0.0084
  827SOL    HW2 3307   1.887   2.131   0.966 -0.7937  2.7015 -1.2183
  827SOL     MW 3308   1.931   2.184   0.911  0.3025  0.8118  0.2485
  828SOL     OW 3309   0.056   2.569   0.612 -0.0667 -0.1040 -0.1582
  828SOL    HW1 3310   0.151   2.572   0.597 -0.6351  1.6843  3.5161
  828SOL    HW2 3311   0.000   2.596   0.540 -1.6660  2.6918  1.2227
  828SOL     MW 3312   0.062   2.573   0.601 -0.3527  0.5008  0.5088
  829SOL     OW 3313   2.967   2.973   1.146 -0.3893 -0.0291 -0.3315
  829SOL    HW1 3314   2.891   2.914   1.128 -1.5526 -1.9883  0.6839
  829SOL    HW2 3315   3.042   2.918   1.126  0.6002 -1.2385  1.6902
  829SOL     MW 3316   2.967   2.958   1.141 -0.4122 -0.4472  0.0692
  830SOL     OW 3317   2.529   2.866   2.027 -0.5003  0.3019 -0.0236
  830SOL    HW1 3318   2.435   2.876   1.997 -2.4931  0.1461  0.1834
  830SOL    HW2 3319   2.566   2.822   1.951  0.6874  2.7909  0.2601
  830SOL     MW 3320   2.521   2.862   2.013 -0.6065  0.6097  0.0412
  831SOL     OW 3321   2.398   2.501   1.240  0.2018 -0.1451  0.0882
  831SOL    HW1 3322   2.356   2.440   1.308  0.7837  0.7328  3.0897
  831SOL    HW2 3323   2.477   2.448   1.220 -1.7005  2.0899  1.9848
  831SOL     MW 3324   2.403   2.486   1.246  0.0276  0.2656  0.7344
  832SOL     OW 3325   2.369   2.198   1.925 -0.1645 -0.5005  0.0303
  832SOL    HW1 3326   2.390   2.289   1.958 -0.0668  1.5760  0.0507
  832SOL    HW2 3327   2.456   2.153   1.898  0.8296  1.9287 -0.6280
  832SOL     MW 3328   2.383   2.204   1.926 -0.0204  0.0940 -0.0538
  833SOL     OW 3329   1.755   2.428   0.895 -0.0526 -0.1858 -0.5271
  833SOL    HW1 3330   1.672   2.374   0.885  0.8218 -1.7138  0.5531
  833SOL    HW2 3331   1.749   2.483   0.967  2.3594 -6.4469  0.0532
  833SOL     MW 3332   1.743   2.428   0.903  0.3810 -1.2135 -0.3080
  834SOL     OW 3333   2.121   2.478   0.591  0.7208  0.8717  0.1626
  834SOL    HW1 3334   2.031   2.438   0.592  0.7018 -3.1997 -1.5971
  834SOL    HW2 3335   2.173   2.451   0.517 -1.7719 -0.9268 -1.0476
  834SOL     MW 3336   2.116   2.469   0.582  0.3894  0.0972 -0.2292
  835SOL     OW 3337   1.763   2.599   0.667  0.1120  0.1499 -0.6097
  835SOL    HW1 3338   1.747   2.544   0.751  2.3243 -0.4787  0.8192
  835SOL    HW2 3339   1.833   2.654   0.689 -1.6203 -2.0203 -0.1661
  835SOL     MW 3340   1.770   2.599   0.681  0.1754 -0.2194 -0.3626
  836SOL     OW 3341   1.900   2.202   1.622 -0.2870 -0.1891 -0.2680
  836SOL    HW1 3342   1.980   2.244   1.652  0.0458 -1.3790 -1.8492
  836SOL    HW2 3343   1.824   2.262   1.629 -0.7364 -1.1397 -3.8283
  836SOL     MW 3344   1.900   2.216   1.627 -0.3024 -0.4715 -0.9463
  837SOL     OW 3345   2.087   0.141   0.706  0.2335 -0.1539  0.8267
  837SOL    HW1 3346   2.013   0.195   0.668  1.3970  3.5162  1.7660
  837SOL    HW2 3347   2.099   0.075   0.635  2.4670 -0.0248 -2.2183
  837SOL     MW 3348   2.079   0.140   0.692  0.6817  0.3474  0.5489
  838SOL     OW 3349   2.931   2.087   0.936  0.3327  0.2035  0.3617
  838SOL    HW1 3350   2.864   2.051   0.994 -0.3763 -1.1045 -0.5682
  838SOL    HW2 3351   2.987   2.013   0.909  0.0471  2.2370 -2.9378
  838SOL     MW 3352   2.930   2.072   0.940  0.2015  0.2992 -0.1963
  839SOL     OW 3353   1.507   2.331   0.964 -0.3715  0.3773 -0.5349
  839SOL    HW1 3354   1.490   2.403   1.028  0.3657 -0.1612 -0.3724
  839SOL    HW2 3355   1.505   2.250   1.015  0.3833  1.5508  1.1053
  839SOL     MW 3356   1.504   2.330   0.979 -0.1747  0.4610 -0.2970
  840SOL     OW 3357   2.370   2.117   2.431 -0.5354 -0.5761 -0.2551
  840SOL    HW1 3358   2.295   2.159   2.405  2.7711  2.5879 -0.7306
  840SOL    HW2 3359   2.404   2.177   2.500 -1.1508  0.7009 -1.0140
  840SOL     MW 3360   2.365   2.131   2.437 -0.1804  0.0098 -0.4179
  841SOL     OW 3361   2.072   2.479   0.138  0.2847  0.9185 -0.0563
  841SOL    HW1 3362   2.133   2.508   0.066 -1.4588 -0.1506 -0.9075
  841SOL    HW2 3363   2.052   2.384   0.120 -0.8461  0.6164 -1.3179
  841SOL     MW 3364   2.077   2.471   0.126 -0.0946  0.7376 -0.3351
  842SOL     OW 3365   2.565   2.056   1.536  0.0276 -0.8444  0.4623
  842SOL    HW1 3366   2.534   1.964   1.542  2.1091 -0.8759  1.9570
  842SOL    HW2 3367   2.544   2.082   1.449  0.5278 -1.3002 -2.2857
  842SOL     MW 3368   2.558   2.047   1.525  0.3683 -0.9087  0.2969
  843SOL     OW 3369   2.645   2.781   1.772 -0.3181 -0.1356  0.2470
  843SOL    HW1 3370   2.737   2.746   1.771  4.6447 -0.7006  2.2403
  843SOL    HW2 3371   2.592   2.695   1.755  0.6779 -2.9426  1.4226
  843SOL     MW 3372   2.650   2.765   1.770  0.4681 -0.5805  0.6651
  844SOL     OW 3373   2.596   2.330   1.181 -0.0043 -0.0991  0.0856
  844SOL    HW1 3374   2.612   2.357   1.090 -0.7564  0.5108  3.0363
  844SOL    HW2 3375   2.679   2.331   1.241 -0.0848 -1.5053 -0.9924
  844SOL     MW 3376   2.609   2.334   1.177 -0.1142 -0.2042  0.3327
  845SOL     OW 3377   2.841   2.486   0.290  0.4628  0.2488 -0.2996
  845SOL    HW1 3378   2.785   2.406   0.286  1.1058  0.7342  0.5444
  845SOL    HW2 3379   2.820   2.519   0.380  1.0391  1.2697 -0.2542
  845SOL     MW 3380   2.831   2.480   0.301  0.6237  0.4475 -0.1822
  846SOL     OW 3381   1.512   2.900   0.751 -0.2103  0.1444  0.3260
  846SOL    HW1 3382   1.567   2.946   0.808 -0.7492 -1.6230  1.4066
  846SOL    HW2 3383   1.432   2.944   0.750 -0.4964  1.4871  2.0065
  846SOL     MW 3384   1.508   2.912   0.758 -0.3192  0.0883  0.6903
  847SOL     OW 3385   2.618   1.931   0.178 -0.8033  0.1852 -0.4947
  847SOL    HW1 3386   2.702   1.881   0.155  3.2337  0.8471  0.6021
  847SOL    HW2 3387   2.546   1.909   0.114  0.5928  2.6384  1.2979
  847SOL     MW 3388   2.620   1.921   0.167 -0.0865  0.5962 -0.1135
  848SOL     OW 3389   2.434   2.112   1.296  0.7606  0.1123  0.6230
  848SOL    HW1 3390   2.496   2.143   1.225  0.5140  0.6537 -1.3030
  848SOL    HW2 3391   2.423   2.019   1.279  0.6798 -0.2312 -1.5827
  848SOL     MW 3392   2.440   2.104   1.284  0.7174  0.1384  0.0779
  849SOL     OW 3393   1.996   2.763   0.746  0.5254 -0.2132  0.3882
  849SOL    HW1 3394   2.025   2.696   0.810 -1.3728 -2.4320 -4.1003
  849SOL    HW2 3395   2.070   2.803   0.712 -2.3624  0.6569  0.3234
  849SOL     MW 3396   2.010   2.759   0.750 -0.1060 -0.3912 -0.2126
  850SOL     OW 3397   2.206   1.977   1.714  0.1071 -0.7026  0.3664
  850SOL    HW1 3398   2.113   1.965   1.688  1.4170 -0.9654  0.5012
  850SOL    HW2 3399   2.226   2.069   1.712  0.1218 -0.1531 -1.3979
  850SOL     MW 3400   2.196   1.987   1.711  0.2819 -0.6648  0.1514
  851SOL     OW 3401   2.252   2.422   0.351 -0.1126 -0.0264 -0.1477
  851SOL    HW1 3402   2.191   2.457   0.277 -1.5228 -2.0604 -0.6220
  851SOL    HW2 3403   2.325   2.489   0.349  1.3287  2.2292 -2.5424
  851SOL     MW 3404   2.253   2.436   0.341 -0.1085  0.0028 -0.5262
  852SOL     OW 3405   2.330   2.163   0.215  0.6264  0.2053  0.2409
  852SOL    HW1 3406   2.303   2.224   0.283  0.1707  0.7319  2.6143
  852SOL    HW2 3407   2.407   2.196   0.180 -3.7875 -0.0744  1.4178
  852SOL     MW 3408   2.337   2.175   0.219 -0.0161  0.2379  0.7093
  853SOL     OW 3409   2.453   2.453   1.975  0.3615 -0.0767  0.4615
  853SOL    HW1 3410   2.465   2.488   1.887  3.1801 -1.9278  0.4739
  853SOL    HW2 3411   2.538   2.434   2.010  1.0584  0.5063  0.7096
  853SOL     MW 3412   2.466   2.455   1.968  0.8253 -0.2440  0.4958
  854SOL     OW 3413   2.816   2.274   0.770 -0.2370 -0.0002  0.3988
  854SOL    HW1 3414   2.760   2.233   0.705  0.6941  1.0875 -2.2316
  854SOL    HW2 3415   2.853   2.205   0.829 -0.3676 -0.2084 -0.7406
  854SOL     MW 3416   2.813   2.260   0.769 -0.1314  0.1159 -0.0986
  855SOL     OW 3417   2.684   2.263   0.365  0.3438 -0.1412  0.1237
  855SOL    HW1 3418   2.661   2.331   0.437 -2.2605  0.8309  0.3109
  855SOL    HW2 3419   2.763   2.222   0.397  1.0575 -0.5463 -0.8808
  855SOL     MW 3420   2.692   2.267   0.379  0.0944 -0.0664  0.0159
  856SOL     OW 3421   2.201   1.913   0.203  0.4004 -0.0835 -0.6056
  856SOL    HW1 3422   2.112   1.934   0.237 -0.8091  0.8807  0.6152
  856SOL    HW2 3423   2.239   2.004   0.213  0.0358  1.0411  1.7619
  856SOL     MW 3424   2.194   1.928   0.209  0.1927  0.1921 -0.1321
  857SOL     OW 3425   2.585   1.993   0.467 -0.3261 -0.5310 -0.3530
  857SOL    HW1 3426   2.613   2.075   0.417  0.9375  0.7950 -2.9628
  857SOL    HW2 3427   2.521   1.965   0.403  1.7916  1.6927  1.3229
  857SOL     MW 3428   2.581   2.000   0.452  0.1200 -0.0627 -0.4762
  858SOL     OW 3429   2.867   2.655   1.654 -1.1361  0.3400 -0.6520
  858SOL    HW1 3430   2.954   2.667   1.690  0.2330 -0.8390  0.0726
  858SOL    HW2 3431   2.841   2.572   1.695  1.1207 -0.6259  0.7622
  858SOL     MW 3432   2.875   2.646   1.664 -0.6577  0.0570 -0.3698
  859SOL     OW 3433   2.101   2.533   0.879 -0.2055  0.5325 -0.0080
  859SOL    HW1 3434   2.097   2.509   0.787  1.4657 -0.5761  1.8453
  859SOL    HW2 3435   2.190   2.552   0.889  0.2041 -1.3082  0.6083
  859SOL     MW 3436   2.112   2.533   0.868  0.0691  0.1434  0.3178
  860SOL     OW 3437   2.643   2.579   0.134 -0.4335  0.1465 -0.2575
  860SOL    HW1 3438   2.709   2.546   0.195 -1.6130  1.2293 -0.1046
  860SOL    HW2 3439   2.679   2.663   0.106 -0.4645 -0.3038  0.7600
  860SOL     MW 3440   2.656   2.586   0.138 -0.5932  0.2299 -0.1031
  861SOL     OW 3441   1.531   2.142   1.158 -0.1499 -0.5263 -0.4661
  861SOL    HW1 3442   1.541   2.199   1.241  1.7311 -1.1230  4.0261
  861SOL    HW2 3443   1.506   2.059   1.192 -0.5085 -2.6656  0.1541
  861SOL     MW 3444   1.529   2.138   1.173  0.0510 -0.8873  0.2084
  862SOL     OW 3445   2.433   1.784   1.565 -0.1468 -0.5105 -0.1773
  862SOL    HW1 3446   2.365   1.822   1.618  1.1148  2.9609  0.0643
  862SOL    HW2 3447   2.398   1.793   1.480 -2.8398  1.2967  2.8422
  862SOL     MW 3448   2.420   1.790   1.561 -0.3356  0.1860  0.2529
  863SOL     OW 3449   0.061   1.890   1.149  0.2770  0.5035 -0.1267
  863SOL    HW1 3450   0.153   1.909   1.146 -1.5094  2.8946  0.2404
  863SOL    HW2 3451   0.013   1.970   1.175 -2.2056  2.6389 -1.1673
  863SOL     MW 3452   0.067   1.903   1.152 -0.2863  1.1007 -0.2156
  864SOL     OW 3453   0.027   1.882   0.854  0.0251  0.6092 -0.1868
  864SOL    HW1 3454   0.036   1.847   0.942 -1.0444  1.2561 -0.3124
  864SOL    HW2 3455  -0.001   1.808   0.797  1.2556  1.4010  4.3268
  864SOL     MW 3456   0.025   1.867   0.858  0.0464  0.7990  0.3922
  865SOL     OW 3457   2.597   2.156   0.026  0.6815 -0.0929 -0.3634
  865SOL    HW1 3458   2.613   2.084   0.091 -1.0273  1.2615  0.5878
  865SOL    HW2 3459   2.579   2.115  -0.058  0.7253  0.5383  0.3988
  865SOL     MW 3460   2.597   2.141   0.024  0.4619  0.1691 -0.1373
  866SOL     OW 3461   2.659   2.311   1.617  0.5516 -0.2284 -0.2937
  866SOL    HW1 3462   2.628   2.220   1.610  3.0018  0.5608 -0.3423
  866SOL    HW2 3463   2.671   2.341   1.525 -0.1282 -0.9051 -1.1276
  866SOL     MW 3464   2.656   2.303   1.604  0.7852 -0.2135 -0.4101
  867SOL     OW 3465   0.021   2.660   1.801 -0.3932  0.4018 -0.4526
  867SOL    HW1 3466   0.051   2.654   1.896 -0.2132 -2.7673  0.7576
  867SOL    HW2 3467   0.004   2.750   1.785 -1.4175 -0.6878  2.1849
  867SOL     MW 3468   0.023   2.671   1.811 -0.5046 -0.1601  0.0551
  868SOL     OW 3469   2.814   2.584   0.545  0.0370 -0.0982 -0.1095
  868SOL    HW1 3470   2.727   2.549   0.571  1.3324 -2.8980 -0.0737
  868SOL    HW2 3471   2.806   2.671   0.509  2.6100 -1.7803 -1.6096
  868SOL     MW 3472   2.802   2.591   0.544  0.5474 -0.6895 -0.3027
  869SOL     OW 3473   1.988   2.392   1.097  0.3987 -0.2667  0.5435
  869SOL    HW1 3474   2.013   2.472   1.049  1.0852  1.7470  1.4242
  869SOL    HW2 3475   1.955   2.325   1.028 -1.1718 -1.5433 -2.7038
  869SOL     MW 3476   1.987   2.394   1.082  0.2820 -0.1694  0.2313
  870SOL     OW 3477   2.168   0.027   0.455 -0.4243  0.1395 -0.3034
  870SOL    HW1 3478   2.250   0.078   0.423 -0.2487 -1.1383  0.6480
  870SOL    HW2 3479   2.187  -0.068   0.432 -1.8147  0.8915  1.8220
  870SOL     MW 3480   2.181   0.021   0.448 -0.5846  0.0701  0.1025
  871SOL     OW 3481   2.494   2.126   0.967 -0.7104  0.9748  0.2016
  871SOL    HW1 3482   2.432   2.061   0.934 -0.4122  0.4861  1.7038
  871SOL    HW2 3483   2.429   2.196   0.990 -3.0014  0.8653 -1.9683
  871SOL     MW 3484   2.477   2.127   0.966 -0.9733  0.8959  0.1135
  872SOL     OW 3485   2.051   2.562   1.435 -0.1099  0.1470 -0.0085
  872SOL    HW1 3486   2.023   2.611   1.517 -1.6066  0.6670 -0.3890
  872SOL    HW2 3487   1.980   2.498   1.425 -1.2765 -1.1619  1.1413
  872SOL     MW 3488   2.038   2.560   1.444 -0.4613  0.0429  0.0930
  873SOL     OW 3489   2.911   2.078   1.935 -0.0113 -0.5005  0.1213
  873SOL    HW1 3490   2.967   2.141   1.984  0.3502  0.5162  1.7400
  873SOL    HW2 3491   2.970   2.057   1.857 -2.2310 -0.8978 -2.3767
  873SOL     MW 3492   2.926   2.084   1.931 -0.2564 -0.4188  0.0053
  874SOL     OW 3493   2.381   1.527   2.382 -0.0371 -0.8378 -0.9428
  874SOL    HW1 3494   2.328   1.460   2.334  0.3462 -0.3242 -0.7207
  874SOL    HW2 3495   2.451   1.473   2.420  0.3367 -4.0368  1.9897
  874SOL     MW 3496   2.383   1.511   2.381  0.0628 -1.1921 -0.5266
  875SOL     OW 3497   2.289   2.278   1.058  0.0175  0.0043  0.2881
  875SOL    HW1 3498   2.216   2.313   1.005  1.2840  1.5553 -1.6056
  875SOL    HW2 3499   2.325   2.364   1.085 -1.0799 -0.1403  0.4352
  875SOL     MW 3500   2.284   2.294   1.054  0.0398  0.1899  0.0577
  876SOL     OW 3501   3.034   2.321   1.232  0.1138 -0.6766 -0.1248
  876SOL    HW1 3502   3.080   2.352   1.145  1.1598 -2.3115 -2.0014
  876SOL    HW2 3503   3.095   2.335   1.304  0.4925  1.5765  1.4385
  876SOL     MW 3504   3.048   2.327   1.230  0.3018 -0.5950 -0.1662
  877SOL     OW 3505   3.080   2.757   0.393  0.4504 -0.6545 -0.2828
  877SOL    HW1 3506   3.142   2.826   0.417 -1.0136  2.3339  0.0125
  877SOL    HW2 3507   3.098   2.749   0.301 -1.7531 -0.7887 -0.7620
  877SOL     MW 3508   3.091   2.765   0.384 -0.0335 -0.2779 -0.3071
  878SOL     OW 3509   2.404   1.820   1.245  0.2429  0.2224  0.2539
  878SOL    HW1 3510   2.348   1.743   1.262  2.2347 -0.9007 -0.6386
  878SOL    HW2 3511   2.494   1.794   1.263  0.6617 -2.9728  1.9458
  878SOL     MW 3512   2.409   1.806   1.250  0.5609 -0.3474  0.3594
  879SOL     OW 3513   2.676   2.452   0.934  0.1964 -0.5708  0.3012
  879SOL    HW1 3514   2.751   2.505   0.959 -0.3626  1.4214 -1.2576
  879SOL    HW2 3515   2.727   2.378   0.891  1.5800 -0.0062 -0.9488
  879SOL     MW 3516   2.693   2.449   0.931  0.3052 -0.2335 -0.0694
  880SOL     OW 3517   2.540   2.176   0.674 -0.8866 -0.5535  0.3047
  880SOL    HW1 3518   2.520   2.151   0.758  1.5212 -1.6117 -3.2223
  880SOL    HW2 3519   2.568   2.097   0.627 -0.2584 -2.3552 -0.5666
  880SOL     MW 3520   2.541   2.162   0.679 -0.4860 -0.9308 -0.2756
  881SOL     OW 3521   2.948   2.663   0.753  0.0894 -0.3060  0.7756
  881SOL    HW1 3522   2.893   2.611   0.690  0.6181 -0.6688 -2.9096
  881SOL    HW2 3523   3.040   2.647   0.729  1.9868  1.8862  2.8092
  881SOL     MW 3524   2.953   2.654   0.742  0.4095 -0.0646  0.5577
  882SOL     OW 3525   2.252   2.857   1.971 -0.7670  0.7122 -0.7834
  882SOL    HW1 3526   2.270   2.838   1.876  3.2480 -0.1051  0.3479
  882SOL    HW2 3527   2.200   2.780   2.009  1.3564 -0.0511  2.0554
  882SOL     MW 3528   2.247   2.845   1.963  0.0429  0.5037 -0.2596
  883SOL     OW 3529   2.315   2.319   1.437  0.0473  0.1873 -0.0407
  883SOL    HW1 3530   2.364   2.247   1.395  1.4019 -2.1469  0.9677
  883SOL    HW2 3531   2.220   2.307   1.410 -0.1936  1.1487  1.3540
  883SOL     MW 3532   2.309   2.308   1.427  0.1943  0.0062  0.2764
  884SOL     OW 3533   1.986   1.848   1.123  1.0520 -0.1845 -0.0141
  884SOL    HW1 3534   1.918   1.918   1.118 -1.6733 -0.3625  0.7555
  884SOL    HW2 3535   2.062   1.904   1.136 -0.4473 -1.0557  3.0224
  884SOL     MW 3536   1.987   1.865   1.124  0.4946 -0.3230  0.4881
  885SOL     OW 3537   2.831   2.431   1.821 -0.4608  0.3386 -0.1093
  885SOL    HW1 3538   2.920   2.384   1.825  0.1051  0.4123  1.2675
  885SOL    HW2 3539   2.771   2.367   1.770 -0.5123 -1.8889  0.7880
  885SOL     MW 3540   2.835   2.417   1.815 -0.3929  0.0544  0.1907
  886SOL     OW 3541   2.800   2.365   1.342  0.3459 -0.0332 -0.1452
  886SOL    HW1 3542   2.881   2.340   1.298 -1.4783 -1.8507  0.4645
  886SOL    HW2 3543   2.805   2.460   1.360 -1.5128  0.7148 -0.9249
  886SOL     MW 3544   2.811   2.374   1.338 -0.1400 -0.1743 -0.1676
  887SOL     OW 3545   2.309   2.613   1.543 -0.4277 -0.2607  0.1802
  887SOL    HW1 3546   2.346   2.665   1.463 -0.0044 -1.6277  0.2875
  887SOL    HW2 3547   2.225   2.579   1.512 -1.9914  0.8712  3.3839
  887SOL     MW 3548   2.303   2.616   1.528 -0.5782 -0.2917  0.6171
  888SOL     OW 3549   1.865   2.069   1.384 -0.6022  0.3329 -0.0944
  888SOL    HW1 3550   1.940   2.117   1.346 -2.1922 -1.2626 -1.8148
  888SOL    HW2 3551   1.874   2.110   1.473  1.7240  1.5361  1.6356
  888SOL     MW 3552   1.876   2.081   1.391 -0.5051  0.2812 -0.0931
  889SOL     OW 3553   2.310   1.984   2.116  0.1898 -0.2015 -0.1131
  889SOL    HW1 3554   2.396   1.984   2.157  1.3114 -0.7023 -1.1066
  889SOL    HW2 3555   2.316   2.065   2.066 -0.0783 -0.0654 -1.1456
  889SOL     MW 3556   2.322   1.995   2.115  0.3024 -0.2496 -0.3804
  890SOL     OW 3557   0.086   2.371   0.209  0.0455  0.0628  0.0173
  890SOL    HW1 3558   0.020   2.439   0.190  0.3079  4.4627 -2.6047
  890SOL    HW2 3559   0.067   2.327   0.292  0.2307  1.1008 -0.0300
  890SOL     MW 3560   0.075   2.374   0.217  0.1046  0.7803 -0.3349
  891SOL     OW 3561   2.981   2.052   1.297  0.0361  0.6011 -0.0605
  891SOL    HW1 3562   3.054   2.041   1.364 -0.3054  0.0972 -0.7560
  891SOL    HW2 3563   2.996   2.136   1.248 -0.3628  0.5780  1.8614
  891SOL     MW 3564   2.992   2.062   1.300 -0.0616  0.5315  0.1013
  892SOL     OW 3565   2.427   2.365   2.860  0.3963 -0.0561 -0.4819
  892SOL    HW1 3566   2.428   2.272   2.886  0.6181  1.6288 -0.7754
  892SOL    HW2 3567   2.516   2.392   2.877 -0.1561 -1.7000 -0.4859
  892SOL     MW 3568   2.439   2.356   2.866  0.3527 -0.0507 -0.5211
  893SOL     OW 3569   1.587   2.393   1.262  0.0081 -0.8112  0.4941
  893SOL    HW1 3570   1.520   2.442   1.318 -0.6079  0.3658  0.1501
  893SOL    HW2 3571   1.673   2.385   1.305 -2.5573 -1.0109  0.7269
  893SOL     MW 3572   1.590   2.398   1.275 -0.4116 -0.6822  0.4794
  894SOL     OW 3573   2.821   1.826   0.436  0.3832 -0.5939  0.0508
  894SOL    HW1 3574   2.720   1.841   0.451 -5.5112  1.7290 -1.1430
  894SOL    HW2 3575   2.821   1.799   0.346  1.3435 -0.2593  1.5967
  894SOL     MW 3576   2.807   1.825   0.426 -0.2678 -0.2433  0.0972
  895SOL     OW 3577   2.073   2.227   1.306 -0.2125  0.0908  0.3542
  895SOL    HW1 3578   2.055   2.291   1.240  1.5816 -2.1106  0.9271
  895SOL    HW2 3579   2.121   2.154   1.258 -1.0032  0.6890  1.2185
  895SOL     MW 3580   2.077   2.226   1.291 -0.0801 -0.1207  0.5438
  896SOL     OW 3581   2.145   2.826   1.090 -0.5464 -0.0418 -0.0062
  896SOL    HW1 3582   2.215   2.812   1.150 -2.5921  0.3041 -0.0022
  896SOL    HW2 3583   2.074   2.770   1.131  0.5917  0.7343 -0.0132
  896SOL     MW 3584   2.145   2.816   1.104 -0.6661  0.1063 -0.0066
  897SOL     OW 3585   2.992   2.911   0.094  0.3073  0.2158 -0.3790
  897SOL    HW1 3586   3.081   2.879   0.075  2.4965  2.7765 -0.2833
  897SOL    HW2 3587   2.941   2.863   0.034  0.4608  2.8158  1.8001
  897SOL     MW 3588   2.997   2.901   0.084  0.6164  0.8967 -0.0789
  898SOL     OW 3589   2.092   0.229   1.422 -0.0804  0.9942 -0.4059
  898SOL    HW1 3590   2.033   0.153   1.422 -1.5429 -0.8562 -0.9533
  898SOL    HW2 3591   2.093   0.259   1.331 -1.2241 -0.7559 -1.1817
  898SOL     MW 3592   2.084   0.223   1.410 -0.4243  0.5191 -0.5805
  899SOL     OW 3593   2.911   2.911   0.658  0.1118 -0.8771 -0.3922
  899SOL    HW1 3594   2.917   2.825   0.703 -1.2839  0.3701  0.6543
  899SOL    HW2 3595   2.824   2.944   0.689  0.4875 -0.0377  0.9674
  899SOL     MW 3596   2.900   2.904   0.668 -0.0228 -0.6018 -0.0748
  900SOL     OW 3597   0.102   2.387   1.033 -0.6774  0.1335 -0.0260
  900SOL    HW1 3598   0.126   2.472   1.007  0.6881 -0.4729  0.6495
  900SOL    HW2 3599   0.094   2.334   0.952  0.0885  0.4569 -0.6930
  900SOL     MW 3600   0.104   2.391   1.019 -0.3962  0.0962 -0.0249
  901SOL     OW 3601   1.800   2.856   1.669  0.0412 -0.1513  0.4119
  901SOL    HW1 3602   1.856   2.780   1.657 -1.9240 -0.2640  0.6817
  901SOL    HW2 3603   1.716   2.842   1.616 -0.6277 -1.4911 -1.6149
  901SOL     MW 3604   1.796   2.844   1.660 -0.3063 -0.3429  0.1801
  902SOL     OW 3605   2.631   2.088   1.860  0.8044  0.5731 -0.0296
  902SOL    HW1 3606   2.627   1.997   1.835 -1.2817  0.8596  0.4052
  902SOL    HW2 3607   2.723   2.112   1.885  1.7869 -0.2934 -1.1243
  902SOL     MW 3608   2.643   2.079   1.860  0.6588  0.4966 -0.1167
  903SOL     OW 3609   1.613   2.772   0.522  0.3389 -0.1056  0.2411
  903SOL    HW1 3610   1.653   2.695   0.574  0.8953 -0.6370 -1.6197
  903SOL    HW2 3611   1.578   2.831   0.588  1.1938  1.3571  0.1564
  903SOL     MW 3612   1.614   2.770   0.538  0.5251  0.0173 -0.0156
  904SOL     OW 3613   2.492   2.535   1.720  0.0280 -0.2804 -0.1313
  904SOL    HW1 3614   2.432   2.561   1.649  2.2466 -1.3651 -0.4247
  904SOL    HW2 3615   2.541   2.463   1.683 -2.2201  1.1602  1.8399
  904SOL     MW 3616   2.491   2.529   1.706  0.0241 -0.2334  0.0901
  905SOL     OW 3617   2.316   2.516   2.207 -0.5416  0.4355 -0.1823
  905SOL    HW1 3618   2.364   2.481   2.129  2.7083  1.0312  0.3358
  905SOL    HW2 3619   2.279   2.432   2.254  1.8941  1.4725  0.1927
  905SOL     MW 3620   2.317   2.500   2.203  0.2086  0.6509 -0.0644
  906SOL     OW 3621   2.405   2.503   0.878  0.0174  0.0789  0.4058
  906SOL    HW1 3622   2.498   2.497   0.898  0.0358  1.4120  3.0232
  906SOL    HW2 3623   2.390   2.594   0.903  1.2581  2.0083  0.2664
  906SOL     MW 3624   2.415   2.514   0.884  0.1835  0.5094  0.7328
  907SOL     OW 3625   2.561   2.921   1.288 -0.3328 -0.7804  0.4401
  907SOL    HW1 3626   2.623   2.975   1.342 -1.7151  1.2664 -1.2846
  907SOL    HW2 3627   2.615   2.872   1.219 -0.6731  2.5779  1.6911
  907SOL     MW 3628   2.576   2.922   1.286 -0.5601 -0.0673  0.3776
  908SOL     OW 3629   2.764   2.382   3.084 -0.2091 -0.4919  0.3281
  908SOL    HW1 3630   2.693   2.309   3.095  2.5089 -0.5583  0.8191
  908SOL    HW2 3631   2.736   2.455   3.140  2.4230 -0.3986  3.0574
  908SOL     MW 3632   2.751   2.382   3.093  0.4968 -0.4884  0.7530
  909SOL     OW 3633   1.590   0.181   1.128 -0.0244 -0.0687  0.8262
  909SOL    HW1 3634   1.644   0.235   1.072  0.6962 -2.5717  1.8702
  909SOL    HW2 3635   1.588   0.227   1.216  2.1534  0.7854  0.2303
  909SOL     MW 3636   1.597   0.194   1.132  0.3580 -0.2863  0.8853
  910SOL     OW 3637   2.296   1.761   0.431  0.4640  0.4908  0.5588
  910SOL    HW1 3638   2.232   1.693   0.443  0.5381  1.2936  1.1822
  910SOL    HW2 3639   2.265   1.809   0.350  0.9639  1.3735 -0.6732
  910SOL     MW 3640   2.284   1.758   0.422  0.5398  0.7132  0.4785
  911SOL     OW 3641   2.207   2.255   1.707 -0.0354  0.1159  0.3051
  911SOL    HW1 3642   2.269   2.232   1.779 -2.6589 -0.2070 -0.3176
  911SOL    HW2 3643   2.258   2.292   1.627  0.5172  0.4905 -0.0821
  911SOL     MW 3644   2.222   2.257   1.706 -0.3086  0.1227  0.1718
  912SOL     OW 3645   2.844   1.952   1.530 -0.0933 -0.2599 -0.1317
  912SOL    HW1 3646   2.861   1.974   1.437  0.1246 -1.5329 -3.3096
  912SOL    HW2 3647   2.763   1.989   1.561  1.1960  0.6674  1.3365
  912SOL     MW 3648   2.835   1.960   1.522  0.1055 -0.3055 -0.3573
  913SOL     OW 3649   2.562   2.983   0.387  0.2732  0.2770 -0.6582
  913SOL    HW1 3650   2.646   2.934   0.390  0.7144 -0.4944 -2.1114
  913SOL    HW2 3651   2.489   2.927   0.409  0.0943 -0.0971  0.5137
  913SOL     MW 3652   2.563   2.969   0.390  0.3078  0.1258 -0.6953
  914SOL     OW 3653   2.760   1.620   3.050 -0.0559 -0.0852 -0.6022
  914SOL    HW1 3654   2.739   1.699   3.004  2.9718 -1.8065 -2.0577
  914SOL    HW2 3655   2.684   1.620   3.121  0.3633 -1.0675  1.0727
  914SOL     MW 3656   2.747   1.630   3.054  0.3989 -0.4419 -0.5733
  915SOL     OW 3657   1.813   0.258   0.170  0.2110 -0.0996  0.1581
  915SOL    HW1 3658   1.853   0.195   0.227 -2.6637  1.0304  0.6440
  915SOL    HW2 3659   1.719   0.248   0.175  0.2623  0.9806  0.3124
  915SOL     MW 3660   1.806   0.248   0.178 -0.1615  0.1920  0.2426
  916SOL     OW 3661   1.725   2.085   1.947 -0.2867 -0.3712 -0.2225
  916SOL    HW1 3662   1.747   2.179   1.921  1.0781 -1.3293 -2.8137
  916SOL    HW2 3663   1.743   2.033   1.867  0.0707 -0.3084 -1.7775
  916SOL     MW 3664   1.731   2.091   1.933 -0.0595 -0.4894 -0.7696
  917SOL     OW 3665   2.428   2.311   2.592 -0.3332  0.1232 -0.2794
  917SOL    HW1 3666   2.457   2.335   2.681  1.2238  0.1965 -0.0665
  917SOL    HW2 3667   2.495   2.345   2.533 -1.0289  0.5683  0.1271
  917SOL     MW 3668   2.441   2.319   2.596 -0.2196  0.1916 -0.1977
  918SOL     OW 3669   2.018   1.651   2.717 -0.7637 -0.3755 -0.0425
  918SOL    HW1 3670   1.951   1.674   2.651 -0.4511 -2.9576  1.4393
  918SOL    HW2 3671   2.105   1.688   2.693  1.9405  2.3105  0.4259
  918SOL     MW 3672   2.021   1.659   2.705 -0.3657 -0.3618  0.2148
  919SOL     OW 3673   0.060   2.357   2.264 -0.1330  0.0152  0.1189
  919SOL    HW1 3674  -0.025   2.301   2.247 -0.2846 -1.1043 -0.6429
  919SOL    HW2 3675   0.130   2.330   2.199 -0.1593 -0.4747 -0.1528
  919SOL     MW 3676   0.058   2.346   2.253 -0.1565 -0.1971 -0.0175
  920SOL     OW 3677   2.756   2.794   3.093 -0.2369 -0.1574  0.1144
  920SOL    HW1 3678   2.704   2.870   3.131  1.6573 -0.2958  0.1764
  920SOL    HW2 3679   2.732   2.784   2.994 -1.5096 -2.1724 -1.7208
  920SOL     MW 3680   2.746   2.803   3.085 -0.1549 -0.4415 -0.1195
  921SOL     OW 3681   2.447   2.624   2.689 -0.5186  0.2019 -0.0032
  921SOL    HW1 3682   2.519   2.623   2.622  0.9595  3.0312  4.9405
  921SOL    HW2 3683   2.428   2.536   2.716 -2.3515 -1.3934  1.0349
  921SOL     MW 3684   2.454   2.612   2.683 -0.5654  0.3647  0.7860
  922SOL     OW 3685   1.999   2.780   0.325  0.2599 -0.1312 -0.1447
  922SOL    HW1 3686   1.990   2.783   0.230 -0.2811 -2.4745 -0.5739
  922SOL    HW2 3687   1.950   2.709   0.353  3.1081  2.1899 -0.3383
  922SOL     MW 3688   1.991   2.771   0.316  0.5643 -0.1341 -0.2269
  923SOL     OW 3689   2.217   2.802   1.697 -0.1840 -0.5896  0.5936
  923SOL    HW1 3690   2.272   2.741   1.640 -0.2636 -0.0929 -0.0562
  923SOL    HW2 3691   2.187   2.861   1.625  0.7707  2.8515  0.7001
  923SOL     MW 3692   2.221   2.801   1.680 -0.0685 -0.0700  0.5219
  924SOL     OW 3693   1.192   2.703   2.567 -0.3916 -0.5026 -0.4670
  924SOL    HW1 3694   1.258   2.743   2.506  1.2232  0.5428  1.5097
  924SOL    HW2 3695   1.247   2.637   2.614  2.1756 -0.7642 -0.0215
  924SOL     MW 3696   1.208   2.700   2.565  0.1602 -0.3991 -0.1474
  925SOL     OW 3697   2.962   0.227   2.581 -0.0382 -0.1304  0.5012
  925SOL    HW1 3698   3.022   0.279   2.515 -0.6996  0.4678 -3.3436
  925SOL    HW2 3699   2.905   0.293   2.618  0.4457  0.9007 -0.6607
  925SOL     MW 3700   2.962   0.243   2.577 -0.0616  0.0846 -0.1594
  926SOL     OW 3701   2.738   2.407   2.057  0.3605  0.0532  0.1092
  926SOL    HW1 3702   2.767   2.469   2.123 -0.4540 -0.9016  2.1647
  926SOL    HW2 3703   2.771   2.432   1.970 -1.1628 -1.1913  0.2407
  926SOL     MW 3704   2.746   2.418   2.054  0.0521 -0.2370  0.3977
  927SOL     OW 3705   2.332   0.179   0.305 -0.4706  0.6243 -0.0825
  927SOL    HW1 3706   2.426   0.178   0.290  0.4412 -0.9306 -1.8023
  927SOL    HW2 3707   2.300   0.168   0.214 -1.4554  0.0650 -1.7823
  927SOL     MW 3708   2.340   0.178   0.291 -0.4802  0.3453 -0.5336
  928SOL     OW 3709   2.079   2.436   1.851  0.0103 -0.1284  0.2521
  928SOL    HW1 3710   2.137   2.384   1.793 -1.0962 -1.9369  0.1380
  928SOL    HW2 3711   2.132   2.455   1.930  1.3068  0.7483  0.8408
  928SOL     MW 3712   2.093   2.432   1.854  0.0354 -0.2514  0.3148
  929SOL     OW 3713   2.664   2.360   2.434  0.2793 -0.1308 -0.0214
  929SOL    HW1 3714   2.720   2.358   2.353  0.4095 -0.7620  0.5519
  929SOL    HW2 3715   2.715   2.331   2.508 -2.5371 -1.0184 -0.8584
  929SOL     MW 3716   2.678   2.356   2.433 -0.0751 -0.3312 -0.0562
  930SOL     OW 3717   2.017   2.867   2.670  0.0428 -0.2999  0.3227
  930SOL    HW1 3718   2.006   2.799   2.746 -0.6316 -1.3715  2.2306
  930SOL    HW2 3719   2.102   2.903   2.668 -1.1829 -2.5334 -0.0852
  930SOL     MW 3720   2.027   2.863   2.680 -0.2079 -0.7360  0.5206
  931SOL     OW 3721   2.955   2.815   2.259  0.3317 -0.0310  0.2699
  931SOL    HW1 3722   3.016   2.837   2.332  0.5757  1.6206  1.7553
  931SOL    HW2 3723   3.017   2.799   2.186 -1.9680 -2.1375  1.0055
  931SOL     MW 3724   2.971   2.816   2.259  0.0605 -0.0910  0.5629
  932SOL     OW 3725   2.910   1.957   2.527 -0.2742  0.5348 -0.6778
  932SOL    HW1 3726   2.989   2.014   2.545  1.5046 -3.0304 -1.2276
  932SOL    HW2 3727   2.904   1.952   2.431  1.6215  0.3008 -0.7902
  932SOL     MW 3728   2.919   1.964   2.517  0.2106  0.0336 -0.7652
  933SOL     OW 3729   2.084   2.891   2.230 -0.4437  0.0552  0.0684
  933SOL    HW1 3730   2.163   2.937   2.262  0.9034 -1.5711  1.3159
  933SOL    HW2 3731   2.020   2.957   2.208  0.0689  1.8196  1.7729
  933SOL     MW 3732   2.086   2.906   2.231 -0.1984  0.0734  0.4579
  934SOL     OW 3733   1.997   2.724   2.440 -0.1275 -0.0925 -0.2686
  934SOL    HW1 3734   2.000   2.780   2.522 -2.1981  1.5051 -0.1765
  934SOL    HW2 3735   2.039   2.779   2.373  2.1477 -0.2489 -1.0600
  934SOL     MW 3736   2.003   2.738   2.442 -0.1005  0.0977 -0.3609
  935SOL     OW 3737   2.638   1.552   1.813 -0.5719  0.7102  0.9325
  935SOL    HW1 3738   2.724   1.539   1.762  0.6162  0.1531  0.2996
  935SOL    HW2 3739   2.574   1.509   1.752 -1.8565 -3.2823 -0.2114
  935SOL     MW 3740   2.641   1.545   1.799 -0.5846  0.1099  0.6980
  936SOL     OW 3741   3.010   2.240   3.080  0.1890  0.7263 -0.2649
  936SOL    HW1 3742   3.083   2.274   3.129  1.6816 -1.6478 -2.1262
  936SOL    HW2 3743   2.940   2.304   3.106 -0.0441 -0.3542  1.0815
  936SOL     MW 3744   3.010   2.253   3.090  0.3552  0.2705 -0.3328
  937SOL     OW 3745   2.022   2.172   2.690 -0.5545 -0.2856 -0.1174
  937SOL    HW1 3746   2.093   2.139   2.741  1.8053 -0.5695  0.1656
  937SOL    HW2 3747   2.028   2.123   2.604 -0.0339 -2.1569  1.2965
  937SOL     MW 3748   2.032   2.161   2.685 -0.1744 -0.5699  0.1065
  938SOL     OW 3749   2.293   1.799   1.888 -0.0767  0.3584 -0.5746
  938SOL    HW1 3750   2.269   1.870   1.821 -0.3388 -1.2098 -0.4707
  938SOL    HW2 3751   2.311   1.860   1.958  0.5351  0.5095 -0.8339
  938SOL     MW 3752   2.292   1.817   1.888 -0.0306  0.1715 -0.5951
  939SOL     OW 3753   2.834   2.000   2.255  0.0942 -0.0242 -0.5838
  939SOL    HW1 3754   2.829   1.926   2.193  2.8827 -1.2125  0.5240
  939SOL    HW2 3755   2.744   2.001   2.289  1.8924  2.8696  0.3244
  939SOL     MW 3756   2.821   1.990   2.251  0.6993  0.2008 -0.3178
  940SOL     OW 3757   2.309   0.162   2.689  0.2541  0.3464 -0.1142
  940SOL    HW1 3758   2.278   0.072   2.658  0.5526 -1.7032 -1.5733
  940SOL    HW2 3759   2.358   0.144   2.774 -0.2266 -0.2955 -0.8233
  940SOL     MW 3760   2.311   0.148   2.696  0.2301 -0.0087 -0.4003
  941SOL     OW 3761   0.219   2.283   2.042  0.6467 -0.5562 -0.3816
  941SOL    HW1 3762   0.304   2.240   2.056 -4.1912  0.1001  1.9040
  941SOL    HW2 3763   0.213   2.280   1.947 -2.0389 -4.4104  4.3894
  941SOL     MW 3764   0.229   2.277   2.031 -0.3460 -0.9781  0.5495
  942SOL     OW 3765   2.937   2.224   2.175 -0.4582 -0.2096 -0.1297
  942SOL    HW1 3766   2.859   2.276   2.138 -0.3530  0.1887 -2.4863
  942SOL    HW2 3767   2.902   2.134   2.198  2.3504  1.2627 -3.9832
  942SOL     MW 3768   2.922   2.219   2.173 -0.0737  0.0372 -0.9491
  943SOL     OW 3769   0.391   2.004   2.309 -0.7439  0.2837  0.9065
  943SOL    HW1 3770   0.332   2.050   2.364 -0.0790 -0.1639 -0.8579
  943SOL    HW2 3771   0.471   1.974   2.358  0.9107 -0.6385 -0.5518
  943SOL     MW 3772   0.394   2.006   2.323 -0.4379  0.1030  0.4813
  944SOL     OW 3773   2.110   2.652   2.089  0.0985  0.0251 -0.2071
  944SOL    HW1 3774   2.178   2.598   2.136 -0.5262  1.6387 -0.2401
  944SOL    HW2 3775   2.090   2.728   2.145 -2.2163 -0.4923 -0.8416
  944SOL     MW 3776   2.117   2.655   2.103 -0.2893  0.1697 -0.2952
  945SOL     OW 3777   2.775   2.708   2.835 -0.3761  0.2542  0.5355
  945SOL    HW1 3778   2.742   2.613   2.830 -3.0554  0.3615  0.1058
  945SOL    HW2 3779   2.816   2.713   2.745 -0.5452  0.4612  1.2124
  945SOL     MW 3780   2.776   2.696   2.822 -0.7519  0.2957  0.5681
  946SOL     OW 3781   2.455   2.740   2.265  0.1605  0.1978 -0.3769
  946SOL    HW1 3782   2.481   2.777   2.183 -0.1650  2.7584  0.5551
  946SOL    HW2 3783   2.405   2.662   2.246  1.4647  1.5983  2.7147
  946SOL     MW 3784   2.452   2.734   2.252  0.2896  0.7204  0.1540
  947SOL     OW 3785   2.018   0.089   0.237  0.8277  0.2607  0.1549
  947SOL    HW1 3786   2.074   0.045   0.177 -2.8060  1.5893  3.6988
  947SOL    HW2 3787   2.060   0.065   0.319 -1.7913  0.3003 -3.0135
  947SOL     MW 3788   2.031   0.080   0.240  0.0027  0.4413  0.2044
  948SOL     OW 3789   1.796   3.049   2.665 -0.2014 -0.4695  0.2929
  948SOL    HW1 3790   1.847   2.968   2.641  0.4391  1.5039  1.6854
  948SOL    HW2 3791   1.772   3.082   2.578  2.1929 -0.2170 -2.5410
  948SOL     MW 3792   1.800   3.043   2.651  0.1990 -0.1758  0.1027
  949SOL     OW 3793   2.552   1.977   2.277 -0.0861  0.1149 -0.2789
  949SOL    HW1 3794   2.551   1.892   2.315 -0.2386 -1.9911 -1.3156
  949SOL    HW2 3795   2.491   2.037   2.321 -1.4328 -0.0590 -1.5105
  949SOL     MW 3796   2.544   1.974   2.288 -0.2839 -0.1859 -0.5782
  950SOL     OW 3797   2.242   2.541   3.021 -0.5230 -0.3779 -0.1253
  950SOL    HW1 3798   2.312   2.486   2.979  0.6196  1.5066  0.4881
  950SOL    HW2 3799   2.182   2.574   2.946 -1.4249 -0.2781 -0.1392
  950SOL     MW 3800   2.243   2.538   3.005 -0.4912 -0.1161 -0.0462
  951SOL     OW 3801   2.961   2.109   2.830 -0.2528  0.4339  0.1220
  951SOL    HW1 3802   2.960   2.162   2.915  0.7333  1.3486  0.7876
  951SOL    HW2 3803   3.049   2.106   2.790 -0.3699 -2.5477 -0.9406
  951SOL     MW 3804   2.972   2.116   2.836 -0.1382  0.1612  0.0696
  952SOL     OW 3805   3.083   1.757   2.149  0.2846  0.1205  0.5666
  952SOL    HW1 3806   3.015   1.804   2.099  3.0405  1.9774  0.7663
  952SOL    HW2 3807   3.155   1.813   2.134 -0.8149 -0.7269  1.3659
  952SOL     MW 3808   3.084   1.770   2.140  0.5032  0.2537  0.6984
  953SOL     OW 3809   1.937   1.782   2.920  0.3095  0.4089  0.0527
  953SOL    HW1 3810   1.839   1.747   2.919 -2.0084 -1.2363  2.7207
  953SOL    HW2 3811   1.974   1.724   2.849  0.8014 -0.4122 -3.2359
  953SOL     MW 3812   1.929   1.770   2.911  0.0686  0.0835 -0.0292
  954SOL     OW 3813   2.490   2.065   2.885  0.3126 -0.4568 -0.0711
  954SOL    HW1 3814   2.403   2.038   2.846  0.7373  2.3411  0.1244
  954SOL    HW2 3815   2.562   2.033   2.826  1.5201  1.1216 -0.8358
  954SOL     MW 3816   2.488   2.057   2.872  0.5279  0.1206 -0.1462
  955SOL     OW 3817   1.594   1.632   2.546  0.0883  0.2210  0.1338
  955SOL    HW1 3818   1.572   1.646   2.450  1.6302 -1.8085  2.2978
  955SOL    HW2 3819   1.677   1.671   2.555 -3.5513 -2.7624 -0.7506
  955SOL     MW 3820   1.602   1.639   2.534 -0.1885 -0.4404  0.3026
  956SOL     OW 3821   2.674   2.459   2.847  0.0782 -0.3288  0.0259
  956SOL    HW1 3822   2.706   2.433   2.941 -1.1361 -2.8296 -1.0012
  956SOL    HW2 3823   2.713   2.398   2.785  5.7435  0.1404  0.0517
  956SOL     MW 3824   2.683   2.448   2.851  0.6655 -0.5968 -0.1062
  957SOL     OW 3825   2.244   2.878   0.389  0.0857  0.9566 -0.1508
  957SOL    HW1 3826   2.163   2.834   0.357  1.7547 -2.0696 -2.2873
  957SOL    HW2 3827   2.261   2.831   0.468  0.2968  1.2315 -2.4018
  957SOL     MW 3828   2.235   2.866   0.395  0.3338  0.5936 -0.7297
  958SOL     OW 3829   2.007   2.647   2.827  0.4989 -0.9400 -0.2227
  958SOL    HW1 3830   2.002   2.605   2.748 -0.3967  0.5322  1.0667
  958SOL    HW2 3831   1.931   2.620   2.879  1.3751  2.0187  2.7891
  958SOL     MW 3832   1.996   2.638   2.824  0.4963 -0.3554  0.3448
  959SOL     OW 3833   2.447   2.614   0.344 -0.2607  0.3652  0.9215
  959SOL    HW1 3834   2.518   2.622   0.279  2.6252  2.9675 -2.4109
  959SOL    HW2 3835   2.391   2.688   0.334 -2.0971 -2.1120 -0.5297
  959SOL     MW 3836   2.449   2.625   0.335 -0.1222  0.3817  0.2903
  960SOL     OW 3837   1.924   2.333   2.260  0.4068 -0.1947 -0.4801
  960SOL    HW1 3838   1.894   2.267   2.198  2.8441  0.5501 -0.3845
  960SOL    HW2 3839   1.870   2.338   2.338  0.7530 -0.4110  0.2743
  960SOL     MW 3840   1.913   2.325   2.262  0.7740 -0.1250 -0.3679
  961SOL     OW 3841   2.194   2.316   2.355  0.4484 -0.6322 -0.4476
  961SOL    HW1 3842   2.113   2.323   2.315  1.7006  1.3607  0.6689
  961SOL    HW2 3843   2.183   2.383   2.428  0.0469  1.0092 -1.8131
  961SOL     MW 3844   2.182   2.326   2.359  0.5607 -0.1527 -0.4805
  962SOL     OW 3845   2.226   1.991   2.801 -0.4449  0.3840 -0.1082
  962SOL    HW1 3846   2.175   1.984   2.883  0.0390  1.7403 -1.6555
  962SOL    HW2 3847   2.210   1.916   2.742  0.2062 -0.4655  2.2645
  962SOL     MW 3848   2.217   1.980   2.804 -0.2951  0.4509  0.0007
  963SOL     OW 3849   1.835   2.589   1.993  0.0345  0.4083 -0.1616
  963SOL    HW1 3850   1.920   2.611   2.039  2.0999  0.6975  1.0893
  963SOL    HW2 3851   1.846   2.490   1.969  2.9183 -1.6303  2.6108
  963SOL     MW 3852   1.847   2.579   1.996  0.6875  0.1774  0.3692
  964SOL     OW 3853   1.837   1.980   2.754 -0.5026  0.0181 -0.0256
  964SOL    HW1 3854   1.903   2.058   2.720  1.0135  1.4263  1.5897
  964SOL    HW2 3855   1.895   1.921   2.802 -3.2142 -0.1434  1.3485
  964SOL     MW 3856   1.853   1.982   2.756 -0.6603  0.1826  0.3689
  965SOL     OW 3857   2.248   2.731   0.626 -0.1644 -0.4291  0.0949
  965SOL    HW1 3858   2.195   2.647   0.629  0.0209  0.7380  1.0436
  965SOL    HW2 3859   2.290   2.735   0.713  0.0718 -2.0782 -0.3494
  965SOL     MW 3860   2.247   2.721   0.638 -0.1088 -0.4927  0.1615
  966SOL     OW 3861   2.620   2.646   2.456 -0.7425  0.1509 -0.0803
  966SOL    HW1 3862   2.558   2.676   2.392  0.9798 -1.8358 -0.8538
  966SOL    HW2 3863   2.653   2.551   2.432  1.1584 -2.6520 -0.7281
  966SOL     MW 3864   2.616   2.638   2.445 -0.2645 -0.4811 -0.2678
  967SOL     OW 3865   2.918   3.019   2.902  0.1516 -0.4340 -0.0101
  967SOL    HW1 3866   2.932   2.925   2.914  1.0435  0.4950 -0.8623
  967SOL    HW2 3867   2.827   3.021   2.869 -1.1791  1.1160  0.0440
  967SOL     MW 3868   2.908   3.007   2.899  0.0937 -0.1069 -0.1154
  968SOL     OW 3869   2.994   2.604   2.961  0.1258  0.0033  0.3649
  968SOL    HW1 3870   2.910   2.648   2.924 -1.8884  0.4320  0.7357
  968SOL    HW2 3871   3.014   2.531   2.909 -1.8003 -0.2405  0.4491
  968SOL     MW 3872   2.985   2.600   2.949 -0.3941  0.0277  0.4249
  969SOL     OW 3873   1.520   2.116   1.688  0.6524 -0.3107  0.0870
  969SOL    HW1 3874   1.574   2.036   1.686 -3.8632  0.5767  1.2334
  969SOL    HW2 3875   1.474   2.113   1.775 -0.0435  1.0556  0.1278
  969SOL     MW 3876   1.521   2.105   1.699 -0.0352 -0.0134  0.2437
  970SOL     OW 3877   1.658   1.654   1.805 -0.9031  0.2725 -0.0952
  970SOL    HW1 3878   1.709   1.649   1.884 -0.2398  3.1146  0.8221
  970SOL    HW2 3879   1.578   1.706   1.829  2.3499  0.8908  0.0606
  970SOL     MW 3880   1.654   1.660   1.819 -0.3864  0.7291  0.0464
  971SOL     OW 3881   1.773   0.010   2.375  0.1532 -0.1633  0.1124
  971SOL    HW1 3882   1.771  -0.025   2.278  0.3092 -2.0754  1.3318
  971SOL    HW2 3883   1.869   0.040   2.406  1.4958  0.8054 -0.1625
  971SOL     MW 3884   1.786   0.010   2.366  0.3509 -0.2878  0.2370
  972SOL     OW 3885   0.265   2.831   2.447  0.6403  0.1313  0.0778
  972SOL    HW1 3886   0.287   2.746   2.491 -2.7410  1.4033  2.3232
  972SOL    HW2 3887   0.316   2.909   2.475 -0.6035 -0.3350 -1.5912
  972SOL     MW 3888   0.275   2.830   2.457  0.0301  0.2376  0.1539
  973SOL     OW 3889   2.577   0.021   2.122 -0.5313  0.1414  0.0130
  973SOL    HW1 3890   2.561  -0.065   2.085 -1.5734  1.5744 -1.6284
  973SOL    HW2 3891   2.588   0.075   2.048  2.4374  0.5067  0.1698
  973SOL     MW 3892   2.576   0.017   2.107 -0.2771  0.3787 -0.1829
  974SOL     OW 3893   2.069   0.264   2.736 -0.4572 -0.2635 -0.3252
  974SOL    HW1 3894   2.164   0.244   2.722  1.9638 -0.4231 -1.4545
  974SOL    HW2 3895   2.035   0.187   2.792 -0.4358  0.7586 -0.9114
  974SOL     MW 3896   2.077   0.251   2.742 -0.1349 -0.1497 -0.5515
  975SOL     OW 3897   2.176   2.523   2.528  0.6028 -0.4811  0.4567
  975SOL    HW1 3898   2.231   2.548   2.597 -2.0779  1.2368 -0.8865
  975SOL    HW2 3899   2.133   2.602   2.492  1.3502 -1.0906 -1.8214
  975SOL     MW 3900   2.178   2.537   2.532  0.3477 -0.3349 -0.0211
  976SOL     OW 3901   0.261   0.391   1.723  0.0834 -0.1482 -0.7570
  976SOL    HW1 3902   0.325   0.338   1.765  0.6214 -1.3639  1.6211
  976SOL    HW2 3903   0.210   0.319   1.686  0.3569 -2.2297  1.2223
  976SOL     MW 3904   0.263   0.375   1.724  0.1905 -0.5832 -0.1821
  977SOL     OW 3905   1.718   2.716   2.477  0.0969 -0.3450  0.4753
  977SOL    HW1 3906   1.713   2.622   2.459 -0.3891  1.0277 -0.1166
  977SOL    HW2 3907   1.811   2.730   2.460  1.3777  1.1325 -0.5381
  977SOL     MW 3908   1.729   2.705   2.472  0.2018  0.0310  0.2635
   3.10000   3.10000   3.10000
