977 TIP4P/2005f water molecules t=   0.21000 step= 210
 3908
    1SOL     OW    1   0.232   0.780   0.028  0.5631  0.2138 -0.4712
    1SOL    HW1    2   0.236   0.818  -0.057  0.2068  0.8586  0.2483
    1SOL    HW2    3   0.223   0.686   0.008  0.6319 -1.1829 -3.7073
    1SOL     MW    4   0.232   0.772   0.014  0.5252  0.1146 -0.8032
    2SOL     OW    5   0.364   3.025   1.142 -0.0712  0.2041  0.1572
    2SOL    HW1    6   0.415   3.101   1.109 -1.7462 -1.3190  0.2113
    2SOL    HW2    7   0.276   3.061   1.159 -0.3695  0.7166  0.9357
    2SOL     MW    8   0.359   3.040   1.140 -0.3316  0.0707  0.2670
    3SOL     OW    9   2.683   0.395   0.897 -0.3303 -0.4515  0.4865
    3SOL    HW1   10   2.693   0.481   0.845 -1.1765  3.2700 -0.7378
    3SOL    HW2   11   2.687   0.424   0.989  0.3395  2.3868 -1.5284
    3SOL     MW   12   2.684   0.410   0.902 -0.3535  0.4140  0.0591
    4SOL     OW   13   3.093   1.799   0.655 -0.5999  0.8391 -0.6779
    4SOL    HW1   14   3.016   1.827   0.608  2.2546  0.6020  0.9319
    4SOL    HW2   15   3.156   1.781   0.586  0.8655 -0.9214  2.3724
    4SOL     MW   16   3.091   1.800   0.640 -0.0300  0.5755 -0.0631
    5SOL     OW   17   1.695   1.449   0.507 -0.1777 -0.4510  0.0716
    5SOL    HW1   18   1.749   1.418   0.586  4.1912  0.7955  0.4706
    5SOL    HW2   19   1.601   1.437   0.544 -0.7143 -0.1952 -0.6401
    5SOL     MW   20   1.690   1.443   0.523  0.3279 -0.2528  0.0303
    6SOL     OW   21   0.836   1.362   0.598  0.6293  0.2132  0.2146
    6SOL    HW1   22   0.751   1.374   0.646 -0.5049 -0.1097  1.6756
    6SOL    HW2   23   0.880   1.282   0.646  0.0653  1.0161  2.3465
    6SOL     MW   24   0.831   1.353   0.611  0.4052  0.2765  0.6886
    7SOL     OW   25   1.962   1.073   3.100 -0.2094 -0.1094  0.1401
    7SOL    HW1   26   2.001   1.112   3.024 -0.5451  2.3582  3.4623
    7SOL    HW2   27   2.010   1.131   3.160  1.2247  0.4614 -1.1354
    7SOL     MW   28   1.974   1.086   3.098 -0.0645  0.2915  0.4101
    8SOL     OW   29   0.993   1.279   1.065  0.0687  0.4111 -0.2842
    8SOL    HW1   30   1.095   1.285   1.079  1.0620  0.4330 -0.5929
    8SOL    HW2   31   0.979   1.190   1.095  0.7516 -1.7060 -0.1088
    8SOL     MW   32   1.005   1.268   1.070  0.2898  0.1346 -0.3018
    9SOL     OW   33   1.005   0.477   1.402  0.3752 -0.3093 -0.3014
    9SOL    HW1   34   0.928   0.425   1.378 -2.6530  0.3687 -1.0514
    9SOL    HW2   35   1.046   0.437   1.476 -0.7193  0.7550 -1.3448
    9SOL     MW   36   1.000   0.465   1.409 -0.1687 -0.0794 -0.5380
   10SOL     OW   37   0.303   0.865   0.484 -0.0006 -0.5422 -0.0066
   10SOL    HW1   38   0.383   0.912   0.478 -0.8789 -1.6725 -1.9793
   10SOL    HW2   39   0.267   0.909   0.562 -0.4586  0.6236  0.5530
   10SOL     MW   40   0.308   0.877   0.494 -0.1769 -0.5375 -0.1931
   11SOL     OW   41   0.930   1.097   1.533 -0.1049  0.4082  0.2734
   11SOL    HW1   42   0.937   1.099   1.631 -0.4996 -2.6668  1.6098
   11SOL    HW2   43   0.860   1.026   1.512  0.6822 -0.6319 -1.8895
   11SOL     MW   44   0.921   1.088   1.543 -0.0532 -0.1348  0.1643
   12SOL     OW   45   3.081   1.088   0.848  0.6160  0.2079 -0.0561
   12SOL    HW1   46   3.121   1.154   0.897 -1.2062 -1.4265  1.2523
   12SOL    HW2   47   3.029   1.130   0.776  0.1997 -2.5668 -3.2180
   12SOL     MW   48   3.079   1.102   0.845  0.3207 -0.3738 -0.3006
   13SOL     OW   49   1.924   1.446   1.434  0.4145 -0.1581  0.0701
   13SOL    HW1   50   1.932   1.399   1.353  0.6883 -0.3580 -0.6026
   13SOL    HW2   51   1.907   1.537   1.405  1.9249  1.0591 -2.0096
   13SOL     MW   52   1.923   1.452   1.419  0.6499 -0.0238 -0.2930
   14SOL     OW   53   0.600   0.352   1.777  0.4657 -0.2892 -0.1403
   14SOL    HW1   54   0.596   0.273   1.723  0.5051 -0.2771  0.2240
   14SOL    HW2   55   0.687   0.344   1.815  0.5345  0.9684 -2.0914
   14SOL     MW   56   0.611   0.340   1.775  0.4800 -0.1216 -0.3497
   15SOL     OW   57   1.980   0.521   0.925  0.2639 -0.0158  0.2687
   15SOL    HW1   58   1.997   0.509   1.020 -1.1599  0.1375  0.7067
   15SOL    HW2   59   2.065   0.502   0.879 -0.6924 -1.8895 -0.4142
   15SOL     MW   60   1.993   0.517   0.931 -0.0502 -0.2428  0.2364
   16SOL     OW   61   0.192   1.803   0.275  0.1247 -0.3214  0.5241
   16SOL    HW1   62   0.274   1.752   0.293 -0.0779  3.0466  0.4789
   16SOL    HW2   63   0.214   1.887   0.306  0.3034 -1.9465 -2.5209
   16SOL     MW   64   0.206   1.808   0.281  0.1216 -0.0914  0.1164
   17SOL     OW   65   1.089   0.812   1.448 -0.2863  0.0577 -0.3905
   17SOL    HW1   66   1.120   0.834   1.541 -0.3102 -1.6702  0.0336
   17SOL    HW2   67   1.008   0.766   1.458 -0.4415 -1.0062  0.7869
   17SOL     MW   68   1.083   0.809   1.462 -0.3100 -0.3107 -0.1792
   18SOL     OW   69   0.013   1.555   0.402  0.1956 -0.1723  0.4988
   18SOL    HW1   70   0.056   1.608   0.334  2.9804  0.3482 -0.9003
   18SOL    HW2   71   0.016   1.459   0.373 -0.2626 -2.1833 -0.3098
   18SOL     MW   72   0.019   1.549   0.389  0.5026 -0.3690  0.2075
   19SOL     OW   73   0.119   1.265   1.027  0.7565  0.6808 -0.1628
   19SOL    HW1   74   0.161   1.333   0.970 -0.5472 -0.2868 -1.4729
   19SOL    HW2   75   0.044   1.315   1.062 -0.0671 -1.9813  0.5222
   19SOL     MW   76   0.115   1.281   1.024  0.4758  0.2019 -0.2453
   20SOL     OW   77   0.454   2.170   1.289 -0.4701 -0.6237 -0.2469
   20SOL    HW1   78   0.422   2.116   1.217 -0.9260 -0.2231 -1.1035
   20SOL    HW2   79   0.387   2.229   1.332 -0.0050 -1.3643 -0.1054
   20SOL     MW   80   0.441   2.170   1.286 -0.4689 -0.6685 -0.3412
   21SOL     OW   81   0.558   0.898   0.355  0.0683 -0.0662  0.4714
   21SOL    HW1   82   0.583   0.833   0.423  1.0205  2.0962 -2.2568
   21SOL    HW2   83   0.554   0.855   0.274 -1.9996  1.1323  1.3196
   21SOL     MW   84   0.560   0.884   0.353 -0.0789  0.3772  0.2234
   22SOL     OW   85   1.572   0.583   1.118 -0.0704 -0.3240  0.4986
   22SOL    HW1   86   1.626   0.562   1.036 -0.0375 -0.9891  0.0370
   22SOL    HW2   87   1.494   0.634   1.087 -1.2711  0.2723 -1.5131
   22SOL     MW   88   1.569   0.587   1.103 -0.2245 -0.3331  0.1723
   23SOL     OW   89   3.049   0.737   0.719 -0.2873 -0.0577  0.1833
   23SOL    HW1   90   3.108   0.657   0.706  1.3747 -1.2882 -0.1939
   23SOL    HW2   91   3.119   0.806   0.711 -3.5301 -1.1593 -0.1282
   23SOL     MW   92   3.066   0.736   0.716 -0.4959 -0.3654  0.0924
   24SOL     OW   93   2.076   2.147   0.040 -0.3596  0.1734  0.0053
   24SOL    HW1   94   2.041   2.126   0.126 -1.3546 -1.2683 -1.0069
   24SOL    HW2   95   2.108   2.067   0.008  0.2653 -1.0519  2.0637
   24SOL     MW   96   2.076   2.134   0.047 -0.4084 -0.1785  0.1434
   25SOL     OW   97   0.197   1.435   0.580  0.5528 -0.0077 -0.4750
   25SOL    HW1   98   0.148   1.494   0.517 -2.8659  3.5649 -0.3544
   25SOL    HW2   99   0.287   1.425   0.541  1.7483  2.0434 -1.3319
   25SOL     MW  100   0.203   1.442   0.567  0.2594  0.7343 -0.5721
   26SOL     OW  101   2.037   0.973   0.385 -0.2004 -0.7437 -0.0733
   26SOL    HW1  102   1.941   0.979   0.397 -0.7858  1.9136 -0.0846
   26SOL    HW2  103   2.055   1.051   0.321  0.8642  0.1658  2.2815
   26SOL     MW  104   2.027   0.984   0.378 -0.1372 -0.2731  0.2359
   27SOL     OW  105   1.965   1.422   0.232  0.0303 -0.7292  0.0176
   27SOL    HW1  106   1.898   1.370   0.281  1.0249 -0.4692 -0.1809
   27SOL    HW2  107   2.026   1.457   0.295 -0.7056 -1.5659  0.6831
   27SOL     MW  108   1.964   1.420   0.247  0.0644 -0.8053  0.0792
   28SOL     OW  109   0.383   0.955   1.882  0.7854 -0.1946 -0.4381
   28SOL    HW1  110   0.309   0.911   1.931 -0.6287  0.3279 -4.0738
   28SOL    HW2  111   0.411   0.902   1.805 -0.7704 -0.2812  0.4028
   28SOL     MW  112   0.377   0.942   1.878  0.3935 -0.1371 -0.8068
   29SOL     OW  113   0.227   1.464   0.855  0.5127 -0.2325 -0.1977
   29SOL    HW1  114   0.256   1.549   0.880 -1.4871  0.3789 -1.8292
   29SOL    HW2  115   0.224   1.460   0.756  0.1440  2.7531 -2.4823
   29SOL     MW  116   0.230   1.475   0.845  0.2002  0.2421 -0.7144
   30SOL     OW  117   0.922   1.022   1.150 -0.7685 -0.5076 -0.2685
   30SOL    HW1  118   0.848   1.078   1.186 -0.5641 -0.3455  1.5906
   30SOL    HW2  119   0.991   1.026   1.222 -0.6046  0.4320  0.0908
   30SOL     MW  120   0.921   1.030   1.164 -0.7199 -0.3622  0.0242
   31SOL     OW  121   0.469   0.247   0.235 -0.2739 -0.2341  0.7847
   31SOL    HW1  122   0.483   0.172   0.296  1.9527  1.2667 -1.5869
   31SOL    HW2  123   0.462   0.212   0.139 -0.1463  1.3967 -1.5522
   31SOL     MW  124   0.470   0.232   0.230  0.0367  0.1791  0.1634
   32SOL     OW  125   2.697   1.042   1.127  0.1348  0.3010  0.2997
   32SOL    HW1  126   2.661   0.955   1.122 -0.8845 -0.1231 -0.7892
   32SOL    HW2  127   2.790   1.034   1.109 -1.4689  0.4816  0.4162
   32SOL     MW  128   2.705   1.030   1.124 -0.2113  0.2689  0.1714
   33SOL     OW  129   1.767   1.261   0.337 -0.2823 -0.1268 -0.1281
   33SOL    HW1  130   1.772   1.173   0.386 -1.8122  0.7238  2.0762
   33SOL    HW2  131   1.749   1.332   0.405  0.8036  1.2641 -0.3907
   33SOL     MW  132   1.765   1.259   0.353 -0.3409  0.1689  0.1281
   34SOL     OW  133   1.265   1.863   1.111  0.0052  0.1835  0.0336
   34SOL    HW1  134   1.176   1.902   1.133 -0.1051  0.4733 -1.5504
   34SOL    HW2  135   1.325   1.875   1.186  1.2981  0.9683 -0.1777
   34SOL     MW  136   1.261   1.869   1.124  0.1612  0.3253 -0.2033
   35SOL     OW  137   0.360   0.031   1.852 -0.1477  0.6939  0.1242
   35SOL    HW1  138   0.432   0.024   1.914  1.7788 -1.6801 -1.0965
   35SOL    HW2  139   0.387  -0.017   1.773  3.2765 -1.6557  0.7378
   35SOL     MW  140   0.373   0.024   1.850  0.5583  0.0707  0.0441
   36SOL     OW  141   1.889   1.910   0.509  0.6526  0.3013  0.4317
   36SOL    HW1  142   1.921   1.891   0.416  1.3746  1.2862 -0.0215
   36SOL    HW2  143   1.858   1.822   0.542 -1.4397  0.5013 -2.7026
   36SOL     MW  144   1.889   1.896   0.501  0.4718  0.4577 -0.0416
   37SOL     OW  145   1.763   1.993   0.939 -0.2198 -0.1917 -0.5633
   37SOL    HW1  146   1.722   1.923   0.884  0.5191 -0.3563  3.6654
   37SOL    HW2  147   1.693   2.036   1.004 -2.5710  1.5380  0.7721
   37SOL     MW  148   1.748   1.989   0.940 -0.4325  0.0148  0.1708
   38SOL     OW  149   2.871   0.918   0.226 -0.0245  0.3452 -0.1566
   38SOL    HW1  150   2.926   0.922   0.309  0.5107  2.4454 -2.3743
   38SOL    HW2  151   2.930   0.872   0.158  1.9679 -1.0092 -0.6907
   38SOL     MW  152   2.886   0.912   0.228  0.3090  0.4436 -0.5196
   39SOL     OW  153   1.456   0.675   0.835  0.1300  0.1640  0.0980
   39SOL    HW1  154   1.422   0.582   0.859 -3.2682  1.0859 -4.3055
   39SOL    HW2  155   1.410   0.738   0.899 -0.6269  1.9545 -0.9625
   39SOL     MW  156   1.445   0.671   0.847 -0.4182  0.5218 -0.6229
   40SOL     OW  157   1.295   1.878   0.271 -0.0734 -0.2534  0.4783
   40SOL    HW1  158   1.305   1.794   0.310 -0.5581 -0.1096 -0.0514
   40SOL    HW2  159   1.322   1.943   0.338  2.0867 -0.8435 -1.0576
   40SOL     MW  160   1.300   1.876   0.285  0.1476 -0.3123  0.2058
   41SOL     OW  161   0.599   0.544   1.563 -0.1970 -0.2405 -0.1591
   41SOL    HW1  162   0.675   0.594   1.580 -2.2161 -3.0814 -0.5105
   41SOL    HW2  163   0.609   0.465   1.618  1.8750 -2.4953  1.6385
   41SOL     MW  164   0.610   0.540   1.573 -0.1900 -0.9128  0.0317
   42SOL     OW  165   1.350   3.081   1.935 -0.8058 -0.2455 -0.2081
   42SOL    HW1  166   1.254   3.052   1.943 -0.1604  1.9922 -0.1722
   42SOL    HW2  167   1.401   3.006   1.968 -2.2500  1.6771 -1.7404
   42SOL     MW  168   1.344   3.068   1.940 -0.9112  0.3034 -0.4055
   43SOL     OW  169   1.599   0.208   1.593  0.5919  0.4585  0.4028
   43SOL    HW1  170   1.666   0.149   1.551  3.4385  0.6250 -0.3443
   43SOL    HW2  171   1.519   0.150   1.624  0.4174  0.1329 -0.6431
   43SOL     MW  172   1.597   0.192   1.591  0.9445  0.4375  0.1662
   44SOL     OW  173   1.311   0.754   1.071  0.3644  0.2554  0.1490
   44SOL    HW1  174   1.323   0.852   1.068  0.8097  0.4218 -0.3841
   44SOL    HW2  175   1.298   0.729   1.161  0.3367 -0.1676  0.6771
   44SOL     MW  176   1.311   0.764   1.082  0.4195  0.2215  0.1484
   45SOL     OW  177   1.064   0.761   0.809  0.5078 -0.5177 -0.0328
   45SOL    HW1  178   1.033   0.715   0.886 -0.5641 -1.8428 -0.6127
   45SOL    HW2  179   1.122   0.706   0.773  2.1342  0.1673 -0.7089
   45SOL     MW  180   1.068   0.748   0.814  0.5810 -0.6021 -0.1985
   46SOL     OW  181   0.602   1.110   0.602  0.2344 -0.4600  0.0387
   46SOL    HW1  182   0.609   1.146   0.511 -0.9510  2.2973 -2.3575
   46SOL    HW2  183   0.662   1.035   0.593  0.6566  1.8030  0.0232
   46SOL     MW  184   0.610   1.105   0.589  0.1337  0.2023 -0.2795
   47SOL     OW  185   0.123   1.924   1.836  0.2170  0.2002 -0.4208
   47SOL    HW1  186   0.185   1.868   1.799  0.0628  1.9633  1.2508
   47SOL    HW2  187   0.111   1.903   1.929  0.0508  1.7852  1.1586
   47SOL     MW  188   0.129   1.914   1.843  0.1747  0.6419  0.0081
   48SOL     OW  189   1.043   0.651   1.058 -1.2144  0.4495  0.1103
   48SOL    HW1  190   0.984   0.683   1.130  0.5403 -0.8570  1.5634
   48SOL    HW2  191   1.126   0.709   1.066 -0.3969  0.3377  0.2742
   48SOL     MW  192   1.046   0.663   1.069 -0.8750  0.2624  0.3236
   49SOL     OW  193   1.850   0.770   1.594  0.2794 -0.2161  0.1269
   49SOL    HW1  194   1.778   0.722   1.649 -1.8067  0.3113  0.5159
   49SOL    HW2  195   1.902   0.698   1.551  0.5017 -0.2036  1.7613
   49SOL     MW  196   1.848   0.754   1.596  0.0335 -0.1449  0.3939
   50SOL     OW  197   1.309   0.996   0.581 -0.0112 -0.5292 -0.5680
   50SOL    HW1  198   1.283   1.026   0.669 -2.1566  0.8486  0.1668
   50SOL    HW2  199   1.329   0.898   0.583 -3.2324  2.1698  0.8961
   50SOL     MW  200   1.308   0.987   0.593 -0.7193  0.0087 -0.2778
   51SOL     OW  201   0.306   2.864   0.909  0.4478 -0.0047 -0.4114
   51SOL    HW1  202   0.402   2.833   0.915 -1.8546 -2.3656 -0.1611
   51SOL    HW2  203   0.295   2.920   0.987 -1.7806 -3.2629  2.0225
   51SOL     MW  204   0.317   2.867   0.920 -0.1500 -0.7461 -0.0572
   52SOL     OW  205   0.832   1.864   0.402  0.0312 -0.4838 -0.2158
   52SOL    HW1  206   0.768   1.903   0.459  0.6334 -0.3899 -0.6806
   52SOL    HW2  207   0.798   1.895   0.319 -0.7697  0.4418 -1.4062
   52SOL     MW  208   0.819   1.874   0.399  0.0050 -0.3493 -0.4342
   53SOL     OW  209   0.367   2.042   0.602  0.7906 -0.4961 -0.2390
   53SOL    HW1  210   0.329   2.051   0.518 -1.3215  0.8052  2.5601
   53SOL    HW2  211   0.374   2.134   0.626  0.4010  4.5051  1.1933
   53SOL     MW  212   0.363   2.055   0.594  0.4605  0.3355  0.3193
   54SOL     OW  213   2.207   0.837   0.854  0.1289 -0.1878 -0.1623
   54SOL    HW1  214   2.236   0.787   0.775  0.0863 -0.2910 -1.2288
   54SOL    HW2  215   2.113   0.828   0.854 -0.1780  0.9686 -1.1065
   54SOL     MW  216   2.199   0.829   0.843  0.0828 -0.0489 -0.4276
   55SOL     OW  217   0.507   1.446   1.537 -0.1183  0.1532  0.6604
   55SOL    HW1  218   0.484   1.478   1.448  0.8851 -0.7994  0.0415
   55SOL    HW2  219   0.593   1.403   1.536  0.4884 -2.7502  0.9282
   55SOL     MW  220   0.515   1.445   1.525  0.0941 -0.3556  0.6141
   56SOL     OW  221   0.510   0.773   0.108  0.8870 -0.8235 -0.2493
   56SOL    HW1  222   0.531   0.828   0.035  0.1069  1.4148 -0.7782
   56SOL    HW2  223   0.417   0.759   0.092  3.3254 -0.5256 -1.2236
   56SOL     MW  224   0.500   0.778   0.096  1.1058 -0.4889 -0.4476
   57SOL     OW  225   1.250   1.205   1.145  0.0097 -0.3140  0.6664
   57SOL    HW1  226   1.342   1.234   1.153  0.7145 -1.7168  0.5658
   57SOL    HW2  227   1.234   1.143   1.223 -0.4266 -0.7578  1.1200
   57SOL     MW  228   1.260   1.201   1.156  0.0451 -0.5577  0.7130
   58SOL     OW  229   0.700   1.093   1.275  0.1973 -0.1921  0.3577
   58SOL    HW1  230   0.647   1.170   1.245  0.3833 -1.9843  0.7454
   58SOL    HW2  231   0.677   1.080   1.365  1.4429  2.5500  0.7301
   58SOL     MW  232   0.690   1.101   1.283  0.3862 -0.0667  0.4580
   59SOL     OW  233   1.534   1.600   0.270 -0.2576  0.4140  0.2804
   59SOL    HW1  234   1.584   1.536   0.323 -0.7887  0.8657 -2.7867
   59SOL    HW2  235   1.466   1.642   0.322 -1.3470  0.1331 -0.9008
   59SOL     MW  236   1.532   1.597   0.284 -0.4714  0.4365 -0.2802
   60SOL     OW  237   3.090   0.162   1.672 -0.6425  0.2283 -0.8043
   60SOL    HW1  238   3.005   0.200   1.706 -1.5764 -0.3406 -2.7597
   60SOL    HW2  239   3.088   0.070   1.691  2.0487  1.1209 -0.3364
   60SOL     MW  240   3.079   0.155   1.679 -0.4106  0.2710 -1.0005
   61SOL     OW  241   2.004   1.478   3.065 -0.0180  0.3981  0.2732
   61SOL    HW1  242   2.005   1.452   3.155  2.4083  1.5451  1.5442
   61SOL    HW2  243   2.031   1.394   3.020 -0.4238  2.3730 -1.6264
   61SOL     MW  244   2.008   1.464   3.071  0.2486  0.8100  0.1903
   62SOL     OW  245   0.611   1.648   0.548  0.1704 -0.4359  0.2731
   62SOL    HW1  246   0.672   1.626   0.486 -0.8724  0.7378  2.2204
   62SOL    HW2  247   0.602   1.562   0.592  0.2144  1.4912  1.6235
   62SOL     MW  248   0.618   1.634   0.546  0.0386 -0.0268  0.7082
   63SOL     OW  249   1.706   0.731   0.734 -0.1610 -0.4325 -0.4840
   63SOL    HW1  250   1.681   0.752   0.644 -3.4342 -2.6583 -0.4631
   63SOL    HW2  251   1.619   0.732   0.774  0.1455  1.7048  2.1735
   63SOL     MW  252   1.691   0.734   0.727 -0.5524 -0.4442 -0.1306
   64SOL     OW  253   0.281   1.683   1.003 -0.3565  0.3701 -0.3268
   64SOL    HW1  254   0.356   1.729   0.959 -2.6945  1.1564  2.1287
   64SOL    HW2  255   0.209   1.734   0.962 -0.1251  1.3436 -0.6026
   64SOL     MW  256   0.281   1.696   0.992 -0.6345  0.6023 -0.0392
   65SOL     OW  257   1.498   2.216   0.329 -0.2800  0.2861  0.1636
   65SOL    HW1  258   1.563   2.175   0.275  1.0448  0.8741  0.6855
   65SOL    HW2  259   1.564   2.270   0.380 -0.1254 -0.9870 -0.6720
   65SOL     MW  260   1.515   2.218   0.329 -0.0848  0.1958  0.1222
   66SOL     OW  261   0.306   0.599   0.529  0.3084  0.6451 -0.3107
   66SOL    HW1  262   0.368   0.566   0.468 -1.5483 -2.4808  3.9248
   66SOL    HW2  263   0.301   0.693   0.514  0.7725  0.3742 -1.4844
   66SOL     MW  264   0.314   0.607   0.519  0.1247  0.1969  0.0933
   67SOL     OW  265   1.523   0.189   2.030 -0.2735  0.1101  0.7089
   67SOL    HW1  266   1.548   0.234   1.945  0.9741  1.5161 -1.4238
   67SOL    HW2  267   1.461   0.116   2.009  0.5253 -2.8810 -2.5791
   67SOL     MW  268   1.518   0.185   2.016 -0.0035 -0.0991 -0.0063
   68SOL     OW  269   0.665   0.084   2.990 -0.4075 -0.3480 -0.0390
   68SOL    HW1  270   0.620   0.101   2.905 -0.9983 -1.9392  0.3950
   68SOL    HW2  271   0.699   0.177   3.006 -0.6309  1.3736 -0.4353
   68SOL     MW  272   0.664   0.098   2.981 -0.5149 -0.3308 -0.0340
   69SOL     OW  273   1.051   0.186   1.964  1.0881 -0.0033  0.2833
   69SOL    HW1  274   1.129   0.241   1.985  3.8748 -0.1422 -0.1089
   69SOL    HW2  275   1.081   0.092   1.956  2.0090  1.9723 -1.7470
   69SOL     MW  276   1.065   0.181   1.966  1.5773  0.2391 -0.0363
   70SOL     OW  277   0.570   1.803   1.138 -0.0376  0.5421 -0.1427
   70SOL    HW1  278   0.596   1.722   1.185  1.0317  0.4657  1.7037
   70SOL    HW2  279   0.638   1.803   1.064 -0.7840  2.7145  0.8461
   70SOL     MW  280   0.582   1.792   1.134  0.0050  0.8186  0.2314
   71SOL     OW  281   1.778   0.704   1.262 -0.3992  0.1173 -0.5771
   71SOL    HW1  282   1.761   0.709   1.355 -0.7150 -1.8521 -0.1252
   71SOL    HW2  283   1.700   0.661   1.223 -2.4903 -0.4010 -1.6559
   71SOL     MW  284   1.765   0.699   1.269 -0.7168 -0.2109 -0.6598
   72SOL     OW  285   0.813   1.825   1.000  0.2288 -0.1945 -0.1409
   72SOL    HW1  286   0.816   1.878   0.922 -0.6723  0.7346 -0.3503
   72SOL    HW2  287   0.858   1.744   0.975 -0.1573 -1.3095 -2.4568
   72SOL     MW  288   0.819   1.821   0.987  0.0589 -0.2190 -0.4741
   73SOL     OW  289   1.290   0.678   1.330 -0.4200  0.0865  0.5650
   73SOL    HW1  290   1.248   0.593   1.309 -0.7755 -0.5410  2.4535
   73SOL    HW2  291   1.222   0.728   1.379  0.7742 -0.4499  0.6973
   73SOL     MW  292   1.275   0.673   1.334 -0.3094 -0.0670  0.8316
   74SOL     OW  293   2.757   0.105   1.003 -0.1698  0.2027  0.0273
   74SOL    HW1  294   2.779   0.015   0.980 -0.6674  0.7153  1.1994
   74SOL    HW2  295   2.773   0.160   0.929  0.3871 -0.6061 -1.7488
   74SOL     MW  296   2.762   0.100   0.990 -0.1620  0.1637 -0.0524
   75SOL     OW  297   1.664   1.286   0.091 -0.5487 -0.0386 -0.2479
   75SOL    HW1  298   1.707   1.281   0.180  0.2106  0.7479  0.1460
   75SOL    HW2  299   1.674   1.198   0.051  0.1535 -3.5921 -0.2113
   75SOL     MW  300   1.671   1.274   0.097 -0.3559 -0.4037 -0.1911
   76SOL     OW  301   2.934   0.653   0.492 -0.0180  0.5630 -0.0693
   76SOL    HW1  302   2.978   0.686   0.570 -1.6601  0.1503  1.5306
   76SOL    HW2  303   3.003   0.612   0.435 -0.2949 -1.5639 -0.7270
   76SOL     MW  304   2.949   0.652   0.495 -0.2712  0.2279  0.0550
   77SOL     OW  305   0.896   0.416   0.526 -0.1367 -0.1770  0.1365
   77SOL    HW1  306   0.866   0.494   0.575 -0.7150 -0.6863 -0.8046
   77SOL    HW2  307   0.816   0.359   0.505  0.6433 -1.7815 -0.3741
   77SOL     MW  308   0.881   0.419   0.529 -0.1101 -0.4559 -0.0551
   78SOL     OW  309   0.832   0.761   1.214  0.3339  0.3089 -0.5590
   78SOL    HW1  310   0.740   0.752   1.193 -2.1441 -0.7795 -0.4425
   78SOL    HW2  311   0.850   0.855   1.206 -0.3866 -0.0689  0.5291
   78SOL     MW  312   0.822   0.772   1.210 -0.0881  0.1155 -0.4001
   79SOL     OW  313   1.838   1.670   0.598  0.2136 -0.4085  0.3755
   79SOL    HW1  314   1.763   1.618   0.577  0.9858 -0.6061 -2.0631
   79SOL    HW2  315   1.846   1.660   0.691 -1.8384 -0.3612 -0.9851
   79SOL     MW  316   1.829   1.662   0.607  0.0447 -0.4283 -0.1258
   80SOL     OW  317   0.152   0.993   0.271 -0.0099 -0.2102  0.5630
   80SOL    HW1  318   0.069   0.958   0.316 -1.0345 -2.1789 -0.0390
   80SOL    HW2  319   0.213   0.939   0.325  0.1987  2.4491  1.1829
   80SOL     MW  320   0.149   0.982   0.284 -0.1175 -0.1191  0.5654
   81SOL     OW  321   1.950   1.884   0.255 -0.2266  0.0931 -0.0421
   81SOL    HW1  322   1.873   1.835   0.216 -0.9933 -0.6384 -3.7014
   81SOL    HW2  323   1.913   1.971   0.275 -0.2568 -2.2483 -2.6805
   81SOL     MW  324   1.935   1.889   0.252 -0.3318 -0.3123 -0.8730
   82SOL     OW  325   0.814   0.929   0.557 -0.5979  0.8683  0.2323
   82SOL    HW1  326   0.899   0.941   0.514 -0.5104 -0.6991  2.0179
   82SOL    HW2  327   0.787   0.844   0.533  1.5763  1.8285 -1.4647
   82SOL     MW  328   0.821   0.919   0.548 -0.2995  0.7882  0.2440
   83SOL     OW  329   0.081   0.634   1.381 -0.1923  0.0537  0.3938
   83SOL    HW1  330   0.104   0.713   1.329 -1.9473  1.6193 -4.2353
   83SOL    HW2  331   0.156   0.587   1.421 -3.1564 -1.3095  1.1259
   83SOL     MW  332   0.094   0.638   1.379 -0.8149  0.0804 -0.1204
   84SOL     OW  333   0.041   0.308   1.063  0.3363  0.4713  0.0377
   84SOL    HW1  334  -0.015   0.307   0.983  0.7769 -1.5030 -0.3110
   84SOL    HW2  335   0.043   0.218   1.092 -0.0939 -0.7818 -0.4017
   84SOL     MW  336   0.034   0.296   1.056  0.3377  0.0455 -0.0663
   85SOL     OW  337   0.409   0.422   0.733 -0.3624 -0.0929  0.4086
   85SOL    HW1  338   0.366   0.496   0.676 -0.2785 -0.1125 -0.9908
   85SOL    HW2  339   0.350   0.349   0.749  0.1402 -0.3609 -1.9381
   85SOL     MW  340   0.396   0.422   0.728 -0.2850 -0.1308 -0.0857
   86SOL     OW  341   1.164   0.433   1.146  0.5581  0.1047 -0.4013
   86SOL    HW1  342   1.117   0.518   1.116 -0.9744  2.3793 -2.3918
   86SOL    HW2  343   1.101   0.412   1.215  1.5176 -2.2591  1.1163
   86SOL     MW  344   1.150   0.442   1.151  0.4825  0.0929 -0.4637
   87SOL     OW  345   1.249   1.456   1.314 -0.5736  0.1279 -0.8041
   87SOL    HW1  346   1.277   1.515   1.246 -0.3554  0.1413 -1.4028
   87SOL    HW2  347   1.265   1.374   1.270 -1.5124  0.4704  1.3182
   87SOL     MW  348   1.255   1.453   1.300 -0.6687  0.1749 -0.6031
   88SOL     OW  349   1.379   1.016   1.016  0.1673  0.2511  0.1811
   88SOL    HW1  350   1.461   0.993   1.057 -1.7815 -0.4487 -0.3331
   88SOL    HW2  351   1.343   1.086   1.072  1.8715 -0.0197  1.3840
   88SOL     MW  352   1.385   1.022   1.029  0.1350  0.1231  0.2719
   89SOL     OW  353   1.774   0.572   0.273  0.0204 -0.0410  0.0177
   89SOL    HW1  354   1.832   0.498   0.301 -1.1929  0.8693  0.9969
   89SOL    HW2  355   1.833   0.641   0.230  1.3807  1.7600  0.2261
   89SOL     MW  356   1.790   0.572   0.271  0.0398  0.3167  0.1744
   90SOL     OW  357   0.698   1.236   2.812 -0.8363 -0.3651  0.0434
   90SOL    HW1  358   0.754   1.164   2.804 -2.0073  0.3224 -3.5010
   90SOL    HW2  359   0.704   1.250   2.904  0.6663 -3.3474 -1.3783
   90SOL     MW  360   0.706   1.228   2.823 -0.7926 -0.6679 -0.6119
   91SOL     OW  361   2.045   0.720   0.486  0.4029  0.1727 -0.0414
   91SOL    HW1  362   2.068   0.798   0.439  0.1951 -1.6631  0.2631
   91SOL    HW2  363   1.951   0.721   0.478  2.3647 -3.2253  0.8948
   91SOL     MW  364   2.036   0.730   0.479  0.6343 -0.5178  0.1223
   92SOL     OW  365   1.640   0.781   0.455 -0.3468  0.8139  0.1362
   92SOL    HW1  366   1.550   0.756   0.480 -2.0885  0.5505  0.6559
   92SOL    HW2  367   1.665   0.717   0.383 -2.3593 -0.5993  0.4669
   92SOL     MW  368   1.631   0.769   0.449 -0.8421  0.5927  0.2484
   93SOL     OW  369   1.042   0.239   0.341  0.2598  0.1482 -0.6310
   93SOL    HW1  370   0.983   0.300   0.385  2.0091  0.9406 -1.8529
   93SOL    HW2  371   1.044   0.261   0.248  0.4430  0.8293  1.2301
   93SOL     MW  372   1.034   0.250   0.335  0.5148  0.3426 -0.5467
   94SOL     OW  373   1.946   1.257   1.665 -0.2082  0.2960 -0.7718
   94SOL    HW1  374   1.937   1.294   1.576 -2.5098  1.7186  1.0715
   94SOL    HW2  375   1.871   1.200   1.697  1.5400 -0.1713 -0.0524
   94SOL     MW  376   1.935   1.254   1.658 -0.2812  0.4220 -0.4337
   95SOL     OW  377   0.914   1.550   0.993 -0.5091 -0.0514 -0.5107
   95SOL    HW1  378   0.943   1.466   1.012  0.7753  0.2127 -1.1224
   95SOL    HW2  379   0.815   1.537   0.987 -1.9749 -2.2879  0.6610
   95SOL     MW  380   0.905   1.537   0.995 -0.5331 -0.3116 -0.4368
   96SOL     OW  381   1.271   1.790   1.623  0.2639 -0.4896 -1.4765
   96SOL    HW1  382   1.179   1.777   1.613 -3.1902  2.9633  1.9564
   96SOL    HW2  383   1.315   1.725   1.567 -0.9323  0.2345  0.4263
   96SOL     MW  384   1.265   1.780   1.614 -0.3496  0.0615 -0.7725
   97SOL     OW  385   1.271   1.452   0.832 -0.5861  0.1657  0.5472
   97SOL    HW1  386   1.283   1.495   0.919  1.3635 -0.2403 -2.5823
   97SOL    HW2  387   1.190   1.490   0.800 -1.5041 -1.9007  1.2778
   97SOL     MW  388   1.262   1.462   0.839 -0.4500 -0.1605  0.2307
   98SOL     OW  389   1.517   1.299   1.176 -0.5642  0.1737  0.4108
   98SOL    HW1  390   1.547   1.379   1.219  0.5136  0.3705  0.3173
   98SOL    HW2  391   1.548   1.304   1.084  0.1204  2.1675  0.3446
   98SOL     MW  392   1.525   1.310   1.169 -0.3317  0.4628  0.3897
   99SOL     OW  393   1.532   0.303   1.253 -0.1812 -0.2262  0.6387
   99SOL    HW1  394   1.509   0.375   1.192 -0.6917 -1.2312  5.1361
   99SOL    HW2  395   1.507   0.335   1.334  1.9694 -1.0293 -1.1845
   99SOL     MW  396   1.526   0.317   1.255  0.0352 -0.4648  0.9915
  100SOL     OW  397   1.115   1.050   1.341 -0.2522  0.2519 -0.2464
  100SOL    HW1  398   1.075   1.099   1.415  1.1541  0.7314 -0.5592
  100SOL    HW2  399   1.100   0.957   1.374  0.0352  2.3540  1.4970
  100SOL     MW  400   1.108   1.044   1.355 -0.0287  0.5925 -0.0577
  101SOL     OW  401   0.612   1.178   0.328 -0.2359  0.1691 -0.1796
  101SOL    HW1  402   0.599   1.079   0.322 -0.2260 -0.3524  1.0839
  101SOL    HW2  403   0.641   1.203   0.242 -0.6160 -0.0780  0.1114
  101SOL     MW  404   0.614   1.169   0.316 -0.2848  0.0677  0.0255
  102SOL     OW  405   2.957   0.580   0.969  0.0586  0.1224  0.9609
  102SOL    HW1  406   3.027   0.628   0.940 -0.2362 -1.0393  1.2277
  102SOL    HW2  407   2.968   0.567   1.065 -0.3432 -1.2517 -1.0748
  102SOL     MW  408   2.968   0.584   0.978 -0.0333 -0.2122  0.7275
  103SOL     OW  409   1.614   0.373   1.810 -0.6943 -0.3023  0.3602
  103SOL    HW1  410   1.610   0.331   1.720 -0.3551  0.1693 -3.8229
  103SOL    HW2  411   1.703   0.376   1.852 -0.7877 -1.7189 -1.9297
  103SOL     MW  412   1.626   0.368   1.804 -0.6618 -0.4269 -0.4939
  104SOL     OW  413   0.108   1.829   1.471  0.4577 -0.1101 -1.2687
  104SOL    HW1  414   0.191   1.782   1.446  0.0877 -1.4759  1.1175
  104SOL    HW2  415   0.098   1.791   1.562 -1.2903 -1.9405  2.3175
  104SOL     MW  416   0.118   1.818   1.480  0.1782 -0.5318 -0.4807
  105SOL     OW  417   0.149   1.162   0.501 -0.4228 -0.5622  0.0287
  105SOL    HW1  418   0.195   1.133   0.422  1.8752 -1.0250 -0.7496
  105SOL    HW2  419   0.184   1.252   0.506  2.5393 -2.5779  0.7779
  105SOL     MW  420   0.160   1.170   0.491  0.2712 -0.8892  0.0249
  106SOL     OW  421   0.862   0.318   0.939 -0.8563 -0.6336  0.1543
  106SOL    HW1  422   0.818   0.388   0.894  1.4618 -0.1321  1.5909
  106SOL    HW2  423   0.953   0.313   0.898  3.1939  1.6347  0.3476
  106SOL     MW  424   0.868   0.327   0.928 -0.0160 -0.2681  0.3694
  107SOL     OW  425   0.796   2.225   3.054 -0.1913  0.0473 -0.1096
  107SOL    HW1  426   0.751   2.144   3.032  1.8440 -0.2214 -0.1758
  107SOL    HW2  427   0.883   2.201   3.091 -0.1483  1.0414 -0.5034
  107SOL     MW  428   0.801   2.211   3.056  0.0829  0.1430 -0.1703
  108SOL     OW  429   1.406   1.586   1.514 -0.0005  0.5586 -0.3895
  108SOL    HW1  430   1.339   1.534   1.461 -0.2065  0.3264 -2.7646
  108SOL    HW2  431   1.455   1.530   1.575 -0.2433 -1.1305  3.4747
  108SOL     MW  432   1.404   1.571   1.515 -0.0598  0.3051 -0.1931
  109SOL     OW  433   1.949   0.729   0.154  0.0889 -0.0690  1.1263
  109SOL    HW1  434   1.931   0.755   0.065 -2.2270  1.4449 -0.9969
  109SOL    HW2  435   2.038   0.755   0.173 -0.9906  1.0679  0.9018
  109SOL     MW  436   1.959   0.736   0.144 -0.3591  0.2808  0.8165
  110SOL     OW  437   0.393   1.786   0.719 -0.0876  0.2534 -0.2620
  110SOL    HW1  438   0.460   1.748   0.665 -0.3805  0.3254  0.1668
  110SOL    HW2  439   0.381   1.868   0.674 -0.3712 -1.6365  0.1993
  110SOL     MW  440   0.400   1.792   0.706 -0.1637  0.0136 -0.1445
  111SOL     OW  441   0.716   0.920   1.510  0.3681 -0.3368 -0.3140
  111SOL    HW1  442   0.767   0.837   1.525 -0.9634  0.1568 -0.0710
  111SOL    HW2  443   0.626   0.899   1.525  1.6524 -2.2265 -1.7686
  111SOL     MW  444   0.711   0.906   1.514  0.3619 -0.5210 -0.4739
  112SOL     OW  445   1.294   1.109   1.615  0.4287 -0.2006 -0.0498
  112SOL    HW1  446   1.215   1.171   1.636 -1.7597 -1.2043 -0.0026
  112SOL    HW2  447   1.268   1.026   1.654  0.9269 -0.8319  3.6753
  112SOL     MW  448   1.280   1.106   1.623  0.2057 -0.4163  0.4479
  113SOL     OW  449   1.382   0.086   1.689 -0.1650 -0.1909  0.3527
  113SOL    HW1  450   1.379   0.057   1.779 -1.5568  0.5355 -1.8974
  113SOL    HW2  451   1.355   0.010   1.641  0.2350  4.6691  0.7123
  113SOL     MW  452   1.378   0.072   1.694 -0.2959  0.5462  0.1032
  114SOL     OW  453   0.447   2.817   1.862 -0.3388 -0.1344 -0.2110
  114SOL    HW1  454   0.434   2.867   1.944 -1.0138 -0.9232  1.2643
  114SOL    HW2  455   0.415   2.869   1.791  1.9925  1.2221  1.0374
  114SOL     MW  456   0.441   2.830   1.863 -0.1202 -0.0595  0.1484
  115SOL     OW  457   0.421   0.850   1.085  0.6095 -0.0995  0.7258
  115SOL    HW1  458   0.462   0.765   1.070 -0.3520  1.0817  0.8662
  115SOL    HW2  459   0.399   0.854   1.178 -1.4312 -1.3061  0.4350
  115SOL     MW  460   0.424   0.839   1.095  0.2134 -0.1029  0.7059
  116SOL     OW  461   0.806   1.004   0.895 -0.3792  0.1894  0.2997
  116SOL    HW1  462   0.850   1.063   0.829 -1.0795  1.0830  0.5030
  116SOL    HW2  463   0.854   1.005   0.975  0.4859  0.7937 -0.1173
  116SOL     MW  464   0.818   1.012   0.896 -0.3575  0.3870  0.2715
  117SOL     OW  465   1.202   1.114   0.798 -0.0049 -0.0693 -0.6347
  117SOL    HW1  466   1.262   1.069   0.865 -3.7210  1.9387 -0.4232
  117SOL    HW2  467   1.215   1.210   0.806 -2.4288 -1.9991 -0.9337
  117SOL     MW  468   1.211   1.121   0.808 -0.8150 -0.0590 -0.6462
  118SOL     OW  469   3.084   2.972   1.720 -0.0369 -0.5963 -0.7910
  118SOL    HW1  470   3.096   3.007   1.815 -0.2095  0.4272 -1.0425
  118SOL    HW2  471   2.986   2.960   1.716  0.7686 -1.4161  0.3358
  118SOL     MW  472   3.073   2.975   1.732  0.0466 -0.5694 -0.6755
  119SOL     OW  473   0.528   1.304   1.224  0.2096 -0.0718 -0.3339
  119SOL    HW1  474   0.512   1.319   1.127 -1.7123 -0.7337  1.5368
  119SOL    HW2  475   0.446   1.273   1.257  1.5311  1.3500 -1.6218
  119SOL     MW  476   0.515   1.302   1.216  0.1304  0.0285 -0.2570
  120SOL     OW  477   0.203   0.631   0.942  0.3233  0.9206 -0.4614
  120SOL    HW1  478   0.209   0.563   1.012  1.5609 -1.4236  0.8899
  120SOL    HW2  479   0.241   0.708   0.978 -0.1799 -1.2436  1.4501
  120SOL     MW  480   0.209   0.632   0.956  0.4202  0.3258 -0.0309
  121SOL     OW  481   1.768   1.049   1.727 -0.4564 -0.3528 -0.4909
  121SOL    HW1  482   1.707   1.025   1.657  1.9814 -0.4289  1.0342
  121SOL    HW2  483   1.818   0.971   1.765 -0.4810 -1.2166 -1.3055
  121SOL     MW  484   1.767   1.036   1.723 -0.1380 -0.4768 -0.3971
  122SOL     OW  485   0.094   0.520   0.708 -0.1391  0.1299  0.1403
  122SOL    HW1  486   0.162   0.520   0.641  1.7172 -0.9946  2.0583
  122SOL    HW2  487   0.138   0.569   0.781  0.2433  0.9118  0.0506
  122SOL     MW  488   0.109   0.526   0.709  0.1562  0.0847  0.3815
  123SOL     OW  489   1.783   1.018   0.470  0.7213 -0.2295 -0.3690
  123SOL    HW1  490   1.729   0.946   0.500  1.1775  0.0723 -1.3955
  123SOL    HW2  491   1.841   1.032   0.545  1.1106 -0.4302  1.5184
  123SOL     MW  492   1.783   1.010   0.484  0.8329 -0.2161 -0.2554
  124SOL     OW  493   0.661   0.504   0.817  0.1880 -0.1215 -0.2287
  124SOL    HW1  494   0.571   0.478   0.798  0.9317  0.0089  0.8990
  124SOL    HW2  495   0.657   0.600   0.808  0.6654 -1.0083  0.5080
  124SOL     MW  496   0.649   0.513   0.813  0.3491 -0.2213  0.0173
  125SOL     OW  497   0.685   1.680   1.664  0.7245 -0.2846  0.1790
  125SOL    HW1  498   0.606   1.617   1.659  3.0429  0.6599 -1.8839
  125SOL    HW2  499   0.648   1.766   1.661  0.2877 -0.9263 -0.5848
  125SOL     MW  500   0.670   1.683   1.663  0.9727 -0.2446 -0.1939
  126SOL     OW  501   2.116   1.609   1.998  0.6055  0.0422 -0.7755
  126SOL    HW1  502   2.163   1.694   1.982  0.0947  1.4563 -0.5030
  126SOL    HW2  503   2.182   1.544   2.025 -1.5395  1.3344  0.1131
  126SOL     MW  504   2.131   1.612   2.000  0.2551  0.3993 -0.6223
  127SOL     OW  505   0.605   0.732   1.899 -0.0405  0.1955  0.0618
  127SOL    HW1  506   0.676   0.678   1.931  1.7728  0.1800 -0.1527
  127SOL    HW2  507   0.616   0.822   1.938 -2.4313  2.4705  2.4558
  127SOL     MW  508   0.616   0.736   1.909 -0.1167  0.4936  0.3493
  128SOL     OW  509   1.748   0.754   2.866  0.2454 -0.0073 -0.0291
  128SOL    HW1  510   1.773   0.720   2.780 -0.4707 -2.6464  1.7459
  128SOL    HW2  511   1.703   0.839   2.850 -1.8244 -1.5178  0.0628
  128SOL     MW  512   1.746   0.761   2.853 -0.1222 -0.5548  0.2172
  129SOL     OW  513   1.487   0.946   0.207 -0.3804  0.5067 -0.3262
  129SOL    HW1  514   1.436   0.861   0.205 -0.7112 -0.0380 -0.5776
  129SOL    HW2  515   1.547   0.923   0.278 -1.4754  2.7797  0.6174
  129SOL     MW  516   1.488   0.932   0.216 -0.5686  0.7347 -0.2348
  130SOL     OW  517   0.754   1.504   0.367  0.0419 -0.1715 -0.3956
  130SOL    HW1  518   0.781   1.458   0.442  1.9926 -0.3720 -0.4482
  130SOL    HW2  519   0.843   1.530   0.323 -0.5415  1.1476 -1.0334
  130SOL     MW  520   0.770   1.501   0.371  0.2223 -0.0239 -0.4867
  131SOL     OW  521   3.052   0.803   0.058 -0.7139 -0.2664  0.3021
  131SOL    HW1  522   3.029   0.864  -0.022 -1.3543 -1.4592 -2.9373
  131SOL    HW2  523   3.147   0.802   0.064  1.9232  1.0361  0.2641
  131SOL     MW  524   3.062   0.811   0.048 -0.4505 -0.2519 -0.1303
  132SOL     OW  525   2.694   0.168   1.265  0.3832  0.3111  0.1292
  132SOL    HW1  526   2.705   0.145   1.169  0.4817  0.4816 -0.5596
  132SOL    HW2  527   2.613   0.120   1.291 -0.5504 -0.3526 -0.7917
  132SOL     MW  528   2.685   0.159   1.255  0.2730  0.2460 -0.0832
  133SOL     OW  529   1.110   0.219   1.714  0.2472  0.3441 -0.1422
  133SOL    HW1  530   1.193   0.173   1.724 -0.9097 -1.4218 -2.9638
  133SOL    HW2  531   1.059   0.214   1.797 -2.2618 -0.0934 -0.7209
  133SOL     MW  532   1.114   0.212   1.726 -0.2365  0.0534 -0.5908
  134SOL     OW  533   1.364   2.502   1.417 -0.6834 -0.0541  0.1668
  134SOL    HW1  534   1.307   2.569   1.400  0.8539 -1.8752  0.5935
  134SOL    HW2  535   1.407   2.534   1.499  1.1055 -2.1806 -3.3074
  134SOL     MW  536   1.362   2.515   1.426 -0.2446 -0.5749 -0.2353
  135SOL     OW  537   3.054   0.981   2.932 -0.1474 -0.2278  0.0785
  135SOL    HW1  538   3.137   1.034   2.951  2.7384 -1.1509  0.8067
  135SOL    HW2  539   2.978   1.049   2.942 -0.4891 -0.2809 -0.7537
  135SOL     MW  540   3.055   0.997   2.936  0.1883 -0.3566  0.0648
  136SOL     OW  541   0.267   2.021   0.890 -0.6158 -0.8161  0.1398
  136SOL    HW1  542   0.179   1.979   0.897 -0.4766  4.2139  1.8519
  136SOL    HW2  543   0.309   1.995   0.809  3.9810 -2.3676 -0.7141
  136SOL     MW  544   0.261   2.012   0.880  0.0090 -0.3572  0.2530
  137SOL     OW  545   0.657   2.018   0.579 -0.0904 -0.6878  0.0565
  137SOL    HW1  546   0.685   2.003   0.669  2.6888  0.2202 -1.5689
  137SOL    HW2  547   0.559   2.027   0.577 -2.8251 -1.0559 -1.8216
  137SOL     MW  548   0.648   2.017   0.591 -0.0846 -0.6166 -0.4058
  138SOL     OW  549   0.557   0.601   1.061 -0.2168  0.2743 -0.5400
  138SOL    HW1  550   0.497   0.531   1.095  1.2015 -0.4423 -1.9153
  138SOL    HW2  551   0.591   0.568   0.981 -2.2845 -0.9765  2.1844
  138SOL     MW  552   0.553   0.588   1.055 -0.3025  0.0147 -0.3620
  139SOL     OW  553   2.763   0.534   1.415  0.0923 -0.7152 -0.4392
  139SOL    HW1  554   2.809   0.452   1.396  2.5061 -1.7988  2.6684
  139SOL    HW2  555   2.835   0.602   1.448  0.6822 -1.8918 -1.1970
  139SOL     MW  556   2.779   0.532   1.417  0.4887 -1.0134 -0.1292
  140SOL     OW  557   0.866   0.307   2.117 -0.1474  0.4060 -0.2770
  140SOL    HW1  558   0.932   0.251   2.067 -1.4433 -2.9552  1.4617
  140SOL    HW2  559   0.901   0.292   2.211  3.8305 -0.7901  4.2510
  140SOL     MW  560   0.880   0.298   2.123  0.2065 -0.1953  0.5498
  141SOL     OW  561   1.013   0.626   1.766  0.5123 -0.6597  0.0475
  141SOL    HW1  562   1.072   0.563   1.717 -3.2649 -1.4728 -0.0931
  141SOL    HW2  563   1.057   0.709   1.789 -1.3742 -0.1279 -0.5362
  141SOL     MW  564   1.026   0.628   1.763 -0.2350 -0.6968 -0.0480
  142SOL     OW  565   0.931   1.148   0.718 -0.2456  0.0372 -0.0051
  142SOL    HW1  566   0.896   1.079   0.666  0.2288  1.6602  1.3093
  142SOL    HW2  567   1.029   1.135   0.733 -1.8493  1.4497  1.8232
  142SOL     MW  568   0.939   1.137   0.713 -0.3946  0.4377  0.4095
  143SOL     OW  569   1.882   0.922   1.131 -0.4067  0.1535 -0.3953
  143SOL    HW1  570   1.918   0.895   1.047 -0.7901  2.3622 -0.3754
  143SOL    HW2  571   1.847   0.840   1.169  0.2488 -1.4193 -0.2014
  143SOL     MW  572   1.882   0.908   1.125 -0.3708  0.2374 -0.3671
  144SOL     OW  573   0.150   1.164   1.560 -0.5397  0.0258 -0.0037
  144SOL    HW1  574   0.225   1.125   1.512 -1.8838 -1.4508 -1.9810
  144SOL    HW2  575   0.178   1.161   1.653 -0.9431 -1.2611  0.5589
  144SOL     MW  576   0.163   1.158   1.566 -0.7703 -0.3388 -0.1904
  145SOL     OW  577   0.268   0.456   1.150  0.2213  0.2212 -0.0203
  145SOL    HW1  578   0.318   0.400   1.205 -0.5174 -0.8390 -2.9937
  145SOL    HW2  579   0.192   0.405   1.137 -0.5082 -1.6901 -0.8635
  145SOL     MW  580   0.264   0.442   1.156  0.0276 -0.1709 -0.5238
  146SOL     OW  581   0.876   1.907   1.383  0.4247 -0.5037  0.0250
  146SOL    HW1  582   0.922   1.935   1.293 -2.1677  0.6276  0.2488
  146SOL    HW2  583   0.781   1.922   1.371  1.2175  0.0885  3.9423
  146SOL     MW  584   0.870   1.912   1.369  0.1873 -0.2763  0.5714
  147SOL     OW  585   0.401   0.427   2.852  0.4489  0.7120  0.4865
  147SOL    HW1  586   0.336   0.442   2.916 -0.8420 -3.6969 -2.3120
  147SOL    HW2  587   0.384   0.485   2.782  0.7553 -1.5065  0.0499
  147SOL     MW  588   0.390   0.437   2.852  0.3190 -0.1625  0.0597
  148SOL     OW  589   0.025   0.912   1.286  0.1492  0.6353  0.1598
  148SOL    HW1  590   0.093   0.978   1.291  0.3483  0.1986  1.2195
  148SOL    HW2  591  -0.004   0.910   1.373  1.3422 -3.3194  1.0628
  148SOL     MW  592   0.030   0.920   1.298  0.3329  0.0559  0.4188
  149SOL     OW  593   1.446   1.104   1.380 -0.6843  0.6730 -0.5265
  149SOL    HW1  594   1.371   1.103   1.448 -0.7687  2.1684 -0.1012
  149SOL    HW2  595   1.463   1.192   1.349  1.1137  0.3579  0.2152
  149SOL     MW  596   1.439   1.115   1.385 -0.4582  0.8287 -0.3726
  150SOL     OW  597   1.823   1.353   0.733  0.1183 -0.2262  0.0446
  150SOL    HW1  598   1.871   1.269   0.725  1.0179 -1.1834  0.4727
  150SOL    HW2  599   1.886   1.401   0.782  0.0717  0.4688  0.6121
  150SOL     MW  600   1.838   1.348   0.738  0.2309 -0.2608  0.1760
  151SOL     OW  601   1.606   1.783   0.815 -0.2091 -0.1500  0.4726
  151SOL    HW1  602   1.550   1.803   0.741  1.2877  2.3803 -1.9453
  151SOL    HW2  603   1.567   1.736   0.887 -1.9827 -0.0091 -1.1415
  151SOL     MW  604   1.593   1.780   0.815 -0.2456  0.2025 -0.0594
  152SOL     OW  605   0.757   1.322   1.537  0.1368 -0.0113  0.2757
  152SOL    HW1  606   0.803   1.239   1.530 -1.7752  1.7965  0.7408
  152SOL    HW2  607   0.818   1.390   1.525  2.5654  0.9789  0.2236
  152SOL     MW  608   0.771   1.320   1.535  0.2050  0.3579  0.3302
  153SOL     OW  609   2.664   1.216   0.710 -0.0636  0.3422 -0.8293
  153SOL    HW1  610   2.727   1.179   0.646 -1.5564  0.7417  0.7654
  153SOL    HW2  611   2.596   1.152   0.707  3.7435  1.9966  0.2506
  153SOL     MW  612   2.663   1.202   0.701  0.2418  0.6132 -0.4764
  154SOL     OW  613   0.317   1.769   1.720  0.3018 -0.0399 -0.0573
  154SOL    HW1  614   0.337   1.744   1.625 -3.6844  0.4812  0.2111
  154SOL    HW2  615   0.341   1.687   1.764  0.7430 -0.2714 -0.2292
  154SOL     MW  616   0.323   1.755   1.713 -0.1659 -0.0017 -0.0446
  155SOL     OW  617   1.100   0.748   0.241 -0.0541 -0.2336  0.1522
  155SOL    HW1  618   1.118   0.684   0.314  0.3750 -1.4753  1.1663
  155SOL    HW2  619   1.085   0.828   0.295 -0.4091  1.2303 -1.5556
  155SOL     MW  620   1.100   0.750   0.258 -0.0443 -0.2043  0.0607
  156SOL     OW  621   1.559   3.082   1.016 -0.3888  0.5850  0.4815
  156SOL    HW1  622   1.601   3.163   1.053 -1.6389  3.0894  1.7254
  156SOL    HW2  623   1.564   3.011   1.082 -1.9088  0.0693  0.0351
  156SOL     MW  624   1.565   3.084   1.029 -0.7543  0.8474  0.5867
  157SOL     OW  625   1.408   1.191   0.123  0.1018  0.2009  0.0577
  157SOL    HW1  626   1.427   1.094   0.142 -0.7854 -2.7004  0.3553
  157SOL    HW2  627   1.497   1.234   0.116 -0.0769  2.2340  1.6292
  157SOL     MW  628   1.422   1.184   0.125 -0.0388  0.0864  0.3044
  158SOL     OW  629   0.406   1.654   2.304  0.3482 -0.0554  0.0260
  158SOL    HW1  630   0.393   1.700   2.223 -2.5958 -2.2970 -0.2847
  158SOL    HW2  631   0.316   1.639   2.347 -0.9335 -0.5918 -2.0913
  158SOL     MW  632   0.392   1.658   2.299 -0.2093 -0.4219 -0.2943
  159SOL     OW  633   1.285   1.662   0.433  0.7268 -0.1688  0.1759
  159SOL    HW1  634   1.267   1.574   0.416 -1.2321  2.7247 -1.2939
  159SOL    HW2  635   1.202   1.710   0.452 -0.1189  1.3583 -0.0443
  159SOL     MW  636   1.272   1.657   0.433  0.3568  0.4145 -0.0471
  160SOL     OW  637   0.424   1.060   1.565  0.3384  0.6020 -0.3267
  160SOL    HW1  638   0.437   0.980   1.620  1.5218  0.8273 -0.9614
  160SOL    HW2  639   0.464   1.123   1.626  2.5019 -0.4709 -0.5638
  160SOL     MW  640   0.431   1.057   1.580  0.7800  0.4901 -0.4417
  161SOL     OW  641   0.592   2.115   2.703  0.4154  0.0481 -0.0145
  161SOL    HW1  642   0.529   2.142   2.769  0.1926  1.0235 -1.4409
  161SOL    HW2  643   0.536   2.073   2.629 -1.8395 -0.5938  0.9114
  161SOL     MW  644   0.577   2.113   2.702  0.0885  0.0921 -0.0805
  162SOL     OW  645   1.029   1.717   1.834  0.5580  0.4939 -0.2375
  162SOL    HW1  646   1.009   1.816   1.832 -0.9161 -1.7898  3.7879
  162SOL    HW2  647   0.948   1.682   1.868 -1.6922 -1.0228 -0.9214
  162SOL     MW  648   1.016   1.725   1.838  0.0666 -0.0075  0.2034
  163SOL     OW  649   2.151   0.133   0.989 -0.6618  0.1371 -0.2713
  163SOL    HW1  650   2.153   0.151   0.892 -0.5723 -1.8698  1.0244
  163SOL    HW2  651   2.081   0.070   0.994 -1.3629 -0.7063 -0.3153
  163SOL     MW  652   2.142   0.127   0.977 -0.7425 -0.2390 -0.1062
  164SOL     OW  653   0.286   0.192   0.835 -0.4422  0.2414 -0.4462
  164SOL    HW1  654   0.190   0.183   0.862 -0.3852  1.8949  1.0196
  164SOL    HW2  655   0.302   0.118   0.777 -3.0938 -0.1047 -1.7538
  164SOL     MW  656   0.275   0.181   0.831 -0.7845  0.4139 -0.4253
  165SOL     OW  657   1.376   1.210   0.424  0.0160  0.4950  0.1164
  165SOL    HW1  658   1.350   1.132   0.473  1.7457  1.1520  0.1839
  165SOL    HW2  659   1.374   1.182   0.330 -4.0622  1.9210  0.9017
  165SOL     MW  660   1.372   1.196   0.418 -0.2939  0.7698  0.2289
  166SOL     OW  661   0.530   1.093   0.968  0.0706 -0.1836 -0.2713
  166SOL    HW1  662   0.484   1.039   1.035 -2.0787 -0.2138 -1.9570
  166SOL    HW2  663   0.626   1.069   0.980 -0.4599  3.1647 -0.4587
  166SOL     MW  664   0.536   1.083   0.978 -0.2830  0.2542 -0.5184
  167SOL     OW  665   0.931   1.158   0.293 -0.0145 -0.3204 -0.8903
  167SOL    HW1  666   0.845   1.195   0.320 -2.9099  1.4417 -0.9492
  167SOL    HW2  667   0.946   1.180   0.201 -2.1915  0.0516  0.9031
  167SOL     MW  668   0.922   1.166   0.284 -0.6838 -0.0388 -0.6615
  168SOL     OW  669   1.681   1.763   2.895  0.3569 -0.0415 -0.4225
  168SOL    HW1  670   1.672   1.842   2.956  0.6470 -0.2096 -1.0294
  168SOL    HW2  671   1.623   1.693   2.922  0.4865 -2.4421  1.1000
  168SOL     MW  672   1.672   1.764   2.906  0.4123 -0.3804 -0.3017
  169SOL     OW  673   0.326   0.944   1.321 -0.0150 -1.0136 -0.1537
  169SOL    HW1  674   0.365   0.941   1.407 -2.0072 -0.1165 -1.8914
  169SOL    HW2  675   0.332   1.034   1.289  2.5492  1.7028  0.3827
  169SOL     MW  676   0.332   0.955   1.328  0.0605 -0.5368 -0.3122
  170SOL     OW  677   1.016   1.464   1.501  0.2236 -0.2217 -0.0057
  170SOL    HW1  678   0.950   1.535   1.487 -1.0297  0.8107  0.5869
  170SOL    HW2  679   1.069   1.476   1.421 -2.5164  2.4381  1.4129
  170SOL     MW  680   1.014   1.475   1.488 -0.3033  0.2654  0.2596
  171SOL     OW  681   0.599   1.398   0.715  0.0144 -0.1391  0.1306
  171SOL    HW1  682   0.557   1.398   0.802 -0.8354  2.7533  1.8616
  171SOL    HW2  683   0.593   1.307   0.686 -1.0487  1.9375 -0.2394
  171SOL     MW  684   0.593   1.386   0.723 -0.2380  0.5165  0.3102
  172SOL     OW  685   0.832   0.336   1.220 -0.0376 -0.2546 -0.0881
  172SOL    HW1  686   0.845   0.350   1.128  1.1417 -0.4291 -1.0313
  172SOL    HW2  687   0.741   0.355   1.240  2.4492 -0.1643 -0.8134
  172SOL     MW  688   0.822   0.340   1.211  0.4461 -0.2657 -0.3082
  173SOL     OW  689   0.445   1.685   0.338  0.3043 -0.1520 -0.5361
  173SOL    HW1  690   0.430   1.594   0.335 -0.3810  0.9609  0.2521
  173SOL    HW2  691   0.496   1.687   0.420  0.7580  1.0009 -0.2635
  173SOL     MW  692   0.450   1.673   0.348  0.2737  0.1469 -0.3961
  174SOL     OW  693   2.035   0.982   1.523  0.0920 -0.1681  0.6649
  174SOL    HW1  694   1.989   0.899   1.545  0.3280 -1.2980  0.2327
  174SOL    HW2  695   1.970   1.028   1.458 -0.6575 -0.8654 -2.1147
  174SOL     MW  696   2.020   0.977   1.517  0.0243 -0.4092  0.2412
  175SOL     OW  697   0.408   1.366   0.364  0.4562  0.6175  0.0122
  175SOL    HW1  698   0.397   1.367   0.268 -1.4636  0.4289 -1.4492
  175SOL    HW2  699   0.481   1.297   0.371  1.8422 -1.6177  1.5258
  175SOL     MW  700   0.416   1.357   0.352  0.3857  0.2977  0.0191
  176SOL     OW  701   0.280   1.216   1.262  0.6546  0.4842  0.2362
  176SOL    HW1  702   0.218   1.219   1.191  0.0233  0.6397 -0.8352
  176SOL    HW2  703   0.249   1.270   1.328  2.1560 -2.1196 -3.2446
  176SOL     MW  704   0.268   1.224   1.262  0.7694  0.1612 -0.3644
  177SOL     OW  705   0.599   0.450   1.303 -0.0108  0.4108  0.7002
  177SOL    HW1  706   0.617   0.521   1.248  1.1776 -1.6133  3.3095
  177SOL    HW2  707   0.593   0.495   1.387 -0.6250 -0.3963  1.1792
  177SOL     MW  708   0.600   0.466   1.306  0.0650  0.0373  1.1077
  178SOL     OW  709   3.099   0.449   2.977  0.2586  0.1124 -0.0952
  178SOL    HW1  710   3.037   0.451   3.052  2.6020 -0.1843 -1.7374
  178SOL    HW2  711   3.045   0.442   2.896 -0.8585 -0.5894 -1.6641
  178SOL     MW  712   3.084   0.448   2.976  0.4204 -0.0193 -0.5189
  179SOL     OW  713   1.637   1.326   1.468 -0.6297 -0.0340  0.5798
  179SOL    HW1  714   1.646   1.358   1.555  1.5407  1.5397  1.6362
  179SOL    HW2  715   1.721   1.287   1.440  0.3348  0.2234  0.4399
  179SOL     MW  716   1.649   1.325   1.475 -0.2161  0.2076  0.7007
  180SOL     OW  717   3.021   0.274   0.481  0.1865 -0.5893 -0.0751
  180SOL    HW1  718   2.977   0.259   0.389 -0.9307  0.1910  0.5366
  180SOL    HW2  719   3.071   0.356   0.465  2.7652  1.1572  0.3004
  180SOL     MW  720   3.022   0.283   0.467  0.3793 -0.2559  0.0552
  181SOL     OW  721   1.133   1.401   3.090 -0.3527  0.2776  0.5823
  181SOL    HW1  722   1.187   1.468   3.134 -1.0906  0.4243 -0.3114
  181SOL    HW2  723   1.180   1.392   3.002  1.0562  2.5379 -0.9008
  181SOL     MW  724   1.147   1.409   3.084 -0.2641  0.5952  0.2687
  182SOL     OW  725   0.476   0.805   1.663 -0.4950 -0.3317  0.2559
  182SOL    HW1  726   0.388   0.774   1.649  2.2874 -0.4938  0.6272
  182SOL    HW2  727   0.524   0.752   1.731  0.6684  0.0884  2.7604
  182SOL     MW  728   0.470   0.794   1.670  0.0256 -0.2977  0.6353
  183SOL     OW  729   1.600   1.545   1.296  0.4194  0.0352 -0.0694
  183SOL    HW1  730   1.552   1.601   1.354 -0.8335  2.5071 -1.7281
  183SOL    HW2  731   1.644   1.486   1.362  0.4214 -0.6590  1.5826
  183SOL     MW  732   1.599   1.545   1.312  0.2543  0.2697 -0.0703
  184SOL     OW  733   0.803   0.543   1.996  0.4714  0.8779 -0.1392
  184SOL    HW1  734   0.878   0.549   1.940  1.0098  0.9163 -2.3366
  184SOL    HW2  735   0.813   0.450   2.037 -0.1100 -2.3789  3.1324
  184SOL     MW  736   0.814   0.532   1.994  0.4657  0.4532  0.0025
  185SOL     OW  737   1.121   0.931   1.964 -0.4292  0.6617 -0.3053
  185SOL    HW1  738   1.109   0.858   2.031 -0.2756  1.7824 -2.0203
  185SOL    HW2  739   1.164   1.006   2.018  1.1671  2.6494  0.2415
  185SOL     MW  740   1.125   0.931   1.980 -0.1983  1.0718 -0.4594
  186SOL     OW  741   0.340   1.718   1.421  0.2330 -0.0335 -0.2888
  186SOL    HW1  742   0.415   1.767   1.393 -0.9136 -0.1296  2.9441
  186SOL    HW2  743   0.314   1.656   1.355 -1.0034 -0.4796  0.6003
  186SOL     MW  744   0.347   1.716   1.409 -0.0814 -0.1050  0.2551
  187SOL     OW  745   1.545   0.664   1.490 -0.6075 -0.0921 -0.1984
  187SOL    HW1  746   1.502   0.663   1.575  0.9035 -0.4406  0.0696
  187SOL    HW2  747   1.477   0.684   1.427 -1.8152 -1.2548 -0.5193
  187SOL     MW  748   1.530   0.667   1.493 -0.5675 -0.2915 -0.2054
  188SOL     OW  749   1.920   1.097   0.711 -0.1333  0.1617  0.2843
  188SOL    HW1  750   1.947   1.060   0.791 -0.0801 -0.6361 -0.6072
  188SOL    HW2  751   2.007   1.122   0.678 -0.8850 -2.2263  0.8551
  188SOL     MW  752   1.935   1.095   0.717 -0.2255 -0.2586  0.2420
  189SOL     OW  753   0.632   0.780   0.787  0.4277  0.1941  0.3850
  189SOL    HW1  754   0.550   0.835   0.795  2.8175  3.2789  3.9598
  189SOL    HW2  755   0.685   0.848   0.822 -0.0499 -3.2669  1.7199
  189SOL     MW  756   0.628   0.796   0.793  0.6800  0.1445  1.0328
  190SOL     OW  757   1.841   0.390   1.965  0.3290 -0.0745  0.4225
  190SOL    HW1  758   1.876   0.299   1.979  3.8908 -0.4594 -0.2530
  190SOL    HW2  759   1.919   0.450   1.963  0.0760  0.6252  0.2424
  190SOL     MW  760   1.856   0.386   1.966  0.7656 -0.0330  0.3096
  191SOL     OW  761   1.621   0.957   1.531  0.3516 -0.6754  0.1721
  191SOL    HW1  762   1.556   1.012   1.480 -1.4138  0.3633  0.7385
  191SOL    HW2  763   1.591   0.866   1.535  0.4074 -0.2145  3.5735
  191SOL     MW  764   1.609   0.952   1.525  0.1261 -0.4775  0.6956
  192SOL     OW  765   0.732   1.984   2.919 -0.0236 -0.7715  0.4364
  192SOL    HW1  766   0.687   2.014   2.838 -0.1712 -2.4451 -0.7673
  192SOL    HW2  767   0.725   1.889   2.914  1.5472 -0.8032  1.4643
  192SOL     MW  768   0.725   1.976   2.908  0.1642 -0.9965  0.4132
  193SOL     OW  769   1.025   1.546   0.743  0.6753  0.1468  0.5432
  193SOL    HW1  770   0.989   1.541   0.837  2.1364 -1.1162  1.0775
  193SOL    HW2  771   0.972   1.483   0.693  1.6896 -0.7586 -0.2533
  193SOL     MW  772   1.013   1.537   0.749  1.0019 -0.1393  0.5086
  194SOL     OW  773   0.478   1.362   0.952 -0.7928 -0.7614 -0.2395
  194SOL    HW1  774   0.477   1.267   0.936  2.1805  1.3748  0.3068
  194SOL    HW2  775   0.390   1.397   0.940  0.8672  0.6440 -0.5897
  194SOL     MW  776   0.466   1.354   0.948 -0.1815 -0.2942 -0.2137
  195SOL     OW  777   1.305   1.146   2.930 -0.0802 -0.1431  0.3930
  195SOL    HW1  778   1.347   1.159   3.016  3.2778 -1.0013  0.7681
  195SOL    HW2  779   1.224   1.094   2.954 -1.9381 -0.4416  0.2760
  195SOL     MW  780   1.300   1.141   2.944  0.1178 -0.2957  0.4270
  196SOL     OW  781   2.199   1.053   0.612 -0.5681  0.3270 -0.2079
  196SOL    HW1  782   2.178   1.033   0.524 -0.7841  0.0247  2.0062
  196SOL    HW2  783   2.176   1.147   0.621  1.3577  1.4092  0.0277
  196SOL     MW  784   2.194   1.063   0.602 -0.3425  0.4299  0.1153
  197SOL     OW  785   0.571   1.214   2.006 -0.0446 -0.2105 -0.2320
  197SOL    HW1  786   0.581   1.123   1.999 -0.9260  1.9185 -2.2876
  197SOL    HW2  787   0.558   1.228   1.909  2.2987  1.5680 -0.0514
  197SOL     MW  788   0.571   1.204   1.992  0.1483  0.3050 -0.4794
  198SOL     OW  789   2.935   1.375   1.087 -0.7344 -0.6663 -0.4561
  198SOL    HW1  790   2.937   1.464   1.044  1.9376  1.5051 -0.8509
  198SOL    HW2  791   2.843   1.341   1.065 -0.5163  2.1429  0.2231
  198SOL     MW  792   2.923   1.382   1.078 -0.3531 -0.0091 -0.4186
  199SOL     OW  793   0.482   1.266   1.747  0.3419 -0.1283 -0.1714
  199SOL    HW1  794   0.391   1.262   1.781 -1.6723  0.6039 -1.2783
  199SOL    HW2  795   0.471   1.322   1.671 -1.0274  2.5439 -1.5170
  199SOL     MW  796   0.468   1.273   1.742 -0.1045  0.3209 -0.4950
  200SOL     OW  797   1.928   3.038   1.297 -0.2787  0.2730  0.3159
  200SOL    HW1  798   1.936   3.048   1.199  0.4553 -0.1863 -0.6068
  200SOL    HW2  799   1.835   3.029   1.331 -1.6513  1.7058  0.5669
  200SOL     MW  800   1.917   3.038   1.289 -0.3629  0.4015  0.2273
  201SOL     OW  801   1.119   0.328   0.799  0.7533  0.1870  0.4503
  201SOL    HW1  802   1.134   0.244   0.827 -2.7460  0.0830 -0.3564
  201SOL    HW2  803   1.105   0.307   0.705  2.7176 -1.1482  0.3634
  201SOL     MW  804   1.119   0.314   0.790  0.5508 -0.0029  0.3324
  202SOL     OW  805   1.587   1.581   1.024  0.0484  0.2837  0.0802
  202SOL    HW1  806   1.604   1.496   0.983  0.7118  1.6759 -2.1497
  202SOL    HW2  807   1.619   1.578   1.117 -1.1310 -0.3347  0.8611
  202SOL     MW  808   1.593   1.570   1.031 -0.0197  0.3858 -0.1110
  203SOL     OW  809   3.020   0.497   1.216 -0.0431 -0.3811 -0.6945
  203SOL    HW1  810   3.061   0.424   1.169  0.4187 -0.3998  3.1553
  203SOL    HW2  811   3.082   0.547   1.260  2.9939 -0.7531 -0.0603
  203SOL     MW  812   3.033   0.494   1.215  0.4185 -0.4326 -0.1029
  204SOL     OW  813   1.044   1.772   0.531  0.1399  0.2038 -0.5837
  204SOL    HW1  814   1.002   1.695   0.577 -0.8849  0.4155  0.4582
  204SOL    HW2  815   0.981   1.801   0.463 -2.0772  0.4119  0.7606
  204SOL     MW  816   1.030   1.766   0.528 -0.2878  0.2592 -0.2689
  205SOL     OW  817   1.389   0.036   1.308 -0.0627  0.6046  0.4719
  205SOL    HW1  818   1.337   0.012   1.234  0.1148  0.1106  0.4812
  205SOL    HW2  819   1.429   0.112   1.269  0.3569  0.4324 -0.1122
  205SOL     MW  820   1.387   0.043   1.293  0.0161  0.5167  0.3960
  206SOL     OW  821   0.533   3.098   1.367  0.4274 -0.1748  0.4463
  206SOL    HW1  822   0.472   3.062   1.303  0.1175 -0.5157  1.8244
  206SOL    HW2  823   0.580   3.019   1.400 -0.7012  1.7417 -1.6874
  206SOL     MW  824   0.531   3.083   1.363  0.2376  0.0331  0.3466
  207SOL     OW  825   0.972   1.558   0.213 -0.7072 -0.4912 -0.2461
  207SOL    HW1  826   1.017   1.644   0.216  1.6939 -1.9649  1.5775
  207SOL    HW2  827   1.036   1.491   0.220  1.1927  2.1333  3.8016
  207SOL     MW  828   0.986   1.561   0.214 -0.1397 -0.3393  0.5286
  208SOL     OW  829   0.641   1.575   1.252  0.0308  0.2973 -0.3388
  208SOL    HW1  830   0.716   1.583   1.306 -0.7920 -0.9851 -1.1010
  208SOL    HW2  831   0.627   1.479   1.234  1.6715 -3.8841 -0.8301
  208SOL     MW  832   0.649   1.563   1.257  0.1387 -0.4236 -0.5042
  209SOL     OW  833   1.480   0.490   2.812  0.4306 -0.4438 -0.0606
  209SOL    HW1  834   1.515   0.536   2.737  0.0235  0.5952  1.2453
  209SOL    HW2  835   1.561   0.441   2.847  1.1599 -2.3872 -0.9843
  209SOL     MW  836   1.495   0.490   2.807  0.4731 -0.5631 -0.0101
  210SOL     OW  837   1.601   1.314   0.913 -0.5730  0.1380 -0.1115
  210SOL    HW1  838   1.680   1.316   0.864 -1.9527  0.6611 -0.0633
  210SOL    HW2  839   1.535   1.303   0.847 -0.0612  1.8078 -1.9715
  210SOL     MW  840   1.603   1.313   0.898 -0.6875  0.4274 -0.3506
  211SOL     OW  841   1.724   0.470   0.939 -0.2899 -0.3289 -0.2466
  211SOL    HW1  842   1.694   0.446   0.846  1.1193  0.7450  0.1715
  211SOL    HW2  843   1.820   0.497   0.920  0.4466 -0.4097 -1.6145
  211SOL     MW  844   1.733   0.470   0.924 -0.0068 -0.1979 -0.3719
  212SOL     OW  845   0.270   1.117   0.038  0.3345 -0.4217 -0.1228
  212SOL    HW1  846   0.237   1.068   0.117  0.5195  1.0743  0.4985
  212SOL    HW2  847   0.327   1.053  -0.012 -1.8565  1.5104 -0.4893
  212SOL     MW  848   0.273   1.102   0.042  0.0698  0.0306 -0.0892
  213SOL     OW  849   0.529   1.688   3.087 -0.3567  0.0960  0.4424
  213SOL    HW1  850   0.551   1.762   3.150  1.0202  0.6654  1.5214
  213SOL    HW2  851   0.543   1.728   3.003  0.0626 -0.1296 -1.1601
  213SOL     MW  852   0.534   1.703   3.084 -0.1197  0.1414  0.3733
  214SOL     OW  853   0.623   0.238   2.257  0.0529 -0.4749  0.2188
  214SOL    HW1  854   0.556   0.295   2.224  0.7397  0.8853  0.0007
  214SOL    HW2  855   0.690   0.252   2.195  0.7337  0.6441 -0.2974
  214SOL     MW  856   0.623   0.247   2.244  0.2334 -0.1478  0.1220
  215SOL     OW  857   0.499   0.711   2.645  0.0796  0.2548  0.3139
  215SOL    HW1  858   0.541   0.684   2.563  0.7662  3.3525  1.1265
  215SOL    HW2  859   0.412   0.661   2.647  1.4715  0.3347 -1.5478
  215SOL     MW  860   0.493   0.701   2.635  0.3538  0.6741  0.1755
  216SOL     OW  861   3.103   3.094   2.774  0.6411 -0.1537  0.2580
  216SOL    HW1  862   3.021   3.067   2.828  0.8951  0.7183 -0.5361
  216SOL    HW2  863   3.075   3.181   2.743 -1.2967  0.8775  0.4559
  216SOL     MW  864   3.088   3.102   2.777  0.4190  0.0974  0.1794
  217SOL     OW  865   0.974   1.182   0.019  0.1611  0.2333 -0.5162
  217SOL    HW1  866   1.028   1.097  -0.006 -0.6192 -0.3233 -1.4058
  217SOL    HW2  867   1.041   1.260   0.008 -0.3659  1.9201  2.4748
  217SOL     MW  868   0.990   1.181   0.014 -0.0114  0.3824 -0.2390
  218SOL     OW  869   0.913   1.371   2.483  0.2487  1.3151 -0.0768
  218SOL    HW1  870   0.891   1.281   2.522  2.7802 -0.2667  1.6327
  218SOL    HW2  871   0.994   1.400   2.531 -2.8977 -1.6627 -0.6311
  218SOL     MW  872   0.921   1.363   2.495  0.1676  0.7135  0.0756
  219SOL     OW  873   0.996   0.416   2.540 -0.3788  0.1557 -0.3656
  219SOL    HW1  874   1.070   0.475   2.530 -1.3463 -1.2182 -0.2865
  219SOL    HW2  875   0.960   0.412   2.631  0.0855  0.5932 -0.1154
  219SOL     MW  876   1.001   0.423   2.551 -0.4452  0.0322 -0.3222
  220SOL     OW  877   1.761   0.540   2.176  0.6029 -0.1240 -0.4625
  220SOL    HW1  878   1.683   0.584   2.156  1.0679  0.0004  0.3743
  220SOL    HW2  879   1.791   0.490   2.103 -0.2412  2.3149  0.5385
  220SOL     MW  880   1.755   0.539   2.164  0.5529  0.2142 -0.2200
  221SOL     OW  881   0.404   1.436   2.920  0.1036  0.0880  0.4614
  221SOL    HW1  882   0.412   1.349   2.879  0.0358  2.9150 -1.3969
  221SOL    HW2  883   0.405   1.495   2.837 -1.1489 -1.4136 -2.9127
  221SOL     MW  884   0.405   1.433   2.903 -0.0706  0.2629 -0.2290
  222SOL     OW  885   0.373   0.943   2.671 -0.3750  0.5339  0.0156
  222SOL    HW1  886   0.320   0.935   2.591 -2.4657  1.7076 -2.9096
  222SOL    HW2  887   0.429   0.865   2.663  1.0454 -0.3484 -0.1827
  222SOL     MW  888   0.373   0.931   2.659 -0.4635  0.5723 -0.3965
  223SOL     OW  889   3.066   2.009   2.669  0.0860 -0.5568 -0.5363
  223SOL    HW1  890   3.143   1.945   2.681  1.9895  0.6133 -0.8306
  223SOL    HW2  891   3.118   2.084   2.643  2.9790  1.6144  0.2925
  223SOL     MW  892   3.083   2.010   2.667  0.7189 -0.1160 -0.4658
  224SOL     OW  893   1.541   0.829   2.603 -0.5792  0.3994 -0.6306
  224SOL    HW1  894   1.492   0.832   2.682  2.2339  0.5577 -1.0717
  224SOL    HW2  895   1.531   0.919   2.570  0.5317 -1.9406 -0.4372
  224SOL     MW  896   1.533   0.841   2.609 -0.0615  0.1116 -0.6633
  225SOL     OW  897   2.939   1.467   2.252 -0.8113  0.4004 -0.2214
  225SOL    HW1  898   2.999   1.519   2.197 -0.7459  1.7279 -1.0673
  225SOL    HW2  899   2.887   1.537   2.303 -1.9146  2.3443  0.9502
  225SOL     MW  900   2.940   1.483   2.251 -0.9482  0.8320 -0.1784
  226SOL     OW  901   0.419   1.516   2.648 -0.6926  0.1844 -0.4264
  226SOL    HW1  902   0.500   1.481   2.618  1.9460  0.5361 -0.5210
  226SOL    HW2  903   0.413   1.601   2.607 -0.3524 -1.8337 -1.6849
  226SOL     MW  904   0.429   1.522   2.639 -0.2996 -0.0355 -0.6049
  227SOL     OW  905   0.413   1.163   2.840  0.5964 -1.0370 -0.3821
  227SOL    HW1  906   0.500   1.161   2.795  0.0097 -1.8708  0.7560
  227SOL    HW2  907   0.363   1.110   2.781 -1.3548  1.2960  1.9347
  227SOL     MW  908   0.418   1.155   2.826  0.2615 -0.8392  0.0738
  228SOL     OW  909   0.678   0.976   2.011  0.0599  0.1183 -0.1013
  228SOL    HW1  910   0.763   0.998   1.967  1.4189  2.0537 -0.8519
  228SOL    HW2  911   0.677   0.909   2.089  0.1660 -0.3647 -1.7539
  228SOL     MW  912   0.689   0.970   2.016  0.2532  0.3099 -0.4184
  229SOL     OW  913   0.243   0.475   3.058 -0.2160 -0.0350  0.2693
  229SOL    HW1  914   0.156   0.469   3.027  0.6720  0.1955 -1.3922
  229SOL    HW2  915   0.246   0.427   3.141 -0.5964 -0.5615  0.4596
  229SOL     MW  916   0.232   0.468   3.065 -0.1491 -0.0740  0.0752
  230SOL     OW  917   1.767   1.352   2.114  0.0582 -0.3209 -0.1501
  230SOL    HW1  918   1.712   1.335   2.193 -0.7030  0.8948  0.6104
  230SOL    HW2  919   1.772   1.271   2.059 -1.0361  1.0244  1.2872
  230SOL     MW  920   1.761   1.339   2.117 -0.1867  0.0170  0.1399
  231SOL     OW  921   2.816   1.228   2.196 -0.0292 -0.3581 -0.5517
  231SOL    HW1  922   2.884   1.299   2.218 -1.1415  4.6464 -1.7870
  231SOL    HW2  923   2.745   1.264   2.144 -0.4513  1.7174 -0.7188
  231SOL     MW  924   2.816   1.242   2.192 -0.2317  0.5761 -0.7367
  232SOL     OW  925   2.292   0.968   2.103 -0.5936 -0.5686 -0.1251
  232SOL    HW1  926   2.207   0.985   2.054 -0.1201 -0.6009  1.4747
  232SOL    HW2  927   2.258   0.954   2.187  3.5495  0.4978 -0.6152
  232SOL     MW  928   2.276   0.968   2.107  0.0155 -0.4321  0.0213
  233SOL     OW  929   2.055   0.550   1.939 -0.1375 -0.1152  0.2265
  233SOL    HW1  930   2.101   0.575   1.856  1.4984 -1.0671  0.1050
  233SOL    HW2  931   2.127   0.538   2.007  0.6414 -0.3779 -0.2525
  233SOL     MW  932   2.071   0.552   1.937  0.1811 -0.2754  0.1473
  234SOL     OW  933   0.222   0.956   2.434  0.7993  0.1288 -0.8489
  234SOL    HW1  934   0.124   0.958   2.455 -0.5503 -0.0125  1.9068
  234SOL    HW2  935   0.260   1.043   2.435 -0.9057 -0.1755 -1.8402
  234SOL     MW  936   0.214   0.967   2.437  0.3963  0.0700 -0.6161
  235SOL     OW  937   0.990   3.031   2.795 -0.7045  0.7001 -0.1375
  235SOL    HW1  938   1.057   2.995   2.854  1.0479  0.1147 -0.7768
  235SOL    HW2  939   0.967   3.121   2.819  0.5558  1.6993  0.6080
  235SOL     MW  940   0.996   3.038   2.806 -0.3070  0.7547 -0.1235
  236SOL     OW  941   2.938   0.497   0.083  0.0947 -0.1122 -0.0177
  236SOL    HW1  942   2.854   0.518   0.038  0.1787  0.0354  0.9897
  236SOL    HW2  943   2.982   0.587   0.115 -0.9569  0.6941 -1.1131
  236SOL     MW  944   2.932   0.512   0.081 -0.0329  0.0137 -0.0293
  237SOL     OW  945   1.743   0.886   2.173 -0.0820 -0.5408 -0.1745
  237SOL    HW1  946   1.777   0.975   2.156  0.2593  1.1745 -0.7065
  237SOL    HW2  947   1.781   0.858   2.262  0.8197  1.8823 -0.1494
  237SOL     MW  948   1.753   0.894   2.182  0.0820  0.0052 -0.2414
  238SOL     OW  949   1.104   1.762   2.974 -0.4206 -0.3742 -0.0407
  238SOL    HW1  950   1.043   1.687   2.970  0.5428 -0.0596 -1.3463
  238SOL    HW2  951   1.193   1.727   2.981  3.7203  1.7359  0.0510
  238SOL     MW  952   1.108   1.747   2.975  0.2529 -0.0543 -0.2008
  239SOL     OW  953   1.238   1.387   2.317 -0.6776 -0.2980 -0.1185
  239SOL    HW1  954   1.228   1.437   2.400  1.4842  0.5747 -1.0775
  239SOL    HW2  955   1.154   1.347   2.313  0.7866  0.9973  1.2349
  239SOL     MW  956   1.226   1.389   2.328 -0.1991 -0.0119 -0.0665
  240SOL     OW  957   0.649   0.834   2.228 -0.0111  0.1185 -0.1260
  240SOL    HW1  958   0.644   0.910   2.286  2.1869  0.3970 -0.0452
  240SOL    HW2  959   0.736   0.805   2.251  0.0541 -2.6190 -0.4913
  240SOL     MW  960   0.660   0.840   2.239  0.2875 -0.2060 -0.1635
  241SOL     OW  961   0.653   0.384   2.969 -0.8842  0.2353 -0.8502
  241SOL    HW1  962   0.660   0.441   3.047  3.6175 -1.7923  0.8659
  241SOL    HW2  963   0.562   0.380   2.942  0.3284  1.8340 -1.4442
  241SOL     MW  964   0.642   0.391   2.975 -0.1302  0.1787 -0.7021
  242SOL     OW  965   1.424   1.671   2.366 -0.2663 -0.2592 -0.2730
  242SOL    HW1  966   1.423   1.763   2.376  2.9694 -0.9241  1.6722
  242SOL    HW2  967   1.347   1.653   2.316 -0.2578 -0.4144  0.9734
  242SOL     MW  968   1.414   1.681   2.361  0.1618 -0.3674  0.1481
  243SOL     OW  969   1.027   0.228   2.358 -0.6393  0.0192  0.0269
  243SOL    HW1  970   1.110   0.178   2.348 -0.8259 -1.1261 -1.1653
  243SOL    HW2  971   1.033   0.283   2.434 -0.9674 -0.7452  1.3739
  243SOL     MW  972   1.039   0.228   2.367 -0.7072 -0.2327  0.0473
  244SOL     OW  973   0.220   0.732   2.270 -0.1785 -0.5639  0.2012
  244SOL    HW1  974   0.231   0.818   2.319 -0.4222  0.3046 -0.5950
  244SOL    HW2  975   0.287   0.669   2.295 -4.3486  0.8813 -0.9007
  244SOL     MW  976   0.230   0.735   2.279 -0.7608 -0.2587 -0.0492
  245SOL     OW  977   1.318   0.134   2.281 -1.2507  0.1040 -0.4824
  245SOL    HW1  978   1.312   0.044   2.315  0.2242 -0.7816 -0.7810
  245SOL    HW2  979   1.411   0.161   2.284 -1.8317  2.2582  2.4104
  245SOL     MW  980   1.329   0.126   2.286 -1.1327  0.2714 -0.1401
  246SOL     OW  981   1.182   1.137   2.148 -0.7657  0.1642  0.2723
  246SOL    HW1  982   1.131   1.093   2.219  0.3930 -0.6716 -1.0282
  246SOL    HW2  983   1.272   1.157   2.181  1.9332  1.3926  2.0370
  246SOL     MW  984   1.187   1.133   2.162 -0.2567  0.2160  0.3335
  247SOL     OW  985   0.656   0.526   0.144 -0.1726  0.4110  0.1010
  247SOL    HW1  986   0.617   0.608   0.121  1.3227 -0.0357  1.0391
  247SOL    HW2  987   0.750   0.537   0.149 -0.8511 -2.0210 -0.5751
  247SOL     MW  988   0.663   0.538   0.141 -0.0648  0.0312  0.1356
  248SOL     OW  989   0.401   1.213   2.406  0.6417 -0.1515  0.6337
  248SOL    HW1  990   0.377   1.269   2.330  1.9105  0.8594 -2.2713
  248SOL    HW2  991   0.456   1.266   2.459 -2.2650 -0.7378 -1.1336
  248SOL     MW  992   0.405   1.227   2.403  0.4256 -0.0955  0.0172
  249SOL     OW  993   0.160   1.801   2.715  0.4637  0.0312 -0.1316
  249SOL    HW1  994   0.085   1.744   2.699 -1.7496  2.9620 -0.7790
  249SOL    HW2  995   0.183   1.772   2.801 -0.8219 -0.2182  0.0309
  249SOL     MW  996   0.153   1.789   2.724  0.0021  0.3850 -0.1956
  250SOL     OW  997   2.175   0.927   2.353  0.0777 -0.8721  0.4683
  250SOL    HW1  998   2.231   0.850   2.336  0.8551  3.7476  0.5650
  250SOL    HW2  999   2.207   0.977   2.432 -1.5783  0.8504 -0.7825
  250SOL     MW 1000   2.187   0.923   2.361 -0.0382 -0.0353  0.3160
  251SOL     OW 1001   0.166   0.839   2.019  0.5692 -0.1168 -0.6541
  251SOL    HW1 1002   0.173   0.804   2.105  3.0384 -0.6457 -2.1619
  251SOL    HW2 1003   0.119   0.762   1.974 -0.0026 -0.1732  1.6586
  251SOL     MW 1004   0.161   0.824   2.024  0.8196 -0.1941 -0.5479
  252SOL     OW 1005   1.691   1.028   2.831 -0.1390 -0.2119  0.5551
  252SOL    HW1 1006   1.706   1.043   2.926 -1.4659  0.4838  1.1516
  252SOL    HW2 1007   1.685   1.113   2.785  0.5486 -0.5357  1.0835
  252SOL     MW 1008   1.693   1.041   2.838 -0.2233 -0.1628  0.7035
  253SOL     OW 1009   1.148   1.732   2.542 -0.0656 -0.0210  0.0526
  253SOL    HW1 1010   1.127   1.771   2.458 -0.8457 -0.5203  1.0895
  253SOL    HW2 1011   1.056   1.741   2.582  1.1335 -1.2578  1.4750
  253SOL     MW 1012   1.133   1.738   2.536 -0.0103 -0.2500  0.3771
  254SOL     OW 1013   0.985   1.049   2.325  0.2214 -0.0924  0.4601
  254SOL    HW1 1014   0.961   0.959   2.301  2.6149  0.4770  0.4062
  254SOL    HW2 1015   0.911   1.104   2.310  1.9652 -0.9483  0.9800
  254SOL     MW 1016   0.972   1.045   2.320  0.7673 -0.1302  0.5216
  255SOL     OW 1017   0.765   2.388   2.255  0.6296  0.5880 -0.6294
  255SOL    HW1 1018   0.685   2.334   2.246  0.0771 -1.2564  0.0093
  255SOL    HW2 1019   0.773   2.399   2.349 -1.2984 -0.7679 -1.7018
  255SOL     MW 1020   0.755   2.382   2.266  0.3023  0.1657 -0.6866
  256SOL     OW 1021   1.191   2.872   2.925 -0.1117 -0.2299  0.0068
  256SOL    HW1 1022   1.209   2.772   2.921 -2.0867 -2.6210 -0.1827
  256SOL    HW2 1023   1.257   2.920   2.871 -0.2376  1.3523 -0.8892
  256SOL     MW 1024   1.202   2.865   2.917 -0.3889 -0.3367 -0.1364
  257SOL     OW 1025   0.095   1.850   0.033  0.2055  0.0855  0.3259
  257SOL    HW1 1026   0.143   1.831   0.117 -2.6312  3.1827 -0.8912
  257SOL    HW2 1027   0.126   1.783  -0.031  1.6053 -0.4106  1.9023
  257SOL     MW 1028   0.105   1.839   0.035  0.0159  0.4287  0.3733
  258SOL     OW 1029   0.640   1.048   2.421  0.4450  0.0173  0.8153
  258SOL    HW1 1030   0.678   1.106   2.352 -0.8102 -1.1931  0.3156
  258SOL    HW2 1031   0.557   1.082   2.433  3.2933  5.3735  1.2693
  258SOL     MW 1032   0.634   1.060   2.413  0.6552  0.5643  0.8093
  259SOL     OW 1033   0.610   0.427   2.484  0.3754  1.1992 -0.2261
  259SOL    HW1 1034   0.539   0.475   2.433  1.3657 -0.4175  1.1014
  259SOL    HW2 1035   0.635   0.353   2.431  1.6065 -0.3694 -2.1404
  259SOL     MW 1036   0.604   0.424   2.470  0.6685  0.7789 -0.3035
  260SOL     OW 1037   0.618   0.150   1.576  0.4572 -0.3921 -0.2980
  260SOL    HW1 1038   0.601   0.114   1.488  0.5541  3.0626 -0.6986
  260SOL    HW2 1039   0.717   0.148   1.570  2.0586 -0.1573 -0.9544
  260SOL     MW 1040   0.628   0.145   1.563  0.6813  0.0947 -0.4375
  261SOL     OW 1041   1.093   0.706   2.101  0.1176 -0.4707  0.3311
  261SOL    HW1 1042   1.105   0.676   2.191 -2.7877 -1.8797 -0.4968
  261SOL    HW2 1043   1.164   0.663   2.054 -1.4519  0.5235  2.1285
  261SOL     MW 1044   1.104   0.696   2.107 -0.4728 -0.5254  0.4590
  262SOL     OW 1045   1.116   0.361   0.083  0.0281 -0.3059 -0.4347
  262SOL    HW1 1046   1.208   0.342   0.106  0.2515  0.8225 -1.3974
  262SOL    HW2 1047   1.122   0.327  -0.010 -0.5184 -1.5068  0.4019
  262SOL     MW 1048   1.129   0.354   0.074 -0.0145 -0.3155 -0.4514
  263SOL     OW 1049   0.435   3.010   2.520  0.7589 -0.0816  0.1035
  263SOL    HW1 1050   0.367   3.080   2.518 -4.1265 -0.3034 -0.8623
  263SOL    HW2 1051   0.504   3.030   2.451  1.5052  1.5728 -2.4140
  263SOL     MW 1052   0.435   3.022   2.511  0.2128  0.1074 -0.3561
  264SOL     OW 1053   1.539   1.365   1.954  0.6136  0.1559 -0.3877
  264SOL    HW1 1054   1.481   1.320   2.018 -0.7455 -0.7068 -0.7569
  264SOL    HW2 1055   1.622   1.383   2.006  0.5752  1.7946 -2.4524
  264SOL     MW 1056   1.543   1.362   1.969  0.4292  0.2583 -0.7088
  265SOL     OW 1057   0.688   2.753   2.226 -0.4966  0.1230  0.4037
  265SOL    HW1 1058   0.735   2.681   2.176  0.8613 -2.5262 -0.6743
  265SOL    HW2 1059   0.724   2.747   2.315 -1.2445  0.8765 -0.6274
  265SOL     MW 1060   0.699   2.743   2.231 -0.4161 -0.1271  0.1254
  266SOL     OW 1061   0.892   0.762   2.283 -0.6141  0.1238 -0.0477
  266SOL    HW1 1062   0.925   0.714   2.201  0.8000 -1.3939 -2.6381
  266SOL    HW2 1063   0.879   0.693   2.351  1.2972 -1.3235  2.3599
  266SOL     MW 1064   0.895   0.746   2.281 -0.1753 -0.2674 -0.0719
  267SOL     OW 1065   1.376   1.835   2.683 -0.6897 -0.0840  0.0566
  267SOL    HW1 1066   1.445   1.768   2.673  3.9625 -0.8987 -0.7803
  267SOL    HW2 1067   1.303   1.797   2.642  0.6192  0.1192  0.7260
  267SOL     MW 1068   1.376   1.821   2.676  0.0968 -0.1647  0.0345
  268SOL     OW 1069   0.204   0.754   1.680  0.0157  0.7259  0.5649
  268SOL    HW1 1070   0.141   0.805   1.627 -0.0662 -3.9463  1.5776
  268SOL    HW2 1071   0.179   0.655   1.672  0.1777  0.2851 -0.8591
  268SOL     MW 1072   0.193   0.748   1.672  0.0263  0.0513  0.5107
  269SOL     OW 1073   1.429   1.955   2.439  0.7682 -0.1281  0.0044
  269SOL    HW1 1074   1.432   1.911   2.529 -0.9715  2.5469 -2.5260
  269SOL    HW2 1075   1.352   2.010   2.456 -0.3199  1.6766  0.6311
  269SOL     MW 1076   1.419   1.956   2.453  0.3951  0.4630 -0.2468
  270SOL     OW 1077   1.182   0.456   1.616  0.3359 -0.1770  0.1777
  270SOL    HW1 1078   1.154   0.372   1.660 -0.3122 -0.3092 -0.0770
  270SOL    HW2 1079   1.262   0.434   1.568 -3.4141  1.4266  0.3464
  270SOL     MW 1080   1.189   0.442   1.615 -0.2443  0.0171  0.1664
  271SOL     OW 1081   0.861   3.083   2.412 -0.1920 -0.0469 -0.5861
  271SOL    HW1 1082   0.905   3.019   2.473  0.1246  0.4290  1.7556
  271SOL    HW2 1083   0.905   3.167   2.413  4.4449 -1.1591 -1.7353
  271SOL     MW 1084   0.873   3.086   2.420  0.4616 -0.1308 -0.4288
  272SOL     OW 1085   1.383   3.006   2.804  0.3823  0.1149  0.8056
  272SOL    HW1 1086   1.322   3.043   2.744 -0.6330 -1.2227  0.9467
  272SOL    HW2 1087   1.372   3.066   2.888 -0.0083 -0.0536  0.6412
  272SOL     MW 1088   1.373   3.019   2.807  0.1968 -0.0838  0.8025
  273SOL     OW 1089   1.438   0.922   2.860  0.1416  0.1606  0.7302
  273SOL    HW1 1090   1.529   0.953   2.842  0.0958 -1.1083  3.0781
  273SOL    HW2 1091   1.383   1.000   2.878 -1.3038 -0.7043  0.3854
  273SOL     MW 1092   1.443   0.936   2.860 -0.0551 -0.1209  0.9945
  274SOL     OW 1093   1.349   0.726   0.115  0.2985  0.4050  0.5598
  274SOL    HW1 1094   1.395   0.652   0.158  0.2622 -2.2839 -0.5086
  274SOL    HW2 1095   1.248   0.725   0.138 -0.4345  1.8897  1.0313
  274SOL     MW 1096   1.342   0.716   0.124  0.1970  0.2461  0.4810
  275SOL     OW 1097   1.690   0.649   1.807  0.4155  0.6370  0.2113
  275SOL    HW1 1098   1.775   0.672   1.848 -1.0142  1.0633 -1.3724
  275SOL    HW2 1099   1.689   0.553   1.799 -1.1153  0.9961  2.7953
  275SOL     MW 1100   1.701   0.640   1.811  0.0249  0.7406  0.3433
  276SOL     OW 1101   0.218   1.155   1.826  0.7716  0.4129 -0.2389
  276SOL    HW1 1102   0.271   1.075   1.830  0.7170 -2.3641 -1.7413
  276SOL    HW2 1103   0.154   1.140   1.901  2.6129 -0.2152  1.5342
  276SOL     MW 1104   0.216   1.143   1.836  1.0073 -0.0363 -0.2032
  277SOL     OW 1105   1.956   1.375   2.691  0.0019 -0.0008 -0.7062
  277SOL    HW1 1106   1.984   1.462   2.681  0.2732 -3.3641 -1.0240
  277SOL    HW2 1107   2.022   1.326   2.651 -0.1391  1.7820  0.7369
  277SOL     MW 1108   1.968   1.380   2.684  0.0191 -0.2094 -0.5578
  278SOL     OW 1109   1.422   0.682   1.750 -0.2758 -0.3923 -0.7164
  278SOL    HW1 1110   1.375   0.625   1.816  1.2692 -1.1725  1.2280
  278SOL    HW2 1111   1.512   0.676   1.791  2.5072  2.2886  0.8448
  278SOL     MW 1112   1.428   0.674   1.764  0.2952 -0.1415 -0.2538
  279SOL     OW 1113   0.588   3.066   2.262  0.0702  0.1058  0.2781
  279SOL    HW1 1114   0.670   3.042   2.222 -0.0242  0.1476 -1.7309
  279SOL    HW2 1115   0.570   3.157   2.240 -3.8985 -0.8137  2.8704
  279SOL     MW 1116   0.596   3.075   2.254 -0.4658 -0.0100  0.3551
  280SOL     OW 1117   1.446   1.173   2.221  0.8636  0.1758  0.1676
  280SOL    HW1 1118   1.476   1.101   2.162 -0.9361 -2.6478 -0.5001
  280SOL    HW2 1119   1.468   1.125   2.303  0.2582 -0.5820  2.5600
  280SOL     MW 1120   1.453   1.157   2.224  0.5463 -0.2967  0.3952
  281SOL     OW 1121   1.288   1.421   2.839 -0.4161  0.4852 -0.2749
  281SOL    HW1 1122   1.371   1.470   2.836  0.7145 -0.7198  0.6158
  281SOL    HW2 1123   1.308   1.328   2.839 -5.4563  1.5182  1.0396
  281SOL     MW 1124   1.301   1.415   2.839 -0.9319  0.4625  0.0160
  282SOL     OW 1125   1.088   1.287   1.691 -0.3199  0.2862 -0.4013
  282SOL    HW1 1126   1.034   1.320   1.616  2.2806  3.3635 -2.9868
  282SOL    HW2 1127   1.028   1.261   1.762  0.6080 -0.7961 -0.6255
  282SOL     MW 1128   1.073   1.288   1.690  0.1457  0.5494 -0.7720
  283SOL     OW 1129   0.712   1.232   3.083  0.1979 -0.0382 -0.0653
  283SOL    HW1 1130   0.800   1.194   3.099 -1.1861 -0.6201 -0.0731
  283SOL    HW2 1131   0.704   1.330   3.101  0.9069 -0.7171  2.4286
  283SOL     MW 1132   0.722   1.240   3.087  0.1088 -0.2046  0.2627
  284SOL     OW 1133   0.449   0.607   2.328  0.0890 -0.1205  0.0319
  284SOL    HW1 1134   0.495   0.669   2.265  1.3349 -0.0295 -0.6723
  284SOL    HW2 1135   0.421   0.534   2.269  3.1007 -1.6711  0.9941
  284SOL     MW 1136   0.451   0.606   2.312  0.6508 -0.3131  0.0660
  285SOL     OW 1137   0.924   0.910   2.786 -0.4576  0.0634  0.4617
  285SOL    HW1 1138   0.908   0.976   2.710  2.4156  1.3207  1.0844
  285SOL    HW2 1139   0.865   0.845   2.761 -0.3133 -0.1221 -0.0310
  285SOL     MW 1140   0.914   0.910   2.772 -0.0595  0.2048  0.4788
  286SOL     OW 1141   1.159   1.457   2.580 -0.1040 -0.1425 -0.1188
  286SOL    HW1 1142   1.195   1.439   2.669  1.1091 -1.1286  0.7593
  286SOL    HW2 1143   1.162   1.548   2.555 -1.2723 -0.4369 -0.9833
  286SOL     MW 1144   1.164   1.467   2.589 -0.0981 -0.3115 -0.1170
  287SOL     OW 1145   1.076   0.959   0.418 -0.2532  0.3570  0.1393
  287SOL    HW1 1146   1.130   0.999   0.483  1.0634 -1.1623  1.0849
  287SOL    HW2 1147   1.031   1.021   0.363  1.0543  0.9428  0.1234
  287SOL     MW 1148   1.077   0.972   0.419  0.0930  0.2338  0.2620
  288SOL     OW 1149   1.507   0.667   2.163  0.3413 -0.0053  0.2712
  288SOL    HW1 1150   1.470   0.654   2.252  0.1366  0.0643 -1.1797
  288SOL    HW2 1151   1.509   0.757   2.143 -1.8951 -0.6010 -0.0886
  288SOL     MW 1152   1.502   0.677   2.172  0.0192 -0.0747  0.0323
  289SOL     OW 1153   0.873   1.110   2.602  1.1412 -0.5440  0.1161
  289SOL    HW1 1154   0.922   1.080   2.524 -3.0849  0.9207 -2.3802
  289SOL    HW2 1155   0.784   1.103   2.564  0.2780 -2.0054 -2.7157
  289SOL     MW 1156   0.867   1.105   2.587  0.4697 -0.5436 -0.5869
  290SOL     OW 1157   0.866   0.691   1.530 -0.1969 -0.3933 -0.3404
  290SOL    HW1 1158   0.893   0.623   1.468  0.7410  0.4186 -1.8194
  290SOL    HW2 1159   0.904   0.677   1.616  0.2211 -0.0122  1.7995
  290SOL     MW 1160   0.875   0.680   1.533 -0.0180 -0.2359 -0.2532
  291SOL     OW 1161   0.211   0.361   0.202  0.0005 -0.5503  0.0074
  291SOL    HW1 1162   0.281   0.308   0.234 -1.1837 -0.1832 -0.5474
  291SOL    HW2 1163   0.159   0.291   0.158 -1.8793  0.7082  2.5378
  291SOL     MW 1164   0.213   0.345   0.200 -0.4037 -0.3358  0.2680
  292SOL     OW 1165   0.933   0.575   0.075  0.0942  0.0995  0.1985
  292SOL    HW1 1166   0.992   0.641   0.114  0.0669  0.2327  0.7612
  292SOL    HW2 1167   0.975   0.488   0.092  0.6320  0.6913 -1.5271
  292SOL     MW 1168   0.946   0.572   0.082  0.1615  0.1951  0.0451
  293SOL     OW 1169   0.239   0.089   2.485  0.2266  0.1553  0.2268
  293SOL    HW1 1170   0.167   0.050   2.436  1.3983 -2.0825  0.8223
  293SOL    HW2 1171   0.192   0.136   2.557 -2.4213 -2.0666  0.6052
  293SOL     MW 1172   0.224   0.090   2.488  0.0318 -0.4331  0.3553
  294SOL     OW 1173   1.442   0.629   2.427  0.6894 -0.0320  0.1763
  294SOL    HW1 1174   1.490   0.701   2.477  0.7586  2.5655 -0.5131
  294SOL    HW2 1175   1.438   0.539   2.468  0.6373 -2.1919 -1.7985
  294SOL     MW 1176   1.448   0.627   2.439  0.6916  0.0257 -0.1752
  295SOL     OW 1177   0.800   0.656   2.504  0.5068  0.5093  0.3848
  295SOL    HW1 1178   0.766   0.564   2.490  0.8422  1.4210  1.5613
  295SOL    HW2 1179   0.791   0.668   2.595 -2.8220 -2.6338 -1.9825
  295SOL     MW 1180   0.794   0.645   2.514  0.1119  0.2149  0.2277
  296SOL     OW 1181   1.282   0.307   2.053  0.0075 -0.0058 -0.1397
  296SOL    HW1 1182   1.368   0.269   2.059 -0.3451  3.1842 -0.8663
  296SOL    HW2 1183   1.255   0.276   2.136  2.8107  2.2771  1.5416
  296SOL     MW 1184   1.290   0.298   2.064  0.3309  0.7163 -0.0137
  297SOL     OW 1185   1.420   0.415   1.496 -0.3670  0.2664 -0.1175
  297SOL    HW1 1186   1.469   0.496   1.512 -2.2759 -0.3401 -0.1291
  297SOL    HW2 1187   1.472   0.347   1.538  0.0809  2.0735 -2.1056
  297SOL     MW 1188   1.434   0.417   1.504 -0.5598  0.4248 -0.3814
  298SOL     OW 1189   1.496   0.928   2.063  0.6049 -0.6482  0.2024
  298SOL    HW1 1190   1.498   0.958   1.974  1.9126 -0.2901  0.6173
  298SOL    HW2 1191   1.586   0.935   2.091 -1.0766  0.6275 -0.0235
  298SOL     MW 1192   1.508   0.933   2.055  0.5556 -0.4326  0.2273
  299SOL     OW 1193   0.514   1.024   3.047 -0.1086  0.3083  0.7102
  299SOL    HW1 1194   0.571   1.090   3.079 -0.1428  0.3619 -2.9618
  299SOL    HW2 1195   0.481   1.068   2.964 -0.9010  3.2062  1.5409
  299SOL     MW 1196   0.517   1.039   3.040 -0.2177  0.6977  0.3353
  300SOL     OW 1197   1.220   1.120   2.515  0.6838  0.0133 -0.3784
  300SOL    HW1 1198   1.161   1.073   2.462 -0.7185  0.7263  2.8729
  300SOL    HW2 1199   1.194   1.111   2.603 -0.1992  1.8126 -2.9079
  300SOL     MW 1200   1.209   1.113   2.519  0.3822  0.3448 -0.2832
  301SOL     OW 1201   1.391   0.734   0.589 -0.1621 -0.3085  0.3762
  301SOL    HW1 1202   1.408   0.713   0.686  3.2421 -1.9053  0.6944
  301SOL    HW2 1203   1.325   0.671   0.567 -1.2699 -2.8405  0.2124
  301SOL     MW 1204   1.385   0.723   0.599  0.1409 -0.8533  0.3966
  302SOL     OW 1205   0.149   1.443   1.931  0.4746 -0.4112 -0.3324
  302SOL    HW1 1206   0.174   1.379   1.997  0.4016  1.6192  1.0045
  302SOL    HW2 1207   0.095   1.508   1.982 -0.8209 -2.4773 -2.0390
  302SOL     MW 1208   0.145   1.443   1.947  0.2940 -0.4159 -0.3812
  303SOL     OW 1209   0.416   1.781   2.590 -0.3361 -0.4257 -0.4918
  303SOL    HW1 1210   0.426   1.847   2.521 -0.4978 -0.6347 -0.2648
  303SOL    HW2 1211   0.333   1.792   2.634 -0.3636 -2.2434  0.4187
  303SOL     MW 1212   0.407   1.791   2.587 -0.3610 -0.6931 -0.3417
  304SOL     OW 1213   0.481   2.057   2.434 -0.4845  0.4227 -0.2050
  304SOL    HW1 1214   0.471   2.146   2.396  3.0919  0.2818 -0.1716
  304SOL    HW2 1215   0.548   2.039   2.368  1.0312 -0.2952 -0.8885
  304SOL     MW 1216   0.489   2.067   2.421  0.1873  0.3094 -0.2908
  305SOL     OW 1217   1.177   0.561   0.489 -0.2384  0.0620  0.5541
  305SOL    HW1 1218   1.098   0.549   0.529  1.3264 -1.9241 -0.8671
  305SOL    HW2 1219   1.226   0.479   0.485  1.2022 -0.8147 -1.0699
  305SOL     MW 1220   1.173   0.548   0.494  0.1581 -0.3157  0.1523
  306SOL     OW 1221   1.236   1.416   0.296  0.3083  0.1833 -0.0129
  306SOL    HW1 1222   1.292   1.342   0.328  1.0031  1.1871  3.0572
  306SOL    HW2 1223   1.268   1.430   0.214 -0.5726 -0.1003  1.7485
  306SOL     MW 1224   1.247   1.408   0.289  0.2838  0.2783  0.6246
  307SOL     OW 1225   1.307   0.574   1.990  0.1577 -1.1335 -0.4277
  307SOL    HW1 1226   1.286   0.485   2.025 -1.9724 -1.1031 -0.4672
  307SOL    HW2 1227   1.378   0.605   2.040 -2.0461  0.9709 -2.0497
  307SOL     MW 1228   1.313   0.566   2.001 -0.4141 -0.8518 -0.6469
  308SOL     OW 1229   2.142   0.605   2.735 -0.6416  0.2671 -0.4021
  308SOL    HW1 1230   2.134   0.504   2.736 -2.3423 -0.4647 -1.2709
  308SOL    HW2 1231   2.239   0.616   2.723  2.2527  1.5659  1.0508
  308SOL     MW 1232   2.154   0.593   2.734 -0.4841  0.3419 -0.3251
  309SOL     OW 1233   0.570   0.493   0.401  0.3170 -0.3707  0.2110
  309SOL    HW1 1234   0.594   0.403   0.421  1.1765 -0.3137  0.9464
  309SOL    HW2 1235   0.607   0.507   0.310  0.0222  2.3486 -1.1535
  309SOL     MW 1236   0.578   0.483   0.391  0.3915 -0.0044  0.1280
  310SOL     OW 1237   0.426   0.510   1.912 -0.1972  0.5228  0.0566
  310SOL    HW1 1238   0.491   0.456   1.867 -0.0897 -1.2015 -1.1755
  310SOL    HW2 1239   0.454   0.603   1.901  0.0913  1.6006 -0.2106
  310SOL     MW 1240   0.438   0.515   1.905 -0.1449  0.4375 -0.1412
  311SOL     OW 1241   1.917   0.783   1.954  0.4301 -0.3285  0.5622
  311SOL    HW1 1242   1.849   0.768   2.018  2.2419 -2.0996  0.0424
  311SOL    HW2 1243   1.982   0.716   1.970 -1.1473  3.5508  0.2321
  311SOL     MW 1244   1.916   0.772   1.965  0.4610 -0.0503  0.4500
  312SOL     OW 1245   1.731   2.567   3.086  0.7162 -0.5852  0.2695
  312SOL    HW1 1246   1.776   2.574   3.171  2.7256  2.7175  0.0274
  312SOL    HW2 1247   1.640   2.583   3.115 -2.3247 -1.2633  0.1683
  312SOL     MW 1248   1.725   2.570   3.101  0.5801 -0.2389  0.2242
  313SOL     OW 1249   0.084   1.212   2.935 -0.3450  0.2388  0.5653
  313SOL    HW1 1250   0.165   1.184   2.981 -2.0114 -0.5586  4.0807
  313SOL    HW2 1251   0.118   1.253   2.849 -0.8370  0.5638 -0.5328
  313SOL     MW 1252   0.099   1.214   2.930 -0.6298  0.1765  0.8843
  314SOL     OW 1253   2.147   3.054   2.975 -0.1136  0.2152 -0.0017
  314SOL    HW1 1254   2.072   3.117   2.935  1.7399  0.1305  0.0355
  314SOL    HW2 1255   2.204   3.109   3.028 -0.7735 -0.5649  0.0802
  314SOL     MW 1256   2.144   3.069   2.977  0.0439  0.1011  0.0140
  315SOL     OW 1257   1.574   1.981   3.032 -0.0707 -0.4087 -0.0551
  315SOL    HW1 1258   1.493   2.006   3.075 -0.4213  2.1709  1.5299
  315SOL    HW2 1259   1.573   2.032   2.948 -1.6934 -1.3915 -1.9261
  315SOL     MW 1260   1.563   1.991   3.027 -0.3311 -0.1980 -0.0928
  316SOL     OW 1261   1.240   0.679   2.684  0.0211 -0.0389 -0.2139
  316SOL    HW1 1262   1.276   0.594   2.669  0.4398  0.3792  0.3249
  316SOL    HW2 1263   1.233   0.693   2.784  1.0928  0.8866 -2.1673
  316SOL     MW 1264   1.244   0.670   2.696  0.2177  0.1383 -0.4005
  317SOL     OW 1265   0.666   1.374   2.576 -0.1405  0.2310 -0.6637
  317SOL    HW1 1266   0.687   1.326   2.659 -1.4131  1.7879 -1.9202
  317SOL    HW2 1267   0.745   1.399   2.524 -1.4320 -0.0198  2.2184
  317SOL     MW 1268   0.679   1.371   2.580 -0.4788  0.4034 -0.4492
  318SOL     OW 1269   1.271   0.353   2.922 -0.1162 -0.4026 -0.2048
  318SOL    HW1 1270   1.188   0.410   2.910  1.1260 -1.6134 -1.1014
  318SOL    HW2 1271   1.345   0.408   2.892 -1.3999 -1.9189 -2.4468
  318SOL     MW 1272   1.269   0.368   2.916 -0.1217 -0.7624 -0.6189
  319SOL     OW 1273   0.808   0.410   2.740  0.5155  0.1438  0.0253
  319SOL    HW1 1274   0.760   0.350   2.678  1.4915 -2.0061 -1.1237
  319SOL    HW2 1275   0.757   0.410   2.821 -0.3756  0.2184 -0.0955
  319SOL     MW 1276   0.795   0.402   2.743  0.5267 -0.1300 -0.1423
  320SOL     OW 1277   1.010   1.322   2.023 -0.2910  0.0489  0.0180
  320SOL    HW1 1278   1.072   1.269   2.077  3.2673  0.6700 -0.3508
  320SOL    HW2 1279   1.069   1.392   1.994  1.8253 -0.2897  0.5602
  320SOL     MW 1280   1.026   1.325   2.026  0.4577  0.0861  0.0408
  321SOL     OW 1281   1.116   0.975   2.984  0.0529 -0.1427  0.2478
  321SOL    HW1 1282   1.042   0.971   2.916 -1.9138  0.2498  3.8570
  321SOL    HW2 1283   1.166   0.891   2.957 -0.2537 -0.1686 -0.3353
  321SOL     MW 1284   1.113   0.963   2.971 -0.2470 -0.0943  0.6471
  322SOL     OW 1285   1.214   0.858   1.702  0.0756 -0.7737 -0.2544
  322SOL    HW1 1286   1.284   0.795   1.712 -0.9216 -2.9154 -1.0357
  322SOL    HW2 1287   1.195   0.893   1.787 -0.0082 -0.0334 -1.1678
  322SOL     MW 1288   1.221   0.855   1.715 -0.0670 -0.9586 -0.4780
  323SOL     OW 1289   1.191   1.499   1.893 -0.3546  0.1546 -0.1871
  323SOL    HW1 1290   1.169   1.437   1.832  1.3469  0.6919  1.3163
  323SOL    HW2 1291   1.143   1.581   1.866 -0.5798 -2.0053 -0.7709
  323SOL     MW 1292   1.182   1.502   1.882 -0.1599 -0.0595 -0.0657
  324SOL     OW 1293   1.494   1.090   2.498 -0.3255 -0.2731  0.2529
  324SOL    HW1 1294   1.390   1.106   2.497 -2.3577 -0.4251 -2.6439
  324SOL    HW2 1295   1.548   1.145   2.555  0.4876 -0.2690 -1.0835
  324SOL     MW 1296   1.488   1.100   2.505 -0.4863 -0.2926 -0.3057
  325SOL     OW 1297   1.018   0.482   2.924  0.5023  0.2527  0.2238
  325SOL    HW1 1298   0.996   0.526   3.007  2.7544 -1.2916 -1.9982
  325SOL    HW2 1299   0.965   0.524   2.860  1.8249 -1.5882 -2.6359
  325SOL     MW 1300   1.008   0.493   2.927  0.9739 -0.1940 -0.4467
  326SOL     OW 1301   0.391   1.395   2.176 -0.1523  0.4841  0.0261
  326SOL    HW1 1302   0.449   1.347   2.120 -0.4700  0.5156  2.1505
  326SOL    HW2 1303   0.431   1.480   2.177 -0.6115  2.2473  1.7558
  326SOL     MW 1304   0.404   1.400   2.168 -0.2548  0.7209  0.5346
  327SOL     OW 1305   1.904   0.811   2.423  0.0996  0.0315  0.0032
  327SOL    HW1 1306   1.867   0.762   2.500 -1.2696 -1.2265  0.5060
  327SOL    HW2 1307   1.982   0.859   2.444  0.0254 -0.2793 -2.2241
  327SOL     MW 1308   1.910   0.811   2.436 -0.0908 -0.1755 -0.2243
  328SOL     OW 1309   0.112   1.343   2.175  0.1271  0.3539 -0.1878
  328SOL    HW1 1310   0.119   1.254   2.144 -1.2104 -0.1145  0.6046
  328SOL    HW2 1311   0.201   1.370   2.193 -0.3447 -3.0841  1.2903
  328SOL     MW 1312   0.124   1.335   2.173 -0.1116 -0.1615  0.1117
  329SOL     OW 1313   0.136   0.179   1.382 -0.4920  0.3004  0.3714
  329SOL    HW1 1314   0.077   0.201   1.458 -0.1895 -1.0885 -2.0339
  329SOL    HW2 1315   0.224   0.208   1.406  1.6023 -2.9332  2.1650
  329SOL     MW 1316   0.140   0.186   1.395 -0.1758 -0.3095  0.2907
  330SOL     OW 1317   0.402   2.957   2.097  0.1915  0.1950 -0.2289
  330SOL    HW1 1318   0.485   2.969   2.145 -2.1437 -0.4776 -0.6601
  330SOL    HW2 1319   0.328   2.939   2.160 -2.6234 -0.3218  0.1112
  330SOL     MW 1320   0.403   2.956   2.112 -0.4880  0.0381 -0.2409
  331SOL     OW 1321   0.770   1.202   2.251  1.1008 -0.3440  0.6078
  331SOL    HW1 1322   0.713   1.215   2.180  1.4034  3.0271  1.2721
  331SOL    HW2 1323   0.792   1.290   2.281 -0.0166  0.1048 -1.6599
  331SOL     MW 1324   0.765   1.215   2.246  0.9933  0.1600  0.3962
  332SOL     OW 1325   1.411   1.733   2.950  1.0478  0.1943  0.4820
  332SOL    HW1 1326   1.391   1.785   2.870 -1.5952  0.8061 -0.4394
  332SOL    HW2 1327   1.458   1.800   3.000 -0.5207 -0.2078  1.1243
  332SOL     MW 1328   1.415   1.749   2.946  0.4921  0.2220  0.4452
  333SOL     OW 1329   1.740   1.492   3.010 -0.0876  0.1301 -0.1628
  333SOL    HW1 1330   1.832   1.495   3.039 -1.0050  0.1664  1.6757
  333SOL    HW2 1331   1.707   1.423   3.069 -1.0167 -0.7229  0.5731
  333SOL     MW 1332   1.748   1.483   3.021 -0.3312  0.0224  0.1769
  334SOL     OW 1333   1.192   3.080   2.612  0.2842  0.6024  0.4816
  334SOL    HW1 1334   1.110   3.112   2.659  2.4364 -0.2213 -0.2644
  334SOL    HW2 1335   1.253   3.154   2.612  0.2982  0.0666 -1.1315
  334SOL     MW 1336   1.189   3.094   2.618  0.5700  0.4230  0.1703
  335SOL     OW 1337   1.268   0.736   2.940  0.1324  0.3124  0.0998
  335SOL    HW1 1338   1.281   0.722   3.030 -1.1357  0.7197  0.6661
  335SOL    HW2 1339   1.339   0.788   2.906  1.2593 -2.5882 -0.4174
  335SOL     MW 1340   1.279   0.741   2.947  0.1138 -0.0166  0.1063
  336SOL     OW 1341   0.913   1.079   1.848 -0.4384  0.6023  0.1996
  336SOL    HW1 1342   0.915   1.160   1.896 -0.2264 -0.3914 -1.2540
  336SOL    HW2 1343   0.975   1.019   1.889  0.5128 -3.3418  1.9782
  336SOL     MW 1344   0.921   1.081   1.860 -0.2849 -0.0492  0.2425
  337SOL     OW 1345   0.581   1.749   2.827 -0.1284  0.0659  0.2133
  337SOL    HW1 1346   0.523   1.778   2.759 -2.2286  1.3692  0.9648
  337SOL    HW2 1347   0.616   1.659   2.792  0.0736 -1.8399 -1.2419
  337SOL     MW 1348   0.578   1.741   2.813 -0.3788 -0.0136  0.1204
  338SOL     OW 1349   1.054   0.806   2.543 -0.1634  1.0235 -0.5496
  338SOL    HW1 1350   0.969   0.762   2.549 -0.7584 -0.0111  2.3947
  338SOL    HW2 1351   1.110   0.767   2.614  1.1109 -3.4365  1.0400
  338SOL     MW 1352   1.050   0.795   2.553 -0.0738  0.2986  0.0486
  339SOL     OW 1353   1.479   1.112   1.831  0.9763  0.6280 -0.2764
  339SOL    HW1 1354   1.416   1.120   1.758 -2.4588  0.5790  2.0878
  339SOL    HW2 1355   1.510   1.201   1.860 -0.7591 -0.9243  0.5252
  339SOL     MW 1356   1.475   1.125   1.825  0.2941  0.4167  0.1413
  340SOL     OW 1357   1.323   1.581   0.063 -0.4260  0.4393 -0.2149
  340SOL    HW1 1358   1.360   1.626  -0.012  0.4140 -2.6841  1.1375
  340SOL    HW2 1359   1.397   1.578   0.131  2.7462 -0.5559 -0.5035
  340SOL     MW 1360   1.338   1.587   0.062  0.1033 -0.1041 -0.0745
  341SOL     OW 1361   0.161   1.306   2.684  0.1414  0.7524 -0.2161
  341SOL    HW1 1362   0.250   1.338   2.671  1.7047  2.7183  1.9252
  341SOL    HW2 1363   0.124   1.297   2.597  1.7505  2.1434 -2.3624
  341SOL     MW 1364   0.167   1.309   2.671  0.5600  1.1953 -0.2168
  342SOL     OW 1365   1.420   0.291   0.093  0.0570  0.1820 -0.1068
  342SOL    HW1 1366   1.432   0.372   0.154 -3.0426  1.6759  3.4867
  342SOL    HW2 1367   1.457   0.308   0.007  0.3128  1.2277  1.0928
  342SOL     MW 1368   1.426   0.304   0.089 -0.3182  0.5171  0.5256
  343SOL     OW 1369   0.189   0.288   2.312 -0.2804  0.4218  0.6597
  343SOL    HW1 1370   0.220   0.223   2.375  1.9991 -0.4556  0.6131
  343SOL    HW2 1371   0.134   0.232   2.251  1.0600  0.3487 -0.3912
  343SOL     MW 1372   0.186   0.272   2.313  0.1972  0.2964  0.5149
  344SOL     OW 1373   1.710   2.162   0.119  0.5967  0.2388  0.6293
  344SOL    HW1 1374   1.747   2.217   0.045 -1.5783  0.7206  1.0959
  344SOL    HW2 1375   1.674   2.083   0.072  1.5677 -2.6015 -2.9802
  344SOL     MW 1376   1.710   2.159   0.103  0.4379 -0.0723  0.2147
  345SOL     OW 1377   0.663   1.616   2.355  0.1644  0.4608 -0.0446
  345SOL    HW1 1378   0.570   1.630   2.338 -0.1906  0.8304 -0.8109
  345SOL    HW2 1379   0.708   1.569   2.278 -1.7524  0.6768 -1.2847
  345SOL     MW 1380   0.657   1.612   2.343 -0.1354  0.5381 -0.3093
  346SOL     OW 1381   1.677   1.044   0.001  0.1119  0.5394  0.1389
  346SOL    HW1 1382   1.765   1.025   0.019 -0.5507 -0.1363  0.3770
  346SOL    HW2 1383   1.632   0.965   0.033  1.6034 -3.1026 -1.2859
  346SOL     MW 1384   1.683   1.031   0.007  0.2213 -0.0303 -0.0177
  347SOL     OW 1385   1.180   0.637   2.362  0.2943 -0.4315  0.3020
  347SOL    HW1 1386   1.276   0.655   2.392  0.6806 -1.3594  1.7823
  347SOL    HW2 1387   1.129   0.698   2.418  0.9331 -2.2108 -1.4831
  347SOL     MW 1388   1.186   0.648   2.373  0.4296 -0.7887  0.2618
  348SOL     OW 1389   1.362   2.648   1.862  0.4948 -0.4396 -0.5401
  348SOL    HW1 1390   1.407   2.576   1.921 -0.7182  0.7511  0.6904
  348SOL    HW2 1391   1.372   2.736   1.906 -0.3217  0.1731  1.2185
  348SOL     MW 1392   1.369   2.650   1.876  0.2270 -0.2017 -0.1457
  349SOL     OW 1393   1.359   0.189   2.686  0.0549  0.3112  0.0778
  349SOL    HW1 1394   1.343   0.247   2.764  0.1694 -1.7042  1.8363
  349SOL    HW2 1395   1.441   0.135   2.705  1.5218 -0.2820 -1.5355
  349SOL     MW 1396   1.368   0.190   2.699  0.2636 -0.0329  0.0970
  350SOL     OW 1397   1.860   0.664   2.645 -0.4046  0.5299  0.0838
  350SOL    HW1 1398   1.812   0.591   2.601  0.5192 -1.7097  0.0814
  350SOL    HW2 1399   1.952   0.640   2.669  1.4584  1.0854 -1.1790
  350SOL     MW 1400   1.866   0.651   2.643 -0.0369  0.3077 -0.0831
  351SOL     OW 1401   0.008   0.950   1.567 -0.5286 -0.5334  0.0245
  351SOL    HW1 1402  -0.052   0.971   1.636 -0.5551 -0.8700  0.5475
  351SOL    HW2 1403   0.057   1.034   1.556  0.2967  0.0172 -1.9278
  351SOL     MW 1404   0.006   0.964   1.575 -0.4232 -0.5052 -0.1641
  352SOL     OW 1405   0.779   1.590   2.747 -0.5705  0.5517  0.3008
  352SOL    HW1 1406   0.847   1.549   2.809 -0.0542 -0.8700  5.3375
  352SOL    HW2 1407   0.744   1.522   2.686  1.3565  0.4878  1.1101
  352SOL     MW 1408   0.784   1.576   2.747 -0.2481  0.3557  1.0721
  353SOL     OW 1409   3.054   2.426   2.756  0.1043 -0.5362 -0.1074
  353SOL    HW1 1410   3.138   2.414   2.719 -2.5012  0.3312 -2.8174
  353SOL    HW2 1411   3.019   2.512   2.726  0.7876  0.1806  0.3603
  353SOL     MW 1412   3.060   2.436   2.747 -0.1493 -0.3272 -0.4033
  354SOL     OW 1413   0.395   2.426   0.881  0.6487 -0.1951 -0.2448
  354SOL    HW1 1414   0.415   2.407   0.978 -1.0167 -0.8477 -0.9952
  354SOL    HW2 1415   0.315   2.370   0.868 -0.0697 -3.4204  1.7670
  354SOL     MW 1416   0.387   2.416   0.892  0.3342 -0.7067 -0.0783
  355SOL     OW 1417   0.077   2.252   0.359  0.1132  0.2346  0.0152
  355SOL    HW1 1418  -0.002   2.194   0.372 -0.6564 -1.1668  2.4980
  355SOL    HW2 1419   0.094   2.283   0.449  0.2378  0.4178 -0.7610
  355SOL     MW 1420   0.068   2.249   0.373  0.0281  0.0739  0.2404
  356SOL     OW 1421   0.758   2.960   0.988  0.8572  0.5541  0.0497
  356SOL    HW1 1422   0.838   2.931   0.941  2.2504  0.3954 -1.0843
  356SOL    HW2 1423   0.689   2.889   0.972  0.8694  0.7830  2.6016
  356SOL     MW 1424   0.759   2.947   0.980  1.0426  0.5634  0.2368
  357SOL     OW 1425   1.802   2.965   0.366  0.7755 -0.2798 -0.2888
  357SOL    HW1 1426   1.735   2.915   0.409 -0.7127 -0.1925 -0.3708
  357SOL    HW2 1427   1.881   2.912   0.343 -0.6875 -0.2232 -0.8416
  357SOL     MW 1428   1.804   2.951   0.369  0.3862 -0.2608 -0.3725
  358SOL     OW 1429   0.459   0.169   1.065 -0.3368  0.3038  0.3067
  358SOL    HW1 1430   0.542   0.141   1.008  0.7809 -0.7866  0.4186
  358SOL    HW2 1431   0.394   0.185   0.998  0.8442  2.2606 -0.0743
  358SOL     MW 1432   0.462   0.168   1.049 -0.0335  0.4181  0.2712
  359SOL     OW 1433   0.921   2.769   1.896  1.0743 -0.0202 -0.1491
  359SOL    HW1 1434   0.876   2.700   1.944 -0.2990  2.5916 -3.9573
  359SOL    HW2 1435   0.975   2.722   1.838  0.7518  4.2634 -0.9333
  359SOL     MW 1436   0.922   2.754   1.895  0.8505  0.8896 -0.7550
  360SOL     OW 1437   0.561   2.767   0.904  0.6046  0.4380 -0.1543
  360SOL    HW1 1438   0.567   2.702   0.834  0.4293 -0.5221  0.2924
  360SOL    HW2 1439   0.561   2.725   0.996 -1.0847  0.4709  0.0722
  360SOL     MW 1440   0.562   2.753   0.907  0.3586  0.3156 -0.0655
  361SOL     OW 1441   0.189   2.762   1.381 -0.1307  0.5355  0.2329
  361SOL    HW1 1442   0.156   2.841   1.418  0.0731  0.0230 -4.9817
  361SOL    HW2 1443   0.285   2.757   1.379 -0.0583 -2.8665  0.2243
  361SOL     MW 1444   0.197   2.772   1.386 -0.0942  0.0191 -0.4563
  362SOL     OW 1445   1.499   2.400   0.593 -0.1758 -0.1724 -0.2620
  362SOL    HW1 1446   1.493   2.343   0.670 -0.2485 -0.1553  1.3156
  362SOL    HW2 1447   1.489   2.487   0.634 -0.9302 -0.9265  0.0198
  362SOL     MW 1448   1.497   2.404   0.608 -0.2849 -0.2696 -0.0167
  363SOL     OW 1449   0.225   3.025   0.714 -0.5553 -0.7406  0.6915
  363SOL    HW1 1450   0.253   2.966   0.779 -1.6100 -0.7947 -2.1551
  363SOL    HW2 1451   0.131   3.028   0.707  0.9090 -0.8402 -2.9772
  363SOL     MW 1452   0.217   3.017   0.721 -0.5012 -0.7609 -0.1681
  364SOL     OW 1453   0.744   0.185   0.204 -0.1822  0.5493 -0.4585
  364SOL    HW1 1454   0.745   0.093   0.219  0.7292  0.7377 -1.0126
  364SOL    HW2 1455   0.648   0.203   0.177 -1.0923 -0.2865  0.1471
  364SOL     MW 1456   0.731   0.175   0.203 -0.1820  0.4639 -0.4517
  365SOL     OW 1457   1.001   1.978   1.168 -0.4894  0.0857 -0.2283
  365SOL    HW1 1458   0.999   2.061   1.125 -0.2254 -2.2842  1.1556
  365SOL    HW2 1459   0.935   1.927   1.128 -1.4310 -0.2917  1.3092
  365SOL     MW 1460   0.992   1.982   1.157 -0.5788 -0.2768  0.1571
  366SOL     OW 1461   2.857   2.652   1.017 -0.1000  0.4296  0.2982
  366SOL    HW1 1462   2.931   2.665   1.082  1.6581  1.2720  1.4578
  366SOL    HW2 1463   2.895   2.658   0.926 -0.9771  1.0443 -0.9541
  366SOL     MW 1464   2.872   2.654   1.013  0.0163  0.6218  0.2860
  367SOL     OW 1465   1.273   2.921   0.877  0.1609 -0.8728  0.3076
  367SOL    HW1 1466   1.216   2.998   0.901 -1.7843  3.5778 -1.0373
  367SOL    HW2 1467   1.221   2.873   0.808 -2.4619 -2.1011  0.4473
  367SOL     MW 1468   1.259   2.925   0.871 -0.4418 -0.4477  0.1486
  368SOL     OW 1469   1.691   0.441   0.655 -0.2804 -0.1762 -0.2184
  368SOL    HW1 1470   1.775   0.399   0.629  0.8857  0.1451 -0.0739
  368SOL    HW2 1471   1.705   0.532   0.664 -0.8556  2.4806  3.0454
  368SOL     MW 1472   1.704   0.447   0.653 -0.2025  0.2167  0.2313
  369SOL     OW 1473   0.149   2.477   1.748 -0.0505  0.5511  0.0897
  369SOL    HW1 1474   0.238   2.435   1.762 -1.2311 -2.3604 -0.2859
  369SOL    HW2 1475   0.144   2.547   1.805  1.5691 -3.8692  1.1031
  369SOL     MW 1476   0.160   2.481   1.757  0.0075 -0.4163  0.1739
  370SOL     OW 1477   0.665   0.111   0.897 -0.5678  0.2950  1.0945
  370SOL    HW1 1478   0.736   0.175   0.926 -0.2512  0.6053  1.4667
  370SOL    HW2 1479   0.695   0.020   0.929  2.0991  0.8055  1.0183
  370SOL     MW 1480   0.679   0.107   0.905 -0.1742  0.4033  1.1335
  371SOL     OW 1481   1.339   2.975   1.507 -0.0000  0.2134  0.3910
  371SOL    HW1 1482   1.298   2.895   1.463 -3.6371 -1.2883  0.9865
  371SOL    HW2 1483   1.363   3.036   1.439  2.2283 -0.0829  2.6588
  371SOL     MW 1484   1.337   2.972   1.492 -0.1859 -0.0238  0.7688
  372SOL     OW 1485   0.791   2.274   0.490  0.2412 -0.3561  0.3670
  372SOL    HW1 1486   0.731   2.204   0.513 -3.1056 -0.1903  0.6533
  372SOL    HW2 1487   0.824   2.271   0.400  1.8179  4.7435  0.0059
  372SOL     MW 1488   0.787   2.265   0.481  0.0077  0.3386  0.3572
  373SOL     OW 1489   2.803   2.987   1.409  0.4087  0.2848  0.1603
  373SOL    HW1 1490   2.872   2.977   1.342  0.2753 -0.0130  1.4359
  373SOL    HW2 1491   2.777   3.079   1.410  1.7691  0.9903 -1.7352
  373SOL     MW 1492   2.809   2.998   1.401  0.5706  0.3386  0.0785
  374SOL     OW 1493   1.481   0.504   0.231  0.2745  0.0565  0.0291
  374SOL    HW1 1494   1.569   0.514   0.200 -1.9462 -1.9586  0.0531
  374SOL    HW2 1495   1.494   0.479   0.323  2.5617 -0.8647  1.5708
  374SOL     MW 1496   1.494   0.502   0.239  0.2833 -0.3309  0.2357
  375SOL     OW 1497   1.118   2.097   2.246  0.2214 -0.0304 -0.0159
  375SOL    HW1 1498   1.155   2.095   2.338 -1.0243 -1.6807  2.0096
  375SOL    HW2 1499   1.090   1.999   2.247 -0.1880  0.4704  0.4807
  375SOL     MW 1500   1.119   2.084   2.259  0.0030 -0.1821  0.3168
  376SOL     OW 1501   0.689   2.543   0.133  0.2353  0.4210 -0.2183
  376SOL    HW1 1502   0.741   2.476   0.184  1.0991 -3.1809 -0.2733
  376SOL    HW2 1503   0.620   2.490   0.089 -1.5255  1.5687 -0.2473
  376SOL     MW 1504   0.687   2.527   0.134  0.1170  0.0972 -0.2293
  377SOL     OW 1505   1.256   2.070   0.938 -0.9286 -0.4606  0.6557
  377SOL    HW1 1506   1.189   2.034   0.878  1.4241 -0.6377 -2.4358
  377SOL    HW2 1507   1.258   2.019   1.018 -2.0115  1.3495 -1.8461
  377SOL     MW 1508   1.247   2.059   0.941 -0.7611 -0.2452 -0.0823
  378SOL     OW 1509   0.973   2.822   1.490  0.3988 -0.2000 -0.1995
  378SOL    HW1 1510   0.915   2.745   1.510 -1.2415  0.5649  1.3821
  378SOL    HW2 1511   0.945   2.848   1.400 -5.2257 -0.7226 -0.5123
  378SOL     MW 1512   0.961   2.815   1.481 -0.5597 -0.1680 -0.0321
  379SOL     OW 1513   1.042   1.852   2.321  0.3698  0.1757 -0.0826
  379SOL    HW1 1514   0.957   1.854   2.365 -0.4025 -0.1812  0.7928
  379SOL    HW2 1515   1.046   1.778   2.264 -1.4863 -1.2232  0.4832
  379SOL     MW 1516   1.032   1.842   2.319  0.0230 -0.0560  0.1075
  380SOL     OW 1517   0.892   0.228   1.556 -0.9455 -0.2500  0.2396
  380SOL    HW1 1518   0.927   0.182   1.473  2.0889 -0.4600 -2.3400
  380SOL    HW2 1519   0.962   0.212   1.618 -1.1552 -2.2312  0.5321
  380SOL     MW 1520   0.906   0.220   1.553 -0.5728 -0.5391 -0.0622
  381SOL     OW 1521   0.848   2.033   0.813 -0.0504 -0.3752 -0.6317
  381SOL    HW1 1522   0.936   2.025   0.776 -1.2830  0.8417  0.4726
  381SOL    HW2 1523   0.863   2.102   0.880  0.2597  1.1441  0.0278
  381SOL     MW 1524   0.862   2.041   0.817 -0.1721 -0.0142 -0.3990
  382SOL     OW 1525   0.681   0.034   0.634 -0.0828 -0.0352  0.3323
  382SOL    HW1 1526   0.657   0.084   0.711  2.7240  2.0445 -0.8227
  382SOL    HW2 1527   0.653  -0.058   0.653 -1.5110  1.3793  0.2858
  382SOL     MW 1528   0.674   0.029   0.646  0.0991  0.4258  0.1738
  383SOL     OW 1529   0.483   0.008   0.348  0.5830  0.4084 -0.3987
  383SOL    HW1 1530   0.496   0.038   0.440 -1.0239  1.5638  2.4203
  383SOL    HW2 1531   0.387  -0.006   0.334  4.6574  1.3054 -0.9629
  383SOL     MW 1532   0.472   0.010   0.359  0.9086  0.6792 -0.1012
  384SOL     OW 1533   0.615   2.857   0.583 -0.7108  0.2224 -0.2713
  384SOL    HW1 1534   0.629   2.771   0.629  1.2657  0.6631  1.1405
  384SOL    HW2 1535   0.516   2.867   0.578  1.7174 -1.0064  0.0974
  384SOL     MW 1536   0.603   2.847   0.589 -0.1297  0.1185 -0.0364
  385SOL     OW 1537   1.310   2.053   1.558  0.3470  0.5133  0.1864
  385SOL    HW1 1538   1.392   2.066   1.606 -0.4692  0.5737  1.9494
  385SOL    HW2 1539   1.276   1.971   1.599  2.7770  1.2200  2.0513
  385SOL     MW 1540   1.316   2.044   1.570  0.5600  0.6145  0.6651
  386SOL     OW 1541   1.354   0.443   0.898  0.4408 -0.0396 -0.2377
  386SOL    HW1 1542   1.264   0.430   0.862 -2.0577  0.8979 -0.2220
  386SOL    HW2 1543   1.342   0.453   0.993 -0.3091 -0.1843 -0.1010
  386SOL     MW 1544   1.340   0.443   0.906  0.0122  0.0650 -0.2176
  387SOL     OW 1545   0.903   2.179   1.474  0.2546 -0.4261 -0.0801
  387SOL    HW1 1546   0.968   2.242   1.439 -2.6016 -1.6021 -0.0370
  387SOL    HW2 1547   0.925   2.091   1.437  0.3345 -2.7760 -2.5844
  387SOL     MW 1548   0.914   2.176   1.465 -0.1117 -0.8913 -0.4048
  388SOL     OW 1549   1.571   2.862   1.197 -0.3341 -0.2652 -0.4484
  388SOL    HW1 1550   1.496   2.817   1.168  0.4449  0.1013  0.9496
  388SOL    HW2 1551   1.639   2.817   1.146 -0.0787  1.5232 -3.3910
  388SOL     MW 1552   1.570   2.850   1.187 -0.1976  0.0191 -0.6522
  389SOL     OW 1553   0.424   0.145   3.096 -0.4108  0.3157 -0.2367
  389SOL    HW1 1554   0.513   0.105   3.088  1.0729 -0.1963 -0.1542
  389SOL    HW2 1555   0.363   0.083   3.122 -0.6745  2.9394 -1.0560
  389SOL     MW 1556   0.427   0.132   3.098 -0.2498  0.5943 -0.3339
  390SOL     OW 1557   1.384   0.058   0.646 -0.0187  0.3513  0.2057
  390SOL    HW1 1558   1.463   0.093   0.609 -0.4281 -0.2530  0.3378
  390SOL    HW2 1559   1.392   0.071   0.742  2.0378 -1.0998  1.2206
  390SOL     MW 1560   1.395   0.064   0.654  0.1986  0.0801  0.3570
  391SOL     OW 1561   0.271   2.318   1.423 -0.0505 -0.0629  0.1169
  391SOL    HW1 1562   0.241   2.244   1.484 -1.6222  0.9939  1.4789
  391SOL    HW2 1563   0.206   2.391   1.428 -0.8301 -2.4136  1.0947
  391SOL     MW 1564   0.259   2.318   1.431 -0.3607 -0.2336  0.4256
  392SOL     OW 1565   1.980   2.186   0.299 -0.1523 -0.1985  0.2625
  392SOL    HW1 1566   1.903   2.242   0.320 -3.2651 -0.6784  1.3075
  392SOL    HW2 1567   2.024   2.169   0.388  1.7975 -2.4558 -0.1450
  392SOL     MW 1568   1.976   2.191   0.313 -0.3057 -0.5596  0.3466
  393SOL     OW 1569   0.210   3.022   2.945 -0.2452  0.4229 -0.4994
  393SOL    HW1 1570   0.277   3.071   2.901 -1.5883 -0.8828  1.7305
  393SOL    HW2 1571   0.135   3.050   2.892  0.9786  0.7844 -2.6872
  393SOL     MW 1572   0.209   3.032   2.932 -0.2609  0.2983 -0.4939
  394SOL     OW 1573   0.843   1.650   1.434  0.3147  0.0173 -0.2435
  394SOL    HW1 1574   0.790   1.656   1.516 -1.8378  2.1142  0.0838
  394SOL    HW2 1575   0.863   1.737   1.419  0.7474 -1.7601  2.7217
  394SOL     MW 1576   0.839   1.662   1.443  0.0878  0.0594  0.1909
  395SOL     OW 1577   0.942   2.866   2.600 -0.0141  0.2578 -0.3978
  395SOL    HW1 1578   0.960   2.930   2.675  3.0307  2.7912 -0.5895
  395SOL    HW2 1579   1.027   2.828   2.557 -0.3218  0.2797 -0.0106
  395SOL     MW 1580   0.956   2.869   2.604  0.3470  0.5949 -0.3720
  396SOL     OW 1581   0.758   1.861   2.365 -0.0715 -0.0664  0.2177
  396SOL    HW1 1582   0.786   1.871   2.457  2.1102  0.4953 -0.8716
  396SOL    HW2 1583   0.730   1.766   2.358  0.9850 -1.0386  0.7990
  396SOL     MW 1584   0.758   1.850   2.376  0.3557 -0.1205  0.1507
  397SOL     OW 1585   1.026   2.351   1.306 -0.3444  0.1423  0.2118
  397SOL    HW1 1586   1.043   2.395   1.216 -0.2267  0.3028 -0.5290
  397SOL    HW2 1587   1.104   2.374   1.356  0.6199  0.6569  3.0940
  397SOL     MW 1588   1.039   2.360   1.301 -0.2016  0.2314  0.4943
  398SOL     OW 1589   0.571   2.598   0.680  0.3991 -0.0960  0.1456
  398SOL    HW1 1590   0.488   2.585   0.627 -3.1752  0.4005 -1.0497
  398SOL    HW2 1591   0.646   2.561   0.638  1.2469  0.4675  3.2022
  398SOL     MW 1592   0.570   2.592   0.668  0.0393  0.0439  0.3912
  399SOL     OW 1593   0.273   2.059   0.341  0.2967  0.3943  0.2012
  399SOL    HW1 1594   0.215   2.129   0.343  3.0401 -1.1824 -0.1744
  399SOL    HW2 1595   0.334   2.071   0.272 -1.0005  0.0631  1.6925
  399SOL     MW 1596   0.273   2.070   0.332  0.4875  0.1425  0.3484
  400SOL     OW 1597   0.625   1.841   0.196  0.2008  0.2614 -0.1860
  400SOL    HW1 1598   0.578   1.921   0.169 -0.9067 -1.5551 -1.6837
  400SOL    HW2 1599   0.554   1.789   0.241  0.1844 -1.6619 -0.2180
  400SOL     MW 1600   0.610   1.845   0.198  0.0525 -0.2320 -0.3879
  401SOL     OW 1601   1.032   2.103   0.054  0.1996 -0.1115 -0.3591
  401SOL    HW1 1602   1.023   2.012   0.070 -0.6421 -0.7113 -1.3274
  401SOL    HW2 1603   1.082   2.141   0.134 -0.3515 -0.6380  1.7622
  401SOL     MW 1604   1.038   2.096   0.067  0.0158 -0.2601 -0.2070
  402SOL     OW 1605   0.695   2.794   1.723  0.0527  1.1533 -0.3700
  402SOL    HW1 1606   0.605   2.787   1.763 -1.5006  1.5713  0.1360
  402SOL    HW2 1607   0.753   2.820   1.796  1.4142  0.1434 -2.2804
  402SOL     MW 1608   0.690   2.796   1.738  0.0274  1.0752 -0.5553
  403SOL     OW 1609   0.065   0.560   0.349 -0.4823 -0.1084  0.4982
  403SOL    HW1 1610   0.139   0.589   0.400  0.7127 -1.0991  0.8120
  403SOL    HW2 1611   0.106   0.521   0.270 -1.5869  0.1331 -4.6434
  403SOL     MW 1612   0.080   0.559   0.346 -0.4704 -0.2073 -0.1388
  404SOL     OW 1613   0.982   2.896   0.849 -0.0480 -0.1418 -0.5116
  404SOL    HW1 1614   1.018   2.810   0.815  0.1959 -1.2888  0.8221
  404SOL    HW2 1615   0.987   2.961   0.775  2.1284 -0.7724  0.6514
  404SOL     MW 1616   0.987   2.893   0.835  0.2714 -0.3763 -0.1822
  405SOL     OW 1617   0.460   2.458   1.554  0.0324  0.1491 -0.1305
  405SOL    HW1 1618   0.455   2.531   1.500  1.5934 -1.0950  0.3154
  405SOL    HW2 1619   0.398   2.385   1.519  1.6198 -0.2717  0.8700
  405SOL     MW 1620   0.451   2.458   1.543  0.4478 -0.0706  0.0604
  406SOL     OW 1621   0.419   2.415   1.158  0.0533 -0.1399 -0.3380
  406SOL    HW1 1622   0.327   2.430   1.183  0.8759 -1.2512 -1.5588
  406SOL    HW2 1623   0.431   2.322   1.184 -2.0473 -2.4261  2.0886
  406SOL     MW 1624   0.408   2.405   1.165 -0.1153 -0.5882 -0.1789
  407SOL     OW 1625   0.004   2.679   1.173  0.2164  0.0198 -0.1158
  407SOL    HW1 1626   0.047   2.696   1.258 -0.4773 -3.5994 -4.1266
  407SOL    HW2 1627   0.079   2.662   1.120 -1.3854  0.8731  1.9056
  407SOL     MW 1628   0.020   2.679   1.177 -0.0865 -0.3452 -0.3783
  408SOL     OW 1629   2.110   2.102   0.544  0.3687  0.7090  0.1095
  408SOL    HW1 1630   2.114   2.189   0.593  2.0085  0.8447 -0.7845
  408SOL    HW2 1631   2.030   2.050   0.569 -3.7483 -0.5035  3.4886
  408SOL     MW 1632   2.100   2.107   0.554  0.0419  0.5669  0.4374
  409SOL     OW 1633   1.377   0.161   0.887  0.0908 -0.4663 -0.5724
  409SOL    HW1 1634   1.409   0.253   0.884  0.7764 -2.9972 -0.4733
  409SOL    HW2 1635   1.452   0.116   0.929  0.1932 -2.3072 -1.6619
  409SOL     MW 1636   1.391   0.167   0.892  0.1948 -1.0431 -0.7031
  410SOL     OW 1637   1.074   2.491   1.078  0.1557  0.1775 -0.0405
  410SOL    HW1 1638   1.012   2.508   1.007  2.4437 -2.6065  1.4839
  410SOL    HW2 1639   1.160   2.496   1.033  0.6162 -2.2440  1.5132
  410SOL     MW 1640   1.077   2.494   1.063  0.5183 -0.5093  0.3656
  411SOL     OW 1641   1.956   0.101   2.875 -0.3087  0.1129 -0.8596
  411SOL    HW1 1642   1.921   0.069   2.792  0.9049  0.7455 -1.2253
  411SOL    HW2 1643   1.882   0.110   2.938  0.1373  0.9809  0.2993
  411SOL     MW 1644   1.942   0.098   2.873 -0.0897  0.3109 -0.7549
  412SOL     OW 1645   1.051   2.209   0.558  0.7796  0.0705  0.0545
  412SOL    HW1 1646   1.102   2.292   0.584 -2.3170  2.0580 -1.5835
  412SOL    HW2 1647   0.956   2.230   0.551  1.7751  0.6470 -1.0034
  412SOL     MW 1648   1.045   2.223   0.560  0.5024  0.4088 -0.3012
  413SOL     OW 1649   0.547   2.786   0.155  0.1948  0.1073  0.6123
  413SOL    HW1 1650   0.599   2.701   0.164  2.1218 -1.3104  2.3624
  413SOL    HW2 1651   0.557   2.817   0.060 -1.1147  0.0905  1.1615
  413SOL     MW 1652   0.555   2.779   0.143  0.2762 -0.0820  0.9157
  414SOL     OW 1653   2.004   3.025   1.034 -0.0827 -0.3238 -0.2862
  414SOL    HW1 1654   1.949   3.002   0.961  0.5520  1.6213  2.6555
  414SOL    HW2 1655   2.090   2.990   1.027  1.2154  1.4433  1.5834
  414SOL     MW 1656   2.008   3.017   1.023  0.1723  0.1659  0.3486
  415SOL     OW 1657   1.757   2.693   1.071  0.0516 -0.1129 -0.0229
  415SOL    HW1 1658   1.719   2.629   1.129  0.4508  0.5865  1.8171
  415SOL    HW2 1659   1.840   2.725   1.109 -0.7488  0.9737 -0.6721
  415SOL     MW 1660   1.763   2.689   1.084 -0.0013  0.1228  0.1343
  416SOL     OW 1661   0.605   1.941   1.377  0.2063 -0.3471 -0.3684
  416SOL    HW1 1662   0.565   2.027   1.360  0.6739  0.5446 -1.6544
  416SOL    HW2 1663   0.600   1.902   1.286  0.2784  0.5963 -1.3451
  416SOL     MW 1664   0.599   1.947   1.363  0.2775 -0.1049 -0.6669
  417SOL     OW 1665   1.090   3.003   1.965 -0.1571  0.5402 -0.1610
  417SOL    HW1 1666   1.028   2.983   2.034 -1.0182  0.7386  0.1333
  417SOL    HW2 1667   1.069   2.943   1.893 -1.6476 -1.1067  0.4681
  417SOL     MW 1668   1.079   2.993   1.964 -0.4674  0.3491 -0.0391
  418SOL     OW 1669   0.738   3.006   0.190 -0.1568 -0.1814  0.1454
  418SOL    HW1 1670   0.782   2.948   0.126  1.4846  0.8702  0.3256
  418SOL    HW2 1671   0.663   2.945   0.203 -0.1163 -0.6201 -0.2895
  418SOL     MW 1672   0.734   2.990   0.184  0.0651 -0.1005  0.1118
  419SOL     OW 1673   0.447   2.689   1.402 -0.3865  0.2067 -0.0063
  419SOL    HW1 1674   0.525   2.749   1.418  0.6704  0.6131 -1.8541
  419SOL    HW2 1675   0.465   2.667   1.311 -1.8517 -2.8758 -0.7989
  419SOL     MW 1676   0.460   2.694   1.392 -0.4404 -0.1464 -0.3546
  420SOL     OW 1677   0.909   2.226   1.006  0.1292  0.3025  0.2490
  420SOL    HW1 1678   0.852   2.224   1.083  1.3497 -2.3629  2.7264
  420SOL    HW2 1679   0.911   2.309   0.957  0.6272 -1.0171 -0.2709
  420SOL     MW 1680   0.902   2.237   1.010  0.3560 -0.2233  0.5073
  421SOL     OW 1681   2.943   0.116   0.044 -0.4699  0.3268 -0.1071
  421SOL    HW1 1682   2.904   0.067  -0.035 -0.5701  1.1837  0.6286
  421SOL    HW2 1683   2.930   0.050   0.111  2.5612  0.9250 -0.8986
  421SOL     MW 1684   2.936   0.101   0.043 -0.0832  0.5188 -0.1144
  422SOL     OW 1685   0.876   2.467   0.886 -0.0764 -0.2752 -0.2763
  422SOL    HW1 1686   0.794   2.508   0.909 -0.3037 -0.2795  0.1521
  422SOL    HW2 1687   0.874   2.468   0.784  0.5034 -0.1434  0.8157
  422SOL     MW 1688   0.865   2.472   0.876 -0.0299 -0.2584 -0.0757
  423SOL     OW 1689   1.612   0.124   0.503 -0.2173  0.4467 -0.1128
  423SOL    HW1 1690   1.596   0.088   0.418 -0.7242  1.6817 -0.0519
  423SOL    HW2 1691   1.608   0.216   0.486 -0.5054 -1.1996 -0.1655
  423SOL     MW 1692   1.609   0.131   0.490 -0.3222  0.3924 -0.1117
  424SOL     OW 1693   0.738   2.188   1.223  0.0751  0.1556  0.1914
  424SOL    HW1 1694   0.649   2.203   1.246  0.7067  1.6317  3.9520
  424SOL    HW2 1695   0.782   2.205   1.306 -2.4913 -1.1510 -0.7817
  424SOL     MW 1696   0.732   2.192   1.237 -0.1802  0.1780  0.5592
  425SOL     OW 1697   1.739   2.819   2.045 -0.3259  0.8160 -0.1930
  425SOL    HW1 1698   1.742   2.809   1.947 -0.1163 -0.0516 -1.1819
  425SOL    HW2 1699   1.737   2.729   2.080 -0.2859  2.0877 -0.3811
  425SOL     MW 1700   1.739   2.806   2.037 -0.2930  0.8693 -0.3483
  426SOL     OW 1701   0.746   1.582   1.915 -0.4332  0.3211 -0.2792
  426SOL    HW1 1702   0.723   1.599   1.827 -0.5417 -2.6332 -0.0011
  426SOL    HW2 1703   0.720   1.663   1.968 -0.7617  3.3322 -3.1851
  426SOL     MW 1704   0.739   1.595   1.910 -0.4909  0.3286 -0.6259
  427SOL     OW 1705   0.385   1.543   1.845 -0.4886  0.2879  0.1931
  427SOL    HW1 1706   0.442   1.462   1.828 -0.7330 -0.5643 -0.5381
  427SOL    HW2 1707   0.298   1.522   1.880 -1.2581  1.6385  0.3595
  427SOL     MW 1708   0.381   1.529   1.847 -0.6224  0.3537  0.1186
  428SOL     OW 1709   0.584   2.623   1.169  0.2902  0.4034 -0.0739
  428SOL    HW1 1710   0.661   2.597   1.228  1.4341 -0.3132  0.8691
  428SOL    HW2 1711   0.518   2.548   1.170  1.4136 -0.3857  2.6655
  428SOL     MW 1712   0.586   2.610   1.177  0.5894  0.2047  0.4119
  429SOL     OW 1713   1.335   2.710   1.044 -0.3036 -0.1611  0.0007
  429SOL    HW1 1714   1.250   2.687   1.069  0.0952  0.2923  0.2584
  429SOL    HW2 1715   1.307   2.782   0.989 -0.9403 -1.5331  0.8002
  429SOL     MW 1716   1.320   2.716   1.040 -0.3350 -0.2823  0.1402
  430SOL     OW 1717   1.159   2.747   0.702  0.3655  0.1375  0.3185
  430SOL    HW1 1718   1.212   2.670   0.690  0.0750  0.4814  0.0209
  430SOL    HW2 1719   1.131   2.752   0.608 -0.8406  0.5776  0.3484
  430SOL     MW 1720   1.162   2.738   0.688  0.1680  0.2410  0.2832
  431SOL     OW 1721   0.363   1.993   1.122 -0.3025 -0.4594 -0.0763
  431SOL    HW1 1722   0.419   1.919   1.117 -3.2668  0.6808  1.0052
  431SOL    HW2 1723   0.325   2.003   1.030  1.2743 -2.3941 -2.8543
  431SOL     MW 1724   0.365   1.984   1.109 -0.4855 -0.5642 -0.3002
  432SOL     OW 1725   0.117   0.027   1.143 -0.3089 -0.5228 -0.1835
  432SOL    HW1 1726   0.119   0.079   1.219 -0.4246 -0.9248 -1.6044
  432SOL    HW2 1727   0.041  -0.024   1.158  2.3779 -0.6774  0.9488
  432SOL     MW 1728   0.107   0.027   1.155  0.0304 -0.5962 -0.2216
  433SOL     OW 1729   0.646   2.873   1.456  0.2452  0.0978  0.3637
  433SOL    HW1 1730   0.674   2.860   1.544 -0.3539 -0.9677 -1.9039
  433SOL    HW2 1731   0.729   2.891   1.404  0.2201  2.8143  3.2146
  433SOL     MW 1732   0.660   2.874   1.461  0.1628  0.3156  0.4406
  434SOL     OW 1733   1.564   2.824   1.498 -0.5786 -0.5183 -0.2305
  434SOL    HW1 1734   1.476   2.862   1.509  1.2164 -1.4569 -0.0787
  434SOL    HW2 1735   1.577   2.805   1.408  1.1944  0.1322  0.3059
  434SOL     MW 1736   1.554   2.827   1.488 -0.1078 -0.5563 -0.1397
  435SOL     OW 1737   2.841   1.802   0.235  0.4310  0.1216 -0.0320
  435SOL    HW1 1738   2.900   1.871   0.203  0.2964 -0.1506 -2.8057
  435SOL    HW2 1739   2.828   1.747   0.161 -2.8734  2.6942  0.9171
  435SOL     MW 1740   2.847   1.804   0.221 -0.0227  0.4251 -0.2727
  436SOL     OW 1741   1.448   2.790   0.312 -0.1584 -0.0806 -0.1799
  436SOL    HW1 1742   1.518   2.761   0.379 -1.2109 -1.0947  1.1087
  436SOL    HW2 1743   1.400   2.863   0.353  0.5312 -0.3602  0.4792
  436SOL     MW 1744   1.451   2.796   0.326 -0.2063 -0.2513  0.0771
  437SOL     OW 1745   0.842   2.953   1.258  0.5516 -0.1072  0.2631
  437SOL    HW1 1746   0.860   3.043   1.285  0.0689  2.3043  0.7277
  437SOL    HW2 1747   0.792   2.961   1.174 -0.5536  0.5723  1.1949
  437SOL     MW 1748   0.838   2.966   1.250  0.3421  0.3006  0.4473
  438SOL     OW 1749   0.837   2.519   2.033  0.1139 -0.1565 -0.2752
  438SOL    HW1 1750   0.825   2.490   2.125 -0.9500  2.4054 -3.2034
  438SOL    HW2 1751   0.758   2.477   1.998  0.3013  1.8569  1.0774
  438SOL     MW 1752   0.825   2.510   2.041 -0.0018  0.4472 -0.4831
  439SOL     OW 1753   1.146   2.161   0.293  0.1523  0.2237 -0.2006
  439SOL    HW1 1754   1.084   2.172   0.371  0.0466 -0.6766 -0.1996
  439SOL    HW2 1755   1.154   2.254   0.257 -1.8354  0.2341 -0.2090
  439SOL     MW 1756   1.139   2.174   0.298 -0.1239  0.1063 -0.2016
  440SOL     OW 1757   1.620   3.049   2.981  0.5300 -0.1304 -0.1062
  440SOL    HW1 1758   1.616   3.032   3.073 -0.4290  0.5691 -1.3496
  440SOL    HW2 1759   1.670   2.973   2.946 -0.5780 -0.7742 -1.6233
  440SOL     MW 1760   1.626   3.037   2.989  0.2573 -0.1230 -0.4704
  441SOL     OW 1761   0.322   2.585   0.539  0.0501 -1.1588 -0.4698
  441SOL    HW1 1762   0.317   2.557   0.450  0.4578  0.8732  1.7582
  441SOL    HW2 1763   0.325   2.683   0.527  4.7240 -0.5239 -0.8029
  441SOL     MW 1764   0.322   2.594   0.526  0.7205 -0.8069 -0.2198
  442SOL     OW 1765   0.009   2.335   0.645  0.3325 -0.0261 -0.6253
  442SOL    HW1 1766  -0.031   2.422   0.632  1.4053 -1.0501  1.6375
  442SOL    HW2 1767  -0.076   2.286   0.648  0.5287  0.2965 -1.9803
  442SOL     MW 1768  -0.008   2.340   0.644  0.4999 -0.1186 -0.5055
  443SOL     OW 1769   1.411   1.738   1.847  0.2414 -0.0124 -0.2739
  443SOL    HW1 1770   1.394   1.760   1.759 -0.0570 -3.1446  2.3654
  443SOL    HW2 1771   1.374   1.654   1.850  0.4428 -1.3379 -3.5072
  443SOL     MW 1772   1.404   1.730   1.836  0.2286 -0.6005 -0.3523
  444SOL     OW 1773   0.861   2.576   1.592 -0.5815 -0.2497 -0.1293
  444SOL    HW1 1774   0.949   2.558   1.644  4.2811 -0.6108 -0.9303
  444SOL    HW2 1775   0.805   2.613   1.662  0.3383 -0.8047 -0.7035
  444SOL     MW 1776   0.865   2.579   1.608  0.1814 -0.3706 -0.3108
  445SOL     OW 1777   0.961   0.109   1.313 -0.3827  0.1697  0.1837
  445SOL    HW1 1778   0.908   0.177   1.279  0.0276 -2.0269  0.5181
  445SOL    HW2 1779   1.053   0.122   1.282 -1.4100  2.4968  1.4244
  445SOL     MW 1780   0.966   0.119   1.304 -0.4641  0.1869  0.3915
  446SOL     OW 1781   2.731   2.900   1.046  0.3186  0.3144 -0.2216
  446SOL    HW1 1782   2.676   2.927   0.974  1.1849  0.1615 -0.9257
  446SOL    HW2 1783   2.760   2.808   1.027 -0.3363  1.8423  2.5063
  446SOL     MW 1784   2.728   2.891   1.034  0.3465  0.4958  0.0454
  447SOL     OW 1785   3.016   2.043   1.688  0.2341  0.3307  0.4124
  447SOL    HW1 1786   3.075   2.012   1.758  2.6783  2.4482 -1.0652
  447SOL    HW2 1787   2.992   1.974   1.629 -0.5477 -1.0320 -1.2826
  447SOL     MW 1788   3.020   2.030   1.689  0.4535  0.4303 -0.0062
  448SOL     OW 1789   1.663   2.364   1.668 -0.4139  0.3054 -0.6221
  448SOL    HW1 1790   1.610   2.282   1.664  0.3470 -1.0565  1.5951
  448SOL    HW2 1791   1.599   2.437   1.661  0.0119 -3.5865  0.3260
  448SOL     MW 1792   1.648   2.363   1.666 -0.2573 -0.3878 -0.2045
  449SOL     OW 1793   0.826   2.865   0.411 -0.2214 -0.0290 -0.2670
  449SOL    HW1 1794   0.796   2.925   0.346  1.2150  1.2385  1.7101
  449SOL    HW2 1795   0.749   2.854   0.468 -0.8432  0.3776  1.6684
  449SOL     MW 1796   0.812   2.871   0.410 -0.1139  0.1919  0.2492
  450SOL     OW 1797   1.217   2.433   0.652  0.1258  0.0655 -0.9040
  450SOL    HW1 1798   1.236   2.410   0.744  0.9369 -0.8304  2.2474
  450SOL    HW2 1799   1.306   2.424   0.618 -0.2701 -1.5074  1.3514
  450SOL     MW 1800   1.231   2.429   0.659  0.1806 -0.2602 -0.1906
  451SOL     OW 1801   0.617   1.958   1.661 -0.3738  0.2043  0.2545
  451SOL    HW1 1802   0.708   1.995   1.681  3.4454 -1.3602  1.3755
  451SOL    HW2 1803   0.612   1.963   1.564 -0.9894 -0.2026  0.1954
  451SOL     MW 1804   0.629   1.964   1.651  0.0488 -0.0558  0.3946
  452SOL     OW 1805   0.262   2.686   0.062 -0.2668 -0.0824  0.6807
  452SOL    HW1 1806   0.346   2.719   0.089  0.7244 -0.3746  1.3667
  452SOL    HW2 1807   0.264   2.687  -0.037 -2.7800  2.4300  0.0350
  452SOL     MW 1808   0.273   2.690   0.053 -0.4676  0.2105  0.6860
  453SOL     OW 1809   0.413   3.001   1.628 -0.3328 -0.2835  0.2680
  453SOL    HW1 1810   0.469   3.071   1.593  1.5444  0.7802 -3.5942
  453SOL    HW2 1811   0.360   2.969   1.558  0.2149 -0.8445 -1.4225
  453SOL     MW 1812   0.413   3.006   1.614 -0.0129 -0.2172 -0.4646
  454SOL     OW 1813   1.064   2.747   1.179 -0.4939  0.3260 -0.4398
  454SOL    HW1 1814   1.041   2.652   1.156 -2.4979 -0.3052  1.1340
  454SOL    HW2 1815   0.982   2.792   1.186 -0.2365  0.5017  0.3569
  454SOL     MW 1816   1.050   2.741   1.177 -0.7243  0.2659 -0.1271
  455SOL     OW 1817   1.618   2.947   0.140 -0.5845  0.6035  0.2785
  455SOL    HW1 1818   1.697   2.961   0.185 -1.1850 -2.3119 -0.0954
  455SOL    HW2 1819   1.566   2.885   0.196  1.9127 -1.4097  2.1170
  455SOL     MW 1820   1.621   2.941   0.153 -0.3343 -0.0468  0.4718
  456SOL     OW 1821   2.900   0.311   1.386  0.4112  0.4031  0.5261
  456SOL    HW1 1822   2.819   0.263   1.346 -1.3608 -2.2321 -2.7567
  456SOL    HW2 1823   2.940   0.359   1.313 -2.0620  1.6459 -1.2150
  456SOL     MW 1824   2.895   0.311   1.371 -0.1489  0.2194 -0.1367
  457SOL     OW 1825   0.932   1.552   2.988 -0.3670  0.2155  0.3817
  457SOL    HW1 1826   0.864   1.554   3.056  0.1829 -0.8808 -2.0813
  457SOL    HW2 1827   1.006   1.504   3.027 -1.7826  1.0846 -2.0452
  457SOL     MW 1828   0.933   1.546   3.002 -0.4812  0.1855 -0.2635
  458SOL     OW 1829   1.461   1.390   0.603 -0.0061  0.2643 -0.1990
  458SOL    HW1 1830   1.397   1.424   0.666  1.4995 -1.2407 -1.0253
  458SOL    HW2 1831   1.416   1.332   0.540  2.7072 -1.0628 -4.2304
  458SOL     MW 1832   1.446   1.387   0.603  0.5505 -0.1094 -0.8399
  459SOL     OW 1833   1.577   0.106   0.236 -0.0455 -0.3836 -0.2467
  459SOL    HW1 1834   1.559   0.011   0.213 -0.4067 -1.4395 -1.7853
  459SOL    HW2 1835   1.515   0.156   0.188  2.1176 -0.7978  0.3675
  459SOL     MW 1836   1.567   0.100   0.227  0.1922 -0.5776 -0.3687
  460SOL     OW 1837   1.742   2.131   0.600 -0.1972  0.4882  0.5136
  460SOL    HW1 1838   1.660   2.116   0.651  3.0715  1.1763 -1.4644
  460SOL    HW2 1839   1.777   2.035   0.595  2.2785  2.1625 -0.7627
  460SOL     MW 1840   1.736   2.116   0.606  0.5608  0.7999  0.0842
  461SOL     OW 1841   0.393   2.318   0.628  0.6559  0.5283 -0.2842
  461SOL    HW1 1842   0.309   2.367   0.629 -1.7546  2.0654 -0.4126
  461SOL    HW2 1843   0.430   2.356   0.707 -0.9108 -0.5460 -0.7172
  461SOL     MW 1844   0.387   2.329   0.639  0.1311  0.5894 -0.3583
  462SOL     OW 1845   0.401   0.264   1.328  0.2267  0.2822 -0.7047
  462SOL    HW1 1846   0.415   0.202   1.255 -0.4143 -0.7923 -2.3404
  462SOL    HW2 1847   0.489   0.314   1.331  2.9992  1.2184  0.9650
  462SOL     MW 1848   0.415   0.262   1.319  0.5079  0.2640 -0.7002
  463SOL     OW 1849   0.969   0.018   0.693  0.6714  0.4637  0.2778
  463SOL    HW1 1850   1.010  -0.005   0.606 -0.9045  2.0638  1.7825
  463SOL    HW2 1851   0.877   0.026   0.675  2.6479  0.9923 -0.8757
  463SOL     MW 1852   0.962   0.016   0.679  0.7242  0.7446  0.3241
  464SOL     OW 1853   0.848   2.984   2.155  0.0171 -0.0545 -0.0799
  464SOL    HW1 1854   0.787   2.910   2.147  0.2593 -1.3554 -0.6377
  464SOL    HW2 1855   0.865   3.025   2.241  1.0047 -1.7317 -0.9696
  464SOL     MW 1856   0.842   2.980   2.165  0.1794 -0.4475 -0.2708
  465SOL     OW 1857   0.673   0.255   0.454  0.1508 -0.6057 -0.1454
  465SOL    HW1 1858   0.683   0.176   0.505  1.7272  1.3436 -0.5913
  465SOL    HW2 1859   0.699   0.225   0.362 -0.7232 -1.0996 -0.4595
  465SOL     MW 1860   0.678   0.240   0.448  0.2435 -0.4136 -0.2457
  466SOL     OW 1861   1.093   1.990   0.734 -0.3611 -0.3135 -0.0007
  466SOL    HW1 1862   1.095   1.910   0.681 -0.5653  0.5320  1.7562
  466SOL    HW2 1863   1.082   2.069   0.672  0.5533  0.3117 -1.1231
  466SOL     MW 1864   1.092   1.990   0.719 -0.2674 -0.1195  0.0830
  467SOL     OW 1865   1.266   2.369   0.929  0.3226 -0.7059  0.6619
  467SOL    HW1 1866   1.354   2.364   0.960  2.0017  1.1708  1.2284
  467SOL    HW2 1867   1.234   2.273   0.950 -2.1807 -0.5631  4.3751
  467SOL     MW 1868   1.273   2.356   0.936  0.2138 -0.4394  1.2266
  468SOL     OW 1869   0.322   2.591   2.007 -0.2186 -0.4637  0.2280
  468SOL    HW1 1870   0.319   2.505   1.965 -0.4623 -0.2230 -0.2336
  468SOL    HW2 1871   0.376   2.648   1.949  4.1654  0.2772  1.2262
  468SOL     MW 1872   0.329   2.587   1.994  0.3277 -0.3342  0.2988
  469SOL     OW 1873   0.401   2.057   1.799 -0.0561  0.2105  0.5539
  469SOL    HW1 1874   0.325   2.061   1.735 -0.1356 -1.7636  1.5461
  469SOL    HW2 1875   0.473   2.003   1.757  1.9272 -0.2738  1.1064
  469SOL     MW 1876   0.400   2.051   1.785  0.1951 -0.1139  0.7577
  470SOL     OW 1877   3.105   2.553   0.190  0.8475 -0.2443  0.1306
  470SOL    HW1 1878   3.024   2.513   0.224 -0.1641  0.5402  0.6393
  470SOL    HW2 1879   3.092   2.576   0.099  0.3779  1.8921 -0.2076
  470SOL     MW 1880   3.093   2.551   0.183  0.6521  0.1411  0.1531
  471SOL     OW 1881   1.225   2.753   1.407 -0.8856 -0.7378 -0.3265
  471SOL    HW1 1882   1.141   2.770   1.453 -0.7206 -1.0870  1.3530
  471SOL    HW2 1883   1.196   2.741   1.321  1.7119 -0.5418  0.8842
  471SOL     MW 1884   1.210   2.754   1.402 -0.5211 -0.7580  0.0549
  472SOL     OW 1885   2.952   2.123   0.383 -0.5446  0.3308 -0.1891
  472SOL    HW1 1886   2.961   2.075   0.290 -3.0342 -0.8329  0.1394
  472SOL    HW2 1887   2.930   2.048   0.445  2.5780  3.6034  3.4760
  472SOL     MW 1888   2.950   2.107   0.379 -0.4611  0.6091  0.3378
  473SOL     OW 1889   0.789   2.516   1.312  0.0179  0.0806 -0.1726
  473SOL    HW1 1890   0.852   2.443   1.302 -1.8042 -3.6138 -0.9540
  473SOL    HW2 1891   0.781   2.518   1.409 -0.1236  0.6992 -0.4618
  473SOL     MW 1892   0.796   2.506   1.323 -0.2412 -0.3252 -0.3139
  474SOL     OW 1893   0.840   2.173   1.736  0.2967  0.5355  0.9429
  474SOL    HW1 1894   0.899   2.238   1.763 -1.7282 -1.1258  2.9551
  474SOL    HW2 1895   0.833   2.188   1.646  0.6899  1.3182  1.0404
  474SOL     MW 1896   0.847   2.184   1.727  0.0814  0.4196  1.2213
  475SOL     OW 1897   1.695   3.089   1.431  0.1231  0.0456  0.2377
  475SOL    HW1 1898   1.622   3.114   1.376 -3.1632 -1.3025  2.9605
  475SOL    HW2 1899   1.659   3.013   1.473 -1.6714  1.7136 -0.8812
  475SOL     MW 1900   1.681   3.082   1.429 -0.5473  0.0878  0.4493
  476SOL     OW 1901   1.468   2.621   0.797  0.1887 -0.1276 -0.1514
  476SOL    HW1 1902   1.399   2.622   0.861 -0.3522  4.0102  1.2874
  476SOL    HW2 1903   1.497   2.711   0.800 -0.3272 -1.8868  0.2011
  476SOL     MW 1904   1.463   2.633   0.806  0.0493  0.1862  0.0850
  477SOL     OW 1905   0.856   2.526   0.584  0.2701  0.3389 -0.4133
  477SOL    HW1 1906   0.930   2.568   0.522  2.7974  0.4136  0.6500
  477SOL    HW2 1907   0.825   2.442   0.544 -0.8092 -2.2253 -0.7158
  477SOL     MW 1908   0.862   2.521   0.571  0.4611  0.0104 -0.3129
  478SOL     OW 1909   0.221   2.628   1.003  0.4050 -0.6043 -0.0616
  478SOL    HW1 1910   0.226   2.719   0.965 -1.6486  0.9973  1.2479
  478SOL    HW2 1911   0.284   2.568   0.963  1.5278 -0.6555 -0.7875
  478SOL     MW 1912   0.230   2.632   0.993  0.2822 -0.3997  0.0154
  479SOL     OW 1913   1.444   1.913   1.328 -0.0547  0.3036  0.0956
  479SOL    HW1 1914   1.403   1.956   1.407  0.9331 -0.5100 -1.3761
  479SOL    HW2 1915   1.522   1.875   1.369 -0.9918 -0.3593 -0.5551
  479SOL     MW 1916   1.449   1.914   1.344 -0.0480  0.1088 -0.1844
  480SOL     OW 1917   1.804   2.376   1.320 -0.5863 -0.2505 -0.4899
  480SOL    HW1 1918   1.801   2.299   1.369 -1.7409  0.1785 -5.1551
  480SOL    HW2 1919   1.844   2.350   1.235  0.7550 -2.0295  0.4432
  480SOL     MW 1920   1.809   2.363   1.315 -0.5617 -0.4286 -0.9823
  481SOL     OW 1921   1.180   0.148   1.066 -0.1142  0.0540  0.4718
  481SOL    HW1 1922   1.242   0.140   0.990 -1.1040 -2.6512 -0.1705
  481SOL    HW2 1923   1.188   0.239   1.097 -0.4663  0.0138  1.4763
  481SOL     MW 1924   1.189   0.159   1.060 -0.2912 -0.3082  0.5196
  482SOL     OW 1925   1.056   3.052   0.446  0.1899  0.2913 -0.0937
  482SOL    HW1 1926   0.967   3.014   0.436 -0.9240  1.6102 -0.6042
  482SOL    HW2 1927   1.053   3.147   0.426 -0.8839  0.3861  0.9977
  482SOL     MW 1928   1.044   3.060   0.442 -0.0987  0.4778 -0.0170
  483SOL     OW 1929   0.344   2.865   0.522 -0.6895 -0.2730  0.6071
  483SOL    HW1 1930   0.330   2.899   0.439  2.4343 -0.5669  2.0476
  483SOL    HW2 1931   0.283   2.918   0.580  1.5292  2.1831  2.3135
  483SOL     MW 1932   0.334   2.876   0.519  0.0154  0.0123  1.0223
  484SOL     OW 1933   1.676   1.847   1.462 -0.4733 -0.0012  0.5355
  484SOL    HW1 1934   1.714   1.926   1.417  0.5591 -0.5214 -1.3386
  484SOL    HW2 1935   1.678   1.869   1.556 -0.2468  2.1703 -0.4127
  484SOL     MW 1936   1.682   1.860   1.468 -0.3072  0.2167  0.1631
  485SOL     OW 1937   0.535   2.312   0.305  0.4173  0.0195 -0.4779
  485SOL    HW1 1938   0.603   2.367   0.341 -0.1654 -0.7938  1.9725
  485SOL    HW2 1939   0.463   2.355   0.350  2.9397 -1.1101 -1.5865
  485SOL     MW 1940   0.535   2.325   0.315  0.6732 -0.2368 -0.3009
  486SOL     OW 1941   0.095   2.537   1.487  0.2249  0.1938 -0.2543
  486SOL    HW1 1942   0.133   2.620   1.461 -2.8977  0.9669  0.8388
  486SOL    HW2 1943   0.099   2.523   1.583  0.2848  1.5330  1.8428
  486SOL     MW 1944   0.100   2.546   1.497 -0.1792  0.4725  0.1666
  487SOL     OW 1945   1.327   1.573   1.095 -0.2530  0.2708 -0.6357
  487SOL    HW1 1946   1.301   1.667   1.084 -4.2076  1.2809 -4.0534
  487SOL    HW2 1947   1.420   1.580   1.073 -1.8030 -2.2957 -1.7320
  487SOL     MW 1948   1.336   1.586   1.090 -0.9793  0.0655 -1.2312
  488SOL     OW 1949   1.450   1.813   0.597  0.3581 -0.3808  0.5752
  488SOL    HW1 1950   1.449   1.896   0.549  1.8504 -0.4705 -2.0406
  488SOL    HW2 1951   1.378   1.760   0.557  1.2450  1.3008 -0.7228
  488SOL     MW 1952   1.440   1.817   0.586  0.6720 -0.1707  0.0588
  489SOL     OW 1953   0.682   0.689   0.513  0.1395  0.4413 -0.0300
  489SOL    HW1 1954   0.631   0.616   0.470 -0.0357  0.3067  0.6894
  489SOL    HW2 1955   0.645   0.697   0.600 -1.4305 -1.0255  0.1351
  489SOL     MW 1956   0.670   0.681   0.519 -0.0908  0.2300  0.0867
  490SOL     OW 1957   1.343   2.059   0.472  0.2963  0.0737 -0.3648
  490SOL    HW1 1958   1.407   2.118   0.423  2.4520 -0.6600  0.1218
  490SOL    HW2 1959   1.262   2.103   0.446  1.0209  1.5777 -0.8793
  490SOL     MW 1960   1.341   2.073   0.462  0.6763  0.1753 -0.3685
  491SOL     OW 1961   1.327   3.006   0.398 -0.6456 -0.3112 -0.6076
  491SOL    HW1 1962   1.347   3.042   0.484 -1.2256  1.5368 -0.5526
  491SOL    HW2 1963   1.238   3.024   0.386 -0.3605  1.2941  0.9024
  491SOL     MW 1964   1.318   3.013   0.408 -0.6845  0.1444 -0.4011
  492SOL     OW 1965   1.473   2.144   0.725 -0.1955  0.3520 -0.0563
  492SOL    HW1 1966   1.419   2.118   0.652  1.7172 -0.1616 -0.3873
  492SOL    HW2 1967   1.422   2.119   0.797 -1.2456  1.2855 -1.1362
  492SOL     MW 1968   1.459   2.137   0.725 -0.0817  0.4074 -0.2425
  493SOL     OW 1969   0.204   3.058   0.325 -0.4572 -0.2529  0.0824
  493SOL    HW1 1970   0.126   3.092   0.375 -2.4013 -0.9624  2.1039
  493SOL    HW2 1971   0.175   3.030   0.237 -1.4504 -0.2339  0.0595
  493SOL     MW 1972   0.190   3.059   0.320 -0.8448 -0.3440  0.3461
  494SOL     OW 1973   0.384   2.366   1.804 -0.0968  0.7218 -0.5414
  494SOL    HW1 1974   0.387   2.265   1.804 -0.3302 -0.7050 -0.5052
  494SOL    HW2 1975   0.414   2.399   1.715 -0.9040 -1.4149  0.0941
  494SOL     MW 1976   0.388   2.357   1.792 -0.2341  0.2517 -0.4528
  495SOL     OW 1977   2.848   1.603   2.683  0.7888  0.4943 -0.0120
  495SOL    HW1 1978   2.823   1.667   2.748  0.0389  0.7104 -0.4144
  495SOL    HW2 1979   2.807   1.521   2.718  2.4838 -0.6266  0.1497
  495SOL     MW 1980   2.840   1.601   2.696  0.9135  0.3749 -0.0437
  496SOL     OW 1981   2.823   2.282   2.700 -0.3605 -0.1346  0.2704
  496SOL    HW1 1982   2.831   2.193   2.738 -0.6635  0.8801 -2.6095
  496SOL    HW2 1983   2.902   2.332   2.726 -2.9553 -1.2588  0.6746
  496SOL     MW 1984   2.835   2.277   2.708 -0.7429 -0.1490 -0.0562
  497SOL     OW 1985   1.513   2.414   2.592  0.0160 -0.9319  0.0113
  497SOL    HW1 1986   1.517   2.367   2.508  2.7265 -0.9398 -1.6889
  497SOL    HW2 1987   1.456   2.353   2.643  0.8721 -1.6848  2.4786
  497SOL     MW 1988   1.506   2.400   2.588  0.4866 -1.0323  0.1125
  498SOL     OW 1989   1.436   2.754   2.319 -0.2991  0.4755 -0.3875
  498SOL    HW1 1990   1.440   2.658   2.296 -1.3520  0.0887 -1.0889
  498SOL    HW2 1991   1.512   2.764   2.382  0.9500 -2.5052  0.5379
  498SOL     MW 1992   1.446   2.743   2.324 -0.2732  0.0312 -0.3579
  499SOL     OW 1993   0.997   0.074   0.078  0.2930  0.3644 -0.4225
  499SOL    HW1 1994   0.929   0.106   0.139  0.0521 -0.3529  2.6992
  499SOL    HW2 1995   0.978  -0.021   0.088 -3.5191 -0.4923  0.1741
  499SOL     MW 1996   0.986   0.066   0.088 -0.2418  0.1567  0.0681
  500SOL     OW 1997   1.068   2.514   2.729  0.3590 -0.3031  0.5593
  500SOL    HW1 1998   1.092   2.462   2.804 -0.3066 -1.5696  0.3078
  500SOL    HW2 1999   1.009   2.579   2.763  2.1118  0.2434 -0.4782
  500SOL     MW 2000   1.063   2.516   2.744  0.5025 -0.3981  0.3893
  501SOL     OW 2001   1.830   2.285   2.984 -0.2739 -0.3097  0.7014
  501SOL    HW1 2002   1.839   2.380   2.996  0.5249 -0.5075  3.3463
  501SOL    HW2 2003   1.920   2.246   2.985 -0.6289 -2.4299 -0.0808
  501SOL     MW 2004   1.843   2.292   2.985 -0.2154 -0.6155  0.9471
  502SOL     OW 2005   0.299   2.744   2.866 -0.7517 -0.4611  0.6544
  502SOL    HW1 2006   0.365   2.766   2.799  0.4280 -0.4460  0.9396
  502SOL    HW2 2007   0.259   2.826   2.875  2.6196 -2.4122  1.4611
  502SOL     MW 2008   0.302   2.758   2.858 -0.1513 -0.7165  0.7985
  503SOL     OW 2009   1.139   2.518   2.057 -0.2511  0.7308 -0.0601
  503SOL    HW1 2010   1.194   2.561   1.989  2.5238 -1.2140  0.6554
  503SOL    HW2 2011   1.046   2.541   2.048  1.9378 -4.3798  2.9123
  503SOL     MW 2012   1.134   2.527   2.047  0.4038 -0.2001  0.4265
  504SOL     OW 2013   0.076   2.671   2.189  0.8995  0.0405 -0.6040
  504SOL    HW1 2014   0.119   2.609   2.134 -0.7493 -0.0640 -1.2753
  504SOL    HW2 2015   0.024   2.615   2.242 -0.5195 -1.3946  1.5857
  504SOL     MW 2016   0.075   2.656   2.189  0.4947 -0.1627 -0.4037
  505SOL     OW 2017   1.569   2.822   2.744 -0.0456 -0.3513 -0.2045
  505SOL    HW1 2018   1.607   2.830   2.649  2.6042  1.7177 -1.1558
  505SOL    HW2 2019   1.509   2.898   2.761 -1.2820  0.1552  1.0531
  505SOL     MW 2020   1.566   2.833   2.734  0.1409 -0.0115 -0.1641
  506SOL     OW 2021   1.609   0.097   2.751 -0.2300 -0.6221  0.2103
  506SOL    HW1 2022   1.578   0.056   2.829  0.9238 -0.6557 -3.8707
  506SOL    HW2 2023   1.669   0.040   2.712  1.5104  2.8144  1.8626
  506SOL     MW 2024   1.613   0.084   2.756  0.1519 -0.1731 -0.1101
  507SOL     OW 2025   0.861   2.697   2.835  0.5069  0.1558  0.1528
  507SOL    HW1 2026   0.855   2.770   2.772 -0.3942  2.8779  2.6855
  507SOL    HW2 2027   0.777   2.655   2.823 -0.7993  0.9285 -0.9792
  507SOL     MW 2028   0.849   2.701   2.825  0.2157  0.6169  0.3376
  508SOL     OW 2029   1.210   2.119   2.524 -0.4454  0.1396  0.4896
  508SOL    HW1 2030   1.269   2.154   2.598 -2.2970  2.0939  1.6390
  508SOL    HW2 2031   1.131   2.104   2.570 -0.6772 -0.3563 -1.3048
  508SOL     MW 2032   1.207   2.121   2.540 -0.7203  0.3320  0.4045
  509SOL     OW 2033   0.603   2.532   2.844  0.2932  0.1269 -0.2874
  509SOL    HW1 2034   0.581   2.465   2.774  1.2385 -0.3299 -0.9467
  509SOL    HW2 2035   0.540   2.608   2.823  0.4446  0.0698  0.8864
  509SOL     MW 2036   0.592   2.533   2.832  0.4379  0.0591 -0.2195
  510SOL     OW 2037   1.494   2.584   1.634 -0.3679  0.0407  0.0388
  510SOL    HW1 2038   1.517   2.672   1.605 -0.7032  0.6127  1.7698
  510SOL    HW2 2039   1.460   2.603   1.725  1.2193 -2.1818  1.3062
  510SOL     MW 2040   1.492   2.598   1.642 -0.2028 -0.1770  0.4344
  511SOL     OW 2041   0.345   2.515   2.475 -0.1488  0.0137 -0.7641
  511SOL    HW1 2042   0.425   2.472   2.511  0.1676 -0.4240  1.9181
  511SOL    HW2 2043   0.364   2.538   2.382  0.5550 -2.4225 -0.1094
  511SOL     MW 2044   0.358   2.513   2.467 -0.0142 -0.3655 -0.3238
  512SOL     OW 2045   1.001   1.959   2.824  0.9835 -0.3855 -0.4447
  512SOL    HW1 2046   0.915   1.978   2.860 -0.6482 -0.0393 -3.0490
  512SOL    HW2 2047   1.045   1.884   2.871 -1.3477  1.6433 -0.8344
  512SOL     MW 2048   0.995   1.952   2.835  0.4607 -0.0721 -0.8397
  513SOL     OW 2049   1.506   2.494   2.284  0.2967  0.1638  0.1854
  513SOL    HW1 2050   1.601   2.506   2.249  0.6321  2.5509  3.2753
  513SOL    HW2 2051   1.506   2.395   2.281  0.4180  0.1691 -2.2132
  513SOL     MW 2052   1.519   2.483   2.279  0.3570  0.4794  0.2766
  514SOL     OW 2053   0.226   2.354   2.684 -0.9220 -0.3485 -0.2698
  514SOL    HW1 2054   0.268   2.428   2.643 -0.0271 -0.6945  0.6680
  514SOL    HW2 2055   0.281   2.312   2.745 -1.6695 -1.3018 -0.4776
  514SOL     MW 2056   0.239   2.358   2.686 -0.9025 -0.5200 -0.1735
  515SOL     OW 2057   1.082   1.990   1.859  0.1340 -0.6024 -0.1254
  515SOL    HW1 2058   1.090   2.073   1.819 -3.0927  2.7115 -1.2253
  515SOL    HW2 2059   1.158   1.969   1.922  2.1934 -0.8976 -0.2038
  515SOL     MW 2060   1.093   1.998   1.862 -0.0200 -0.2041 -0.2809
  516SOL     OW 2061   1.302   2.604   2.918 -0.3425 -0.9188 -0.2734
  516SOL    HW1 2062   1.334   2.609   2.825  0.2248 -1.6922 -0.0663
  516SOL    HW2 2063   1.251   2.518   2.925  1.2197 -0.4872 -0.0782
  516SOL     MW 2064   1.299   2.593   2.907 -0.0615 -0.9639 -0.2204
  517SOL     OW 2065   0.519   2.273   2.256 -0.0212  0.5072 -0.5235
  517SOL    HW1 2066   0.507   2.363   2.233  0.0991  0.8960 -2.9411
  517SOL    HW2 2067   0.483   2.227   2.180  3.3804  1.5354  0.1550
  517SOL     MW 2068   0.512   2.279   2.243  0.4435  0.6941 -0.7530
  518SOL     OW 2069   1.766   0.175   3.043  0.4691 -0.0719 -0.0408
  518SOL    HW1 2070   1.818   0.188   3.125  1.7211 -2.8282  1.2168
  518SOL    HW2 2071   1.709   0.106   3.078  3.0131  0.9773  2.4275
  518SOL     MW 2072   1.766   0.167   3.059  0.9700 -0.2972  0.4508
  519SOL     OW 2073   0.615   2.357   1.981  0.3701  0.7298 -0.0482
  519SOL    HW1 2074   0.663   2.271   1.986 -0.1393 -0.9394  1.0332
  519SOL    HW2 2075   0.538   2.339   1.929 -1.0172  1.6546  2.4840
  519SOL     MW 2076   0.611   2.344   1.974  0.1198  0.6316  0.4286
  520SOL     OW 2077   1.190   2.142   2.897  0.1918 -0.5820  0.3704
  520SOL    HW1 2078   1.112   2.090   2.889  1.3868  0.1712  1.9282
  520SOL    HW2 2079   1.231   2.112   2.981  1.5422 -1.0883  1.4288
  520SOL     MW 2080   1.185   2.131   2.907  0.5276 -0.5494  0.7156
  521SOL     OW 2081   1.748   2.031   2.217  0.0675 -0.5023  0.7489
  521SOL    HW1 2082   1.789   2.035   2.128  0.6571 -1.4999 -0.0143
  521SOL    HW2 2083   1.755   1.943   2.247 -1.0367  3.2815  1.9874
  521SOL     MW 2084   1.754   2.020   2.209 -0.0004 -0.1347  0.8116
  522SOL     OW 2085   2.813   2.571   2.203 -0.3548 -0.3066  0.5926
  522SOL    HW1 2086   2.892   2.538   2.248  0.4101  2.2029  1.1774
  522SOL    HW2 2087   2.850   2.665   2.185 -0.0576  0.6205  0.3679
  522SOL     MW 2088   2.828   2.579   2.206 -0.2146  0.1468  0.6401
  523SOL     OW 2089   0.800   1.466   2.157  0.0878  0.4009  0.2088
  523SOL    HW1 2090   0.765   1.513   2.077 -0.3330  1.8610  1.0240
  523SOL    HW2 2091   0.854   1.401   2.104 -0.1003 -0.5942 -1.4047
  523SOL     MW 2092   0.802   1.464   2.139  0.0075  0.4622  0.1034
  524SOL     OW 2093   0.559   2.375   3.060  0.1185 -0.3128 -0.5258
  524SOL    HW1 2094   0.570   2.441   2.981  0.7665 -0.4716 -3.4256
  524SOL    HW2 2095   0.643   2.324   3.070 -0.9130  2.3645  0.4689
  524SOL     MW 2096   0.571   2.377   3.051  0.0679  0.0195 -0.7772
  525SOL     OW 2097   0.311   2.162   2.098  0.2596 -0.2377 -0.0588
  525SOL    HW1 2098   0.271   2.102   2.168  0.3508 -1.4713 -2.1101
  525SOL    HW2 2099   0.325   2.111   2.018  1.1301  1.1844 -1.2074
  525SOL     MW 2100   0.308   2.148   2.097  0.3865 -0.2129 -0.4810
  526SOL     OW 2101   0.735   2.107   1.988  0.3052 -0.6972  0.3293
  526SOL    HW1 2102   0.793   2.119   1.918  2.8280  1.1054 -2.1431
  526SOL    HW2 2103   0.789   2.120   2.073  1.1376  1.5975  0.2386
  526SOL     MW 2104   0.750   2.110   1.990  0.7479 -0.1566 -0.0089
  527SOL     OW 2105   1.276   1.918   2.035 -0.1724 -0.1295 -0.5431
  527SOL    HW1 2106   1.245   1.859   2.098  0.3884  0.5165  0.2694
  527SOL    HW2 2107   1.330   1.868   1.972  2.4541  0.1053  1.3396
  527SOL     MW 2108   1.279   1.903   2.035  0.2481 -0.0133 -0.1875
  528SOL     OW 2109   0.583   2.895   3.008  0.4246  0.3799  0.3275
  528SOL    HW1 2110   0.630   2.979   3.032 -0.9886  2.5786 -0.5709
  528SOL    HW2 2111   0.594   2.878   2.912 -2.0715 -2.2765 -0.6904
  528SOL     MW 2112   0.590   2.904   2.998 -0.0912  0.3195  0.0746
  529SOL     OW 2113   1.104   2.277   1.796 -0.2445 -0.0941 -0.3383
  529SOL    HW1 2114   1.140   2.273   1.889  1.2403 -0.7681  0.4309
  529SOL    HW2 2115   1.167   2.241   1.728  0.1678 -2.4180  0.8945
  529SOL     MW 2116   1.117   2.272   1.799  0.0058 -0.4896 -0.0742
  530SOL     OW 2117   1.114   2.399   2.964 -0.3965  0.4210  0.0270
  530SOL    HW1 2118   1.026   2.436   2.999 -0.0824  1.0734  2.0534
  530SOL    HW2 2119   1.107   2.302   2.944 -2.5841  2.4769  0.2197
  530SOL     MW 2120   1.102   2.391   2.966 -0.6437  0.7783  0.3198
  531SOL     OW 2121   0.898   1.803   2.614  0.2514  0.2887  0.1082
  531SOL    HW1 2122   0.931   1.864   2.676  2.2281  1.3578  0.6441
  531SOL    HW2 2123   0.835   1.745   2.654  1.0440  1.8573 -0.1545
  531SOL     MW 2124   0.894   1.804   2.628  0.6168  0.6367  0.1442
  532SOL     OW 2125   1.727   0.347   2.826 -0.6712 -0.0249  0.5193
  532SOL    HW1 2126   1.680   0.280   2.773  0.2075  0.1120  1.3231
  532SOL    HW2 2127   1.748   0.302   2.908 -1.6085  0.0595 -0.6009
  532SOL     MW 2128   1.724   0.332   2.829 -0.6789  0.0043  0.4776
  533SOL     OW 2129   1.773   2.805   2.946  0.3850 -0.0401  0.6378
  533SOL    HW1 2130   1.746   2.729   3.001 -3.0060 -1.4599  0.0375
  533SOL    HW2 2131   1.728   2.786   2.865 -1.1975 -2.2670  0.7646
  533SOL     MW 2132   1.764   2.792   2.943 -0.2712 -0.5212  0.5753
  534SOL     OW 2133   1.762   2.509   2.492  0.3202 -0.2565 -0.1285
  534SOL    HW1 2134   1.671   2.476   2.518  2.6363  1.8054 -0.4567
  534SOL    HW2 2135   1.806   2.507   2.577 -0.4273 -0.0188  2.1893
  534SOL     MW 2136   1.755   2.505   2.506  0.5272  0.0469  0.1340
  535SOL     OW 2137   1.793   2.393   1.927  0.1920 -0.2013 -0.0302
  535SOL    HW1 2138   1.730   2.384   1.857  2.7115  2.4831  1.6132
  535SOL    HW2 2139   1.866   2.441   1.886 -0.1196  3.1333  1.3523
  535SOL     MW 2140   1.794   2.398   1.912  0.4833  0.5928  0.3690
  536SOL     OW 2141   0.418   1.876   2.024 -0.8969  0.1673  0.3283
  536SOL    HW1 2142   0.408   1.923   1.939 -2.6567 -0.3433  1.4362
  536SOL    HW2 2143   0.512   1.881   2.048  2.3003 -1.4627  1.8852
  536SOL     MW 2144   0.429   1.883   2.016 -0.7073 -0.1151  0.6799
  537SOL     OW 2145   0.990   0.183   2.934 -0.5885 -0.2955  0.0039
  537SOL    HW1 2146   0.980   0.151   3.024 -0.2923 -2.5583 -1.3768
  537SOL    HW2 2147   0.987   0.274   2.926  0.5502 -1.4317 -1.1605
  537SOL     MW 2148   0.989   0.191   2.945 -0.3992 -0.7440 -0.3319
  538SOL     OW 2149   1.277   0.056   3.008  0.5453 -0.0655  0.4101
  538SOL    HW1 2150   1.183   0.074   2.989 -0.4766  0.2613 -0.1511
  538SOL    HW2 2151   1.304   0.126   3.055 -0.6039 -1.8603 -0.4424
  538SOL     MW 2152   1.268   0.067   3.012  0.2588 -0.2592  0.2236
  539SOL     OW 2153   0.724   2.727   2.516  0.1146  0.0932  0.4901
  539SOL    HW1 2154   0.797   2.788   2.537  1.2716  0.9242 -2.8304
  539SOL    HW2 2155   0.768   2.645   2.540 -1.0505  0.8801 -0.0598
  539SOL     MW 2156   0.739   2.724   2.522  0.1136  0.3067 -0.0205
  540SOL     OW 2157   0.411   2.207   2.881 -0.1324  0.1808  0.5422
  540SOL    HW1 2158   0.459   2.265   2.952  0.7054 -0.3175  0.3584
  540SOL    HW2 2159   0.358   2.147   2.935  0.5465 -1.1175  1.9914
  540SOL     MW 2160   0.410   2.207   2.897  0.0677 -0.0562  0.7092
  541SOL     OW 2161   0.192   2.895   2.274 -0.1516 -0.5012 -0.8626
  541SOL    HW1 2162   0.142   2.818   2.246  1.8538 -0.9346 -0.1926
  541SOL    HW2 2163   0.230   2.870   2.365  0.8249  1.2887 -0.1643
  541SOL     MW 2164   0.190   2.881   2.282  0.2419 -0.3222 -0.6821
  542SOL     OW 2165   0.857   2.330   2.755  0.5270 -0.2406  0.5207
  542SOL    HW1 2166   0.817   2.305   2.836 -0.0536 -4.2399  2.9629
  542SOL    HW2 2167   0.936   2.378   2.769  0.2181 -0.6266  0.0097
  542SOL     MW 2168   0.862   2.333   2.767  0.4097 -0.8192  0.7755
  543SOL     OW 2169   1.358   2.637   2.622 -0.4922  0.2257  0.5798
  543SOL    HW1 2170   1.399   2.552   2.618 -0.7169 -0.0092  2.4166
  543SOL    HW2 2171   1.426   2.703   2.626  0.9072  0.6546 -0.2414
  543SOL     MW 2172   1.372   2.634   2.622 -0.3372  0.2513  0.7138
  544SOL     OW 2173   0.708   0.102   2.634 -0.0363 -0.0634 -0.6810
  544SOL    HW1 2174   0.614   0.069   2.635 -0.2190 -3.7590 -0.6342
  544SOL    HW2 2175   0.744   0.078   2.548 -0.6112 -2.3100  2.7179
  544SOL     MW 2176   0.700   0.094   2.623 -0.1362 -0.8474 -0.2264
  545SOL     OW 2177   1.566   2.216   2.357  0.3732  0.5165 -0.7716
  545SOL    HW1 2178   1.543   2.131   2.406  1.1085 -0.2303  0.5096
  545SOL    HW2 2179   1.622   2.174   2.284 -2.5321  1.4251 -0.6065
  545SOL     MW 2180   1.570   2.199   2.354  0.0869  0.5379 -0.5808
  546SOL     OW 2181   2.998   2.014   0.131 -0.4795  0.0456 -0.4219
  546SOL    HW1 2182   2.990   2.097   0.074  0.8441  0.8027 -1.5451
  546SOL    HW2 2183   3.078   1.964   0.110  0.6792 -2.5597  0.9880
  546SOL     MW 2184   3.007   2.018   0.121 -0.1520 -0.1983 -0.3841
  547SOL     OW 2185   0.139   2.924   0.096 -0.2521  0.2666 -0.5100
  547SOL    HW1 2186   0.161   2.973   0.016 -0.9555 -0.8333 -1.6942
  547SOL    HW2 2187   0.174   2.833   0.082  1.9954  1.5005 -1.9541
  547SOL     MW 2188   0.147   2.918   0.084 -0.0484  0.2843 -0.8568
  548SOL     OW 2189   0.249   2.515   0.296 -0.2400 -0.1089  0.0249
  548SOL    HW1 2190   0.278   2.556   0.214  0.1687 -1.9432  1.1484
  548SOL    HW2 2191   0.152   2.503   0.272 -0.9152 -1.3220  0.7171
  548SOL     MW 2192   0.240   2.519   0.282 -0.2752 -0.5110  0.2645
  549SOL     OW 2193   0.688   1.828   2.051  0.4961 -0.2449 -0.0162
  549SOL    HW1 2194   0.688   1.919   2.000  1.0820  4.0271 -0.6827
  549SOL    HW2 2195   0.717   1.852   2.140 -1.2541  0.8938 -0.7739
  549SOL     MW 2196   0.692   1.843   2.056  0.3425  0.4690 -0.2041
  550SOL     OW 2197   1.837   1.731   2.503  0.9862 -0.2104  0.3405
  550SOL    HW1 2198   1.798   1.729   2.417 -0.3642 -0.4406 -1.9987
  550SOL    HW2 2199   1.835   1.826   2.538 -0.4197  1.8324  1.1626
  550SOL     MW 2200   1.831   1.743   2.496  0.6225  0.0288  0.1403
  551SOL     OW 2201   0.862   2.296   0.227 -0.3740 -0.5787  0.3983
  551SOL    HW1 2202   0.940   2.340   0.189  0.6687  1.3302  1.0483
  551SOL    HW2 2203   0.831   2.237   0.158  2.0305 -0.7058 -0.6714
  551SOL     MW 2204   0.868   2.294   0.213  0.0808 -0.3436  0.3430
  552SOL     OW 2205   1.702   1.737   2.261  0.4218  0.2945  0.4747
  552SOL    HW1 2206   1.618   1.689   2.257 -0.4128  2.0145  0.2376
  552SOL    HW2 2207   1.764   1.699   2.195  1.8396 -2.1497 -2.3591
  552SOL     MW 2208   1.699   1.725   2.251  0.4988  0.1989  0.0696
  553SOL     OW 2209   1.201   2.294   1.524  0.8144  0.3112 -0.2177
  553SOL    HW1 2210   1.245   2.205   1.532 -1.4222 -0.6702  1.7468
  553SOL    HW2 2211   1.269   2.356   1.501  0.1561  1.1002 -0.6341
  553SOL     MW 2212   1.216   2.290   1.522  0.4325  0.2858 -0.0134
  554SOL     OW 2213   0.552   2.808   2.693  0.1486 -0.1251 -0.7714
  554SOL    HW1 2214   0.527   2.883   2.641  1.1441  0.5749  2.3018
  554SOL    HW2 2215   0.598   2.755   2.624 -0.6878  0.6395  0.7581
  554SOL     MW 2216   0.555   2.811   2.677  0.1696  0.0682 -0.1641
  555SOL     OW 2217   0.574   2.395   2.600 -0.2837 -0.1530  0.5232
  555SOL    HW1 2218   0.596   2.309   2.634  1.6334 -3.2980 -4.2571
  555SOL    HW2 2219   0.653   2.420   2.547  1.7473  0.0820 -2.0575
  555SOL     MW 2220   0.587   2.387   2.598  0.2372 -0.5369 -0.4480
  556SOL     OW 2221   1.059   1.827   0.139 -0.0776 -0.5004  0.1566
  556SOL    HW1 2222   1.080   1.786   0.054  1.0350 -1.0233  1.3467
  556SOL    HW2 2223   1.145   1.845   0.184 -2.1838 -0.1364 -0.5712
  556SOL     MW 2224   1.073   1.824   0.133 -0.2087 -0.5213  0.2176
  557SOL     OW 2225   1.050   2.701   0.450  0.2924  0.0773  0.2450
  557SOL    HW1 2226   1.097   2.707   0.362  0.0205 -2.6107 -0.0628
  557SOL    HW2 2227   0.969   2.751   0.442 -1.3197 -0.7511  0.3651
  557SOL     MW 2228   1.045   2.708   0.437  0.0438 -0.3867  0.2203
  558SOL     OW 2229   0.258   2.103   3.077 -0.3259 -0.5594  0.1051
  558SOL    HW1 2230   0.205   2.030   3.080  1.5117  2.3956 -1.2809
  558SOL    HW2 2231   0.208   2.179   3.098  1.9471  0.9553 -2.1135
  558SOL     MW 2232   0.244   2.103   3.080  0.2165  0.0304 -0.3705
  559SOL     OW 2233   1.219   2.261   2.058 -0.6680  0.4318 -0.2070
  559SOL    HW1 2234   1.195   2.352   2.083 -0.0807 -0.6579  1.0550
  559SOL    HW2 2235   1.195   2.203   2.133  1.3015 -0.9883  2.8090
  559SOL     MW 2236   1.213   2.265   2.071 -0.3306  0.1006  0.3575
  560SOL     OW 2237   1.950   2.988   0.041 -0.1954  0.2227 -0.2282
  560SOL    HW1 2238   2.022   3.021  -0.012 -0.4807 -1.0038 -0.3114
  560SOL    HW2 2239   1.892   2.953  -0.029 -0.2494 -0.1944 -0.6895
  560SOL     MW 2240   1.952   2.987   0.025 -0.2402  0.0058 -0.3000
  561SOL     OW 2241   0.469   2.078   0.152  0.2599  0.4533  0.2877
  561SOL    HW1 2242   0.403   2.103   0.082 -0.1597  3.5900 -2.8772
  561SOL    HW2 2243   0.492   2.160   0.191 -1.2606 -4.2844 -0.0920
  561SOL     MW 2244   0.463   2.092   0.148  0.0039  0.2421 -0.1800
  562SOL     OW 2245   0.855   2.146   2.223  0.1820 -0.4045  0.3715
  562SOL    HW1 2246   0.837   2.246   2.227 -0.5585  1.4512 -0.0062
  562SOL    HW2 2247   0.951   2.128   2.232 -0.7113  0.2824 -0.8411
  562SOL     MW 2248   0.865   2.157   2.225 -0.0336 -0.0690  0.1617
  563SOL     OW 2249   1.266   0.285   0.507 -0.3380 -0.0359  0.7903
  563SOL    HW1 2250   1.216   0.247   0.435  1.7752 -0.3166  0.7585
  563SOL    HW2 2251   1.312   0.206   0.541 -1.3270 -1.2957 -2.7157
  563SOL     MW 2252   1.265   0.270   0.502 -0.1896 -0.2392  0.3235
  564SOL     OW 2253   0.994   2.592   2.318  0.2618  0.2257 -0.2875
  564SOL    HW1 2254   1.049   2.555   2.252 -1.6472  1.7156  0.2906
  564SOL    HW2 2255   1.050   2.643   2.381 -1.3058 -0.9320  2.6928
  564SOL     MW 2256   1.009   2.594   2.318 -0.1969  0.2696  0.1820
  565SOL     OW 2257   2.936   2.664   2.714  0.1103  0.0690 -0.1633
  565SOL    HW1 2258   3.011   2.712   2.678  0.5172  1.8709  0.2746
  565SOL    HW2 2259   2.877   2.640   2.634 -1.9601 -1.9992 -0.7986
  565SOL     MW 2260   2.938   2.667   2.698 -0.1092  0.0339 -0.1894
  566SOL     OW 2261   2.185   2.022   2.359 -0.2840 -0.6683 -0.3358
  566SOL    HW1 2262   2.216   2.016   2.267 -0.1209 -0.6913 -1.4173
  566SOL    HW2 2263   2.243   2.091   2.393  0.8788  0.1574 -0.9402
  566SOL     MW 2264   2.196   2.030   2.352 -0.1091 -0.5624 -0.5582
  567SOL     OW 2265   1.182   2.915   0.086  0.2191  0.5342 -0.1466
  567SOL    HW1 2266   1.239   2.994   0.083  0.2028  0.8106 -0.6243
  567SOL    HW2 2267   1.190   2.880  -0.001 -0.4942  0.8167 -0.9503
  567SOL     MW 2268   1.191   2.921   0.074  0.1228  0.6080 -0.3156
  568SOL     OW 2269   1.620   2.136   2.801 -0.0570  0.2376  0.1700
  568SOL    HW1 2270   1.689   2.183   2.847  0.4760  0.0289  2.0715
  568SOL    HW2 2271   1.666   2.086   2.726  0.4864  3.3102 -0.5576
  568SOL     MW 2272   1.635   2.136   2.798  0.0850  0.6155  0.3249
  569SOL     OW 2273   0.099   2.200   2.461  0.6799  0.0409  0.1379
  569SOL    HW1 2274   0.050   2.272   2.409  0.5430  1.2502 -0.8346
  569SOL    HW2 2275   0.166   2.251   2.508  0.9239 -1.1787 -1.4525
  569SOL     MW 2276   0.102   2.216   2.460  0.6940  0.0396 -0.2003
  570SOL     OW 2277   1.527   0.368   0.455 -0.1380  0.5567  0.2530
  570SOL    HW1 2278   1.438   0.334   0.474  0.6908  1.9323 -0.7264
  570SOL    HW2 2279   1.565   0.410   0.530 -1.1483  4.3115 -2.3232
  570SOL     MW 2280   1.520   0.369   0.468 -0.1620  1.2336 -0.2161
  571SOL     OW 2281   1.460   2.436   2.008  0.2451 -0.3775 -0.3874
  571SOL    HW1 2282   1.485   2.467   2.092  1.0406 -2.6533 -1.5481
  571SOL    HW2 2283   1.419   2.354   2.037 -0.3182 -0.1805  0.4151
  571SOL     MW 2284   1.458   2.429   2.023  0.2758 -0.6518 -0.4347
  572SOL     OW 2285   0.915   2.541   3.064 -0.3301  0.4662 -0.1498
  572SOL    HW1 2286   0.879   2.607   3.000 -3.2184  0.9036 -0.6814
  572SOL    HW2 2287   0.842   2.535   3.123  0.0201 -0.5432  1.3584
  572SOL     MW 2288   0.901   2.549   3.063 -0.6650  0.3907 -0.0210
  573SOL     OW 2289   1.115   2.408   0.172 -0.1859 -0.1540  0.1989
  573SOL    HW1 2290   1.196   2.386   0.124  1.8432 -4.9027  0.8414
  573SOL    HW2 2291   1.130   2.497   0.199  0.8758 -1.5561 -3.6014
  573SOL     MW 2292   1.128   2.417   0.169  0.2219 -0.9655 -0.2178
  574SOL     OW 2293   1.239   2.663   0.212 -0.6732  0.4600 -0.6262
  574SOL    HW1 2294   1.315   2.710   0.253 -1.9315  1.2394  2.9998
  574SOL    HW2 2295   1.195   2.730   0.164 -1.1078 -2.2483  2.3658
  574SOL     MW 2296   1.243   2.678   0.211 -0.8966  0.2055  0.2470
  575SOL     OW 2297   3.040   2.291   1.817 -0.2640 -0.1724  0.1660
  575SOL    HW1 2298   3.025   2.221   1.743 -1.5241 -0.0155 -1.4981
  575SOL    HW2 2299   3.107   2.356   1.779  1.6080  0.9076  0.8827
  575SOL     MW 2300   3.047   2.291   1.802 -0.1833 -0.0092  0.0410
  576SOL     OW 2301   2.818   1.816   2.037 -0.1695 -0.1200 -0.5108
  576SOL    HW1 2302   2.816   1.904   2.004 -1.2403  0.3857  1.2557
  576SOL    HW2 2303   2.726   1.790   2.047  0.0133 -1.3786  0.3267
  576SOL     MW 2304   2.806   1.824   2.034 -0.2866 -0.2194 -0.1672
  577SOL     OW 2305   2.058   0.275   0.049  0.0253 -0.8291 -0.0578
  577SOL    HW1 2306   2.012   0.356   0.058 -1.8603 -0.7386 -0.2663
  577SOL    HW2 2307   2.016   0.220   0.108  0.9970  1.5284 -1.4325
  577SOL     MW 2308   2.046   0.279   0.058 -0.0953 -0.5061 -0.2667
  578SOL     OW 2309   1.971   2.183   2.345  0.9873 -0.4563 -0.4596
  578SOL    HW1 2310   1.900   2.132   2.291  3.1848 -0.6673 -0.5655
  578SOL    HW2 2311   2.049   2.123   2.356  0.5857  0.3083 -0.1022
  578SOL     MW 2312   1.972   2.168   2.339  1.2243 -0.3833 -0.4264
  579SOL     OW 2313   0.832   2.458   2.516  0.1312 -0.3855  0.1471
  579SOL    HW1 2314   0.856   2.405   2.599 -0.8336 -2.4063 -1.5485
  579SOL    HW2 2315   0.911   2.493   2.479 -0.5663 -0.5339  0.5710
  579SOL     MW 2316   0.845   2.456   2.522 -0.0881 -0.6717 -0.0207
  580SOL     OW 2317   0.895   2.857   0.009  0.3950  0.2175  0.4869
  580SOL    HW1 2318   0.987   2.860   0.000  0.5186 -0.0035 -1.4187
  580SOL    HW2 2319   0.866   2.856  -0.088 -0.8355  2.2127  1.1923
  580SOL     MW 2320   0.904   2.857  -0.005  0.2489  0.4516  0.3286
  581SOL     OW 2321   1.107   2.552   1.729  0.1249 -0.6432  0.2006
  581SOL    HW1 2322   1.196   2.581   1.752 -0.5432  1.0773  0.0556
  581SOL    HW2 2323   1.108   2.457   1.739 -1.1343  1.2393  3.2933
  581SOL     MW 2324   1.118   2.544   1.733 -0.1294 -0.1678  0.5895
  582SOL     OW 2325  -0.004   2.868   2.625  0.1411 -0.8975 -0.2731
  582SOL    HW1 2326   0.009   2.959   2.667  1.6550  1.2943 -0.5118
  582SOL    HW2 2327   0.085   2.844   2.609  0.5951  1.0783  1.9732
  582SOL     MW 2328   0.009   2.877   2.628  0.4007 -0.3476 -0.0082
  583SOL     OW 2329   1.944   2.492   2.685 -0.1165 -0.2784 -0.0781
  583SOL    HW1 2330   1.986   2.551   2.612  0.8444  0.8595  0.9305
  583SOL    HW2 2331   1.974   2.403   2.674 -0.3165 -0.0698 -0.3648
  583SOL     MW 2332   1.953   2.488   2.674 -0.0161 -0.1007  0.0172
  584SOL     OW 2333   0.160   1.843   2.106  0.4783  0.2319  0.3948
  584SOL    HW1 2334   0.256   1.844   2.084  0.8938 -1.2135  0.6670
  584SOL    HW2 2335   0.152   1.872   2.197 -1.4976 -2.5230  0.3139
  584SOL     MW 2336   0.171   1.847   2.115  0.2724 -0.3223  0.4201
  585SOL     OW 2337   1.450   2.598   0.041 -0.1865  0.0735  0.0140
  585SOL    HW1 2338   1.399   2.605  -0.045  2.1699 -0.6611 -0.3401
  585SOL    HW2 2339   1.379   2.599   0.113 -0.9881 -3.7560  1.8534
  585SOL     MW 2340   1.434   2.599   0.039  0.0187 -0.5287  0.2099
  586SOL     OW 2341   1.313   2.985   2.374  0.1447 -0.0083 -0.3386
  586SOL    HW1 2342   1.367   2.904   2.370 -0.0968  0.4819  2.8159
  586SOL    HW2 2343   1.261   2.983   2.454 -0.9282 -0.4023  0.9443
  586SOL     MW 2344   1.313   2.974   2.384 -0.0288  0.0044  0.2468
  587SOL     OW 2345   1.186   1.633   2.198 -0.1050 -0.0845  0.0709
  587SOL    HW1 2346   1.185   1.551   2.253  2.2685  0.6850  1.3819
  587SOL    HW2 2347   1.202   1.599   2.115  0.5598  1.6927  1.9275
  587SOL     MW 2348   1.188   1.617   2.194  0.2959  0.2515  0.4889
  588SOL     OW 2349   1.381   2.216   2.716  0.0555 -0.8589 -0.4104
  588SOL    HW1 2350   1.466   2.188   2.735  0.0918 -0.0671  1.6443
  588SOL    HW2 2351   1.316   2.197   2.788  1.1192 -0.7300  0.6286
  588SOL     MW 2352   1.384   2.210   2.728  0.2007 -0.7374 -0.0022
  589SOL     OW 2353   1.335   2.046   0.044 -0.1903 -0.0070  0.0217
  589SOL    HW1 2354   1.338   2.138   0.065  1.4137 -0.8142  2.4944
  589SOL    HW2 2355   1.305   2.007   0.130 -1.9814  1.1882  1.5012
  589SOL     MW 2356   1.332   2.053   0.058 -0.2150  0.0442  0.5432
  590SOL     OW 2357   0.468   2.571   2.235 -0.6017  0.3610 -0.1092
  590SOL    HW1 2358   0.403   2.593   2.168 -1.0903  2.2309  0.9899
  590SOL    HW2 2359   0.513   2.652   2.249 -0.9931 -0.6637  0.3232
  590SOL     MW 2360   0.465   2.585   2.228 -0.7178  0.4725  0.0929
  591SOL     OW 2361   2.223   0.676   3.031  0.4754  1.0146 -0.2264
  591SOL    HW1 2362   2.137   0.706   3.007  1.6734 -0.2819  0.7167
  591SOL    HW2 2363   2.275   0.715   2.963  0.1223 -0.4094 -1.2137
  591SOL     MW 2364   2.219   0.686   3.019  0.5869  0.6557 -0.2322
  592SOL     OW 2365   1.841   2.913   0.847  0.3301  0.6631  0.1570
  592SOL    HW1 2366   1.816   2.950   0.759 -0.3290  3.7678  0.8744
  592SOL    HW2 2367   1.900   2.833   0.829  0.8207 -0.1771  0.6520
  592SOL     MW 2368   1.846   2.907   0.833  0.3079  0.9619  0.3170
  593SOL     OW 2369   1.938   0.812   0.868  0.2105 -0.1314 -0.4953
  593SOL    HW1 2370   1.879   0.814   0.795  0.3986 -2.5059 -3.0998
  593SOL    HW2 2371   1.950   0.718   0.882  0.1702 -0.5232 -1.2887
  593SOL     MW 2372   1.932   0.800   0.860  0.2300 -0.4964 -0.9436
  594SOL     OW 2373   2.720   1.131   1.378 -0.0710  0.3680 -0.4915
  594SOL    HW1 2374   2.798   1.189   1.400  3.4489 -0.2038 -0.5039
  594SOL    HW2 2375   2.730   1.100   1.285 -4.2743  0.5415 -1.2202
  594SOL     MW 2376   2.731   1.134   1.368 -0.1612  0.3155 -0.5893
  595SOL     OW 2377   0.413   0.973   0.758 -0.1418  0.1246 -0.0369
  595SOL    HW1 2378   0.470   1.022   0.689  0.4576  2.1140 -1.8114
  595SOL    HW2 2379   0.431   1.000   0.845 -1.0439 -1.5574 -0.0124
  595SOL     MW 2380   0.423   0.983   0.760 -0.1817  0.1652 -0.2678
  596SOL     OW 2381   2.454   1.343   0.585  0.2355  0.4015  0.4540
  596SOL    HW1 2382   2.467   1.438   0.561  0.1546  2.6601 -2.2460
  596SOL    HW2 2383   2.536   1.321   0.632  0.4918 -1.0370 -0.4628
  596SOL     MW 2384   2.467   1.353   0.588  0.2586  0.5097 -0.0232
  597SOL     OW 2385   2.211   0.656   1.709 -0.5713 -0.3644 -0.1167
  597SOL    HW1 2386   2.276   0.589   1.736 -4.4750 -0.3669 -3.2507
  597SOL    HW2 2387   2.167   0.618   1.630 -0.2633  1.1011 -1.9573
  597SOL     MW 2388   2.214   0.642   1.702 -1.0457 -0.1714 -0.7730
  598SOL     OW 2389   2.615   1.003   2.871  0.1727 -0.2574 -0.1788
  598SOL    HW1 2390   2.665   0.965   2.807  0.7887  1.5705  1.8097
  598SOL    HW2 2391   2.658   1.028   2.951  1.4160 -1.8202  1.2195
  598SOL     MW 2392   2.627   1.001   2.873  0.4180 -0.2224  0.2680
  599SOL     OW 2393   2.917   0.360   2.025 -0.4687  0.3644 -0.3379
  599SOL    HW1 2394   2.879   0.339   2.110  0.6463 -0.2249 -1.4690
  599SOL    HW2 2395   2.960   0.443   2.044 -0.0129  1.6702 -1.0660
  599SOL     MW 2396   2.918   0.368   2.039 -0.2615  0.4589 -0.5832
  600SOL     OW 2397   1.868   1.679   0.862 -0.0715  0.4194 -0.0801
  600SOL    HW1 2398   1.904   1.694   0.951 -1.4302 -0.2632  2.5468
  600SOL    HW2 2399   1.780   1.719   0.866  2.2396  0.0446 -2.2840
  600SOL     MW 2400   1.861   1.687   0.874  0.0541  0.2799 -0.0243
  601SOL     OW 2401   2.497   0.797   0.882  0.3342  0.1333 -0.2935
  601SOL    HW1 2402   2.531   0.811   0.971  1.2610  2.2640 -0.9259
  601SOL    HW2 2403   2.427   0.855   0.872  2.8393 -0.8633 -0.1382
  601SOL     MW 2404   2.492   0.806   0.892  0.7870  0.2829 -0.3565
  602SOL     OW 2405   2.280   1.946   0.694 -0.0241 -0.1724 -0.2327
  602SOL    HW1 2406   2.215   1.875   0.712  0.6763 -0.7063 -0.2120
  602SOL    HW2 2407   2.235   1.998   0.625  0.1901  1.1872  1.9841
  602SOL     MW 2408   2.266   1.944   0.687  0.0966 -0.0635  0.0625
  603SOL     OW 2409   2.995   1.404   1.842  0.2875 -0.0170  0.3338
  603SOL    HW1 2410   3.083   1.413   1.867  0.2997  0.3027 -0.7935
  603SOL    HW2 2411   2.983   1.304   1.829  1.7187 -0.7698 -2.5245
  603SOL     MW 2412   3.005   1.392   1.843  0.4779 -0.0741 -0.1921
  604SOL     OW 2413   2.063   1.558   0.508  0.1957  0.1657 -0.4235
  604SOL    HW1 2414   2.094   1.491   0.572  0.6569 -0.4359  2.9421
  604SOL    HW2 2415   1.975   1.577   0.539 -0.6567  1.0459  2.2933
  604SOL     MW 2416   2.055   1.552   0.521  0.1441  0.2025  0.3790
  605SOL     OW 2417   2.663   1.554   0.847  0.2006  0.4787  0.4311
  605SOL    HW1 2418   2.596   1.599   0.795  0.8834 -1.0514  5.4993
  605SOL    HW2 2419   2.607   1.502   0.907 -0.3306  0.5572  2.3715
  605SOL     MW 2420   2.647   1.553   0.848  0.2206  0.2872  1.3559
  606SOL     OW 2421   2.538   1.793   1.982  0.1384 -0.6604  0.8028
  606SOL    HW1 2422   2.445   1.820   1.984  1.4168 -1.9951  0.8624
  606SOL    HW2 2423   2.544   1.712   1.921 -2.7978 -0.4161 -1.1208
  606SOL     MW 2424   2.526   1.786   1.974 -0.0803 -0.8042  0.5569
  607SOL     OW 2425   2.335   1.033   2.986 -0.5806  0.1132  0.4437
  607SOL    HW1 2426   2.406   1.006   2.928  0.4426  0.0711  2.4628
  607SOL    HW2 2427   2.390   1.063   3.059  1.3475  1.3359  2.2468
  607SOL     MW 2428   2.352   1.033   2.988 -0.1912  0.2690  0.9480
  608SOL     OW 2429   1.910   0.254   0.612  0.0799  0.2004 -0.3453
  608SOL    HW1 2430   1.935   0.281   0.523  1.9356 -1.5071 -2.0395
  608SOL    HW2 2431   1.865   0.169   0.610 -2.9528 -0.1155 -2.1066
  608SOL     MW 2432   1.907   0.246   0.600 -0.0754 -0.0666 -0.8012
  609SOL     OW 2433   2.146   1.909   3.012  0.2598 -0.5000  0.1423
  609SOL    HW1 2434   2.058   1.873   2.992 -1.4494 -0.3109  1.8407
  609SOL    HW2 2435   2.169   1.884   3.101  2.0444 -0.8968 -0.6207
  609SOL     MW 2436   2.138   1.901   3.021  0.2698 -0.5274  0.2657
  610SOL     OW 2437   1.834   1.099   1.360  0.3698  0.0901 -0.1314
  610SOL    HW1 2438   1.837   1.040   1.284  0.1776 -0.4474 -0.1397
  610SOL    HW2 2439   1.771   1.053   1.424  0.7788  2.4818  0.1676
  610SOL     MW 2440   1.826   1.085   1.358  0.3984  0.3347 -0.0930
  611SOL     OW 2441   2.466   1.710   0.725 -0.5850 -0.5539 -0.3133
  611SOL    HW1 2442   2.425   1.791   0.729  0.5355  0.2369  0.3966
  611SOL    HW2 2443   2.481   1.708   0.637 -0.8300 -1.0522  2.3259
  611SOL     MW 2444   2.462   1.721   0.714 -0.4695 -0.5153  0.1286
  612SOL     OW 2445   2.781   2.808   0.442  0.2531  0.2812  0.5029
  612SOL    HW1 2446   2.817   2.886   0.496 -0.3213  0.0238  1.5008
  612SOL    HW2 2447   2.860   2.780   0.392  0.3974  1.9859 -1.0138
  612SOL     MW 2448   2.796   2.814   0.442  0.1964  0.4722  0.4344
  613SOL     OW 2449   1.630   1.002   1.105  0.0299 -0.1258  0.3286
  613SOL    HW1 2450   1.639   1.045   1.187 -0.8009  1.3596 -2.7841
  613SOL    HW2 2451   1.718   0.966   1.084  1.3856  1.2320  0.0426
  613SOL     MW 2452   1.642   1.003   1.113  0.0992  0.2494 -0.1198
  614SOL     OW 2453   1.999   0.551   1.519  0.5442 -0.1846 -0.5332
  614SOL    HW1 2454   1.963   0.467   1.547  0.0470  0.6351  0.2060
  614SOL    HW2 2455   2.043   0.526   1.435  2.7281  2.2827 -0.7704
  614SOL     MW 2456   2.000   0.537   1.512  0.7668  0.2491 -0.4669
  615SOL     OW 2457   2.225   0.827   0.199  0.2488 -0.1588  0.1567
  615SOL    HW1 2458   2.297   0.785   0.246 -1.9564  0.3583 -0.9443
  615SOL    HW2 2459   2.221   0.781   0.117 -1.0049 -0.5686  0.8950
  615SOL     MW 2460   2.234   0.816   0.194 -0.2075 -0.1446  0.1088
  616SOL     OW 2461   2.600   0.418   1.613 -0.8641  0.3597 -0.5887
  616SOL    HW1 2462   2.538   0.362   1.565  0.7467  1.4319 -0.5440
  616SOL    HW2 2463   2.646   0.467   1.539  1.9325  1.1430 -0.0072
  616SOL     MW 2464   2.598   0.417   1.597 -0.2826  0.6045 -0.5061
  617SOL     OW 2465   2.916   0.573   1.745  0.0320 -0.0727  0.0713
  617SOL    HW1 2466   2.826   0.588   1.788 -1.8769 -0.2146 -0.1018
  617SOL    HW2 2467   2.898   0.480   1.716 -0.0123 -2.3194  1.7303
  617SOL     MW 2468   2.902   0.562   1.747 -0.2257 -0.3879  0.2673
  618SOL     OW 2469   2.638   0.368   1.948  0.0848 -0.0958 -0.1455
  618SOL    HW1 2470   2.646   0.453   1.910 -1.5822  0.3403  1.4496
  618SOL    HW2 2471   2.725   0.346   1.978  1.3724  0.9628 -1.9387
  618SOL     MW 2472   2.650   0.376   1.947  0.0347  0.1014 -0.1716
  619SOL     OW 2473   2.601   0.898   0.142  0.2142 -0.0536  0.1075
  619SOL    HW1 2474   2.690   0.913   0.168  0.5386  1.0409  1.4662
  619SOL    HW2 2475   2.565   0.844   0.214  0.4469 -0.9401  1.6435
  619SOL     MW 2476   2.608   0.893   0.155  0.2877 -0.0262  0.4894
  620SOL     OW 2477   2.287   1.086   0.920 -0.1288 -0.4165  0.2491
  620SOL    HW1 2478   2.367   1.089   0.866 -0.2093  2.3040 -0.6284
  620SOL    HW2 2479   2.246   1.009   0.886 -0.5457 -0.0649 -2.0432
  620SOL     MW 2480   2.292   1.076   0.908 -0.1944 -0.0112 -0.1691
  621SOL     OW 2481   1.492   2.126   1.988 -0.0810 -0.1078 -0.0574
  621SOL    HW1 2482   1.412   2.111   2.038 -1.1180 -0.9978 -2.9740
  621SOL    HW2 2483   1.545   2.052   2.006 -1.9446  1.0327  0.8364
  621SOL     MW 2484   1.488   2.115   1.997 -0.4637 -0.0748 -0.3243
  622SOL     OW 2485   2.631   0.175   0.161 -0.4760 -0.5981  0.3963
  622SOL    HW1 2486   2.713   0.195   0.213 -0.9473 -1.0576 -0.1710
  622SOL    HW2 2487   2.639   0.075   0.156  3.5228 -2.6366  1.3973
  622SOL     MW 2488   2.643   0.164   0.167 -0.0106 -0.9277  0.4535
  623SOL     OW 2489   2.383   2.787   0.846 -0.2837  0.2484  0.0989
  623SOL    HW1 2490   2.415   2.877   0.843  1.5194 -1.8704 -1.4700
  623SOL    HW2 2491   2.315   2.784   0.911 -0.6064  2.8930 -1.6752
  623SOL     MW 2492   2.378   2.799   0.854 -0.0884  0.3178 -0.3421
  624SOL     OW 2493   2.231   1.649   2.993  0.1850  0.2752  0.5472
  624SOL    HW1 2494   2.151   1.609   3.022  1.7206  0.8292 -0.7252
  624SOL    HW2 2495   2.201   1.734   2.966  0.5351  0.2665  1.7948
  624SOL     MW 2496   2.216   1.655   2.993  0.4338  0.3472  0.5439
  625SOL     OW 2497   2.199   1.902   1.067 -0.5035 -0.4742 -0.0287
  625SOL    HW1 2498   2.272   1.889   1.126  0.3090  0.5357  2.4571
  625SOL    HW2 2499   2.210   1.838   0.994  1.9314 -0.1888 -0.9581
  625SOL     MW 2500   2.210   1.892   1.065 -0.0751 -0.3033  0.1767
  626SOL     OW 2501   0.145   1.551   2.387  0.1501 -0.6268 -0.1430
  626SOL    HW1 2502   0.071   1.522   2.335 -0.3360  0.3215 -0.1692
  626SOL    HW2 2503   0.122   1.539   2.485 -0.5474  4.7733  1.7118
  626SOL     MW 2504   0.132   1.546   2.393 -0.0060  0.2108  0.0982
  627SOL     OW 2505   2.431   0.852   2.547  0.6162  0.4079  0.2519
  627SOL    HW1 2506   2.386   0.940   2.548 -1.1305 -2.4251 -0.4912
  627SOL    HW2 2507   2.406   0.816   2.456 -1.7955 -0.1764  0.3122
  627SOL     MW 2508   2.422   0.859   2.535  0.0676 -0.0430  0.1618
  628SOL     OW 2509   2.317   1.367   1.375 -0.3467 -0.1164 -0.0100
  628SOL    HW1 2510   2.296   1.287   1.323 -2.2220  2.6039  0.5551
  628SOL    HW2 2511   2.408   1.381   1.358 -0.2009 -0.9263  0.4362
  628SOL     MW 2512   2.326   1.358   1.366 -0.5749  0.1356  0.1234
  629SOL     OW 2513   2.004   0.560   1.182 -0.0279  0.0238 -0.2232
  629SOL    HW1 2514   2.066   0.631   1.177  0.1572 -2.1331  1.1604
  629SOL    HW2 2515   1.919   0.591   1.221  0.1004 -1.7286 -1.4842
  629SOL     MW 2516   2.001   0.573   1.186  0.0134 -0.4920 -0.2070
  630SOL     OW 2517   2.507   1.796   3.080  0.2989 -0.6796 -0.6101
  630SOL    HW1 2518   2.438   1.842   3.038  0.0108 -0.6519  0.7367
  630SOL    HW2 2519   2.471   1.705   3.104 -3.2066 -1.4624  1.4286
  630SOL     MW 2520   2.493   1.790   3.078 -0.2016 -0.7792 -0.1634
  631SOL     OW 2521   1.962   1.785   1.609  0.0347 -0.1504  0.3158
  631SOL    HW1 2522   1.971   1.696   1.660 -0.2783 -0.4284 -0.8061
  631SOL    HW2 2523   1.938   1.767   1.517 -3.5339  0.6505 -2.6828
  631SOL     MW 2524   1.960   1.771   1.604 -0.4775 -0.0814 -0.2279
  632SOL     OW 2525   0.214   2.079   1.577 -0.2445  0.3847 -0.0330
  632SOL    HW1 2526   0.123   2.068   1.616 -0.3914  1.4590  1.5751
  632SOL    HW2 2527   0.226   2.000   1.533 -1.8254  1.4616  0.6391
  632SOL     MW 2528   0.204   2.067   1.576 -0.4725  0.6686  0.2678
  633SOL     OW 2529   2.416   0.685   0.370 -0.0701 -0.5744 -0.2744
  633SOL    HW1 2530   2.495   0.668   0.419 -0.9495  0.2287  2.4231
  633SOL    HW2 2531   2.383   0.594   0.357 -0.8721 -1.5012 -3.5489
  633SOL     MW 2532   2.422   0.671   0.374 -0.2920 -0.5907 -0.3505
  634SOL     OW 2533   2.641   3.090   0.622  0.4016  0.1851 -0.1800
  634SOL    HW1 2534   2.663   3.186   0.611  1.1099 -0.2442  2.0565
  634SOL    HW2 2535   2.616   3.058   0.537 -0.7006  0.3837  1.7506
  634SOL     MW 2536   2.640   3.099   0.609  0.3496  0.1547  0.3698
  635SOL     OW 2537   2.613   0.118   1.811  0.7534  0.1462 -0.2463
  635SOL    HW1 2538   2.689   0.083   1.766  0.7347  0.3091  0.3502
  635SOL    HW2 2539   2.630   0.204   1.847 -1.9725  0.5357 -0.9756
  635SOL     MW 2540   2.626   0.125   1.810  0.3913  0.2191 -0.2638
  636SOL     OW 2541   2.914   1.634   0.985 -0.1841 -0.1773 -0.4575
  636SOL    HW1 2542   2.835   1.670   0.942  3.3062  2.8372 -3.7346
  636SOL    HW2 2543   2.915   1.685   1.062  0.4380  1.2398 -0.7500
  636SOL     MW 2544   2.904   1.646   0.990  0.3585  0.4074 -0.9285
  637SOL     OW 2545   2.906   1.499   0.717 -0.0358  0.0265  0.3102
  637SOL    HW1 2546   2.954   1.559   0.780 -0.5994  0.4538 -1.1959
  637SOL    HW2 2547   2.819   1.491   0.750  2.0664 -0.6245  1.3883
  637SOL     MW 2548   2.901   1.506   0.730  0.1672 -0.0030  0.2537
  638SOL     OW 2549   2.648   0.682   0.523  0.1560 -0.3500 -0.1821
  638SOL    HW1 2550   2.737   0.641   0.512  0.3121  0.6042 -0.3519
  638SOL    HW2 2551   2.618   0.630   0.597 -1.3526 -1.2972 -2.1713
  638SOL     MW 2552   2.656   0.669   0.531 -0.0224 -0.3491 -0.4670
  639SOL     OW 2553   1.801   3.087   0.644 -0.1957  0.0799  0.1581
  639SOL    HW1 2554   1.711   3.127   0.635 -1.9352  1.3467  0.1132
  639SOL    HW2 2555   1.828   3.050   0.556  0.2763  2.3118 -0.6457
  639SOL     MW 2556   1.793   3.088   0.631 -0.3630  0.5416  0.0461
  640SOL     OW 2557   0.381   1.349   0.089  0.0003  0.0895 -0.2351
  640SOL    HW1 2558   0.400   1.373  -0.003 -1.3069 -0.6168 -1.7117
  640SOL    HW2 2559   0.343   1.255   0.079  0.4344 -1.4832  1.4986
  640SOL     MW 2560   0.379   1.339   0.075 -0.1149 -0.2112 -0.2012
  641SOL     OW 2561   2.289   0.448   0.377 -0.6396  0.4625 -0.5209
  641SOL    HW1 2562   2.300   0.425   0.287  1.5977  0.6684  0.2202
  641SOL    HW2 2563   2.354   0.387   0.423 -0.2304  0.8306  1.9831
  641SOL     MW 2564   2.299   0.437   0.371 -0.2904  0.5382 -0.0927
  642SOL     OW 2565   0.032   0.027   0.515  0.3471  0.3333  0.3330
  642SOL    HW1 2566  -0.001   0.118   0.519  1.3359  0.5552  2.0333
  642SOL    HW2 2567  -0.036  -0.031   0.544  0.3346 -0.8901  0.0328
  642SOL     MW 2568   0.019   0.031   0.519  0.4759  0.2012  0.5177
  643SOL     OW 2569   2.019   0.302   1.659 -0.2425  0.1832  0.5427
  643SOL    HW1 2570   2.092   0.305   1.720 -0.8216  2.8270  1.8116
  643SOL    HW2 2571   2.032   0.245   1.583  0.1613  1.4912 -2.1295
  643SOL     MW 2572   2.030   0.295   1.657 -0.2656  0.7046  0.3575
  644SOL     OW 2573   2.715   1.855   0.968 -0.3186 -0.5800  0.4192
  644SOL    HW1 2574   2.678   1.818   1.045 -1.5355  1.7279 -0.0914
  644SOL    HW2 2575   2.652   1.839   0.902  0.3720 -0.0661  2.8026
  644SOL     MW 2576   2.702   1.848   0.969 -0.3881 -0.2077  0.6663
  645SOL     OW 2577   2.773   0.902   0.637  0.6443  0.1354  0.1241
  645SOL    HW1 2578   2.815   0.873   0.718 -0.0659 -2.0633  1.6237
  645SOL    HW2 2579   2.729   0.825   0.602 -1.0608  1.2194  0.8987
  645SOL     MW 2580   2.773   0.888   0.643  0.3256 -0.0116  0.4241
  646SOL     OW 2581   0.173   2.269   0.871  0.2223 -0.6039 -0.2734
  646SOL    HW1 2582   0.204   2.180   0.865  1.7149 -0.3435  2.8712
  646SOL    HW2 2583   0.115   2.285   0.794  0.4567  1.2165  2.7968
  646SOL     MW 2584   0.170   2.259   0.860  0.4502 -0.3293  0.5466
  647SOL     OW 2585   2.747   0.538   2.977 -0.5039 -0.1782 -0.0126
  647SOL    HW1 2586   2.699   0.466   3.006 -0.9202 -0.3374  1.6042
  647SOL    HW2 2587   2.692   0.609   3.001  2.2522 -1.7611 -1.7724
  647SOL     MW 2588   2.734   0.538   2.984 -0.1952 -0.4081 -0.0315
  648SOL     OW 2589   2.214   0.728   1.142  0.0307 -0.5903  1.5176
  648SOL    HW1 2590   2.239   0.755   1.050  1.5326 -1.1996 -0.6511
  648SOL    HW2 2591   2.213   0.809   1.193 -3.8502  0.2922 -0.9804
  648SOL     MW 2592   2.217   0.742   1.137 -0.2832 -0.5543  0.9019
  649SOL     OW 2593   2.365   2.700   1.214 -0.0058  0.1392  0.6706
  649SOL    HW1 2594   2.448   2.748   1.228 -0.9608  0.3515 -0.0253
  649SOL    HW2 2595   2.382   2.607   1.186  0.5663  2.0776  0.6271
  649SOL     MW 2596   2.378   2.694   1.212 -0.0563  0.4230  0.5730
  650SOL     OW 2597   2.753   0.229   0.606  0.3095 -0.3839 -0.0568
  650SOL    HW1 2598   2.762   0.284   0.686  0.7561 -0.5947  2.9054
  650SOL    HW2 2599   2.842   0.224   0.574 -0.0134 -0.5737 -0.8105
  650SOL     MW 2600   2.766   0.236   0.612  0.3258 -0.4368  0.2346
  651SOL     OW 2601   2.969   0.314   0.847 -0.5005  0.4428 -0.1122
  651SOL    HW1 2602   3.032   0.356   0.792 -1.0676 -2.5564 -0.1070
  651SOL    HW2 2603   2.917   0.390   0.883 -0.1498  2.9517 -0.6635
  651SOL     MW 2604   2.970   0.330   0.844 -0.5290  0.3781 -0.1842
  652SOL     OW 2605   2.366   1.415   2.936 -0.4676  0.1430 -0.4659
  652SOL    HW1 2606   2.445   1.433   2.881  1.8591  1.7280 -2.1146
  652SOL    HW2 2607   2.324   1.499   2.949  0.5416 -0.7916  3.5664
  652SOL     MW 2608   2.371   1.428   2.931 -0.0274  0.2288 -0.1514
  653SOL     OW 2609   1.967   0.392   0.372 -0.2126  0.7297 -0.2290
  653SOL    HW1 2610   1.973   0.305   0.338  1.2747  0.9925  1.7136
  653SOL    HW2 2611   2.051   0.426   0.354 -2.1208  0.7775  1.9448
  653SOL     MW 2612   1.979   0.385   0.365 -0.2681  0.7707  0.3141
  654SOL     OW 2613   2.463   1.016   0.714  0.1127  0.1271 -0.0929
  654SOL    HW1 2614   2.372   1.020   0.677  1.4373 -1.2216 -1.9854
  654SOL    HW2 2615   2.486   0.920   0.708 -0.6582 -0.6602  1.5493
  654SOL     MW 2616   2.454   1.004   0.708  0.1857 -0.1547 -0.1259
  655SOL     OW 2617   3.041   0.910   0.436 -0.4681 -0.3843  0.1774
  655SOL    HW1 2618   3.087   0.974   0.491 -1.6087  1.5679 -0.6324
  655SOL    HW2 2619   3.017   0.829   0.485 -0.6308  0.9183  0.1926
  655SOL     MW 2620   3.044   0.908   0.449 -0.6400  0.0452  0.0725
  656SOL     OW 2621   1.970   2.789   1.217 -0.9377 -0.2240  0.2927
  656SOL    HW1 2622   1.944   2.878   1.251  1.6232  4.0423 -0.1053
  656SOL    HW2 2623   1.991   2.732   1.284  0.9673  0.2893  1.8056
  656SOL     MW 2624   1.969   2.794   1.230 -0.3484  0.4066  0.4398
  657SOL     OW 2625   0.231   1.543   1.225  0.1129 -0.6257 -0.3121
  657SOL    HW1 2626   0.141   1.512   1.230  0.2672 -3.4830  1.3321
  657SOL    HW2 2627   0.244   1.584   1.142  2.8142 -2.9845  0.5156
  657SOL     MW 2628   0.221   1.544   1.215  0.4897 -1.3139  0.0140
  658SOL     OW 2629   2.699   1.392   0.258  0.3380  0.2062 -0.0297
  658SOL    HW1 2630   2.650   1.323   0.304 -1.3070  2.2570  1.4402
  658SOL    HW2 2631   2.730   1.448   0.327  0.9474 -0.6566 -1.9815
  658SOL     MW 2632   2.696   1.390   0.273  0.2014  0.3629 -0.0933
  659SOL     OW 2633   2.222   1.556   1.043  0.1097 -0.0470 -0.0322
  659SOL    HW1 2634   2.310   1.506   1.044  2.6944 -1.6344 -0.6999
  659SOL    HW2 2635   2.201   1.583   1.138  2.1609  0.7388 -2.9417
  659SOL     MW 2636   2.231   1.553   1.055  0.7213 -0.1528 -0.5042
  660SOL     OW 2637   2.016   1.541   1.714  0.3985 -0.0252 -0.0527
  660SOL    HW1 2638   2.039   1.561   1.804 -1.5396  3.2667 -2.8974
  660SOL    HW2 2639   1.971   1.457   1.707 -0.3623  5.2379 -0.9667
  660SOL     MW 2640   2.013   1.533   1.725  0.0424  1.1036 -0.5486
  661SOL     OW 2641   2.346   1.122   0.156  0.6671  0.6462  0.2059
  661SOL    HW1 2642   2.413   1.146   0.223 -1.4158 -0.2400 -0.8732
  661SOL    HW2 2643   2.326   1.031   0.173  1.5722 -1.2682  2.0475
  661SOL     MW 2644   2.353   1.113   0.167  0.5117  0.2767  0.3065
  662SOL     OW 2645   2.531   3.022   0.864  0.0447 -0.1340  0.3747
  662SOL    HW1 2646   2.514   3.104   0.917 -0.9007  1.7019  0.8725
  662SOL    HW2 2647   2.560   3.048   0.776  0.6227 -1.4812  0.6684
  662SOL     MW 2648   2.533   3.036   0.859 -0.0038 -0.0695  0.4791
  663SOL     OW 2649   2.802   1.555   0.438  0.2698  0.2533 -0.3028
  663SOL    HW1 2650   2.894   1.560   0.402 -1.7715  1.4532  0.3616
  663SOL    HW2 2651   2.827   1.537   0.529  0.0050 -1.2278  0.3018
  663SOL     MW 2652   2.818   1.554   0.445 -0.0345  0.2162 -0.1354
  664SOL     OW 2653   2.477   1.574   1.568  0.2441  0.3259 -0.5614
  664SOL    HW1 2654   2.451   1.667   1.570  1.0960  1.7901 -2.2256
  664SOL    HW2 2655   2.408   1.526   1.612 -1.1975 -1.8808 -1.0257
  664SOL     MW 2656   2.464   1.580   1.574  0.1663  0.2279 -0.8422
  665SOL     OW 2657   2.883   0.794   2.034 -0.5704  0.0681  0.1506
  665SOL    HW1 2658   2.893   0.865   1.973 -0.2909  1.5481  0.3386
  665SOL    HW2 2659   2.942   0.720   2.014  1.8840  1.6802  0.2491
  665SOL     MW 2660   2.892   0.793   2.023 -0.2097  0.4761  0.1884
  666SOL     OW 2661   2.820   2.985   1.686 -0.7024  0.3165 -0.2743
  666SOL    HW1 2662   2.815   3.010   1.596  1.3164  1.7140  0.5545
  666SOL    HW2 2663   2.747   2.921   1.699  2.0490  0.3348 -0.1913
  666SOL     MW 2664   2.809   2.980   1.676 -0.0730  0.5033 -0.1540
  667SOL     OW 2665   1.932   2.695   1.642  0.1573  0.1307 -0.6760
  667SOL    HW1 2666   1.943   2.620   1.699 -2.5198  0.4607 -1.3546
  667SOL    HW2 2667   2.014   2.746   1.656 -0.7539 -1.3374 -0.2158
  667SOL     MW 2668   1.945   2.692   1.652 -0.3161 -0.0195 -0.7048
  668SOL     OW 2669   2.734   0.633   0.801  0.2232 -0.1372  0.0173
  668SOL    HW1 2670   2.813   0.655   0.852  1.3494  0.2169  0.8511
  668SOL    HW2 2671   2.670   0.705   0.827  3.3904 -0.6907  2.2423
  668SOL     MW 2672   2.736   0.645   0.811  0.7897 -0.1635  0.4209
  669SOL     OW 2673   0.152   0.920   0.720 -0.1997  0.4237  0.0598
  669SOL    HW1 2674   0.101   0.989   0.771  0.1752 -0.8239  1.2093
  669SOL    HW2 2675   0.242   0.937   0.748  2.7182 -1.4570  4.0051
  669SOL     MW 2676   0.157   0.931   0.731  0.2348  0.0109  0.7320
  670SOL     OW 2677   2.883   0.280   0.254  0.9014 -0.2866 -0.3120
  670SOL    HW1 2678   2.912   0.228   0.178  0.6783 -1.5810  0.2498
  670SOL    HW2 2679   2.901   0.371   0.223  2.0702  0.8920 -1.5787
  670SOL     MW 2680   2.889   0.285   0.239  1.0262 -0.3019 -0.4050
  671SOL     OW 2681   2.169   0.007   1.612 -0.4734 -0.0198  0.0865
  671SOL    HW1 2682   2.138   0.048   1.530 -0.3030 -2.3318 -1.7831
  671SOL    HW2 2683   2.099   0.018   1.676 -1.2448 -3.0341  0.6593
  671SOL     MW 2684   2.156   0.014   1.610 -0.5527 -0.7225 -0.0846
  672SOL     OW 2685   1.886   1.710   1.365 -0.3502 -0.0168 -0.2180
  672SOL    HW1 2686   1.809   1.751   1.395  3.5725 -1.6425  1.8399
  672SOL    HW2 2687   1.909   1.754   1.280  0.0842  1.2474 -1.2467
  672SOL     MW 2688   1.879   1.721   1.357  0.2247 -0.0645 -0.0822
  673SOL     OW 2689   2.793   1.111   0.474  0.2215 -0.3739 -0.2286
  673SOL    HW1 2690   2.778   1.035   0.538 -1.4179  0.2401 -1.5481
  673SOL    HW2 2691   2.875   1.169   0.496 -1.5673  0.9283  2.3930
  673SOL     MW 2692   2.802   1.109   0.486 -0.2309 -0.1211 -0.0568
  674SOL     OW 2693   2.455   0.011   1.285  1.0663  0.0232 -0.0798
  674SOL    HW1 2694   2.437   0.051   1.198  2.1088 -0.1883  1.5871
  674SOL    HW2 2695   2.481  -0.073   1.260 -1.0690  0.8162 -0.1158
  674SOL     MW 2696   2.456   0.006   1.270  0.9221  0.0999  0.1354
  675SOL     OW 2697   2.961   1.051   1.098 -0.0685  0.6326 -0.3417
  675SOL    HW1 2698   3.020   0.985   1.141  1.2639  0.7248  3.9401
  675SOL    HW2 2699   2.991   1.066   1.004  3.2027  0.7860  0.4322
  675SOL     MW 2700   2.973   1.044   1.091  0.5389  0.6650  0.3253
  676SOL     OW 2701   2.829   1.494   1.644 -0.8867 -0.2143 -0.4415
  676SOL    HW1 2702   2.796   1.412   1.614  2.5280  1.4946  2.4762
  676SOL    HW2 2703   2.909   1.466   1.682 -2.0527 -1.4642  1.0772
  676SOL     MW 2704   2.835   1.479   1.645 -0.5900 -0.1538  0.1438
  677SOL     OW 2705   2.482   0.844   1.857  0.0929 -0.2009  0.1178
  677SOL    HW1 2706   2.443   0.825   1.773  0.7114 -0.4662  1.7023
  677SOL    HW2 2707   2.411   0.866   1.926 -1.7074 -2.1778  3.8129
  677SOL     MW 2708   2.468   0.844   1.855 -0.0630 -0.4967  0.8144
  678SOL     OW 2709   2.497   1.581   0.457 -0.7298  0.0151 -0.1476
  678SOL    HW1 2710   2.421   1.632   0.428  0.1469  2.3720 -0.7789
  678SOL    HW2 2711   2.585   1.613   0.425  0.8236 -0.8347 -2.6381
  678SOL     MW 2712   2.499   1.592   0.449 -0.4092  0.2140 -0.5595
  679SOL     OW 2713   2.407   0.503   1.175  0.4772  0.2792 -0.2356
  679SOL    HW1 2714   2.344   0.430   1.166 -0.0372  1.5824  2.2634
  679SOL    HW2 2715   2.359   0.582   1.142 -2.3498 -1.0397 -1.4330
  679SOL     MW 2716   2.392   0.504   1.169  0.0363  0.2771 -0.0639
  680SOL     OW 2717   2.408   0.259   1.465 -0.1249  0.1882 -0.2250
  680SOL    HW1 2718   2.385   0.237   1.558  1.6345  3.4081 -1.5287
  680SOL    HW2 2719   2.406   0.176   1.418  1.9479 -1.9630 -0.3196
  680SOL     MW 2720   2.404   0.245   1.471  0.3807  0.3292 -0.4095
  681SOL     OW 2721   0.284   0.493   1.566  0.2652  0.0137 -0.0884
  681SOL    HW1 2722   0.275   0.405   1.610  2.2530  1.1727  0.6048
  681SOL    HW2 2723   0.376   0.506   1.551  0.9254  1.1618  0.0134
  681SOL     MW 2724   0.295   0.483   1.570  0.6146  0.3181  0.0165
  682SOL     OW 2725   0.099   3.003   1.474  0.1952 -0.0079 -0.2081
  682SOL    HW1 2726   0.078   3.082   1.433 -0.1176 -3.7095  3.8296
  682SOL    HW2 2727   0.065   3.001   1.565 -2.3533  1.5755 -0.8794
  682SOL     MW 2728   0.092   3.013   1.480 -0.1823 -0.2874  0.2361
  683SOL     OW 2729   1.974   0.811   3.001  0.5168  0.0423  0.3795
  683SOL    HW1 2730   1.894   0.793   2.947 -0.0192 -0.6327 -2.6816
  683SOL    HW2 2731   1.966   0.904   3.027 -0.4684  2.4771 -0.1883
  683SOL     MW 2732   1.962   0.821   2.997  0.3161  0.2745 -0.0993
  684SOL     OW 2733   2.133   1.743   0.793  0.8477  0.1850  0.2443
  684SOL    HW1 2734   2.040   1.728   0.814 -0.1354 -0.6863  2.5526
  684SOL    HW2 2735   2.175   1.675   0.841  0.0823  0.0940  0.9473
  684SOL     MW 2736   2.126   1.732   0.802  0.6170  0.0580  0.6416
  685SOL     OW 2737   2.603   1.746   1.197 -0.8957  0.1771  0.1266
  685SOL    HW1 2738   2.664   1.705   1.254 -2.0596  1.3656  0.3341
  685SOL    HW2 2739   2.579   1.685   1.133  0.0505  0.6126  0.2603
  685SOL     MW 2740   2.608   1.733   1.196 -0.9244  0.3914  0.1716
  686SOL     OW 2741   2.941   0.700   1.533  0.4762 -0.1695 -0.5477
  686SOL    HW1 2742   2.934   0.648   1.614  0.9927  0.8833 -0.0384
  686SOL    HW2 2743   3.023   0.684   1.491 -0.1540 -0.1993 -0.2274
  686SOL     MW 2744   2.951   0.691   1.538  0.4612 -0.0345 -0.4382
  687SOL     OW 2745   2.162   0.335   1.181 -0.4013 -0.4583 -0.1805
  687SOL    HW1 2746   2.161   0.280   1.103 -0.9378 -0.7564 -1.0023
  687SOL    HW2 2747   2.100   0.404   1.169  0.9011  2.0941 -0.8169
  687SOL     MW 2748   2.153   0.336   1.169 -0.3003 -0.1608 -0.3729
  688SOL     OW 2749   2.351   0.549   1.435  0.0108  0.6188 -0.9776
  688SOL    HW1 2750   2.328   0.478   1.491 -1.6161 -0.7106 -0.6561
  688SOL    HW2 2751   2.349   0.517   1.346 -0.1232 -0.3386 -0.7470
  688SOL     MW 2752   2.348   0.536   1.431 -0.2215  0.3171 -0.9048
  689SOL     OW 2753   2.547   0.757   2.989  0.0323  0.1674 -0.0738
  689SOL    HW1 2754   2.581   0.827   2.938  1.2418 -1.2738  1.9104
  689SOL    HW2 2755   2.550   0.791   3.082 -1.3375 -0.0204  1.7731
  689SOL     MW 2756   2.552   0.771   2.994  0.0112 -0.0476  0.4317
  690SOL     OW 2757   2.028   1.009   1.993  0.0316  0.0809 -0.1363
  690SOL    HW1 2758   1.991   0.914   1.990  1.3883 -0.8956  1.5024
  690SOL    HW2 2759   2.058   1.030   1.905 -1.4075 -0.5749 -2.6319
  690SOL     MW 2760   2.027   1.000   1.981  0.0208 -0.1344 -0.2494
  691SOL     OW 2761   2.444   0.315   0.834  0.1290 -0.9846 -0.2029
  691SOL    HW1 2762   2.530   0.357   0.856 -1.6864  1.0851 -0.9873
  691SOL    HW2 2763   2.383   0.389   0.842  1.2837  1.1170 -1.5474
  691SOL     MW 2764   2.447   0.331   0.838  0.0418 -0.4342 -0.4838
  692SOL     OW 2765   2.765   1.655   1.426 -0.1765  0.3496 -0.5500
  692SOL    HW1 2766   2.760   1.620   1.514  1.3004 -0.7346  0.5814
  692SOL    HW2 2767   2.801   1.748   1.448 -2.4472 -0.9910 -0.7150
  692SOL     MW 2768   2.769   1.663   1.440 -0.2812  0.0297 -0.4225
  693SOL     OW 2769   2.290   0.433   0.076  0.0577 -0.8251  0.6005
  693SOL    HW1 2770   2.203   0.389   0.063 -1.0436 -2.4070  0.4919
  693SOL    HW2 2771   2.262   0.517   0.028 -1.1573 -2.1201  0.1924
  693SOL     MW 2772   2.275   0.438   0.068 -0.2479 -1.2047  0.5323
  694SOL     OW 2773   1.986   1.301   1.212  0.2056 -0.1131 -0.3145
  694SOL    HW1 2774   2.071   1.264   1.206 -1.5023 -1.1981  1.2846
  694SOL    HW2 2775   1.940   1.234   1.260  2.6982  1.2934  1.4453
  694SOL     MW 2776   1.991   1.288   1.217  0.3091 -0.0707  0.1287
  695SOL     OW 2777   3.004   1.494   1.312 -0.3632 -0.2144  0.3704
  695SOL    HW1 2778   2.986   1.447   1.231 -1.0327  0.8102 -0.6106
  695SOL    HW2 2779   2.922   1.538   1.344 -1.8980  0.6807 -0.0892
  695SOL     MW 2780   2.991   1.494   1.306 -0.6540  0.0389  0.1804
  696SOL     OW 2781   2.016   1.398   0.926  0.0923  0.2310 -0.6723
  696SOL    HW1 2782   2.067   1.463   0.979 -0.8743  1.1166  0.4168
  696SOL    HW2 2783   1.989   1.331   0.993  3.3256  1.6012  3.0156
  696SOL     MW 2784   2.019   1.397   0.942  0.3914  0.5286 -0.0420
  697SOL     OW 2785   2.880   0.922   2.278  0.1516 -0.0229  0.3551
  697SOL    HW1 2786   2.813   0.996   2.278 -0.0810  0.3377  0.3296
  697SOL    HW2 2787   2.862   0.875   2.199 -1.0342 -0.2840  2.6346
  697SOL     MW 2788   2.869   0.925   2.267 -0.0355 -0.0098  0.6525
  698SOL     OW 2789   2.544   0.385   3.087 -0.0238  0.6536  0.1623
  698SOL    HW1 2790   2.457   0.412   3.126  1.8902 -3.4471  1.1737
  698SOL    HW2 2791   2.577   0.318   3.145 -0.5996  0.5345 -0.0829
  698SOL     MW 2792   2.537   0.380   3.100  0.1528  0.0968  0.2634
  699SOL     OW 2793   1.847   1.612   2.054 -0.5308 -0.5187 -0.1225
  699SOL    HW1 2794   1.837   1.525   2.098  2.1455  1.2636 -0.1934
  699SOL    HW2 2795   1.943   1.615   2.037 -1.2799 -0.7658 -2.9531
  699SOL     MW 2796   1.858   1.601   2.057 -0.2765 -0.3162 -0.5053
  700SOL     OW 2797   2.732   0.872   1.505 -0.5337  0.2810 -0.2612
  700SOL    HW1 2798   2.710   0.953   1.453  0.2800 -2.0980 -1.1867
  700SOL    HW2 2799   2.824   0.861   1.481 -1.1611  0.4112 -0.5083
  700SOL     MW 2800   2.741   0.881   1.495 -0.5091 -0.0157 -0.4159
  701SOL     OW 2801   1.678   1.271   2.621  0.4554  0.3125  0.0546
  701SOL    HW1 2802   1.775   1.280   2.630  0.0146 -0.1144  1.0289
  701SOL    HW2 2803   1.644   1.336   2.690  0.0006  1.4544 -0.1228
  701SOL     MW 2804   1.686   1.281   2.631  0.3373  0.4069  0.1597
  702SOL     OW 2805   2.208   0.474   0.800  0.1681 -0.3339  0.5662
  702SOL    HW1 2806   2.184   0.387   0.771 -0.2883  4.6350  0.2353
  702SOL    HW2 2807   2.230   0.521   0.719 -1.6761 -1.8416 -0.3559
  702SOL     MW 2808   2.208   0.468   0.786 -0.1354  0.1228  0.4009
  703SOL     OW 2809   2.656   1.282   0.987  0.2536 -0.2289  0.3490
  703SOL    HW1 2810   2.669   1.263   0.891 -0.8407 -0.6834 -1.3105
  703SOL    HW2 2811   2.657   1.196   1.032 -0.7970 -0.2542  4.7082
  703SOL     MW 2812   2.658   1.268   0.981 -0.0294 -0.2922  0.7052
  704SOL     OW 2813   0.040   1.273   0.276  0.5310 -0.2677  0.0570
  704SOL    HW1 2814  -0.038   1.238   0.239  2.6207  0.0997  0.7377
  704SOL    HW2 2815   0.110   1.215   0.263 -2.5064 -0.8831  0.3175
  704SOL     MW 2816   0.039   1.261   0.269  0.4059 -0.3004  0.1812
  705SOL     OW 2817   2.181   1.594   1.302 -0.5663  0.1102  0.0508
  705SOL    HW1 2818   2.095   1.591   1.336  0.2463 -1.1964  0.2890
  705SOL    HW2 2819   2.213   1.505   1.328 -2.9908  1.9116 -0.3359
  705SOL     MW 2820   2.174   1.582   1.310 -0.7790  0.1754  0.0312
  706SOL     OW 2821   2.997   1.243   0.576  0.2275  0.1692 -0.6300
  706SOL    HW1 2822   3.089   1.229   0.553  1.1678  2.8137  1.1522
  706SOL    HW2 2823   3.015   1.321   0.627 -0.9530 -1.6533 -0.2768
  706SOL     MW 2824   3.011   1.251   0.580  0.1958  0.2776 -0.3483
  707SOL     OW 2825   2.428   0.114   1.022 -0.2991 -0.2316 -0.0110
  707SOL    HW1 2826   2.459   0.176   0.956 -2.2404 -1.7623  0.1470
  707SOL    HW2 2827   2.335   0.111   1.011  0.8414  1.0687 -0.0050
  707SOL     MW 2828   2.420   0.122   1.012 -0.4048 -0.2620  0.0107
  708SOL     OW 2829   2.540   1.532   0.067  0.3126  0.1645 -0.2018
  708SOL    HW1 2830   2.565   1.487   0.148 -0.4887  0.4257  0.1750
  708SOL    HW2 2831   2.499   1.464   0.011  1.2551  1.2816 -0.3804
  708SOL     MW 2832   2.538   1.517   0.070  0.3313  0.3464 -0.1757
  709SOL     OW 2833   1.744   1.742   0.123 -0.6034  0.2294 -0.3461
  709SOL    HW1 2834   1.752   1.664   0.075  2.0190  3.5193 -0.1360
  709SOL    HW2 2835   1.664   1.726   0.180 -0.9522  0.0720  0.6185
  709SOL     MW 2836   1.734   1.730   0.124 -0.3035  0.6427 -0.1911
  710SOL     OW 2837   2.237   1.183   1.173 -0.1783 -0.6152 -0.2044
  710SOL    HW1 2838   2.267   1.165   1.082 -0.7109  1.7052  2.9537
  710SOL    HW2 2839   2.248   1.098   1.228  1.7028  1.2563  3.3906
  710SOL     MW 2840   2.243   1.170   1.168 -0.0004 -0.0621  0.6866
  711SOL     OW 2841   2.342   0.201   1.728 -0.2429  0.2886  0.0937
  711SOL    HW1 2842   2.431   0.156   1.746 -0.2415  4.1471  3.7024
  711SOL    HW2 2843   2.283   0.128   1.701 -1.0188  1.8254  0.0145
  711SOL     MW 2844   2.346   0.185   1.727 -0.3451  1.0005  0.5594
  712SOL     OW 2845   1.612   0.601   3.092  0.6795 -0.0424 -0.5295
  712SOL    HW1 2846   1.658   0.651   3.020  1.7570 -2.9467 -1.1873
  712SOL    HW2 2847   1.522   0.611   3.061 -2.3774  0.4463 -0.3016
  712SOL     MW 2848   1.606   0.609   3.078  0.4183 -0.3611 -0.5862
  713SOL     OW 2849   2.589   0.779   1.143 -0.1541 -0.2624  0.5361
  713SOL    HW1 2850   2.608   0.682   1.134 -0.1827  0.4371 -0.7517
  713SOL    HW2 2851   2.567   0.786   1.235  0.2898  2.9828 -0.2570
  713SOL     MW 2852   2.589   0.767   1.154 -0.0993  0.2581  0.2616
  714SOL     OW 2853   2.270   0.166   2.001  0.2293 -0.1262 -0.3983
  714SOL    HW1 2854   2.349   0.185   2.049 -2.4857  0.2023  1.2864
  714SOL    HW2 2855   2.288   0.201   1.913 -2.1675 -1.9695  0.9147
  714SOL     MW 2856   2.283   0.173   1.996 -0.4452 -0.3260 -0.0028
  715SOL     OW 2857   1.773   1.935   1.718 -0.2450 -0.5408 -0.8671
  715SOL    HW1 2858   1.849   1.891   1.684  1.9719  0.7357  1.8287
  715SOL    HW2 2859   1.733   1.857   1.765 -0.7324 -1.0733  1.1380
  715SOL     MW 2860   1.777   1.919   1.720 -0.0168 -0.4426 -0.2468
  716SOL     OW 2861   2.278   0.724   0.606  0.3823  0.0309  1.2315
  716SOL    HW1 2862   2.335   0.703   0.528  1.6930 -0.3956 -0.6480
  716SOL    HW2 2863   2.186   0.734   0.570  1.9793  0.6605 -0.0502
  716SOL     MW 2864   2.273   0.722   0.591  0.7659  0.0577  0.8145
  717SOL     OW 2865   2.845   1.437   2.934 -0.3855  0.2529 -0.0591
  717SOL    HW1 2866   2.927   1.450   2.881 -0.2901  0.9064 -3.1141
  717SOL    HW2 2867   2.840   1.510   2.995  1.1792  0.0891  1.2909
  717SOL     MW 2868   2.855   1.449   2.935 -0.1665  0.3175 -0.2841
  718SOL     OW 2869   2.605   1.445   1.323  0.3477 -0.7585  0.3571
  718SOL    HW1 2870   2.597   1.514   1.387 -1.0999  0.9118  0.2813
  718SOL    HW2 2871   2.647   1.371   1.371 -1.4381 -2.9104  2.1275
  718SOL     MW 2872   2.610   1.445   1.338 -0.0789 -0.8220  0.5807
  719SOL     OW 2873   2.157   1.304   0.673  0.4662  0.1703 -0.1665
  719SOL    HW1 2874   2.256   1.308   0.666  0.6101  3.6394 -3.4697
  719SOL    HW2 2875   2.135   1.318   0.767 -0.1079 -1.7328 -0.2831
  719SOL     MW 2876   2.167   1.306   0.684  0.4094  0.3769 -0.6177
  720SOL     OW 2877   2.894   1.190   0.167 -0.2845  0.0383 -0.0255
  720SOL    HW1 2878   2.880   1.111   0.216  1.8596  1.0002  0.1029
  720SOL    HW2 2879   2.817   1.254   0.180 -0.8162 -0.0291 -2.4285
  720SOL     MW 2880   2.882   1.188   0.175 -0.0718  0.1563 -0.3256
  721SOL     OW 2881   2.499   0.794   1.410 -0.0474 -0.0636  0.0336
  721SOL    HW1 2882   2.454   0.712   1.419 -0.3993  1.3799  0.8211
  721SOL    HW2 2883   2.587   0.801   1.445  0.8288  2.5589 -2.2506
  721SOL     MW 2884   2.505   0.784   1.416  0.0218  0.4729 -0.1639
  722SOL     OW 2885   2.539   1.181   0.357  0.0254 -0.2835 -0.3898
  722SOL    HW1 2886   2.512   1.238   0.430  0.0941 -1.2776  0.1009
  722SOL    HW2 2887   2.623   1.147   0.398  1.0300 -1.0066 -1.1778
  722SOL     MW 2888   2.547   1.184   0.372  0.1670 -0.5100 -0.4290
  723SOL     OW 2889   2.272   1.412   1.683 -0.0122  0.5575  0.2961
  723SOL    HW1 2890   2.267   1.388   1.588  1.4102 -2.0251 -1.1500
  723SOL    HW2 2891   2.184   1.446   1.705  1.2174  0.7650  0.5968
  723SOL     MW 2892   2.260   1.413   1.673  0.3377  0.2441  0.1450
  724SOL     OW 2893   2.520   0.370   0.574 -0.4265  0.1586  0.0023
  724SOL    HW1 2894   2.468   0.323   0.645  1.6432  0.4949  1.5361
  724SOL    HW2 2895   2.611   0.339   0.587  1.0352  0.2774 -0.2194
  724SOL     MW 2896   2.525   0.360   0.585  0.0394  0.2186  0.1754
  725SOL     OW 2897   2.692   0.528   1.143  0.0653  0.3159  0.7588
  725SOL    HW1 2898   2.759   0.544   1.205 -0.4376 -1.4031  0.2704
  725SOL    HW2 2899   2.603   0.506   1.187 -3.2415 -0.5332  0.6697
  725SOL     MW 2900   2.689   0.528   1.157 -0.4374 -0.0229  0.6826
  726SOL     OW 2901   2.561   2.377   0.531  0.0924  0.1945 -0.4819
  726SOL    HW1 2902   2.509   2.441   0.475 -3.8346  0.0353 -1.2654
  726SOL    HW2 2903   2.547   2.410   0.624  3.1085 -1.1691  1.5535
  726SOL     MW 2904   2.552   2.390   0.536 -0.0277 -0.0064 -0.3167
  727SOL     OW 2905   2.851   0.308   1.661 -0.4335 -0.0322 -0.4842
  727SOL    HW1 2906   2.901   0.315   1.575  0.3829 -0.5280  0.0648
  727SOL    HW2 2907   2.765   0.348   1.648  1.4051  0.0642  1.1814
  727SOL     MW 2908   2.846   0.314   1.648 -0.0832 -0.0849 -0.1920
  728SOL     OW 2909   2.848   1.156   2.989 -0.0131 -0.4219  0.5443
  728SOL    HW1 2910   2.855   1.236   2.934 -2.5308  0.8912 -0.9033
  728SOL    HW2 2911   2.876   1.187   3.079 -0.1512 -0.6237 -2.2562
  728SOL     MW 2912   2.853   1.171   2.993 -0.3635 -0.2753 -0.0162
  729SOL     OW 2913   2.481   1.469   1.088 -0.0487  0.2401  1.2005
  729SOL    HW1 2914   2.528   1.462   1.169 -0.1608  0.3110 -2.9695
  729SOL    HW2 2915   2.505   1.390   1.048  1.7846  1.0328  2.4294
  729SOL     MW 2916   2.490   1.457   1.093  0.1784  0.3540  0.8124
  730SOL     OW 2917   2.101   1.181   0.220 -0.1384  0.0690  0.3781
  730SOL    HW1 2918   2.192   1.182   0.189  0.1471  1.3123 -3.3464
  730SOL    HW2 2919   2.056   1.271   0.227  0.3311  1.3169  2.5697
  730SOL     MW 2920   2.107   1.193   0.217 -0.0388  0.3977  0.1759
  731SOL     OW 2921   2.767   1.778   2.880  0.2177  0.5768 -0.2825
  731SOL    HW1 2922   2.685   1.810   2.847  0.6259  0.2644 -1.4525
  731SOL    HW2 2923   2.825   1.853   2.893 -0.6231 -0.3579  0.3619
  731SOL     MW 2924   2.764   1.792   2.877  0.1606  0.4123 -0.3519
  732SOL     OW 2925   2.232   0.937   1.333  0.5918  0.2350 -0.0453
  732SOL    HW1 2926   2.159   0.953   1.393 -1.4026  1.8541  1.3945
  732SOL    HW2 2927   2.299   0.898   1.382  3.1655 -2.9081 -2.2654
  732SOL     MW 2928   2.232   0.934   1.347  0.6683  0.0339 -0.1482
  733SOL     OW 2929   2.370   2.874   3.009  0.3347  0.3172  0.6178
  733SOL    HW1 2930   2.292   2.929   2.987  0.2962  1.0130 -2.6930
  733SOL    HW2 2931   2.330   2.785   3.029 -1.7112 -1.0546  2.4870
  733SOL     MW 2932   2.354   2.870   3.009  0.0597  0.2280  0.4276
  734SOL     OW 2933   1.497   0.346   2.490 -0.4157 -0.0529 -0.5018
  734SOL    HW1 2934   1.440   0.296   2.549 -0.2142 -1.2887 -3.6831
  734SOL    HW2 2935   1.542   0.269   2.437  3.0729 -1.3419 -0.9875
  734SOL     MW 2936   1.496   0.329   2.491  0.0712 -0.3861 -0.9856
  735SOL     OW 2937   3.012   0.884   2.707  0.4440  0.0544 -0.3544
  735SOL    HW1 2938   2.938   0.830   2.702  2.4849 -0.9539 -3.0120
  735SOL    HW2 2939   3.015   0.932   2.793 -1.1435  0.9279 -1.5512
  735SOL     MW 2940   3.003   0.883   2.718  0.5038  0.0366 -0.8629
  736SOL     OW 2941   0.062   0.611   2.473 -0.3193 -0.0888 -0.1450
  736SOL    HW1 2942   0.107   0.639   2.393  1.7543  0.5997  0.7354
  736SOL    HW2 2943   0.041   0.516   2.461  0.4903 -3.2083 -0.1657
  736SOL     MW 2944   0.065   0.602   2.461  0.0611 -0.4096 -0.0316
  737SOL     OW 2945   2.870   0.644   2.536  0.0856  1.0347 -0.1023
  737SOL    HW1 2946   2.825   0.575   2.488 -0.5253  1.3874  1.2162
  737SOL    HW2 2947   2.958   0.659   2.499 -1.2425  1.2478 -0.5037
  737SOL     MW 2948   2.876   0.637   2.525 -0.1702  1.1093  0.0187
  738SOL     OW 2949   0.157   0.435   1.928  0.4086 -0.4805 -0.1021
  738SOL    HW1 2950   0.234   0.481   1.935  0.4627  0.5871  1.4176
  738SOL    HW2 2951   0.171   0.357   1.875 -3.1497  0.5848 -1.3559
  738SOL     MW 2952   0.169   0.431   1.922 -0.0538 -0.1991 -0.0670
  739SOL     OW 2953   2.563   0.997   2.169  0.3443 -0.5817 -0.7710
  739SOL    HW1 2954   2.468   0.997   2.150  1.7396  0.3699 -2.6751
  739SOL    HW2 2955   2.584   1.033   2.083  0.2341 -0.1170 -1.4024
  739SOL     MW 2956   2.553   1.002   2.155  0.5138 -0.3949 -1.1056
  740SOL     OW 2957   0.242   1.686   2.970 -0.2603 -0.6160 -0.1760
  740SOL    HW1 2958   0.223   1.594   2.946  1.1855  0.7210 -1.0529
  740SOL    HW2 2959   0.326   1.687   3.013  0.4293  1.1204 -2.1629
  740SOL     MW 2960   0.250   1.674   2.972  0.0215 -0.2105 -0.5539
  741SOL     OW 2961   2.207   1.243   2.726 -0.0611 -0.1953  0.6820
  741SOL    HW1 2962   2.246   1.332   2.711 -2.5875  1.1935  1.0848
  741SOL    HW2 2963   2.176   1.239   2.822 -0.5537  0.0541  0.2374
  741SOL     MW 2964   2.208   1.254   2.737 -0.4594  0.0208  0.6765
  742SOL     OW 2965   1.623   1.361   2.352  0.6761 -0.1549  0.3288
  742SOL    HW1 2966   1.538   1.317   2.332 -0.8267  1.0670 -3.6424
  742SOL    HW2 2967   1.638   1.348   2.441  1.3477 -1.2387  0.2624
  742SOL     MW 2968   1.613   1.353   2.361  0.5665 -0.1367 -0.2039
  743SOL     OW 2969   2.515   1.229   2.704  0.3638 -0.0900  0.0091
  743SOL    HW1 2970   2.425   1.195   2.701 -2.8628 -0.6583 -3.1342
  743SOL    HW2 2971   2.565   1.163   2.751 -0.9789  0.5382 -0.7507
  743SOL     MW 2972   2.509   1.216   2.710 -0.2391 -0.0821 -0.5059
  744SOL     OW 2973   2.780   0.921   1.786  0.1358  0.0846  0.1166
  744SOL    HW1 2974   2.697   0.960   1.819 -1.1022  0.6823 -3.7877
  744SOL    HW2 2975   2.768   0.907   1.691  2.6701 -0.3080  0.4226
  744SOL     MW 2976   2.767   0.924   1.777  0.3068  0.1117 -0.3582
  745SOL     OW 2977   1.739   0.495   2.461 -0.5922  0.1471  0.5861
  745SOL    HW1 2978   1.726   0.513   2.362  3.1106 -1.1261 -1.5379
  745SOL    HW2 2979   1.649   0.457   2.480  0.8899 -2.5999  4.4063
  745SOL     MW 2980   1.725   0.492   2.450  0.0919 -0.3833  0.8099
  746SOL     OW 2981   1.566   1.479   1.712  0.2920  0.3968  0.0566
  746SOL    HW1 2982   1.621   1.558   1.731  2.0002  0.6713 -1.1752
  746SOL    HW2 2983   1.544   1.429   1.798 -2.1863  0.1337  0.9243
  746SOL     MW 2984   1.570   1.483   1.726  0.1904  0.3983  0.0086
  747SOL     OW 2985   2.586   1.126   1.887  0.1723 -0.0327 -0.1238
  747SOL    HW1 2986   2.507   1.113   1.837 -2.3233 -2.9868  1.2394
  747SOL    HW2 2987   2.597   1.219   1.915  2.1863  1.3872  0.8521
  747SOL     MW 2988   2.577   1.137   1.884  0.1087 -0.2351  0.1848
  748SOL     OW 2989   0.113   0.006   1.937  0.0502  0.2183  0.6814
  748SOL    HW1 2990   0.209   0.035   1.918 -0.1094  1.4287 -1.5759
  748SOL    HW2 2991   0.085   0.079   1.995  0.8620  0.8199  2.4527
  748SOL     MW 2992   0.122   0.019   1.942  0.1363  0.4574  0.6173
  749SOL     OW 2993   2.416   0.657   2.764  0.2430 -0.0401  0.2266
  749SOL    HW1 2994   2.428   0.717   2.687 -2.6833  0.0861 -0.0177
  749SOL    HW2 2995   2.482   0.682   2.837 -1.2270  1.3048 -2.4800
  749SOL     MW 2996   2.426   0.668   2.763 -0.3370  0.1540 -0.1628
  750SOL     OW 2997   2.132   3.029   1.974  0.6373  0.5408  0.6000
  750SOL    HW1 2998   2.184   3.107   2.000 -1.5377 -0.8497 -0.1200
  750SOL    HW2 2999   2.197   2.968   1.949 -1.7635  3.6676  0.1899
  750SOL     MW 3000   2.147   3.031   1.974  0.0336  0.7699  0.4509
  751SOL     OW 3001   3.068   0.341   2.470  0.1410 -0.3165 -0.3229
  751SOL    HW1 3002   3.014   0.338   2.385 -1.1169  0.6281 -3.1899
  751SOL    HW2 3003   3.148   0.302   2.443 -2.4656 -1.5727  0.8916
  751SOL     MW 3004   3.072   0.336   2.456 -0.3689 -0.3576 -0.5409
  752SOL     OW 3005   2.131   0.921   2.782  0.2468 -0.1595 -0.4087
  752SOL    HW1 3006   2.202   0.961   2.830 -0.6995  0.7726 -1.2602
  752SOL    HW2 3007   2.084   0.858   2.836  0.9248 -0.6918  0.0151
  752SOL     MW 3008   2.134   0.918   2.796  0.2114 -0.1067 -0.4651
  753SOL     OW 3009   2.877   0.297   2.280  0.6403  0.7205 -0.3699
  753SOL    HW1 3010   2.825   0.211   2.292 -1.6574 -0.3864 -1.1834
  753SOL    HW2 3011   2.812   0.367   2.306  0.3430  0.3102 -1.9543
  753SOL     MW 3012   2.861   0.295   2.285  0.2980  0.5204 -0.6863
  754SOL     OW 3013   2.240   3.000   2.603  0.4062  0.1287 -0.0568
  754SOL    HW1 3014   2.269   2.966   2.517  0.3240  1.3551 -1.4044
  754SOL    HW2 3015   2.316   2.970   2.658  0.2385 -1.9600 -0.5200
  754SOL     MW 3016   2.254   2.992   2.599  0.3732  0.0149 -0.2957
  755SOL     OW 3017   2.783   1.614   2.406 -0.1282  0.0060  0.2043
  755SOL    HW1 3018   2.762   1.524   2.442  1.2304  0.7889  0.3093
  755SOL    HW2 3019   2.806   1.665   2.481  2.1366  0.0894  0.8952
  755SOL     MW 3020   2.783   1.608   2.421  0.3498  0.1203  0.3093
  756SOL     OW 3021   2.172   1.248   3.004  0.0520 -0.4127  0.7887
  756SOL    HW1 3022   2.236   1.318   2.989 -1.7405 -1.5552 -1.0573
  756SOL    HW2 3023   2.226   1.174   3.030  2.9975 -0.5636 -0.5933
  756SOL     MW 3024   2.188   1.247   3.005  0.2041 -0.5834  0.3628
  757SOL     OW 3025   2.176   0.935   1.757 -0.5865  0.1658 -0.2769
  757SOL    HW1 3026   2.181   0.837   1.743  1.7895 -0.6642  0.3887
  757SOL    HW2 3027   2.136   0.968   1.672  2.7168  1.8329  0.4111
  757SOL     MW 3028   2.171   0.927   1.744  0.1628  0.2763 -0.0983
  758SOL     OW 3029   2.243   1.858   2.615  0.6886  0.2059  0.0449
  758SOL    HW1 3030   2.263   1.869   2.521 -1.6904 -1.1829  1.6085
  758SOL    HW2 3031   2.321   1.809   2.649  1.1653 -0.2466  3.3611
  758SOL     MW 3032   2.256   1.853   2.607  0.4376 -0.0371  0.6887
  759SOL     OW 3033   1.569   1.459   2.808 -0.4126 -0.3612  0.0362
  759SOL    HW1 3034   1.575   1.523   2.731 -0.4704 -1.8747 -1.3803
  759SOL    HW2 3035   1.636   1.466   2.870 -1.2676  0.3532 -1.7920
  759SOL     MW 3036   1.579   1.468   2.806 -0.5330 -0.4666 -0.3919
  760SOL     OW 3037   2.591   1.914   2.730 -0.0091 -0.3888 -0.1089
  760SOL    HW1 3038   2.555   1.827   2.708  0.6853 -1.1829 -0.0942
  760SOL    HW2 3039   2.652   1.937   2.664 -0.6421 -0.5604 -1.6686
  760SOL     MW 3040   2.594   1.906   2.718 -0.0010 -0.5162 -0.3127
  761SOL     OW 3041   2.253   0.464   2.434 -0.9050  0.6009  0.3025
  761SOL    HW1 3042   2.164   0.440   2.415  0.7155 -2.8984 -1.3817
  761SOL    HW2 3043   2.241   0.496   2.524  0.8750 -0.2405  1.5049
  761SOL     MW 3044   2.239   0.465   2.443 -0.4563  0.0282  0.2389
  762SOL     OW 3045   0.026   0.183   2.126 -0.0661 -0.0955 -0.0326
  762SOL    HW1 3046  -0.012   0.110   2.175  0.4579  0.5496 -0.8950
  762SOL    HW2 3047  -0.039   0.247   2.094 -1.5373 -1.7063 -1.3855
  762SOL     MW 3048   0.012   0.182   2.128 -0.1911 -0.2230 -0.3249
  763SOL     OW 3049   2.462   1.196   2.360  0.3151 -0.0311 -0.4622
  763SOL    HW1 3050   2.507   1.126   2.306 -0.2392 -0.2036  4.1254
  763SOL    HW2 3051   2.529   1.245   2.404 -0.8117  0.5438  1.0089
  763SOL     MW 3052   2.477   1.194   2.359  0.0933  0.0220  0.3372
  764SOL     OW 3053   0.388   0.092   2.827  0.2133 -0.0509  0.5600
  764SOL    HW1 3054   0.311   0.144   2.790 -1.6307  1.1774 -1.2309
  764SOL    HW2 3055   0.392   0.107   2.921  0.2946  2.9841 -0.9589
  764SOL     MW 3056   0.378   0.101   2.835 -0.0193  0.5116  0.1233
  765SOL     OW 3057   2.737   0.061   2.297 -0.7225  0.0879 -0.1516
  765SOL    HW1 3058   2.702   0.031   2.208  1.8249 -1.0688 -1.8494
  765SOL    HW2 3059   2.761  -0.016   2.349  0.6410 -0.9952  0.2851
  765SOL     MW 3060   2.735   0.047   2.292 -0.2065 -0.2077 -0.3180
  766SOL     OW 3061   1.927   3.011   2.155  0.2008  0.5947  0.2161
  766SOL    HW1 3062   2.004   3.016   2.092  3.5834  0.0743 -0.0992
  766SOL    HW2 3063   1.844   2.983   2.115  2.9965  1.2669 -0.9988
  766SOL     MW 3064   1.926   3.008   2.142  1.0159  0.6147  0.0142
  767SOL     OW 3065   2.682   0.646   1.878 -0.0526 -0.0807  0.3731
  767SOL    HW1 3066   2.735   0.721   1.896 -0.8285 -0.6777  0.2510
  767SOL    HW2 3067   2.599   0.683   1.844 -0.8707 -0.5377 -0.6154
  767SOL     MW 3068   2.678   0.661   1.875 -0.2629 -0.2198  0.2265
  768SOL     OW 3069   0.019   1.486   2.958 -0.8145  0.3297 -0.0552
  768SOL    HW1 3070   0.030   1.516   3.052 -0.2536  0.1507  2.8327
  768SOL    HW2 3071   0.045   1.396   2.962 -0.8357  1.6533 -2.3306
  768SOL     MW 3072   0.024   1.478   2.971 -0.7433  0.4807  0.0256
  769SOL     OW 3073   2.367   0.713   2.307 -0.5259 -0.1087 -0.2440
  769SOL    HW1 3074   2.341   0.631   2.341  2.3957  1.6841  1.4462
  769SOL    HW2 3075   2.454   0.702   2.282 -1.0716  0.7510 -0.2108
  769SOL     MW 3076   2.375   0.701   2.308 -0.2124  0.2413 -0.0166
  770SOL     OW 3077   3.104   1.562   2.641  0.2297 -0.3248 -0.0686
  770SOL    HW1 3078   3.006   1.569   2.649 -0.4323 -0.6072 -0.9494
  770SOL    HW2 3079   3.119   1.489   2.698 -0.0628 -3.0844 -0.9209
  770SOL     MW 3080   3.093   1.553   2.650  0.1038 -0.7262 -0.2973
  771SOL     OW 3081   3.062   0.601   1.959 -0.0214 -0.0049 -0.3473
  771SOL    HW1 3082   3.026   0.593   1.869 -0.1840 -4.9079 -1.1302
  771SOL    HW2 3083   3.135   0.540   1.970  1.2705 -1.7161  1.1756
  771SOL     MW 3084   3.067   0.592   1.949  0.1276 -0.8775 -0.2496
  772SOL     OW 3085   0.021   3.097   2.337 -0.5357 -0.4277  0.2778
  772SOL    HW1 3086  -0.059   3.057   2.384 -2.4315  3.6227 -2.1473
  772SOL    HW2 3087   0.080   3.019   2.325 -2.5958 -0.8555  1.5346
  772SOL     MW 3088   0.018   3.082   2.342 -1.0577  0.0502  0.1237
  773SOL     OW 3089   2.477   2.927   2.744 -0.0636 -0.0262 -0.0535
  773SOL    HW1 3090   2.521   2.845   2.716  2.9195  0.8684 -0.7902
  773SOL    HW2 3091   2.447   2.910   2.834 -0.7320 -1.3904  1.4669
  773SOL     MW 3092   2.479   2.914   2.752  0.2418 -0.0882  0.0499
  774SOL     OW 3093   2.371   1.162   1.723 -0.4120 -0.0422 -0.2444
  774SOL    HW1 3094   2.341   1.255   1.705  0.7561  0.4193 -0.4814
  774SOL    HW2 3095   2.294   1.101   1.746 -1.5333 -1.8862  0.8177
  774SOL     MW 3096   2.357   1.166   1.723 -0.4058 -0.2246 -0.1355
  775SOL     OW 3097   2.318   2.883   2.358 -0.8198  0.0803 -0.2028
  775SOL    HW1 3098   2.325   2.968   2.313 -1.0546 -1.0803  1.3311
  775SOL    HW2 3099   2.395   2.828   2.340  0.9652  1.3010 -0.9431
  775SOL     MW 3100   2.329   2.887   2.350 -0.6152  0.0882 -0.0981
  776SOL     OW 3101   0.133   1.476   0.127 -0.1252  0.0326  0.5960
  776SOL    HW1 3102   0.215   1.425   0.124  0.3304 -0.3581  1.0422
  776SOL    HW2 3103   0.067   1.418   0.163 -1.3775 -0.2536 -1.5701
  776SOL     MW 3104   0.135   1.462   0.131 -0.2303 -0.0567  0.3691
  777SOL     OW 3105   2.939   1.139   1.741  0.0716  0.0041  0.4883
  777SOL    HW1 3106   2.880   1.179   1.669 -0.0341 -0.8685  1.6992
  777SOL    HW2 3107   2.894   1.060   1.758 -2.7670  1.9107  0.9635
  777SOL     MW 3108   2.925   1.134   1.734 -0.3168  0.1405  0.7107
  778SOL     OW 3109   2.927   0.506   2.770 -0.1814 -0.0286 -0.5339
  778SOL    HW1 3110   2.871   0.552   2.832 -2.7893 -1.7902  0.2547
  778SOL    HW2 3111   2.902   0.538   2.682  0.0691  0.5509 -1.6280
  778SOL     MW 3112   2.916   0.516   2.766 -0.4924 -0.1846 -0.5742
  779SOL     OW 3113   2.246   0.440   2.124  0.1394 -0.8942  0.0805
  779SOL    HW1 3114   2.186   0.476   2.193 -0.2322 -1.6717 -1.4258
  779SOL    HW2 3115   2.218   0.352   2.123  2.4897 -0.2204 -1.8974
  779SOL     MW 3116   2.234   0.434   2.133  0.4004 -0.9079 -0.3792
  780SOL     OW 3117   0.188   0.251   2.708 -0.9845 -0.4485  0.0153
  780SOL    HW1 3118   0.118   0.303   2.732  0.1683 -0.4294 -4.0406
  780SOL    HW2 3119   0.257   0.305   2.743 -0.4757 -1.4555 -1.9395
  780SOL     MW 3120   0.188   0.265   2.716 -0.7653 -0.5788 -0.7778
  781SOL     OW 3121   3.092   1.274   2.447 -0.5704  0.7736  0.1246
  781SOL    HW1 3122   3.119   1.317   2.366 -0.5785  0.2073  1.6203
  781SOL    HW2 3123   3.070   1.181   2.432 -0.7048 -0.8082  0.7726
  781SOL     MW 3124   3.092   1.267   2.434 -0.5892  0.4902  0.4074
  782SOL     OW 3125   0.689   1.482   0.060  0.0911  0.1419  0.5461
  782SOL    HW1 3126   0.635   1.555   0.025 -0.9920  1.4172 -0.7882
  782SOL    HW2 3127   0.698   1.485   0.156  0.9885  1.6365  0.9906
  782SOL     MW 3128   0.683   1.492   0.068  0.0666  0.5073  0.4287
  783SOL     OW 3129   2.718   0.489   2.380 -0.2429 -0.0537  0.3058
  783SOL    HW1 3130   2.697   0.567   2.330 -2.4153 -3.1920 -0.1500
  783SOL    HW2 3131   2.642   0.469   2.438  0.9575  2.9892 -0.2036
  783SOL     MW 3132   2.705   0.497   2.381 -0.3712 -0.0663  0.1785
  784SOL     OW 3133   0.203   0.833   2.845  0.2286 -0.4298  0.5592
  784SOL    HW1 3134   0.118   0.860   2.812  1.3763 -1.5689  3.0250
  784SOL    HW2 3135   0.269   0.863   2.785  1.8710  0.7699  3.1960
  784SOL     MW 3136   0.201   0.840   2.833  0.5967 -0.4218  1.2325
  785SOL     OW 3137   0.391   0.400   2.172 -0.3411  0.1092  0.6473
  785SOL    HW1 3138   0.380   0.439   2.085  1.2690 -0.9152 -1.5513
  785SOL    HW2 3139   0.306   0.362   2.204 -0.0259 -3.4415 -1.4972
  785SOL     MW 3140   0.378   0.400   2.165 -0.0871 -0.4944  0.0743
  786SOL     OW 3141   1.865   0.478   0.026 -0.1091 -0.6069  0.5031
  786SOL    HW1 3142   1.779   0.505   0.067 -2.3524 -1.1970  0.4422
  786SOL    HW2 3143   1.856   0.496  -0.071  1.0830 -0.5895 -2.5801
  786SOL     MW 3144   1.852   0.484   0.018 -0.2478 -0.6824  0.0882
  787SOL     OW 3145   2.424   0.195   2.905  0.2345 -0.4582 -0.0140
  787SOL    HW1 3146   2.507   0.153   2.888  1.6169 -0.9466 -0.1557
  787SOL    HW2 3147   2.454   0.280   2.934  0.3262  1.6762 -0.8206
  787SOL     MW 3148   2.439   0.201   2.907  0.4290 -0.2410 -0.1392
  788SOL     OW 3149   2.882   2.980   2.436 -0.3617  1.0985  0.0445
  788SOL    HW1 3150   2.893   2.933   2.520  0.2298  1.0121 -0.3872
  788SOL    HW2 3151   2.879   2.903   2.379 -0.9691  0.5369 -1.9096
  788SOL     MW 3152   2.883   2.964   2.440 -0.3638  1.0130 -0.2703
  789SOL     OW 3153   0.114   0.177   0.030  0.2482 -0.1799 -0.1627
  789SOL    HW1 3154   0.029   0.126   0.035  2.2644 -0.1921 -2.2173
  789SOL    HW2 3155   0.122   0.198  -0.061 -2.0091 -1.3316 -0.5841
  789SOL     MW 3156   0.103   0.173   0.019  0.2164 -0.3335 -0.4894
  790SOL     OW 3157   3.051   1.000   2.473  0.1059 -0.0507 -0.0472
  790SOL    HW1 3158   3.046   0.961   2.557  1.7794  3.5745 -0.8475
  790SOL    HW2 3159   3.004   0.942   2.406 -1.3980  2.6004 -0.8221
  790SOL     MW 3160   3.044   0.987   2.475  0.1283  0.7774 -0.2550
  791SOL     OW 3161   2.542   0.444   2.600  0.3248 -0.4715 -0.0069
  791SOL    HW1 3162   2.495   0.496   2.675 -1.8965  1.9565 -1.3514
  791SOL    HW2 3163   2.595   0.378   2.650 -0.0657 -2.4194  0.1816
  791SOL     MW 3164   2.543   0.442   2.617 -0.0198 -0.4082 -0.1594
  792SOL     OW 3165   2.447   0.201   2.470 -0.2646 -0.1041  0.2444
  792SOL    HW1 3166   2.402   0.280   2.440 -1.4563  1.6843 -1.2225
  792SOL    HW2 3167   2.383   0.179   2.545 -2.0174 -0.4706  0.8172
  792SOL     MW 3168   2.433   0.209   2.476 -0.6531  0.0835  0.1264
  793SOL     OW 3169   1.777   1.100   1.989  0.1710  0.2832  0.0002
  793SOL    HW1 3170   1.748   1.085   1.894 -2.1223 -2.1071 -1.1222
  793SOL    HW2 3171   1.874   1.078   1.994 -1.5029 -3.2607  1.3444
  793SOL     MW 3172   1.786   1.095   1.977 -0.3524 -0.4997  0.0295
  794SOL     OW 3173   1.368   2.319   0.108  0.1376  0.2113 -0.3724
  794SOL    HW1 3174   1.420   2.397   0.082 -1.4842 -4.2854  2.2853
  794SOL    HW2 3175   1.409   2.304   0.192  1.9238  2.2819  1.9646
  794SOL     MW 3176   1.380   2.327   0.115  0.1593 -0.1088  0.2866
  795SOL     OW 3177   2.291   1.083   2.533  0.5164 -0.3974 -0.1861
  795SOL    HW1 3178   2.248   1.147   2.592  1.8306 -0.4814  1.0376
  795SOL    HW2 3179   2.340   1.138   2.476 -2.6512 -1.0193  0.5238
  795SOL     MW 3180   2.291   1.099   2.533  0.2718 -0.4906  0.0690
  796SOL     OW 3181   0.251   0.601   2.678  0.0382  0.3137  0.7061
  796SOL    HW1 3182   0.219   0.661   2.749 -0.2040  2.1199  1.4599
  796SOL    HW2 3183   0.171   0.598   2.621  0.9806  1.1571 -0.4274
  796SOL     MW 3184   0.236   0.608   2.680  0.1306  0.6633  0.6560
  797SOL     OW 3185   2.686   0.207   2.616 -0.8221  0.0265  0.2228
  797SOL    HW1 3186   2.614   0.199   2.545 -0.7778 -0.4433 -3.2811
  797SOL    HW2 3187   2.762   0.227   2.561 -2.8923 -0.3648 -3.6389
  797SOL     MW 3188   2.687   0.209   2.599 -1.0894 -0.0871 -0.7491
  798SOL     OW 3189   2.385   0.013   2.263 -0.8699  0.4499 -0.3043
  798SOL    HW1 3190   2.403   0.071   2.341 -0.9615  0.3989  0.7091
  798SOL    HW2 3191   2.470   0.017   2.214  0.2715 -2.2730 -0.3051
  798SOL     MW 3192   2.398   0.021   2.267 -0.7314  0.0839 -0.1707
  799SOL     OW 3193   2.570   3.001   0.104  0.0146 -0.9258  0.4497
  799SOL    HW1 3194   2.497   2.970   0.055  2.5768 -0.9093 -1.9454
  799SOL    HW2 3195   2.540   2.998   0.196 -0.5041  1.1023 -1.1035
  799SOL     MW 3196   2.557   2.997   0.109  0.2842 -0.6560 -0.0712
  800SOL     OW 3197   1.936   3.029   1.758 -0.0507  0.6985 -0.4650
  800SOL    HW1 3198   1.874   2.955   1.768 -2.1098  0.5903 -1.2521
  800SOL    HW2 3199   1.999   3.018   1.831  1.5495  1.5345  3.6632
  800SOL     MW 3200   1.936   3.018   1.769 -0.1113  0.7945 -0.0242
  801SOL     OW 3201   2.862   1.224   2.610 -0.4967  0.1936 -0.2560
  801SOL    HW1 3202   2.874   1.132   2.580 -0.2831 -1.3085 -0.9011
  801SOL    HW2 3203   2.937   1.272   2.578 -2.2941  0.8917  0.7176
  801SOL     MW 3204   2.873   1.218   2.602 -0.7056  0.0875 -0.2127
  802SOL     OW 3205   2.593   1.473   2.793 -0.0817  0.8451 -0.3024
  802SOL    HW1 3206   2.583   1.387   2.744  0.3740 -1.2768 -1.0067
  802SOL    HW2 3207   2.638   1.455   2.883  1.8628  0.6686  2.9994
  802SOL     MW 3208   2.597   1.459   2.799  0.2350  0.5418  0.0403
  803SOL     OW 3209   2.307   1.393   2.012 -0.4043 -0.3594 -0.0654
  803SOL    HW1 3210   2.261   1.362   2.089  0.7624 -0.0131 -0.6370
  803SOL    HW2 3211   2.275   1.347   1.934 -1.1874  0.7634 -0.1240
  803SOL     MW 3212   2.297   1.383   2.012 -0.3537 -0.1656 -0.1485
  804SOL     OW 3213   2.283   0.106   0.035  0.4728 -0.1474 -0.1899
  804SOL    HW1 3214   2.203   0.164   0.048 -1.8755 -0.5799  0.7631
  804SOL    HW2 3215   2.346   0.156  -0.028 -0.0244 -1.6278  1.3065
  804SOL     MW 3216   2.281   0.121   0.028  0.0974 -0.3998  0.1332
  805SOL     OW 3217   2.694   0.855   2.645 -0.3806  0.0978 -0.1990
  805SOL    HW1 3218   2.602   0.860   2.618 -0.0077  1.2040  0.7373
  805SOL    HW2 3219   2.746   0.799   2.584 -1.9841  0.0547 -0.1931
  805SOL     MW 3220   2.689   0.849   2.634 -0.5429  0.2381 -0.0747
  806SOL     OW 3221   2.646   0.726   2.239 -0.5240 -0.2073  0.2299
  806SOL    HW1 3222   2.647   0.700   2.147 -3.8946  1.2367 -0.0395
  806SOL    HW2 3223   2.635   0.822   2.240 -2.2016 -1.0952  1.4298
  806SOL     MW 3224   2.645   0.735   2.227 -1.1900 -0.1339  0.3527
  807SOL     OW 3225   0.050   1.087   2.036  0.0792  0.2456  0.4780
  807SOL    HW1 3226   0.079   0.991   2.031  0.3353 -1.3419 -0.1630
  807SOL    HW2 3227  -0.050   1.092   2.048 -0.1210  2.1568  1.4315
  807SOL     MW 3228   0.041   1.075   2.037  0.0866  0.2883  0.5192
  808SOL     OW 3229   2.650   0.048   2.827  0.8556 -0.0746  0.0402
  808SOL    HW1 3230   2.615  -0.031   2.777  0.3816  2.0216 -1.1758
  808SOL    HW2 3231   2.685   0.102   2.747  0.0724 -3.9187  0.2646
  808SOL     MW 3232   2.650   0.044   2.810  0.6897 -0.3052 -0.0906
  809SOL     OW 3233   2.695   1.348   2.442  0.5007 -0.2018  0.0068
  809SOL    HW1 3234   2.741   1.307   2.513 -2.4059  0.4780  1.5174
  809SOL    HW2 3235   2.749   1.329   2.362  0.6190 -0.5001  0.7906
  809SOL     MW 3236   2.708   1.340   2.441  0.1328 -0.1515  0.3096
  810SOL     OW 3237   2.221   1.334   2.257 -0.0308  0.3048  0.5928
  810SOL    HW1 3238   2.286   1.287   2.311 -0.7242 -0.3070  1.5289
  810SOL    HW2 3239   2.135   1.327   2.299 -0.2633  1.2724  0.3192
  810SOL     MW 3240   2.218   1.327   2.270 -0.1530  0.3517  0.6802
  811SOL     OW 3241   1.597   0.171   2.314  0.1262 -0.0016  0.0014
  811SOL    HW1 3242   1.681   0.132   2.336  0.8278  0.5119  0.5458
  811SOL    HW2 3243   1.594   0.170   2.216 -2.4958  0.4204  2.2834
  811SOL     MW 3244   1.607   0.166   2.304 -0.1272  0.1218  0.3743
  812SOL     OW 3245   1.469   2.857   2.073  0.0011  0.0237  0.3453
  812SOL    HW1 3246   1.561   2.837   2.060 -0.0528  1.5715  1.2813
  812SOL    HW2 3247   1.452   2.825   2.162  0.8171  0.2039 -0.4270
  812SOL     MW 3248   1.479   2.850   2.083  0.1017  0.2517  0.3669
  813SOL     OW 3249   2.007   0.627   2.239 -0.3376 -0.0984 -0.1850
  813SOL    HW1 3250   1.922   0.607   2.215  1.9775  1.2023 -0.1807
  813SOL    HW2 3251   1.990   0.684   2.320  0.7014 -3.0607  1.6798
  813SOL     MW 3252   1.994   0.632   2.246  0.1050 -0.3176  0.0616
  814SOL     OW 3253   2.692   1.235   1.634 -0.1270 -0.5930 -0.0491
  814SOL    HW1 3254   2.642   1.218   1.712 -0.0844 -1.4836 -0.3246
  814SOL    HW2 3255   2.650   1.185   1.561 -1.0064 -2.8299  0.2149
  814SOL     MW 3256   2.680   1.227   1.634 -0.2374 -1.0057 -0.0506
  815SOL     OW 3257   2.509   1.756   2.417  0.3075 -0.1146 -0.2744
  815SOL    HW1 3258   2.456   1.678   2.378 -1.6057 -1.9506  1.2867
  815SOL    HW2 3259   2.601   1.731   2.398  0.5683  0.2210  0.2004
  815SOL     MW 3260   2.514   1.742   2.410  0.0895 -0.3126 -0.0058
  816SOL     OW 3261   0.740   0.671   2.782  0.3399  0.5011 -0.7904
  816SOL    HW1 3262   0.720   0.571   2.777 -1.4127  0.4335 -0.5786
  816SOL    HW2 3263   0.643   0.686   2.775  0.5499 -1.5714 -1.1553
  816SOL     MW 3264   0.725   0.660   2.780  0.1364  0.2188 -0.8106
  817SOL     OW 3265   2.995   1.257   1.448 -0.2951 -0.4382  0.0604
  817SOL    HW1 3266   3.068   1.262   1.514  1.4590  1.6283  1.2829
  817SOL    HW2 3267   2.999   1.345   1.400 -0.0972  1.5575 -0.5372
  817SOL     MW 3268   3.005   1.269   1.451 -0.0376  0.0978  0.1428
  818SOL     OW 3269   1.918   1.056   2.637 -0.7245  0.4356 -0.1927
  818SOL    HW1 3270   1.901   0.979   2.576  2.2725 -2.7733  0.1466
  818SOL    HW2 3271   1.988   1.023   2.685  1.2722  3.0095 -1.5638
  818SOL     MW 3272   1.925   1.041   2.636 -0.0656  0.3518 -0.3289
  819SOL     OW 3273   1.964   0.350   2.467 -0.0823 -0.5484  0.3757
  819SOL    HW1 3274   1.893   0.416   2.484  1.1650 -0.3749  1.2310
  819SOL    HW2 3275   2.005   0.355   2.551 -2.2789 -0.2282 -0.1824
  819SOL     MW 3276   1.960   0.359   2.480 -0.2075 -0.4833  0.4149
  820SOL     OW 3277   2.475   1.681   2.674  0.1393  0.4444  0.1261
  820SOL    HW1 3278   2.530   1.613   2.715  0.9159  2.2208 -0.0012
  820SOL    HW2 3279   2.496   1.681   2.580 -0.0752  0.8109  2.4784
  820SOL     MW 3280   2.485   1.672   2.667  0.2134  0.7271  0.4197
  821SOL     OW 3281   2.581   1.384   1.990 -0.3463 -0.1180  0.1655
  821SOL    HW1 3282   2.599   1.466   1.943  1.3202  1.5909 -0.2207
  821SOL    HW2 3283   2.486   1.389   2.009  1.6313 -2.0087 -2.6044
  821SOL     MW 3284   2.571   1.395   1.987  0.1345 -0.1420 -0.2509
  822SOL     OW 3285   2.928   2.744   1.488 -0.3829 -0.3009 -0.1660
  822SOL    HW1 3286   2.928   2.714   1.579  0.2066  1.6377 -3.5308
  822SOL    HW2 3287   2.872   2.823   1.480  0.3369  1.9311 -1.2766
  822SOL     MW 3288   2.920   2.751   1.499 -0.2102  0.2493 -0.7565
  823SOL     OW 3289   2.359   0.474   1.861  0.0400  0.3137  0.1944
  823SOL    HW1 3290   2.441   0.421   1.838  1.8068  0.3019  0.2259
  823SOL    HW2 3291   2.351   0.481   1.956 -0.2241 -2.1628 -1.7750
  823SOL     MW 3292   2.369   0.468   1.871  0.2383 -0.0146 -0.0613
  824SOL     OW 3293   2.270   1.493   2.637 -0.6181 -0.4541  1.0647
  824SOL    HW1 3294   2.350   1.545   2.634 -1.4008  0.8464 -2.0008
  824SOL    HW2 3295   2.198   1.560   2.645 -0.5506 -0.3814  2.0946
  824SOL     MW 3296   2.271   1.509   2.638 -0.7125 -0.2729  0.7961
  825SOL     OW 3297   1.856   2.608   0.237 -0.2152 -0.3216  0.0336
  825SOL    HW1 3298   1.842   2.543   0.300  3.2739  1.2230 -2.4843
  825SOL    HW2 3299   1.931   2.571   0.191 -0.5172 -1.0602  2.2835
  825SOL     MW 3300   1.864   2.594   0.239  0.2053 -0.2153 -0.0017
  826SOL     OW 3301   1.817   2.369   0.460 -0.5936  0.2624 -0.2600
  826SOL    HW1 3302   1.793   2.290   0.512  1.6215  0.4810 -1.3077
  826SOL    HW2 3303   1.801   2.449   0.521  0.4456 -3.0657  3.7102
  826SOL     MW 3304   1.812   2.369   0.475 -0.1643 -0.1479  0.1256
  827SOL     OW 3305   1.923   2.230   0.792 -0.8915 -0.1638 -0.1052
  827SOL    HW1 3306   1.858   2.217   0.721  0.0103  2.4867 -0.9560
  827SOL    HW2 3307   1.887   2.156   0.851 -2.1059 -1.6387  2.3645
  827SOL     MW 3308   1.910   2.219   0.790 -0.9327 -0.0087  0.1084
  828SOL     OW 3309   0.034   2.640   0.589 -0.2527 -0.1110 -0.1278
  828SOL    HW1 3310   0.126   2.620   0.564  0.9341  0.3887  0.7024
  828SOL    HW2 3311   0.003   2.694   0.515 -0.2794 -2.4557 -1.6983
  828SOL     MW 3312   0.042   2.644   0.576 -0.0996 -0.3544 -0.2255
  829SOL     OW 3313   2.979   2.929   1.172 -0.3756 -0.2800  0.0701
  829SOL    HW1 3314   2.892   2.919   1.121 -0.0629 -0.4784 -0.7564
  829SOL    HW2 3315   3.015   2.844   1.176  0.3955 -1.0974  2.1500
  829SOL     MW 3316   2.972   2.916   1.166 -0.2326 -0.4140  0.2355
  830SOL     OW 3317   2.543   2.841   2.013  0.1129 -0.0192 -0.1490
  830SOL    HW1 3318   2.466   2.797   1.973  1.4150 -0.5863  0.4666
  830SOL    HW2 3319   2.604   2.828   1.939 -2.1605  0.4230  2.3158
  830SOL     MW 3320   2.541   2.834   1.998 -0.0153 -0.0357  0.2575
  831SOL     OW 3321   2.391   2.428   1.164 -0.5424 -0.0437 -0.4743
  831SOL    HW1 3322   2.345   2.387   1.240 -0.6922  0.2139  0.9542
  831SOL    HW2 3323   2.483   2.404   1.170 -2.7138  2.3286 -0.2672
  831SOL     MW 3324   2.398   2.420   1.175 -0.8487  0.3033 -0.2585
  832SOL     OW 3325   2.342   2.191   1.837  0.0239 -0.1207  0.6196
  832SOL    HW1 3326   2.383   2.275   1.849  0.3994  2.2638 -0.7754
  832SOL    HW2 3327   2.409   2.137   1.803  1.0909  3.1177 -2.2740
  832SOL     MW 3328   2.356   2.195   1.834  0.2142  0.6212  0.0537
  833SOL     OW 3329   1.744   2.499   0.869 -0.3165 -0.3239  0.3354
  833SOL    HW1 3330   1.652   2.503   0.848  2.3570  0.3213  0.3710
  833SOL    HW2 3331   1.754   2.562   0.937  0.2059 -1.8466 -5.5391
  833SOL     MW 3332   1.733   2.508   0.875  0.1052 -0.4397 -0.4350
  834SOL     OW 3333   2.100   2.418   0.571 -0.5873 -0.3583  0.4795
  834SOL    HW1 3334   2.019   2.436   0.530  1.4532  0.9138  0.6430
  834SOL    HW2 3335   2.163   2.400   0.502  0.7465 -0.5272 -1.0251
  834SOL     MW 3336   2.098   2.418   0.556 -0.1421 -0.2127  0.3026
  835SOL     OW 3337   1.794   2.571   0.620  0.0153  0.5410  0.4345
  835SOL    HW1 3338   1.766   2.512   0.697 -2.5301 -2.7603  1.9684
  835SOL    HW2 3339   1.858   2.626   0.660  1.5988  0.2943  0.1069
  835SOL     MW 3340   1.799   2.571   0.635 -0.1116  0.0729  0.5936
  836SOL     OW 3341   1.874   2.208   1.574  0.3743 -0.4063  0.1948
  836SOL    HW1 3342   1.957   2.240   1.616  0.5359 -0.5499  1.8163
  836SOL    HW2 3343   1.806   2.269   1.600  1.2430 -0.9451  0.7240
  836SOL     MW 3344   1.876   2.220   1.583  0.5103 -0.4963  0.4785
  837SOL     OW 3345   2.137   0.200   0.733 -0.2409 -0.0782 -0.5618
  837SOL    HW1 3346   2.059   0.209   0.678  1.6228 -0.9988  0.4089
  837SOL    HW2 3347   2.186   0.151   0.669  0.9651  3.0632  2.4005
  837SOL     MW 3348   2.133   0.194   0.717  0.1641  0.2148 -0.0429
  838SOL     OW 3349   2.916   2.033   0.927  0.5046 -0.3975 -0.0737
  838SOL    HW1 3350   2.839   1.976   0.930 -0.7617  0.1694  0.3087
  838SOL    HW2 3351   2.998   1.980   0.928  2.3233  0.1693  0.5248
  838SOL     MW 3352   2.917   2.018   0.927  0.5775 -0.2479  0.0557
  839SOL     OW 3353   1.531   2.338   1.039  0.4131 -0.0593 -0.1189
  839SOL    HW1 3354   1.550   2.406   1.098  0.3069 -2.1230  0.5077
  839SOL    HW2 3355   1.542   2.259   1.095  1.5566 -2.0018  0.3648
  839SOL     MW 3356   1.535   2.337   1.054  0.5500 -0.5879  0.0276
  840SOL     OW 3357   2.358   2.204   2.444  0.1522 -0.1250 -0.0833
  840SOL    HW1 3358   2.305   2.246   2.380 -0.0906  0.0278 -0.0267
  840SOL    HW2 3359   2.350   2.251   2.534  1.2088  1.5993  1.7297
  840SOL     MW 3360   2.350   2.216   2.448  0.2596  0.1226  0.1634
  841SOL     OW 3361   2.062   2.450   0.124 -0.3193 -0.3048  0.5097
  841SOL    HW1 3362   2.124   2.510   0.078  3.1051 -1.7504  0.7499
  841SOL    HW2 3363   2.086   2.359   0.107  3.8021  0.4592 -0.1866
  841SOL     MW 3364   2.074   2.446   0.116  0.6763 -0.3947  0.4495
  842SOL     OW 3365   2.675   2.078   1.547  0.0451  0.1840  0.0742
  842SOL    HW1 3366   2.648   2.064   1.639  2.2632  0.0498 -0.8662
  842SOL    HW2 3367   2.601   2.076   1.487  0.4206  0.3066 -2.1369
  842SOL     MW 3368   2.662   2.076   1.552  0.3873  0.1825 -0.3416
  843SOL     OW 3369   2.670   2.768   1.782  0.1850 -0.2842  0.4927
  843SOL    HW1 3370   2.757   2.732   1.766 -0.6840 -0.0164 -3.4518
  843SOL    HW2 3371   2.613   2.688   1.770 -2.8933 -2.1126 -1.2780
  843SOL     MW 3372   2.674   2.753   1.778 -0.3358 -0.4901 -0.2614
  844SOL     OW 3373   2.665   2.375   1.177  0.0100  0.2936 -0.9741
  844SOL    HW1 3374   2.716   2.380   1.094  1.0541 -0.1597 -2.4091
  844SOL    HW2 3375   2.725   2.416   1.245 -2.4042  3.1088  2.1993
  844SOL     MW 3376   2.680   2.381   1.175 -0.1708  0.6052 -0.7447
  845SOL     OW 3377   2.856   2.478   0.305 -0.1003  0.6104 -0.1076
  845SOL    HW1 3378   2.799   2.397   0.315 -0.5962 -1.8912  1.1319
  845SOL    HW2 3379   2.872   2.499   0.397 -1.3351 -0.2275 -2.7991
  845SOL     MW 3380   2.851   2.470   0.318 -0.3287  0.1698 -0.2992
  846SOL     OW 3381   1.574   2.877   0.778  0.4593 -0.2111  0.5157
  846SOL    HW1 3382   1.667   2.880   0.813  0.7720 -3.2368 -2.3040
  846SOL    HW2 3383   1.520   2.935   0.837 -0.1941 -0.5350  2.7987
  846SOL     MW 3384   1.579   2.885   0.790  0.4144 -0.6531  0.4449
  847SOL     OW 3385   2.633   1.958   0.181  0.2074 -0.0665  0.5116
  847SOL    HW1 3386   2.704   1.902   0.218  0.6367 -1.3501 -0.3756
  847SOL    HW2 3387   2.598   1.897   0.124  1.8064  1.0493  1.5600
  847SOL     MW 3388   2.637   1.943   0.179  0.4750 -0.0886  0.5328
  848SOL     OW 3389   2.540   2.130   1.305 -0.1309 -0.3319 -0.3080
  848SOL    HW1 3390   2.598   2.198   1.269  0.8781 -1.4823 -0.1549
  848SOL    HW2 3391   2.535   2.048   1.253 -1.1569  0.2476  1.7423
  848SOL     MW 3392   2.547   2.128   1.293 -0.1331 -0.4072 -0.0173
  849SOL     OW 3393   1.978   2.677   0.793 -0.6909  0.2104 -0.1647
  849SOL    HW1 3394   2.019   2.614   0.851  2.5088  0.0805 -1.6312
  849SOL    HW2 3395   2.050   2.708   0.737 -0.5913 -1.3963  0.4561
  849SOL     MW 3396   1.993   2.673   0.793 -0.2556 -0.0187 -0.2763
  850SOL     OW 3397   2.174   1.958   1.679 -0.3140  0.3489 -0.0657
  850SOL    HW1 3398   2.095   1.911   1.650 -1.0161 -0.2679  0.2433
  850SOL    HW2 3399   2.155   2.056   1.672  0.1176  0.4367  1.0719
  850SOL     MW 3400   2.161   1.965   1.674 -0.3497  0.2791  0.1251
  851SOL     OW 3401   2.222   2.368   0.318  0.1844  0.0947 -0.1947
  851SOL    HW1 3402   2.159   2.405   0.254 -0.2681 -0.6315  1.7434
  851SOL    HW2 3403   2.291   2.432   0.332 -0.7370  2.3938 -1.0375
  851SOL     MW 3404   2.223   2.381   0.312  0.0031  0.3022 -0.0502
  852SOL     OW 3405   2.326   2.115   0.278 -0.3856  0.1147 -0.8516
  852SOL    HW1 3406   2.276   2.189   0.310 -0.2913  0.8725  0.4405
  852SOL    HW2 3407   2.382   2.148   0.206 -0.5094  1.8616 -0.1705
  852SOL     MW 3408   2.327   2.129   0.273 -0.3895  0.4452 -0.5913
  853SOL     OW 3409   2.433   2.446   1.908 -0.5074  0.1481  0.3436
  853SOL    HW1 3410   2.471   2.472   1.820  1.2968  0.5096 -1.1191
  853SOL    HW2 3411   2.513   2.443   1.960  0.2552  2.1539 -0.5243
  853SOL     MW 3412   2.448   2.449   1.903 -0.1687  0.4604  0.0361
  854SOL     OW 3413   2.865   2.216   0.744 -0.3221 -0.0180  0.0654
  854SOL    HW1 3414   2.784   2.180   0.709 -0.1904 -0.1536 -1.1087
  854SOL    HW2 3415   2.885   2.156   0.821 -0.1833 -0.2169  1.5001
  854SOL     MW 3416   2.857   2.203   0.749 -0.2864 -0.0621  0.0998
  855SOL     OW 3417   2.723   2.248   0.309 -0.1391 -0.4172 -0.5547
  855SOL    HW1 3418   2.676   2.259   0.398 -3.0347 -0.0486 -0.4563
  855SOL    HW2 3419   2.796   2.187   0.325 -2.0774 -0.6073  2.3480
  855SOL     MW 3420   2.726   2.241   0.323 -0.7769 -0.3936 -0.1587
  856SOL     OW 3421   2.195   1.881   0.181 -0.0324 -0.1298 -0.1767
  856SOL    HW1 3422   2.101   1.889   0.214  0.2584 -0.0767  1.4876
  856SOL    HW2 3423   2.247   1.959   0.217  1.8784 -1.8552  1.0451
  856SOL     MW 3424   2.190   1.892   0.190  0.2581 -0.3505  0.2041
  857SOL     OW 3425   2.490   1.907   0.452  0.1607 -0.1365 -0.2049
  857SOL    HW1 3426   2.492   1.925   0.360 -0.1554 -1.4148  2.3046
  857SOL    HW2 3427   2.398   1.875   0.465  2.2986  1.0977 -0.5053
  857SOL     MW 3428   2.478   1.905   0.442  0.4011 -0.1423  0.0866
  858SOL     OW 3429   2.933   2.667   1.762 -0.0563  0.2194 -0.3946
  858SOL    HW1 3430   3.012   2.686   1.814 -2.6804  1.7925 -0.4580
  858SOL    HW2 3431   2.891   2.585   1.801 -2.8829  0.1499  0.9342
  858SOL     MW 3432   2.938   2.659   1.774 -0.7755  0.4178 -0.2276
  859SOL     OW 3433   2.085   2.457   0.909  0.8071  0.4626  0.0163
  859SOL    HW1 3434   2.024   2.410   0.846  0.2210  0.0309  1.4183
  859SOL    HW2 3435   2.171   2.428   0.893 -0.7999  0.9672  0.0640
  859SOL     MW 3436   2.088   2.447   0.899  0.5177  0.4722  0.2076
  860SOL     OW 3437   2.642   2.629   0.183 -0.4351  0.0672 -0.0404
  860SOL    HW1 3438   2.710   2.584   0.226 -1.4692  1.8643 -1.2902
  860SOL    HW2 3439   2.689   2.705   0.147  1.6871  1.9667  0.5370
  860SOL     MW 3440   2.657   2.633   0.184 -0.2915  0.5549 -0.1291
  861SOL     OW 3441   1.583   2.083   1.156 -0.5284  0.3186  0.4848
  861SOL    HW1 3442   1.663   2.095   1.217 -2.5980  1.1780  0.8585
  861SOL    HW2 3443   1.528   2.019   1.201 -1.2877  0.0227 -2.7092
  861SOL     MW 3444   1.586   2.076   1.170 -0.9017  0.3930  0.1127
  862SOL     OW 3445   2.405   1.860   1.559  0.0455 -0.3585 -0.1863
  862SOL    HW1 3446   2.322   1.897   1.598 -0.9819 -0.1265 -3.2456
  862SOL    HW2 3447   2.385   1.862   1.466 -0.5418 -3.3665  1.5121
  862SOL     MW 3448   2.392   1.865   1.552 -0.1676 -0.7248 -0.3659
  863SOL     OW 3449   3.068   1.819   1.175  0.5577  0.2122 -0.8859
  863SOL    HW1 3450   3.088   1.780   1.260 -0.1228 -1.2482 -0.5849
  863SOL    HW2 3451   3.049   1.915   1.192 -1.4328  1.5078 -3.0815
  863SOL     MW 3452   3.068   1.826   1.188  0.2053  0.1905 -1.1358
  864SOL     OW 3453   0.029   1.865   0.914  0.1381 -0.1849  0.1594
  864SOL    HW1 3454  -0.004   1.829   0.994 -1.9702  1.0156  0.1054
  864SOL    HW2 3455   0.015   1.817   0.832 -0.7919  1.6317 -0.3446
  864SOL     MW 3456   0.023   1.854   0.914 -0.2627  0.2132  0.0858
  865SOL     OW 3457   2.497   2.179   0.067  0.4608 -0.0612  0.5361
  865SOL    HW1 3458   2.560   2.123   0.128 -0.2151 -0.4447 -0.5002
  865SOL    HW2 3459   2.508   2.130  -0.020 -0.6341 -0.1408  2.0597
  865SOL     MW 3460   2.507   2.165   0.063  0.2271 -0.1223  0.6004
  866SOL     OW 3461   2.716   2.337   1.587 -0.3452  0.5675  0.1756
  866SOL    HW1 3462   2.696   2.247   1.557  0.6774  1.3395  0.2992
  866SOL    HW2 3463   2.757   2.383   1.514 -0.8020 -1.1130  1.3010
  866SOL     MW 3464   2.719   2.331   1.573 -0.2705  0.4476  0.3404
  867SOL     OW 3465   0.079   2.717   1.862 -0.0328  0.2241 -0.0455
  867SOL    HW1 3466   0.141   2.719   1.937 -0.4368  0.8722 -0.9149
  867SOL    HW2 3467   0.086   2.797   1.809 -1.6018 -0.3465  2.1523
  867SOL     MW 3468   0.088   2.728   1.865 -0.2931  0.2343  0.1297
  868SOL     OW 3469   2.798   2.535   0.575 -0.0663  0.2621 -0.3851
  868SOL    HW1 3470   2.730   2.468   0.567  1.6869 -1.1644  2.5578
  868SOL    HW2 3471   2.771   2.617   0.537  0.9527  0.6564  1.5261
  868SOL     MW 3472   2.786   2.537   0.569  0.2995  0.1259  0.2554
  869SOL     OW 3473   1.893   2.346   1.070 -0.1329 -0.2327 -0.0331
  869SOL    HW1 3474   1.961   2.390   1.016 -1.2742 -1.1093 -2.6515
  869SOL    HW2 3475   1.826   2.347   1.006 -0.0065 -0.3335 -2.7592
  869SOL     MW 3476   1.893   2.352   1.054 -0.2668 -0.3617 -0.7383
  870SOL     OW 3477   2.288   0.054   0.535 -0.7145 -0.4948  0.3954
  870SOL    HW1 3478   2.327   0.077   0.447  0.8972 -1.4271 -0.5818
  870SOL    HW2 3479   2.335  -0.024   0.560 -0.4442 -1.8299 -0.9165
  870SOL     MW 3480   2.300   0.047   0.527 -0.4662 -0.7940  0.0934
  871SOL     OW 3481   2.451   2.094   0.842 -0.0463 -0.4016  0.8856
  871SOL    HW1 3482   2.374   2.041   0.813  1.4008  0.9168 -1.0597
  871SOL    HW2 3483   2.410   2.176   0.883  0.0067 -1.4228  1.3083
  871SOL     MW 3484   2.435   2.098   0.844  0.1516 -0.3624  0.6847
  872SOL     OW 3485   2.028   2.586   1.379  0.1522  0.1190 -0.1922
  872SOL    HW1 3486   2.007   2.612   1.469 -0.7482 -1.7176 -0.9337
  872SOL    HW2 3487   1.964   2.516   1.359 -1.5182  0.2678 -0.2392
  872SOL     MW 3488   2.017   2.580   1.389 -0.1870 -0.1037 -0.2962
  873SOL     OW 3489   2.826   2.054   1.902  0.0215  0.4576  0.2446
  873SOL    HW1 3490   2.853   2.107   1.980 -2.3674 -1.1887 -0.6194
  873SOL    HW2 3491   2.893   2.059   1.833 -1.0383  2.1464  0.1684
  873SOL     MW 3492   2.839   2.061   1.903 -0.4335  0.4632  0.1206
  874SOL     OW 3493   2.450   1.515   2.315 -0.2434 -0.0298  0.6049
  874SOL    HW1 3494   2.374   1.470   2.271  1.4750  2.2239  0.4599
  874SOL    HW2 3495   2.521   1.457   2.334  0.4643  1.1117  1.1913
  874SOL     MW 3496   2.449   1.501   2.312  0.0767  0.4181  0.6631
  875SOL     OW 3497   2.339   2.316   0.936 -0.1836 -0.7265 -0.3015
  875SOL    HW1 3498   2.395   2.386   0.893 -0.1935  3.3886 -0.0917
  875SOL    HW2 3499   2.347   2.351   1.026 -1.8355 -1.0509 -1.0663
  875SOL     MW 3500   2.347   2.330   0.942 -0.4029 -0.2263 -0.3747
  876SOL     OW 3501   3.049   2.347   1.334 -0.1042 -0.3677 -0.2015
  876SOL    HW1 3502   3.124   2.343   1.268  3.8142  0.5249 -1.1719
  876SOL    HW2 3503   3.068   2.414   1.393 -2.4967 -1.2712 -1.5860
  876SOL     MW 3504   3.061   2.355   1.333  0.0971 -0.3692 -0.5122
  877SOL     OW 3505   3.057   2.771   0.355 -0.2475 -0.4734 -0.7986
  877SOL    HW1 3506   3.070   2.854   0.313 -2.0205 -1.7858 -1.2083
  877SOL    HW2 3507   3.098   2.711   0.292 -1.2242  0.3444 -2.1014
  877SOL     MW 3508   3.064   2.774   0.341 -0.6103 -0.5387 -1.0246
  878SOL     OW 3509   2.354   1.838   1.297 -0.5452 -0.2154 -0.3148
  878SOL    HW1 3510   2.297   1.761   1.307 -0.0318 -1.5453 -1.3985
  878SOL    HW2 3511   2.438   1.792   1.280  2.3749 -0.5920  0.8417
  878SOL     MW 3512   2.357   1.821   1.296 -0.0922 -0.4406 -0.3052
  879SOL     OW 3513   2.772   2.411   0.927  0.4821  0.3146 -0.2993
  879SOL    HW1 3514   2.833   2.474   0.954 -1.1019 -1.9212 -0.7248
  879SOL    HW2 3515   2.816   2.349   0.868  1.2144 -0.0059  2.4749
  879SOL     MW 3516   2.786   2.411   0.923  0.3697 -0.0227  0.0106
  880SOL     OW 3517   2.668   2.014   0.663  0.5567  0.3270 -0.0304
  880SOL    HW1 3518   2.619   2.043   0.740 -0.2625 -0.2172  2.8851
  880SOL    HW2 3519   2.599   1.990   0.599  0.4292 -0.0377 -1.7473
  880SOL     MW 3520   2.652   2.015   0.665  0.4318  0.2071  0.1278
  881SOL     OW 3521   2.946   2.695   0.765 -0.0492 -0.1358  0.5994
  881SOL    HW1 3522   2.888   2.636   0.711 -0.6356 -1.2396 -3.8508
  881SOL    HW2 3523   3.028   2.682   0.717 -1.1835  1.9624  0.4649
  881SOL     MW 3524   2.949   2.686   0.752 -0.2762 -0.0046 -0.0055
  882SOL     OW 3525   2.314   2.778   1.869  0.6994 -0.4928  0.4407
  882SOL    HW1 3526   2.282   2.791   1.779  0.3726  0.0963  1.9912
  882SOL    HW2 3527   2.246   2.743   1.926  1.2548 -0.5492  0.0208
  882SOL     MW 3528   2.301   2.775   1.865  0.7295 -0.4225  0.5899
  883SOL     OW 3529   2.269   2.230   1.357 -0.4137  0.3284 -0.1897
  883SOL    HW1 3530   2.355   2.202   1.333 -1.7196  0.3357  1.9462
  883SOL    HW2 3531   2.204   2.191   1.290 -1.0919 -0.6545 -0.3164
  883SOL     MW 3532   2.271   2.221   1.345 -0.6755  0.1997  0.0754
  884SOL     OW 3533   1.925   1.841   1.124  0.0652  0.7122 -0.0446
  884SOL    HW1 3534   1.867   1.899   1.076 -1.0785 -1.2935  0.4626
  884SOL    HW2 3535   2.009   1.879   1.104  2.1388 -0.2916  1.1015
  884SOL     MW 3536   1.928   1.853   1.115  0.1879  0.3151  0.1736
  885SOL     OW 3537   2.812   2.411   1.848 -0.6782 -0.1191  0.3208
  885SOL    HW1 3538   2.903   2.377   1.867 -0.0596 -1.7382 -1.1206
  885SOL    HW2 3539   2.785   2.369   1.764  1.0957 -3.4020  1.3512
  885SOL     MW 3540   2.820   2.401   1.839 -0.3625 -0.7659  0.2666
  886SOL     OW 3541   2.820   2.533   1.342 -0.2876  0.0216  0.4012
  886SOL    HW1 3542   2.900   2.507   1.299  0.9123  1.2314  1.0270
  886SOL    HW2 3543   2.858   2.588   1.412  0.5887 -0.4155  2.2179
  886SOL     MW 3544   2.835   2.537   1.346 -0.0136  0.1236  0.7235
  887SOL     OW 3545   2.291   2.614   1.465  0.0838  0.1016  0.0724
  887SOL    HW1 3546   2.314   2.649   1.381 -0.1352 -1.2678  0.1306
  887SOL    HW2 3547   2.197   2.602   1.462  1.3846 -0.1528  0.7193
  887SOL     MW 3548   2.282   2.617   1.454  0.2265 -0.1127  0.1655
  888SOL     OW 3549   1.799   2.071   1.347 -0.2267  0.1644 -0.6808
  888SOL    HW1 3550   1.883   2.071   1.298 -1.7676 -0.1337 -1.4005
  888SOL    HW2 3551   1.827   2.107   1.435  0.7226 -1.4735  1.0059
  888SOL     MW 3552   1.814   2.076   1.352 -0.3047 -0.0911 -0.5532
  889SOL     OW 3553   2.319   2.068   2.104  0.4180 -0.4504 -0.2255
  889SOL    HW1 3554   2.408   2.068   2.133  0.3424 -1.0393  0.5557
  889SOL    HW2 3555   2.322   2.132   2.033 -0.1307 -0.9674  0.3704
  889SOL     MW 3556   2.331   2.076   2.098  0.3356 -0.5963 -0.0438
  890SOL     OW 3557   0.108   2.292   0.091  0.5341 -0.0543  0.5838
  890SOL    HW1 3558   0.118   2.388   0.081 -1.6138  1.6153 -1.4491
  890SOL    HW2 3559   0.078   2.276   0.182  0.1558 -1.3355  1.3510
  890SOL     MW 3560   0.106   2.302   0.101  0.2008 -0.0030  0.4168
  891SOL     OW 3561   3.050   2.052   1.329  0.2020  0.0652  0.1921
  891SOL    HW1 3562   3.140   2.018   1.348  2.0369 -1.5421 -1.6972
  891SOL    HW2 3563   3.052   2.144   1.308 -1.5791 -2.7973 -1.1671
  891SOL     MW 3564   3.062   2.059   1.329  0.2091 -0.5246 -0.2365
  892SOL     OW 3565   2.339   2.380   2.975  0.1493  0.2803  0.3751
  892SOL    HW1 3566   2.331   2.299   3.020 -0.1051  1.8874  0.6460
  892SOL    HW2 3567   2.422   2.384   2.930 -0.3619 -0.4736 -2.4205
  892SOL     MW 3568   2.349   2.370   2.975  0.0483  0.3929  0.0420
  893SOL     OW 3569   1.607   2.526   1.230  0.0676 -0.0013 -0.2660
  893SOL    HW1 3570   1.535   2.537   1.290 -0.2907  2.4245  0.1801
  893SOL    HW2 3571   1.658   2.463   1.276 -1.1577  2.4454  1.0590
  893SOL     MW 3572   1.604   2.519   1.244 -0.1414  0.6416 -0.0323
  894SOL     OW 3573   2.872   1.896   0.520 -0.6480  0.2469 -0.0620
  894SOL    HW1 3574   2.799   1.927   0.590 -2.3868  0.5200  1.8152
  894SOL    HW2 3575   2.828   1.854   0.450 -2.0999 -2.1432 -1.0093
  894SOL     MW 3576   2.856   1.894   0.520 -1.0690 -0.0324  0.0607
  895SOL     OW 3577   2.075   2.118   1.187  0.3272  0.3999 -0.0216
  895SOL    HW1 3578   2.029   2.179   1.129  0.5794 -0.8451 -2.5718
  895SOL    HW2 3579   2.132   2.064   1.133 -0.3089  0.0532  1.0787
  895SOL     MW 3580   2.077   2.119   1.172  0.2765  0.1899 -0.2129
  896SOL     OW 3581   2.195   2.818   1.051  0.1698  0.4491  0.2616
  896SOL    HW1 3582   2.263   2.769   1.102  1.0165  2.4664  0.1830
  896SOL    HW2 3583   2.113   2.796   1.105 -0.5338 -0.0458 -1.0936
  896SOL     MW 3584   2.193   2.809   1.065  0.1887  0.6499  0.0724
  897SOL     OW 3585   2.976   2.947   0.147 -0.4900 -0.2786  0.2168
  897SOL    HW1 3586   3.061   2.933   0.104 -0.0604 -1.7549 -2.4696
  897SOL    HW2 3587   2.915   2.916   0.083  2.2125  2.8192 -0.2186
  897SOL     MW 3588   2.979   2.941   0.133 -0.0768 -0.0646 -0.1951
  898SOL     OW 3589   2.077   0.173   1.409  0.2129  0.6263  0.2906
  898SOL    HW1 3590   2.025   0.111   1.353  2.3729 -3.4772  2.0788
  898SOL    HW2 3591   2.127   0.221   1.341 -2.9271  0.4422 -2.2259
  898SOL     MW 3592   2.077   0.171   1.393  0.0836  0.0606  0.1945
  899SOL     OW 3593   2.888   2.955   0.635 -0.4161  0.0552  0.3211
  899SOL    HW1 3594   2.889   2.871   0.684  1.5644  0.6138  3.1183
  899SOL    HW2 3595   2.811   3.003   0.670 -0.0603  0.0659  1.3350
  899SOL     MW 3596   2.878   2.950   0.646 -0.1079  0.1303  0.8239
  900SOL     OW 3597   0.123   2.371   1.127 -0.2841  0.0140  0.0443
  900SOL    HW1 3598   0.126   2.462   1.094 -2.3071  0.1638  0.1412
  900SOL    HW2 3599   0.116   2.321   1.045  0.9831  0.9731 -0.0662
  900SOL     MW 3600   0.123   2.377   1.112 -0.3838  0.1603  0.0425
  901SOL     OW 3601   1.736   2.800   1.771  0.1861 -0.2592 -0.4137
  901SOL    HW1 3602   1.812   2.748   1.734 -1.0075 -1.3042 -1.6842
  901SOL    HW2 3603   1.685   2.832   1.698 -2.3156 -0.9102 -2.9792
  901SOL     MW 3604   1.739   2.798   1.757 -0.3015 -0.4829 -0.9198
  902SOL     OW 3605   2.574   2.031   1.793  0.1104 -0.6096  0.1826
  902SOL    HW1 3606   2.546   1.943   1.826  1.0657 -2.1467  0.6582
  902SOL    HW2 3607   2.651   2.054   1.845 -0.2041  0.5064  1.8595
  902SOL     MW 3608   2.580   2.022   1.804  0.1949 -0.6652  0.4666
  903SOL     OW 3609   1.656   2.776   0.513 -0.0181 -0.2559 -0.0751
  903SOL    HW1 3610   1.689   2.691   0.562 -0.8125 -0.3211 -0.2791
  903SOL    HW2 3611   1.631   2.826   0.595 -0.2320  1.1293  1.9563
  903SOL     MW 3612   1.657   2.772   0.530 -0.1511 -0.0818  0.1660
  904SOL     OW 3613   2.497   2.520   1.666  0.2466 -0.0784 -0.0133
  904SOL    HW1 3614   2.421   2.554   1.610  1.3042  3.1838  3.3498
  904SOL    HW2 3615   2.541   2.459   1.607 -2.4546 -1.1487 -0.8589
  904SOL     MW 3616   2.493   2.516   1.651  0.0298  0.2108  0.3188
  905SOL     OW 3617   2.348   2.586   2.131 -0.3629  0.5808  0.1237
  905SOL    HW1 3618   2.373   2.544   2.049 -2.7350 -2.1881  0.6008
  905SOL    HW2 3619   2.302   2.515   2.184  0.1731  0.1102  1.5838
  905SOL     MW 3620   2.345   2.571   2.127 -0.6051  0.1534  0.3793
  906SOL     OW 3621   2.510   2.514   0.824 -0.1550 -0.7640  0.1416
  906SOL    HW1 3622   2.602   2.490   0.835  1.8633 -0.5663 -2.0990
  906SOL    HW2 3623   2.497   2.608   0.853 -0.4809  0.2528  0.1531
  906SOL     MW 3624   2.520   2.523   0.829  0.0683 -0.6038 -0.1525
  907SOL     OW 3625   2.592   2.855   1.265  0.5633  0.3779 -0.2149
  907SOL    HW1 3626   2.645   2.890   1.334 -0.6639  1.4672  0.1069
  907SOL    HW2 3627   2.644   2.873   1.185 -0.3531 -1.0054 -0.5353
  907SOL     MW 3628   2.606   2.862   1.264  0.2805  0.3391 -0.2147
  908SOL     OW 3629   2.694   2.387   0.020  0.4208  0.4645  0.5489
  908SOL    HW1 3630   2.645   2.315   0.059  1.0469 -3.4065 -1.2715
  908SOL    HW2 3631   2.680   2.470   0.069 -0.7140 -1.9185 -1.2701
  908SOL     MW 3632   2.686   2.388   0.032  0.3537 -0.3606  0.0687
  909SOL     OW 3633   1.638   0.234   1.026 -0.5855 -0.1828 -0.4854
  909SOL    HW1 3634   1.686   0.307   0.986  0.7681 -3.7858 -1.4311
  909SOL    HW2 3635   1.609   0.263   1.116 -1.8490 -0.0658 -1.2360
  909SOL     MW 3636   1.640   0.247   1.033 -0.5736 -0.6427 -0.7092
  910SOL     OW 3637   2.257   1.722   0.392  0.5958  0.5151 -0.1402
  910SOL    HW1 3638   2.172   1.692   0.416  3.3677 -1.0178 -0.0739
  910SOL    HW2 3639   2.248   1.752   0.301 -0.3217  0.2085  0.3742
  910SOL     MW 3640   2.245   1.722   0.383  0.8405  0.2724 -0.0636
  911SOL     OW 3641   2.164   2.221   1.629  0.1001  0.9012  0.1541
  911SOL    HW1 3642   2.230   2.214   1.697 -2.2072  1.0024  1.0923
  911SOL    HW2 3643   2.204   2.229   1.545 -1.5720 -1.1074 -1.3210
  911SOL     MW 3644   2.178   2.221   1.627 -0.4250  0.6495  0.0832
  912SOL     OW 3645   2.874   1.896   1.488  0.4441 -0.4107 -0.0079
  912SOL    HW1 3646   2.930   1.948   1.423  0.8332  0.3126 -2.2824
  912SOL    HW2 3647   2.803   1.955   1.514 -2.3677  0.1784 -1.4540
  912SOL     MW 3648   2.872   1.911   1.483  0.1244 -0.2376 -0.4988
  913SOL     OW 3649   2.553   2.954   0.375 -0.2119  0.2611  0.0238
  913SOL    HW1 3650   2.611   2.876   0.388 -1.7474 -2.5292  0.5327
  913SOL    HW2 3651   2.467   2.923   0.403 -0.1312 -1.0537 -0.7488
  913SOL     MW 3652   2.549   2.939   0.381 -0.4039 -0.2805 -0.0110
  914SOL     OW 3653   2.795   1.627   0.014 -0.5980 -0.3500  0.3174
  914SOL    HW1 3654   2.766   1.668  -0.065  0.8711 -1.1148  3.1041
  914SOL    HW2 3655   2.723   1.583   0.048  2.9003  1.4665  0.0593
  914SOL     MW 3656   2.782   1.627   0.008  0.0574 -0.2113  0.6510
  915SOL     OW 3657   1.860   0.170   0.214 -0.5769 -0.2295  0.0013
  915SOL    HW1 3658   1.914   0.110   0.268  1.9316  1.0288 -0.0171
  915SOL    HW2 3659   1.772   0.144   0.242  0.1869 -1.2256 -2.6320
  915SOL     MW 3660   1.856   0.158   0.225 -0.1452 -0.1949 -0.3485
  916SOL     OW 3661   1.821   2.102   1.944  0.2924 -0.1921  0.3193
  916SOL    HW1 3662   1.792   2.196   1.944 -0.5850  1.8839 -0.3470
  916SOL    HW2 3663   1.819   2.072   1.855 -1.0359 -2.3977  0.0887
  916SOL     MW 3664   1.817   2.111   1.932  0.0014 -0.2092  0.2009
  917SOL     OW 3665   2.282   2.322   2.685  0.0899 -0.3159  0.4993
  917SOL    HW1 3666   2.268   2.325   2.779 -0.9666  2.4752  1.3541
  917SOL    HW2 3667   2.279   2.414   2.651 -0.7173  0.5429  0.1980
  917SOL     MW 3668   2.280   2.335   2.693 -0.1560  0.1656  0.5723
  918SOL     OW 3669   2.051   1.646   2.658  0.8958  0.1109  0.4509
  918SOL    HW1 3670   1.984   1.670   2.592  1.1256  1.2655 -0.6929
  918SOL    HW2 3671   2.115   1.714   2.663 -0.6824 -0.0114  1.7507
  918SOL     MW 3672   2.051   1.658   2.650  0.7179  0.2471  0.4715
  919SOL     OW 3673   3.060   2.398   2.264 -0.4297  0.0919  0.2766
  919SOL    HW1 3674   3.000   2.337   2.238  3.8144  1.5525  1.1508
  919SOL    HW2 3675   3.129   2.396   2.199  2.7374 -0.6221 -1.6606
  919SOL     MW 3676   3.061   2.389   2.252  0.5482  0.1904  0.1363
  920SOL     OW 3677   2.762   2.847   0.012 -0.0459  0.1304  0.0843
  920SOL    HW1 3678   2.685   2.908   0.030 -2.5454  0.4576 -0.9610
  920SOL    HW2 3679   2.736   2.786  -0.061  0.1965 -0.8521 -0.1591
  920SOL     MW 3680   2.748   2.847   0.004 -0.3437  0.0439 -0.0857
  921SOL     OW 3681   2.524   2.646   2.708  0.0460 -0.5829 -0.0446
  921SOL    HW1 3682   2.590   2.641   2.641  1.9144 -5.1040 -0.4147
  921SOL    HW2 3683   2.538   2.563   2.760 -2.0701  1.2705 -2.3190
  921SOL     MW 3684   2.534   2.634   2.706  0.0133 -0.9349 -0.3935
  922SOL     OW 3685   2.028   2.841   0.268 -0.1688 -0.5161 -0.2619
  922SOL    HW1 3686   2.010   2.869   0.171 -0.8176 -2.0444  1.1750
  922SOL    HW2 3687   1.991   2.750   0.282  0.4156 -2.4995  2.8201
  922SOL     MW 3688   2.021   2.833   0.257 -0.1773 -0.9794  0.3343
  923SOL     OW 3689   2.183   2.810   1.623  0.4898  0.2623 -0.0741
  923SOL    HW1 3690   2.235   2.762   1.560 -0.6559 -1.4016  0.5360
  923SOL    HW2 3691   2.173   2.903   1.590  0.3954 -1.0341 -0.1271
  923SOL     MW 3692   2.188   2.816   1.610  0.3262 -0.1283 -0.0006
  924SOL     OW 3693   1.147   2.760   2.482  0.2144  0.1396  0.3309
  924SOL    HW1 3694   1.210   2.798   2.419 -0.0700  2.2437 -1.0080
  924SOL    HW2 3695   1.203   2.724   2.551 -0.3366  2.4171  1.4824
  924SOL     MW 3696   1.163   2.760   2.483  0.1042  0.7177  0.3061
  925SOL     OW 3697   2.985   0.223   2.685 -0.4798 -0.3553 -0.0962
  925SOL    HW1 3698   3.017   0.268   2.606 -0.5924 -1.6970  2.8909
  925SOL    HW2 3699   2.940   0.293   2.730 -1.0607 -2.8967 -3.1692
  925SOL     MW 3700   2.984   0.238   2.680 -0.5713 -0.8677 -0.1075
  926SOL     OW 3701   2.652   2.386   2.080 -0.0286  0.2196  0.4022
  926SOL    HW1 3702   2.687   2.459   2.130 -0.2600  0.8574  1.8164
  926SOL    HW2 3703   2.711   2.374   2.000  2.5732 -2.4130  0.4459
  926SOL     MW 3704   2.665   2.394   2.076  0.2842 -0.0436  0.5946
  927SOL     OW 3705   2.380   0.164   0.298 -0.4842  0.0436 -0.4818
  927SOL    HW1 3706   2.473   0.190   0.281  0.8540  0.5757  1.5829
  927SOL    HW2 3707   2.354   0.148   0.210  0.0230  0.5233  3.0690
  927SOL     MW 3708   2.389   0.165   0.284 -0.2407  0.1771  0.2591
  928SOL     OW 3709   2.017   2.507   1.819 -0.3744  0.1806 -0.4440
  928SOL    HW1 3710   2.092   2.469   1.785 -3.2507 -1.1101 -3.2628
  928SOL    HW2 3711   2.056   2.562   1.889  0.9035 -1.4231  1.3489
  928SOL     MW 3712   2.032   2.510   1.824 -0.5853 -0.2013 -0.5793
  929SOL     OW 3713   2.748   2.344   2.444  0.3469  0.2216 -0.4656
  929SOL    HW1 3714   2.719   2.269   2.395  1.1649 -0.3884  3.4042
  929SOL    HW2 3715   2.777   2.309   2.530 -0.3945  1.9135 -3.1796
  929SOL     MW 3716   2.748   2.330   2.449  0.3570  0.3644 -0.3131
  930SOL     OW 3717   2.005   2.877   2.641  0.0661 -0.4163  0.0172
  930SOL    HW1 3718   1.993   2.834   2.723  2.9045 -0.6267  1.2054
  930SOL    HW2 3719   2.100   2.908   2.634 -0.8043  0.2843 -3.8133
  930SOL     MW 3720   2.016   2.875   2.651  0.3258 -0.3516 -0.3314
  931SOL     OW 3721   2.934   2.831   2.170 -0.0656  0.1622  0.5637
  931SOL    HW1 3722   3.029   2.819   2.182 -0.4611  2.2937  0.5080
  931SOL    HW2 3723   2.923   2.902   2.111  0.2948 -1.7310 -2.3426
  931SOL     MW 3724   2.945   2.838   2.164 -0.0702  0.1936  0.1729
  932SOL     OW 3725   2.821   1.919   2.529  0.3014  0.1548  0.2787
  932SOL    HW1 3726   2.896   1.950   2.575 -0.0864 -2.7854  1.6189
  932SOL    HW2 3727   2.824   1.947   2.438 -0.1566 -0.2309  2.6688
  932SOL     MW 3728   2.831   1.927   2.523  0.1898 -0.2840  0.7709
  933SOL     OW 3729   2.073   2.800   2.249  0.1825  0.7158 -0.6498
  933SOL    HW1 3730   2.157   2.833   2.273 -2.1264 -2.2560  1.4213
  933SOL    HW2 3731   2.026   2.876   2.222 -1.2010 -2.9848 -0.0117
  933SOL     MW 3732   2.078   2.815   2.249 -0.3047 -0.1645 -0.2924
  934SOL     OW 3733   1.984   2.671   2.477 -0.1358  0.0409 -0.1075
  934SOL    HW1 3734   1.979   2.760   2.503 -0.4660  0.7943 -0.4889
  934SOL    HW2 3735   1.985   2.682   2.383 -0.7919  1.9280 -1.7875
  934SOL     MW 3736   1.983   2.684   2.468 -0.2660  0.3893 -0.3795
  935SOL     OW 3737   2.636   1.600   1.793 -0.2882  0.2107 -0.2633
  935SOL    HW1 3738   2.719   1.576   1.745  0.8460  0.4594  0.5768
  935SOL    HW2 3739   2.575   1.589   1.728  3.8524  0.0233  1.8910
  935SOL     MW 3740   2.639   1.595   1.778  0.4078  0.2188  0.1318
  936SOL     OW 3741   2.959   2.237   3.077  0.1104  0.3496 -0.7574
  936SOL    HW1 3742   3.040   2.297   3.086  0.9959  1.0572 -1.0423
  936SOL    HW2 3743   2.878   2.283   3.097 -1.2776 -1.7741  0.5639
  936SOL     MW 3744   2.959   2.251   3.081  0.0441  0.1627 -0.6207
  937SOL     OW 3745   1.984   2.219   2.612  0.1623 -0.8928  0.5343
  937SOL    HW1 3746   2.063   2.177   2.655 -0.1999 -1.6235  0.8777
  937SOL    HW2 3747   1.966   2.193   2.520 -0.5798  1.2777 -1.1574
  937SOL     MW 3748   1.992   2.210   2.605  0.0166 -0.7028  0.3564
  938SOL     OW 3749   2.253   1.844   1.927  0.1513  0.1151 -0.1323
  938SOL    HW1 3750   2.244   1.872   1.837  0.8580  1.1447 -0.0440
  938SOL    HW2 3751   2.270   1.919   1.983 -3.0948 -2.2144 -1.0243
  938SOL     MW 3752   2.254   1.858   1.923 -0.1838 -0.0564 -0.2383
  939SOL     OW 3753   2.808   1.997   2.274  0.2633  0.0152 -0.4700
  939SOL    HW1 3754   2.818   1.923   2.215  0.1006  0.6973  2.3692
  939SOL    HW2 3755   2.711   2.016   2.272 -2.1770 -0.4763 -0.0283
  939SOL     MW 3756   2.797   1.989   2.266 -0.0801  0.0403 -0.0371
  940SOL     OW 3757   2.278   0.167   2.688 -0.0389 -0.7838 -0.1304
  940SOL    HW1 3758   2.260   0.076   2.666  0.4622  1.9701 -0.0624
  940SOL    HW2 3759   2.343   0.165   2.765  0.8984 -2.3093  0.6744
  940SOL     MW 3760   2.284   0.155   2.695  0.1509 -0.6217 -0.0152
  941SOL     OW 3761   0.141   2.371   2.075  0.9357  0.2753  0.2474
  941SOL    HW1 3762   0.212   2.315   2.097  2.3478 -1.1364 -0.1864
  941SOL    HW2 3763   0.094   2.319   2.016  2.6423  0.6758 -2.1188
  941SOL     MW 3764   0.144   2.357   2.070  1.3472  0.1419 -0.1220
  942SOL     OW 3765   2.873   2.220   2.146  0.2610 -0.6588  0.8527
  942SOL    HW1 3766   2.787   2.250   2.131  1.8308 -0.6487  2.8057
  942SOL    HW2 3767   2.860   2.143   2.205 -1.8481  1.1202  0.3138
  942SOL     MW 3768   2.860   2.214   2.152  0.1899 -0.4227  1.0393
  943SOL     OW 3769   0.232   2.018   2.329  0.5474 -0.3714 -0.3163
  943SOL    HW1 3770   0.164   2.071   2.382 -1.6529  2.7313  0.0860
  943SOL    HW2 3771   0.314   2.029   2.379  0.0454  0.5619  1.9693
  943SOL     MW 3772   0.234   2.026   2.343  0.1909  0.1611  0.0383
  944SOL     OW 3773   2.122   2.660   2.018 -0.0401  0.3498  0.0226
  944SOL    HW1 3774   2.201   2.631   2.067  0.3735  1.1779  3.0534
  944SOL    HW2 3775   2.095   2.727   2.080  0.8788 -0.9946 -0.3574
  944SOL     MW 3776   2.129   2.665   2.032  0.1357  0.2817  0.3724
  945SOL     OW 3777   2.758   2.642   2.941 -0.0248  0.9108 -0.2742
  945SOL    HW1 3778   2.705   2.568   2.909 -0.3537  0.6087 -2.0269
  945SOL    HW2 3779   2.815   2.656   2.864  0.0423  2.4065  2.1887
  945SOL     MW 3780   2.759   2.634   2.927 -0.0593  1.0683 -0.1805
  946SOL     OW 3781   2.553   2.715   2.290  0.1790 -0.0031 -0.0114
  946SOL    HW1 3782   2.568   2.738   2.198  1.8975  2.6299 -1.4382
  946SOL    HW2 3783   2.500   2.642   2.279  0.1009  1.0584  0.2141
  946SOL     MW 3784   2.548   2.709   2.276  0.3954  0.4844 -0.1699
  947SOL     OW 3785   2.054   0.057   0.380 -0.4069 -0.3943 -0.6584
  947SOL    HW1 3786   2.035  -0.035   0.346  0.7237 -0.4385 -1.3974
  947SOL    HW2 3787   2.136   0.056   0.426  1.9222  3.2029  2.8468
  947SOL     MW 3788   2.063   0.045   0.382  0.0495  0.0745 -0.2934
  948SOL     OW 3789   1.847   3.089   2.647  0.1071  0.3938  0.2782
  948SOL    HW1 3790   1.907   3.013   2.661  0.7463 -0.8892 -0.2037
  948SOL    HW2 3791   1.849   3.113   2.557 -2.4937  0.5332  1.6138
  948SOL     MW 3792   1.855   3.082   2.637 -0.1517  0.2429  0.3909
  949SOL     OW 3793   2.534   2.053   2.294  0.2492 -0.4423  0.5383
  949SOL    HW1 3794   2.514   1.957   2.313  0.7755 -1.1376 -1.1708
  949SOL    HW2 3795   2.486   2.107   2.356 -1.0053 -1.0651 -0.2188
  949SOL     MW 3796   2.525   2.048   2.305  0.1531 -0.6162  0.2129
  950SOL     OW 3797   2.238   2.629   3.054 -0.5803 -0.0307 -0.2558
  950SOL    HW1 3798   2.292   2.551   3.046  0.7966  1.5759 -1.4157
  950SOL    HW2 3799   2.181   2.640   2.975 -1.4377 -0.1060  0.0662
  950SOL     MW 3800   2.238   2.620   3.042 -0.5118  0.1713 -0.3664
  951SOL     OW 3801   2.887   2.054   2.863  0.0736 -0.0144  0.2251
  951SOL    HW1 3802   2.932   2.110   2.922 -1.1125  0.1675 -3.3182
  951SOL    HW2 3803   2.949   2.023   2.788  1.8168 -0.5474  0.6001
  951SOL     MW 3804   2.901   2.057   2.861  0.1471 -0.0607 -0.1929
  952SOL     OW 3805   3.087   1.637   2.084  0.3549 -0.1553  0.4428
  952SOL    HW1 3806   3.005   1.681   2.056  2.1928 -0.2240  0.2295
  952SOL    HW2 3807   3.148   1.713   2.097 -1.2132  0.4148  1.9596
  952SOL     MW 3808   3.084   1.653   2.082  0.3905 -0.0891  0.6148
  953SOL     OW 3809   1.926   1.836   2.810 -0.2339 -0.5473  0.1664
  953SOL    HW1 3810   1.844   1.805   2.858  0.8340  0.8110  2.1153
  953SOL    HW2 3811   1.961   1.768   2.747 -1.3793 -2.3580 -0.7471
  953SOL     MW 3812   1.920   1.823   2.808 -0.2441 -0.6070  0.3030
  954SOL     OW 3813   2.425   2.031   2.910 -0.6367  0.6818 -0.2317
  954SOL    HW1 3814   2.351   2.070   2.861 -0.9971 -0.1659  0.1114
  954SOL    HW2 3815   2.486   1.990   2.835  2.0008 -0.2778 -0.1856
  954SOL     MW 3816   2.423   2.031   2.894 -0.3363  0.4433 -0.1803
  955SOL     OW 3817   1.578   1.626   2.596  0.0305 -0.1134  0.2329
  955SOL    HW1 3818   1.526   1.624   2.514  0.0320 -1.3076  1.2226
  955SOL    HW2 3819   1.663   1.643   2.567 -1.4782  3.4694 -0.6349
  955SOL     MW 3820   1.582   1.628   2.581 -0.1683  0.2018  0.2490
  956SOL     OW 3821   2.621   2.428   2.863  0.0308 -0.1565  0.0094
  956SOL    HW1 3822   2.644   2.401   2.955  0.3673  3.3495 -2.5101
  956SOL    HW2 3823   2.661   2.365   2.804  1.5245  0.4344  1.3353
  956SOL     MW 3824   2.629   2.416   2.868  0.2723  0.3840 -0.1481
  957SOL     OW 3825   2.289   2.824   0.397  0.5108 -0.5376  0.1330
  957SOL    HW1 3826   2.228   2.836   0.328 -1.6413 -0.5952  2.6112
  957SOL    HW2 3827   2.236   2.783   0.472  2.7078  3.7040  1.7921
  957SOL     MW 3828   2.274   2.820   0.398  0.5168  0.0145  0.6789
  958SOL     OW 3829   2.030   2.708   2.856 -0.3794  0.1799 -0.3168
  958SOL    HW1 3830   1.996   2.623   2.824  0.1422 -1.5050 -1.3899
  958SOL    HW2 3831   1.965   2.748   2.907 -0.5162 -0.6835 -1.6778
  958SOL     MW 3832   2.017   2.702   2.858 -0.3287 -0.1563 -0.6380
  959SOL     OW 3833   2.411   2.583   0.357 -0.2192 -0.5417 -0.2124
  959SOL    HW1 3834   2.481   2.608   0.294 -2.0610  0.8602 -0.5556
  959SOL    HW2 3835   2.366   2.663   0.377  1.1336 -1.1794 -0.7532
  959SOL     MW 3836   2.415   2.597   0.352 -0.2837 -0.4409 -0.3290
  960SOL     OW 3837   1.960   2.452   2.297 -0.1039 -0.4560  0.3372
  960SOL    HW1 3838   1.973   2.361   2.310 -0.0922  2.1783  1.5927
  960SOL    HW2 3839   1.894   2.469   2.359 -1.8177 -4.1811 -2.7906
  960SOL     MW 3840   1.953   2.442   2.307 -0.3285 -0.5999  0.0901
  961SOL     OW 3841   2.239   2.432   2.316 -0.0461 -1.0829 -0.0741
  961SOL    HW1 3842   2.146   2.460   2.322  1.3652  0.0794  0.4829
  961SOL    HW2 3843   2.267   2.474   2.397  0.9637 -1.2490 -3.2389
  961SOL     MW 3844   2.230   2.441   2.327  0.2733 -0.9514 -0.4182
  962SOL     OW 3845   2.181   2.050   2.784 -0.0554  0.5028  0.1836
  962SOL    HW1 3846   2.174   1.995   2.867  0.2184  0.0761  1.8413
  962SOL    HW2 3847   2.203   1.981   2.713 -0.0417 -1.7366 -1.2639
  962SOL     MW 3848   2.183   2.034   2.786 -0.0175  0.1511  0.2113
  963SOL     OW 3849   1.739   2.529   2.163 -0.1966 -0.1803  0.2523
  963SOL    HW1 3850   1.825   2.516   2.194 -2.3134  0.4085 -0.3933
  963SOL    HW2 3851   1.754   2.477   2.086  0.7352  1.2505  0.6842
  963SOL     MW 3852   1.752   2.521   2.157 -0.3529  0.0862  0.2241
  964SOL     OW 3853   1.807   1.993   2.634  0.0132 -0.3788  0.2177
  964SOL    HW1 3854   1.873   2.065   2.636  0.2321 -0.1295  3.5104
  964SOL    HW2 3855   1.833   1.944   2.713 -1.1834  1.0263 -0.7690
  964SOL     MW 3856   1.819   1.996   2.645 -0.1158 -0.1605  0.5220
  965SOL     OW 3857   2.180   2.691   0.630 -0.3073  0.6656  0.0040
  965SOL    HW1 3858   2.181   2.594   0.621 -0.4956 -1.1087 -0.3236
  965SOL    HW2 3859   2.252   2.703   0.693 -1.1218 -2.2452  3.8073
  965SOL     MW 3860   2.189   2.680   0.637 -0.4396  0.0474  0.4626
  966SOL     OW 3861   2.730   2.608   2.521 -0.4158  0.2857 -0.4380
  966SOL    HW1 3862   2.689   2.659   2.452 -1.0095  1.9239 -0.3209
  966SOL    HW2 3863   2.734   2.517   2.490  0.3080  1.3683 -0.0167
  966SOL     MW 3864   2.725   2.602   2.508 -0.3986  0.6447 -0.3670
  967SOL     OW 3865   2.872   3.028   2.914  0.0242 -0.0654 -0.5226
  967SOL    HW1 3866   2.852   2.954   2.975  1.9427 -0.3085 -0.3111
  967SOL    HW2 3867   2.796   3.055   2.860  0.2960 -0.0222 -0.3153
  967SOL     MW 3868   2.859   3.022   2.915  0.3132 -0.0918 -0.4674
  968SOL     OW 3869   3.004   2.540   3.000  0.1260 -0.0198 -0.1372
  968SOL    HW1 3870   2.902   2.539   2.987 -0.1774 -0.6314  0.1944
  968SOL    HW2 3871   3.044   2.490   2.930 -0.3442  1.5078  2.8926
  968SOL     MW 3872   2.996   2.533   2.989  0.0239  0.1010  0.3063
  969SOL     OW 3873   1.557   2.125   1.719 -0.3304 -0.7021 -0.3203
  969SOL    HW1 3874   1.639   2.064   1.719 -2.5556 -1.2907 -1.0094
  969SOL    HW2 3875   1.532   2.150   1.809 -2.6415 -0.2905  1.0029
  969SOL     MW 3876   1.565   2.120   1.731 -0.9289 -0.7255 -0.2367
  970SOL     OW 3877   1.686   1.703   1.848 -0.5101  0.1777  0.3694
  970SOL    HW1 3878   1.723   1.656   1.922  0.3437  0.0154  0.3337
  970SOL    HW2 3879   1.591   1.708   1.853 -1.2282 -0.9721 -0.5209
  970SOL     MW 3880   1.678   1.698   1.858 -0.4922  0.0046  0.2472
  971SOL     OW 3881   1.856   0.106   2.383 -0.0514  0.0069 -0.2780
  971SOL    HW1 3882   1.887   0.060   2.301  0.4462  3.3121 -0.3997
  971SOL    HW2 3883   1.888   0.203   2.388 -0.8845  2.8406  0.0003
  971SOL     MW 3884   1.864   0.113   2.373 -0.0957  0.8169 -0.2573
  972SOL     OW 3885   0.245   2.810   2.524  0.4782  0.1755  0.6738
  972SOL    HW1 3886   0.285   2.728   2.530 -0.5094  0.3137  0.8042
  972SOL    HW2 3887   0.315   2.874   2.546  0.2276  0.3801  0.9628
  972SOL     MW 3888   0.260   2.807   2.527  0.3148  0.2207  0.7291
  973SOL     OW 3889   2.610   3.092   2.060  0.0550 -0.0410 -0.2207
  973SOL    HW1 3890   2.587   3.004   2.035  1.0012  1.8068  1.7424
  973SOL    HW2 3891   2.625   3.135   1.978  1.5443 -3.0443 -0.1753
  973SOL     MW 3892   2.609   3.086   2.046  0.3764 -0.1934  0.0443
  974SOL     OW 3893   2.067   0.332   2.721  0.2312  0.5944  0.1116
  974SOL    HW1 3894   2.138   0.270   2.729 -0.1930  1.6926  0.3934
  974SOL    HW2 3895   1.994   0.282   2.766  0.8542 -0.9000 -0.2272
  974SOL     MW 3896   2.067   0.317   2.728  0.2574  0.5421  0.1041
  975SOL     OW 3897   2.298   2.592   2.551 -0.2044  0.6324  0.1381
  975SOL    HW1 3898   2.373   2.624   2.601 -2.5311 -1.1857  0.7362
  975SOL    HW2 3899   2.245   2.671   2.543 -1.5880  0.0058 -0.8732
  975SOL     MW 3900   2.301   2.607   2.556 -0.6940  0.3098  0.0836
  976SOL     OW 3901   0.257   0.245   1.715  0.0242 -0.0771  0.9353
  976SOL    HW1 3902   0.303   0.187   1.773 -1.2518 -0.3151 -2.3524
  976SOL    HW2 3903   0.163   0.220   1.717 -2.5133  1.2321 -0.1481
  976SOL     MW 3904   0.250   0.234   1.723 -0.4790  0.0643  0.3586
  977SOL     OW 3905   1.677   2.768   2.472 -0.1711 -0.1066 -0.1186
  977SOL    HW1 3906   1.689   2.668   2.488  1.3796 -0.5261 -0.4016
  977SOL    HW2 3907   1.746   2.800   2.413  0.4489 -0.0206 -0.8799
  977SOL     MW 3908   1.688   2.759   2.466  0.1153 -0.1506 -0.2564
   3.10000   3.10000   3.10000
