977 TIP4P/2005f water molecules t=   1.21000 step= 1210
 3908
    1SOL     OW    1   0.423   0.791   3.099  0.0005  0.1515  0.6106
    1SOL    HW1    2   0.381   0.849   3.037  0.0897  0.8787  2.7058
    1SOL    HW2    3   0.359   0.735   3.130  0.9337  1.8694 -0.6619
    1SOL     MW    4   0.409   0.791   3.095  0.1354  0.4741  0.7191
    2SOL     OW    5   0.349   3.050   1.173  0.3360 -0.1843  0.6139
    2SOL    HW1    6   0.391   3.122   1.131  1.5354 -0.7847  0.6361
    2SOL    HW2    7   0.259   3.081   1.192  0.5766  0.7313 -0.6784
    2SOL     MW    8   0.342   3.064   1.170  0.5260 -0.1427  0.4463
    3SOL     OW    9   2.575   0.355   0.991  0.0660 -0.4420  0.0659
    3SOL    HW1   10   2.631   0.393   0.925  2.1757 -0.5644 -3.2426
    3SOL    HW2   11   2.581   0.422   1.071  0.6954 -1.7846 -2.5579
    3SOL     MW   12   2.583   0.369   0.993  0.4274 -0.6353 -0.7168
    4SOL     OW   13   3.028   1.735   0.549  1.2754  0.4165  0.1746
    4SOL    HW1   14   2.942   1.770   0.516 -1.3309 -1.2477  0.8487
    4SOL    HW2   15   3.084   1.701   0.477  0.2279 -1.7714 -1.9338
    4SOL     MW   16   3.024   1.735   0.535  0.7933 -0.0918 -0.0146
    5SOL     OW   17   1.680   1.515   0.520 -0.4428  0.0455  0.4274
    5SOL    HW1   18   1.690   1.466   0.604 -3.1388  1.6600  0.6686
    5SOL    HW2   19   1.589   1.527   0.528  0.6971  0.4130  2.0397
    5SOL     MW   20   1.669   1.510   0.532 -0.6481  0.3070  0.6719
    6SOL     OW   21   0.826   1.384   0.579  0.1732  0.2557 -0.1717
    6SOL    HW1   22   0.730   1.387   0.590 -0.7281  1.3673  1.0424
    6SOL    HW2   23   0.835   1.293   0.613 -0.0127 -1.1846  0.0981
    6SOL     MW   24   0.815   1.372   0.585  0.0297  0.2124  0.0241
    7SOL     OW   25   2.068   1.038  -0.003 -0.3518  0.1085  0.0181
    7SOL    HW1   26   2.154   1.081  -0.012  1.0121  0.1821 -2.1053
    7SOL    HW2   27   2.050   1.035   0.089  3.1598  0.7169 -1.2806
    7SOL     MW   28   2.077   1.043   0.008  0.2915  0.1985 -0.4334
    8SOL     OW   29   0.899   1.469   1.200 -0.5896  0.6881  0.1755
    8SOL    HW1   30   0.991   1.470   1.226 -0.8254 -0.0876 -2.4312
    8SOL    HW2   31   0.868   1.382   1.200  0.3038  1.5872  0.8875
    8SOL     MW   32   0.907   1.458   1.203 -0.5029  0.7044 -0.0745
    9SOL     OW   33   0.994   0.510   1.400  0.0447 -0.5364 -0.1116
    9SOL    HW1   34   0.952   0.437   1.353 -0.7712  2.2261  1.2176
    9SOL    HW2   35   1.063   0.463   1.441  1.7611  0.8113 -0.5143
    9SOL     MW   36   0.998   0.494   1.399  0.1635  0.0059  0.0106
   10SOL     OW   37   0.238   0.805   0.503  0.1431  0.5379  0.7243
   10SOL    HW1   38   0.326   0.839   0.476  0.1357 -0.6601  0.0381
   10SOL    HW2   39   0.219   0.854   0.581  1.3759 -0.7694 -0.4640
   10SOL     MW   40   0.247   0.816   0.510  0.3048  0.2073  0.4770
   11SOL     OW   41   0.783   1.117   1.617 -0.0383 -0.2484  0.2285
   11SOL    HW1   42   0.840   1.127   1.695  0.9691 -1.3752  3.2907
   11SOL    HW2   43   0.785   1.026   1.605  2.0947 -0.3698 -1.1302
   11SOL     MW   44   0.791   1.106   1.626  0.3760 -0.4131  0.4532
   12SOL     OW   45   3.084   1.076   0.879 -0.3464  0.4634 -0.4319
   12SOL    HW1   46   3.132   1.150   0.916  0.6925 -0.3446 -0.4211
   12SOL    HW2   47   3.062   1.106   0.787 -0.2309 -1.9373  0.0308
   12SOL     MW   48   3.087   1.090   0.872 -0.1941  0.0401 -0.3695
   13SOL     OW   49   1.855   1.393   1.348 -0.1080  0.2408 -0.8543
   13SOL    HW1   50   1.864   1.316   1.284 -5.4005 -3.2899 -1.1791
   13SOL    HW2   51   1.875   1.473   1.300 -2.1154  0.5197 -0.8732
   13SOL     MW   52   1.859   1.394   1.333 -1.0712 -0.1882 -0.8996
   14SOL     OW   53   0.561   0.327   1.854  0.1095 -0.6004 -0.1582
   14SOL    HW1   54   0.510   0.244   1.842 -1.3401 -1.7552 -0.2563
   14SOL    HW2   55   0.598   0.337   1.767 -0.1830  0.5573  1.7107
   14SOL     MW   56   0.559   0.318   1.841 -0.1203 -0.6000  0.0754
   15SOL     OW   57   1.965   0.330   1.057  0.0319 -0.1203 -0.3246
   15SOL    HW1   58   1.940   0.412   1.105  1.4859  0.2677 -0.8882
   15SOL    HW2   59   2.014   0.362   0.983  0.0749 -1.1999  0.3730
   15SOL     MW   60   1.968   0.345   1.053  0.2295 -0.2115 -0.3069
   16SOL     OW   61   0.203   1.818   0.294  0.6404 -0.0164  0.6313
   16SOL    HW1   62   0.297   1.798   0.301 -0.3257 -0.4742 -1.9917
   16SOL    HW2   63   0.209   1.914   0.317 -0.5517  1.2742 -0.1752
   16SOL     MW   64   0.217   1.828   0.298  0.3557  0.0935  0.1788
   17SOL     OW   65   1.025   0.937   1.456 -0.3629 -0.0587 -0.1739
   17SOL    HW1   66   1.060   0.902   1.539  0.6643 -1.5837  0.6928
   17SOL    HW2   67   0.940   0.894   1.445  0.2292 -0.0707 -1.5662
   17SOL     MW   68   1.019   0.927   1.466 -0.1493 -0.2615 -0.2432
   18SOL     OW   69   0.085   1.592   0.358  0.1997  0.3180 -0.1720
   18SOL    HW1   70   0.142   1.667   0.333  1.6895  0.0298  4.4194
   18SOL    HW2   71   0.043   1.554   0.277 -1.5525  1.6391  2.6056
   18SOL     MW   72   0.087   1.597   0.344  0.1651  0.4543  0.8003
   19SOL     OW   73   0.093   1.291   1.011  0.2586  0.5001 -0.6795
   19SOL    HW1   74   0.128   1.365   0.957 -0.3869  0.3141 -0.8062
   19SOL    HW2   75   0.009   1.326   1.047  0.1930  1.7887  2.5525
   19SOL     MW   76   0.086   1.305   1.008  0.1648  0.6456 -0.2698
   20SOL     OW   77   0.431   2.175   1.166  0.5090 -0.1441  0.3829
   20SOL    HW1   78   0.396   2.099   1.124 -0.8679  0.6100 -1.7322
   20SOL    HW2   79   0.379   2.193   1.249 -0.7736  0.7866 -1.5025
   20SOL     MW   80   0.420   2.168   1.171  0.1581  0.0782 -0.1449
   21SOL     OW   81   0.482   0.883   0.420 -0.2255 -0.1902  0.0381
   21SOL    HW1   82   0.531   0.843   0.491  0.8687 -1.9741 -2.0350
   21SOL    HW2   83   0.530   0.846   0.345  0.9755 -0.9511 -0.1587
   21SOL     MW   84   0.495   0.873   0.419  0.0773 -0.5260 -0.2614
   22SOL     OW   85   1.535   0.692   1.018 -0.4347  0.5080 -0.3988
   22SOL    HW1   86   1.490   0.677   0.935 -0.5247 -2.0938  2.3535
   22SOL    HW2   87   1.514   0.781   1.047  1.7112 -1.1230 -1.3055
   22SOL     MW   88   1.526   0.702   1.011 -0.1634 -0.0505 -0.1553
   23SOL     OW   89   3.052   0.670   0.708  0.1868 -0.4250 -0.5683
   23SOL    HW1   90   3.101   0.602   0.747  2.4190  2.1330 -1.2456
   23SOL    HW2   91   3.116   0.741   0.710 -1.3394  1.1188  0.4646
   23SOL     MW   92   3.067   0.670   0.713  0.2799  0.1161 -0.5214
   24SOL     OW   93   2.025   2.222   0.030  0.0420 -0.2443 -0.2601
   24SOL    HW1   94   2.040   2.208   0.124  1.1507  0.9180  1.6521
   24SOL    HW2   95   2.040   2.135  -0.016 -1.1717 -0.6075  0.3543
   24SOL     MW   96   2.029   2.209   0.036  0.0281 -0.1388  0.0733
   25SOL     OW   97   0.192   1.414   0.530  0.1088 -0.3275 -0.3064
   25SOL    HW1   98   0.169   1.488   0.474  0.5249  1.5924 -1.3718
   25SOL    HW2   99   0.283   1.404   0.525 -2.3382 -0.3552  1.0680
   25SOL     MW  100   0.201   1.422   0.522 -0.1592 -0.0778 -0.2656
   26SOL     OW  101   2.061   1.064   0.296  0.2088  0.7889 -0.4772
   26SOL    HW1  102   1.994   1.110   0.352 -1.1873 -2.0017 -1.0905
   26SOL    HW2  103   2.137   1.120   0.269 -1.3930 -1.6038  1.1272
   26SOL     MW  104   2.062   1.078   0.300 -0.1868  0.1050 -0.3464
   27SOL     OW  105   1.977   1.466   0.211 -0.1855  0.0176 -0.1274
   27SOL    HW1  106   1.888   1.494   0.228 -0.7022  0.0710  1.0147
   27SOL    HW2  107   2.028   1.503   0.284  2.6768 -0.3197 -2.0883
   27SOL     MW  108   1.972   1.475   0.223  0.1240 -0.0199 -0.2354
   28SOL     OW  109   0.443   1.014   1.963 -0.2177  0.4230  0.2625
   28SOL    HW1  110   0.507   1.017   2.040  0.5905 -0.1643 -0.6771
   28SOL    HW2  111   0.383   0.945   1.980 -0.4157 -1.2129 -0.5651
   28SOL     MW  112   0.444   1.005   1.976 -0.1372  0.1297  0.0294
   29SOL     OW  113   0.224   1.440   0.817  0.3247 -0.4540 -0.9771
   29SOL    HW1  114   0.235   1.534   0.832 -0.5858 -1.5288  0.7878
   29SOL    HW2  115   0.193   1.436   0.727  0.4712 -0.3081  1.4412
   29SOL     MW  116   0.221   1.452   0.807  0.2239 -0.5765 -0.4252
   30SOL     OW  117   0.793   1.234   1.221  0.2267  0.4709 -0.2741
   30SOL    HW1  118   0.701   1.222   1.260 -0.3435 -1.6102  1.1610
   30SOL    HW2  119   0.862   1.198   1.285  2.6884 -1.8771  0.1731
   30SOL     MW  120   0.790   1.228   1.235  0.4763 -0.1135 -0.0257
   31SOL     OW  121   0.398   0.249   0.164 -0.4576  0.2653  0.0508
   31SOL    HW1  122   0.434   0.170   0.211  0.5789 -0.3588  2.0528
   31SOL    HW2  123   0.426   0.231   0.072  3.0458  1.6858  1.1475
   31SOL     MW  124   0.406   0.236   0.158  0.1414  0.3704  0.4597
   32SOL     OW  125   2.764   0.988   1.174 -0.4018 -0.1961  0.3596
   32SOL    HW1  126   2.683   0.924   1.163 -1.2980  0.0146 -2.7189
   32SOL    HW2  127   2.840   0.933   1.144  1.1890  2.1811 -1.9148
   32SOL     MW  128   2.763   0.972   1.169 -0.3101  0.1453 -0.3467
   33SOL     OW  129   1.662   1.297   0.347 -0.2300 -0.2423  0.2204
   33SOL    HW1  130   1.729   1.237   0.373 -0.3795  1.6294  0.2185
   33SOL    HW2  131   1.669   1.375   0.406 -0.7167 -0.1313  0.9416
   33SOL     MW  132   1.671   1.299   0.358 -0.3139  0.0193  0.3153
   34SOL     OW  133   1.229   1.925   1.118  0.3464 -0.3573  0.3278
   34SOL    HW1  134   1.147   1.963   1.149  0.7659 -0.3939  0.4608
   34SOL    HW2  135   1.306   1.957   1.167 -1.0077  1.8419  0.3330
   34SOL     MW  136   1.229   1.934   1.129  0.2231 -0.0720  0.3460
   35SOL     OW  137   0.360   0.127   1.852 -0.2813 -0.6329  0.2778
   35SOL    HW1  138   0.388   0.075   1.927  0.1169 -0.0945 -0.5871
   35SOL    HW2  139   0.380   0.072   1.777 -0.5678  1.9638  0.6971
   35SOL     MW  140   0.366   0.113   1.852 -0.2665 -0.2192  0.2190
   36SOL     OW  141   1.976   1.927   0.556  0.3322 -0.2509 -0.0979
   36SOL    HW1  142   1.951   1.929   0.465 -0.3648 -2.2270  0.5358
   36SOL    HW2  143   1.945   1.842   0.593 -1.2367 -0.1810 -0.5376
   36SOL     MW  144   1.968   1.916   0.549  0.0332 -0.5024 -0.0723
   37SOL     OW  145   1.789   2.029   0.964  0.1685  0.3006 -0.4352
   37SOL    HW1  146   1.728   1.986   0.912  1.2199 -0.2892 -0.6358
   37SOL    HW2  147   1.728   2.069   1.028  1.6101 -2.0058  0.7354
   37SOL     MW  148   1.773   2.028   0.966  0.4974 -0.0815 -0.3073
   38SOL     OW  149   2.822   0.959   0.124  0.0234 -0.1558 -0.1085
   38SOL    HW1  150   2.822   0.917   0.211  0.5235  2.8967  1.3007
   38SOL    HW2  151   2.902   0.924   0.084  0.7561  2.5432 -0.6593
   38SOL     MW  152   2.833   0.949   0.130  0.1861  0.6030  0.0048
   39SOL     OW  153   1.422   0.605   0.783  0.6987 -0.5195 -0.3887
   39SOL    HW1  154   1.382   0.523   0.811  2.3506 -0.3571 -2.1773
   39SOL    HW2  155   1.349   0.663   0.760 -2.2113 -0.5097  1.1264
   39SOL     MW  156   1.407   0.602   0.784  0.5327 -0.4968 -0.4248
   40SOL     OW  157   1.159   1.900   0.283  0.1034  0.2101 -0.7928
   40SOL    HW1  158   1.215   1.853   0.346  0.8752  0.0462  0.2584
   40SOL    HW2  159   1.166   1.990   0.319  1.3299  0.8150 -0.7035
   40SOL     MW  160   1.168   1.905   0.296  0.3671  0.2683 -0.6424
   41SOL     OW  161   0.542   0.494   1.579  0.2785 -0.4166 -0.0410
   41SOL    HW1  162   0.627   0.534   1.569 -0.0423 -1.8759  1.7846
   41SOL    HW2  163   0.489   0.560   1.635 -1.7943  3.1485  2.8435
   41SOL     MW  164   0.546   0.508   1.585 -0.0373 -0.1387  0.5804
   42SOL     OW  165   1.266   3.008   2.005  0.8499  0.1850 -0.3029
   42SOL    HW1  166   1.178   2.999   2.046 -0.7360 -2.0648  0.3524
   42SOL    HW2  167   1.321   2.931   2.031  1.4488 -2.0225 -1.8102
   42SOL     MW  168   1.262   2.997   2.014  0.7197 -0.4031 -0.4153
   43SOL     OW  169   1.481   0.129   1.675  0.2455  0.4055 -0.8833
   43SOL    HW1  170   1.537   0.097   1.605  0.0103  0.1832  1.0242
   43SOL    HW2  171   1.405   0.077   1.669 -2.2162  2.7872 -1.5152
   43SOL     MW  172   1.479   0.118   1.665 -0.1103  0.6904 -0.7150
   44SOL     OW  173   1.171   0.769   1.000  0.6665  0.1620  0.4873
   44SOL    HW1  174   1.157   0.863   0.979  0.3570  0.9968  0.3477
   44SOL    HW2  175   1.199   0.779   1.097  3.9390  1.5141 -0.1122
   44SOL     MW  176   1.173   0.782   1.010  1.0574  0.4506  0.3898
   45SOL     OW  177   1.226   0.746   0.678 -0.2500  0.4047  0.3539
   45SOL    HW1  178   1.174   0.774   0.753  0.1921 -1.4819  1.1256
   45SOL    HW2  179   1.178   0.695   0.611 -0.8928 -1.3851  2.0028
   45SOL     MW  180   1.213   0.743   0.679 -0.2764 -0.0804  0.6733
   46SOL     OW  181   0.553   1.113   0.575 -0.3595 -0.2538  0.0095
   46SOL    HW1  182   0.530   1.142   0.490  0.1901  0.0661 -0.2924
   46SOL    HW2  183   0.622   1.049   0.568  0.7196  1.2009 -0.9355
   46SOL     MW  184   0.559   1.108   0.563 -0.1446 -0.0197 -0.1550
   47SOL     OW  185   0.217   1.975   1.968 -0.0112 -0.5313 -0.1499
   47SOL    HW1  186   0.288   1.917   2.001 -1.1417 -1.6638  1.5480
   47SOL    HW2  187   0.145   1.978   2.031 -1.9826 -1.0105  2.0865
   47SOL     MW  188   0.217   1.968   1.981 -0.4205 -0.7440  0.3692
   48SOL     OW  189   1.094   0.518   1.068 -0.5002 -0.0717 -0.6374
   48SOL    HW1  190   0.997   0.525   1.055  1.8952 -1.7894 -1.4834
   48SOL    HW2  191   1.127   0.604   1.041  1.6802  1.0792  1.7389
   48SOL     MW  192   1.085   0.530   1.063  0.1035 -0.1465 -0.4355
   49SOL     OW  193   1.727   0.658   1.537  0.6720 -1.0157 -0.4024
   49SOL    HW1  194   1.702   0.611   1.621  0.4445 -1.0873  1.7125
   49SOL    HW2  195   1.804   0.615   1.505  0.1940  0.2741 -0.0270
   49SOL     MW  196   1.734   0.646   1.544  0.5789 -0.8550 -0.0738
   50SOL     OW  197   1.288   1.117   0.535 -0.6341  0.3043  0.2566
   50SOL    HW1  198   1.243   1.152   0.612  1.3542  1.3436 -0.5331
   50SOL    HW2  199   1.363   1.061   0.561  0.3096 -0.3001  1.5833
   50SOL     MW  200   1.292   1.114   0.548 -0.2472  0.3617  0.3274
   51SOL     OW  201   0.329   2.926   0.911  0.0117  0.0786  0.0127
   51SOL    HW1  202   0.419   2.890   0.927  1.0388 -1.1304  0.5449
   51SOL    HW2  203   0.317   2.950   1.003 -1.3492 -0.7931  0.9368
   51SOL     MW  204   0.339   2.924   0.925 -0.0323 -0.1959  0.2049
   52SOL     OW  205   0.820   1.770   0.427 -0.0694  0.5722  0.6178
   52SOL    HW1  206   0.781   1.856   0.398 -0.5258  0.4119  0.5807
   52SOL    HW2  207   0.842   1.716   0.346 -1.6834  0.8200 -0.9357
   52SOL     MW  208   0.818   1.774   0.413 -0.3426  0.5837  0.4079
   53SOL     OW  209   0.421   2.134   0.463  0.3961 -0.0628  0.2228
   53SOL    HW1  210   0.350   2.128   0.395 -0.7987  2.7134 -2.3055
   53SOL    HW2  211   0.409   2.220   0.512  0.2136  0.0759 -2.1835
   53SOL     MW  212   0.410   2.144   0.461  0.2144  0.3218 -0.4283
   54SOL     OW  213   2.017   0.917   0.784  0.5371  0.2619 -0.1396
   54SOL    HW1  214   2.047   0.915   0.693  3.0651 -0.8273 -0.1472
   54SOL    HW2  215   2.005   0.822   0.809 -0.0938 -0.5269  0.0449
   54SOL     MW  216   2.020   0.904   0.775  0.7874  0.0141 -0.1163
   55SOL     OW  217   0.547   1.565   1.640 -0.1603  0.0028  1.1939
   55SOL    HW1  218   0.506   1.600   1.559  1.8055  3.0517  0.9474
   55SOL    HW2  219   0.638   1.532   1.623 -0.0214  2.1957 -1.3990
   55SOL     MW  220   0.553   1.565   1.627  0.1174  0.6944  0.8193
   56SOL     OW  221   0.626   0.836   0.175 -0.2074  0.3017 -0.4682
   56SOL    HW1  222   0.672   0.921   0.189  0.5909  1.0426  0.9721
   56SOL    HW2  223   0.567   0.851   0.104  0.3122 -1.1931  0.2725
   56SOL     MW  224   0.624   0.849   0.168 -0.0335  0.2022 -0.1804
   57SOL     OW  225   1.178   1.261   1.134  0.2202 -0.5512 -0.1967
   57SOL    HW1  226   1.271   1.248   1.137 -3.3431 -2.1074  0.0426
   57SOL    HW2  227   1.145   1.235   1.227  1.3367  0.2758  2.4553
   57SOL     MW  228   1.186   1.256   1.147 -0.1027 -0.6474  0.1848
   58SOL     OW  229   0.545   1.226   1.317 -0.2406  0.2210 -0.5201
   58SOL    HW1  230   0.512   1.316   1.297 -0.5578 -0.3956 -3.8938
   58SOL    HW2  231   0.544   1.223   1.418 -1.0538 -1.6293 -0.0236
   58SOL     MW  232   0.540   1.238   1.328 -0.3897 -0.1045 -0.8998
   59SOL     OW  233   1.509   1.702   0.347 -0.3189  0.3938  0.1376
   59SOL    HW1  234   1.562   1.768   0.393 -1.7634 -0.3194 -1.1204
   59SOL    HW2  235   1.422   1.732   0.381 -2.0645  1.1489  2.0891
   59SOL     MW  236   1.505   1.715   0.358 -0.7398  0.3993  0.2291
   60SOL     OW  237   0.045   0.241   1.679 -0.5892 -0.2667  0.0405
   60SOL    HW1  238  -0.052   0.272   1.692  2.0632 -1.3049 -0.7010
   60SOL    HW2  239   0.052   0.159   1.728  0.9707 -0.1812 -1.8066
   60SOL     MW  240   0.033   0.234   1.687 -0.0334 -0.3924 -0.3011
   61SOL     OW  241   2.000   1.384   3.049  0.2315 -0.7001  0.3054
   61SOL    HW1  242   2.014   1.387   3.143 -1.1716  1.2197  0.3747
   61SOL    HW2  243   2.082   1.363   3.012  1.1837  0.4958  0.3127
   61SOL     MW  244   2.013   1.381   3.057  0.1720 -0.2890  0.3155
   62SOL     OW  245   0.567   1.678   0.517 -0.0459  0.3052 -0.8624
   62SOL    HW1  246   0.663   1.697   0.509  0.0363  3.0314 -1.7547
   62SOL    HW2  247   0.547   1.586   0.562 -4.3552 -0.7008  1.3679
   62SOL     MW  248   0.577   1.668   0.522 -0.6036  0.5322 -0.6859
   63SOL     OW  249   1.722   0.650   0.714  0.0984 -0.4122  0.1027
   63SOL    HW1  250   1.737   0.742   0.689  1.1097 -1.7631 -2.6546
   63SOL    HW2  251   1.626   0.639   0.715 -0.6905 -0.9443  1.1692
   63SOL     MW  252   1.712   0.661   0.711  0.1278 -0.6607 -0.1204
   64SOL     OW  253   0.241   1.713   0.851  0.9266 -0.0389 -0.3397
   64SOL    HW1  254   0.302   1.753   0.787 -1.0993 -0.4461 -0.7467
   64SOL    HW2  255   0.157   1.734   0.805 -0.5744 -2.4933 -1.3677
   64SOL     MW  256   0.238   1.721   0.836  0.4613 -0.4165 -0.5290
   65SOL     OW  257   1.584   2.309   0.445 -0.1372  0.4924  0.6291
   65SOL    HW1  258   1.663   2.297   0.496  1.9024  0.2931 -1.3211
   65SOL    HW2  259   1.521   2.355   0.497 -0.7604 -0.8491 -2.6421
   65SOL     MW  260   1.586   2.313   0.458  0.0497  0.2891 -0.0598
   66SOL     OW  261   0.315   0.540   0.504  0.1039  0.5093 -0.9278
   66SOL    HW1  262   0.367   0.530   0.429 -0.5350 -3.4933  1.0139
   66SOL    HW2  263   0.295   0.633   0.518  2.4902  0.8320  0.7243
   66SOL     MW  264   0.319   0.551   0.496  0.3345  0.0238 -0.4536
   67SOL     OW  265   1.471   0.134   1.987 -0.2391 -0.1344  0.3317
   67SOL    HW1  266   1.500   0.134   1.897  0.3004  0.3721 -0.4151
   67SOL    HW2  267   1.420   0.051   1.985 -1.9449  1.9629  1.3761
   67SOL     MW  268   1.468   0.123   1.975 -0.3930  0.2092  0.3710
   68SOL     OW  269   0.697   0.083   2.988 -0.2137  0.3782 -0.3967
   68SOL    HW1  270   0.719   0.133   2.910  0.8283 -0.4760 -1.3610
   68SOL    HW2  271   0.780   0.099   3.036 -4.0004 -1.0176  0.6585
   68SOL     MW  272   0.711   0.092   2.984 -0.5758  0.0813 -0.3847
   69SOL     OW  273   0.991   0.192   1.996 -0.9271 -0.0312  0.1770
   69SOL    HW1  274   1.086   0.201   2.011 -0.9626  1.7039 -0.7024
   69SOL    HW2  275   0.963   0.107   2.037  1.5994 -0.4825  1.9439
   69SOL     MW  276   1.000   0.182   2.003 -0.5985  0.1382  0.2941
   70SOL     OW  277   0.560   1.772   1.148 -0.1232 -0.9603 -0.4787
   70SOL    HW1  278   0.609   1.715   1.212 -2.7095 -0.1356 -0.7476
   70SOL    HW2  279   0.640   1.796   1.098  0.0408 -0.3830 -1.0023
   70SOL     MW  280   0.577   1.768   1.150 -0.4428 -0.7753 -0.5833
   71SOL     OW  281   1.600   0.490   1.210 -0.0908  0.4017 -0.6600
   71SOL    HW1  282   1.582   0.565   1.268  1.9684 -0.5494 -1.7733
   71SOL    HW2  283   1.561   0.518   1.127  1.3588  0.9079 -0.1417
   71SOL     MW  284   1.593   0.504   1.207  0.3722  0.3430 -0.7385
   72SOL     OW  285   0.802   1.838   1.036  0.3798 -0.2369 -0.2716
   72SOL    HW1  286   0.760   1.896   0.973 -2.1294 -2.9312  0.2056
   72SOL    HW2  287   0.802   1.746   1.000  0.0587  0.7426 -0.8677
   72SOL     MW  288   0.796   1.834   1.023  0.0063 -0.4631 -0.2873
   73SOL     OW  289   1.184   0.726   1.284  0.1629 -0.0273  0.0212
   73SOL    HW1  290   1.146   0.644   1.325  1.0860 -1.3136 -1.1154
   73SOL    HW2  291   1.148   0.787   1.347 -0.1446  0.3102 -1.1746
   73SOL     MW  292   1.174   0.724   1.298  0.2441 -0.1525 -0.2865
   74SOL     OW  293   2.783   0.237   1.128 -0.0535  0.5629  0.3584
   74SOL    HW1  294   2.841   0.204   1.063  0.9801  2.6333 -1.7698
   74SOL    HW2  295   2.702   0.254   1.077  1.9659 -2.0492  0.4246
   74SOL     MW  296   2.780   0.235   1.113  0.3493  0.4914  0.0863
   75SOL     OW  297   1.563   1.415   0.115 -0.2791 -0.9964 -0.1257
   75SOL    HW1  298   1.626   1.477   0.083  1.3656 -1.6632 -0.6016
   75SOL    HW2  299   1.604   1.381   0.193 -1.6829 -0.1099 -1.8994
   75SOL     MW  300   1.577   1.419   0.121 -0.2473 -0.9674 -0.4225
   76SOL     OW  301   2.963   0.593   0.474  0.5299 -0.0199 -0.1053
   76SOL    HW1  302   3.003   0.616   0.561  0.2226  2.2649 -0.3095
   76SOL    HW2  303   3.032   0.537   0.435  0.9478  1.1575 -0.6424
   76SOL     MW  304   2.977   0.589   0.480  0.5445  0.4369 -0.2031
   77SOL     OW  305   0.807   0.557   0.478 -0.6211  0.0202  0.0032
   77SOL    HW1  306   0.771   0.564   0.389 -0.0399 -0.7233 -0.8241
   77SOL    HW2  307   0.792   0.463   0.503  2.0752  1.4201  1.3157
   77SOL     MW  308   0.800   0.545   0.470 -0.1887  0.1068  0.0672
   78SOL     OW  309   0.757   0.860   1.192 -0.1839 -0.7635 -0.0443
   78SOL    HW1  310   0.791   0.939   1.138 -0.5175  1.3021 -1.3634
   78SOL    HW2  311   0.669   0.859   1.156 -1.7124 -0.9503  0.2712
   78SOL     MW  312   0.750   0.870   1.180 -0.4296 -0.5156 -0.1767
   79SOL     OW  313   1.914   1.656   0.630  0.2227 -0.1501  0.5001
   79SOL    HW1  314   1.829   1.634   0.594  0.0063 -0.2629 -0.9632
   79SOL    HW2  315   1.909   1.654   0.726 -0.0805  0.8899  0.9307
   79SOL     MW  316   1.902   1.653   0.638  0.1541 -0.0278  0.3639
   80SOL     OW  317   0.067   0.933   0.341  0.2286  0.0991  0.5613
   80SOL    HW1  318  -0.016   0.882   0.341  0.5367  2.9079  1.9051
   80SOL    HW2  319   0.135   0.886   0.389 -0.0939  0.6374 -0.7546
   80SOL     MW  320   0.065   0.920   0.347  0.2267  0.5407  0.5650
   81SOL     OW  321   1.861   1.902   0.317 -0.7336  0.0941 -0.2185
   81SOL    HW1  322   1.856   1.808   0.292  0.4458  1.7809  1.4952
   81SOL    HW2  323   1.798   1.959   0.254 -4.3459  1.9787 -0.8837
   81SOL     MW  324   1.852   1.897   0.306 -1.0546  0.5654 -0.0801
   82SOL     OW  325   0.831   0.986   0.535  0.4228  0.3090 -0.2862
   82SOL    HW1  326   0.844   1.005   0.442 -1.0193  0.7903  1.1050
   82SOL    HW2  327   0.791   0.903   0.535  2.3687 -0.8241 -1.9458
   82SOL     MW  328   0.828   0.978   0.523  0.4893  0.2230 -0.3216
   83SOL     OW  329   0.067   0.722   1.463 -0.1361  0.6106  0.3149
   83SOL    HW1  330   0.071   0.808   1.418 -3.7853  0.3179  0.9922
   83SOL    HW2  331   0.155   0.699   1.485 -2.3423  2.2801  1.7233
   83SOL     MW  332   0.079   0.731   1.460 -0.9087  0.7923  0.5901
   84SOL     OW  333   0.074   0.174   0.949 -0.5580 -0.2911 -0.5252
   84SOL    HW1  334   0.041   0.264   0.973 -1.8622  0.8266 -0.9314
   84SOL    HW2  335   0.108   0.137   1.036  0.9764  1.7730 -0.0350
   84SOL     MW  336   0.074   0.181   0.964 -0.5276  0.1287 -0.5141
   85SOL     OW  337   0.433   0.450   0.745 -0.0232 -0.2187 -0.1913
   85SOL    HW1  338   0.399   0.485   0.661 -1.0755 -1.3819  0.9738
   85SOL    HW2  339   0.410   0.359   0.750  1.2606 -3.4109 -0.3731
   85SOL     MW  340   0.425   0.443   0.734  0.0073 -0.7934 -0.0615
   86SOL     OW  341   1.161   0.262   1.129  0.2737 -0.3163 -0.2876
   86SOL    HW1  342   1.142   0.359   1.121 -0.9647  2.1432  2.5475
   86SOL    HW2  343   1.246   0.250   1.171  0.8593  1.2098  1.8110
   86SOL     MW  344   1.170   0.273   1.134  0.1876  0.2096  0.3634
   87SOL     OW  345   1.156   1.521   1.252 -0.4532 -0.0413 -0.3858
   87SOL    HW1  346   1.205   1.585   1.204  1.2761  0.5473  0.1757
   87SOL    HW2  347   1.164   1.442   1.195  0.7582  2.8373  1.1933
   87SOL     MW  348   1.164   1.519   1.238 -0.0652  0.4161 -0.1034
   88SOL     OW  349   1.181   1.056   0.977 -0.1071 -0.3861 -0.1553
   88SOL    HW1  350   1.275   1.043   0.979  3.0383 -1.4052  0.9701
   88SOL    HW2  351   1.170   1.140   1.030  1.4114 -1.9749  0.5788
   88SOL     MW  352   1.192   1.066   0.984  0.5083 -0.7302  0.0900
   89SOL     OW  353   1.766   0.756   0.326  0.3339  0.0263  0.1072
   89SOL    HW1  354   1.753   0.663   0.349  0.5123 -1.0759 -0.9223
   89SOL    HW2  355   1.865   0.759   0.318  1.4944  0.8780 -0.7699
   89SOL     MW  356   1.778   0.744   0.328  0.5106 -0.0068 -0.1443
   90SOL     OW  357   0.823   1.102   2.802  0.4120  0.8872  0.6407
   90SOL    HW1  358   0.856   1.018   2.833 -0.2121  2.2386 -1.6937
   90SOL    HW2  359   0.812   1.162   2.880  0.9156  2.1346 -0.7917
   90SOL     MW  360   0.826   1.099   2.817  0.3961  1.2301  0.1437
   91SOL     OW  361   2.157   0.689   0.496  0.1439  0.2794 -0.7382
   91SOL    HW1  362   2.220   0.740   0.445  0.4084 -1.0957  3.3445
   91SOL    HW2  363   2.173   0.602   0.458 -1.9126  3.3599  0.8942
   91SOL     MW  364   2.167   0.685   0.484 -0.0925  0.5044  0.0158
   92SOL     OW  365   1.747   0.916   0.582  0.3366 -0.4064 -0.0422
   92SOL    HW1  366   1.652   0.938   0.594  1.9519 -0.1818 -2.1550
   92SOL    HW2  367   1.752   0.879   0.491  1.1783 -0.0068  0.1515
   92SOL     MW  368   1.735   0.914   0.571  0.6608 -0.3240 -0.2954
   93SOL     OW  369   1.048   0.185   0.410  0.5993 -1.0063  0.3165
   93SOL    HW1  370   0.962   0.216   0.445 -0.2261 -0.3325  0.3681
   93SOL    HW2  371   1.051   0.237   0.326  1.2275  2.3993  1.4648
   93SOL     MW  372   1.037   0.196   0.404  0.5733 -0.4681  0.4748
   94SOL     OW  373   1.857   1.387   1.639 -0.3237 -0.3704  0.2849
   94SOL    HW1  374   1.884   1.386   1.540 -1.2780 -1.3554  0.7308
   94SOL    HW2  375   1.851   1.295   1.667 -0.7921  1.1263  1.8918
   94SOL     MW  376   1.860   1.375   1.629 -0.5114 -0.3029  0.5558
   95SOL     OW  377   0.779   1.569   0.976 -0.7915  0.4489  0.1186
   95SOL    HW1  378   0.810   1.541   1.060 -1.9140  2.5585  0.4570
   95SOL    HW2  379   0.709   1.508   0.963  1.0869 -0.2787  2.6071
   95SOL     MW  380   0.774   1.557   0.985 -0.6918  0.6312  0.4915
   96SOL     OW  381   1.310   1.893   1.719  0.3609 -0.3895 -0.3279
   96SOL    HW1  382   1.222   1.886   1.765  1.2899 -0.2210  1.8313
   96SOL    HW2  383   1.321   1.813   1.670 -1.3333  3.3547  2.5219
   96SOL     MW  384   1.300   1.882   1.718  0.2600  0.1267  0.3330
   97SOL     OW  385   1.129   1.449   0.872 -0.4007  0.2070 -0.1063
   97SOL    HW1  386   1.165   1.524   0.923 -0.6101  0.7123 -0.6292
   97SOL    HW2  387   1.063   1.486   0.810  1.8360 -0.4986  2.4820
   97SOL     MW  388   1.125   1.464   0.871 -0.1332  0.1806  0.1662
   98SOL     OW  389   1.485   1.278   1.095  0.1089 -0.1676  0.3983
   98SOL    HW1  390   1.531   1.324   1.165  1.2135  1.4495 -0.9131
   98SOL    HW2  391   1.472   1.332   1.011 -0.5721 -1.2350 -2.0336
   98SOL     MW  392   1.490   1.291   1.093  0.1648 -0.0951 -0.0956
   99SOL     OW  393   1.411   0.281   1.304  0.6373  0.0255  0.3985
   99SOL    HW1  394   1.484   0.322   1.261 -0.5734 -0.8315  0.9949
   99SOL    HW2  395   1.427   0.302   1.396 -1.5262  2.6430 -1.4783
   99SOL     MW  396   1.423   0.289   1.310  0.1921  0.2578  0.2295
  100SOL     OW  397   1.044   1.204   1.367  0.4385 -0.1688  0.0685
  100SOL    HW1  398   1.078   1.238   1.450 -1.3176 -0.1250  0.3194
  100SOL    HW2  399   1.047   1.105   1.377 -1.5834 -0.5391  1.2815
  100SOL     MW  400   1.049   1.195   1.380 -0.0600 -0.2119  0.2617
  101SOL     OW  401   0.474   1.192   0.309 -0.6093  0.0792  0.3095
  101SOL    HW1  402   0.427   1.109   0.304  1.1879  1.0384 -2.2457
  101SOL    HW2  403   0.526   1.195   0.233  3.3929  0.5427  2.2677
  101SOL     MW  404   0.474   1.181   0.298  0.1559  0.2669  0.2307
  102SOL     OW  405   2.907   0.650   0.971 -0.3053 -0.2485 -0.0584
  102SOL    HW1  406   2.964   0.726   1.005  0.0688  0.2528  0.0335
  102SOL    HW2  407   2.883   0.619   1.060  1.4230  2.2963  1.4021
  102SOL     MW  408   2.911   0.656   0.987 -0.0280  0.1534  0.1464
  103SOL     OW  409   1.711   0.251   1.876  1.0953 -0.7900 -0.2193
  103SOL    HW1  410   1.731   0.161   1.846 -0.2256  0.8360  1.1591
  103SOL    HW2  411   1.670   0.241   1.961 -0.1023  0.3875  3.4281
  103SOL     MW  412   1.708   0.238   1.883  0.7630 -0.4201  0.4438
  104SOL     OW  413   0.156   1.520   1.575  0.3426  0.3788 -0.5183
  104SOL    HW1  414   0.205   1.456   1.617 -0.8348 -0.0648 -1.1184
  104SOL    HW2  415   0.065   1.501   1.588 -1.5993  1.3290 -1.6956
  104SOL     MW  416   0.150   1.509   1.582 -0.0690  0.4456 -0.7528
  105SOL     OW  417   0.044   1.190   0.416 -0.3111 -0.5626  0.2884
  105SOL    HW1  418   0.077   1.094   0.393  0.7085 -0.5989 -0.1675
  105SOL    HW2  419   0.118   1.259   0.419  0.8637  1.5373 -1.7569
  105SOL     MW  420   0.058   1.187   0.413 -0.0216 -0.2903 -0.0416
  106SOL     OW  421   0.819   0.395   1.012  0.2936  0.4640 -0.1377
  106SOL    HW1  422   0.750   0.449   0.968  0.2958  0.9853  1.1595
  106SOL    HW2  423   0.877   0.381   0.931 -0.7911 -1.7974  0.0225
  106SOL     MW  424   0.818   0.400   0.996  0.1508  0.2344  0.0546
  107SOL     OW  425   0.801   2.146   2.909  0.1872 -0.6375  0.0379
  107SOL    HW1  426   0.710   2.148   2.879  1.0751 -0.5938 -0.8428
  107SOL    HW2  427   0.781   2.124   3.004  0.2853  1.7098  1.1666
  107SOL     MW  428   0.786   2.143   2.917  0.3173 -0.3220  0.0706
  108SOL     OW  429   1.331   1.622   1.630 -0.4187  0.5241  0.2922
  108SOL    HW1  430   1.261   1.572   1.573  0.4529  4.7329 -1.5091
  108SOL    HW2  431   1.416   1.591   1.604 -2.5822 -1.1995 -0.3619
  108SOL     MW  432   1.333   1.611   1.619 -0.5891  0.8520 -0.0317
  109SOL     OW  433   2.031   0.759   0.263 -0.1262 -0.4725  0.5921
  109SOL    HW1  434   2.058   0.855   0.264  2.1188  0.2444  0.4114
  109SOL    HW2  435   2.062   0.728   0.346 -2.2434 -1.9973 -0.1082
  109SOL     MW  436   2.039   0.768   0.274 -0.1094 -0.5791  0.4759
  110SOL     OW  437   0.403   1.922   0.622  0.3350  0.5764  0.2089
  110SOL    HW1  438   0.447   1.852   0.575 -2.9572 -3.0940 -2.4728
  110SOL    HW2  439   0.415   2.003   0.569 -2.4357 -0.4746  1.1855
  110SOL     MW  440   0.411   1.924   0.609 -0.4649 -0.0465 -0.0160
  111SOL     OW  441   0.753   0.860   1.470 -0.2570  0.0129 -0.3248
  111SOL    HW1  442   0.751   0.886   1.378 -0.9499  0.6686  0.1819
  111SOL    HW2  443   0.740   0.768   1.481 -0.9623  0.1608  0.3619
  111SOL     MW  444   0.751   0.851   1.459 -0.4415  0.1189 -0.1673
  112SOL     OW  445   1.319   1.093   1.637  0.0062 -0.1181 -0.0178
  112SOL    HW1  446   1.252   1.158   1.634 -0.3971 -1.9814  1.7615
  112SOL    HW2  447   1.266   1.012   1.630  0.5739 -0.9704  1.2638
  112SOL     MW  448   1.303   1.091   1.636  0.0279 -0.4764  0.3860
  113SOL     OW  449   1.263   3.070   1.734 -0.3970 -0.4563  0.1991
  113SOL    HW1  450   1.237   3.062   1.826 -1.3556 -1.2331 -0.2382
  113SOL    HW2  451   1.288   2.982   1.704 -1.2279 -2.5957 -1.0057
  113SOL     MW  452   1.262   3.057   1.742 -0.6331 -0.8411 -0.0176
  114SOL     OW  453   0.249   2.872   1.879 -0.2170  0.3987 -0.2934
  114SOL    HW1  454   0.318   2.894   1.943 -1.0518  0.8105 -2.3100
  114SOL    HW2  455   0.185   2.948   1.877 -2.9157  3.0136 -2.1652
  114SOL     MW  456   0.250   2.885   1.887 -0.6832  0.7981 -0.8064
  115SOL     OW  457   0.489   0.863   1.112  0.0238  0.0524 -0.2450
  115SOL    HW1  458   0.470   0.772   1.114 -1.1841 -0.1336  2.2898
  115SOL    HW2  459   0.454   0.908   1.190  0.7388  0.9248  0.9657
  115SOL     MW  460   0.482   0.857   1.122 -0.0412  0.1430  0.2492
  116SOL     OW  461   0.781   1.089   1.013  0.2231  0.1596 -0.2120
  116SOL    HW1  462   0.825   1.123   0.932 -0.9305  0.8919 -0.2409
  116SOL    HW2  463   0.816   1.150   1.086 -0.3137  0.7300  1.3624
  116SOL     MW  464   0.791   1.101   1.012  0.0000  0.3315 -0.0081
  117SOL     OW  465   1.145   1.197   0.755 -0.1633 -0.1309  0.2787
  117SOL    HW1  466   1.142   1.134   0.829 -1.6531  2.8471  1.2658
  117SOL    HW2  467   1.156   1.286   0.793  1.6365  1.9956  2.2627
  117SOL     MW  468   1.146   1.201   0.770 -0.1224  0.5426  0.6707
  118SOL     OW  469   3.029   2.974   1.647  0.1627 -0.1573  0.0683
  118SOL    HW1  470   3.099   3.003   1.711  0.2968  2.1021 -1.2555
  118SOL    HW2  471   2.948   2.991   1.697 -2.7115  1.9554 -0.7042
  118SOL     MW  472   3.028   2.980   1.662 -0.1988  0.4196 -0.2083
  119SOL     OW  473   0.468   1.486   1.214 -0.2073 -0.5554  0.0856
  119SOL    HW1  474   0.486   1.558   1.158  1.3377  0.3465  0.4679
  119SOL    HW2  475   0.372   1.467   1.196 -1.4544 -0.9634  0.3149
  119SOL     MW  476   0.458   1.493   1.204 -0.1680 -0.4902  0.1663
  120SOL     OW  477   0.269   0.737   0.956 -0.4954 -0.9087  0.5496
  120SOL    HW1  478   0.268   0.697   1.044  1.2617 -3.6064 -1.3647
  120SOL    HW2  479   0.340   0.805   0.955  0.8208 -0.1815  0.4260
  120SOL     MW  480   0.278   0.741   0.967 -0.0899 -1.1687  0.2807
  121SOL     OW  481   1.792   1.096   1.687  0.1227  0.3099 -0.1184
  121SOL    HW1  482   1.703   1.101   1.706 -2.2652 -2.0800 -3.4625
  121SOL    HW2  483   1.804   1.013   1.636  2.5124  1.5591  0.6351
  121SOL     MW  484   1.782   1.085   1.683  0.1229  0.1594 -0.4602
  122SOL     OW  485   0.176   0.501   0.826  0.3629  0.4826  0.6703
  122SOL    HW1  486   0.248   0.445   0.798 -1.1217  0.7939 -0.2920
  122SOL    HW2  487   0.224   0.576   0.859 -1.2858 -0.9824  0.6404
  122SOL     MW  488   0.192   0.504   0.826 -0.0505  0.3304  0.5394
  123SOL     OW  489   1.858   1.153   0.488 -0.3204  0.2223 -0.4774
  123SOL    HW1  490   1.818   1.076   0.537 -2.8295  0.6157 -0.7236
  123SOL    HW2  491   1.912   1.207   0.549 -1.1288  1.4716  0.5706
  123SOL     MW  492   1.860   1.150   0.502 -0.7581  0.4390 -0.3716
  124SOL     OW  493   0.630   0.560   0.937  0.2584 -0.3463  0.0855
  124SOL    HW1  494   0.579   0.535   0.861 -1.4687  2.3911  0.9935
  124SOL    HW2  495   0.641   0.660   0.934 -0.1828 -0.9148  0.6440
  124SOL     MW  496   0.625   0.570   0.926 -0.0277 -0.0602  0.2790
  125SOL     OW  497   0.695   1.769   1.734  0.2619  0.0819  0.2675
  125SOL    HW1  498   0.623   1.709   1.706 -0.6697  0.8180 -1.3973
  125SOL    HW2  499   0.665   1.856   1.712  2.6057 -3.9040 -0.8047
  125SOL     MW  500   0.681   1.773   1.727  0.4482 -0.3468 -0.0936
  126SOL     OW  501   2.110   1.605   1.981  0.1913 -0.3078  0.3197
  126SOL    HW1  502   2.170   1.682   1.971 -0.0394 -0.4876 -0.3185
  126SOL    HW2  503   2.162   1.529   2.004 -1.4370  1.3848  1.3932
  126SOL     MW  504   2.125   1.605   1.983 -0.0540 -0.1082  0.3772
  127SOL     OW  505   0.579   0.798   1.823 -0.1718  0.1168 -0.2740
  127SOL    HW1  506   0.659   0.785   1.879  0.7410  0.3378 -1.0416
  127SOL    HW2  507   0.541   0.886   1.841 -2.9815 -0.0051 -1.6757
  127SOL     MW  508   0.585   0.808   1.833 -0.4221  0.1299 -0.5602
  128SOL     OW  509   1.732   0.717   2.891  0.5215 -0.0508 -0.1712
  128SOL    HW1  510   1.772   0.704   2.806 -1.0259 -0.7099  0.8070
  128SOL    HW2  511   1.733   0.814   2.902 -0.7091  0.0828  1.6592
  128SOL     MW  512   1.738   0.728   2.881  0.1549 -0.1202  0.1994
  129SOL     OW  513   1.629   0.908   0.146  0.2006 -0.0497 -0.3292
  129SOL    HW1  514   1.553   0.847   0.125 -2.6028  2.6861 -1.7294
  129SOL    HW2  515   1.670   0.852   0.210  0.5284 -1.9009 -3.3555
  129SOL     MW  516   1.624   0.893   0.152 -0.1261  0.0670 -0.9133
  130SOL     OW  517   0.779   1.374   0.297  0.5855 -0.1532 -0.6366
  130SOL    HW1  518   0.817   1.382   0.382 -0.4005  2.1055 -1.4249
  130SOL    HW2  519   0.813   1.453   0.249  0.5022 -1.6651 -0.1030
  130SOL     MW  520   0.789   1.385   0.302  0.4444 -0.0547 -0.6702
  131SOL     OW  521   3.042   0.854   0.026 -0.2661 -0.1440 -0.4530
  131SOL    HW1  522   3.064   0.887  -0.060  3.3177  0.2262 -1.3384
  131SOL    HW2  523   3.121   0.829   0.062 -1.6390  0.1155  0.1961
  131SOL     MW  524   3.055   0.855   0.019  0.0256 -0.0609 -0.4842
  132SOL     OW  525   2.681   0.116   1.360  0.4927  0.3054 -0.1855
  132SOL    HW1  526   2.737   0.152   1.291  0.7113  2.0211 -0.9885
  132SOL    HW2  527   2.591   0.101   1.325 -0.2101  0.2283 -0.4692
  132SOL     MW  528   2.677   0.119   1.346  0.4288  0.5216 -0.3289
  133SOL     OW  529   1.073   0.168   1.710 -0.2064  0.2392 -0.3224
  133SOL    HW1  530   1.138   0.098   1.687 -0.3036 -0.9589 -2.4459
  133SOL    HW2  531   1.025   0.148   1.791  0.2534  2.2415  0.0935
  133SOL     MW  532   1.075   0.156   1.718 -0.1586  0.3453 -0.5477
  134SOL     OW  533   1.401   2.514   1.392 -0.2003 -0.4616  0.0304
  134SOL    HW1  534   1.326   2.580   1.394  1.2705  2.3256 -0.5300
  134SOL    HW2  535   1.455   2.518   1.467  0.9163  0.5614 -1.0623
  134SOL     MW  536   1.398   2.524   1.402  0.1410  0.0411 -0.1877
  135SOL     OW  537   3.003   0.976   2.869 -0.6399 -0.6816 -0.2977
  135SOL    HW1  538   3.063   1.057   2.886  0.1579  3.1744  1.9513
  135SOL    HW2  539   2.918   1.017   2.875  1.1968  0.5274  1.2239
  135SOL     MW  540   3.000   0.992   2.872 -0.2923 -0.0134  0.1998
  136SOL     OW  541   0.206   2.032   0.787  0.3927  0.0327 -0.0370
  136SOL    HW1  542   0.130   1.969   0.794  1.4490 -0.4767 -0.2625
  136SOL    HW2  543   0.260   2.000   0.712  2.9680  0.2527 -0.0918
  136SOL     MW  544   0.203   2.020   0.778  0.8719 -0.0055 -0.0740
  137SOL     OW  545   0.695   2.012   0.503  0.0923  0.2921 -0.3409
  137SOL    HW1  546   0.661   1.991   0.588  1.7885  0.0823  0.2542
  137SOL    HW2  547   0.617   2.052   0.463 -2.4114 -1.2004 -0.5329
  137SOL     MW  548   0.681   2.014   0.509 -0.0142  0.0675 -0.2877
  138SOL     OW  549   0.511   0.602   1.169 -0.1882 -0.0208  0.1287
  138SOL    HW1  550   0.429   0.554   1.184 -1.9369 -0.3913  0.7824
  138SOL    HW2  551   0.556   0.567   1.091  1.7450  0.3613 -0.6072
  138SOL     MW  552   0.506   0.591   1.160 -0.1639 -0.0193  0.1179
  139SOL     OW  553   2.865   0.571   1.225  0.4221 -0.6532  0.4308
  139SOL    HW1  554   2.919   0.504   1.276  0.6300  0.9722  0.3049
  139SOL    HW2  555   2.869   0.650   1.279 -3.3367 -0.5296  1.2318
  139SOL     MW  556   2.873   0.572   1.239 -0.0464 -0.4224  0.5199
  140SOL     OW  557   0.957   0.493   2.044  0.3034  0.3055 -0.3521
  140SOL    HW1  558   0.966   0.420   1.978  1.5608  1.3969 -2.8826
  140SOL    HW2  559   0.973   0.455   2.129 -1.8374 -2.6569  1.2038
  140SOL     MW  560   0.961   0.478   2.046  0.1869  0.0586 -0.4807
  141SOL     OW  561   1.021   0.642   1.723 -0.1160  0.4010 -0.8200
  141SOL    HW1  562   1.063   0.560   1.703  2.0149  1.0416 -0.5274
  141SOL    HW2  563   1.078   0.716   1.704 -1.7700 -1.4633  1.4868
  141SOL     MW  564   1.034   0.641   1.718 -0.0531  0.2396 -0.4770
  142SOL     OW  565   0.888   1.122   0.767 -0.6237 -0.4041  0.2272
  142SOL    HW1  566   0.900   1.055   0.690 -0.8338 -0.1655 -0.3023
  142SOL    HW2  567   0.977   1.160   0.773 -0.2845  0.3836  1.4878
  142SOL     MW  568   0.902   1.118   0.758 -0.6067 -0.2687  0.3236
  143SOL     OW  569   1.822   0.736   1.055 -0.2477 -0.4849  0.0262
  143SOL    HW1  570   1.878   0.683   0.993 -0.5656 -2.0123 -1.1143
  143SOL    HW2  571   1.733   0.707   1.042  1.3965 -2.5680  0.7207
  143SOL     MW  572   1.818   0.725   1.045 -0.0727 -0.9613 -0.0326
  144SOL     OW  573   0.293   1.292   1.683 -0.6689  0.2554  0.2422
  144SOL    HW1  574   0.379   1.251   1.655 -1.4047 -0.3973 -1.7340
  144SOL    HW2  575   0.289   1.292   1.784 -2.0470  2.8005  1.0778
  144SOL     MW  576   0.304   1.287   1.693 -0.9478  0.5051  0.0917
  145SOL     OW  577   0.235   0.497   1.181 -0.3593  0.0348 -0.0604
  145SOL    HW1  578   0.237   0.412   1.224  2.9689  1.3430  1.1630
  145SOL    HW2  579   0.169   0.485   1.120 -2.5415  1.4307 -2.1362
  145SOL     MW  580   0.226   0.484   1.179 -0.2081  0.3916 -0.1728
  146SOL     OW  581   0.824   1.990   1.415  0.2644  0.3916  0.1896
  146SOL    HW1  582   0.894   1.990   1.345  2.5488 -1.3117 -1.9265
  146SOL    HW2  583   0.740   1.972   1.366  2.5248 -1.4601 -0.9546
  146SOL     MW  584   0.822   1.987   1.399  0.8640 -0.0774 -0.2405
  147SOL     OW  585   0.361   0.479   3.006 -0.2030  0.2415 -0.5129
  147SOL    HW1  586   0.300   0.458   3.078  2.1057  2.7769 -0.5492
  147SOL    HW2  587   0.309   0.522   2.935 -1.5704 -0.5619 -0.8505
  147SOL     MW  588   0.346   0.482   3.006 -0.0788  0.4700 -0.5622
  148SOL     OW  589   0.097   0.954   1.311 -0.1795  0.3453 -0.0404
  148SOL    HW1  590   0.177   0.993   1.288  1.8602 -2.0998 -1.6402
  148SOL    HW2  591   0.045   1.033   1.342 -2.7521 -0.3782 -0.0227
  148SOL     MW  592   0.101   0.969   1.312 -0.2498 -0.0728 -0.2491
  149SOL     OW  593   1.450   1.098   1.382  0.6810 -0.7255 -0.2761
  149SOL    HW1  594   1.413   1.089   1.468 -0.3829  1.5299 -0.9533
  149SOL    HW2  595   1.482   1.189   1.382  0.3506  0.2518  2.4464
  149SOL     MW  596   1.449   1.109   1.393  0.4970 -0.2990 -0.0062
  150SOL     OW  597   1.744   1.370   0.771 -0.1182 -0.0733  0.4948
  150SOL    HW1  598   1.797   1.298   0.796  0.3090  0.1219 -3.6638
  150SOL    HW2  599   1.786   1.440   0.818 -0.3939 -3.3563 -0.4086
  150SOL     MW  600   1.756   1.370   0.780 -0.0982 -0.4807 -0.1731
  151SOL     OW  601   1.667   1.791   0.795 -0.3341  0.3848  0.2822
  151SOL    HW1  602   1.678   1.819   0.704  0.6768  0.5080 -2.4192
  151SOL    HW2  603   1.581   1.752   0.802  1.1857  2.2858  0.0035
  151SOL     MW  604   1.657   1.790   0.784 -0.0002  0.6518 -0.1110
  152SOL     OW  605   0.791   1.436   1.622  0.1208  0.3671  0.3183
  152SOL    HW1  606   0.817   1.368   1.683 -0.4965  0.4039  1.0996
  152SOL    HW2  607   0.846   1.418   1.547  2.0729 -3.0153 -0.6796
  152SOL     MW  608   0.802   1.424   1.620  0.2969 -0.0743  0.2898
  153SOL     OW  609   2.596   1.214   0.799 -0.3874  0.1186 -0.0921
  153SOL    HW1  610   2.676   1.186   0.753  1.7366  1.1827  0.1569
  153SOL    HW2  611   2.525   1.155   0.783  1.1855 -0.1607  2.9884
  153SOL     MW  612   2.597   1.202   0.791  0.1004  0.2221  0.3472
  154SOL     OW  613   0.160   1.763   1.708 -0.4451 -0.0316 -0.0748
  154SOL    HW1  614   0.156   1.686   1.659  0.9327 -0.1250  1.3503
  154SOL    HW2  615   0.217   1.746   1.786  1.9700 -1.4818 -1.7857
  154SOL     MW  616   0.167   1.751   1.712  0.0553 -0.2352 -0.1125
  155SOL     OW  617   1.163   0.689   0.271 -0.2263 -0.3682  0.1050
  155SOL    HW1  618   1.134   0.629   0.336  0.8526 -0.0102  2.0041
  155SOL    HW2  619   1.155   0.775   0.321 -0.7785  0.3489  1.6173
  155SOL     MW  620   1.158   0.693   0.287 -0.1568 -0.2263  0.5551
  156SOL     OW  621   1.531   3.011   1.082  0.5160 -0.1869  0.0268
  156SOL    HW1  622   1.606   3.064   1.114 -0.5712  1.0508  0.5583
  156SOL    HW2  623   1.539   2.924   1.115  2.0422 -0.6903 -0.5539
  156SOL     MW  624   1.542   3.007   1.091  0.5739 -0.0900  0.0203
  157SOL     OW  625   1.426   1.194   0.102 -0.1242 -0.0632 -0.0926
  157SOL    HW1  626   1.485   1.122   0.126 -2.1765  4.2307 -0.9177
  157SOL    HW2  627   1.490   1.272   0.098  1.6963 -1.2962  1.7807
  157SOL     MW  628   1.442   1.195   0.105 -0.1548  0.3407  0.0457
  158SOL     OW  629   0.410   1.630   2.248 -0.3937 -0.0036  0.3962
  158SOL    HW1  630   0.430   1.703   2.191 -2.3362 -0.3162  0.2486
  158SOL    HW2  631   0.368   1.670   2.323  1.5202 -2.1718  0.1222
  158SOL     MW  632   0.407   1.645   2.250 -0.3975 -0.3309  0.3406
  159SOL     OW  633   1.267   1.717   0.478  1.0545  0.0022  0.2518
  159SOL    HW1  634   1.231   1.655   0.415  0.7964 -1.2184 -0.3222
  159SOL    HW2  635   1.186   1.737   0.533  1.0304 -1.6634 -2.8244
  159SOL     MW  636   1.252   1.712   0.477  1.0173 -0.3786 -0.2298
  160SOL     OW  637   0.505   1.143   1.586  0.0370 -0.0081 -0.4297
  160SOL    HW1  638   0.471   1.052   1.590 -2.2397  0.8800  0.7707
  160SOL    HW2  639   0.600   1.134   1.592 -0.1271 -1.5148 -1.1535
  160SOL     MW  640   0.513   1.130   1.587 -0.2850 -0.0897 -0.3668
  161SOL     OW  641   0.486   2.255   2.548 -0.3226 -0.3303 -0.2016
  161SOL    HW1  642   0.398   2.289   2.561 -3.5387 -0.0746  0.0096
  161SOL    HW2  643   0.484   2.181   2.485  0.3503 -1.9537 -0.5919
  161SOL     MW  644   0.474   2.249   2.542 -0.6581 -0.5108 -0.2252
  162SOL     OW  645   1.103   1.793   1.878 -0.7313 -0.1048 -0.5668
  162SOL    HW1  646   1.129   1.869   1.941  1.5417  2.4546  0.9942
  162SOL    HW2  647   1.012   1.793   1.860  0.7261  0.7168 -0.8778
  162SOL     MW  648   1.094   1.803   1.884 -0.2391  0.3413 -0.4019
  163SOL     OW  649   2.113   3.026   0.875 -0.5921 -0.1036  0.3284
  163SOL    HW1  650   2.095   3.093   0.803 -1.0984 -1.8571  1.5949
  163SOL    HW2  651   2.071   2.944   0.845 -2.0366 -1.6720 -1.9751
  163SOL     MW  652   2.105   3.024   0.862 -0.8495 -0.5419  0.1915
  164SOL     OW  653   0.312   0.225   0.811 -0.0747  0.0590 -0.3560
  164SOL    HW1  654   0.222   0.213   0.854  0.3081 -0.1327 -0.3844
  164SOL    HW2  655   0.315   0.153   0.751 -1.4119 -0.3416  1.0097
  164SOL     MW  656   0.300   0.214   0.809 -0.2006 -0.0191 -0.1795
  165SOL     OW  657   1.321   1.313   0.339 -0.6211 -0.5393  0.0836
  165SOL    HW1  658   1.313   1.254   0.421  0.4849  1.2715  0.7371
  165SOL    HW2  659   1.360   1.258   0.269 -2.0341 -0.1242 -1.2768
  165SOL     MW  660   1.325   1.298   0.341 -0.6616 -0.2457 -0.0096
  166SOL     OW  661   0.539   1.200   0.984  0.3498  0.3197  0.1249
  166SOL    HW1  662   0.481   1.219   1.062 -1.4857  1.6048 -1.6592
  166SOL    HW2  663   0.623   1.165   1.019  0.8406 -1.8967  0.6937
  166SOL     MW  664   0.543   1.198   0.999  0.1724  0.1969 -0.0355
  167SOL     OW  665   0.813   1.094   0.267 -0.1917  0.2572 -0.2659
  167SOL    HW1  666   0.811   1.195   0.277  3.3666 -0.6660  2.2598
  167SOL    HW2  667   0.889   1.098   0.206  1.5173  0.1862 -2.4530
  167SOL     MW  668   0.822   1.108   0.260  0.5033  0.1260 -0.2212
  168SOL     OW  669   1.718   1.655   3.039  0.1905  0.4341 -0.7399
  168SOL    HW1  670   1.657   1.713   3.006  1.0241 -3.9128  1.0863
  168SOL    HW2  671   1.702   1.584   2.981  0.4002 -2.2837  0.0327
  168SOL     MW  672   1.708   1.653   3.027  0.3282 -0.4980 -0.3970
  169SOL     OW  673   0.371   1.001   1.339 -0.3744  0.0103  0.4815
  169SOL    HW1  674   0.395   0.946   1.415  1.8518  0.0526  0.2199
  169SOL    HW2  675   0.441   1.069   1.337 -1.1880  0.1084 -1.2717
  169SOL     MW  676   0.384   1.003   1.349 -0.1880  0.0288  0.2157
  170SOL     OW  677   1.092   1.541   1.519  0.2191  0.1440 -0.1511
  170SOL    HW1  678   1.024   1.607   1.516  1.0791 -0.4688 -3.1984
  170SOL    HW2  679   1.127   1.534   1.427 -0.4224 -1.3769 -2.6233
  170SOL     MW  680   1.088   1.549   1.506  0.2479 -0.1375 -0.8793
  171SOL     OW  681   0.558   1.374   0.629  0.4805 -0.4645 -1.2326
  171SOL    HW1  682   0.525   1.413   0.708 -0.6929  1.3150 -2.3570
  171SOL    HW2  683   0.549   1.281   0.652 -2.1030  0.2265  0.4763
  171SOL     MW  684   0.552   1.367   0.642 -0.0152 -0.1385 -1.1555
  172SOL     OW  685   0.881   0.300   1.280 -0.0462  0.4987 -0.0357
  172SOL    HW1  686   0.905   0.324   1.187  1.7875 -1.8237  0.8272
  172SOL    HW2  687   0.784   0.311   1.269 -2.2112  0.4882 -1.3999
  172SOL     MW  688   0.871   0.305   1.266 -0.0899  0.1909 -0.1019
  173SOL     OW  689   0.465   1.760   0.286  0.1888 -0.0659 -0.1151
  173SOL    HW1  690   0.472   1.677   0.235  1.3477 -0.2051 -0.0726
  173SOL    HW2  691   0.490   1.725   0.378 -3.8994  0.4946  1.2275
  173SOL     MW  692   0.469   1.744   0.291 -0.1977 -0.0103  0.0676
  174SOL     OW  693   1.844   0.914   1.498 -0.2321  0.1033 -0.0779
  174SOL    HW1  694   1.796   0.833   1.516  0.0647 -0.3689  0.9221
  174SOL    HW2  695   1.841   0.932   1.405 -0.4491 -0.3532 -2.4472
  174SOL     MW  696   1.838   0.906   1.488 -0.2216 -0.0192 -0.2586
  175SOL     OW  697   0.488   1.500   0.196 -0.6413  0.3324 -0.4474
  175SOL    HW1  698   0.414   1.446   0.163  2.7044 -1.1556  2.0464
  175SOL    HW2  699   0.518   1.456   0.282 -0.0245  0.7509  3.4989
  175SOL     MW  700   0.482   1.487   0.203 -0.1185  0.1913  0.4023
  176SOL     OW  701   0.177   1.474   1.190  0.0431  0.1859  0.5944
  176SOL    HW1  702   0.154   1.396   1.127 -2.5282 -3.7569 -2.6053
  176SOL    HW2  703   0.096   1.483   1.246 -0.0468 -4.5778  0.7312
  176SOL     MW  704   0.163   1.465   1.190 -0.3080 -0.9628  0.1903
  177SOL     OW  705   0.592   0.355   1.306 -0.5204 -0.5338  0.0886
  177SOL    HW1  706   0.587   0.450   1.266 -0.7237 -1.8818  0.1214
  177SOL    HW2  707   0.593   0.370   1.401 -0.6640  0.3653  0.0049
  177SOL     MW  708   0.591   0.370   1.313 -0.5662 -0.5930  0.0819
  178SOL     OW  709   3.065   0.562   2.952 -0.1547 -0.6158  0.6643
  178SOL    HW1  710   3.006   0.541   3.026 -1.6523  0.5437 -2.4258
  178SOL    HW2  711   3.019   0.530   2.878 -0.6957  0.0828  0.5908
  178SOL     MW  712   3.051   0.555   2.952 -0.4237 -0.3706  0.2469
  179SOL     OW  713   1.579   1.402   1.325  0.3134 -0.0742  0.1458
  179SOL    HW1  714   1.549   1.403   1.420 -0.5769  0.7075 -3.1586
  179SOL    HW2  715   1.674   1.409   1.328  0.1492  3.4162  0.1708
  179SOL     MW  716   1.588   1.403   1.338  0.1743  0.4895 -0.2869
  180SOL     OW  717   2.977   0.228   0.447  0.0040 -0.4240 -0.0901
  180SOL    HW1  718   2.953   0.234   0.350 -1.0461 -0.1904 -0.2776
  180SOL    HW2  719   3.060   0.285   0.454  0.9136  0.6620  0.3889
  180SOL     MW  720   2.985   0.236   0.435 -0.0145 -0.2499 -0.0516
  181SOL     OW  721   1.117   1.340   3.062  0.1989 -0.1227 -0.1556
  181SOL    HW1  722   1.179   1.402   3.096  2.1702 -0.5185 -3.7183
  181SOL    HW2  723   1.169   1.281   3.010  0.0039 -0.0444  1.1955
  181SOL     MW  724   1.132   1.340   3.059  0.4333 -0.1646 -0.4474
  182SOL     OW  725   0.469   0.869   1.575 -0.1704  1.0640 -0.0589
  182SOL    HW1  726   0.374   0.838   1.581  0.6455 -1.3358  2.9088
  182SOL    HW2  727   0.516   0.853   1.661 -0.1616  0.1200  1.1213
  182SOL     MW  728   0.462   0.863   1.587 -0.0616  0.6228  0.4884
  183SOL     OW  729   1.591   1.696   1.205  0.0984  0.8198  0.4090
  183SOL    HW1  730   1.674   1.733   1.225 -0.6871 -0.8683  0.9051
  183SOL    HW2  731   1.592   1.612   1.253  1.2422  1.0568  0.3278
  183SOL     MW  732   1.602   1.690   1.214  0.1457  0.6283  0.4637
  184SOL     OW  733   0.821   0.719   1.948 -0.2011  0.1874  0.3081
  184SOL    HW1  734   0.878   0.750   1.877  0.8938  0.4771 -1.4775
  184SOL    HW2  735   0.864   0.633   1.974 -1.9068  1.1217 -1.4820
  184SOL     MW  736   0.834   0.712   1.942 -0.2817  0.3489 -0.1636
  185SOL     OW  737   1.129   0.982   1.921 -0.1954  0.2945  0.1233
  185SOL    HW1  738   1.129   0.900   1.974  2.0357 -0.2493  2.0621
  185SOL    HW2  739   1.174   1.041   1.978 -2.3335  0.6101  2.4684
  185SOL     MW  740   1.135   0.979   1.936 -0.1832  0.2644  0.6885
  186SOL     OW  741   0.350   1.641   1.429 -0.5947 -0.0635  0.6530
  186SOL    HW1  742   0.389   1.585   1.362  0.2695  3.2421  0.5699
  186SOL    HW2  743   0.278   1.596   1.480  0.6230  0.4485  0.5683
  186SOL     MW  744   0.345   1.628   1.427 -0.3200  0.4402  0.6308
  187SOL     OW  745   1.504   0.737   1.352  0.0002  0.2291  0.1943
  187SOL    HW1  746   1.535   0.714   1.441  2.5672  2.7278  0.6255
  187SOL    HW2  747   1.410   0.724   1.359 -1.1660 -0.8431 -0.6922
  187SOL     MW  748   1.496   0.732   1.365  0.1850  0.4173  0.1342
  188SOL     OW  749   1.887   1.160   0.877 -0.1115  0.4873 -1.0124
  188SOL    HW1  750   1.882   1.174   0.969  0.0106 -1.2673 -0.9047
  188SOL    HW2  751   1.927   1.077   0.859  2.4676  1.0049 -0.9415
  188SOL     MW  752   1.892   1.151   0.887  0.2449  0.3241 -0.9888
  189SOL     OW  753   0.682   0.824   0.877  0.3094 -0.1639 -0.5856
  189SOL    HW1  754   0.615   0.896   0.845 -2.6416 -4.3213 -0.3266
  189SOL    HW2  755   0.757   0.872   0.909 -0.8275 -1.9587  1.0774
  189SOL     MW  756   0.683   0.840   0.877 -0.2300 -0.9492 -0.3320
  190SOL     OW  757   1.895   0.239   2.172 -0.3309 -0.2983  0.2565
  190SOL    HW1  758   1.939   0.231   2.255 -0.9365 -0.0494 -1.3443
  190SOL    HW2  759   1.941   0.303   2.113 -0.0463 -0.5783  3.3407
  190SOL     MW  760   1.907   0.247   2.175 -0.3732 -0.3024  0.4522
  191SOL     OW  761   1.557   0.957   1.172  0.8064  0.0083  0.6909
  191SOL    HW1  762   1.521   1.022   1.230  1.7986 -0.6352  1.8740
  191SOL    HW2  763   1.563   0.880   1.226 -4.4067  0.8812 -0.2931
  191SOL     MW  764   1.553   0.956   1.186  0.2495  0.0386  0.7172
  192SOL     OW  765   0.577   2.118   2.762 -0.1944  0.3370 -0.0092
  192SOL    HW1  766   0.542   2.175   2.690 -1.3311 -0.9731 -2.7416
  192SOL    HW2  767   0.628   2.053   2.722 -1.7287 -1.6201  2.5992
  192SOL     MW  768   0.579   2.117   2.748 -0.5468 -0.0941 -0.0255
  193SOL     OW  769   0.937   1.559   0.744 -0.2310  0.1381  0.6481
  193SOL    HW1  770   0.874   1.573   0.811  1.1754  2.4851 -2.5719
  193SOL    HW2  771   0.910   1.480   0.683  0.3519 -1.9167 -0.0377
  193SOL     MW  772   0.925   1.551   0.744  0.0315  0.1767  0.1328
  194SOL     OW  773   0.511   1.462   0.896 -0.2141 -0.5171  0.3531
  194SOL    HW1  774   0.533   1.371   0.931 -3.4847 -0.8778  3.2243
  194SOL    HW2  775   0.416   1.456   0.869 -1.2704 -1.6389  1.5819
  194SOL     MW  776   0.501   1.449   0.897 -0.7850 -0.7127  0.8941
  195SOL     OW  777   1.295   1.156   2.964 -0.2421  0.1923  0.0403
  195SOL    HW1  778   1.357   1.172   3.038  1.9421 -1.3708  0.8911
  195SOL    HW2  779   1.227   1.090   2.988  2.0705 -0.6565 -3.4712
  195SOL     MW  780   1.294   1.149   2.977  0.3512 -0.1259 -0.3107
  196SOL     OW  781   2.201   0.985   0.548  0.2566 -0.2080 -0.1351
  196SOL    HW1  782   2.192   0.994   0.447  0.6415  0.9935 -1.6675
  196SOL    HW2  783   2.208   1.075   0.575  1.1710 -0.6386 -0.8360
  196SOL     MW  784   2.201   0.998   0.538  0.4280 -0.1063 -0.4298
  197SOL     OW  785   0.676   1.377   2.145 -0.3395 -0.4683  0.0969
  197SOL    HW1  786   0.702   1.287   2.100  0.0351 -0.8036  0.7871
  197SOL    HW2  787   0.661   1.434   2.068  0.8060  2.1292  2.6281
  197SOL     MW  788   0.677   1.373   2.129 -0.1389 -0.1699  0.5220
  198SOL     OW  789   2.923   1.410   1.066 -0.3150 -0.2586 -0.5348
  198SOL    HW1  790   2.901   1.468   0.996 -0.2154  1.4430  0.9875
  198SOL    HW2  791   2.850   1.350   1.073  1.4622 -1.4828 -1.2457
  198SOL     MW  792   2.911   1.409   1.058 -0.0673 -0.1957 -0.4278
  199SOL     OW  793   0.570   1.409   1.861  1.0496 -0.1142 -0.3025
  199SOL    HW1  794   0.487   1.369   1.883  0.2395  0.1369  0.7765
  199SOL    HW2  795   0.551   1.454   1.780 -3.4508  1.7568 -0.5253
  199SOL     MW  796   0.557   1.410   1.854  0.3490  0.1658 -0.1895
  200SOL     OW  797   1.865   2.902   1.385 -0.2775  0.1547 -0.0578
  200SOL    HW1  798   1.908   2.945   1.302 -0.4296  1.0207 -0.2651
  200SOL    HW2  799   1.774   2.931   1.388 -1.6662  2.8861 -1.9888
  200SOL     MW  800   1.859   2.912   1.374 -0.4808  0.6294 -0.3399
  201SOL     OW  801   0.985   0.374   0.802 -0.4231  0.2950  0.0929
  201SOL    HW1  802   0.968   0.286   0.759  0.4832  0.1103 -1.3033
  201SOL    HW2  803   1.077   0.372   0.809  0.5350  2.2185  1.0734
  201SOL     MW  804   0.995   0.362   0.797 -0.1771  0.5244  0.0380
  202SOL     OW  805   1.509   1.586   0.901 -0.2534  0.4483 -0.0110
  202SOL    HW1  806   1.500   1.501   0.861  1.4353  1.3256 -1.3140
  202SOL    HW2  807   1.550   1.580   0.987 -0.6123 -0.5416  0.6705
  202SOL     MW  808   1.513   1.574   0.907 -0.0780  0.4334 -0.0930
  203SOL     OW  809   3.025   0.452   1.417 -0.1833  0.3424  0.1227
  203SOL    HW1  810   3.086   0.377   1.402  0.1465  2.6970  1.4830
  203SOL    HW2  811   3.076   0.524   1.450 -0.7499 -0.6238 -0.2345
  203SOL     MW  812   3.040   0.451   1.420 -0.2145  0.5256  0.2550
  204SOL     OW  813   1.034   1.769   0.592 -0.3814  0.2063 -0.0264
  204SOL    HW1  814   1.006   1.710   0.663  1.3910  0.9268  2.8440
  204SOL    HW2  815   0.964   1.767   0.522 -1.7787  2.3788  1.5222
  204SOL     MW  816   1.021   1.761   0.592 -0.3319  0.5880  0.5566
  205SOL     OW  817   1.422   3.086   1.308  0.0696 -0.1957 -0.5741
  205SOL    HW1  818   1.421   3.067   1.212 -0.9998 -0.7458 -2.8330
  205SOL    HW2  819   1.396   3.180   1.318  2.0633  1.5848 -2.3024
  205SOL     MW  820   1.418   3.096   1.296  0.1915 -0.0333 -1.1001
  206SOL     OW  821   0.487   3.081   1.409 -0.0152  0.3827  0.1572
  206SOL    HW1  822   0.450   3.068   1.321  0.6935  0.8518  1.2619
  206SOL    HW2  823   0.570   3.035   1.409 -0.9318  1.0687  2.7042
  206SOL     MW  824   0.493   3.073   1.397 -0.0426  0.5351  0.6390
  207SOL     OW  825   0.934   1.621   0.217 -0.1260 -0.1670  0.6619
  207SOL    HW1  826   0.948   1.695   0.159 -1.8417 -0.4719 -3.0085
  207SOL    HW2  827   1.023   1.594   0.250 -0.0907 -1.2579  0.9024
  207SOL     MW  828   0.948   1.627   0.213 -0.3477 -0.3512  0.2094
  208SOL     OW  829   0.740   1.653   1.313 -0.2295  0.3813 -0.1649
  208SOL    HW1  830   0.772   1.690   1.398 -1.3138  0.0650  1.6276
  208SOL    HW2  831   0.806   1.601   1.271 -0.1584  2.8310  4.0740
  208SOL     MW  832   0.753   1.651   1.319 -0.3632  0.6628  0.6309
  209SOL     OW  833   1.552   0.494   2.883 -0.2195 -0.2827 -0.9655
  209SOL    HW1  834   1.614   0.566   2.910  0.7805 -0.2864 -1.0146
  209SOL    HW2  835   1.602   0.416   2.844 -0.7561  0.2277 -0.0303
  209SOL     MW  836   1.567   0.493   2.882 -0.1584 -0.2158 -0.8486
  210SOL     OW  837   1.462   1.328   0.802  0.0210  0.9702  1.2126
  210SOL    HW1  838   1.559   1.325   0.775 -0.4794 -2.3090 -0.9033
  210SOL    HW2  839   1.419   1.360   0.724 -0.3671  0.7297  0.3431
  210SOL     MW  840   1.469   1.332   0.788 -0.0962  0.5058  0.8187
  211SOL     OW  841   1.715   0.249   0.982 -0.0838  0.2062  0.7238
  211SOL    HW1  842   1.692   0.291   0.898 -1.7089  2.1093  0.5993
  211SOL    HW2  843   1.812   0.254   0.986  0.9921 -0.6500 -0.9683
  211SOL     MW  844   1.725   0.255   0.971 -0.1563  0.3443  0.4841
  212SOL     OW  845   0.259   1.056   0.187  0.0406  0.1629  0.1306
  212SOL    HW1  846   0.188   1.017   0.242 -0.1736 -0.4445 -2.5437
  212SOL    HW2  847   0.302   0.984   0.144 -0.5550 -0.2665  2.4487
  212SOL     MW  848   0.255   1.041   0.189 -0.0662  0.0261  0.0836
  213SOL     OW  849   0.505   1.741   2.983  0.1205  0.2468 -0.0073
  213SOL    HW1  850   0.513   1.808   3.057 -0.5306  1.4898  1.4681
  213SOL    HW2  851   0.560   1.786   2.914 -0.1523  1.4913  2.7886
  213SOL     MW  852   0.513   1.756   2.984 -0.0014  0.5750  0.5563
  214SOL     OW  853   0.659   0.379   2.173 -0.4149  0.1051 -0.0042
  214SOL    HW1  854   0.584   0.444   2.188  1.1018  1.0287  1.1395
  214SOL    HW2  855   0.663   0.386   2.079 -0.8184 -2.3091  1.3415
  214SOL     MW  856   0.650   0.388   2.163 -0.2680 -0.0916  0.3243
  215SOL     OW  857   0.501   0.697   2.641 -0.3652 -0.0080 -0.3207
  215SOL    HW1  858   0.474   0.712   2.556  3.6063 -0.6310  1.3708
  215SOL    HW2  859   0.431   0.656   2.691  1.8653 -0.8878  0.3789
  215SOL     MW  860   0.488   0.694   2.636  0.4531 -0.2063 -0.0052
  216SOL     OW  861   2.978   2.990   2.736  0.4262  0.2238  0.3757
  216SOL    HW1  862   2.938   3.010   2.822 -2.1754 -0.7571 -3.1146
  216SOL    HW2  863   3.021   3.074   2.716  0.7875  0.3948  2.6281
  216SOL     MW  864   2.979   3.003   2.745  0.1306  0.1170  0.2123
  217SOL     OW  865   1.068   1.117   0.127  0.1601 -0.3857  0.2689
  217SOL    HW1  866   1.086   1.055   0.057  1.3707  0.7694  1.0521
  217SOL    HW2  867   1.103   1.194   0.090 -3.0299 -0.2747 -0.9378
  217SOL     MW  868   1.075   1.119   0.113 -0.1010 -0.2187  0.2130
  218SOL     OW  869   0.915   1.349   2.622 -0.1731 -0.2777  0.3538
  218SOL    HW1  870   0.908   1.287   2.696  0.4610 -0.3984  2.0798
  218SOL    HW2  871   0.992   1.405   2.634 -1.5390  0.3203  0.7353
  218SOL     MW  872   0.924   1.349   2.633 -0.2697 -0.2147  0.6319
  219SOL     OW  873   1.128   0.359   2.600 -0.1114 -0.4115 -0.3224
  219SOL    HW1  874   1.213   0.407   2.625  3.4619  0.9450  0.0969
  219SOL    HW2  875   1.067   0.421   2.567  1.9804 -0.7820  1.1474
  219SOL     MW  876   1.131   0.374   2.599  0.6360 -0.2814 -0.0731
  220SOL     OW  877   1.719   0.449   2.211 -0.9362  0.1646 -0.0284
  220SOL    HW1  878   1.641   0.451   2.156  0.5556 -0.1850  0.7914
  220SOL    HW2  879   1.764   0.368   2.189 -0.5302  1.2825 -2.4918
  220SOL     MW  880   1.714   0.439   2.201 -0.6858  0.2659 -0.2452
  221SOL     OW  881   0.344   1.308   2.924  0.0177  0.0109 -0.4267
  221SOL    HW1  882   0.418   1.273   2.876  0.6836 -2.0591  0.6872
  221SOL    HW2  883   0.336   1.394   2.881 -0.2437  2.0850  0.4315
  221SOL     MW  884   0.353   1.315   2.912  0.0711  0.0114 -0.1665
  222SOL     OW  885   0.447   0.974   2.657  0.8733 -0.3533 -0.5383
  222SOL    HW1  886   0.381   0.968   2.587  0.3695 -2.1820 -0.2403
  222SOL    HW2  887   0.486   0.889   2.671 -3.5103 -0.4414 -2.2317
  222SOL     MW  888   0.443   0.962   2.650  0.2284 -0.6062 -0.7224
  223SOL     OW  889   0.099   2.028   2.523  0.2339 -0.0186  0.3992
  223SOL    HW1  890   0.115   1.980   2.605 -1.1402  0.8251 -0.2536
  223SOL    HW2  891   0.117   2.122   2.542  2.6070  0.5880 -1.1095
  223SOL     MW  892   0.103   2.034   2.536  0.3657  0.1727  0.1140
  224SOL     OW  893   1.566   0.732   2.530 -0.2971 -0.5652 -0.4007
  224SOL    HW1  894   1.524   0.743   2.616  0.5861 -0.8807 -0.7119
  224SOL    HW2  895   1.531   0.809   2.482  0.3967  0.9081 -2.6250
  224SOL     MW  896   1.556   0.744   2.535 -0.0890 -0.4124 -0.7353
  225SOL     OW  897   2.947   1.465   2.299 -0.3567  0.3207 -0.0795
  225SOL    HW1  898   3.001   1.519   2.245 -1.9896 -0.5012 -0.6123
  225SOL    HW2  899   2.878   1.519   2.334 -0.6290  2.2985  1.9697
  225SOL     MW  900   2.945   1.479   2.297 -0.6080  0.4732  0.1206
  226SOL     OW  901   0.418   1.526   2.763 -0.0549  0.4324 -0.2859
  226SOL    HW1  902   0.514   1.534   2.747  0.3073  0.2025 -0.7074
  226SOL    HW2  903   0.391   1.609   2.719  2.4569  0.4296  2.4767
  226SOL     MW  904   0.427   1.538   2.755  0.3243  0.4017  0.0230
  227SOL     OW  905   0.543   1.139   2.852 -0.4499 -0.0101 -0.6368
  227SOL    HW1  906   0.635   1.125   2.832 -0.4070 -1.7187  2.6015
  227SOL    HW2  907   0.495   1.100   2.784 -0.4069  1.5217  0.5093
  227SOL     MW  908   0.549   1.132   2.840 -0.4386 -0.0334 -0.0583
  228SOL     OW  909   0.736   1.113   2.039  0.0825  0.5414  0.3749
  228SOL    HW1  910   0.788   1.121   1.957 -0.7469 -0.4094  0.3559
  228SOL    HW2  911   0.777   1.039   2.077  0.5859  1.5894  0.8968
  228SOL     MW  912   0.748   1.104   2.033  0.0395  0.5542  0.4412
  229SOL     OW  913   0.137   0.659   0.062 -0.0493  0.1647  0.0977
  229SOL    HW1  914   0.093   0.632  -0.017 -0.4428 -1.1351  0.0148
  229SOL    HW2  915   0.143   0.582   0.122  0.5612  1.3332  0.6058
  229SOL     MW  916   0.132   0.645   0.060 -0.0206  0.1474  0.1538
  230SOL     OW  917   1.724   1.333   2.027  0.5654 -0.0484  0.1536
  230SOL    HW1  918   1.678   1.300   2.107  1.2260 -2.6645  2.1793
  230SOL    HW2  919   1.768   1.259   1.991 -1.1676 -1.0696 -0.3361
  230SOL     MW  920   1.724   1.319   2.033  0.4239 -0.5283  0.3562
  231SOL     OW  921   2.774   1.264   2.184 -0.0258 -0.3474 -0.4297
  231SOL    HW1  922   2.834   1.328   2.209 -5.0963  0.1206 -1.2533
  231SOL    HW2  923   2.711   1.314   2.138 -0.2839 -0.9935  1.7402
  231SOL     MW  924   2.773   1.279   2.181 -0.7288 -0.3709 -0.2521
  232SOL     OW  925   2.237   0.855   2.013  0.3308  0.0656  0.6852
  232SOL    HW1  926   2.154   0.855   1.963  2.4522  1.2600 -1.0706
  232SOL    HW2  927   2.206   0.851   2.108 -3.6091  1.5876  2.8124
  232SOL     MW  928   2.222   0.854   2.019  0.0908  0.4240  0.7342
  233SOL     OW  929   2.061   0.423   2.048 -0.4181  0.1075 -0.2542
  233SOL    HW1  930   2.131   0.355   2.053  0.3696 -4.2750 -1.3806
  233SOL    HW2  931   2.072   0.476   2.126  1.0231  1.5197 -0.0166
  233SOL     MW  932   2.072   0.421   2.059 -0.1240 -0.2844 -0.3715
  234SOL     OW  933   0.205   1.034   2.508 -0.2651  0.0433  0.5758
  234SOL    HW1  934   0.108   1.026   2.489 -0.0945 -2.5529  0.5660
  234SOL    HW2  935   0.225   1.128   2.504 -0.0813 -0.1092 -3.5002
  234SOL     MW  936   0.195   1.045   2.505 -0.2184 -0.3193  0.0367
  235SOL     OW  937   1.134   3.062   2.781  0.3006 -0.3762  0.3651
  235SOL    HW1  938   1.175   3.047   2.863  0.7250 -1.9078 -1.7563
  235SOL    HW2  939   1.102   3.155   2.790 -0.6660 -0.7842  1.1937
  235SOL     MW  940   1.135   3.072   2.793  0.2291 -0.6321  0.1945
  236SOL     OW  941   2.914   0.583   0.109  0.1108 -0.3854 -0.6255
  236SOL    HW1  942   2.838   0.643   0.095  0.1428  1.7509 -1.7231
  236SOL    HW2  943   2.983   0.646   0.124 -2.0723 -2.2694 -0.5946
  236SOL     MW  944   2.913   0.599   0.109 -0.1730 -0.3521 -0.7662
  237SOL     OW  945   2.019   1.158   2.226 -0.3108 -0.6915  0.1590
  237SOL    HW1  946   1.967   1.116   2.158  2.2308 -0.0802  1.0995
  237SOL    HW2  947   2.076   1.083   2.249 -0.6340  2.2830  0.9120
  237SOL     MW  948   2.020   1.142   2.220 -0.0181 -0.2184  0.3824
  238SOL     OW  949   1.099   1.782   2.965  0.3733 -0.4498 -0.2728
  238SOL    HW1  950   1.044   1.714   2.933 -0.7501  0.3681  1.1239
  238SOL    HW2  951   1.186   1.741   2.956 -0.6952 -2.4433 -0.2017
  238SOL     MW  952   1.104   1.768   2.960  0.0841 -0.6049 -0.0791
  239SOL     OW  953   1.263   1.447   2.382 -0.2402  0.0554 -0.0582
  239SOL    HW1  954   1.197   1.473   2.442 -2.4250 -0.4738 -1.9635
  239SOL    HW2  955   1.285   1.364   2.416  1.5974 -0.0904 -1.6256
  239SOL     MW  956   1.257   1.439   2.394 -0.2860 -0.0336 -0.5164
  240SOL     OW  957   0.622   0.920   2.311 -0.1577 -0.1099  0.1501
  240SOL    HW1  958   0.662   0.941   2.390  1.8635  1.9031 -4.9223
  240SOL    HW2  959   0.698   0.880   2.267 -0.1426  0.9971 -0.0541
  240SOL     MW  960   0.637   0.917   2.316  0.1110  0.3017 -0.5461
  241SOL     OW  961   0.685   0.406   0.021  0.0492 -0.0218 -0.3169
  241SOL    HW1  962   0.699   0.478   0.090 -1.1793  1.1502  2.1519
  241SOL    HW2  963   0.615   0.444  -0.034  0.2336  1.4106  4.4852
  241SOL     MW  964   0.677   0.420   0.023 -0.0886  0.3218  0.6424
  242SOL     OW  965   1.488   1.732   2.310  0.2089 -0.3465 -0.1157
  242SOL    HW1  966   1.448   1.819   2.333 -0.5782  1.5869 -6.3731
  242SOL    HW2  967   1.430   1.691   2.245 -1.4659 -0.0810  0.4576
  242SOL     MW  968   1.475   1.738   2.305 -0.1159 -0.0564 -0.8657
  243SOL     OW  969   0.990   0.172   2.457  0.0930  0.0968 -0.2942
  243SOL    HW1  970   1.056   0.147   2.391 -0.9655  1.6545 -1.4501
  243SOL    HW2  971   1.035   0.235   2.522 -2.4682 -0.9906  1.5535
  243SOL     MW  972   1.004   0.177   2.457 -0.3846  0.1589 -0.2029
  244SOL     OW  973   0.179   0.816   2.350 -0.4307  0.3286 -0.3614
  244SOL    HW1  974   0.179   0.891   2.411  0.4281  2.0771  0.0228
  244SOL    HW2  975   0.272   0.792   2.350 -0.7952 -0.1878 -0.2580
  244SOL     MW  976   0.191   0.822   2.358 -0.3655  0.4912 -0.2971
  245SOL     OW  977   1.240   0.170   2.288  0.4337  0.1750  0.1717
  245SOL    HW1  978   1.257   0.106   2.356 -1.3061  2.2646 -0.8560
  245SOL    HW2  979   1.286   0.237   2.329 -2.0564  1.2323  0.5562
  245SOL     MW  980   1.248   0.170   2.302 -0.1244  0.5902  0.0869
  246SOL     OW  981   1.242   1.156   2.102 -0.5707 -0.0267  0.2151
  246SOL    HW1  982   1.165   1.126   2.155 -2.3430  2.5777 -2.1647
  246SOL    HW2  983   1.320   1.121   2.137 -0.5579 -2.4405  1.3802
  246SOL     MW  984   1.242   1.147   2.114 -0.8029 -0.0016  0.0548
  247SOL     OW  985   0.747   0.594   0.212  0.5494 -0.2693  0.0432
  247SOL    HW1  986   0.706   0.678   0.201 -0.4333 -0.8733  0.9044
  247SOL    HW2  987   0.838   0.614   0.173  1.2972  2.9456  0.3252
  247SOL     MW  988   0.754   0.608   0.206  0.5184  0.0752  0.1940
  248SOL     OW  989   0.318   1.285   2.580  0.4140 -0.0068 -0.7768
  248SOL    HW1  990   0.360   1.304   2.494 -1.1863  0.9637  0.4659
  248SOL    HW2  991   0.377   1.327   2.646 -0.4426  1.0390  2.7661
  248SOL     MW  992   0.331   1.293   2.577  0.0898  0.2592 -0.1454
  249SOL     OW  993   0.101   1.851   2.732 -0.8224 -0.1880 -0.3988
  249SOL    HW1  994   0.106   1.768   2.684  0.0348 -0.0460  3.5251
  249SOL    HW2  995   0.127   1.827   2.819 -0.7700 -0.1737 -0.5278
  249SOL     MW  996   0.105   1.837   2.737 -0.7023 -0.1674  0.1019
  250SOL     OW  997   2.163   0.917   2.281 -1.0730  0.1760 -0.7820
  250SOL    HW1  998   2.161   0.821   2.304  2.1410 -0.4214 -1.0453
  250SOL    HW2  999   2.248   0.955   2.315  1.8388 -2.7501 -0.6886
  250SOL     MW 1000   2.174   0.910   2.288 -0.2647 -0.2889 -0.8044
  251SOL     OW 1001   0.157   0.912   1.941 -0.6245 -0.2197  0.2259
  251SOL    HW1 1002   0.133   0.826   1.962  4.4444  0.6299  2.7518
  251SOL    HW2 1003   0.163   0.906   1.843  0.9400  1.5892  3.0743
  251SOL     MW 1004   0.154   0.900   1.931  0.2507  0.1310  0.9350
  252SOL     OW 1005   1.732   0.974   2.940 -0.4759 -0.1520  0.9009
  252SOL    HW1 1006   1.743   1.047   3.003 -0.8808 -1.4076  0.5874
  252SOL    HW2 1007   1.803   0.994   2.878  0.1260  1.7350 -0.8235
  252SOL     MW 1008   1.743   0.986   2.940 -0.4499 -0.0687  0.6320
  253SOL     OW 1009   1.130   1.739   2.526 -0.1856 -0.6984 -0.4418
  253SOL    HW1 1010   1.139   1.744   2.424  2.6963  3.3298  1.9210
  253SOL    HW2 1011   1.048   1.795   2.537  0.0711 -0.1380 -0.8522
  253SOL     MW 1012   1.120   1.747   2.514  0.2285 -0.0930 -0.1842
  254SOL     OW 1013   1.007   1.078   2.235 -0.6265  0.3962 -0.2162
  254SOL    HW1 1014   0.980   0.996   2.277  3.1149  0.9060  2.7960
  254SOL    HW2 1015   0.953   1.146   2.283  1.1446 -0.8610 -0.3180
  254SOL     MW 1016   0.996   1.076   2.247  0.1008  0.2976  0.1678
  255SOL     OW 1017   0.838   2.529   2.153  0.2452 -0.7094 -0.0653
  255SOL    HW1 1018   0.758   2.479   2.143  0.9064 -1.6731  1.5941
  255SOL    HW2 1019   0.903   2.459   2.155 -2.6699 -1.8355  0.4840
  255SOL     MW 1020   0.836   2.513   2.152 -0.0522 -0.9851  0.2261
  256SOL     OW 1021   1.295   2.716   2.953 -0.7408  0.3209  0.5318
  256SOL    HW1 1022   1.238   2.681   2.882 -0.8697  0.9385  2.0950
  256SOL    HW2 1023   1.383   2.736   2.920  1.2537  3.4858 -1.3727
  256SOL     MW 1024   1.299   2.714   2.940 -0.4947  0.8200  0.4868
  257SOL     OW 1025   0.168   1.945   0.033 -0.4710  0.4476 -0.3075
  257SOL    HW1 1026   0.191   1.899   0.106 -0.0440  2.3709 -1.8493
  257SOL    HW2 1027   0.172   1.879  -0.034 -1.0096  0.7133 -0.3834
  257SOL     MW 1028   0.172   1.930   0.034 -0.4858  0.7364 -0.5209
  258SOL     OW 1029   0.814   0.995   2.533 -0.0563 -0.4987 -0.0698
  258SOL    HW1 1030   0.797   1.076   2.477 -1.7724  2.5768  1.0076
  258SOL    HW2 1031   0.806   1.021   2.627  0.8305 -0.7751 -3.1606
  258SOL     MW 1032   0.810   1.009   2.538 -0.1657 -0.1294 -0.3354
  259SOL     OW 1033   0.911   0.400   2.295 -0.3307  0.5275  0.1592
  259SOL    HW1 1034   0.817   0.389   2.263 -0.3668 -1.4296 -1.4514
  259SOL    HW2 1035   0.937   0.314   2.339  3.6191 -0.6467 -0.1120
  259SOL     MW 1036   0.902   0.388   2.297  0.1857  0.1143 -0.0891
  260SOL     OW 1037   0.594   0.149   1.629  0.6656  0.2042 -0.2739
  260SOL    HW1 1038   0.555   0.122   1.547 -0.5423 -1.4445  2.1957
  260SOL    HW2 1039   0.689   0.152   1.597  1.8562  2.9786 -1.9885
  260SOL     MW 1040   0.601   0.146   1.614  0.6633  0.3527 -0.1743
  261SOL     OW 1041   1.175   0.733   2.030 -0.0723 -0.3681 -0.2301
  261SOL    HW1 1042   1.175   0.727   2.129 -0.4145  0.0399  3.1012
  261SOL    HW2 1043   1.142   0.644   2.002 -2.4774  0.5243 -0.5636
  261SOL     MW 1044   1.171   0.720   2.040 -0.4348 -0.1965  0.1654
  262SOL     OW 1045   1.056   0.304   0.168  0.1284  0.0136 -0.0789
  262SOL    HW1 1046   1.150   0.304   0.150  0.3957  0.7000 -0.2538
  262SOL    HW2 1047   1.011   0.230   0.122  0.5798  2.3999 -1.8466
  262SOL     MW 1048   1.063   0.294   0.159  0.2232  0.4190 -0.3352
  263SOL     OW 1049   0.444   0.046   2.465  0.4934  0.1338  0.0456
  263SOL    HW1 1050   0.353   0.082   2.454  0.9974  1.1096  0.2275
  263SOL    HW2 1051   0.486   0.075   2.383  1.6876 -2.5901 -1.1313
  263SOL     MW 1052   0.438   0.054   2.453  0.7175 -0.0968 -0.0857
  264SOL     OW 1053   1.523   1.343   1.836  0.4390 -0.1849  0.2841
  264SOL    HW1 1054   1.486   1.256   1.841 -1.6811  0.4469 -0.8440
  264SOL    HW2 1055   1.584   1.348   1.907  1.5642  0.6751 -0.1692
  264SOL     MW 1056   1.526   1.332   1.846  0.3077  0.0119  0.0754
  265SOL     OW 1057   0.805   2.800   2.223 -0.1666 -0.0364  0.4534
  265SOL    HW1 1058   0.840   2.714   2.193 -1.3447 -1.1119  2.7433
  265SOL    HW2 1059   0.784   2.785   2.315  1.0511 -1.6808  0.9537
  265SOL     MW 1060   0.807   2.787   2.231 -0.1614 -0.3953  0.8215
  266SOL     OW 1061   0.841   0.784   2.210  0.4292  0.4921 -0.1257
  266SOL    HW1 1062   0.825   0.770   2.114 -1.3222  2.0464 -1.3867
  266SOL    HW2 1063   0.911   0.722   2.230 -1.0934  0.6854 -0.3578
  266SOL     MW 1064   0.848   0.774   2.200 -0.0028  0.7227 -0.3227
  267SOL     OW 1065   1.350   1.781   2.663 -0.2999  0.3684  0.0489
  267SOL    HW1 1066   1.414   1.726   2.615  2.1655  1.1495 -1.0604
  267SOL    HW2 1067   1.277   1.761   2.611  1.2898  0.4103 -1.5400
  267SOL     MW 1068   1.349   1.771   2.650  0.2352  0.4770 -0.3071
  268SOL     OW 1069   0.186   0.892   1.659  0.0535  0.1829 -0.4436
  268SOL    HW1 1070   0.155   0.981   1.629 -2.1593 -1.3682  0.2014
  268SOL    HW2 1071   0.118   0.844   1.613 -1.5174  0.2663 -0.2546
  268SOL     MW 1072   0.173   0.898   1.649 -0.4458 -0.0108 -0.3335
  269SOL     OW 1073   1.359   1.999   2.330 -0.4543 -0.1539 -0.4338
  269SOL    HW1 1074   1.423   2.062   2.357 -1.6795 -0.0847 -1.4097
  269SOL    HW2 1075   1.287   2.022   2.376 -1.0893 -1.0339 -0.4865
  269SOL     MW 1076   1.358   2.010   2.339 -0.6998 -0.2609 -0.5695
  270SOL     OW 1077   1.150   0.393   1.597 -0.2625 -0.2205 -0.1504
  270SOL    HW1 1078   1.132   0.305   1.632 -1.5429  1.1227 -2.3836
  270SOL    HW2 1079   1.240   0.386   1.567  0.9920 -2.8798 -1.8615
  270SOL     MW 1080   1.160   0.380   1.598 -0.2660 -0.3941 -0.6708
  271SOL     OW 1081   0.760   3.101   2.556 -0.7672  0.2632 -0.9058
  271SOL    HW1 1082   0.798   3.023   2.606 -1.1431  0.1921 -0.2981
  271SOL    HW2 1083   0.840   3.163   2.551  0.5303  1.5957  0.3729
  271SOL     MW 1084   0.776   3.099   2.562 -0.6456  0.4297 -0.6569
  272SOL     OW 1085   1.519   2.811   2.811 -0.1351 -0.1485  0.6479
  272SOL    HW1 1086   1.475   2.792   2.724  0.9894 -2.1109 -2.1246
  272SOL    HW2 1087   1.530   2.903   2.826 -1.4655 -1.1352  0.2172
  272SOL     MW 1088   1.515   2.820   2.801 -0.1623 -0.5376  0.2253
  273SOL     OW 1089   1.489   0.913   2.790 -0.1510  0.1410  0.0133
  273SOL    HW1 1090   1.569   0.943   2.834  0.4101 -1.4553 -1.3172
  273SOL    HW2 1091   1.440   0.993   2.797 -1.0511 -1.2728  0.4460
  273SOL     MW 1092   1.493   0.927   2.797 -0.1957 -0.2562 -0.1052
  274SOL     OW 1093   1.421   0.731   0.115 -0.0763  0.1717  0.0737
  274SOL    HW1 1094   1.479   0.660   0.144  2.2610  2.1027 -0.1052
  274SOL    HW2 1095   1.344   0.711   0.169  2.1862  0.4615 -0.1395
  274SOL     MW 1096   1.418   0.719   0.126  0.5306  0.4647  0.0220
  275SOL     OW 1097   1.666   0.542   1.772  0.5683  0.0229 -0.3515
  275SOL    HW1 1098   1.751   0.568   1.811  1.0708  0.2617 -0.1209
  275SOL    HW2 1099   1.662   0.455   1.805  1.4367  0.9022  0.3289
  275SOL     MW 1100   1.677   0.534   1.781  0.7492  0.1705 -0.2313
  276SOL     OW 1101   0.331   1.260   1.952  0.6152  0.3467  0.4727
  276SOL    HW1 1102   0.372   1.175   1.964  2.1482  0.5221  3.6348
  276SOL    HW2 1103   0.294   1.278   2.035  0.6266 -1.2611 -0.3268
  276SOL     MW 1104   0.332   1.251   1.964  0.8190  0.1577  0.7844
  277SOL     OW 1105   1.959   1.143   2.517  0.1634  0.2210 -0.5340
  277SOL    HW1 1106   2.006   1.228   2.514  2.3606  0.8644 -1.0253
  277SOL    HW2 1107   1.940   1.129   2.423  0.0176 -2.0466 -0.0425
  277SOL     MW 1108   1.963   1.153   2.504  0.4340  0.0067 -0.5340
  278SOL     OW 1109   1.384   0.672   1.661 -0.6271 -0.3451  0.1167
  278SOL    HW1 1110   1.352   0.603   1.730 -2.6515 -0.9721 -0.6701
  278SOL    HW2 1111   1.468   0.708   1.698  0.9913 -2.1864 -0.6137
  278SOL     MW 1112   1.391   0.668   1.675 -0.6806 -0.6708 -0.0834
  279SOL     OW 1113   0.565   0.114   2.229 -0.1726 -0.0057 -0.2541
  279SOL    HW1 1114   0.643   0.053   2.242 -0.1030 -0.9324  1.6706
  279SOL    HW2 1115   0.582   0.210   2.241  1.5765  2.2390  1.1503
  279SOL     MW 1116   0.577   0.119   2.232  0.0673  0.1682  0.1851
  280SOL     OW 1117   1.445   0.973   2.148 -0.3567 -0.0894  0.1753
  280SOL    HW1 1118   1.528   0.939   2.105 -1.7586  1.1329 -2.9357
  280SOL    HW2 1119   1.447   0.961   2.242 -3.2767  0.6258 -1.4570
  280SOL     MW 1120   1.456   0.967   2.155 -0.9269  0.1662 -0.4505
  281SOL     OW 1121   1.353   1.307   2.719  0.5115 -0.6951 -0.3164
  281SOL    HW1 1122   1.448   1.327   2.729  1.7386 -4.3050  1.4531
  281SOL    HW2 1123   1.336   1.257   2.802  1.7712 -1.1289 -0.9248
  281SOL     MW 1124   1.363   1.303   2.731  0.8396 -1.2286 -0.1632
  282SOL     OW 1125   1.098   1.297   1.633  0.5043 -0.9716  0.0947
  282SOL    HW1 1126   1.080   1.387   1.603  2.7178 -1.4929 -0.5250
  282SOL    HW2 1127   1.025   1.283   1.695  0.3804 -0.9066  1.7276
  282SOL     MW 1128   1.086   1.307   1.637  0.7800 -1.0318  0.2284
  283SOL     OW 1129   0.825   1.257   3.041  0.0722 -0.1318  0.4037
  283SOL    HW1 1130   0.907   1.295   3.017  0.5326  1.7086 -0.5432
  283SOL    HW2 1131   0.767   1.333   3.048 -3.5198 -0.5186  1.7848
  283SOL     MW 1132   0.828   1.272   3.038 -0.3410  0.0600  0.4610
  284SOL     OW 1133   0.431   0.726   2.368  0.0187  0.4389 -0.3099
  284SOL    HW1 1134   0.501   0.785   2.337 -2.8571  0.6511  0.0880
  284SOL    HW2 1135   0.430   0.654   2.299 -1.1863  1.3707 -1.4281
  284SOL     MW 1136   0.440   0.725   2.355 -0.5197  0.5898 -0.4049
  285SOL     OW 1137   0.930   0.857   2.834 -0.9706  0.4289 -0.1093
  285SOL    HW1 1138   0.994   0.862   2.760  0.3435  1.3192 -0.2195
  285SOL    HW2 1139   0.862   0.791   2.810  0.9775  0.9427  0.8769
  285SOL     MW 1140   0.929   0.849   2.821 -0.5402  0.6142  0.0063
  286SOL     OW 1141   1.155   1.501   2.651 -0.2151  0.1212 -0.7732
  286SOL    HW1 1142   1.244   1.484   2.680 -1.4564  1.9323 -1.9747
  286SOL    HW2 1143   1.147   1.585   2.605 -0.0673 -3.1156 -0.5593
  286SOL     MW 1144   1.166   1.510   2.649 -0.3594 -0.0669 -0.9035
  287SOL     OW 1145   1.156   0.949   0.329  0.0926  1.5463 -0.5814
  287SOL    HW1 1146   1.205   0.998   0.393  0.6650  1.9947 -0.1941
  287SOL    HW2 1147   1.126   1.011   0.254 -0.5971  0.3186  0.6248
  287SOL     MW 1148   1.158   0.964   0.327  0.0771  1.4435 -0.3712
  288SOL     OW 1149   1.505   0.572   2.065 -0.4868 -0.1871 -0.3914
  288SOL    HW1 1150   1.475   0.567   2.155  1.8053  0.5426  1.2491
  288SOL    HW2 1151   1.533   0.663   2.037  0.6328  2.6010  0.2883
  288SOL     MW 1152   1.505   0.583   2.073 -0.0367  0.2770 -0.0852
  289SOL     OW 1153   1.085   0.980   2.578 -0.1912  0.0007 -0.3262
  289SOL    HW1 1154   1.106   0.885   2.579  1.2995 -1.3333 -0.5599
  289SOL    HW2 1155   0.992   0.987   2.560  2.7858 -0.0057 -1.8131
  289SOL     MW 1156   1.075   0.968   2.576  0.3983 -0.1762 -0.5533
  290SOL     OW 1157   0.800   0.615   1.550 -0.1903  0.1910 -0.5491
  290SOL    HW1 1158   0.852   0.557   1.492  0.3962 -2.7656  0.6986
  290SOL    HW2 1159   0.859   0.617   1.625  1.8616 -2.8377  0.7114
  290SOL     MW 1160   0.815   0.608   1.552  0.1578 -0.5987 -0.2181
  291SOL     OW 1161   0.173   0.386   0.110 -0.2122  0.1152 -0.1618
  291SOL    HW1 1162   0.243   0.328   0.140 -1.0557 -0.5044  2.3078
  291SOL    HW2 1163   0.133   0.343   0.035  0.3242  2.9664 -0.3118
  291SOL     MW 1164   0.177   0.373   0.104 -0.2527  0.4096  0.1442
  292SOL     OW 1165   0.995   0.556   0.081 -0.2593  0.3034 -0.0311
  292SOL    HW1 1166   1.050   0.609   0.137 -1.0028  1.4760  1.1015
  292SOL    HW2 1167   1.021   0.465   0.107 -0.5621  3.8159  4.3844
  292SOL     MW 1168   1.005   0.551   0.092 -0.3974  0.9216  0.7009
  293SOL     OW 1169   0.193   0.127   2.456 -0.3849  0.2959 -0.0213
  293SOL    HW1 1170   0.146   0.084   2.388 -0.2932  1.0547 -0.2351
  293SOL    HW2 1171   0.126   0.149   2.523 -1.8423  0.6863  0.1219
  293SOL     MW 1172   0.178   0.124   2.456 -0.5651  0.4475 -0.0306
  294SOL     OW 1173   1.431   0.589   2.329 -0.7634 -0.0083  0.1847
  294SOL    HW1 1174   1.493   0.642   2.382 -1.9658  1.8570  4.2570
  294SOL    HW2 1175   1.440   0.511   2.379  3.0384  2.0382  1.0554
  294SOL     MW 1176   1.441   0.586   2.343 -0.4205  0.5078  0.8369
  295SOL     OW 1177   0.922   0.538   2.532  0.4044 -0.5350 -0.6777
  295SOL    HW1 1178   0.877   0.481   2.469 -0.7924 -1.5459 -0.2211
  295SOL    HW2 1179   0.860   0.567   2.598 -1.9223  1.8773 -0.1464
  295SOL     MW 1180   0.908   0.534   2.532 -0.0605 -0.3501 -0.5474
  296SOL     OW 1181   1.240   0.279   2.027 -0.4298  0.0208  0.2164
  296SOL    HW1 1182   1.325   0.239   2.006 -0.8259 -0.6182  0.4357
  296SOL    HW2 1183   1.231   0.263   2.123  0.6108 -1.5792 -2.0142
  296SOL     MW 1184   1.250   0.272   2.037 -0.3448 -0.2746 -0.0490
  297SOL     OW 1185   1.436   0.412   1.536  0.3403  0.0882 -0.3583
  297SOL    HW1 1186   1.434   0.493   1.581  1.7287 -2.8563  1.3313
  297SOL    HW2 1187   1.459   0.342   1.595  0.9228 -0.6927  0.3868
  297SOL     MW 1188   1.439   0.414   1.549  0.6004 -0.4033 -0.0370
  298SOL     OW 1189   1.638   0.845   2.012 -0.2368  0.1471 -0.2180
  298SOL    HW1 1190   1.683   0.914   1.966  1.7573 -1.4700  1.4211
  298SOL    HW2 1191   1.704   0.826   2.084  3.4479  1.3775  1.8786
  298SOL     MW 1192   1.653   0.851   2.015  0.5124  0.0961  0.2749
  299SOL     OW 1193   0.581   1.102   0.041  0.5003  0.1251  0.0044
  299SOL    HW1 1194   0.546   1.107  -0.054  3.4077  2.4579 -1.1981
  299SOL    HW2 1195   0.676   1.122   0.038 -0.4517 -0.6704 -2.0139
  299SOL     MW 1196   0.589   1.105   0.028  0.7583  0.3279 -0.4205
  300SOL     OW 1197   1.279   1.175   2.478 -1.1351  0.6267 -0.3134
  300SOL    HW1 1198   1.217   1.106   2.503  2.5975 -0.9190  1.8015
  300SOL    HW2 1199   1.300   1.216   2.560  0.4929 -1.6057 -0.3910
  300SOL     MW 1200   1.273   1.171   2.492 -0.4278  0.1282 -0.0446
  301SOL     OW 1201   1.478   0.971   0.655 -0.4797  0.6862  0.0081
  301SOL    HW1 1202   1.497   0.996   0.746 -2.9078  1.4073 -1.1479
  301SOL    HW2 1203   1.411   0.895   0.652 -0.2899 -1.3530  1.8962
  301SOL     MW 1204   1.472   0.964   0.667 -0.7750  0.5123  0.1047
  302SOL     OW 1205   0.140   1.602   1.993  0.8817 -0.3518 -0.5866
  302SOL    HW1 1206   0.161   1.545   2.068 -1.4762  0.3550  0.0893
  302SOL    HW2 1207   0.054   1.629   2.029  0.8036  0.5998  1.0832
  302SOL     MW 1208   0.132   1.598   2.008  0.5603 -0.1330 -0.2771
  303SOL     OW 1209   0.394   1.786   2.667 -0.2087 -0.6057  0.2787
  303SOL    HW1 1210   0.342   1.796   2.587 -2.3584  1.9633  3.3644
  303SOL    HW2 1211   0.325   1.813   2.732 -1.4422  1.3544 -1.0868
  303SOL     MW 1212   0.378   1.791   2.665 -0.6550 -0.0081  0.5057
  304SOL     OW 1213   0.521   2.048   2.349 -0.2173 -0.0843 -0.2146
  304SOL    HW1 1214   0.589   2.105   2.302  0.5298 -0.2233 -0.3973
  304SOL    HW2 1215   0.570   1.967   2.342  1.1999  3.7484 -3.7754
  304SOL     MW 1216   0.536   2.044   2.342  0.0683  0.4030 -0.7085
  305SOL     OW 1217   1.093   0.554   0.501 -0.2398  0.1958  0.1513
  305SOL    HW1 1218   0.998   0.538   0.510  0.6849  2.2057  1.5477
  305SOL    HW2 1219   1.141   0.480   0.538  0.4150  0.9856  1.5870
  305SOL     MW 1220   1.087   0.543   0.507 -0.0314  0.5652  0.5250
  306SOL     OW 1221   1.178   1.535   0.285 -0.2183  0.4255 -0.3376
  306SOL    HW1 1222   1.214   1.443   0.307 -0.2450  1.1514  0.2890
  306SOL    HW2 1223   1.234   1.551   0.214  1.8017  0.5655  2.5018
  306SOL     MW 1224   1.190   1.525   0.279  0.0447  0.5397  0.1197
  307SOL     OW 1225   1.346   0.484   1.848  0.2003  0.1414 -0.5226
  307SOL    HW1 1226   1.289   0.414   1.873 -0.5242  0.0767  0.7473
  307SOL    HW2 1227   1.391   0.516   1.930 -0.3801 -0.9148  2.6007
  307SOL     MW 1228   1.344   0.479   1.862  0.0281 -0.0064  0.0570
  308SOL     OW 1229   2.199   0.531   2.723 -0.4842 -0.6919  0.1918
  308SOL    HW1 1230   2.296   0.514   2.708  2.9273  0.0898 -0.5896
  308SOL    HW2 1231   2.162   0.598   2.666 -0.0499  0.9343 -1.2643
  308SOL     MW 1232   2.207   0.538   2.714  0.0232 -0.3742 -0.1034
  309SOL     OW 1233   0.483   0.510   0.272  0.1292  0.0065 -0.8079
  309SOL    HW1 1234   0.541   0.562   0.223 -1.3957  0.5806 -0.6813
  309SOL    HW2 1235   0.479   0.423   0.230 -1.2538 -0.0042 -1.5213
  309SOL     MW 1236   0.490   0.505   0.260 -0.2544  0.0808 -0.8853
  310SOL     OW 1237   0.426   0.589   1.922 -0.2127 -0.3198 -0.2082
  310SOL    HW1 1238   0.444   0.505   1.870  0.3785 -0.4744  2.0599
  310SOL    HW2 1239   0.477   0.656   1.877  1.3240 -1.2161 -1.2043
  310SOL     MW 1240   0.435   0.587   1.909  0.0680 -0.4585 -0.0404
  311SOL     OW 1241   1.902   0.587   1.929  0.2007  0.3935 -0.3815
  311SOL    HW1 1242   1.859   0.612   2.015  1.3842  2.0117 -0.5757
  311SOL    HW2 1243   1.977   0.532   1.966 -0.3914 -0.1734  1.6734
  311SOL     MW 1244   1.906   0.583   1.946  0.2787  0.5322 -0.1360
  312SOL     OW 1245   1.807   2.471   0.162  0.4793 -0.3320  0.3501
  312SOL    HW1 1246   1.877   2.425   0.206 -0.0477  0.1022 -1.8050
  312SOL    HW2 1247   1.759   2.525   0.226 -1.1015 -2.3032 -0.7978
  312SOL     MW 1248   1.810   2.472   0.176  0.2012 -0.5348 -0.0857
  313SOL     OW 1249   0.129   1.152   2.956  0.0771 -0.0359  0.0395
  313SOL    HW1 1250   0.120   1.159   3.057  1.7519  1.7256  2.1499
  313SOL    HW2 1251   0.204   1.210   2.948 -0.0906 -0.0118  0.2237
  313SOL     MW 1252   0.138   1.161   2.969  0.2759  0.1997  0.3422
  314SOL     OW 1253   2.173   3.011   2.944  0.1825  0.0027  0.1296
  314SOL    HW1 1254   2.088   3.052   2.919  0.7342 -1.7128 -1.2992
  314SOL    HW2 1255   2.219   3.058   3.013  0.4424  1.1864 -0.5654
  314SOL     MW 1256   2.168   3.023   2.950  0.2896 -0.0674 -0.1506
  315SOL     OW 1257   1.528   1.866   3.012  0.0693 -0.2287 -0.5769
  315SOL    HW1 1258   1.524   1.899   3.095 -0.1345 -2.1670 -1.2203
  315SOL    HW2 1259   1.555   1.946   2.957 -0.9334 -0.4243  0.8619
  315SOL     MW 1260   1.531   1.881   3.015 -0.0899 -0.5102 -0.4719
  316SOL     OW 1261   1.325   0.517   2.718 -0.0855 -0.0097  0.2354
  316SOL    HW1 1262   1.410   0.503   2.748 -1.4563  0.5833  0.1575
  316SOL    HW2 1263   1.272   0.566   2.785  0.1243 -0.2081  1.4853
  316SOL     MW 1264   1.329   0.522   2.731 -0.2387  0.0424  0.3900
  317SOL     OW 1265   0.656   1.478   2.629 -0.1286  0.5985  0.6511
  317SOL    HW1 1266   0.718   1.409   2.613  1.1188 -1.5299 -0.9040
  317SOL    HW2 1267   0.648   1.505   2.534  0.5117  1.3908  0.7654
  317SOL     MW 1268   0.663   1.473   2.614  0.1204  0.4222  0.4610
  318SOL     OW 1269   1.351   0.358   2.971  0.8973 -0.2404 -0.0954
  318SOL    HW1 1270   1.270   0.413   2.946  0.1220  1.2876 -1.2355
  318SOL    HW2 1271   1.420   0.422   2.951 -1.3620  1.4156 -1.7543
  318SOL     MW 1272   1.349   0.374   2.965  0.4969  0.1797 -0.4647
  319SOL     OW 1273   0.849   0.417   2.879  0.2051 -0.3364  0.2982
  319SOL    HW1 1274   0.805   0.339   2.836  0.6941  0.3045  0.2265
  319SOL    HW2 1275   0.804   0.428   2.960  0.5614  0.4779  0.5261
  319SOL     MW 1276   0.837   0.408   2.884  0.3167 -0.1444  0.3188
  320SOL     OW 1277   1.072   1.355   1.994  0.2919  0.1304 -0.3822
  320SOL    HW1 1278   1.139   1.305   2.046 -0.3929 -0.1817  1.2614
  320SOL    HW2 1279   1.129   1.402   1.934  2.0805 -1.7724  1.2011
  320SOL     MW 1280   1.089   1.355   1.993  0.4375 -0.1619  0.0436
  321SOL     OW 1281   1.117   0.955   3.014  0.0201 -0.1290  0.4704
  321SOL    HW1 1282   1.046   0.926   2.956  1.9044 -1.5249 -2.0747
  321SOL    HW2 1283   1.171   0.882   3.003 -0.7855  0.2328  2.9380
  321SOL     MW 1284   1.115   0.942   3.005  0.1624 -0.2655  0.4602
  322SOL     OW 1285   1.174   0.854   1.676 -0.1401  0.1631 -0.2834
  322SOL    HW1 1286   1.252   0.790   1.677 -1.3391  1.2725  3.1546
  322SOL    HW2 1287   1.175   0.884   1.769 -1.5567  0.9685 -0.9955
  322SOL     MW 1288   1.184   0.849   1.689 -0.4852  0.4157  0.0763
  323SOL     OW 1289   1.242   1.541   1.877  0.1588 -0.5107  0.1609
  323SOL    HW1 1290   1.282   1.560   1.789  0.2060  2.7587  0.3189
  323SOL    HW2 1291   1.186   1.626   1.887  0.1227 -0.6946 -0.3371
  323SOL     MW 1292   1.240   1.554   1.867  0.1603 -0.1036  0.1161
  324SOL     OW 1293   1.477   0.981   2.433  0.2698  0.3972 -0.2358
  324SOL    HW1 1294   1.403   1.032   2.435  1.7788  0.6557  0.6481
  324SOL    HW2 1295   1.541   1.049   2.448 -2.3587  1.4783  0.1391
  324SOL     MW 1296   1.476   0.997   2.435  0.1221  0.5739 -0.0697
  325SOL     OW 1297   1.119   0.515   2.918 -0.2488 -0.0896  0.1337
  325SOL    HW1 1298   1.121   0.567   3.002 -1.9229  2.3334 -0.2807
  325SOL    HW2 1299   1.027   0.500   2.913  2.8085  0.6544  1.1629
  325SOL     MW 1300   1.107   0.520   2.928 -0.0663  0.3283  0.2148
  326SOL     OW 1301   0.448   1.352   2.348 -0.6548  0.5673 -0.1935
  326SOL    HW1 1302   0.509   1.302   2.300  0.4501 -0.9851  1.9062
  326SOL    HW2 1303   0.449   1.438   2.316 -0.1565 -2.6411  2.1057
  326SOL     MW 1304   0.457   1.356   2.338 -0.4433 -0.0609  0.3869
  327SOL     OW 1305   1.909   0.777   2.436 -0.0436 -0.6472  0.3462
  327SOL    HW1 1306   1.855   0.724   2.495  2.2641  0.6418  0.5377
  327SOL    HW2 1307   1.942   0.854   2.482 -1.3604  2.7169 -0.3701
  327SOL     MW 1308   1.906   0.780   2.450  0.0872 -0.0333  0.2769
  328SOL     OW 1309   0.181   1.356   2.161  0.0321 -0.6033 -0.2995
  328SOL    HW1 1310   0.131   1.273   2.161 -1.1864 -1.1705 -2.8310
  328SOL    HW2 1311   0.249   1.346   2.226 -0.0982 -2.6892 -2.4549
  328SOL     MW 1312   0.183   1.344   2.170 -0.1458 -0.9534 -0.9179
  329SOL     OW 1313   0.097   0.244   1.403 -0.2083 -0.6033  0.0392
  329SOL    HW1 1314   0.093   0.229   1.502 -1.7597 -2.5998  1.0117
  329SOL    HW2 1315   0.191   0.254   1.391 -1.4552 -2.1158 -2.5222
  329SOL     MW 1316   0.109   0.243   1.414 -0.5775 -1.0662 -0.1704
  330SOL     OW 1317   0.384   3.066   2.073 -0.3803 -0.3740 -0.3506
  330SOL    HW1 1318   0.433   3.119   2.138 -0.3270 -0.0231 -2.4853
  330SOL    HW2 1319   0.341   2.995   2.120  0.0403 -0.9038 -0.9580
  330SOL     MW 1320   0.385   3.064   2.088 -0.3178 -0.3976 -0.7124
  331SOL     OW 1321   0.820   1.261   2.372 -0.0221 -0.0508  0.9148
  331SOL    HW1 1322   0.791   1.317   2.295  1.4237  1.4463  0.9629
  331SOL    HW2 1323   0.856   1.320   2.438 -2.3083  0.3480  2.9763
  331SOL     MW 1324   0.821   1.276   2.370 -0.1330  0.1994  1.1932
  332SOL     OW 1325   1.335   1.696   2.909 -0.0060 -0.0943 -0.2084
  332SOL    HW1 1326   1.343   1.721   2.815 -3.0296  0.2756 -0.9305
  332SOL    HW2 1327   1.397   1.758   2.949 -0.8282 -0.4360 -1.4176
  332SOL     MW 1328   1.344   1.707   2.902 -0.5134 -0.0906 -0.4632
  333SOL     OW 1329   1.735   1.359   2.955 -0.1195  0.3241 -0.5964
  333SOL    HW1 1330   1.829   1.364   2.957  2.3841 -2.0828 -3.9135
  333SOL    HW2 1331   1.722   1.307   3.032  0.8626 -1.0815  0.0005
  333SOL     MW 1332   1.746   1.353   2.965  0.3404 -0.1789 -0.9553
  334SOL     OW 1333   1.277   0.046   2.567 -0.6981 -1.1295 -0.1336
  334SOL    HW1 1334   1.218   0.020   2.636  1.9549  0.2584  0.8763
  334SOL    HW2 1335   1.339   0.103   2.619 -1.7375  1.9248  0.6069
  334SOL     MW 1336   1.277   0.050   2.583 -0.4852 -0.5434  0.0974
  335SOL     OW 1337   1.333   0.739   2.957 -0.1805 -0.3986  0.0890
  335SOL    HW1 1338   1.365   0.747   3.048  2.7039  0.1246 -2.3546
  335SOL    HW2 1339   1.400   0.796   2.905 -1.9651  1.6214  0.1595
  335SOL     MW 1340   1.346   0.748   2.962 -0.0353 -0.0631 -0.2241
  336SOL     OW 1341   0.926   1.168   1.840 -0.1074  0.1941 -0.5178
  336SOL    HW1 1342   0.946   1.232   1.913 -1.0035 -2.0115 -2.6284
  336SOL    HW2 1343   0.992   1.101   1.864 -0.7911 -0.5791 -1.3214
  336SOL     MW 1344   0.938   1.167   1.853 -0.3158 -0.1989 -0.9023
  337SOL     OW 1345   0.666   1.814   2.797  0.1234  0.0485 -0.4102
  337SOL    HW1 1346   0.588   1.814   2.740  0.0556  1.3272  1.0916
  337SOL    HW2 1347   0.730   1.751   2.774  0.6188 -0.1933 -1.0122
  337SOL     MW 1348   0.664   1.805   2.786  0.1798  0.1853 -0.2915
  338SOL     OW 1349   1.133   0.697   2.599  0.4580  0.4977 -0.1094
  338SOL    HW1 1350   1.054   0.641   2.589 -0.4922  1.3951  0.2037
  338SOL    HW2 1351   1.191   0.638   2.650 -2.7002 -0.9252 -0.9788
  338SOL     MW 1352   1.130   0.682   2.605 -0.0840  0.4284 -0.1828
  339SOL     OW 1353   1.490   1.064   1.841  0.3044  0.0715  0.0741
  339SOL    HW1 1354   1.411   1.050   1.789  0.7806 -0.7686  0.4911
  339SOL    HW2 1355   1.468   1.021   1.922 -1.1871 -2.6434 -1.8787
  339SOL     MW 1356   1.476   1.056   1.845  0.1705 -0.3975 -0.1285
  340SOL     OW 1357   1.317   1.514   0.047  0.6242  0.1949 -0.0919
  340SOL    HW1 1358   1.328   1.573  -0.023 -0.4592 -4.4466 -1.4207
  340SOL    HW2 1359   1.405   1.476   0.070  0.2855 -0.5939 -0.4113
  340SOL     MW 1360   1.330   1.517   0.041  0.4366 -0.5216 -0.3093
  341SOL     OW 1361   0.034   1.330   2.738  0.2514  0.0244 -0.0658
  341SOL    HW1 1362   0.119   1.291   2.726 -0.9821  0.1621 -2.7475
  341SOL    HW2 1363  -0.005   1.318   2.646  0.4722 -1.4561 -0.6347
  341SOL     MW 1364   0.040   1.324   2.724  0.1178 -0.1528 -0.4947
  342SOL     OW 1365   1.317   0.350   0.136  0.1977  0.1294  0.3216
  342SOL    HW1 1366   1.357   0.414   0.185 -1.4688 -0.7136 -0.7246
  342SOL    HW2 1367   1.333   0.363   0.041 -0.8205 -0.9671 -2.5365
  342SOL     MW 1368   1.324   0.360   0.130 -0.1565 -0.1265 -0.1935
  343SOL     OW 1369   0.270   0.306   2.130  0.0859  0.0444  0.7061
  343SOL    HW1 1370   0.338   0.258   2.089  0.9233 -2.1617 -0.7444
  343SOL    HW2 1371   0.195   0.273   2.078 -3.6354  1.0474  3.9405
  343SOL     MW 1372   0.269   0.295   2.118 -0.2946 -0.1143  0.9415
  344SOL     OW 1373   1.707   2.046   0.182 -0.0390  0.1176 -0.1208
  344SOL    HW1 1374   1.725   2.132   0.137  0.8444  1.1558  1.0920
  344SOL    HW2 1375   1.617   2.053   0.196  0.0629  0.9887  4.0081
  344SOL     MW 1376   1.697   2.058   0.178  0.0910  0.3695  0.5840
  345SOL     OW 1377   0.709   1.582   2.343  0.0389  0.3874  0.3701
  345SOL    HW1 1378   0.648   1.523   2.298  0.1800 -2.4422 -0.3031
  345SOL    HW2 1379   0.796   1.561   2.301  0.6318 -1.6027  0.3226
  345SOL     MW 1380   0.712   1.571   2.332  0.1357 -0.2485  0.2750
  346SOL     OW 1381   1.762   1.158   0.042 -0.3083 -0.1939 -0.1271
  346SOL    HW1 1382   1.842   1.195   0.073 -0.0674  1.4592 -0.2560
  346SOL    HW2 1383   1.749   1.079   0.099  0.7291 -3.0937 -0.3754
  346SOL     MW 1384   1.771   1.153   0.054 -0.1396 -0.3584 -0.1769
  347SOL     OW 1385   1.165   0.636   2.303 -0.0692  0.3190  0.4236
  347SOL    HW1 1386   1.255   0.618   2.319  0.9088 -0.5704 -0.1619
  347SOL    HW2 1387   1.140   0.664   2.392  1.2414 -0.4027 -2.9566
  347SOL     MW 1388   1.173   0.637   2.317  0.2328  0.1064 -0.0997
  348SOL     OW 1389   1.298   2.633   1.876 -0.3042 -0.4191 -0.3045
  348SOL    HW1 1390   1.330   2.549   1.918 -2.3422 -1.0090 -1.0546
  348SOL    HW2 1391   1.331   2.703   1.932  1.5605  0.6591  1.9569
  348SOL     MW 1392   1.307   2.632   1.889 -0.3271 -0.3547 -0.1051
  349SOL     OW 1393   1.445   0.208   2.704 -0.1122 -0.0768 -0.0079
  349SOL    HW1 1394   1.403   0.243   2.782  1.6088 -0.4294 -0.5547
  349SOL    HW2 1395   1.526   0.182   2.740 -1.3098  1.5948 -2.3395
  349SOL     MW 1396   1.450   0.209   2.719 -0.0431  0.0972 -0.3876
  350SOL     OW 1397   1.843   0.635   2.666 -0.1956  0.4335 -0.2963
  350SOL    HW1 1398   1.776   0.586   2.621 -0.5537  1.3371 -0.3978
  350SOL    HW2 1399   1.881   0.569   2.727 -3.5893  3.1935 -0.6948
  350SOL     MW 1400   1.839   0.620   2.668 -0.6906  0.9169 -0.3623
  351SOL     OW 1401   0.096   1.133   1.577 -0.1160  0.0924  0.8771
  351SOL    HW1 1402   0.023   1.144   1.637 -1.6059  2.1387  2.7415
  351SOL    HW2 1403   0.162   1.198   1.621 -0.4546  3.5550 -0.1591
  351SOL     MW 1404   0.095   1.143   1.590 -0.3572  0.8192  0.9864
  352SOL     OW 1405   0.881   1.639   2.733  0.0635  0.0548  0.3840
  352SOL    HW1 1406   0.880   1.599   2.814  2.4874 -1.8748 -2.0472
  352SOL    HW2 1407   0.831   1.577   2.678  0.4145  0.4232 -1.5639
  352SOL     MW 1408   0.874   1.626   2.737  0.4296 -0.1512 -0.1938
  353SOL     OW 1409   0.007   2.506   2.725  0.9239 -0.1967  0.3734
  353SOL    HW1 1410   0.098   2.506   2.754 -1.8854 -0.0883  1.1727
  353SOL    HW2 1411   0.001   2.595   2.683 -1.0406  0.8766  1.3668
  353SOL     MW 1412   0.018   2.518   2.723  0.2941 -0.0408  0.6099
  354SOL     OW 1413   0.273   2.455   0.802 -0.0252  0.1557 -0.4103
  354SOL    HW1 1414   0.338   2.454   0.869 -1.7359  0.7476 -0.8537
  354SOL    HW2 1415   0.213   2.385   0.835  0.9672  4.1644  2.4891
  354SOL     MW 1416   0.274   2.446   0.816 -0.1199  0.7627 -0.0863
  355SOL     OW 1417   3.097   2.227   0.361 -0.5070 -0.2111  0.0858
  355SOL    HW1 1418   3.009   2.189   0.368  0.3920 -2.2187 -1.6984
  355SOL    HW2 1419   3.115   2.265   0.442 -1.1756  1.6935 -2.6489
  355SOL     MW 1420   3.087   2.227   0.373 -0.4766 -0.2247 -0.5104
  356SOL     OW 1421   0.845   2.798   0.968 -0.1390 -0.0666  0.2918
  356SOL    HW1 1422   0.892   2.851   0.896 -0.2928  1.8447  0.7718
  356SOL    HW2 1423   0.752   2.823   0.954 -1.6268  1.8458  0.7889
  356SOL     MW 1424   0.839   2.808   0.956 -0.3556  0.4379  0.4207
  357SOL     OW 1425   1.773   2.899   0.373  0.1913 -0.2389  0.4270
  357SOL    HW1 1426   1.737   2.827   0.425  0.1618 -0.4168 -0.5880
  357SOL    HW2 1427   1.863   2.865   0.358  0.2534  1.5283 -0.8181
  357SOL     MW 1428   1.780   2.885   0.378  0.1956 -0.0292  0.1288
  358SOL     OW 1429   0.463   0.147   1.037  0.0859 -0.2987 -0.4498
  358SOL    HW1 1430   0.550   0.118   1.012 -0.4747  1.9509 -0.3941
  358SOL    HW2 1431   0.432   0.180   0.957  3.2157 -0.1558  2.0086
  358SOL     MW 1432   0.470   0.148   1.023  0.4249  0.0170 -0.1181
  359SOL     OW 1433   0.847   2.864   1.844 -0.4724 -0.5143  0.3638
  359SOL    HW1 1434   0.804   2.782   1.862 -1.4457  0.1738  3.3502
  359SOL    HW2 1435   0.864   2.864   1.747  0.8587 -1.5933 -1.0063
  359SOL     MW 1436   0.843   2.853   1.833 -0.4252 -0.5659  0.5771
  360SOL     OW 1437   0.579   2.808   0.924  0.1619 -0.2252 -0.2980
  360SOL    HW1 1438   0.595   2.792   0.831  1.4085  0.9377 -0.4361
  360SOL    HW2 1439   0.568   2.721   0.966  0.0579  1.3924 -1.4278
  360SOL     MW 1440   0.580   2.794   0.917  0.3126  0.1416 -0.4653
  361SOL     OW 1441   0.214   2.632   1.345  0.5418 -0.0930 -0.3663
  361SOL    HW1 1442   0.212   2.686   1.422  2.9690 -1.2906  0.6915
  361SOL    HW2 1443   0.312   2.629   1.333 -1.1460 -0.7795  1.4525
  361SOL     MW 1444   0.227   2.639   1.353  0.6393 -0.3415  0.0132
  362SOL     OW 1445   1.456   2.446   0.645 -0.0186 -0.7142  0.0913
  362SOL    HW1 1446   1.474   2.381   0.717 -0.4322  1.2280  0.0216
  362SOL    HW2 1447   1.528   2.515   0.658 -0.1468 -1.8790 -0.3626
  362SOL     MW 1448   1.468   2.447   0.657 -0.0901 -0.6116  0.0222
  363SOL     OW 1449   0.306   3.096   0.676  0.3621  0.3613 -0.5723
  363SOL    HW1 1450   0.301   3.035   0.749 -0.5625  3.9176 -2.1508
  363SOL    HW2 1451   0.222   3.099   0.631 -0.9209  0.1398  0.0737
  363SOL     MW 1452   0.294   3.088   0.680  0.0708  0.8013 -0.6953
  364SOL     OW 1453   0.765   0.216   0.232 -0.0052  0.1362  0.0313
  364SOL    HW1 1454   0.692   0.150   0.244  1.6351  0.1137  1.3335
  364SOL    HW2 1455   0.738   0.266   0.153  0.1186  2.8288  2.0700
  364SOL     MW 1456   0.751   0.214   0.223  0.2276  0.4885  0.4721
  365SOL     OW 1457   0.983   2.019   1.179  0.4393 -0.7272  0.5008
  365SOL    HW1 1458   0.938   2.092   1.140 -3.1396 -2.0461 -1.5383
  365SOL    HW2 1459   0.935   1.944   1.134  1.6144 -0.0103 -1.0992
  365SOL     MW 1460   0.971   2.019   1.168  0.1221 -0.8067  0.0206
  366SOL     OW 1461   2.890   2.680   0.992  0.3431 -0.4418  0.1773
  366SOL    HW1 1462   2.967   2.680   1.051 -1.5708 -1.8355 -1.6120
  366SOL    HW2 1463   2.923   2.686   0.900  2.5754 -0.5784  0.7568
  366SOL     MW 1464   2.905   2.681   0.988  0.3851 -0.6437  0.0177
  367SOL     OW 1465   1.241   2.957   0.898  0.4161 -0.5054 -0.3341
  367SOL    HW1 1466   1.262   3.040   0.845 -0.8168 -0.5663 -2.2744
  367SOL    HW2 1467   1.223   2.884   0.837 -1.7613 -0.4033 -2.4731
  367SOL     MW 1468   1.241   2.959   0.883 -0.0339 -0.5000 -0.8723
  368SOL     OW 1469   1.649   0.354   0.745 -0.1172 -0.3310 -0.0676
  368SOL    HW1 1470   1.727   0.326   0.694 -1.8175 -0.2147 -0.1837
  368SOL    HW2 1471   1.666   0.448   0.737  3.3833 -1.9200 -1.2502
  368SOL     MW 1472   1.661   0.363   0.737  0.1204 -0.5253 -0.2390
  369SOL     OW 1473   0.135   2.418   1.800 -0.3824 -0.6634  0.1740
  369SOL    HW1 1474   0.235   2.426   1.796 -0.7485  0.9458 -1.0332
  369SOL    HW2 1475   0.109   2.511   1.783 -0.3019 -3.9052  2.3762
  369SOL     MW 1476   0.145   2.431   1.797 -0.4201 -0.8788  0.3053
  370SOL     OW 1477   0.729   0.130   0.960  0.4383  0.9566 -0.4026
  370SOL    HW1 1478   0.729   0.215   0.994 -2.0390 -2.2322 -0.7050
  370SOL    HW2 1479   0.822   0.095   0.958  1.0434 -0.9377 -0.5542
  370SOL     MW 1480   0.741   0.136   0.964  0.1913  0.2859 -0.4625
  371SOL     OW 1481   1.348   2.900   1.525 -0.2893 -0.9413  0.0000
  371SOL    HW1 1482   1.285   2.830   1.501 -0.8898  1.6484 -1.5220
  371SOL    HW2 1483   1.317   2.964   1.462 -0.5526 -1.1269  3.1946
  371SOL     MW 1484   1.335   2.899   1.513 -0.4033 -0.6241  0.2207
  372SOL     OW 1485   0.788   2.274   0.486  1.0503 -0.0381  0.6339
  372SOL    HW1 1486   0.760   2.183   0.496 -1.9313 -0.0938  0.2910
  372SOL    HW2 1487   0.797   2.269   0.390  0.5346 -3.1564 -3.0630
  372SOL     MW 1488   0.785   2.261   0.474  0.5888 -0.4569  0.1009
  373SOL     OW 1489   2.818   3.013   1.459 -0.3800 -0.4637  0.2554
  373SOL    HW1 1490   2.902   2.993   1.416  0.1403 -1.9267 -1.4072
  373SOL    HW2 1491   2.774   3.082   1.407  1.6625 -2.7024  1.6687
  373SOL     MW 1492   2.823   3.019   1.446 -0.0419 -0.9521  0.2225
  374SOL     OW 1493   1.507   0.507   0.253 -0.4322  0.7731  0.6321
  374SOL    HW1 1494   1.564   0.478   0.187  0.0209  1.1629  1.1199
  374SOL    HW2 1495   1.546   0.492   0.341 -1.3644  0.9980  2.7072
  374SOL     MW 1496   1.519   0.501   0.256 -0.4954  0.8542  0.9702
  375SOL     OW 1497   0.961   2.104   2.244  0.1974 -0.2905 -0.2764
  375SOL    HW1 1498   1.023   2.086   2.316  2.5066 -1.1113 -1.2002
  375SOL    HW2 1499   0.942   2.028   2.188  0.5919 -3.5639 -0.7837
  375SOL     MW 1500   0.967   2.092   2.246  0.5541 -0.8307 -0.4652
  376SOL     OW 1501   0.799   2.558   0.069  0.4732  0.5340 -0.5170
  376SOL    HW1 1502   0.762   2.532   0.152 -0.9132 -1.8066  1.3698
  376SOL    HW2 1503   0.756   2.490   0.020 -1.6550 -3.0948 -1.4330
  376SOL     MW 1504   0.788   2.546   0.073  0.0095 -0.2536 -0.3889
  377SOL     OW 1505   1.253   2.004   0.847  0.1188 -0.1373 -0.3862
  377SOL    HW1 1506   1.172   1.998   0.784  0.5741 -0.2560 -0.3870
  377SOL    HW2 1507   1.221   1.968   0.929 -0.2956  1.6645 -0.3059
  377SOL     MW 1508   1.238   1.998   0.850  0.1242  0.0848 -0.3757
  378SOL     OW 1509   0.874   2.844   1.581  0.1579  0.3120 -0.1607
  378SOL    HW1 1510   0.889   2.746   1.581 -1.5247 -1.4060 -0.1653
  378SOL    HW2 1511   0.884   2.890   1.499  5.9042  2.0100  2.1120
  378SOL     MW 1512   0.877   2.837   1.570  0.6940  0.3093  0.1385
  379SOL     OW 1513   1.142   1.713   2.257 -1.1548 -0.6837 -0.3754
  379SOL    HW1 1514   1.077   1.661   2.213 -0.6628 -0.0564 -2.7607
  379SOL    HW2 1515   1.221   1.672   2.214  2.2242 -1.4571  2.3841
  379SOL     MW 1516   1.144   1.701   2.246 -0.6441 -0.7029 -0.3260
  380SOL     OW 1517   0.843   0.112   1.533  0.5868 -0.0640 -0.7219
  380SOL    HW1 1518   0.860   0.059   1.449  0.3984 -1.6731 -2.1461
  380SOL    HW2 1519   0.925   0.140   1.573  2.2518  0.1958 -0.7200
  380SOL     MW 1520   0.856   0.109   1.527  0.7816 -0.2420 -0.9095
  381SOL     OW 1521   0.768   2.018   0.819 -0.2836  0.4501  0.6787
  381SOL    HW1 1522   0.857   2.006   0.785  0.8115  0.3168 -1.8308
  381SOL    HW2 1523   0.769   2.101   0.874 -2.5329  1.3294 -1.0256
  381SOL     MW 1524   0.780   2.027   0.822 -0.4359  0.5486  0.1227
  382SOL     OW 1525   0.719   0.089   0.653 -0.2191 -0.3038 -0.6614
  382SOL    HW1 1526   0.681   0.098   0.741  1.4477 -0.8359 -1.6309
  382SOL    HW2 1527   0.718  -0.002   0.623  0.1340  3.5304  0.5212
  382SOL     MW 1528   0.714   0.078   0.661  0.0474  0.1319 -0.6333
  383SOL     OW 1529   0.541   0.037   0.274  0.0480 -0.1285  0.5220
  383SOL    HW1 1530   0.580  -0.025   0.212 -0.7011 -0.6678  0.6263
  383SOL    HW2 1531   0.512  -0.028   0.346 -1.8714 -0.6548 -0.4597
  383SOL     MW 1532   0.543   0.020   0.276 -0.3041 -0.2691  0.4062
  384SOL     OW 1533   0.714   2.922   0.608  0.3753  0.3182 -0.6764
  384SOL    HW1 1534   0.804   2.902   0.646  0.4279 -0.3668 -1.0884
  384SOL    HW2 1535   0.657   2.841   0.613 -0.3041 -1.1123 -1.9646
  384SOL     MW 1536   0.718   2.909   0.614  0.2926  0.0391 -0.9007
  385SOL     OW 1537   1.405   2.081   1.491  0.2656 -0.2414 -0.4505
  385SOL    HW1 1538   1.480   2.111   1.547 -1.0953 -1.4432  4.0166
  385SOL    HW2 1539   1.343   2.055   1.557 -0.6895  1.6718  1.3612
  385SOL     MW 1540   1.407   2.082   1.507 -0.0400 -0.1475  0.3779
  386SOL     OW 1541   1.256   0.380   0.876 -0.7730  0.0554  0.0222
  386SOL    HW1 1542   1.210   0.426   0.952 -1.4062  0.9413 -1.8094
  386SOL    HW2 1543   1.291   0.300   0.917  1.2541 -1.1447  0.3212
  386SOL     MW 1544   1.254   0.376   0.892 -0.5891  0.0140 -0.1800
  387SOL     OW 1545   0.838   2.221   1.542 -0.5256 -0.2306  0.1044
  387SOL    HW1 1546   0.917   2.267   1.499  0.9883  0.8922  1.2155
  387SOL    HW2 1547   0.829   2.134   1.501 -0.4421 -0.0700 -0.1967
  387SOL     MW 1548   0.847   2.215   1.531 -0.3149 -0.0613  0.2113
  388SOL     OW 1549   1.520   2.777   1.224 -0.7305  0.8394  0.7019
  388SOL    HW1 1550   1.428   2.785   1.230  1.7743 -0.7840 -1.6512
  388SOL    HW2 1551   1.529   2.694   1.178 -1.4003 -0.0758 -0.6321
  388SOL     MW 1552   1.509   2.767   1.219 -0.4884  0.5044  0.2154
  389SOL     OW 1553   0.448   0.137   3.022  0.3538  0.3522  0.1639
  389SOL    HW1 1554   0.541   0.114   3.017 -0.4747 -0.9132 -2.1558
  389SOL    HW2 1555   0.422   0.167   2.932  1.2108 -4.0646  2.7168
  389SOL     MW 1556   0.456   0.138   3.009  0.3575 -0.3975  0.1947
  390SOL     OW 1557   1.330   0.063   0.726  0.6049 -0.2914 -0.1442
  390SOL    HW1 1558   1.363   0.083   0.639 -0.8450 -3.0405  1.6232
  390SOL    HW2 1559   1.392   0.108   0.785 -1.7974 -1.0266  0.8053
  390SOL     MW 1560   1.342   0.072   0.722  0.0967 -0.7511  0.2143
  391SOL     OW 1561   0.355   2.226   1.419  0.4056 -0.6431  0.2885
  391SOL    HW1 1562   0.309   2.142   1.430  2.8931  0.5641 -0.1934
  391SOL    HW2 1563   0.296   2.282   1.467 -1.5863  1.5166 -0.5087
  391SOL     MW 1564   0.341   2.222   1.427  0.4710 -0.1989  0.1197
  392SOL     OW 1565   2.033   2.193   0.341  0.3331  0.2437  0.3455
  392SOL    HW1 1566   2.116   2.178   0.388 -0.9118 -0.1728  2.9359
  392SOL    HW2 1567   1.979   2.234   0.405  1.6618  0.9946  1.1929
  392SOL     MW 1568   2.037   2.197   0.356  0.3441  0.2878  0.7991
  393SOL     OW 1569   0.288   2.927   2.787  0.1830 -0.4699 -0.1189
  393SOL    HW1 1570   0.378   2.922   2.745 -2.3991 -0.8224  0.5297
  393SOL    HW2 1571   0.277   3.019   2.809 -1.7067 -0.9714  1.0430
  393SOL     MW 1572   0.298   2.939   2.785 -0.4070 -0.5826  0.1200
  394SOL     OW 1573   0.888   1.758   1.542  0.1555  0.1459 -0.3496
  394SOL    HW1 1574   0.823   1.754   1.619 -0.7033 -1.1536  1.2457
  394SOL    HW2 1575   0.877   1.849   1.502 -0.5171  0.8083  2.3524
  394SOL     MW 1576   0.878   1.769   1.547 -0.0465  0.0618  0.2174
  395SOL     OW 1577   0.944   2.905   2.647  0.2761  0.1742 -0.7318
  395SOL    HW1 1578   1.003   2.948   2.708 -1.6613 -0.3601 -0.4239
  395SOL    HW2 1579   1.005   2.861   2.588  1.5885  1.5234  0.0576
  395SOL     MW 1580   0.960   2.905   2.647  0.1937  0.2817 -0.5870
  396SOL     OW 1581   0.701   1.840   2.381 -0.3304 -0.1417 -0.1798
  396SOL    HW1 1582   0.781   1.870   2.432  0.9312  2.2810 -0.4665
  396SOL    HW2 1583   0.718   1.749   2.365  1.1587  2.8793  2.1118
  396SOL     MW 1584   0.714   1.832   2.386  0.0325  0.5766  0.0847
  397SOL     OW 1585   1.036   2.364   1.401  0.3084  0.3404  0.5981
  397SOL    HW1 1586   1.068   2.375   1.311  2.8472 -1.5356 -0.3736
  397SOL    HW2 1587   1.116   2.353   1.448 -1.3200  0.3565 -0.6449
  397SOL     MW 1588   1.051   2.364   1.395  0.4285  0.0950  0.3059
  398SOL     OW 1589   0.578   2.690   0.659  0.4874  0.2657  0.0162
  398SOL    HW1 1590   0.496   2.645   0.632  0.8287  4.5594 -0.8764
  398SOL    HW2 1591   0.646   2.623   0.650 -1.3187  2.0006  0.5504
  398SOL     MW 1592   0.576   2.675   0.654  0.2942  1.0611 -0.0311
  399SOL     OW 1593   0.232   2.087   0.291 -0.0348  0.0138 -0.0366
  399SOL    HW1 1594   0.143   2.117   0.318 -1.0385  0.5335 -1.4091
  399SOL    HW2 1595   0.249   2.129   0.212  1.3723 -0.0794  2.2380
  399SOL     MW 1596   0.222   2.097   0.284  0.0185  0.0701  0.0824
  400SOL     OW 1597   0.544   1.928   0.079  0.5459 -0.0096 -0.6151
  400SOL    HW1 1598   0.488   2.009   0.067 -0.1911  2.3232 -0.0719
  400SOL    HW2 1599   0.505   1.873   0.148 -1.2932 -0.0830 -1.2895
  400SOL     MW 1600   0.531   1.931   0.087  0.2060  0.2885 -0.6324
  401SOL     OW 1601   0.781   2.044   0.063  0.3113  0.1346  0.1140
  401SOL    HW1 1602   0.855   1.983   0.058 -1.9074  0.1143  1.4555
  401SOL    HW2 1603   0.696   1.995   0.076  0.6659 -1.3581  0.6947
  401SOL     MW 1604   0.780   2.030   0.064  0.0653 -0.0650  0.3676
  402SOL     OW 1605   0.603   2.952   1.748 -0.6540  0.2120  0.3394
  402SOL    HW1 1606   0.685   2.933   1.786  0.5397  0.4899  0.8172
  402SOL    HW2 1607   0.617   3.032   1.695 -1.5273  0.2610 -0.4104
  402SOL     MW 1608   0.616   2.960   1.746 -0.6118  0.2552  0.3035
  403SOL     OW 1609   0.082   0.413   0.400 -0.1751  0.3081  0.0302
  403SOL    HW1 1610   0.162   0.445   0.445 -1.5355 -2.7770  1.2830
  403SOL    HW2 1611   0.109   0.383   0.314 -0.5786  1.1519 -1.7056
  403SOL     MW 1612   0.096   0.414   0.395 -0.4078  0.0124 -0.0335
  404SOL     OW 1613   0.941   2.902   0.737 -0.0668  0.1873 -0.5435
  404SOL    HW1 1614   1.014   2.836   0.735  1.2418 -0.8043 -1.3451
  404SOL    HW2 1615   0.987   2.990   0.726  1.3548  0.4077 -1.6882
  404SOL     MW 1616   0.957   2.905   0.736  0.2934  0.0855 -0.8003
  405SOL     OW 1617   0.562   2.421   1.538  0.0621 -0.4846 -0.3129
  405SOL    HW1 1618   0.583   2.473   1.460  0.7443  2.5622  0.2144
  405SOL    HW2 1619   0.497   2.358   1.519  1.0605  0.0986 -0.3283
  405SOL     MW 1620   0.556   2.419   1.526  0.2838 -0.0056 -0.2454
  406SOL     OW 1621   0.330   2.414   1.073 -0.8660  0.0581  0.4652
  406SOL    HW1 1622   0.238   2.415   1.108 -1.3214 -0.0304  2.1681
  406SOL    HW2 1623   0.357   2.321   1.074 -0.6533  0.2087 -0.2685
  406SOL     MW 1624   0.322   2.402   1.078 -0.8981  0.0663  0.5930
  407SOL     OW 1625   0.017   2.713   1.139  0.0312  0.3857 -0.0044
  407SOL    HW1 1626   0.064   2.686   1.224  1.3129 -0.9666  1.5575
  407SOL    HW2 1627   0.089   2.714   1.071 -1.6384 -0.1290 -2.7405
  407SOL     MW 1628   0.033   2.710   1.141 -0.0200  0.1394 -0.1593
  408SOL     OW 1629   2.151   2.148   0.601 -0.4790  0.0433 -0.6533
  408SOL    HW1 1630   2.119   2.216   0.657  1.6196  0.1295 -1.1107
  408SOL    HW2 1631   2.082   2.078   0.605 -0.3936 -1.9485  2.9334
  408SOL     MW 1632   2.138   2.148   0.609 -0.1908 -0.2082 -0.2404
  409SOL     OW 1633   1.478   0.148   0.959  0.3311  0.6124  0.1983
  409SOL    HW1 1634   1.564   0.185   0.975  1.0667 -3.5981  1.1334
  409SOL    HW2 1635   1.484   0.058   0.998  2.4753 -0.2834 -0.4701
  409SOL     MW 1636   1.490   0.141   0.966  0.7111 -0.0613  0.2335
  410SOL     OW 1637   1.092   2.435   1.139  0.2519 -0.0874  0.1182
  410SOL    HW1 1638   0.997   2.461   1.119 -1.7256 -2.3497 -0.7220
  410SOL    HW2 1639   1.130   2.392   1.063  0.9593  0.1498  2.7681
  410SOL     MW 1640   1.085   2.433   1.126  0.0844 -0.3546  0.3570
  411SOL     OW 1641   1.945   0.066   2.869 -0.6470 -0.3886  0.5044
  411SOL    HW1 1642   1.897   0.021   2.802  2.1300 -1.6731  0.1096
  411SOL    HW2 1643   1.888   0.089   2.939  0.5711 -0.3302 -0.3925
  411SOL     MW 1644   1.931   0.063   2.870 -0.1199 -0.5504  0.3340
  412SOL     OW 1645   1.053   2.251   0.554 -0.2988 -0.6423 -0.2530
  412SOL    HW1 1646   1.077   2.322   0.617 -0.0000 -2.5543  0.3660
  412SOL    HW2 1647   0.961   2.256   0.534 -4.2928 -2.2505  1.5335
  412SOL     MW 1648   1.044   2.261   0.560 -0.7863 -1.1068  0.0644
  413SOL     OW 1649   0.544   2.721   3.064 -0.1285  0.3659  0.1219
  413SOL    HW1 1650   0.591   2.635   3.054  0.5842 -1.0554 -1.9417
  413SOL    HW2 1651   0.589   2.790   3.010  1.8650  3.6358 -2.0720
  413SOL     MW 1652   0.556   2.719   3.055  0.2286  0.6098 -0.4398
  414SOL     OW 1653   1.964   2.979   1.129  0.9562  0.3683  0.4661
  414SOL    HW1 1654   1.895   3.047   1.135 -2.2648  1.7049 -0.3186
  414SOL    HW2 1655   2.031   3.022   1.072  1.3753  1.3387  0.0971
  414SOL     MW 1656   1.964   2.994   1.122  0.5865  0.6727  0.3139
  415SOL     OW 1657   1.827   2.707   1.072 -0.8126  0.0049  0.4933
  415SOL    HW1 1658   1.805   2.711   1.163  2.5776  0.1439  0.4574
  415SOL    HW2 1659   1.859   2.791   1.044  0.6290  0.2579  0.1226
  415SOL     MW 1660   1.828   2.719   1.080 -0.1751  0.0566  0.4396
  416SOL     OW 1661   0.568   1.980   1.340 -0.4722  0.7213  0.0294
  416SOL    HW1 1662   0.529   2.026   1.265 -3.3483  0.1040 -1.1087
  416SOL    HW2 1663   0.565   1.894   1.302 -0.9467 -1.4442 -0.8569
  416SOL     MW 1664   0.563   1.975   1.325 -0.9143  0.3541 -0.2377
  417SOL     OW 1665   0.989   3.002   2.056  0.1150  0.0803  0.1517
  417SOL    HW1 1666   0.931   3.007   2.139 -0.7252 -1.2503  1.8052
  417SOL    HW2 1667   0.924   2.965   1.998  1.2530 -1.0387 -1.8527
  417SOL     MW 1668   0.973   2.998   2.060  0.1543 -0.2429  0.1054
  418SOL     OW 1669   0.656   2.925   0.121  0.0577 -0.2485  0.4476
  418SOL    HW1 1670   0.742   2.913   0.074  1.7932  1.2150  1.9211
  418SOL    HW2 1671   0.596   2.863   0.075 -0.6456 -0.0034  0.3037
  418SOL     MW 1672   0.660   2.915   0.109  0.1938 -0.0231  0.6231
  419SOL     OW 1673   0.484   2.629   1.327 -0.4711  0.1277 -0.2375
  419SOL    HW1 1674   0.526   2.706   1.365  2.7733 -0.1435 -4.0017
  419SOL    HW2 1675   0.530   2.614   1.246  0.5150  1.1829  0.4020
  419SOL     MW 1676   0.495   2.637   1.321  0.0871  0.2311 -0.6498
  420SOL     OW 1677   0.842   2.213   1.041 -0.6483 -0.0726 -0.0343
  420SOL    HW1 1678   0.766   2.243   1.087 -0.5126 -0.9769  1.1810
  420SOL    HW2 1679   0.876   2.282   0.992 -1.3321 -0.7745  2.1484
  420SOL     MW 1680   0.837   2.226   1.040 -0.7206 -0.2845  0.4140
  421SOL     OW 1681   2.982   0.210   3.053  0.5350 -0.2996 -0.0401
  421SOL    HW1 1682   2.911   0.196   2.989 -0.4853 -2.0343 -2.7210
  421SOL    HW2 1683   3.007   0.121   3.069 -3.8974 -0.3815 -0.9979
  421SOL     MW 1684   2.976   0.197   3.047 -0.1845 -0.5392 -0.5202
  422SOL     OW 1685   0.889   2.511   0.934 -0.1459 -0.7820 -0.0300
  422SOL    HW1 1686   0.879   2.606   0.953  0.5775  1.7615  0.8335
  422SOL    HW2 1687   0.857   2.500   0.843 -0.6449  0.7031  1.2027
  422SOL     MW 1688   0.883   2.522   0.924 -0.1163 -0.2505  0.2465
  423SOL     OW 1689   1.441   0.099   0.472 -0.0772 -0.1886  0.4678
  423SOL    HW1 1690   1.418   0.083   0.383 -1.2228  0.6812  0.1167
  423SOL    HW2 1691   1.477   0.182   0.468  2.0119 -3.1435  0.7050
  423SOL     MW 1692   1.442   0.108   0.460  0.0473 -0.4637  0.4527
  424SOL     OW 1693   0.672   2.309   1.249 -0.3138 -0.2590  0.4518
  424SOL    HW1 1694   0.575   2.302   1.246  2.1723 -0.3820  1.3495
  424SOL    HW2 1695   0.687   2.251   1.322 -0.6164  0.3364 -0.5550
  424SOL     MW 1696   0.661   2.300   1.258 -0.0257 -0.1967  0.4374
  425SOL     OW 1697   1.718   2.783   2.035 -0.1357 -0.4518 -0.0276
  425SOL    HW1 1698   1.724   2.829   1.943  0.7853  1.8769  1.5063
  425SOL    HW2 1699   1.761   2.697   2.036  0.3072 -0.6419  3.8976
  425SOL     MW 1700   1.725   2.778   2.023  0.0442 -0.1696  0.6927
  426SOL     OW 1701   0.832   1.663   1.949  0.4045  0.0229 -0.2460
  426SOL    HW1 1702   0.764   1.690   1.887  1.5272 -1.3470  1.6586
  426SOL    HW2 1703   0.831   1.738   2.007 -1.2316 -1.9470  1.1797
  426SOL     MW 1704   0.823   1.676   1.949  0.3368 -0.4177  0.1934
  427SOL     OW 1705   0.398   1.668   1.871 -0.2922  0.0509 -0.3409
  427SOL    HW1 1706   0.418   1.641   1.777  0.1935  0.0311 -0.0488
  427SOL    HW2 1707   0.318   1.624   1.905 -0.5879 -2.8721 -0.4992
  427SOL     MW 1708   0.390   1.659   1.863 -0.2671 -0.3374 -0.3233
  428SOL     OW 1709   0.558   2.549   1.022 -0.2256 -0.0194 -0.5227
  428SOL    HW1 1710   0.638   2.497   1.036 -0.1808  3.5721 -0.7582
  428SOL    HW2 1711   0.473   2.498   1.040 -1.2524 -0.8099  1.2142
  428SOL     MW 1712   0.558   2.535   1.026 -0.3551  0.3502 -0.3246
  429SOL     OW 1713   1.253   2.810   1.129 -0.0212  0.2907  0.1567
  429SOL    HW1 1714   1.182   2.786   1.184  0.6031 -0.7004 -0.5692
  429SOL    HW2 1715   1.216   2.873   1.068  1.2223 -0.3450 -2.0838
  429SOL     MW 1716   1.239   2.815   1.128  0.2253  0.0761 -0.2347
  430SOL     OW 1717   1.157   2.722   0.714  0.0140  0.5234  0.0206
  430SOL    HW1 1718   1.170   2.635   0.751  0.1810 -1.7664 -1.3068
  430SOL    HW2 1719   1.153   2.691   0.630 -1.2874  1.6417  1.1449
  430SOL     MW 1720   1.158   2.706   0.707 -0.1357  0.3689 -0.0062
  431SOL     OW 1721   0.334   1.958   1.015 -0.6173  0.0907 -0.1919
  431SOL    HW1 1722   0.404   1.898   1.010 -0.2099  3.1293 -0.0643
  431SOL    HW2 1723   0.311   1.991   0.926 -0.2602  0.9143  2.4487
  431SOL     MW 1724   0.340   1.954   1.003 -0.5164  0.6002  0.1734
  432SOL     OW 1725   0.080   0.049   1.191 -0.3145 -0.0673 -0.1754
  432SOL    HW1 1726   0.063   0.108   1.264  0.3885  0.2070 -2.8313
  432SOL    HW2 1727   0.014  -0.020   1.198 -1.4349  3.3425  3.9255
  432SOL     MW 1728   0.069   0.048   1.202 -0.3696  0.4188  0.0153
  433SOL     OW 1729   0.613   2.811   1.504  0.0078  0.0836 -0.1579
  433SOL    HW1 1730   0.594   2.852   1.590  1.1122 -0.5560 -1.4540
  433SOL    HW2 1731   0.710   2.792   1.519  2.2728 -0.5779 -2.0628
  433SOL     MW 1732   0.623   2.814   1.517  0.4523 -0.0880 -0.5802
  434SOL     OW 1733   1.597   2.783   1.529 -0.0159 -1.1690 -0.1096
  434SOL    HW1 1734   1.508   2.822   1.516 -0.4368 -0.2447  2.4434
  434SOL    HW2 1735   1.626   2.740   1.445 -3.4350  1.0349 -2.1543
  434SOL     MW 1736   1.589   2.782   1.516 -0.5226 -0.7563 -0.0425
  435SOL     OW 1737   2.823   1.795   0.177 -0.3505  0.3316  0.1597
  435SOL    HW1 1738   2.905   1.847   0.165  0.5677 -0.6310  0.2440
  435SOL    HW2 1739   2.788   1.768   0.083 -0.4530  0.2156  1.4421
  435SOL     MW 1740   2.829   1.798   0.163 -0.2429  0.1893  0.3400
  436SOL     OW 1741   1.402   2.677   0.430 -0.2843  0.2157 -0.8487
  436SOL    HW1 1742   1.428   2.655   0.519  1.0318  0.7827  0.5410
  436SOL    HW2 1743   1.369   2.764   0.417  0.2813  2.3455 -0.0064
  436SOL     MW 1744   1.401   2.686   0.440 -0.0360  0.5715 -0.5542
  437SOL     OW 1745   0.886   3.003   1.348  0.3277  0.4680 -0.1827
  437SOL    HW1 1746   0.975   3.039   1.340  0.0240 -0.5089 -0.3900
  437SOL    HW2 1747   0.898   2.937   1.277  0.8115 -0.7187  0.1758
  437SOL     MW 1748   0.899   2.999   1.338  0.3515  0.1825 -0.1627
  438SOL     OW 1749   0.809   2.595   1.860 -0.1971 -0.4035  0.5282
  438SOL    HW1 1750   0.821   2.574   1.955  1.7806 -0.2604  0.5705
  438SOL    HW2 1751   0.766   2.521   1.820  0.7517  3.3139 -0.2958
  438SOL     MW 1752   0.805   2.583   1.867  0.1890  0.1058  0.4250
  439SOL     OW 1753   1.235   2.121   0.406  0.1098 -0.8907  0.5018
  439SOL    HW1 1754   1.184   2.173   0.468  1.1380 -0.8773 -1.3163
  439SOL    HW2 1755   1.227   2.181   0.330 -0.7959 -1.7941 -0.9736
  439SOL     MW 1756   1.227   2.136   0.404  0.1260 -1.0081  0.0672
  440SOL     OW 1757   1.748   3.010   3.064 -0.2976 -0.2154  0.0487
  440SOL    HW1 1758   1.687   2.964   3.127 -1.3098 -3.8640 -0.4189
  440SOL    HW2 1759   1.829   2.963   3.076 -0.6525 -0.0961  2.3654
  440SOL     MW 1760   1.751   2.998   3.074 -0.4780 -0.6810  0.2927
  441SOL     OW 1761   0.347   2.654   0.485  0.4241  0.2580  0.9294
  441SOL    HW1 1762   0.306   2.624   0.402 -1.7419 -0.5377 -1.3078
  441SOL    HW2 1763   0.370   2.745   0.463 -0.6746 -1.2842 -0.6522
  441SOL     MW 1764   0.345   2.662   0.471 -0.0067 -0.0505  0.4255
  442SOL     OW 1765   3.088   2.388   0.628 -0.8230 -0.6065 -0.4679
  442SOL    HW1 1766   3.082   2.480   0.596 -1.0277  3.0100 -1.8483
  442SOL    HW2 1767   2.999   2.371   0.656  0.5560  0.0042 -0.1237
  442SOL     MW 1768   3.075   2.398   0.628 -0.6681 -0.0488 -0.6046
  443SOL     OW 1769   1.445   1.767   1.940  0.4473 -0.7954  0.3094
  443SOL    HW1 1770   1.366   1.783   1.885  0.3488  3.6152  1.1223
  443SOL    HW2 1771   1.416   1.696   1.992  0.9146 -0.7737  0.1526
  443SOL     MW 1772   1.431   1.760   1.939  0.4960 -0.2106  0.3960
  444SOL     OW 1773   0.853   2.573   1.578  0.5114 -0.5120  0.2847
  444SOL    HW1 1774   0.930   2.531   1.613 -0.9545  1.6519 -0.0558
  444SOL    HW2 1775   0.777   2.527   1.613 -0.7217  0.8976  0.7554
  444SOL     MW 1776   0.853   2.561   1.588  0.1553 -0.0405  0.3019
  445SOL     OW 1777   1.098   0.077   1.318  0.3440 -0.5727 -0.0883
  445SOL    HW1 1778   1.066   0.168   1.324  0.2711  1.3624 -0.9390
  445SOL    HW2 1779   1.109   0.057   1.227  0.4478  2.6876  0.9739
  445SOL     MW 1780   1.095   0.086   1.307  0.3481  0.1128 -0.0604
  446SOL     OW 1781   2.758   2.888   1.099  0.2564 -0.3593 -0.1118
  446SOL    HW1 1782   2.718   2.930   1.024  1.4566 -1.2498  1.0984
  446SOL    HW2 1783   2.785   2.805   1.060 -0.1979 -1.6989 -1.0995
  446SOL     MW 1784   2.756   2.882   1.084  0.3548 -0.6536 -0.0825
  447SOL     OW 1785   0.056   1.994   1.641 -0.4372 -0.1645  0.1677
  447SOL    HW1 1786   0.104   1.916   1.679 -1.6369  0.5216  1.9627
  447SOL    HW2 1787  -0.034   1.969   1.607 -0.4878  1.2359 -2.1051
  447SOL     MW 1788   0.050   1.980   1.641 -0.6022  0.1108  0.1047
  448SOL     OW 1789   1.716   2.414   1.648 -0.3312 -0.3110  0.3435
  448SOL    HW1 1790   1.688   2.321   1.629 -1.2507  1.0619  1.9658
  448SOL    HW2 1791   1.641   2.458   1.686  1.9304 -1.9072  0.4464
  448SOL     MW 1792   1.702   2.407   1.651 -0.1542 -0.3404  0.5712
  449SOL     OW 1793   0.829   2.895   0.359  0.2443 -0.0832  0.5133
  449SOL    HW1 1794   0.780   2.877   0.279 -1.2870  0.0870 -0.6805
  449SOL    HW2 1795   0.772   2.909   0.439 -0.8313  1.8614 -2.0556
  449SOL     MW 1796   0.815   2.894   0.359 -0.0997  0.1958  0.0168
  450SOL     OW 1797   1.185   2.439   0.716 -0.0367 -0.1678  0.3115
  450SOL    HW1 1798   1.182   2.362   0.780 -0.7489 -3.0045  0.0444
  450SOL    HW2 1799   1.269   2.449   0.679 -0.4235  0.0888 -1.5137
  450SOL     MW 1800   1.196   2.430   0.720 -0.1817 -0.5082  0.0354
  451SOL     OW 1801   0.549   2.039   1.636  0.1532 -0.4512  0.2924
  451SOL    HW1 1802   0.565   2.133   1.630 -1.6258 -1.5596  0.6930
  451SOL    HW2 1803   0.534   2.006   1.544  0.4457 -1.2895  1.5516
  451SOL     MW 1804   0.549   2.047   1.623 -0.0429 -0.7081  0.5114
  452SOL     OW 1805   0.282   2.673   0.048 -0.4005  0.0602  0.1720
  452SOL    HW1 1806   0.362   2.706   0.013  1.9062 -4.4986 -0.2073
  452SOL    HW2 1807   0.225   2.705  -0.016  0.2907 -2.4008  1.6767
  452SOL     MW 1808   0.285   2.682   0.035 -0.0050 -0.8660  0.3205
  453SOL     OW 1809   0.333   2.980   1.609 -0.0882 -0.0411 -0.5343
  453SOL    HW1 1810   0.398   2.961   1.681  0.4605  1.9036 -0.6946
  453SOL    HW2 1811   0.385   3.022   1.536 -0.0318 -0.5341  0.2277
  453SOL     MW 1812   0.348   2.983   1.609 -0.0084  0.1504 -0.4549
  454SOL     OW 1813   0.969   2.758   1.221  0.1438  0.1938 -0.2652
  454SOL    HW1 1814   0.922   2.689   1.275  1.1086  1.3745  2.9610
  454SOL    HW2 1815   0.911   2.757   1.143 -1.3248  2.0286 -1.6131
  454SOL     MW 1816   0.955   2.749   1.218  0.0774  0.5917 -0.0174
  455SOL     OW 1817   1.606   2.874   0.158  0.0032 -0.4225 -0.3004
  455SOL    HW1 1818   1.662   2.909   0.230 -0.1432 -1.3867  2.4453
  455SOL    HW2 1819   1.610   2.777   0.169  0.1064 -0.0959 -1.0808
  455SOL     MW 1820   1.614   2.866   0.169 -0.0025 -0.5066 -0.0411
  456SOL     OW 1821   2.736   0.363   1.507 -0.0690  0.2948  0.7110
  456SOL    HW1 1822   2.705   0.286   1.457 -2.1847 -3.0019 -1.4732
  456SOL    HW2 1823   2.788   0.422   1.459 -0.7363 -3.0655  3.2384
  456SOL     MW 1824   2.739   0.361   1.494 -0.4362 -0.5835  0.7563
  457SOL     OW 1825   0.912   1.568   3.001 -0.8016  0.3874  0.8937
  457SOL    HW1 1826   0.841   1.593   3.068 -2.0020  3.3356  1.0495
  457SOL    HW2 1827   0.987   1.530   3.041 -1.7688  2.5528  1.2504
  457SOL     MW 1828   0.912   1.566   3.015 -1.0876  1.0621  0.9614
  458SOL     OW 1829   1.373   1.476   0.568 -0.4155  0.2439 -0.1345
  458SOL    HW1 1830   1.356   1.570   0.547 -0.5878 -0.5670 -0.4710
  458SOL    HW2 1831   1.366   1.430   0.482  0.8207 -1.3566 -0.4201
  458SOL     MW 1832   1.370   1.483   0.554 -0.2751 -0.0743 -0.2166
  459SOL     OW 1833   1.479   0.027   0.207 -0.0621 -0.1324  0.4760
  459SOL    HW1 1834   1.510  -0.061   0.181 -0.9732 -1.0261 -0.3238
  459SOL    HW2 1835   1.441   0.064   0.128  1.7555  0.8391 -0.8164
  459SOL     MW 1836   1.478   0.020   0.193  0.0575 -0.1221  0.2000
  460SOL     OW 1837   1.761   2.124   0.611  0.1056 -0.1531  0.4521
  460SOL    HW1 1838   1.672   2.109   0.651 -0.8397 -2.0156 -1.0676
  460SOL    HW2 1839   1.818   2.049   0.629  1.9516  1.5066 -0.8126
  460SOL     MW 1840   1.757   2.112   0.618  0.2244 -0.1799  0.0847
  461SOL     OW 1841   0.383   2.385   0.565  0.3310  0.2038 -0.5122
  461SOL    HW1 1842   0.404   2.460   0.515 -0.2575  1.0269  0.3909
  461SOL    HW2 1843   0.337   2.418   0.645  2.2265  1.0608  2.8998
  461SOL     MW 1844   0.380   2.400   0.569  0.5034  0.4254  0.0572
  462SOL     OW 1845   0.327   0.259   1.293 -0.9469 -0.4417 -0.0469
  462SOL    HW1 1846   0.337   0.216   1.208  0.2217  1.9996  1.2980
  462SOL    HW2 1847   0.415   0.299   1.306 -0.6471  0.9820  2.9123
  462SOL     MW 1848   0.340   0.259   1.283 -0.7532  0.0683  0.5210
  463SOL     OW 1849   0.994   0.084   0.686 -0.4595  0.2340 -0.0947
  463SOL    HW1 1850   1.011   0.111   0.599 -1.1816 -0.0996  1.2995
  463SOL    HW2 1851   0.898   0.070   0.682  1.8542  0.2189 -1.1684
  463SOL     MW 1852   0.984   0.085   0.674 -0.2495  0.1879 -0.0524
  464SOL     OW 1853   0.790   3.077   2.277 -0.3716  0.0842 -0.2536
  464SOL    HW1 1854   0.775   2.986   2.254 -1.8007  1.5917 -0.3871
  464SOL    HW2 1855   0.770   3.078   2.370 -1.7994 -0.2151 -3.4143
  464SOL     MW 1856   0.785   3.065   2.286 -0.7485  0.2436 -0.6882
  465SOL     OW 1857   0.784   0.293   0.491  1.1581 -0.1112 -0.6898
  465SOL    HW1 1858   0.744   0.227   0.556  3.2856  0.1640  0.1074
  465SOL    HW2 1859   0.762   0.273   0.397  0.9018 -0.3630  0.9568
  465SOL     MW 1860   0.775   0.281   0.487  1.4050 -0.1081 -0.3674
  466SOL     OW 1861   1.020   2.024   0.709 -0.5852  0.5583  0.1291
  466SOL    HW1 1862   1.032   1.948   0.653  0.1954  1.1041 -0.5666
  466SOL    HW2 1863   1.014   2.100   0.648 -1.3311  1.2883  1.3897
  466SOL     MW 1864   1.021   2.024   0.693 -0.5807  0.7266  0.2036
  467SOL     OW 1865   1.218   2.277   0.936  0.0180  0.7665  0.0250
  467SOL    HW1 1866   1.311   2.305   0.941  1.0033 -0.6375  2.0898
  467SOL    HW2 1867   1.221   2.186   0.908 -0.3720 -0.7723 -0.7345
  467SOL     MW 1868   1.231   2.269   0.933  0.0966  0.3783  0.1972
  468SOL     OW 1869   0.393   2.635   2.009  0.6067  0.1677 -0.3744
  468SOL    HW1 1870   0.418   2.581   1.932 -2.9578  0.8199 -0.1049
  468SOL    HW2 1871   0.301   2.637   2.005  3.7411 -1.0645 -0.6191
  468SOL     MW 1872   0.384   2.628   1.998  0.5500  0.0911 -0.3711
  469SOL     OW 1873   0.375   2.159   1.830  0.2694 -0.2613  0.4811
  469SOL    HW1 1874   0.302   2.102   1.857 -0.7777 -1.0781 -0.2729
  469SOL    HW2 1875   0.432   2.099   1.776 -0.7038  0.0817  1.5411
  469SOL     MW 1876   0.373   2.144   1.826  0.0028 -0.3238  0.5215
  470SOL     OW 1877   3.028   2.630   0.125 -0.0707 -0.2478  0.3227
  470SOL    HW1 1878   2.950   2.609   0.174 -3.3413 -0.5844 -0.5814
  470SOL    HW2 1879   3.009   2.619   0.028  1.3507 -1.0687  0.1516
  470SOL     MW 1880   3.015   2.626   0.119 -0.3147 -0.4005  0.1808
  471SOL     OW 1881   1.184   2.675   1.449 -0.2034 -0.6684  0.0734
  471SOL    HW1 1882   1.172   2.619   1.521 -1.1240  1.4819 -0.0902
  471SOL    HW2 1883   1.134   2.646   1.372  1.5280 -0.4432 -2.2004
  471SOL     MW 1884   1.176   2.664   1.448 -0.0964 -0.3550 -0.2482
  472SOL     OW 1885   2.848   2.111   0.324 -0.3984  0.8007  0.2293
  472SOL    HW1 1886   2.903   2.077   0.246  0.1807  1.2440 -0.8446
  472SOL    HW2 1887   2.825   2.027   0.364  2.5350 -1.3951 -1.6671
  472SOL     MW 1888   2.852   2.096   0.319  0.0650  0.5695 -0.1626
  473SOL     OW 1889   0.835   2.540   1.264 -0.5814  0.0412  0.1899
  473SOL    HW1 1890   0.770   2.480   1.225 -0.5393  0.3948  1.9161
  473SOL    HW2 1891   0.883   2.486   1.327  0.4187 -2.0938 -1.2211
  473SOL     MW 1892   0.833   2.525   1.267 -0.4439 -0.1939  0.2315
  474SOL     OW 1893   0.869   2.085   1.802  0.0010 -0.2355 -0.0466
  474SOL    HW1 1894   0.945   2.132   1.828 -0.6444 -2.3932  2.4823
  474SOL    HW2 1895   0.862   2.096   1.708 -2.0170 -2.2347  0.6030
  474SOL     MW 1896   0.878   2.093   1.793 -0.3504 -0.7840  0.3728
  475SOL     OW 1897   1.639   3.062   1.448  0.4074  0.3655 -0.4912
  475SOL    HW1 1898   1.555   3.069   1.390 -2.1811 -0.3583 -0.1460
  475SOL    HW2 1899   1.623   2.985   1.505  1.7448 -0.8955  1.3128
  475SOL     MW 1900   1.626   3.053   1.448  0.2423  0.1036 -0.2076
  476SOL     OW 1901   1.433   2.604   1.021 -0.1371  0.4588  0.6282
  476SOL    HW1 1902   1.346   2.618   1.067 -1.1416 -1.3522  0.5593
  476SOL    HW2 1903   1.446   2.679   0.967  1.6572 -1.8926  0.9346
  476SOL     MW 1904   1.423   2.616   1.020 -0.0329 -0.0904  0.6595
  477SOL     OW 1905   0.805   2.509   0.683  0.3631 -0.3055  0.0488
  477SOL    HW1 1906   0.860   2.576   0.638  1.6339 -0.2106 -2.4976
  477SOL    HW2 1907   0.794   2.439   0.617 -0.1227  0.8400 -2.5807
  477SOL     MW 1908   0.811   2.509   0.668  0.4666 -0.1418 -0.6341
  478SOL     OW 1909   0.183   2.702   0.925  0.0871 -0.9390 -0.0480
  478SOL    HW1 1910   0.229   2.780   0.914 -1.9102  2.1708 -0.3046
  478SOL    HW2 1911   0.207   2.642   0.861 -0.3541 -2.7070  1.3101
  478SOL     MW 1912   0.192   2.704   0.915 -0.2347 -0.7620  0.0973
  479SOL     OW 1913   1.461   1.991   1.243 -0.0207 -0.2275 -0.3993
  479SOL    HW1 1914   1.448   2.028   1.332  1.7135 -0.0657  1.1929
  479SOL    HW2 1915   1.528   1.922   1.255  1.5466 -0.5072 -0.3441
  479SOL     MW 1916   1.468   1.987   1.257  0.4149 -0.2430 -0.1820
  480SOL     OW 1917   1.875   2.421   1.256  0.3634  0.0184 -0.1153
  480SOL    HW1 1918   1.839   2.358   1.320 -1.5273  1.1808  0.7963
  480SOL    HW2 1919   1.936   2.366   1.205  1.2631 -2.7708 -0.1785
  480SOL     MW 1920   1.878   2.405   1.258  0.2327 -0.1962 -0.0033
  481SOL     OW 1921   1.012   0.015   0.966  0.2106 -0.2598  0.6146
  481SOL    HW1 1922   1.079  -0.047   0.941  0.6539 -1.2992  0.9959
  481SOL    HW2 1923   1.063   0.096   0.975 -0.1511 -0.9759  0.7111
  481SOL     MW 1924   1.028   0.017   0.964  0.2213 -0.4914  0.6777
  482SOL     OW 1925   1.072   3.058   0.269  0.6312  0.4646  0.2001
  482SOL    HW1 1926   0.997   3.001   0.277 -0.8881  2.6000  2.3692
  482SOL    HW2 1927   1.062   3.117   0.342 -1.9837  0.6254 -0.0628
  482SOL     MW 1928   1.061   3.058   0.280  0.0858  0.7675  0.4516
  483SOL     OW 1929   0.426   2.931   0.443 -0.1726  0.9815 -0.4238
  483SOL    HW1 1930   0.353   2.964   0.384  0.4722  0.1546 -1.3393
  483SOL    HW2 1931   0.407   2.960   0.533  1.3236 -0.3492  0.6206
  483SOL     MW 1932   0.414   2.939   0.447  0.1099  0.6968 -0.4068
  484SOL     OW 1933   1.751   1.887   1.424  0.6793  0.1693  0.8104
  484SOL    HW1 1934   1.802   1.968   1.415  0.0455  1.0612  2.9760
  484SOL    HW2 1935   1.718   1.895   1.514  1.3602  0.2638  0.6108
  484SOL     MW 1936   1.754   1.899   1.435  0.6855  0.2995  1.0698
  485SOL     OW 1937   0.494   2.310   0.227 -1.1514 -0.9873 -0.3666
  485SOL    HW1 1938   0.506   2.264   0.315 -2.7311 -1.0169  3.8879
  485SOL    HW2 1939   0.429   2.380   0.246  3.5112  0.1849  2.4249
  485SOL     MW 1940   0.487   2.313   0.241 -0.7447 -0.8366  0.5630
  486SOL     OW 1941   0.152   2.390   1.537  0.6951  0.5043 -0.2826
  486SOL    HW1 1942   0.138   2.477   1.502 -2.0633 -2.0203  1.2107
  486SOL    HW2 1943   0.129   2.393   1.635 -1.1405  2.8180  0.4114
  486SOL     MW 1944   0.147   2.402   1.545  0.0890  0.4765  0.0060
  487SOL     OW 1945   1.262   1.662   1.022 -1.0469 -0.1610 -0.0417
  487SOL    HW1 1946   1.243   1.754   1.049 -4.0027  1.5329  1.1376
  487SOL    HW2 1947   1.354   1.656   0.982  2.5965  0.1049 -1.1963
  487SOL     MW 1948   1.272   1.673   1.021 -0.9562  0.0976 -0.0384
  488SOL     OW 1949   1.678   1.854   0.510 -0.4000  0.1738 -0.9713
  488SOL    HW1 1950   1.750   1.876   0.442  1.6764  1.2019 -3.6073
  488SOL    HW2 1951   1.612   1.924   0.503 -0.2233 -3.2936 -1.3114
  488SOL     MW 1952   1.679   1.866   0.500 -0.1027 -0.1480 -1.3640
  489SOL     OW 1953   0.684   0.766   0.598  0.4783 -0.7564 -0.0449
  489SOL    HW1 1954   0.707   0.677   0.564  0.0492 -2.1980 -0.5950
  489SOL    HW2 1955   0.682   0.775   0.692  0.8929  2.4683 -1.5341
  489SOL     MW 1956   0.687   0.756   0.606  0.4764 -0.5211 -0.3139
  490SOL     OW 1957   1.501   2.045   0.460 -0.7201  0.0668  0.6989
  490SOL    HW1 1958   1.548   2.128   0.450  1.7367 -0.8122  1.4989
  490SOL    HW2 1959   1.410   2.060   0.431  2.8841 -0.7174 -0.3678
  490SOL     MW 1960   1.495   2.058   0.455  0.0796 -0.1527  0.6637
  491SOL     OW 1961   1.285   2.921   0.414  0.8998 -0.3502 -0.5757
  491SOL    HW1 1962   1.306   2.988   0.475  1.7261 -0.6008 -1.4396
  491SOL    HW2 1963   1.210   2.948   0.358  0.4513 -2.8613 -3.0399
  491SOL     MW 1964   1.278   2.933   0.415  0.9496 -0.7146 -1.0148
  492SOL     OW 1965   1.522   2.089   0.722 -0.0205 -0.2098 -0.1862
  492SOL    HW1 1966   1.490   2.043   0.640 -1.8991  0.1641 -1.4443
  492SOL    HW2 1967   1.444   2.070   0.779  0.4805  1.7932 -1.8814
  492SOL     MW 1968   1.507   2.080   0.719 -0.2022  0.1038 -0.5759
  493SOL     OW 1969   0.212   2.994   0.276 -0.0773  0.1116 -0.4769
  493SOL    HW1 1970   0.151   3.044   0.331  2.6327  1.1611  2.0638
  493SOL    HW2 1971   0.214   3.039   0.189  0.2359 -1.1574 -1.1643
  493SOL     MW 1972   0.204   3.006   0.272  0.3216  0.0826 -0.2323
  494SOL     OW 1973   0.414   2.453   1.797 -0.3351  0.0055  0.0999
  494SOL    HW1 1974   0.437   2.367   1.834 -0.3140  0.1639  2.0998
  494SOL    HW2 1975   0.469   2.469   1.713  1.9090 -0.2190 -2.0309
  494SOL     MW 1976   0.424   2.444   1.791 -0.0362 -0.0032  0.0826
  495SOL     OW 1977   2.927   1.679   2.602 -0.2685 -0.0016 -0.2619
  495SOL    HW1 1978   2.934   1.774   2.570  0.3912  0.2803  0.4567
  495SOL    HW2 1979   2.922   1.678   2.701 -0.5260 -0.7923 -2.4833
  495SOL     MW 1980   2.928   1.691   2.611 -0.2154 -0.0687 -0.4602
  496SOL     OW 1981   2.914   2.290   2.671 -0.2226  0.3161 -0.0293
  496SOL    HW1 1982   2.944   2.216   2.724  0.4063  1.2360  0.4724
  496SOL    HW2 1983   2.977   2.355   2.657  0.7057 -1.1581  2.2803
  496SOL     MW 1984   2.926   2.289   2.676 -0.0172  0.2430  0.3416
  497SOL     OW 1985   1.527   2.268   2.641 -0.7456 -0.4119  0.1378
  497SOL    HW1 1986   1.503   2.255   2.548 -0.8596  3.2811 -1.0015
  497SOL    HW2 1987   1.487   2.191   2.682  0.1670 -0.6382 -0.5442
  497SOL     MW 1988   1.519   2.257   2.634 -0.6402  0.0455 -0.1025
  498SOL     OW 1989   1.544   2.745   2.381 -0.2468  0.1832 -0.4398
  498SOL    HW1 1990   1.559   2.658   2.356 -1.7433 -0.3723 -0.2529
  498SOL    HW2 1991   1.606   2.764   2.455  1.7091 -1.8071  1.0254
  498SOL     MW 1992   1.554   2.736   2.388 -0.1862 -0.1527 -0.2218
  499SOL     OW 1993   0.937   0.097   0.059  0.1095  0.1249  0.9075
  499SOL    HW1 1994   0.888   0.109   0.144 -0.9566  0.0293 -0.2270
  499SOL    HW2 1995   0.983   0.019   0.082 -0.2919 -1.8893  2.0120
  499SOL     MW 1996   0.937   0.088   0.073 -0.0841 -0.1535  0.9035
  500SOL     OW 1997   1.122   2.571   2.788 -0.6122  0.4322 -0.4975
  500SOL    HW1 1998   1.134   2.511   2.863  0.8248 -1.3506 -2.2906
  500SOL    HW2 1999   1.035   2.606   2.815 -0.4575  0.8792  0.3411
  500SOL     MW 2000   1.112   2.568   2.801 -0.4022  0.2560 -0.6235
  501SOL     OW 2001   1.760   2.252   0.022 -0.5785  0.5445  0.3418
  501SOL    HW1 2002   1.731   2.339   0.024  3.9357 -1.3349  1.9358
  501SOL    HW2 2003   1.857   2.246   0.020  1.8894  2.5991  1.7312
  501SOL     MW 2004   1.769   2.263   0.022  0.3428  0.5676  0.7354
  502SOL     OW 2005   0.104   2.832   2.956  0.3131  0.8127 -0.0043
  502SOL    HW1 2006   0.027   2.771   2.935 -0.9668 -1.2195  0.7314
  502SOL    HW2 2007   0.156   2.837   2.877  0.6647 -0.1802  2.8107
  502SOL     MW 2008   0.101   2.825   2.943  0.1906  0.4136  0.4642
  503SOL     OW 2009   1.126   2.710   2.116  0.1890  0.3201  0.1242
  503SOL    HW1 2010   1.183   2.670   2.047  0.8877  1.3136  0.8067
  503SOL    HW2 2011   1.065   2.764   2.071 -1.4129 -0.7721  2.2526
  503SOL     MW 2012   1.125   2.712   2.101  0.0698  0.3071  0.4951
  504SOL     OW 2013   0.010   2.711   2.117  0.7340  0.1813  0.2766
  504SOL    HW1 2014   0.032   2.625   2.085  0.5677  1.0630  0.8820
  504SOL    HW2 2015  -0.085   2.728   2.105 -1.1245  0.6827  1.1658
  504SOL     MW 2016   0.000   2.702   2.111  0.4668  0.3638  0.4738
  505SOL     OW 2017   1.735   2.653   2.819  0.5183  0.7200  0.4698
  505SOL    HW1 2018   1.756   2.682   2.728  0.0525  0.5284 -1.4704
  505SOL    HW2 2019   1.651   2.705   2.836 -0.8984  2.9183 -0.6117
  505SOL     MW 2020   1.727   2.664   2.809  0.2699  0.9847  0.0711
  506SOL     OW 2021   1.580   3.081   2.854  0.2642  0.0992 -0.2522
  506SOL    HW1 2022   1.652   3.069   2.919  0.0389 -1.3793 -1.3326
  506SOL    HW2 2023   1.632   3.074   2.769 -0.7616 -0.7497 -1.1830
  506SOL     MW 2024   1.596   3.078   2.851  0.0991 -0.2079 -0.5176
  507SOL     OW 2025   0.905   2.713   2.824  0.3231  0.8047  0.3163
  507SOL    HW1 2026   0.914   2.793   2.766 -2.4654  3.8489 -2.2856
  507SOL    HW2 2027   0.807   2.695   2.805  0.7328  1.0060 -0.7214
  507SOL     MW 2028   0.893   2.721   2.814  0.0093  1.2329 -0.1639
  508SOL     OW 2029   1.135   2.096   2.482  0.2014  0.4066  0.3524
  508SOL    HW1 2030   1.194   2.067   2.551  0.0910 -1.8900  2.1998
  508SOL    HW2 2031   1.077   2.166   2.525  1.6563 -2.1476 -1.6323
  508SOL     MW 2032   1.135   2.101   2.497  0.3788 -0.2334  0.3343
  509SOL     OW 2033   0.668   2.601   2.716  0.4323 -0.1762  0.0757
  509SOL    HW1 2034   0.661   2.542   2.643  2.1256  0.4665  0.0848
  509SOL    HW2 2035   0.582   2.613   2.747  2.0304 -1.8011 -0.7729
  509SOL     MW 2036   0.656   2.595   2.710  0.8665 -0.3058 -0.0351
  510SOL     OW 2037   1.501   2.567   1.674 -0.0613 -0.9418  0.3840
  510SOL    HW1 2038   1.535   2.647   1.630  0.4430  1.8435 -1.7879
  510SOL    HW2 2039   1.434   2.599   1.730  0.3308  1.8651 -1.6927
  510SOL     MW 2040   1.497   2.582   1.675  0.0570 -0.2040 -0.1766
  511SOL     OW 2041   0.424   2.641   2.463 -0.2217  0.2182  0.1273
  511SOL    HW1 2042   0.499   2.569   2.457 -1.5479  0.7056  1.3063
  511SOL    HW2 2043   0.436   2.685   2.375 -0.7608  0.5434 -2.4222
  511SOL     MW 2044   0.436   2.637   2.451 -0.4678  0.3254 -0.0535
  512SOL     OW 2045   1.007   2.009   2.815  0.4724  0.3289  0.5145
  512SOL    HW1 2046   0.934   2.040   2.867  0.6180 -1.8915  1.2418
  512SOL    HW2 2047   1.032   1.929   2.861 -1.0868 -2.1283 -2.6690
  512SOL     MW 2048   1.001   2.003   2.828  0.2859 -0.2883  0.1905
  513SOL     OW 2049   1.592   2.478   2.292  0.4039  0.1603 -0.0708
  513SOL    HW1 2050   1.637   2.486   2.204 -0.6897 -0.6094 -2.5100
  513SOL    HW2 2051   1.666   2.456   2.351  1.3012  0.6747 -0.0527
  513SOL     MW 2052   1.608   2.476   2.288  0.3780  0.1266 -0.3902
  514SOL     OW 2053   0.290   2.470   2.636  0.1677 -0.3576 -0.1555
  514SOL    HW1 2054   0.342   2.534   2.585 -1.3660 -0.6650  0.6710
  514SOL    HW2 2055   0.340   2.479   2.723 -0.5038 -0.0179  2.2080
  514SOL     MW 2056   0.303   2.480   2.641 -0.1232 -0.3533  0.2654
  515SOL     OW 2057   1.153   2.013   2.002 -0.8432  0.3726 -0.3843
  515SOL    HW1 2058   1.123   2.097   1.967 -0.7126  0.1581 -0.8972
  515SOL    HW2 2059   1.249   2.030   2.010  0.7904 -0.8723 -2.1440
  515SOL     MW 2060   1.162   2.026   1.999 -0.6105  0.1800 -0.6842
  516SOL     OW 2061   1.444   2.526   3.098 -0.1737 -0.2127  0.3243
  516SOL    HW1 2062   1.488   2.495   3.018  1.2033  1.3032  0.4103
  516SOL    HW2 2063   1.374   2.581   3.062 -0.3878 -3.8558  0.6054
  516SOL     MW 2064   1.440   2.529   3.083 -0.0203 -0.4933  0.3727
  517SOL     OW 2065   0.570   2.430   2.103  0.2826 -0.0676  0.1961
  517SOL    HW1 2066   0.543   2.518   2.083  0.6260  0.2339  1.4979
  517SOL    HW2 2067   0.482   2.374   2.093 -1.3724  1.7927  0.9571
  517SOL     MW 2068   0.555   2.434   2.099  0.1095  0.2176  0.4682
  518SOL     OW 2069   1.762   0.202   3.068  0.5386  0.1944 -0.0906
  518SOL    HW1 2070   1.732   0.297   3.076  0.3742 -1.4489 -2.6436
  518SOL    HW2 2071   1.728   0.151   3.143  2.3181  0.2801  1.7244
  518SOL     MW 2072   1.754   0.208   3.079  0.7517 -0.0111 -0.1879
  519SOL     OW 2073   0.734   2.354   1.770 -0.1291  0.4205 -0.2456
  519SOL    HW1 2074   0.802   2.286   1.781  1.9529  1.8993  0.9020
  519SOL    HW2 2075   0.704   2.328   1.685 -1.9594  0.8101 -1.4763
  519SOL     MW 2076   0.739   2.342   1.760 -0.0959  0.6670 -0.2565
  520SOL     OW 2077   1.280   2.109   2.967  0.4195  0.0463 -0.3876
  520SOL    HW1 2078   1.205   2.059   2.934 -0.6189 -0.4709 -2.3671
  520SOL    HW2 2079   1.324   2.074   3.044  0.7851  0.0306  2.1938
  520SOL     MW 2080   1.276   2.098   2.972  0.3307 -0.0240 -0.3082
  521SOL     OW 2081   1.719   2.010   2.185 -0.4796 -0.5852  0.1658
  521SOL    HW1 2082   1.776   2.044   2.113  0.7199 -0.8883  3.5315
  521SOL    HW2 2083   1.676   1.932   2.147 -1.5351  0.9309 -0.3615
  521SOL     MW 2084   1.721   2.004   2.170 -0.4606 -0.4251  0.5403
  522SOL     OW 2085   2.888   2.539   2.219 -0.8977 -0.0899 -0.5238
  522SOL    HW1 2086   2.961   2.479   2.241  0.3183  0.1156 -1.0054
  522SOL    HW2 2087   2.907   2.623   2.263  2.9209  3.3725  0.5298
  522SOL     MW 2088   2.900   2.542   2.227 -0.2334  0.3940 -0.4483
  523SOL     OW 2089   0.930   1.529   2.196 -0.2366  0.4627 -0.1210
  523SOL    HW1 2090   0.893   1.562   2.115 -2.9510 -0.0554  1.3434
  523SOL    HW2 2091   0.958   1.444   2.154 -1.9453 -0.4846 -1.3075
  523SOL     MW 2092   0.928   1.522   2.180 -0.8202  0.2694 -0.0843
  524SOL     OW 2093   0.679   2.415   2.965 -0.2140 -0.3433  0.2102
  524SOL    HW1 2094   0.693   2.485   2.893  1.4892  1.1680 -1.4091
  524SOL    HW2 2095   0.753   2.352   2.954  0.4346 -0.1995 -0.0082
  524SOL     MW 2096   0.690   2.416   2.954  0.0963 -0.1250 -0.0323
  525SOL     OW 2097   0.322   2.291   2.088  0.0449  0.1708 -0.7052
  525SOL    HW1 2098   0.316   2.231   2.161  1.3811  3.2045 -1.0361
  525SOL    HW2 2099   0.337   2.236   2.018 -1.4021 -0.8724  1.2474
  525SOL     MW 2100   0.323   2.276   2.089  0.0303  0.4335 -0.4912
  526SOL     OW 2101   0.652   2.079   2.007  0.2749  1.2192 -0.0479
  526SOL    HW1 2102   0.712   2.087   1.932 -0.6252  0.6651  0.9348
  526SOL    HW2 2103   0.681   2.125   2.085 -1.7262 -2.3463 -0.3780
  526SOL     MW 2104   0.664   2.086   2.007 -0.1079  0.6757  0.0382
  527SOL     OW 2105   1.415   2.024   2.061  0.5005  0.6076  0.6564
  527SOL    HW1 2106   1.386   2.011   2.151  0.4906 -1.7187 -1.1743
  527SOL    HW2 2107   1.406   1.937   2.019 -0.0706 -0.9377  2.9384
  527SOL     MW 2108   1.410   2.011   2.068  0.4239  0.0968  0.7159
  528SOL     OW 2109   0.658   2.898   2.879 -0.4316 -0.4702  0.6374
  528SOL    HW1 2110   0.687   2.983   2.912  1.8782 -0.5631  0.1569
  528SOL    HW2 2111   0.622   2.910   2.791 -2.5987  0.7061  2.9099
  528SOL     MW 2112   0.657   2.910   2.871 -0.4127 -0.3273  0.8739
  529SOL     OW 2113   1.078   2.263   1.857 -0.2032  0.5153 -0.3110
  529SOL    HW1 2114   1.083   2.287   1.946 -1.7249  0.4655  1.2180
  529SOL    HW2 2115   1.106   2.333   1.802  0.1280  2.7475 -3.0707
  529SOL     MW 2116   1.082   2.275   1.862 -0.3602  0.8032 -0.4734
  530SOL     OW 2117   1.179   2.413   3.017  0.2347 -0.4185  0.4341
  530SOL    HW1 2118   1.113   2.441   3.085 -0.3006  0.4692 -0.2223
  530SOL    HW2 2119   1.177   2.319   2.999  1.8040  0.0195  1.2814
  530SOL     MW 2120   1.170   2.404   3.024  0.3711 -0.2436  0.4593
  531SOL     OW 2121   0.903   1.877   2.561 -0.0389 -0.0014  0.1463
  531SOL    HW1 2122   0.935   1.929   2.632 -0.7181 -1.1563 -2.8227
  531SOL    HW2 2123   0.864   1.800   2.604 -0.5691 -1.6811  0.9637
  531SOL     MW 2124   0.902   1.874   2.576 -0.1984 -0.3754 -0.1376
  532SOL     OW 2125   1.730   0.308   2.801 -0.7406  0.2875  0.2701
  532SOL    HW1 2126   1.753   0.241   2.864  0.5809 -0.9419 -0.6070
  532SOL    HW2 2127   1.813   0.355   2.798 -0.1359  1.6749 -0.2412
  532SOL     MW 2128   1.744   0.305   2.809 -0.4865  0.3084  0.0869
  533SOL     OW 2129   1.929   2.628   3.059 -1.1644 -0.0445  0.4186
  533SOL    HW1 2130   1.901   2.560   3.126 -0.8104 -1.5725  1.8685
  533SOL    HW2 2131   1.849   2.634   2.999  1.7828 -2.0724  0.1978
  533SOL     MW 2132   1.915   2.620   3.060 -0.7288 -0.5136  0.5807
  534SOL     OW 2133   1.735   2.407   2.531 -0.3519  0.1658  0.1514
  534SOL    HW1 2134   1.669   2.345   2.567 -1.8755  0.9432 -0.1432
  534SOL    HW2 2135   1.813   2.397   2.593  0.8787 -0.4912  0.1868
  534SOL     MW 2136   1.737   2.397   2.544 -0.3906  0.1817  0.1172
  535SOL     OW 2137   1.927   2.390   1.852  0.2601  0.4388  0.0776
  535SOL    HW1 2138   1.861   2.414   1.782 -1.5971 -1.1032  0.1627
  535SOL    HW2 2139   2.018   2.388   1.815 -0.3790  2.2720  0.8076
  535SOL     MW 2140   1.930   2.393   1.838 -0.0693  0.4772  0.1852
  536SOL     OW 2141   0.457   1.849   2.076 -0.2475 -0.0151  0.6769
  536SOL    HW1 2142   0.446   1.768   2.018  0.1050 -2.0293 -0.2705
  536SOL    HW2 2143   0.518   1.908   2.029  2.8458  1.1776  1.7346
  536SOL     MW 2144   0.464   1.846   2.062  0.2071 -0.1235  0.6915
  537SOL     OW 2145   1.083   0.214   2.847  0.3517  0.3321 -0.1414
  537SOL    HW1 2146   1.041   0.249   2.926 -0.4024  2.8455  1.7737
  537SOL    HW2 2147   1.091   0.281   2.780 -3.7485 -1.0418  0.4913
  537SOL     MW 2148   1.079   0.227   2.849 -0.2888  0.4824  0.1948
  538SOL     OW 2149   1.331   0.069   3.079 -0.2432  0.2948  0.4306
  538SOL    HW1 2150   1.293   0.155   3.077  2.1791 -0.4081  0.8632
  538SOL    HW2 2151   1.385   0.062   3.003 -1.3239 -1.8844 -0.9702
  538SOL     MW 2152   1.333   0.080   3.069 -0.0662 -0.0855  0.3028
  539SOL     OW 2153   0.705   2.797   2.476 -0.6407 -0.0874 -0.3897
  539SOL    HW1 2154   0.762   2.824   2.549  0.4491  1.9266  0.1994
  539SOL    HW2 2155   0.677   2.709   2.504  0.5982 -0.2236  2.9617
  539SOL     MW 2156   0.709   2.789   2.489 -0.3335  0.1604  0.1302
  540SOL     OW 2157   0.416   2.496   2.887 -0.5162  0.3115  0.5727
  540SOL    HW1 2158   0.485   2.448   2.932  0.6923  0.6171 -1.0349
  540SOL    HW2 2159   0.343   2.461   2.942  1.9714  0.5915  2.3988
  540SOL     MW 2160   0.415   2.485   2.900 -0.0285  0.3887  0.6015
  541SOL     OW 2161   0.181   2.906   2.200  0.6042  0.1811 -0.4595
  541SOL    HW1 2162   0.121   2.841   2.160 -1.2808 -1.8016 -2.5899
  541SOL    HW2 2163   0.216   2.877   2.284 -1.4855 -0.8733  1.9912
  541SOL     MW 2164   0.178   2.893   2.205  0.0798 -0.2196 -0.4172
  542SOL     OW 2165   1.030   2.294   2.656  0.4431  0.1490  0.0356
  542SOL    HW1 2166   1.000   2.229   2.721  0.8638  0.5887  0.7980
  542SOL    HW2 2167   1.090   2.349   2.696 -0.8961 -0.2419  0.2198
  542SOL     MW 2168   1.034   2.292   2.670  0.3219  0.1554  0.1605
  543SOL     OW 2169   1.571   2.441   2.871  0.8188  0.0306  0.4491
  543SOL    HW1 2170   1.566   2.390   2.790  2.3026  1.3034  1.3307
  543SOL    HW2 2171   1.646   2.506   2.861  3.1059 -1.4611 -1.0036
  543SOL     MW 2172   1.580   2.443   2.859  1.3163  0.0018  0.3737
  544SOL     OW 2173   0.714   0.224   2.746  0.3676  0.4990 -0.6400
  544SOL    HW1 2174   0.620   0.249   2.740 -1.3478 -1.7383  1.1376
  544SOL    HW2 2175   0.733   0.152   2.685 -0.9320 -3.0188  1.7214
  544SOL     MW 2176   0.704   0.217   2.737 -0.0302 -0.2604 -0.0939
  545SOL     OW 2177   1.567   2.181   2.348 -0.1681 -0.3143  0.1680
  545SOL    HW1 2178   1.531   2.265   2.319 -2.1169  1.1952  1.6617
  545SOL    HW2 2179   1.628   2.139   2.283  0.8711 -1.3142  1.6133
  545SOL     MW 2180   1.570   2.186   2.336 -0.2881 -0.2471  0.5558
  546SOL     OW 2181   3.019   1.997   0.139 -0.7179  0.1642 -0.4961
  546SOL    HW1 2182   2.989   2.068   0.076  0.4956  2.6076  1.2885
  546SOL    HW2 2183   3.114   1.985   0.120 -0.0900  0.9466  2.2478
  546SOL     MW 2184   3.028   2.005   0.128 -0.4749  0.5898  0.1014
  547SOL     OW 2185   0.239   0.012   0.046 -0.1958  0.7293  0.7677
  547SOL    HW1 2186   0.331   0.040   0.018  4.8968 -1.4381 -1.3573
  547SOL    HW2 2187   0.186   0.019  -0.029  2.4126  0.3777 -2.0377
  547SOL     MW 2188   0.244   0.017   0.032  0.8202  0.3969  0.1172
  548SOL     OW 2189   0.305   2.502   0.255  0.0081 -0.4236  0.2973
  548SOL    HW1 2190   0.318   2.570   0.192 -1.4377  0.3046  0.0075
  548SOL    HW2 2191   0.225   2.456   0.232 -1.3257 -1.3417  0.1060
  548SOL     MW 2192   0.296   2.505   0.244 -0.3586 -0.4486  0.2338
  549SOL     OW 2193   0.802   1.892   2.136 -0.1194 -0.5249  0.3865
  549SOL    HW1 2194   0.730   1.936   2.088 -1.5421  2.4907 -0.8278
  549SOL    HW2 2195   0.763   1.870   2.225 -1.4961  1.1058 -0.3655
  549SOL     MW 2196   0.787   1.895   2.142 -0.4887  0.0881  0.1271
  550SOL     OW 2197   1.784   1.752   2.544  0.2569  0.0433  0.1850
  550SOL    HW1 2198   1.780   1.729   2.448  1.0069 -0.3304  1.3938
  550SOL    HW2 2199   1.793   1.849   2.569 -1.1336  1.2334 -0.8703
  550SOL     MW 2200   1.785   1.762   2.535  0.1724  0.1510  0.2052
  551SOL     OW 2201   0.858   2.283   0.191  0.7386 -0.2234 -0.1531
  551SOL    HW1 2202   0.950   2.290   0.170  0.2143 -0.0239  0.4887
  551SOL    HW2 2203   0.812   2.210   0.147 -0.2844 -0.8303  2.1034
  551SOL     MW 2204   0.864   2.274   0.182  0.5345 -0.2771  0.2293
  552SOL     OW 2205   1.763   1.699   2.284 -0.0665  0.5420 -1.3094
  552SOL    HW1 2206   1.671   1.718   2.283  0.1184  1.0125  4.5249
  552SOL    HW2 2207   1.788   1.653   2.199  0.3817  1.5737  3.0319
  552SOL     MW 2208   1.754   1.695   2.273  0.0170  0.7402  0.0332
  553SOL     OW 2209   1.277   2.330   1.525  0.6023  0.2340  0.4160
  553SOL    HW1 2210   1.322   2.244   1.512 -1.7517  1.3329  3.1214
  553SOL    HW2 2211   1.331   2.399   1.477  0.5252 -0.5583 -1.6440
  553SOL     MW 2212   1.290   2.328   1.517  0.2816  0.2744  0.5011
  554SOL     OW 2213   0.514   2.931   2.638  0.6798 -0.1986 -0.1477
  554SOL    HW1 2214   0.513   3.017   2.581  2.0953 -1.1704 -1.5558
  554SOL    HW2 2215   0.560   2.866   2.582 -1.1526  0.5915  1.4794
  554SOL     MW 2216   0.520   2.934   2.623  0.6248 -0.2226 -0.1188
  555SOL     OW 2217   0.653   2.476   2.468 -0.1441 -0.3168 -0.1466
  555SOL    HW1 2218   0.595   2.394   2.473 -1.1862 -2.0050 -0.9123
  555SOL    HW2 2219   0.743   2.454   2.446 -3.6262 -0.3024 -1.1749
  555SOL     MW 2220   0.657   2.462   2.466 -0.7411 -0.5377 -0.3833
  556SOL     OW 2221   0.985   1.855   0.093 -0.4218  0.3051 -0.4567
  556SOL    HW1 2222   1.038   1.822   0.021  2.1608 -0.2794 -0.0617
  556SOL    HW2 2223   1.046   1.874   0.169  1.3583 -1.0216  1.2706
  556SOL     MW 2224   1.000   1.854   0.094  0.1538  0.0529 -0.1767
  557SOL     OW 2225   0.949   2.642   0.504  0.1276 -0.3002 -0.1280
  557SOL    HW1 2226   1.001   2.580   0.458  0.6847  1.5866  0.4079
  557SOL    HW2 2227   0.939   2.718   0.442  0.2991 -1.7137  1.6866
  557SOL     MW 2228   0.954   2.644   0.490  0.2237 -0.2377  0.1821
  558SOL     OW 2229   0.204   2.335   2.999  0.4298  0.0029 -0.0701
  558SOL    HW1 2230   0.149   2.281   2.943 -2.3347 -0.2092  1.7737
  558SOL    HW2 2231   0.161   2.341   3.085 -1.4114 -0.2989 -3.0149
  558SOL     MW 2232   0.191   2.329   3.003 -0.1779 -0.0649 -0.2154
  559SOL     OW 2233   1.045   2.357   2.124  0.5031  0.1178 -0.0538
  559SOL    HW1 2234   1.104   2.401   2.183  0.7855 -0.5081 -0.1589
  559SOL    HW2 2235   1.038   2.266   2.150  2.1765 -0.7556  0.3467
  559SOL     MW 2236   1.052   2.351   2.135  0.7611 -0.0800 -0.0148
  560SOL     OW 2237   1.988   2.882   0.015 -0.2548  0.3847  0.0366
  560SOL    HW1 2238   2.060   2.907  -0.046 -2.2349 -0.9012  0.7878
  560SOL    HW2 2239   1.955   2.788  -0.005  0.8651 -2.3759  1.1511
  560SOL     MW 2240   1.993   2.873   0.004 -0.3683 -0.1492  0.2827
  561SOL     OW 2241   0.383   2.159   0.043 -0.2910 -0.2156  0.3113
  561SOL    HW1 2242   0.336   2.215  -0.016  0.0580 -1.9525 -0.1592
  561SOL    HW2 2243   0.428   2.223   0.107 -1.6373  0.4716 -0.9353
  561SOL     MW 2244   0.383   2.175   0.044 -0.4226 -0.3541  0.0847
  562SOL     OW 2245   0.713   2.204   2.249 -0.6267  0.5744  0.7689
  562SOL    HW1 2246   0.690   2.295   2.227  0.9543 -1.2873  0.1293
  562SOL    HW2 2247   0.813   2.184   2.235 -1.2901 -1.3058  1.3074
  562SOL     MW 2248   0.723   2.213   2.245 -0.5057  0.0807  0.7556
  563SOL     OW 2249   1.235   0.314   0.566  0.1313  0.0755 -0.2294
  563SOL    HW1 2250   1.182   0.264   0.504  2.3452  1.1260 -0.1778
  563SOL    HW2 2251   1.251   0.260   0.648  2.2963  0.3192  0.9673
  563SOL     MW 2252   1.230   0.300   0.568  0.7090  0.2462 -0.0647
  564SOL     OW 2253   1.159   2.517   2.316  0.5399  0.9265  0.6915
  564SOL    HW1 2254   1.143   2.593   2.260 -0.3141  0.6699  1.2715
  564SOL    HW2 2255   1.178   2.559   2.392 -1.6270 -1.8122 -0.0369
  564SOL     MW 2256   1.160   2.532   2.319  0.1413  0.5313  0.6719
  565SOL     OW 2257   2.819   2.773   2.652 -0.2059  0.1528 -0.1497
  565SOL    HW1 2258   2.866   2.854   2.636  0.8806 -1.2623 -1.0567
  565SOL    HW2 2259   2.763   2.752   2.583  2.0691  1.4243 -0.4440
  565SOL     MW 2260   2.818   2.781   2.640  0.2376  0.1338 -0.3082
  566SOL     OW 2261   2.124   1.827   2.393 -0.1681 -0.5089  0.4899
  566SOL    HW1 2262   2.118   1.799   2.302 -0.0051 -0.9285 -0.3295
  566SOL    HW2 2263   2.196   1.903   2.387 -0.6590  1.2941 -0.5625
  566SOL     MW 2264   2.133   1.834   2.381 -0.2113 -0.3264  0.2430
  567SOL     OW 2265   1.177   2.945   3.036 -0.8852  0.1339 -0.0137
  567SOL    HW1 2266   1.240   3.000   3.086  3.5229 -1.6568  0.8579
  567SOL    HW2 2267   1.225   2.857   3.008  1.6181  0.4847 -0.9362
  567SOL     MW 2268   1.192   2.940   3.039  0.0267 -0.0561 -0.0204
  568SOL     OW 2269   1.610   2.085   2.895  0.3082 -0.5120 -0.4791
  568SOL    HW1 2270   1.660   2.157   2.927  0.4734  0.6507  1.2282
  568SOL    HW2 2271   1.667   2.038   2.838  0.3070 -3.0267  0.1507
  568SOL     MW 2272   1.624   2.088   2.892  0.3298 -0.6904 -0.1708
  569SOL     OW 2273   0.162   2.284   2.457 -0.1719 -0.4168 -0.0227
  569SOL    HW1 2274   0.093   2.302   2.390 -0.0816 -1.3742  0.3913
  569SOL    HW2 2275   0.178   2.359   2.512  0.6472 -2.9073 -1.2376
  569SOL     MW 2276   0.155   2.296   2.456 -0.0519 -0.8717 -0.1284
  570SOL     OW 2277   1.514   0.354   0.510  0.0675  0.0992 -0.1969
  570SOL    HW1 2278   1.419   0.365   0.534  0.4579 -0.9084 -0.2326
  570SOL    HW2 2279   1.560   0.353   0.595 -1.4099  1.6656  1.9155
  570SOL     MW 2280   1.507   0.356   0.524 -0.0760  0.1729  0.0771
  571SOL     OW 2281   1.428   2.435   2.010 -0.7536  0.0095  0.3116
  571SOL    HW1 2282   1.478   2.439   2.091 -0.0822 -0.2634  0.9511
  571SOL    HW2 2283   1.470   2.359   1.964 -0.5476 -2.5649 -2.4715
  571SOL     MW 2284   1.440   2.425   2.015 -0.6379 -0.3661  0.0288
  572SOL     OW 2285   1.049   2.580   0.116 -0.2075  0.0827 -0.1614
  572SOL    HW1 2286   1.061   2.670   0.082 -0.4201  0.9959  1.5457
  572SOL    HW2 2287   0.949   2.558   0.091 -1.6976 -2.3436 -1.1100
  572SOL     MW 2288   1.038   2.589   0.108 -0.4322 -0.1169 -0.0613
  573SOL     OW 2289   1.152   2.289   0.212  0.6185  0.4389 -0.1343
  573SOL    HW1 2290   1.228   2.310   0.153  2.3033  0.3539  0.0318
  573SOL    HW2 2291   1.149   2.374   0.264  1.5104  2.0046  0.5120
  573SOL     MW 2292   1.162   2.303   0.211  0.9585  0.6343 -0.0271
  574SOL     OW 2293   1.142   2.510   0.364  0.6649  0.0855  0.0917
  574SOL    HW1 2294   1.233   2.541   0.374  1.0575 -0.4858 -1.6872
  574SOL    HW2 2295   1.114   2.535   0.269 -2.5622  0.2260 -1.1288
  574SOL     MW 2296   1.150   2.517   0.353  0.2909  0.0287 -0.3041
  575SOL     OW 2297   3.076   2.197   1.802  0.3219  0.0491 -0.0934
  575SOL    HW1 2298   3.114   2.124   1.751 -1.8630 -0.8976 -2.2535
  575SOL    HW2 2299   3.146   2.266   1.814 -0.6411  1.4967 -0.0083
  575SOL     MW 2300   3.090   2.197   1.797 -0.0934  0.1152 -0.3672
  576SOL     OW 2301   2.794   1.804   2.083  0.5300  0.3658 -0.6655
  576SOL    HW1 2302   2.803   1.892   2.053 -0.9645  0.1365  0.1628
  576SOL    HW2 2303   2.699   1.775   2.068  1.3736  1.9312 -1.0599
  576SOL     MW 2304   2.783   1.811   2.077  0.4441  0.5421 -0.6083
  577SOL     OW 2305   2.032   0.202   0.065  0.0167 -0.3311 -0.4671
  577SOL    HW1 2306   1.944   0.226   0.026 -1.6917  1.8364 -1.3152
  577SOL    HW2 2307   2.007   0.170   0.150  0.1445  1.0728  2.0018
  577SOL     MW 2308   2.017   0.201   0.071 -0.1919  0.1401 -0.2533
  578SOL     OW 2309   1.958   2.045   2.364 -0.0740  0.1010 -0.3865
  578SOL    HW1 2310   1.896   2.006   2.296  1.3783 -3.1650 -0.5678
  578SOL    HW2 2311   2.010   1.966   2.382  0.6958 -2.1592  0.4725
  578SOL     MW 2312   1.956   2.030   2.358  0.2192 -0.6281 -0.2971
  579SOL     OW 2313   0.891   2.407   2.437  0.5757  0.4701 -0.0206
  579SOL    HW1 2314   0.937   2.379   2.512 -3.6206  1.4451  0.1107
  579SOL    HW2 2315   0.960   2.426   2.372 -0.1569  0.6205 -0.1809
  579SOL     MW 2316   0.906   2.406   2.438 -0.0746  0.6186 -0.0244
  580SOL     OW 2317   0.916   2.861   0.012 -0.1656 -0.7558  0.4698
  580SOL    HW1 2318   1.004   2.898  -0.010  0.2817  0.0904  0.1002
  580SOL    HW2 2319   0.899   2.807  -0.064 -1.4125  2.9616  0.7716
  580SOL     MW 2320   0.925   2.859  -0.001 -0.2711 -0.1537  0.4609
  581SOL     OW 2321   1.127   2.513   1.681 -0.0921  1.0966 -0.0209
  581SOL    HW1 2322   1.183   2.562   1.742 -1.7886 -2.0108 -2.2857
  581SOL    HW2 2323   1.186   2.442   1.640  3.2837 -1.9538 -0.3104
  581SOL     MW 2324   1.142   2.510   1.684  0.1295  0.2841 -0.3579
  582SOL     OW 2325   0.041   2.792   2.620 -0.0402 -0.1562  0.4296
  582SOL    HW1 2326  -0.007   2.846   2.682 -2.2393  0.2417  0.8877
  582SOL    HW2 2327   0.122   2.841   2.597 -0.3012  3.0061  0.9517
  582SOL     MW 2328   0.046   2.805   2.625 -0.3648  0.3135  0.5589
  583SOL     OW 2329   1.978   2.404   2.647  0.3411  0.1219  0.2814
  583SOL    HW1 2330   2.052   2.450   2.605  0.9351  1.4790  0.0055
  583SOL    HW2 2331   2.008   2.312   2.636  0.1606 -1.3497  1.5994
  583SOL     MW 2332   1.992   2.398   2.640  0.3957  0.1068  0.4189
  584SOL     OW 2333   0.105   1.877   2.252 -0.0052 -0.0240 -0.1932
  584SOL    HW1 2334   0.182   1.840   2.213 -0.4938 -2.6553 -0.4427
  584SOL    HW2 2335   0.117   1.971   2.267 -0.3764 -1.1064 -0.5354
  584SOL     MW 2336   0.117   1.884   2.249 -0.1186 -0.5140 -0.2713
  585SOL     OW 2337   1.584   2.624   0.249 -0.5307 -1.0827  0.2287
  585SOL    HW1 2338   1.523   2.594   0.177 -1.5396 -0.0101 -2.1883
  585SOL    HW2 2339   1.522   2.635   0.330 -0.1676 -0.5351  0.9135
  585SOL     MW 2340   1.568   2.621   0.250 -0.6159 -0.8689  0.0002
  586SOL     OW 2341   1.376   2.854   2.564  0.0535 -0.2693  0.0668
  586SOL    HW1 2342   1.415   2.835   2.476 -0.7010  0.3242  1.4166
  586SOL    HW2 2343   1.331   2.940   2.555  1.1956  3.8190 -0.1761
  586SOL     MW 2344   1.375   2.863   2.551  0.1047  0.3484  0.2128
  587SOL     OW 2345   1.343   1.566   2.139  0.1634 -0.8892  0.5426
  587SOL    HW1 2346   1.327   1.500   2.213 -1.8705  0.9266 -0.6447
  587SOL    HW2 2347   1.322   1.526   2.055  2.4390 -1.3544  1.5602
  587SOL     MW 2348   1.338   1.552   2.138  0.1953 -0.7110  0.5202
  588SOL     OW 2349   1.322   2.045   2.672  0.3794 -0.4520 -0.1407
  588SOL    HW1 2350   1.350   1.953   2.686  0.0478 -0.1261 -2.2729
  588SOL    HW2 2351   1.317   2.086   2.762 -0.5907 -2.8110 -0.0074
  588SOL     MW 2352   1.325   2.038   2.686  0.2076 -0.7202 -0.4044
  589SOL     OW 2353   1.376   2.007   0.117  0.2881  0.4670  0.3767
  589SOL    HW1 2354   1.397   2.096   0.141 -0.6798 -0.0084  0.3112
  589SOL    HW2 2355   1.298   1.972   0.163 -0.2889  0.5611  1.1871
  589SOL     MW 2356   1.369   2.014   0.126  0.0842  0.4167  0.4750
  590SOL     OW 2357   0.486   2.778   2.230  0.3064  0.1671 -0.7002
  590SOL    HW1 2358   0.454   2.723   2.154 -1.9909  0.2778  1.0751
  590SOL    HW2 2359   0.578   2.811   2.217  1.3698  1.4089 -0.1552
  590SOL     MW 2360   0.494   2.775   2.218  0.1436  0.3455 -0.3941
  591SOL     OW 2361   2.240   0.659   3.102 -0.6683  0.5148  0.2380
  591SOL    HW1 2362   2.175   0.708   3.052  3.8889 -0.7055  1.2324
  591SOL    HW2 2363   2.306   0.677   3.031 -2.0365  1.8840 -0.6795
  591SOL     MW 2364   2.240   0.668   3.086 -0.2475  0.5344  0.2481
  592SOL     OW 2365   1.744   2.945   0.779 -0.2847 -0.2545  0.2407
  592SOL    HW1 2366   1.720   2.994   0.704 -0.5309 -0.5531 -2.3543
  592SOL    HW2 2367   1.838   2.923   0.777 -0.2585 -0.0428  1.0190
  592SOL     MW 2368   1.753   2.949   0.769 -0.3137 -0.2660  0.0010
  593SOL     OW 2369   1.961   0.630   0.868  0.0490 -0.4043  0.4299
  593SOL    HW1 2370   1.897   0.610   0.798 -0.0429 -0.6421  0.9633
  593SOL    HW2 2371   2.035   0.572   0.851  1.1071 -0.0825  2.0962
  593SOL     MW 2372   1.962   0.620   0.856  0.1765 -0.3933  0.7201
  594SOL     OW 2373   2.775   1.142   1.395  0.0811 -0.4312 -0.2346
  594SOL    HW1 2374   2.873   1.163   1.404 -2.5718 -0.4695  0.5268
  594SOL    HW2 2375   2.767   1.096   1.309 -0.0147 -0.1853  0.6715
  594SOL     MW 2376   2.787   1.138   1.385 -0.2816 -0.4038 -0.0146
  595SOL     OW 2377   0.466   0.989   0.817  0.5699 -0.1129  0.0559
  595SOL    HW1 2378   0.479   1.037   0.730  1.8468  2.8134 -1.7789
  595SOL    HW2 2379   0.503   1.047   0.886 -3.4373 -0.5906 -0.4966
  595SOL     MW 2380   0.473   1.003   0.815  0.2097  0.2101 -0.2590
  596SOL     OW 2381   2.484   1.304   0.572  0.1520  0.0596  0.1568
  596SOL    HW1 2382   2.528   1.380   0.537 -0.0058 -2.2141 -1.8961
  596SOL    HW2 2383   2.542   1.270   0.646  0.0114  2.3296  1.8507
  596SOL     MW 2384   2.497   1.310   0.577  0.1127  0.0591  0.1095
  597SOL     OW 2385   2.183   0.674   1.626 -0.1567  0.2846 -0.0083
  597SOL    HW1 2386   2.187   0.604   1.690 -1.6934  1.3650 -2.6331
  597SOL    HW2 2387   2.120   0.646   1.565  0.3840 -2.1160  1.1534
  597SOL     MW 2388   2.176   0.661   1.626 -0.2881  0.1104 -0.2013
  598SOL     OW 2389   2.550   1.042   2.761 -0.2160 -0.4668  0.1408
  598SOL    HW1 2390   2.580   1.036   2.671 -0.3968  0.7344  0.6876
  598SOL    HW2 2391   2.623   1.064   2.818  1.6256 -1.6695 -1.1580
  598SOL     MW 2392   2.564   1.044   2.757  0.0032 -0.4670  0.0416
  599SOL     OW 2393   2.995   0.401   2.096 -0.2133 -0.0210  0.4292
  599SOL    HW1 2394   3.053   0.430   2.168  1.5717  1.1857 -0.7891
  599SOL    HW2 2395   3.001   0.473   2.028  1.6445  0.8940  0.8728
  599SOL     MW 2396   3.003   0.414   2.096  0.2673  0.2589  0.3270
  600SOL     OW 2397   1.839   1.616   0.892  0.0268  0.1469  0.1619
  600SOL    HW1 2398   1.875   1.680   0.954 -2.1776  1.7797  1.0403
  600SOL    HW2 2399   1.767   1.675   0.856 -0.1392  3.1390  0.0720
  600SOL     MW 2400   1.835   1.632   0.895 -0.2860  0.7571  0.2659
  601SOL     OW 2401   2.506   0.760   0.803  0.1673  0.4528  0.2601
  601SOL    HW1 2402   2.488   0.763   0.896  0.6942  0.4169  0.2668
  601SOL    HW2 2403   2.444   0.696   0.776  1.2200 -0.3358  1.3222
  601SOL     MW 2404   2.496   0.752   0.812  0.3757  0.3440  0.4011
  602SOL     OW 2405   2.262   1.974   0.767  0.1137  0.1395 -0.1052
  602SOL    HW1 2406   2.217   1.891   0.770 -1.0479  0.0649  2.6719
  602SOL    HW2 2407   2.214   2.034   0.705  2.8882 -2.3724 -3.0846
  602SOL     MW 2408   2.250   1.971   0.759  0.3265 -0.2017 -0.1319
  603SOL     OW 2409   0.002   1.369   1.894 -0.2295  0.6468  0.7253
  603SOL    HW1 2410   0.051   1.437   1.940 -0.3934  0.6200  3.5064
  603SOL    HW2 2411   0.015   1.287   1.945  0.7025  0.3643  4.0114
  603SOL     MW 2412   0.010   1.367   1.907 -0.1281  0.6060  1.5258
  604SOL     OW 2413   2.089   1.544   0.462 -0.5671 -0.8290  0.0289
  604SOL    HW1 2414   2.106   1.459   0.503 -1.5855 -0.0366  2.1393
  604SOL    HW2 2415   2.017   1.584   0.517  2.3097 -2.3196 -2.6403
  604SOL     MW 2416   2.082   1.538   0.475 -0.3219 -0.9211 -0.0448
  605SOL     OW 2417   2.513   1.497   0.896 -0.2073  0.2765 -0.1884
  605SOL    HW1 2418   2.489   1.562   0.837  2.0196  1.5303  0.8013
  605SOL    HW2 2419   2.533   1.419   0.844 -1.3474 -2.9656  0.1843
  605SOL     MW 2420   2.513   1.495   0.882 -0.0639  0.0141 -0.0086
  606SOL     OW 2421   2.545   1.711   2.030 -0.0176  0.5308  0.0586
  606SOL    HW1 2422   2.464   1.750   1.997  1.7236  0.6846  0.7868
  606SOL    HW2 2423   2.588   1.666   1.957 -0.4288  1.0335  2.0689
  606SOL     MW 2424   2.540   1.710   2.016  0.1579  0.6174  0.4199
  607SOL     OW 2425   2.422   1.040   3.016 -0.2918 -0.2737 -0.1543
  607SOL    HW1 2426   2.455   1.027   2.926 -3.0383  0.5111  0.9329
  607SOL    HW2 2427   2.489   1.027   3.080 -1.1833  1.0678  2.5664
  607SOL     MW 2428   2.436   1.036   3.013 -0.7718  0.0069  0.3481
  608SOL     OW 2429   1.848   0.291   0.568 -0.0653  0.3192 -0.0251
  608SOL    HW1 2430   1.877   0.346   0.489  0.6403 -0.1542 -2.2434
  608SOL    HW2 2431   1.806   0.207   0.535 -2.2221 -1.4599 -0.9690
  608SOL     MW 2432   1.846   0.287   0.553 -0.2568  0.0220 -0.4423
  609SOL     OW 2433   2.088   1.958   3.032  0.5634  0.0971  0.1827
  609SOL    HW1 2434   2.019   1.900   3.001  0.8419  4.3991  0.0941
  609SOL    HW2 2435   2.102   1.929   3.124  1.9739 -0.0830  0.6965
  609SOL     MW 2436   2.081   1.946   3.040  0.7862  0.6410  0.2388
  610SOL     OW 2437   1.818   0.964   1.226  0.1681  0.0517 -0.1956
  610SOL    HW1 2438   1.851   0.889   1.175 -0.7096  0.5129  2.3312
  610SOL    HW2 2439   1.727   0.961   1.189 -0.7081  0.8886  0.5476
  610SOL     MW 2440   1.810   0.954   1.214 -0.0633  0.2230  0.2358
  611SOL     OW 2441   2.535   1.669   0.664 -0.0310 -0.5721  0.0692
  611SOL    HW1 2442   2.588   1.746   0.642 -1.6717 -1.4752  1.3431
  611SOL    HW2 2443   2.445   1.693   0.653  1.6117 -1.1075  0.5213
  611SOL     MW 2444   2.530   1.682   0.659 -0.0307 -0.7619  0.2969
  612SOL     OW 2445   2.854   2.897   0.381 -0.4467  0.0832  0.1045
  612SOL    HW1 2446   2.891   2.912   0.471  3.2735 -0.2504 -1.7689
  612SOL    HW2 2447   2.923   2.855   0.332 -0.6772 -1.7157 -0.1831
  612SOL     MW 2448   2.868   2.893   0.386  0.0137 -0.1982 -0.1806
  613SOL     OW 2449   1.450   1.048   0.923 -0.3033  0.4384  0.0813
  613SOL    HW1 2450   1.429   1.139   0.912  0.2825  0.2527  0.1776
  613SOL    HW2 2451   1.513   1.041   0.999  0.0014 -1.0374  1.4211
  613SOL     MW 2452   1.456   1.059   0.932 -0.1858  0.2192  0.2707
  614SOL     OW 2453   1.983   0.532   1.496  0.0343  0.0606  0.5354
  614SOL    HW1 2454   1.972   0.464   1.571 -1.9327  0.3776  0.0680
  614SOL    HW2 2455   1.940   0.513   1.409  0.4059  0.3242 -1.5659
  614SOL     MW 2456   1.976   0.520   1.494 -0.1762  0.1372  0.1965
  615SOL     OW 2457   2.302   0.771   0.275  0.1731 -0.0284  0.5700
  615SOL    HW1 2458   2.378   0.712   0.279 -1.0379 -0.5767 -1.1104
  615SOL    HW2 2459   2.261   0.738   0.197  0.0579 -1.7883 -0.6786
  615SOL     MW 2460   2.306   0.759   0.265 -0.0019 -0.3330  0.1835
  616SOL     OW 2461   2.510   0.431   1.679  0.3557  0.5012  0.0154
  616SOL    HW1 2462   2.565   0.371   1.626  1.0650 -1.5151 -1.4242
  616SOL    HW2 2463   2.465   0.476   1.603 -0.0640 -1.5575 -0.0287
  616SOL     MW 2464   2.511   0.429   1.662  0.3939 -0.0365 -0.1803
  617SOL     OW 2465   2.796   0.592   1.677  0.2708 -0.6873 -0.4608
  617SOL    HW1 2466   2.712   0.593   1.715  3.9179  0.6523  0.2133
  617SOL    HW2 2467   2.831   0.511   1.716  0.7076  1.0050 -0.4652
  617SOL     MW 2468   2.790   0.581   1.687  0.8096 -0.2873 -0.3724
  618SOL     OW 2469   2.693   0.364   1.960  0.0113  0.0733  0.0718
  618SOL    HW1 2470   2.689   0.459   1.940 -1.2711 -0.5806 -2.4938
  618SOL    HW2 2471   2.759   0.367   2.030  0.7962 -2.0769 -1.4141
  618SOL     MW 2472   2.701   0.377   1.967 -0.0543 -0.2967 -0.4628
  619SOL     OW 2473   2.676   0.732   0.051  1.0280 -0.2919  0.2366
  619SOL    HW1 2474   2.715   0.818   0.040 -1.6909 -1.1138 -1.4381
  619SOL    HW2 2475   2.628   0.739   0.129  1.1836  0.1691 -0.6810
  619SOL     MW 2476   2.675   0.744   0.060  0.6898 -0.3395 -0.1054
  620SOL     OW 2477   2.228   1.050   0.914  0.5912  0.1638  0.1022
  620SOL    HW1 2478   2.314   1.043   0.878 -2.7705  0.0099 -0.1731
  620SOL    HW2 2479   2.160   0.997   0.871 -1.3222  2.9295  0.0423
  620SOL     MW 2480   2.231   1.042   0.904 -0.1048  0.5084  0.0580
  621SOL     OW 2481   1.579   2.212   1.927  0.0054  0.4891  0.1747
  621SOL    HW1 2482   1.518   2.141   1.961 -1.0391 -1.2971 -0.1367
  621SOL    HW2 2483   1.670   2.178   1.951  2.9637  1.9314 -1.3720
  621SOL     MW 2484   1.583   2.198   1.935  0.2579  0.4437 -0.0705
  622SOL     OW 2485   2.646   0.204   0.246  0.1987  0.1429  0.0701
  622SOL    HW1 2486   2.736   0.231   0.248  2.3604 -0.8102  1.8192
  622SOL    HW2 2487   2.643   0.109   0.270 -1.2509  0.5828  0.7585
  622SOL     MW 2488   2.657   0.195   0.250  0.2927  0.0752  0.3917
  623SOL     OW 2489   2.466   2.756   0.852  0.0526 -0.0273  0.5497
  623SOL    HW1 2490   2.525   2.833   0.845 -2.5192 -0.7878 -0.4420
  623SOL    HW2 2491   2.423   2.760   0.937 -1.4115  1.9999 -0.4255
  623SOL     MW 2492   2.468   2.767   0.862 -0.4799  0.1399  0.2902
  624SOL     OW 2493   2.112   1.632   3.031 -0.4708  0.3531 -0.1846
  624SOL    HW1 2494   2.068   1.550   3.041 -0.7610 -4.3169 -0.4137
  624SOL    HW2 2495   2.052   1.672   2.966  1.1691 -0.1256  2.2362
  624SOL     MW 2496   2.099   1.626   3.024 -0.2927 -0.3262  0.1046
  625SOL     OW 2497   2.224   1.910   1.071  0.1686  0.2155  0.4528
  625SOL    HW1 2498   2.275   1.854   1.127 -1.4690 -2.2749 -1.6197
  625SOL    HW2 2499   2.297   1.962   1.030  0.7345 -0.8470 -3.2069
  625SOL     MW 2500   2.240   1.909   1.073  0.0272 -0.2533 -0.3035
  626SOL     OW 2501   0.265   1.768   2.439 -0.8839  0.2582  0.2055
  626SOL    HW1 2502   0.217   1.693   2.473 -0.8936  0.5077  0.8886
  626SOL    HW2 2503   0.193   1.823   2.403  0.7327 -0.4145  0.5025
  626SOL     MW 2504   0.249   1.766   2.439 -0.6719  0.2024  0.3348
  627SOL     OW 2505   2.517   0.730   2.562  0.5505  0.4332  0.2732
  627SOL    HW1 2506   2.459   0.801   2.533  0.1175 -0.1953  0.8767
  627SOL    HW2 2507   2.540   0.688   2.476 -1.8156 -1.6484  0.5195
  627SOL     MW 2508   2.513   0.734   2.547  0.1812  0.0756  0.3853
  628SOL     OW 2509   2.265   1.373   1.285 -0.1569  0.2839  0.2294
  628SOL    HW1 2510   2.235   1.286   1.259 -0.2196  0.5263  1.6338
  628SOL    HW2 2511   2.338   1.397   1.216 -0.8647  1.3363 -3.6194
  628SOL     MW 2512   2.271   1.365   1.272 -0.2586  0.4548 -0.0931
  629SOL     OW 2513   1.868   0.517   1.240 -0.4780 -0.6499  0.0936
  629SOL    HW1 2514   1.869   0.587   1.176  1.3149  2.3185  1.1427
  629SOL    HW2 2515   1.777   0.485   1.247 -0.1254 -0.5841  1.5043
  629SOL     MW 2516   1.856   0.522   1.232 -0.1949 -0.2495  0.4181
  630SOL     OW 2517   2.386   1.885   3.034  0.2550  0.0853 -0.3990
  630SOL    HW1 2518   2.399   1.951   2.963 -2.9932 -0.2567  0.3435
  630SOL    HW2 2519   2.291   1.863   3.046  0.9468  0.6287 -1.5567
  630SOL     MW 2520   2.375   1.891   3.026 -0.0823  0.1119 -0.4538
  631SOL     OW 2521   2.040   1.692   1.563 -0.3078  0.1646  0.0674
  631SOL    HW1 2522   2.059   1.611   1.613 -0.3018 -2.1227  3.4850
  631SOL    HW2 2523   1.984   1.672   1.494 -1.3753 -2.6031  0.1808
  631SOL     MW 2524   2.035   1.679   1.561 -0.4478 -0.5023  0.5333
  632SOL     OW 2525   0.231   1.960   1.440  0.1749 -0.2074  0.0985
  632SOL    HW1 2526   0.170   1.959   1.521  2.1803 -1.1712  0.8553
  632SOL    HW2 2527   0.270   1.867   1.439 -0.8471 -0.5817 -0.7677
  632SOL     MW 2528   0.228   1.947   1.451  0.3046 -0.3839  0.0841
  633SOL     OW 2529   2.511   0.592   0.267 -0.4237 -0.4380  0.1107
  633SOL    HW1 2530   2.549   0.547   0.344 -0.2597 -1.7981  0.8279
  633SOL    HW2 2531   2.511   0.531   0.196  1.9763 -3.5748  1.0809
  633SOL     MW 2532   2.516   0.578   0.268 -0.0854 -1.0313  0.3333
  634SOL     OW 2533   2.678  -0.003   0.661  0.0050 -0.4209 -0.0505
  634SOL    HW1 2534   2.710   0.083   0.683  0.0355  1.2176  2.7146
  634SOL    HW2 2535   2.634   0.006   0.576  0.6060 -0.7025  0.0226
  634SOL     MW 2536   2.676   0.010   0.653  0.0883 -0.2418  0.3240
  635SOL     OW 2537   2.579   0.147   1.846 -0.0614  0.5225 -0.3047
  635SOL    HW1 2538   2.641   0.098   1.788  1.4033 -1.3210  1.3106
  635SOL    HW2 2539   2.624   0.223   1.892  2.1771  3.4517  0.9372
  635SOL     MW 2540   2.593   0.150   1.844  0.4272  0.6657  0.0723
  636SOL     OW 2541   2.808   1.584   0.863 -0.1592 -0.1279 -0.0414
  636SOL    HW1 2542   2.716   1.560   0.876 -1.2070  0.8139 -0.8237
  636SOL    HW2 2543   2.828   1.657   0.922 -1.9052  3.4049 -1.0917
  636SOL     MW 2544   2.799   1.590   0.873 -0.5278  0.4625 -0.2832
  637SOL     OW 2545   2.883   1.495   0.605  0.1592  0.3388 -0.3826
  637SOL    HW1 2546   2.939   1.569   0.584  0.0864 -0.3411  0.7402
  637SOL    HW2 2547   2.860   1.518   0.699 -2.4991 -1.4840 -0.3421
  637SOL     MW 2548   2.887   1.508   0.614 -0.2011  0.0086 -0.2291
  638SOL     OW 2549   2.689   0.505   0.504  0.3526  0.3671  0.1417
  638SOL    HW1 2550   2.776   0.534   0.471  1.0103  0.5651 -1.7152
  638SOL    HW2 2551   2.688   0.532   0.596  0.3078 -3.1301 -0.5810
  638SOL     MW 2552   2.700   0.512   0.512  0.4335 -0.0682 -0.1987
  639SOL     OW 2553   1.725   0.040   0.547  0.2334  0.3007 -0.3841
  639SOL    HW1 2554   1.628   0.056   0.538  0.4941 -2.4387 -1.4880
  639SOL    HW2 2555   1.739  -0.016   0.475  0.4177  0.0942  0.8234
  639SOL     MW 2556   1.714   0.035   0.537  0.2921 -0.0880 -0.3704
  640SOL     OW 2557   0.283   1.347   0.092  0.6137  0.4435  0.3727
  640SOL    HW1 2558   0.315   1.314   0.005  0.3174  0.6761  0.0478
  640SOL    HW2 2559   0.249   1.264   0.128 -0.7718  0.6714  1.5726
  640SOL     MW 2560   0.283   1.332   0.085  0.3918  0.5042  0.4882
  641SOL     OW 2561   2.237   0.443   0.418 -0.3451  0.4068  0.3867
  641SOL    HW1 2562   2.251   0.427   0.329 -1.4861  1.9935 -0.4492
  641SOL    HW2 2563   2.321   0.420   0.456  2.6440  0.9124 -0.2713
  641SOL     MW 2564   2.250   0.438   0.411 -0.1013  0.6828  0.1896
  642SOL     OW 2565   0.062   0.016   0.486  0.1085 -0.3433 -0.0724
  642SOL    HW1 2566   0.026   0.105   0.474 -2.3524  1.5520  0.7337
  642SOL    HW2 2567  -0.019  -0.026   0.503  2.6817  0.0044 -3.5583
  642SOL     MW 2568   0.047   0.022   0.487  0.1233 -0.0474 -0.4260
  643SOL     OW 2569   2.001   0.341   1.730 -0.1105 -0.2007  0.4207
  643SOL    HW1 2570   1.918   0.316   1.782 -1.5419  0.5122 -0.2076
  643SOL    HW2 2571   2.006   0.276   1.659  1.5468 -0.5979  0.8940
  643SOL     MW 2572   1.990   0.329   1.727 -0.0807 -0.1591  0.4003
  644SOL     OW 2573   2.663   1.873   1.019 -0.2227 -0.4998 -0.2577
  644SOL    HW1 2574   2.686   1.817   1.092  3.0491  1.9480  0.7893
  644SOL    HW2 2575   2.565   1.882   1.018 -0.9559 -0.5828 -1.7743
  644SOL     MW 2576   2.653   1.867   1.029  0.1122 -0.1878 -0.3196
  645SOL     OW 2577   2.805   0.824   0.685  0.1288 -0.3470  0.7206
  645SOL    HW1 2578   2.890   0.787   0.697 -0.0540 -1.0346 -0.3416
  645SOL    HW2 2579   2.754   0.812   0.765 -1.3491 -0.2277  2.6883
  645SOL     MW 2580   2.810   0.817   0.698 -0.0903 -0.4220  0.8401
  646SOL     OW 2581   0.082   2.277   0.854  0.2559  0.1369  0.3077
  646SOL    HW1 2582   0.121   2.191   0.836 -1.8192 -1.4912 -0.5854
  646SOL    HW2 2583   0.036   2.313   0.779  1.8309 -0.5241  2.5927
  646SOL     MW 2584   0.081   2.270   0.841  0.1899 -0.1651  0.4913
  647SOL     OW 2585   2.716   0.485   2.965 -0.0576 -0.3251  0.7694
  647SOL    HW1 2586   2.664   0.452   3.040  1.2250  0.3941  0.1908
  647SOL    HW2 2587   2.731   0.572   3.001 -1.3500 -0.1366  0.2297
  647SOL     MW 2588   2.711   0.492   2.980 -0.0589 -0.2054  0.6218
  648SOL     OW 2589   2.211   0.732   1.098  0.2194 -0.0779 -0.5793
  648SOL    HW1 2590   2.212   0.640   1.125  1.4961  1.4220 -1.5684
  648SOL    HW2 2591   2.213   0.785   1.182 -0.1720  1.5027  0.4364
  648SOL     MW 2592   2.211   0.727   1.113  0.3362  0.3286 -0.5758
  649SOL     OW 2593   2.408   2.695   1.338  0.3032  0.3222 -0.1265
  649SOL    HW1 2594   2.494   2.737   1.336  0.0976 -4.2107 -1.2841
  649SOL    HW2 2595   2.427   2.611   1.290 -0.3067 -1.5675  4.0729
  649SOL     MW 2596   2.422   2.689   1.331  0.1956 -0.5252  0.2749
  650SOL     OW 2597   2.821   0.250   0.702 -0.4369 -0.0913  0.2363
  650SOL    HW1 2598   2.868   0.320   0.742  0.2158  0.2050 -1.0563
  650SOL    HW2 2599   2.874   0.232   0.626 -4.0271  0.3276  0.0553
  650SOL     MW 2600   2.834   0.257   0.697 -0.8245  0.0031  0.0419
  651SOL     OW 2601   0.013   0.435   1.020  0.7278  0.0592  0.5975
  651SOL    HW1 2602   0.075   0.455   0.942  1.5646  0.4071 -0.6002
  651SOL    HW2 2603  -0.050   0.509   1.011 -0.0655 -0.1715  0.0252
  651SOL     MW 2604   0.013   0.447   1.008  0.7335  0.0746  0.3640
  652SOL     OW 2605   2.402   1.509   3.038 -0.2219 -0.9157 -0.1140
  652SOL    HW1 2606   2.478   1.526   2.974  1.8458 -1.3564  0.1250
  652SOL    HW2 2607   2.355   1.590   3.024  1.7900 -3.3769 -0.8127
  652SOL     MW 2608   2.405   1.522   3.027  0.3163 -1.2986 -0.1747
  653SOL     OW 2609   1.817   0.468   0.331  0.4747  0.1601  0.1482
  653SOL    HW1 2610   1.783   0.382   0.303  1.0259  3.3207  1.2918
  653SOL    HW2 2611   1.896   0.476   0.279  0.4567 -3.7411 -0.7930
  653SOL     MW 2612   1.823   0.457   0.320  0.5450  0.0624  0.1749
  654SOL     OW 2613   2.433   1.015   0.705 -0.5454 -0.2839 -0.3595
  654SOL    HW1 2614   2.369   1.003   0.637  1.8406  0.6296  0.4227
  654SOL    HW2 2615   2.457   0.926   0.731 -2.9581  3.0346 -0.9309
  654SOL     MW 2616   2.427   1.002   0.700 -0.5489  0.2745 -0.3316
  655SOL     OW 2617   2.906   0.827   0.390 -0.0173 -0.2257 -0.2525
  655SOL    HW1 2618   2.860   0.843   0.475 -1.4927  0.3774 -0.3329
  655SOL    HW2 2619   2.919   0.730   0.388  0.7397  1.8326 -1.1504
  655SOL     MW 2620   2.901   0.816   0.401 -0.1121  0.1254 -0.3816
  656SOL     OW 2621   1.766   2.644   1.348  0.3573 -0.2260 -0.0261
  656SOL    HW1 2622   1.832   2.714   1.367 -1.6616 -0.5074 -0.1170
  656SOL    HW2 2623   1.820   2.570   1.316  2.5743  0.3569 -0.5906
  656SOL     MW 2624   1.782   2.643   1.347  0.3834 -0.1863 -0.1126
  657SOL     OW 2625   0.150   1.779   1.164 -0.2218  0.6730 -0.1046
  657SOL    HW1 2626   0.216   1.820   1.114 -0.8384 -1.8331 -2.0919
  657SOL    HW2 2627   0.182   1.686   1.170  0.2060 -1.3425 -0.4247
  657SOL     MW 2628   0.163   1.772   1.158 -0.2467  0.0764 -0.4091
  658SOL     OW 2629   2.640   1.297   0.237 -0.0472  0.1664 -0.3708
  658SOL    HW1 2630   2.617   1.222   0.289 -3.5272 -1.5119  2.2442
  658SOL    HW2 2631   2.659   1.359   0.310 -0.2415  0.5430  0.3118
  658SOL     MW 2632   2.639   1.296   0.254 -0.5320 -0.0054  0.0643
  659SOL     OW 2633   2.228   1.538   0.961 -0.2458  0.0639 -0.1060
  659SOL    HW1 2634   2.314   1.504   0.981 -3.1870 -2.9793  2.7316
  659SOL    HW2 2635   2.178   1.544   1.046 -0.4212 -1.5521 -3.3329
  659SOL     MW 2636   2.233   1.534   0.975 -0.6570 -0.5508 -0.1574
  660SOL     OW 2637   2.089   1.491   1.719 -0.1938 -0.4562  0.0194
  660SOL    HW1 2638   2.094   1.525   1.810 -0.1582 -2.2005 -0.2819
  660SOL    HW2 2639   1.999   1.455   1.712 -1.3494 -0.0628  3.4874
  660SOL     MW 2640   2.078   1.491   1.730 -0.3416 -0.6345  0.4372
  661SOL     OW 2641   2.498   0.945   0.214 -0.1927 -0.5648 -0.1526
  661SOL    HW1 2642   2.531   0.990   0.291 -0.4550 -0.5023  1.4700
  661SOL    HW2 2643   2.434   0.878   0.242 -0.0524  3.1741  1.6050
  661SOL     MW 2644   2.494   0.942   0.228 -0.2088 -0.0632  0.2934
  662SOL     OW 2645   2.592   2.990   0.896 -0.1857 -0.4824 -0.1123
  662SOL    HW1 2646   2.527   3.054   0.911  2.0242  1.0090 -1.7014
  662SOL    HW2 2647   2.629   3.027   0.815 -0.5024  0.1358 -0.5971
  662SOL     MW 2648   2.588   3.003   0.888  0.0641 -0.2041 -0.3860
  663SOL     OW 2649   2.655   1.492   0.444 -0.4472  0.1204  0.4242
  663SOL    HW1 2650   2.607   1.577   0.433  1.6399  0.9715  1.1418
  663SOL    HW2 2651   2.727   1.505   0.503 -0.3378  3.1564 -1.9585
  663SOL     MW 2652   2.658   1.505   0.450 -0.1574  0.6332  0.2045
  664SOL     OW 2653   2.565   1.539   1.606  0.3428  0.1520  0.2220
  664SOL    HW1 2654   2.552   1.631   1.575  0.1482  1.3417  0.6059
  664SOL    HW2 2655   2.472   1.497   1.604  2.1257  2.3663 -0.0389
  664SOL     MW 2656   2.551   1.546   1.602  0.5524  0.6011  0.2383
  665SOL     OW 2657   2.780   0.804   2.058  0.1511 -0.3948  0.5939
  665SOL    HW1 2658   2.774   0.847   1.971 -2.0640 -0.2940 -0.2445
  665SOL    HW2 2659   2.845   0.735   2.054  1.2243  1.9325  0.0399
  665SOL     MW 2660   2.788   0.800   2.046  0.0004 -0.0744  0.4102
  666SOL     OW 2661   2.766   3.066   1.713  0.1096 -0.3255  0.1677
  666SOL    HW1 2662   2.779   3.040   1.618 -1.2662 -0.7918 -0.1361
  666SOL    HW2 2663   2.719   2.987   1.746  1.1587 -2.6738 -2.1435
  666SOL     MW 2664   2.761   3.052   1.705  0.0665 -0.6968 -0.1774
  667SOL     OW 2665   1.974   2.700   1.742  0.5268 -0.1356 -0.2502
  667SOL    HW1 2666   2.001   2.676   1.832 -1.6863 -1.3541  0.3530
  667SOL    HW2 2667   2.045   2.758   1.716 -0.4866  2.0500  1.4695
  667SOL     MW 2668   1.987   2.704   1.751  0.1011 -0.0080  0.0563
  668SOL     OW 2669   2.680   0.544   0.805 -0.0855 -0.8987  0.2576
  668SOL    HW1 2670   2.765   0.584   0.822  2.1921 -0.4589  0.0749
  668SOL    HW2 2671   2.617   0.620   0.828 -2.9092  2.3736  1.5382
  668SOL     MW 2672   2.683   0.559   0.810 -0.1576 -0.4089  0.4025
  669SOL     OW 2673   0.135   0.867   0.749 -0.3792  0.1837 -0.6719
  669SOL    HW1 2674   0.088   0.942   0.792  0.6774  0.4957  0.0301
  669SOL    HW2 2675   0.193   0.819   0.811  0.7087  3.1727  0.8305
  669SOL     MW 2676   0.136   0.871   0.763 -0.0963  0.6192 -0.3811
  670SOL     OW 2677   2.915   0.324   0.200  0.3336  0.9704  0.4000
  670SOL    HW1 2678   2.929   0.277   0.114  1.1504  1.2755 -1.0939
  670SOL    HW2 2679   2.911   0.421   0.176  0.3578  0.2097  1.8166
  670SOL     MW 2680   2.916   0.331   0.186  0.4446  0.9103  0.3898
  671SOL     OW 2681   1.996   3.061   1.584 -0.1088 -0.2202  0.2092
  671SOL    HW1 2682   1.937   3.005   1.531  0.7288  0.2571 -1.8234
  671SOL    HW2 2683   1.949   3.094   1.663  0.3957 -1.9133  1.5338
  671SOL     MW 2684   1.982   3.058   1.588  0.0683 -0.3806  0.1158
  672SOL     OW 2685   1.889   1.684   1.314 -0.3953 -0.1899 -0.2997
  672SOL    HW1 2686   1.839   1.754   1.360 -1.4254  0.6546 -0.7701
  672SOL    HW2 2687   1.893   1.723   1.224 -0.6194 -0.1072 -3.1027
  672SOL     MW 2688   1.883   1.699   1.308 -0.5607 -0.0676 -0.7316
  673SOL     OW 2689   2.798   1.108   0.628 -0.2029 -0.0824 -0.1040
  673SOL    HW1 2690   2.814   1.023   0.660  0.1793  1.3561  0.0662
  673SOL    HW2 2691   2.884   1.156   0.619 -0.5930  2.8289 -2.1197
  673SOL     MW 2692   2.811   1.104   0.631 -0.2040  0.4916 -0.3475
  674SOL     OW 2693   2.444   0.009   1.247 -0.0697  0.0763 -0.1318
  674SOL    HW1 2694   2.416   0.010   1.151  2.6010  0.4297  2.1270
  674SOL    HW2 2695   2.469  -0.082   1.256 -0.1448 -0.9619  1.8808
  674SOL     MW 2696   2.443  -0.003   1.235  0.2728 -0.0140  0.4318
  675SOL     OW 2697   3.026   0.879   1.107 -0.5634  0.1399 -0.1980
  675SOL    HW1 2698   3.090   0.886   1.180 -1.6596 -1.9520 -0.5367
  675SOL    HW2 2699   3.045   0.948   1.050 -1.1584  1.3013  1.9264
  675SOL     MW 2700   3.037   0.889   1.109 -0.7865  0.0171  0.0376
  676SOL     OW 2701   2.969   1.472   1.677  0.4851 -0.6064  0.9709
  676SOL    HW1 2702   2.912   1.401   1.664  0.8283 -0.0069  0.4938
  676SOL    HW2 2703   3.021   1.422   1.734 -0.1137  0.6253  1.5551
  676SOL     MW 2704   2.968   1.456   1.683  0.4514 -0.3648  0.9850
  677SOL     OW 2705   2.372   0.604   2.007 -0.7266 -0.6003 -0.1622
  677SOL    HW1 2706   2.343   0.547   1.937  0.7687 -2.7316 -1.3178
  677SOL    HW2 2707   2.316   0.687   1.999 -0.2328  1.4608 -1.4972
  677SOL     MW 2708   2.361   0.608   1.997 -0.4641 -0.6096 -0.4908
  678SOL     OW 2709   2.483   1.708   0.335  0.1157  0.0624  0.3022
  678SOL    HW1 2710   2.405   1.732   0.385 -1.9656  1.5406 -2.5417
  678SOL    HW2 2711   2.453   1.636   0.283  0.0038  1.9473  2.9394
  678SOL     MW 2712   2.469   1.702   0.335 -0.1736  0.5061  0.2749
  679SOL     OW 2713   2.204   0.469   1.334 -0.0974  0.1325  0.6537
  679SOL    HW1 2714   2.183   0.379   1.308  0.0155  0.1096 -0.7584
  679SOL    HW2 2715   2.128   0.512   1.380 -0.3900  2.3514 -0.9341
  679SOL     MW 2716   2.191   0.463   1.337 -0.1211  0.4222  0.2579
  680SOL     OW 2717   2.381   0.177   1.457 -0.0911  0.2472  0.5935
  680SOL    HW1 2718   2.291   0.204   1.477  2.0324  0.0562 -1.1741
  680SOL    HW2 2719   2.387   0.132   1.376 -1.3219 -2.6841 -1.5607
  680SOL     MW 2720   2.370   0.175   1.449  0.0267 -0.1648  0.0761
  681SOL     OW 2721   0.287   0.592   1.576  0.2207  0.8746 -0.1986
  681SOL    HW1 2722   0.267   0.531   1.649 -0.7297 -1.0480  2.2907
  681SOL    HW2 2723   0.347   0.542   1.518 -1.5907 -0.5183 -0.5326
  681SOL     MW 2724   0.292   0.577   1.578 -0.1437  0.4371  0.0858
  682SOL     OW 2725   0.148   2.801   1.552  0.2317  0.2713 -0.0032
  682SOL    HW1 2726   0.230   2.853   1.577  0.3575 -0.9615  0.9112
  682SOL    HW2 2727   0.090   2.872   1.536  0.8817 -0.5201 -2.8954
  682SOL     MW 2728   0.151   2.817   1.554  0.3341  0.0043 -0.2642
  683SOL     OW 2729   2.072   0.809   2.957  0.1606  0.5246  0.4186
  683SOL    HW1 2730   1.986   0.765   2.960 -1.8041 -0.3769 -0.1704
  683SOL    HW2 2731   2.061   0.899   3.000  0.8740 -1.6081  1.8736
  683SOL     MW 2732   2.059   0.815   2.963 -0.0045  0.1243  0.5328
  684SOL     OW 2733   2.246   1.664   0.701 -0.4313  0.0901 -0.3012
  684SOL    HW1 2734   2.181   1.622   0.644  1.6386 -3.1215 -3.6642
  684SOL    HW2 2735   2.226   1.643   0.794  0.4758 -0.6340 -1.3432
  684SOL     MW 2736   2.235   1.655   0.706 -0.0385 -0.4292 -0.8824
  685SOL     OW 2737   2.664   1.706   1.269  1.0771  0.0612  0.5046
  685SOL    HW1 2738   2.729   1.707   1.338  1.2031 -1.1432  0.8648
  685SOL    HW2 2739   2.648   1.611   1.258 -1.0388 -2.6398  0.8378
  685SOL     MW 2740   2.670   1.694   1.277  0.8146 -0.4541  0.5961
  686SOL     OW 2741   2.896   0.737   1.453 -0.3384 -0.0794 -0.5626
  686SOL    HW1 2742   2.848   0.688   1.525  0.5884 -3.8712  0.8423
  686SOL    HW2 2743   2.987   0.718   1.478 -2.9749  1.6783  0.0701
  686SOL     MW 2744   2.902   0.728   1.466 -0.5640 -0.3478 -0.2938
  687SOL     OW 2745   2.147   0.212   1.210  0.0445 -0.0077 -0.1720
  687SOL    HW1 2746   2.201   0.157   1.157 -1.8015  1.1269 -1.6257
  687SOL    HW2 2747   2.080   0.248   1.151  0.4550 -1.7694  2.6005
  687SOL     MW 2748   2.145   0.210   1.195 -0.1449 -0.0905  0.0020
  688SOL     OW 2749   2.416   0.573   1.464 -0.8622 -0.2287 -0.1497
  688SOL    HW1 2750   2.355   0.518   1.411 -1.2860 -1.0855  1.1655
  688SOL    HW2 2751   2.368   0.643   1.515  1.2298  3.4713 -2.3335
  688SOL     MW 2752   2.402   0.575   1.464 -0.6421  0.1464 -0.2643
  689SOL     OW 2753   2.449   0.705   2.920 -0.4405  0.1888 -0.6487
  689SOL    HW1 2754   2.455   0.771   2.855 -0.3185  1.4361 -0.0826
  689SOL    HW2 2755   2.527   0.724   2.973 -2.3424 -1.3574 -1.8326
  689SOL     MW 2756   2.460   0.716   2.919 -0.6753  0.1494 -0.7302
  690SOL     OW 2757   1.995   0.849   1.901 -0.0672  0.8220  0.0090
  690SOL    HW1 2758   1.988   0.753   1.899 -0.9628  0.8723  0.7636
  690SOL    HW2 2759   2.017   0.876   1.813 -1.6061 -4.3156  0.3502
  690SOL     MW 2760   1.997   0.840   1.889 -0.3884  0.1508  0.1536
  691SOL     OW 2761   2.372   0.222   0.854 -0.2760  0.1875 -0.0219
  691SOL    HW1 2762   2.426   0.270   0.916  3.5168 -2.5260 -2.7470
  691SOL    HW2 2763   2.313   0.281   0.812  0.7263 -0.3616 -0.4312
  691SOL     MW 2764   2.371   0.236   0.856  0.3567 -0.2430 -0.4355
  692SOL     OW 2765   2.875   1.651   1.457 -0.7162 -0.3939 -0.1882
  692SOL    HW1 2766   2.906   1.618   1.539  0.1527  0.3545  2.3253
  692SOL    HW2 2767   2.910   1.742   1.458 -1.7669  0.7939 -1.2206
  692SOL     MW 2768   2.883   1.659   1.468 -0.7402 -0.1384  0.0072
  693SOL     OW 2769   2.249   0.410   0.109  0.2885  0.1466 -0.6380
  693SOL    HW1 2770   2.176   0.351   0.088 -1.5697  0.8961 -3.3746
  693SOL    HW2 2771   2.229   0.496   0.077  2.9382 -1.9673  0.0589
  693SOL     MW 2772   2.237   0.414   0.102  0.3929 -0.0334 -0.9071
  694SOL     OW 2773   1.895   1.213   1.169  0.0117 -0.1070 -0.6176
  694SOL    HW1 2774   1.986   1.176   1.178 -0.3459 -2.8205  3.2033
  694SOL    HW2 2775   1.843   1.136   1.201  1.2832 -1.9064  0.0699
  694SOL     MW 2776   1.900   1.198   1.175  0.1322 -0.7025 -0.0228
  695SOL     OW 2777   3.029   1.486   1.288  0.2959 -0.7604  0.0420
  695SOL    HW1 2778   2.982   1.449   1.210  2.6283 -1.8498  0.6684
  695SOL    HW2 2779   2.959   1.534   1.341 -1.7714 -0.2022  1.1188
  695SOL     MW 2780   3.014   1.488   1.285  0.3309 -0.8305  0.2667
  696SOL     OW 2781   2.074   1.366   0.812  0.3097  0.0807 -0.2173
  696SOL    HW1 2782   2.141   1.400   0.879  0.9904  2.1547  2.0867
  696SOL    HW2 2783   2.015   1.309   0.857 -2.4730 -0.9440  2.1666
  696SOL     MW 2784   2.075   1.363   0.827  0.0323  0.2192  0.4012
  697SOL     OW 2785   2.879   1.017   2.193 -0.0535  0.2447  0.7884
  697SOL    HW1 2786   2.841   1.096   2.166 -1.2742 -3.8954 -1.9451
  697SOL    HW2 2787   2.838   0.945   2.144 -0.1096  0.0468  2.3566
  697SOL     MW 2788   2.869   1.018   2.183 -0.2220 -0.3277  0.6346
  698SOL     OW 2789   2.542   0.342   0.038  0.4585  0.3496 -0.4680
  698SOL    HW1 2790   2.452   0.352   0.076 -2.1549  0.9849  1.1921
  698SOL    HW2 2791   2.582   0.304   0.118  0.2844 -0.6236  2.5284
  698SOL     MW 2792   2.535   0.338   0.054  0.0907  0.3050  0.1464
  699SOL     OW 2793   1.850   1.588   2.063  0.1674  0.4611  0.0100
  699SOL    HW1 2794   1.841   1.494   2.046 -1.2915  0.4938 -0.3070
  699SOL    HW2 2795   1.941   1.599   2.024  2.9004 -0.6824 -2.0917
  699SOL     MW 2796   1.861   1.577   2.056  0.3355  0.3146 -0.3091
  700SOL     OW 2797   2.735   0.933   1.535  0.4278  0.0067 -0.0981
  700SOL    HW1 2798   2.751   1.020   1.494  3.7607  0.8307 -2.5671
  700SOL    HW2 2799   2.810   0.882   1.507  1.3361  2.2611  0.4998
  700SOL     MW 2800   2.747   0.938   1.526  0.9874  0.4128 -0.3450
  701SOL     OW 2801   1.669   1.202   2.456  0.3926 -0.1959  0.0390
  701SOL    HW1 2802   1.757   1.194   2.483  0.4777 -0.5341 -0.2301
  701SOL    HW2 2803   1.643   1.270   2.527  0.7990  1.0154  0.5622
  701SOL     MW 2804   1.677   1.210   2.469  0.4575 -0.0807  0.0725
  702SOL     OW 2805   2.138   0.413   0.850 -0.4100  0.0541  0.1014
  702SOL    HW1 2806   2.114   0.359   0.776 -1.5841  0.2238  0.8526
  702SOL    HW2 2807   2.198   0.485   0.812 -1.0850  0.4719 -1.9293
  702SOL     MW 2808   2.143   0.415   0.835 -0.6540  0.1316 -0.0674
  703SOL     OW 2809   2.711   1.227   1.062 -0.3008  0.6133 -0.3594
  703SOL    HW1 2810   2.668   1.214   0.978 -1.9985  0.8320 -1.1291
  703SOL    HW2 2811   2.741   1.136   1.093  0.8297  2.5203 -2.8341
  703SOL     MW 2812   2.709   1.213   1.055 -0.3756  0.8938 -0.7875
  704SOL     OW 2813   0.013   1.170   0.105  0.1020  0.3861  0.4666
  704SOL    HW1 2814  -0.080   1.153   0.081  1.8275  0.0188 -1.1528
  704SOL    HW2 2815   0.022   1.187   0.199 -0.3875  2.8584 -2.8927
  704SOL     MW 2816   0.002   1.170   0.115  0.2651  0.6638 -0.1903
  705SOL     OW 2817   2.176   1.643   1.257  0.1925 -0.0797  0.1643
  705SOL    HW1 2818   2.110   1.648   1.322  0.5352 -1.3612  1.5203
  705SOL    HW2 2819   2.216   1.555   1.276 -0.9172 -1.8108 -1.0135
  705SOL     MW 2820   2.173   1.632   1.268  0.0913 -0.4772  0.1878
  706SOL     OW 2821   3.030   1.251   0.654 -0.3949 -0.2918 -0.0038
  706SOL    HW1 2822   3.077   1.218   0.569  1.9689 -1.6677  0.9783
  706SOL    HW2 2823   2.997   1.339   0.634 -0.6362  0.7844  2.7985
  706SOL     MW 2824   3.032   1.258   0.640 -0.1149 -0.3313  0.4955
  707SOL     OW 2825   2.284   0.051   1.026 -0.3013  0.1179  0.0280
  707SOL    HW1 2826   2.308   0.118   0.959  1.5615 -1.6132  0.6750
  707SOL    HW2 2827   2.217   0.001   0.979  0.7458  0.0163  0.9185
  707SOL     MW 2828   2.278   0.054   1.011  0.0826 -0.1239  0.2309
  708SOL     OW 2829   2.405   1.449   0.213 -0.4728  0.1120 -0.2618
  708SOL    HW1 2830   2.499   1.424   0.198 -0.9309 -0.2178 -3.8022
  708SOL    HW2 2831   2.378   1.463   0.124 -0.0543  0.8414  0.2544
  708SOL     MW 2832   2.414   1.447   0.199 -0.4780  0.1648 -0.6608
  709SOL     OW 2833   1.759   1.644   0.229  0.5697  0.5210  1.1000
  709SOL    HW1 2834   1.749   1.667   0.137 -0.1248 -1.2196  0.2239
  709SOL    HW2 2835   1.672   1.643   0.272 -0.6018  0.1743 -1.6186
  709SOL     MW 2836   1.746   1.647   0.223  0.3235  0.2456  0.6257
  710SOL     OW 2837   2.166   1.127   1.168 -0.2985 -1.3154 -0.0737
  710SOL    HW1 2838   2.196   1.110   1.076  1.1425  1.7026  0.7133
  710SOL    HW2 2839   2.188   1.046   1.214  1.6025  1.7593 -1.4615
  710SOL     MW 2840   2.173   1.114   1.162  0.1425 -0.5115 -0.1530
  711SOL     OW 2841   2.318   0.146   1.760 -0.5284 -0.6343  0.4377
  711SOL    HW1 2842   2.410   0.165   1.788 -0.1904 -0.3451  1.5878
  711SOL    HW2 2843   2.319   0.152   1.662  0.7978 -1.2916 -1.4848
  711SOL     MW 2844   2.331   0.150   1.751 -0.3089 -0.6828  0.3358
  712SOL     OW 2845   1.903   0.625   0.060 -0.2490  0.3599 -1.0432
  712SOL    HW1 2846   1.824   0.665   0.031 -1.3799  2.3244 -1.4542
  712SOL    HW2 2847   1.942   0.684   0.122 -1.9472  1.7051 -0.5120
  712SOL     MW 2848   1.898   0.638   0.064 -0.6223  0.7966 -1.0273
  713SOL     OW 2849   2.566   0.817   1.088 -0.2886 -0.4455  0.1423
  713SOL    HW1 2850   2.572   0.735   1.131 -2.1706 -2.9486  0.5190
  713SOL    HW2 2851   2.493   0.861   1.115  1.1501 -3.0464 -2.3414
  713SOL     MW 2852   2.557   0.812   1.097 -0.3471 -1.1189 -0.1357
  714SOL     OW 2853   2.187   0.182   1.985 -0.4195 -0.4717 -0.4599
  714SOL    HW1 2854   2.246   0.126   2.041  1.1939  0.0868  0.6015
  714SOL    HW2 2855   2.217   0.188   1.894 -1.9061 -1.4938  2.3912
  714SOL     MW 2856   2.199   0.175   1.980 -0.4028 -0.5328  0.0563
  715SOL     OW 2857   1.769   1.940   1.727  0.6104  0.6134 -0.0976
  715SOL    HW1 2858   1.860   1.934   1.709  1.9913 -1.5654 -1.3505
  715SOL    HW2 2859   1.758   1.868   1.791  0.9614 -0.9128 -1.5183
  715SOL     MW 2860   1.780   1.929   1.733  0.8389  0.1246 -0.4504
  716SOL     OW 2861   2.321   0.596   0.722  0.0250 -0.2231  0.0338
  716SOL    HW1 2862   2.365   0.534   0.666  0.1763  0.1432  1.8578
  716SOL    HW2 2863   2.256   0.640   0.666 -0.4912  1.2092  1.7098
  716SOL     MW 2864   2.318   0.594   0.707 -0.0231  0.0142  0.4956
  717SOL     OW 2865   2.854   1.590   2.853 -0.7079 -0.4368  0.2661
  717SOL    HW1 2866   2.946   1.579   2.886  0.5255 -1.1854  2.9601
  717SOL    HW2 2867   2.818   1.656   2.913  3.2257  1.3945 -0.7808
  717SOL     MW 2868   2.862   1.597   2.865 -0.0262 -0.2939  0.4834
  718SOL     OW 2869   2.707   1.408   1.348  0.2350 -0.4664  0.6023
  718SOL    HW1 2870   2.678   1.438   1.436 -0.4280  0.3760 -1.1077
  718SOL    HW2 2871   2.737   1.317   1.361  1.0092 -0.0675  3.3538
  718SOL     MW 2872   2.707   1.400   1.362  0.2497 -0.3026  0.7397
  719SOL     OW 2873   2.216   1.255   0.597 -0.2805  0.1558 -0.4119
  719SOL    HW1 2874   2.308   1.279   0.586 -3.3879 -0.0240 -1.7494
  719SOL    HW2 2875   2.176   1.291   0.677  0.2674 -0.4650 -0.5814
  719SOL     MW 2876   2.223   1.263   0.606 -0.6182  0.0501 -0.6107
  720SOL     OW 2877   2.835   1.212   0.051  0.5810  0.2319 -0.2768
  720SOL    HW1 2878   2.822   1.120   0.091  1.8014 -1.5013 -1.1243
  720SOL    HW2 2879   2.803   1.267   0.124  0.9677  0.4225 -1.1882
  720SOL     MW 2880   2.829   1.207   0.066  0.7931  0.0284 -0.5089
  721SOL     OW 2881   2.496   0.880   1.401 -0.4751  0.3140 -0.2985
  721SOL    HW1 2882   2.492   0.787   1.419 -0.2400  3.5927  3.3823
  721SOL    HW2 2883   2.576   0.907   1.451  0.2125 -0.1666 -1.2750
  721SOL     MW 2884   2.506   0.871   1.410 -0.3534  0.6832  0.0583
  722SOL     OW 2885   2.556   1.085   0.426  0.1548 -0.0897  0.7957
  722SOL    HW1 2886   2.542   1.166   0.470 -1.1014  1.3724  0.6067
  722SOL    HW2 2887   2.629   1.053   0.479  1.2864 -3.3740  2.9102
  722SOL     MW 2888   2.564   1.092   0.439  0.1383 -0.3301  1.0498
  723SOL     OW 2889   2.333   1.406   1.582 -0.0075 -0.6544  0.0607
  723SOL    HW1 2890   2.303   1.386   1.494  1.8533 -0.4388 -1.1908
  723SOL    HW2 2891   2.259   1.440   1.635 -1.6722  1.3697 -0.5997
  723SOL     MW 2892   2.320   1.408   1.577  0.0184 -0.3589 -0.1916
  724SOL     OW 2893   2.446   0.383   0.588  0.7530 -0.3009 -0.5355
  724SOL    HW1 2894   2.456   0.337   0.672 -1.8300  1.1004  0.8499
  724SOL    HW2 2895   2.536   0.400   0.564 -0.4960 -2.9083 -0.5198
  724SOL     MW 2896   2.460   0.379   0.596  0.2474 -0.4601 -0.3506
  725SOL     OW 2897   2.587   0.534   1.191  0.8725 -0.4979 -0.3783
  725SOL    HW1 2898   2.679   0.537   1.210 -1.7967 -0.3923  0.6785
  725SOL    HW2 2899   2.540   0.540   1.277  2.2294  1.5364  1.1618
  725SOL     MW 2900   2.593   0.536   1.204  0.6994 -0.2156 -0.0356
  726SOL     OW 2901   2.577   2.473   0.561  0.1815  0.3052  0.1394
  726SOL    HW1 2902   2.512   2.540   0.532 -1.5054 -0.3122 -3.4585
  726SOL    HW2 2903   2.555   2.444   0.650  2.2902  0.4973 -2.9683
  726SOL     MW 2904   2.565   2.478   0.569  0.2371  0.2491 -0.7454
  727SOL     OW 2905   2.872   0.323   1.756 -0.4577  0.0144  0.4104
  727SOL    HW1 2906   2.820   0.302   1.682  1.1925  2.8044  2.0575
  727SOL    HW2 2907   2.810   0.355   1.816  1.3477  2.0679 -1.0276
  727SOL     MW 2908   2.857   0.324   1.754 -0.0017  0.6535  0.4380
  728SOL     OW 2909   2.777   1.129   2.900  0.5816 -0.0959  0.0501
  728SOL    HW1 2910   2.788   1.201   2.837 -1.6967  0.2112 -1.4214
  728SOL    HW2 2911   2.794   1.168   2.986  1.8944 -1.5407  0.9241
  728SOL     MW 2912   2.781   1.144   2.903  0.4542 -0.2460 -0.0288
  729SOL     OW 2913   2.490   1.452   1.180 -0.4797 -0.5160  0.2689
  729SOL    HW1 2914   2.564   1.404   1.231  0.6220  0.8924  1.2356
  729SOL    HW2 2915   2.533   1.468   1.095  0.8747  1.3230  0.9109
  729SOL     MW 2916   2.506   1.448   1.176 -0.1556 -0.0875  0.4812
  730SOL     OW 2917   2.292   1.181   0.190 -0.1335 -0.1835  0.6017
  730SOL    HW1 2918   2.382   1.141   0.203  0.3958 -5.1610 -0.4539
  730SOL    HW2 2919   2.299   1.278   0.212 -0.2779  0.2686  0.0614
  730SOL     MW 2920   2.305   1.189   0.194 -0.0827 -0.7806  0.3912
  731SOL     OW 2921   2.781   1.998   2.907 -0.0231  0.6239 -0.0296
  731SOL    HW1 2922   2.720   1.980   2.841  1.3837  1.2714  1.1040
  731SOL    HW2 2923   2.854   2.030   2.854  1.0268  2.0263  0.1184
  731SOL     MW 2924   2.782   2.000   2.891  0.3011  0.8944  0.1395
  732SOL     OW 2925   2.229   0.878   1.356  0.4138  0.0500  0.2548
  732SOL    HW1 2926   2.195   0.907   1.441 -1.1574 -0.5562 -0.8807
  732SOL    HW2 2927   2.321   0.899   1.355 -1.4331 -2.5541 -1.6600
  732SOL     MW 2928   2.236   0.885   1.367 -0.0372 -0.3736 -0.1477
  733SOL     OW 2929   2.358   2.816   2.993  0.0478  0.1409 -0.6139
  733SOL    HW1 2930   2.280   2.870   2.973  1.6983  0.8894 -1.4068
  733SOL    HW2 2931   2.329   2.727   2.968 -2.0676 -0.7091  0.0449
  733SOL     MW 2932   2.344   2.812   2.987 -0.0135  0.1275 -0.6316
  734SOL     OW 2933   1.450   0.315   2.433 -0.4665  0.1733  0.0237
  734SOL    HW1 2934   1.425   0.281   2.521  2.2565 -0.8426  1.7992
  734SOL    HW2 2935   1.477   0.237   2.379 -0.3095 -1.7038  0.9741
  734SOL     MW 2936   1.450   0.300   2.438 -0.0865 -0.2084  0.3834
  735SOL     OW 2937   2.917   0.895   2.621  0.2499 -0.5153 -0.4864
  735SOL    HW1 2938   2.941   0.800   2.611 -0.8424 -2.5758 -1.5022
  735SOL    HW2 2939   2.935   0.929   2.706  0.8314 -0.4676 -2.3322
  735SOL     MW 2940   2.922   0.887   2.631  0.1825 -0.7809 -0.8640
  736SOL     OW 2941   0.090   0.608   2.510 -0.4360 -0.1172  0.1868
  736SOL    HW1 2942   0.121   0.682   2.459  0.7610 -1.3369  2.9821
  736SOL    HW2 2943   0.082   0.538   2.442 -1.3637  1.1232  0.6794
  736SOL     MW 2944   0.093   0.608   2.494 -0.4005 -0.1144  0.6206
  737SOL     OW 2945   2.932   0.615   2.596 -0.0066 -0.0556 -0.0766
  737SOL    HW1 2946   2.879   0.592   2.517 -1.1728 -0.0533 -1.7358
  737SOL    HW2 2947   3.022   0.622   2.560  0.8687 -2.3337  0.2801
  737SOL     MW 2948   2.937   0.613   2.581 -0.0450 -0.3559 -0.2484
  738SOL     OW 2949   0.121   0.604   1.956  0.5610  0.5721  0.3200
  738SOL    HW1 2950   0.204   0.639   1.927  0.7733 -0.2299  3.1776
  738SOL    HW2 2951   0.146   0.513   1.949 -1.9953 -0.1232  0.3193
  738SOL     MW 2952   0.135   0.597   1.952  0.2518  0.3745  0.6969
  739SOL     OW 2953   2.487   0.978   2.042 -0.2993 -0.1903  0.3987
  739SOL    HW1 2954   2.410   0.941   2.001 -1.5338  1.6060  0.8679
  739SOL    HW2 2955   2.526   1.021   1.967 -0.4821  0.4224 -0.5732
  739SOL     MW 2956   2.482   0.979   2.026 -0.4863  0.1276  0.3323
  740SOL     OW 2957   0.223   1.741   2.958 -0.6843 -0.1201 -0.3674
  740SOL    HW1 2958   0.185   1.654   2.966 -0.5710  0.9798 -2.7411
  740SOL    HW2 2959   0.319   1.733   2.968  1.0009 -0.8940 -1.5363
  740SOL     MW 2960   0.231   1.729   2.960 -0.4470 -0.0771 -0.8348
  741SOL     OW 2961   2.204   1.120   2.772 -0.0146  0.6226  0.1804
  741SOL    HW1 2962   2.136   1.053   2.778 -0.0265  2.1143 -0.5548
  741SOL    HW2 2963   2.224   1.151   2.857  1.2501 -0.2360 -1.2198
  741SOL     MW 2964   2.198   1.115   2.784  0.1507  0.7061 -0.1013
  742SOL     OW 2965   1.570   1.216   2.207  0.7069  0.4966 -0.2167
  742SOL    HW1 2966   1.535   1.126   2.198 -2.0286  0.4031 -1.8752
  742SOL    HW2 2967   1.609   1.218   2.295  1.7617  1.6020 -2.1065
  742SOL     MW 2968   1.571   1.204   2.217  0.4852  0.6301 -0.6848
  743SOL     OW 2969   2.493   1.313   2.716  0.1698  0.2085 -0.3008
  743SOL    HW1 2970   2.395   1.308   2.731 -3.3451  0.9583  1.8916
  743SOL    HW2 2971   2.520   1.231   2.748  1.6336  0.0191  1.2721
  743SOL     MW 2972   2.483   1.301   2.722 -0.1008  0.2824  0.1960
  744SOL     OW 2973   2.770   0.922   1.818  0.0118  0.0935  0.8490
  744SOL    HW1 2974   2.713   1.000   1.807  4.0414 -0.0818  0.5483
  744SOL    HW2 2975   2.740   0.862   1.751  1.6239 -1.7638  2.3453
  744SOL     MW 2976   2.758   0.924   1.808  0.7562 -0.1747  1.0068
  745SOL     OW 2977   1.688   0.434   2.501  0.1961 -0.3786  0.3816
  745SOL    HW1 2978   1.709   0.438   2.406  0.2278  2.0887 -0.9252
  745SOL    HW2 2979   1.605   0.383   2.499  0.0851 -1.2088 -0.1602
  745SOL     MW 2980   1.680   0.428   2.488  0.1856 -0.1626  0.1377
  746SOL     OW 2981   1.576   1.475   1.611  0.8833  0.1059  1.0404
  746SOL    HW1 2982   1.671   1.491   1.612  1.4835 -0.9116 -0.1681
  746SOL    HW2 2983   1.552   1.412   1.683  0.8760  0.7590  2.1086
  746SOL     MW 2984   1.585   1.469   1.621  0.9615  0.0578  1.0219
  747SOL     OW 2985   2.561   1.151   1.818  0.2790  0.0177  0.3326
  747SOL    HW1 2986   2.486   1.142   1.757  0.7460 -0.4096 -1.2819
  747SOL    HW2 2987   2.556   1.231   1.880  1.1479  1.3486 -1.5838
  747SOL     MW 2988   2.550   1.161   1.818  0.4553  0.1369 -0.1333
  748SOL     OW 2989   0.102   3.081   1.828  0.2601  0.0765  0.1770
  748SOL    HW1 2990   0.190   3.128   1.813 -0.3547  3.7248 -1.3389
  748SOL    HW2 2991   0.060   3.133   1.902 -1.6854  0.9490  1.2691
  748SOL     MW 2992   0.108   3.094   1.836 -0.0777  0.6730  0.1211
  749SOL     OW 2993   2.470   0.513   2.705  1.3292 -0.3652 -0.5523
  749SOL    HW1 2994   2.484   0.598   2.660 -0.3498 -0.7316 -2.3717
  749SOL    HW2 2995   2.481   0.547   2.791 -1.3318 -0.2885 -1.0770
  749SOL     MW 2996   2.473   0.528   2.710  0.7566 -0.4034 -0.8615
  750SOL     OW 2997   2.022   3.054   1.998 -0.0745 -0.0677 -0.0792
  750SOL    HW1 2998   2.053   3.141   1.986 -2.3968 -0.6382 -1.8069
  750SOL    HW2 2999   2.093   2.996   1.985  1.0992  2.0604  0.2234
  750SOL     MW 3000   2.035   3.058   1.995 -0.2261  0.1378 -0.2672
  751SOL     OW 3001   0.042   0.415   2.310  0.1597  0.1000  0.5006
  751SOL    HW1 3002  -0.032   0.369   2.352  1.0928  3.4445 -0.4141
  751SOL    HW2 3003   0.111   0.350   2.298 -2.0161  0.7174 -1.2475
  751SOL     MW 3004   0.041   0.400   2.314 -0.0042  0.6227  0.1493
  752SOL     OW 3005   2.144   0.828   2.689  0.0044 -0.0096 -0.0053
  752SOL    HW1 3006   2.228   0.850   2.647  0.3312 -1.3750 -0.7701
  752SOL    HW2 3007   2.158   0.800   2.781  0.0207 -2.0945 -1.0528
  752SOL     MW 3008   2.157   0.827   2.695  0.0497 -0.4648 -0.2444
  753SOL     OW 3009   2.923   0.316   2.402  0.5995  0.0412  0.0301
  753SOL    HW1 3010   2.903   0.243   2.349 -0.5836  0.0049 -1.7767
  753SOL    HW2 3011   2.863   0.391   2.389 -0.0597  0.7976  0.1607
  753SOL     MW 3012   2.913   0.316   2.393  0.3565  0.1362 -0.1910
  754SOL     OW 3013   2.248   2.994   2.617 -0.6032 -0.0880  0.2286
  754SOL    HW1 3014   2.267   2.964   2.524  3.1287  0.6560  0.4414
  754SOL    HW2 3015   2.319   2.953   2.662 -0.3634  0.1763 -3.8391
  754SOL     MW 3016   2.260   2.985   2.611 -0.0792  0.0451 -0.2800
  755SOL     OW 3017   2.727   1.519   2.499  0.5086  0.2729 -0.1915
  755SOL    HW1 3018   2.736   1.428   2.535  0.6708 -3.1483 -2.0462
  755SOL    HW2 3019   2.801   1.571   2.536  0.0272  0.2381  0.1692
  755SOL     MW 3020   2.738   1.514   2.508  0.4665 -0.1831 -0.3886
  756SOL     OW 3021   2.254   1.277   2.987 -0.4529 -0.0410  0.1072
  756SOL    HW1 3022   2.299   1.363   2.994  1.2694 -0.1512  0.3227
  756SOL    HW2 3023   2.312   1.213   3.038  0.8822 -0.7346  0.1965
  756SOL     MW 3024   2.268   1.280   2.995 -0.0495 -0.1470  0.1474
  757SOL     OW 3025   2.092   0.952   1.611  0.3473 -0.1651  0.2048
  757SOL    HW1 3026   2.117   0.862   1.637  0.1980 -0.6958  0.8888
  757SOL    HW2 3027   2.017   0.944   1.548 -1.6438 -0.5034  1.2620
  757SOL     MW 3028   2.086   0.939   1.606  0.0649 -0.2798  0.4345
  758SOL     OW 3029   2.196   1.757   2.646  0.1203 -0.0262  0.7536
  758SOL    HW1 3030   2.178   1.785   2.550 -2.7206  0.6140 -0.4834
  758SOL    HW2 3031   2.292   1.753   2.663  0.2296  0.5090 -0.4961
  758SOL     MW 3032   2.206   1.760   2.636 -0.2401  0.1289  0.4255
  759SOL     OW 3033   1.618   1.347   2.706 -0.0629 -0.0209 -0.1925
  759SOL    HW1 3034   1.605   1.444   2.693  0.7615 -1.1545  0.1444
  759SOL    HW2 3035   1.657   1.341   2.795 -1.9110 -0.7010 -0.5975
  759SOL     MW 3036   1.621   1.359   2.716 -0.1980 -0.2602 -0.2015
  760SOL     OW 3037   2.589   2.005   2.688  0.9207 -0.3822  0.4367
  760SOL    HW1 3038   2.558   1.911   2.676  0.1504  1.3998 -2.6616
  760SOL    HW2 3039   2.558   2.059   2.616 -0.1013 -1.3731 -2.9625
  760SOL     MW 3040   2.581   2.000   2.677  0.6842 -0.2778 -0.4206
  761SOL     OW 3041   2.173   0.416   2.462  0.0255  0.2423 -0.4401
  761SOL    HW1 3042   2.089   0.368   2.470 -1.6456 -0.5041 -1.2191
  761SOL    HW2 3043   2.191   0.443   2.552  2.1696 -2.1402  1.5411
  761SOL     MW 3044   2.165   0.413   2.475  0.0879 -0.1706 -0.2815
  762SOL     OW 3045   0.046   0.157   2.049  0.2424 -0.0978 -0.1255
  762SOL    HW1 3046   0.026   0.097   2.121  2.1691 -0.4784  0.5874
  762SOL    HW2 3047  -0.007   0.236   2.051  0.4807 -1.7067  0.1711
  762SOL     MW 3048   0.036   0.159   2.058  0.5281 -0.3603  0.0077
  763SOL     OW 3049   2.404   1.074   2.285  0.4807 -0.1110  0.0885
  763SOL    HW1 3050   2.437   1.036   2.199  0.8699 -0.1929 -1.2064
  763SOL    HW2 3051   2.480   1.132   2.314 -1.5046 -0.5920 -2.3322
  763SOL     MW 3052   2.418   1.077   2.277  0.2701 -0.1853 -0.4018
  764SOL     OW 3053   0.453   0.306   2.797 -0.2372  0.5439  0.1050
  764SOL    HW1 3054   0.391   0.257   2.746 -2.8621 -1.4524 -0.3852
  764SOL    HW2 3055   0.393   0.355   2.853 -0.4522  0.5034  0.4845
  764SOL     MW 3056   0.437   0.306   2.798 -0.6119  0.2752  0.0904
  765SOL     OW 3057   2.775   0.084   2.309 -0.3946 -0.1313  0.3538
  765SOL    HW1 3058   2.724   0.065   2.231 -0.3249 -0.3695  0.4054
  765SOL    HW2 3059   2.822  -0.000   2.330 -0.0573  1.0007  0.6771
  765SOL     MW 3060   2.775   0.071   2.301 -0.3409 -0.0134  0.4033
  766SOL     OW 3061   1.875   2.993   2.229 -0.0101 -0.1515 -0.3414
  766SOL    HW1 3062   1.927   3.030   2.157  1.7260 -1.0762  0.5474
  766SOL    HW2 3063   1.801   2.940   2.191 -2.5377 -1.0636 -1.9302
  766SOL     MW 3064   1.872   2.991   2.215 -0.1146 -0.3939 -0.4338
  767SOL     OW 3065   2.615   0.618   1.905  0.1674  0.3080 -0.6589
  767SOL    HW1 3066   2.655   0.685   1.965  0.1148 -2.0979  1.7954
  767SOL    HW2 3067   2.524   0.614   1.941  0.2296 -0.8271 -0.7805
  767SOL     MW 3068   2.608   0.627   1.918  0.1687 -0.1592 -0.3511
  768SOL     OW 3069   0.047   1.533   2.957  0.0391  0.4141 -0.2925
  768SOL    HW1 3070   0.032   1.495   3.048  0.9449 -1.3146 -0.0796
  768SOL    HW2 3071   0.061   1.446   2.904 -1.1008 -0.8685  0.9139
  768SOL     MW 3072   0.047   1.516   2.962  0.0082  0.0168 -0.1053
  769SOL     OW 3073   2.372   0.685   2.307  0.3295  0.0480  0.6456
  769SOL    HW1 3074   2.282   0.663   2.313 -0.8654 -1.6240 -1.4904
  769SOL    HW2 3075   2.401   0.651   2.227  2.3214 -1.8702  1.4418
  769SOL     MW 3076   2.364   0.678   2.297  0.4346 -0.4257  0.4688
  770SOL     OW 3077   0.090   1.612   2.605  0.6967  0.3147  0.1601
  770SOL    HW1 3078  -0.008   1.636   2.597  0.1429 -0.3549 -1.7776
  770SOL    HW2 3079   0.085   1.522   2.636  3.0781 -2.4769 -0.1648
  770SOL     MW 3080   0.076   1.603   2.608  0.9378 -0.1420 -0.1384
  771SOL     OW 3081   2.959   0.640   1.925  0.1918 -0.1767 -0.0914
  771SOL    HW1 3082   2.913   0.648   1.844 -0.9268 -1.6173 -0.7163
  771SOL    HW2 3083   3.049   0.627   1.896 -0.8188  1.5785  0.1430
  771SOL     MW 3084   2.965   0.639   1.910 -0.0891 -0.1352 -0.1429
  772SOL     OW 3085   3.097   3.088   2.274 -0.3590  0.1590  0.4910
  772SOL    HW1 3086   3.026   3.035   2.315 -1.0951  1.4089  2.8291
  772SOL    HW2 3087   3.164   3.013   2.246  1.8186 -2.1381  1.8778
  772SOL     MW 3088   3.096   3.071   2.276 -0.1688  0.0209  0.9825
  773SOL     OW 3089   2.471   2.848   2.760  0.3928 -0.0232  0.3176
  773SOL    HW1 3090   2.460   2.765   2.712 -0.5409 -1.0661  1.2136
  773SOL    HW2 3091   2.425   2.830   2.845 -1.7296  1.1910 -0.3791
  773SOL     MW 3092   2.463   2.835   2.765 -0.0104 -0.0006  0.3439
  774SOL     OW 3093   2.270   1.179   1.734 -0.4011  0.2102 -0.7858
  774SOL    HW1 3094   2.287   1.259   1.678  0.2422  1.0088  1.2663
  774SOL    HW2 3095   2.216   1.123   1.686  0.8941 -0.4586  1.3323
  774SOL     MW 3096   2.265   1.182   1.720 -0.1453  0.2273 -0.2356
  775SOL     OW 3097   2.296   2.901   2.307  0.0915 -0.2174 -0.3904
  775SOL    HW1 3098   2.318   2.988   2.267 -2.4904  1.2127  3.4711
  775SOL    HW2 3099   2.367   2.838   2.286 -1.6853 -2.5936  3.4194
  775SOL     MW 3100   2.308   2.904   2.299 -0.4836 -0.3422  0.6218
  776SOL     OW 3101   0.037   1.454   0.110  0.5193 -0.1224 -0.1619
  776SOL    HW1 3102   0.134   1.424   0.102 -1.1739  2.2629 -1.0662
  776SOL    HW2 3103  -0.005   1.366   0.094 -0.9939 -2.6685  1.9636
  776SOL     MW 3104   0.044   1.439   0.107  0.0963 -0.1436 -0.0008
  777SOL     OW 3105   2.998   1.069   1.764 -0.0680  0.2093 -0.1319
  777SOL    HW1 3106   2.925   1.128   1.752  0.2957 -1.0810 -1.4002
  777SOL    HW2 3107   2.953   0.984   1.773 -1.0516 -2.0332  0.5681
  777SOL     MW 3108   2.983   1.065   1.764 -0.1498 -0.2568 -0.2069
  778SOL     OW 3109   2.887   0.407   2.763 -0.0196  0.3144  0.3130
  778SOL    HW1 3110   2.819   0.436   2.830  1.2120 -1.6574  0.1027
  778SOL    HW2 3111   2.894   0.477   2.700  0.6019 -2.0756 -0.2272
  778SOL     MW 3112   2.879   0.420   2.763  0.2249 -0.2611  0.2139
  779SOL     OW 3113   2.098   0.624   2.303  0.5255  0.0100  0.6018
  779SOL    HW1 3114   2.013   0.649   2.352  0.6736 -0.9752 -1.0980
  779SOL    HW2 3115   2.123   0.547   2.349 -5.2387 -1.6557 -4.8416
  779SOL     MW 3116   2.090   0.617   2.315 -0.2155 -0.3398 -0.3407
  780SOL     OW 3117   0.211   0.121   2.807 -0.0957 -0.2200  0.2553
  780SOL    HW1 3118   0.180   0.184   2.871  0.1942 -2.3477  1.1998
  780SOL    HW2 3119   0.144   0.099   2.743  2.1443 -0.7078 -0.8004
  780SOL     MW 3120   0.198   0.126   2.807  0.2381 -0.5651  0.2406
  781SOL     OW 3121   3.019   1.306   2.511 -0.0721 -0.6316  0.3034
  781SOL    HW1 3122   3.010   1.363   2.436 -1.0018 -1.5889  3.0810
  781SOL    HW2 3123   3.025   1.215   2.481  0.6404 -0.8817 -1.4167
  781SOL     MW 3124   3.019   1.301   2.497 -0.1007 -0.7909  0.4429
  782SOL     OW 3125   0.666   1.550   0.013 -0.3070 -0.2274 -0.1047
  782SOL    HW1 3126   0.616   1.613  -0.037 -1.2984 -0.0206  0.4561
  782SOL    HW2 3127   0.605   1.512   0.081 -3.0292 -0.7828  1.8272
  782SOL     MW 3128   0.651   1.553   0.016 -0.7970 -0.2734  0.2242
  783SOL     OW 3129   2.721   0.479   2.440 -0.1928  0.4627  0.4561
  783SOL    HW1 3130   2.663   0.460   2.361  2.1986  1.2402 -1.0486
  783SOL    HW2 3131   2.699   0.422   2.516 -0.9390  2.0245  2.1590
  783SOL     MW 3132   2.710   0.469   2.440  0.0243  0.7714  0.4823
  784SOL     OW 3133   0.282   0.910   2.869 -0.2026  0.0693 -0.0846
  784SOL    HW1 3134   0.221   0.987   2.872 -0.6666 -0.6554  0.6162
  784SOL    HW2 3135   0.356   0.937   2.804 -2.8025 -2.3370  0.8328
  784SOL     MW 3136   0.284   0.924   2.861 -0.6069 -0.3438  0.1289
  785SOL     OW 3137   0.431   0.530   2.186  0.3479  0.5646 -0.0997
  785SOL    HW1 3138   0.462   0.565   2.105  1.8377  3.9849  0.5618
  785SOL    HW2 3139   0.363   0.464   2.174  0.3625  2.9484 -0.2771
  785SOL     MW 3140   0.426   0.526   2.174  0.5464  1.3304 -0.0358
  786SOL     OW 3141   1.949   0.493   2.884  0.5993 -0.0391  0.3475
  786SOL    HW1 3142   1.927   0.521   2.966 -0.9497 -1.2227 -4.5330
  786SOL    HW2 3143   2.041   0.473   2.891 -3.4800 -0.0436 -1.2867
  786SOL     MW 3144   1.958   0.494   2.896 -0.1433 -0.1959 -0.5120
  787SOL     OW 3145   2.425   0.130   2.962  0.2013 -0.1123 -0.1308
  787SOL    HW1 3146   2.481   0.088   2.895 -0.5546  1.1992  0.9127
  787SOL    HW2 3147   2.485   0.193   3.010  1.9287 -1.9277 -0.6188
  787SOL     MW 3148   2.441   0.133   2.959  0.3295 -0.1788 -0.0575
  788SOL     OW 3149   2.867   2.938   2.375  0.0720  0.3344  0.1738
  788SOL    HW1 3150   2.782   2.908   2.411 -2.7012 -4.0051 -0.2414
  788SOL    HW2 3151   2.928   2.863   2.373 -1.9320 -1.8760 -0.4933
  788SOL     MW 3152   2.864   2.924   2.380 -0.5583 -0.5298  0.0310
  789SOL     OW 3153   0.110   0.308   2.967  0.5900  0.1010 -0.0049
  789SOL    HW1 3154   0.024   0.265   2.983  1.3504  1.0265  2.1216
  789SOL    HW2 3155   0.092   0.399   2.979 -1.6387 -0.0654  2.4224
  789SOL     MW 3156   0.097   0.314   2.971  0.3963  0.2011  0.5959
  790SOL     OW 3157   3.027   1.062   2.429 -0.0277 -0.3119 -0.4887
  790SOL    HW1 3158   2.990   0.999   2.488 -0.3881  0.8260  2.8907
  790SOL    HW2 3159   2.983   1.040   2.346 -1.8750 -0.2112  1.8682
  790SOL     MW 3160   3.017   1.051   2.426 -0.3190 -0.1485  0.2682
  791SOL     OW 3161   2.664   0.306   2.658  0.3263  0.1755 -0.1376
  791SOL    HW1 3162   2.601   0.363   2.703  0.4377 -4.7474  0.5263
  791SOL    HW2 3163   2.748   0.323   2.695 -1.1759 -1.1838  0.8738
  791SOL     MW 3164   2.666   0.316   2.669  0.1428 -0.6534  0.0835
  792SOL     OW 3165   2.367   0.248   2.353  0.4325 -0.9172 -0.3290
  792SOL    HW1 3166   2.298   0.304   2.395  0.8207  0.8464 -1.4413
  792SOL    HW2 3167   2.404   0.204   2.427 -1.7348 -0.0429 -0.2246
  792SOL     MW 3168   2.363   0.250   2.369  0.1978 -0.5691 -0.4620
  793SOL     OW 3169   1.860   1.076   1.946  0.2392 -0.0147 -0.3532
  793SOL    HW1 3170   1.838   1.093   1.859  0.3014  0.2436  0.9021
  793SOL    HW2 3171   1.924   1.005   1.941 -1.8603  0.0967  1.6106
  793SOL     MW 3172   1.865   1.069   1.934 -0.0296  0.0341  0.0715
  794SOL     OW 3173   1.446   2.273   0.161 -0.1855  0.3248 -0.4059
  794SOL    HW1 3174   1.440   2.344   0.097 -0.3503  1.8318 -3.4998
  794SOL    HW2 3175   1.495   2.303   0.238 -1.3508 -1.2931  1.0160
  794SOL     MW 3176   1.451   2.286   0.163 -0.3610  0.3101 -0.6265
  795SOL     OW 3177   2.355   0.970   2.560 -0.1491 -0.1097  0.0039
  795SOL    HW1 3178   2.326   1.028   2.630 -0.4218 -1.5056 -1.4172
  795SOL    HW2 3179   2.386   1.018   2.483  2.6215  1.3824 -1.1474
  795SOL     MW 3180   2.355   0.984   2.559  0.1804 -0.0970 -0.3355
  796SOL     OW 3181   0.227   0.610   2.790  0.0609  0.6537  0.6499
  796SOL    HW1 3182   0.208   0.697   2.822 -3.2180 -2.1277 -1.3866
  796SOL    HW2 3183   0.185   0.598   2.705 -0.5624  2.2626  1.7303
  796SOL     MW 3184   0.219   0.620   2.783 -0.4539  0.4990  0.5238
  797SOL     OW 3185   2.568   0.090   2.520  0.4822  0.7245  0.0886
  797SOL    HW1 3186   2.593   0.159   2.570 -0.7700 -3.8390 -1.6061
  797SOL    HW2 3187   2.625   0.090   2.439 -0.6870  0.8542 -0.4348
  797SOL     MW 3188   2.579   0.099   2.516  0.1627  0.1395 -0.2040
  798SOL     OW 3189   2.348   0.050   2.163  0.2358  0.1107  0.0937
  798SOL    HW1 3190   2.357   0.111   2.240  1.7520 -2.1400 -0.4246
  798SOL    HW2 3191   2.437   0.048   2.138 -2.2493  1.3048  2.2138
  798SOL     MW 3192   2.361   0.058   2.170  0.1080 -0.0287  0.3051
  799SOL     OW 3193   2.454   2.913   0.130  0.2739  0.0645  0.3969
  799SOL    HW1 3194   2.433   2.863   0.049 -0.9081  1.3917  1.4553
  799SOL    HW2 3195   2.395   2.986   0.125 -1.7663 -0.4016  1.9121
  799SOL     MW 3196   2.443   2.916   0.118 -0.1512  0.1781  0.7365
  800SOL     OW 3197   1.832   0.013   1.806  0.0267  0.6968  0.4453
  800SOL    HW1 3198   1.791  -0.074   1.791 -0.4307  1.1874  0.3915
  800SOL    HW2 3199   1.887   0.004   1.882  0.5794  1.5084 -0.3711
  800SOL     MW 3200   1.834   0.000   1.814  0.0393  0.8686  0.3305
  801SOL     OW 3201   2.798   1.265   2.641 -0.2197  0.1113 -0.0496
  801SOL    HW1 3202   2.763   1.177   2.613 -1.2252 -2.7299  0.3012
  801SOL    HW2 3203   2.878   1.278   2.593 -3.1050 -5.2575  1.7299
  801SOL     MW 3204   2.804   1.255   2.631 -0.7330 -0.9719  0.2315
  802SOL     OW 3205   2.563   1.555   2.813 -0.2504  0.7300  0.0695
  802SOL    HW1 3206   2.540   1.469   2.764  1.1115  1.0283  1.4783
  802SOL    HW2 3207   2.662   1.548   2.823  1.5062 -0.3641  0.7535
  802SOL     MW 3208   2.573   1.543   2.808  0.1610  0.6250  0.3456
  803SOL     OW 3209   2.289   1.345   1.940  0.3172 -0.4351 -0.2115
  803SOL    HW1 3210   2.262   1.285   2.002 -2.1228  2.0461  2.2123
  803SOL    HW2 3211   2.266   1.301   1.858  0.3688 -3.5943  0.9688
  803SOL     MW 3212   2.283   1.331   1.938  0.0021 -0.5246  0.2640
  804SOL     OW 3213   2.283   0.032   0.074 -0.2294  0.0152  0.3943
  804SOL    HW1 3214   2.201   0.083   0.060 -0.0555 -2.0525  0.0349
  804SOL    HW2 3215   2.346   0.062   0.009 -2.1783 -0.3476 -1.1479
  804SOL     MW 3216   2.281   0.043   0.063 -0.4636 -0.3055  0.1434
  805SOL     OW 3217   2.715   1.041   2.516  0.4491  0.9794  0.0036
  805SOL    HW1 3218   2.726   1.028   2.422 -0.9725 -3.5073  0.4960
  805SOL    HW2 3219   2.777   0.978   2.552 -1.9892 -0.1470  3.3775
  805SOL     MW 3220   2.725   1.031   2.508 -0.0602  0.2388  0.5137
  806SOL     OW 3221   2.567   0.396   2.226  0.4028  0.3154  0.5780
  806SOL    HW1 3222   2.485   0.355   2.261 -1.9838 -2.7327 -0.1087
  806SOL    HW2 3223   2.569   0.377   2.130  1.4920 -1.6745 -0.5865
  806SOL     MW 3224   2.556   0.388   2.218  0.2316 -0.3493  0.3337
  807SOL     OW 3225   0.056   1.147   2.052 -0.2766 -0.6064 -0.8575
  807SOL    HW1 3226   0.104   1.075   1.997 -1.5054 -0.2402  0.0702
  807SOL    HW2 3227  -0.028   1.106   2.065  2.5172  1.4536 -1.9042
  807SOL     MW 3228   0.051   1.132   2.046 -0.0702 -0.2863 -0.8732
  808SOL     OW 3229   2.572   3.102   2.773 -0.5241 -0.0612  0.1342
  808SOL    HW1 3230   2.545   3.009   2.773 -0.6637  0.4583  1.4936
  808SOL    HW2 3231   2.580   3.118   2.678  0.8309 -1.9145 -3.4736
  808SOL     MW 3232   2.569   3.092   2.761 -0.3637 -0.2372 -0.1624
  809SOL     OW 3233   2.554   1.254   2.411  0.0454 -0.3670 -0.1456
  809SOL    HW1 3234   2.608   1.225   2.478 -2.4549 -0.4346  0.4576
  809SOL    HW2 3235   2.603   1.323   2.369 -0.8984  1.2740 -0.8276
  809SOL     MW 3236   2.568   1.259   2.415 -0.4090 -0.1594 -0.1560
  810SOL     OW 3237   2.250   1.303   2.227 -0.1269  0.5033 -0.0951
  810SOL    HW1 3238   2.286   1.222   2.272 -0.1375 -0.8188  0.3830
  810SOL    HW2 3239   2.155   1.276   2.221 -1.6777 -0.6295 -1.0955
  810SOL     MW 3240   2.242   1.288   2.232 -0.3329  0.1794 -0.1640
  811SOL     OW 3241   1.537   0.123   2.281  0.3828 -0.9425 -0.3800
  811SOL    HW1 3242   1.613   0.070   2.311 -3.0329  1.4867  0.9249
  811SOL    HW2 3243   1.512   0.122   2.184  1.5751 -1.4962 -1.4504
  811SOL     MW 3244   1.543   0.116   2.272  0.0895 -0.6951 -0.3491
  812SOL     OW 3245   1.432   2.777   2.097  0.1138 -0.3617 -0.5125
  812SOL    HW1 3246   1.530   2.781   2.084 -0.6208 -1.3353  0.9675
  812SOL    HW2 3247   1.420   2.762   2.190 -1.8336  0.8455 -1.6274
  812SOL     MW 3248   1.444   2.775   2.108 -0.2400 -0.3309 -0.4644
  813SOL     OW 3249   1.776   0.723   2.205 -0.0472 -0.2120  0.3556
  813SOL    HW1 3250   1.737   0.638   2.227  0.1013  0.6762  1.6149
  813SOL    HW2 3251   1.808   0.762   2.290  0.7940  0.3422  0.1263
  813SOL     MW 3252   1.775   0.717   2.219  0.0834 -0.0217  0.4915
  814SOL     OW 3253   2.790   1.238   1.662  0.0402 -0.8050 -0.1535
  814SOL    HW1 3254   2.712   1.218   1.711 -2.7354  2.7983 -3.2279
  814SOL    HW2 3255   2.756   1.209   1.580 -2.0412  2.5863  1.0612
  814SOL     MW 3256   2.775   1.231   1.658 -0.6006  0.1178 -0.3989
  815SOL     OW 3257   2.503   1.662   2.421  0.1537  0.2034  0.0341
  815SOL    HW1 3258   2.425   1.610   2.404 -0.8616 -0.5998 -3.1865
  815SOL    HW2 3259   2.578   1.608   2.441  4.2450  1.2710 -0.0161
  815SOL     MW 3260   2.503   1.648   2.421  0.5596  0.2383 -0.3974
  816SOL     OW 3261   0.772   0.641   2.735 -0.3777 -1.0017  0.6840
  816SOL    HW1 3262   0.778   0.562   2.784 -0.5383  2.7012  3.3644
  816SOL    HW2 3263   0.676   0.648   2.717 -0.1799 -1.9843  2.1204
  816SOL     MW 3264   0.760   0.631   2.739 -0.3728 -0.6428  1.2271
  817SOL     OW 3265   3.029   1.218   1.388 -0.0039 -0.5200 -0.5208
  817SOL    HW1 3266   3.098   1.204   1.453 -1.1311 -0.4503 -1.4168
  817SOL    HW2 3267   3.028   1.310   1.356 -1.9291 -2.0216  0.7334
  817SOL     MW 3268   3.038   1.229   1.393 -0.4066 -0.7090 -0.4735
  818SOL     OW 3269   1.934   1.001   2.739 -0.3120 -0.3910  0.7298
  818SOL    HW1 3270   1.939   1.052   2.659  1.5972 -1.7731  0.3554
  818SOL    HW2 3271   1.974   0.913   2.716  0.4271 -0.7551  2.9610
  818SOL     MW 3272   1.940   0.996   2.725  0.0374 -0.6214  0.9748
  819SOL     OW 3273   1.920   0.295   2.480  0.6830  0.0926  0.1568
  819SOL    HW1 3274   1.831   0.326   2.497  3.0109 -1.4666 -0.9551
  819SOL    HW2 3275   1.958   0.280   2.572  1.3470  1.1407  2.6193
  819SOL     MW 3276   1.914   0.297   2.494  1.0777  0.0252  0.3350
  820SOL     OW 3277   2.463   1.764   2.664  0.3101 -0.1224 -0.3725
  820SOL    HW1 3278   2.494   1.682   2.711 -0.3731  0.5315 -1.3895
  820SOL    HW2 3279   2.471   1.741   2.573  2.9375 -0.2198  1.9988
  820SOL     MW 3280   2.468   1.750   2.658  0.5666 -0.0490 -0.1938
  821SOL     OW 3281   2.574   1.344   2.003  0.0500 -0.0306  0.1198
  821SOL    HW1 3282   2.617   1.421   1.964 -0.3102 -0.1166  0.1913
  821SOL    HW2 3283   2.484   1.372   2.016  2.8382  0.6943 -1.1252
  821SOL     MW 3284   2.567   1.358   1.999  0.3703  0.0537 -0.0350
  822SOL     OW 3285   2.809   2.646   1.475 -0.1018  0.2292 -0.1684
  822SOL    HW1 3286   2.846   2.686   1.555  3.6475 -0.2053 -1.8418
  822SOL    HW2 3287   2.774   2.716   1.425  0.0215  1.2175 -2.0012
  822SOL     MW 3288   2.809   2.660   1.479  0.4091  0.3023 -0.6310
  823SOL     OW 3289   2.256   0.464   1.814  0.2122  0.3128  0.3142
  823SOL    HW1 3290   2.337   0.428   1.772  1.7819 -0.3901  2.8772
  823SOL    HW2 3291   2.184   0.404   1.806 -2.0982  0.5313  0.6347
  823SOL     MW 3292   2.257   0.451   1.808  0.1145  0.2489  0.6946
  824SOL     OW 3293   2.065   1.390   2.509 -0.0216  0.9897 -0.0570
  824SOL    HW1 3294   2.160   1.395   2.530 -1.7979  0.3394  0.2214
  824SOL    HW2 3295   2.020   1.442   2.575  0.9998 -3.4590 -1.2012
  824SOL     MW 3296   2.071   1.397   2.521 -0.1212  0.3170 -0.1713
  825SOL     OW 3297   2.091   2.566   0.284 -0.3190 -0.6808 -0.7177
  825SOL    HW1 3298   2.109   2.513   0.361  2.8012  2.2812 -0.0876
  825SOL    HW2 3299   2.149   2.516   0.224 -1.0235 -0.9568  3.0082
  825SOL     MW 3300   2.101   2.552   0.286 -0.0003 -0.3264 -0.1430
  826SOL     OW 3301   1.934   2.371   0.553 -0.2176  0.3337 -0.1992
  826SOL    HW1 3302   1.860   2.312   0.582 -2.1765  1.9109  0.0815
  826SOL    HW2 3303   1.930   2.459   0.606  2.4721  0.5590 -0.5270
  826SOL     MW 3304   1.924   2.375   0.564 -0.1212  0.5715 -0.2054
  827SOL     OW 3305   1.965   2.174   0.820 -0.1960  0.0900 -0.3582
  827SOL    HW1 3306   1.926   2.219   0.747 -1.2534  0.3804 -0.0594
  827SOL    HW2 3307   1.893   2.137   0.877 -0.7566 -3.1314  1.1670
  827SOL     MW 3308   1.950   2.175   0.818 -0.4095 -0.2967 -0.1175
  828SOL     OW 3309   0.069   2.648   0.514  0.4323 -0.6465 -0.5433
  828SOL    HW1 3310   0.161   2.662   0.534  2.0788 -0.8863  2.2385
  828SOL    HW2 3311   0.059   2.683   0.423  0.3255 -0.0391 -1.6319
  828SOL     MW 3312   0.080   2.654   0.505  0.6354 -0.5980 -0.3199
  829SOL     OW 3313   2.998   2.941   1.238  0.4709  0.3911 -0.5575
  829SOL    HW1 3314   2.919   2.931   1.181 -0.0506 -0.4066 -2.0058
  829SOL    HW2 3315   3.051   2.871   1.205  0.2586 -0.3007  0.8063
  829SOL     MW 3316   2.995   2.931   1.226  0.3741  0.1946 -0.5687
  830SOL     OW 3317   2.501   2.877   2.037  0.8269 -0.0751 -0.0584
  830SOL    HW1 3318   2.408   2.889   2.005 -0.8204  2.5714 -0.3766
  830SOL    HW2 3319   2.554   2.853   1.964 -1.2530  0.3229 -0.9357
  830SOL     MW 3320   2.495   2.875   2.023  0.3352  0.3266 -0.2161
  831SOL     OW 3321   2.391   2.441   1.227 -0.0474  0.3249 -0.5720
  831SOL    HW1 3322   2.344   2.374   1.283  0.7328  0.8942  3.4309
  831SOL    HW2 3323   2.484   2.411   1.238 -1.0988  0.6535  0.1222
  831SOL     MW 3324   2.397   2.428   1.236 -0.0832  0.4434  0.0477
  832SOL     OW 3325   2.409   2.191   1.856 -0.9999 -0.3792 -0.9350
  832SOL    HW1 3326   2.425   2.288   1.878  3.5838 -1.4960 -2.6948
  832SOL    HW2 3327   2.501   2.152   1.848  0.7163 -2.0420  0.8486
  832SOL     MW 3328   2.424   2.199   1.858 -0.1687 -0.7459 -0.9319
  833SOL     OW 3329   1.802   2.498   0.924 -0.1719  0.1865  0.1493
  833SOL    HW1 3330   1.712   2.477   0.940  3.5541 -1.8654 -0.8544
  833SOL    HW2 3331   1.839   2.576   0.968  3.2340  1.6456  2.0066
  833SOL     MW 3332   1.795   2.506   0.932  0.7691  0.1083  0.2619
  834SOL     OW 3333   2.222   2.437   0.506  0.5126 -0.4495  0.1698
  834SOL    HW1 3334   2.182   2.351   0.525 -2.2539 -1.3309 -1.4605
  834SOL    HW2 3335   2.295   2.416   0.438  1.3194  0.7181 -1.8719
  834SOL     MW 3336   2.226   2.423   0.500  0.2541 -0.4117 -0.3147
  835SOL     OW 3337   1.880   2.590   0.679 -0.0713 -0.4860 -0.6662
  835SOL    HW1 3338   1.869   2.560   0.771  0.1164  2.3293 -2.6492
  835SOL    HW2 3339   1.932   2.667   0.669  0.2507 -0.0228  1.5816
  835SOL     MW 3340   1.885   2.596   0.690 -0.0041 -0.0535 -0.6313
  836SOL     OW 3341   1.989   2.163   1.656  0.3450  0.1652 -0.3003
  836SOL    HW1 3342   2.081   2.132   1.649  0.0158 -0.9388  0.7558
  836SOL    HW2 3343   1.991   2.247   1.699 -1.8718  0.6305  0.3567
  836SOL     MW 3344   2.002   2.170   1.661  0.0091  0.0809 -0.0742
  837SOL     OW 3345   2.071   0.181   0.691 -0.1421 -0.2433 -0.1024
  837SOL    HW1 3346   1.981   0.210   0.653 -0.2506  1.3927 -1.8771
  837SOL    HW2 3347   2.097   0.111   0.626 -1.0427 -1.4065  1.9841
  837SOL     MW 3348   2.062   0.175   0.678 -0.2753 -0.1809 -0.0612
  838SOL     OW 3349   2.898   2.033   0.918 -0.5470  0.2851  0.1176
  838SOL    HW1 3350   2.825   1.988   0.955 -0.5040 -0.8355  0.1730
  838SOL    HW2 3351   2.960   1.969   0.878  1.0124 -0.3606 -0.2224
  838SOL     MW 3352   2.897   2.019   0.918 -0.3356  0.0520  0.0800
  839SOL     OW 3353   1.490   2.349   0.924  0.2779 -0.4262 -0.1004
  839SOL    HW1 3354   1.470   2.429   0.971 -1.7301 -0.9710 -1.6544
  839SOL    HW2 3355   1.543   2.298   0.988  2.2840  0.5710 -1.4760
  839SOL     MW 3356   1.495   2.353   0.939  0.2777 -0.3665 -0.4869
  840SOL     OW 3357   2.284   2.057   2.394  0.2497 -0.0175 -0.5634
  840SOL    HW1 3358   2.243   2.118   2.340  0.0762 -2.8624  2.7841
  840SOL    HW2 3359   2.341   2.125   2.427  0.9459  1.0389  2.9049
  840SOL     MW 3360   2.287   2.074   2.391  0.3187 -0.2535  0.3359
  841SOL     OW 3361   2.208   2.451   0.057  0.1866 -0.0266  1.4910
  841SOL    HW1 3362   2.243   2.483  -0.027  2.6384  2.1532  0.5818
  841SOL    HW2 3363   2.159   2.368   0.042 -0.3712  1.4837 -0.8200
  841SOL     MW 3364   2.206   2.444   0.044  0.4365  0.4603  1.0661
  842SOL     OW 3365   2.680   1.985   1.577 -0.1945 -0.4104 -0.2431
  842SOL    HW1 3366   2.611   1.924   1.579 -2.0203  0.8049  1.9312
  842SOL    HW2 3367   2.650   2.038   1.494  1.0345  0.0278 -4.1909
  842SOL     MW 3368   2.667   1.984   1.566 -0.2733 -0.1923 -0.4771
  843SOL     OW 3369   2.643   2.821   1.800 -0.8690 -0.3312 -0.3588
  843SOL    HW1 3370   2.726   2.778   1.793 -0.2398  1.5677  1.4451
  843SOL    HW2 3371   2.585   2.762   1.749  2.3166 -3.4173  1.1838
  843SOL     MW 3372   2.646   2.808   1.792 -0.3657 -0.4879  0.0827
  844SOL     OW 3373   2.631   2.353   1.204  0.0785  0.0046 -0.1478
  844SOL    HW1 3374   2.666   2.371   1.117 -6.5886  2.0827 -1.0495
  844SOL    HW2 3375   2.704   2.364   1.270  0.5320  0.3631 -0.4664
  844SOL     MW 3376   2.645   2.357   1.201 -0.7413  0.3261 -0.3088
  845SOL     OW 3377   2.829   2.533   0.352  0.2912  0.2743 -0.0975
  845SOL    HW1 3378   2.768   2.458   0.349 -2.7278  1.7382 -0.7869
  845SOL    HW2 3379   2.804   2.578   0.439  0.1027  0.6886  3.6591
  845SOL     MW 3380   2.818   2.529   0.363 -0.1320  0.5221  0.3072
  846SOL     OW 3381   1.497   2.816   0.846 -0.0730  0.4699  0.1682
  846SOL    HW1 3382   1.577   2.867   0.865  1.6857 -3.1357 -2.0459
  846SOL    HW2 3383   1.426   2.882   0.852 -2.6348 -0.4855 -1.1797
  846SOL     MW 3384   1.498   2.831   0.850 -0.1790 -0.1319 -0.3018
  847SOL     OW 3385   2.489   1.923   0.186 -0.7761 -0.0673  0.3124
  847SOL    HW1 3386   2.504   1.835   0.234  1.3319 -1.7322  2.9957
  847SOL    HW2 3387   2.445   1.900   0.102  0.1295  0.7023 -1.4118
  847SOL     MW 3388   2.485   1.908   0.181 -0.3785 -0.1854  0.4390
  848SOL     OW 3389   2.590   2.101   1.298  0.3310  0.1508 -0.9725
  848SOL    HW1 3390   2.612   2.185   1.268 -0.1385 -0.3109  0.2091
  848SOL    HW2 3391   2.592   2.049   1.220 -0.7449 -2.3839  1.5692
  848SOL     MW 3392   2.593   2.105   1.284  0.1271 -0.2445 -0.4812
  849SOL     OW 3393   2.022   2.791   0.772  0.5029  0.4127  0.2036
  849SOL    HW1 3394   2.055   2.735   0.843 -1.8819  2.5444 -0.1140
  849SOL    HW2 3395   2.093   2.782   0.704 -0.8832 -1.7436 -3.0346
  849SOL     MW 3396   2.036   2.782   0.773  0.0054  0.4094 -0.2656
  850SOL     OW 3397   2.245   1.831   1.646 -0.2928 -0.6965 -0.8654
  850SOL    HW1 3398   2.171   1.793   1.597  2.4454 -2.4219  1.1113
  850SOL    HW2 3399   2.248   1.930   1.638  0.4178  0.6771  1.8503
  850SOL     MW 3400   2.235   1.839   1.638  0.1622 -0.7429 -0.2463
  851SOL     OW 3401   2.371   2.372   0.274 -0.2927  0.6422 -0.0381
  851SOL    HW1 3402   2.345   2.395   0.180 -0.9924  1.1439 -0.9520
  851SOL    HW2 3403   2.465   2.343   0.275 -0.0516 -1.9167  0.7073
  851SOL     MW 3404   2.380   2.371   0.262 -0.3532  0.3707 -0.0603
  852SOL     OW 3405   2.331   2.096   0.328  0.5797 -0.0642 -0.2775
  852SOL    HW1 3406   2.367   2.179   0.307  2.1632 -1.1135  2.7729
  852SOL    HW2 3407   2.393   2.034   0.282  0.3943  0.0491  0.1873
  852SOL     MW 3408   2.344   2.099   0.319  0.7641 -0.1877  0.1863
  853SOL     OW 3409   2.470   2.454   1.922 -0.4119 -0.8989 -0.0980
  853SOL    HW1 3410   2.506   2.521   1.860  0.8055 -0.7879 -1.3531
  853SOL    HW2 3411   2.549   2.447   1.979  1.4274  0.5107 -0.4793
  853SOL     MW 3412   2.485   2.462   1.921 -0.0086 -0.6982 -0.3139
  854SOL     OW 3413   2.860   2.296   0.767  0.0864 -0.0976 -0.3643
  854SOL    HW1 3414   2.774   2.258   0.734 -1.5422 -0.3325  0.3089
  854SOL    HW2 3415   2.884   2.232   0.842 -0.2477 -0.1734 -0.7508
  854SOL     MW 3416   2.852   2.282   0.773 -0.1726 -0.1386 -0.3264
  855SOL     OW 3417   2.633   2.323   0.340  0.3443 -0.3284 -0.5134
  855SOL    HW1 3418   2.605   2.367   0.421  1.3950  0.3878  2.3940
  855SOL    HW2 3419   2.690   2.251   0.383 -0.9968 -1.1026  0.3594
  855SOL     MW 3420   2.637   2.319   0.356  0.3060 -0.3361 -0.0146
  856SOL     OW 3421   2.117   1.941   0.226 -0.1243 -0.6253  0.4474
  856SOL    HW1 3422   2.030   1.952   0.261 -1.0107 -1.4160 -0.2781
  856SOL    HW2 3423   2.179   2.014   0.254  0.6312  0.7682 -0.7028
  856SOL     MW 3424   2.114   1.952   0.234 -0.1416 -0.5457  0.1999
  857SOL     OW 3425   2.467   1.964   0.551 -0.2690 -0.0349 -0.4411
  857SOL    HW1 3426   2.407   2.016   0.487  1.7365  1.2247  0.7057
  857SOL    HW2 3427   2.404   1.928   0.619 -0.5410 -0.1580  3.1598
  857SOL     MW 3428   2.451   1.966   0.551 -0.0403  0.1151  0.1853
  858SOL     OW 3429   2.898   2.707   1.751  0.7416  0.0095  0.3859
  858SOL    HW1 3430   2.993   2.725   1.754 -2.2332  1.5522 -1.5894
  858SOL    HW2 3431   2.894   2.616   1.778 -1.2035 -1.7807 -0.9637
  858SOL     MW 3432   2.910   2.697   1.755  0.0924 -0.0232 -0.0528
  859SOL     OW 3433   2.149   2.576   0.929 -0.0908 -0.1982  0.5365
  859SOL    HW1 3434   2.098   2.516   0.987  0.0708 -0.4113  2.1627
  859SOL    HW2 3435   2.236   2.558   0.967  0.6500  1.4739  1.5634
  859SOL     MW 3436   2.154   2.565   0.942  0.0283 -0.0057  0.8865
  860SOL     OW 3437   2.697   2.610   0.120  0.1795  0.5681  0.2406
  860SOL    HW1 3438   2.730   2.611   0.213  0.8305 -0.4752  2.7007
  860SOL    HW2 3439   2.712   2.702   0.082 -1.6044  1.9533 -4.3459
  860SOL     MW 3440   2.703   2.622   0.127  0.0301  0.6132 -0.0400
  861SOL     OW 3441   1.605   2.177   1.124 -0.3638  0.3587  0.0822
  861SOL    HW1 3442   1.623   2.255   1.181  0.3162  1.9061 -0.5962
  861SOL    HW2 3443   1.544   2.118   1.166  0.6649  0.1068  0.9243
  861SOL     MW 3444   1.600   2.180   1.137 -0.1383  0.5296  0.1038
  862SOL     OW 3445   2.478   1.798   1.516  0.7596 -0.4904 -0.3295
  862SOL    HW1 3446   2.390   1.805   1.557 -0.4766 -0.5470  0.5341
  862SOL    HW2 3447   2.457   1.797   1.420 -2.5941  1.4405 -0.6642
  862SOL     MW 3448   2.464   1.799   1.509  0.1540 -0.2431 -0.2597
  863SOL     OW 3449   2.992   1.759   1.040 -0.1841  0.1011  0.1182
  863SOL    HW1 3450   3.081   1.747   1.072 -1.4035  1.7402 -1.1677
  863SOL    HW2 3451   2.951   1.825   1.095 -1.0173 -0.6299  2.6337
  863SOL     MW 3452   2.998   1.766   1.051 -0.4549  0.2209  0.2804
  864SOL     OW 3453   3.095   1.823   0.799  0.6620 -0.0179  0.3273
  864SOL    HW1 3454   3.054   1.795   0.884 -1.1134 -0.3759  1.3819
  864SOL    HW2 3455   3.064   1.789   0.711  1.2849  1.0921 -1.2562
  864SOL     MW 3456   3.086   1.815   0.798  0.5099  0.0813  0.2575
  865SOL     OW 3457   2.473   2.200   0.071  0.3205  0.0268  0.0517
  865SOL    HW1 3458   2.528   2.171   0.140 -1.5043 -1.7646  0.7463
  865SOL    HW2 3459   2.453   2.121   0.019  4.1132 -2.3204 -0.5897
  865SOL     MW 3460   2.478   2.186   0.074  0.5802 -0.5193  0.0587
  866SOL     OW 3461   2.672   2.341   1.632 -0.2487  0.0849 -0.4223
  866SOL    HW1 3462   2.679   2.261   1.684 -1.1940  0.7214 -0.0301
  866SOL    HW2 3463   2.738   2.332   1.558 -0.4162  1.0226 -2.5216
  866SOL     MW 3464   2.682   2.329   1.629 -0.3955  0.2926 -0.6475
  867SOL     OW 3465   0.059   2.686   1.765  0.3003  0.0507  0.1691
  867SOL    HW1 3466   0.122   2.749   1.813  0.5652  3.0615 -0.1271
  867SOL    HW2 3467   0.084   2.707   1.674 -2.3618 -4.8620  0.0181
  867SOL     MW 3468   0.071   2.697   1.760 -0.0160 -0.2002  0.1101
  868SOL     OW 3469   2.758   2.705   0.565 -0.3338  0.5617  0.3180
  868SOL    HW1 3470   2.672   2.662   0.569 -1.7436 -2.0252 -1.5466
  868SOL    HW2 3471   2.758   2.763   0.488  1.9042  3.0529 -0.2796
  868SOL     MW 3472   2.747   2.707   0.555 -0.2246  0.5491 -0.0068
  869SOL     OW 3473   2.080   2.325   1.058 -0.0507  0.2952 -0.1428
  869SOL    HW1 3474   2.172   2.340   1.031  1.4839  1.8521 -1.1032
  869SOL    HW2 3475   2.051   2.288   0.972  2.2314 -0.1473 -1.3620
  869SOL     MW 3476   2.088   2.322   1.043  0.4529  0.4422 -0.4303
  870SOL     OW 3477   2.147   3.096   0.498  0.4413 -0.4315 -0.0997
  870SOL    HW1 3478   2.202   3.169   0.457  0.7543  0.5729 -2.7812
  870SOL    HW2 3479   2.194   3.016   0.478  1.1091 -1.0532  0.7813
  870SOL     MW 3480   2.161   3.095   0.490  0.5707 -0.3810 -0.3373
  871SOL     OW 3481   2.439   2.060   0.944  0.4932  0.5649 -0.4469
  871SOL    HW1 3482   2.401   2.036   0.860 -2.7976  0.4695  1.3528
  871SOL    HW2 3483   2.406   2.153   0.949  0.0472  1.5092 -2.7653
  871SOL     MW 3484   2.430   2.069   0.934  0.0002  0.6769 -0.5153
  872SOL     OW 3485   2.045   2.481   1.530 -0.1354 -0.2300 -0.5495
  872SOL    HW1 3486   2.005   2.534   1.600  1.1909  1.3108  0.7876
  872SOL    HW2 3487   1.994   2.483   1.450 -1.7272 -0.2640 -1.9874
  872SOL     MW 3488   2.033   2.489   1.529 -0.1704 -0.0312 -0.5628
  873SOL     OW 3489   2.883   2.040   1.981 -0.2379  0.1317  0.1035
  873SOL    HW1 3490   2.884   2.102   2.054 -2.5315  0.9852  2.0244
  873SOL    HW2 3491   2.961   2.071   1.926  1.9443 -3.4520 -1.9623
  873SOL     MW 3492   2.893   2.053   1.983 -0.2526 -0.2285  0.0844
  874SOL     OW 3493   2.340   1.421   2.465  0.2130 -0.2476 -0.4259
  874SOL    HW1 3494   2.290   1.397   2.391 -0.7551 -0.1775 -0.2243
  874SOL    HW2 3495   2.412   1.358   2.456 -1.1056  0.3825  0.6827
  874SOL     MW 3496   2.343   1.409   2.454 -0.0887 -0.1552 -0.2530
  875SOL     OW 3497   2.341   2.316   0.983  0.2085  0.8574 -0.1939
  875SOL    HW1 3498   2.399   2.368   0.927  0.8242 -0.6660 -1.7986
  875SOL    HW2 3499   2.373   2.337   1.072  0.3144 -1.7869  1.4250
  875SOL     MW 3500   2.353   2.326   0.987  0.3037  0.3075 -0.1920
  876SOL     OW 3501   3.090   2.251   1.383 -0.1830 -0.8829  0.0395
  876SOL    HW1 3502   3.119   2.287   1.294 -0.0741  1.6846  1.2448
  876SOL    HW2 3503   3.144   2.306   1.447  0.0995  1.2585 -1.5793
  876SOL     MW 3504   3.101   2.263   1.380 -0.1314 -0.2616 -0.0150
  877SOL     OW 3505   0.002   2.821   0.287 -0.0403  1.2445  0.2076
  877SOL    HW1 3506   0.084   2.872   0.276  0.4525 -0.4090 -0.4917
  877SOL    HW2 3507  -0.002   2.759   0.214 -1.4676  0.3367  3.3745
  877SOL     MW 3508   0.012   2.819   0.276 -0.1636  0.9066  0.5332
  878SOL     OW 3509   2.411   1.799   1.261  0.0092  0.1711 -0.1881
  878SOL    HW1 3510   2.347   1.727   1.246  2.3416  0.7137 -0.4062
  878SOL    HW2 3511   2.505   1.772   1.252  0.3401 -2.8494 -0.4729
  878SOL     MW 3512   2.415   1.786   1.258  0.3606 -0.1559 -0.2544
  879SOL     OW 3513   2.734   2.442   0.959 -0.0836  0.2719  0.3425
  879SOL    HW1 3514   2.782   2.521   0.976 -0.4682  0.7018 -4.3448
  879SOL    HW2 3515   2.778   2.409   0.879 -2.9536  0.9325 -3.1956
  879SOL     MW 3516   2.746   2.448   0.951 -0.5130  0.4158 -0.7428
  880SOL     OW 3517   2.610   2.158   0.731 -0.2294  0.0291 -0.0911
  880SOL    HW1 3518   2.597   2.127   0.817  0.6607  0.1542  1.0980
  880SOL    HW2 3519   2.551   2.096   0.680  3.4622 -0.6704  1.9571
  880SOL     MW 3520   2.600   2.145   0.736  0.3751 -0.0467  0.3360
  881SOL     OW 3521   2.978   2.704   0.734  0.1399  0.2879 -0.5381
  881SOL    HW1 3522   2.907   2.684   0.680  2.4844 -0.4253 -0.0830
  881SOL    HW2 3523   3.055   2.693   0.684  0.3942  0.8845 -0.8813
  881SOL     MW 3524   2.979   2.700   0.720  0.4828  0.2725 -0.5234
  882SOL     OW 3525   2.240   2.893   1.977  0.2084  0.1930 -0.2880
  882SOL    HW1 3526   2.248   2.916   1.883  0.6296  0.7237  2.6438
  882SOL    HW2 3527   2.186   2.816   1.979 -1.5283 -2.2193 -1.1122
  882SOL     MW 3528   2.234   2.886   1.965  0.0348 -0.0552 -0.0099
  883SOL     OW 3529   2.332   2.204   1.392  0.0133 -0.1095 -0.2601
  883SOL    HW1 3530   2.411   2.149   1.371  0.1690  0.3786 -2.6762
  883SOL    HW2 3531   2.256   2.172   1.344 -2.8194 -1.8110 -1.2507
  883SOL     MW 3532   2.332   2.193   1.383 -0.3399 -0.2696 -0.7095
  884SOL     OW 3533   1.953   1.815   1.075  0.1747 -0.1152  0.4047
  884SOL    HW1 3534   1.909   1.898   1.043 -2.4710  2.1083 -1.0213
  884SOL    HW2 3535   2.051   1.840   1.083  1.7454  1.2682 -0.9771
  884SOL     MW 3536   1.960   1.830   1.072  0.0329  0.3607  0.0342
  885SOL     OW 3537   2.864   2.418   1.821 -0.0442  0.5406 -0.4443
  885SOL    HW1 3538   2.931   2.353   1.810 -2.3430 -0.3862  0.3252
  885SOL    HW2 3539   2.795   2.400   1.760  0.2372  0.9422  2.2810
  885SOL     MW 3540   2.864   2.407   1.812 -0.3104  0.4713  0.0168
  886SOL     OW 3541   2.811   2.381   1.405  0.0524  0.6870 -0.3364
  886SOL    HW1 3542   2.894   2.345   1.410  0.5009  0.7192  2.3148
  886SOL    HW2 3543   2.822   2.477   1.408 -0.9624  1.2265  0.1889
  886SOL     MW 3544   2.824   2.389   1.406 -0.0223  0.7624  0.0827
  887SOL     OW 3545   2.280   2.633   1.576  0.1649  0.2470 -0.1672
  887SOL    HW1 3546   2.327   2.651   1.492  0.9319  2.5160 -1.1555
  887SOL    HW2 3547   2.194   2.606   1.545  1.4651  0.2671 -2.1734
  887SOL     MW 3548   2.275   2.632   1.561  0.4376  0.5490 -0.5623
  888SOL     OW 3549   1.846   2.146   1.416  0.1789  0.3231 -0.3781
  888SOL    HW1 3550   1.907   2.140   1.340  0.4743  1.2686 -0.6692
  888SOL    HW2 3551   1.895   2.151   1.500 -2.1268  1.9710  1.8208
  888SOL     MW 3552   1.860   2.146   1.417 -0.0863  0.6653 -0.1264
  889SOL     OW 3553   2.347   2.032   2.085  0.1538 -0.5815  0.0697
  889SOL    HW1 3554   2.425   1.994   2.120  0.6535  2.7026  0.4183
  889SOL    HW2 3555   2.372   2.088   2.010 -0.0065  1.0212  1.7937
  889SOL     MW 3556   2.361   2.035   2.080  0.1986  0.0633  0.3432
  890SOL     OW 3557   0.074   2.391   0.162  0.4872 -0.1778 -0.1135
  890SOL    HW1 3558   0.018   2.470   0.166  0.1397  3.1679 -0.3396
  890SOL    HW2 3559   0.046   2.334   0.237  1.6705  0.2892 -0.2405
  890SOL     MW 3560   0.063   2.394   0.172  0.5975  0.3253 -0.1601
  891SOL     OW 3561   3.089   2.013   1.289  0.6007 -0.3252 -0.2817
  891SOL    HW1 3562   3.155   1.950   1.299 -1.8266 -0.3340 -0.2135
  891SOL    HW2 3563   3.107   2.099   1.324  0.1519  1.3944  0.1287
  891SOL     MW 3564   3.100   2.016   1.295  0.2213 -0.0995 -0.2186
  892SOL     OW 3565   2.450   2.338   2.764  0.3588  0.0635  0.0192
  892SOL    HW1 3566   2.426   2.251   2.794 -0.6795  2.9097 -1.3371
  892SOL    HW2 3567   2.546   2.336   2.789 -2.3632 -0.8147 -1.0943
  892SOL     MW 3568   2.459   2.327   2.771 -0.1373  0.3232 -0.3066
  893SOL     OW 3569   1.597   2.437   1.208 -0.3207  0.4998  0.0056
  893SOL    HW1 3570   1.532   2.484   1.256 -0.4195  0.9222 -0.2666
  893SOL    HW2 3571   1.678   2.486   1.213 -0.0664  0.9443 -0.0091
  893SOL     MW 3572   1.599   2.450   1.215 -0.3002  0.6142 -0.0323
  894SOL     OW 3573   2.729   1.872   0.443 -0.3758  0.0724 -0.3153
  894SOL    HW1 3574   2.633   1.896   0.433  0.3138 -0.6061 -1.3774
  894SOL    HW2 3575   2.739   1.846   0.349 -0.5021 -2.5380  0.7599
  894SOL     MW 3576   2.717   1.872   0.429 -0.3014 -0.3615 -0.3135
  895SOL     OW 3577   2.122   2.109   1.223 -0.3999  0.8512  0.7165
  895SOL    HW1 3578   2.104   2.175   1.151 -1.3231  0.3113 -0.8521
  895SOL    HW2 3579   2.159   2.030   1.180  1.0958 -1.2768 -0.0062
  895SOL     MW 3580   2.124   2.107   1.208 -0.3243  0.4992  0.4142
  896SOL     OW 3581   2.316   2.812   1.108  0.0127  0.0484 -0.1193
  896SOL    HW1 3582   2.345   2.769   1.185 -0.1690 -0.1478 -2.4035
  896SOL    HW2 3583   2.252   2.882   1.126  4.1272 -1.4813 -0.8876
  896SOL     MW 3584   2.312   2.815   1.120  0.5316 -0.1793 -0.5220
  897SOL     OW 3585   3.049   3.043   3.061 -0.0764  0.1103 -0.4320
  897SOL    HW1 3586   3.112   2.979   3.027  1.4147 -0.7660 -0.3745
  897SOL    HW2 3587   2.962   3.021   3.093 -0.0712  0.5935 -1.5707
  897SOL     MW 3588   3.046   3.032   3.061  0.1210  0.0584 -0.5746
  898SOL     OW 3589   2.104   0.194   1.474 -0.3053 -0.3451 -0.3218
  898SOL    HW1 3590   2.084   0.108   1.511 -0.1316  1.4201  0.7967
  898SOL    HW2 3591   2.111   0.181   1.380 -3.2828 -0.5607  1.4489
  898SOL     MW 3592   2.103   0.181   1.467 -0.6752 -0.1407  0.0594
  899SOL     OW 3593   2.921   2.967   0.618  0.6046  0.0136 -0.2820
  899SOL    HW1 3594   2.927   2.891   0.682  0.7821  0.6923  0.3382
  899SOL    HW2 3595   2.841   3.009   0.648  0.6856 -1.3900  0.4502
  899SOL     MW 3596   2.911   2.962   0.630  0.6387 -0.0821 -0.1035
  900SOL     OW 3597   0.071   2.402   1.132  0.2592 -0.0312  0.1426
  900SOL    HW1 3598   0.046   2.492   1.099  0.1317  2.1713 -1.4410
  900SOL    HW2 3599   0.069   2.350   1.052 -0.5661  0.0286  0.1592
  900SOL     MW 3600   0.068   2.407   1.117  0.1335  0.2673 -0.0642
  901SOL     OW 3601   1.730   2.842   1.763 -0.1169  0.0374  0.5143
  901SOL    HW1 3602   1.811   2.781   1.757  2.1700 -1.9521 -0.6108
  901SOL    HW2 3603   1.673   2.816   1.688 -1.0884  0.3476  1.9913
  901SOL     MW 3604   1.733   2.830   1.752  0.0567 -0.1842  0.5607
  902SOL     OW 3605   2.664   2.086   1.824  0.1024 -0.5397 -0.0272
  902SOL    HW1 3606   2.683   2.029   1.752 -3.2583  1.1704  1.0260
  902SOL    HW2 3607   2.746   2.081   1.870  0.4352 -0.3906 -2.7201
  902SOL     MW 3608   2.677   2.078   1.821 -0.2971 -0.2944 -0.2436
  903SOL     OW 3609   1.625   2.645   0.639  0.1495 -0.2661  0.3345
  903SOL    HW1 3610   1.718   2.630   0.654 -2.4898 -0.3885  1.1272
  903SOL    HW2 3611   1.602   2.707   0.711  2.3860  1.4149  0.9420
  903SOL     MW 3612   1.634   2.651   0.650  0.0963 -0.0605  0.5192
  904SOL     OW 3613   2.528   2.606   1.673 -0.0658  0.3782 -0.5279
  904SOL    HW1 3614   2.436   2.614   1.656  1.0384 -1.1284  0.0090
  904SOL    HW2 3615   2.546   2.525   1.625  1.4470 -1.1718 -2.6380
  904SOL     MW 3616   2.519   2.596   1.665  0.2795 -0.0251 -0.7355
  905SOL     OW 3617   2.260   2.514   2.133  0.0815 -0.1355 -0.3227
  905SOL    HW1 3618   2.329   2.473   2.078 -0.8084  0.5225  3.0771
  905SOL    HW2 3619   2.221   2.449   2.190 -0.9734 -0.1551  0.2794
  905SOL     MW 3620   2.264   2.500   2.133 -0.1751 -0.0513  0.2053
  906SOL     OW 3621   2.510   2.481   0.840  0.5030 -0.0660  0.5421
  906SOL    HW1 3622   2.589   2.459   0.900  1.9812 -0.0545  0.3463
  906SOL    HW2 3623   2.494   2.569   0.860  1.0972 -2.8143  0.0428
  906SOL     MW 3624   2.519   2.489   0.851  0.7765 -0.4271  0.4504
  907SOL     OW 3625   2.654   2.825   1.351  0.6091  0.8813 -0.0276
  907SOL    HW1 3626   2.701   2.892   1.401 -0.5591  2.7029 -1.3652
  907SOL    HW2 3627   2.683   2.835   1.260 -1.6008 -1.9309  1.1880
  907SOL     MW 3628   2.664   2.835   1.346  0.1634  0.7506 -0.0437
  908SOL     OW 3629   2.727   2.343   0.015 -0.3315 -0.2178 -0.0047
  908SOL    HW1 3630   2.656   2.285   0.034  1.7561  0.7706  3.3255
  908SOL    HW2 3631   2.703   2.430   0.057 -2.4334  0.4365  1.7902
  908SOL     MW 3632   2.715   2.347   0.023 -0.3334 -0.0010  0.6715
  909SOL     OW 3633   1.717   0.064   1.196 -0.0320 -0.3191  0.0518
  909SOL    HW1 3634   1.691   0.147   1.156  2.0122  0.2202 -2.4475
  909SOL    HW2 3635   1.699   0.074   1.296  0.4738 -0.4888  2.2447
  909SOL     MW 3636   1.711   0.076   1.204  0.3044 -0.2703  0.0113
  910SOL     OW 3637   2.230   1.756   0.409 -0.2207 -0.0381 -0.0161
  910SOL    HW1 3638   2.165   1.682   0.417  0.0880 -0.6513 -0.2783
  910SOL    HW2 3639   2.189   1.820   0.351  1.2505 -1.7176 -2.7225
  910SOL     MW 3640   2.216   1.755   0.403  0.0141 -0.3406 -0.4078
  911SOL     OW 3641   2.264   2.101   1.635  0.2726 -0.2921 -0.4330
  911SOL    HW1 3642   2.313   2.143   1.711  0.1866  0.6927  1.8700
  911SOL    HW2 3643   2.303   2.145   1.559  1.1851  0.8298  0.9690
  911SOL     MW 3644   2.275   2.112   1.635  0.3816 -0.0142  0.0559
  912SOL     OW 3645   2.927   1.910   1.490  0.4020  0.4853  0.0434
  912SOL    HW1 3646   2.979   1.948   1.426 -1.1250  0.3273 -1.3540
  912SOL    HW2 3647   2.838   1.945   1.499 -1.3141  1.7940 -1.2504
  912SOL     MW 3648   2.922   1.920   1.483 -0.0259  0.6371 -0.3117
  913SOL     OW 3649   2.624   3.054   0.346 -0.2529 -0.1325 -0.0357
  913SOL    HW1 3650   2.718   3.017   0.353  1.6280  0.2183 -0.4945
  913SOL    HW2 3651   2.562   2.975   0.337 -0.0271  1.5763  0.0999
  913SOL     MW 3652   2.628   3.038   0.345  0.0250  0.1392 -0.0783
  914SOL     OW 3653   2.726   1.760   3.033 -0.4030  0.2024 -0.0660
  914SOL    HW1 3654   2.746   1.847   3.002  0.1855  1.0612  2.2751
  914SOL    HW2 3655   2.631   1.757   3.044  2.5222 -1.4634 -3.0650
  914SOL     MW 3656   2.716   1.771   3.030  0.0606  0.0959 -0.1528
  915SOL     OW 3657   1.693   0.230   0.253  0.0623 -0.0171 -0.1949
  915SOL    HW1 3658   1.771   0.170   0.277  1.6440 -0.8924  1.5745
  915SOL    HW2 3659   1.612   0.178   0.243  0.2972  0.7464  1.2386
  915SOL     MW 3660   1.692   0.216   0.255  0.3020 -0.0318  0.2277
  916SOL     OW 3661   1.835   2.133   1.949 -0.2369 -0.0085  0.4235
  916SOL    HW1 3662   1.889   2.210   1.938  1.9569 -1.0704  0.6512
  916SOL    HW2 3663   1.853   2.086   1.868  0.2934 -0.5689  0.8787
  916SOL     MW 3664   1.844   2.137   1.937  0.1225 -0.2226  0.5136
  917SOL     OW 3665   2.498   2.205   2.519  0.0715 -0.0714  0.3585
  917SOL    HW1 3666   2.483   2.262   2.596 -0.8889 -0.7259 -1.1627
  917SOL    HW2 3667   2.581   2.241   2.486 -1.2345  0.8111  0.7601
  917SOL     MW 3668   2.507   2.217   2.525 -0.2276 -0.0413  0.2108
  918SOL     OW 3669   1.974   1.596   2.695 -0.7353 -0.0134 -0.3120
  918SOL    HW1 3670   1.907   1.636   2.639  2.3302 -3.1104 -2.4904
  918SOL    HW2 3671   2.058   1.643   2.668 -3.0838  0.2166 -0.8966
  918SOL     MW 3672   1.977   1.607   2.684 -0.6407 -0.3917 -0.6766
  919SOL     OW 3673   3.073   2.354   2.275 -0.2566 -0.3836  0.3462
  919SOL    HW1 3674   3.003   2.300   2.240 -2.2726 -0.0154  2.1457
  919SOL    HW2 3675   3.133   2.378   2.191  2.8048  0.5909 -0.3575
  919SOL     MW 3676   3.072   2.350   2.259 -0.1186 -0.2065  0.4908
  920SOL     OW 3677   2.699   2.860   0.002  0.3782 -0.2703 -0.0144
  920SOL    HW1 3678   2.618   2.898   0.043 -1.8613  1.5057 -2.6208
  920SOL    HW2 3679   2.670   2.790  -0.063  1.0271 -0.5693  0.1213
  920SOL     MW 3680   2.684   2.856  -0.001  0.1684 -0.0754 -0.3404
  921SOL     OW 3681   2.421   2.614   2.613  0.0563  0.4238 -0.4869
  921SOL    HW1 3682   2.501   2.613   2.563 -1.6348  1.7385  2.3676
  921SOL    HW2 3683   2.426   2.542   2.682 -0.3178  0.4534  2.6828
  921SOL     MW 3684   2.432   2.604   2.616 -0.2162  0.6012  0.3079
  922SOL     OW 3685   2.036   2.812   0.277  0.0953 -0.1069 -0.0621
  922SOL    HW1 3686   2.024   2.833   0.181  3.5960  0.5656 -1.3051
  922SOL    HW2 3687   2.051   2.711   0.277  0.2411 -0.5212  0.7998
  922SOL     MW 3688   2.036   2.801   0.264  0.5764 -0.0728 -0.1124
  923SOL     OW 3689   2.183   2.867   1.694  0.1612  0.5277 -0.3600
  923SOL    HW1 3690   2.240   2.815   1.639  0.4829  0.2095 -0.4482
  923SOL    HW2 3691   2.138   2.935   1.638  1.5690  2.2867 -0.1035
  923SOL     MW 3692   2.184   2.869   1.679  0.3894  0.7178 -0.3378
  924SOL     OW 3693   1.137   2.721   2.533  0.1781  0.4186  0.4788
  924SOL    HW1 3694   1.231   2.755   2.562  0.7341 -0.9784  3.1696
  924SOL    HW2 3695   1.126   2.658   2.606  0.9745  0.8363  3.0423
  924SOL     MW 3696   1.148   2.718   2.547  0.3565  0.2894  1.1720
  925SOL     OW 3697   3.060   0.185   2.625 -0.3202  0.0031  0.4697
  925SOL    HW1 3698   3.003   0.203   2.551 -1.9535  3.5818  1.5086
  925SOL    HW2 3699   3.023   0.244   2.691  1.9877 -0.8029 -1.4479
  925SOL     MW 3700   3.048   0.195   2.624 -0.2312  0.3689  0.3538
  926SOL     OW 3701   2.704   2.433   2.052 -0.1401  0.0887  0.2281
  926SOL    HW1 3702   2.752   2.482   2.118  1.3736  1.6494  0.1898
  926SOL    HW2 3703   2.763   2.455   1.972  1.6855  2.9750  0.2028
  926SOL     MW 3704   2.718   2.442   2.050  0.3005  0.6755  0.2197
  927SOL     OW 3705   2.320   0.126   0.328  0.1150  0.1680  0.4236
  927SOL    HW1 3706   2.415   0.144   0.343 -1.3385  0.1626 -1.3991
  927SOL    HW2 3707   2.310   0.091   0.242 -0.7502  1.2921  1.8086
  927SOL     MW 3708   2.331   0.123   0.319 -0.1910  0.3156  0.3658
  928SOL     OW 3709   2.181   2.374   1.758  0.1659 -0.1729 -0.0366
  928SOL    HW1 3710   2.176   2.432   1.678 -0.6887  0.2626 -2.9587
  928SOL    HW2 3711   2.259   2.410   1.803 -1.3439  2.8791  2.0471
  928SOL     MW 3712   2.191   2.387   1.753 -0.1460  0.2872 -0.1472
  929SOL     OW 3713   2.733   2.302   2.454 -0.5126 -0.4135 -0.1784
  929SOL    HW1 3714   2.795   2.281   2.388  1.9006 -0.7682  0.9573
  929SOL    HW2 3715   2.780   2.275   2.535 -0.6533 -1.6765 -0.4239
  929SOL     MW 3716   2.748   2.296   2.456 -0.2127 -0.6270 -0.0609
  930SOL     OW 3717   2.019   2.849   2.743  0.0225  0.0600 -0.1582
  930SOL    HW1 3718   2.054   2.766   2.784  1.4131 -2.0135  1.3925
  930SOL    HW2 3719   2.091   2.913   2.731 -1.1630 -0.3981 -1.2195
  930SOL     MW 3720   2.033   2.846   2.746  0.0496 -0.2740 -0.0936
  931SOL     OW 3721   3.026   2.729   2.387 -0.0213  0.2501  0.4688
  931SOL    HW1 3722   3.072   2.768   2.465  0.5890 -1.3640  1.1410
  931SOL    HW2 3723   3.080   2.658   2.372  0.1992 -1.5293  2.3736
  931SOL     MW 3724   3.039   2.724   2.395  0.0884 -0.1976  0.8088
  932SOL     OW 3725   2.928   1.924   2.489  0.1251 -0.3645 -0.5396
  932SOL    HW1 3726   3.016   1.957   2.481 -0.2766 -0.4137  1.2537
  932SOL    HW2 3727   2.880   1.941   2.407  1.3169  1.3399  0.1767
  932SOL     MW 3728   2.933   1.930   2.477  0.2293 -0.1461 -0.2085
  933SOL     OW 3729   2.063   2.809   2.214  0.0225  0.4674 -0.1941
  933SOL    HW1 3730   2.151   2.840   2.214  0.4297  1.1642 -1.2350
  933SOL    HW2 3731   2.007   2.884   2.218 -4.9733 -0.7922 -2.2021
  933SOL     MW 3732   2.067   2.823   2.214 -0.5829  0.3932 -0.5964
  934SOL     OW 3733   2.005   2.740   2.472  0.0611 -0.3432 -0.2400
  934SOL    HW1 3734   2.006   2.806   2.546 -0.3121 -0.0567  2.4519
  934SOL    HW2 3735   2.016   2.777   2.386 -0.2109 -3.9410 -0.7730
  934SOL     MW 3736   2.007   2.754   2.471 -0.0240 -0.7801  0.0448
  935SOL     OW 3737   2.696   1.564   1.866 -0.2053  0.2928 -0.5000
  935SOL    HW1 3738   2.774   1.587   1.812  1.6136  0.5327  4.5062
  935SOL    HW2 3739   2.627   1.542   1.806 -1.5063  0.6675  1.4605
  935SOL     MW 3740   2.697   1.564   1.851 -0.1370  0.3739  0.4192
  936SOL     OW 3741   2.964   2.230   3.095  0.0953 -0.2392  0.3449
  936SOL    HW1 3742   3.033   2.283   3.131  0.4423  0.5720  0.6095
  936SOL    HW2 3743   2.886   2.287   3.117  1.5096  0.2783  0.4997
  936SOL     MW 3744   2.963   2.245   3.102  0.3277 -0.0639  0.4002
  937SOL     OW 3745   1.983   2.126   2.622 -0.0376  0.3223  0.8824
  937SOL    HW1 3746   2.036   2.061   2.673  0.2253 -0.7825  0.7405
  937SOL    HW2 3747   1.982   2.095   2.534 -2.9973  2.0154 -2.2212
  937SOL     MW 3748   1.990   2.113   2.617 -0.3934  0.3999  0.4542
  938SOL     OW 3749   2.289   1.811   1.942 -0.1064  0.2102 -0.1417
  938SOL    HW1 3750   2.268   1.832   1.849 -0.4622  0.8487  1.4702
  938SOL    HW2 3751   2.301   1.898   1.980 -0.0395  1.0210  1.4145
  938SOL     MW 3752   2.288   1.825   1.935 -0.1445  0.4014  0.2763
  939SOL     OW 3753   2.769   1.975   2.279  0.4042  0.0894 -0.2969
  939SOL    HW1 3754   2.782   1.903   2.218 -0.5767 -0.6885  0.9941
  939SOL    HW2 3755   2.671   1.949   2.297 -2.9897 -1.6779  1.5906
  939SOL     MW 3756   2.758   1.962   2.273 -0.1730 -0.2464  0.1225
  940SOL     OW 3757   2.285   0.152   2.673  0.1992 -0.0843  0.0801
  940SOL    HW1 3758   2.275   0.060   2.655  1.9302  1.1666 -0.8165
  940SOL    HW2 3759   2.320   0.141   2.756 -1.0661  0.1010 -1.7699
  940SOL     MW 3760   2.289   0.139   2.681  0.2606  0.1052 -0.2823
  941SOL     OW 3761   0.098   2.449   2.056  0.2456 -0.2228  0.2046
  941SOL    HW1 3762   0.176   2.403   2.076 -0.3655  1.2542  0.7366
  941SOL    HW2 3763   0.093   2.436   1.958  0.2305 -2.1964 -0.1058
  941SOL     MW 3764   0.108   2.441   2.046  0.1630 -0.2883  0.2339
  942SOL     OW 3765   2.850   2.215   2.196  0.2199  0.0876  0.9994
  942SOL    HW1 3766   2.783   2.273   2.162  2.0089 -1.5208 -2.1192
  942SOL    HW2 3767   2.805   2.132   2.223  2.5175  1.8029  1.1488
  942SOL     MW 3768   2.835   2.212   2.196  0.7591  0.1017  0.6076
  943SOL     OW 3769   0.266   2.105   2.268 -0.1671  0.4087  0.4037
  943SOL    HW1 3770   0.234   2.149   2.352  1.2559  3.2818  2.5641
  943SOL    HW2 3771   0.354   2.065   2.291 -1.9451 -0.0309  0.0514
  943SOL     MW 3772   0.273   2.105   2.282 -0.2139  0.7298  0.6423
  944SOL     OW 3773   2.085   2.664   1.986 -0.4121 -0.6489 -0.3742
  944SOL    HW1 3774   2.134   2.592   2.016  1.4973  0.7599 -1.6791
  944SOL    HW2 3775   2.051   2.707   2.065 -1.9375 -1.1810 -2.9097
  944SOL     MW 3776   2.087   2.660   2.000 -0.3615 -0.5332 -0.8809
  945SOL     OW 3777   2.722   2.679   2.895  0.5063 -0.4648  0.4201
  945SOL    HW1 3778   2.687   2.587   2.872  1.2013 -2.1700  1.7505
  945SOL    HW2 3779   2.725   2.733   2.816 -1.3576 -0.3668  0.0093
  945SOL     MW 3780   2.718   2.674   2.881  0.3521 -0.6768  0.5414
  946SOL     OW 3781   2.479   2.690   2.235  0.0313  0.3788  0.2389
  946SOL    HW1 3782   2.508   2.723   2.151 -0.4502 -1.9057  1.7472
  946SOL    HW2 3783   2.402   2.623   2.209 -1.4446 -1.2285 -1.3266
  946SOL     MW 3784   2.473   2.685   2.220 -0.2269 -0.1347  0.2314
  947SOL     OW 3785   1.923   0.065   0.299  0.0856 -0.6677  0.0092
  947SOL    HW1 3786   1.925  -0.027   0.270  2.0257  2.2782  0.7219
  947SOL    HW2 3787   1.970   0.060   0.386 -1.0018 -0.3041  3.3178
  947SOL     MW 3788   1.929   0.052   0.307  0.1981 -0.2310  0.5398
  948SOL     OW 3789   1.782   3.028   2.670 -0.1598  0.1360 -0.3723
  948SOL    HW1 3790   1.853   2.959   2.675 -0.0888  0.9617 -0.9112
  948SOL    HW2 3791   1.772   3.063   2.571 -0.0808 -2.0101 -0.6451
  948SOL     MW 3792   1.790   3.023   2.658 -0.1400 -0.0382 -0.4794
  949SOL     OW 3793   2.509   1.904   2.295  0.0629  0.0987  0.5395
  949SOL    HW1 3794   2.494   1.810   2.322 -1.7297 -0.1541 -1.6327
  949SOL    HW2 3795   2.454   1.962   2.350 -2.5661 -0.9446  1.9560
  949SOL     MW 3796   2.500   1.899   2.306 -0.5205 -0.0723  0.4398
  950SOL     OW 3797   2.321   2.525   2.930  0.2723  0.9667 -0.3213
  950SOL    HW1 3798   2.379   2.466   2.882  2.2380  2.9155 -0.6121
  950SOL    HW2 3799   2.246   2.544   2.872 -2.0940 -0.0163 -0.6551
  950SOL     MW 3800   2.318   2.520   2.916  0.2195  1.0941 -0.4037
  951SOL     OW 3801   3.050   2.107   2.842  0.3228  0.2129  0.4489
  951SOL    HW1 3802   3.029   2.140   2.928  1.5521  0.8213 -1.7892
  951SOL    HW2 3803   3.099   2.025   2.859  2.3901  0.6612  0.9361
  951SOL     MW 3804   3.054   2.100   2.855  0.7578  0.3523  0.2179
  952SOL     OW 3805   3.033   1.693   2.165 -0.3470  0.3961 -0.4690
  952SOL    HW1 3806   2.952   1.729   2.131  1.9231  2.9906  2.2371
  952SOL    HW2 3807   3.082   1.764   2.211  0.1193 -1.0184 -1.1029
  952SOL     MW 3808   3.029   1.707   2.167  0.0141  0.5518 -0.1956
  953SOL     OW 3809   1.922   1.776   2.908  0.0893 -0.3147 -0.5094
  953SOL    HW1 3810   1.863   1.734   2.974  1.1140 -0.8201 -0.8576
  953SOL    HW2 3811   1.931   1.712   2.840 -2.4945  0.6037  1.0159
  953SOL     MW 3812   1.915   1.762   2.908 -0.1164 -0.2602 -0.3541
  954SOL     OW 3813   2.390   2.075   2.844 -0.4377  0.4115  0.0495
  954SOL    HW1 3814   2.309   2.041   2.813  3.1953 -2.0643  1.9289
  954SOL    HW2 3815   2.456   2.044   2.785  3.5282 -1.5131  2.1170
  954SOL     MW 3816   2.388   2.067   2.832  0.5649 -0.1691  0.5703
  955SOL     OW 3817   1.536   1.612   2.569 -0.3639  0.2237  0.2578
  955SOL    HW1 3818   1.513   1.627   2.474  1.8736  2.7095 -1.7825
  955SOL    HW2 3819   1.618   1.669   2.573 -0.6348  1.8961 -0.6147
  955SOL     MW 3820   1.544   1.622   2.557 -0.1045  0.7723 -0.1265
  956SOL     OW 3821   2.712   2.394   2.847  0.3657 -0.0881 -0.1246
  956SOL    HW1 3822   2.729   2.371   2.944 -0.0364  1.3543 -0.8953
  956SOL    HW2 3823   2.783   2.368   2.777  2.7692 -1.0146 -1.3459
  956SOL     MW 3824   2.724   2.387   2.850  0.6297 -0.0200 -0.3874
  957SOL     OW 3825   2.257   2.860   0.437 -0.8657  0.3879  0.5629
  957SOL    HW1 3826   2.189   2.823   0.382 -0.4354  2.2735 -1.9252
  957SOL    HW2 3827   2.255   2.793   0.511  1.3451 -1.8989  2.1738
  957SOL     MW 3828   2.248   2.846   0.439 -0.5173  0.3350  0.4472
  958SOL     OW 3829   2.078   2.583   2.835  0.2936  0.3069  0.0157
  958SOL    HW1 3830   2.046   2.505   2.789 -2.9957 -2.3147 -2.8129
  958SOL    HW2 3831   2.036   2.574   2.925  0.6525 -2.7775  1.3576
  958SOL     MW 3832   2.068   2.572   2.841 -0.0930 -0.4459 -0.1804
  959SOL     OW 3833   2.484   2.692   0.383 -0.3024  0.6663 -0.0208
  959SOL    HW1 3834   2.509   2.687   0.294 -2.9248  1.0754  2.1454
  959SOL    HW2 3835   2.406   2.749   0.391 -0.5747  2.3323  2.5666
  959SOL     MW 3836   2.477   2.699   0.372 -0.6843  0.9401  0.6064
  960SOL     OW 3837   1.889   2.326   2.318 -0.2778  0.3379  0.2115
  960SOL    HW1 3838   1.909   2.235   2.319 -1.3399  1.0111 -1.4594
  960SOL    HW2 3839   1.835   2.356   2.393 -1.2269  0.7318 -0.8474
  960SOL     MW 3840   1.884   2.318   2.328 -0.5432  0.4787 -0.1487
  961SOL     OW 3841   2.176   2.307   2.314 -0.0851  0.1880  0.4370
  961SOL    HW1 3842   2.083   2.310   2.308  1.0894  1.2595 -2.4357
  961SOL    HW2 3843   2.190   2.369   2.388 -0.7602  1.3566 -1.9725
  961SOL     MW 3844   2.166   2.315   2.323 -0.0192  0.4836 -0.2599
  962SOL     OW 3845   2.138   1.982   2.780  0.5595 -0.0835 -0.1938
  962SOL    HW1 3846   2.120   1.966   2.877  0.0852 -1.1470  1.2507
  962SOL    HW2 3847   2.171   1.895   2.740  1.4624 -1.9780  0.1183
  962SOL     MW 3848   2.140   1.969   2.788  0.6160 -0.4738  0.0380
  963SOL     OW 3849   1.775   2.491   2.099 -0.7036 -0.1229  0.3037
  963SOL    HW1 3850   1.796   2.424   2.172 -3.2550  0.1630  2.1203
  963SOL    HW2 3851   1.817   2.454   2.022  2.1487 -1.0467  2.9457
  963SOL     MW 3852   1.784   2.477   2.099 -0.6639 -0.2070  0.8920
  964SOL     OW 3853   1.792   1.950   2.735  0.3828 -0.7538  0.2355
  964SOL    HW1 3854   1.853   2.013   2.693  1.4013 -1.6694  1.5210
  964SOL    HW2 3855   1.851   1.902   2.792  4.2466 -0.2680 -1.9107
  964SOL     MW 3856   1.808   1.952   2.737  1.0270 -0.8105  0.1219
  965SOL     OW 3857   2.263   2.688   0.644  0.4310 -0.0098  0.1893
  965SOL    HW1 3858   2.263   2.598   0.608  0.3122  0.0100 -2.7585
  965SOL    HW2 3859   2.329   2.707   0.712  1.4758  1.2604 -1.5226
  965SOL     MW 3860   2.272   2.679   0.648  0.5532  0.1604 -0.4255
  966SOL     OW 3861   2.649   2.608   2.466 -0.0823 -0.2257 -0.7178
  966SOL    HW1 3862   2.609   2.644   2.378  3.4052 -0.7244  0.1785
  966SOL    HW2 3863   2.686   2.524   2.442  2.1225  0.3279 -0.3039
  966SOL     MW 3864   2.649   2.602   2.451  0.6687 -0.2185 -0.5449
  967SOL     OW 3865   2.783   3.101   2.954  0.2922  0.0575  0.2370
  967SOL    HW1 3866   2.753   3.023   3.005 -3.2644  1.5232 -1.2423
  967SOL    HW2 3867   2.716   3.104   2.887  4.5641  0.8217  1.4380
  967SOL     MW 3868   2.770   3.091   2.952  0.3866  0.3517  0.2003
  968SOL     OW 3869   2.971   2.628   2.951 -0.0028  0.1612  0.1495
  968SOL    HW1 3870   2.873   2.634   2.939  0.8766  0.8510 -0.6223
  968SOL    HW2 3871   3.005   2.566   2.883  1.4237 -1.0375 -1.8661
  968SOL     MW 3872   2.963   2.620   2.940  0.3015  0.0941 -0.2183
  969SOL     OW 3873   1.605   2.164   1.658  0.2731  0.5941 -0.1547
  969SOL    HW1 3874   1.670   2.090   1.672  0.5527  1.4341 -0.4548
  969SOL    HW2 3875   1.579   2.182   1.751 -1.9102  0.0371  1.0111
  969SOL     MW 3876   1.610   2.157   1.672  0.0220  0.6315 -0.0405
  970SOL     OW 3877   1.729   1.783   1.937  0.3811  0.2482 -0.0672
  970SOL    HW1 3878   1.753   1.710   1.989  3.1475  3.1446 -3.7417
  970SOL    HW2 3879   1.636   1.774   1.927  4.0513 -0.3939 -0.9982
  970SOL     MW 3880   1.720   1.772   1.942  1.2303  0.5456 -0.6748
  971SOL     OW 3881   1.777   0.038   2.435  0.1933 -0.2672 -0.1537
  971SOL    HW1 3882   1.827  -0.001   2.362  0.0347 -1.5038  0.4660
  971SOL    HW2 3883   1.826   0.114   2.468  0.5271  0.0507  0.9994
  971SOL     MW 3884   1.790   0.042   2.430  0.2164 -0.3884  0.0802
  972SOL     OW 3885   0.281   2.868   2.448 -0.1531  0.1465  0.1321
  972SOL    HW1 3886   0.324   2.784   2.467  0.6885 -0.2585  3.1018
  972SOL    HW2 3887   0.336   2.937   2.492 -0.9668  1.1458  1.2380
  972SOL     MW 3888   0.294   2.866   2.456 -0.1494  0.2249  0.6698
  973SOL     OW 3889   2.610   0.032   2.070  0.5201 -0.1747 -0.1254
  973SOL    HW1 3890   2.577  -0.055   2.053 -0.9760  1.1907  1.5320
  973SOL    HW2 3891   2.598   0.069   1.980  0.2128 -1.1854  0.8071
  973SOL     MW 3892   2.604   0.025   2.056  0.2822 -0.1279  0.2163
  974SOL     OW 3893   2.047   0.270   2.735  0.4964 -0.4138  0.3124
  974SOL    HW1 3894   2.139   0.264   2.713  0.8156  0.9658  0.9700
  974SOL    HW2 3895   2.024   0.193   2.786 -1.5494  1.3177 -1.7989
  974SOL     MW 3896   2.056   0.259   2.739  0.2686 -0.0033  0.1206
  975SOL     OW 3897   2.188   2.517   2.505 -0.0039  0.0584 -0.3494
  975SOL    HW1 3898   2.265   2.550   2.546 -1.3050 -0.6125  0.3270
  975SOL    HW2 3899   2.131   2.591   2.484 -1.3308  0.2456 -1.4898
  975SOL     MW 3900   2.191   2.531   2.508 -0.3506 -0.0054 -0.4106
  976SOL     OW 3901   0.237   0.377   1.776 -0.0922  0.0351  0.2260
  976SOL    HW1 3902   0.302   0.312   1.817  1.6581 -2.5947  1.7763
  976SOL    HW2 3903   0.160   0.327   1.750 -0.7150 -1.6564  1.2133
  976SOL     MW 3904   0.236   0.362   1.778  0.0566 -0.5350  0.5608
  977SOL     OW 3905   1.754   2.679   2.561 -0.3278 -0.0953 -0.6165
  977SOL    HW1 3906   1.751   2.587   2.571  1.9289  1.4527  1.2913
  977SOL    HW2 3907   1.836   2.686   2.512  0.9998 -3.5900 -0.1788
  977SOL     MW 3908   1.765   2.668   2.556  0.1451 -0.3522 -0.3070
   3.10000   3.10000   3.10000
