977 TIP4P/2005f water molecules t=   1.62000 step= 1620
 3908
    1SOL     OW    1   0.398   0.805   0.109 -0.2014 -0.4305  0.0534
    1SOL    HW1    2   0.383   0.786   0.020 -1.2914 -0.2925 -1.4373
    1SOL    HW2    3   0.400   0.714   0.137  0.9465  0.3833  3.4824
    1SOL     MW    4   0.396   0.791   0.101 -0.1937 -0.3049  0.3092
    2SOL     OW    5   0.324   3.006   1.066 -0.1454 -0.1247  0.4240
    2SOL    HW1    6   0.364   3.096   1.064  0.6519 -0.7835 -1.0640
    2SOL    HW2    7   0.235   3.027   1.095 -0.2952 -2.7953  0.8102
    2SOL     MW    8   0.318   3.021   1.069 -0.0600 -0.5640  0.2786
    3SOL     OW    9   2.629   0.353   0.969  0.2431  0.6780  0.4833
    3SOL    HW1   10   2.671   0.427   0.938  2.0696 -2.3050 -0.5742
    3SOL    HW2   11   2.625   0.352   1.065 -1.0414 -0.5542 -0.3240
    3SOL     MW   12   2.634   0.363   0.978  0.3146  0.1219  0.2373
    4SOL     OW   13   3.000   1.688   0.528  0.0155 -0.4335  0.1002
    4SOL    HW1   14   2.928   1.747   0.509 -1.2104 -0.4294  1.5238
    4SOL    HW2   15   3.067   1.690   0.453 -0.5804 -1.3748 -1.5869
    4SOL     MW   16   2.999   1.696   0.516 -0.2249 -0.5571  0.0654
    5SOL     OW   17   1.627   1.411   0.644 -0.8442  0.2990 -0.0067
    5SOL    HW1   18   1.664   1.416   0.727  1.9966 -0.6001 -0.8153
    5SOL    HW2   19   1.541   1.447   0.643  0.0759 -0.3651 -0.2882
    5SOL     MW   20   1.621   1.416   0.655 -0.3480  0.0927 -0.1505
    6SOL     OW   21   0.799   1.432   0.589  0.0804 -0.3300  0.3053
    6SOL    HW1   22   0.701   1.437   0.597  0.5078 -0.4620 -0.5490
    6SOL    HW2   23   0.829   1.346   0.613  0.5105  0.9726  1.4711
    6SOL     MW   24   0.790   1.421   0.594  0.1935 -0.1756  0.3464
    7SOL     OW   25   1.921   1.055   0.027  0.0340  0.4822  0.0954
    7SOL    HW1   26   1.989   1.117   0.018  0.8414 -0.7565 -2.7182
    7SOL    HW2   27   1.935   1.013   0.118 -1.4096 -0.3068  0.5931
    7SOL     MW   28   1.932   1.058   0.038 -0.0499  0.2147 -0.2101
    8SOL     OW   29   0.788   1.473   1.108  0.2409 -0.1685 -0.6340
    8SOL    HW1   30   0.880   1.489   1.116  0.6222  0.9001 -0.7152
    8SOL    HW2   31   0.794   1.379   1.115 -0.7556 -0.4691  0.3437
    8SOL     MW   32   0.801   1.462   1.110  0.1597 -0.0672 -0.5157
    9SOL     OW   33   0.960   0.461   1.356 -0.2764 -0.4941  0.1731
    9SOL    HW1   34   0.895   0.409   1.296 -3.2745  1.1725  0.8401
    9SOL    HW2   35   1.011   0.407   1.416 -1.8089  0.5328 -1.2314
    9SOL     MW   36   0.958   0.447   1.356 -0.8742 -0.1387  0.0758
   10SOL     OW   37   0.287   0.872   0.474  0.4230 -0.0454 -0.1759
   10SOL    HW1   38   0.385   0.875   0.464  0.6912 -0.3663  0.9843
   10SOL    HW2   39   0.281   0.896   0.566 -2.0358 -0.7738  0.8351
   10SOL     MW   40   0.299   0.875   0.484  0.1339 -0.1839  0.1106
   11SOL     OW   41   0.764   1.124   1.488 -0.0747 -0.4780 -0.5999
   11SOL    HW1   42   0.829   1.147   1.556  2.2819 -3.1125 -2.0804
   11SOL    HW2   43   0.789   1.034   1.462  2.8126  0.0124  2.7520
   11SOL     MW   44   0.776   1.115   1.493  0.6172 -0.7609 -0.3530
   12SOL     OW   45   3.078   1.088   0.869  0.4731 -0.7189 -0.1371
   12SOL    HW1   46   3.133   1.147   0.920  1.6769  0.3309 -2.5101
   12SOL    HW2   47   3.054   1.145   0.792  0.3877 -2.9364  1.2188
   12SOL     MW   48   3.082   1.103   0.865  0.6207 -0.8730 -0.2713
   13SOL     OW   49   1.810   1.419   1.278  0.4161 -0.3863  0.2630
   13SOL    HW1   50   1.825   1.337   1.236  2.9707 -0.9047  0.2877
   13SOL    HW2   51   1.880   1.480   1.246 -2.1834 -0.7156 -1.9273
   13SOL     MW   52   1.821   1.417   1.268  0.4102 -0.4982 -0.0227
   14SOL     OW   53   0.525   0.354   1.779  0.3901 -0.4750 -1.1320
   14SOL    HW1   54   0.472   0.276   1.780  0.7287  0.7626  0.5466
   14SOL    HW2   55   0.564   0.356   1.694  3.4872  0.7782  2.1619
   14SOL     MW   56   0.523   0.344   1.768  0.8434 -0.1464 -0.4759
   15SOL     OW   57   2.009   0.418   1.012  0.5354  0.1063 -0.0129
   15SOL    HW1   58   1.983   0.502   1.048 -0.4008 -0.3646 -1.6023
   15SOL    HW2   59   2.062   0.421   0.926 -1.2436 -0.5886 -2.9362
   15SOL     MW   60   2.013   0.430   1.005  0.1771 -0.0476 -0.6083
   16SOL     OW   61   0.309   1.826   0.290  0.3385  0.2360  0.1934
   16SOL    HW1   62   0.401   1.792   0.287  1.6471 -1.4914  0.3382
   16SOL    HW2   63   0.306   1.910   0.334 -1.7008 -0.6109 -0.8607
   16SOL     MW   64   0.321   1.832   0.296  0.2421 -0.1037  0.0734
   17SOL     OW   65   1.111   0.879   1.435  0.0666 -0.6188 -0.1571
   17SOL    HW1   66   1.140   0.857   1.527 -0.1346 -0.0666  2.2498
   17SOL    HW2   67   1.019   0.866   1.423  1.7782 -0.9146 -0.7161
   17SOL     MW   68   1.102   0.874   1.445  0.2659 -0.5850  0.0867
   18SOL     OW   69   0.082   1.653   0.348 -0.9157  0.4222  0.1370
   18SOL    HW1   70   0.170   1.688   0.332  1.6610 -0.1158  0.1620
   18SOL    HW2   71   0.055   1.616   0.265 -3.1707 -0.8124 -3.3509
   18SOL     MW   72   0.090   1.653   0.335 -0.8732  0.1883 -0.3199
   19SOL     OW   73   0.076   1.325   0.972  0.3532  0.0911  0.7657
   19SOL    HW1   74   0.110   1.362   0.890 -3.0507 -1.7083  1.9531
   19SOL    HW2   75  -0.012   1.362   0.973 -0.6965  2.5874 -2.6614
   19SOL     MW   76   0.069   1.335   0.961 -0.2344  0.1830  0.4702
   20SOL     OW   77   0.447   2.117   1.274  0.1006  0.3684 -0.0405
   20SOL    HW1   78   0.384   2.058   1.222 -0.2273  1.4156 -1.5380
   20SOL    HW2   79   0.397   2.126   1.358  0.6936 -1.8938 -0.2266
   20SOL     MW   80   0.432   2.110   1.278  0.1356  0.2081 -0.2626
   21SOL     OW   81   0.568   0.855   0.427 -0.2730  0.1361 -0.5117
   21SOL    HW1   82   0.644   0.900   0.478  0.3547  0.6277  0.6816
   21SOL    HW2   83   0.604   0.854   0.339 -0.1681 -0.3855  2.1476
   21SOL     MW   84   0.583   0.861   0.422 -0.1763  0.1322 -0.0034
   22SOL     OW   85   1.529   0.712   1.021 -0.0689 -0.1619  0.4138
   22SOL    HW1   86   1.506   0.714   0.931 -0.5167 -0.0215  0.1524
   22SOL    HW2   87   1.454   0.748   1.063 -1.6425  0.0613  0.0541
   22SOL     MW   88   1.516   0.717   1.015 -0.3356 -0.1139  0.3319
   23SOL     OW   89   3.086   0.803   0.728 -0.3098  0.3900  0.3698
   23SOL    HW1   90   3.137   0.739   0.783  1.0034  2.5865  0.1509
   23SOL    HW2   91   3.145   0.880   0.729  0.6595  0.2165  1.0375
   23SOL     MW   92   3.101   0.805   0.735 -0.0087  0.6569  0.4290
   24SOL     OW   93   2.081   2.210   0.044 -0.1049  0.2078  0.9177
   24SOL    HW1   94   2.038   2.216   0.129 -2.4032  0.3268 -1.3083
   24SOL    HW2   95   2.138   2.133   0.057  0.1709  0.4109 -2.5273
   24SOL     MW   96   2.083   2.201   0.057 -0.3718  0.2503  0.1695
   25SOL     OW   97   0.177   1.402   0.432 -0.1731  0.3871  0.0023
   25SOL    HW1   98   0.148   1.490   0.408 -0.4200 -3.0905  0.3525
   25SOL    HW2   99   0.214   1.375   0.348  2.3732 -0.9053 -0.7125
   25SOL     MW  100   0.178   1.410   0.418  0.1303 -0.2422 -0.0458
   26SOL     OW  101   1.978   1.024   0.290 -0.4288 -0.0186 -0.6427
   26SOL    HW1  102   1.913   1.052   0.358  1.0401 -0.0539  0.8466
   26SOL    HW2  103   2.033   1.101   0.264  0.5901 -0.2763  1.4203
   26SOL     MW  104   1.976   1.038   0.296 -0.1006 -0.0573 -0.1740
   27SOL     OW  105   1.869   1.374   0.151 -0.7086  0.4446  0.6342
   27SOL    HW1  106   1.811   1.445   0.185  0.1031  2.3640  0.8941
   27SOL    HW2  107   1.930   1.347   0.220  1.1030  0.4102  1.5241
   27SOL     MW  108   1.869   1.380   0.164 -0.3625  0.6933  0.7859
   28SOL     OW  109   0.425   0.936   1.998 -0.2870  0.6510 -0.2678
   28SOL    HW1  110   0.484   0.917   2.070  0.6220 -2.5636 -3.6882
   28SOL    HW2  111   0.341   0.903   2.017 -0.9474 -1.6945  0.7404
   28SOL     MW  112   0.422   0.929   2.010 -0.2542 -0.0826 -0.5861
   29SOL     OW  113   0.225   1.386   0.728 -0.0849  0.1549  0.1761
   29SOL    HW1  114   0.213   1.485   0.744 -1.7367 -1.3959  0.6512
   29SOL    HW2  115   0.192   1.386   0.638  1.6143 -0.7617 -0.9175
   29SOL     MW  116   0.219   1.399   0.718 -0.0786 -0.1707  0.0945
   30SOL     OW  117   0.759   1.207   1.228 -0.8477 -0.0940 -0.9096
   30SOL    HW1  118   0.666   1.232   1.228 -0.0534  1.8754 -1.1552
   30SOL    HW2  119   0.777   1.174   1.318  2.2689 -0.9527  0.9937
   30SOL     MW  120   0.749   1.206   1.240 -0.3317  0.0525 -0.6909
   31SOL     OW  121   0.492   0.305   0.189  0.1929 -0.2795 -0.0364
   31SOL    HW1  122   0.512   0.227   0.240 -1.5766 -2.1188 -0.3282
   31SOL    HW2  123   0.517   0.267   0.102  0.3919  0.9064  2.0221
   31SOL     MW  124   0.498   0.289   0.184 -0.0143 -0.3657  0.1967
   32SOL     OW  125   2.729   0.967   1.096 -0.0376 -0.5161 -0.0689
   32SOL    HW1  126   2.677   0.880   1.102 -2.1100  0.4542 -0.0488
   32SOL    HW2  127   2.824   0.945   1.096 -2.5845 -1.2610  1.7506
   32SOL     MW  128   2.734   0.953   1.097 -0.6471 -0.4864  0.1739
   33SOL     OW  129   1.656   1.249   0.381 -0.4842 -0.1961 -0.1924
   33SOL    HW1  130   1.748   1.236   0.399  1.5511 -0.1347 -0.1327
   33SOL    HW2  131   1.625   1.266   0.471 -0.5265 -1.7067 -1.3003
   33SOL     MW  132   1.664   1.249   0.395 -0.2212 -0.3873 -0.3307
   34SOL     OW  133   1.157   1.949   1.141 -0.4911  0.5168 -0.5738
   34SOL    HW1  134   1.074   1.981   1.186  0.1788 -0.5970  0.8634
   34SOL    HW2  135   1.236   1.964   1.204  0.8172 -0.0394 -1.3204
   34SOL     MW  136   1.157   1.955   1.155 -0.2301  0.2965 -0.4827
   35SOL     OW  137   0.320   0.145   1.807 -0.8696  0.0220 -0.3134
   35SOL    HW1  138   0.364   0.103   1.884  1.0137 -0.7557 -0.8879
   35SOL    HW2  139   0.340   0.092   1.732  0.5691 -0.2366  1.6983
   35SOL     MW  140   0.329   0.132   1.807 -0.4313 -0.1147 -0.1238
   36SOL     OW  141   1.925   1.983   0.591 -0.0471  0.4865  0.5499
   36SOL    HW1  142   1.894   1.961   0.505  0.1450 -2.3173 -0.3558
   36SOL    HW2  143   1.976   1.905   0.607  0.0666  3.3259 -1.5295
   36SOL     MW  144   1.928   1.970   0.582 -0.0068  0.4912  0.1561
   37SOL     OW  145   1.806   2.053   0.993 -0.0255  0.3479 -0.2747
   37SOL    HW1  146   1.763   1.985   0.940  3.9269 -2.4303  1.5919
   37SOL    HW2  147   1.750   2.087   1.061 -1.2590  0.6601 -0.1349
   37SOL     MW  148   1.793   2.048   0.995  0.3333  0.0225 -0.0100
   38SOL     OW  149   2.851   0.959   0.131 -0.6766 -0.0425 -0.6478
   38SOL    HW1  150   2.876   0.939   0.224 -0.1811 -1.2906 -1.7086
   38SOL    HW2  151   2.925   0.946   0.074  1.0344  1.8368 -1.6419
   38SOL     MW  152   2.864   0.954   0.136 -0.3855  0.0408 -0.9189
   39SOL     OW  153   1.494   0.647   0.752 -0.1591  0.4391  0.4445
   39SOL    HW1  154   1.457   0.568   0.790 -1.9514  2.8284 -0.4783
   39SOL    HW2  155   1.423   0.704   0.736 -0.7922 -1.2555  1.1074
   39SOL     MW  156   1.480   0.644   0.755 -0.4791  0.5308  0.4102
   40SOL     OW  157   1.266   1.858   0.250  0.2876  0.2110  0.2730
   40SOL    HW1  158   1.327   1.794   0.293  1.6906 -2.6451 -1.5915
   40SOL    HW2  159   1.230   1.914   0.321  1.7115  0.8455  1.6924
   40SOL     MW  160   1.269   1.857   0.265  0.6605 -0.0821  0.2143
   41SOL     OW  161   0.521   0.577   1.561  0.2649 -0.0209 -0.9124
   41SOL    HW1  162   0.601   0.620   1.551  0.8149 -2.3997  0.5232
   41SOL    HW2  163   0.460   0.634   1.515 -2.8545  0.0357 -3.4639
   41SOL     MW  164   0.524   0.590   1.554 -0.0741 -0.3273 -1.0596
   42SOL     OW  165   1.242   2.985   1.967  0.1495  0.2435  0.4571
   42SOL    HW1  166   1.161   3.008   2.019  2.0795  0.2810  2.1447
   42SOL    HW2  167   1.263   2.900   2.001 -1.9228  0.8904 -0.5261
   42SOL     MW  168   1.234   2.976   1.978  0.1307  0.3338  0.5500
   43SOL     OW  169   1.456   0.105   1.726 -0.3150 -0.8647  0.6209
   43SOL    HW1  170   1.524   0.060   1.670  1.3915 -1.3193  1.6605
   43SOL    HW2  171   1.369   0.083   1.693 -1.8368  3.1910 -0.8811
   43SOL     MW  172   1.453   0.096   1.714 -0.2907 -0.3896  0.5599
   44SOL     OW  173   1.266   0.797   1.045  0.4113  0.1552 -0.5787
   44SOL    HW1  174   1.251   0.890   1.062 -0.5977 -1.0698 -0.7970
   44SOL    HW2  175   1.235   0.761   1.130 -0.7152 -0.1673 -0.7480
   44SOL     MW  176   1.260   0.805   1.059  0.1295 -0.0490 -0.6298
   45SOL     OW  177   1.287   0.835   0.749  0.1973  0.2622 -0.2399
   45SOL    HW1  178   1.237   0.823   0.829  0.2394 -0.6244 -0.3575
   45SOL    HW2  179   1.223   0.804   0.691  1.6382  0.6907  0.8635
   45SOL     MW  180   1.272   0.830   0.752  0.3929  0.2018 -0.1098
   46SOL     OW  181   0.457   1.105   0.663 -0.5311  0.7411  0.0213
   46SOL    HW1  182   0.504   1.110   0.581  1.4758 -0.4821  0.6512
   46SOL    HW2  183   0.471   1.192   0.701 -3.5138 -0.7949 -1.4388
   46SOL     MW  184   0.465   1.117   0.657 -0.6599  0.3770 -0.0882
   47SOL     OW  185   0.099   2.061   1.879 -0.6792  0.0660  0.4055
   47SOL    HW1  186   0.118   1.982   1.824  1.1572 -0.0807 -0.4525
   47SOL    HW2  187   0.096   2.020   1.962  0.3768  2.3576 -2.6670
   47SOL     MW  188   0.101   2.046   1.883 -0.2976  0.3490 -0.1131
   48SOL     OW  189   1.199   0.511   1.020  0.2276 -0.1606 -0.3838
   48SOL    HW1  190   1.188   0.479   0.931  0.8872 -1.8162  2.8954
   48SOL    HW2  191   1.183   0.605   1.023  2.2224  0.0053  1.2358
   48SOL     MW  192   1.196   0.519   1.009  0.5779 -0.3571  0.2626
   49SOL     OW  193   1.669   0.677   1.551  0.4846  0.4637  0.0373
   49SOL    HW1  194   1.720   0.624   1.616 -0.6079 -0.7950  0.1572
   49SOL    HW2  195   1.704   0.655   1.463  0.5052 -2.4575 -0.2938
   49SOL     MW  196   1.680   0.667   1.548  0.3431 -0.0878  0.0094
   50SOL     OW  197   1.284   1.256   0.598  0.4208  0.4102  0.5062
   50SOL    HW1  198   1.211   1.238   0.649  5.5311  2.9612 -1.7739
   50SOL    HW2  199   1.353   1.197   0.640  1.4291 -0.1938  1.0730
   50SOL     MW  200   1.283   1.245   0.610  1.2281  0.6670  0.2801
   51SOL     OW  201   0.309   2.895   0.826  0.2370 -0.4125  0.2266
   51SOL    HW1  202   0.391   2.855   0.847  0.1806  1.1904 -2.4735
   51SOL    HW2  203   0.306   2.946   0.904 -1.9755 -1.2414 -3.5998
   51SOL     MW  204   0.320   2.897   0.839 -0.0624 -0.3104 -0.6345
   52SOL     OW  205   0.807   1.799   0.470 -0.1924 -0.0516 -0.0902
   52SOL    HW1  206   0.767   1.887   0.497 -1.1337  0.8091  0.8706
   52SOL    HW2  207   0.813   1.813   0.373  1.1469  2.5496 -0.1841
   52SOL     MW  208   0.803   1.813   0.461 -0.1399  0.4052  0.0241
   53SOL     OW  209   0.481   2.146   0.522  0.7657  0.4690  0.8501
   53SOL    HW1  210   0.416   2.135   0.453  0.2288  1.4391  0.4982
   53SOL    HW2  211   0.466   2.226   0.569  0.0049 -1.8203  1.2937
   53SOL     MW  212   0.470   2.155   0.519  0.5945  0.2949  0.8622
   54SOL     OW  213   2.026   0.968   0.725  0.3266  0.3557 -0.2694
   54SOL    HW1  214   2.093   0.994   0.665 -0.8709  0.6537  1.3051
   54SOL    HW2  215   2.024   0.868   0.734 -2.3143  0.5511 -1.9236
   54SOL     MW  216   2.035   0.958   0.718 -0.1798  0.4208 -0.2799
   55SOL     OW  217   0.446   1.519   1.681 -0.0889  0.3039  0.0571
   55SOL    HW1  218   0.395   1.559   1.612  1.6246 -1.1358  0.0065
   55SOL    HW2  219   0.535   1.499   1.646  1.1080  0.0824 -0.0784
   55SOL     MW  220   0.451   1.521   1.667  0.2951  0.0847  0.0326
   56SOL     OW  221   0.664   0.906   0.148  0.4555  0.3039 -0.0757
   56SOL    HW1  222   0.653   0.992   0.190  0.1984  0.4923  0.7117
   56SOL    HW2  223   0.579   0.903   0.108 -0.4719  0.9946 -0.2566
   56SOL     MW  224   0.652   0.917   0.148  0.2992  0.4199  0.0043
   57SOL     OW  225   1.109   1.279   1.137  0.4371 -0.0704  0.6350
   57SOL    HW1  226   1.198   1.316   1.160  2.0125  0.4141  0.1196
   57SOL    HW2  227   1.074   1.240   1.218 -1.9075  1.8002  0.6677
   57SOL     MW  228   1.116   1.279   1.151  0.3356  0.2403  0.5713
   58SOL     OW  229   0.423   1.270   1.294 -0.1384  0.5497  0.1296
   58SOL    HW1  230   0.408   1.359   1.270  0.1833 -0.0623 -2.8441
   58SOL    HW2  231   0.435   1.256   1.390  1.1274  1.4542 -2.4195
   58SOL     MW  232   0.423   1.280   1.303  0.0711  0.5883 -0.5991
   59SOL     OW  233   1.420   1.694   0.394 -0.1420  0.0449 -0.3202
   59SOL    HW1  234   1.482   1.737   0.456  1.4442  0.1965 -2.1385
   59SOL    HW2  235   1.354   1.666   0.455 -0.1329 -3.0176  0.0125
   59SOL     MW  236   1.419   1.696   0.410  0.0685 -0.3391 -0.5162
   60SOL     OW  237   3.078   0.175   1.649  0.1819 -0.4303 -0.1635
   60SOL    HW1  238   2.992   0.209   1.683  1.8343  1.3164  2.3362
   60SOL    HW2  239   3.096   0.117   1.726  2.7451 -0.9898  4.8785
   60SOL     MW  240   3.069   0.172   1.664  0.7381 -0.2736  0.8315
   61SOL     OW  241   1.944   1.376   2.994  0.5667 -0.2007 -0.7135
   61SOL    HW1  242   1.912   1.365   3.083 -0.2823  0.5761 -1.7330
   61SOL    HW2  243   2.016   1.318   2.982 -1.3864 -1.5436 -0.1527
   61SOL     MW  244   1.949   1.367   3.004  0.1970 -0.2754 -0.7740
   62SOL     OW  245   0.594   1.712   0.623 -0.1083  0.1570  1.0624
   62SOL    HW1  246   0.679   1.732   0.581 -0.4707  0.9591 -2.0358
   62SOL    HW2  247   0.568   1.626   0.588 -1.0281  0.3449  0.5810
   62SOL     MW  248   0.602   1.703   0.613 -0.2775  0.2876  0.5901
   63SOL     OW  249   1.740   0.709   0.641  0.8418  0.3323 -0.2459
   63SOL    HW1  250   1.733   0.796   0.605 -3.2524 -0.3181  0.0923
   63SOL    HW2  251   1.652   0.697   0.689  0.9532  1.0221  0.5015
   63SOL     MW  252   1.728   0.719   0.643  0.3163  0.3375 -0.1027
   64SOL     OW  253   0.252   1.673   0.738  0.4682  0.3021 -0.1133
   64SOL    HW1  254   0.321   1.734   0.727 -0.6401  1.9748 -2.5080
   64SOL    HW2  255   0.168   1.724   0.727 -0.1416  4.9493 -2.7722
   64SOL     MW  256   0.250   1.688   0.735  0.2415  1.1359 -0.7801
   65SOL     OW  257   1.472   2.317   0.377 -0.0887 -0.0580  0.3961
   65SOL    HW1  258   1.564   2.328   0.384 -1.2756 -0.0241  1.8189
   65SOL    HW2  259   1.441   2.350   0.464  1.7942  0.4658  2.3177
   65SOL     MW  260   1.480   2.322   0.389  0.0031  0.0156  0.8374
   66SOL     OW  261   0.362   0.586   0.478  0.3807 -0.4198 -0.1837
   66SOL    HW1  262   0.428   0.572   0.408  3.1193 -0.6299 -1.0580
   66SOL    HW2  263   0.351   0.683   0.492  1.6203 -0.8184 -1.6034
   66SOL     MW  264   0.369   0.597   0.471  0.9056 -0.5001 -0.4864
   67SOL     OW  265   1.463   0.038   1.991 -0.6685 -0.1905 -0.8067
   67SOL    HW1  266   1.481   0.057   1.896 -2.5771  2.0422  0.5029
   67SOL    HW2  267   1.378  -0.010   1.993 -2.6719 -3.0531 -0.4328
   67SOL     MW  268   1.454   0.034   1.979 -1.1847 -0.2736 -0.5846
   68SOL     OW  269   0.771   0.033   2.954 -0.1692  1.2051 -0.5483
   68SOL    HW1  270   0.782   0.075   2.867  1.1737 -0.1892 -0.6378
   68SOL    HW2  271   0.864   0.034   2.982 -1.9693 -1.4052 -1.4391
   68SOL     MW  272   0.785   0.039   2.946 -0.2295  0.6767 -0.6777
   69SOL     OW  273   1.035   0.219   1.933  0.4881 -0.5888 -0.5178
   69SOL    HW1  274   1.123   0.251   1.949 -0.5757  1.2511  1.1732
   69SOL    HW2  275   1.023   0.150   2.004  0.4837 -0.5050  1.3253
   69SOL     MW  276   1.045   0.214   1.944  0.3472 -0.3350 -0.0515
   70SOL     OW  277   0.504   1.750   1.074  0.0549 -0.1438  0.2789
   70SOL    HW1  278   0.582   1.808   1.057  1.1958 -0.5908 -2.4742
   70SOL    HW2  279   0.501   1.690   1.001 -2.3642  0.1134 -0.8308
   70SOL     MW  280   0.514   1.750   1.062 -0.1137 -0.1688 -0.2308
   71SOL     OW  281   1.525   0.550   1.258  0.1452  0.3056  0.1325
   71SOL    HW1  282   1.499   0.629   1.315  0.0983  1.1617  0.7295
   71SOL    HW2  283   1.543   0.585   1.171  0.6794  2.0655  2.2274
   71SOL     MW  284   1.524   0.565   1.254  0.2095  0.6507  0.4877
   72SOL     OW  285   0.769   1.820   1.008  0.7963 -0.1767  0.1445
   72SOL    HW1  286   0.784   1.896   0.949  1.9060  0.5668 -1.2907
   72SOL    HW2  287   0.805   1.750   0.952 -0.3172 -0.0782  1.3819
   72SOL     MW  288   0.776   1.821   0.993  0.7958 -0.0656  0.1184
   73SOL     OW  289   1.158   0.674   1.282 -0.9369  0.2496 -0.1630
   73SOL    HW1  290   1.103   0.593   1.318 -0.9714 -0.8197  0.6469
   73SOL    HW2  291   1.124   0.743   1.341 -0.6461  0.9720 -0.0041
   73SOL     MW  292   1.146   0.672   1.295 -0.9031  0.2039 -0.0352
   74SOL     OW  293   2.819   0.104   0.985 -0.5350 -0.6005 -0.4187
   74SOL    HW1  294   2.902   0.140   0.951 -1.0060 -2.3361 -1.4742
   74SOL    HW2  295   2.750   0.172   0.966  1.1686  3.5163  0.2897
   74SOL     MW  296   2.821   0.117   0.978 -0.3723 -0.2864 -0.4645
   75SOL     OW  297   1.561   1.342   0.155 -0.3125 -0.2764 -0.2837
   75SOL    HW1  298   1.601   1.277   0.096  0.1364  0.8763 -0.6163
   75SOL    HW2  299   1.592   1.306   0.246  1.3019  0.2962  2.7224
   75SOL     MW  300   1.570   1.329   0.159 -0.0402 -0.0488  0.0690
   76SOL     OW  301   2.992   0.649   0.483  0.5988  0.2188  0.1160
   76SOL    HW1  302   3.010   0.723   0.545 -0.1527  1.5411  1.2130
   76SOL    HW2  303   3.075   0.606   0.450 -1.1915  1.4326 -0.8190
   76SOL     MW  304   3.005   0.653   0.487  0.2635  0.5534  0.1373
   77SOL     OW  305   0.860   0.621   0.429 -0.3036  0.1592  0.3353
   77SOL    HW1  306   0.825   0.660   0.349 -0.5923 -0.2115 -0.2023
   77SOL    HW2  307   0.808   0.539   0.436 -2.5559 -0.3674 -2.4511
   77SOL     MW  308   0.849   0.615   0.419 -0.6389  0.0408 -0.1033
   78SOL     OW  309   0.758   0.871   1.111  0.1940  0.7122  0.0748
   78SOL    HW1  310   0.771   0.962   1.091 -1.4547 -2.0052 -2.4595
   78SOL    HW2  311   0.660   0.866   1.130 -1.4977  2.7019  1.7524
   78SOL     MW  312   0.747   0.882   1.111 -0.2467  0.6162 -0.0382
   79SOL     OW  313   1.874   1.534   0.572  0.0627 -0.5741 -0.0571
   79SOL    HW1  314   1.783   1.512   0.575 -2.2966 -1.5055  1.3334
   79SOL    HW2  315   1.906   1.543   0.658  1.4230  0.6300 -0.4764
   79SOL     MW  316   1.867   1.532   0.584 -0.0691 -0.5381  0.0710
   80SOL     OW  317   0.101   1.004   0.319 -0.1807  0.5003 -0.1244
   80SOL    HW1  318   0.038   0.931   0.293  3.4937 -0.8509 -1.7006
   80SOL    HW2  319   0.164   0.967   0.384  2.5241  1.1049 -2.8135
   80SOL     MW  320   0.101   0.989   0.324  0.6610  0.4018 -0.6872
   81SOL     OW  321   1.793   1.873   0.337 -0.4796  0.0798  0.0622
   81SOL    HW1  322   1.789   1.787   0.303  0.4927  1.4170 -0.3366
   81SOL    HW2  323   1.766   1.929   0.255 -1.2544  0.5147  1.6530
   81SOL     MW  324   1.789   1.869   0.322 -0.4536  0.3136  0.2195
   82SOL     OW  325   0.921   1.051   0.509  0.7370 -0.2242  0.2807
   82SOL    HW1  326   0.885   1.093   0.432  3.2595  1.0784  0.4073
   82SOL    HW2  327   0.866   0.983   0.546 -0.4827  1.5845 -0.7858
   82SOL     MW  328   0.909   1.048   0.504  0.9089  0.1863  0.1567
   83SOL     OW  329   0.023   0.783   1.550  0.0821 -0.3209  0.2887
   83SOL    HW1  330   0.030   0.840   1.468 -1.8007 -4.2655  0.4644
   83SOL    HW2  331   0.094   0.729   1.528  0.7093  3.6186  0.0893
   83SOL     MW  332   0.033   0.783   1.536 -0.0836 -0.3216  0.2856
   84SOL     OW  333   0.045   0.192   0.915  0.0065 -0.2648  0.1873
   84SOL    HW1  334   0.013   0.272   0.956 -0.4422  0.2260 -0.9132
   84SOL    HW2  335   0.049   0.136   0.994  0.4532  0.5282  2.0997
   84SOL     MW  336   0.042   0.196   0.931  0.0063 -0.0955  0.2944
   85SOL     OW  337   0.385   0.473   0.740 -0.7656  0.1811  0.2207
   85SOL    HW1  338   0.359   0.511   0.655 -0.5672  1.9527  1.1949
   85SOL    HW2  339   0.355   0.381   0.741  0.7355  1.4620  0.6338
   85SOL     MW  340   0.377   0.466   0.729 -0.5414  0.5838  0.4037
   86SOL     OW  341   1.233   0.274   1.180  0.2484 -0.0935  0.1661
   86SOL    HW1  342   1.214   0.365   1.149 -0.6679  0.0793  2.7605
   86SOL    HW2  343   1.325   0.261   1.166  0.0950  1.7236 -2.9421
   86SOL     MW  344   1.242   0.284   1.174  0.1073  0.1691  0.0983
   87SOL     OW  345   1.050   1.534   1.206 -0.0363  0.3142 -0.4981
   87SOL    HW1  346   1.104   1.592   1.158 -1.6253  1.8417  0.4875
   87SOL    HW2  347   1.075   1.446   1.176  2.4688 -2.9165  2.7464
   87SOL     MW  348   1.060   1.530   1.195  0.0845  0.0895  0.0600
   88SOL     OW  349   1.244   1.068   1.017 -0.4888  0.0330 -0.3111
   88SOL    HW1  350   1.330   1.111   0.998  1.4656  1.3582  1.6941
   88SOL    HW2  351   1.190   1.133   1.065 -2.2204  1.4344 -0.2939
   88SOL     MW  352   1.248   1.082   1.021 -0.4594  0.3927 -0.0442
   89SOL     OW  353   1.757   0.706   0.262  0.5684 -0.3221 -0.3029
   89SOL    HW1  354   1.693   0.642   0.294  0.8827  0.4699 -0.3346
   89SOL    HW2  355   1.840   0.672   0.293  0.8211  0.9975  0.6758
   89SOL     MW  356   1.760   0.693   0.270  0.6432 -0.0435 -0.1780
   90SOL     OW  357   0.827   1.222   2.895 -0.3160  0.5287  0.2178
   90SOL    HW1  358   0.911   1.184   2.905 -1.5184 -1.0315 -1.2864
   90SOL    HW2  359   0.827   1.276   2.972 -0.7085  0.0088 -0.3467
   90SOL     MW  360   0.838   1.224   2.906 -0.5264  0.2543 -0.0551
   91SOL     OW  361   2.184   0.622   0.458  0.1132 -0.2746  0.1262
   91SOL    HW1  362   2.259   0.641   0.407  0.2387 -1.1798 -2.0769
   91SOL    HW2  363   2.168   0.532   0.441  2.4749  1.0513  1.7251
   91SOL     MW  364   2.191   0.613   0.449  0.4413 -0.2191  0.0465
   92SOL     OW  365   1.637   0.960   0.552 -0.1647  0.0544 -0.1905
   92SOL    HW1  366   1.586   1.005   0.617 -0.3962 -1.3758  0.5058
   92SOL    HW2  367   1.591   0.942   0.472 -2.1821  0.7558 -0.6395
   92SOL     MW  368   1.624   0.963   0.550 -0.4614 -0.0418 -0.1579
   93SOL     OW  369   1.059   0.266   0.347 -0.5128  0.5569  0.0479
   93SOL    HW1  370   0.973   0.302   0.375 -0.8742 -0.0966 -2.3719
   93SOL    HW2  371   1.091   0.311   0.263  1.3548  1.5520 -1.5146
   93SOL     MW  372   1.052   0.277   0.339 -0.3141  0.6020 -0.4775
   94SOL     OW  373   1.863   1.391   1.589  0.0910  0.0935  0.0071
   94SOL    HW1  374   1.837   1.390   1.493 -1.8219 -1.0704  0.9513
   94SOL    HW2  375   1.865   1.298   1.617 -1.7086 -1.3782  0.1942
   94SOL     MW  376   1.860   1.379   1.580 -0.3989 -0.2542  0.1564
   95SOL     OW  377   0.590   1.555   0.912 -0.0002 -0.1648 -0.3073
   95SOL    HW1  378   0.655   1.529   0.981 -4.7124  2.1178 -0.4511
   95SOL    HW2  379   0.571   1.475   0.863  1.4619  0.9421  0.8905
   95SOL     MW  380   0.596   1.541   0.914 -0.4290  0.2824 -0.1682
   96SOL     OW  381   1.319   1.847   1.648  0.2025  0.1496  0.1648
   96SOL    HW1  382   1.227   1.831   1.644  0.9282 -1.3298 -1.5380
   96SOL    HW2  383   1.360   1.760   1.632 -0.7878 -1.0390 -0.7343
   96SOL     MW  384   1.312   1.834   1.646  0.1676 -0.2024 -0.1785
   97SOL     OW  385   1.074   1.517   0.884  0.1168  0.4231 -0.9885
   97SOL    HW1  386   1.127   1.581   0.935 -1.0285  2.6765  0.1764
   97SOL    HW2  387   0.998   1.567   0.850  1.0409  0.1362 -1.8449
   97SOL     MW  388   1.071   1.532   0.886  0.0876  0.6825 -0.9478
   98SOL     OW  389   1.335   1.390   1.182 -0.5004  0.3063 -0.0581
   98SOL    HW1  390   1.416   1.425   1.226  2.7586 -0.5019  0.3714
   98SOL    HW2  391   1.347   1.419   1.090  0.0833 -0.8793 -1.5570
   98SOL     MW  392   1.347   1.399   1.176  0.0066  0.0433 -0.1992
   99SOL     OW  393   1.491   0.288   1.303 -0.1987  0.3478  0.6413
   99SOL    HW1  394   1.516   0.382   1.264 -1.9594 -0.8805 -0.3140
   99SOL    HW2  395   1.424   0.305   1.362  2.7601 -0.1959  0.6672
   99SOL     MW  396   1.486   0.303   1.305 -0.0406  0.1140  0.5187
  100SOL     OW  397   1.074   1.158   1.371  0.1247  0.2596  0.2000
  100SOL    HW1  398   1.126   1.171   1.450  0.5605 -2.0899 -0.8802
  100SOL    HW2  399   1.067   1.062   1.362  1.1403 -1.5759  0.0277
  100SOL     MW  400   1.080   1.147   1.380  0.3162 -0.2926  0.0348
  101SOL     OW  401   0.546   1.210   0.418  0.1727  0.1492  0.1569
  101SOL    HW1  402   0.481   1.184   0.346  2.0507 -1.2796 -3.2505
  101SOL    HW2  403   0.630   1.194   0.366 -0.4710 -1.8004  1.0714
  101SOL     MW  404   0.548   1.204   0.402  0.3355 -0.2966 -0.1720
  102SOL     OW  405   2.914   0.647   1.105 -0.0563 -0.4174 -0.9751
  102SOL    HW1  406   2.954   0.730   1.084  1.2717 -0.7772 -0.5980
  102SOL    HW2  407   2.905   0.648   1.202  3.1607 -0.6905  2.5400
  102SOL     MW  408   2.918   0.658   1.115  0.5434 -0.5009 -0.4615
  103SOL     OW  409   1.866   0.247   1.820 -0.1263 -0.1133 -0.3727
  103SOL    HW1  410   1.845   0.155   1.797  0.2108  2.3174 -0.8323
  103SOL    HW2  411   1.858   0.262   1.918 -0.5576 -0.5838  0.2059
  103SOL     MW  412   1.862   0.237   1.830 -0.1387  0.1453 -0.3570
  104SOL     OW  413   0.092   1.507   1.657 -0.5917  0.0370  0.0248
  104SOL    HW1  414   0.152   1.438   1.710  0.6847  0.9416  1.9132
  104SOL    HW2  415   0.002   1.471   1.674  2.2710  0.6728 -1.8057
  104SOL     MW  416   0.088   1.493   1.666 -0.0456  0.2402  0.0324
  105SOL     OW  417   3.073   1.238   0.401  0.5006  0.0981  0.0942
  105SOL    HW1  418   3.128   1.163   0.394  0.3768  0.2103  0.7289
  105SOL    HW2  419   3.128   1.312   0.419 -1.2139 -0.6847 -1.1335
  105SOL     MW  420   3.087   1.238   0.402  0.2581  0.0096  0.0159
  106SOL     OW  421   0.796   0.362   0.841  0.1405 -0.7585 -0.6367
  106SOL    HW1  422   0.717   0.412   0.864 -0.7751 -1.4152  1.6801
  106SOL    HW2  423   0.862   0.427   0.853 -0.5712  1.2414  2.9575
  106SOL     MW  424   0.794   0.377   0.846 -0.0742 -0.5813  0.1432
  107SOL     OW  425   0.795   2.172   2.889 -0.1272  0.4432  0.1286
  107SOL    HW1  426   0.701   2.173   2.877  2.1420 -1.8484 -0.2227
  107SOL    HW2  427   0.794   2.127   2.980 -0.6753  1.5017  1.6288
  107SOL     MW  428   0.782   2.166   2.900  0.0999  0.2805  0.2802
  108SOL     OW  429   1.369   1.571   1.644  0.3497  0.8412  0.1962
  108SOL    HW1  430   1.299   1.525   1.583  1.7390 -0.9317 -0.5128
  108SOL    HW2  431   1.451   1.522   1.642  0.9373 -3.7909 -0.2610
  108SOL     MW  432   1.371   1.559   1.635  0.6105 -0.0039  0.0424
  109SOL     OW  433   2.052   0.763   0.261 -0.3729 -0.0182  0.8528
  109SOL    HW1  434   2.028   0.861   0.259 -0.6526  2.4667 -0.2280
  109SOL    HW2  435   2.079   0.750   0.352 -1.4506  1.2444  2.4699
  109SOL     MW  436   2.053   0.774   0.273 -0.5520  0.4762  0.9236
  110SOL     OW  437   0.423   1.949   0.731  0.2672 -1.0065  0.4805
  110SOL    HW1  438   0.486   1.880   0.718 -1.4342 -2.9203 -2.2128
  110SOL    HW2  439   0.431   2.004   0.653  0.2544  3.2396 -0.8620
  110SOL     MW  440   0.433   1.947   0.719  0.0410 -0.6988 -0.0520
  111SOL     OW  441   0.849   0.890   1.358 -0.0967  0.4364  0.2133
  111SOL    HW1  442   0.806   0.884   1.270 -0.3161 -1.2682 -0.4078
  111SOL    HW2  443   0.826   0.804   1.404  0.6446 -2.3759  1.8995
  111SOL     MW  444   0.841   0.878   1.352 -0.0278 -0.1596  0.3538
  112SOL     OW  445   1.382   1.077   1.587  0.7310  0.4703 -0.7445
  112SOL    HW1  446   1.316   1.149   1.569 -0.4686  0.6515  0.6893
  112SOL    HW2  447   1.340   1.002   1.626  2.9552  1.4488  0.8301
  112SOL     MW  448   1.368   1.077   1.590  0.8662  0.6233 -0.3476
  113SOL     OW  449   1.224   3.026   1.683 -0.4689 -0.1922  0.1036
  113SOL    HW1  450   1.199   2.998   1.770 -1.8451 -0.8064 -0.0116
  113SOL    HW2  451   1.212   2.957   1.621 -0.5578  1.4349 -1.0429
  113SOL     MW  452   1.219   3.013   1.686 -0.6622 -0.0586 -0.0629
  114SOL     OW  453   0.258   2.891   1.853 -0.0937 -0.7651 -1.1731
  114SOL    HW1  454   0.336   2.937   1.872  2.6744  0.0954 -1.2152
  114SOL    HW2  455   0.189   2.958   1.875  0.9798  1.7524 -0.9091
  114SOL     MW  456   0.259   2.906   1.859  0.4132 -0.3194 -1.1438
  115SOL     OW  457   0.497   0.822   1.176  0.9702  0.1390  0.0115
  115SOL    HW1  458   0.487   0.730   1.206  1.3608  0.4389 -2.2505
  115SOL    HW2  459   0.454   0.880   1.243 -0.0889  2.9042  3.5175
  115SOL     MW  460   0.490   0.817   1.189  0.8820  0.5434  0.1757
  116SOL     OW  461   0.760   1.117   0.965 -0.8414  0.2710  0.6803
  116SOL    HW1  462   0.793   1.121   0.871  2.0056 -0.5683 -1.0162
  116SOL    HW2  463   0.826   1.153   1.026 -0.6247 -0.2762 -2.8026
  116SOL     MW  464   0.773   1.122   0.961 -0.4372  0.0881 -0.0031
  117SOL     OW  465   1.128   1.248   0.826 -0.3159  0.2395 -0.1312
  117SOL    HW1  466   1.164   1.204   0.897  0.0315  1.6034 -2.4497
  117SOL    HW2  467   1.112   1.334   0.872 -0.2993  0.8075  1.1803
  117SOL     MW  468   1.130   1.254   0.841 -0.2679  0.4944 -0.2641
  118SOL     OW  469   3.032   2.958   1.748 -0.3389 -0.1180  0.6769
  118SOL    HW1  470   3.076   3.021   1.812 -0.0108  0.1303 -0.0362
  118SOL    HW2  471   2.937   2.976   1.744 -3.6853 -2.6164  0.2265
  118SOL     MW  472   3.025   2.969   1.756 -0.7371 -0.4149  0.5234
  119SOL     OW  473   0.385   1.552   1.249 -0.7575 -0.3296  0.6186
  119SOL    HW1  474   0.437   1.619   1.199 -1.9285 -0.7271 -0.9256
  119SOL    HW2  475   0.298   1.554   1.212  1.9139  0.9917 -2.0230
  119SOL     MW  476   0.381   1.561   1.238 -0.5596 -0.2077  0.0663
  120SOL     OW  477   0.254   0.794   0.988 -0.1582 -0.2064 -0.1808
  120SOL    HW1  478   0.314   0.817   1.060  0.9348  2.0792 -1.5764
  120SOL    HW2  479   0.302   0.838   0.919 -3.2810 -2.2189 -2.4073
  120SOL     MW  480   0.268   0.803   0.989 -0.4260 -0.1704 -0.6587
  121SOL     OW  481   1.790   1.117   1.619 -0.2559  0.3580 -0.0501
  121SOL    HW1  482   1.711   1.151   1.583 -0.3363 -0.5122  3.0683
  121SOL    HW2  483   1.788   1.023   1.590 -1.7665  2.1081 -1.6093
  121SOL     MW  484   1.779   1.109   1.611 -0.4658  0.4741  0.1556
  122SOL     OW  485   0.129   0.610   0.847 -0.2077  0.6289  0.1009
  122SOL    HW1  486   0.204   0.601   0.799 -2.1012  3.5719 -0.6373
  122SOL    HW2  487   0.159   0.669   0.917  1.6096  1.8235  2.0122
  122SOL     MW  488   0.143   0.616   0.849 -0.2177  1.1748  0.2557
  123SOL     OW  489   1.875   1.109   0.538  0.4398 -0.3681  0.5622
  123SOL    HW1  490   1.782   1.080   0.541  1.5210 -2.6095  0.9550
  123SOL    HW2  491   1.911   1.093   0.622 -0.8261  2.3829  2.0048
  123SOL     MW  492   1.868   1.103   0.549  0.4155 -0.3008  0.8043
  124SOL     OW  493   0.542   0.477   0.959  0.4521 -1.0207  0.1990
  124SOL    HW1  494   0.474   0.458   0.891  0.6183 -0.7690  0.8678
  124SOL    HW2  495   0.562   0.568   0.937  0.9087 -0.2187  2.4616
  124SOL     MW  496   0.535   0.487   0.947  0.5343 -0.8817  0.5858
  125SOL     OW  497   0.687   1.729   1.806 -0.4730  0.2340  0.0805
  125SOL    HW1  498   0.663   1.688   1.723  1.2429 -0.5927  0.1572
  125SOL    HW2  499   0.630   1.810   1.817  0.5537  1.8420  1.3298
  125SOL     MW  500   0.677   1.734   1.797 -0.1111  0.3370  0.2555
  126SOL     OW  501   2.169   1.519   1.930 -0.3213 -0.3466 -0.4494
  126SOL    HW1  502   2.219   1.596   1.908 -0.6138 -3.1731 -1.4335
  126SOL    HW2  503   2.237   1.450   1.949 -0.2917 -0.5067  0.1392
  126SOL     MW  504   2.184   1.520   1.930 -0.3560 -0.7407 -0.5016
  127SOL     OW  505   0.536   0.803   1.784  0.0710 -0.8522  0.7166
  127SOL    HW1  506   0.627   0.778   1.796  2.6356 -2.3595 -0.1593
  127SOL    HW2  507   0.508   0.856   1.862  0.1249  1.1037 -1.1056
  127SOL     MW  508   0.545   0.807   1.796  0.4165 -0.7930  0.3606
  128SOL     OW  509   1.747   0.714   2.882 -0.0351  0.5018  0.6395
  128SOL    HW1  510   1.793   0.710   2.796  3.0993  2.0508 -3.8570
  128SOL    HW2  511   1.721   0.807   2.879 -1.1334  1.0558 -1.1457
  128SOL     MW  512   1.750   0.726   2.870  0.2335  0.7793 -0.1893
  129SOL     OW  513   1.579   0.924   0.192  0.1429 -0.4439  0.0263
  129SOL    HW1  514   1.513   0.864   0.156 -0.0538  1.3205 -0.3945
  129SOL    HW2  515   1.657   0.866   0.198 -0.5979  1.5176 -2.3359
  129SOL     MW  516   1.581   0.909   0.188  0.0192  0.0477 -0.3409
  130SOL     OW  517   0.829   1.439   0.329 -0.3675 -0.5043  0.1651
  130SOL    HW1  518   0.810   1.437   0.432 -0.1559  3.3011 -0.1731
  130SOL    HW2  519   0.919   1.472   0.316  2.1118  0.4043 -1.9515
  130SOL     MW  520   0.839   1.443   0.341 -0.0124  0.1176 -0.1588
  131SOL     OW  521   0.030   0.775   0.059  0.5651  0.1867  0.3126
  131SOL    HW1  522   0.009   0.794  -0.032  0.0885 -1.8719 -1.8022
  131SOL    HW2  523   0.120   0.807   0.079 -0.4650  0.6532 -0.0777
  131SOL     MW  524   0.039   0.782   0.050  0.3663 -0.0234 -0.0180
  132SOL     OW  525   2.740   0.103   1.262 -0.2003 -0.4129  0.0126
  132SOL    HW1  526   2.770   0.111   1.172 -0.6347  2.4033 -3.2892
  132SOL    HW2  527   2.641   0.078   1.245 -2.1343 -2.6990 -1.2287
  132SOL     MW  528   2.731   0.101   1.248 -0.5128 -0.3430 -0.5868
  133SOL     OW  529   1.050   0.134   1.653  0.6640  0.4863  0.6617
  133SOL    HW1  530   1.119   0.061   1.652  0.5237 -2.0799  1.1249
  133SOL    HW2  531   1.037   0.151   1.747  0.6385 -0.0185  0.6759
  133SOL     MW  532   1.057   0.127   1.665  0.6421  0.0811  0.7247
  134SOL     OW  533   1.414   2.427   1.492 -0.1852  0.2675  0.2498
  134SOL    HW1  534   1.359   2.484   1.435  2.4399 -1.0908 -1.9516
  134SOL    HW2  535   1.442   2.492   1.557 -1.2187 -0.8525 -1.4466
  134SOL     MW  536   1.411   2.443   1.493  0.0248 -0.0595 -0.2645
  135SOL     OW  537   2.988   0.995   2.982  0.1674  0.1808  0.1318
  135SOL    HW1  538   3.070   1.051   2.981  1.8292 -1.6278 -0.1772
  135SOL    HW2  539   2.912   1.039   2.938 -0.9703 -0.2312  0.4286
  135SOL     MW  540   2.989   1.008   2.976  0.2366 -0.1122  0.1302
  136SOL     OW  541   0.196   1.977   0.868 -0.5858 -0.6621 -0.3825
  136SOL    HW1  542   0.131   1.917   0.837  0.8588  1.9146  0.1753
  136SOL    HW2  543   0.276   1.960   0.816 -0.7050  0.4402  1.9263
  136SOL     MW  544   0.198   1.967   0.857 -0.4109 -0.1767 -0.0043
  137SOL     OW  545   0.719   2.034   0.556  0.4164  0.7610  0.0808
  137SOL    HW1  546   0.757   2.065   0.641  1.6266  1.5455 -0.1664
  137SOL    HW2  547   0.628   2.076   0.549  1.1542 -2.1397  0.1244
  137SOL     MW  548   0.712   2.044   0.566  0.6734  0.4818  0.0540
  138SOL     OW  549   0.461   0.548   1.233  0.5131  0.0954  0.0687
  138SOL    HW1  550   0.364   0.548   1.244 -2.5832  0.9988 -0.1609
  138SOL    HW2  551   0.478   0.505   1.149  1.4651  1.5116 -1.3962
  138SOL     MW  552   0.451   0.542   1.223  0.2302  0.4015 -0.1549
  139SOL     OW  553   2.840   0.564   1.345  0.3825 -0.3621  0.5766
  139SOL    HW1  554   2.894   0.489   1.314 -1.2868 -0.5067  0.8111
  139SOL    HW2  555   2.874   0.584   1.433  0.9623 -0.5857 -1.1222
  139SOL     MW  556   2.852   0.556   1.353  0.2388 -0.4107  0.3834
  140SOL     OW  557   0.886   0.454   1.963 -0.5185 -0.4320  0.2191
  140SOL    HW1  558   0.935   0.374   1.949  0.0844 -1.1187 -0.3447
  140SOL    HW2  559   0.896   0.469   2.055  1.8673  0.4430 -1.2455
  140SOL     MW  560   0.894   0.446   1.973 -0.1242 -0.4071 -0.0485
  141SOL     OW  561   1.016   0.629   1.625  0.1767 -0.7558 -0.3519
  141SOL    HW1  562   1.039   0.539   1.598  0.4015 -0.9783  0.9621
  141SOL    HW2  563   1.083   0.656   1.683  1.3212 -2.1185  0.8403
  141SOL     MW  564   1.028   0.621   1.629  0.3574 -0.9649 -0.0213
  142SOL     OW  565   0.870   1.213   0.733 -0.0484  0.3323  0.1896
  142SOL    HW1  566   0.863   1.148   0.661 -0.5203  1.0822 -0.5456
  142SOL    HW2  567   0.958   1.222   0.769  1.1425 -1.8238  2.5254
  142SOL     MW  568   0.881   1.205   0.728  0.0465  0.1468  0.4008
  143SOL     OW  569   1.837   0.664   1.049 -0.1500  0.2911 -0.2751
  143SOL    HW1  570   1.872   0.663   0.960 -3.5642  0.6299  1.2090
  143SOL    HW2  571   1.741   0.679   1.041  0.7868  3.0038 -3.6254
  143SOL     MW  572   1.829   0.666   1.037 -0.4769  0.6937 -0.5213
  144SOL     OW  573   0.261   1.322   1.749 -0.2955 -0.3180 -0.4206
  144SOL    HW1  574   0.336   1.375   1.713  0.5958 -1.4907  1.2007
  144SOL    HW2  575   0.303   1.295   1.836 -0.4681  0.9331 -0.6254
  144SOL     MW  576   0.276   1.325   1.755 -0.2006 -0.3077 -0.2337
  145SOL     OW  577   0.155   0.450   1.248  0.0687 -0.0124 -0.1305
  145SOL    HW1  578   0.205   0.365   1.240 -2.3119  0.1018 -0.7688
  145SOL    HW2  579   0.088   0.452   1.176 -1.9855 -1.1041  0.3917
  145SOL     MW  580   0.153   0.439   1.238 -0.5165 -0.1413 -0.1458
  146SOL     OW  581   0.823   1.910   1.433 -0.3134  0.5133  0.0469
  146SOL    HW1  582   0.839   1.948   1.345 -0.2977  0.0169  1.3503
  146SOL    HW2  583   0.753   1.849   1.425  0.6677 -0.7146  0.4117
  146SOL     MW  584   0.816   1.907   1.420 -0.1819  0.2858  0.2670
  147SOL     OW  585   0.439   0.470   2.919 -0.0160  0.5146  0.1715
  147SOL    HW1  586   0.360   0.509   2.958  0.2288  1.0260  1.7938
  147SOL    HW2  587   0.461   0.534   2.854 -0.2705 -1.4225 -0.5842
  147SOL     MW  588   0.431   0.484   2.916 -0.0173  0.3265  0.2858
  148SOL     OW  589   0.072   0.911   1.318  0.1688 -0.3376  0.1547
  148SOL    HW1  590   0.163   0.922   1.306  1.9256 -0.9037 -1.5084
  148SOL    HW2  591   0.034   0.998   1.317  1.0125 -1.9365 -0.6621
  148SOL     MW  592   0.079   0.924   1.316  0.5119 -0.6232 -0.1725
  149SOL     OW  593   1.583   1.158   1.420  0.1952 -0.3379 -0.6259
  149SOL    HW1  594   1.505   1.139   1.479 -3.1845 -0.2586  2.6456
  149SOL    HW2  595   1.561   1.245   1.387 -0.7135 -0.0612 -0.2043
  149SOL     MW  596   1.570   1.167   1.423 -0.3706 -0.2909 -0.1386
  150SOL     OW  597   1.732   1.414   0.893  0.0068  1.0578  0.1387
  150SOL    HW1  598   1.795   1.339   0.881 -1.5219 -0.7370  0.2960
  150SOL    HW2  599   1.777   1.498   0.893 -3.4954  2.2578  1.0930
  150SOL     MW  600   1.746   1.415   0.892 -0.6570  0.9793  0.2854
  151SOL     OW  601   1.678   1.904   0.823 -0.2872  0.1172 -0.1022
  151SOL    HW1  602   1.656   1.876   0.731 -1.2261  2.0294  1.8195
  151SOL    HW2  603   1.607   1.872   0.876  0.2379  1.4792 -0.2551
  151SOL     MW  604   1.666   1.896   0.818 -0.3418  0.5492  0.1312
  152SOL     OW  605   0.679   1.396   1.568 -0.5151 -0.5898 -0.5693
  152SOL    HW1  606   0.760   1.439   1.525 -0.1729  0.9758  2.9866
  152SOL    HW2  607   0.672   1.303   1.564 -4.0720  0.4802 -0.0095
  152SOL     MW  608   0.688   1.389   1.562 -0.9392 -0.2421 -0.0263
  153SOL     OW  609   2.568   1.208   0.718  0.4877  0.5429 -0.7344
  153SOL    HW1  610   2.646   1.179   0.672 -0.2812  1.9713  1.3669
  153SOL    HW2  611   2.511   1.126   0.732 -1.9242 -0.4040  0.4519
  153SOL     MW  612   2.571   1.193   0.714  0.0680  0.6064 -0.3006
  154SOL     OW  613   0.107   1.776   1.774  0.7537 -0.0109  0.4024
  154SOL    HW1  614   0.075   1.685   1.755 -1.0647 -2.5450  0.9907
  154SOL    HW2  615   0.191   1.756   1.814 -3.4930 -2.2751  0.5822
  154SOL     MW  616   0.114   1.761   1.777 -0.0465 -0.6440  0.5038
  155SOL     OW  617   1.220   0.736   0.286  0.1376  0.1687 -0.4009
  155SOL    HW1  618   1.205   0.691   0.379 -1.3615 -0.0817 -0.5169
  155SOL    HW2  619   1.215   0.832   0.306 -1.6420  0.8073 -2.1769
  155SOL     MW  620   1.217   0.743   0.301 -0.2950  0.2199 -0.6506
  156SOL     OW  621   1.536   3.087   1.083  0.1960  0.1792 -0.0537
  156SOL    HW1  622   1.590   3.125   1.148 -0.3708  3.2411 -1.5647
  156SOL    HW2  623   1.571   2.998   1.077  2.8228  0.8061 -2.0264
  156SOL     MW  624   1.548   3.080   1.091  0.4678  0.6659 -0.5134
  157SOL     OW  625   1.345   1.168   0.131 -0.6915  0.3062  0.8958
  157SOL    HW1  626   1.388   1.112   0.190 -0.0506  2.5791 -1.7104
  157SOL    HW2  627   1.395   1.250   0.136 -4.3829  0.3269  1.8608
  157SOL     MW  628   1.357   1.171   0.140 -1.0940  0.6088  0.6793
  158SOL     OW  629   0.433   1.666   2.260 -0.4160 -0.4912 -0.2726
  158SOL    HW1  630   0.492   1.703   2.195  1.5469 -0.2384  0.5203
  158SOL    HW2  631   0.372   1.735   2.281  0.5062 -0.4113 -1.2539
  158SOL     MW  632   0.433   1.680   2.254 -0.0353 -0.4473 -0.2975
  159SOL     OW  633   1.185   1.631   0.514 -0.1998  0.0782  0.6669
  159SOL    HW1  634   1.147   1.619   0.425 -2.3027  0.5834  0.2028
  159SOL    HW2  635   1.117   1.677   0.569 -0.8744  2.0476  1.1758
  159SOL     MW  636   1.171   1.636   0.510 -0.5663  0.4047  0.6728
  160SOL     OW  637   0.513   1.180   1.555  0.3238  0.1700  0.1649
  160SOL    HW1  638   0.460   1.121   1.617  1.1970 -0.3944 -0.3623
  160SOL    HW2  639   0.598   1.136   1.546 -0.1529  1.0503  0.3634
  160SOL     MW  640   0.517   1.167   1.562  0.3761  0.2117  0.1215
  161SOL     OW  641   0.415   2.246   2.650  0.0881 -0.4696 -0.0117
  161SOL    HW1  642   0.372   2.314   2.598 -2.5319  2.6429 -1.6310
  161SOL    HW2  643   0.463   2.188   2.582 -0.3601  0.2528 -0.8265
  161SOL     MW  644   0.416   2.247   2.634 -0.3168  0.0363 -0.3329
  162SOL     OW  645   1.074   1.814   1.772 -0.1675  0.3415  0.4426
  162SOL    HW1  646   1.062   1.904   1.793 -1.0525 -0.2730 -2.3414
  162SOL    HW2  647   1.020   1.773   1.835  0.7276  0.2361 -0.8927
  162SOL     MW  648   1.065   1.820   1.783 -0.1661  0.2465 -0.1009
  163SOL     OW  649   2.123   3.093   0.851 -0.4035  0.1184 -0.4159
  163SOL    HW1  650   2.109   3.160   0.784  1.1889  0.1776  1.3319
  163SOL    HW2  651   2.052   3.019   0.836 -1.3540 -1.8724 -0.9022
  163SOL     MW  652   2.112   3.092   0.840 -0.3188 -0.1365 -0.2494
  164SOL     OW  653   0.305   0.215   0.802 -0.2034 -0.1419  0.0206
  164SOL    HW1  654   0.211   0.208   0.820  0.0649  0.9323 -0.8197
  164SOL    HW2  655   0.330   0.130   0.771 -1.2337  1.0891  0.7822
  164SOL     MW  656   0.296   0.203   0.800 -0.3040  0.1622  0.0102
  165SOL     OW  657   1.214   1.290   0.344  0.4266 -0.0934  0.5147
  165SOL    HW1  658   1.240   1.275   0.439 -0.5405  0.0140  0.3065
  165SOL    HW2  659   1.245   1.209   0.296  1.5345  1.9519 -0.7966
  165SOL     MW  660   1.221   1.277   0.350  0.4452  0.1907  0.3142
  166SOL     OW  661   0.477   1.124   1.033 -0.0579  0.8681 -0.0039
  166SOL    HW1  662   0.472   1.173   1.116  0.4504  2.7830  1.9811
  166SOL    HW2  663   0.573   1.112   1.027 -1.1424  0.8686 -1.1143
  166SOL     MW  664   0.489   1.129   1.043 -0.1339  1.1208  0.1115
  167SOL     OW  665   0.804   1.163   0.297  0.2186  0.4196  0.0941
  167SOL    HW1  666   0.821   1.263   0.302 -2.2089  1.4939 -2.0368
  167SOL    HW2  667   0.887   1.121   0.255  2.4513  0.8824 -0.7328
  167SOL     MW  668   0.817   1.171   0.292  0.1929  0.6224 -0.2961
  168SOL     OW  669   1.724   1.617   3.047 -0.0498 -0.0474 -0.0635
  168SOL    HW1  670   1.681   1.695   3.008  0.9987  1.1320 -1.6956
  168SOL    HW2  671   1.675   1.538   3.025  0.7904 -0.0517  0.1787
  168SOL     MW  672   1.712   1.617   3.039  0.1994  0.1076 -0.2469
  169SOL     OW  673   0.331   1.020   1.352 -0.1138  0.1507 -0.6702
  169SOL    HW1  674   0.347   1.022   1.448 -1.0325 -2.6082 -2.0227
  169SOL    HW2  675   0.332   1.114   1.330 -2.9209  1.7169 -0.0460
  169SOL     MW  676   0.333   1.033   1.362 -0.6054 -0.0066 -0.7663
  170SOL     OW  677   1.154   1.504   1.473 -0.3691 -0.1682 -0.2482
  170SOL    HW1  678   1.121   1.595   1.475 -4.1676 -0.6161  0.6778
  170SOL    HW2  679   1.160   1.496   1.376 -1.5433  1.9291 -0.5986
  170SOL     MW  680   1.151   1.515   1.460 -1.0252  0.0494 -0.1722
  171SOL     OW  681   0.516   1.470   0.523 -0.1817 -0.2845  0.8802
  171SOL    HW1  682   0.415   1.461   0.535 -0.1146  2.7398 -1.2660
  171SOL    HW2  683   0.530   1.376   0.483 -2.5949 -4.6103  1.4102
  171SOL     MW  684   0.504   1.456   0.519 -0.4913 -0.4562  0.6670
  172SOL     OW  685   0.751   0.295   1.276  0.5565  0.4783 -0.2284
  172SOL    HW1  686   0.734   0.261   1.184  0.5867  0.7237  0.0801
  172SOL    HW2  687   0.793   0.224   1.328  1.5896 -2.1378  0.5443
  172SOL     MW  688   0.754   0.282   1.271  0.6968  0.1655 -0.0857
  173SOL     OW  689   0.556   1.736   0.316 -0.0012 -0.3423 -0.3252
  173SOL    HW1  690   0.542   1.649   0.290 -0.4273  4.1897  1.3073
  173SOL    HW2  691   0.616   1.728   0.391  1.2576  1.8331  0.9070
  173SOL     MW  692   0.562   1.724   0.323  0.1087  0.5427  0.0528
  174SOL     OW  693   1.868   0.857   1.496  0.4623  0.2185 -0.2097
  174SOL    HW1  694   1.822   0.772   1.515  2.8420 -0.9097  2.6583
  174SOL    HW2  695   1.879   0.871   1.398 -0.3775 -2.5864 -1.3197
  174SOL     MW  696   1.864   0.848   1.485  0.6655 -0.3004  0.0223
  175SOL     OW  697   0.572   1.487   0.152 -0.1544 -0.3228  0.1343
  175SOL    HW1  698   0.539   1.398   0.150  1.8972 -0.3653 -1.6911
  175SOL    HW2  699   0.671   1.477   0.145 -0.5194  1.7113  1.3792
  175SOL     MW  700   0.581   1.474   0.151  0.0681 -0.0600  0.0577
  176SOL     OW  701   0.118   1.490   1.192 -0.5891  0.2260  0.2537
  176SOL    HW1  702   0.132   1.423   1.120  1.5279 -1.7483 -2.8747
  176SOL    HW2  703   0.040   1.453   1.235  0.9217 -2.2342 -0.5898
  176SOL     MW  704   0.109   1.477   1.188 -0.1104 -0.3591 -0.2703
  177SOL     OW  705   0.525   0.327   1.423 -1.2535  0.3307 -0.3474
  177SOL    HW1  706   0.608   0.332   1.373  2.2321 -1.0965  3.5188
  177SOL    HW2  707   0.519   0.418   1.455 -0.2970 -0.7265 -1.7418
  177SOL     MW  708   0.536   0.340   1.420 -0.6674  0.0029 -0.0212
  178SOL     OW  709   3.079   0.488   3.007 -0.4481 -0.1520  0.6746
  178SOL    HW1  710   3.039   0.528   3.086 -0.2933  1.4392 -3.8357
  178SOL    HW2  711   3.017   0.501   2.936 -0.1811  4.7540 -1.3486
  178SOL     MW  712   3.065   0.495   3.008 -0.3924  0.7052 -0.1874
  179SOL     OW  713   1.549   1.468   1.331 -0.7135  0.1290  0.0210
  179SOL    HW1  714   1.550   1.481   1.425 -1.4618 -1.0453 -2.8892
  179SOL    HW2  715   1.644   1.453   1.311 -1.7359  0.4857  1.6623
  179SOL     MW  716   1.561   1.467   1.341 -0.9471  0.0211 -0.1464
  180SOL     OW  717   3.092   0.287   0.442  0.5928 -0.3154 -0.3231
  180SOL    HW1  718   3.058   0.286   0.357  1.3370 -1.7201 -0.1059
  180SOL    HW2  719   3.154   0.361   0.449  2.1239  1.1666  0.9669
  180SOL     MW  720   3.096   0.297   0.432  0.8930 -0.3052 -0.1243
  181SOL     OW  721   1.100   1.287   3.089 -0.6734  0.3293 -0.0333
  181SOL    HW1  722   1.157   1.357   3.126 -0.5267 -1.8313 -2.9390
  181SOL    HW2  723   1.173   1.241   3.041  3.1794 -1.4230  3.6382
  181SOL     MW  724   1.117   1.290   3.088 -0.1457 -0.1870  0.0677
  182SOL     OW  725   0.374   0.967   1.641 -0.3576 -0.3212 -0.0752
  182SOL    HW1  726   0.289   0.961   1.694  1.3031  2.9810 -0.3683
  182SOL    HW2  727   0.446   0.919   1.683 -0.0172  0.1946 -2.0312
  182SOL     MW  728   0.372   0.960   1.654 -0.0936  0.1826 -0.3720
  183SOL     OW  729   1.573   1.747   1.289  0.6524  0.4128  0.3414
  183SOL    HW1  730   1.672   1.741   1.294 -1.2131  1.5056  0.9480
  183SOL    HW2  731   1.554   1.653   1.280 -0.0423  2.1499  0.8588
  183SOL     MW  732   1.584   1.734   1.289  0.3146  0.7862  0.4897
  184SOL     OW  733   0.803   0.723   1.780  0.1297 -0.0725 -0.2850
  184SOL    HW1  734   0.882   0.698   1.733  2.2424  1.6621  0.6606
  184SOL    HW2  735   0.777   0.644   1.823  0.5687 -2.5869 -0.7319
  184SOL     MW  736   0.810   0.709   1.780  0.4664 -0.1754 -0.2192
  185SOL     OW  737   1.110   0.963   1.859  0.7331 -0.2445 -0.0526
  185SOL    HW1  738   1.084   0.877   1.893  1.4862 -0.7792 -3.2154
  185SOL    HW2  739   1.141   1.020   1.934  0.5956  2.6773 -0.8434
  185SOL     MW  740   1.111   0.959   1.873  0.8143  0.0704 -0.5743
  186SOL     OW  741   0.287   1.615   1.483 -0.2793 -0.2527 -0.3113
  186SOL    HW1  742   0.319   1.573   1.406  1.9265 -2.5468  2.9824
  186SOL    HW2  743   0.198   1.583   1.500 -1.7556  0.3337  1.8190
  186SOL     MW  744   0.280   1.605   1.475 -0.1831 -0.4780  0.4044
  187SOL     OW  745   1.430   0.762   1.388 -0.3200 -0.0849 -0.0569
  187SOL    HW1  746   1.449   0.740   1.478 -0.8040 -1.1475 -0.5760
  187SOL    HW2  747   1.351   0.708   1.376 -0.7374 -0.9737 -0.2873
  187SOL     MW  748   1.422   0.752   1.398 -0.4389 -0.3424 -0.1558
  188SOL     OW  749   1.898   1.199   0.850 -0.1012 -0.1496  0.3638
  188SOL    HW1  750   1.899   1.183   0.948  1.8825  1.4208  3.3052
  188SOL    HW2  751   1.950   1.133   0.800  0.0764 -2.9418 -0.0826
  188SOL     MW  752   1.905   1.188   0.857  0.1840 -0.3108  0.6930
  189SOL     OW  753   0.680   0.724   0.867  0.0548  0.0250 -0.1611
  189SOL    HW1  754   0.599   0.778   0.861  0.3188 -4.2283 -2.1334
  189SOL    HW2  755   0.712   0.760   0.952  0.4543 -1.1492 -0.2057
  189SOL     MW  756   0.673   0.736   0.877  0.1424 -0.6911 -0.4272
  190SOL     OW  757   1.870   0.296   2.097  0.2915  0.3331 -0.6241
  190SOL    HW1  758   1.857   0.265   2.193 -1.9075  0.6500  2.5709
  190SOL    HW2  759   1.956   0.354   2.095 -1.3317  4.2304 -2.2681
  190SOL     MW  760   1.879   0.300   2.109 -0.2128  0.8891 -0.4195
  191SOL     OW  761   1.543   0.975   1.235  0.3324 -0.1940 -0.2857
  191SOL    HW1  762   1.556   1.041   1.305  1.7686  1.1622  0.6910
  191SOL    HW2  763   1.495   0.904   1.280  0.7794 -2.0330 -0.6709
  191SOL     MW  764   1.539   0.975   1.250  0.5809 -0.2577 -0.2077
  192SOL     OW  765   0.543   2.188   2.885  0.1354  0.2468  0.6183
  192SOL    HW1  766   0.495   2.226   2.814 -2.3109  1.2473  2.0733
  192SOL    HW2  767   0.547   2.093   2.878 -2.3979  0.4438 -1.1331
  192SOL     MW  768   0.537   2.180   2.875 -0.5216  0.4048  0.5792
  193SOL     OW  769   0.837   1.640   0.807 -0.6637  0.2508  0.3896
  193SOL    HW1  770   0.738   1.663   0.802 -3.8320 -0.6157 -0.2094
  193SOL    HW2  771   0.835   1.565   0.742 -2.1240  3.5511  1.1701
  193SOL     MW  772   0.824   1.634   0.798 -1.2744  0.5719  0.4136
  194SOL     OW  773   0.473   1.326   0.812 -0.4900 -0.0005  0.3355
  194SOL    HW1  774   0.454   1.267   0.889 -0.1328  0.7142 -0.6891
  194SOL    HW2  775   0.391   1.372   0.793 -0.1601  0.6365  4.1335
  194SOL     MW  776   0.460   1.325   0.820 -0.3993  0.1779  0.7014
  195SOL     OW  777   1.284   1.091   2.986 -0.5554 -0.2156  0.2002
  195SOL    HW1  778   1.317   1.119   3.070 -1.2262 -1.3533 -0.1647
  195SOL    HW2  779   1.214   1.031   3.005 -1.6848  0.6779 -0.0920
  195SOL     MW  780   1.279   1.087   2.999 -0.7929 -0.2479  0.1135
  196SOL     OW  781   2.267   1.027   0.589 -0.2303 -0.0122 -0.2516
  196SOL    HW1  782   2.298   0.985   0.504 -1.4719 -0.3360  0.6991
  196SOL    HW2  783   2.252   1.121   0.575  0.5954  0.4503 -0.1365
  196SOL     MW  784   2.269   1.034   0.576 -0.2852  0.0061 -0.1110
  197SOL     OW  785   0.638   1.356   2.200 -0.2147  0.3836 -0.5767
  197SOL    HW1  786   0.632   1.280   2.146 -0.7462  0.2477  0.6075
  197SOL    HW2  787   0.693   1.421   2.151 -2.5599  0.6103 -0.0968
  197SOL     MW  788   0.644   1.355   2.186 -0.5943  0.3956 -0.3571
  198SOL     OW  789   2.937   1.432   0.976 -0.1298  0.1362 -0.2009
  198SOL    HW1  790   2.940   1.522   0.947  3.3305 -0.0077 -0.9632
  198SOL    HW2  791   2.848   1.400   0.965  0.2616  0.4096  0.7735
  198SOL     MW  792   2.926   1.440   0.971  0.3784  0.1533 -0.1729
  199SOL     OW  793   0.689   1.310   1.819 -0.6912 -0.4355 -0.0181
  199SOL    HW1  794   0.596   1.285   1.837 -3.0394  0.8952 -1.8348
  199SOL    HW2  795   0.691   1.349   1.729 -0.7868  0.0459 -1.3765
  199SOL     MW  796   0.677   1.312   1.810 -1.0137 -0.1964 -0.4370
  200SOL     OW  797   1.842   2.918   1.329 -0.2191  0.0904 -0.5877
  200SOL    HW1  798   1.900   2.967   1.266  1.8977  0.9243 -1.7840
  200SOL    HW2  799   1.763   2.985   1.352 -2.0783  2.4938  1.1003
  200SOL     MW  800   1.839   2.933   1.324 -0.1851  0.5175 -0.5229
  201SOL     OW  801   1.172   0.332   0.806  0.5629 -0.3229  0.3463
  201SOL    HW1  802   1.128   0.243   0.805 -1.5661  0.8819  0.6512
  201SOL    HW2  803   1.260   0.327   0.843  0.9927  1.5402 -1.6077
  201SOL     MW  804   1.178   0.319   0.811  0.3387  0.0819  0.1287
  202SOL     OW  805   1.503   1.754   0.982  0.1682 -0.8376 -0.0003
  202SOL    HW1  806   1.514   1.659   0.968 -1.4830  1.5113 -1.4862
  202SOL    HW2  807   1.518   1.770   1.071  1.5898 -1.6609 -3.5936
  202SOL     MW  808   1.506   1.743   0.992  0.1379 -0.6363 -0.6704
  203SOL     OW  809   3.008   0.352   1.311  0.2444  0.0782 -0.5506
  203SOL    HW1  810   3.013   0.264   1.339  0.4916 -1.0482 -0.3580
  203SOL    HW2  811   3.093   0.392   1.328  2.0906 -0.5347  1.2825
  203SOL     MW  812   3.020   0.346   1.317  0.5206 -0.1513 -0.2834
  204SOL     OW  813   1.020   1.787   0.646  0.2663  0.1189  0.1474
  204SOL    HW1  814   0.955   1.753   0.707 -0.2377  0.3808  2.1168
  204SOL    HW2  815   0.964   1.821   0.576  0.3955  0.6892  1.9480
  204SOL     MW  816   1.004   1.787   0.645  0.2168  0.2287  0.6448
  205SOL     OW  817   1.388   3.038   1.317  0.0958 -0.2078  0.0726
  205SOL    HW1  818   1.413   3.083   1.236 -1.9035 -0.1269 -1.6740
  205SOL    HW2  819   1.334   3.106   1.362 -1.2216 -1.2211 -1.3130
  205SOL     MW  820   1.384   3.053   1.312 -0.3418 -0.3308 -0.3407
  206SOL     OW  821   0.399   2.969   1.347 -0.2594 -0.4670  0.1041
  206SOL    HW1  822   0.387   2.946   1.254  0.0523 -4.1749  0.4843
  206SOL    HW2  823   0.487   2.998   1.350 -0.0499 -0.5759 -0.6213
  206SOL     MW  824   0.409   2.970   1.335 -0.1906 -0.9706  0.0585
  207SOL     OW  825   0.867   1.780   0.204 -0.2263 -0.0465 -0.4105
  207SOL    HW1  826   0.947   1.823   0.177  0.1192 -1.5394 -1.4476
  207SOL    HW2  827   0.903   1.705   0.255  1.5161  1.5682 -0.7837
  207SOL     MW  828   0.882   1.776   0.207  0.0492 -0.0304 -0.5965
  208SOL     OW  829   0.779   1.570   1.387 -0.2099 -0.5043 -0.4733
  208SOL    HW1  830   0.868   1.611   1.393  2.0451  0.9606 -2.0097
  208SOL    HW2  831   0.769   1.517   1.313 -2.3762  1.6803  1.9282
  208SOL     MW  832   0.790   1.569   1.378 -0.1982 -0.0228 -0.3591
  209SOL     OW  833   1.538   0.521   2.848  0.4454 -0.2369 -0.0506
  209SOL    HW1  834   1.603   0.575   2.891 -0.0996 -1.4636  1.8411
  209SOL    HW2  835   1.595   0.443   2.825 -0.2355 -2.2011  0.3355
  209SOL     MW  836   1.554   0.517   2.851  0.2837 -0.6579  0.2499
  210SOL     OW  837   1.465   1.468   0.950 -0.1718 -0.0274  0.3035
  210SOL    HW1  838   1.554   1.438   0.928 -0.5665 -2.7571 -3.6131
  210SOL    HW2  839   1.423   1.473   0.861  0.3182 -1.8475 -0.0546
  210SOL     MW  840   1.471   1.465   0.935 -0.1593 -0.6277 -0.2605
  211SOL     OW  841   1.729   0.356   0.953 -0.3912  0.5419 -0.3495
  211SOL    HW1  842   1.760   0.365   0.861 -0.3698 -1.0129 -1.0284
  211SOL    HW2  843   1.818   0.350   0.993 -1.5538  0.3309 -3.1748
  211SOL     MW  844   1.745   0.356   0.946 -0.5418  0.3089 -0.8118
  212SOL     OW  845   0.325   1.141   0.241  0.5002  0.8553 -0.5505
  212SOL    HW1  846   0.235   1.101   0.249  1.6846  0.3667 -0.4801
  212SOL    HW2  847   0.383   1.075   0.203  1.2464 -0.3219 -2.2038
  212SOL     MW  848   0.321   1.127   0.237  0.7549  0.6355 -0.7594
  213SOL     OW  849   0.368   1.870   3.028  0.0655 -0.0636 -0.1804
  213SOL    HW1  850   0.419   1.890   3.108 -1.1603  1.0740 -2.4513
  213SOL    HW2  851   0.437   1.898   2.959  0.9535  2.4965 -0.9171
  213SOL     MW  852   0.384   1.876   3.029  0.0209  0.4243 -0.5773
  214SOL     OW  853   0.592   0.296   2.119 -0.1134 -0.3609  0.1939
  214SOL    HW1  854   0.530   0.371   2.127 -2.9355  5.0416 -1.0789
  214SOL    HW2  855   0.635   0.322   2.038  1.2248  1.6903 -1.3538
  214SOL     MW  856   0.589   0.309   2.110 -0.3092  0.6225 -0.1782
  215SOL     OW  857   0.500   0.547   2.530  0.2057  0.1740  0.3417
  215SOL    HW1  858   0.462   0.595   2.461 -0.7412  0.0380  1.8296
  215SOL    HW2  859   0.434   0.530   2.600 -0.4072 -4.8201  0.0083
  215SOL     MW  860   0.486   0.551   2.530 -0.0001 -0.5028  0.4940
  216SOL     OW  861   2.921   3.084   2.717 -0.1377  0.1496  0.0330
  216SOL    HW1  862   2.889   3.067   2.808 -0.9553  0.3623  1.3676
  216SOL    HW2  863   2.924   3.189   2.711  1.3092  1.3584 -2.1821
  216SOL     MW  864   2.917   3.096   2.728 -0.0547  0.3372 -0.0832
  217SOL     OW  865   1.015   1.074   0.154 -0.4321 -0.0400  0.2080
  217SOL    HW1  866   1.023   0.997   0.095 -2.3026  1.5547  2.0868
  217SOL    HW2  867   1.039   1.158   0.104  0.9561  1.2913 -0.0994
  217SOL     MW  868   1.019   1.075   0.140 -0.4957  0.3461  0.4153
  218SOL     OW  869   0.860   1.368   2.644 -0.5887  0.4016 -0.2559
  218SOL    HW1  870   0.854   1.346   2.739  1.8952  0.5321  0.9271
  218SOL    HW2  871   0.948   1.412   2.634 -1.4699  1.2431  0.2250
  218SOL     MW  872   0.871   1.371   2.655 -0.3773  0.5298 -0.0364
  219SOL     OW  873   1.042   0.404   2.619  0.2629  0.1884 -0.1907
  219SOL    HW1  874   1.106   0.470   2.644 -0.6968 -1.7971  2.2141
  219SOL    HW2  875   0.956   0.454   2.616 -0.2116 -0.8837  0.4179
  219SOL     MW  876   1.039   0.420   2.622  0.0737 -0.2150  0.2069
  220SOL     OW  877   1.732   0.521   2.176  0.5245  0.3349 -0.0704
  220SOL    HW1  878   1.654   0.546   2.122 -0.9391  0.1385  1.9182
  220SOL    HW2  879   1.782   0.445   2.140 -1.0141  0.8186 -2.0677
  220SOL     MW  880   1.728   0.514   2.164  0.1284  0.3728 -0.0716
  221SOL     OW  881   0.356   1.332   2.931  0.7462  0.3624 -0.0209
  221SOL    HW1  882   0.406   1.254   2.927 -1.6529  0.8420 -1.1159
  221SOL    HW2  883   0.391   1.379   2.860  0.7260 -3.5439 -1.4680
  221SOL     MW  884   0.367   1.328   2.921  0.4270 -0.0897 -0.3563
  222SOL     OW  885   0.507   0.962   2.686 -0.1951 -0.3666  0.5242
  222SOL    HW1  886   0.418   0.972   2.658  1.2545 -2.5190 -2.0452
  222SOL    HW2  887   0.510   0.867   2.698 -0.0326  2.3354  1.5391
  222SOL     MW  888   0.496   0.950   2.684  0.0176 -0.2941  0.3191
  223SOL     OW  889   0.016   2.048   2.526 -0.3372 -0.3256 -0.4426
  223SOL    HW1  890   0.036   2.022   2.618  2.0956 -2.9828 -0.3935
  223SOL    HW2  891   0.020   2.146   2.508 -3.3592  1.6335  0.9712
  223SOL     MW  892   0.019   2.057   2.536 -0.4149 -0.4177 -0.2496
  224SOL     OW  893   1.447   0.714   2.460 -0.0132 -0.1967 -0.4211
  224SOL    HW1  894   1.487   0.673   2.532  0.8785 -1.2855  0.8248
  224SOL    HW2  895   1.442   0.810   2.464  0.3704 -0.8984  1.9249
  224SOL     MW  896   1.452   0.721   2.470  0.1551 -0.4330  0.0528
  225SOL     OW  897   2.920   1.458   2.314 -0.5192  0.3602  0.2545
  225SOL    HW1  898   2.959   1.535   2.272 -1.7487 -0.2318  1.5270
  225SOL    HW2  899   2.838   1.491   2.352  1.9780  1.9949  0.3322
  225SOL     MW  900   2.914   1.473   2.313 -0.3520  0.4978  0.4327
  226SOL     OW  901   0.427   1.483   2.713  0.2217  0.3246 -0.0683
  226SOL    HW1  902   0.520   1.504   2.713 -0.1604 -1.4857 -0.4809
  226SOL    HW2  903   0.390   1.568   2.713 -2.5696  1.5247 -1.1871
  226SOL     MW  904   0.434   1.497   2.713 -0.1970  0.2441 -0.2703
  227SOL     OW  905   0.546   1.148   2.926  0.2145  0.1997 -0.2913
  227SOL    HW1  906   0.625   1.177   2.884 -4.4500 -1.2593 -1.6314
  227SOL    HW2  907   0.527   1.074   2.865 -1.9721 -0.4868  0.4592
  227SOL     MW  908   0.554   1.142   2.912 -0.6895 -0.0834 -0.3691
  228SOL     OW  909   0.745   1.134   2.044 -0.2428  0.3035 -0.1777
  228SOL    HW1  910   0.745   1.176   1.958 -1.6101 -0.3649  2.1921
  228SOL    HW2  911   0.824   1.158   2.094 -0.3917  0.2875 -0.3692
  228SOL     MW  912   0.756   1.143   2.039 -0.4428  0.2132  0.1097
  229SOL     OW  913   0.255   0.559   3.083  0.1622 -0.6075  0.0255
  229SOL    HW1  914   0.159   0.561   3.049  0.7489  0.2629 -0.5551
  229SOL    HW2  915   0.267   0.481   3.146 -1.0331 -0.5503  2.3509
  229SOL     MW  916   0.244   0.549   3.086  0.0819 -0.4851  0.2557
  230SOL     OW  917   1.793   1.367   2.016 -0.0414 -0.4786  0.2091
  230SOL    HW1  918   1.755   1.328   2.091  0.2551  0.6046 -2.1738
  230SOL    HW2  919   1.877   1.320   2.020 -1.6951 -0.0850  0.4399
  230SOL     MW  920   1.799   1.356   2.026 -0.2204 -0.2838 -0.0748
  231SOL     OW  921   2.707   1.230   2.269 -0.1681 -0.0888  0.0473
  231SOL    HW1  922   2.766   1.280   2.332  0.7614 -1.7307  1.5477
  231SOL    HW2  923   2.695   1.279   2.190 -3.9182 -0.3243 -1.0896
  231SOL     MW  924   2.713   1.243   2.267 -0.5403 -0.3365  0.0952
  232SOL     OW  925   2.297   0.833   1.938 -0.4219  0.8486 -0.2714
  232SOL    HW1  926   2.203   0.855   1.908 -0.5136 -0.1635  0.5374
  232SOL    HW2  927   2.276   0.827   2.030  2.1272  0.6887 -0.6618
  232SOL     MW  928   2.282   0.835   1.946 -0.0977  0.6940 -0.2162
  233SOL     OW  929   2.101   0.423   2.081 -0.1677 -0.3203  0.1584
  233SOL    HW1  930   2.159   0.355   2.043  0.6234 -1.1222 -1.7729
  233SOL    HW2  931   2.142   0.456   2.155  0.6385  0.1065  0.7188
  233SOL     MW  932   2.114   0.419   2.086  0.0431 -0.3698 -0.0225
  234SOL     OW  933   0.225   1.035   2.654 -0.2945  0.2761  0.2039
  234SOL    HW1  934   0.157   1.002   2.596 -0.9719 -0.6277 -0.8908
  234SOL    HW2  935   0.248   1.127   2.618  0.2188  1.6625  2.8560
  234SOL     MW  936   0.219   1.043   2.641 -0.3162  0.3397  0.4094
  235SOL     OW  937   1.122   3.017   2.823  0.6605 -0.0471 -0.1398
  235SOL    HW1  938   1.135   2.988   2.913  3.0715  1.5043 -0.4196
  235SOL    HW2  939   1.079   3.106   2.820  2.2817 -0.4829 -0.3406
  235SOL     MW  940   1.118   3.025   2.834  1.1925  0.1001 -0.2032
  236SOL     OW  941   2.956   0.618   0.220  0.0335  0.2315  0.1988
  236SOL    HW1  942   2.968   0.640   0.312 -2.2526  0.7742  0.7951
  236SOL    HW2  943   3.016   0.678   0.181  1.4953 -1.7581  1.4499
  236SOL     MW  944   2.966   0.629   0.227 -0.0752  0.0406  0.4426
  237SOL     OW  945   1.931   1.077   2.150 -0.6999  0.7547  0.7129
  237SOL    HW1  946   1.840   1.106   2.168 -2.7538  0.7852 -0.7066
  237SOL    HW2  947   1.923   1.012   2.081  2.4311 -0.9061 -2.5525
  237SOL     MW  948   1.918   1.072   2.143 -0.5578  0.5396  0.0948
  238SOL     OW  949   1.085   1.736   2.945 -0.4918 -0.3422 -0.3079
  238SOL    HW1  950   1.027   1.666   2.938 -1.2678 -0.0828 -1.4555
  238SOL    HW2  951   1.177   1.711   2.922 -0.4469 -0.9607  0.2929
  238SOL     MW  952   1.090   1.724   2.941 -0.5883 -0.3896 -0.3801
  239SOL     OW  953   1.178   1.288   2.309  0.1084  0.0649  0.8522
  239SOL    HW1  954   1.098   1.257   2.272  1.4790  0.5246 -0.6902
  239SOL    HW2  955   1.168   1.274   2.406  1.0336 -1.0226 -1.0197
  239SOL     MW  956   1.166   1.282   2.317  0.4113 -0.0179  0.4018
  240SOL     OW  957   0.585   0.882   2.220 -0.2195 -0.4934  0.5685
  240SOL    HW1  958   0.601   0.926   2.315  2.4500 -0.8817  4.2301
  240SOL    HW2  959   0.674   0.852   2.197 -0.6886  1.5865 -0.3555
  240SOL     MW  960   0.599   0.884   2.230  0.0708 -0.2702  0.9297
  241SOL     OW  961   0.664   0.446   3.066  0.1590  0.0354 -0.1540
  241SOL    HW1  962   0.692   0.527   3.107 -1.3302 -2.3288  0.2254
  241SOL    HW2  963   0.575   0.457   3.027 -0.7199 -0.3082  0.1899
  241SOL     MW  964   0.656   0.458   3.067 -0.1535 -0.3219 -0.0586
  242SOL     OW  965   1.512   1.674   2.318  0.2738 -0.3594  0.0206
  242SOL    HW1  966   1.458   1.749   2.306 -0.8875  2.3418 -0.3228
  242SOL    HW2  967   1.476   1.605   2.257  0.5271  0.9828 -0.5043
  242SOL     MW  968   1.500   1.674   2.309  0.1540  0.1741 -0.0940
  243SOL     OW  969   1.038   0.324   2.354 -0.2399 -0.0330 -0.2083
  243SOL    HW1  970   1.121   0.273   2.347 -1.4569 -0.7003  2.5256
  243SOL    HW2  971   1.053   0.354   2.443 -2.0365 -1.5939  3.5562
  243SOL     MW  972   1.051   0.321   2.365 -0.6375 -0.3270  0.6491
  244SOL     OW  973   0.122   0.742   2.381  0.4524 -0.2496 -0.2202
  244SOL    HW1  974   0.093   0.834   2.390 -0.6549  2.5520 -2.3941
  244SOL    HW2  975   0.214   0.736   2.359  1.4695 -0.0622 -0.6063
  244SOL     MW  976   0.130   0.754   2.379  0.4405  0.1448 -0.5580
  245SOL     OW  977   1.289   0.176   2.400 -0.3693 -0.6346  0.8299
  245SOL    HW1  978   1.368   0.161   2.339  1.5148  2.1411 -0.6666
  245SOL    HW2  979   1.300   0.092   2.454  1.8881  0.5102  1.1388
  245SOL     MW  980   1.301   0.163   2.399  0.1772 -0.1173  0.6732
  246SOL     OW  981   1.235   1.098   2.089  0.1970  0.1964  0.3148
  246SOL    HW1  982   1.190   1.127   2.165 -0.8833  0.9016  0.5095
  246SOL    HW2  983   1.319   1.073   2.139  0.3814 -0.4699  2.4682
  246SOL     MW  984   1.240   1.099   2.106  0.0788  0.2015  0.6246
  247SOL     OW  985   0.767   0.649   0.129  0.0716  0.0349  0.2031
  247SOL    HW1  986   0.726   0.738   0.123 -0.0990  1.0341 -1.7653
  247SOL    HW2  987   0.863   0.669   0.124 -1.1668 -1.2886 -1.0242
  247SOL     MW  988   0.774   0.663   0.127 -0.1143 -0.0079 -0.2185
  248SOL     OW  989   0.299   1.287   2.536 -0.2389  0.2249  0.1191
  248SOL    HW1  990   0.308   1.319   2.441 -0.9998  1.4662 -0.2364
  248SOL    HW2  991   0.316   1.370   2.585 -0.7601 -0.7872 -2.8207
  248SOL     MW  992   0.302   1.302   2.530 -0.4081  0.2551 -0.3157
  249SOL     OW  993   2.976   1.935   2.790 -0.5154  0.1057 -0.4735
  249SOL    HW1  994   2.933   1.853   2.772  0.3988 -1.0136  0.2521
  249SOL    HW2  995   3.056   1.910   2.837 -0.8335  0.0644 -1.7410
  249SOL     MW  996   2.981   1.921   2.794 -0.4367 -0.0474 -0.5450
  250SOL     OW  997   2.205   0.811   2.194  0.8268  0.5069 -0.2144
  250SOL    HW1  998   2.177   0.726   2.233 -4.5107 -3.3086  3.5288
  250SOL    HW2  999   2.160   0.876   2.243 -2.7979 -0.9284 -2.6857
  250SOL     MW 1000   2.196   0.808   2.205 -0.3557 -0.1858 -0.0466
  251SOL     OW 1001   0.128   0.877   2.046 -0.0227  0.0698  0.4553
  251SOL    HW1 1002   0.075   0.797   2.064 -1.6963 -2.3429  2.6799
  251SOL    HW2 1003   0.132   0.880   1.950 -0.4467  0.4455  2.1590
  251SOL     MW 1004   0.122   0.867   2.036 -0.2995 -0.1989  0.9736
  252SOL     OW 1005   1.679   0.971   2.845  0.1703 -0.6223  0.1534
  252SOL    HW1 1006   1.643   1.034   2.911  2.2170 -0.1513  2.8206
  252SOL    HW2 1007   1.752   1.016   2.793  1.4442  2.5693  0.1471
  252SOL     MW 1008   1.684   0.985   2.847  0.6084 -0.1390  0.5044
  253SOL     OW 1009   1.179   1.719   2.461 -0.3905  0.5907 -0.1871
  253SOL    HW1 1010   1.163   1.685   2.371  1.6439 -2.0290 -1.2602
  253SOL    HW2 1011   1.097   1.736   2.511  4.3393 -1.1727  1.9160
  253SOL     MW 1012   1.166   1.717   2.456  0.5020  0.0124 -0.0512
  254SOL     OW 1013   0.958   1.125   2.223 -0.2604 -0.0680 -0.0010
  254SOL    HW1 1014   0.938   1.028   2.214 -1.6965 -1.3835 -0.5126
  254SOL    HW2 1015   0.911   1.166   2.301  2.3132  4.2739  0.4527
  254SOL     MW 1016   0.949   1.118   2.232 -0.1103  0.3313 -0.0087
  255SOL     OW 1017   0.836   2.560   2.118  0.3810  0.1749 -0.1994
  255SOL    HW1 1018   0.768   2.493   2.111  1.7799  0.4132  0.9746
  255SOL    HW2 1019   0.896   2.494   2.137 -2.1233  2.0883 -0.0078
  255SOL     MW 1020   0.835   2.542   2.120  0.2351  0.4588 -0.0193
  256SOL     OW 1021   1.224   2.765   2.997  0.4369 -0.1611 -0.0731
  256SOL    HW1 1022   1.237   2.676   3.035  2.0512 -1.0248  0.8216
  256SOL    HW2 1023   1.303   2.781   2.941  2.1553  0.6686 -1.4033
  256SOL     MW 1024   1.236   2.755   2.995  0.8766 -0.1656 -0.1305
  257SOL     OW 1025   0.023   1.879   0.111 -0.3577  0.0784  0.3142
  257SOL    HW1 1026   0.098   1.843   0.163  0.3587  2.1903 -0.6362
  257SOL    HW2 1027   0.061   1.872   0.025 -0.4611 -0.8450 -0.8511
  257SOL     MW 1028   0.038   1.874   0.107 -0.2768  0.2352  0.0350
  258SOL     OW 1029   0.648   1.003   2.462  0.3768  0.3830  0.3007
  258SOL    HW1 1030   0.700   1.082   2.459  1.7539 -4.2890  1.8194
  258SOL    HW2 1031   0.610   1.004   2.549 -0.4844 -1.7250  0.7640
  258SOL     MW 1032   0.650   1.013   2.473  0.4448 -0.5116  0.5622
  259SOL     OW 1033   0.836   0.500   2.263  0.1904 -0.6460 -0.4461
  259SOL    HW1 1034   0.758   0.452   2.263 -0.7816  1.4759 -1.0038
  259SOL    HW2 1035   0.908   0.438   2.281  1.5160  0.9279  1.4720
  259SOL     MW 1036   0.835   0.485   2.265  0.2371 -0.1584 -0.2666
  260SOL     OW 1037   0.652   0.130   1.576  0.1759  0.6583  0.2011
  260SOL    HW1 1038   0.600   0.186   1.524  1.8016 -1.3374 -0.2515
  260SOL    HW2 1039   0.723   0.102   1.521  1.0332  0.0580  2.3776
  260SOL     MW 1040   0.654   0.134   1.562  0.5035  0.3157  0.4285
  261SOL     OW 1041   1.035   0.701   1.996  0.5664  0.2222 -0.1808
  261SOL    HW1 1042   1.080   0.693   2.079 -0.0786  0.7950  0.2563
  261SOL    HW2 1043   0.985   0.624   1.985 -0.2289  0.9494  2.4492
  261SOL     MW 1044   1.035   0.690   2.006  0.3764  0.3937  0.2239
  262SOL     OW 1045   1.149   0.392   0.101 -0.5885  0.5202  0.0534
  262SOL    HW1 1046   1.243   0.363   0.102  1.7333  1.5074  1.7307
  262SOL    HW2 1047   1.103   0.335   0.035  0.5362 -0.9438 -1.6933
  262SOL     MW 1048   1.155   0.381   0.093 -0.1337  0.4573  0.0442
  263SOL     OW 1049   0.375   0.021   2.525  0.0516  0.0086  0.8052
  263SOL    HW1 1050   0.286   0.052   2.511  3.0480 -0.2550  0.8993
  263SOL    HW2 1051   0.420   0.070   2.454 -0.0516  0.1516  2.3258
  263SOL     MW 1052   0.369   0.031   2.514  0.4333 -0.0073  1.0182
  264SOL     OW 1053   1.531   1.447   1.932 -0.1658  0.6012  0.0420
  264SOL    HW1 1054   1.473   1.375   1.904 -2.4402  2.6280 -0.3449
  264SOL    HW2 1055   1.611   1.405   1.959 -2.0457  0.9567 -3.9900
  264SOL     MW 1056   1.534   1.432   1.932 -0.7139  0.9155 -0.5410
  265SOL     OW 1057   0.729   2.823   2.275 -0.0700  0.5702 -0.1087
  265SOL    HW1 1058   0.798   2.755   2.270 -1.1883 -1.6748  1.4779
  265SOL    HW2 1059   0.690   2.808   2.361 -0.2731 -0.4924  0.1741
  265SOL     MW 1060   0.733   2.812   2.285 -0.2443  0.1338  0.1380
  266SOL     OW 1061   0.847   0.887   2.148 -0.7103 -0.3202  0.6128
  266SOL    HW1 1062   0.826   0.968   2.098  1.4321  1.9174  1.5290
  266SOL    HW2 1063   0.895   0.833   2.097 -2.5716 -0.2079  0.5595
  266SOL     MW 1064   0.851   0.891   2.134 -0.6732 -0.0101  0.7266
  267SOL     OW 1065   1.368   1.675   2.662  0.1257 -0.0101  0.2866
  267SOL    HW1 1066   1.438   1.619   2.643  0.0502  0.5904  0.2355
  267SOL    HW2 1067   1.326   1.698   2.578 -0.3415 -1.2374  1.5889
  267SOL     MW 1068   1.372   1.671   2.648  0.0541 -0.0928  0.4516
  268SOL     OW 1069   0.152   0.894   1.772 -0.5719 -0.2571  0.1372
  268SOL    HW1 1070   0.135   0.987   1.741  1.4174  0.0523 -4.5146
  268SOL    HW2 1071   0.110   0.839   1.704  0.3932  3.0508 -3.2998
  268SOL     MW 1072   0.144   0.899   1.759 -0.1821  0.2201 -0.9301
  269SOL     OW 1073   1.299   1.890   2.298  0.0554  0.2787 -0.1245
  269SOL    HW1 1074   1.351   1.953   2.347 -1.7016 -0.2171 -0.1045
  269SOL    HW2 1075   1.250   1.830   2.363  0.4126  0.1405  1.0707
  269SOL     MW 1076   1.299   1.890   2.313 -0.1293  0.1950  0.0359
  270SOL     OW 1077   1.118   0.359   1.557  0.0707  0.0190 -0.4446
  270SOL    HW1 1078   1.087   0.279   1.602 -2.1202 -1.3452 -0.9501
  270SOL    HW2 1079   1.213   0.363   1.576 -1.0413 -0.6864  1.2053
  270SOL     MW 1080   1.126   0.349   1.565 -0.3651 -0.2540 -0.2936
  271SOL     OW 1081   0.897   0.132   2.489  0.4553  0.3025  0.1164
  271SOL    HW1 1082   0.949   0.058   2.514  0.2757  1.8980  1.4021
  271SOL    HW2 1083   0.949   0.199   2.442 -2.0498 -1.8669 -0.2404
  271SOL     MW 1084   0.911   0.131   2.486  0.1011  0.2268  0.2390
  272SOL     OW 1085   1.467   2.785   2.817  0.4342 -0.1301 -0.1403
  272SOL    HW1 1086   1.421   2.791   2.735  2.1688  0.5495  0.0656
  272SOL    HW2 1087   1.505   2.872   2.824 -0.3915 -2.1683 -0.6577
  272SOL     MW 1088   1.466   2.798   2.807  0.5541 -0.3093 -0.1814
  273SOL     OW 1089   1.417   0.815   2.771  0.3945  0.3316  0.3669
  273SOL    HW1 1090   1.494   0.762   2.765  1.2101  0.1345 -0.8523
  273SOL    HW2 1091   1.446   0.898   2.730  0.0875 -0.1922  3.6787
  273SOL     MW 1092   1.431   0.819   2.765  0.4616  0.2365  0.6430
  274SOL     OW 1093   1.452   0.668   0.147 -0.2380 -0.7239 -0.5347
  274SOL    HW1 1094   1.492   0.587   0.179 -0.7315 -0.1682  1.9570
  274SOL    HW2 1095   1.383   0.689   0.213 -0.5573 -1.2563 -1.8423
  274SOL     MW 1096   1.448   0.660   0.160 -0.3452 -0.7208 -0.3785
  275SOL     OW 1097   1.805   0.544   1.744  0.2407 -0.0234 -0.1916
  275SOL    HW1 1098   1.864   0.584   1.812  1.2002  0.3879  1.5384
  275SOL    HW2 1099   1.812   0.450   1.754 -0.7195 -1.6107 -0.8788
  275SOL     MW 1100   1.814   0.537   1.754  0.2406 -0.1785 -0.0540
  276SOL     OW 1101   0.438   1.201   1.918 -0.6537 -0.1841  0.4034
  276SOL    HW1 1102   0.447   1.103   1.938  3.3101 -1.6957  0.7229
  276SOL    HW2 1103   0.377   1.240   1.988 -0.5963  2.7109  0.9381
  276SOL     MW 1104   0.431   1.193   1.930 -0.1232 -0.0015  0.5161
  277SOL     OW 1105   1.971   1.102   2.439 -0.1259  0.8902  0.1109
  277SOL    HW1 1106   2.008   1.188   2.458 -1.5511  2.2194 -1.8118
  277SOL    HW2 1107   1.975   1.096   2.345 -2.1487 -1.6278  0.8957
  277SOL     MW 1108   1.977   1.112   2.429 -0.5808  0.7334 -0.0393
  278SOL     OW 1109   1.426   0.628   1.703 -1.0618 -0.1049 -0.0839
  278SOL    HW1 1110   1.434   0.565   1.788 -0.4985 -4.0096  1.0345
  278SOL    HW2 1111   1.518   0.641   1.690 -2.2664 -0.5575 -1.1158
  278SOL     MW 1112   1.439   0.622   1.713 -1.1464 -0.6798 -0.0725
  279SOL     OW 1113   0.516   0.087   2.289 -0.4743  0.4533 -0.5978
  279SOL    HW1 1114   0.608   0.050   2.298  2.4042  2.2473 -1.5943
  279SOL    HW2 1115   0.527   0.177   2.254  1.0379  0.5647 -0.9482
  279SOL     MW 1116   0.530   0.094   2.285  0.1050  0.7047 -0.7755
  280SOL     OW 1117   1.469   1.078   2.214 -0.1346 -0.2576  0.2576
  280SOL    HW1 1118   1.515   1.008   2.171 -2.9759 -0.3701 -0.3033
  280SOL    HW2 1119   1.466   1.041   2.306 -0.7101  0.7847  0.5704
  280SOL     MW 1120   1.475   1.064   2.221 -0.5854 -0.1349  0.2249
  281SOL     OW 1121   1.324   1.152   2.725  0.3758  0.3571  0.6077
  281SOL    HW1 1122   1.393   1.219   2.722  0.3638 -2.0114  0.1138
  281SOL    HW2 1123   1.322   1.120   2.816 -3.7363 -0.7994  1.3559
  281SOL     MW 1124   1.333   1.157   2.737 -0.1683 -0.1080  0.6413
  282SOL     OW 1125   1.189   1.268   1.591 -0.0489 -0.0163  0.0400
  282SOL    HW1 1126   1.160   1.347   1.550 -1.8334 -2.6594 -0.3486
  282SOL    HW2 1127   1.107   1.214   1.623 -1.4345 -3.6237 -1.3190
  282SOL     MW 1128   1.174   1.271   1.590 -0.4671 -0.8410 -0.1906
  283SOL     OW 1129   0.820   1.402   0.006 -0.6672 -0.2292 -0.2918
  283SOL    HW1 1130   0.911   1.382   0.027  0.7904  0.1312 -3.0857
  283SOL    HW2 1131   0.815   1.481  -0.048  0.7186 -1.8803 -0.7456
  283SOL     MW 1132   0.831   1.410   0.002 -0.2920 -0.3995 -0.7203
  284SOL     OW 1133   0.389   0.696   2.319 -0.2455  0.2408 -0.4637
  284SOL    HW1 1134   0.468   0.762   2.315  1.2149  0.0775  2.2698
  284SOL    HW2 1135   0.391   0.633   2.239 -1.7592 -0.9388 -2.5537
  284SOL     MW 1136   0.400   0.696   2.308 -0.2525  0.0636 -0.3788
  285SOL     OW 1137   0.885   0.830   2.881 -0.1463 -0.5136 -0.2482
  285SOL    HW1 1138   0.904   0.857   2.793  0.0190 -0.4985 -0.6408
  285SOL    HW2 1139   0.836   0.751   2.862  0.2272  1.2758  2.4816
  285SOL     MW 1140   0.881   0.823   2.867 -0.0752 -0.2755  0.0602
  286SOL     OW 1141   1.113   1.462   2.622 -0.4303 -0.2309  0.9344
  286SOL    HW1 1142   1.159   1.384   2.611  2.6025  3.2475 -0.4217
  286SOL    HW2 1143   1.170   1.536   2.592 -2.1324  0.5889  1.0941
  286SOL     MW 1144   1.126   1.462   2.616 -0.2547  0.3362  0.7765
  287SOL     OW 1145   1.183   0.990   0.371 -0.1930 -0.8975 -0.1474
  287SOL    HW1 1146   1.121   1.002   0.440 -0.3450 -1.3214 -2.9878
  287SOL    HW2 1147   1.125   1.014   0.291 -3.0459 -0.6159  0.9095
  287SOL     MW 1148   1.167   0.995   0.369 -0.5895 -0.9163 -0.3827
  288SOL     OW 1149   1.468   0.618   2.135  0.3431  0.1335  0.2739
  288SOL    HW1 1150   1.406   0.578   2.208 -1.1736 -0.7998  1.6740
  288SOL    HW2 1151   1.466   0.706   2.167 -0.4042 -2.9108 -0.4960
  288SOL     MW 1152   1.459   0.625   2.149  0.0444 -0.3913  0.3570
  289SOL     OW 1153   0.915   0.951   2.600 -0.6375  0.0986  0.1765
  289SOL    HW1 1154   0.966   0.898   2.545 -0.8615  1.4146 -0.6731
  289SOL    HW2 1155   0.825   0.947   2.564  0.8590  0.6718  1.2318
  289SOL     MW 1156   0.910   0.943   2.588 -0.4696  0.3479  0.2036
  290SOL     OW 1157   0.780   0.655   1.465 -0.9645 -0.0437  0.2500
  290SOL    HW1 1158   0.805   0.580   1.412 -0.5608 -0.6162  1.5384
  290SOL    HW2 1159   0.846   0.649   1.536 -0.4864  0.1267  0.8826
  290SOL     MW 1160   0.792   0.645   1.467 -0.8482 -0.0967  0.5034
  291SOL     OW 1161   0.239   0.332   0.141  0.4716 -0.0589 -0.2735
  291SOL    HW1 1162   0.332   0.318   0.175 -0.2954 -1.2000  0.1779
  291SOL    HW2 1163   0.209   0.245   0.114  0.6075  0.5110 -1.5943
  291SOL     MW 1164   0.247   0.319   0.141  0.3883 -0.1342 -0.3882
  292SOL     OW 1165   1.026   0.624   0.107 -0.1212 -0.2439  0.3174
  292SOL    HW1 1166   1.095   0.670   0.151 -0.2648 -1.4016 -0.0038
  292SOL    HW2 1167   1.074   0.540   0.083 -1.2858  0.7732 -0.5876
  292SOL     MW 1168   1.041   0.619   0.109 -0.2938 -0.2624  0.1556
  293SOL     OW 1169   0.098   0.091   2.562  0.1486 -0.6527  0.1565
  293SOL    HW1 1170   0.080   0.062   2.473 -0.3788 -0.2857  1.4184
  293SOL    HW2 1171   0.014   0.118   2.601 -1.5184 -0.8465  0.9004
  293SOL     MW 1172   0.085   0.090   2.555 -0.1409 -0.6298  0.4211
  294SOL     OW 1173   1.337   0.472   2.343  0.7618 -0.3972 -0.0937
  294SOL    HW1 1174   1.366   0.527   2.413 -0.1032 -0.3983  1.7054
  294SOL    HW2 1175   1.329   0.383   2.375 -3.7060  1.3963 -0.1209
  294SOL     MW 1176   1.340   0.468   2.356  0.0582 -0.1607  0.1400
  295SOL     OW 1177   0.846   0.613   2.544 -0.1769  0.1176  0.2438
  295SOL    HW1 1178   0.800   0.605   2.460  0.1336 -1.8471 -2.2967
  295SOL    HW2 1179   0.770   0.612   2.608  0.3382 -0.2906  0.2925
  295SOL     MW 1180   0.830   0.612   2.542 -0.0680 -0.1955 -0.0850
  296SOL     OW 1181   1.282   0.276   2.059  0.7117  0.4580 -0.0419
  296SOL    HW1 1182   1.332   0.196   2.047  3.3905  1.5377  0.8494
  296SOL    HW2 1183   1.282   0.298   2.153 -0.6450  2.8987  1.6088
  296SOL     MW 1184   1.288   0.268   2.070  0.8861  0.9225  0.2935
  297SOL     OW 1185   1.369   0.378   1.607 -0.9829 -0.1480  0.0363
  297SOL    HW1 1186   1.380   0.464   1.642  0.4805  0.2102 -1.4526
  297SOL    HW2 1187   1.431   0.321   1.653  0.4064  0.0410  0.1881
  297SOL     MW 1188   1.379   0.382   1.618 -0.6065 -0.0758 -0.1401
  298SOL     OW 1189   1.587   0.874   2.091  0.0574 -0.5156 -0.5070
  298SOL    HW1 1190   1.627   0.913   2.011  0.8746  0.7157 -0.9834
  298SOL    HW2 1191   1.668   0.852   2.139 -1.5116  0.8582 -1.3189
  298SOL     MW 1192   1.603   0.876   2.087 -0.0418 -0.1719 -0.6770
  299SOL     OW 1193   0.586   1.186   0.091  0.3953  0.1015  0.5188
  299SOL    HW1 1194   0.561   1.157   0.002 -1.8920 -1.3884  0.4283
  299SOL    HW2 1195   0.678   1.215   0.093  0.0092  1.8621  1.4046
  299SOL     MW 1196   0.594   1.186   0.079  0.0426  0.1372  0.6237
  300SOL     OW 1197   1.093   1.161   2.551 -0.2112 -0.3385 -0.2332
  300SOL    HW1 1198   1.034   1.088   2.556  1.0154 -0.4019 -0.7599
  300SOL    HW2 1199   1.162   1.141   2.621  1.0161 -0.2904  1.0996
  300SOL     MW 1200   1.095   1.149   2.561  0.1126 -0.3405 -0.1268
  301SOL     OW 1201   1.461   1.068   0.749  0.4709  0.2526 -0.3093
  301SOL    HW1 1202   1.493   1.091   0.837 -1.1131  0.2233 -0.1209
  301SOL    HW2 1203   1.412   0.983   0.766 -0.8804 -0.9497  1.6883
  301SOL     MW 1204   1.459   1.060   0.763  0.0836  0.0901 -0.0209
  302SOL     OW 1205   0.171   1.586   2.033 -0.3046  0.5807 -0.0361
  302SOL    HW1 1206   0.161   1.489   2.011  1.8953  1.0860  0.6800
  302SOL    HW2 1207   0.088   1.624   2.067  0.2771  1.2812  2.4286
  302SOL     MW 1208   0.159   1.578   2.034  0.0624  0.7398  0.3836
  303SOL     OW 1209   0.326   1.776   2.655 -0.4296  0.2361  0.3759
  303SOL    HW1 1210   0.263   1.770   2.585  0.9877 -3.2827 -2.3854
  303SOL    HW2 1211   0.274   1.802   2.732 -0.5311 -0.0913  0.3225
  303SOL     MW 1212   0.311   1.778   2.656 -0.2560 -0.2714  0.0045
  304SOL     OW 1213   0.495   2.050   2.463  0.5235  0.0682  1.1677
  304SOL    HW1 1214   0.570   2.091   2.411  1.8914  1.4790 -1.1208
  304SOL    HW2 1215   0.535   1.962   2.478 -2.8497 -2.2165 -0.6067
  304SOL     MW 1216   0.510   2.044   2.458  0.2589 -0.0471  0.6316
  305SOL     OW 1217   1.133   0.669   0.538  0.3300 -0.2112  0.2583
  305SOL    HW1 1218   1.049   0.650   0.502  1.7613 -1.1250  1.9066
  305SOL    HW2 1219   1.169   0.582   0.562 -1.3778 -3.1157 -0.9431
  305SOL     MW 1220   1.127   0.655   0.536  0.2935 -0.7150  0.3172
  306SOL     OW 1221   1.093   1.520   0.279  0.1807  0.2035  0.6632
  306SOL    HW1 1222   1.136   1.441   0.311 -0.9553 -0.0900 -2.3674
  306SOL    HW2 1223   1.158   1.535   0.208  2.4472 -0.6690  2.3375
  306SOL     MW 1224   1.107   1.511   0.274  0.3298  0.0496  0.4842
  307SOL     OW 1225   1.405   0.475   1.913  0.5473  0.3257  0.2729
  307SOL    HW1 1226   1.354   0.398   1.940  0.0325  0.6591  0.5699
  307SOL    HW2 1227   1.404   0.540   1.985  0.1037  1.6989 -0.4200
  307SOL     MW 1228   1.399   0.474   1.926  0.4208  0.5508  0.2207
  308SOL     OW 1229   2.204   0.505   2.692 -0.0686  0.3414  0.3642
  308SOL    HW1 1230   2.297   0.492   2.715 -1.3386  1.2637  0.7143
  308SOL    HW2 1231   2.184   0.599   2.711  2.7543 -1.9863  1.8487
  308SOL     MW 1232   2.214   0.516   2.698  0.1363  0.1560  0.6063
  309SOL     OW 1233   0.508   0.568   0.242 -0.1605 -0.1952 -0.0523
  309SOL    HW1 1234   0.600   0.575   0.216 -0.0699  1.3203  2.2456
  309SOL    HW2 1235   0.498   0.473   0.234  2.4077  1.3770  0.5389
  309SOL     MW 1236   0.519   0.557   0.238  0.1903  0.2122  0.3289
  310SOL     OW 1237   0.428   0.582   1.885 -0.4111 -0.1457  0.1804
  310SOL    HW1 1238   0.459   0.507   1.826 -1.4438 -1.4449  0.8265
  310SOL    HW2 1239   0.460   0.668   1.839  1.2445  1.2853 -0.2746
  310SOL     MW 1240   0.436   0.584   1.871 -0.3289 -0.1283  0.2056
  311SOL     OW 1241   1.969   0.620   1.958  0.0854  0.3433  0.1235
  311SOL    HW1 1242   1.914   0.658   2.031 -0.3600  0.3662 -1.6242
  311SOL    HW2 1243   2.021   0.540   1.990  1.1142 -1.7009  0.3783
  311SOL     MW 1244   1.969   0.615   1.972  0.1624  0.0766 -0.0735
  312SOL     OW 1245   1.734   2.439   0.103  0.1687 -0.1094 -0.0274
  312SOL    HW1 1246   1.748   2.412   0.195 -2.7055 -1.7476  0.8440
  312SOL    HW2 1247   1.666   2.511   0.107 -2.0200 -1.8462  0.1990
  312SOL     MW 1248   1.727   2.445   0.116 -0.4993 -0.5547  0.1174
  313SOL     OW 1249   0.138   1.120   3.033  0.0677  0.0919 -0.1210
  313SOL    HW1 1250   0.098   1.152   3.117 -0.2737  1.1086 -0.0799
  313SOL    HW2 1251   0.163   1.201   2.985 -0.8810 -1.3433  1.6103
  313SOL     MW 1252   0.136   1.135   3.037 -0.1025  0.0367  0.1129
  314SOL     OW 1253   2.160   2.946   0.024 -0.3123  0.4475 -0.5334
  314SOL    HW1 1254   2.124   2.946  -0.062  1.0849 -1.8763  2.8276
  314SOL    HW2 1255   2.214   3.033   0.034  2.2984 -0.1321  2.0862
  314SOL     MW 1256   2.162   2.957   0.014  0.2165  0.0644  0.2557
  315SOL     OW 1257   1.540   1.838   2.963 -0.2431  0.1670  0.0858
  315SOL    HW1 1258   1.501   1.875   3.045  2.0639 -0.4697 -0.0713
  315SOL    HW2 1259   1.575   1.911   2.907  0.6552  2.0924  0.6571
  315SOL     MW 1260   1.540   1.852   2.966  0.1798  0.3370  0.1404
  316SOL     OW 1261   1.198   0.644   2.703  0.1342  0.0006  0.4608
  316SOL    HW1 1262   1.285   0.691   2.718 -0.0802 -0.6492 -0.0096
  316SOL    HW2 1263   1.159   0.636   2.798  0.1395  0.3645  0.4784
  316SOL     MW 1264   1.204   0.649   2.718  0.1066 -0.0372  0.4011
  317SOL     OW 1265   0.672   1.581   2.636  0.3834 -0.5008 -0.0105
  317SOL    HW1 1266   0.748   1.528   2.659  5.1948 -1.3297 -0.6088
  317SOL    HW2 1267   0.680   1.573   2.537  2.7952 -1.1581  1.1623
  317SOL     MW 1268   0.683   1.573   2.626  1.3364 -0.6969  0.0653
  318SOL     OW 1269   1.334   0.378   2.956  0.5698 -0.1775 -0.2224
  318SOL    HW1 1270   1.261   0.437   2.955  1.2960 -2.9238  0.7436
  318SOL    HW2 1271   1.413   0.428   2.914 -0.4008  2.6613 -2.8267
  318SOL     MW 1272   1.335   0.393   2.950  0.5376 -0.1653 -0.4386
  319SOL     OW 1273   0.788   0.427   2.819 -0.3093  0.2164  0.7219
  319SOL    HW1 1274   0.798   0.337   2.801 -1.5341  0.3374 -1.8485
  319SOL    HW2 1275   0.759   0.435   2.909  2.2246 -2.8311 -2.4334
  319SOL     MW 1276   0.785   0.416   2.828 -0.1366 -0.1697 -0.0336
  320SOL     OW 1277   1.058   1.358   1.962  0.2403 -0.1812 -0.1304
  320SOL    HW1 1278   1.108   1.316   2.032 -1.1790 -3.2136  1.7916
  320SOL    HW2 1279   1.112   1.431   1.925 -2.1144  0.7952  0.6956
  320SOL     MW 1280   1.072   1.362   1.967 -0.2576 -0.4524  0.2322
  321SOL     OW 1281   1.085   0.910   3.048 -0.2777 -0.0891  0.3068
  321SOL    HW1 1282   1.013   0.883   2.988  1.1459 -0.9300 -0.8111
  321SOL    HW2 1283   1.133   0.824   3.065 -1.8334 -1.1500 -2.9768
  321SOL     MW 1284   1.082   0.895   3.043 -0.2951 -0.3401 -0.2740
  322SOL     OW 1285   1.253   0.848   1.661 -0.0213 -0.4726  0.0335
  322SOL    HW1 1286   1.319   0.782   1.676  1.1154  2.1017  0.4551
  322SOL    HW2 1287   1.218   0.883   1.742 -0.7264  1.2754 -1.2345
  322SOL     MW 1288   1.257   0.844   1.674  0.0357  0.0977 -0.0781
  323SOL     OW 1289   1.239   1.561   1.898 -0.2030 -0.6636  0.5008
  323SOL    HW1 1290   1.283   1.574   1.815  0.6810 -1.8319  0.4342
  323SOL    HW2 1291   1.223   1.648   1.936  0.0899 -0.6589 -0.4741
  323SOL     MW 1292   1.242   1.574   1.892 -0.0477 -0.8171  0.3634
  324SOL     OW 1293   1.456   1.007   2.475  0.2974  0.3933  0.5801
  324SOL    HW1 1294   1.387   1.065   2.529 -4.2999  0.5533  1.3838
  324SOL    HW2 1295   1.539   1.060   2.478  0.1933  0.8617 -1.3499
  324SOL     MW 1296   1.458   1.021   2.483 -0.3229  0.4762  0.4315
  325SOL     OW 1297   1.047   0.535   2.908 -0.2095  0.2092 -0.6777
  325SOL    HW1 1298   1.021   0.586   2.986  0.4479  0.3512  2.5618
  325SOL    HW2 1299   0.971   0.498   2.867 -1.0417 -2.1205  0.9777
  325SOL     MW 1300   1.034   0.537   2.913 -0.2325 -0.0794 -0.0319
  326SOL     OW 1301   0.344   1.401   2.287  0.6580  0.1588  0.0619
  326SOL    HW1 1302   0.432   1.358   2.287  1.7344 -1.4599 -0.5657
  326SOL    HW2 1303   0.365   1.491   2.266 -1.8851  3.6911  1.8908
  326SOL     MW 1304   0.358   1.407   2.284  0.4645  0.4113  0.2204
  327SOL     OW 1305   1.963   0.813   2.419  0.2110 -0.1918 -0.2000
  327SOL    HW1 1306   1.901   0.766   2.479  0.8065 -1.7514  1.0416
  327SOL    HW2 1307   1.949   0.899   2.452  1.5096  0.9621 -0.6199
  327SOL     MW 1308   1.953   0.818   2.431  0.4609 -0.2453 -0.0916
  328SOL     OW 1309   0.209   1.301   2.050  0.6782 -0.3729  0.2816
  328SOL    HW1 1310   0.128   1.260   2.071 -0.3795  1.1397  2.8617
  328SOL    HW2 1311   0.240   1.334   2.133  0.4210 -0.3589  1.7823
  328SOL     MW 1312   0.202   1.300   2.063  0.5047 -0.1715  0.8200
  329SOL     OW 1313   0.031   0.112   1.393  0.2663  0.0186 -0.5333
  329SOL    HW1 1314   0.004   0.129   1.484 -2.3752  1.9532  0.1112
  329SOL    HW2 1315   0.127   0.137   1.400 -1.4623 -1.2729 -0.4478
  329SOL     MW 1316   0.040   0.118   1.406 -0.3103  0.1035 -0.4370
  330SOL     OW 1317   0.390   3.100   2.041 -0.0899  0.3482  0.0615
  330SOL    HW1 1318   0.454   3.129   2.108  1.3569 -1.0938 -0.9811
  330SOL    HW2 1319   0.323   3.049   2.090 -0.9398  1.2580  0.0544
  330SOL     MW 1320   0.390   3.097   2.056 -0.0112  0.2780 -0.0770
  331SOL     OW 1321   0.780   1.241   2.410  0.0026  0.4412 -0.7783
  331SOL    HW1 1322   0.723   1.295   2.353  1.7795 -2.9161 -0.9312
  331SOL    HW2 1323   0.807   1.303   2.480 -0.4055 -0.6663  0.2926
  331SOL     MW 1324   0.776   1.257   2.412  0.1832 -0.1479 -0.6572
  332SOL     OW 1325   1.342   1.631   2.939  0.8325 -0.2360  0.2199
  332SOL    HW1 1326   1.333   1.625   2.843 -1.0195  2.0675 -1.6576
  332SOL    HW2 1327   1.411   1.702   2.945 -1.5457  2.0837  0.7330
  332SOL     MW 1328   1.350   1.639   2.927  0.2744  0.3740  0.0399
  333SOL     OW 1329   1.677   1.327   2.943 -0.4526 -0.8558  0.2303
  333SOL    HW1 1330   1.771   1.356   2.959  1.1743  1.4514  0.4095
  333SOL    HW2 1331   1.682   1.247   2.992 -1.1471 -0.1936 -3.0585
  333SOL     MW 1332   1.690   1.320   2.952 -0.3296 -0.4640 -0.1800
  334SOL     OW 1333   1.308   0.011   2.607  0.4093  0.8848 -0.6848
  334SOL    HW1 1334   1.227  -0.001   2.661 -1.0595 -0.4774 -0.0845
  334SOL    HW2 1335   1.348   0.077   2.667 -1.3647 -1.7387 -0.9053
  334SOL     MW 1336   1.302   0.018   2.622 -0.0186  0.3589 -0.6347
  335SOL     OW 1337   1.301   0.695   3.019  0.4040  0.1249 -0.2489
  335SOL    HW1 1338   1.364   0.702   3.081  2.0693  1.6066 -2.5398
  335SOL    HW2 1339   1.352   0.729   2.945 -2.2313  0.5839  1.8305
  335SOL     MW 1340   1.316   0.700   3.018  0.2760  0.3810 -0.2768
  336SOL     OW 1341   0.964   1.160   1.715 -0.3607  0.5216  0.0657
  336SOL    HW1 1342   0.958   1.226   1.794 -2.1144 -1.4222  0.1355
  336SOL    HW2 1343   0.999   1.085   1.763  0.8105  0.1127  1.4033
  336SOL     MW 1344   0.968   1.159   1.732 -0.4375  0.2112  0.2514
  337SOL     OW 1345   0.552   1.922   2.826 -0.3809  0.3359 -0.6169
  337SOL    HW1 1346   0.504   1.889   2.749 -1.0303  0.8836 -1.4053
  337SOL    HW2 1347   0.638   1.870   2.827 -0.0125 -1.4464 -0.8303
  337SOL     MW 1348   0.557   1.911   2.816 -0.4180  0.1730 -0.7490
  338SOL     OW 1349   1.062   0.744   2.488  0.0849  0.7006 -1.1018
  338SOL    HW1 1350   0.975   0.691   2.499  0.6060 -1.4097 -0.4230
  338SOL    HW2 1351   1.121   0.722   2.568  0.9157  0.9023 -1.4626
  338SOL     MW 1352   1.058   0.734   2.500  0.2632  0.4487 -1.0599
  339SOL     OW 1353   1.436   1.202   1.861 -0.2125  0.3209  0.6463
  339SOL    HW1 1354   1.416   1.196   1.766  0.3327  2.8726  0.1097
  339SOL    HW2 1355   1.360   1.173   1.910  0.8865  1.6424  0.9941
  339SOL     MW 1356   1.423   1.197   1.855  0.0044  0.8320  0.6214
  340SOL     OW 1357   1.255   1.510   0.067  0.2827  0.0611  0.1561
  340SOL    HW1 1358   1.267   1.579   0.001  0.1433  1.1996 -0.6269
  340SOL    HW2 1359   1.350   1.492   0.098  1.8774 -1.0749 -3.2519
  340SOL     MW 1360   1.269   1.517   0.062  0.4747  0.0615 -0.3969
  341SOL     OW 1361   0.117   1.377   2.820  0.1160  0.2038 -0.4863
  341SOL    HW1 1362   0.210   1.381   2.851 -0.5978  0.0699  0.2700
  341SOL    HW2 1363   0.114   1.313   2.748  3.0400  1.6824  1.7671
  341SOL     MW 1364   0.129   1.369   2.814  0.4076  0.3812 -0.0892
  342SOL     OW 1365   1.431   0.300   0.105  0.0796  0.1367 -0.7820
  342SOL    HW1 1366   1.492   0.345   0.160  2.0604  1.1022 -1.0254
  342SOL    HW2 1367   1.433   0.347   0.020  3.6706  0.6394  0.4096
  342SOL     MW 1368   1.439   0.312   0.101  0.8147  0.3304 -0.6569
  343SOL     OW 1369   0.227   0.271   2.171 -0.5635  0.0058 -0.7959
  343SOL    HW1 1370   0.271   0.185   2.181 -2.5007 -0.6997  1.0119
  343SOL    HW2 1371   0.137   0.257   2.150  1.3519 -0.2202  1.4185
  343SOL     MW 1372   0.221   0.258   2.170 -0.5664 -0.1171 -0.2652
  344SOL     OW 1373   1.689   1.984   0.116 -0.2841 -0.7155  0.1522
  344SOL    HW1 1374   1.735   2.064   0.083  0.7120  3.1870  2.0961
  344SOL    HW2 1375   1.603   2.007   0.120  0.4619  0.0391 -0.6225
  344SOL     MW 1376   1.684   1.998   0.112 -0.0543 -0.1011  0.3065
  345SOL     OW 1377   0.687   1.594   2.356  0.1683  0.4783  0.0725
  345SOL    HW1 1378   0.594   1.603   2.328 -0.6582 -2.3730  2.3293
  345SOL    HW2 1379   0.738   1.559   2.282 -2.5547  1.0127  0.1888
  345SOL     MW 1380   0.681   1.591   2.342 -0.3000  0.1726  0.3856
  346SOL     OW 1381   1.659   1.122   3.094 -0.4180  0.6123  0.4866
  346SOL    HW1 1382   1.749   1.094   3.114 -4.0719 -0.8458  0.8435
  346SOL    HW2 1383   1.603   1.064   3.135  0.3957 -0.1579 -0.2105
  346SOL     MW 1384   1.664   1.111   3.102 -0.7927  0.3183  0.4417
  347SOL     OW 1385   1.147   0.664   2.231 -0.0028 -0.6420 -0.0370
  347SOL    HW1 1386   1.197   0.591   2.259  1.1868  1.6942 -2.5974
  347SOL    HW2 1387   1.118   0.696   2.317 -0.4172 -1.7036  1.1624
  347SOL     MW 1388   1.150   0.658   2.246  0.0995 -0.4738 -0.2166
  348SOL     OW 1389   1.337   2.546   1.907 -0.0622  0.2589 -0.0802
  348SOL    HW1 1390   1.342   2.475   1.972  1.1165  1.6863 -0.9636
  348SOL    HW2 1391   1.373   2.622   1.961  0.3041 -1.1129 -0.6452
  348SOL     MW 1392   1.342   2.546   1.923  0.1417  0.2663 -0.2713
  349SOL     OW 1393   1.456   0.162   2.778  0.5336 -0.1075  0.4072
  349SOL    HW1 1394   1.403   0.200   2.852 -1.0348 -2.3759  0.5109
  349SOL    HW2 1395   1.515   0.103   2.830  4.3175 -0.1620  0.6759
  349SOL     MW 1396   1.457   0.159   2.794  0.8259 -0.4140  0.4563
  350SOL     OW 1397   1.850   0.665   2.630  0.0682  0.2301  0.3148
  350SOL    HW1 1398   1.798   0.598   2.576 -0.8921  1.2601 -1.7722
  350SOL    HW2 1399   1.918   0.611   2.661 -3.4021 -0.7858  0.0122
  350SOL     MW 1400   1.852   0.649   2.627 -0.5163  0.2319 -0.0005
  351SOL     OW 1401   0.103   1.122   1.629  0.1996  0.2199 -0.0064
  351SOL    HW1 1402   0.014   1.125   1.672 -0.8915  1.9424 -2.4257
  351SOL    HW2 1403   0.153   1.197   1.654 -1.9567 -0.4577 -0.5467
  351SOL     MW 1404   0.098   1.132   1.638 -0.2289  0.3577 -0.3968
  352SOL     OW 1405   0.786   1.790   2.802 -0.7014  0.3669 -0.0929
  352SOL    HW1 1406   0.766   1.749   2.892 -1.9027  1.4691  0.8341
  352SOL    HW2 1407   0.740   1.732   2.738 -2.8177 -0.7371 -0.7098
  352SOL     MW 1408   0.777   1.777   2.805 -1.1391  0.3666 -0.0520
  353SOL     OW 1409   0.014   2.562   2.686 -0.1515  0.2167 -0.4065
  353SOL    HW1 1410   0.091   2.521   2.648 -0.7040  1.0808 -0.3788
  353SOL    HW2 1411  -0.003   2.629   2.620  3.2725  0.1131 -1.3795
  353SOL     MW 1412   0.022   2.566   2.673  0.2274  0.3170 -0.5312
  354SOL     OW 1413   0.348   2.449   0.892  0.4708  0.1021  0.2801
  354SOL    HW1 1414   0.391   2.418   0.972  1.8419 -0.0133 -2.0666
  354SOL    HW2 1415   0.296   2.370   0.872 -5.3098 -2.4542  0.5376
  354SOL     MW 1416   0.347   2.435   0.900 -0.1110 -0.2504  0.0044
  355SOL     OW 1417   3.097   2.175   0.382  0.7928  0.0796  0.6202
  355SOL    HW1 1418   3.014   2.132   0.371 -0.1998 -2.7743  0.5804
  355SOL    HW2 1419   3.106   2.202   0.478  0.6229  0.0432  1.6430
  355SOL     MW 1420   3.088   2.173   0.393  0.6394 -0.3018  0.7499
  356SOL     OW 1421   0.781   2.900   1.055 -0.1556  0.6821  0.5715
  356SOL    HW1 1422   0.823   2.920   0.974 -0.8484  2.8804 -0.7687
  356SOL    HW2 1423   0.685   2.900   1.041  0.1119 -0.0927  0.1102
  356SOL     MW 1424   0.774   2.903   1.042 -0.2117  0.8699  0.3338
  357SOL     OW 1425   1.840   2.818   0.483  0.2218  0.0917  0.1237
  357SOL    HW1 1426   1.790   2.756   0.535 -1.3688 -0.3244 -1.6150
  357SOL    HW2 1427   1.934   2.788   0.475  0.9908  0.2005  0.3110
  357SOL     MW 1428   1.845   2.806   0.488  0.1134  0.0512 -0.0810
  358SOL     OW 1429   0.412   0.171   1.042  0.0412  0.0936  0.3387
  358SOL    HW1 1430   0.501   0.137   1.031  1.9770 -0.0367 -1.4755
  358SOL    HW2 1431   0.376   0.189   0.953 -1.6351 -0.1645  0.8808
  358SOL     MW 1432   0.419   0.169   1.029  0.0755  0.0423  0.1709
  359SOL     OW 1433   0.897   2.985   1.842  0.3159  0.5765  0.2693
  359SOL    HW1 1434   0.922   2.894   1.859  0.7861 -2.8351  2.7860
  359SOL    HW2 1435   0.930   3.000   1.758 -0.7637 -2.0426  1.9469
  359SOL     MW 1436   0.905   2.975   1.833  0.2355 -0.2192  0.8227
  360SOL     OW 1437   0.557   2.787   0.883 -0.4226  0.3253  0.2630
  360SOL    HW1 1438   0.553   2.759   0.789  2.5454 -0.6393  1.7111
  360SOL    HW2 1439   0.551   2.705   0.932 -0.4966 -0.2150  0.3753
  360SOL     MW 1440   0.555   2.772   0.877 -0.0407  0.1268  0.4689
  361SOL     OW 1441   0.246   2.665   1.381  0.3362  1.0866 -0.1277
  361SOL    HW1 1442   0.198   2.737   1.427  0.9155  0.4397 -0.2748
  361SOL    HW2 1443   0.334   2.683   1.371 -0.6121 -1.4654 -0.7899
  361SOL     MW 1444   0.251   2.677   1.386  0.2875  0.6645 -0.2345
  362SOL     OW 1445   1.380   2.411   0.608 -0.3495  0.1172 -0.1980
  362SOL    HW1 1446   1.437   2.360   0.662  0.4741  2.1008 -0.9454
  362SOL    HW2 1447   1.413   2.501   0.586 -1.4075 -0.0567 -0.2660
  362SOL     MW 1448   1.392   2.416   0.612 -0.3804  0.3560 -0.3056
  363SOL     OW 1449   0.344   3.090   0.655  0.7552  0.3732  0.4748
  363SOL    HW1 1450   0.332   3.007   0.710 -1.9071 -0.4322 -0.4207
  363SOL    HW2 1451   0.256   3.104   0.613 -1.7841 -3.3300  3.1363
  363SOL     MW 1452   0.331   3.081   0.657  0.0689 -0.2217  0.7078
  364SOL     OW 1453   0.796   0.247   0.135 -0.0134 -0.6612  0.1621
  364SOL    HW1 1454   0.715   0.198   0.117  1.5384  1.3563 -0.5770
  364SOL    HW2 1455   0.763   0.334   0.108  0.5364 -0.6029  0.3801
  364SOL     MW 1456   0.781   0.252   0.129  0.2639 -0.3873  0.0933
  365SOL     OW 1457   0.899   2.016   1.194 -0.3186 -0.9542  0.2386
  365SOL    HW1 1458   0.880   2.099   1.144 -0.6140  1.4895  1.9796
  365SOL    HW2 1459   0.896   1.947   1.127  0.9443  3.2888  2.4916
  365SOL     MW 1460   0.896   2.018   1.178 -0.1910 -0.0719  0.7656
  366SOL     OW 1461   2.945   2.639   0.966 -0.7592  0.0714 -0.0735
  366SOL    HW1 1462   3.016   2.634   1.029  0.3255 -1.4200  1.2371
  366SOL    HW2 1463   2.990   2.693   0.897  3.2443 -2.3272  0.2015
  366SOL     MW 1464   2.960   2.646   0.965 -0.0879 -0.4419  0.1357
  367SOL     OW 1465   1.188   2.950   0.950 -0.3916  0.0825  0.6478
  367SOL    HW1 1466   1.255   3.003   0.903  2.5328  0.0580 -0.6198
  367SOL    HW2 1467   1.104   2.938   0.899 -4.4707 -1.9705 -0.2347
  367SOL     MW 1468   1.186   2.956   0.937 -0.5440 -0.1916  0.3641
  368SOL     OW 1469   1.748   0.418   0.673 -0.4135  0.1226 -0.7560
  368SOL    HW1 1470   1.806   0.358   0.635  1.7065  1.1772 -0.2159
  368SOL    HW2 1471   1.773   0.508   0.651  1.2338 -0.5926 -0.5554
  368SOL     MW 1472   1.759   0.422   0.665  0.0836  0.1674 -0.6582
  369SOL     OW 1473   0.145   2.383   1.774 -0.4024 -0.1736  0.0970
  369SOL    HW1 1474   0.242   2.363   1.764  2.2779 -2.4225  0.7700
  369SOL    HW2 1475   0.136   2.484   1.777  1.9966 -1.2368  1.0182
  369SOL     MW 1476   0.157   2.394   1.773  0.2678 -0.6106  0.3073
  370SOL     OW 1477   0.733   0.134   1.015 -0.2635  0.1793  0.6966
  370SOL    HW1 1478   0.757   0.210   0.962  2.1618 -0.8767 -0.5811
  370SOL    HW2 1479   0.816   0.091   1.024  2.3514 -1.2170  0.9579
  370SOL     MW 1480   0.747   0.139   1.009  0.4015 -0.1443  0.5625
  371SOL     OW 1481   1.230   2.835   1.492 -0.6350  0.8956 -0.3851
  371SOL    HW1 1482   1.215   2.753   1.446 -2.4049  0.1398  1.3166
  371SOL    HW2 1483   1.165   2.892   1.449 -3.6299 -0.1376 -0.2375
  371SOL     MW 1484   1.220   2.832   1.480 -1.2636  0.6596 -0.1411
  372SOL     OW 1485   0.784   2.326   0.510  0.0305 -0.2397 -0.3067
  372SOL    HW1 1486   0.738   2.246   0.534 -0.4783  0.1600  0.0813
  372SOL    HW2 1487   0.821   2.304   0.425  2.3416  1.8783  0.9735
  372SOL     MW 1488   0.783   2.313   0.502  0.2683  0.0924 -0.0866
  373SOL     OW 1489   2.841   3.004   1.426  0.0504 -0.5213  0.3379
  373SOL    HW1 1490   2.922   2.981   1.386 -1.5484  2.5597 -1.2311
  373SOL    HW2 1491   2.817   3.080   1.374  1.4449  0.1550  1.8795
  373SOL     MW 1492   2.849   3.011   1.414  0.0235 -0.0256  0.3343
  374SOL     OW 1493   1.594   0.466   0.290 -0.3271 -0.1160 -0.2513
  374SOL    HW1 1494   1.683   0.433   0.289  2.0198  2.3670  0.6025
  374SOL    HW2 1495   1.560   0.440   0.377 -2.2640  1.0482  1.1837
  374SOL     MW 1496   1.602   0.458   0.301 -0.2730  0.3652  0.0507
  375SOL     OW 1497   0.977   2.159   2.298  1.0857 -0.8134 -0.2270
  375SOL    HW1 1498   1.030   2.131   2.375 -0.2107  0.0403 -2.1580
  375SOL    HW2 1499   0.959   2.081   2.249  1.3228  2.9863 -1.1504
  375SOL     MW 1500   0.982   2.145   2.302  0.9460 -0.1994 -0.6036
  376SOL     OW 1501   0.759   2.509   0.062  0.0949 -0.3857  0.5193
  376SOL    HW1 1502   0.706   2.438   0.094  4.0621  1.0612  1.5936
  376SOL    HW2 1503   0.775   2.493  -0.030  0.9371 -1.6702  1.1389
  376SOL     MW 1504   0.754   2.497   0.054  0.7294 -0.3643  0.7428
  377SOL     OW 1505   1.306   2.052   0.913  0.1142 -0.3777  0.4604
  377SOL    HW1 1506   1.235   2.031   0.857  1.0813  0.6015  0.4844
  377SOL    HW2 1507   1.292   1.993   0.986  0.5665 -2.1500  0.4102
  377SOL     MW 1508   1.295   2.041   0.915  0.3015 -0.4824  0.4569
  378SOL     OW 1509   0.916   2.860   1.539 -0.1896 -0.2326 -0.4699
  378SOL    HW1 1510   0.963   2.778   1.578 -2.0902  0.8751  2.1524
  378SOL    HW2 1511   0.926   2.858   1.442 -1.8396  0.4626  1.0530
  378SOL     MW 1512   0.923   2.849   1.531 -0.6581  0.0053  0.0770
  379SOL     OW 1513   1.126   1.630   2.218  0.0570 -0.4691  0.2321
  379SOL    HW1 1514   1.059   1.652   2.154 -2.7762  2.0054  1.9885
  379SOL    HW2 1515   1.193   1.571   2.182 -1.5948  0.4790 -0.2308
  379SOL     MW 1516   1.126   1.625   2.205 -0.5348 -0.0175  0.4028
  380SOL     OW 1517   0.879   0.090   1.425 -0.6085  0.5568 -0.2991
  380SOL    HW1 1518   0.921   0.010   1.384 -0.0520  0.3704  0.8970
  380SOL    HW2 1519   0.926   0.099   1.508  0.3666 -0.1714  1.0657
  380SOL     MW 1520   0.891   0.081   1.431 -0.4064  0.4361  0.0388
  381SOL     OW 1521   0.831   2.049   0.831  0.2028  0.1379 -0.2966
  381SOL    HW1 1522   0.928   2.051   0.831  1.7735 -0.4983 -0.8725
  381SOL    HW2 1523   0.807   2.125   0.892 -0.3844 -2.6878  0.1008
  381SOL     MW 1524   0.840   2.059   0.839  0.3326 -0.3188 -0.3201
  382SOL     OW 1525   0.823   0.147   0.630  0.3875 -0.0021 -0.3482
  382SOL    HW1 1526   0.791   0.217   0.692  1.2241  1.2222  0.6858
  382SOL    HW2 1527   0.767   0.069   0.643 -2.8370  0.0494 -0.0710
  382SOL     MW 1528   0.811   0.146   0.640  0.0724  0.1662 -0.1752
  383SOL     OW 1529   0.596   0.066   0.317  0.4353  0.2349  0.2622
  383SOL    HW1 1530   0.653   0.015   0.257  1.1677 -0.9055 -0.6302
  383SOL    HW2 1531   0.544  -0.007   0.356 -2.3989  0.7651 -0.4882
  383SOL     MW 1532   0.597   0.050   0.314  0.1580  0.1544  0.0455
  384SOL     OW 1533   0.746   2.964   0.667 -0.2092  0.0028 -0.0658
  384SOL    HW1 1534   0.805   2.940   0.746  0.1409 -0.4627  1.2513
  384SOL    HW2 1535   0.684   2.891   0.667 -0.6122  2.8074  1.6759
  384SOL     MW 1536   0.746   2.951   0.677 -0.2161  0.3114  0.3377
  385SOL     OW 1537   1.399   2.095   1.544 -0.4233 -0.4565  0.0597
  385SOL    HW1 1538   1.449   2.159   1.596 -1.7026 -0.3814 -1.4783
  385SOL    HW2 1539   1.371   2.028   1.606  1.5137 -0.2344 -2.3735
  385SOL     MW 1540   1.402   2.094   1.559 -0.3365 -0.4173 -0.4643
  386SOL     OW 1541   1.423   0.384   0.895  0.0863  0.3202  0.4378
  386SOL    HW1 1542   1.432   0.439   0.972  0.5453  2.6257 -1.7771
  386SOL    HW2 1543   1.482   0.306   0.901  4.0165  2.2666  0.6789
  386SOL     MW 1544   1.432   0.381   0.906  0.6654  0.8812  0.1774
  387SOL     OW 1545   0.809   2.146   1.558  0.3196  0.8264  0.0086
  387SOL    HW1 1546   0.872   2.200   1.514 -3.3020  1.3408  0.5806
  387SOL    HW2 1547   0.825   2.057   1.523  1.2556 -1.0974  2.0271
  387SOL     MW 1548   0.819   2.141   1.547 -0.0347  0.6404  0.3504
  388SOL     OW 1549   1.470   2.775   1.325 -0.1769  0.0722  0.5063
  388SOL    HW1 1550   1.419   2.862   1.312  1.5144  1.5405  0.0947
  388SOL    HW2 1551   1.406   2.702   1.301  2.0982 -3.2532 -0.7275
  388SOL     MW 1552   1.455   2.777   1.320  0.3465 -0.1728  0.2892
  389SOL     OW 1553   0.528   0.146   3.064 -0.3386  0.0654  0.2790
  389SOL    HW1 1554   0.606   0.099   3.044  0.1961  0.6880 -2.7708
  389SOL    HW2 1555   0.516   0.192   2.983 -1.2201  1.8928  4.7870
  389SOL     MW 1556   0.537   0.146   3.051 -0.3843  0.3887  0.4714
  390SOL     OW 1557   1.370   0.037   0.748  0.3643  0.0978 -0.0762
  390SOL    HW1 1558   1.383   0.049   0.658 -1.0460 -0.4837  2.4150
  390SOL    HW2 1559   1.448   0.062   0.793  2.0553  1.3460 -0.6565
  390SOL     MW 1560   1.382   0.042   0.742  0.4014  0.1858  0.1759
  391SOL     OW 1561   0.355   2.194   1.523 -0.1335  0.0170  0.1528
  391SOL    HW1 1562   0.336   2.108   1.557  1.1549  2.3778 -0.1383
  391SOL    HW2 1563   0.280   2.254   1.518 -0.6605  0.9227 -0.5842
  391SOL     MW 1564   0.343   2.191   1.527 -0.0330  0.4480  0.0171
  392SOL     OW 1565   2.020   2.229   0.306 -0.6574  0.1295 -0.0626
  392SOL    HW1 1566   2.100   2.279   0.321 -1.1096 -0.0741 -1.3282
  392SOL    HW2 1567   1.947   2.290   0.326 -2.1886  0.2365  0.6593
  392SOL     MW 1568   2.021   2.244   0.310 -0.9191  0.1167 -0.1344
  393SOL     OW 1569   0.256   2.969   2.876 -0.1160 -0.0536  0.3089
  393SOL    HW1 1570   0.319   2.950   2.803  0.4568 -1.3418  2.5452
  393SOL    HW2 1571   0.233   3.063   2.849 -1.3031  0.9314 -0.9829
  393SOL     MW 1572   0.261   2.979   2.863 -0.1971 -0.0936  0.4335
  394SOL     OW 1573   1.021   1.765   1.520  0.5354  0.3735 -0.4832
  394SOL    HW1 1574   1.011   1.767   1.612  1.1053  1.7505  1.0125
  394SOL    HW2 1575   0.958   1.836   1.496  0.6389 -0.0701  0.0520
  394SOL     MW 1576   1.011   1.775   1.529  0.6242  0.4967 -0.2152
  395SOL     OW 1577   0.930   2.970   2.613 -0.3563 -0.4677  0.7838
  395SOL    HW1 1578   0.955   2.999   2.697 -0.0123  1.0421  2.5677
  395SOL    HW2 1579   0.994   2.894   2.604  0.4114  0.3150  1.2376
  395SOL     MW 1580   0.942   2.964   2.623 -0.2096 -0.1652  1.0791
  396SOL     OW 1581   0.726   1.894   2.429  0.2073  0.5761 -0.1158
  396SOL    HW1 1582   0.808   1.929   2.454  0.7929  0.2490 -0.3535
  396SOL    HW2 1583   0.741   1.807   2.396  0.8775  2.4214 -3.2789
  396SOL     MW 1584   0.739   1.887   2.428  0.3730  0.7764 -0.5645
  397SOL     OW 1585   0.967   2.302   1.378 -0.3958 -0.3180 -0.4515
  397SOL    HW1 1586   0.996   2.334   1.292  3.3539  0.5447  2.5548
  397SOL    HW2 1587   1.039   2.311   1.438  1.8462  1.5242  0.7535
  397SOL     MW 1588   0.980   2.307   1.375  0.3947  0.0389  0.1041
  398SOL     OW 1589   0.605   2.729   0.628  0.3701 -0.0929  0.0937
  398SOL    HW1 1590   0.587   2.720   0.532 -1.5430 -0.7282 -1.7499
  398SOL    HW2 1591   0.675   2.663   0.646  0.5165  0.5849  1.8382
  398SOL     MW 1592   0.612   2.719   0.617  0.1370 -0.0873  0.0806
  399SOL     OW 1593   0.276   2.101   0.322  0.3694 -0.1007 -0.4505
  399SOL    HW1 1594   0.191   2.139   0.340 -1.3284  1.1117  0.0543
  399SOL    HW2 1595   0.294   2.119   0.229  1.5629 -1.1813  1.6673
  399SOL     MW 1596   0.267   2.109   0.312  0.3029 -0.0833 -0.1044
  400SOL     OW 1597   0.593   1.891   0.117  0.4571 -0.1487 -0.0167
  400SOL    HW1 1598   0.543   1.962   0.148  2.5673 -1.7409 -0.2671
  400SOL    HW2 1599   0.594   1.833   0.195 -1.3297 -2.3903  0.5130
  400SOL     MW 1600   0.586   1.892   0.132  0.4997 -0.6545  0.0201
  401SOL     OW 1601   0.796   2.073   0.031  0.0179  0.0705 -0.1069
  401SOL    HW1 1602   0.872   2.012   0.043  1.0100  0.1983  0.2221
  401SOL    HW2 1603   0.719   2.025   0.052 -0.6076 -0.5534 -1.6944
  401SOL     MW 1604   0.796   2.059   0.035  0.0663  0.0050 -0.2730
  402SOL     OW 1605   0.538   3.012   1.713  0.3409  0.1668  0.5130
  402SOL    HW1 1606   0.590   3.019   1.790 -0.7280 -4.7498  0.0852
  402SOL    HW2 1607   0.580   3.077   1.655 -1.9643 -0.3536  0.3927
  402SOL     MW 1608   0.550   3.022   1.715 -0.1042 -0.5506  0.4407
  403SOL     OW 1609   0.125   0.522   0.397 -0.1042 -0.0127  0.5390
  403SOL    HW1 1610   0.219   0.543   0.431  0.8125  0.0127  2.3691
  403SOL    HW2 1611   0.144   0.486   0.309  2.1619 -1.9016 -2.6587
  403SOL     MW 1612   0.140   0.520   0.390  0.3157 -0.2585  0.3586
  404SOL     OW 1613   0.960   2.915   0.825  0.0754 -0.1418  0.8407
  404SOL    HW1 1614   1.020   2.855   0.779 -1.0693 -2.9984  0.4152
  404SOL    HW2 1615   0.974   3.003   0.786 -0.6922  2.0314 -1.5883
  404SOL     MW 1616   0.970   2.919   0.814 -0.1769 -0.2320  0.4641
  405SOL     OW 1617   0.455   2.472   1.506  0.5456 -0.2077 -0.2933
  405SOL    HW1 1618   0.437   2.515   1.421  3.2953 -0.3095 -1.9536
  405SOL    HW2 1619   0.519   2.411   1.486 -0.0992 -0.2326 -0.2454
  405SOL     MW 1620   0.461   2.470   1.492  0.8233 -0.2244 -0.5061
  406SOL     OW 1621   0.395   2.373   1.163  0.2947 -0.5245 -0.0798
  406SOL    HW1 1622   0.303   2.385   1.176  2.2544  0.3652 -0.6648
  406SOL    HW2 1623   0.419   2.284   1.199 -1.2284 -0.3283 -0.8267
  406SOL     MW 1624   0.386   2.363   1.169  0.3523 -0.3812 -0.2555
  407SOL     OW 1625   0.046   2.655   1.160 -0.2199  0.0659 -0.3433
  407SOL    HW1 1626   0.102   2.624   1.230 -0.3193  0.2737 -2.3782
  407SOL    HW2 1627   0.094   2.647   1.074  0.9707 -0.6336  0.1647
  407SOL     MW 1628   0.060   2.650   1.158 -0.0760  0.0010 -0.5448
  408SOL     OW 1629   2.117   2.129   0.750 -0.3319  0.0951  0.1433
  408SOL    HW1 1630   2.046   2.152   0.820  2.6732  1.2814  1.8955
  408SOL    HW2 1631   2.077   2.099   0.666  2.0677 -1.7037 -2.0126
  408SOL     MW 1632   2.102   2.128   0.748  0.3812  0.0143  0.0900
  409SOL     OW 1633   1.582   0.140   0.878  0.6569  0.0983 -0.1809
  409SOL    HW1 1634   1.652   0.192   0.916 -0.3450 -0.2765 -1.9231
  409SOL    HW2 1635   1.582   0.066   0.940 -1.6023 -1.1191 -0.4317
  409SOL     MW 1636   1.591   0.137   0.891  0.2266 -0.1118 -0.4439
  410SOL     OW 1637   1.070   2.418   1.165  0.4983 -0.5504 -0.2588
  410SOL    HW1 1638   0.990   2.421   1.108  0.3432 -0.6707  0.8321
  410SOL    HW2 1639   1.135   2.385   1.103 -0.2291 -0.8266  0.0664
  410SOL     MW 1640   1.068   2.414   1.149  0.3818 -0.6027 -0.0720
  411SOL     OW 1641   2.016   2.979   2.894  0.3184 -0.8535  1.0000
  411SOL    HW1 1642   2.023   2.947   2.806 -0.2045  0.1839  0.5073
  411SOL    HW2 1643   1.979   3.069   2.888 -1.7165 -1.2626  3.0733
  411SOL     MW 1644   2.012   2.987   2.882 -0.0191 -0.7706  1.2085
  412SOL     OW 1645   1.042   2.243   0.608 -0.3988 -0.5068 -0.0621
  412SOL    HW1 1646   1.078   2.326   0.638  0.6615 -2.3609  0.7171
  412SOL    HW2 1647   0.966   2.261   0.554 -0.6752 -2.2100  0.4849
  412SOL     MW 1648   1.037   2.256   0.605 -0.2954 -0.9762  0.1128
  413SOL     OW 1649   0.585   2.755   0.098 -0.2926 -0.4960  0.5258
  413SOL    HW1 1650   0.651   2.684   0.114  4.0570 -1.0988  1.9342
  413SOL    HW2 1651   0.612   2.797   0.009 -0.7099  0.4453  2.4451
  413SOL     MW 1652   0.597   2.751   0.088  0.2262 -0.4514  0.9649
  414SOL     OW 1653   1.993   3.045   1.123 -0.2549  0.0707 -0.7401
  414SOL    HW1 1654   2.062   3.111   1.122  1.8590  0.2764 -0.5798
  414SOL    HW2 1655   1.968   3.052   1.033  1.8249  1.1412  0.4277
  414SOL     MW 1656   1.999   3.055   1.111  0.2984  0.2391 -0.5649
  415SOL     OW 1657   1.629   2.836   1.122  0.0992  0.2772  0.1642
  415SOL    HW1 1658   1.576   2.829   1.204  0.1544  0.3275 -0.6261
  415SOL    HW2 1659   1.718   2.836   1.157  0.2037 -0.2354  1.7103
  415SOL     MW 1660   1.633   2.835   1.137  0.1202  0.2162  0.2640
  416SOL     OW 1661   0.602   1.738   1.502 -0.1122 -1.0529  0.2120
  416SOL    HW1 1662   0.503   1.719   1.497 -1.0662  0.5006  0.1895
  416SOL    HW2 1663   0.654   1.669   1.463 -0.1779  1.3699  0.2469
  416SOL     MW 1664   0.596   1.727   1.496 -0.2467 -0.5283  0.2136
  417SOL     OW 1665   0.989   3.080   2.081  0.2495  0.9775 -0.6307
  417SOL    HW1 1666   0.920   3.095   2.144  1.7531 -0.1025 -0.8670
  417SOL    HW2 1667   0.940   3.054   1.998 -0.1650 -0.6901 -1.9983
  417SOL     MW 1668   0.974   3.078   2.078  0.3932  0.6150 -0.8423
  418SOL     OW 1669   0.761   2.991   0.162  0.2246 -0.5019 -0.3033
  418SOL    HW1 1670   0.829   2.950   0.105  1.6414  0.6124 -0.3764
  418SOL    HW2 1671   0.683   2.937   0.142 -1.9376  2.1995 -2.5661
  418SOL     MW 1672   0.760   2.978   0.152  0.1263  0.0015 -0.6115
  419SOL     OW 1673   0.552   2.684   1.340  0.2667 -0.1872 -0.1404
  419SOL    HW1 1674   0.565   2.776   1.368 -1.6980  0.9987  1.6749
  419SOL    HW2 1675   0.615   2.630   1.387  1.1092 -1.7596  0.6618
  419SOL     MW 1676   0.562   2.689   1.350  0.1186 -0.2382  0.2050
  420SOL     OW 1677   0.770   2.234   1.030  0.5029  0.5594  0.0275
  420SOL    HW1 1678   0.713   2.237   1.109 -1.8668 -0.1272 -1.1403
  420SOL    HW2 1679   0.781   2.331   1.008 -1.2762 -0.8501 -0.5700
  420SOL     MW 1680   0.764   2.247   1.037 -0.0445  0.2829 -0.2054
  421SOL     OW 1681   2.921   0.155   0.017 -0.2173 -0.3269 -0.0319
  421SOL    HW1 1682   2.834   0.116   0.015  0.1275 -3.8034  0.8689
  421SOL    HW2 1683   2.977   0.077   0.045  0.8803  1.0197  2.6182
  421SOL     MW 1684   2.917   0.139   0.021 -0.0270 -0.6080  0.4366
  422SOL     OW 1685   0.840   2.532   0.983  0.3546 -0.2994 -0.0187
  422SOL    HW1 1686   0.750   2.562   1.006  0.2348  3.0679  0.2288
  422SOL    HW2 1687   0.858   2.575   0.900  1.2788  1.0385 -0.7242
  422SOL     MW 1688   0.830   2.542   0.975  0.4607  0.3214 -0.0792
  423SOL     OW 1689   1.454   0.066   0.485  0.5445  0.3116 -0.1557
  423SOL    HW1 1690   1.482   0.048   0.394 -0.5547 -0.6224  3.2646
  423SOL    HW2 1691   1.487   0.150   0.515  0.8808 -2.4693 -0.8724
  423SOL     MW 1692   1.462   0.075   0.477  0.4438 -0.1786  0.2010
  424SOL     OW 1693   0.638   2.287   1.367 -0.2850 -0.5033  0.1266
  424SOL    HW1 1694   0.573   2.213   1.351  0.1202  0.2358 -0.0093
  424SOL    HW2 1695   0.713   2.240   1.407 -1.2060 -0.0252  1.1845
  424SOL     MW 1696   0.639   2.271   1.370 -0.3531 -0.3427  0.2483
  425SOL     OW 1697   1.669   2.792   2.058  0.0571  0.3800  0.0359
  425SOL    HW1 1698   1.695   2.807   1.964  1.5002  0.1273 -2.1976
  425SOL    HW2 1699   1.728   2.714   2.083 -3.1194 -0.7535  1.5484
  425SOL     MW 1700   1.680   2.783   2.049 -0.1716  0.1971 -0.0592
  426SOL     OW 1701   0.904   1.731   1.992 -0.1619 -0.2169 -0.2475
  426SOL    HW1 1702   0.831   1.744   1.923 -1.4070  0.2802 -0.5845
  426SOL    HW2 1703   0.884   1.791   2.065 -1.2371 -3.2549 -1.8556
  426SOL     MW 1704   0.892   1.741   1.992 -0.4681 -0.5522 -0.5041
  427SOL     OW 1705   0.355   1.694   1.879  0.6471  0.1723 -0.2583
  427SOL    HW1 1706   0.387   1.619   1.825  0.0622  1.7391  0.9360
  427SOL    HW2 1707   0.285   1.651   1.938 -5.0362 -2.6109  0.4351
  427SOL     MW 1708   0.350   1.678   1.880 -0.1800  0.0118 -0.0092
  428SOL     OW 1709   0.577   2.585   1.092 -0.0518  0.0898  0.3767
  428SOL    HW1 1710   0.536   2.505   1.129  1.8657  1.1078 -2.1449
  428SOL    HW2 1711   0.578   2.649   1.169 -1.5258 -1.2709 -2.0529
  428SOL     MW 1712   0.571   2.583   1.107  0.0067  0.0445 -0.2765
  429SOL     OW 1713   1.187   2.735   1.106  0.1693 -0.4436 -0.2064
  429SOL    HW1 1714   1.102   2.746   1.153 -1.4389 -0.5155  0.0807
  429SOL    HW2 1715   1.196   2.820   1.059  1.9593  0.7886  0.5660
  429SOL     MW 1716   1.177   2.748   1.106  0.1932 -0.2905 -0.0666
  430SOL     OW 1717   1.158   2.764   0.702 -0.0860  0.4954  0.8055
  430SOL    HW1 1718   1.179   2.674   0.738  0.4119  0.3322  3.2574
  430SOL    HW2 1719   1.146   2.749   0.600  1.1305  0.7569 -0.2715
  430SOL     MW 1720   1.159   2.750   0.693  0.1402  0.5084  0.9869
  431SOL     OW 1721   0.290   1.927   1.119  0.1156  0.3491 -0.0172
  431SOL    HW1 1722   0.359   1.862   1.088  1.9035 -2.4325 -1.7435
  431SOL    HW2 1723   0.248   1.952   1.033  0.1668 -3.1794 -2.6009
  431SOL     MW 1724   0.294   1.921   1.104  0.3583 -0.4834 -0.5859
  432SOL     OW 1725   0.083   0.013   1.137 -0.3719 -0.5623  0.2130
  432SOL    HW1 1726   0.081   0.045   1.228  0.5164  1.6574  0.2186
  432SOL    HW2 1727   0.029  -0.066   1.151  3.0511  0.6619 -0.5190
  432SOL     MW 1728   0.075   0.007   1.151  0.1969 -0.1080  0.1171
  433SOL     OW 1729   0.663   2.927   1.467 -0.1465 -0.1784  0.0108
  433SOL    HW1 1730   0.601   2.921   1.539 -0.5776 -0.3356 -2.5821
  433SOL    HW2 1731   0.757   2.922   1.509 -1.7548  1.7213 -0.9020
  433SOL     MW 1732   0.667   2.925   1.482 -0.4156  0.0515 -0.4517
  434SOL     OW 1733   1.495   2.836   1.599  0.3693 -0.3971  1.0859
  434SOL    HW1 1734   1.401   2.846   1.607  1.4485 -3.0822  1.5881
  434SOL    HW2 1735   1.499   2.814   1.503 -0.3594  0.7576 -0.1214
  434SOL     MW 1736   1.483   2.834   1.587  0.4155 -0.5990  0.9929
  435SOL     OW 1737   2.756   1.776   0.209 -0.1097 -0.0396  0.2277
  435SOL    HW1 1738   2.818   1.835   0.181 -0.0826 -1.9224 -1.7366
  435SOL    HW2 1739   2.685   1.805   0.158 -0.7793 -1.1614  0.8030
  435SOL     MW 1740   2.755   1.788   0.199 -0.1945 -0.4360  0.0444
  436SOL     OW 1741   1.360   2.694   0.328  0.1247  0.2746  0.3237
  436SOL    HW1 1742   1.416   2.675   0.403  1.6824  1.8017 -1.2902
  436SOL    HW2 1743   1.323   2.779   0.356 -3.5082 -1.2948 -0.5141
  436SOL     MW 1744   1.362   2.703   0.342 -0.1491  0.2690  0.0002
  437SOL     OW 1745   1.064   2.982   1.294 -0.0441 -0.0349  0.0173
  437SOL    HW1 1746   1.071   3.043   1.221 -2.6963 -0.0039  1.3614
  437SOL    HW2 1747   1.004   2.914   1.269  1.0994  1.1348 -0.5789
  437SOL     MW 1748   1.057   2.981   1.281 -0.2432  0.1235  0.1160
  438SOL     OW 1749   0.905   2.728   1.911 -0.0172 -0.3197 -0.2858
  438SOL    HW1 1750   0.887   2.671   1.987  0.9287 -3.1940 -2.8516
  438SOL    HW2 1751   0.845   2.690   1.848  1.9451 -1.3767  1.8657
  438SOL     MW 1752   0.895   2.715   1.913  0.3665 -0.8384 -0.3405
  439SOL     OW 1753   1.209   2.082   0.415  0.6073 -0.1960 -0.0208
  439SOL    HW1 1754   1.189   2.137   0.488  1.2078  0.7500 -0.1563
  439SOL    HW2 1755   1.214   2.150   0.342  0.6922  0.0848  0.4649
  439SOL     MW 1756   1.207   2.098   0.415  0.6977 -0.0342  0.0254
  440SOL     OW 1757   1.781   2.973   3.051 -0.0758 -0.1428 -0.6598
  440SOL    HW1 1758   1.786   2.935   3.137  0.8100  0.8322 -0.5798
  440SOL    HW2 1759   1.859   2.952   3.003  1.5269 -0.8409 -2.1011
  440SOL     MW 1760   1.792   2.965   3.056  0.2525 -0.1063 -0.8394
  441SOL     OW 1761   0.374   2.662   0.427  0.9696 -0.1894 -0.5905
  441SOL    HW1 1762   0.334   2.602   0.365  3.0133  0.6694  2.6230
  441SOL    HW2 1763   0.363   2.749   0.387 -1.0669  0.4796  0.3645
  441SOL     MW 1764   0.367   2.665   0.414  0.9706  0.0122 -0.0405
  442SOL     OW 1765   0.011   2.302   0.620  0.7051  0.5247  0.2332
  442SOL    HW1 1766   0.013   2.384   0.577 -1.7609  0.7587 -2.3879
  442SOL    HW2 1767  -0.078   2.297   0.659 -0.0813 -0.2156  1.5004
  442SOL     MW 1768  -0.000   2.312   0.620  0.2760  0.4579  0.0546
  443SOL     OW 1769   1.492   1.792   1.902 -0.1339  0.1263 -0.5212
  443SOL    HW1 1770   1.451   1.804   1.817 -0.0271  0.8073  1.9518
  443SOL    HW2 1771   1.473   1.699   1.918 -0.6299 -0.8778  1.7846
  443SOL     MW 1772   1.484   1.781   1.893 -0.1853  0.0836  0.1093
  444SOL     OW 1773   0.995   2.609   1.641 -0.3185  0.2571  0.1146
  444SOL    HW1 1774   1.051   2.556   1.699 -0.9412 -1.2833  0.9040
  444SOL    HW2 1775   0.911   2.592   1.683 -0.0518 -0.2035  2.2098
  444SOL     MW 1776   0.991   2.600   1.654 -0.3655 -0.0069  0.4952
  445SOL     OW 1777   1.250   0.138   1.413  0.3424  0.5338 -0.5132
  445SOL    HW1 1778   1.187   0.175   1.477  0.0677 -2.9071  0.9191
  445SOL    HW2 1779   1.227   0.187   1.333  0.2407  2.1000 -1.0923
  445SOL     MW 1780   1.239   0.149   1.411  0.2927  0.2864 -0.4006
  446SOL     OW 1781   2.787   2.837   1.045  0.0133 -0.0794  0.3327
  446SOL    HW1 1782   2.756   2.890   0.977 -1.9923 -1.2974  1.5291
  446SOL    HW2 1783   2.833   2.770   1.001  1.2651  0.7140  1.3602
  446SOL     MW 1784   2.789   2.835   1.031 -0.0862 -0.1354  0.6261
  447SOL     OW 1785   0.017   1.947   1.564 -0.0235 -0.3695 -0.7652
  447SOL    HW1 1786   0.004   1.904   1.647 -1.1330 -1.0765  0.1141
  447SOL    HW2 1787  -0.068   1.923   1.513 -2.7753 -0.7899 -3.0143
  447SOL     MW 1788   0.004   1.938   1.568 -0.5330 -0.5182 -0.9460
  448SOL     OW 1789   1.778   2.406   1.669 -0.1552 -0.1139  0.1328
  448SOL    HW1 1790   1.709   2.337   1.673  0.9634  1.1010  0.8381
  448SOL    HW2 1791   1.728   2.484   1.660 -0.3665 -3.8387  0.5639
  448SOL     MW 1792   1.762   2.407   1.669 -0.0355 -0.4451  0.2827
  449SOL     OW 1793   0.881   2.928   0.389 -0.1168 -0.0883  0.0341
  449SOL    HW1 1794   0.828   2.956   0.310 -0.5748  0.4048  1.4220
  449SOL    HW2 1795   0.819   2.942   0.462  1.6370  0.3681 -1.1551
  449SOL     MW 1796   0.866   2.934   0.388  0.0541  0.0369  0.0603
  450SOL     OW 1797   1.188   2.485   0.778 -0.1589  0.4258 -0.3409
  450SOL    HW1 1798   1.192   2.422   0.852  3.6241 -1.8928  1.4406
  450SOL    HW2 1799   1.262   2.456   0.722 -1.3662 -1.0057 -0.6012
  450SOL     MW 1800   1.198   2.473   0.781  0.1810 -0.0690 -0.1402
  451SOL     OW 1801   0.524   1.954   1.698 -0.1209 -0.5514  0.0743
  451SOL    HW1 1802   0.596   1.970   1.632  0.0842 -1.8123 -1.4584
  451SOL    HW2 1803   0.450   1.907   1.655 -3.0987 -0.5041  0.8839
  451SOL     MW 1804   0.524   1.950   1.683 -0.4867 -0.7116 -0.0211
  452SOL     OW 1805   0.354   2.609   0.034 -0.1840 -0.2180 -0.4188
  452SOL    HW1 1806   0.440   2.639   0.063  1.0834 -2.1603  1.0432
  452SOL    HW2 1807   0.297   2.682   0.023 -1.3861  1.9696  0.9694
  452SOL     MW 1808   0.358   2.622   0.037 -0.1754 -0.1856 -0.0428
  453SOL     OW 1809   0.299   3.083   1.582 -0.0653 -0.2550 -0.7035
  453SOL    HW1 1810   0.373   3.037   1.623 -0.3928 -2.1703  0.9005
  453SOL    HW2 1811   0.312   3.066   1.487  0.5412 -0.1881 -2.6822
  453SOL     MW 1812   0.310   3.075   1.575 -0.0285 -0.4989 -0.7530
  454SOL     OW 1813   0.909   2.767   1.237  0.1160  0.1200 -0.1440
  454SOL    HW1 1814   0.867   2.678   1.262 -1.1894 -2.4979  1.2049
  454SOL    HW2 1815   0.861   2.816   1.166  0.2927  2.0740  0.8293
  454SOL     MW 1816   0.898   2.761   1.231 -0.0329  0.0324  0.1624
  455SOL     OW 1817   1.718   2.880   0.234  0.3819  0.2048 -0.3010
  455SOL    HW1 1818   1.766   2.851   0.316  1.4594  1.8595 -1.8765
  455SOL    HW2 1819   1.685   2.800   0.187  0.7819  1.6087 -2.6269
  455SOL     MW 1820   1.720   2.865   0.238  0.5768  0.6083 -0.8158
  456SOL     OW 1821   2.752   0.282   1.471 -0.0685  0.1106 -0.3845
  456SOL    HW1 1822   2.732   0.199   1.423  0.2705 -2.5002 -1.0868
  456SOL    HW2 1823   2.839   0.310   1.432  0.8081 -0.1409  0.5339
  456SOL     MW 1824   2.761   0.275   1.460  0.0919 -0.2671 -0.3560
  457SOL     OW 1825   0.789   1.682   3.058  0.3894  0.7757  0.4164
  457SOL    HW1 1826   0.692   1.686   3.058 -0.8306  0.0846 -0.4123
  457SOL    HW2 1827   0.816   1.741   3.125  0.2085  0.7529 -1.6282
  457SOL     MW 1828   0.780   1.691   3.067  0.2046  0.6815  0.0373
  458SOL     OW 1829   1.374   1.490   0.704 -0.1719 -0.5526 -0.1136
  458SOL    HW1 1830   1.311   1.556   0.668  1.1097 -1.7604  2.3628
  458SOL    HW2 1831   1.333   1.405   0.674 -1.1359 -4.6628 -1.8933
  458SOL     MW 1832   1.360   1.488   0.695 -0.1300 -1.2542 -0.0217
  459SOL     OW 1833   1.571   0.015   0.248  0.4171 -0.7065  0.4074
  459SOL    HW1 1834   1.616  -0.069   0.244 -0.6598 -0.6547 -1.4855
  459SOL    HW2 1835   1.519   0.022   0.162 -1.1614 -0.2592  2.1721
  459SOL     MW 1836   1.570   0.005   0.236  0.0667 -0.6406  0.3905
  460SOL     OW 1837   1.790   2.229   0.645  0.1002  0.2844 -0.2500
  460SOL    HW1 1838   1.702   2.231   0.681  1.6211  0.3323 -2.3885
  460SOL    HW2 1839   1.824   2.137   0.652 -0.1708 -0.9129  0.2629
  460SOL     MW 1840   1.783   2.217   0.650  0.2651  0.1328 -0.4645
  461SOL     OW 1841   0.450   2.438   0.628 -0.0463  0.0236 -0.5969
  461SOL    HW1 1842   0.442   2.524   0.595 -2.3647 -1.6499  0.1612
  461SOL    HW2 1843   0.422   2.440   0.721 -3.6354 -0.7629  0.5552
  461SOL     MW 1844   0.445   2.450   0.636 -0.8258 -0.3010 -0.3449
  462SOL     OW 1845   0.292   0.209   1.317  0.0163  0.6666 -0.0283
  462SOL    HW1 1846   0.308   0.204   1.224  0.8831 -1.0365 -0.0077
  462SOL    HW2 1847   0.373   0.254   1.338 -0.1551  2.0355  2.2822
  462SOL     MW 1848   0.304   0.214   1.307  0.1081  0.6225  0.2792
  463SOL     OW 1849   1.058   0.058   0.732  0.1523  0.4444  0.3110
  463SOL    HW1 1850   1.144   0.040   0.697 -2.5317 -1.1439  0.3676
  463SOL    HW2 1851   0.985   0.068   0.666  1.3928  1.5974  0.0162
  463SOL     MW 1852   1.060   0.057   0.719 -0.0382  0.3870  0.2796
  464SOL     OW 1853   0.785   0.003   2.269 -0.1705 -0.0923  0.6054
  464SOL    HW1 1854   0.785  -0.087   2.291 -1.2962  2.0649 -0.9791
  464SOL    HW2 1855   0.818   0.054   2.344 -0.7680 -2.0060 -1.2356
  464SOL     MW 1856   0.789  -0.002   2.282 -0.3979 -0.0602  0.1534
  465SOL     OW 1857   0.780   0.314   0.411 -0.1370 -0.1553  0.0548
  465SOL    HW1 1858   0.805   0.237   0.471  0.6467 -0.3244  0.5969
  465SOL    HW2 1859   0.768   0.274   0.323 -1.9770  4.9229  0.8314
  465SOL     MW 1860   0.781   0.299   0.407 -0.2764  0.4924  0.2288
  466SOL     OW 1861   1.084   2.024   0.768  0.0984  0.1668  0.5743
  466SOL    HW1 1862   1.073   1.941   0.728 -1.2666  0.2843  0.3470
  466SOL    HW2 1863   1.071   2.095   0.697 -1.2593  0.2375 -0.0356
  466SOL     MW 1864   1.081   2.022   0.753 -0.2608  0.1916  0.4639
  467SOL     OW 1865   1.267   2.319   0.996 -0.2251 -0.0298 -0.2157
  467SOL    HW1 1866   1.346   2.371   1.011  0.9410 -0.5448  0.0268
  467SOL    HW2 1867   1.289   2.224   0.995  1.6207 -0.8426  1.6835
  467SOL     MW 1868   1.280   2.313   0.998  0.1723 -0.2050  0.0669
  468SOL     OW 1869   0.491   2.662   1.896  0.7281  0.3207  0.0642
  468SOL    HW1 1870   0.469   2.569   1.882  0.0090 -0.4890  0.5461
  468SOL    HW2 1871   0.416   2.708   1.867  3.3514 -3.3299  0.4655
  468SOL     MW 1872   0.478   2.656   1.890  0.9794 -0.2678  0.1807
  469SOL     OW 1873   0.392   2.126   1.869  0.0140 -0.6407 -0.5710
  469SOL    HW1 1874   0.293   2.120   1.845 -1.2934 -0.1901 -1.1096
  469SOL    HW2 1875   0.441   2.081   1.799  3.3606  2.1612  0.4188
  469SOL     MW 1876   0.385   2.119   1.857  0.2830 -0.2115 -0.5115
  470SOL     OW 1877   3.059   2.606   0.122 -0.1335  0.4834 -0.4061
  470SOL    HW1 1878   2.975   2.592   0.175 -1.7835  1.2064 -0.2773
  470SOL    HW2 1879   3.040   2.605   0.024  0.2116 -0.1006 -3.2511
  470SOL     MW 1880   3.045   2.604   0.116 -0.3057  0.5017 -0.7644
  471SOL     OW 1881   1.174   2.565   1.423  0.1170  0.9467 -0.3783
  471SOL    HW1 1882   1.096   2.558   1.473 -0.7544  1.0840 -1.4720
  471SOL    HW2 1883   1.152   2.569   1.330  1.3134 -1.6357  0.8757
  471SOL     MW 1884   1.161   2.565   1.417  0.1599  0.6241 -0.3572
  472SOL     OW 1885   2.829   2.101   0.356  0.3492  0.0651  0.0550
  472SOL    HW1 1886   2.862   2.059   0.277 -1.5888 -0.1247  0.7260
  472SOL    HW2 1887   2.787   2.033   0.402 -1.6401  0.9236 -1.3685
  472SOL     MW 1888   2.828   2.087   0.351 -0.1690  0.1534 -0.0443
  473SOL     OW 1889   0.811   2.552   1.395  0.1771  0.1632  0.2968
  473SOL    HW1 1890   0.853   2.464   1.382 -0.0735 -0.7147  0.8110
  473SOL    HW2 1891   0.830   2.582   1.480 -0.9119  1.9244  0.4222
  473SOL     MW 1892   0.819   2.545   1.405  0.0003  0.2798  0.3812
  474SOL     OW 1893   0.688   2.301   1.754 -0.9493  0.6690  0.6923
  474SOL    HW1 1894   0.758   2.309   1.825 -0.3360 -1.1207  2.4798
  474SOL    HW2 1895   0.718   2.229   1.694 -1.2937  0.9754  3.7327
  474SOL     MW 1896   0.701   2.293   1.755 -0.9138  0.4733  1.3293
  475SOL     OW 1897   1.611   3.093   1.505  0.4178  0.1297  0.6410
  475SOL    HW1 1898   1.535   3.091   1.445  1.2447 -1.6662 -0.8841
  475SOL    HW2 1899   1.601   3.004   1.541 -1.7281 -1.3618 -1.2357
  475SOL     MW 1900   1.599   3.081   1.502  0.2438 -0.3041  0.1922
  476SOL     OW 1901   1.420   2.585   1.093 -0.2308  0.3889  0.5431
  476SOL    HW1 1902   1.328   2.619   1.103  0.8193  0.1733 -0.7946
  476SOL    HW2 1903   1.480   2.656   1.091 -0.9592 -1.2305 -2.8850
  476SOL     MW 1904   1.416   2.599   1.094 -0.1883  0.1468 -0.0857
  477SOL     OW 1905   0.841   2.568   0.653  0.2325 -0.2328 -0.2953
  477SOL    HW1 1906   0.904   2.603   0.589 -0.3190  0.5814  0.4389
  477SOL    HW2 1907   0.824   2.485   0.625  1.5517  2.1829 -0.5007
  477SOL     MW 1908   0.847   2.562   0.641  0.3338  0.1934 -0.2255
  478SOL     OW 1909   0.190   2.645   0.928  0.3929  0.1028  0.7389
  478SOL    HW1 1910   0.218   2.718   0.874  0.0554  0.4364 -0.4280
  478SOL    HW2 1911   0.248   2.564   0.908 -0.9485 -2.2223  1.2068
  478SOL     MW 1912   0.202   2.644   0.918  0.1714 -0.1599  0.6467
  479SOL     OW 1913   1.429   1.984   1.287 -0.2317  0.0913  0.0948
  479SOL    HW1 1914   1.411   2.012   1.373  0.4816  0.1254 -0.6035
  479SOL    HW2 1915   1.478   1.900   1.302 -0.6820  0.8440 -0.5960
  479SOL     MW 1916   1.433   1.977   1.300 -0.1970  0.1951 -0.0885
  480SOL     OW 1917   2.015   2.440   1.307 -0.0167  0.1767  0.0153
  480SOL    HW1 1918   1.988   2.350   1.327 -2.0621 -1.3080  1.8453
  480SOL    HW2 1919   2.029   2.448   1.212 -0.8469  1.2521 -1.1897
  480SOL     MW 1920   2.014   2.429   1.297 -0.3961  0.1227  0.0978
  481SOL     OW 1921   1.032   0.050   1.058  0.2141  0.3704 -0.5094
  481SOL    HW1 1922   1.091  -0.006   1.006  1.0602  0.6724 -2.3034
  481SOL    HW2 1923   1.090   0.125   1.076 -2.7538  0.6308  2.1989
  481SOL     MW 1924   1.047   0.053   1.053 -0.0658  0.4446 -0.3888
  482SOL     OW 1925   1.096   3.074   0.283  0.1207  0.2406  0.0368
  482SOL    HW1 1926   1.033   3.015   0.330  0.9814 -1.0983  3.3733
  482SOL    HW2 1927   1.070   3.160   0.318  1.8611 -1.5528  0.0581
  482SOL     MW 1928   1.085   3.078   0.294  0.4639 -0.1727  0.4799
  483SOL     OW 1929   0.423   2.964   0.415 -0.1210  0.4416  0.6048
  483SOL    HW1 1930   0.339   2.998   0.372 -3.4614  0.1300 -0.5599
  483SOL    HW2 1931   0.410   2.988   0.507 -3.0976  0.1328  1.4046
  483SOL     MW 1932   0.410   2.971   0.421 -0.9545  0.3597  0.5567
  484SOL     OW 1933   1.873   1.933   1.501 -0.3609  0.3143  0.1473
  484SOL    HW1 1934   1.928   2.015   1.512  3.8054 -0.8396  1.3347
  484SOL    HW2 1935   1.817   1.927   1.576  1.8800 -0.4212 -0.0288
  484SOL     MW 1936   1.873   1.943   1.513  0.4845  0.0650  0.2807
  485SOL     OW 1937   0.572   2.324   0.253 -0.1303  1.1451 -0.4808
  485SOL    HW1 1938   0.578   2.328   0.345 -0.2833 -0.1194  0.7807
  485SOL    HW2 1939   0.501   2.387   0.235  0.4801 -0.3508  0.8701
  485SOL     MW 1940   0.563   2.333   0.263 -0.0699  0.7809 -0.1361
  486SOL     OW 1941   0.172   2.399   1.485  0.0572  0.0720 -0.3751
  486SOL    HW1 1942   0.215   2.481   1.461 -1.2001 -1.2113 -1.0442
  486SOL    HW2 1943   0.159   2.400   1.583 -1.2975  4.2909  2.2651
  486SOL     MW 1944   0.176   2.410   1.495 -0.2874  0.4593 -0.1151
  487SOL     OW 1945   1.219   1.696   1.049 -0.1074  0.6099  0.1752
  487SOL    HW1 1946   1.172   1.772   1.086 -3.1914  0.8152 -0.8294
  487SOL    HW2 1947   1.306   1.735   1.039  1.4854 -0.9703 -2.3468
  487SOL     MW 1948   1.224   1.711   1.052 -0.3042  0.4285 -0.2901
  488SOL     OW 1949   1.608   1.829   0.572  0.2275  0.3229  0.3607
  488SOL    HW1 1950   1.684   1.836   0.519 -0.6621  1.0515 -0.7050
  488SOL    HW2 1951   1.550   1.907   0.554 -1.0240 -2.4374 -1.1007
  488SOL     MW 1952   1.610   1.840   0.563 -0.0550  0.0548  0.0273
  489SOL     OW 1953   0.762   0.834   0.625  0.1262  0.3094  0.3354
  489SOL    HW1 1954   0.767   0.748   0.581  1.2402  1.0847 -0.7655
  489SOL    HW2 1955   0.745   0.814   0.717  1.9755  0.0986 -1.6315
  489SOL     MW 1956   0.760   0.820   0.631  0.5171  0.3839 -0.0694
  490SOL     OW 1957   1.481   2.050   0.483  0.3539 -0.4573  0.6746
  490SOL    HW1 1958   1.514   2.126   0.442 -0.9811  1.7078  0.6403
  490SOL    HW2 1959   1.391   2.041   0.438  1.3874 -0.3469  1.2107
  490SOL     MW 1960   1.473   2.059   0.472  0.3141 -0.1571  0.7408
  491SOL     OW 1961   1.306   2.937   0.438  0.2045  0.4705  0.1049
  491SOL    HW1 1962   1.361   3.010   0.445 -1.8698  3.4432 -0.5099
  491SOL    HW2 1963   1.229   2.971   0.385  0.7922  1.1670  0.0645
  491SOL     MW 1964   1.303   2.951   0.432  0.0084  0.9546  0.0185
  492SOL     OW 1965   1.485   2.189   0.741  0.3709 -0.1103 -0.0868
  492SOL    HW1 1966   1.482   2.122   0.677 -0.6380  0.3544 -1.5184
  492SOL    HW2 1967   1.410   2.158   0.796 -0.1875 -1.4600  0.1419
  492SOL     MW 1968   1.475   2.176   0.740  0.1641 -0.2271 -0.2455
  493SOL     OW 1969   0.170   3.037   0.347 -0.1213 -0.5182 -0.5310
  493SOL    HW1 1970   0.105   3.090   0.399 -1.5033 -0.5175  0.9605
  493SOL    HW2 1971   0.160   3.067   0.259  1.2792 -2.8492 -0.0435
  493SOL     MW 1972   0.160   3.048   0.342 -0.1189 -0.8256 -0.2699
  494SOL     OW 1973   0.425   2.404   1.776  0.4437  0.0898 -0.1212
  494SOL    HW1 1974   0.476   2.322   1.786  0.4113 -0.9032 -0.5065
  494SOL    HW2 1975   0.434   2.429   1.681  1.7282  1.5466 -0.6699
  494SOL     MW 1976   0.433   2.396   1.765  0.6089  0.1510 -0.2444
  495SOL     OW 1977   2.879   1.683   2.590 -0.0910  0.3146  0.1261
  495SOL    HW1 1978   2.849   1.772   2.577  1.7393  2.8376  1.0375
  495SOL    HW2 1979   2.844   1.647   2.674 -1.9989  1.4061 -1.5071
  495SOL     MW 1980   2.870   1.690   2.599 -0.1012  0.7915  0.0308
  496SOL     OW 1981   2.919   2.383   2.711  0.4463 -0.9069  0.0693
  496SOL    HW1 1982   2.965   2.313   2.766  1.4882  0.8796 -1.2895
  496SOL    HW2 1983   2.982   2.455   2.708 -1.0614 -0.2179 -0.9411
  496SOL     MW 1984   2.933   2.383   2.718  0.3848 -0.5803 -0.2433
  497SOL     OW 1985   1.627   2.191   2.626 -0.3593  0.1266 -0.2436
  497SOL    HW1 1986   1.576   2.118   2.586 -1.8597  1.3053  0.1979
  497SOL    HW2 1987   1.643   2.161   2.715  0.3382  0.9600  0.4328
  497SOL     MW 1988   1.622   2.177   2.633 -0.4652  0.3921 -0.0961
  498SOL     OW 1989   1.445   2.713   2.343  0.2834 -0.4176  0.0432
  498SOL    HW1 1990   1.454   2.620   2.357 -2.6327  0.6063 -0.8505
  498SOL    HW2 1991   1.537   2.749   2.328  0.5384 -0.8953  1.8284
  498SOL     MW 1992   1.458   2.705   2.343 -0.0677 -0.3456  0.1608
  499SOL     OW 1993   1.005   0.135   3.080  0.0608 -0.0664 -0.3977
  499SOL    HW1 1994   0.946   0.179   3.145 -2.8671  2.5214  2.4566
  499SOL    HW2 1995   1.057   0.077   3.131  2.9446 -1.6129  0.1217
  499SOL     MW 1996   1.004   0.133   3.095  0.0550  0.0710  0.0474
  500SOL     OW 1997   1.113   2.518   2.756  0.5003 -0.5400 -0.1751
  500SOL    HW1 1998   1.197   2.492   2.790  0.0093  2.0240  0.4927
  500SOL    HW2 1999   1.057   2.499   2.832  0.7144  0.5232 -0.2661
  500SOL     MW 2000   1.117   2.512   2.770  0.4638 -0.0614 -0.0990
  501SOL     OW 2001   1.802   2.215   3.083  0.5339  0.4869  0.4289
  501SOL    HW1 2002   1.774   2.305   3.109  3.0591 -1.2633 -1.1365
  501SOL    HW2 2003   1.898   2.227   3.076 -0.9969 -0.4494  0.6290
  501SOL     MW 2004   1.811   2.228   3.086  0.6651  0.1325  0.2488
  502SOL     OW 2005   0.149   2.821   3.085  0.2232  0.7218 -0.3635
  502SOL    HW1 2006   0.083   2.760   3.043  2.2504  0.3463  0.4917
  502SOL    HW2 2007   0.197   2.870   3.016 -0.5047  0.2908  3.9295
  502SOL     MW 2008   0.146   2.820   3.070  0.3947  0.6154  0.3157
  503SOL     OW 2009   1.028   2.815   2.181 -0.4363  0.4755  0.1583
  503SOL    HW1 2010   0.978   2.767   2.121  1.2624  0.7614 -2.7761
  503SOL    HW2 2011   1.033   2.912   2.165  1.6552  0.5309 -3.8904
  503SOL     MW 2012   1.022   2.822   2.171  0.0637  0.5205 -0.7631
  504SOL     OW 2013   0.063   2.692   2.107 -0.3472 -0.2730 -0.0643
  504SOL    HW1 2014   0.098   2.615   2.061 -0.8316  1.8563 -0.0587
  504SOL    HW2 2015   0.027   2.662   2.194  0.2527  2.2043  2.4519
  504SOL     MW 2016   0.063   2.678   2.112 -0.3320  0.3348  0.2684
  505SOL     OW 2017   1.692   2.691   2.683 -0.3488  0.0922  0.1449
  505SOL    HW1 2018   1.675   2.717   2.596  2.4498  1.9601 -0.0889
  505SOL    HW2 2019   1.611   2.717   2.732 -0.5091 -1.5122  1.4093
  505SOL     MW 2020   1.679   2.698   2.678 -0.0007  0.1270  0.2808
  506SOL     OW 2021   1.620   3.037   2.839 -0.1574 -0.4988  0.1018
  506SOL    HW1 2022   1.673   3.028   2.920 -0.0511  0.5683  0.5907
  506SOL    HW2 2023   1.689   3.027   2.770 -0.8230  1.2781  0.4050
  506SOL     MW 2024   1.636   3.034   2.840 -0.2312 -0.1235  0.2063
  507SOL     OW 2025   0.878   2.732   2.857 -0.3872 -0.2435 -0.1315
  507SOL    HW1 2026   0.954   2.760   2.797  3.5399  2.4494 -0.5535
  507SOL    HW2 2027   0.803   2.785   2.861  0.1289 -1.0635 -1.3797
  507SOL     MW 2028   0.878   2.742   2.850  0.1990  0.0036 -0.3519
  508SOL     OW 2029   1.134   2.086   2.525 -0.0005 -0.1399 -0.2724
  508SOL    HW1 2030   1.226   2.064   2.550  0.7933  0.1102  2.3178
  508SOL    HW2 2031   1.096   2.161   2.579  1.1324 -0.9331  1.3616
  508SOL     MW 2032   1.141   2.093   2.535  0.2537 -0.2115  0.2849
  509SOL     OW 2033   0.598   2.545   2.882  0.5535  0.4408  1.0966
  509SOL    HW1 2034   0.615   2.557   2.793 -1.0613 -0.5677  1.4797
  509SOL    HW2 2035   0.508   2.517   2.877 -1.7999  1.3863 -0.3900
  509SOL     MW 2036   0.588   2.543   2.870  0.0299  0.4325  0.9510
  510SOL     OW 2037   1.510   2.563   1.707 -0.2866  0.6749 -0.1018
  510SOL    HW1 2038   1.487   2.649   1.686  0.3371 -1.4557  0.2122
  510SOL    HW2 2039   1.453   2.529   1.776 -0.3318  0.4829 -3.2557
  510SOL     MW 2040   1.499   2.570   1.714 -0.2103  0.3685 -0.4765
  511SOL     OW 2041   0.425   2.627   2.442 -0.5176 -0.5981 -0.2722
  511SOL    HW1 2042   0.507   2.586   2.474 -0.3483  1.4882 -3.4058
  511SOL    HW2 2043   0.428   2.619   2.351  1.2488 -4.2556  2.3786
  511SOL     MW 2044   0.436   2.620   2.434 -0.2622 -0.8054 -0.3359
  512SOL     OW 2045   1.044   2.006   2.859 -0.4365 -0.4562 -0.4809
  512SOL    HW1 2046   0.948   2.012   2.866 -0.5681  0.2533 -1.2938
  512SOL    HW2 2047   1.061   1.913   2.877  0.4775  0.3256  1.5963
  512SOL     MW 2048   1.033   1.994   2.862 -0.3332 -0.2595 -0.3141
  513SOL     OW 2049   1.494   2.426   2.379 -0.3417 -0.2934  0.7565
  513SOL    HW1 2050   1.579   2.434   2.428 -0.8368  2.8075 -1.8661
  513SOL    HW2 2051   1.469   2.334   2.373  0.5458 -0.6135  0.1176
  513SOL     MW 2052   1.502   2.415   2.384 -0.2899  0.0735  0.3262
  514SOL     OW 2053   0.276   2.471   2.605  0.6852 -0.0338  0.7694
  514SOL    HW1 2054   0.319   2.545   2.564 -2.7167 -1.6575  1.1149
  514SOL    HW2 2055   0.294   2.483   2.696 -0.8232 -1.9985  0.7802
  514SOL     MW 2056   0.284   2.482   2.611  0.0373 -0.5073  0.8164
  515SOL     OW 2057   1.044   2.070   1.858 -0.2452 -0.3713  1.2543
  515SOL    HW1 2058   0.985   2.145   1.879  1.7299  0.3670 -0.9628
  515SOL    HW2 2059   1.113   2.076   1.923  3.2359  1.9016  1.8392
  515SOL     MW 2060   1.045   2.081   1.869  0.4747  0.0260  1.0389
  516SOL     OW 2061   1.481   2.498   3.024  0.1335 -0.1811 -0.3340
  516SOL    HW1 2062   1.553   2.476   2.954  1.0432  1.2072 -0.0632
  516SOL    HW2 2063   1.402   2.452   2.994 -1.4947  0.3958  2.5838
  516SOL     MW 2064   1.480   2.489   3.011  0.0387  0.0782  0.0867
  517SOL     OW 2065   0.594   2.411   2.131 -0.5611 -0.3810 -0.1293
  517SOL    HW1 2066   0.563   2.498   2.153 -1.0490  0.5748  0.8227
  517SOL    HW2 2067   0.515   2.363   2.136 -1.8810  0.3194  0.6151
  517SOL     MW 2068   0.580   2.416   2.135 -0.7996 -0.1625  0.0945
  518SOL     OW 2069   1.915   0.145   2.942 -0.4672 -0.1721 -0.4936
  518SOL    HW1 2070   1.847   0.186   2.885  0.2479  0.9940 -2.4519
  518SOL    HW2 2071   1.863   0.119   3.017  1.2262  2.2646  0.7057
  518SOL     MW 2072   1.899   0.147   2.944 -0.1494  0.3033 -0.5937
  519SOL     OW 2073   0.745   2.587   1.723  0.3758  0.2672  0.4100
  519SOL    HW1 2074   0.732   2.494   1.738 -1.6133 -2.2412  2.9295
  519SOL    HW2 2075   0.661   2.628   1.752 -3.5701  0.2692 -0.5292
  519SOL     MW 2076   0.732   2.580   1.728 -0.4073 -0.0635  0.6185
  520SOL     OW 2077   1.264   2.135   2.944 -0.0063 -0.6920  0.0982
  520SOL    HW1 2078   1.169   2.119   2.938  1.0652  0.2854  1.8399
  520SOL    HW2 2079   1.310   2.073   3.006  1.3358  0.3496  0.9887
  520SOL     MW 2080   1.257   2.124   2.952  0.3121 -0.4256  0.4455
  521SOL     OW 2081   1.722   2.067   2.275  0.1467  0.2176 -1.1195
  521SOL    HW1 2082   1.719   2.110   2.190  2.4291  2.3343  0.2993
  521SOL    HW2 2083   1.737   1.977   2.245 -0.8478 -0.1342 -1.1327
  521SOL     MW 2084   1.724   2.061   2.260  0.3166  0.4504 -0.9340
  522SOL     OW 2085   2.835   2.566   2.176 -0.1642  0.1429  0.4104
  522SOL    HW1 2086   2.921   2.563   2.225 -1.1982 -1.7741 -0.1158
  522SOL    HW2 2087   2.772   2.584   2.244 -0.1464  0.2021 -0.3649
  522SOL     MW 2088   2.838   2.568   2.191 -0.2983 -0.1022  0.2387
  523SOL     OW 2089   0.843   1.507   2.135  0.1063  0.0855 -0.1422
  523SOL    HW1 2090   0.850   1.589   2.084 -0.9376 -2.1256 -1.6725
  523SOL    HW2 2091   0.887   1.448   2.080  0.1025 -1.1529  1.6936
  523SOL     MW 2092   0.850   1.510   2.121 -0.0319 -0.3696 -0.1019
  524SOL     OW 2093   0.891   2.443   2.922  0.0196  0.4076  0.5102
  524SOL    HW1 2094   0.858   2.527   2.897  0.1127 -1.0525  0.0475
  524SOL    HW2 2095   0.825   2.381   2.898  0.8955  0.7149 -0.3107
  524SOL     MW 2096   0.878   2.446   2.916  0.1474  0.2555  0.3408
  525SOL     OW 2097   0.358   2.268   2.093 -0.7051  0.7152 -0.5847
  525SOL    HW1 2098   0.322   2.207   2.162  2.3238 -0.7816  2.5781
  525SOL    HW2 2099   0.368   2.220   2.007 -1.3368  2.2219 -0.8784
  525SOL     MW 2100   0.355   2.254   2.091 -0.3888  0.7165 -0.2061
  526SOL     OW 2101   0.710   2.102   1.982 -0.2457  0.1348 -0.1256
  526SOL    HW1 2102   0.687   2.133   1.896 -1.4161 -0.5006 -0.8928
  526SOL    HW2 2103   0.648   2.128   2.046  0.0834  1.1489  1.7201
  526SOL     MW 2104   0.698   2.109   1.979 -0.3567  0.1847  0.0167
  527SOL     OW 2105   1.335   1.966   2.029  0.4743  0.2888  0.2302
  527SOL    HW1 2106   1.312   1.945   2.120 -0.2210 -0.4757  1.2774
  527SOL    HW2 2107   1.389   1.899   1.985 -1.0258 -3.8168  0.9526
  527SOL     MW 2108   1.339   1.954   2.035  0.1846 -0.3538  0.4637
  528SOL     OW 2109   0.630   2.880   2.950  0.2154  0.3239 -0.4928
  528SOL    HW1 2110   0.668   2.966   2.953  0.3301 -0.1741 -1.6915
  528SOL    HW2 2111   0.564   2.885   2.880  0.0639 -0.2191  2.2616
  528SOL     MW 2112   0.627   2.892   2.941  0.2105  0.1866 -0.2875
  529SOL     OW 2113   0.916   2.313   1.899  0.1017 -0.3852  0.3641
  529SOL    HW1 2114   0.927   2.341   1.987  2.7095 -4.3506  1.5746
  529SOL    HW2 2115   0.996   2.347   1.852 -1.0023 -3.5318  0.1529
  529SOL     MW 2116   0.928   2.321   1.904  0.3002 -1.3236  0.4959
  530SOL     OW 2117   1.224   2.401   3.009  0.1711  0.6241 -0.5819
  530SOL    HW1 2118   1.148   2.410   3.073 -2.2247 -0.1678  1.9721
  530SOL    HW2 2119   1.236   2.303   3.013  0.6199  0.4028  0.3400
  530SOL     MW 2120   1.216   2.389   3.018 -0.0858  0.4904 -0.1233
  531SOL     OW 2121   0.961   1.858   2.572 -0.2189 -0.1118 -0.5328
  531SOL    HW1 2122   1.011   1.937   2.562 -2.2139 -1.5421 -0.5037
  531SOL    HW2 2123   0.913   1.863   2.655 -1.6409  1.9047  4.9929
  531SOL     MW 2124   0.961   1.869   2.581 -0.6697 -0.0345  0.2001
  532SOL     OW 2125   1.751   0.313   2.798 -0.6059 -0.7076 -0.9717
  532SOL    HW1 2126   1.756   0.311   2.703  0.9876 -0.7828  0.4837
  532SOL    HW2 2127   1.825   0.366   2.820 -0.8882 -2.2714  0.3180
  532SOL     MW 2128   1.762   0.320   2.788 -0.4329 -0.9238 -0.6095
  533SOL     OW 2129   1.819   2.682   3.034 -0.0264 -0.1061  0.5716
  533SOL    HW1 2130   1.770   2.598   3.032  0.7273  1.3576  0.5691
  533SOL    HW2 2131   1.762   2.760   3.009 -0.7522  0.3695 -0.6151
  533SOL     MW 2132   1.805   2.681   3.031 -0.0227  0.1498  0.4147
  534SOL     OW 2133   1.752   2.417   2.489 -0.2531 -0.3255 -0.3429
  534SOL    HW1 2134   1.741   2.325   2.528 -2.6840 -1.4467  0.7262
  534SOL    HW2 2135   1.811   2.464   2.546 -0.3747  1.1754  2.0892
  534SOL     MW 2136   1.758   2.411   2.501 -0.5899 -0.2754  0.1190
  535SOL     OW 2137   1.900   2.393   1.904 -0.3809 -0.0047 -0.4039
  535SOL    HW1 2138   1.846   2.393   1.816 -0.2047 -0.9187 -2.2968
  535SOL    HW2 2139   1.991   2.378   1.875  0.0931  1.3905  1.3001
  535SOL     MW 2140   1.905   2.391   1.888 -0.2951  0.0588 -0.4288
  536SOL     OW 2141   0.586   1.812   2.053  0.1489  0.1389  0.0846
  536SOL    HW1 2142   0.535   1.767   1.984 -1.6128  0.4296  0.2952
  536SOL    HW2 2143   0.598   1.897   2.016  0.4744  1.7103 -2.5969
  536SOL     MW 2144   0.581   1.818   2.039 -0.0405  0.3846 -0.2414
  537SOL     OW 2145   1.088   0.172   2.773 -0.0724  0.5887 -0.2227
  537SOL    HW1 2146   1.087   0.197   2.862  1.5502  0.1634 -1.7221
  537SOL    HW2 2147   1.056   0.242   2.718 -1.4905  0.4721 -0.7635
  537SOL     MW 2148   1.083   0.184   2.777 -0.0455  0.5172 -0.4919
  538SOL     OW 2149   1.466   0.053   3.095  0.0782  0.1627  0.7936
  538SOL    HW1 2150   1.464   0.143   3.126  1.9849  0.7728  1.9527
  538SOL    HW2 2151   1.371   0.034   3.072  0.8097  1.4567 -0.1585
  538SOL     MW 2152   1.453   0.062   3.096  0.4263  0.4139  0.8209
  539SOL     OW 2153   0.705   2.809   2.585 -0.0315 -0.0319 -0.2805
  539SOL    HW1 2154   0.796   2.840   2.598  1.5477  0.4433  0.6867
  539SOL    HW2 2155   0.730   2.713   2.588 -1.5582 -2.0195  2.9968
  539SOL     MW 2156   0.720   2.801   2.587 -0.0246 -0.2315  0.2795
  540SOL     OW 2157   0.290   2.480   2.894 -1.2661 -0.7214  0.0374
  540SOL    HW1 2158   0.323   2.528   2.970  1.7830 -1.9709 -0.9698
  540SOL    HW2 2159   0.259   2.392   2.925 -0.2872  0.8809 -1.0923
  540SOL     MW 2160   0.290   2.475   2.908 -0.7346 -0.6749 -0.2445
  541SOL     OW 2161   0.197   2.918   2.149  0.2968  0.4444 -0.4106
  541SOL    HW1 2162   0.132   2.845   2.142  0.9846 -1.5427  0.7916
  541SOL    HW2 2163   0.252   2.882   2.218  2.4254 -0.5162  0.0893
  541SOL     MW 2164   0.196   2.903   2.157  0.6684  0.0555 -0.1860
  542SOL     OW 2165   1.001   2.260   2.678 -0.3067 -0.3268 -0.1555
  542SOL    HW1 2166   0.954   2.217   2.749 -1.8006  0.4874 -0.8521
  542SOL    HW2 2167   1.041   2.343   2.717  2.6428 -1.1266  2.8741
  542SOL     MW 2168   1.000   2.265   2.692 -0.1146 -0.3249  0.1523
  543SOL     OW 2169   1.654   2.437   2.849 -0.8635  0.5389  0.1051
  543SOL    HW1 2170   1.645   2.356   2.790  1.0720 -0.1357 -0.1344
  543SOL    HW2 2171   1.643   2.519   2.793  0.1623  0.6827 -2.6026
  543SOL     MW 2172   1.651   2.437   2.834 -0.4728  0.4688 -0.2837
  544SOL     OW 2173   0.783   0.158   2.724  0.0025  0.3259 -0.2743
  544SOL    HW1 2174   0.687   0.182   2.726 -0.7157  1.1559 -1.5538
  544SOL    HW2 2175   0.805   0.152   2.628 -0.4993 -1.0352 -0.9685
  544SOL     MW 2176   0.774   0.160   2.712 -0.1584  0.2559 -0.5347
  545SOL     OW 2177   1.454   2.128   2.315  0.2426 -0.5902 -0.2056
  545SOL    HW1 2178   1.409   2.153   2.233 -0.1684 -0.1787 -1.4617
  545SOL    HW2 2179   1.556   2.116   2.297  1.5369  0.6804  0.5999
  545SOL     MW 2180   1.462   2.129   2.302  0.3591 -0.3682 -0.2650
  546SOL     OW 2181   2.893   1.998   0.108  0.0104 -0.3127 -0.5779
  546SOL    HW1 2182   2.894   2.084   0.064  2.0633 -1.3286  0.4569
  546SOL    HW2 2183   2.983   1.958   0.099 -2.2026  0.9083  2.3678
  546SOL     MW 2184   2.905   2.004   0.101 -0.0107 -0.2856 -0.0527
  547SOL     OW 2185   0.217   0.053   0.105  0.0195 -0.2736  0.0413
  547SOL    HW1 2186   0.303   0.026   0.085  2.1922 -0.9368 -0.2497
  547SOL    HW2 2187   0.165   0.031   0.031  1.0537  1.7375  0.6409
  547SOL     MW 2188   0.222   0.046   0.092  0.4426 -0.0958  0.0820
  548SOL     OW 2189   0.307   2.427   0.231  0.1642 -0.2512 -0.3366
  548SOL    HW1 2190   0.322   2.483   0.154 -1.2579 -1.8698  0.9588
  548SOL    HW2 2191   0.208   2.399   0.225 -3.0920 -2.2659 -1.2413
  548SOL     MW 2192   0.296   2.430   0.220 -0.4530 -0.7306 -0.2851
  549SOL     OW 2193   0.859   1.951   2.149  0.6889  0.0490 -0.4757
  549SOL    HW1 2194   0.802   1.993   2.081 -1.4330  0.2712  0.1753
  549SOL    HW2 2195   0.795   1.939   2.224 -2.6628 -1.2142  1.1126
  549SOL     MW 2196   0.843   1.955   2.150 -0.0333 -0.0883 -0.1802
  550SOL     OW 2197   1.876   1.758   2.542  0.6544  0.2758 -0.1007
  550SOL    HW1 2198   1.833   1.785   2.456 -1.4705  0.7533 -0.4971
  550SOL    HW2 2199   1.844   1.827   2.603 -0.6578 -0.1549  0.5087
  550SOL     MW 2200   1.866   1.771   2.538  0.2009  0.2820 -0.0726
  551SOL     OW 2201   0.863   2.220   0.259 -0.5114 -0.4411 -0.0572
  551SOL    HW1 2202   0.956   2.208   0.264  1.2625  0.9341  3.6035
  551SOL    HW2 2203   0.820   2.166   0.196  2.9998  2.0324  1.9285
  551SOL     MW 2204   0.869   2.211   0.251  0.1859  0.0667  0.6878
  552SOL     OW 2205   1.758   1.780   2.262 -0.0644 -0.3790  0.3231
  552SOL    HW1 2206   1.689   1.718   2.286 -1.2755 -1.2314  1.2871
  552SOL    HW2 2207   1.828   1.728   2.202  4.4124  2.2372  0.1786
  552SOL     MW 2208   1.758   1.765   2.257  0.3664 -0.1463  0.4312
  553SOL     OW 2209   1.184   2.279   1.538 -0.0493  0.9280 -0.1635
  553SOL    HW1 2210   1.237   2.195   1.521  1.5873 -1.7138  0.6506
  553SOL    HW2 2211   1.245   2.353   1.512  1.0071  1.3345 -0.5123
  553SOL     MW 2212   1.199   2.277   1.532  0.3060  0.6331 -0.1021
  554SOL     OW 2213   0.467   2.912   2.690 -0.0677  0.0042 -0.2799
  554SOL    HW1 2214   0.465   2.999   2.645 -0.7267  2.3097  1.5333
  554SOL    HW2 2215   0.543   2.866   2.656 -0.7143  0.6010  0.7323
  554SOL     MW 2216   0.477   2.917   2.679 -0.2400  0.3871  0.0929
  555SOL     OW 2217   0.605   2.451   2.574  0.0973  0.0400 -0.3355
  555SOL    HW1 2218   0.573   2.366   2.604  4.2817 -0.8658  0.2204
  555SOL    HW2 2219   0.689   2.426   2.535 -2.2394  0.2631 -0.3152
  555SOL     MW 2220   0.612   2.437   2.573  0.3411 -0.0501 -0.2595
  556SOL     OW 2221   1.044   1.924   0.069 -0.5444 -0.1797 -0.1956
  556SOL    HW1 2222   1.064   1.877  -0.008 -1.9180  2.8039  0.5675
  556SOL    HW2 2223   1.125   1.922   0.124 -0.5024  1.1719 -1.2875
  556SOL     MW 2224   1.057   1.918   0.066 -0.7201  0.3923 -0.2390
  557SOL     OW 2225   1.033   2.719   0.462 -0.1218 -0.1499 -0.3625
  557SOL    HW1 2226   1.058   2.649   0.394  0.7453 -0.9060  0.6489
  557SOL    HW2 2227   0.971   2.784   0.423 -1.4796 -1.0859  3.5025
  557SOL     MW 2228   1.028   2.718   0.448 -0.1866 -0.3731  0.2809
  558SOL     OW 2229   0.179   2.245   3.021 -0.2094 -0.0213 -0.0347
  558SOL    HW1 2230   0.116   2.235   2.953  0.0931  1.2832  0.9932
  558SOL    HW2 2231   0.139   2.290   3.099 -0.9489  3.8049 -0.8015
  558SOL     MW 2232   0.165   2.250   3.022 -0.2671  0.6557 -0.0002
  559SOL     OW 2233   1.032   2.377   2.138 -0.4470 -0.3876 -1.0166
  559SOL    HW1 2234   1.128   2.392   2.144  1.6018 -0.1423 -0.0512
  559SOL    HW2 2235   1.013   2.299   2.191 -1.8601 -1.0124 -1.3399
  559SOL     MW 2236   1.042   2.369   2.146 -0.3631 -0.4377 -0.9318
  560SOL     OW 2237   2.016   2.730   0.143  0.8992 -0.7652 -0.1546
  560SOL    HW1 2238   2.060   2.805   0.101  0.9309 -2.1689 -0.7012
  560SOL    HW2 2239   1.944   2.711   0.087 -0.1985 -0.2459  1.2184
  560SOL     MW 2240   2.012   2.738   0.130  0.7586 -0.8819 -0.0456
  561SOL     OW 2241   0.458   2.130   0.108  0.5496 -0.1953  0.0748
  561SOL    HW1 2242   0.431   2.165   0.023  1.2311  0.5522  2.2822
  561SOL    HW2 2243   0.513   2.205   0.142  2.6175 -0.1133 -0.5373
  561SOL     MW 2244   0.462   2.144   0.101  0.9123 -0.0858  0.2853
  562SOL     OW 2245   0.677   2.184   2.299 -0.1671  0.1964  0.4736
  562SOL    HW1 2246   0.668   2.271   2.279  0.3217 -0.3196 -0.2042
  562SOL    HW2 2247   0.776   2.183   2.314  2.4918  2.2420  1.6173
  562SOL     MW 2248   0.689   2.196   2.298  0.2482  0.3982  0.5351
  563SOL     OW 2249   1.224   0.410   0.549 -0.0280  0.1476  0.4143
  563SOL    HW1 2250   1.182   0.345   0.487 -1.7864 -1.6512  3.9948
  563SOL    HW2 2251   1.190   0.373   0.639  3.4099 -1.4137 -1.8440
  563SOL     MW 2252   1.214   0.396   0.553  0.1936 -0.2957  0.5888
  564SOL     OW 2253   1.047   2.611   2.369  0.0447  0.5469  0.0772
  564SOL    HW1 2254   1.032   2.681   2.303  1.0494 -0.0682  3.1369
  564SOL    HW2 2255   1.044   2.658   2.457 -0.7960  0.9012  1.8159
  564SOL     MW 2256   1.045   2.627   2.372  0.0664  0.5125  0.7103
  565SOL     OW 2257   2.769   2.834   2.561  0.0552 -0.0628  0.0718
  565SOL    HW1 2258   2.747   2.907   2.504 -0.1747  0.0664 -0.0887
  565SOL    HW2 2259   2.739   2.762   2.512  0.9149  1.6150 -0.6319
  565SOL     MW 2260   2.762   2.834   2.547  0.1383  0.1756 -0.0423
  566SOL     OW 2261   2.186   1.942   2.311  0.0570  0.2072  0.4913
  566SOL    HW1 2262   2.196   1.919   2.218 -0.3040 -0.3419 -1.2459
  566SOL    HW2 2263   2.260   2.005   2.331  0.7379  3.3467 -1.3081
  566SOL     MW 2264   2.197   1.947   2.301  0.0992  0.5490  0.0246
  567SOL     OW 2265   1.212   3.026  -0.001  0.2673  0.1421  0.1334
  567SOL    HW1 2266   1.201   3.024   0.097 -2.3776  0.6904  1.9568
  567SOL    HW2 2267   1.252   2.943  -0.023 -0.1745 -0.2039 -1.6735
  567SOL     MW 2268   1.216   3.015   0.009 -0.1400  0.1688  0.1355
  568SOL     OW 2269   1.664   2.095   2.873  0.6400 -0.7569  0.2160
  568SOL    HW1 2270   1.699   2.147   2.947 -2.0174 -0.8732  2.9193
  568SOL    HW2 2271   1.731   2.035   2.839 -2.2917 -0.5102 -2.2811
  568SOL     MW 2272   1.677   2.094   2.878 -0.0974 -0.7397  0.2432
  569SOL     OW 2273   0.106   2.291   2.467 -0.1541 -0.0282  0.2036
  569SOL    HW1 2274   0.074   2.349   2.394  4.4759 -0.2430 -3.3086
  569SOL    HW2 2275   0.167   2.351   2.512 -0.7468  0.1258  1.0586
  569SOL     MW 2276   0.110   2.306   2.463  0.3786 -0.0362 -0.1470
  570SOL     OW 2277   1.504   0.327   0.530  0.5506 -0.4363 -0.2602
  570SOL    HW1 2278   1.418   0.352   0.556  0.5527 -1.8136  0.7098
  570SOL    HW2 2279   1.558   0.361   0.601 -1.1729 -1.2394  0.1535
  570SOL     MW 2280   1.499   0.335   0.543  0.3235 -0.7240 -0.0776
  571SOL     OW 2281   1.344   2.363   2.129  0.2844  0.0324 -0.0727
  571SOL    HW1 2282   1.406   2.378   2.196 -1.6146 -1.1312  1.7221
  571SOL    HW2 2283   1.384   2.301   2.073  0.1982 -0.8118  0.9811
  571SOL     MW 2284   1.358   2.357   2.131  0.0225 -0.2325  0.3031
  572SOL     OW 2285   1.028   2.563   0.077  0.5502  0.0335  0.3552
  572SOL    HW1 2286   1.006   2.651   0.047 -1.3697  2.6578 -2.1927
  572SOL    HW2 2287   0.936   2.521   0.080 -0.7473  1.7957 -0.9297
  572SOL     MW 2288   1.013   2.569   0.073  0.1257  0.6123 -0.1505
  573SOL     OW 2289   1.167   2.275   0.231 -0.2732 -0.6441 -0.2084
  573SOL    HW1 2290   1.243   2.305   0.176  1.3626 -1.5462 -1.1977
  573SOL    HW2 2291   1.127   2.354   0.265 -0.7315 -0.6665 -1.4129
  573SOL     MW 2292   1.172   2.289   0.228 -0.1179 -0.7661 -0.4978
  574SOL     OW 2293   1.146   2.531   0.303 -0.9864  0.2892  0.1385
  574SOL    HW1 2294   1.227   2.565   0.326 -0.8763 -0.8969  1.8148
  574SOL    HW2 2295   1.105   2.564   0.219  3.7306 -0.1849  0.1389
  574SOL     MW 2296   1.152   2.540   0.295 -0.3495  0.0701  0.3597
  575SOL     OW 2297   3.058   2.203   1.660 -0.0538  0.3453 -0.3172
  575SOL    HW1 2298   3.104   2.136   1.604  1.0149 -0.6919  2.8438
  575SOL    HW2 2299   3.121   2.251   1.715 -0.8219 -1.2705 -1.6849
  575SOL     MW 2300   3.072   2.200   1.660 -0.0142 -0.0047 -0.0806
  576SOL     OW 2301   2.830   1.857   2.003  0.6264  0.6487 -0.3228
  576SOL    HW1 2302   2.862   1.930   1.940 -1.0232  1.3961 -1.9706
  576SOL    HW2 2303   2.746   1.825   1.961 -0.9532 -0.4704 -2.5086
  576SOL     MW 2304   2.823   1.862   1.989  0.2003  0.5996 -0.8286
  577SOL     OW 2305   2.123   0.234   0.021  0.4256  0.0779 -0.3004
  577SOL    HW1 2306   2.055   0.221  -0.050  0.7063 -1.0521  3.5908
  577SOL    HW2 2307   2.084   0.183   0.090  0.1910 -2.0056 -1.0237
  577SOL     MW 2308   2.109   0.226   0.021  0.4317 -0.3461  0.1175
  578SOL     OW 2309   1.987   2.111   2.409 -0.3472  0.3624  0.0273
  578SOL    HW1 2310   1.900   2.088   2.374  0.8173 -2.0163 -0.4373
  578SOL    HW2 2311   2.049   2.040   2.381 -3.2986 -0.6180  0.4841
  578SOL     MW 2312   1.984   2.098   2.401 -0.5830 -0.0808  0.0263
  579SOL     OW 2313   0.876   2.431   2.502 -0.9310  0.2104 -0.0025
  579SOL    HW1 2314   0.933   2.359   2.547 -2.1852 -0.5554  1.6348
  579SOL    HW2 2315   0.946   2.469   2.444 -0.1691  1.2396 -1.3233
  579SOL     MW 2316   0.893   2.426   2.500 -0.9959  0.2451  0.0392
  580SOL     OW 2317   0.958   2.830   3.098 -0.0996 -0.4474  0.3282
  580SOL    HW1 2318   1.049   2.842   3.067 -0.8312  0.3713 -0.0041
  580SOL    HW2 2319   0.921   2.793   3.017  1.3644  0.6889 -0.1822
  580SOL     MW 2320   0.965   2.827   3.083 -0.0030 -0.1895  0.2170
  581SOL     OW 2321   1.145   2.420   1.774  0.0211 -0.1858  0.8821
  581SOL    HW1 2322   1.206   2.468   1.828 -1.8481 -1.2231 -0.9173
  581SOL    HW2 2323   1.191   2.371   1.700  0.7486 -1.9652 -1.5080
  581SOL     MW 2324   1.159   2.420   1.771 -0.1295 -0.5574  0.3293
  582SOL     OW 2325   0.012   2.867   2.720 -0.1919  0.0170 -0.2171
  582SOL    HW1 2326  -0.060   2.935   2.700 -0.8717 -0.8035 -1.9885
  582SOL    HW2 2327   0.087   2.920   2.745 -1.8878  2.1182 -2.8605
  582SOL     MW 2328   0.013   2.883   2.720 -0.5053  0.1860 -0.7996
  583SOL     OW 2329   1.986   2.428   2.685 -0.2730 -0.0733 -0.5583
  583SOL    HW1 2330   2.056   2.460   2.630  2.3700  2.6926  0.0915
  583SOL    HW2 2331   1.982   2.335   2.671 -1.3525  1.0556 -0.2957
  583SOL     MW 2332   1.994   2.420   2.676 -0.0667  0.4406 -0.4379
  584SOL     OW 2333   0.116   1.904   2.202  0.6929  0.2634  0.4683
  584SOL    HW1 2334   0.132   1.843   2.279 -1.4064 -0.5950 -0.9188
  584SOL    HW2 2335   0.163   1.985   2.230  0.2109 -1.7501  0.6919
  584SOL     MW 2336   0.124   1.906   2.216  0.3523 -0.1155  0.3148
  585SOL     OW 2337   1.550   2.650   0.132 -0.2803  0.5764  0.0558
  585SOL    HW1 2338   1.512   2.609   0.052  2.4525  2.2951  1.1281
  585SOL    HW2 2339   1.478   2.667   0.191 -0.3538 -1.0979  1.5651
  585SOL     MW 2340   1.535   2.647   0.130  0.0706  0.5823  0.3964
  586SOL     OW 2341   1.334   2.809   2.587  0.0934  0.2179  0.5286
  586SOL    HW1 2342   1.361   2.779   2.492 -1.0403 -0.8492 -2.3190
  586SOL    HW2 2343   1.323   2.905   2.587 -3.7337  1.8776 -0.9678
  586SOL     MW 2344   1.336   2.818   2.575 -0.5611  0.2961 -0.0445
  587SOL     OW 2345   1.356   1.498   2.166  0.0871 -0.2894 -0.4313
  587SOL    HW1 2346   1.300   1.428   2.208  0.5472  0.9345 -0.4920
  587SOL    HW2 2347   1.378   1.472   2.074 -2.4098 -0.8467 -1.5503
  587SOL     MW 2348   1.352   1.485   2.160 -0.1816 -0.2014 -0.5870
  588SOL     OW 2349   1.383   1.980   2.630 -0.1605 -0.0481  0.1142
  588SOL    HW1 2350   1.357   1.892   2.661 -1.0125  2.3544 -0.0482
  588SOL    HW2 2351   1.369   2.036   2.706  0.5908 -0.0053  0.6632
  588SOL     MW 2352   1.378   1.976   2.644 -0.1738  0.2745  0.1652
  589SOL     OW 2353   1.430   1.996   0.071 -0.0154  0.4289  0.3206
  589SOL    HW1 2354   1.412   2.087   0.095  2.0830  0.0972  0.0621
  589SOL    HW2 2355   1.393   1.941   0.138 -1.0066  0.5055 -2.5172
  589SOL     MW 2356   1.423   2.001   0.083  0.1307  0.3953 -0.0879
  590SOL     OW 2357   0.513   2.667   2.160  0.6460 -0.1095  0.1665
  590SOL    HW1 2358   0.497   2.673   2.061 -3.9002 -1.6710  0.9934
  590SOL    HW2 2359   0.558   2.747   2.177 -0.1850  0.5348  1.2350
  590SOL     MW 2360   0.517   2.678   2.149 -0.0635 -0.2305  0.4166
  591SOL     OW 2361   2.244   0.670   0.105 -0.1663  0.3339  0.3444
  591SOL    HW1 2362   2.166   0.678   0.154  1.0431  1.2869 -1.5140
  591SOL    HW2 2363   2.230   0.731   0.033 -1.0783  2.8854  0.4583
  591SOL     MW 2364   2.232   0.679   0.102 -0.1270  0.7963  0.1142
  592SOL     OW 2365   1.692   2.974   0.813 -0.1573  0.2921  0.3475
  592SOL    HW1 2366   1.690   3.057   0.762  1.0408  2.2599  0.3842
  592SOL    HW2 2367   1.769   2.925   0.780  0.0967 -2.0308 -0.6948
  592SOL     MW 2368   1.702   2.978   0.802  0.0343  0.2452  0.2149
  593SOL     OW 2369   1.993   0.712   0.774 -0.5417 -0.2206  0.0710
  593SOL    HW1 2370   1.907   0.704   0.726  0.5293  1.6342 -1.1043
  593SOL    HW2 2371   2.047   0.635   0.760  1.1515  1.2454  0.7798
  593SOL     MW 2372   1.989   0.701   0.766 -0.1770  0.2176  0.0095
  594SOL     OW 2373   2.710   1.042   1.393 -0.1950 -0.4892 -0.0894
  594SOL    HW1 2374   2.777   1.097   1.359  1.6772 -0.6300  2.0233
  594SOL    HW2 2375   2.631   1.058   1.339 -0.4840 -1.4690  2.1497
  594SOL     MW 2376   2.708   1.051   1.382  0.0139 -0.6371  0.4848
  595SOL     OW 2377   0.487   0.913   0.857  0.2413 -0.1060 -0.1036
  595SOL    HW1 2378   0.502   0.976   0.787  0.0715 -2.8063  0.3096
  595SOL    HW2 2379   0.498   0.969   0.940  0.1247  0.3274 -0.6813
  595SOL     MW 2380   0.491   0.929   0.859  0.2035 -0.4051 -0.1253
  596SOL     OW 2381   2.459   1.345   0.523  0.0257 -0.0085 -0.1665
  596SOL    HW1 2382   2.527   1.398   0.485 -1.1425 -0.5475 -1.5151
  596SOL    HW2 2383   2.507   1.312   0.600  1.7629 -0.0912 -0.4497
  596SOL     MW 2384   2.474   1.348   0.528  0.1007 -0.0905 -0.3818
  597SOL     OW 2385   2.211   0.631   1.562 -0.3275 -0.3707 -0.1477
  597SOL    HW1 2386   2.229   0.585   1.646 -1.9574  3.1446 -1.3229
  597SOL    HW2 2387   2.135   0.575   1.516 -0.8785  0.8511 -3.0827
  597SOL     MW 2388   2.204   0.618   1.567 -0.6152  0.2543 -0.6900
  598SOL     OW 2389   2.597   1.060   2.865  0.2692  0.0600  0.0601
  598SOL    HW1 2390   2.572   0.984   2.813 -3.9779  1.4271  2.3746
  598SOL    HW2 2391   2.694   1.081   2.851  1.4716 -0.9109  0.8633
  598SOL     MW 2392   2.606   1.053   2.856 -0.1325  0.1123  0.4714
  599SOL     OW 2393   3.059   0.414   2.233  0.7683 -0.4626  0.9107
  599SOL    HW1 2394   3.081   0.424   2.319 -2.2398 -0.2776  1.2554
  599SOL    HW2 2395   3.062   0.499   2.184  0.7676 -1.7302 -0.3304
  599SOL     MW 2396   3.063   0.426   2.237  0.3714 -0.6054  0.7924
  600SOL     OW 2397   1.850   1.665   0.843 -0.0541  0.3108 -0.4959
  600SOL    HW1 2398   1.889   1.700   0.924 -0.5298  1.1752 -2.4439
  600SOL    HW2 2399   1.781   1.730   0.837  1.8019  1.3152 -0.7248
  600SOL     MW 2400   1.846   1.678   0.853  0.1281  0.5574 -0.7831
  601SOL     OW 2401   2.545   0.718   0.815  0.2139 -0.0017  0.0884
  601SOL    HW1 2402   2.527   0.737   0.907 -0.0381  0.1251 -1.1038
  601SOL    HW2 2403   2.489   0.639   0.783 -1.7600  0.7127 -1.2993
  601SOL     MW 2404   2.535   0.710   0.823 -0.0798  0.1093 -0.2520
  602SOL     OW 2405   2.293   1.897   0.743 -0.5421 -0.4315  0.0920
  602SOL    HW1 2406   2.237   1.824   0.692  2.8177 -0.7454 -2.7733
  602SOL    HW2 2407   2.242   1.985   0.736  0.2378 -0.2364 -2.3571
  602SOL     MW 2408   2.279   1.899   0.735  0.0041 -0.4472 -0.6092
  603SOL     OW 2409   2.965   1.377   1.984  0.0978  0.3197 -0.2512
  603SOL    HW1 2410   2.924   1.408   2.068  0.5864 -1.9732  1.7915
  603SOL    HW2 2411   2.971   1.278   2.003 -3.8231 -1.9506  1.3660
  603SOL     MW 2412   2.960   1.368   1.998 -0.3551 -0.2824  0.2317
  604SOL     OW 2413   2.028   1.388   0.406 -0.0573  0.3893 -0.4800
  604SOL    HW1 2414   2.068   1.324   0.467 -0.9294 -2.5855 -0.7429
  604SOL    HW2 2415   1.965   1.438   0.461 -1.2209  1.4104 -0.8887
  604SOL     MW 2416   2.025   1.386   0.421 -0.3259  0.1315 -0.5686
  605SOL     OW 2417   2.424   1.466   0.848 -0.4744 -0.0729  0.3500
  605SOL    HW1 2418   2.454   1.537   0.787  2.6992 -0.2691  1.1253
  605SOL    HW2 2419   2.440   1.383   0.800  0.7327 -0.8589 -0.8263
  605SOL     MW 2420   2.430   1.464   0.834  0.1036 -0.2025  0.2971
  606SOL     OW 2421   2.613   1.798   1.856  0.0845 -0.3594 -0.7836
  606SOL    HW1 2422   2.524   1.755   1.876 -1.1600 -0.2619 -2.1057
  606SOL    HW2 2423   2.660   1.747   1.799  3.4529  0.4706  1.3855
  606SOL     MW 2424   2.607   1.786   1.851  0.3647 -0.2370 -0.6719
  607SOL     OW 2425   2.396   1.011   3.067 -0.2069 -0.2795 -0.1294
  607SOL    HW1 2426   2.465   1.051   3.011 -0.7545 -0.2741 -0.6041
  607SOL    HW2 2427   2.413   1.018   3.159 -3.4328  1.4623  0.6922
  607SOL     MW 2428   2.407   1.017   3.072 -0.7048 -0.0489 -0.0837
  608SOL     OW 2429   1.865   0.204   0.534  0.0090  0.0318 -0.1926
  608SOL    HW1 2430   1.847   0.233   0.448  0.2823  0.8073  1.1832
  608SOL    HW2 2431   1.819   0.111   0.530  0.9995 -2.0424  0.4355
  608SOL     MW 2432   1.856   0.195   0.522  0.1758 -0.1395  0.0718
  609SOL     OW 2433   2.131   1.890   3.086 -0.0341 -0.0008  0.0937
  609SOL    HW1 2434   2.073   1.832   3.032  1.6387 -2.6124 -2.0391
  609SOL    HW2 2435   2.097   1.892   3.173  0.1831  0.5835  0.2838
  609SOL     MW 2436   2.119   1.883   3.090  0.2152 -0.2683 -0.1626
  610SOL     OW 2437   1.820   0.912   1.224  0.6498  0.1533 -0.4294
  610SOL    HW1 2438   1.852   0.828   1.186 -3.1116 -0.4646  0.9223
  610SOL    HW2 2439   1.726   0.917   1.199 -0.4735  1.4404  0.1055
  610SOL     MW 2440   1.812   0.901   1.215  0.0053  0.2416 -0.1805
  611SOL     OW 2441   2.499   1.639   0.625 -0.0713  0.2787 -0.1396
  611SOL    HW1 2442   2.560   1.606   0.560 -1.4646  0.0746 -0.6385
  611SOL    HW2 2443   2.422   1.637   0.572 -1.3132  1.1861 -3.2042
  611SOL     MW 2444   2.497   1.635   0.610 -0.4190  0.3715 -0.6097
  612SOL     OW 2445   2.943   2.974   0.319 -0.1057 -0.0492  0.1402
  612SOL    HW1 2446   2.941   2.983   0.410 -2.1163  0.6519  0.1266
  612SOL    HW2 2447   2.987   2.895   0.296 -3.1716  2.2495  1.6534
  612SOL     MW 2448   2.949   2.964   0.328 -0.7755  0.3466  0.3381
  613SOL     OW 2449   1.511   1.157   1.012 -0.4027 -0.0662  0.1344
  613SOL    HW1 2450   1.502   1.250   1.032 -0.9017  1.4108 -0.2936
  613SOL    HW2 2451   1.520   1.101   1.087 -0.9117  0.7755 -0.8699
  613SOL     MW 2452   1.511   1.162   1.025 -0.5357  0.2397 -0.0546
  614SOL     OW 2453   2.015   0.479   1.397 -0.0391 -0.1224  0.3133
  614SOL    HW1 2454   1.991   0.442   1.483 -0.2424 -0.0550  2.4582
  614SOL    HW2 2455   1.925   0.496   1.362  0.9810 -1.3285  0.0971
  614SOL     MW 2456   2.000   0.476   1.403  0.0686 -0.2726  0.5678
  615SOL     OW 2457   2.408   0.712   0.319  0.0187 -0.4549 -0.2348
  615SOL    HW1 2458   2.477   0.646   0.316 -0.5725  0.2752  1.5323
  615SOL    HW2 2459   2.346   0.702   0.238 -3.5694 -0.4782 -1.2536
  615SOL     MW 2460   2.409   0.702   0.308 -0.5327 -0.3616 -0.1361
  616SOL     OW 2461   2.536   0.403   1.613  0.5496 -0.2174  0.0288
  616SOL    HW1 2462   2.579   0.337   1.560  0.8419 -1.1271  0.5534
  616SOL    HW2 2463   2.513   0.482   1.560 -0.4367 -0.7134  1.7194
  616SOL     MW 2464   2.539   0.405   1.599  0.4580 -0.4029  0.3211
  617SOL     OW 2465   2.895   0.547   1.858  0.2360 -0.3225 -0.0561
  617SOL    HW1 2466   2.823   0.553   1.920 -0.2974  1.1352  0.1158
  617SOL    HW2 2467   2.882   0.466   1.814  0.6730  2.3200 -2.1364
  617SOL     MW 2468   2.884   0.537   1.861  0.2233  0.2185 -0.3079
  618SOL     OW 2469   2.763   0.256   1.996 -0.0026 -0.1697  0.1839
  618SOL    HW1 2470   2.718   0.295   2.074 -0.4223 -1.8723 -0.3337
  618SOL    HW2 2471   2.853   0.253   2.018  1.4687 -2.0170  1.0002
  618SOL     MW 2472   2.769   0.261   2.009  0.1361 -0.6381  0.2233
  619SOL     OW 2473   2.691   0.733   0.085  0.6914  0.0115  0.6002
  619SOL    HW1 2474   2.743   0.811   0.084  0.2515 -1.2682  0.4763
  619SOL    HW2 2475   2.735   0.682   0.148  0.7153 -1.1811 -1.4254
  619SOL     MW 2476   2.704   0.736   0.093  0.6365 -0.3147  0.3166
  620SOL     OW 2477   2.216   1.057   0.914  0.2610 -0.0913  0.2268
  620SOL    HW1 2478   2.286   1.018   0.861 -2.1835 -0.5668 -3.8595
  620SOL    HW2 2479   2.132   1.019   0.883 -0.6101  0.6608  1.2113
  620SOL     MW 2480   2.214   1.047   0.903 -0.1765 -0.0548 -0.1825
  621SOL     OW 2481   1.476   2.198   1.963  0.2383 -0.0576 -0.0202
  621SOL    HW1 2482   1.428   2.114   1.981 -0.1827 -0.2498  2.1529
  621SOL    HW2 2483   1.572   2.177   1.972  1.4209 -2.5847  0.2361
  621SOL     MW 2484   1.482   2.184   1.967  0.3388 -0.4164  0.3004
  622SOL     OW 2485   2.651   0.234   0.267 -0.1222  0.0868 -0.4047
  622SOL    HW1 2486   2.746   0.265   0.258  1.5426  1.8031  0.0653
  622SOL    HW2 2487   2.668   0.144   0.290  0.1680  2.1252  0.1447
  622SOL     MW 2488   2.666   0.226   0.269  0.1357  0.5822 -0.2702
  623SOL     OW 2489   2.395   2.751   0.878  0.2398 -0.2219 -0.7733
  623SOL    HW1 2490   2.456   2.824   0.882  1.6533  1.8195  1.3517
  623SOL    HW2 2491   2.339   2.753   0.964 -0.1435 -0.7820  0.2111
  623SOL     MW 2492   2.396   2.761   0.890  0.3757 -0.0265 -0.3630
  624SOL     OW 2493   2.148   1.548   3.057 -0.4325 -0.4007  0.4989
  624SOL    HW1 2494   2.064   1.495   3.062  1.4234 -1.9007 -0.8659
  624SOL    HW2 2495   2.120   1.625   3.000 -1.3090  1.4498 -1.8219
  624SOL     MW 2496   2.133   1.552   3.050 -0.3033 -0.3545  0.0126
  625SOL     OW 2497   2.212   1.880   1.019 -0.4246 -0.3980 -0.4846
  625SOL    HW1 2498   2.270   1.835   1.079 -0.0513  0.7643 -1.8820
  625SOL    HW2 2499   2.243   1.868   0.929  1.2200 -0.5436 -0.3118
  625SOL     MW 2500   2.224   1.873   1.015 -0.1584 -0.2638 -0.6461
  626SOL     OW 2501   0.143   1.815   2.459  0.4736  0.4622  0.1796
  626SOL    HW1 2502   0.098   1.737   2.478  0.0552  1.6794 -1.1508
  626SOL    HW2 2503   0.086   1.889   2.459  2.1574  1.1746  0.1240
  626SOL     MW 2504   0.129   1.815   2.462  0.6406  0.7168 -0.0032
  627SOL     OW 2505   2.537   0.849   2.552  0.6157  0.2333  0.1518
  627SOL    HW1 2506   2.445   0.864   2.551  1.5352  2.5442  2.1026
  627SOL    HW2 2507   2.551   0.787   2.479 -1.5101  0.4391 -0.9508
  627SOL     MW 2508   2.526   0.843   2.542  0.4565  0.5653  0.2637
  628SOL     OW 2509   2.307   1.358   1.309  0.5981  0.2456 -0.1455
  628SOL    HW1 2510   2.265   1.288   1.261 -0.3518  2.0927  3.8361
  628SOL    HW2 2511   2.397   1.360   1.276  0.5118 -2.9410 -0.7532
  628SOL     MW 2512   2.313   1.349   1.298  0.4614  0.0688  0.2997
  629SOL     OW 2513   1.785   0.583   1.316  0.5158  0.3614  0.1172
  629SOL    HW1 2514   1.809   0.610   1.225 -0.0430  0.9521 -1.0960
  629SOL    HW2 2515   1.695   0.548   1.302  1.7414  0.5244 -0.2538
  629SOL     MW 2516   1.776   0.582   1.302  0.6038  0.4608 -0.0918
  630SOL     OW 2517   2.433   1.889   3.044  0.1536 -0.0403  0.2643
  630SOL    HW1 2518   2.445   1.985   3.023 -0.5586 -1.0840  1.0418
  630SOL    HW2 2519   2.337   1.887   3.054  1.9646  2.3276  1.1570
  630SOL     MW 2520   2.422   1.901   3.043  0.2986  0.1344  0.4847
  631SOL     OW 2521   2.113   1.774   1.505  0.2104  0.2530 -0.0160
  631SOL    HW1 2522   2.077   1.703   1.554 -1.8419  1.0882  1.7226
  631SOL    HW2 2523   2.041   1.827   1.472 -2.6975 -0.6061  0.3071
  631SOL     MW 2524   2.099   1.772   1.507 -0.4441  0.2499  0.2560
  632SOL     OW 2525   0.303   1.888   1.550  0.0817 -0.3975  0.1037
  632SOL    HW1 2526   0.210   1.914   1.555  4.9566  0.3811 -0.0731
  632SOL    HW2 2527   0.305   1.803   1.509 -0.5313  1.5201  2.1454
  632SOL     MW 2528   0.291   1.880   1.545  0.6440 -0.0417  0.3497
  633SOL     OW 2529   2.613   0.540   0.406 -0.3919 -0.1163 -0.0451
  633SOL    HW1 2530   2.665   0.542   0.488 -0.2398 -0.9289  1.0859
  633SOL    HW2 2531   2.630   0.454   0.379 -1.0366  2.1112  0.9121
  633SOL     MW 2532   2.622   0.529   0.413 -0.4569  0.0704  0.2304
  634SOL     OW 2533   2.619   0.001   0.645 -0.1888  0.1232 -0.1469
  634SOL    HW1 2534   2.657   0.090   0.621 -0.3123  0.2643 -1.2107
  634SOL    HW2 2535   2.583  -0.038   0.566 -0.4018  1.0148 -0.0760
  634SOL     MW 2536   2.619   0.008   0.631 -0.2332  0.2594 -0.2779
  635SOL     OW 2537   2.630   0.052   1.879 -0.0605  0.2025 -0.7086
  635SOL    HW1 2538   2.684   0.002   1.813 -1.2011  1.0885  2.1999
  635SOL    HW2 2539   2.686   0.124   1.908 -0.1834 -1.3444 -0.3420
  635SOL     MW 2540   2.645   0.055   1.874 -0.2272  0.1153 -0.2765
  636SOL     OW 2541   2.718   1.704   0.791 -0.2249  0.2967 -0.5192
  636SOL    HW1 2542   2.634   1.700   0.739  0.3423  2.5799 -1.6343
  636SOL    HW2 2543   2.718   1.766   0.864 -0.8939  0.4836  1.1659
  636SOL     MW 2544   2.707   1.712   0.794 -0.2383  0.6226 -0.4440
  637SOL     OW 2545   2.859   1.512   0.659  0.0012  0.1430  0.1069
  637SOL    HW1 2546   2.930   1.568   0.618 -0.1800  0.0606 -0.1998
  637SOL    HW2 2547   2.822   1.575   0.723 -0.5422  1.5511  1.5447
  637SOL     MW 2548   2.864   1.528   0.662 -0.0944  0.3179  0.2561
  638SOL     OW 2549   2.789   0.517   0.617  0.0325  0.7476 -0.1486
  638SOL    HW1 2550   2.869   0.552   0.570 -0.9025 -2.8278 -0.1651
  638SOL    HW2 2551   2.793   0.530   0.711  0.5136 -0.6388 -0.3404
  638SOL     MW 2552   2.800   0.524   0.623 -0.0274  0.0930 -0.1761
  639SOL     OW 2553   1.698   3.078   0.547 -0.5517  0.4240 -0.4085
  639SOL    HW1 2554   1.604   3.065   0.530 -1.1067 -0.7833 -0.7006
  639SOL    HW2 2555   1.746   3.000   0.521  3.5026 -0.9027 -1.7550
  639SOL     MW 2556   1.692   3.066   0.541 -0.0900  0.0897 -0.6247
  640SOL     OW 2557   0.302   1.370   0.113 -0.3007 -0.1707  0.5704
  640SOL    HW1 2558   0.337   1.352   0.021  2.5177  0.8016 -1.1844
  640SOL    HW2 2559   0.300   1.283   0.154  0.0684  0.6966 -3.4574
  640SOL     MW 2560   0.306   1.356   0.106  0.1199  0.0720 -0.1926
  641SOL     OW 2561   2.171   0.333   0.405  1.3015 -0.4934  0.2560
  641SOL    HW1 2562   2.238   0.295   0.343 -1.6868 -2.4809 -2.3337
  641SOL    HW2 2563   2.191   0.300   0.490  2.5599  0.1731 -1.1097
  641SOL     MW 2564   2.183   0.324   0.408  1.0733 -0.6677 -0.2659
  642SOL     OW 2565   0.042   0.056   0.563 -0.0380  0.5368 -0.2408
  642SOL    HW1 2566   0.028   0.154   0.543  0.6360 -1.9602 -0.6179
  642SOL    HW2 2567  -0.038   0.013   0.595 -1.0204 -0.6098 -1.7127
  642SOL     MW 2568   0.029   0.063   0.564 -0.0787  0.0561 -0.4848
  643SOL     OW 2569   2.072   0.312   1.651  0.3259  0.3709 -0.5436
  643SOL    HW1 2570   2.006   0.267   1.704 -0.5536  0.1189  0.0285
  643SOL    HW2 2571   2.092   0.254   1.578  0.2927 -1.0938 -1.0767
  643SOL     MW 2572   2.066   0.299   1.649  0.2054  0.1444 -0.5385
  644SOL     OW 2573   2.674   1.906   0.996 -0.5993 -0.1690 -0.5860
  644SOL    HW1 2574   2.685   1.834   1.063  0.4691  0.2056  0.8508
  644SOL    HW2 2575   2.587   1.906   0.962  1.2130  0.6214  0.4924
  644SOL     MW 2576   2.664   1.896   1.001 -0.2192 -0.0153 -0.2542
  645SOL     OW 2577   2.762   0.872   0.715  0.1162  0.2709  0.2081
  645SOL    HW1 2578   2.844   0.857   0.757 -0.3359  2.4489  0.7184
  645SOL    HW2 2579   2.694   0.809   0.749 -0.8946  4.0153 -1.3824
  645SOL     MW 2580   2.764   0.862   0.725 -0.0769  1.0523  0.0655
  646SOL     OW 2581   0.180   2.243   0.846  0.0520 -0.1057  0.3623
  646SOL    HW1 2582   0.179   2.145   0.868 -2.1940 -0.0602  1.9705
  646SOL    HW2 2583   0.128   2.251   0.764  0.1176  0.3266  0.6551
  646SOL     MW 2584   0.173   2.231   0.838 -0.2357 -0.0426  0.6131
  647SOL     OW 2585   2.742   0.505   3.022  0.4765  0.2109 -0.2982
  647SOL    HW1 2586   2.671   0.439   3.035 -0.5153 -2.5235  0.5241
  647SOL    HW2 2587   2.721   0.571   3.092  0.3028  2.0524  1.3633
  647SOL     MW 2588   2.730   0.505   3.033  0.3227  0.0931  0.0295
  648SOL     OW 2589   2.258   0.669   1.118  0.0120 -0.2274  0.5338
  648SOL    HW1 2590   2.265   0.590   1.170 -2.4148  1.5761 -1.9383
  648SOL    HW2 2591   2.217   0.727   1.179 -2.8903 -1.4752 -1.7971
  648SOL     MW 2592   2.253   0.666   1.133 -0.6912 -0.1541 -0.0999
  649SOL     OW 2593   2.445   2.711   1.252 -0.1885 -0.0156  0.2987
  649SOL    HW1 2594   2.522   2.769   1.273 -1.8925  0.6096  0.7135
  649SOL    HW2 2595   2.477   2.635   1.205 -2.3304  2.3829 -1.2315
  649SOL     MW 2596   2.459   2.709   1.248 -0.6959  0.3834  0.1515
  650SOL     OW 2597   2.781   0.228   0.599  0.0216 -0.1090 -0.9640
  650SOL    HW1 2598   2.813   0.318   0.587 -2.0815  0.0603 -1.6713
  650SOL    HW2 2599   2.838   0.173   0.544  1.4230 -0.6750  2.0178
  650SOL     MW 2600   2.793   0.232   0.590 -0.0710 -0.1613 -0.6639
  651SOL     OW 2601   3.090   0.454   1.011  0.6122 -0.4153  0.5125
  651SOL    HW1 2602   3.144   0.513   0.949 -0.2106  1.4514  1.4028
  651SOL    HW2 2603   3.022   0.515   1.035  0.0781  1.4408  0.5599
  651SOL     MW 2604   3.088   0.470   1.006  0.4332  0.0759  0.6362
  652SOL     OW 2605   2.396   1.417   3.003  0.5475 -0.1374  0.1324
  652SOL    HW1 2606   2.459   1.452   2.936 -1.1642  0.3018 -1.2655
  652SOL    HW2 2607   2.337   1.488   3.027 -0.0517 -1.1125 -0.3428
  652SOL     MW 2608   2.397   1.431   2.997  0.2426 -0.2081 -0.1147
  653SOL     OW 2609   1.853   0.339   0.273 -0.3538 -0.5175  0.0195
  653SOL    HW1 2610   1.838   0.271   0.202 -0.8855  0.0204 -0.8841
  653SOL    HW2 2611   1.942   0.374   0.257  0.1170  0.6391  1.7353
  653SOL     MW 2612   1.863   0.335   0.261 -0.3618 -0.2939  0.1267
  654SOL     OW 2613   2.443   0.971   0.776 -0.9717  0.1569  0.3329
  654SOL    HW1 2614   2.386   0.980   0.696 -0.1397  2.1915  0.4562
  654SOL    HW2 2615   2.478   0.883   0.770  0.1790 -2.1704  0.4358
  654SOL     MW 2616   2.440   0.961   0.764 -0.7101  0.1183  0.3628
  655SOL     OW 2617   2.913   0.929   0.396 -0.3079 -0.1297 -0.8210
  655SOL    HW1 2618   2.865   0.990   0.455 -2.3695  0.5276 -1.5415
  655SOL    HW2 2619   2.920   0.846   0.445 -2.2991 -0.3627 -0.0420
  655SOL     MW 2620   2.908   0.926   0.410 -0.8427 -0.0738 -0.8133
  656SOL     OW 2621   1.828   2.660   1.404  0.0575 -0.1504  0.0793
  656SOL    HW1 2622   1.842   2.754   1.386 -0.3398 -0.1022  0.6851
  656SOL    HW2 2623   1.901   2.615   1.364  0.7155  0.9028 -1.2553
  656SOL     MW 2624   1.840   2.666   1.397  0.0919 -0.0051 -0.0169
  657SOL     OW 2625   0.063   1.813   1.212 -0.2480  0.1899 -0.6748
  657SOL    HW1 2626   0.152   1.847   1.190 -0.2264  3.9822  0.3190
  657SOL    HW2 2627   0.075   1.748   1.281  0.2618 -3.6615 -2.2204
  657SOL     MW 2628   0.076   1.809   1.218 -0.1779  0.1821 -0.7476
  658SOL     OW 2629   2.733   1.352   0.242 -0.3449 -0.2011 -0.0806
  658SOL    HW1 2630   2.702   1.272   0.298 -1.1526 -2.6519 -0.5671
  658SOL    HW2 2631   2.745   1.419   0.307  0.6114 -2.3100 -1.0651
  658SOL     MW 2632   2.730   1.351   0.258 -0.3253 -0.8027 -0.2747
  659SOL     OW 2633   2.173   1.475   1.022 -0.3808 -0.4612 -0.2362
  659SOL    HW1 2634   2.256   1.433   1.035 -1.9316  2.1464 -1.1404
  659SOL    HW2 2635   2.144   1.502   1.112 -0.0592 -0.9589  2.3266
  659SOL     MW 2636   2.181   1.473   1.036 -0.5430 -0.1828 -0.0174
  660SOL     OW 2637   2.086   1.515   1.663  0.7636  1.1180 -0.3126
  660SOL    HW1 2638   2.092   1.506   1.760 -0.8482 -2.9468  1.2026
  660SOL    HW2 2639   2.003   1.472   1.642  0.5139  1.5111 -0.7512
  660SOL     MW 2640   2.076   1.508   1.673  0.5180  0.6336 -0.1705
  661SOL     OW 2641   2.414   0.978   0.253  0.4776  0.2041  0.3849
  661SOL    HW1 2642   2.496   1.021   0.293 -0.7375 -2.6391  2.6275
  661SOL    HW2 2643   2.427   0.875   0.257  0.0498 -0.8591 -0.4432
  661SOL     MW 2644   2.426   0.970   0.259  0.2608 -0.3113  0.5715
  662SOL     OW 2645   2.576   2.968   0.877 -0.5069 -0.2499 -0.1386
  662SOL    HW1 2646   2.525   3.045   0.916  0.7865  0.0535 -0.2332
  662SOL    HW2 2647   2.594   3.006   0.785  1.4212 -0.7295 -1.1138
  662SOL     MW 2648   2.571   2.983   0.870 -0.0819 -0.2732 -0.2798
  663SOL     OW 2649   2.701   1.540   0.447  0.3537  1.2547 -0.1414
  663SOL    HW1 2650   2.722   1.618   0.399 -1.6288 -0.0710  2.9420
  663SOL    HW2 2651   2.774   1.526   0.512 -0.5458  0.1721 -3.5233
  663SOL     MW 2652   2.713   1.549   0.450 -0.0266  0.9369 -0.1808
  664SOL     OW 2653   2.534   1.483   1.523 -0.2488 -0.5174 -0.4806
  664SOL    HW1 2654   2.499   1.564   1.491  0.0735 -0.3842  1.2577
  664SOL    HW2 2655   2.443   1.448   1.544 -1.6920  3.0583 -1.5072
  664SOL     MW 2656   2.517   1.489   1.522 -0.3967 -0.0281 -0.3867
  665SOL     OW 2657   2.856   0.824   2.111  0.1859  0.1328  0.2550
  665SOL    HW1 2658   2.833   0.855   2.020 -0.3427  4.0147  0.8044
  665SOL    HW2 2659   2.937   0.774   2.105 -0.4742  0.1736  0.6078
  665SOL     MW 2660   2.864   0.821   2.098  0.0291  0.6503  0.3741
  666SOL     OW 2661   2.760   3.022   1.680  0.0874  0.0620  0.3680
  666SOL    HW1 2662   2.781   3.021   1.587 -0.1116  0.1124  0.6770
  666SOL    HW2 2663   2.731   2.931   1.694  2.6933 -0.9478  0.3749
  666SOL     MW 2664   2.759   3.010   1.670  0.4049 -0.0646  0.4097
  667SOL     OW 2665   1.976   2.722   1.724 -0.0807  0.3915  0.3548
  667SOL    HW1 2666   2.023   2.658   1.778  0.4475  0.3678  0.3862
  667SOL    HW2 2667   2.030   2.800   1.725 -0.2423 -0.9896  0.2629
  667SOL     MW 2668   1.989   2.724   1.731 -0.0323  0.2061  0.3468
  668SOL     OW 2669   2.781   0.565   0.890  0.1540 -0.1608  0.7065
  668SOL    HW1 2670   2.825   0.593   0.981  1.7043  1.9997  0.1494
  668SOL    HW2 2671   2.717   0.631   0.874  3.4080 -1.3718 -0.5269
  668SOL     MW 2672   2.779   0.578   0.900  0.7879 -0.0355  0.4703
  669SOL     OW 2673   0.214   0.994   0.726  0.2127  0.4332 -0.0510
  669SOL    HW1 2674   0.169   1.037   0.798  2.0617  1.3471 -2.4174
  669SOL    HW2 2675   0.288   1.056   0.720 -0.8224 -0.0673  2.5435
  669SOL     MW 2676   0.217   1.008   0.735  0.3201  0.4877 -0.0209
  670SOL     OW 2677   2.910   0.342   0.223 -0.2719 -0.1376  0.8909
  670SOL    HW1 2678   2.908   0.297   0.136 -0.1124  0.3165 -0.8046
  670SOL    HW2 2679   2.920   0.434   0.203 -3.5187 -1.4565 -0.0753
  670SOL     MW 2680   2.911   0.348   0.209 -0.6793 -0.2517  0.5397
  671SOL     OW 2681   2.000   3.015   1.529 -0.0894  0.4179 -0.0835
  671SOL    HW1 2682   1.931   2.986   1.470 -1.8774  1.0121  2.4097
  671SOL    HW2 2683   1.954   3.042   1.612 -0.9608  0.2729 -1.5589
  671SOL     MW 2684   1.985   3.015   1.532 -0.4402  0.4772  0.0508
  672SOL     OW 2685   1.830   1.732   1.305  0.3341  0.2590 -0.0106
  672SOL    HW1 2686   1.827   1.814   1.361 -0.0187 -3.0858 -0.0353
  672SOL    HW2 2687   1.872   1.769   1.223 -0.4900  2.2260  2.1389
  672SOL     MW 2688   1.835   1.748   1.301  0.1788  0.0772  0.2697
  673SOL     OW 2689   2.783   1.094   0.561  0.1075 -0.8535  0.4669
  673SOL    HW1 2690   2.781   1.024   0.625  2.4104  1.6783 -2.7556
  673SOL    HW2 2691   2.846   1.157   0.597  1.8499 -1.4399  2.0139
  673SOL     MW 2692   2.791   1.093   0.574  0.6413 -0.5968  0.2458
  674SOL     OW 2693   2.504   3.095   1.230  0.3633 -0.4194  0.8800
  674SOL    HW1 2694   2.456   3.101   1.152  2.0150 -0.9928  1.4061
  674SOL    HW2 2695   2.541   3.004   1.228  2.7189 -1.0338 -1.1384
  674SOL     MW 2696   2.502   3.083   1.219  0.8920 -0.5761  0.6831
  675SOL     OW 2697   3.005   0.902   1.083  0.9806 -0.0287  0.8102
  675SOL    HW1 2698   3.069   0.884   1.157 -2.0146  0.4321  4.1649
  675SOL    HW2 2699   3.047   0.953   1.014 -0.1644  0.9291 -1.8017
  675SOL     MW 2700   3.019   0.907   1.084  0.4344  0.1585  0.9082
  676SOL     OW 2701   2.908   1.465   1.705 -0.4200  0.3614 -0.4720
  676SOL    HW1 2702   2.885   1.380   1.670  0.7459  1.1483  3.2218
  676SOL    HW2 2703   2.931   1.435   1.802  1.1970 -1.5219  1.0211
  676SOL     MW 2704   2.908   1.450   1.713 -0.0528  0.2168  0.2124
  677SOL     OW 2705   2.414   0.569   1.993  0.3489 -0.1431 -0.5928
  677SOL    HW1 2706   2.369   0.519   1.920  0.3090 -1.3594 -3.1781
  677SOL    HW2 2707   2.412   0.663   1.959  3.9653 -0.0673  1.6431
  677SOL     MW 2708   2.408   0.575   1.979  0.8208 -0.2936 -0.6389
  678SOL     OW 2709   2.381   1.639   0.298 -0.2711 -0.1923  0.6425
  678SOL    HW1 2710   2.292   1.638   0.331  0.9685 -0.4765  1.7372
  678SOL    HW2 2711   2.409   1.546   0.283 -3.2999 -1.1346  1.8078
  678SOL     MW 2712   2.373   1.626   0.300 -0.5072 -0.3541  0.9406
  679SOL     OW 2713   2.257   0.420   1.262  0.5991 -0.0100  0.1716
  679SOL    HW1 2714   2.253   0.347   1.200 -1.5266  1.6531 -0.1597
  679SOL    HW2 2715   2.164   0.430   1.286  3.5893  3.1010  0.8394
  679SOL     MW 2716   2.244   0.412   1.257  0.7132  0.6199  0.2160
  680SOL     OW 2717   2.409   0.103   1.493  0.5686 -0.2796  0.5793
  680SOL    HW1 2718   2.348   0.146   1.434 -1.7411  1.9405 -0.5359
  680SOL    HW2 2719   2.459   0.046   1.431  0.6475  2.9542 -0.1960
  680SOL     MW 2720   2.408   0.102   1.477  0.2743  0.4400  0.3299
  681SOL     OW 2721   0.256   0.596   1.492  0.3252  0.4166 -0.3136
  681SOL    HW1 2722   0.303   0.538   1.559 -1.8283  0.3304 -0.0399
  681SOL    HW2 2723   0.203   0.527   1.452 -0.3054 -1.8558 -0.3872
  681SOL     MW 2724   0.255   0.579   1.496 -0.0421  0.1054 -0.2872
  682SOL     OW 2725   0.074   2.895   1.537  0.1120 -1.0867  0.2973
  682SOL    HW1 2726   0.153   2.933   1.558 -0.4911 -1.0341 -0.4619
  682SOL    HW2 2727   0.028   2.921   1.614  0.7588 -0.5490 -0.9175
  682SOL     MW 2728   0.078   2.903   1.550  0.1178 -1.0088  0.0368
  683SOL     OW 2729   2.070   0.822   2.999  0.1962 -0.4981  0.1485
  683SOL    HW1 2730   2.018   0.766   3.056  1.9519 -0.2055 -1.4564
  683SOL    HW2 2731   2.036   0.913   3.010  1.8381 -0.7640 -0.8547
  683SOL     MW 2732   2.058   0.826   3.008  0.6444 -0.4946 -0.1956
  684SOL     OW 2733   2.109   1.741   0.644 -0.4134 -0.0057 -0.4913
  684SOL    HW1 2734   2.129   1.714   0.551 -2.1176  0.3315  1.2853
  684SOL    HW2 2735   2.088   1.660   0.692 -0.5334 -0.7958  0.6516
  684SOL     MW 2736   2.109   1.727   0.638 -0.6541 -0.0654 -0.1061
  685SOL     OW 2737   2.681   1.687   1.169  0.1183  0.3642  0.1298
  685SOL    HW1 2738   2.708   1.653   1.251  0.2255 -0.8969  0.2075
  685SOL    HW2 2739   2.615   1.626   1.125 -1.8241  0.1862  2.4467
  685SOL     MW 2740   2.676   1.674   1.174 -0.1239  0.1744  0.4457
  686SOL     OW 2741   2.903   0.633   1.595 -0.2106  0.2044  0.3016
  686SOL    HW1 2742   2.886   0.609   1.681 -1.0088 -1.0188 -3.5565
  686SOL    HW2 2743   2.984   0.683   1.595 -0.2014  1.0296 -0.0737
  686SOL     MW 2744   2.912   0.636   1.606 -0.3147  0.1519 -0.2569
  687SOL     OW 2745   2.149   0.183   1.114 -0.8861  0.3765  0.1855
  687SOL    HW1 2746   2.189   0.140   1.034 -0.1838 -2.2738 -0.0423
  687SOL    HW2 2747   2.078   0.244   1.084  1.5951  0.3346 -1.4457
  687SOL     MW 2748   2.145   0.185   1.099 -0.4661  0.0213 -0.0598
  688SOL     OW 2749   2.419   0.596   1.400  0.3244 -0.1705 -0.2796
  688SOL    HW1 2750   2.381   0.516   1.358 -0.9942  0.7573 -0.1281
  688SOL    HW2 2751   2.342   0.622   1.462 -0.8957  0.4146 -2.0373
  688SOL     MW 2752   2.404   0.589   1.402 -0.0106  0.0291 -0.4915
  689SOL     OW 2753   2.508   0.776   2.984  0.1920 -0.5258  0.0463
  689SOL    HW1 2754   2.469   0.858   3.009 -2.0489 -1.1443  0.9204
  689SOL    HW2 2755   2.572   0.756   3.053 -1.3006  1.0608 -0.3499
  689SOL     MW 2756   2.511   0.784   2.997 -0.3006 -0.3981  0.1094
  690SOL     OW 2757   2.045   0.861   1.844 -0.1495 -0.0042 -0.6304
  690SOL    HW1 2758   2.042   0.773   1.877 -3.4632  0.4764 -0.3466
  690SOL    HW2 2759   2.088   0.865   1.757  0.5638  0.4688  0.9990
  690SOL     MW 2760   2.050   0.850   1.837 -0.4926  0.1217 -0.3780
  691SOL     OW 2761   2.396   0.293   0.871  0.1797  0.0365  0.0176
  691SOL    HW1 2762   2.477   0.308   0.925  2.8265 -0.9865  1.7051
  691SOL    HW2 2763   2.335   0.365   0.878  0.9374  2.9032  2.6126
  691SOL     MW 2764   2.398   0.305   0.879  0.6289  0.2797  0.5826
  692SOL     OW 2765   2.886   1.597   1.437 -0.3143 -0.0604  0.1096
  692SOL    HW1 2766   2.857   1.562   1.521  0.3070 -1.7260  1.2384
  692SOL    HW2 2767   2.899   1.693   1.448 -0.7014 -0.3535 -0.6154
  692SOL     MW 2768   2.884   1.605   1.449 -0.2834 -0.3189  0.1629
  693SOL     OW 2769   2.349   0.428   0.057  0.1791 -0.6678 -0.0957
  693SOL    HW1 2770   2.271   0.371   0.039 -0.8816 -1.2187 -4.8732
  693SOL    HW2 2771   2.313   0.523   0.048  1.7142 -0.7490 -1.2554
  693SOL     MW 2772   2.334   0.433   0.054  0.2417 -0.7512 -0.8790
  694SOL     OW 2773   1.870   1.204   1.139 -0.0576  0.3403  0.6839
  694SOL    HW1 2774   1.970   1.206   1.154  3.6968 -0.7409  2.8984
  694SOL    HW2 2775   1.843   1.117   1.171  1.7906  2.5680  0.6614
  694SOL     MW 2776   1.879   1.193   1.146  0.6816  0.4916  0.9731
  695SOL     OW 2777   2.970   1.400   1.269  0.0786  0.2679  0.2753
  695SOL    HW1 2778   2.939   1.400   1.178  0.0692  2.6059 -4.4732
  695SOL    HW2 2779   2.932   1.483   1.306  2.8542 -0.0162 -0.6286
  695SOL     MW 2780   2.961   1.411   1.262  0.4436  0.5389 -0.4705
  696SOL     OW 2781   2.071   1.447   0.767 -0.5668  0.1078  0.3879
  696SOL    HW1 2782   2.108   1.478   0.848 -1.2132 -2.9107  1.1369
  696SOL    HW2 2783   2.027   1.367   0.797 -2.5332 -0.2786  0.9386
  696SOL     MW 2784   2.070   1.441   0.782 -0.9116 -0.3414  0.5594
  697SOL     OW 2785   2.922   1.069   2.245  0.3254  0.1710 -0.7436
  697SOL    HW1 2786   2.847   1.136   2.248 -3.3602  2.7841 -1.5236
  697SOL    HW2 2787   2.879   0.985   2.228  2.2506 -0.5561  0.6286
  697SOL     MW 2788   2.907   1.067   2.243  0.0931  0.4199 -0.6655
  698SOL     OW 2789   2.568   0.299   3.044  0.2333  0.4340 -0.4139
  698SOL    HW1 2790   2.492   0.349   3.078  0.1321  1.4242  0.3389
  698SOL    HW2 2791   2.599   0.256   3.123  2.1431 -1.9660 -0.0851
  698SOL     MW 2792   2.562   0.300   3.059  0.4719  0.2480 -0.2712
  699SOL     OW 2793   1.888   1.620   2.084 -0.0120  0.4689 -0.0662
  699SOL    HW1 2794   1.833   1.539   2.082  1.0601  0.0513  2.6718
  699SOL    HW2 2795   1.975   1.592   2.056 -1.8671 -2.5899  2.6610
  699SOL     MW 2796   1.892   1.606   2.080 -0.1153  0.0102  0.6549
  700SOL     OW 2797   2.688   0.822   1.568 -0.2601  0.1835  0.0015
  700SOL    HW1 2798   2.727   0.870   1.498  1.1812 -1.9865  0.3251
  700SOL    HW2 2799   2.740   0.743   1.578 -1.0011  2.0914  2.9765
  700SOL     MW 2800   2.700   0.818   1.560 -0.1677  0.1489  0.4367
  701SOL     OW 2801   1.681   1.142   2.503  0.3259 -0.6309 -0.2364
  701SOL    HW1 2802   1.777   1.150   2.518  0.7485 -0.0955 -0.7677
  701SOL    HW2 2803   1.637   1.176   2.579 -0.6305  1.2995 -4.1259
  701SOL     MW 2804   1.688   1.148   2.515  0.2555 -0.3056 -0.8196
  702SOL     OW 2805   2.146   0.428   0.779 -0.2417  0.5494 -0.9121
  702SOL    HW1 2806   2.123   0.357   0.720 -1.0698  0.4903  0.6061
  702SOL    HW2 2807   2.216   0.480   0.730  0.1830  0.4752 -0.2134
  702SOL     MW 2808   2.152   0.425   0.765 -0.2949  0.5318 -0.6196
  703SOL     OW 2809   2.729   1.222   0.955 -0.2207  0.4045 -0.1417
  703SOL    HW1 2810   2.660   1.208   0.890  1.4112 -1.3005  0.2609
  703SOL    HW2 2811   2.725   1.134   0.990  2.1175 -0.7896 -0.9394
  703SOL     MW 2812   2.719   1.209   0.951  0.3031  0.0220 -0.1938
  704SOL     OW 2813   3.065   1.224   0.131  0.5717  0.2063  0.7385
  704SOL    HW1 2814   2.980   1.196   0.086 -1.4440  0.3199  1.9187
  704SOL    HW2 2815   3.066   1.212   0.226 -0.2646 -1.3719 -1.5110
  704SOL     MW 2816   3.054   1.219   0.137  0.1954  0.0130  0.5974
  705SOL     OW 2817   2.076   1.573   1.307 -0.5022 -0.4268  0.4194
  705SOL    HW1 2818   2.017   1.639   1.336  0.9136 -1.7274 -3.4484
  705SOL    HW2 2819   2.088   1.514   1.378  0.2604 -0.7782  0.4510
  705SOL     MW 2820   2.069   1.574   1.320 -0.2147 -0.6448 -0.0867
  706SOL     OW 2821   2.987   1.247   0.657  0.4984 -0.3888 -0.6357
  706SOL    HW1 2822   3.011   1.243   0.558  1.6007 -1.8370 -1.1161
  706SOL    HW2 2823   2.949   1.333   0.678 -0.1992 -1.3881 -0.2766
  706SOL     MW 2824   2.985   1.258   0.647  0.5518 -0.7117 -0.6517
  707SOL     OW 2825   2.379   0.037   0.971  0.6699 -0.1659 -0.2398
  707SOL    HW1 2826   2.395   0.120   0.923  1.8426  1.7715 -1.0359
  707SOL    HW2 2827   2.302  -0.001   0.923 -2.5163  1.3538 -2.3817
  707SOL     MW 2828   2.371   0.043   0.959  0.4042  0.2902 -0.6275
  708SOL     OW 2829   2.431   1.384   0.176 -0.5098  0.0334  0.0264
  708SOL    HW1 2830   2.522   1.386   0.206 -1.2221 -2.4089  1.8346
  708SOL    HW2 2831   2.421   1.399   0.078  1.3311 -0.7134 -0.5343
  708SOL     MW 2832   2.441   1.386   0.167 -0.3609 -0.3874  0.1910
  709SOL     OW 2833   1.739   1.601   0.226  0.7626  0.2917  0.3524
  709SOL    HW1 2834   1.711   1.610   0.135 -0.7662 -0.7377  0.6044
  709SOL    HW2 2835   1.663   1.573   0.266  1.4123 -2.3170 -2.2439
  709SOL     MW 2836   1.726   1.599   0.219  0.6466 -0.1883  0.0431
  710SOL     OW 2837   2.153   1.166   1.176  0.2714 -0.9050  0.2019
  710SOL    HW1 2838   2.163   1.124   1.091 -3.1522  0.7261  2.7518
  710SOL    HW2 2839   2.177   1.100   1.241  1.3223 -0.1149 -0.4734
  710SOL     MW 2840   2.157   1.152   1.174 -0.0416 -0.5856  0.4493
  711SOL     OW 2841   2.403   0.177   1.768  0.4763 -0.3025 -0.0236
  711SOL    HW1 2842   2.490   0.145   1.802  0.0089 -1.8670 -0.0698
  711SOL    HW2 2843   2.414   0.172   1.670  1.5801  0.1131 -1.6954
  711SOL     MW 2844   2.416   0.172   1.760  0.5603 -0.4541 -0.2503
  712SOL     OW 2845   1.907   0.611   0.020 -0.2477  0.0090  0.3150
  712SOL    HW1 2846   1.857   0.612  -0.062  3.0575 -0.2179 -0.2375
  712SOL    HW2 2847   1.847   0.605   0.091  0.2357 -2.6587 -2.6961
  712SOL     MW 2848   1.892   0.610   0.019  0.2522 -0.3729 -0.1552
  713SOL     OW 2849   2.521   0.695   1.089  0.0459 -0.1125  0.1035
  713SOL    HW1 2850   2.541   0.681   1.181 -1.2271  0.8274 -2.0073
  713SOL    HW2 2851   2.422   0.678   1.085 -1.4396 -1.5266  0.3516
  713SOL     MW 2852   2.510   0.691   1.101 -0.3181 -0.1751 -0.1423
  714SOL     OW 2853   2.224   0.207   1.991 -0.1049 -0.1838 -0.7675
  714SOL    HW1 2854   2.257   0.153   2.060  0.2513  1.3166 -0.2980
  714SOL    HW2 2855   2.291   0.207   1.921  1.6577  0.1432  1.0136
  714SOL     MW 2856   2.237   0.200   1.991  0.1747  0.0573 -0.4706
  715SOL     OW 2857   1.804   2.050   1.775  0.2714 -0.0298 -0.3663
  715SOL    HW1 2858   1.892   2.052   1.743  1.0955 -1.3266  1.7321
  715SOL    HW2 2859   1.809   1.966   1.832  0.4444 -2.3782 -0.9506
  715SOL     MW 2860   1.816   2.039   1.778  0.4030 -0.5108 -0.1666
  716SOL     OW 2861   2.341   0.545   0.666 -0.1633  0.2357 -0.0010
  716SOL    HW1 2862   2.392   0.478   0.618  0.5170  1.1989 -1.3558
  716SOL    HW2 2863   2.298   0.601   0.593  1.8954  1.0488  3.0371
  716SOL     MW 2864   2.342   0.544   0.650  0.1981  0.4701  0.2211
  717SOL     OW 2865   2.827   1.568   2.865  0.3266  0.3528 -0.2510
  717SOL    HW1 2866   2.918   1.561   2.882 -3.1942 -1.0184 -1.0345
  717SOL    HW2 2867   2.785   1.632   2.913  1.5974 -1.9013  0.1539
  717SOL     MW 2868   2.833   1.576   2.874  0.0297 -0.1255 -0.3010
  718SOL     OW 2869   2.657   1.347   1.315 -0.2455 -0.0688 -0.1319
  718SOL    HW1 2870   2.607   1.392   1.381  0.5687 -2.0685  1.4156
  718SOL    HW2 2871   2.748   1.355   1.344  1.1770  1.4266  0.9220
  718SOL     MW 2872   2.662   1.354   1.328  0.0496 -0.1353  0.2114
  719SOL     OW 2873   2.184   1.278   0.585  0.3052  0.1329  0.1428
  719SOL    HW1 2874   2.267   1.297   0.554 -1.2615  0.7145 -1.0210
  719SOL    HW2 2875   2.152   1.340   0.652 -0.3593  1.9625  0.6041
  719SOL     MW 2876   2.191   1.288   0.590  0.0108  0.4510  0.0501
  720SOL     OW 2877   2.806   1.214   0.025  0.2156  0.0460 -0.4295
  720SOL    HW1 2878   2.796   1.121   0.052  0.6086  0.3403  0.9088
  720SOL    HW2 2879   2.779   1.273   0.098  0.5397  0.2344 -0.1975
  720SOL     MW 2880   2.801   1.210   0.038  0.3102  0.1097 -0.2223
  721SOL     OW 2881   2.468   0.853   1.350  0.1265  0.3699 -0.0121
  721SOL    HW1 2882   2.454   0.763   1.377  3.3664 -0.9604 -1.1950
  721SOL    HW2 2883   2.549   0.870   1.387 -4.4182  0.7762  0.7468
  721SOL     MW 2884   2.477   0.843   1.359 -0.0456  0.2480 -0.0680
  722SOL     OW 2885   2.609   1.136   0.366  0.3822  0.2523 -0.0902
  722SOL    HW1 2886   2.555   1.195   0.422  2.3165 -2.4122  0.8521
  722SOL    HW2 2887   2.669   1.090   0.431 -3.6309 -0.1054 -0.5391
  722SOL     MW 2888   2.610   1.137   0.382  0.1079 -0.1464 -0.0251
  723SOL     OW 2889   2.287   1.370   1.578  0.1417  0.3152 -0.5515
  723SOL    HW1 2890   2.277   1.353   1.480 -2.2435  0.4789 -0.5224
  723SOL    HW2 2891   2.202   1.404   1.609 -2.2816  1.6795  1.5795
  723SOL     MW 2892   2.274   1.372   1.569 -0.4928  0.5168 -0.2665
  724SOL     OW 2893   2.491   0.301   0.609  0.1600 -0.2446 -0.2590
  724SOL    HW1 2894   2.461   0.273   0.697 -1.4508  2.2844  0.0142
  724SOL    HW2 2895   2.587   0.312   0.615  1.0411  0.7261  1.8023
  724SOL     MW 2896   2.500   0.299   0.621  0.0637  0.2171  0.0490
  725SOL     OW 2897   2.632   0.409   1.238  0.1177 -0.1364 -0.2027
  725SOL    HW1 2898   2.686   0.489   1.263 -0.0248  0.1711  0.9487
  725SOL    HW2 2899   2.646   0.349   1.308 -1.7087 -2.3114 -1.1375
  725SOL     MW 2900   2.641   0.412   1.250 -0.1421 -0.3828 -0.1741
  726SOL     OW 2901   2.518   2.494   0.484 -0.1492 -0.6040 -0.4954
  726SOL    HW1 2902   2.513   2.583   0.448  1.5993 -1.3043 -3.1223
  726SOL    HW2 2903   2.496   2.497   0.577  0.8610  2.2387  0.7424
  726SOL     MW 2904   2.514   2.506   0.491  0.2148 -0.3213 -0.6787
  727SOL     OW 2905   2.869   0.302   1.740  0.1659 -0.1303 -0.6072
  727SOL    HW1 2906   2.813   0.309   1.662  1.5106 -0.0684  0.8198
  727SOL    HW2 2907   2.810   0.286   1.816 -0.4135 -2.6371  2.1791
  727SOL     MW 2908   2.854   0.301   1.740  0.2668 -0.4528 -0.0513
  728SOL     OW 2909   2.839   1.190   2.854  0.1771  0.0557  0.4898
  728SOL    HW1 2910   2.847   1.248   2.780 -1.8282  0.4999 -1.1169
  728SOL    HW2 2911   2.824   1.241   2.935  0.1963 -0.8318 -1.3487
  728SOL     MW 2912   2.838   1.204   2.855 -0.0849 -0.0028  0.0352
  729SOL     OW 2913   2.501   1.497   1.093 -0.3688 -0.1218 -0.4131
  729SOL    HW1 2914   2.550   1.420   1.118  1.8797 -0.1149 -2.5394
  729SOL    HW2 2915   2.474   1.479   0.999 -0.0251 -0.3626 -0.0566
  729SOL     MW 2916   2.504   1.484   1.084 -0.0268 -0.1526 -0.6467
  730SOL     OW 2917   2.197   1.181   0.207  0.2083  0.4262 -0.9715
  730SOL    HW1 2918   2.268   1.114   0.224  0.1548  1.1202 -3.5114
  730SOL    HW2 2919   2.243   1.263   0.212  0.1410 -1.9267 -0.6741
  730SOL     MW 2920   2.212   1.183   0.210  0.1923  0.2073 -1.2674
  731SOL     OW 2921   2.743   2.100   2.868 -0.1075 -0.4043 -0.1696
  731SOL    HW1 2922   2.687   2.058   2.797 -2.0791  1.9079  1.1119
  731SOL    HW2 2923   2.828   2.056   2.867 -0.1979 -0.1348 -0.3629
  731SOL     MW 2924   2.747   2.089   2.858 -0.3796 -0.0637 -0.0260
  732SOL     OW 2925   2.220   0.989   1.363  0.3558  0.3535 -0.3892
  732SOL    HW1 2926   2.179   0.976   1.449 -0.0306  0.6546  1.5208
  732SOL    HW2 2927   2.289   0.924   1.378 -0.4720  2.3976 -0.0309
  732SOL     MW 2928   2.223   0.979   1.377  0.1956  0.6629 -0.0899
  733SOL     OW 2929   2.378   2.828   3.027 -0.6868  0.5179 -0.0437
  733SOL    HW1 2930   2.298   2.872   3.065  0.4808 -1.3310  0.3751
  733SOL    HW2 2931   2.360   2.731   3.029  0.7174  0.9861  0.4323
  733SOL     MW 2932   2.365   2.821   3.032 -0.3475  0.3357  0.0744
  734SOL     OW 2933   1.591   0.254   2.541  0.5667 -0.0447  0.1502
  734SOL    HW1 2934   1.540   0.248   2.622 -1.3250  0.9078  0.1540
  734SOL    HW2 2935   1.557   0.178   2.496  0.1503  1.4832  0.2206
  734SOL     MW 2936   1.580   0.243   2.546  0.2622  0.2825  0.1600
  735SOL     OW 2937   3.005   0.948   2.688 -0.0356 -0.5558 -0.4560
  735SOL    HW1 2938   2.993   0.850   2.673 -1.1166 -0.3411 -0.1335
  735SOL    HW2 2939   3.015   0.966   2.781 -0.3819  1.8565  0.4614
  735SOL     MW 2940   3.005   0.938   2.698 -0.2239 -0.2092 -0.2924
  736SOL     OW 2941   0.128   0.590   2.605  0.3243 -0.9829 -0.1822
  736SOL    HW1 2942   0.118   0.648   2.527 -0.9149  0.3500  0.7905
  736SOL    HW2 2943   0.128   0.500   2.566  0.5651 -0.3014 -1.1796
  736SOL     MW 2944   0.127   0.585   2.590  0.1926 -0.7171 -0.1854
  737SOL     OW 2945   2.974   0.683   2.612  0.1769  0.1576  0.4411
  737SOL    HW1 2946   2.923   0.639   2.537  0.0191  0.7086 -3.2446
  737SOL    HW2 2947   3.057   0.639   2.614  0.1746  3.5883  0.9400
  737SOL     MW 2948   2.979   0.671   2.602  0.1558  0.6830  0.0206
  738SOL     OW 2949   0.158   0.527   1.885 -0.2198 -0.6836 -0.0840
  738SOL    HW1 2950   0.255   0.552   1.872  0.3928 -0.4031 -1.9336
  738SOL    HW2 2951   0.142   0.467   1.808 -2.9041  0.7469 -1.2704
  738SOL     MW 2952   0.168   0.522   1.873 -0.4931 -0.4579 -0.4846
  739SOL     OW 2953   2.479   1.009   2.069  0.1777  0.1261 -0.0010
  739SOL    HW1 2954   2.409   1.009   1.999  1.4226  0.6315 -1.9789
  739SOL    HW2 2955   2.562   0.988   2.026 -0.5650 -1.6858  1.3311
  739SOL     MW 2956   2.481   1.006   2.054  0.2440 -0.0463 -0.0862
  740SOL     OW 2957   0.093   1.865   2.927  0.0331 -0.3335 -0.2737
  740SOL    HW1 2958   0.085   1.770   2.926  1.3569  0.6599  0.5772
  740SOL    HW2 2959   0.182   1.888   2.961 -1.9521 -0.3579  2.2831
  740SOL     MW 2960   0.104   1.855   2.931 -0.0542 -0.2056  0.1759
  741SOL     OW 2961   2.258   1.174   2.730 -0.1054 -0.1302  0.4353
  741SOL    HW1 2962   2.192   1.225   2.691  0.3247  1.0069 -0.8469
  741SOL    HW2 2963   2.228   1.180   2.821 -1.3745  0.5687  2.9726
  741SOL     MW 2964   2.246   1.181   2.737 -0.2161  0.1120  0.6009
  742SOL     OW 2965   1.692   1.222   2.237  0.1575 -0.8151  0.3425
  742SOL    HW1 2966   1.603   1.190   2.210 -1.7194  1.7832  3.3317
  742SOL    HW2 2967   1.694   1.203   2.332  0.3654  0.8833  0.6350
  742SOL     MW 2968   1.680   1.216   2.246 -0.0627 -0.2482  0.7755
  743SOL     OW 2969   2.527   1.251   2.685 -0.8148 -0.3249  0.0656
  743SOL    HW1 2970   2.436   1.239   2.666  0.3516 -2.4762  0.5100
  743SOL    HW2 2971   2.554   1.178   2.739 -1.1345  1.6941 -2.0080
  743SOL     MW 2972   2.519   1.240   2.690 -0.7031 -0.3423 -0.1493
  744SOL     OW 2973   2.764   0.930   1.862 -0.7457 -0.5929 -0.1120
  744SOL    HW1 2974   2.716   1.012   1.852 -2.6018 -1.8536 -0.1684
  744SOL    HW2 2975   2.749   0.869   1.789  1.0740 -1.1092  0.2370
  744SOL     MW 2976   2.756   0.933   1.851 -0.7505 -0.8274 -0.0734
  745SOL     OW 2977   1.690   0.505   2.454 -0.0666 -0.0982 -0.2420
  745SOL    HW1 2978   1.681   0.545   2.365 -1.9470 -0.4241 -1.1628
  745SOL    HW2 2979   1.617   0.443   2.456  1.6683  0.0352 -1.2786
  745SOL     MW 2980   1.679   0.502   2.443 -0.0858 -0.1236 -0.5002
  746SOL     OW 2981   1.592   1.429   1.639  0.5711 -0.2601  0.1197
  746SOL    HW1 2982   1.684   1.428   1.640 -1.4927  0.7217  1.4037
  746SOL    HW2 2983   1.574   1.418   1.732  2.7628 -0.2008 -1.1501
  746SOL     MW 2984   1.602   1.427   1.651  0.5880 -0.1227  0.1216
  747SOL     OW 2985   2.602   1.161   1.819 -0.0751 -0.2257  0.1822
  747SOL    HW1 2986   2.508   1.140   1.792 -0.7553 -1.5505  0.0910
  747SOL    HW2 2987   2.597   1.228   1.891 -3.1094  1.3882 -0.8815
  747SOL     MW 2988   2.589   1.167   1.825 -0.5652 -0.1876  0.0298
  748SOL     OW 2989   0.087   0.057   1.860 -0.1483  1.1294 -0.3326
  748SOL    HW1 2990   0.173   0.097   1.831 -0.9881 -1.5379  1.6938
  748SOL    HW2 2991   0.065   0.110   1.943  1.1235  2.3425  1.4696
  748SOL     MW 2992   0.095   0.070   1.867 -0.0913  0.9375  0.1725
  749SOL     OW 2993   2.469   0.604   2.729  0.2625 -0.2147  0.0103
  749SOL    HW1 2994   2.481   0.685   2.676  0.8607 -0.6242 -1.9836
  749SOL    HW2 2995   2.442   0.625   2.819 -1.2105  1.4187  1.6663
  749SOL     MW 2996   2.467   0.618   2.734  0.1471 -0.0532 -0.0343
  750SOL     OW 2997   2.055   3.064   1.985  0.3537 -0.5428 -0.2138
  750SOL    HW1 2998   2.076   3.156   1.972  0.2769  0.2431  3.9718
  750SOL    HW2 2999   2.134   3.008   1.972  0.7710 -1.2075  1.9952
  750SOL     MW 3000   2.068   3.069   1.982  0.3986 -0.5268  0.6299
  751SOL     OW 3001   0.129   0.339   2.472  0.3755 -0.0487  0.3927
  751SOL    HW1 3002   0.117   0.249   2.500  0.1854 -0.2139  0.1947
  751SOL    HW2 3003   0.177   0.334   2.386  0.8733  0.0561 -1.3184
  751SOL     MW 3004   0.134   0.327   2.465  0.4161 -0.0566  0.1408
  752SOL     OW 3005   2.091   0.748   2.729  0.2073 -0.1320 -0.0305
  752SOL    HW1 3006   2.153   0.816   2.695  2.2408  0.7231  1.7424
  752SOL    HW2 3007   2.082   0.774   2.822  1.0113  0.6686  1.6318
  752SOL     MW 3008   2.098   0.760   2.736  0.5817  0.0864  0.4228
  753SOL     OW 3009   2.898   0.212   2.399  0.1052 -0.1332 -0.2016
  753SOL    HW1 3010   2.831   0.150   2.374  0.8147  2.7350 -1.4554
  753SOL    HW2 3011   2.886   0.285   2.337 -0.8940  0.7465 -1.4792
  753SOL     MW 3012   2.888   0.214   2.387  0.0670  0.3613 -0.5356
  754SOL     OW 3013   2.220   2.976   2.578 -0.0923  0.1814  0.7665
  754SOL    HW1 3014   2.251   2.948   2.490  0.7858  1.3358 -0.4517
  754SOL    HW2 3015   2.293   2.952   2.646 -0.4575 -1.0115 -0.8499
  754SOL     MW 3016   2.233   2.969   2.576 -0.0246  0.1763  0.3925
  755SOL     OW 3017   2.700   1.514   2.439  0.0092 -0.1643 -0.5038
  755SOL    HW1 3018   2.699   1.446   2.504  1.4884  1.5559 -0.7512
  755SOL    HW2 3019   2.745   1.589   2.490 -2.3316 -0.6798  0.8637
  755SOL     MW 3020   2.706   1.515   2.454 -0.1045 -0.0053 -0.3560
  756SOL     OW 3021   2.175   1.218   3.003  0.6877  0.3174 -0.1289
  756SOL    HW1 3022   2.244   1.289   2.996 -2.0972  0.1624 -0.2864
  756SOL    HW2 3023   2.223   1.145   3.052  2.1124 -1.2923 -4.0077
  756SOL     MW 3024   2.190   1.218   3.008  0.5082  0.0846 -0.6614
  757SOL     OW 3025   2.153   0.889   1.608  0.4326 -0.2420 -0.1294
  757SOL    HW1 3026   2.190   0.801   1.592 -0.6016  1.9766 -0.0341
  757SOL    HW2 3027   2.056   0.873   1.584  0.1650 -0.1432  0.3753
  757SOL     MW 3028   2.145   0.875   1.603  0.2608  0.0637 -0.0502
  758SOL     OW 3029   2.222   1.854   2.634 -0.1194  0.0397  0.4843
  758SOL    HW1 3030   2.224   1.870   2.534  0.7461  0.3082  1.7428
  758SOL    HW2 3031   2.312   1.826   2.646  0.8625  0.9286 -2.1676
  758SOL     MW 3032   2.234   1.852   2.622  0.1243  0.1924  0.3005
  759SOL     OW 3033   1.554   1.300   2.692 -0.4643 -1.2117  0.0651
  759SOL    HW1 3034   1.569   1.377   2.632 -1.8278  1.7153 -0.2246
  759SOL    HW2 3035   1.578   1.333   2.780 -2.0499 -2.0527  0.7859
  759SOL     MW 3036   1.559   1.314   2.696 -0.8534 -0.9365  0.1219
  760SOL     OW 3037   2.538   1.991   2.714 -0.2221  0.0717 -0.3538
  760SOL    HW1 3038   2.522   1.910   2.664 -1.0148 -1.7392  1.3054
  760SOL    HW2 3039   2.537   2.066   2.652  0.1484  0.4430  5.1965
  760SOL     MW 3040   2.536   1.990   2.699 -0.2778 -0.1182  0.5975
  761SOL     OW 3041   2.136   0.345   2.480  0.3281  0.2741  0.7687
  761SOL    HW1 3042   2.072   0.281   2.517  0.9890  1.7825  0.8888
  761SOL    HW2 3043   2.157   0.396   2.559  0.3508  0.2994 -1.0951
  761SOL     MW 3044   2.131   0.344   2.495  0.4183  0.4765  0.5386
  762SOL     OW 3045   3.093   0.164   2.109 -0.4246  0.2761 -0.4388
  762SOL    HW1 3046   3.124   0.112   2.187  0.0219 -0.3481  0.6443
  762SOL    HW2 3047   3.059   0.230   2.165  4.5731 -2.4523  2.1248
  762SOL     MW 3048   3.093   0.166   2.126  0.2937 -0.1663  0.0424
  763SOL     OW 3049   2.335   1.032   2.347 -0.2424 -0.1206 -0.1210
  763SOL    HW1 3050   2.394   1.016   2.273 -1.0708 -1.2424 -1.5637
  763SOL    HW2 3051   2.383   1.107   2.393  1.0862  4.5857 -1.3779
  763SOL     MW 3052   2.349   1.040   2.344 -0.1764  0.3523 -0.4772
  764SOL     OW 3053   0.517   0.239   2.800 -0.3085 -0.1193  0.0504
  764SOL    HW1 3054   0.437   0.187   2.775 -2.4927 -1.9356 -0.3595
  764SOL    HW2 3055   0.491   0.327   2.827  1.4622  0.4571  2.1752
  764SOL     MW 3056   0.503   0.244   2.800 -0.3631 -0.2829  0.2767
  765SOL     OW 3057   2.743   3.085   2.351 -0.3133 -0.3695 -0.3204
  765SOL    HW1 3058   2.679   3.069   2.279 -0.2217  0.1341  2.3756
  765SOL    HW2 3059   2.824   3.033   2.328 -1.4448 -0.3481 -3.0320
  765SOL     MW 3060   2.745   3.076   2.339 -0.4505 -0.3002 -0.3225
  766SOL     OW 3061   1.848   2.972   2.167 -0.1280 -0.1921  0.0550
  766SOL    HW1 3062   1.909   3.018   2.106  1.0298  0.5153 -2.0307
  766SOL    HW2 3063   1.795   2.908   2.113 -0.5578  0.2568  0.7715
  766SOL     MW 3064   1.849   2.969   2.152 -0.0319 -0.0395 -0.1256
  767SOL     OW 3065   2.686   0.589   2.085 -0.0364  0.8501  0.3713
  767SOL    HW1 3066   2.731   0.671   2.104  1.6009 -0.4579 -0.0914
  767SOL    HW2 3067   2.596   0.608   2.045 -0.4813  0.1469 -1.0258
  767SOL     MW 3068   2.680   0.602   2.082  0.1209  0.5848  0.1259
  768SOL     OW 3069  -0.002   1.588   2.918  0.4159 -0.4269 -0.3029
  768SOL    HW1 3070  -0.013   1.564   3.013 -1.9099 -0.0160 -0.1678
  768SOL    HW2 3071   0.054   1.531   2.881 -1.0558  2.2201  2.3708
  768SOL     MW 3072   0.004   1.578   2.925 -0.0851 -0.0234  0.0677
  769SOL     OW 3073   2.443   0.695   2.340  0.1347 -0.2450  0.1723
  769SOL    HW1 3074   2.406   0.614   2.302  0.8184 -2.2917 -0.2396
  769SOL    HW2 3075   2.395   0.770   2.306 -1.1961 -2.1838 -1.1459
  769SOL     MW 3076   2.432   0.695   2.331  0.0493 -0.7708 -0.0559
  770SOL     OW 3077   0.039   1.594   2.610 -0.1794  0.6104 -0.0984
  770SOL    HW1 3078  -0.044   1.638   2.596  1.8981 -2.6734  1.4990
  770SOL    HW2 3079   0.026   1.537   2.685 -1.5531  1.2875 -3.8398
  770SOL     MW 3080   0.026   1.592   2.618 -0.0866  0.2665 -0.3813
  771SOL     OW 3081   3.077   0.647   2.045 -0.5637  0.0783  0.5305
  771SOL    HW1 3082   3.015   0.608   1.982  0.4096 -3.0003 -0.1584
  771SOL    HW2 3083   3.157   0.609   1.994  0.7205 -0.6491 -2.1370
  771SOL     MW 3084   3.079   0.637   2.030 -0.2659 -0.4238  0.0876
  772SOL     OW 3085   0.062   3.089   2.315  0.4122  0.0667  0.5155
  772SOL    HW1 3086  -0.013   3.035   2.316 -1.4965  0.3955 -1.4873
  772SOL    HW2 3087   0.124   3.036   2.265  1.3627  1.5853 -1.2705
  772SOL     MW 3088   0.060   3.075   2.308  0.2858  0.3104  0.0156
  773SOL     OW 3089   2.387   2.866   2.757 -0.0466  0.3299  0.0217
  773SOL    HW1 3090   2.433   2.786   2.719 -0.8415 -1.6013 -0.4133
  773SOL    HW2 3091   2.390   2.846   2.850  0.3389 -1.9402 -1.3438
  773SOL     MW 3092   2.393   2.853   2.764 -0.1006 -0.2244 -0.2159
  774SOL     OW 3093   2.335   1.097   1.736  0.6060  0.4546  0.1594
  774SOL    HW1 3094   2.314   1.137   1.652  1.4809  0.7100 -1.4220
  774SOL    HW2 3095   2.281   1.017   1.729 -0.9473 -2.2733  0.5010
  774SOL     MW 3096   2.325   1.092   1.724  0.5165  0.1284 -0.0042
  775SOL     OW 3097   2.307   2.900   2.339  0.2373 -0.5003 -0.0994
  775SOL    HW1 3098   2.318   2.977   2.282 -0.6495 -1.7015 -1.5057
  775SOL    HW2 3099   2.373   2.841   2.308  1.7080 -0.6439 -0.4615
  775SOL     MW 3100   2.317   2.903   2.327  0.3144 -0.6778 -0.3328
  776SOL     OW 3101   0.057   1.488   0.103 -0.2426 -0.0008  0.1130
  776SOL    HW1 3102   0.149   1.463   0.095 -1.7453  1.4061  3.2017
  776SOL    HW2 3103   0.015   1.396   0.096 -1.9828  0.0565 -1.2324
  776SOL     MW 3104   0.064   1.472   0.101 -0.6704  0.1924  0.3430
  777SOL     OW 3105   2.958   1.094   1.751  0.5126 -0.5864 -0.0688
  777SOL    HW1 3106   2.879   1.129   1.714  0.0611 -1.5896  1.1911
  777SOL    HW2 3107   2.924   1.014   1.787 -0.3173 -1.2057 -0.8974
  777SOL     MW 3108   2.943   1.088   1.751  0.3436 -0.8005 -0.0119
  778SOL     OW 3109   2.891   0.503   2.790 -0.0890 -0.0421 -0.6113
  778SOL    HW1 3110   2.826   0.521   2.865  0.6368  0.1959 -1.2902
  778SOL    HW2 3111   2.894   0.580   2.732 -1.0178 -1.1705 -0.3934
  778SOL     MW 3112   2.883   0.516   2.792 -0.1158 -0.1596 -0.6721
  779SOL     OW 3113   2.163   0.580   2.340 -0.2580 -0.3940 -0.1405
  779SOL    HW1 3114   2.109   0.649   2.379  2.3908 -1.9032 -1.9216
  779SOL    HW2 3115   2.158   0.509   2.403 -1.2540  2.6911 -0.3035
  779SOL     MW 3116   2.155   0.580   2.354 -0.0399 -0.1861 -0.3970
  780SOL     OW 3117   0.262   0.134   2.791  0.0220  0.0352  0.1072
  780SOL    HW1 3118   0.210   0.179   2.861 -1.4696  0.2550 -1.5145
  780SOL    HW2 3119   0.201   0.131   2.717 -1.6396 -0.0553  0.7873
  780SOL     MW 3120   0.247   0.140   2.791 -0.3940  0.0523 -0.0170
  781SOL     OW 3121   3.062   1.292   2.517 -0.0165  0.0658  0.0299
  781SOL    HW1 3122   3.064   1.342   2.434 -0.4091  1.1295  0.8745
  781SOL    HW2 3123   3.105   1.209   2.491 -1.4872  0.3060  0.5333
  781SOL     MW 3124   3.068   1.288   2.503 -0.2623  0.2378  0.2078
  782SOL     OW 3125   0.523   1.630   3.017  0.1460  0.2391  0.2669
  782SOL    HW1 3126   0.446   1.691   3.014 -2.2632  1.6638  2.0856
  782SOL    HW2 3127   0.524   1.575   3.100 -0.2578 -2.6450  3.2872
  782SOL     MW 3128   0.513   1.631   3.027 -0.2252  0.0466  0.9053
  783SOL     OW 3129   2.798   0.531   2.466 -0.3339  0.4752  0.1309
  783SOL    HW1 3130   2.754   0.499   2.383  3.5736  0.3374 -1.0211
  783SOL    HW2 3131   2.746   0.490   2.537  1.2116  0.0278 -0.3406
  783SOL     MW 3132   2.786   0.522   2.464  0.3855  0.3980 -0.0833
  784SOL     OW 3133   0.263   0.916   2.882  0.3663 -0.4950  0.1587
  784SOL    HW1 3134   0.222   0.980   2.949  3.5464 -1.0264 -1.5759
  784SOL    HW2 3135   0.236   0.948   2.790  0.4991  1.2092 -0.4817
  784SOL     MW 3136   0.254   0.929   2.879  0.8034 -0.3403 -0.1546
  785SOL     OW 3137   0.402   0.493   2.136 -0.7744 -0.3771  0.1421
  785SOL    HW1 3138   0.421   0.505   2.040  1.2934  0.2312 -0.7862
  785SOL    HW2 3139   0.327   0.435   2.126 -1.8176 -1.3819 -0.6440
  785SOL     MW 3140   0.395   0.487   2.122 -0.6392 -0.4294 -0.0841
  786SOL     OW 3141   1.974   0.446   2.850  0.4343  0.2604  0.3443
  786SOL    HW1 3142   1.977   0.506   2.927  0.8363  2.1965  1.6356
  786SOL    HW2 3143   2.057   0.430   2.810  1.1504 -0.7266 -2.4946
  786SOL     MW 3144   1.985   0.452   2.854  0.5819  0.3856  0.1401
  787SOL     OW 3145   2.410   0.143   2.886 -0.4366  0.5086  0.0518
  787SOL    HW1 3146   2.483   0.081   2.846  0.0116 -1.6299  0.3942
  787SOL    HW2 3147   2.467   0.217   2.923 -1.0096 -1.0056 -0.9666
  787SOL     MW 3148   2.427   0.145   2.885 -0.4530  0.0267 -0.0374
  788SOL     OW 3149   2.946   2.919   2.267 -0.1444  0.4808 -0.4898
  788SOL    HW1 3150   2.911   2.883   2.190  1.6357  0.9619  1.9989
  788SOL    HW2 3151   2.987   2.849   2.318  1.7447  1.0541  0.8148
  788SOL     MW 3152   2.947   2.905   2.264  0.3397  0.6199  0.0107
  789SOL     OW 3153   0.060   0.231   2.987  0.0044  0.0784 -0.1735
  789SOL    HW1 3154  -0.023   0.187   3.003  1.8799  1.1642  1.8608
  789SOL    HW2 3155   0.040   0.322   3.021 -2.0196  1.6293  1.1080
  789SOL     MW 3156   0.046   0.237   2.994 -0.0152  0.4263  0.2640
  790SOL     OW 3157   0.030   1.023   2.455 -0.2631  0.1052  0.5183
  790SOL    HW1 3158  -0.022   1.021   2.532  2.3528  0.1030  1.3797
  790SOL    HW2 3159  -0.029   1.046   2.385  0.0124  1.1127  1.5381
  790SOL     MW 3160   0.015   1.026   2.456  0.1184  0.2378  0.7665
  791SOL     OW 3161   2.670   0.375   2.663 -0.7664 -0.1443 -0.1988
  791SOL    HW1 3162   2.611   0.443   2.683  1.9005 -2.0140  0.3966
  791SOL    HW2 3163   2.743   0.391   2.724 -2.9032 -0.9392  0.2119
  791SOL     MW 3164   2.672   0.386   2.674 -0.6964 -0.4958 -0.0661
  792SOL     OW 3165   2.405   0.239   2.392 -0.9591  0.3393  0.3863
  792SOL    HW1 3166   2.323   0.251   2.450 -1.3704 -1.3594 -0.7922
  792SOL    HW2 3167   2.453   0.172   2.451 -0.1563 -2.1812  0.0168
  792SOL     MW 3168   2.400   0.232   2.408 -0.9074 -0.2174  0.1820
  793SOL     OW 3169   1.765   1.006   1.891  0.3335 -0.0037 -0.3309
  793SOL    HW1 3170   1.726   1.072   1.827  0.1557 -3.2155 -0.4746
  793SOL    HW2 3171   1.846   0.981   1.848 -2.2604 -0.6592 -2.3046
  793SOL     MW 3172   1.771   1.011   1.877 -0.0322 -0.5139 -0.6103
  794SOL     OW 3173   1.427   2.281   0.118  0.2771  0.3368  0.0714
  794SOL    HW1 3174   1.481   2.331   0.060  1.2913 -1.0615  0.4569
  794SOL    HW2 3175   1.439   2.306   0.208 -1.4639 -1.1933  1.0989
  794SOL     MW 3176   1.435   2.291   0.122  0.1812 -0.0496  0.2579
  795SOL     OW 3177   2.263   0.933   2.610  0.8667 -0.4037  0.2671
  795SOL    HW1 3178   2.275   1.017   2.657 -1.4545  1.0738 -1.3317
  795SOL    HW2 3179   2.260   0.956   2.517 -1.0579 -0.5996 -2.0732
  795SOL     MW 3180   2.264   0.947   2.604  0.3065 -0.2346 -0.2526
  796SOL     OW 3181   0.351   0.684   2.742 -0.0853 -0.0030  0.3773
  796SOL    HW1 3182   0.331   0.747   2.811 -1.5645  0.4873 -1.1211
  796SOL    HW2 3183   0.265   0.661   2.696  0.8588  2.5313  0.9455
  796SOL     MW 3184   0.337   0.689   2.745 -0.1559  0.3961  0.2546
  797SOL     OW 3185   2.582   0.120   2.555  0.1252  0.2346  0.0519
  797SOL    HW1 3186   2.612   0.214   2.574  2.6437  4.1911 -2.1196
  797SOL    HW2 3187   2.638   0.090   2.483  0.6747 -1.7306  1.2208
  797SOL     MW 3188   2.593   0.129   2.548  0.5300  0.4974 -0.0804
  798SOL     OW 3189   2.339   0.031   2.208 -0.1323  0.3022  0.1750
  798SOL    HW1 3190   2.351   0.118   2.254  2.5225 -0.3337 -0.3551
  798SOL    HW2 3191   2.426   0.001   2.178  1.7854  2.0696 -2.6340
  798SOL     MW 3192   2.352   0.038   2.210  0.4710  0.4515 -0.2655
  799SOL     OW 3193   2.485   2.910   0.194  0.1960  0.3910  0.1499
  799SOL    HW1 3194   2.446   2.837   0.143 -0.6140 -0.0857 -0.2224
  799SOL    HW2 3195   2.457   2.988   0.149 -0.6134  0.2481 -2.3206
  799SOL     MW 3196   2.476   2.911   0.182 -0.0176  0.3092 -0.2252
  800SOL     OW 3197   1.890   3.084   1.771  0.4020  0.5949 -0.1238
  800SOL    HW1 3198   1.835   3.008   1.788 -0.2860 -0.2186 -2.1304
  800SOL    HW2 3199   1.960   3.082   1.838  1.2579  0.7046  0.6701
  800SOL     MW 3200   1.892   3.074   1.782  0.4241  0.5020 -0.2838
  801SOL     OW 3201   2.802   1.305   2.602  0.0394 -0.4312 -0.7680
  801SOL    HW1 3202   2.764   1.217   2.578  2.2331  0.1743 -1.0847
  801SOL    HW2 3203   2.889   1.315   2.562  0.6015 -0.9128 -1.9712
  801SOL     MW 3204   2.809   1.295   2.593  0.4030 -0.4149 -0.9685
  802SOL     OW 3205   2.556   1.483   2.800 -0.3172  0.3244 -0.3593
  802SOL    HW1 3206   2.529   1.395   2.767  1.2669  0.1705 -1.6559
  802SOL    HW2 3207   2.653   1.493   2.793  3.0211  1.3632 -2.7676
  802SOL     MW 3208   2.565   1.473   2.795  0.3323  0.4412 -0.8481
  803SOL     OW 3209   2.312   1.294   1.960 -0.7679  0.5939  0.5919
  803SOL    HW1 3210   2.279   1.258   2.041  1.0678  0.4439  1.4394
  803SOL    HW2 3211   2.309   1.226   1.895 -1.8797 -1.2432 -0.4965
  803SOL     MW 3212   2.307   1.280   1.962 -0.6724  0.3318  0.5601
  804SOL     OW 3213   2.332   0.072   0.035  0.3371 -0.1053  0.0650
  804SOL    HW1 3214   2.248   0.127   0.021  1.6585 -0.6773  0.4024
  804SOL    HW2 3215   2.374   0.083  -0.053  1.2229  0.8470 -0.1035
  804SOL     MW 3216   2.326   0.081   0.021  0.6283 -0.0551  0.0873
  805SOL     OW 3217   2.742   1.041   2.542  0.3642  0.0300 -0.0941
  805SOL    HW1 3218   2.678   0.966   2.529  0.0898 -0.2187  0.0794
  805SOL    HW2 3219   2.823   1.002   2.586  2.5763  0.9973 -0.5705
  805SOL     MW 3220   2.744   1.026   2.546  0.6199  0.1248 -0.1341
  806SOL     OW 3221   2.647   0.392   2.286  0.4796 -0.6053  0.3567
  806SOL    HW1 3222   2.559   0.373   2.321  0.8837 -0.9400 -1.8535
  806SOL    HW2 3223   2.640   0.452   2.207 -3.1007 -0.5234 -0.4980
  806SOL     MW 3224   2.635   0.398   2.280  0.0605 -0.6387 -0.0477
  807SOL     OW 3225   3.071   1.127   2.036  0.1858  0.0365 -0.1065
  807SOL    HW1 3226   3.118   1.045   2.024 -0.3184 -0.8643 -2.3123
  807SOL    HW2 3227   3.014   1.111   2.115 -1.9019 -1.2141 -1.1917
  807SOL     MW 3228   3.070   1.114   2.045 -0.1562 -0.2474 -0.5407
  808SOL     OW 3229   2.578   3.056   2.785 -0.2314  0.1747  0.4442
  808SOL    HW1 3230   2.505   2.998   2.761 -1.8338  0.6340 -2.6782
  808SOL    HW2 3231   2.609   3.098   2.701  0.6315  0.6054  3.0415
  808SOL     MW 3232   2.573   3.054   2.771 -0.3290  0.2922  0.3749
  809SOL     OW 3233   2.492   1.241   2.415 -0.2170  0.4543 -0.0351
  809SOL    HW1 3234   2.522   1.248   2.512  1.2403  3.0322  1.0636
  809SOL    HW2 3235   2.574   1.220   2.368  0.6098 -2.9320  1.0672
  809SOL     MW 3236   2.507   1.239   2.422  0.0844  0.3476  0.2553
  810SOL     OW 3237   2.197   1.206   2.178  0.0630 -0.0557 -0.5590
  810SOL    HW1 3238   2.236   1.165   2.262 -0.1369  1.6065  1.0698
  810SOL    HW2 3239   2.115   1.157   2.172 -2.3971  2.6210  1.5733
  810SOL     MW 3240   2.191   1.194   2.188 -0.2880  0.5167 -0.0627
  811SOL     OW 3241   1.484   0.096   2.251 -0.4083 -0.1266  0.0501
  811SOL    HW1 3242   1.563   0.047   2.286 -0.4599  2.3950 -1.6650
  811SOL    HW2 3243   1.492   0.095   2.148  4.4725 -1.9852 -2.2273
  811SOL     MW 3244   1.495   0.089   2.242  0.2288 -0.0391 -0.4767
  812SOL     OW 3245   1.390   2.761   2.073 -0.4238 -0.3019  0.1271
  812SOL    HW1 3246   1.488   2.768   2.065  1.5058 -2.1941 -2.6190
  812SOL    HW2 3247   1.368   2.734   2.163  3.0451 -2.6780  0.4259
  812SOL     MW 3248   1.400   2.758   2.084  0.2885 -0.8650 -0.1958
  813SOL     OW 3249   1.816   0.793   2.186  0.1648 -0.7111 -0.0015
  813SOL    HW1 3250   1.781   0.706   2.207 -0.0060 -2.5865 -0.7454
  813SOL    HW2 3251   1.896   0.811   2.235 -2.4369 -3.8225 -0.3987
  813SOL     MW 3252   1.822   0.784   2.195 -0.2010 -1.3690 -0.1521
  814SOL     OW 3253   2.761   1.216   1.606  0.7468 -0.3406 -0.0587
  814SOL    HW1 3254   2.691   1.201   1.679  2.6155 -0.0254  1.0082
  814SOL    HW2 3255   2.737   1.143   1.545  1.6264 -2.6661  0.5610
  814SOL     MW 3256   2.749   1.204   1.608  1.1094 -0.6058  0.1638
  815SOL     OW 3257   2.447   1.620   2.364  0.1335 -0.8444  0.4043
  815SOL    HW1 3258   2.383   1.555   2.329  2.4573  2.5532 -1.6173
  815SOL    HW2 3259   2.534   1.575   2.380 -0.7759  0.2657 -2.8561
  815SOL     MW 3260   2.450   1.606   2.362  0.3201 -0.2496 -0.2926
  816SOL     OW 3261   0.630   0.656   2.741 -0.1378  0.8897 -0.8196
  816SOL    HW1 3262   0.677   0.574   2.771  0.4084  3.1455 -1.6075
  816SOL    HW2 3263   0.578   0.620   2.662  0.2558  0.2033 -0.5070
  816SOL     MW 3264   0.629   0.640   2.734 -0.0138  1.0967 -0.8823
  817SOL     OW 3265   3.036   1.149   1.396 -0.2523  0.3640 -0.2813
  817SOL    HW1 3266   3.109   1.153   1.460 -1.5875  3.0585 -0.1500
  817SOL    HW2 3267   3.020   1.237   1.362  1.3194 -0.0467  2.5877
  817SOL     MW 3268   3.043   1.161   1.400 -0.2211  0.6653  0.1146
  818SOL     OW 3269   1.941   0.990   2.694 -0.0966 -0.1534 -0.6018
  818SOL    HW1 3270   1.989   1.048   2.632 -0.9100  0.7122  0.1443
  818SOL    HW2 3271   1.982   0.903   2.693  0.1513  0.8342  0.8416
  818SOL     MW 3272   1.953   0.986   2.686 -0.1712  0.0911 -0.3129
  819SOL     OW 3273   1.829   0.249   2.367 -0.2792  0.2697  0.6618
  819SOL    HW1 3274   1.759   0.308   2.406  1.6921  1.9592  1.2192
  819SOL    HW2 3275   1.872   0.216   2.451 -1.4874  0.6133  2.7329
  819SOL     MW 3276   1.826   0.252   2.383 -0.1785  0.5379  1.0086
  820SOL     OW 3277   2.478   1.710   2.631 -0.7526 -0.0119 -0.0392
  820SOL    HW1 3278   2.509   1.637   2.686  2.6434 -0.5068 -1.1127
  820SOL    HW2 3279   2.464   1.681   2.534  1.3742  2.3065 -3.8366
  820SOL     MW 3280   2.480   1.697   2.626 -0.0240  0.2287 -0.6819
  821SOL     OW 3281   2.579   1.338   2.028  0.2135 -0.1867  0.4570
  821SOL    HW1 3282   2.601   1.410   1.974  0.3211  0.2258  1.2967
  821SOL    HW2 3283   2.484   1.332   2.023  1.0651 -1.5866  0.2475
  821SOL     MW 3284   2.569   1.347   2.021  0.3401 -0.3170  0.5402
  822SOL     OW 3285   2.871   2.688   1.394  0.6788 -0.0788 -0.3827
  822SOL    HW1 3286   2.824   2.763   1.424 -1.3546  0.5091 -0.6502
  822SOL    HW2 3287   2.940   2.727   1.346  0.5664  0.3366  2.9369
  822SOL     MW 3288   2.874   2.703   1.392  0.3957  0.0536  0.0200
  823SOL     OW 3289   2.285   0.467   1.765  0.4178 -0.5851  0.2688
  823SOL    HW1 3290   2.361   0.408   1.746  1.2050  0.9207  1.3889
  823SOL    HW2 3291   2.205   0.416   1.760 -0.2205  2.1326  2.0990
  823SOL     MW 3292   2.285   0.452   1.762  0.4374 -0.0278  0.6581
  824SOL     OW 3293   2.115   1.336   2.544 -0.0582 -0.7546  0.2790
  824SOL    HW1 3294   2.184   1.369   2.475  1.8753 -1.7788  0.8806
  824SOL    HW2 3295   2.091   1.419   2.585 -0.7237 -0.1551  3.2370
  824SOL     MW 3296   2.121   1.351   2.540  0.1091 -0.8106  0.7487
  825SOL     OW 3297   2.198   2.412   0.401  0.5949 -1.0902 -0.2507
  825SOL    HW1 3298   2.290   2.384   0.374 -1.0926  3.2948 -1.3855
  825SOL    HW2 3299   2.204   2.378   0.489  0.6138 -2.2602 -2.3592
  825SOL     MW 3300   2.211   2.403   0.409  0.3747 -0.6660 -0.6786
  826SOL     OW 3301   1.742   2.332   0.398 -0.2210  0.1455  0.2105
  826SOL    HW1 3302   1.768   2.271   0.473  0.4348 -2.7463  0.2035
  826SOL    HW2 3303   1.727   2.411   0.443  2.4891 -0.2762 -0.7915
  826SOL     MW 3304   1.744   2.334   0.414  0.2231 -0.2917  0.0774
  827SOL     OW 3305   1.936   2.287   0.905 -0.6297 -0.0658 -0.3782
  827SOL    HW1 3306   1.881   2.303   0.825  1.1602  0.1129 -1.6500
  827SOL    HW2 3307   1.889   2.227   0.966  2.3632 -0.2583  2.8479
  827SOL     MW 3308   1.922   2.281   0.902  0.0013 -0.0676 -0.1204
  828SOL     OW 3309   0.067   2.617   0.570 -0.5113 -0.2592 -0.1103
  828SOL    HW1 3310   0.163   2.623   0.558  0.9783  0.2622  0.4424
  828SOL    HW2 3311   0.041   2.675   0.494 -1.9379 -0.3627 -0.4974
  828SOL     MW 3312   0.076   2.625   0.558 -0.5030 -0.2041 -0.0884
  829SOL     OW 3313   3.005   2.897   1.190 -0.2967 -0.1888  0.0323
  829SOL    HW1 3314   2.930   2.870   1.142  2.8255 -1.2381  1.7216
  829SOL    HW2 3315   3.066   2.828   1.188  2.0190  1.2822 -0.1473
  829SOL     MW 3316   3.003   2.885   1.184  0.4208 -0.1332  0.2315
  830SOL     OW 3317   2.537   2.782   2.002 -0.8806  0.1266  0.0027
  830SOL    HW1 3318   2.447   2.819   1.969  1.8347 -0.5270  2.4152
  830SOL    HW2 3319   2.593   2.775   1.920 -0.3263  0.4851  0.7389
  830SOL     MW 3320   2.533   2.786   1.987 -0.4492  0.0876  0.4181
  831SOL     OW 3321   2.480   2.439   1.176 -0.0345 -0.6953 -0.1301
  831SOL    HW1 3322   2.458   2.387   1.249 -1.2133  0.1328  1.4308
  831SOL    HW2 3323   2.570   2.400   1.152 -0.8950 -0.7523 -0.2649
  831SOL     MW 3324   2.489   2.427   1.182 -0.3036 -0.5936  0.0581
  832SOL     OW 3325   2.417   2.134   1.867  0.1575 -0.0199  0.7808
  832SOL    HW1 3326   2.455   2.217   1.892 -3.0918  1.2393  0.6734
  832SOL    HW2 3327   2.495   2.083   1.844 -1.7985  0.8299 -1.4688
  832SOL     MW 3328   2.433   2.138   1.868 -0.5293  0.2584  0.4698
  833SOL     OW 3329   1.665   2.598   0.893 -0.5078 -0.4869 -0.5124
  833SOL    HW1 3330   1.618   2.534   0.953 -0.1174  2.5391 -2.6891
  833SOL    HW2 3331   1.610   2.677   0.886 -0.5300 -0.6788  1.7072
  833SOL     MW 3332   1.652   2.600   0.900 -0.4592 -0.1130 -0.5068
  834SOL     OW 3333   2.261   2.347   0.690  0.0207 -0.0172  0.3232
  834SOL    HW1 3334   2.197   2.289   0.725 -0.1515  1.3752 -4.5191
  834SOL    HW2 3335   2.332   2.290   0.659  0.5130 -1.6956 -0.9192
  834SOL     MW 3336   2.262   2.332   0.691  0.0629 -0.0549 -0.4796
  835SOL     OW 3337   1.736   2.541   0.615 -0.4874  0.0524 -0.2636
  835SOL    HW1 3338   1.721   2.577   0.703 -1.7147  0.6787 -2.1306
  835SOL    HW2 3339   1.831   2.533   0.623 -1.6298 -1.0264 -1.1769
  835SOL     MW 3340   1.746   2.545   0.627 -0.8001 -0.0073 -0.6304
  836SOL     OW 3341   2.047   2.116   1.673  0.1625 -0.5071  0.1411
  836SOL    HW1 3342   2.137   2.103   1.648 -0.2096 -2.0844 -0.2475
  836SOL    HW2 3343   2.040   2.211   1.692  3.9589  0.3891 -0.3483
  836SOL     MW 3344   2.058   2.127   1.672  0.6143 -0.5969  0.0253
  837SOL     OW 3345   2.105   0.200   0.637 -0.3792 -0.1398 -0.4963
  837SOL    HW1 3346   2.017   0.220   0.596 -3.0223  1.6261 -0.6595
  837SOL    HW2 3347   2.134   0.116   0.584  2.6721 -2.3868  0.1058
  837SOL     MW 3348   2.097   0.192   0.624 -0.3254 -0.2033 -0.4384
  838SOL     OW 3349   2.860   2.069   0.908  0.3005 -0.3693 -0.3788
  838SOL    HW1 3350   2.780   2.022   0.942 -1.4838  1.2007  0.2709
  838SOL    HW2 3351   2.923   2.073   0.981  0.5937 -1.5095  1.6336
  838SOL     MW 3352   2.858   2.063   0.922  0.1037 -0.3126 -0.0275
  839SOL     OW 3353   1.574   2.368   1.040  0.0820  0.6061  0.0977
  839SOL    HW1 3354   1.540   2.447   1.095 -2.0943 -2.9944 -0.0361
  839SOL    HW2 3355   1.620   2.302   1.104  1.1606 -2.4061  3.9432
  839SOL     MW 3356   1.576   2.370   1.056 -0.0628 -0.2663  0.5874
  840SOL     OW 3357   2.407   2.094   2.394  0.8060  0.0203 -0.3460
  840SOL    HW1 3358   2.370   2.173   2.349 -2.0480  2.2340 -0.0531
  840SOL    HW2 3359   2.433   2.139   2.475 -1.4513  0.6020 -0.8344
  840SOL     MW 3360   2.405   2.111   2.398  0.1316  0.3891 -0.3718
  841SOL     OW 3361   2.319   2.342   0.083 -0.2099 -1.1848  0.3696
  841SOL    HW1 3362   2.301   2.431   0.048  0.6643 -1.1516  1.7545
  841SOL    HW2 3363   2.234   2.294   0.081 -2.6185  1.3173 -1.3308
  841SOL     MW 3364   2.305   2.347   0.078 -0.4124 -0.8503  0.3280
  842SOL     OW 3365   2.665   1.929   1.414 -0.0677 -0.5936  0.1056
  842SOL    HW1 3366   2.607   1.855   1.413 -1.3464 -0.0879 -2.3991
  842SOL    HW2 3367   2.654   1.970   1.326  1.2942  2.5819 -0.0441
  842SOL     MW 3368   2.656   1.925   1.402 -0.0567 -0.1079 -0.2446
  843SOL     OW 3369   2.642   2.781   1.739  0.6108  0.0765 -0.1902
  843SOL    HW1 3370   2.728   2.736   1.752  1.1497  4.0964 -2.0520
  843SOL    HW2 3371   2.578   2.709   1.728 -1.8995 -0.6068  1.1237
  843SOL     MW 3372   2.645   2.765   1.739  0.3507  0.5168 -0.2625
  844SOL     OW 3373   2.718   2.334   1.116 -0.5802 -0.0200 -0.6390
  844SOL    HW1 3374   2.723   2.386   1.034  3.4188  0.0576  0.6966
  844SOL    HW2 3375   2.770   2.383   1.178 -1.8349 -0.7494 -0.6246
  844SOL     MW 3376   2.726   2.348   1.113 -0.2181 -0.1060 -0.4609
  845SOL     OW 3377   2.839   2.566   0.291 -0.1062  0.4453  0.5599
  845SOL    HW1 3378   2.815   2.489   0.342 -1.9115 -0.9636  0.9737
  845SOL    HW2 3379   2.833   2.628   0.363 -0.4507  1.7754  0.2688
  845SOL     MW 3380   2.835   2.564   0.307 -0.3899  0.4349  0.5761
  846SOL     OW 3381   1.455   2.802   0.779  0.5280 -0.9012 -0.1886
  846SOL    HW1 3382   1.508   2.878   0.810 -0.3336 -0.6352  1.1876
  846SOL    HW2 3383   1.360   2.829   0.781 -1.3175 -1.4275 -0.7276
  846SOL     MW 3384   1.450   2.815   0.783  0.1708 -0.9356 -0.0781
  847SOL     OW 3385   2.490   1.873   0.193  0.0462 -0.3541 -0.1200
  847SOL    HW1 3386   2.465   1.786   0.222  0.7865  1.5938 -2.4979
  847SOL    HW2 3387   2.464   1.870   0.095  0.8228 -0.0385  1.3113
  847SOL     MW 3388   2.483   1.861   0.184  0.2463 -0.0555 -0.2449
  848SOL     OW 3389   2.647   2.091   1.194  0.8143 -0.0514  0.3780
  848SOL    HW1 3390   2.681   2.172   1.167 -2.0955 -2.9592 -1.1977
  848SOL    HW2 3391   2.662   2.036   1.114  3.8740  0.7583 -1.5094
  848SOL     MW 3392   2.654   2.094   1.180  0.8341 -0.3282 -0.0789
  849SOL     OW 3393   1.980   2.857   0.791  0.0198  0.1935 -0.3950
  849SOL    HW1 3394   1.946   2.798   0.860 -0.2729  0.0206  0.2955
  849SOL    HW2 3395   2.044   2.799   0.750 -0.2608  1.2143 -1.1381
  849SOL     MW 3396   1.984   2.842   0.794 -0.0558  0.3054 -0.4019
  850SOL     OW 3397   2.336   1.849   1.637  0.1052  0.2684 -0.8086
  850SOL    HW1 3398   2.259   1.830   1.578 -2.4427  1.7502 -0.5619
  850SOL    HW2 3399   2.348   1.948   1.627 -1.5089  2.4140 -0.1518
  850SOL     MW 3400   2.327   1.860   1.628 -0.4439  0.7470 -0.6894
  851SOL     OW 3401   2.412   2.269   0.338 -0.0991 -0.0537  0.9406
  851SOL    HW1 3402   2.416   2.301   0.249  1.7627 -2.0203  1.7998
  851SOL    HW2 3403   2.466   2.333   0.393  3.2833  0.5759  1.2639
  851SOL     MW 3404   2.419   2.281   0.334  0.5928 -0.2301  1.0966
  852SOL     OW 3405   2.316   1.996   0.345  0.0698  0.0717  0.3036
  852SOL    HW1 3406   2.353   2.083   0.335 -0.3862 -1.3079 -0.4638
  852SOL    HW2 3407   2.375   1.937   0.291 -0.6549  1.8849  2.0228
  852SOL     MW 3408   2.329   2.000   0.337 -0.0860  0.1289  0.4292
  853SOL     OW 3409   2.513   2.382   1.926 -0.0195 -0.4019  0.0517
  853SOL    HW1 3410   2.509   2.442   1.850 -0.1587  1.3412 -1.3680
  853SOL    HW2 3411   2.607   2.386   1.949  0.8851  0.6373 -1.1113
  853SOL     MW 3412   2.525   2.390   1.919  0.0815 -0.0348 -0.2891
  854SOL     OW 3413   2.855   2.260   0.720  0.5120  0.1699 -0.0611
  854SOL    HW1 3414   2.780   2.238   0.661 -2.2069  1.4965  0.8089
  854SOL    HW2 3415   2.853   2.187   0.788 -1.7270  0.3884  0.6124
  854SOL     MW 3416   2.845   2.247   0.721 -0.1422  0.3737  0.1425
  855SOL     OW 3417   2.768   2.365   0.446 -0.2964  0.3237 -0.1943
  855SOL    HW1 3418   2.686   2.366   0.491  0.7178 -1.6306  2.9460
  855SOL    HW2 3419   2.784   2.270   0.423  1.5997  0.0721 -0.5090
  855SOL     MW 3420   2.759   2.352   0.449  0.0876  0.0326  0.1785
  856SOL     OW 3421   2.065   1.896   0.266 -0.0283 -0.4326 -0.2057
  856SOL    HW1 3422   1.975   1.916   0.292 -0.8523  0.6286  1.1619
  856SOL    HW2 3423   2.132   1.949   0.313 -2.4863  0.7077  0.9249
  856SOL     MW 3424   2.062   1.906   0.276 -0.4614 -0.1422  0.1239
  857SOL     OW 3425   2.508   1.943   0.547 -0.9447 -0.0529  0.4645
  857SOL    HW1 3426   2.460   1.962   0.465  1.1416  2.1666 -0.3017
  857SOL    HW2 3427   2.453   1.910   0.616  0.7230 -2.2739  1.8354
  857SOL     MW 3428   2.494   1.941   0.546 -0.4494 -0.0531  0.5443
  858SOL     OW 3429   2.879   2.675   1.785 -0.1161  0.4683 -0.2262
  858SOL    HW1 3430   2.952   2.734   1.767 -0.7821  2.5396  2.8439
  858SOL    HW2 3431   2.917   2.587   1.772  0.2992 -1.3777 -0.6704
  858SOL     MW 3432   2.894   2.671   1.781 -0.1492  0.4980  0.1203
  859SOL     OW 3433   1.885   2.712   1.013 -0.9285 -0.7684 -0.0407
  859SOL    HW1 3434   1.805   2.664   0.993 -3.2833 -1.1909 -0.2452
  859SOL    HW2 3435   1.934   2.633   1.031  1.4184 -0.2615  2.1277
  859SOL     MW 3436   1.881   2.695   1.013 -0.9295 -0.7572  0.2185
  860SOL     OW 3437   2.601   2.639   0.170  0.1373 -0.5821  0.2703
  860SOL    HW1 3438   2.683   2.617   0.222 -0.3508 -2.0150 -0.3877
  860SOL    HW2 3439   2.629   2.692   0.100  1.3398 -2.7695  1.3403
  860SOL     MW 3440   2.616   2.643   0.168  0.2316 -1.0598  0.3247
  861SOL     OW 3441   1.645   2.152   1.197 -0.2025 -0.0713 -0.1570
  861SOL    HW1 3442   1.657   2.221   1.263  1.2380 -3.5147  2.7808
  861SOL    HW2 3443   1.570   2.101   1.228  0.8223 -2.1529  1.4920
  861SOL     MW 3444   1.636   2.154   1.210  0.1228 -0.8003  0.4482
  862SOL     OW 3445   2.473   1.745   1.418 -1.6160  0.1264  0.0949
  862SOL    HW1 3446   2.429   1.777   1.499  1.3465  5.7151 -0.9069
  862SOL    HW2 3447   2.412   1.748   1.345  1.4644 -1.3342 -0.2358
  862SOL     MW 3448   2.459   1.750   1.419 -0.8187  0.6711 -0.0809
  863SOL     OW 3449   3.009   1.701   0.967 -0.1706 -0.6218  0.4981
  863SOL    HW1 3450   3.095   1.699   1.012  2.7936  3.7830 -2.2371
  863SOL    HW2 3451   2.961   1.744   1.036 -1.6549 -0.6998  0.7703
  863SOL     MW 3452   3.014   1.707   0.982  0.0246 -0.0509  0.1731
  864SOL     OW 3453   0.016   1.813   0.747  0.3420 -0.2259  0.0141
  864SOL    HW1 3454  -0.042   1.803   0.821  0.1873 -0.4945 -1.3276
  864SOL    HW2 3455  -0.030   1.772   0.674  1.8470  0.9664 -0.2362
  864SOL     MW 3456   0.002   1.806   0.747  0.5202 -0.1041 -0.1960
  865SOL     OW 3457   2.596   2.175   0.095 -0.2667 -0.3004  0.4687
  865SOL    HW1 3458   2.563   2.101   0.148 -3.7632 -0.1171 -3.0864
  865SOL    HW2 3459   2.564   2.178   0.005 -1.5012  0.9858  0.0735
  865SOL     MW 3460   2.587   2.166   0.090 -0.8909 -0.1065 -0.0525
  866SOL     OW 3461   2.665   2.393   1.532 -0.0153  0.0472  0.3924
  866SOL    HW1 3462   2.640   2.301   1.522  0.0630 -1.2419 -0.5146
  866SOL    HW2 3463   2.698   2.410   1.447 -2.5359  0.4377  2.4574
  866SOL     MW 3464   2.666   2.383   1.520 -0.3375 -0.0714  0.5452
  867SOL     OW 3465   0.111   2.651   1.753 -0.0766  0.6045 -0.2820
  867SOL    HW1 3466   0.152   2.727   1.791 -1.5353 -0.3573 -0.3675
  867SOL    HW2 3467   0.088   2.682   1.670 -1.2768 -2.3981 -0.3197
  867SOL     MW 3468   0.113   2.665   1.747 -0.4274  0.0815 -0.2982
  868SOL     OW 3469   2.759   2.704   0.514 -0.2881 -0.2191  0.1206
  868SOL    HW1 3470   2.710   2.624   0.504  3.4922  2.5590 -1.6690
  868SOL    HW2 3471   2.687   2.765   0.499  1.4943  3.5175 -1.9806
  868SOL     MW 3472   2.743   2.702   0.511  0.4458  0.6404 -0.3927
  869SOL     OW 3473   2.064   2.508   1.048 -0.2111  0.4390  0.5764
  869SOL    HW1 3474   2.129   2.552   0.993  0.2578 -2.3585 -2.0451
  869SOL    HW2 3475   2.036   2.434   0.994  0.3725 -0.2696 -1.7360
  869SOL     MW 3476   2.069   2.504   1.034 -0.0722 -0.0236 -0.0746
  870SOL     OW 3477   2.208   0.011   0.472  0.5391 -0.6731  0.3835
  870SOL    HW1 3478   2.288   0.052   0.430  0.5740  2.1486  1.3052
  870SOL    HW2 3479   2.229  -0.075   0.500 -0.4309  1.8394 -1.7294
  870SOL     MW 3480   2.221   0.005   0.470  0.4157  0.0307  0.2264
  871SOL     OW 3481   2.468   2.110   0.866  0.0922  0.4906  0.4636
  871SOL    HW1 3482   2.422   2.028   0.848  0.4576  1.3215  2.2628
  871SOL    HW2 3483   2.418   2.172   0.922 -2.9070 -1.5936 -0.6041
  871SOL     MW 3484   2.455   2.107   0.871 -0.2553  0.3252  0.5601
  872SOL     OW 3485   2.129   2.567   1.539  0.4672 -0.2422  0.3194
  872SOL    HW1 3486   2.050   2.608   1.577 -0.7985  1.2000 -1.3209
  872SOL    HW2 3487   2.095   2.524   1.459 -1.0728  1.3041 -2.4023
  872SOL     MW 3488   2.114   2.567   1.533  0.0970  0.1521 -0.2561
  873SOL     OW 3489   2.851   2.091   1.829  0.2120  0.2971  0.1375
  873SOL    HW1 3490   2.833   2.166   1.882 -1.7767 -0.6203  0.6835
  873SOL    HW2 3491   2.941   2.104   1.786  1.9146 -2.5751  1.2851
  873SOL     MW 3492   2.861   2.103   1.830  0.1742 -0.2029  0.3609
  874SOL     OW 3493   2.289   1.422   2.327 -0.3269 -0.1916  0.0684
  874SOL    HW1 3494   2.262   1.372   2.248  0.1194 -1.4642 -1.6922
  874SOL    HW2 3495   2.371   1.377   2.359  3.8347 -1.3761 -1.2546
  874SOL     MW 3496   2.296   1.409   2.321  0.2811 -0.5158 -0.3384
  875SOL     OW 3497   2.353   2.354   0.948  0.4094  0.0737 -0.3816
  875SOL    HW1 3498   2.389   2.399   0.868  1.3844  2.2763 -0.7822
  875SOL    HW2 3499   2.406   2.389   1.028  0.3792  2.4767 -0.7463
  875SOL     MW 3500   2.365   2.364   0.948  0.5341  0.6814 -0.4825
  876SOL     OW 3501  -0.004   2.261   1.348  0.2934  0.0843  0.1694
  876SOL    HW1 3502   0.035   2.278   1.261  1.3479 -0.4712  0.7352
  876SOL    HW2 3503   0.060   2.304   1.410 -0.0089 -0.2892 -0.1579
  876SOL     MW 3504   0.010   2.269   1.345  0.3927 -0.0383  0.2008
  877SOL     OW 3505   0.060   2.760   0.336  0.0517 -0.3809 -0.0940
  877SOL    HW1 3506   0.095   2.840   0.302  0.6666  1.6770  1.9955
  877SOL    HW2 3507   0.047   2.710   0.259  0.5942  1.3526  0.7945
  877SOL     MW 3508   0.063   2.764   0.321  0.2044  0.1193  0.2989
  878SOL     OW 3509   2.310   1.707   1.212 -0.0967  0.3556  0.4573
  878SOL    HW1 3510   2.228   1.669   1.264 -0.6536 -0.7136 -1.2704
  878SOL    HW2 3511   2.342   1.622   1.172 -1.0864  2.0029 -0.1425
  878SOL     MW 3512   2.303   1.691   1.214 -0.3008  0.4319  0.1502
  879SOL     OW 3513   2.749   2.465   0.896  0.1390  0.3535  0.4667
  879SOL    HW1 3514   2.806   2.534   0.921 -0.5437 -1.4928  0.6690
  879SOL    HW2 3515   2.792   2.397   0.842 -2.5111  1.5589  0.3701
  879SOL     MW 3516   2.762   2.465   0.892 -0.3007  0.2690  0.4806
  880SOL     OW 3517   2.592   2.226   0.632 -0.1687  0.3099  0.0325
  880SOL    HW1 3518   2.571   2.199   0.723  0.5888 -0.7928  0.6923
  880SOL    HW2 3519   2.534   2.154   0.590 -0.7888  0.9467 -0.6724
  880SOL     MW 3520   2.582   2.213   0.638 -0.1506  0.2484  0.0265
  881SOL     OW 3521   2.950   2.762   0.699  0.4591 -0.1594 -0.2776
  881SOL    HW1 3522   2.893   2.728   0.636  2.2395  1.0562 -0.3147
  881SOL    HW2 3523   3.025   2.711   0.669 -3.3298  1.1831 -3.1863
  881SOL     MW 3524   2.952   2.751   0.687  0.1941  0.1781 -0.6663
  882SOL     OW 3525   2.274   2.876   1.939 -0.8380  0.2017 -0.1128
  882SOL    HW1 3526   2.257   2.877   1.843  2.2746 -0.6206  1.3935
  882SOL    HW2 3527   2.234   2.790   1.962 -1.8268  1.6732 -0.4762
  882SOL     MW 3528   2.266   2.865   1.929 -0.5578  0.2873  0.0380
  883SOL     OW 3529   2.429   2.212   1.319  0.6075 -0.5174 -0.0803
  883SOL    HW1 3530   2.504   2.169   1.275 -1.8879  0.7577  0.9907
  883SOL    HW2 3531   2.359   2.209   1.247 -0.6604  0.1134  0.4822
  883SOL     MW 3532   2.430   2.206   1.304  0.1109 -0.2660  0.1352
  884SOL     OW 3533   1.940   1.823   1.075 -0.1342  0.3015 -0.2047
  884SOL    HW1 3534   1.902   1.911   1.055 -0.2665  1.0978  0.4641
  884SOL    HW2 3535   2.033   1.831   1.060 -1.8366 -1.4666 -0.9476
  884SOL     MW 3536   1.947   1.836   1.070 -0.3763  0.1733 -0.2144
  885SOL     OW 3537   2.884   2.391   1.699  0.8054 -0.3062 -0.2868
  885SOL    HW1 3538   2.949   2.323   1.673 -0.4781  0.8448  1.7751
  885SOL    HW2 3539   2.815   2.379   1.634 -0.9194  2.7274 -0.0648
  885SOL     MW 3540   2.883   2.381   1.687  0.4085  0.2459  0.0145
  886SOL     OW 3541   2.869   2.406   1.337  0.4584  0.4841 -0.9705
  886SOL    HW1 3542   2.940   2.355   1.381  0.4908  3.3600 -1.3338
  886SOL    HW2 3543   2.868   2.509   1.363  0.8757  0.4233  0.1859
  886SOL     MW 3544   2.878   2.413   1.346  0.5178  0.8555 -0.8659
  887SOL     OW 3545   2.368   2.698   1.517 -0.2075  0.0799  0.0268
  887SOL    HW1 3546   2.394   2.685   1.427  1.8613 -0.4093  2.1763
  887SOL    HW2 3547   2.285   2.643   1.524  1.7447 -0.4702 -1.9771
  887SOL     MW 3548   2.360   2.689   1.506  0.3231 -0.0572  0.0460
  888SOL     OW 3549   2.055   2.170   1.369  0.0847 -0.1656  0.6710
  888SOL    HW1 3550   2.111   2.175   1.291 -0.1939  1.1513  0.8177
  888SOL    HW2 3551   2.108   2.198   1.448  1.2016 -0.5698  0.7179
  888SOL     MW 3552   2.070   2.174   1.370  0.1953 -0.0452  0.6965
  889SOL     OW 3553   2.274   1.914   2.029 -0.2408  0.0749 -0.1834
  889SOL    HW1 3554   2.359   1.919   2.077 -1.0780 -0.0377 -0.6370
  889SOL    HW2 3555   2.288   1.988   1.968  0.7806  0.9430 -1.0589
  889SOL     MW 3556   2.287   1.924   2.027 -0.2165  0.1746 -0.3588
  890SOL     OW 3557   0.039   2.345   0.160  0.2430 -0.0278 -0.3630
  890SOL    HW1 3558   0.015   2.440   0.168  0.3342  0.0986 -2.3805
  890SOL    HW2 3559   0.013   2.293   0.239  1.7636 -3.3248  2.1358
  890SOL     MW 3560   0.032   2.351   0.171  0.4557 -0.4461 -0.2995
  891SOL     OW 3561   3.000   2.040   1.155  0.5650 -0.4282 -0.1640
  891SOL    HW1 3562   3.086   2.006   1.160 -1.9598  0.4847  1.9719
  891SOL    HW2 3563   3.002   2.117   1.210  2.8409  1.8502 -1.8824
  891SOL     MW 3564   3.011   2.045   1.163  0.5322 -0.0072 -0.1089
  892SOL     OW 3565   2.495   2.404   2.830 -0.2865  0.0069 -0.4488
  892SOL    HW1 3566   2.479   2.318   2.869  3.0199 -1.1181 -1.2831
  892SOL    HW2 3567   2.597   2.422   2.835  0.1820 -1.6288  1.6669
  892SOL     MW 3568   2.506   2.395   2.836  0.2116 -0.3573 -0.2797
  893SOL     OW 3569   1.675   2.375   1.387 -0.2464 -0.2850  0.2609
  893SOL    HW1 3570   1.584   2.367   1.417 -1.9979 -0.5996  1.4396
  893SOL    HW2 3571   1.714   2.450   1.430  0.6110 -0.0320 -1.1555
  893SOL     MW 3572   1.668   2.384   1.397 -0.3643 -0.2932  0.2295
  894SOL     OW 3573   2.755   1.870   0.465  0.0941  0.3403 -0.6182
  894SOL    HW1 3574   2.663   1.882   0.508 -3.2744  0.8138  1.4838
  894SOL    HW2 3575   2.748   1.836   0.375  0.0081 -1.5354 -1.5510
  894SOL     MW 3576   2.742   1.867   0.459 -0.3617  0.1553 -0.4639
  895SOL     OW 3577   2.209   2.185   1.107  0.5952 -0.3378 -0.6427
  895SOL    HW1 3578   2.223   2.252   1.041 -0.8061 -0.6212  0.2961
  895SOL    HW2 3579   2.205   2.101   1.070  2.6499 -0.1020  0.9426
  895SOL     MW 3580   2.211   2.183   1.094  0.6814 -0.3441 -0.3096
  896SOL     OW 3581   2.210   2.753   1.081 -0.6798 -0.0645 -0.1999
  896SOL    HW1 3582   2.241   2.764   1.174  2.6083  0.8742 -0.7380
  896SOL    HW2 3583   2.119   2.785   1.083  0.3980  0.3646  2.0531
  896SOL     MW 3584   2.202   2.758   1.093 -0.1037  0.1160  0.0263
  897SOL     OW 3585   3.054   3.020   3.102 -0.1435  0.5819  0.1619
  897SOL    HW1 3586   3.113   2.948   3.099  0.2557 -1.6047  0.0192
  897SOL    HW2 3587   2.975   2.996   3.046 -1.9801 -1.2158  0.0097
  897SOL     MW 3588   3.051   3.008   3.094 -0.3332  0.0562  0.1230
  898SOL     OW 3589   2.132   0.138   1.452  0.9697 -0.2345  0.1923
  898SOL    HW1 3590   2.102   0.053   1.490  1.8542 -0.5064  0.9339
  898SOL    HW2 3591   2.102   0.135   1.365  2.4074  0.0618  2.1745
  898SOL     MW 3592   2.124   0.127   1.445  1.2761 -0.2313  0.5517
  899SOL     OW 3593   2.884   3.037   0.600  0.0773  0.2194  0.0436
  899SOL    HW1 3594   2.902   2.942   0.626 -0.3319 -0.2689  0.3504
  899SOL    HW2 3595   2.796   3.058   0.628 -1.6676 -1.8287 -1.3481
  899SOL     MW 3596   2.874   3.027   0.607 -0.2069 -0.1153 -0.0996
  900SOL     OW 3597   0.095   2.349   1.084  0.0780 -0.3012 -0.0218
  900SOL    HW1 3598   0.020   2.406   1.065  1.4584  1.2711 -1.7983
  900SOL    HW2 3599   0.119   2.307   1.001  0.3696  0.1909  0.0384
  900SOL     MW 3600   0.088   2.351   1.070  0.2986 -0.0288 -0.2483
  901SOL     OW 3601   1.755   2.854   1.796 -0.0866  0.3330 -0.2647
  901SOL    HW1 3602   1.812   2.780   1.776  2.6433 -0.0364 -1.6740
  901SOL    HW2 3603   1.680   2.824   1.745 -1.6464  1.1360  0.0142
  901SOL     MW 3604   1.753   2.840   1.787  0.0678  0.3902 -0.4138
  902SOL     OW 3605   2.639   2.121   1.596 -0.0185 -0.1520  0.2883
  902SOL    HW1 3606   2.647   2.053   1.524 -0.5563 -2.8453  0.1706
  902SOL    HW2 3607   2.711   2.105   1.656 -0.7810 -0.4496 -0.0320
  902SOL     MW 3608   2.650   2.110   1.594 -0.1901 -0.5466  0.2305
  903SOL     OW 3609   1.499   2.663   0.564  0.4638  0.0381 -0.2814
  903SOL    HW1 3610   1.577   2.612   0.595  0.6787 -0.1375 -0.2452
  903SOL    HW2 3611   1.452   2.708   0.647 -3.2830  1.0828 -2.0078
  903SOL     MW 3612   1.503   2.662   0.579 -0.0022  0.1528 -0.5044
  904SOL     OW 3613   2.484   2.543   1.698  0.6663 -0.4414 -0.1528
  904SOL    HW1 3614   2.440   2.592   1.618 -2.5179 -0.3593 -0.2257
  904SOL    HW2 3615   2.554   2.496   1.651  0.5923 -0.4529  1.0480
  904SOL     MW 3616   2.487   2.543   1.681  0.2364 -0.4321 -0.0040
  905SOL     OW 3617   2.298   2.446   2.090 -0.4482  0.1771  0.1447
  905SOL    HW1 3618   2.374   2.421   2.038 -1.1555  1.6039  0.1357
  905SOL    HW2 3619   2.272   2.382   2.168 -0.2593  1.6082 -0.8049
  905SOL     MW 3620   2.304   2.434   2.093 -0.5166  0.5542  0.0182
  906SOL     OW 3621   2.498   2.520   0.756 -0.4398  0.1190 -0.0879
  906SOL    HW1 3622   2.562   2.496   0.819  0.8200 -0.6538 -0.1618
  906SOL    HW2 3623   2.470   2.606   0.789 -1.9056  0.4545  0.3988
  906SOL     MW 3624   2.502   2.528   0.769 -0.4670  0.0613 -0.0334
  907SOL     OW 3625   2.647   2.880   1.270  0.0360  0.2102 -0.5069
  907SOL    HW1 3626   2.697   2.931   1.338 -1.5436  1.9743  3.3958
  907SOL    HW2 3627   2.692   2.885   1.190 -0.1497  2.5324 -1.0293
  907SOL     MW 3628   2.660   2.887   1.268 -0.1969  0.7493 -0.0609
  908SOL     OW 3629   2.722   2.423   0.033  0.0859 -0.5712 -0.1742
  908SOL    HW1 3630   2.657   2.358   0.060  0.4509 -0.5638 -2.7295
  908SOL    HW2 3631   2.703   2.505   0.075  0.2900  1.6305  0.7871
  908SOL     MW 3632   2.711   2.426   0.042  0.1610 -0.2797 -0.3845
  909SOL     OW 3633   1.705   0.121   1.281 -0.1725 -0.8272  0.3672
  909SOL    HW1 3634   1.635   0.185   1.278  1.9916  1.3973  2.1799
  909SOL    HW2 3635   1.697   0.104   1.374 -2.6640  0.2221 -1.0753
  909SOL     MW 3636   1.695   0.127   1.293 -0.2157 -0.3953  0.4161
  910SOL     OW 3637   2.141   1.636   0.389 -0.1542 -0.3156  0.0627
  910SOL    HW1 3638   2.095   1.548   0.400  2.2702 -1.5901 -1.6952
  910SOL    HW2 3639   2.093   1.705   0.341  1.1408 -0.8794  0.8813
  910SOL     MW 3640   2.129   1.633   0.384  0.3366 -0.5581 -0.0612
  911SOL     OW 3641   2.337   2.128   1.579  0.1358 -0.0873  0.3787
  911SOL    HW1 3642   2.413   2.144   1.645  2.0344  0.8372 -0.2560
  911SOL    HW2 3643   2.369   2.157   1.490 -1.1466 -0.9127  0.2937
  911SOL     MW 3644   2.351   2.134   1.576  0.2171 -0.0742  0.2837
  912SOL     OW 3645   2.922   1.867   1.400 -0.2551  0.4527 -0.0622
  912SOL    HW1 3646   2.952   1.892   1.319 -1.4367 -2.0753  3.7687
  912SOL    HW2 3647   2.831   1.891   1.406 -0.2911 -0.6944  1.0592
  912SOL     MW 3648   2.914   1.874   1.390 -0.4158 -0.0322  0.5912
  913SOL     OW 3649   2.705   3.077   0.264  0.0735  0.2345 -0.1394
  913SOL    HW1 3650   2.796   3.050   0.293  0.0984  2.0048  1.9049
  913SOL    HW2 3651   2.679   2.997   0.215 -0.9222 -2.9377  0.4455
  913SOL     MW 3652   2.714   3.063   0.261 -0.0546  0.0495  0.2075
  914SOL     OW 3653   2.709   1.815   2.931 -0.0404 -0.0922 -0.1099
  914SOL    HW1 3654   2.743   1.907   2.929 -0.4762 -0.6175 -0.5593
  914SOL    HW2 3655   2.616   1.831   2.944  3.0128 -0.5070  0.1461
  914SOL     MW 3656   2.701   1.829   2.932  0.3049 -0.2162 -0.1354
  915SOL     OW 3657   1.806   0.119   0.101  0.2707 -0.2753 -0.1214
  915SOL    HW1 3658   1.880   0.086   0.148  1.4981 -1.0184 -0.1263
  915SOL    HW2 3659   1.725   0.089   0.150  0.4317  2.4290 -0.5444
  915SOL     MW 3660   1.805   0.110   0.113  0.4539 -0.0166 -0.1779
  916SOL     OW 3661   1.752   2.181   2.004  0.2413 -0.2120  0.3352
  916SOL    HW1 3662   1.798   2.266   2.007 -0.9140 -0.9888  1.0824
  916SOL    HW2 3663   1.781   2.136   1.925 -1.3113  0.0110  0.3481
  916SOL     MW 3664   1.762   2.186   1.994 -0.1159 -0.2851  0.4355
  917SOL     OW 3665   2.518   2.231   2.593  0.4839 -0.6571 -0.1207
  917SOL    HW1 3666   2.503   2.293   2.667 -2.6702 -0.5677  1.3734
  917SOL    HW2 3667   2.590   2.263   2.544  0.5644 -0.3907 -1.4423
  917SOL     MW 3668   2.525   2.244   2.596  0.0784 -0.6101 -0.0979
  918SOL     OW 3669   2.087   1.607   2.625  0.3605  0.6732  0.1298
  918SOL    HW1 3670   2.015   1.647   2.578 -1.8551  1.4322  0.4919
  918SOL    HW2 3671   2.155   1.678   2.626 -0.7990  1.8812 -0.0669
  918SOL     MW 3672   2.086   1.622   2.619 -0.0848  0.9327  0.1516
  919SOL     OW 3673   3.090   2.411   2.246 -0.0055  0.0055 -0.4484
  919SOL    HW1 3674   3.020   2.361   2.211 -2.7739 -0.0106 -0.7341
  919SOL    HW2 3675   3.163   2.417   2.184  0.6560  1.0573  1.5223
  919SOL     MW 3676   3.091   2.405   2.234 -0.2835  0.1421 -0.2261
  920SOL     OW 3677   2.662   2.758   3.037 -0.2518 -0.1277 -0.1702
  920SOL    HW1 3678   2.573   2.779   3.018  2.1329 -0.3594  2.9043
  920SOL    HW2 3679   2.717   2.756   2.956  0.0272  0.4668  1.1804
  920SOL     MW 3680   2.657   2.761   3.023  0.0996 -0.0799  0.4136
  921SOL     OW 3681   2.485   2.635   2.631 -0.0420 -0.1974  0.3314
  921SOL    HW1 3682   2.534   2.635   2.548  0.4369  2.6467  0.4659
  921SOL    HW2 3683   2.508   2.559   2.682  1.6826 -0.9946 -1.7994
  921SOL     MW 3684   2.495   2.625   2.627  0.2488  0.0727  0.0680
  922SOL     OW 3685   2.094   2.695   0.408 -0.2900 -0.5692 -0.0419
  922SOL    HW1 3686   2.084   2.716   0.316  2.5153 -1.0467  2.4829
  922SOL    HW2 3687   2.096   2.595   0.398 -1.4244  0.1531  0.7457
  922SOL     MW 3688   2.093   2.685   0.395 -0.0695 -0.5369  0.3951
  923SOL     OW 3689   2.198   2.886   1.668 -0.1948  0.9155  0.4715
  923SOL    HW1 3690   2.244   2.829   1.605  0.2055 -1.1692  0.7983
  923SOL    HW2 3691   2.148   2.940   1.606  1.2566  0.0756 -0.9720
  923SOL     MW 3692   2.198   2.886   1.651  0.0495  0.5296  0.3242
  924SOL     OW 3693   1.081   2.740   2.607 -0.4502  0.1814 -0.3299
  924SOL    HW1 3694   1.176   2.766   2.578 -0.6796 -1.2179  0.3838
  924SOL    HW2 3695   1.092   2.657   2.653 -1.5925 -0.4863  1.6557
  924SOL     MW 3696   1.095   2.732   2.609 -0.6312 -0.0913  0.0262
  925SOL     OW 3697   2.979   0.240   2.669  0.2661 -0.1270 -0.2719
  925SOL    HW1 3698   2.945   0.250   2.576  1.0363 -0.1726 -0.0099
  925SOL    HW2 3699   2.964   0.319   2.714 -1.9506 -1.5705 -2.2585
  925SOL     MW 3700   2.972   0.251   2.663  0.0752 -0.3234 -0.4995
  926SOL     OW 3701   2.803   2.354   1.963  0.3234  0.3481 -0.3534
  926SOL    HW1 3702   2.813   2.436   2.018  0.7877 -1.4750 -2.5829
  926SOL    HW2 3703   2.836   2.377   1.874 -1.8304 -0.1819 -0.6707
  926SOL     MW 3704   2.809   2.368   1.958  0.1005  0.0377 -0.6894
  927SOL     OW 3705   2.376   0.153   0.287 -0.0911  0.1032 -0.1251
  927SOL    HW1 3706   2.449   0.214   0.283  0.4974  0.9784  2.0195
  927SOL    HW2 3707   2.362   0.123   0.198 -2.0743 -2.5093 -1.2822
  927SOL     MW 3708   2.384   0.157   0.275 -0.2751 -0.1260  0.0052
  928SOL     OW 3709   2.127   2.366   1.767  0.0639 -0.3491  0.8980
  928SOL    HW1 3710   2.173   2.406   1.696  0.5020 -2.7271  0.6404
  928SOL    HW2 3711   2.193   2.305   1.805  0.8843  0.5372  0.5540
  928SOL     MW 3712   2.142   2.363   1.763  0.2300 -0.5459  0.8186
  929SOL     OW 3713   2.770   2.352   2.489 -0.0419 -0.0892  0.1506
  929SOL    HW1 3714   2.832   2.310   2.435  1.4086 -1.1541 -2.5907
  929SOL    HW2 3715   2.821   2.378   2.568 -2.3249  1.3929  2.0309
  929SOL     MW 3716   2.785   2.350   2.492 -0.1518 -0.0342  0.0370
  930SOL     OW 3717   2.046   2.800   2.674 -0.1456 -0.3572  0.2563
  930SOL    HW1 3718   2.111   2.743   2.713 -0.3738  1.0508 -0.0441
  930SOL    HW2 3719   2.106   2.871   2.642  0.1559  3.1784 -2.4825
  930SOL     MW 3720   2.062   2.802   2.675 -0.1359  0.2950 -0.1447
  931SOL     OW 3721   0.037   2.778   2.470  0.1105  0.1585 -0.1055
  931SOL    HW1 3722   0.019   2.816   2.558 -0.3572 -3.9698 -3.3138
  931SOL    HW2 3723   0.134   2.784   2.454  1.5206  0.0454 -0.0263
  931SOL     MW 3724   0.047   2.784   2.479  0.2348 -0.4011 -0.5184
  932SOL     OW 3725   2.839   1.951   2.522 -0.0641  0.8421  0.0403
  932SOL    HW1 3726   2.916   2.006   2.537 -0.2127  1.5273  1.4158
  932SOL    HW2 3727   2.828   1.947   2.424  0.1357 -0.4064  0.6234
  932SOL     MW 3728   2.848   1.958   2.511 -0.0573  0.7678  0.2988
  933SOL     OW 3729   2.074   2.797   2.212  0.1037  0.3214 -0.3745
  933SOL    HW1 3730   2.145   2.852   2.243  4.1023  0.4185  1.0923
  933SOL    HW2 3731   2.007   2.854   2.190  2.6906 -1.5981  0.7627
  933SOL     MW 3732   2.075   2.811   2.214  0.9726  0.0810 -0.0309
  934SOL     OW 3733   2.018   2.645   2.428  0.1041  0.0991  0.0782
  934SOL    HW1 3734   1.998   2.702   2.504  2.6731  0.2992 -3.9369
  934SOL    HW2 3735   2.031   2.715   2.355 -0.9900 -1.3496  1.0349
  934SOL     MW 3736   2.017   2.662   2.429  0.2987 -0.0657 -0.3253
  935SOL     OW 3737   2.639   1.490   1.772  0.2360 -0.4673 -0.5919
  935SOL    HW1 3738   2.732   1.487   1.766  0.0683  0.4702  2.5083
  935SOL    HW2 3739   2.591   1.475   1.686 -2.7147 -3.5547  0.1383
  935SOL     MW 3740   2.645   1.488   1.760 -0.1754 -0.7510 -0.0865
  936SOL     OW 3741   2.948   2.245  -0.001 -0.3355  0.2919  0.7178
  936SOL    HW1 3742   3.015   2.274   0.060  0.2507 -1.0117 -1.0266
  936SOL    HW2 3743   2.872   2.305   0.005  1.5803 -0.9941  0.8471
  936SOL     MW 3744   2.947   2.257   0.008 -0.0054 -0.0498  0.5047
  937SOL     OW 3745   1.981   2.141   2.670  0.0277 -0.7234 -0.3290
  937SOL    HW1 3746   2.054   2.111   2.724  0.2442 -1.9449 -0.4883
  937SOL    HW2 3747   1.996   2.112   2.582  0.9226 -0.9601  1.2499
  937SOL     MW 3748   1.993   2.133   2.666  0.1743 -0.9158 -0.1417
  938SOL     OW 3749   2.370   1.715   1.873  0.1182 -0.0544 -0.4874
  938SOL    HW1 3750   2.352   1.742   1.780 -3.0118  0.1461 -1.5470
  938SOL    HW2 3751   2.321   1.793   1.915 -2.5010 -0.2347 -2.9222
  938SOL     MW 3752   2.361   1.729   1.866 -0.6404 -0.0517 -0.9485
  939SOL     OW 3753   2.776   1.945   2.260  0.2084 -0.3752  0.4111
  939SOL    HW1 3754   2.814   1.900   2.183  0.1148  1.1746 -0.7269
  939SOL    HW2 3755   2.687   1.955   2.230 -0.7562  0.9361 -0.8722
  939SOL     MW 3756   2.769   1.940   2.246  0.0688  0.0023  0.0916
  940SOL     OW 3757   2.202   0.131   2.689 -0.6552 -0.0270  0.4121
  940SOL    HW1 3758   2.217   0.045   2.651  0.0345 -1.3885 -0.5678
  940SOL    HW2 3759   2.265   0.134   2.762 -0.2569  1.2038  1.8142
  940SOL     MW 3760   2.212   0.120   2.694 -0.5117 -0.0442  0.4678
  941SOL     OW 3761   0.177   2.440   2.036 -0.4624 -0.0944  0.5147
  941SOL    HW1 3762   0.249   2.385   2.045  0.2355  0.3069 -1.6112
  941SOL    HW2 3763   0.144   2.397   1.958 -0.3291 -1.4972  0.5044
  941SOL     MW 3764   0.182   2.427   2.027 -0.3528 -0.2265  0.2328
  942SOL     OW 3765   2.881   2.236   2.207  0.2819  0.4217 -0.1468
  942SOL    HW1 3766   2.859   2.245   2.114 -0.3904 -1.1734 -2.8070
  942SOL    HW2 3767   2.875   2.144   2.218 -1.2690  1.0384  0.9959
  942SOL     MW 3768   2.877   2.225   2.196 -0.0114  0.2926 -0.3470
  943SOL     OW 3769   0.280   2.121   2.297  0.0312 -0.3466  0.1054
  943SOL    HW1 3770   0.228   2.151   2.379  1.7021 -1.6323  0.8047
  943SOL    HW2 3771   0.357   2.080   2.343  0.3085  0.7034 -1.3590
  943SOL     MW 3772   0.283   2.120   2.314  0.2883 -0.3777  0.0044
  944SOL     OW 3773   2.146   2.637   1.975  0.8547 -0.1079  0.0299
  944SOL    HW1 3774   2.197   2.564   2.013  1.1243 -2.6472 -0.8690
  944SOL    HW2 3775   2.087   2.653   2.042 -0.2311 -2.0898 -0.3528
  944SOL     MW 3776   2.145   2.630   1.989  0.7470 -0.7044 -0.1392
  945SOL     OW 3777   2.817   2.774   2.817  0.0197  0.2484 -0.1823
  945SOL    HW1 3778   2.786   2.686   2.803  3.7295  3.0882  1.2809
  945SOL    HW2 3779   2.807   2.820   2.728 -0.5831  2.4364  3.2676
  945SOL     MW 3780   2.812   2.768   2.803  0.4297  0.9118  0.4659
  946SOL     OW 3781   2.465   2.648   2.238  0.2845  0.1164 -0.0928
  946SOL    HW1 3782   2.494   2.691   2.156  1.6069  0.1876 -4.0370
  946SOL    HW2 3783   2.413   2.568   2.210 -1.2965  0.2041  3.5648
  946SOL     MW 3784   2.462   2.643   2.223  0.2504  0.1374 -0.1306
  947SOL     OW 3785   2.047   0.034   0.221  0.1765 -0.8390 -0.7703
  947SOL    HW1 3786   2.073  -0.053   0.184 -1.1321  1.3794  1.3654
  947SOL    HW2 3787   2.107   0.037   0.293 -1.7687 -1.4100 -1.7639
  947SOL     MW 3788   2.059   0.023   0.226 -0.2528 -0.6217 -0.6196
  948SOL     OW 3789   1.789   3.005   2.615 -0.3374 -0.2480 -0.6772
  948SOL    HW1 3790   1.811   2.915   2.621  1.2386  0.8714 -2.0301
  948SOL    HW2 3791   1.758   3.014   2.523 -1.3244  1.3286 -0.0246
  948SOL     MW 3792   1.788   2.994   2.603 -0.2597  0.1077 -0.7696
  949SOL     OW 3793   2.483   1.895   2.209 -0.1424 -0.3103 -0.3013
  949SOL    HW1 3794   2.448   1.819   2.256  2.5006  1.3903 -0.8436
  949SOL    HW2 3795   2.473   1.966   2.278  0.4162  0.5922 -1.2059
  949SOL     MW 3796   2.477   1.895   2.224  0.2800  0.0332 -0.4922
  950SOL     OW 3797   2.320   2.563   2.994  0.5005 -0.3375  0.3438
  950SOL    HW1 3798   2.381   2.503   2.948  1.1229  0.2135 -1.6503
  950SOL    HW2 3799   2.235   2.556   2.963  1.3071 -0.2563 -2.1192
  950SOL     MW 3800   2.317   2.554   2.984  0.6890 -0.2541 -0.2443
  951SOL     OW 3801   3.051   2.197   2.853 -0.0854  0.3740 -0.1010
  951SOL    HW1 3802   2.989   2.224   2.924 -1.6753  2.0558  2.2680
  951SOL    HW2 3803   3.039   2.107   2.820  2.3879  0.7257 -2.0848
  951SOL     MW 3804   3.041   2.189   2.858  0.0311  0.6423 -0.0502
  952SOL     OW 3805   3.039   1.695   2.130  0.3108 -0.2114 -0.3298
  952SOL    HW1 3806   2.963   1.728   2.080 -0.8242  0.9141  3.4987
  952SOL    HW2 3807   3.078   1.784   2.136 -2.2651  3.0033  2.0613
  952SOL     MW 3808   3.034   1.711   2.124 -0.1788  0.3613  0.4908
  953SOL     OW 3809   1.961   1.711   2.923 -0.2978 -0.2628  0.1890
  953SOL    HW1 3810   1.888   1.678   2.974  0.3922  2.8700  1.6256
  953SOL    HW2 3811   1.982   1.660   2.843  0.9419 -0.7274  2.0444
  953SOL     MW 3812   1.954   1.700   2.919 -0.0432  0.0893  0.6234
  954SOL     OW 3813   2.431   2.135   2.921 -0.6164  0.6034  0.2019
  954SOL    HW1 3814   2.346   2.100   2.894  1.2814  1.7763 -2.7009
  954SOL    HW2 3815   2.481   2.095   2.851 -0.3122 -4.8924 -0.4216
  954SOL     MW 3816   2.426   2.125   2.908 -0.3259  0.0331 -0.2634
  955SOL     OW 3817   1.588   1.533   2.532  0.2291 -0.4526  0.1079
  955SOL    HW1 3818   1.546   1.572   2.446 -0.5277  0.3759 -1.7297
  955SOL    HW2 3819   1.674   1.563   2.530  1.3574 -1.8251 -1.4615
  955SOL     MW 3820   1.593   1.542   2.520  0.2781 -0.5244 -0.3416
  956SOL     OW 3821   2.739   2.510   2.853 -0.3008 -0.3545  0.0277
  956SOL    HW1 3822   2.748   2.487   2.943  2.1328 -1.6675 -1.0135
  956SOL    HW2 3823   2.810   2.462   2.807  0.8985  1.7076 -1.5941
  956SOL     MW 3824   2.750   2.500   2.859  0.1786 -0.2557 -0.3236
  957SOL     OW 3825   2.272   2.847   0.567  0.2251 -0.1736  0.9060
  957SOL    HW1 3826   2.226   2.766   0.527 -0.6913  0.5446 -0.3239
  957SOL    HW2 3827   2.294   2.818   0.653  0.9686 -0.6200 -3.7771
  957SOL     MW 3828   2.269   2.833   0.573  0.2023 -0.1378  0.1259
  958SOL     OW 3829   2.062   2.596   2.870 -0.2346 -0.5673  0.0955
  958SOL    HW1 3830   2.031   2.543   2.796 -0.3049 -2.8212  1.7837
  958SOL    HW2 3831   1.992   2.652   2.892  1.8810 -0.9504 -1.5175
  958SOL     MW 3832   2.048   2.596   2.863  0.0353 -0.9153  0.1054
  959SOL     OW 3833   2.528   2.811   0.453 -0.0119 -0.2518  0.2903
  959SOL    HW1 3834   2.502   2.835   0.361  0.3463  2.3098  1.3134
  959SOL    HW2 3835   2.447   2.825   0.504  0.5369 -1.0659  0.0006
  959SOL     MW 3836   2.514   2.816   0.447  0.1078 -0.0213  0.3871
  960SOL     OW 3837   1.918   2.348   2.281 -0.0135  0.3110 -0.4329
  960SOL    HW1 3838   1.939   2.264   2.326 -2.6472 -0.3163 -1.4028
  960SOL    HW2 3839   1.864   2.390   2.349  1.4261  1.2005 -0.1243
  960SOL     MW 3840   1.913   2.342   2.296 -0.1710  0.3456 -0.5201
  961SOL     OW 3841   2.241   2.293   2.304  0.3587  0.4656 -0.6785
  961SOL    HW1 3842   2.148   2.271   2.285  0.2050  0.6154  1.5982
  961SOL    HW2 3843   2.233   2.362   2.371  3.6146 -2.4912  0.8176
  961SOL     MW 3844   2.228   2.300   2.310  0.7680  0.0952 -0.1807
  962SOL     OW 3845   2.198   2.032   2.822 -1.0660 -0.5152 -0.2917
  962SOL    HW1 3846   2.147   1.999   2.895  0.5860 -1.2410  0.3974
  962SOL    HW2 3847   2.206   1.959   2.759  0.6966 -5.4487 -2.2951
  962SOL     MW 3848   2.192   2.018   2.823 -0.6155 -1.2619 -0.4651
  963SOL     OW 3849   1.864   2.585   2.099  0.5918  0.7225 -0.3311
  963SOL    HW1 3850   1.902   2.542   2.173 -0.6402 -1.5764 -0.1408
  963SOL    HW2 3851   1.871   2.511   2.026 -0.0494 -1.3936  0.2293
  963SOL     MW 3852   1.870   2.570   2.099  0.3447  0.1400 -0.2320
  964SOL     OW 3853   1.825   1.906   2.778 -0.1435  0.0282 -0.2919
  964SOL    HW1 3854   1.899   1.963   2.751  0.4778  0.3230 -0.9932
  964SOL    HW2 3855   1.877   1.845   2.834 -3.1547 -0.3921 -2.6636
  964SOL     MW 3856   1.842   1.905   2.782 -0.4588  0.0116 -0.6974
  965SOL     OW 3857   2.186   2.621   0.767 -0.8840  0.0321  0.8808
  965SOL    HW1 3858   2.219   2.533   0.752  2.1207  1.4411  2.1159
  965SOL    HW2 3859   2.255   2.671   0.806 -2.0721  1.6339 -0.6480
  965SOL     MW 3860   2.200   2.616   0.770 -0.6443  0.4293  0.8420
  966SOL     OW 3861   2.662   2.604   2.423 -0.0529 -0.3610 -0.2164
  966SOL    HW1 3862   2.605   2.608   2.343 -0.8583  1.9908  3.8910
  966SOL    HW2 3863   2.700   2.514   2.435  1.2940  2.3079  0.8058
  966SOL     MW 3864   2.660   2.592   2.414  0.0186  0.3014  0.4604
  967SOL     OW 3865   2.775   3.026   2.976 -0.4110  0.4982  0.5530
  967SOL    HW1 3866   2.744   2.942   2.999 -2.9528 -0.2617  0.6076
  967SOL    HW2 3867   2.713   3.060   2.908 -1.0332 -1.4817 -1.6959
  967SOL     MW 3868   2.762   3.020   2.970 -0.8284  0.1367  0.2635
  968SOL     OW 3869   3.052   2.662   2.944 -0.4214  0.1763 -0.5782
  968SOL    HW1 3870   3.011   2.736   2.903  0.1253  1.9969 -0.0076
  968SOL    HW2 3871   3.101   2.624   2.872  0.7617  0.2985 -1.6697
  968SOL     MW 3872   3.053   2.667   2.929 -0.1932  0.4326 -0.6469
  969SOL     OW 3873   1.589   2.209   1.723 -0.8117 -0.2454  0.2139
  969SOL    HW1 3874   1.656   2.139   1.736 -0.9001 -0.6996 -0.6808
  969SOL    HW2 3875   1.539   2.214   1.806 -1.9188  2.3450  3.7324
  969SOL     MW 3876   1.591   2.200   1.735 -0.9695  0.0364  0.5601
  970SOL     OW 3877   1.786   1.827   1.923 -0.6224 -0.4349 -0.0184
  970SOL    HW1 3878   1.817   1.766   1.988 -1.8074 -1.1232 -2.4071
  970SOL    HW2 3879   1.689   1.814   1.925  0.1311  2.2120  4.1655
  970SOL     MW 3880   1.777   1.817   1.932 -0.6793 -0.1765  0.2185
  971SOL     OW 3881   1.729   3.092   2.379 -0.2053 -0.1243 -0.0971
  971SOL    HW1 3882   1.776   3.041   2.306 -0.2521  1.6747  1.8099
  971SOL    HW2 3883   1.767   3.176   2.364  1.3854 -2.1998  0.9698
  971SOL     MW 3884   1.740   3.096   2.367 -0.0016 -0.1608  0.2953
  972SOL     OW 3885   0.314   2.895   2.382 -0.3345  0.8885 -0.4067
  972SOL    HW1 3886   0.376   2.828   2.410  0.9229 -0.1668  0.0889
  972SOL    HW2 3887   0.335   2.977   2.426 -0.0555 -0.7820 -0.0831
  972SOL     MW 3888   0.325   2.897   2.392 -0.1318  0.5289 -0.2986
  973SOL     OW 3889   2.571   3.013   2.131  0.6212 -0.7189  0.4133
  973SOL    HW1 3890   2.578   2.922   2.095  2.1124  0.6480 -2.1487
  973SOL    HW2 3891   2.579   3.062   2.048 -0.6389 -0.3456 -3.7763
  973SOL     MW 3892   2.573   3.007   2.115  0.6517 -0.4893 -0.4775
  974SOL     OW 3893   1.955   0.161   2.588  0.5107  0.3824 -0.2106
  974SOL    HW1 3894   2.026   0.161   2.651  0.6631 -2.6427 -0.5510
  974SOL    HW2 3895   1.889   0.093   2.616 -2.8652  1.8912  0.6370
  974SOL     MW 3896   1.956   0.152   2.600  0.0854  0.1824 -0.1437
  975SOL     OW 3897   2.227   2.481   2.499 -0.0862  0.0485  0.4805
  975SOL    HW1 3898   2.308   2.529   2.504 -1.4574  0.8275 -2.6382
  975SOL    HW2 3899   2.160   2.537   2.443 -1.9632  2.9483  0.5180
  975SOL     MW 3900   2.229   2.495   2.493 -0.5148  0.5339  0.0740
  976SOL     OW 3901   0.210   0.353   1.648  0.5692 -0.4202 -0.4325
  976SOL    HW1 3902   0.255   0.305   1.714 -1.1973  2.2798  0.5274
  976SOL    HW2 3903   0.135   0.300   1.625  1.3206 -0.5765  0.9593
  976SOL     MW 3904   0.206   0.340   1.654  0.4353 -0.0846 -0.1222
  977SOL     OW 3905   1.739   2.762   2.386  0.3482  0.1896 -0.2895
  977SOL    HW1 3906   1.817   2.703   2.386  4.4039  3.6854 -1.0258
  977SOL    HW2 3907   1.742   2.827   2.317 -0.4189 -0.9313  0.1405
  977SOL     MW 3908   1.749   2.763   2.377  0.7821  0.5030 -0.3299
   3.10000   3.10000   3.10000
