977 TIP4P/2005f water molecules t=   1.78000 step= 1780
 3908
    1SOL     OW    1   0.393   0.775   0.098 -0.5794 -0.2475 -0.2654
    1SOL    HW1    2   0.360   0.718   0.026 -1.4395 -2.0845  2.1183
    1SOL    HW2    3   0.391   0.713   0.168 -0.3007 -1.2328 -2.5315
    1SOL     MW    4   0.388   0.759   0.098 -0.6561 -0.6198 -0.2499
    2SOL     OW    5   0.301   3.007   1.097 -0.3699 -0.7267  0.0853
    2SOL    HW1    6   0.341   3.093   1.074 -1.1728  0.6061 -0.8018
    2SOL    HW2    7   0.206   3.024   1.113  0.4491 -1.3472  1.0772
    2SOL     MW    8   0.293   3.021   1.096 -0.3678 -0.6327  0.0991
    3SOL     OW    9   2.682   0.357   0.973 -0.0134 -0.3641 -0.7502
    3SOL    HW1   10   2.712   0.437   0.914  0.2467 -0.4638  1.1424
    3SOL    HW2   11   2.657   0.398   1.069  0.0573  0.4473  1.1355
    3SOL     MW   12   2.683   0.373   0.978  0.0302 -0.2702 -0.2517
    4SOL     OW   13   2.926   1.690   0.536 -0.0195  0.0936  0.3187
    4SOL    HW1   14   2.902   1.777   0.512 -1.6306 -1.5878  1.1048
    4SOL    HW2   15   2.996   1.672   0.473  0.7706  1.7415 -0.1493
    4SOL     MW   16   2.932   1.699   0.525 -0.1278  0.0892  0.3607
    5SOL     OW   17   1.609   1.410   0.618 -0.2790  0.1959 -0.2983
    5SOL    HW1   18   1.654   1.419   0.703  2.6584 -0.4585 -0.0315
    5SOL    HW2   19   1.528   1.454   0.627 -0.3195  2.4147 -1.3050
    5SOL     MW   20   1.604   1.417   0.630  0.1032  0.4023 -0.3959
    6SOL     OW   21   0.799   1.429   0.611 -0.0821  0.2067 -0.0184
    6SOL    HW1   22   0.704   1.449   0.623  1.3805 -2.3847  0.2746
    6SOL    HW2   23   0.816   1.342   0.658 -0.8580 -0.4722  1.5958
    6SOL     MW   24   0.789   1.420   0.619  0.0085 -0.2248  0.2332
    7SOL     OW   25   1.956   1.023   0.017 -0.2864  0.1806  0.1344
    7SOL    HW1   26   2.016   1.099  -0.006  1.2680  1.2178 -1.3991
    7SOL    HW2   27   1.960   1.028   0.114 -0.9094 -1.9047  3.8266
    7SOL     MW   28   1.964   1.034   0.026 -0.1635  0.0423  0.4192
    8SOL     OW   29   0.812   1.431   1.031  0.2845 -0.9460 -0.6080
    8SOL    HW1   30   0.881   1.493   1.046  0.9894  3.1949 -1.4276
    8SOL    HW2   31   0.810   1.374   1.107 -1.5185  3.0925 -0.9367
    8SOL     MW   32   0.821   1.431   1.043  0.1396  0.1332 -0.7595
    9SOL     OW   33   0.923   0.519   1.316 -0.0938  0.1702  0.2023
    9SOL    HW1   34   0.864   0.447   1.283  1.8465 -0.8447 -1.7942
    9SOL    HW2   35   0.985   0.485   1.384 -1.0157 -0.6277  2.5040
    9SOL     MW   36   0.924   0.505   1.321  0.0406 -0.0690  0.2426
   10SOL     OW   37   0.305   0.821   0.486  0.4951 -0.1951  0.1550
   10SOL    HW1   38   0.397   0.851   0.461  0.0182  1.7175  0.2247
   10SOL    HW2   39   0.261   0.887   0.550 -0.5535  0.9597  0.3200
   10SOL     MW   40   0.311   0.834   0.491  0.2938  0.2096  0.1860
   11SOL     OW   41   0.773   1.124   1.462  0.0319 -0.3773 -0.1316
   11SOL    HW1   42   0.807   1.129   1.551 -2.3080 -1.5904  0.6415
   11SOL    HW2   43   0.795   1.025   1.437  0.3366 -1.1098 -1.4725
   11SOL     MW   44   0.780   1.111   1.470 -0.2367 -0.6340 -0.2065
   12SOL     OW   45   0.066   1.076   0.915  0.4056  0.0094  0.3006
   12SOL    HW1   46   0.088   1.160   0.954 -0.4453  0.0624 -2.8815
   12SOL    HW2   47  -0.018   1.106   0.866 -1.5841  0.8681 -1.3334
   12SOL     MW   48   0.057   1.091   0.913  0.0308  0.1297 -0.3349
   13SOL     OW   49   1.811   1.415   1.316  0.0614  0.1505  0.5423
   13SOL    HW1   50   1.847   1.335   1.271 -1.3499  0.5466  0.6963
   13SOL    HW2   51   1.884   1.478   1.303  2.0648 -2.8630 -2.3318
   13SOL     MW   52   1.825   1.412   1.308  0.1395 -0.1948  0.1834
   14SOL     OW   53   0.580   0.301   1.832  0.0843 -0.4268 -0.0548
   14SOL    HW1   54   0.527   0.239   1.777  0.5408 -2.5818 -0.2231
   14SOL    HW2   55   0.664   0.293   1.788  2.9190 -1.2888  0.2657
   14SOL     MW   56   0.584   0.292   1.819  0.5186 -0.8249 -0.0347
   15SOL     OW   57   2.031   0.441   0.973  0.9893  0.4199 -0.3354
   15SOL    HW1   58   2.085   0.512   1.010 -1.0830 -0.0311  0.4588
   15SOL    HW2   59   2.043   0.433   0.879 -1.2033 -1.1472  0.1384
   15SOL     MW   60   2.040   0.449   0.965  0.4266  0.1536 -0.1681
   16SOL     OW   61   0.254   1.834   0.273 -0.6505  0.7254 -0.1841
   16SOL    HW1   62   0.338   1.788   0.280 -4.4640  0.5045  0.9525
   16SOL    HW2   63   0.276   1.925   0.301 -0.8347  1.2484 -0.5216
   16SOL     MW   64   0.268   1.840   0.278 -1.1780  0.7653 -0.0787
   17SOL     OW   65   1.114   0.872   1.419 -0.1234  0.5551  0.2414
   17SOL    HW1   66   1.142   0.849   1.507  1.1598  0.9394 -1.8236
   17SOL    HW2   67   1.015   0.859   1.416 -0.5126 -0.6230 -0.0978
   17SOL     MW   68   1.105   0.867   1.430 -0.0054  0.4503 -0.0758
   18SOL     OW   69   0.044   1.651   0.354  0.3070  0.1833  0.2639
   18SOL    HW1   70   0.110   1.722   0.347 -0.8868 -1.4493 -1.2821
   18SOL    HW2   71   0.035   1.642   0.259  0.1195 -0.0495  0.4422
   18SOL     MW   72   0.052   1.659   0.341  0.1248 -0.0628  0.0834
   19SOL     OW   73   0.105   1.348   0.975 -0.1635  0.0936 -0.5537
   19SOL    HW1   74   0.133   1.405   0.904  0.8330  1.5816 -0.0227
   19SOL    HW2   75   0.009   1.363   0.983 -1.7521  0.0175  1.5589
   19SOL     MW   76   0.096   1.358   0.966 -0.2416  0.2799 -0.2049
   20SOL     OW   77   0.449   2.116   1.260 -0.1324 -0.0271  0.2464
   20SOL    HW1   78   0.394   2.046   1.226  1.1355 -0.4412 -2.0076
   20SOL    HW2   79   0.396   2.150   1.337  1.2056  1.7408  0.1320
   20SOL     MW   80   0.435   2.112   1.265  0.2114  0.1515 -0.0661
   21SOL     OW   81   0.555   0.905   0.430 -0.1531  0.1096  0.1719
   21SOL    HW1   82   0.622   0.945   0.498  0.5753  4.1623  1.6330
   21SOL    HW2   83   0.602   0.895   0.349  1.5396 -2.0976  2.7358
   21SOL     MW   84   0.570   0.909   0.429  0.1663  0.3531  0.7029
   22SOL     OW   85   1.547   0.716   1.022 -0.1161  0.0406 -0.0684
   22SOL    HW1   86   1.514   0.695   0.936  1.2509 -0.3705 -0.5385
   22SOL    HW2   87   1.495   0.785   1.053 -0.3572  0.5165 -1.2600
   22SOL     MW   88   1.536   0.722   1.015  0.0324  0.0492 -0.2876
   23SOL     OW   89   3.053   0.818   0.708  0.1731 -0.2029 -1.1012
   23SOL    HW1   90   3.099   0.758   0.767  2.0765 -0.0279 -0.3378
   23SOL    HW2   91   3.108   0.898   0.693  1.8668  1.1480  1.4522
   23SOL     MW   92   3.066   0.821   0.714  0.6477 -0.0016 -0.6635
   24SOL     OW   93   2.084   2.128   0.074  0.1348 -0.3108 -0.3314
   24SOL    HW1   94   2.021   2.131   0.149  0.1809 -1.6001  1.0011
   24SOL    HW2   95   2.104   2.043   0.038  3.6308  1.7746  0.9453
   24SOL     MW   96   2.079   2.117   0.079  0.6022 -0.2058  0.0128
   25SOL     OW   97   0.228   1.439   0.408  0.2901  0.1406 -0.3433
   25SOL    HW1   98   0.169   1.520   0.384  1.4783 -1.6478  2.1041
   25SOL    HW2   99   0.308   1.455   0.348 -1.2996  2.0497 -1.0673
   25SOL     MW  100   0.231   1.452   0.397  0.2371  0.1565 -0.1159
   26SOL     OW  101   1.987   1.044   0.290 -0.5726 -0.7792  0.6051
   26SOL    HW1  102   1.955   1.076   0.378  1.1698 -0.1674  0.5814
   26SOL    HW2  103   2.068   1.095   0.275 -0.7631  0.1247  1.7250
   26SOL     MW  104   1.993   1.055   0.300 -0.3679 -0.5793  0.7498
   27SOL     OW  105   1.864   1.367   0.138  0.4095  0.1255  0.4437
   27SOL    HW1  106   1.805   1.433   0.173  0.2075 -0.9897 -0.3268
   27SOL    HW2  107   1.932   1.351   0.202  0.1034 -0.0917 -0.0488
   27SOL     MW  108   1.865   1.374   0.151  0.3424 -0.0503  0.2771
   28SOL     OW  109   0.439   0.938   2.059  0.2857  0.0556 -0.3719
   28SOL    HW1  110   0.488   0.938   2.139  0.3486  1.3061  0.2611
   28SOL    HW2  111   0.346   0.911   2.065  0.4480  0.2376  0.2220
   28SOL     MW  112   0.433   0.934   2.070  0.3154  0.2446 -0.2100
   29SOL     OW  113   0.160   1.441   0.715 -0.1313  0.3398 -0.4147
   29SOL    HW1  114   0.199   1.530   0.705  0.9415 -0.4063  1.6789
   29SOL    HW2  115   0.147   1.419   0.622  2.0573 -1.3458 -0.1517
   29SOL     MW  116   0.163   1.450   0.702  0.2990  0.0189 -0.1038
   30SOL     OW  117   0.742   1.271   1.247 -0.0376 -0.2375  0.1681
   30SOL    HW1  118   0.648   1.285   1.229  0.8727 -2.2257  1.0486
   30SOL    HW2  119   0.749   1.215   1.327  0.6992  1.5625 -1.0400
   30SOL     MW  120   0.730   1.265   1.256  0.1797 -0.2623  0.1248
   31SOL     OW  121   0.507   0.229   0.219 -0.2391 -0.5252 -0.2651
   31SOL    HW1  122   0.557   0.165   0.274 -0.2235  2.1447 -1.9464
   31SOL    HW2  123   0.506   0.187   0.133  1.6042  2.3477  0.1030
   31SOL     MW  124   0.514   0.215   0.215  0.0062  0.2061 -0.4384
   32SOL     OW  125   2.721   0.975   1.068  0.2531  0.1857  0.1173
   32SOL    HW1  126   2.665   0.915   1.119  2.1724  2.9662 -0.7706
   32SOL    HW2  127   2.815   0.945   1.093  1.7036  0.0546  0.4807
   32SOL     MW  128   2.726   0.964   1.078  0.6977  0.5353  0.0481
   33SOL     OW  129   1.603   1.228   0.422  0.1493 -0.2682  0.4218
   33SOL    HW1  130   1.691   1.223   0.382 -0.1565  0.1048 -0.1439
   33SOL    HW2  131   1.613   1.300   0.484  1.0528  0.1083  0.2947
   33SOL     MW  132   1.616   1.237   0.425  0.2281 -0.1693  0.3304
   34SOL     OW  133   1.135   1.969   1.154 -0.3401  0.3157  0.6960
   34SOL    HW1  134   1.073   2.032   1.182 -0.5334  1.6597 -1.0645
   34SOL    HW2  135   1.204   1.978   1.211 -1.5369 -1.0653 -1.9730
   34SOL     MW  136   1.136   1.978   1.165 -0.5235  0.3108  0.1115
   35SOL     OW  137   0.331   0.139   1.689 -0.3857  0.1160 -0.6187
   35SOL    HW1  138   0.353   0.104   1.776 -1.0174 -0.6179 -0.4613
   35SOL    HW2  139   0.302   0.056   1.644  0.7802 -0.6209 -2.5480
   35SOL     MW  140   0.330   0.124   1.695 -0.3152 -0.0780 -0.8525
   36SOL     OW  141   1.927   2.000   0.604  0.2281 -0.2844 -0.2742
   36SOL    HW1  142   1.910   1.967   0.520  3.0489  2.1353  1.1602
   36SOL    HW2  143   1.951   1.910   0.632  0.7677 -0.5436 -1.3701
   36SOL     MW  144   1.928   1.984   0.596  0.6714  0.0007 -0.2296
   37SOL     OW  145   1.769   2.073   0.966 -1.2049 -0.1991 -0.7420
   37SOL    HW1  146   1.696   2.023   0.921 -2.0127 -0.4101  1.1398
   37SOL    HW2  147   1.728   2.108   1.044  2.9461 -1.7496 -2.9761
   37SOL     MW  148   1.754   2.071   0.970 -0.7638 -0.4315 -0.7885
   38SOL     OW  149   2.799   0.963   0.024  0.0574  0.2904  0.1385
   38SOL    HW1  150   2.849   0.978   0.103  0.5257 -0.8223 -1.7476
   38SOL    HW2  151   2.876   0.937  -0.038 -0.2578 -0.9746 -2.0420
   38SOL     MW  152   2.815   0.961   0.026  0.0776 -0.0233 -0.3980
   39SOL     OW  153   1.519   0.667   0.736  0.4075  0.1426 -0.3183
   39SOL    HW1  154   1.492   0.572   0.736  0.6032  0.7259  1.5329
   39SOL    HW2  155   1.435   0.713   0.724  2.5993 -1.3777 -0.9115
   39SOL     MW  156   1.504   0.661   0.734  0.7225  0.0190 -0.1523
   40SOL     OW  157   1.274   1.870   0.254  0.4377 -0.1033  0.0464
   40SOL    HW1  158   1.342   1.816   0.302  1.3029  0.3776 -1.1355
   40SOL    HW2  159   1.220   1.920   0.321 -1.1372 -2.8311  1.0646
   40SOL     MW  160   1.276   1.869   0.269  0.3440 -0.3998  0.0248
   41SOL     OW  161   0.515   0.491   1.560 -0.1533 -0.3946  0.9155
   41SOL    HW1  162   0.593   0.545   1.539  4.8940  0.2939 -0.7835
   41SOL    HW2  163   0.457   0.539   1.504 -0.0682 -2.7363 -0.1396
   41SOL     MW  164   0.518   0.504   1.550  0.5239 -0.6127  0.5522
   42SOL     OW  165   1.231   2.898   2.001  0.2746 -0.4147  0.1487
   42SOL    HW1  166   1.154   2.857   2.044  0.6105  2.9279 -1.0472
   42SOL    HW2  167   1.301   2.844   2.040 -0.6878 -4.0995 -0.2439
   42SOL     MW  168   1.230   2.885   2.012  0.1920 -0.4599 -0.0609
   43SOL     OW  169   1.403   0.113   1.696 -0.3631  0.4452  0.0834
   43SOL    HW1  170   1.483   0.079   1.650  1.3425  0.3015 -1.0542
   43SOL    HW2  171   1.353   0.029   1.695 -1.9570  0.9153  1.2570
   43SOL     MW  172   1.407   0.097   1.690 -0.3484  0.4883  0.0881
   44SOL     OW  173   1.229   0.840   0.965 -0.3110  0.3078 -0.3932
   44SOL    HW1  174   1.190   0.924   0.942 -1.1967 -0.1732 -0.8044
   44SOL    HW2  175   1.169   0.794   1.026  1.3128 -1.7081 -1.8880
   44SOL     MW  176   1.216   0.845   0.970 -0.2136 -0.0217 -0.6447
   45SOL     OW  177   1.297   0.808   0.715 -0.3166 -0.2835 -0.5997
   45SOL    HW1  178   1.263   0.814   0.805 -2.3205 -1.7829 -0.5033
   45SOL    HW2  179   1.231   0.742   0.677 -1.4270 -1.1415  1.5932
   45SOL     MW  180   1.284   0.800   0.722 -0.7275 -0.5945 -0.2977
   46SOL     OW  181   0.423   1.123   0.673  0.0574 -0.1731  0.1889
   46SOL    HW1  182   0.466   1.140   0.590 -2.1570  0.1916  0.5920
   46SOL    HW2  183   0.423   1.202   0.728 -2.5822  1.7872  0.0449
   46SOL     MW  184   0.429   1.136   0.669 -0.5831  0.1337  0.2231
   47SOL     OW  185   0.089   1.983   1.949  0.0826 -0.6330  0.6330
   47SOL    HW1  186   0.092   1.913   1.882 -1.9325  1.9128  0.6684
   47SOL    HW2  187   0.094   1.940   2.032 -0.1271 -2.0730  2.3003
   47SOL     MW  188   0.090   1.968   1.951 -0.2109 -0.4871  0.8576
   48SOL     OW  189   1.232   0.498   1.008  0.4712 -0.1224  0.4284
   48SOL    HW1  190   1.186   0.442   0.944  0.9308 -0.0475 -2.2647
   48SOL    HW2  191   1.159   0.550   1.039 -0.2136 -1.5320  2.2747
   48SOL     MW  192   1.217   0.497   1.004  0.4415 -0.2985  0.3167
   49SOL     OW  193   1.693   0.721   1.548  0.5769  0.4699 -0.2474
   49SOL    HW1  194   1.740   0.664   1.607 -2.5673  0.4091  0.2644
   49SOL    HW2  195   1.724   0.703   1.461  1.7340  0.6658  0.5522
   49SOL     MW  196   1.704   0.711   1.544  0.3147  0.4877 -0.0744
   50SOL     OW  197   1.323   1.205   0.639  0.2922 -0.4744  0.2755
   50SOL    HW1  198   1.242   1.217   0.702 -0.9643  1.3711  0.6141
   50SOL    HW2  199   1.379   1.139   0.683 -1.7167  0.1426 -1.7761
   50SOL     MW  200   1.320   1.198   0.654 -0.1387 -0.1495  0.0495
   51SOL     OW  201   0.352   2.879   0.856 -0.0648 -0.5070  0.0337
   51SOL    HW1  202   0.437   2.834   0.860  1.4839 -0.4874 -0.5225
   51SOL    HW2  203   0.349   2.925   0.944 -3.4637  3.7614 -2.1850
   51SOL     MW  204   0.363   2.879   0.868 -0.3089  0.0587 -0.3324
   52SOL     OW  205   0.782   1.824   0.482 -0.1902  0.0127  0.2013
   52SOL    HW1  206   0.774   1.917   0.509  0.7171  0.5534 -0.2760
   52SOL    HW2  207   0.823   1.829   0.397  0.0752 -0.3224  0.4357
   52SOL     MW  208   0.786   1.837   0.474 -0.0354  0.0399  0.1692
   53SOL     OW  209   0.477   2.165   0.581  0.2291  0.3479  0.2205
   53SOL    HW1  210   0.448   2.115   0.500  0.3283 -1.7649 -0.8089
   53SOL    HW2  211   0.438   2.253   0.566  0.7611  2.5412 -1.7864
   53SOL     MW  212   0.468   2.170   0.568  0.3124  0.3585 -0.1801
   54SOL     OW  213   2.024   0.977   0.735  0.0836  0.4524 -0.2522
   54SOL    HW1  214   2.074   0.984   0.654 -0.8766 -1.5445 -1.0771
   54SOL    HW2  215   2.029   0.886   0.758  1.6246  1.3221 -0.3010
   54SOL     MW  216   2.031   0.966   0.727  0.1602  0.3037 -0.3675
   55SOL     OW  217   0.420   1.532   1.720 -0.1449 -0.2840  0.1676
   55SOL    HW1  218   0.370   1.561   1.640  0.1144  0.2300 -1.4080
   55SOL    HW2  219   0.511   1.523   1.693 -2.7649  0.9014  1.3817
   55SOL     MW  220   0.426   1.535   1.706 -0.4564 -0.0598  0.1199
   56SOL     OW  221   0.637   0.906   0.143  0.5581  0.5000  0.3890
   56SOL    HW1  222   0.643   1.001   0.141  0.8088  2.0753  2.0141
   56SOL    HW2  223   0.544   0.891   0.116  1.2835 -1.1725 -0.0186
   56SOL     MW  224   0.626   0.916   0.139  0.6869  0.4872  0.5496
   57SOL     OW  225   1.108   1.294   1.151  0.3486  0.5090  0.3602
   57SOL    HW1  226   1.193   1.328   1.183 -1.1327  2.1817  0.7224
   57SOL    HW2  227   1.075   1.235   1.225  1.8940 -1.5467  1.1194
   57SOL     MW  228   1.115   1.291   1.165  0.3571  0.4585  0.5081
   58SOL     OW  229   0.422   1.278   1.293 -0.0265 -0.5920 -0.0293
   58SOL    HW1  230   0.389   1.371   1.297 -1.0755 -1.0115 -0.0704
   58SOL    HW2  231   0.443   1.248   1.379 -1.9811  2.3492 -1.3578
   58SOL     MW  232   0.420   1.286   1.305 -0.4228 -0.2593 -0.2100
   59SOL     OW  233   1.420   1.691   0.369  0.1530 -0.0058 -0.2603
   59SOL    HW1  234   1.479   1.720   0.433  1.9266 -0.5661  1.6163
   59SOL    HW2  235   1.336   1.686   0.429 -1.6423  2.4035  0.8556
   59SOL     MW  236   1.417   1.694   0.385  0.1502  0.2382  0.1345
   60SOL     OW  237   3.094   0.178   1.649 -0.1720 -0.4059  0.1766
   60SOL    HW1  238   3.010   0.219   1.657  0.7804 -1.2180 -1.9968
   60SOL    HW2  239   3.109   0.136   1.739 -0.6738  1.9428 -0.6423
   60SOL     MW  240   3.085   0.178   1.662 -0.1126 -0.2032 -0.2182
   61SOL     OW  241   1.981   1.351   2.968  0.1896  0.2520  0.2563
   61SOL    HW1  242   1.940   1.348   3.057  0.5087  0.0268 -1.1387
   61SOL    HW2  243   2.057   1.285   2.963 -1.1489  1.7655 -0.2196
   61SOL     MW  244   1.986   1.342   2.979  0.0551  0.4220  0.0094
   62SOL     OW  245   0.576   1.729   0.655  0.2750  0.5874 -0.6440
   62SOL    HW1  246   0.652   1.738   0.599  0.3109 -0.9598 -1.4437
   62SOL    HW2  247   0.527   1.648   0.633 -0.2544 -1.0200 -1.6360
   62SOL     MW  248   0.580   1.719   0.645  0.2099  0.1712 -0.8804
   63SOL     OW  249   1.750   0.719   0.562  0.1032 -0.2689 -0.9730
   63SOL    HW1  250   1.722   0.809   0.528 -3.1036 -0.6753  0.7778
   63SOL    HW2  251   1.675   0.696   0.621 -1.2589 -1.6401  0.4693
   63SOL     MW  252   1.737   0.728   0.565 -0.4997 -0.5034 -0.5517
   64SOL     OW  253   0.260   1.696   0.673 -0.6091 -0.4900 -0.3140
   64SOL    HW1  254   0.309   1.752   0.730 -1.2745  2.0203 -1.8163
   64SOL    HW2  255   0.170   1.723   0.680 -1.9703  1.8410 -2.4688
   64SOL     MW  256   0.255   1.707   0.682 -0.8765  0.1488 -0.7965
   65SOL     OW  257   1.480   2.294   0.396 -0.0662 -0.1097 -0.0550
   65SOL    HW1  258   1.567   2.327   0.417 -0.8208  2.5916  1.2742
   65SOL    HW2  259   1.426   2.342   0.466  0.5354  0.4334  0.8119
   65SOL     MW  260   1.484   2.305   0.408 -0.0864  0.3184  0.2348
   66SOL     OW  261   0.393   0.551   0.533  0.0024 -0.6850 -0.2244
   66SOL    HW1  262   0.454   0.537   0.456  1.4565  1.7945  1.1833
   66SOL    HW2  263   0.384   0.645   0.528  2.4102 -3.5963  3.1326
   66SOL     MW  264   0.400   0.561   0.523  0.5119 -0.7419  0.4042
   67SOL     OW  265   1.376   0.060   1.975 -0.9050 -0.0441  0.4890
   67SOL    HW1  266   1.413   0.061   1.885 -0.4254  0.0295 -1.5631
   67SOL    HW2  267   1.313  -0.014   1.971  1.0273  0.0212  0.3859
   67SOL     MW  268   1.373   0.051   1.962 -0.5868 -0.0258  0.2047
   68SOL     OW  269   0.760   0.100   2.901 -0.1106  0.1357 -0.6165
   68SOL    HW1  270   0.767   0.169   2.837  1.7559  0.1895 -0.8186
   68SOL    HW2  271   0.847   0.096   2.949 -0.2370  2.1004 -1.5675
   68SOL     MW  272   0.772   0.109   2.899  0.1190  0.4020 -0.7686
   69SOL     OW  273   1.092   0.283   1.974  0.3540 -0.8600  0.2975
   69SOL    HW1  274   1.174   0.304   2.029  1.6194 -0.4081  0.1602
   69SOL    HW2  275   1.030   0.228   2.022 -1.7912  1.5650  1.5322
   69SOL     MW  276   1.095   0.279   1.988  0.2379 -0.4804  0.4423
   70SOL     OW  277   0.537   1.731   1.124  0.2968 -0.0879  0.2888
   70SOL    HW1  278   0.629   1.756   1.097  1.0322 -1.5058  1.2775
   70SOL    HW2  279   0.507   1.661   1.064  3.6820 -2.1944  1.8296
   70SOL     MW  280   0.545   1.725   1.112  0.8405 -0.5529  0.6225
   71SOL     OW  281   1.559   0.581   1.270  0.4306  0.0947 -0.5612
   71SOL    HW1  282   1.504   0.669   1.286 -0.7708  0.3780 -0.9917
   71SOL    HW2  283   1.554   0.584   1.172  0.9549 -0.4900 -1.1976
   71SOL     MW  284   1.551   0.593   1.259  0.3413  0.0549 -0.7020
   72SOL     OW  285   0.782   1.820   1.021 -0.4339  0.1281  0.2828
   72SOL    HW1  286   0.772   1.890   0.957  0.4649 -0.7354  2.1638
   72SOL    HW2  287   0.794   1.751   0.960  2.3637  1.4019  0.4512
   72SOL     MW  288   0.782   1.820   1.005  0.0538  0.1822  0.5532
   73SOL     OW  289   1.095   0.699   1.177 -0.6183 -0.2447 -0.7766
   73SOL    HW1  290   1.036   0.634   1.212 -1.3249  0.0396 -2.3342
   73SOL    HW2  291   1.104   0.763   1.256  4.1203  3.7312  0.7119
   73SOL     MW  292   1.088   0.699   1.192 -0.0863  0.3174 -0.7857
   74SOL     OW  293   2.794   0.064   0.967  0.4556  0.1378 -0.1701
   74SOL    HW1  294   2.875   0.085   0.925  0.8427 -1.1857 -0.4768
   74SOL    HW2  295   2.740   0.139   0.976  0.3080  0.1115  0.1822
   74SOL     MW  296   2.798   0.077   0.963  0.4872 -0.0403 -0.1641
   75SOL     OW  297   1.505   1.313   0.179 -0.1277  0.1406 -0.1446
   75SOL    HW1  298   1.575   1.267   0.129 -0.1642  2.2323 -2.7304
   75SOL    HW2  299   1.531   1.300   0.275 -0.3531 -3.0030 -0.1372
   75SOL     MW  300   1.518   1.306   0.185 -0.1622  0.0018 -0.4848
   76SOL     OW  301   3.054   0.701   0.454  0.6002  0.4052  0.1901
   76SOL    HW1  302   3.063   0.749   0.544  2.6558 -0.0854 -0.3162
   76SOL    HW2  303   3.126   0.643   0.442 -1.4828 -0.2548  0.7758
   76SOL     MW  304   3.065   0.699   0.464  0.5966  0.2534  0.2006
   77SOL     OW  305   0.861   0.629   0.442  0.9217  0.1166  0.4184
   77SOL    HW1  306   0.821   0.653   0.356 -0.0776 -1.1104 -0.8901
   77SOL    HW2  307   0.840   0.531   0.444 -1.2513  0.0989 -0.1666
   77SOL     MW  308   0.853   0.619   0.431  0.5031 -0.0476  0.1686
   78SOL     OW  309   0.820   0.874   1.080  0.4959 -0.0688 -0.1712
   78SOL    HW1  310   0.831   0.958   1.032  1.1504  2.7010  0.0671
   78SOL    HW2  311   0.723   0.869   1.103  1.7662  3.9645  1.1915
   78SOL     MW  312   0.808   0.884   1.077  0.7498  0.8288  0.0400
   79SOL     OW  313   1.859   1.508   0.538  0.4966 -0.0465 -0.0006
   79SOL    HW1  314   1.768   1.494   0.571 -0.5065  0.1651 -0.3160
   79SOL    HW2  315   1.919   1.504   0.608  0.7350  2.6335 -2.6951
   79SOL     MW  316   1.855   1.506   0.551  0.3957  0.3350 -0.3977
   80SOL     OW  317   0.205   0.985   0.286  0.5225  0.5500  0.1351
   80SOL    HW1  318   0.162   0.931   0.221  1.1757 -0.5501 -2.6441
   80SOL    HW2  319   0.228   0.922   0.354  0.2210  0.1818 -1.4625
   80SOL     MW  320   0.202   0.970   0.287  0.5689  0.3563 -0.4424
   81SOL     OW  321   1.841   1.865   0.374  0.0970 -0.7952  0.3789
   81SOL    HW1  322   1.818   1.779   0.352 -1.1664 -1.6156  1.7266
   81SOL    HW2  323   1.790   1.920   0.314 -3.1799  1.9404  1.1743
   81SOL     MW  324   1.831   1.861   0.363 -0.5020 -0.5425  0.6616
   82SOL     OW  325   0.968   1.029   0.559  0.0051 -0.7943  0.3631
   82SOL    HW1  326   0.923   1.094   0.503  2.9710  2.7243  1.2874
   82SOL    HW2  327   0.899   0.973   0.589 -0.0829  1.6089  0.3265
   82SOL     MW  328   0.953   1.030   0.556  0.3848 -0.0130  0.4803
   83SOL     OW  329  -0.002   0.738   1.571 -0.9762 -0.0757  0.0846
   83SOL    HW1  330   0.004   0.815   1.502 -0.9344  0.5256 -2.3984
   83SOL    HW2  331   0.084   0.701   1.548  0.9696 -1.7745  0.2702
   83SOL     MW  332   0.010   0.743   1.559 -0.7140 -0.2205 -0.2185
   84SOL     OW  333   0.004   0.180   0.911 -0.4614 -0.2261 -0.2672
   84SOL    HW1  334  -0.006   0.270   0.949  0.1168 -0.7832  1.3640
   84SOL    HW2  335   0.001   0.123   0.988  2.2549  2.4098 -2.9128
   84SOL     MW  336   0.002   0.184   0.926 -0.0267  0.0481 -0.4011
   85SOL     OW  337   0.346   0.498   0.800  0.4658 -0.3853  0.5792
   85SOL    HW1  338   0.361   0.521   0.706  0.3711 -0.8977  1.1195
   85SOL    HW2  339   0.325   0.405   0.809 -0.8502  2.4149  2.0094
   85SOL     MW  340   0.345   0.489   0.789  0.2797 -0.0834  0.8392
   86SOL     OW  341   1.295   0.285   1.189  0.2987 -0.0300  0.4322
   86SOL    HW1  342   1.284   0.366   1.139  3.9732  0.0104  3.3904
   86SOL    HW2  343   1.386   0.288   1.222 -0.0512 -1.0400  0.3665
   86SOL     MW  344   1.306   0.296   1.187  0.7373 -0.1579  0.8138
   87SOL     OW  345   1.031   1.568   1.172  0.0787  0.6253 -0.0330
   87SOL    HW1  346   1.085   1.622   1.113  1.2828  1.6673  0.1670
   87SOL    HW2  347   1.047   1.475   1.153 -0.5391 -2.0324  2.0293
   87SOL     MW  348   1.040   1.563   1.162  0.1560  0.4122  0.2655
   88SOL     OW  349   1.149   1.098   0.969 -0.0708  0.4279 -0.4954
   88SOL    HW1  350   1.241   1.077   0.989 -0.8523  0.1428  0.4612
   88SOL    HW2  351   1.130   1.167   1.036 -0.8718  1.3120  1.9189
   88SOL     MW  352   1.159   1.105   0.981 -0.2796  0.5069 -0.0506
   89SOL     OW  353   1.787   0.690   0.232  0.3839  0.2573  0.4362
   89SOL    HW1  354   1.725   0.640   0.281  0.9383  0.1013  0.5429
   89SOL    HW2  355   1.841   0.733   0.297  1.3803  1.0211  0.2115
   89SOL     MW  356   1.786   0.689   0.247  0.5885  0.3375  0.4206
   90SOL     OW  357   0.782   1.216   2.844 -0.2479  0.0608 -0.4232
   90SOL    HW1  358   0.831   1.133   2.833 -0.9645 -2.0420 -0.8163
   90SOL    HW2  359   0.805   1.258   2.926  0.4309 -3.1937 -1.3856
   90SOL     MW  360   0.792   1.211   2.853 -0.2529 -0.6461 -0.6021
   91SOL     OW  361   2.250   0.619   0.512  0.2421 -0.3223  0.2663
   91SOL    HW1  362   2.320   0.668   0.458  0.2359 -0.0254  0.1338
   91SOL    HW2  363   2.222   0.546   0.452  1.6114  0.3503  0.5131
   91SOL     MW  364   2.256   0.616   0.497  0.4220 -0.1944  0.2814
   92SOL     OW  365   1.638   0.949   0.493 -0.2290 -0.0108 -0.1533
   92SOL    HW1  366   1.590   0.972   0.571  2.0368 -0.7204 -0.9544
   92SOL    HW2  367   1.584   0.947   0.410  1.9948  0.8575 -2.7211
   92SOL     MW  368   1.624   0.952   0.493  0.3634  0.0102 -0.5978
   93SOL     OW  369   1.084   0.270   0.388  0.0849  0.0004  0.8693
   93SOL    HW1  370   0.997   0.294   0.412  0.1688  0.4648 -0.1058
   93SOL    HW2  371   1.094   0.319   0.305  0.2905  0.5269  0.6822
   93SOL     MW  372   1.074   0.280   0.380  0.1231  0.1311  0.7159
   94SOL     OW  373   1.885   1.366   1.596  1.0823  0.8403 -0.5087
   94SOL    HW1  374   1.861   1.396   1.512 -1.7289 -0.7734  0.6148
   94SOL    HW2  375   1.842   1.275   1.593 -0.3510 -0.3413 -2.1168
   94SOL     MW  376   1.876   1.358   1.585  0.5223  0.4715 -0.5727
   95SOL     OW  377   0.584   1.548   0.918  0.0862 -0.2388 -0.0730
   95SOL    HW1  378   0.659   1.503   0.969 -0.1354  1.8031  1.5568
   95SOL    HW2  379   0.522   1.478   0.903 -3.2244 -0.1835  1.7364
   95SOL     MW  380   0.586   1.533   0.923 -0.3798  0.0379  0.3808
   96SOL     OW  381   1.336   1.838   1.685  0.6256 -0.2940  0.3398
   96SOL    HW1  382   1.249   1.844   1.730 -1.0652 -1.0523  1.6887
   96SOL    HW2  383   1.342   1.751   1.646 -1.8710 -1.1899  0.7095
   96SOL     MW  384   1.326   1.828   1.686  0.0731 -0.5122  0.5665
   97SOL     OW  385   1.107   1.580   0.842  0.0990  0.2226  0.1730
   97SOL    HW1  386   1.132   1.659   0.897 -1.0944  2.1940 -0.7381
   97SOL    HW2  387   1.008   1.582   0.835 -1.6086  1.1805  1.7942
   97SOL     MW  388   1.097   1.591   0.848 -0.2838  0.6091  0.2667
   98SOL     OW  389   1.346   1.400   1.226 -0.0167 -0.3168  0.3372
   98SOL    HW1  390   1.410   1.429   1.286  0.0439  0.5247 -0.9193
   98SOL    HW2  391   1.394   1.390   1.139  1.0812  1.0532 -0.7291
   98SOL     MW  392   1.361   1.402   1.222  0.1361 -0.0250  0.0307
   99SOL     OW  393   1.523   0.311   1.319  0.8473  0.4126 -0.8675
   99SOL    HW1  394   1.538   0.406   1.306 -0.6845 -0.5035 -2.4028
   99SOL    HW2  395   1.478   0.309   1.411 -1.9593  0.3638  0.8703
   99SOL     MW  396   1.519   0.323   1.329  0.2749  0.2853 -0.8408
  100SOL     OW  397   1.067   1.169   1.394  0.3159 -0.0633  0.1766
  100SOL    HW1  398   1.026   1.198   1.474  1.5289 -0.3159 -0.7189
  100SOL    HW2  399   1.090   1.079   1.409 -0.1209  2.3256  0.3081
  100SOL     MW  400   1.065   1.161   1.407  0.4183  0.2186  0.0758
  101SOL     OW  401   0.555   1.223   0.427  0.0786 -0.1283  0.3731
  101SOL    HW1  402   0.499   1.219   0.347 -1.1580  0.6927 -3.8333
  101SOL    HW2  403   0.639   1.192   0.389  1.9213 -2.5869  0.4458
  101SOL     MW  404   0.559   1.218   0.411  0.1586 -0.3444 -0.1723
  102SOL     OW  405   2.934   0.601   1.097 -1.0060 -0.0550 -0.0848
  102SOL    HW1  406   2.954   0.691   1.110  0.9085  0.3659  0.3893
  102SOL    HW2  407   2.893   0.585   1.178  0.7770  1.4077 -3.1351
  102SOL     MW  408   2.931   0.611   1.109 -0.5181  0.1935 -0.4247
  103SOL     OW  409   1.849   0.272   1.766 -0.2031  0.3949 -0.2104
  103SOL    HW1  410   1.848   0.184   1.733  0.9000  1.0813 -0.7963
  103SOL    HW2  411   1.848   0.259   1.864  1.8967  0.9117 -0.9831
  103SOL     MW  412   1.848   0.259   1.775  0.2195  0.5537 -0.3897
  104SOL     OW  413   0.053   1.520   1.688  0.1705 -0.6699  0.2248
  104SOL    HW1  414   0.092   1.436   1.730 -1.5694  0.3872 -3.4250
  104SOL    HW2  415  -0.043   1.513   1.702  0.1417  1.1942 -1.2539
  104SOL     MW  416   0.045   1.508   1.696 -0.0629 -0.2845 -0.4519
  105SOL     OW  417   0.066   1.217   0.425  0.7544 -0.4233  0.2970
  105SOL    HW1  418   0.077   1.134   0.380  0.6680  0.4024 -1.1380
  105SOL    HW2  419   0.137   1.280   0.410 -2.2032 -0.2807  1.7970
  105SOL     MW  420   0.077   1.214   0.417  0.3528 -0.2956  0.3056
  106SOL     OW  421   0.796   0.261   0.827  0.5077 -0.3504 -0.1182
  106SOL    HW1  422   0.730   0.324   0.863 -1.4122 -0.7616  2.5516
  106SOL    HW2  423   0.850   0.229   0.903 -1.2807 -1.4473 -0.8814
  106SOL     MW  424   0.795   0.265   0.842  0.0184 -0.5494  0.1334
  107SOL     OW  425   0.774   2.220   2.886  0.0675  0.0592 -0.0769
  107SOL    HW1  426   0.682   2.219   2.917 -2.3702  0.1277 -0.4681
  107SOL    HW2  427   0.814   2.164   2.954  0.5783  0.2949 -0.4632
  107SOL     MW  428   0.767   2.212   2.899 -0.1867  0.0993 -0.1795
  108SOL     OW  429   1.324   1.583   1.647 -0.1406 -0.2542  0.3779
  108SOL    HW1  430   1.253   1.593   1.579 -2.2270  1.2522 -2.2385
  108SOL    HW2  431   1.379   1.513   1.631 -2.6305  1.3600  2.1698
  108SOL     MW  432   1.322   1.575   1.636 -0.7444  0.1575  0.2691
  109SOL     OW  433   2.034   0.773   0.339 -0.0545  0.5912 -0.3277
  109SOL    HW1  434   2.035   0.864   0.346 -0.5444 -1.3777  0.4302
  109SOL    HW2  435   2.078   0.736   0.417 -0.3739 -1.6258 -0.9153
  109SOL     MW  436   2.040   0.780   0.350 -0.1613  0.0389 -0.3052
  110SOL     OW  437   0.413   1.918   0.760 -0.3719 -0.0643  0.8050
  110SOL    HW1  438   0.477   1.853   0.723  2.0300  0.1930 -1.4302
  110SOL    HW2  439   0.456   2.002   0.754  0.2105 -2.5297  1.9464
  110SOL     MW  440   0.427   1.921   0.754  0.0219 -0.3556  0.6607
  111SOL     OW  441   0.844   0.891   1.356 -0.6331  0.4039  0.3510
  111SOL    HW1  442   0.834   0.885   1.262 -1.3186  1.3552  0.8012
  111SOL    HW2  443   0.788   0.832   1.403  1.3943 -2.8945  0.5583
  111SOL     MW  444   0.836   0.883   1.350 -0.4561  0.0942  0.4377
  112SOL     OW  445   1.385   1.136   1.610 -0.5954  0.5829  0.1731
  112SOL    HW1  446   1.308   1.192   1.597  0.0697 -0.0766 -1.7812
  112SOL    HW2  447   1.359   1.047   1.635 -0.7105  1.9894  0.1988
  112SOL     MW  448   1.372   1.132   1.612 -0.5229  0.6815 -0.0814
  113SOL     OW  449   1.222   2.990   1.716 -0.0404 -0.4584 -0.2081
  113SOL    HW1  450   1.179   2.932   1.778 -1.1441  2.1448  0.0050
  113SOL    HW2  451   1.199   2.962   1.628 -1.1372  1.0837 -0.1416
  113SOL     MW  452   1.214   2.978   1.713 -0.3307  0.0885 -0.1712
  114SOL     OW  453   0.374   2.888   1.774 -0.2121  0.3424  0.2824
  114SOL    HW1  454   0.461   2.921   1.769  0.6516  0.2440 -2.9809
  114SOL    HW2  455   0.341   2.910   1.860  2.4374  0.7477 -0.3753
  114SOL     MW  456   0.381   2.896   1.784  0.2514  0.3829 -0.2349
  115SOL     OW  457   0.548   0.841   1.179 -0.0601  0.4038  0.1538
  115SOL    HW1  458   0.522   0.755   1.141 -0.1414  3.0437 -2.1755
  115SOL    HW2  459   0.480   0.863   1.241  3.6312 -1.6341 -0.0456
  115SOL     MW  460   0.536   0.832   1.182  0.4162  0.4832 -0.1799
  116SOL     OW  461   0.683   1.123   0.981 -0.4076 -0.3987  0.4754
  116SOL    HW1  462   0.757   1.158   0.922  1.4919  1.8575  2.2066
  116SOL    HW2  463   0.702   1.137   1.077  0.7286  0.5695  0.9826
  116SOL     MW  464   0.695   1.129   0.986 -0.0070  0.0267  0.7707
  117SOL     OW  465   1.106   1.303   0.802 -0.0094 -0.2867 -0.1974
  117SOL    HW1  466   1.120   1.241   0.879 -0.7428 -2.1881  1.9898
  117SOL    HW2  467   1.109   1.389   0.852 -3.3838  1.4315  1.7091
  117SOL     MW  468   1.108   1.306   0.819 -0.5514 -0.3109  0.3427
  118SOL     OW  469   3.067   2.935   1.797 -0.4634  0.5486 -0.0368
  118SOL    HW1  470   3.125   2.993   1.847 -0.0640  0.0613  1.9122
  118SOL    HW2  471   2.978   2.969   1.781  0.6877 -1.2367 -1.8811
  118SOL     MW  472   3.063   2.947   1.801 -0.2588  0.2487 -0.0230
  119SOL     OW  473   0.361   1.540   1.279 -0.1441 -0.0162 -0.2626
  119SOL    HW1  474   0.401   1.624   1.254 -1.8779 -0.1604  3.7167
  119SOL    HW2  475   0.267   1.545   1.250 -0.4175 -0.0348 -0.7691
  119SOL     MW  476   0.354   1.552   1.272 -0.4089 -0.0377  0.1956
  120SOL     OW  477   0.281   0.866   0.985  0.5062  1.2348  0.1134
  120SOL    HW1  478   0.274   0.956   1.013  1.6600  1.7807 -0.4420
  120SOL    HW2  479   0.370   0.869   0.948 -0.3174  0.1272 -1.3562
  120SOL     MW  480   0.292   0.878   0.984  0.5498  1.1607 -0.1538
  121SOL     OW  481   1.770   1.126   1.600 -0.9287 -0.2310 -0.4448
  121SOL    HW1  482   1.703   1.142   1.530  0.1191 -3.6383 -1.6830
  121SOL    HW2  483   1.817   1.052   1.572  0.1143  1.3672  0.0901
  121SOL     MW  484   1.768   1.118   1.587 -0.6528 -0.4697 -0.5376
  122SOL     OW  485   0.145   0.651   0.883  0.7422  0.0150 -0.0068
  122SOL    HW1  486   0.229   0.604   0.862  0.9659 -0.2318  1.8341
  122SOL    HW2  487   0.189   0.738   0.909  0.1015 -2.8597 -0.1153
  122SOL     MW  488   0.162   0.656   0.884  0.6872 -0.3969  0.2218
  123SOL     OW  489   1.878   1.107   0.535  0.1815  0.1604 -0.0774
  123SOL    HW1  490   1.786   1.078   0.520  1.5707 -0.7208 -0.8231
  123SOL    HW2  491   1.903   1.057   0.611 -1.5381  1.1214  0.6317
  123SOL     MW  492   1.869   1.096   0.543  0.1379  0.1709 -0.0822
  124SOL     OW  493   0.595   0.466   0.908 -0.3078 -0.2371 -1.2745
  124SOL    HW1  494   0.506   0.487   0.864 -0.2717  2.8719 -0.3240
  124SOL    HW2  495   0.658   0.534   0.880 -0.3116 -0.8640  0.2413
  124SOL     MW  496   0.592   0.478   0.898 -0.3036  0.0904 -0.9491
  125SOL     OW  497   0.681   1.690   1.735  0.2325  0.3635 -0.2286
  125SOL    HW1  498   0.683   1.723   1.646 -0.0180 -0.8596  0.9724
  125SOL    HW2  499   0.641   1.757   1.782 -1.5918 -1.6349  0.4977
  125SOL     MW  500   0.676   1.703   1.729 -0.0413 -0.0616  0.0257
  126SOL     OW  501   2.114   1.537   1.913 -0.0882 -0.1787 -0.0388
  126SOL    HW1  502   2.159   1.618   1.924  2.2321 -0.6063 -1.6162
  126SOL    HW2  503   2.184   1.473   1.923  1.3083  0.8502 -0.8909
  126SOL     MW  504   2.129   1.539   1.916  0.4022 -0.0994 -0.3594
  127SOL     OW  505   0.493   0.779   1.824 -0.1378  0.1734 -0.0279
  127SOL    HW1  506   0.578   0.779   1.795 -2.0727  0.5114  1.8213
  127SOL    HW2  507   0.488   0.844   1.897 -2.3704  2.6912  3.1983
  127SOL     MW  508   0.503   0.787   1.830 -0.6877  0.5502  0.6418
  128SOL     OW  509   1.740   0.725   2.879  0.5771 -0.1759 -0.2995
  128SOL    HW1  510   1.778   0.712   2.793 -1.2497 -0.2628 -0.0498
  128SOL    HW2  511   1.765   0.808   2.910 -0.3100 -1.2098  0.8732
  128SOL     MW  512   1.749   0.734   2.872  0.2190 -0.3238 -0.1118
  129SOL     OW  513   1.565   0.882   0.173  0.1620  0.8397 -0.0931
  129SOL    HW1  514   1.487   0.831   0.152 -1.0129  0.0296 -1.7965
  129SOL    HW2  515   1.630   0.811   0.177  0.5589 -0.9708 -1.6938
  129SOL     MW  516   1.563   0.866   0.171  0.0593  0.4939 -0.5291
  130SOL     OW  517   0.832   1.449   0.342  0.2313 -0.6011 -0.4848
  130SOL    HW1  518   0.820   1.473   0.431  1.6512 -0.0077 -2.3549
  130SOL    HW2  519   0.915   1.488   0.307 -0.5094 -0.2054  1.9978
  130SOL     MW  520   0.841   1.457   0.350  0.3209 -0.4706 -0.4040
  131SOL     OW  521   0.061   0.778   0.117 -0.0614 -0.2154 -0.3384
  131SOL    HW1  522   0.063   0.825   0.029 -1.0821  0.1459 -1.2421
  131SOL    HW2  523   0.134   0.715   0.109  1.6987 -0.1872  0.4049
  131SOL     MW  524   0.071   0.776   0.104  0.0362 -0.1640 -0.3596
  132SOL     OW  525   2.715   0.084   1.253 -0.2193  0.1654  0.2709
  132SOL    HW1  526   2.744   0.084   1.164  0.4315  0.5551  0.0877
  132SOL    HW2  527   2.620   0.057   1.234  0.5095 -2.0214  0.0248
  132SOL     MW  528   2.707   0.081   1.239 -0.0373 -0.0717  0.2143
  133SOL     OW  529   1.044   0.104   1.728  0.3487 -0.1498  0.7501
  133SOL    HW1  530   1.112   0.037   1.719 -1.2186  0.4400  0.7849
  133SOL    HW2  531   1.084   0.164   1.795  2.0604 -0.6782  1.5200
  133SOL     MW  532   1.058   0.103   1.736  0.3678 -0.1417  0.8563
  134SOL     OW  533   1.405   2.487   1.450  0.2279  0.3605 -0.1649
  134SOL    HW1  534   1.351   2.529   1.379 -0.8010  0.8469 -0.2255
  134SOL    HW2  535   1.404   2.547   1.519  2.3342  1.1719  1.1882
  134SOL     MW  536   1.398   2.500   1.450  0.3701  0.5317  0.0056
  135SOL     OW  537   3.018   0.999   2.964  0.0652  0.5524 -0.2155
  135SOL    HW1  538   3.104   1.034   2.985 -1.8703 -0.6597  0.6126
  135SOL    HW2  539   2.959   1.069   2.919 -0.7498  1.9190  0.3116
  135SOL     MW  540   3.022   1.013   2.961 -0.2977  0.5728 -0.0367
  136SOL     OW  541   0.158   1.988   0.875  0.1032  0.2659 -0.1816
  136SOL    HW1  542   0.070   1.950   0.858 -1.7744  0.8238 -1.9593
  136SOL    HW2  543   0.215   1.965   0.796 -1.4744 -3.4512 -1.5126
  136SOL     MW  544   0.154   1.980   0.862 -0.3527 -0.1509 -0.5918
  137SOL     OW  545   0.745   2.081   0.592 -0.2103  0.3602 -0.2874
  137SOL    HW1  546   0.781   2.101   0.682  1.6746 -0.9116  1.2227
  137SOL    HW2  547   0.652   2.101   0.596  0.9856  1.6766 -0.6984
  137SOL     MW  548   0.738   2.087   0.605  0.1962  0.3661 -0.1424
  138SOL     OW  549   0.478   0.597   1.113  0.4346 -0.1657 -0.7941
  138SOL    HW1  550   0.397   0.556   1.135  2.0381  2.2215 -3.0349
  138SOL    HW2  551   0.517   0.544   1.045  0.5494  2.9210  0.8625
  138SOL     MW  552   0.472   0.585   1.107  0.6613  0.5566 -0.8712
  139SOL     OW  553   2.853   0.520   1.366  0.1343 -0.3197 -0.2861
  139SOL    HW1  554   2.943   0.476   1.356  0.9627 -1.7440  0.9962
  139SOL    HW2  555   2.863   0.574   1.446  0.7431 -2.6131  1.1039
  139SOL     MW  556   2.866   0.521   1.375  0.3239 -0.8102  0.0665
  140SOL     OW  557   0.888   0.466   1.976 -0.1943  0.7055  0.6672
  140SOL    HW1  558   0.975   0.423   1.988 -0.9040  0.2845  0.8346
  140SOL    HW2  559   0.857   0.462   2.073  0.1723 -2.1524  2.9891
  140SOL     MW  560   0.895   0.460   1.991 -0.2396  0.2729  0.9956
  141SOL     OW  561   1.101   0.632   1.680  0.5947  0.3495  0.4010
  141SOL    HW1  562   1.090   0.566   1.610 -0.0838 -1.5725  1.3789
  141SOL    HW2  563   1.172   0.600   1.740 -1.8074  0.1665  1.2312
  141SOL     MW  564   1.109   0.619   1.678  0.1882  0.0718  0.6396
  142SOL     OW  565   0.869   1.211   0.743 -0.2234 -0.7250  0.2220
  142SOL    HW1  566   0.896   1.138   0.678 -0.9068 -1.4153  0.3646
  142SOL    HW2  567   0.947   1.271   0.755  0.3019  2.3494  1.2502
  142SOL     MW  568   0.883   1.209   0.736 -0.2442 -0.4105  0.3765
  143SOL     OW  569   1.836   0.720   1.046  0.1375 -0.0851  0.6413
  143SOL    HW1  570   1.868   0.748   0.962  0.6760  2.9745 -1.3484
  143SOL    HW2  571   1.747   0.698   1.026  0.2012  1.2359 -0.1396
  143SOL     MW  572   1.828   0.721   1.033  0.2170  0.4929  0.2757
  144SOL     OW  573   0.230   1.332   1.736  0.3901  0.3797  0.6997
  144SOL    HW1  574   0.310   1.389   1.717 -1.0945 -1.9431 -0.2754
  144SOL    HW2  575   0.276   1.267   1.784 -0.2280 -0.8887 -0.1563
  144SOL     MW  576   0.247   1.331   1.740  0.1127 -0.0941  0.4581
  145SOL     OW  577   0.241   0.492   1.189  0.1424  0.0027 -0.0511
  145SOL    HW1  578   0.271   0.403   1.217 -0.9425  1.9431  0.8349
  145SOL    HW2  579   0.188   0.485   1.109 -1.6155 -2.0042 -1.9293
  145SOL     MW  580   0.238   0.479   1.182 -0.2327 -0.0061 -0.1820
  146SOL     OW  581   0.785   1.973   1.524  0.3834  0.3018  0.4460
  146SOL    HW1  582   0.824   2.002   1.432  0.3867  0.9667 -2.5109
  146SOL    HW2  583   0.735   1.891   1.499  1.1282 -2.2732 -0.5195
  146SOL     MW  584   0.784   1.966   1.509  0.4821  0.0497 -0.0715
  147SOL     OW  585   0.458   0.512   2.973 -0.3919  0.3503  1.0137
  147SOL    HW1  586   0.370   0.513   3.010  0.5180 -1.2480 -0.6701
  147SOL    HW2  587   0.451   0.579   2.902 -4.3901  2.5969  2.0869
  147SOL     MW  588   0.445   0.521   2.968 -0.7994  0.4358  0.9331
  148SOL     OW  589   0.043   0.910   1.351 -0.4531 -0.2619 -0.7833
  148SOL    HW1  590   0.138   0.924   1.335  0.6207 -1.1871 -0.4324
  148SOL    HW2  591   0.008   0.997   1.343  0.2515  1.1039 -1.5074
  148SOL     MW  592   0.051   0.923   1.348 -0.2184 -0.2038 -0.8325
  149SOL     OW  593   1.564   1.186   1.423 -0.7102  0.2210  1.3283
  149SOL    HW1  594   1.484   1.159   1.484  0.4026  0.5482 -0.7281
  149SOL    HW2  595   1.552   1.282   1.420 -2.1005 -0.4605  1.5112
  149SOL     MW  596   1.552   1.195   1.431 -0.7468  0.1742  1.0811
  150SOL     OW  597   1.722   1.463   0.851  0.0427 -0.1936  0.4689
  150SOL    HW1  598   1.782   1.390   0.871  0.3006 -2.8665  2.3189
  150SOL    HW2  599   1.772   1.544   0.840 -2.0049  2.5336  0.6149
  150SOL     MW  600   1.736   1.464   0.852 -0.1934 -0.1865  0.7322
  151SOL     OW  601   1.613   1.888   0.827 -0.2112 -0.0411 -0.0230
  151SOL    HW1  602   1.587   1.865   0.735 -0.0717  2.1971 -0.0037
  151SOL    HW2  603   1.564   1.837   0.893  1.2137 -0.3534  0.9991
  151SOL     MW  604   1.603   1.878   0.823 -0.0048  0.2130  0.1144
  152SOL     OW  605   0.652   1.415   1.575  0.0468 -0.4810  0.3869
  152SOL    HW1  606   0.703   1.469   1.504  0.0505  2.5699  3.2217
  152SOL    HW2  607   0.618   1.334   1.546 -0.5779  1.1443 -0.4858
  152SOL     MW  608   0.654   1.411   1.562 -0.0352  0.1360  0.6458
  153SOL     OW  609   2.589   1.235   0.722  0.4810  0.0074  0.2758
  153SOL    HW1  610   2.669   1.214   0.674  2.4939  1.4610 -0.6334
  153SOL    HW2  611   2.552   1.148   0.729 -1.2326 -3.3787 -1.7284
  153SOL     MW  612   2.595   1.221   0.716  0.5205 -0.2476 -0.1086
  154SOL     OW  613   0.124   1.772   1.763  0.1470  0.2272 -0.2775
  154SOL    HW1  614   0.114   1.667   1.759  0.3139  0.0377 -1.7618
  154SOL    HW2  615   0.222   1.780   1.750  0.5611 -0.4609  1.3816
  154SOL     MW  616   0.136   1.759   1.761  0.2237  0.1114 -0.2544
  155SOL     OW  617   1.211   0.692   0.293 -0.5746 -0.6322  0.1648
  155SOL    HW1  618   1.209   0.660   0.380 -0.1106  2.1856 -4.2901
  155SOL    HW2  619   1.203   0.789   0.304 -0.3673  2.1609  0.7848
  155SOL     MW  620   1.210   0.701   0.306 -0.4860  0.1081 -0.3412
  156SOL     OW  621   1.563   0.006   1.082 -0.2361  0.2029  0.5191
  156SOL    HW1  622   1.623   0.052   1.138  3.0417 -0.0064  1.3498
  156SOL    HW2  623   1.601  -0.085   1.075 -2.3691  0.5455 -0.5621
  156SOL     MW  624   1.576   0.000   1.088 -0.0850  0.2205  0.4861
  157SOL     OW  625   1.304   1.138   0.186 -0.9888  0.0151 -0.2442
  157SOL    HW1  626   1.294   1.079   0.258 -0.3888 -1.8549  0.9329
  157SOL    HW2  627   1.389   1.184   0.183 -0.7674  3.2165 -2.1154
  157SOL     MW  628   1.314   1.136   0.195 -0.8804  0.1908 -0.3358
  158SOL     OW  629   0.387   1.649   2.270 -0.2088  0.0479  0.8662
  158SOL    HW1  630   0.414   1.738   2.235  2.9806  0.0181 -2.2874
  158SOL    HW2  631   0.329   1.613   2.202 -0.7733  1.2659  1.0003
  158SOL     MW  632   0.383   1.656   2.257  0.1376  0.2047  0.4678
  159SOL     OW  633   1.202   1.701   0.523  0.1293  0.6061 -0.1573
  159SOL    HW1  634   1.153   1.659   0.453  1.3212  1.5816 -0.4935
  159SOL    HW2  635   1.139   1.732   0.590 -0.4890 -1.4729 -2.4266
  159SOL     MW  636   1.187   1.700   0.523  0.2049  0.4606 -0.5011
  160SOL     OW  637   0.500   1.133   1.540 -0.3251  0.1829  0.2398
  160SOL    HW1  638   0.467   1.078   1.606 -1.3304  1.1767  0.5264
  160SOL    HW2  639   0.587   1.093   1.518  2.3074  1.9524 -3.2111
  160SOL     MW  640   0.507   1.121   1.546 -0.1104  0.5475 -0.1777
  161SOL     OW  641   0.474   2.283   2.685  0.1445  0.3845 -0.0147
  161SOL    HW1  642   0.394   2.326   2.670  2.8214 -0.4864  0.3351
  161SOL    HW2  643   0.472   2.205   2.627  1.1534 -0.1130 -0.0450
  161SOL     MW  644   0.463   2.278   2.675  0.6308  0.2039  0.0274
  162SOL     OW  645   1.080   1.812   1.811 -0.2765 -0.4602 -0.1714
  162SOL    HW1  646   1.070   1.895   1.865 -1.0630  0.9157 -0.5709
  162SOL    HW2  647   1.025   1.740   1.853  1.4275 -4.1939  2.7044
  162SOL     MW  648   1.071   1.813   1.824 -0.1554 -0.7713  0.1553
  163SOL     OW  649   2.131   3.066   0.805 -0.1064 -0.6943 -0.1655
  163SOL    HW1  650   2.114   3.144   0.750  1.0624  1.5798 -0.3158
  163SOL    HW2  651   2.065   3.005   0.792  0.8257 -0.6992  0.7653
  163SOL     MW  652   2.120   3.068   0.796  0.1708 -0.3949 -0.0625
  164SOL     OW  653   0.265   0.236   0.845 -0.7750  0.6085 -0.8252
  164SOL    HW1  654   0.171   0.213   0.874 -0.5580  1.0011 -0.8777
  164SOL    HW2  655   0.284   0.160   0.789 -3.0915  0.4976 -0.1177
  164SOL     MW  656   0.255   0.223   0.841 -1.0520  0.6457 -0.7388
  165SOL     OW  657   1.170   1.298   0.389 -0.4260 -0.4540 -0.2174
  165SOL    HW1  658   1.195   1.254   0.476  0.7528  0.6659 -1.0898
  165SOL    HW2  659   1.220   1.248   0.324  1.2934 -2.0762 -2.3787
  165SOL     MW  660   1.180   1.286   0.392 -0.0436 -0.5203 -0.6177
  166SOL     OW  661   0.391   1.149   1.036 -0.5306 -0.5521  0.1702
  166SOL    HW1  662   0.403   1.185   1.122 -1.3356  1.4456  0.7521
  166SOL    HW2  663   0.467   1.088   1.023 -3.0273 -2.1814 -1.7324
  166SOL     MW  664   0.403   1.146   1.045 -0.9662 -0.5035 -0.0040
  167SOL     OW  665   0.837   1.173   0.368 -0.4748  0.6163 -0.0958
  167SOL    HW1  666   0.849   1.272   0.358  0.1043  1.8266 -1.6473
  167SOL    HW2  667   0.861   1.125   0.285  1.1076 -2.3251  2.8693
  167SOL     MW  668   0.842   1.180   0.356 -0.1896  0.3879  0.0907
  168SOL     OW  669   1.732   1.636   3.022 -0.2890 -0.4547 -0.1934
  168SOL    HW1  670   1.660   1.694   2.994 -1.2259 -0.6837 -1.7471
  168SOL    HW2  671   1.717   1.543   2.991  1.7639 -1.3590  2.0083
  168SOL     MW  672   1.721   1.631   3.014 -0.1418 -0.6043 -0.1079
  169SOL     OW  673   0.302   0.961   1.328 -0.4707 -0.2477  0.0052
  169SOL    HW1  674   0.332   0.917   1.401 -1.9108  0.1916  0.0038
  169SOL    HW2  675   0.327   1.051   1.351 -0.3077 -0.7563 -0.8890
  169SOL     MW  676   0.309   0.967   1.341 -0.6392 -0.2569 -0.1130
  170SOL     OW  677   1.114   1.523   1.455 -0.2402  0.3365 -0.2678
  170SOL    HW1  678   1.076   1.608   1.467 -0.0219 -0.8564  0.8678
  170SOL    HW2  679   1.154   1.528   1.369 -1.3513  4.1375  0.4662
  170SOL     MW  680   1.114   1.535   1.445 -0.3580  0.6806 -0.0211
  171SOL     OW  681   0.482   1.476   0.544 -0.7066  0.8020 -0.3024
  171SOL    HW1  682   0.393   1.444   0.534  3.0982  1.9628 -2.0995
  171SOL    HW2  683   0.518   1.387   0.514  1.8973 -0.6163  0.7472
  171SOL     MW  684   0.475   1.460   0.538  0.1390  0.7680 -0.4010
  172SOL     OW  685   0.749   0.299   1.298 -0.2859  0.1051 -0.5625
  172SOL    HW1  686   0.758   0.262   1.209  3.9380 -1.4007 -2.7696
  172SOL    HW2  687   0.787   0.229   1.363  3.2241 -0.3353  0.9357
  172SOL     MW  688   0.755   0.285   1.295  0.7345 -0.1517 -0.6560
  173SOL     OW  689   0.504   1.765   0.335 -0.1640  0.5701 -0.1746
  173SOL    HW1  690   0.531   1.676   0.333  1.4564 -1.9865 -1.4138
  173SOL    HW2  691   0.468   1.776   0.423 -2.1385  0.2995 -0.8714
  173SOL     MW  692   0.503   1.755   0.346 -0.2107  0.1971 -0.4300
  174SOL     OW  693   1.909   0.915   1.493  0.5530 -0.8556  0.7396
  174SOL    HW1  694   1.874   0.833   1.525 -1.2644 -1.8804 -0.6791
  174SOL    HW2  695   1.886   0.922   1.402  1.1946  1.1438  2.9413
  174SOL     MW  696   1.902   0.905   1.486  0.3979 -0.7270  0.8429
  175SOL     OW  697   0.590   1.464   0.222  0.2315  0.1073  0.4265
  175SOL    HW1  698   0.614   1.387   0.171  2.2386 -0.1046  0.9346
  175SOL    HW2  699   0.674   1.467   0.268  1.7541  0.9208  2.0276
  175SOL     MW  700   0.605   1.454   0.222  0.6972  0.1866  0.7048
  176SOL     OW  701   0.097   1.514   1.203  0.3993  0.0344  0.8550
  176SOL    HW1  702   0.109   1.450   1.129 -1.0641 -2.9237  1.3369
  176SOL    HW2  703   0.041   1.468   1.268  2.2184  2.4090  1.8231
  176SOL     MW  704   0.091   1.499   1.202  0.4463 -0.0426  1.0463
  177SOL     OW  705   0.510   0.268   1.429 -0.0331 -0.7425  0.2380
  177SOL    HW1  706   0.585   0.294   1.373 -1.4171  2.9996  0.0252
  177SOL    HW2  707   0.493   0.344   1.490  1.5030  0.4025  1.6079
  177SOL     MW  708   0.518   0.281   1.430 -0.0131 -0.0977  0.3907
  178SOL     OW  709   3.062   0.554   2.977  0.1920  0.6280 -0.2468
  178SOL    HW1  710   2.966   0.544   3.003  2.3576 -2.0136 -4.8166
  178SOL    HW2  711   3.072   0.590   2.885  0.9208  1.4996 -2.3072
  178SOL     MW  712   3.051   0.558   2.968  0.5739  0.3945 -1.1216
  179SOL     OW  713   1.566   1.491   1.357  0.1868 -0.0922 -0.1105
  179SOL    HW1  714   1.613   1.506   1.442  0.6681 -0.0040 -0.4304
  179SOL    HW2  715   1.626   1.444   1.293  0.4537  1.1303  1.0793
  179SOL     MW  716   1.580   1.487   1.360  0.2855  0.0807  0.0043
  180SOL     OW  717   0.019   0.249   0.413  0.0717  0.4444 -0.0166
  180SOL    HW1  718  -0.063   0.293   0.371 -1.8892  0.6887 -1.8879
  180SOL    HW2  719   0.072   0.317   0.445  0.7089 -0.3902 -1.9949
  180SOL     MW  720   0.015   0.264   0.412 -0.1029  0.3665 -0.5245
  181SOL     OW  721   1.067   1.340   0.012 -0.4502 -0.0372  0.3599
  181SOL    HW1  722   1.135   1.408   0.033  0.1616 -0.1283 -1.4509
  181SOL    HW2  723   1.122   1.264   0.001  2.5473  3.5710  1.1093
  181SOL     MW  724   1.083   1.339   0.014  0.0260  0.4269  0.2199
  182SOL     OW  725   0.364   0.877   1.599 -0.0798 -0.9189  0.7592
  182SOL    HW1  726   0.275   0.887   1.642 -1.0460  2.5770  1.1307
  182SOL    HW2  727   0.416   0.824   1.655  1.3458  0.2344 -1.2139
  182SOL     MW  728   0.359   0.871   1.612 -0.0192 -0.3055  0.5479
  183SOL     OW  729   1.575   1.746   1.281 -0.3392  0.0047  0.2350
  183SOL    HW1  730   1.669   1.748   1.269 -3.4375  0.0548 -2.3089
  183SOL    HW2  731   1.557   1.654   1.320 -1.5956 -0.4454  1.0375
  183SOL     MW  732   1.585   1.734   1.284 -0.9137 -0.0481  0.0052
  184SOL     OW  733   0.817   0.625   1.748  0.1805 -0.1437 -0.2134
  184SOL    HW1  734   0.914   0.648   1.739  0.1373  1.2488 -1.9461
  184SOL    HW2  735   0.815   0.564   1.823 -0.2835  0.6219  0.3331
  184SOL     MW  736   0.830   0.620   1.757  0.1135  0.1411 -0.3699
  185SOL     OW  737   1.114   0.966   1.871 -0.4927  0.1863  0.2759
  185SOL    HW1  738   1.093   0.879   1.916  0.9329 -1.9939  0.3102
  185SOL    HW2  739   1.166   1.011   1.938 -0.2636 -0.0649 -2.0508
  185SOL     MW  740   1.118   0.961   1.886 -0.2744 -0.1345 -0.0266
  186SOL     OW  741   0.268   1.600   1.523 -0.1587  0.2793  0.4061
  186SOL    HW1  742   0.292   1.592   1.427  0.1038  0.3741  0.3979
  186SOL    HW2  743   0.181   1.560   1.547  0.4801  0.3907 -0.3677
  186SOL     MW  744   0.260   1.594   1.513 -0.0398  0.3065  0.3029
  187SOL     OW  745   1.415   0.794   1.335  0.2026  0.1034 -0.2061
  187SOL    HW1  746   1.421   0.797   1.432 -1.0000  1.1703  1.0585
  187SOL    HW2  747   1.323   0.814   1.316 -0.6981  1.3356  1.6990
  187SOL     MW  748   1.404   0.797   1.346 -0.0749  0.4067  0.2121
  188SOL     OW  749   1.851   1.231   0.933 -0.4734  0.1466 -0.1425
  188SOL    HW1  750   1.887   1.227   1.024 -0.3039 -0.5682  0.9632
  188SOL    HW2  751   1.848   1.143   0.895 -0.4387  1.1006  0.1442
  188SOL     MW  752   1.856   1.219   0.940 -0.4465  0.1782  0.0412
  189SOL     OW  753   0.710   0.727   0.859  0.4269  0.3943 -0.8020
  189SOL    HW1  754   0.644   0.791   0.844 -0.0503 -0.2436  0.6505
  189SOL    HW2  755   0.750   0.749   0.940 -0.0010 -2.3291 -0.1035
  189SOL     MW  756   0.707   0.738   0.868  0.3075 -0.0492 -0.5182
  190SOL     OW  757   1.878   0.265   2.052 -0.2934 -0.1536  0.0859
  190SOL    HW1  758   1.877   0.229   2.135 -1.1056 -1.0691 -1.1512
  190SOL    HW2  759   1.960   0.313   2.039  1.1384 -0.5064  1.0952
  190SOL     MW  760   1.889   0.266   2.061 -0.2117 -0.3209  0.0558
  191SOL     OW  761   1.560   0.996   1.228 -0.1496  0.7830 -0.1585
  191SOL    HW1  762   1.560   1.072   1.294 -0.3110  2.0900 -0.3683
  191SOL    HW2  763   1.513   0.921   1.268  2.5795  0.1395 -0.5490
  191SOL     MW  764   1.554   0.996   1.242  0.1892  0.8705 -0.2377
  192SOL     OW  765   0.529   2.184   2.954  0.1873  0.7616  0.1786
  192SOL    HW1  766   0.502   2.226   2.872 -3.0162 -0.8929  0.7236
  192SOL    HW2  767   0.537   2.089   2.932 -0.1504 -1.0067 -2.3170
  192SOL     MW  768   0.526   2.177   2.940 -0.2799  0.3100 -0.0787
  193SOL     OW  769   0.824   1.612   0.792  0.3463  0.1281 -0.3167
  193SOL    HW1  770   0.728   1.628   0.812 -5.2462 -0.8171 -0.6218
  193SOL    HW2  771   0.832   1.549   0.722 -0.8777  2.7313  1.0675
  193SOL     MW  772   0.812   1.605   0.785 -0.5531  0.3469 -0.1743
  194SOL     OW  773   0.402   1.354   0.860 -0.3363  0.0597 -0.2882
  194SOL    HW1  774   0.393   1.289   0.925 -2.4317 -0.4415  1.3794
  194SOL    HW2  775   0.320   1.355   0.809 -0.1099 -0.4620 -1.0070
  194SOL     MW  776   0.390   1.346   0.862 -0.5829 -0.0753 -0.1630
  195SOL     OW  777   1.202   1.117   3.017  0.3329  0.3185 -0.1602
  195SOL    HW1  778   1.260   1.077   3.084 -0.9382 -1.9497  1.0256
  195SOL    HW2  779   1.127   1.056   3.008  0.1846 -4.2599 -1.0088
  195SOL     MW  780   1.200   1.104   3.025  0.1456 -0.5849 -0.1157
  196SOL     OW  781   2.242   1.021   0.507  0.5637 -0.0599 -0.0929
  196SOL    HW1  782   2.294   1.024   0.428 -3.4307 -2.4296  0.9467
  196SOL    HW2  783   2.223   1.111   0.523 -2.5629 -2.3035  2.1030
  196SOL     MW  784   2.246   1.033   0.499 -0.3758 -0.6686  0.3340
  197SOL     OW  785   0.616   1.344   2.158 -0.2244 -0.2652  0.1620
  197SOL    HW1  786   0.612   1.293   2.080 -0.8474  0.3213  0.3555
  197SOL    HW2  787   0.699   1.389   2.152  1.6327 -0.4114  1.0454
  197SOL     MW  788   0.626   1.343   2.147 -0.0616 -0.2071  0.3041
  198SOL     OW  789   2.937   1.390   1.021 -0.3810  0.3299 -0.2611
  198SOL    HW1  790   2.924   1.479   0.985  0.1978 -0.7203  1.7531
  198SOL    HW2  791   2.859   1.337   0.984  1.3165  0.4963  1.6220
  198SOL     MW  792   2.925   1.395   1.012 -0.0806  0.2133  0.2531
  199SOL     OW  793   0.669   1.252   1.823  0.0363 -0.0265 -0.5480
  199SOL    HW1  794   0.577   1.217   1.814 -2.5173 -0.4281  0.2759
  199SOL    HW2  795   0.670   1.329   1.758 -0.8540  3.0322  0.0948
  199SOL     MW  796   0.657   1.258   1.813 -0.4181  0.3241 -0.3545
  200SOL     OW  797   1.838   2.976   1.291 -0.4501 -0.1189  0.0660
  200SOL    HW1  798   1.888   2.972   1.205  2.0621  1.0895 -1.0576
  200SOL    HW2  799   1.797   3.058   1.295  3.0151 -2.2420 -0.6853
  200SOL     MW  800   1.839   2.986   1.280  0.3386 -0.2396 -0.1814
  201SOL     OW  801   1.193   0.298   0.821 -0.1387  0.0328  0.4785
  201SOL    HW1  802   1.154   0.215   0.804 -2.1735  1.6842  0.5279
  201SOL    HW2  803   1.280   0.278   0.842 -0.7109  0.4904  1.2109
  201SOL     MW  804   1.199   0.284   0.822 -0.4827  0.3111  0.5816
  202SOL     OW  805   1.471   1.736   1.027 -0.1185  0.1507  0.0995
  202SOL    HW1  806   1.488   1.651   0.986 -0.5619 -3.0226 -3.1508
  202SOL    HW2  807   1.516   1.740   1.113  1.2406 -1.0181  0.4579
  202SOL     MW  808   1.480   1.725   1.033  0.0023 -0.4222 -0.2821
  203SOL     OW  809   3.083   0.373   1.325  0.7168  0.5544  0.3001
  203SOL    HW1  810   3.087   0.278   1.293  0.2962  1.8251 -0.3304
  203SOL    HW2  811   3.145   0.424   1.275  1.2753  0.2575  1.0129
  203SOL     MW  812   3.091   0.367   1.314  0.7350  0.6829  0.3109
  204SOL     OW  813   1.009   1.833   0.658  0.4923  0.1329  0.2575
  204SOL    HW1  814   0.963   1.788   0.725 -1.3592  0.6904 -1.2863
  204SOL    HW2  815   0.942   1.831   0.590  1.1114  0.9316 -2.2597
  204SOL     MW  816   0.994   1.827   0.658  0.3297  0.3118 -0.2783
  205SOL     OW  817   1.417   3.003   1.300  0.0005 -0.3535 -0.3602
  205SOL    HW1  818   1.450   3.040   1.219  1.7291 -1.8891  0.5486
  205SOL    HW2  819   1.348   3.061   1.333 -0.2192 -0.7152 -1.5287
  205SOL     MW  820   1.412   3.016   1.293  0.1996 -0.6038 -0.3944
  206SOL     OW  821   0.367   2.929   1.347  0.0739 -0.4271  0.4970
  206SOL    HW1  822   0.342   2.942   1.256  0.4492  0.9100  0.0123
  206SOL    HW2  823   0.462   2.930   1.349 -0.6665  0.4700  0.2192
  206SOL     MW  824   0.376   2.931   1.335  0.0257 -0.1323  0.3964
  207SOL     OW  825   0.893   1.753   0.215 -0.4243 -0.0532  0.0544
  207SOL    HW1  826   0.955   1.798   0.157  2.1821 -0.4641 -0.1149
  207SOL    HW2  827   0.953   1.693   0.258  0.5110  2.3686 -2.3071
  207SOL     MW  828   0.909   1.751   0.213  0.0430  0.2121 -0.2795
  208SOL     OW  829   0.785   1.545   1.328  0.0818 -0.6355  0.5080
  208SOL    HW1  830   0.884   1.567   1.316  1.6125  3.8669 -1.3371
  208SOL    HW2  831   0.771   1.454   1.308  0.3064  0.3563 -2.6372
  208SOL     MW  832   0.796   1.536   1.324  0.3134  0.0894 -0.1504
  209SOL     OW  833   1.628   0.476   2.826  0.1749  0.1816 -0.1762
  209SOL    HW1  834   1.682   0.548   2.858 -0.2427 -1.4644  1.3857
  209SOL    HW2  835   1.692   0.415   2.796 -0.9261 -2.4653  2.6194
  209SOL     MW  836   1.643   0.478   2.826 -0.0254 -0.3848  0.3987
  210SOL     OW  837   1.490   1.418   0.990 -0.0458 -0.0131  0.2278
  210SOL    HW1  838   1.579   1.427   0.962  0.2734 -3.0375  1.3278
  210SOL    HW2  839   1.439   1.414   0.908  0.8389 -0.3562 -0.3045
  210SOL     MW  840   1.495   1.419   0.975  0.1130 -0.4574  0.3027
  211SOL     OW  841   1.748   0.469   0.904  0.0270  0.3877 -0.3078
  211SOL    HW1  842   1.755   0.490   0.808  0.0046  1.5613  1.7385
  211SOL    HW2  843   1.845   0.482   0.927  0.2594 -0.8348  1.1095
  211SOL     MW  844   1.762   0.473   0.894  0.0547  0.3813  0.1492
  212SOL     OW  845   0.362   1.196   0.195  0.0582  0.2088 -0.0127
  212SOL    HW1  846   0.300   1.137   0.231  1.4505  2.8148 -1.7763
  212SOL    HW2  847   0.436   1.152   0.148  0.8326  0.5620 -2.0477
  212SOL     MW  848   0.364   1.182   0.194  0.3441  0.5992 -0.5139
  213SOL     OW  849   0.391   1.828   3.022  0.4801 -0.4752  0.3653
  213SOL    HW1  850   0.444   1.884   3.084  0.4370  0.2745 -0.4641
  213SOL    HW2  851   0.410   1.863   2.928  1.6680 -0.9553 -2.5572
  213SOL     MW  852   0.400   1.840   3.018  0.6311 -0.4396 -0.1297
  214SOL     OW  853   0.586   0.333   2.094 -0.4264 -0.3343  0.5161
  214SOL    HW1  854   0.498   0.375   2.090  2.8155 -0.3972  0.8196
  214SOL    HW2  855   0.620   0.362   2.007 -2.7211  3.1990 -1.2510
  214SOL     MW  856   0.579   0.342   2.082 -0.3014  0.1236  0.3230
  215SOL     OW  857   0.515   0.505   2.515 -0.8706 -1.0490 -0.3863
  215SOL    HW1  858   0.474   0.555   2.441  1.7895  1.4277 -3.0649
  215SOL    HW2  859   0.485   0.417   2.525  1.2402 -2.6137 -3.8703
  215SOL     MW  860   0.505   0.500   2.507 -0.2412 -0.9287 -1.1994
  216SOL     OW  861   2.909   3.089   2.797  0.2745  0.0365  0.6337
  216SOL    HW1  862   2.817   3.101   2.793  2.4799  0.7675 -0.9226
  216SOL    HW2  863   2.932   3.147   2.729  3.1436 -2.3476  1.7100
  216SOL     MW  864   2.900   3.098   2.787  0.9440 -0.1816  0.5704
  217SOL     OW  865   0.956   1.091   0.141 -0.5039  0.3318  0.5650
  217SOL    HW1  866   0.978   1.025   0.074 -0.5701  0.6052 -0.3427
  217SOL    HW2  867   0.996   1.171   0.131 -2.1024 -0.6728  0.3601
  217SOL     MW  868   0.964   1.093   0.131 -0.7235  0.2353  0.4182
  218SOL     OW  869   0.849   1.363   2.600  0.1379 -0.0824  0.3643
  218SOL    HW1  870   0.832   1.309   2.674  0.6249  0.1307 -1.3195
  218SOL    HW2  871   0.928   1.410   2.623  0.6743  1.1123 -2.0245
  218SOL     MW  872   0.857   1.362   2.613  0.2729  0.1033 -0.1731
  219SOL     OW  873   1.049   0.454   2.593 -0.3691  0.2393 -0.5704
  219SOL    HW1  874   1.109   0.518   2.644 -0.2329  2.1915  2.1642
  219SOL    HW2  875   0.980   0.509   2.563  0.2566 -1.2828  0.6366
  219SOL     MW  876   1.048   0.470   2.596 -0.2686  0.2960 -0.0504
  220SOL     OW  877   1.706   0.521   2.195 -0.1908  0.1987 -0.2650
  220SOL    HW1  878   1.618   0.558   2.177  0.3694  0.3445  1.0020
  220SOL    HW2  879   1.729   0.469   2.118 -1.8400 -0.5318  0.9775
  220SOL     MW  880   1.698   0.519   2.183 -0.3345  0.1215  0.0661
  221SOL     OW  881   0.386   1.387   2.933 -0.1997  0.1597  0.6272
  221SOL    HW1  882   0.428   1.299   2.912  0.2385 -0.6274 -0.8930
  221SOL    HW2  883   0.461   1.456   2.927  2.8451 -0.6706 -1.0187
  221SOL     MW  884   0.402   1.384   2.930  0.2599 -0.0537  0.2094
  222SOL     OW  885   0.527   0.914   2.727 -0.0146 -0.1178  0.4348
  222SOL    HW1  886   0.433   0.906   2.719 -0.6864 -2.0816 -1.8213
  222SOL    HW2  887   0.563   0.822   2.710  0.1555 -2.4412  1.5578
  222SOL     MW  888   0.520   0.901   2.724 -0.0808 -0.6835  0.2853
  223SOL     OW  889   3.085   2.032   2.534 -0.3690 -0.5470 -0.3755
  223SOL    HW1  890   3.096   2.034   2.631  0.3391  0.9123 -0.3646
  223SOL    HW2  891   3.135   2.107   2.495 -0.8858 -2.8307 -1.9356
  223SOL     MW  892   3.093   2.042   2.542 -0.3438 -0.6557 -0.5799
  224SOL     OW  893   1.466   0.675   2.434 -0.0194 -0.8140 -0.4102
  224SOL    HW1  894   1.513   0.606   2.488  3.4081 -1.8472  0.5408
  224SOL    HW2  895   1.472   0.763   2.478  0.4357 -1.7428 -2.7084
  224SOL     MW  896   1.473   0.678   2.447  0.4929 -1.0728 -0.5879
  225SOL     OW  897   2.943   1.495   2.234 -0.3240 -0.1402 -0.7526
  225SOL    HW1  898   2.977   1.586   2.227  0.8880  1.5830  1.5754
  225SOL    HW2  899   2.874   1.518   2.299 -0.0684  2.2813  0.2284
  225SOL     MW  900   2.938   1.510   2.242 -0.1304  0.4066 -0.3161
  226SOL     OW  901   0.441   1.567   2.693  0.1864  0.2995  0.2733
  226SOL    HW1  902   0.527   1.583   2.652 -1.0880 -0.4358 -1.9307
  226SOL    HW2  903   0.381   1.646   2.687  2.4128  1.3430  0.0471
  226SOL     MW  904   0.444   1.580   2.687  0.3120  0.3402 -0.0474
  227SOL     OW  905   0.498   1.149   2.903 -0.0187  0.0460 -0.8280
  227SOL    HW1  906   0.586   1.157   2.865 -1.4562  0.6021  0.4564
  227SOL    HW2  907   0.479   1.063   2.879  0.7037  1.6039  1.2165
  227SOL     MW  908   0.508   1.138   2.895 -0.1131  0.3249 -0.3888
  228SOL     OW  909   0.750   1.117   2.034  0.4619 -0.2255 -0.2309
  228SOL    HW1  910   0.721   1.147   1.950  0.9718  0.8654  3.1308
  228SOL    HW2  911   0.842   1.134   2.042 -0.5501  0.7272 -2.4320
  228SOL     MW  912   0.758   1.123   2.024  0.3957  0.0441 -0.0778
  229SOL     OW  913   0.209   0.570   0.037  0.2058 -0.1657  0.4051
  229SOL    HW1  914   0.125   0.552  -0.011  1.5262 -0.6457  2.4181
  229SOL    HW2  915   0.236   0.486   0.081 -1.6607  0.0287 -0.6303
  229SOL     MW  916   0.202   0.556   0.037  0.1337 -0.2034  0.5341
  230SOL     OW  917   1.724   1.373   2.076  0.5377 -0.0015  1.3351
  230SOL    HW1  918   1.674   1.317   2.136  0.9973 -2.4255  0.3344
  230SOL    HW2  919   1.791   1.312   2.051 -1.7352 -3.1664 -0.5154
  230SOL     MW  920   1.726   1.358   2.081  0.2985 -0.7389  0.9589
  231SOL     OW  921   2.732   1.282   2.220  0.1674  0.5668 -0.4302
  231SOL    HW1  922   2.821   1.320   2.223 -0.2473 -0.1971  0.5707
  231SOL    HW2  923   2.683   1.305   2.136 -3.9437 -0.5551 -2.1995
  231SOL     MW  924   2.737   1.290   2.209 -0.4297  0.3180 -0.5316
  232SOL     OW  925   2.293   0.897   1.947 -0.0559 -0.1028  0.3664
  232SOL    HW1  926   2.209   0.900   1.904 -0.9475  2.0897 -0.8628
  232SOL    HW2  927   2.270   0.847   2.024  0.0670  0.0289 -0.5482
  232SOL     MW  928   2.279   0.891   1.951 -0.1573  0.2039  0.0835
  233SOL     OW  929   2.102   0.427   2.037  0.1333  0.9099  0.0414
  233SOL    HW1  930   2.164   0.365   2.019 -0.8985 -0.7887  0.3450
  233SOL    HW2  931   2.108   0.451   2.127 -0.6791 -1.7470 -1.7584
  233SOL     MW  932   2.111   0.422   2.046 -0.1100  0.3353 -0.1560
  234SOL     OW  933   0.247   1.060   2.673  0.1723  0.2558 -0.1272
  234SOL    HW1  934   0.185   1.082   2.606 -0.8528 -2.5802  1.1999
  234SOL    HW2  935   0.291   1.145   2.678  0.2963 -2.9735  1.0482
  234SOL     MW  936   0.244   1.074   2.665  0.0534 -0.5445  0.2030
  235SOL     OW  937   1.143   0.006   2.844  0.2931  0.5967  0.0881
  235SOL    HW1  938   1.155   0.019   2.937 -2.2770 -0.8552  0.9644
  235SOL    HW2  939   1.122   0.096   2.805 -2.0256  2.8644  0.1811
  235SOL     MW  940   1.142   0.020   2.851 -0.3519  0.7043  0.2160
  236SOL     OW  941   2.982   0.595   0.192 -0.3391 -0.1932 -0.7179
  236SOL    HW1  942   3.034   0.613   0.272  0.6823 -0.6301 -0.9924
  236SOL    HW2  943   3.052   0.627   0.130  0.5175  1.4599 -1.1770
  236SOL     MW  944   2.998   0.602   0.195 -0.0913 -0.0327 -0.8147
  237SOL     OW  945   1.889   1.060   2.116  0.0451  0.4710 -0.3788
  237SOL    HW1  946   1.812   1.063   2.163 -0.4860 -2.0046  0.3782
  237SOL    HW2  947   1.856   1.059   2.023  0.5589 -0.9118 -2.9666
  237SOL     MW  948   1.875   1.060   2.110  0.0428 -0.0381 -0.6204
  238SOL     OW  949   1.076   1.717   2.924  0.3952 -0.0553 -0.3792
  238SOL    HW1  950   1.031   1.643   2.882 -2.0793  0.4044 -3.5681
  238SOL    HW2  951   1.168   1.690   2.933  0.0014 -0.0575  1.0311
  238SOL     MW  952   1.082   1.704   2.920  0.0168  0.0050 -0.6139
  239SOL     OW  953   1.186   1.317   2.348 -0.3357 -0.2897 -0.0764
  239SOL    HW1  954   1.094   1.346   2.350  0.5419  3.0567  1.2368
  239SOL    HW2  955   1.190   1.267   2.428  3.4321  1.0262 -0.6590
  239SOL     MW  956   1.175   1.314   2.358  0.2772  0.3255  0.0200
  240SOL     OW  957   0.585   0.872   2.280  0.1654 -0.4491  0.4590
  240SOL    HW1  958   0.605   0.903   2.370  0.9948  1.1427  1.8273
  240SOL    HW2  959   0.668   0.859   2.238  2.5589 -0.2243 -1.1058
  240SOL     MW  960   0.599   0.874   2.287  0.5906 -0.2094  0.4331
  241SOL     OW  961   0.707   0.442  -0.001  0.2259  0.5463  0.0143
  241SOL    HW1  962   0.735   0.504   0.068 -1.2733 -2.6367  2.3113
  241SOL    HW2  963   0.624   0.480  -0.040  2.8895 -2.1801 -0.0049
  241SOL     MW  964   0.700   0.455   0.003  0.3795 -0.2334  0.3148
  242SOL     OW  965   1.497   1.616   2.305 -0.3413 -0.5363 -0.3460
  242SOL    HW1  966   1.449   1.692   2.320  0.2440 -0.9516  0.9934
  242SOL    HW2  967   1.439   1.546   2.285  1.0201  0.1451  3.2499
  242SOL     MW  968   1.483   1.617   2.304 -0.0845 -0.5012  0.3052
  243SOL     OW  969   1.014   0.273   2.379 -0.7409 -0.8373  0.2078
  243SOL    HW1  970   1.097   0.219   2.380 -0.4159  0.7806  0.4398
  243SOL    HW2  971   1.034   0.341   2.450  0.8325  0.2099  0.6217
  243SOL     MW  972   1.028   0.275   2.389 -0.4904 -0.4856  0.2930
  244SOL     OW  973   0.090   0.783   2.369  0.3223  0.3948  0.1411
  244SOL    HW1  974   0.073   0.870   2.415 -4.0927 -0.0392 -1.0077
  244SOL    HW2  975   0.178   0.783   2.342 -1.3831  0.4060  1.2071
  244SOL     MW  976   0.099   0.795   2.372 -0.4852  0.3390  0.1302
  245SOL     OW  977   1.238   0.152   2.433  0.2701 -0.6597 -0.2200
  245SOL    HW1  978   1.295   0.140   2.355 -1.8762  1.7499  2.0210
  245SOL    HW2  979   1.263   0.082   2.497  0.1183  0.5625 -1.0531
  245SOL     MW  980   1.249   0.141   2.431 -0.0331 -0.1805 -0.0343
  246SOL     OW  981   1.211   1.141   2.102 -0.7734 -0.1957 -0.2902
  246SOL    HW1  982   1.140   1.124   2.170 -0.2474  0.1299  3.4711
  246SOL    HW2  983   1.293   1.101   2.132  2.4080 -1.3967 -3.2259
  246SOL     MW  984   1.212   1.133   2.115 -0.2842 -0.3112 -0.1813
  247SOL     OW  985   0.764   0.670   0.189  0.1828 -0.6822 -0.0453
  247SOL    HW1  986   0.741   0.758   0.150 -3.5301  0.7438  1.2998
  247SOL    HW2  987   0.860   0.654   0.161  2.5033  0.3818 -1.6518
  247SOL     MW  988   0.774   0.679   0.180 -0.0009 -0.3537 -0.0798
  248SOL     OW  989   0.299   1.321   2.602  0.1966 -0.2209  0.4625
  248SOL    HW1  990   0.316   1.312   2.511 -0.9057 -0.9055  1.7238
  248SOL    HW2  991   0.362   1.385   2.632 -0.3261 -0.3863 -0.1812
  248SOL     MW  992   0.310   1.329   2.594 -0.0178 -0.3330  0.5440
  249SOL     OW  993   3.031   1.922   2.782 -0.0679 -0.0789 -0.0470
  249SOL    HW1  994   2.971   1.863   2.732 -3.2546  1.3541  2.0204
  249SOL    HW2  995   3.078   1.873   2.849  1.8630  1.5637 -0.5039
  249SOL     MW  996   3.029   1.907   2.785 -0.2336  0.3269  0.1655
  250SOL     OW  997   2.245   0.756   2.169  0.1918 -0.5853  0.1793
  250SOL    HW1  998   2.207   0.677   2.217  0.7940  0.3863 -0.5663
  250SOL    HW2  999   2.318   0.776   2.231  1.5669 -2.3497  1.2809
  250SOL     MW 1000   2.249   0.748   2.184  0.4527 -0.6899  0.2263
  251SOL     OW 1001   0.160   0.874   2.039  0.3447 -0.1915 -0.1212
  251SOL    HW1 1002   0.089   0.819   2.080 -3.5197  0.0269  0.4764
  251SOL    HW2 1003   0.130   0.885   1.950  1.0969  1.7814  2.4208
  251SOL     MW 1004   0.146   0.868   2.033 -0.0660  0.0976  0.2930
  252SOL     OW 1005   1.714   1.028   2.889 -0.3010  0.6176  0.1444
  252SOL    HW1 1006   1.726   1.064   2.976  1.9273  2.0774  0.1483
  252SOL    HW2 1007   1.789   1.011   2.832 -2.3632  0.9486  2.4081
  252SOL     MW 1008   1.725   1.030   2.893 -0.2791  0.8539  0.4436
  253SOL     OW 1009   1.142   1.685   2.530  0.0471  0.0457  0.8818
  253SOL    HW1 1010   1.137   1.634   2.444  0.8286 -1.5734 -1.0225
  253SOL    HW2 1011   1.059   1.744   2.529  0.5001 -2.3239 -1.3163
  253SOL     MW 1012   1.130   1.686   2.518  0.2100 -0.4806  0.3406
  254SOL     OW 1013   0.975   1.101   2.241  0.3446 -1.0079  0.0689
  254SOL    HW1 1014   0.933   1.015   2.246 -1.6225 -1.4908  0.9640
  254SOL    HW2 1015   0.915   1.158   2.294  0.1050  2.5442  0.6702
  254SOL     MW 1016   0.961   1.097   2.248  0.0534 -0.6029  0.2664
  255SOL     OW 1017   0.852   2.521   2.145 -0.1172 -0.6542  0.0003
  255SOL    HW1 1018   0.778   2.457   2.156  2.9696 -2.3027 -0.4682
  255SOL    HW2 1019   0.927   2.471   2.179 -1.5518 -3.3350  2.2228
  255SOL     MW 1020   0.852   2.506   2.151  0.1008 -1.2254  0.2317
  256SOL     OW 1021   1.320   2.778   3.062  0.5680 -0.2621  0.2726
  256SOL    HW1 1022   1.348   2.688   3.078 -0.7960 -0.2677  0.2058
  256SOL    HW2 1023   1.365   2.814   2.985  0.2194 -0.3032  1.1393
  256SOL     MW 1024   1.330   2.771   3.054  0.3420 -0.2682  0.3782
  257SOL     OW 1025   0.043   1.923   0.075  0.5817  0.4778 -0.2082
  257SOL    HW1 1026   0.109   1.895   0.133 -0.7415 -4.2304 -2.8154
  257SOL    HW2 1027   0.066   1.877  -0.009  1.9406  0.1282 -1.2774
  257SOL     MW 1028   0.055   1.913   0.071  0.5864 -0.1895 -0.6933
  258SOL     OW 1029   0.693   1.021   2.511  0.5703 -0.1399 -0.4227
  258SOL    HW1 1030   0.707   1.112   2.480 -0.9476  2.2669  0.6628
  258SOL    HW2 1031   0.639   1.030   2.589 -3.4894 -0.8972  0.6522
  258SOL     MW 1032   0.688   1.034   2.517 -0.1656  0.0777 -0.1377
  259SOL     OW 1033   0.817   0.456   2.230  0.1407 -0.5137 -0.9550
  259SOL    HW1 1034   0.728   0.418   2.208  1.6778  2.3041 -1.4844
  259SOL    HW2 1035   0.879   0.393   2.270  0.0010 -2.4397 -0.7114
  259SOL     MW 1036   0.813   0.442   2.232  0.3251 -0.3960 -0.9927
  260SOL     OW 1037   0.637   0.104   1.603 -0.5706  0.3227 -0.2671
  260SOL    HW1 1038   0.585   0.168   1.561  2.1369  3.3350  1.3640
  260SOL    HW2 1039   0.715   0.097   1.544 -0.1337  0.1406  1.6053
  260SOL     MW 1040   0.640   0.111   1.590 -0.1557  0.6961  0.1951
  261SOL     OW 1041   1.019   0.733   2.017 -0.2039 -0.0316 -0.2938
  261SOL    HW1 1042   1.077   0.697   2.084 -1.2468 -0.2626 -3.2174
  261SOL    HW2 1043   0.971   0.653   1.993  1.4061 -3.8340  0.9746
  261SOL     MW 1044   1.020   0.718   2.023 -0.1291 -0.5638 -0.5122
  262SOL     OW 1045   1.128   0.320   0.132  0.0562 -0.8815 -0.1596
  262SOL    HW1 1046   1.219   0.293   0.102  0.2324  0.4885  1.0602
  262SOL    HW2 1047   1.062   0.284   0.068  1.3071 -2.4018  0.1196
  262SOL     MW 1048   1.132   0.312   0.119  0.2445 -0.9014  0.0382
  263SOL     OW 1049   0.427   3.088   2.477  0.2456 -0.5420 -0.8640
  263SOL    HW1 1050   0.350   3.134   2.517 -0.6612 -0.4326 -2.2361
  263SOL    HW2 1051   0.464   3.158   2.424  0.0779  2.6317 -0.3876
  263SOL     MW 1052   0.422   3.103   2.475  0.1038 -0.1089 -0.9822
  264SOL     OW 1053   1.549   1.497   1.909 -0.1894  0.5173 -0.1247
  264SOL    HW1 1054   1.493   1.419   1.920 -0.0574 -0.1119  0.9460
  264SOL    HW2 1055   1.618   1.482   1.983  3.0119 -0.0019  0.2093
  264SOL     MW 1056   1.551   1.485   1.921  0.2504  0.3658  0.0606
  265SOL     OW 1057   0.729   2.811   2.286 -0.2977 -0.1844 -0.0688
  265SOL    HW1 1058   0.823   2.794   2.273 -0.4792 -0.0127  1.7926
  265SOL    HW2 1059   0.714   2.793   2.379 -0.3487 -2.1098 -1.3707
  265SOL     MW 1060   0.740   2.806   2.296 -0.3283 -0.4158  0.0050
  266SOL     OW 1061   0.822   0.860   2.156 -0.6430  0.0634  0.9294
  266SOL    HW1 1062   0.787   0.938   2.110 -1.7505  0.9182 -0.3277
  266SOL    HW2 1063   0.893   0.811   2.102  2.3653 -1.5074 -0.8121
  266SOL     MW 1064   0.827   0.864   2.143 -0.3922 -0.0311  0.5338
  267SOL     OW 1065   1.394   1.720   2.659 -0.1013  0.3052  0.5996
  267SOL    HW1 1066   1.461   1.665   2.609  1.3816  3.1456 -1.3357
  267SOL    HW2 1067   1.319   1.734   2.600 -3.1368  0.2374 -0.9582
  267SOL     MW 1068   1.393   1.715   2.645 -0.3062  0.6710  0.1387
  268SOL     OW 1069   0.134   0.906   1.754  0.0574  0.4827 -0.1105
  268SOL    HW1 1070   0.057   0.958   1.740  0.1822 -0.9924 -0.3137
  268SOL    HW2 1071   0.108   0.822   1.721 -1.0579 -1.2312 -2.5413
  268SOL     MW 1072   0.121   0.902   1.748 -0.0733  0.0619 -0.4580
  269SOL     OW 1073   1.371   1.879   2.350  0.1518 -0.1474  0.5382
  269SOL    HW1 1074   1.419   1.960   2.339  2.7940 -2.5186  0.0209
  269SOL    HW2 1075   1.291   1.888   2.404  0.0824 -1.4053 -0.3931
  269SOL     MW 1076   1.367   1.890   2.356  0.4912 -0.6262  0.3471
  270SOL     OW 1077   1.080   0.420   1.505 -0.1985  0.7645 -0.3120
  270SOL    HW1 1078   1.026   0.368   1.564  0.0796  0.5672 -0.5427
  270SOL    HW2 1079   1.167   0.383   1.504 -1.6524  4.2854 -1.2080
  270SOL     MW 1080   1.085   0.408   1.513 -0.3536  1.2030 -0.4607
  271SOL     OW 1081   0.861   0.082   2.503 -0.6266 -0.0631  0.0198
  271SOL    HW1 1082   0.912   0.049   2.575 -1.8960 -1.0707  2.4606
  271SOL    HW2 1083   0.924   0.145   2.472 -3.5318  1.3188  0.4235
  271SOL     MW 1084   0.876   0.086   2.508 -1.1774 -0.0137  0.3951
  272SOL     OW 1085   1.473   2.770   2.796  0.2865  0.2023  0.1268
  272SOL    HW1 1086   1.429   2.779   2.715 -0.4994  0.4851  3.9636
  272SOL    HW2 1087   1.524   2.859   2.807  0.4650  0.5199 -0.3511
  272SOL     MW 1088   1.474   2.783   2.787  0.2064  0.2815  0.5700
  273SOL     OW 1089   1.478   0.813   2.826 -0.0315 -0.1241  0.1774
  273SOL    HW1 1090   1.575   0.805   2.841  0.3308  2.3685  0.8666
  273SOL    HW2 1091   1.459   0.904   2.815 -2.6511 -0.8156 -1.0334
  273SOL     MW 1092   1.488   0.824   2.826 -0.3293  0.1135  0.1086
  274SOL     OW 1093   1.401   0.635   0.123 -0.4117 -0.1763 -0.0954
  274SOL    HW1 1094   1.470   0.595   0.176  0.7402  0.1580  0.0707
  274SOL    HW2 1095   1.331   0.654   0.193  0.5728 -0.6246  2.1377
  274SOL     MW 1096   1.401   0.632   0.139 -0.1298 -0.1913  0.2211
  275SOL     OW 1097   1.840   0.554   1.720 -0.0318 -0.2163 -0.5826
  275SOL    HW1 1098   1.863   0.607   1.800 -1.2045  1.0116 -0.9491
  275SOL    HW2 1099   1.842   0.460   1.747  0.2390  1.7364 -0.0519
  275SOL     MW 1100   1.843   0.548   1.734 -0.1508  0.2033 -0.5609
  276SOL     OW 1101   0.367   1.173   1.935 -0.2449 -0.4254 -0.2120
  276SOL    HW1 1102   0.372   1.088   1.984 -1.0090 -0.2122  2.4025
  276SOL    HW2 1103   0.332   1.244   1.991 -0.3672  2.0451  0.1364
  276SOL     MW 1104   0.363   1.171   1.949 -0.3619 -0.0713  0.1789
  277SOL     OW 1105   1.993   1.124   2.491 -0.7177 -0.0255 -0.1539
  277SOL    HW1 1106   2.068   1.186   2.500 -0.2157 -0.4913  0.5794
  277SOL    HW2 1107   1.923   1.171   2.450 -0.3104  1.0349 -3.5882
  277SOL     MW 1108   1.994   1.139   2.487 -0.5977  0.0529 -0.5102
  278SOL     OW 1109   1.453   0.604   1.636  0.2523 -0.2240 -0.3170
  278SOL    HW1 1110   1.479   0.571   1.730 -0.0378 -1.1393  0.9282
  278SOL    HW2 1111   1.538   0.624   1.594  1.7892  1.8346 -1.3140
  278SOL     MW 1112   1.468   0.602   1.643  0.4168 -0.0732 -0.2842
  279SOL     OW 1113   0.513   0.128   2.245 -0.2597 -0.0068  0.0828
  279SOL    HW1 1114   0.594   0.067   2.259  1.3227 -2.1187 -1.4247
  279SOL    HW2 1115   0.549   0.204   2.195 -2.4790  1.0882 -2.7022
  279SOL     MW 1116   0.529   0.130   2.240 -0.3437 -0.1409 -0.4836
  280SOL     OW 1117   1.421   0.999   2.221  0.3012 -0.5758  0.2855
  280SOL    HW1 1118   1.497   0.959   2.173  0.0708 -1.8019 -0.4020
  280SOL    HW2 1119   1.433   0.962   2.308  1.0625  1.1865  1.4979
  280SOL     MW 1120   1.432   0.989   2.226  0.3713 -0.5050  0.3547
  281SOL     OW 1121   1.340   1.085   2.759  0.7030 -0.4114 -0.0062
  281SOL    HW1 1122   1.384   1.168   2.735  1.1414 -1.9627 -1.2552
  281SOL    HW2 1123   1.295   1.104   2.845 -1.7901  1.2349 -1.2220
  281SOL     MW 1124   1.340   1.099   2.767  0.4319 -0.3989 -0.3314
  282SOL     OW 1125   1.153   1.285   1.638 -0.4236 -0.4512  0.4091
  282SOL    HW1 1126   1.121   1.352   1.576 -0.6425  3.8882 -1.3908
  282SOL    HW2 1127   1.084   1.248   1.686  1.1393  1.2045 -0.7793
  282SOL     MW 1128   1.140   1.289   1.636 -0.2462  0.3398  0.0148
  283SOL     OW 1129   0.814   1.373   3.057  0.1177 -0.6119 -0.7365
  283SOL    HW1 1130   0.904   1.355   3.090  1.5676 -0.3105 -1.0601
  283SOL    HW2 1131   0.818   1.468   3.028  2.1794  1.2043  1.9537
  283SOL     MW 1132   0.827   1.383   3.057  0.5810 -0.3325 -0.4242
  284SOL     OW 1133   0.369   0.695   2.339  0.0318  0.0749 -0.3466
  284SOL    HW1 1134   0.440   0.759   2.344 -0.7796  0.3881  1.6407
  284SOL    HW2 1135   0.366   0.644   2.258  0.3615 -0.0045  0.8768
  284SOL     MW 1136   0.378   0.697   2.329 -0.0317  0.1058  0.0770
  285SOL     OW 1137   0.863   0.843   2.836 -0.2900  0.4099 -0.6332
  285SOL    HW1 1138   0.888   0.873   2.748 -0.6490 -0.4812 -0.5198
  285SOL    HW2 1139   0.786   0.797   2.813 -1.4469 -0.1295 -0.6995
  285SOL     MW 1140   0.856   0.841   2.821 -0.4900  0.2212 -0.6270
  286SOL     OW 1141   1.079   1.490   2.701 -0.1720 -0.0090  0.5594
  286SOL    HW1 1142   1.133   1.407   2.687 -1.2924 -0.5270 -2.2373
  286SOL    HW2 1143   1.116   1.560   2.636 -2.0592 -2.1587 -2.8905
  286SOL     MW 1144   1.091   1.488   2.690 -0.5688 -0.3610 -0.2648
  287SOL     OW 1145   1.128   0.947   0.336 -0.5498  0.1620 -0.1629
  287SOL    HW1 1146   1.074   0.949   0.422  0.4913  1.9615  0.9731
  287SOL    HW2 1147   1.077   1.002   0.279 -0.2911 -2.8385 -0.5175
  287SOL     MW 1148   1.114   0.954   0.340 -0.3783  0.0035 -0.0598
  288SOL     OW 1149   1.497   0.677   2.126  0.2345  0.2099 -0.1431
  288SOL    HW1 1150   1.443   0.699   2.208 -2.8753  2.5754  2.0729
  288SOL    HW2 1151   1.546   0.764   2.115  1.8814  1.0122  1.3457
  288SOL     MW 1152   1.497   0.692   2.135  0.0415  0.6278  0.3457
  289SOL     OW 1153   0.931   0.960   2.601  0.1912  0.0277 -0.2675
  289SOL    HW1 1154   0.976   0.903   2.542  1.1193 -1.1136 -0.3687
  289SOL    HW2 1155   0.835   0.978   2.554 -0.0506  1.6768 -0.1590
  289SOL     MW 1156   0.924   0.955   2.587  0.2817  0.0947 -0.2665
  290SOL     OW 1157   0.737   0.664   1.492 -0.3240  0.6690 -0.7383
  290SOL    HW1 1158   0.800   0.621   1.436  0.1982 -0.5932  0.0127
  290SOL    HW2 1159   0.776   0.658   1.577 -1.4566 -1.4088 -2.5719
  290SOL     MW 1160   0.750   0.657   1.496 -0.4045  0.2283 -0.8812
  291SOL     OW 1161   0.236   0.339   0.194  0.0696  0.4580  0.0699
  291SOL    HW1 1162   0.320   0.341   0.241 -0.1263 -0.7111 -1.9470
  291SOL    HW2 1163   0.214   0.245   0.178 -0.0277 -0.0393  0.5861
  291SOL     MW 1164   0.244   0.327   0.198  0.0309  0.2381 -0.1281
  292SOL     OW 1165   1.024   0.566   0.094  0.0476  0.4138  0.2810
  292SOL    HW1 1166   1.064   0.614   0.166 -1.0961  1.2186 -1.9881
  292SOL    HW2 1167   1.051   0.477   0.109 -0.2816  0.0637 -1.7166
  292SOL     MW 1168   1.033   0.561   0.106 -0.1467  0.4738 -0.2820
  293SOL     OW 1169   0.142   0.094   2.541  0.5295  0.5053 -0.3821
  293SOL    HW1 1170   0.129   0.025   2.480 -0.7400  1.1484  2.3411
  293SOL    HW2 1171   0.057   0.140   2.548  0.8952  0.1899 -0.4993
  293SOL     MW 1172   0.129   0.091   2.534  0.4103  0.5485 -0.0382
  294SOL     OW 1173   1.340   0.447   2.358  0.0165 -0.3412 -0.1228
  294SOL    HW1 1174   1.396   0.527   2.378  0.3129  1.1997  0.8794
  294SOL    HW2 1175   1.306   0.417   2.441 -1.1855  2.5094 -0.5325
  294SOL     MW 1176   1.343   0.453   2.372 -0.1030  0.2383 -0.0446
  295SOL     OW 1177   0.846   0.615   2.459  0.0125  0.6594  0.5541
  295SOL    HW1 1178   0.816   0.589   2.368 -0.1182  0.1922  0.8298
  295SOL    HW2 1179   0.766   0.637   2.505 -0.4108 -1.0277  1.7330
  295SOL     MW 1180   0.831   0.615   2.453 -0.0606  0.3752  0.7460
  296SOL     OW 1181   1.358   0.324   2.064  0.0871  0.2502 -0.0792
  296SOL    HW1 1182   1.368   0.236   2.028 -0.0185  1.1427 -1.3973
  296SOL    HW2 1183   1.381   0.319   2.159 -1.8001  0.6134 -0.3497
  296SOL     MW 1184   1.362   0.312   2.072 -0.1758  0.4159 -0.2888
  297SOL     OW 1185   1.364   0.355   1.540 -0.2830  0.4492 -0.1260
  297SOL    HW1 1186   1.415   0.432   1.573  0.4868  2.3616  2.6379
  297SOL    HW2 1187   1.354   0.298   1.616  0.1173 -1.2272  0.1638
  297SOL     MW 1188   1.369   0.358   1.555 -0.1286  0.4804  0.2769
  298SOL     OW 1189   1.647   0.917   2.096  0.0507  0.8959  0.5830
  298SOL    HW1 1190   1.671   0.965   2.011 -1.4769 -1.1701  2.8094
  298SOL    HW2 1191   1.725   0.860   2.114 -1.3884  1.1324  0.5603
  298SOL     MW 1192   1.661   0.916   2.087 -0.3408  0.6545  0.8738
  299SOL     OW 1193   0.637   1.182   0.059 -0.1978  0.0301  0.4561
  299SOL    HW1 1194   0.593   1.149  -0.027 -2.3993 -1.6661 -1.7000
  299SOL    HW2 1195   0.700   1.252   0.030  1.8558  0.2006  0.7352
  299SOL     MW 1196   0.639   1.187   0.044 -0.2173 -0.1712  0.2084
  300SOL     OW 1197   1.142   1.171   2.566  0.6668  0.2619  0.8372
  300SOL    HW1 1198   1.072   1.101   2.569  2.5556  0.1279  2.2516
  300SOL    HW2 1199   1.213   1.134   2.621 -0.6626  0.3663  1.1905
  300SOL     MW 1200   1.142   1.157   2.574  0.7406  0.2580  1.0704
  301SOL     OW 1201   1.511   0.990   0.747 -0.1567 -0.3090 -0.6822
  301SOL    HW1 1202   1.501   1.006   0.842  1.7906 -1.0802  0.6752
  301SOL    HW2 1203   1.446   0.917   0.732 -1.3005 -1.2549 -0.8259
  301SOL     MW 1204   1.501   0.982   0.757 -0.0507 -0.5355 -0.5220
  302SOL     OW 1205   0.200   1.605   2.043 -0.9205 -0.0338 -0.0167
  302SOL    HW1 1206   0.199   1.511   2.053  2.2772  2.4050  1.2970
  302SOL    HW2 1207   0.114   1.644   2.064 -0.9048  1.3354  2.1506
  302SOL     MW 1208   0.188   1.598   2.047 -0.4965  0.4686  0.4426
  303SOL     OW 1209   0.275   1.787   2.707  0.3570  0.5640 -0.4947
  303SOL    HW1 1210   0.235   1.811   2.627  2.4907 -0.5593  0.4764
  303SOL    HW2 1211   0.203   1.796   2.773  0.5259 -2.6319  0.9145
  303SOL     MW 1212   0.260   1.792   2.705  0.6608 -0.0059 -0.1807
  304SOL     OW 1213   0.527   2.075   2.465  0.4417  0.4587  0.2168
  304SOL    HW1 1214   0.567   2.141   2.407 -0.3884  3.0290 -1.6902
  304SOL    HW2 1215   0.583   2.002   2.442 -3.7756 -1.2210 -1.6017
  304SOL     MW 1216   0.540   2.074   2.455 -0.2242  0.5762 -0.2747
  305SOL     OW 1217   1.155   0.646   0.558 -0.5172  0.3220  0.1273
  305SOL    HW1 1218   1.063   0.638   0.549  1.4023 -1.0169  2.5898
  305SOL    HW2 1219   1.190   0.558   0.569 -0.9010  4.0609 -2.3548
  305SOL     MW 1220   1.147   0.633   0.558 -0.3145  0.6387  0.1247
  306SOL     OW 1221   1.118   1.562   0.296 -0.1007 -0.0068 -0.2030
  306SOL    HW1 1222   1.127   1.472   0.319  2.4148  0.4145 -2.1202
  306SOL    HW2 1223   1.191   1.571   0.231  1.8413  0.9440  0.5209
  306SOL     MW 1224   1.129   1.551   0.290  0.4874  0.1742 -0.3605
  307SOL     OW 1225   1.460   0.511   1.894 -0.0406  0.3738 -1.0013
  307SOL    HW1 1226   1.417   0.436   1.940  2.8914 -0.0915  2.1710
  307SOL    HW2 1227   1.471   0.566   1.973  1.6692  0.3360 -0.3905
  307SOL     MW 1228   1.455   0.508   1.911  0.5718  0.3074 -0.5021
  308SOL     OW 1229   2.252   0.575   2.764  0.0471  0.1807  0.3670
  308SOL    HW1 1230   2.346   0.588   2.790 -0.2617 -0.0337 -0.9749
  308SOL    HW2 1231   2.245   0.651   2.705  2.0234 -0.2848 -0.3524
  308SOL     MW 1232   2.264   0.587   2.760  0.2671  0.0910  0.0950
  309SOL     OW 1233   0.498   0.541   0.275 -0.2089 -0.1575  0.6081
  309SOL    HW1 1234   0.577   0.591   0.249  0.6229 -3.3002 -1.2612
  309SOL    HW2 1235   0.528   0.458   0.232  1.1256  0.8839 -1.2968
  309SOL     MW 1236   0.512   0.537   0.266  0.0769 -0.4347  0.1101
  310SOL     OW 1237   0.372   0.538   1.838 -0.5621 -0.2531 -0.3101
  310SOL    HW1 1238   0.436   0.472   1.807 -1.7341 -1.9279 -0.7676
  310SOL    HW2 1239   0.412   0.628   1.842  1.2040  2.0901 -1.6167
  310SOL     MW 1240   0.386   0.541   1.835 -0.4837 -0.1649 -0.5428
  311SOL     OW 1241   2.001   0.654   1.935  0.4868  0.2115 -0.1249
  311SOL    HW1 1242   1.980   0.702   2.013  0.4944  0.3624  0.5375
  311SOL    HW2 1243   2.034   0.564   1.967 -0.9474  1.1250  0.4979
  311SOL     MW 1244   2.003   0.649   1.950  0.2986  0.3519  0.0447
  312SOL     OW 1245   1.722   2.480   0.155  0.3840  0.0384 -0.0411
  312SOL    HW1 1246   1.739   2.459   0.249 -2.6695  0.0213  2.6918
  312SOL    HW2 1247   1.651   2.541   0.154  0.5483  2.1017  0.0949
  312SOL     MW 1248   1.715   2.485   0.167  0.0028  0.3084  0.3374
  313SOL     OW 1249   0.158   1.169   3.016 -0.1635 -0.0902  0.1362
  313SOL    HW1 1250   0.148   1.219   3.097 -0.6141 -1.0369 -0.7401
  313SOL    HW2 1251   0.135   1.228   2.938 -1.9064  0.5126 -0.0468
  313SOL     MW 1252   0.153   1.184   3.016 -0.4529 -0.1356 -0.0036
  314SOL     OW 1253   2.180   2.890   0.006  0.3638 -0.2452 -0.1535
  314SOL    HW1 1254   2.114   2.915  -0.069 -1.1076  0.6148 -0.7984
  314SOL    HW2 1255   2.233   2.964   0.010  2.1488  1.8064 -0.1024
  314SOL     MW 1256   2.178   2.903  -0.004  0.4052  0.1390 -0.2319
  315SOL     OW 1257   1.544   1.854   3.012  0.0965  0.2716 -0.0789
  315SOL    HW1 1258   1.463   1.897   3.040 -2.8625 -1.3464  1.2189
  315SOL    HW2 1259   1.577   1.913   2.938  1.6384  0.1107 -0.0862
  315SOL     MW 1260   1.537   1.868   3.006 -0.0905  0.0369  0.0913
  316SOL     OW 1261   1.212   0.700   2.689  0.0010  0.6307  0.1168
  316SOL    HW1 1262   1.305   0.725   2.701 -1.4599 -0.0847  1.9815
  316SOL    HW2 1263   1.175   0.694   2.774  2.8184  0.4785 -1.6639
  316SOL     MW 1264   1.219   0.703   2.702  0.1800  0.5162  0.1278
  317SOL     OW 1265   0.717   1.611   2.613 -0.0129  1.5756 -0.4705
  317SOL    HW1 1266   0.748   1.520   2.633 -0.8750 -2.9289 -2.1522
  317SOL    HW2 1267   0.712   1.611   2.522 -1.6269 -0.5938  2.5577
  317SOL     MW 1268   0.720   1.599   2.604 -0.3396  0.6950 -0.2928
  318SOL     OW 1269   1.363   0.401   2.885 -0.1630  0.3370  0.1428
  318SOL    HW1 1270   1.275   0.435   2.883 -1.5326  0.8308 -0.9603
  318SOL    HW2 1271   1.426   0.467   2.865 -0.7085  0.9160 -0.7893
  318SOL     MW 1272   1.359   0.414   2.882 -0.4157  0.4786 -0.1258
  319SOL     OW 1273   0.802   0.510   2.848  0.6312 -0.0923  0.5371
  319SOL    HW1 1274   0.787   0.420   2.811 -0.9164 -0.6231 -1.6477
  319SOL    HW2 1275   0.787   0.497   2.938 -1.0523  1.3199  0.4106
  319SOL     MW 1276   0.798   0.497   2.855  0.2049  0.0240  0.2321
  320SOL     OW 1277   1.017   1.332   1.977 -0.2173 -0.2400 -0.2925
  320SOL    HW1 1278   1.082   1.268   2.015  0.6215 -0.0669  1.9459
  320SOL    HW2 1279   1.074   1.406   1.949 -1.5258  1.1632 -0.3750
  320SOL     MW 1280   1.033   1.333   1.979 -0.2792 -0.0320 -0.0080
  321SOL     OW 1281   1.037   0.900   3.045  0.2784  0.1452  0.1210
  321SOL    HW1 1282   0.973   0.848   2.993 -1.4209 -0.4223  0.5363
  321SOL    HW2 1283   1.114   0.845   3.030 -2.0862  0.3186 -0.9969
  321SOL     MW 1284   1.038   0.886   3.036 -0.2578  0.0932  0.0283
  322SOL     OW 1285   1.303   0.864   1.649  0.9921  0.2868 -0.1468
  322SOL    HW1 1286   1.346   0.781   1.676 -0.6268 -2.5769 -1.1157
  322SOL    HW2 1287   1.240   0.886   1.717  1.6421 -0.8445  0.1965
  322SOL     MW 1288   1.301   0.856   1.662  0.8643 -0.2403 -0.2293
  323SOL     OW 1289   1.193   1.525   1.889  0.1216 -0.0124 -0.2805
  323SOL    HW1 1290   1.230   1.526   1.800 -1.7667  1.5941 -1.2743
  323SOL    HW2 1291   1.236   1.598   1.929 -1.4210  1.3612 -0.1096
  323SOL     MW 1292   1.204   1.534   1.883 -0.3311  0.3808 -0.3890
  324SOL     OW 1293   1.444   0.934   2.517  0.4691 -0.2128 -0.1660
  324SOL    HW1 1294   1.381   0.972   2.575 -3.7924  2.1068  0.1679
  324SOL    HW2 1295   1.521   0.982   2.533 -1.9154 -2.2621  1.6225
  324SOL     MW 1296   1.446   0.945   2.527 -0.4078 -0.1771  0.1140
  325SOL     OW 1297   1.083   0.527   2.913  0.3543 -0.1949 -0.2527
  325SOL    HW1 1298   1.076   0.576   2.998 -0.0011  0.2826  1.5211
  325SOL    HW2 1299   1.001   0.547   2.864  1.3507 -0.8643 -0.2355
  325SOL     MW 1300   1.071   0.536   2.918  0.4389 -0.2202 -0.0164
  326SOL     OW 1301   0.409   1.387   2.331  0.0466 -0.7387  0.3501
  326SOL    HW1 1302   0.480   1.382   2.264  1.3824  0.5071  0.6896
  326SOL    HW2 1303   0.401   1.485   2.341  0.5313  2.7538  0.6745
  326SOL     MW 1304   0.417   1.399   2.323  0.2868 -0.1135  0.4377
  327SOL     OW 1305   1.974   0.769   2.439 -0.4616 -0.1106 -0.2537
  327SOL    HW1 1306   1.950   0.707   2.508  2.0525 -2.4737 -1.0174
  327SOL    HW2 1307   1.996   0.848   2.490 -0.8083 -0.2779  2.4315
  327SOL     MW 1308   1.974   0.771   2.455 -0.1757 -0.4445 -0.0002
  328SOL     OW 1309   0.237   1.340   2.122  0.5752  0.2277 -0.2735
  328SOL    HW1 1310   0.166   1.271   2.121  2.7302 -0.3973  2.5765
  328SOL    HW2 1311   0.270   1.328   2.211 -1.0393 -0.1832  2.6574
  328SOL     MW 1312   0.232   1.330   2.134  0.6465  0.0910  0.4892
  329SOL     OW 1313   0.070   0.101   1.362  0.3351  0.4369  0.0062
  329SOL    HW1 1314   0.043   0.141   1.452 -1.2519  0.8267 -1.1001
  329SOL    HW2 1315   0.158   0.135   1.343  0.8402 -2.6230  0.1335
  329SOL     MW 1316   0.078   0.111   1.372  0.1924  0.0846 -0.1230
  330SOL     OW 1317   0.364   0.049   1.997 -0.4182 -0.0758  0.0358
  330SOL    HW1 1318   0.435   0.095   2.044  0.5740  2.9494 -3.9714
  330SOL    HW2 1319   0.342  -0.024   2.055 -0.5216  2.3494  1.8996
  330SOL     MW 1320   0.371   0.045   2.011 -0.3010  0.6433 -0.2470
  331SOL     OW 1321   0.776   1.226   2.369 -0.1242 -0.2818  0.2164
  331SOL    HW1 1322   0.708   1.274   2.322 -2.0334  2.7693 -1.8544
  331SOL    HW2 1323   0.785   1.280   2.445  0.0348 -3.5758  0.3075
  331SOL     MW 1324   0.768   1.239   2.373 -0.3551 -0.3138 -0.0448
  332SOL     OW 1325   1.339   1.651   2.915 -0.0793 -0.0319 -0.1119
  332SOL    HW1 1326   1.346   1.656   2.814 -2.1163 -0.1789 -0.6408
  332SOL    HW2 1327   1.425   1.681   2.937  0.0793  2.1687 -0.8470
  332SOL     MW 1328   1.351   1.655   2.904 -0.3272  0.2390 -0.2787
  333SOL     OW 1329   1.698   1.381   2.935  0.1224  0.3072  0.0017
  333SOL    HW1 1330   1.776   1.359   2.883 -0.5135 -3.4035 -1.0385
  333SOL    HW2 1331   1.705   1.315   3.004 -3.0820  2.8499 -0.8848
  333SOL     MW 1332   1.709   1.369   2.937 -0.3843  0.1531 -0.2525
  334SOL     OW 1333   1.343   3.076   2.615 -0.5598 -0.5945  0.6668
  334SOL    HW1 1334   1.276   3.058   2.681  4.4125 -1.7136  1.5370
  334SOL    HW2 1335   1.414   3.112   2.664  0.1234  1.1532 -1.8072
  334SOL     MW 1336   1.344   3.078   2.630  0.1864 -0.5116  0.4552
  335SOL     OW 1337   1.281   0.746   2.994  0.2230  0.4624 -0.1086
  335SOL    HW1 1338   1.315   0.709   3.081 -1.4868  5.2606 -1.9383
  335SOL    HW2 1339   1.366   0.764   2.961 -1.9370 -0.1263  1.4894
  335SOL     MW 1340   1.297   0.744   3.002 -0.2876  1.0178 -0.1392
  336SOL     OW 1341   0.915   1.158   1.720  0.3405 -0.0987 -0.4559
  336SOL    HW1 1342   0.858   1.212   1.783  0.1073  0.0666  1.8051
  336SOL    HW2 1343   0.945   1.082   1.773 -0.7685 -3.0834  1.7468
  336SOL     MW 1344   0.911   1.155   1.736  0.1634 -0.4707  0.1330
  337SOL     OW 1345   0.474   1.946   2.790 -0.3711 -0.2255  0.2148
  337SOL    HW1 1346   0.424   1.904   2.718 -1.1552 -2.5592  0.7451
  337SOL    HW2 1347   0.566   1.931   2.771 -2.1443 -2.4015  0.0508
  337SOL     MW 1348   0.479   1.938   2.778 -0.7085 -0.8205  0.2631
  338SOL     OW 1349   1.079   0.752   2.450  0.6985 -0.2051 -0.2548
  338SOL    HW1 1350   0.987   0.711   2.448  0.4028  0.1952  0.9555
  338SOL    HW2 1351   1.131   0.724   2.526  2.0154 -1.3756  0.2186
  338SOL     MW 1352   1.074   0.743   2.460  0.8332 -0.3067 -0.0327
  339SOL     OW 1353   1.383   1.275   1.926 -0.9267 -0.1872 -0.0148
  339SOL    HW1 1354   1.355   1.264   1.837  1.3781  0.7881  0.2559
  339SOL    HW2 1355   1.319   1.219   1.971 -2.5968  2.3249  0.7503
  339SOL     MW 1356   1.371   1.266   1.920 -0.8429  0.2729  0.1219
  340SOL     OW 1357   1.307   1.510   0.082  0.0977  0.7253  0.0773
  340SOL    HW1 1358   1.326   1.540  -0.003  0.8783 -1.1425  1.1161
  340SOL    HW2 1359   1.383   1.455   0.113  0.6986 -1.9705  3.3330
  340SOL     MW 1360   1.319   1.507   0.075  0.2799  0.1232  0.6440
  341SOL     OW 1361   0.151   1.356   2.840  0.0731 -0.0606 -0.1114
  341SOL    HW1 1362   0.238   1.380   2.884 -1.6736  0.5823  0.5035
  341SOL    HW2 1363   0.167   1.355   2.745 -2.0456 -0.6363  1.1258
  341SOL     MW 1364   0.165   1.359   2.833 -0.4369 -0.0518  0.1330
  342SOL     OW 1365   1.397   0.328   0.046 -0.4356 -0.1330 -0.1090
  342SOL    HW1 1366   1.381   0.422   0.058 -0.2189  3.5568 -3.4359
  342SOL    HW2 1367   1.421   0.328  -0.047 -1.1090  0.4708 -2.0316
  342SOL     MW 1368   1.398   0.340   0.035 -0.4959  0.4335 -0.8016
  343SOL     OW 1369   0.217   0.244   2.165  0.2072  0.7194  0.0703
  343SOL    HW1 1370   0.233   0.159   2.120  0.8682 -1.7431  0.8019
  343SOL    HW2 1371   0.125   0.259   2.162 -0.2907 -2.1323 -1.0957
  343SOL     MW 1372   0.207   0.235   2.159  0.2287  0.0183  0.0130
  344SOL     OW 1373   1.712   2.015   0.176 -0.3096  0.5513 -0.2761
  344SOL    HW1 1374   1.754   2.078   0.124 -0.0964 -1.6262  0.6629
  344SOL    HW2 1375   1.656   1.971   0.117  2.7459  5.0110  3.4754
  344SOL     MW 1376   1.710   2.017   0.162  0.1217  0.8524  0.3428
  345SOL     OW 1377   0.657   1.621   2.327  0.1173 -0.1254 -0.8186
  345SOL    HW1 1378   0.561   1.623   2.307 -1.7670  0.7702  3.9657
  345SOL    HW2 1379   0.692   1.555   2.272 -4.0127 -0.1182  0.3471
  345SOL     MW 1380   0.649   1.612   2.317 -0.6762 -0.0063 -0.0335
  346SOL     OW 1381   1.673   1.151   0.036  0.1949 -0.0003 -0.3332
  346SOL    HW1 1382   1.766   1.179   0.067  0.3041 -0.4451  5.5639
  346SOL    HW2 1383   1.661   1.068   0.087  3.9824 -0.3247 -0.5091
  346SOL     MW 1384   1.684   1.144   0.047  0.7090 -0.1018  0.4217
  347SOL     OW 1385   1.175   0.628   2.219 -0.1819  0.6665  0.3673
  347SOL    HW1 1386   1.216   0.551   2.268  1.2088  0.1694  0.8756
  347SOL    HW2 1387   1.155   0.677   2.298  1.2877  0.3945  0.2088
  347SOL     MW 1388   1.178   0.624   2.236  0.1954  0.5650  0.4135
  348SOL     OW 1389   1.312   2.569   1.943 -0.3202  0.4629  0.6440
  348SOL    HW1 1390   1.309   2.489   2.009  0.9349  0.7352 -0.4711
  348SOL    HW2 1391   1.346   2.634   2.001 -0.8286  2.2349  1.9474
  348SOL     MW 1392   1.317   2.567   1.959 -0.2217  0.7326  0.6688
  349SOL     OW 1393   1.479   0.172   2.778  0.2269  0.0811 -0.4322
  349SOL    HW1 1394   1.435   0.236   2.837 -0.0749 -0.6809  0.8186
  349SOL    HW2 1395   1.487   0.101   2.838  0.0434  2.9085  1.0668
  349SOL     MW 1396   1.474   0.171   2.793  0.1628  0.3536 -0.0694
  350SOL     OW 1397   1.858   0.628   2.659  0.1703  0.0002 -0.1435
  350SOL    HW1 1398   1.780   0.581   2.630  0.5004  1.3269  2.1236
  350SOL    HW2 1399   1.909   0.564   2.722  1.6811  1.7045 -1.1759
  350SOL     MW 1400   1.854   0.614   2.664  0.4132  0.4001  0.0194
  351SOL     OW 1401   0.075   1.186   1.550  0.0807  0.0086 -0.0088
  351SOL    HW1 1402   0.078   1.100   1.590 -0.3969 -0.4358 -0.6928
  351SOL    HW2 1403   0.119   1.252   1.608 -0.8260  4.4263 -2.2005
  351SOL     MW 1404   0.081   1.184   1.563 -0.1019  0.5329 -0.3882
  352SOL     OW 1405   0.737   1.843   2.779  0.3688 -0.2994 -0.1651
  352SOL    HW1 1406   0.778   1.804   2.855 -1.4343 -1.9974  1.0457
  352SOL    HW2 1407   0.729   1.769   2.715 -0.2617 -1.9440 -1.6544
  352SOL     MW 1408   0.741   1.828   2.781  0.0477 -0.7404 -0.2018
  353SOL     OW 1409   3.084   2.592   2.622 -0.1291 -0.2777 -0.0117
  353SOL    HW1 1410   3.157   2.532   2.623 -1.3295 -2.6677 -0.3021
  353SOL    HW2 1411   3.108   2.650   2.548  0.1960 -2.1344  0.0974
  353SOL     MW 1412   3.097   2.592   2.612 -0.2446 -0.8380 -0.0356
  354SOL     OW 1413   0.376   2.416   0.842  0.1942 -0.1263 -0.0381
  354SOL    HW1 1414   0.415   2.384   0.926  0.4172 -0.4194  0.9594
  354SOL    HW2 1415   0.288   2.365   0.833  1.9675  1.6234 -1.3528
  354SOL     MW 1416   0.369   2.405   0.852  0.4576  0.0659 -0.0800
  355SOL     OW 1417   0.101   2.223   0.396  0.6241 -0.1994 -0.2973
  355SOL    HW1 1418   0.016   2.176   0.368  2.7192  0.8280 -1.2772
  355SOL    HW2 1419   0.094   2.269   0.483  0.2094 -0.5452 -2.4185
  355SOL     MW 1420   0.089   2.223   0.404  0.8458 -0.1095 -0.7065
  356SOL     OW 1421   0.761   2.941   1.058  0.0117  0.3954 -0.0599
  356SOL    HW1 1422   0.827   2.952   0.988 -1.1957  0.8950  0.2492
  356SOL    HW2 1423   0.697   2.873   1.028  2.0064 -5.1325  2.1170
  356SOL     MW 1424   0.761   2.934   1.045  0.1156 -0.2680  0.2681
  357SOL     OW 1425   1.847   2.789   0.449 -0.1691  0.0015  0.5339
  357SOL    HW1 1426   1.802   2.765   0.528 -3.3923 -1.4745 -1.0881
  357SOL    HW2 1427   1.930   2.733   0.458  0.3642  1.2359 -0.0915
  357SOL     MW 1428   1.852   2.779   0.460 -0.5240 -0.0303  0.2374
  358SOL     OW 1429   0.420   0.147   1.060 -0.0356  0.1117  0.2700
  358SOL    HW1 1430   0.515   0.167   1.060  1.8107  0.7106  1.3220
  358SOL    HW2 1431   0.377   0.190   0.986  0.8310 -0.2469 -0.3580
  358SOL     MW 1432   0.427   0.155   1.050  0.3224  0.1434  0.3260
  359SOL     OW 1433   0.863   2.985   1.861 -0.5827  0.3065  0.5506
  359SOL    HW1 1434   0.878   2.887   1.877  0.1448 -0.8338  1.8815
  359SOL    HW2 1435   0.907   2.998   1.778  0.5036 -2.7708 -2.8006
  359SOL     MW 1436   0.870   2.974   1.852 -0.3434 -0.2500  0.2841
  360SOL     OW 1437   0.588   2.777   0.932 -0.0754 -0.8751  0.5676
  360SOL    HW1 1438   0.614   2.767   0.842  0.3376  2.3837  1.2418
  360SOL    HW2 1439   0.597   2.686   0.972 -0.0994 -1.0712 -1.3394
  360SOL     MW 1440   0.592   2.764   0.925 -0.0241 -0.4710  0.4050
  361SOL     OW 1441   0.190   2.681   1.394 -0.5423  0.3553  0.1043
  361SOL    HW1 1442   0.119   2.724   1.445 -2.3795 -0.4362  3.3723
  361SOL    HW2 1443   0.244   2.753   1.361 -0.8844 -1.9925  1.6868
  361SOL     MW 1444   0.188   2.696   1.396 -0.8298 -0.0589  0.7443
  362SOL     OW 1445   1.372   2.417   0.618 -0.1196  0.3465 -0.2174
  362SOL    HW1 1446   1.425   2.349   0.662  0.1613 -1.3960  0.0115
  362SOL    HW2 1447   1.421   2.499   0.613  0.1825  2.8948  4.1671
  362SOL     MW 1448   1.385   2.419   0.623 -0.0427  0.4528  0.3913
  363SOL     OW 1449   0.309   0.015   0.696  0.4736 -0.2494 -0.4452
  363SOL    HW1 1450   0.315  -0.065   0.751 -1.2836 -0.4579  1.5787
  363SOL    HW2 1451   0.225   0.008   0.654 -0.2024 -1.6029 -0.4799
  363SOL     MW 1452   0.299   0.003   0.697  0.1526 -0.4555 -0.1828
  364SOL     OW 1453   0.803   0.193   0.142 -0.1677  0.0685  0.5890
  364SOL    HW1 1454   0.752   0.115   0.155  1.5440  1.4046 -1.8894
  364SOL    HW2 1455   0.753   0.247   0.077 -1.7578  1.4226 -1.2435
  364SOL     MW 1456   0.790   0.190   0.135 -0.1516  0.4234  0.0202
  365SOL     OW 1457   0.884   2.027   1.287  0.0226  0.1239  0.6672
  365SOL    HW1 1458   0.846   2.095   1.229  0.9716 -0.5298 -2.7392
  365SOL    HW2 1459   0.878   1.948   1.242  0.4446 -1.3395  1.9022
  365SOL     MW 1460   0.878   2.026   1.273  0.2035 -0.1554  0.3807
  366SOL     OW 1461   2.906   2.661   0.948 -0.6982 -0.1072  0.7280
  366SOL    HW1 1462   2.966   2.659   1.017  2.6605  2.3617 -1.3042
  366SOL    HW2 1463   2.956   2.693   0.866  0.2735  0.7854  0.5523
  366SOL     MW 1464   2.921   2.665   0.946 -0.1268  0.3363  0.4367
  367SOL     OW 1465   1.264   3.003   1.008  0.7181  0.3139 -0.1342
  367SOL    HW1 1466   1.352   3.045   1.032  1.5077  0.3676  2.0930
  367SOL    HW2 1467   1.275   2.983   0.915 -0.8108 -2.0475  2.4760
  367SOL     MW 1468   1.277   3.006   0.999  0.6206  0.0094  0.5041
  368SOL     OW 1469   1.693   0.442   0.608 -0.1729 -0.4997 -0.4161
  368SOL    HW1 1470   1.761   0.376   0.602  0.9681  0.4072  1.7227
  368SOL    HW2 1471   1.732   0.517   0.558 -0.0911 -1.7246  0.0048
  368SOL     MW 1472   1.707   0.443   0.600 -0.0116 -0.5417 -0.0784
  369SOL     OW 1473   0.140   2.380   1.748  0.2381  0.6329  0.2592
  369SOL    HW1 1474   0.230   2.369   1.767  1.6569  0.4758  0.9067
  369SOL    HW2 1475   0.127   2.475   1.742  0.2840  0.5861  0.5222
  369SOL     MW 1476   0.150   2.391   1.749  0.4313  0.6060  0.3793
  370SOL     OW 1477   0.710   0.125   1.053  0.4217  0.2799  0.2316
  370SOL    HW1 1478   0.690   0.137   0.962 -1.0441 -1.0075  1.4894
  370SOL    HW2 1479   0.712   0.023   1.056  2.7393 -0.1227  0.9351
  370SOL     MW 1480   0.708   0.113   1.041  0.5341  0.0570  0.4904
  371SOL     OW 1481   1.129   2.905   1.476 -0.3801 -0.3515  0.0852
  371SOL    HW1 1482   1.147   2.826   1.419  1.1739  1.3667 -2.5717
  371SOL    HW2 1483   1.107   2.981   1.424 -0.9418  1.9144  2.3143
  371SOL     MW 1484   1.128   2.904   1.461 -0.2492  0.1741  0.0288
  372SOL     OW 1485   0.802   2.324   0.459 -0.3100 -0.5773  0.1926
  372SOL    HW1 1486   0.750   2.248   0.488 -0.4719  0.3758 -0.0907
  372SOL    HW2 1487   0.852   2.290   0.383  1.3446  0.5687  1.2282
  372SOL     MW 1488   0.801   2.309   0.453 -0.1130 -0.3003  0.2918
  373SOL     OW 1489   2.841   2.999   1.424 -0.6754 -0.4499 -0.1886
  373SOL    HW1 1490   2.923   2.965   1.384  0.4128  1.7547  1.1144
  373SOL    HW2 1491   2.806   3.059   1.368  0.4206 -1.8246 -1.9172
  373SOL     MW 1492   2.847   3.002   1.411 -0.3872 -0.3404 -0.2447
  374SOL     OW 1493   1.600   0.488   0.266 -0.2919 -0.1017 -0.1238
  374SOL    HW1 1494   1.677   0.445   0.234  1.1327 -0.4462 -1.3026
  374SOL    HW2 1495   1.566   0.430   0.329  1.9271 -0.7098 -0.8928
  374SOL     MW 1496   1.606   0.475   0.270  0.1888 -0.2274 -0.3808
  375SOL     OW 1497   1.085   2.074   2.237  0.7208 -0.3158 -0.6789
  375SOL    HW1 1498   1.089   2.039   2.328  0.1454  0.6647  1.2046
  375SOL    HW2 1499   1.033   2.019   2.181 -0.4266  0.3065 -0.1755
  375SOL     MW 1500   1.078   2.062   2.242  0.4935 -0.1043 -0.3639
  376SOL     OW 1501   0.814   2.529   0.126  0.2634 -0.0718  0.4910
  376SOL    HW1 1502   0.742   2.481   0.173 -1.8889 -0.9516  2.5177
  376SOL    HW2 1503   0.819   2.501   0.029 -1.1169  1.4462 -2.1941
  376SOL     MW 1504   0.805   2.519   0.119 -0.2027  0.0124  0.4041
  377SOL     OW 1505   1.358   2.081   0.918 -0.6907  0.4504  0.1619
  377SOL    HW1 1506   1.268   2.065   0.886 -1.4640  0.8600 -0.9691
  377SOL    HW2 1507   1.378   2.006   0.973  1.5572 -2.8886  0.8015
  377SOL     MW 1508   1.348   2.069   0.921 -0.4961  0.0639  0.0970
  378SOL     OW 1509   0.886   2.866   1.578 -0.1352  0.4698  0.5821
  378SOL    HW1 1510   0.889   2.767   1.580 -0.2899 -4.8416  4.3680
  378SOL    HW2 1511   0.970   2.873   1.527  3.7841  0.0162  1.0368
  378SOL     MW 1512   0.898   2.854   1.572  0.3615 -0.2908  1.1416
  379SOL     OW 1513   1.071   1.568   2.290 -0.3851 -0.4115  0.1598
  379SOL    HW1 1514   0.984   1.540   2.255 -1.5340  1.3135 -0.6346
  379SOL    HW2 1515   1.126   1.532   2.222  0.3176  0.2929 -0.8707
  379SOL     MW 1516   1.067   1.559   2.276 -0.4440 -0.0910 -0.0810
  380SOL     OW 1517   0.877   0.132   1.478  0.6215  0.0469  0.5290
  380SOL    HW1 1518   0.909   0.070   1.411 -0.1892  0.6731  1.5005
  380SOL    HW2 1519   0.917   0.102   1.561  0.0636 -0.7333 -1.3001
  380SOL     MW 1520   0.886   0.120   1.480  0.4409  0.0265  0.4159
  381SOL     OW 1521   0.840   2.057   0.869 -0.3471 -0.0041  0.8545
  381SOL    HW1 1522   0.937   2.057   0.861  1.5386 -0.5218 -0.3694
  381SOL    HW2 1523   0.817   2.124   0.933  1.5433 -0.2859 -1.5969
  381SOL     MW 1524   0.849   2.066   0.876  0.1511 -0.1096  0.3696
  382SOL     OW 1525   0.853   0.139   0.583  0.1906 -0.8894  0.6579
  382SOL    HW1 1526   0.835   0.189   0.668  0.7739 -0.8729  3.1516
  382SOL    HW2 1527   0.803   0.060   0.588 -0.0470  2.0196  0.7731
  382SOL     MW 1528   0.844   0.135   0.595  0.2362 -0.5034  1.0021
  383SOL     OW 1529   0.643   0.022   0.308 -0.1086 -0.0297  0.0796
  383SOL    HW1 1530   0.678  -0.061   0.271  0.8083  1.2850  1.8949
  383SOL    HW2 1531   0.594  -0.013   0.379 -0.3844  1.1891 -2.8561
  383SOL     MW 1532   0.641   0.006   0.312 -0.0240  0.3045 -0.0682
  384SOL     OW 1533   0.768   2.972   0.612  0.2513  0.0023 -0.3303
  384SOL    HW1 1534   0.799   2.960   0.703 -1.3939  0.4484 -3.5766
  384SOL    HW2 1535   0.697   2.904   0.604  1.7212  0.1654  1.9275
  384SOL     MW 1536   0.763   2.961   0.623  0.2282  0.0827 -0.4607
  385SOL     OW 1537   1.349   2.065   1.521  0.3019 -0.1897  0.2527
  385SOL    HW1 1538   1.415   2.112   1.575  1.6108  2.6190 -0.5750
  385SOL    HW2 1539   1.340   1.980   1.565  0.3632 -1.1594 -1.1303
  385SOL     MW 1540   1.357   2.060   1.534  0.4827  0.0529 -0.0390
  386SOL     OW 1541   1.470   0.430   0.868 -0.0994 -0.7733 -0.4807
  386SOL    HW1 1542   1.398   0.455   0.928 -1.9312 -2.1964 -2.8124
  386SOL    HW2 1543   1.559   0.460   0.892 -0.3043 -2.6080  0.2695
  386SOL     MW 1544   1.473   0.437   0.879 -0.3682 -1.2031 -0.6894
  387SOL     OW 1545   0.784   2.225   1.578 -0.1714  0.3903 -0.4787
  387SOL    HW1 1546   0.863   2.255   1.536  0.0330  2.9751 -1.5949
  387SOL    HW2 1547   0.792   2.124   1.575  0.3803  2.8682 -0.3396
  387SOL     MW 1548   0.796   2.215   1.572 -0.0716  1.0583 -0.6076
  388SOL     OW 1549   1.457   2.792   1.442 -0.5146  0.8236  0.7677
  388SOL    HW1 1550   1.434   2.866   1.381  2.4898  0.4096  1.9790
  388SOL    HW2 1551   1.466   2.721   1.379  3.1331  1.1899  2.8287
  388SOL     MW 1552   1.455   2.792   1.425  0.3631  0.8173  1.1995
  389SOL     OW 1553   0.476   0.136   3.060 -0.1493 -0.3700  0.1978
  389SOL    HW1 1554   0.524   0.060   3.035 -1.6211 -0.3743 -1.6588
  389SOL    HW2 1555   0.458   0.192   2.977 -2.5501  1.7632  1.2879
  389SOL     MW 1556   0.480   0.134   3.046 -0.6603 -0.0892  0.0966
  390SOL     OW 1557   1.367   0.024   0.729  0.3153 -0.0449 -0.6595
  390SOL    HW1 1558   1.391   0.025   0.638 -2.5370 -2.8651  0.9548
  390SOL    HW2 1559   1.452   0.042   0.782  0.5526 -0.0030  0.5334
  390SOL     MW 1560   1.382   0.027   0.724 -0.0297 -0.4115 -0.2891
  391SOL     OW 1561   0.315   2.174   1.518 -0.2266 -0.3517 -0.0490
  391SOL    HW1 1562   0.318   2.172   1.613  1.7048 -2.1427  2.1076
  391SOL    HW2 1563   0.284   2.257   1.478 -0.3782  0.4989  1.1949
  391SOL     MW 1564   0.312   2.184   1.525  0.0082 -0.4758  0.3997
  392SOL     OW 1565   1.937   2.167   0.310 -0.2640 -0.5411  0.0296
  392SOL    HW1 1566   1.994   2.239   0.333  0.3540 -0.7129 -0.6913
  392SOL    HW2 1567   1.847   2.198   0.319  0.3945 -1.2855  1.4196
  392SOL     MW 1568   1.933   2.181   0.314 -0.0956 -0.6620  0.1179
  393SOL     OW 1569   0.245   2.953   2.837  0.1201  0.1012 -0.7489
  393SOL    HW1 1570   0.334   2.940   2.799  1.7983  0.4181 -0.2980
  393SOL    HW2 1571   0.237   3.047   2.848 -2.8625  0.6303 -0.9795
  393SOL     MW 1572   0.256   2.963   2.834 -0.0520  0.2128 -0.7198
  394SOL     OW 1573   1.020   1.792   1.543 -0.5536 -0.0156  0.6089
  394SOL    HW1 1574   1.049   1.802   1.636 -2.8171 -0.5349 -0.0344
  394SOL    HW2 1575   0.951   1.860   1.537  0.0693 -0.5348  0.3050
  394SOL     MW 1576   1.015   1.802   1.554 -0.7700 -0.1526  0.4839
  395SOL     OW 1577   0.955   2.932   2.702 -0.1743  0.4001  0.1574
  395SOL    HW1 1578   1.030   2.980   2.757  0.3649  1.4519 -1.0444
  395SOL    HW2 1579   1.004   2.863   2.654  1.9806 -0.9952 -0.1258
  395SOL     MW 1580   0.971   2.929   2.703  0.1812  0.3548 -0.0385
  396SOL     OW 1581   0.742   1.900   2.362 -0.7000 -0.5044 -0.2090
  396SOL    HW1 1582   0.806   1.859   2.418 -0.9003 -2.3621 -0.4245
  396SOL    HW2 1583   0.696   1.821   2.332 -0.2854 -2.2413  0.5496
  396SOL     MW 1584   0.744   1.884   2.366 -0.6717 -0.9787 -0.1373
  397SOL     OW 1585   1.004   2.296   1.379 -0.0270 -0.5479 -0.3084
  397SOL    HW1 1586   1.049   2.334   1.306 -0.5814  2.3655  1.6619
  397SOL    HW2 1587   1.073   2.310   1.441  2.3792 -1.1872 -1.1146
  397SOL     MW 1588   1.019   2.303   1.378  0.2173 -0.2479 -0.1548
  398SOL     OW 1589   0.636   2.734   0.655  0.1770 -0.2754 -0.0525
  398SOL    HW1 1590   0.576   2.707   0.585 -0.1449  1.5919 -3.3642
  398SOL    HW2 1591   0.712   2.670   0.657  2.9374  1.9991 -0.9480
  398SOL     MW 1592   0.638   2.722   0.646  0.4987  0.2711 -0.6076
  399SOL     OW 1593   0.337   2.073   0.364 -0.8081 -0.6705 -0.0954
  399SOL    HW1 1594   0.254   2.121   0.363 -2.2528 -1.3522 -1.1558
  399SOL    HW2 1595   0.394   2.114   0.292  0.8354  0.1712 -1.9609
  399SOL     MW 1596   0.334   2.085   0.355 -0.7819 -0.6494 -0.4814
  400SOL     OW 1597   0.590   1.934   0.085  0.2703 -0.1834  0.2005
  400SOL    HW1 1598   0.548   2.025   0.110 -1.7945  2.6957  0.8879
  400SOL    HW2 1599   0.571   1.883   0.164 -1.8440  0.3822  1.9514
  400SOL     MW 1600   0.582   1.939   0.099 -0.2811  0.2711  0.5222
  401SOL     OW 1601   0.866   2.042   0.005  0.2854 -0.4168 -0.1635
  401SOL    HW1 1602   0.939   1.983   0.034 -1.5313 -2.2941 -1.9130
  401SOL    HW2 1603   0.780   2.011   0.045  0.3593 -1.3418 -1.5351
  401SOL     MW 1604   0.864   2.030   0.014  0.0555 -0.7865 -0.5753
  402SOL     OW 1605   0.612   3.012   1.794  0.9620 -0.3451  1.1977
  402SOL    HW1 1606   0.704   2.989   1.803  2.2633  0.1152 -1.1755
  402SOL    HW2 1607   0.619   3.095   1.755 -0.3679 -2.3680  1.8094
  402SOL     MW 1608   0.625   3.020   1.790  0.9582 -0.5513  0.9653
  403SOL     OW 1609   0.155   0.501   0.386 -0.3446 -0.4373  0.2012
  403SOL    HW1 1610   0.235   0.503   0.442  0.3882  0.9931  0.7300
  403SOL    HW2 1611   0.180   0.448   0.314  0.5549 -0.9070 -0.5159
  403SOL     MW 1612   0.169   0.494   0.384 -0.1292 -0.3105  0.1764
  404SOL     OW 1613   0.919   2.957   0.840  0.4328 -0.0620 -0.2828
  404SOL    HW1 1614   0.993   2.893   0.828  0.7282  0.1711 -1.2127
  404SOL    HW2 1615   0.955   3.040   0.815 -1.0831 -0.5261  1.6034
  404SOL     MW 1616   0.933   2.959   0.835  0.2718 -0.0925 -0.1566
  405SOL     OW 1617   0.526   2.465   1.507  0.1167 -0.5177  0.2564
  405SOL    HW1 1618   0.515   2.553   1.463  0.5133  4.0729  1.1523
  405SOL    HW2 1619   0.563   2.397   1.448 -1.6247  1.5295 -1.3133
  405SOL     MW 1620   0.529   2.468   1.494 -0.0607  0.3581  0.1675
  406SOL     OW 1621   0.449   2.354   1.094  0.6402 -0.0237 -0.2883
  406SOL    HW1 1622   0.360   2.388   1.103 -0.3153 -1.4576  0.3389
  406SOL    HW2 1623   0.437   2.278   1.147 -1.0561 -1.5542 -2.2754
  406SOL     MW 1624   0.436   2.349   1.102  0.2903 -0.4149 -0.4677
  407SOL     OW 1625   0.039   2.641   1.115 -0.1647  0.0624 -0.8883
  407SOL    HW1 1626   0.090   2.649   1.191  0.0225  0.9504 -0.8196
  407SOL    HW2 1627   0.104   2.643   1.040  1.5630 -0.3226  1.5763
  407SOL     MW 1628   0.055   2.643   1.115  0.0879  0.1288 -0.5541
  408SOL     OW 1629   2.137   2.141   0.714  0.3307 -0.0897 -0.5525
  408SOL    HW1 1630   2.083   2.178   0.791 -2.2038  2.0493  0.7220
  408SOL    HW2 1631   2.079   2.085   0.650  0.2085  0.3331 -0.7901
  408SOL     MW 1632   2.122   2.139   0.716 -0.0198  0.2483 -0.4157
  409SOL     OW 1633   1.619   0.093   0.833 -0.4949  0.0829  0.1979
  409SOL    HW1 1634   1.601   0.184   0.820  0.8108 -0.8390 -1.8473
  409SOL    HW2 1635   1.608   0.073   0.927 -0.0126 -2.2158 -0.3902
  409SOL     MW 1636   1.615   0.102   0.843 -0.2590 -0.3421 -0.1495
  410SOL     OW 1637   1.102   2.418   1.150  0.2123  0.1369 -0.1161
  410SOL    HW1 1638   1.032   2.419   1.085  0.7951 -2.7317 -0.6243
  410SOL    HW2 1639   1.182   2.392   1.105  2.3338  0.5153  0.2780
  410SOL     MW 1640   1.103   2.415   1.136  0.5691 -0.1916 -0.1312
  411SOL     OW 1641   1.991   2.939   2.923 -0.2913 -0.0914 -0.0799
  411SOL    HW1 1642   1.974   2.897   2.839 -0.5818 -0.8841 -0.5154
  411SOL    HW2 1643   1.962   3.030   2.920 -1.2030 -2.1267 -1.9119
  411SOL     MW 1644   1.985   2.945   2.912 -0.4499 -0.4646 -0.3790
  412SOL     OW 1645   1.059   2.268   0.639 -0.2322  0.0099  0.1852
  412SOL    HW1 1646   1.084   2.355   0.680 -0.9162  1.2132 -0.3911
  412SOL    HW2 1647   0.987   2.294   0.582 -0.2050 -5.3140  0.9114
  412SOL     MW 1648   1.053   2.283   0.637 -0.3189 -0.5338  0.2050
  413SOL     OW 1649   0.630   2.695   0.045  0.3299 -0.3701 -0.3368
  413SOL    HW1 1650   0.702   2.630   0.078  0.7280 -0.0002  1.9375
  413SOL    HW2 1651   0.633   2.694  -0.052  0.7507  1.7242 -2.4265
  413SOL     MW 1652   0.640   2.686   0.037  0.4380 -0.0450 -0.3124
  414SOL     OW 1653   2.026   3.016   1.090  0.4982 -0.7784  0.1495
  414SOL    HW1 1654   2.039   3.106   1.116  1.8587 -0.2122 -1.1503
  414SOL    HW2 1655   1.998   3.029   1.003 -0.1417 -0.7011  2.9069
  414SOL     MW 1656   2.024   3.029   1.082  0.5933 -0.6935  0.3418
  415SOL     OW 1657   1.625   2.847   1.122  0.5718 -0.2702  0.2228
  415SOL    HW1 1658   1.683   2.866   1.197 -1.1116  2.3342 -0.2044
  415SOL    HW2 1659   1.671   2.798   1.056  0.1104 -0.2887  1.4134
  415SOL     MW 1660   1.639   2.843   1.123  0.2888  0.0710  0.3235
  416SOL     OW 1661   0.631   1.748   1.446 -0.2334  0.7698 -0.6611
  416SOL    HW1 1662   0.565   1.802   1.413  2.9715  1.5194  0.9555
  416SOL    HW2 1663   0.646   1.679   1.380 -0.9404 -0.6177 -2.1369
  416SOL     MW 1664   0.625   1.746   1.433  0.0961  0.6856 -0.6426
  417SOL     OW 1665   0.955   0.050   2.064 -0.0954  0.3469 -0.8517
  417SOL    HW1 1666   0.870   0.054   2.114  0.6537 -0.1166 -1.7527
  417SOL    HW2 1667   0.932   0.019   1.980 -1.4542 -0.3448 -0.1252
  417SOL     MW 1668   0.941   0.047   2.060 -0.1759  0.1945 -0.8747
  418SOL     OW 1669   0.761   2.897   0.178  1.1730 -0.2649  0.1186
  418SOL    HW1 1670   0.831   2.879   0.114  0.9848 -0.4356 -0.0932
  418SOL    HW2 1671   0.699   2.820   0.159 -0.1724 -1.6974  1.7483
  418SOL     MW 1672   0.762   2.884   0.167  0.9707 -0.4765  0.3057
  419SOL     OW 1673   0.626   2.688   1.345  0.4041  0.3655 -0.4648
  419SOL    HW1 1674   0.617   2.751   1.417 -0.5197 -0.0994 -1.8719
  419SOL    HW2 1675   0.674   2.613   1.376  0.9502 -0.4188  1.6819
  419SOL     MW 1676   0.631   2.686   1.358  0.3543  0.2006 -0.3672
  420SOL     OW 1677   0.786   2.247   1.102  0.4884  0.0128  0.4462
  420SOL    HW1 1678   0.751   2.276   1.191  0.4084  0.0310 -0.1157
  420SOL    HW2 1679   0.824   2.322   1.063 -2.9769 -0.2694  1.3187
  420SOL     MW 1680   0.787   2.261   1.109  0.0207 -0.0220  0.4872
  421SOL     OW 1681   2.886   0.173   0.082 -0.1782 -0.1932  0.3746
  421SOL    HW1 1682   2.823   0.145   0.016 -0.5735 -1.5119  1.6374
  421SOL    HW2 1683   2.952   0.104   0.096  0.2698 -0.9242  1.0232
  421SOL     MW 1684   2.886   0.160   0.075 -0.1712 -0.4637  0.6268
  422SOL     OW 1685   0.880   2.487   0.964 -0.4903 -0.3235  0.2301
  422SOL    HW1 1686   0.801   2.520   1.000 -0.4764  0.2448 -0.3644
  422SOL    HW2 1687   0.868   2.505   0.874 -1.3004  0.0693  0.6511
  422SOL     MW 1688   0.868   2.494   0.957 -0.5954 -0.1967  0.2072
  423SOL     OW 1689   1.502   0.037   0.490  0.4457 -0.3279  0.4073
  423SOL    HW1 1690   1.544   0.021   0.400 -0.1436  1.3205 -2.3947
  423SOL    HW2 1691   1.497   0.130   0.495 -1.3701 -1.4382 -2.9840
  423SOL     MW 1692   1.507   0.047   0.479  0.1284 -0.2569 -0.4098
  424SOL     OW 1693   0.665   2.276   1.325  0.1397  0.1601  0.5199
  424SOL    HW1 1694   0.604   2.206   1.307  1.1052  0.3501 -1.7395
  424SOL    HW2 1695   0.710   2.253   1.406  2.9641  1.3605 -0.0789
  424SOL     MW 1696   0.663   2.264   1.333  0.6397  0.3436  0.1428
  425SOL     OW 1697   1.697   2.808   2.045  0.0870 -0.0257  0.3067
  425SOL    HW1 1698   1.725   2.812   1.949  2.3591  2.8652 -0.5322
  425SOL    HW2 1699   1.728   2.725   2.078 -0.9639  0.3810  0.8419
  425SOL     MW 1700   1.705   2.798   2.037  0.2481  0.4094  0.2667
  426SOL     OW 1701   0.887   1.684   1.943 -0.0867 -0.2204 -0.2180
  426SOL    HW1 1702   0.810   1.687   1.881 -1.1647 -2.4324 -1.5845
  426SOL    HW2 1703   0.882   1.763   2.000 -1.3803 -1.1418 -3.8705
  426SOL     MW 1704   0.876   1.695   1.942 -0.3996 -0.6338 -0.8802
  427SOL     OW 1705   0.384   1.753   1.882 -0.0025  0.3622 -1.0105
  427SOL    HW1 1706   0.412   1.680   1.832 -1.2742  2.5150  2.7139
  427SOL    HW2 1707   0.309   1.715   1.930 -0.9222  0.4666 -0.7122
  427SOL     MW 1708   0.377   1.738   1.882 -0.2917  0.6600 -0.4798
  428SOL     OW 1709   0.632   2.566   1.088  1.0853  0.1842 -0.1842
  428SOL    HW1 1710   0.580   2.481   1.095 -0.8361 -1.5982 -1.8893
  428SOL    HW2 1711   0.605   2.606   1.167 -0.0398  0.9798 -3.1394
  428SOL     MW 1712   0.622   2.560   1.099  0.6833  0.0540 -0.7991
  429SOL     OW 1713   1.188   2.746   1.079  0.4147  0.3579  0.2220
  429SOL    HW1 1714   1.098   2.752   1.110 -1.0652  0.7282 -0.0942
  429SOL    HW2 1715   1.206   2.838   1.072  3.0060  0.6077  0.9074
  429SOL     MW 1716   1.178   2.759   1.082  0.5613  0.4397  0.2707
  430SOL     OW 1717   1.161   2.811   0.817  0.0472  0.5712  0.0840
  430SOL    HW1 1718   1.161   2.755   0.898  0.1529  0.9263  1.3197
  430SOL    HW2 1719   1.139   2.746   0.755 -1.8628  0.8937  0.5682
  430SOL     MW 1720   1.158   2.795   0.820 -0.1909  0.6606  0.3109
  431SOL     OW 1721   0.331   1.917   1.103 -0.1403 -0.0265  0.1911
  431SOL    HW1 1722   0.408   1.868   1.083  1.1045 -2.9055 -2.2730
  431SOL    HW2 1723   0.294   1.946   1.021  1.2249  1.8139  1.7412
  431SOL     MW 1724   0.336   1.914   1.090  0.2041 -0.1635  0.0705
  432SOL     OW 1725   0.039   3.078   1.114 -0.5170  0.2951 -0.3167
  432SOL    HW1 1726   0.031   3.131   1.195 -1.6270  0.1454  3.1195
  432SOL    HW2 1727  -0.008   2.997   1.123  1.9458  2.5153  1.7317
  432SOL     MW 1728   0.031   3.074   1.126 -0.3385  0.5683  0.4069
  433SOL     OW 1729   0.633   2.922   1.482 -0.0597 -0.2737 -0.0462
  433SOL    HW1 1730   0.604   3.006   1.513 -0.6392 -0.5172 -0.0926
  433SOL    HW2 1731   0.724   2.899   1.518  3.4437 -0.5950  4.9318
  433SOL     MW 1732   0.641   2.930   1.491  0.3261 -0.3483  0.6045
  434SOL     OW 1733   1.509   2.836   1.716 -0.4573  0.2277  0.4611
  434SOL    HW1 1734   1.431   2.871   1.754 -1.7721 -0.5879  1.3765
  434SOL    HW2 1735   1.476   2.805   1.629  0.4905  0.7288  1.4839
  434SOL     MW 1736   1.494   2.836   1.709 -0.5057  0.1862  0.7168
  435SOL     OW 1737   2.700   1.759   0.222 -0.4665  0.8070  0.5266
  435SOL    HW1 1738   2.745   1.826   0.165 -0.3724 -0.1926 -0.5407
  435SOL    HW2 1739   2.611   1.781   0.205 -2.6576  1.4799 -1.8472
  435SOL     MW 1740   2.694   1.771   0.212 -0.7432  0.7639  0.0726
  436SOL     OW 1741   1.337   2.712   0.353  0.4978  0.2395  0.5160
  436SOL    HW1 1742   1.394   2.682   0.422 -2.0384 -1.3147  1.9004
  436SOL    HW2 1743   1.316   2.802   0.366  0.7544  1.4939  1.1918
  436SOL     MW 1744   1.342   2.720   0.364  0.1970  0.2000  0.7879
  437SOL     OW 1745   0.952   3.034   1.290 -0.6120 -0.1140 -0.0488
  437SOL    HW1 1746   0.989   3.083   1.218 -1.9130 -0.7072  0.8023
  437SOL    HW2 1747   0.904   2.958   1.246 -1.6576 -0.4794  1.0267
  437SOL     MW 1748   0.950   3.031   1.275 -0.9216 -0.2404  0.2054
  438SOL     OW 1749   0.892   2.712   1.969 -0.1231  0.3185  0.0684
  438SOL    HW1 1750   0.882   2.633   2.030  0.1202 -3.7164 -0.2307
  438SOL    HW2 1751   0.866   2.664   1.885 -3.0495 -0.3778  0.3190
  438SOL     MW 1752   0.887   2.695   1.966 -0.4771 -0.3057  0.0620
  439SOL     OW 1753   1.195   2.067   0.428 -0.0237  0.1041  0.2899
  439SOL    HW1 1754   1.144   2.109   0.497 -1.6805 -3.2269 -1.6713
  439SOL    HW2 1755   1.195   2.137   0.355  1.7254  0.6656  0.9727
  439SOL     MW 1756   1.188   2.082   0.427 -0.0115 -0.2613  0.1212
  440SOL     OW 1757   1.762   2.840   2.997  0.4148 -1.2738 -0.1918
  440SOL    HW1 1758   1.772   2.836   3.091 -1.3989 -2.6965  0.3464
  440SOL    HW2 1759   1.843   2.875   2.964  0.6698 -0.7336  0.4406
  440SOL     MW 1760   1.774   2.844   3.005  0.2092 -1.3902 -0.0374
  441SOL     OW 1761   0.508   2.684   0.421  0.2171  0.8034 -0.2298
  441SOL    HW1 1762   0.488   2.648   0.340  0.1696  1.4650  1.2708
  441SOL    HW2 1763   0.497   2.780   0.404 -1.3271 -1.1437  0.7652
  441SOL     MW 1764   0.504   2.692   0.408  0.0071  0.6338  0.0995
  442SOL     OW 1765   0.030   2.351   0.642 -0.2686  0.2909  0.4911
  442SOL    HW1 1766   0.040   2.450   0.622  0.4202  0.3978 -2.4409
  442SOL    HW2 1767  -0.060   2.332   0.658  1.7576  0.4180 -1.1137
  442SOL     MW 1768   0.019   2.361   0.641  0.0896  0.3218 -0.1075
  443SOL     OW 1769   1.471   1.746   1.934 -0.0601 -0.0091 -0.2179
  443SOL    HW1 1770   1.453   1.766   1.845  0.3115 -2.6369 -1.1361
  443SOL    HW2 1771   1.494   1.652   1.934 -1.2114  2.1110  1.7199
  443SOL     MW 1772   1.472   1.736   1.922 -0.1630 -0.0761 -0.0834
  444SOL     OW 1773   0.950   2.593   1.610 -0.4573  0.0153 -0.2269
  444SOL    HW1 1774   1.002   2.548   1.672  0.6699  0.8546 -1.5856
  444SOL    HW2 1775   0.861   2.583   1.647 -0.7390  3.8606  1.3457
  444SOL     MW 1776   0.945   2.586   1.623 -0.3457  0.6334 -0.1986
  445SOL     OW 1777   1.214   0.077   1.411 -0.3185 -0.0381 -0.2241
  445SOL    HW1 1778   1.186   0.121   1.488 -2.2738 -1.3730 -1.0125
  445SOL    HW2 1779   1.211   0.149   1.350 -0.5707 -0.0634  2.1285
  445SOL     MW 1780   1.210   0.092   1.413 -0.6098 -0.2176 -0.0177
  446SOL     OW 1781   2.747   2.862   1.043 -1.0308 -0.2517  0.1134
  446SOL    HW1 1782   2.727   2.939   0.991  3.0263 -2.8866  0.0076
  446SOL    HW2 1783   2.784   2.804   0.978 -3.6606  0.4174 -0.4857
  446SOL     MW 1784   2.749   2.865   1.028 -0.8425 -0.5111  0.0204
  447SOL     OW 1785   0.023   1.935   1.562  0.2933  0.0191  0.2473
  447SOL    HW1 1786   0.042   1.862   1.622  0.6479  2.4381  0.8540
  447SOL    HW2 1787  -0.056   1.902   1.511  1.1980  0.9488  0.8155
  447SOL     MW 1788   0.015   1.921   1.563  0.4594  0.4609  0.4023
  448SOL     OW 1789   1.716   2.349   1.662  0.1885 -0.1292  0.1200
  448SOL    HW1 1790   1.668   2.274   1.686 -1.2935 -0.1784 -1.3640
  448SOL    HW2 1791   1.657   2.423   1.673 -1.6957  0.0470 -0.0760
  448SOL     MW 1792   1.702   2.349   1.667 -0.2556 -0.1124 -0.1017
  449SOL     OW 1793   0.919   2.928   0.396  0.1859 -0.4783  0.0374
  449SOL    HW1 1794   0.871   2.888   0.322  0.9167 -5.1375  1.0626
  449SOL    HW2 1795   0.854   2.953   0.463 -0.2046 -2.7179  1.0950
  449SOL     MW 1796   0.904   2.926   0.395  0.2308 -1.3886  0.3122
  450SOL     OW 1797   1.132   2.476   0.753 -0.0978  0.9252 -1.0462
  450SOL    HW1 1798   1.172   2.437   0.841  0.5960 -0.8446  0.8491
  450SOL    HW2 1799   1.213   2.461   0.697  1.6245 -1.2254  1.0646
  450SOL     MW 1800   1.148   2.469   0.757  0.2210  0.4080 -0.5176
  451SOL     OW 1801   0.553   1.988   1.693  0.4252  0.5306  0.3129
  451SOL    HW1 1802   0.639   1.993   1.653 -1.2769 -1.5696 -0.7283
  451SOL    HW2 1803   0.487   1.942   1.636 -1.9456  0.5466 -0.1191
  451SOL     MW 1804   0.556   1.983   1.680 -0.1121  0.2556  0.1185
  452SOL     OW 1805   0.360   2.646   3.095 -0.8849 -0.3312 -0.7351
  452SOL    HW1 1806   0.443   2.685   3.077  0.4586  0.9192  0.7357
  452SOL    HW2 1807   0.290   2.712   3.111  0.2128  1.1146  1.9690
  452SOL     MW 1808   0.362   2.660   3.095 -0.5628  0.0245 -0.1842
  453SOL     OW 1809   0.238   3.013   1.557 -0.5764 -0.0596  0.1411
  453SOL    HW1 1810   0.275   2.955   1.620  1.0888  0.7832  0.5245
  453SOL    HW2 1811   0.269   2.994   1.470 -1.8508 -2.8316  0.5198
  453SOL     MW 1812   0.247   3.003   1.554 -0.5248 -0.3141  0.2417
  454SOL     OW 1813   0.897   2.777   1.199 -0.1296  0.1167 -0.4115
  454SOL    HW1 1814   0.834   2.722   1.234  3.6746  0.1667 -1.4321
  454SOL    HW2 1815   0.850   2.831   1.132 -0.2888  0.0378 -1.1480
  454SOL     MW 1816   0.883   2.777   1.195  0.3513  0.1128 -0.6434
  455SOL     OW 1817   1.792   2.865   0.185 -0.4744 -0.0700 -0.1815
  455SOL    HW1 1818   1.835   2.854   0.269  1.3242  1.2896  0.3936
  455SOL    HW2 1819   1.713   2.805   0.196 -1.3512 -0.8975 -1.9354
  455SOL     MW 1820   1.788   2.855   0.198 -0.3528  0.0002 -0.3370
  456SOL     OW 1821   2.759   0.271   1.457 -0.1824 -0.1246 -0.0909
  456SOL    HW1 1822   2.763   0.205   1.390  1.6042  0.3188  0.4418
  456SOL    HW2 1823   2.794   0.356   1.420 -1.3058  0.6060  0.3396
  456SOL     MW 1824   2.764   0.274   1.443 -0.0949  0.0303  0.0362
  457SOL     OW 1825   0.787   1.649   3.036 -0.6879 -0.1164  0.5237
  457SOL    HW1 1826   0.694   1.624   3.030  0.3536 -0.6886 -0.2177
  457SOL    HW2 1827   0.806   1.665   3.129  2.4925  0.8682 -1.6380
  457SOL     MW 1828   0.777   1.648   3.048 -0.1309 -0.0620  0.1406
  458SOL     OW 1829   1.344   1.474   0.694  0.1378 -0.0260 -0.0723
  458SOL    HW1 1830   1.263   1.512   0.705  1.7356 -1.2123  0.4638
  458SOL    HW2 1831   1.326   1.383   0.666 -1.3976 -0.1933  0.6764
  458SOL     MW 1832   1.331   1.467   0.692  0.1460 -0.2046  0.0972
  459SOL     OW 1833   1.606   3.065   0.244 -0.7059 -0.3224  0.0521
  459SOL    HW1 1834   1.664   3.002   0.199 -1.1809 -0.8461 -0.2426
  459SOL    HW2 1835   1.547   3.099   0.177 -1.1387 -1.9457  0.8419
  459SOL     MW 1836   1.606   3.061   0.229 -0.8257 -0.6057  0.1174
  460SOL     OW 1837   1.789   2.227   0.620 -0.3725  0.3026  0.0350
  460SOL    HW1 1838   1.707   2.215   0.666  0.4514  1.4154 -1.3124
  460SOL    HW2 1839   1.840   2.139   0.626 -0.9890 -0.9750 -0.1900
  460SOL     MW 1840   1.785   2.214   0.627 -0.3451  0.2808 -0.1725
  461SOL     OW 1841   0.400   2.410   0.540 -0.0018  0.1858 -0.7878
  461SOL    HW1 1842   0.431   2.493   0.503 -1.1437 -1.0649  1.4134
  461SOL    HW2 1843   0.387   2.428   0.636 -1.8424  0.6035 -3.0116
  461SOL     MW 1844   0.403   2.424   0.548 -0.3953  0.0759 -0.7908
  462SOL     OW 1845   0.285   0.240   1.270 -0.2050  0.1686  0.3140
  462SOL    HW1 1846   0.335   0.206   1.195 -2.6627 -0.4666 -0.1556
  462SOL    HW2 1847   0.360   0.260   1.327 -1.7301 -3.3712  1.0128
  462SOL     MW 1848   0.302   0.238   1.268 -0.7305 -0.3823  0.3443
  463SOL     OW 1849   1.097   0.051   0.748  0.5141 -0.1170 -0.4584
  463SOL    HW1 1850   1.182   0.016   0.717 -1.0350  0.0826 -2.0756
  463SOL    HW2 1851   1.033   0.069   0.676  1.1396  2.5637 -1.6279
  463SOL     MW 1852   1.099   0.049   0.735  0.3923  0.2631 -0.8261
  464SOL     OW 1853   0.738   3.073   2.272 -0.0801 -0.2233  0.6854
  464SOL    HW1 1854   0.739   2.974   2.267  0.2271 -0.9685 -0.9484
  464SOL    HW2 1855   0.757   3.106   2.364 -3.4305  0.7373 -0.3380
  464SOL     MW 1856   0.740   3.064   2.284 -0.4816 -0.1949  0.3348
  465SOL     OW 1857   0.824   0.337   0.388  0.2301 -0.2387 -1.0876
  465SOL    HW1 1858   0.810   0.257   0.435  2.5808  0.5574 -0.9872
  465SOL    HW2 1859   0.807   0.306   0.300  1.2747  2.4446  0.2592
  465SOL     MW 1860   0.820   0.322   0.382  0.6780  0.2204 -0.8966
  466SOL     OW 1861   1.108   2.043   0.803  0.7217  0.2258 -0.3084
  466SOL    HW1 1862   1.079   1.971   0.751 -0.1483  6.0472 -3.0498
  466SOL    HW2 1863   1.092   2.120   0.747  0.1893 -0.7150  0.8340
  466SOL     MW 1864   1.102   2.044   0.789  0.5367  0.8698 -0.5193
  467SOL     OW 1865   1.282   2.349   0.951 -0.5019  0.0779  0.6740
  467SOL    HW1 1866   1.365   2.368   0.994 -0.4178 -1.0872  0.9754
  467SOL    HW2 1867   1.291   2.259   0.918  1.7623 -1.9338  2.0025
  467SOL     MW 1868   1.294   2.340   0.953 -0.1921 -0.3413  0.8890
  468SOL     OW 1869   0.531   2.683   1.911  0.7782 -0.4254  0.4134
  468SOL    HW1 1870   0.477   2.597   1.909 -2.1419 -1.4583 -2.2931
  468SOL    HW2 1871   0.473   2.745   1.852 -2.0913 -2.3465 -1.1184
  468SOL     MW 1872   0.516   2.680   1.903  0.0144 -0.8152 -0.1458
  469SOL     OW 1873   0.326   2.122   1.818 -0.1913  0.6161 -0.1530
  469SOL    HW1 1874   0.263   2.068   1.868  0.4849  0.5856 -1.7336
  469SOL    HW2 1875   0.403   2.066   1.803 -0.5681  2.3734 -1.2810
  469SOL     MW 1876   0.328   2.107   1.823 -0.1518  0.8439 -0.5103
  470SOL     OW 1877   3.051   2.582   0.088 -0.2762 -0.0074 -0.1432
  470SOL    HW1 1878   2.974   2.590   0.146  1.1622  0.3831  1.2658
  470SOL    HW2 1879   3.026   2.609   0.000 -0.5005  1.5704 -0.2687
  470SOL     MW 1880   3.038   2.586   0.084 -0.1160  0.2523  0.0262
  471SOL     OW 1881   1.168   2.631   1.363 -0.3210  0.5084 -0.1000
  471SOL    HW1 1882   1.088   2.607   1.408 -0.5167  0.4913 -0.8358
  471SOL    HW2 1883   1.133   2.622   1.276 -0.1385 -1.5512  1.8604
  471SOL     MW 1884   1.153   2.627   1.357 -0.3227  0.2344  0.0616
  472SOL     OW 1885   2.957   2.122   0.339  0.8916  0.1193  0.1374
  472SOL    HW1 1886   2.934   2.087   0.251  1.0738  2.5153 -0.6277
  472SOL    HW2 1887   2.906   2.075   0.408 -1.8215 -0.0327  2.6545
  472SOL     MW 1888   2.947   2.111   0.337  0.5577  0.4154  0.3686
  473SOL     OW 1889   0.856   2.539   1.338  0.0995  0.1095 -0.3889
  473SOL    HW1 1890   0.868   2.445   1.328  1.4409  1.2630 -3.4632
  473SOL    HW2 1891   0.896   2.550   1.426  3.3210  0.4632 -2.5442
  473SOL     MW 1892   0.863   2.528   1.348  0.7015  0.3083 -1.0789
  474SOL     OW 1893   0.658   2.294   1.849  0.4878 -0.3922  0.2482
  474SOL    HW1 1894   0.740   2.288   1.894  0.8257  1.7436 -2.1605
  474SOL    HW2 1895   0.690   2.276   1.765 -1.3489  1.2313  3.3862
  474SOL     MW 1896   0.673   2.290   1.844  0.2900  0.1038  0.3444
  475SOL     OW 1897   1.584   3.067   1.546  0.1800 -0.2636 -0.2084
  475SOL    HW1 1898   1.508   3.044   1.498  1.2572  0.1378  0.6415
  475SOL    HW2 1899   1.640   2.992   1.559  2.0513  1.5588  0.0559
  475SOL     MW 1900   1.582   3.054   1.541  0.5690  0.0298 -0.0614
  476SOL     OW 1901   1.434   2.629   1.173 -0.7628  0.6143  0.2629
  476SOL    HW1 1902   1.352   2.660   1.150  0.7968  1.1567 -1.8202
  476SOL    HW2 1903   1.503   2.695   1.152  0.2532  1.7098  0.0720
  476SOL     MW 1904   1.432   2.642   1.167 -0.4230  0.8304 -0.0371
  477SOL     OW 1905   0.836   2.541   0.691  0.2391 -0.1915  0.9532
  477SOL    HW1 1906   0.928   2.557   0.695  1.1084  1.4032 -0.5929
  477SOL    HW2 1907   0.819   2.475   0.626  0.1041 -0.4110 -1.8683
  477SOL     MW 1908   0.846   2.535   0.683  0.3360 -0.0101  0.3770
  478SOL     OW 1909   0.236   2.636   0.917  0.3466  0.9661 -0.7944
  478SOL    HW1 1910   0.273   2.722   0.899 -1.5030 -0.4477  1.9628
  478SOL    HW2 1911   0.298   2.567   0.888 -0.7482  0.8901 -0.5005
  478SOL     MW 1912   0.249   2.638   0.911 -0.0419  0.7696 -0.3919
  479SOL     OW 1913   1.409   1.984   1.270  0.3500 -0.4767  0.1073
  479SOL    HW1 1914   1.402   2.017   1.363 -0.0471 -1.9787 -0.3143
  479SOL    HW2 1915   1.467   1.909   1.274 -2.8117 -2.6834 -0.8921
  479SOL     MW 1916   1.416   1.979   1.283 -0.1196 -0.9660 -0.0802
  480SOL     OW 1917   2.009   2.434   1.358 -0.2065  0.5531  0.4213
  480SOL    HW1 1918   2.016   2.340   1.374  1.3910 -0.1965  2.8068
  480SOL    HW2 1919   2.002   2.453   1.258 -1.2168  0.4712  0.1700
  480SOL     MW 1920   2.009   2.424   1.347 -0.1290  0.4434  0.7029
  481SOL     OW 1921   1.050   0.112   1.066  0.3385 -0.0407 -0.1187
  481SOL    HW1 1922   1.110   0.054   1.018  1.2461 -0.3640  0.4165
  481SOL    HW2 1923   1.104   0.172   1.118 -0.7837  1.3462  0.4528
  481SOL     MW 1924   1.065   0.113   1.066  0.3102  0.0996  0.0273
  482SOL     OW 1925   1.067   0.030   0.267  0.1375 -0.3822 -0.4758
  482SOL    HW1 1926   1.017  -0.027   0.328 -0.9003 -1.8813  0.1113
  482SOL    HW2 1927   1.074   0.111   0.320  0.4585  0.9188  1.0146
  482SOL     MW 1928   1.061   0.034   0.282  0.0429 -0.4084 -0.2017
  483SOL     OW 1929   0.431   3.004   0.463  0.6710 -0.1781  0.1988
  483SOL    HW1 1930   0.364   2.979   0.400 -0.5859  0.2134 -0.6188
  483SOL    HW2 1931   0.387   3.058   0.532 -2.3419  1.7538  2.5200
  483SOL     MW 1932   0.416   3.008   0.464  0.1077  0.1284  0.3972
  484SOL     OW 1933   1.830   2.004   1.432 -0.2799 -0.0369 -0.9959
  484SOL    HW1 1934   1.878   2.078   1.401 -1.9229  1.4918  1.4156
  484SOL    HW2 1935   1.820   2.017   1.530  2.1547  0.6060 -0.0354
  484SOL     MW 1936   1.835   2.015   1.441 -0.1755  0.2497 -0.5510
  485SOL     OW 1937   0.602   2.406   0.270  0.4554  0.3699  0.1339
  485SOL    HW1 1938   0.647   2.408   0.360  2.5445  2.4256  2.6319
  485SOL    HW2 1939   0.513   2.444   0.279  0.9160 -0.7579  2.2451
  485SOL     MW 1940   0.597   2.411   0.283  0.7918  0.4923  0.7420
  486SOL     OW 1941   0.192   2.418   1.424 -0.2595 -0.2328 -0.8075
  486SOL    HW1 1942   0.210   2.509   1.397 -0.8420 -0.9790  0.3925
  486SOL    HW2 1943   0.168   2.425   1.515  0.8937  0.6290  0.2637
  486SOL     MW 1944   0.191   2.431   1.433 -0.1842 -0.2176 -0.5078
  487SOL     OW 1945   1.199   1.755   1.021 -0.5993 -0.2154 -0.0964
  487SOL    HW1 1946   1.172   1.829   1.077 -0.8992  1.7924  2.1049
  487SOL    HW2 1947   1.293   1.745   1.030  1.0184  0.0247 -3.3830
  487SOL     MW 1948   1.208   1.763   1.029 -0.4255  0.0812 -0.2396
  488SOL     OW 1949   1.598   1.817   0.569 -0.0981  0.2967  0.1304
  488SOL    HW1 1950   1.687   1.816   0.540 -1.8339 -0.2186 -1.9765
  488SOL    HW2 1951   1.558   1.900   0.533  1.9039  1.9200 -1.4771
  488SOL     MW 1952   1.604   1.828   0.560 -0.0630  0.4429 -0.3597
  489SOL     OW 1953   0.786   0.831   0.626 -0.0584 -0.2240  0.0739
  489SOL    HW1 1954   0.795   0.759   0.562 -0.6251  0.6216 -0.4337
  489SOL    HW2 1955   0.770   0.778   0.707 -2.0851 -0.2741 -0.2487
  489SOL     MW 1956   0.785   0.814   0.628 -0.4006 -0.1191 -0.0356
  490SOL     OW 1957   1.445   2.062   0.534 -0.4661  0.3225  0.3190
  490SOL    HW1 1958   1.461   2.141   0.474  0.1661  1.2666 -0.8782
  490SOL    HW2 1959   1.358   2.038   0.511 -0.4639  0.1876  2.2331
  490SOL     MW 1960   1.435   2.069   0.523 -0.3824  0.4293  0.4136
  491SOL     OW 1961   1.243   2.990   0.413  0.2720  0.4101 -0.1630
  491SOL    HW1 1962   1.328   3.026   0.400 -4.4543  0.3183 -1.7506
  491SOL    HW2 1963   1.184   3.048   0.360 -1.8722  0.5092 -2.8027
  491SOL     MW 1964   1.246   3.003   0.404 -0.6345  0.4111 -0.7207
  492SOL     OW 1965   1.522   2.218   0.747  0.2181 -0.6697 -0.6042
  492SOL    HW1 1966   1.473   2.171   0.680 -1.1419 -0.0623 -2.0252
  492SOL    HW2 1967   1.496   2.170   0.823 -0.0594 -1.1183  0.5259
  492SOL     MW 1968   1.512   2.206   0.748  0.0020 -0.6488 -0.6426
  493SOL     OW 1969   0.209   2.961   0.288  0.4427 -0.5291  0.1042
  493SOL    HW1 1970   0.187   3.022   0.361  1.0569 -1.2934 -0.2266
  493SOL    HW2 1971   0.199   3.008   0.208  1.6839 -2.0388 -3.8122
  493SOL     MW 1972   0.205   2.975   0.287  0.6875 -0.8291 -0.4562
  494SOL     OW 1973   0.418   2.449   1.773  0.3603 -0.2706 -0.0130
  494SOL    HW1 1974   0.477   2.379   1.789 -0.3280  0.6057  0.4393
  494SOL    HW2 1975   0.455   2.489   1.698  0.2759 -1.0115  3.3348
  494SOL     MW 1976   0.430   2.445   1.765  0.2584 -0.2527  0.4884
  495SOL     OW 1977   2.838   1.745   2.570 -0.0888 -0.3791 -0.1605
  495SOL    HW1 1978   2.785   1.828   2.562 -0.0498  3.2413  1.8210
  495SOL    HW2 1979   2.827   1.694   2.656  2.3919  1.6899  0.5395
  495SOL     MW 1980   2.830   1.749   2.581  0.2436  0.3716  0.1933
  496SOL     OW 1981   2.923   2.366   2.664  0.2214 -0.1553 -0.4137
  496SOL    HW1 1982   2.971   2.313   2.726 -4.0105  0.2191  1.2336
  496SOL    HW2 1983   2.970   2.452   2.658 -1.2676  1.5736  0.0353
  496SOL     MW 1984   2.936   2.371   2.672 -0.5334  0.1222 -0.1371
  497SOL     OW 1985   1.555   2.206   2.659 -0.5698  0.5005  0.2088
  497SOL    HW1 1986   1.495   2.134   2.634  0.6041  0.8908 -0.9432
  497SOL    HW2 1987   1.604   2.153   2.725  2.1331  1.4923  0.5329
  497SOL     MW 1988   1.554   2.190   2.665 -0.0583  0.6829  0.0996
  498SOL     OW 1989   1.490   2.677   2.374 -0.0204 -0.5162 -0.4729
  498SOL    HW1 1990   1.472   2.582   2.379 -1.6354 -0.2747 -2.7339
  498SOL    HW2 1991   1.581   2.683   2.361 -0.5164 -1.5510  1.5606
  498SOL     MW 1992   1.499   2.665   2.373 -0.2989 -0.6209 -0.5029
  499SOL     OW 1993   0.993   0.160   3.058 -0.6308 -0.1777  0.4816
  499SOL    HW1 1994   0.917   0.152   3.126  1.4096 -1.0705 -0.4892
  499SOL    HW2 1995   1.054   0.095   3.089  0.7923  0.2567  4.4009
  499SOL     MW 1996   0.991   0.150   3.071 -0.1739 -0.2382  0.8707
  500SOL     OW 1997   1.047   2.496   2.761  0.1343 -0.1152  0.2507
  500SOL    HW1 1998   1.125   2.501   2.817 -1.3828 -1.4315  0.5173
  500SOL    HW2 1999   0.980   2.487   2.826  0.1245  2.3490  2.0703
  500SOL     MW 2000   1.048   2.496   2.777 -0.0671  0.0363  0.5260
  501SOL     OW 2001   1.769   2.209   3.084 -0.4984  0.2236  0.0646
  501SOL    HW1 2002   1.738   2.299   3.097  0.1980  0.6918 -3.5393
  501SOL    HW2 2003   1.860   2.217   3.058  1.1191  0.3261  1.2203
  501SOL     MW 2004   1.777   2.222   3.083 -0.1931  0.2989 -0.2584
  502SOL     OW 2005   0.142   2.817   3.055 -0.2755  0.0018 -0.4272
  502SOL    HW1 2006   0.081   2.768   3.004 -0.5729 -1.6734  2.9089
  502SOL    HW2 2007   0.175   2.883   2.992  0.4785  2.1377 -1.0982
  502SOL     MW 2008   0.138   2.819   3.040 -0.2153  0.0626 -0.0756
  503SOL     OW 2009   0.979   2.862   2.167  0.4172  0.6147  0.2217
  503SOL    HW1 2010   0.937   2.820   2.093  0.5526  2.7433  1.1963
  503SOL    HW2 2011   0.954   2.951   2.164 -1.3741 -4.3786 -1.8400
  503SOL     MW 2012   0.970   2.868   2.157  0.1987  0.2368  0.0783
  504SOL     OW 2013   0.048   2.744   2.155  0.3709 -0.2150 -0.1175
  504SOL    HW1 2014   0.055   2.658   2.106  2.3742 -0.3170 -2.3900
  504SOL    HW2 2015   0.076   2.703   2.242 -0.2945 -0.0589  0.3202
  504SOL     MW 2016   0.053   2.727   2.160  0.5474 -0.2078 -0.3596
  505SOL     OW 2017   1.721   2.730   2.671 -0.0220  0.1081  0.3700
  505SOL    HW1 2018   1.690   2.770   2.590 -0.4364  0.5378 -0.9067
  505SOL    HW2 2019   1.645   2.745   2.728  1.2839 -0.4002 -0.6239
  505SOL     MW 2020   1.707   2.737   2.668  0.0956  0.0977  0.0704
  506SOL     OW 2021   1.607   2.994   2.818  0.0889 -0.6206  0.0596
  506SOL    HW1 2022   1.660   2.959   2.892 -1.4297  0.4885  2.0008
  506SOL    HW2 2023   1.680   3.011   2.755  1.2890 -0.7440  1.7239
  506SOL     MW 2024   1.624   2.992   2.819  0.0469 -0.4906  0.5353
  507SOL     OW 2025   0.823   2.749   2.885 -0.3798  0.5598  0.1037
  507SOL    HW1 2026   0.870   2.798   2.819 -0.3530 -2.2336  3.6218
  507SOL    HW2 2027   0.744   2.803   2.911  2.3102  1.2543 -0.5899
  507SOL     MW 2028   0.819   2.763   2.880 -0.0213  0.2829  0.4764
  508SOL     OW 2029   1.130   2.026   2.532  0.4106 -0.0440 -0.3246
  508SOL    HW1 2030   1.210   2.012   2.580 -1.2277  2.0551  0.0451
  508SOL    HW2 2031   1.105   2.113   2.558  0.8354 -1.2501 -0.9109
  508SOL     MW 2032   1.137   2.035   2.541  0.2505  0.0738 -0.3532
  509SOL     OW 2033   0.584   2.540   2.910 -0.5420 -0.3738 -0.6236
  509SOL    HW1 2034   0.565   2.537   2.815 -1.8903  0.4433 -4.1797
  509SOL    HW2 2035   0.522   2.489   2.961 -1.3309 -0.8110 -1.7935
  509SOL     MW 2036   0.574   2.533   2.904 -0.8240 -0.3236 -1.2472
  510SOL     OW 2037   1.511   2.541   1.716 -0.0335 -0.8755 -0.0961
  510SOL    HW1 2038   1.516   2.635   1.735 -0.4438  0.4280  0.0512
  510SOL    HW2 2039   1.451   2.508   1.777 -0.0994 -0.3729 -2.1240
  510SOL     MW 2040   1.504   2.549   1.727 -0.0963 -0.6372 -0.3442
  511SOL     OW 2041   0.383   2.606   2.446  0.5809 -0.2867  0.3210
  511SOL    HW1 2042   0.459   2.617   2.499 -1.9790  1.0206 -1.8833
  511SOL    HW2 2043   0.429   2.600   2.360  0.1636 -2.0363  3.4648
  511SOL     MW 2044   0.399   2.607   2.442  0.1881 -0.3451  0.4450
  512SOL     OW 2045   1.018   1.984   2.837 -0.5156 -0.2944  0.1453
  512SOL    HW1 2046   0.928   2.009   2.851  0.3406  0.5761  1.9217
  512SOL    HW2 2047   1.021   1.899   2.879 -0.3525  0.8748  1.7020
  512SOL     MW 2048   1.007   1.976   2.845 -0.3811 -0.0253  0.5851
  513SOL     OW 2049   1.453   2.411   2.399  0.0430  0.6259  0.1090
  513SOL    HW1 2050   1.533   2.393   2.454  2.3006  0.7523  0.0834
  513SOL    HW2 2051   1.406   2.327   2.394  1.5499 -1.3055  0.3462
  513SOL     MW 2052   1.457   2.398   2.405  0.5397  0.3877  0.1369
  514SOL     OW 2053   0.230   2.432   2.619 -0.4003 -0.2823  0.5457
  514SOL    HW1 2054   0.239   2.506   2.555 -0.3653  2.2695 -0.4959
  514SOL    HW2 2055   0.250   2.471   2.711  1.9388  2.0114 -0.9228
  514SOL     MW 2056   0.234   2.447   2.622 -0.0871  0.3571  0.2145
  515SOL     OW 2057   1.121   2.034   1.949  0.7971  0.7187 -0.0283
  515SOL    HW1 2058   1.050   2.094   1.960  2.4833 -1.4895 -2.2578
  515SOL    HW2 2059   1.181   2.051   2.024 -1.5020  0.5669 -0.2616
  515SOL     MW 2060   1.119   2.044   1.960  0.7162  0.4073 -0.3532
  516SOL     OW 2061   1.457   2.531   3.046 -0.1255  0.1508 -0.7406
  516SOL    HW1 2062   1.513   2.513   2.972  1.3177  0.8859  3.1963
  516SOL    HW2 2063   1.377   2.489   3.019 -1.9724 -1.2591 -1.6300
  516SOL     MW 2064   1.454   2.523   3.033 -0.1788  0.0618 -0.3385
  517SOL     OW 2065   0.595   2.399   2.125  0.0041  0.1841  0.1828
  517SOL    HW1 2066   0.573   2.494   2.141  0.8253 -3.4847 -1.9661
  517SOL    HW2 2067   0.506   2.371   2.107 -1.3976 -0.5649 -0.5975
  517SOL     MW 2068   0.581   2.408   2.125 -0.0725 -0.3988 -0.2037
  518SOL     OW 2069   1.889   0.092   2.951  0.0261  0.0127 -0.0537
  518SOL    HW1 2070   1.834   0.146   2.891 -1.0223 -1.5740 -2.2211
  518SOL    HW2 2071   1.851   0.089   3.042  1.8236 -1.4533  1.3126
  518SOL     MW 2072   1.877   0.099   2.955  0.1249 -0.3901 -0.1594
  519SOL     OW 2073   0.727   2.576   1.774 -0.2546 -0.1421  0.5100
  519SOL    HW1 2074   0.692   2.483   1.776 -2.0988 -3.4164 -0.8568
  519SOL    HW2 2075   0.656   2.626   1.814 -2.4462  0.2698  1.6556
  519SOL     MW 2076   0.713   2.570   1.779 -0.7870 -0.5198  0.4808
  520SOL     OW 2077   1.221   2.138   2.916 -0.2400  0.8259  0.1754
  520SOL    HW1 2078   1.146   2.082   2.887  1.6238 -0.2291 -0.2822
  520SOL    HW2 2079   1.264   2.091   2.985  1.6597  1.1686  0.1576
  520SOL     MW 2080   1.217   2.124   2.921  0.2565  0.7320  0.1127
  521SOL     OW 2081   1.746   2.026   2.227  0.3366 -0.3077  0.1469
  521SOL    HW1 2082   1.744   2.057   2.136  0.7838 -0.2820  0.0913
  521SOL    HW2 2083   1.745   1.933   2.212  1.3527  0.1398 -1.2565
  521SOL     MW 2084   1.746   2.017   2.213  0.5297 -0.2453 -0.0456
  522SOL     OW 2085   2.821   2.572   2.195  0.2550  0.5591  0.4384
  522SOL    HW1 2086   2.892   2.531   2.235 -0.7949 -1.4449  1.6999
  522SOL    HW2 2087   2.794   2.630   2.264 -1.5020  1.3406  0.9283
  522SOL     MW 2088   2.827   2.574   2.209 -0.1154  0.3978  0.6695
  523SOL     OW 2089   0.834   1.494   2.131 -0.0743  0.4362  0.3360
  523SOL    HW1 2090   0.844   1.577   2.081 -2.3860  0.0897  0.1950
  523SOL    HW2 2091   0.891   1.437   2.074  1.1491  0.6511  0.1187
  523SOL     MW 2092   0.843   1.498   2.117 -0.2179  0.4188  0.2887
  524SOL     OW 2093   0.863   2.458   2.970 -0.3332 -0.4671  0.0662
  524SOL    HW1 2094   0.825   2.542   2.933 -0.4931 -2.2716 -1.4083
  524SOL    HW2 2095   0.810   2.388   2.933 -1.2768  0.3850 -1.3994
  524SOL     MW 2096   0.851   2.460   2.960 -0.4788 -0.5928 -0.3217
  525SOL     OW 2097   0.364   2.294   2.048  0.1482  0.7858 -0.8215
  525SOL    HW1 2098   0.350   2.211   2.106  0.6132 -0.9894  0.7040
  525SOL    HW2 2099   0.371   2.256   1.958 -0.2877  1.7322 -0.5422
  525SOL     MW 2100   0.363   2.278   2.044  0.1520  0.6765 -0.5834
  526SOL     OW 2101   0.642   2.107   2.055 -0.1757  0.5605  0.4428
  526SOL    HW1 2102   0.617   2.144   1.973  0.1158 -1.2115  0.6290
  526SOL    HW2 2103   0.658   2.184   2.112  2.6185  0.9653 -0.2780
  526SOL     MW 2104   0.641   2.122   2.052  0.2314  0.3801  0.3723
  527SOL     OW 2105   1.394   1.981   2.088  0.1574  0.1525  0.8250
  527SOL    HW1 2106   1.361   1.954   2.177  1.3867  2.0610  4.0226
  527SOL    HW2 2107   1.423   1.898   2.047  0.5567 -0.9443  4.4547
  527SOL     MW 2108   1.393   1.966   2.094  0.3723  0.2596  1.7258
  528SOL     OW 2109   0.648   2.942   2.954 -0.3180  0.6707  0.2683
  528SOL    HW1 2110   0.694   3.022   2.937  0.0379 -0.1109 -1.1361
  528SOL    HW2 2111   0.576   2.953   2.890  0.4386  1.2667 -1.2026
  528SOL     MW 2112   0.644   2.954   2.944 -0.1713  0.6462 -0.1111
  529SOL     OW 2113   0.957   2.267   1.947  0.3442  0.0919  0.1348
  529SOL    HW1 2114   1.005   2.295   2.027  1.1439 -0.2127  0.4565
  529SOL    HW2 2115   1.014   2.286   1.877  0.0416  0.8711  2.1864
  529SOL     MW 2116   0.971   2.273   1.948  0.4098  0.1545  0.4479
  530SOL     OW 2117   1.235   2.411   2.976 -0.0683  0.1403 -0.2960
  530SOL    HW1 2118   1.158   2.418   3.033  1.6458 -2.5374 -1.9182
  530SOL    HW2 2119   1.225   2.326   2.932 -2.0685 -0.0265  0.0514
  530SOL     MW 2120   1.224   2.401   2.978 -0.1060 -0.2350 -0.4642
  531SOL     OW 2121   0.933   1.854   2.568 -0.1644 -0.1655  0.1218
  531SOL    HW1 2122   0.997   1.920   2.586 -0.6997 -2.1783  3.4615
  531SOL    HW2 2123   0.886   1.850   2.645  4.3822  1.7094 -1.5814
  531SOL     MW 2124   0.935   1.862   2.580  0.3648 -0.1837  0.3377
  532SOL     OW 2125   1.761   0.235   2.773 -0.6034 -1.0258 -0.2070
  532SOL    HW1 2126   1.665   0.216   2.751 -0.8369  0.4401 -0.3665
  532SOL    HW2 2127   1.813   0.222   2.690 -0.2167 -1.0079  1.1399
  532SOL     MW 2128   1.755   0.231   2.759 -0.5832 -0.8300 -0.0504
  533SOL     OW 2129   1.911   2.591   0.005  0.4603 -0.8818  0.2739
  533SOL    HW1 2130   1.854   2.529   0.053  1.1696 -1.2891  0.4858
  533SOL    HW2 2131   1.853   2.671  -0.016 -0.5936  2.6743  1.6067
  533SOL     MW 2132   1.896   2.594   0.009  0.4148 -0.4663  0.4777
  534SOL     OW 2133   1.714   2.374   2.476 -0.4128 -0.3192  0.1819
  534SOL    HW1 2134   1.674   2.300   2.522  1.0851 -0.1146 -0.0553
  534SOL    HW2 2135   1.785   2.401   2.540  0.6095 -0.3135  2.0423
  534SOL     MW 2136   1.718   2.368   2.490 -0.0803 -0.2915  0.3961
  535SOL     OW 2137   1.894   2.413   1.861 -0.0842 -0.2044 -0.2206
  535SOL    HW1 2138   1.847   2.408   1.776 -0.0794  0.1295  0.3688
  535SOL    HW2 2139   1.986   2.380   1.858 -0.6443  1.3814  0.6889
  535SOL     MW 2140   1.900   2.408   1.849 -0.1574  0.0489 -0.0228
  536SOL     OW 2141   0.496   1.845   2.126 -0.6691  0.1706  0.7616
  536SOL    HW1 2142   0.450   1.836   2.038  2.3103 -0.1560  1.2863
  536SOL    HW2 2143   0.545   1.922   2.118 -1.4996 -2.4272 -0.8554
  536SOL     MW 2144   0.496   1.854   2.113 -0.3855 -0.2152  0.6175
  537SOL     OW 2145   1.081   0.258   2.778  0.0189  0.4370 -0.1700
  537SOL    HW1 2146   1.060   0.301   2.859 -0.2244  1.4487  0.2935
  537SOL    HW2 2147   1.067   0.327   2.706 -0.6529  0.7650 -0.3408
  537SOL     MW 2148   1.076   0.273   2.779 -0.1018  0.6137 -0.1314
  538SOL     OW 2149   1.430   0.045   0.067 -0.0226 -0.2512  0.5020
  538SOL    HW1 2150   1.427   0.140   0.081  2.5669 -1.0891 -1.1831
  538SOL    HW2 2151   1.347   0.010   0.036 -1.4033 -1.5418 -1.1191
  538SOL     MW 2152   1.419   0.053   0.065  0.1369 -0.5320  0.0658
  539SOL     OW 2153   0.687   2.785   2.588  0.2752  0.1508  0.2709
  539SOL    HW1 2154   0.776   2.804   2.625  2.1469 -4.1384  2.0207
  539SOL    HW2 2155   0.665   2.694   2.625 -0.2033  0.5452  0.6633
  539SOL     MW 2156   0.696   2.776   2.598  0.4590 -0.3631  0.5535
  540SOL     OW 2157   0.256   2.466   2.897  0.1805 -0.4144 -0.1449
  540SOL    HW1 2158   0.280   2.527   2.969  0.5406 -0.2682 -3.2499
  540SOL    HW2 2159   0.236   2.381   2.942  3.0167  1.0638  0.6098
  540SOL     MW 2160   0.256   2.463   2.913  0.6022 -0.2001 -0.4550
  541SOL     OW 2161   0.252   2.953   2.141  0.0793  0.3219  0.1167
  541SOL    HW1 2162   0.193   2.883   2.120  1.9637 -0.0202 -1.0228
  541SOL    HW2 2163   0.291   2.911   2.223  0.3845 -0.5876  1.7994
  541SOL     MW 2164   0.249   2.938   2.149  0.3682  0.1568  0.1884
  542SOL     OW 2165   0.982   2.270   2.589 -0.1700  0.4030 -0.3739
  542SOL    HW1 2166   0.915   2.239   2.648 -0.8734  1.5023 -0.0444
  542SOL    HW2 2167   1.032   2.339   2.644  0.4753 -1.0477  1.8488
  542SOL     MW 2168   0.980   2.275   2.604 -0.1777  0.3567 -0.0372
  543SOL     OW 2169   1.600   2.433   2.812 -0.8548 -0.1643  0.4368
  543SOL    HW1 2170   1.560   2.358   2.767  1.7873  0.9958  2.5070
  543SOL    HW2 2171   1.589   2.517   2.767  0.3523 -0.4714 -1.3498
  543SOL     MW 2172   1.594   2.435   2.800 -0.3469 -0.0517  0.4742
  544SOL     OW 2173   0.705   0.286   2.709 -0.0183  0.7079  0.5092
  544SOL    HW1 2174   0.610   0.275   2.722  1.1019 -0.3188 -1.4303
  544SOL    HW2 2175   0.724   0.244   2.626 -2.4370 -1.4901  0.9387
  544SOL     MW 2176   0.695   0.279   2.699 -0.1896  0.2825  0.3099
  545SOL     OW 2177   1.484   2.122   2.326 -0.0717 -0.1308  0.0094
  545SOL    HW1 2178   1.438   2.154   2.250  1.5173 -0.9137  0.3880
  545SOL    HW2 2179   1.575   2.103   2.285 -0.1526  1.6303  1.2427
  545SOL     MW 2180   1.490   2.124   2.311  0.1273 -0.0018  0.2221
  546SOL     OW 2181   2.878   1.947   0.119 -0.3097 -0.2110  0.7251
  546SOL    HW1 2182   2.855   2.022   0.065  0.0429 -0.4243 -2.3601
  546SOL    HW2 2183   2.971   1.920   0.097 -0.1537  2.3672 -0.3138
  546SOL     MW 2184   2.887   1.954   0.109 -0.2426  0.1010  0.1810
  547SOL     OW 2185   0.222   0.073   0.095 -0.0775  0.7246  0.6059
  547SOL    HW1 2186   0.291   0.089   0.031  2.0166  0.4417 -1.4947
  547SOL    HW2 2187   0.151   0.042   0.039  2.2328 -1.4922 -0.0382
  547SOL     MW 2188   0.222   0.071   0.079  0.5036  0.3948  0.2438
  548SOL     OW 2189   0.319   2.499   0.238  0.4860  0.4830  0.7906
  548SOL    HW1 2190   0.340   2.544   0.154 -0.8223  1.4453  1.1448
  548SOL    HW2 2191   0.242   2.456   0.216  0.6730  1.5101 -0.7332
  548SOL     MW 2192   0.311   2.500   0.224  0.3380  0.7455  0.6363
  549SOL     OW 2193   0.851   1.931   2.108 -0.4035  0.3303 -0.2410
  549SOL    HW1 2194   0.799   2.003   2.083  0.7631 -1.9462  1.6942
  549SOL    HW2 2195   0.829   1.928   2.200 -0.8688  1.6266  1.4930
  549SOL     MW 2196   0.841   1.940   2.117 -0.3110  0.2010  0.2431
  550SOL     OW 2197   1.895   1.703   2.502 -0.6026 -0.5417 -0.2605
  550SOL    HW1 2198   1.851   1.722   2.419  1.9392  1.4263  1.4540
  550SOL    HW2 2199   1.869   1.773   2.561 -2.5689 -4.6597 -0.9767
  550SOL     MW 2200   1.886   1.715   2.499 -0.5267 -0.8254 -0.1288
  551SOL     OW 2201   0.914   2.212   0.220  0.7567  0.1432 -0.8876
  551SOL    HW1 2202   1.005   2.236   0.224 -2.0477 -0.5016  1.4583
  551SOL    HW2 2203   0.898   2.162   0.137 -2.4810 -2.4991 -1.7069
  551SOL     MW 2204   0.924   2.209   0.209 -0.0405 -0.2905 -0.6862
  552SOL     OW 2205   1.754   1.730   2.245  0.1899 -0.5579 -0.1373
  552SOL    HW1 2206   1.672   1.693   2.252  2.7557  4.7299  0.7001
  552SOL    HW2 2207   1.796   1.692   2.163  1.3421  1.5636  1.7398
  552SOL     MW 2208   1.749   1.720   2.236  0.6805  0.4197  0.2209
  553SOL     OW 2209   1.226   2.320   1.552  0.3895 -0.1826  0.5509
  553SOL    HW1 2210   1.267   2.233   1.533  0.0153  0.9198 -0.8791
  553SOL    HW2 2211   1.282   2.375   1.498 -2.4509 -1.6766  2.2448
  553SOL     MW 2212   1.239   2.316   1.543 -0.0347 -0.2343  0.5857
  554SOL     OW 2213   0.482   2.940   2.701 -0.1525  0.6456 -0.3727
  554SOL    HW1 2214   0.484   3.005   2.636  0.8428  0.1729  1.4679
  554SOL    HW2 2215   0.565   2.896   2.681  0.1444  0.6127  0.0434
  554SOL     MW 2216   0.493   2.943   2.690  0.0180  0.5789 -0.0750
  555SOL     OW 2217   0.618   2.525   2.629  1.0375  0.4634  0.2796
  555SOL    HW1 2218   0.580   2.433   2.645 -1.0701 -0.1014 -2.0889
  555SOL    HW2 2219   0.696   2.505   2.577 -0.4514  2.0967  2.4005
  555SOL     MW 2220   0.623   2.511   2.625  0.5630  0.6044  0.2469
  556SOL     OW 2221   1.064   1.873   0.059  0.1585  0.0408 -0.0876
  556SOL    HW1 2222   1.078   1.802  -0.002  1.1931  0.8785  0.3585
  556SOL    HW2 2223   1.119   1.854   0.131 -2.0536 -2.6761  0.6010
  556SOL     MW 2224   1.073   1.861   0.060  0.0032 -0.2071  0.0621
  557SOL     OW 2225   1.048   2.727   0.554  0.2085 -0.1729  0.0263
  557SOL    HW1 2226   1.056   2.668   0.487  1.7165 -0.5437  3.9817
  557SOL    HW2 2227   1.024   2.809   0.507  0.7745 -0.8741  1.2468
  557SOL     MW 2228   1.046   2.730   0.539  0.4821 -0.3143  0.7092
  558SOL     OW 2229   0.201   2.233   3.044  0.3249  0.4835 -0.6037
  558SOL    HW1 2230   0.163   2.153   3.007  2.2185 -1.2687  1.0955
  558SOL    HW2 2231   0.141   2.253   3.120 -1.3003 -1.9118  3.5089
  558SOL     MW 2232   0.188   2.225   3.049  0.3603 -0.0637  0.1631
  559SOL     OW 2233   1.065   2.353   2.191 -0.2308 -0.4876  1.1164
  559SOL    HW1 2234   1.156   2.376   2.183  0.7199 -1.5936  0.9256
  559SOL    HW2 2235   1.066   2.269   2.239 -1.2051  1.6408  1.2250
  559SOL     MW 2236   1.077   2.345   2.196 -0.2339 -0.3527  1.1055
  560SOL     OW 2237   2.142   2.670   0.168  0.6678 -0.0422  0.1067
  560SOL    HW1 2238   2.152   2.752   0.114  2.3450 -0.9703  0.8926
  560SOL    HW2 2239   2.067   2.630   0.121  0.4750  2.1865 -1.9626
  560SOL     MW 2240   2.133   2.675   0.154  0.8636  0.1294 -0.0626
  561SOL     OW 2241   0.497   2.170   0.177 -0.0690  0.3492  0.6688
  561SOL    HW1 2242   0.432   2.215   0.123 -2.7670 -0.6808  1.3456
  561SOL    HW2 2243   0.549   2.241   0.226 -1.6991 -0.7127  2.3718
  561SOL     MW 2244   0.495   2.186   0.176 -0.6400  0.0732  0.9828
  562SOL     OW 2245   0.683   2.271   2.365 -0.8358  0.1941 -0.4171
  562SOL    HW1 2246   0.644   2.344   2.326 -1.0842 -0.6557  1.3054
  562SOL    HW2 2247   0.751   2.332   2.395 -2.4336 -0.2046 -0.0455
  562SOL     MW 2248   0.687   2.289   2.364 -1.0794  0.0294 -0.1408
  563SOL     OW 2249   1.224   0.390   0.580 -0.0201  0.0876 -0.1629
  563SOL    HW1 2250   1.159   0.351   0.525  1.1382 -0.0287  3.8322
  563SOL    HW2 2251   1.215   0.355   0.664  2.0383 -0.1856 -1.4756
  563SOL     MW 2252   1.214   0.380   0.584  0.4043  0.0362  0.1910
  564SOL     OW 2253   1.020   2.668   2.362 -0.3268  0.2531 -0.3218
  564SOL    HW1 2254   1.046   2.752   2.314  1.1729 -1.6140 -0.0378
  564SOL    HW2 2255   1.052   2.697   2.450 -0.3664  0.3669 -2.2025
  564SOL     MW 2256   1.028   2.683   2.368 -0.1342  0.0218 -0.5324
  565SOL     OW 2257   2.759   2.820   2.581 -0.2510 -0.7640  0.8629
  565SOL    HW1 2258   2.729   2.882   2.515  1.5183 -0.3153  0.8998
  565SOL    HW2 2259   2.736   2.738   2.530 -1.4903  0.7843  3.0469
  565SOL     MW 2260   2.752   2.817   2.565 -0.1811 -0.5005  1.1559
  566SOL     OW 2261   2.196   1.962   2.349 -0.0877  0.2422  0.0334
  566SOL    HW1 2262   2.185   1.934   2.262 -0.8210  1.4062  0.5273
  566SOL    HW2 2263   2.276   2.013   2.354 -0.0733 -3.5012 -2.0612
  566SOL     MW 2264   2.205   1.965   2.338 -0.1825 -0.0982 -0.1778
  567SOL     OW 2265   1.181   3.051   0.034 -0.6381  0.8787 -0.3457
  567SOL    HW1 2266   1.142   3.068   0.120  1.6204  2.1988 -0.5587
  567SOL    HW2 2267   1.236   2.969   0.038  0.2886 -0.1339 -1.3302
  567SOL     MW 2268   1.183   3.043   0.046 -0.2179  0.9193 -0.5037
  568SOL     OW 2269   1.651   2.034   2.842 -0.3047 -0.4051  0.3795
  568SOL    HW1 2270   1.687   2.093   2.912  0.5150 -1.4282 -2.0075
  568SOL    HW2 2271   1.716   1.973   2.797  0.7746 -1.4399 -1.7315
  568SOL     MW 2272   1.664   2.034   2.846 -0.0542 -0.6766 -0.2140
  569SOL     OW 2273   0.115   2.253   2.440  0.3048  0.1813  0.4257
  569SOL    HW1 2274   0.057   2.325   2.404  0.2822 -1.7342  0.0369
  569SOL    HW2 2275   0.140   2.287   2.524  1.6601 -2.1139 -1.1922
  569SOL     MW 2276   0.111   2.267   2.446  0.4806 -0.3743  0.1609
  570SOL     OW 2277   1.495   0.331   0.463  0.5219 -0.2275 -0.4975
  570SOL    HW1 2278   1.411   0.339   0.506 -0.7727 -1.9732  1.7075
  570SOL    HW2 2279   1.562   0.370   0.520 -4.0239  1.3636 -1.0077
  570SOL     MW 2280   1.493   0.337   0.476 -0.2487 -0.2479 -0.2739
  571SOL     OW 2281   1.342   2.384   2.141  0.1537  0.0329 -0.0363
  571SOL    HW1 2282   1.389   2.416   2.222  1.4995  0.2407 -0.8683
  571SOL    HW2 2283   1.399   2.317   2.095  0.8074  0.6254 -0.8805
  571SOL     MW 2284   1.355   2.380   2.145  0.4175  0.1385 -0.2574
  572SOL     OW 2285   1.084   2.580   0.084  0.6381  0.4405  0.0947
  572SOL    HW1 2286   1.083   2.661   0.018  1.2324 -0.3767  2.0582
  572SOL    HW2 2287   0.989   2.565   0.108 -0.1044  1.4106 -0.1216
  572SOL     MW 2288   1.071   2.589   0.078  0.6185  0.4607  0.3252
  573SOL     OW 2289   1.183   2.269   0.249 -0.0710 -0.0367  0.5669
  573SOL    HW1 2290   1.256   2.281   0.189 -0.5372  3.4348  0.6045
  573SOL    HW2 2291   1.170   2.355   0.295  0.2006  1.3427  1.1605
  573SOL     MW 2292   1.191   2.282   0.247 -0.0967  0.6034  0.6502
  574SOL     OW 2293   1.157   2.517   0.349 -0.1816  0.5729  0.4529
  574SOL    HW1 2294   1.232   2.578   0.373  1.9495  3.7919  0.1538
  574SOL    HW2 2295   1.139   2.541   0.255  1.4866 -2.0552  1.8171
  574SOL     MW 2296   1.165   2.528   0.340  0.3197  0.6509  0.5934
  575SOL     OW 2297   3.071   2.195   1.618 -0.0695  0.1167 -0.4487
  575SOL    HW1 2298   3.098   2.103   1.611  0.5355 -0.1608 -2.2501
  575SOL    HW2 2299   3.150   2.239   1.641  1.0576 -1.4976 -1.8034
  575SOL     MW 2300   3.085   2.189   1.620  0.1591 -0.1329 -0.8652
  576SOL     OW 2301   2.871   1.877   1.958  0.5531  0.3024  0.2827
  576SOL    HW1 2302   2.920   1.951   1.925  1.7246 -0.2883 -0.8885
  576SOL    HW2 2303   2.816   1.829   1.892 -1.3959 -1.5479 -1.7010
  576SOL     MW 2304   2.870   1.880   1.945  0.4505 -0.0197 -0.1336
  577SOL     OW 2305   2.108   0.143   0.012  0.0724 -0.5216  0.6299
  577SOL    HW1 2306   2.035   0.139  -0.054 -1.5145 -0.8229 -0.7726
  577SOL    HW2 2307   2.074   0.106   0.090 -1.3102  0.2179 -2.6629
  577SOL     MW 2308   2.094   0.137   0.013 -0.3194 -0.4638  0.0104
  578SOL     OW 2309   1.984   2.143   2.367  0.0865 -0.1346 -0.5665
  578SOL    HW1 2310   1.916   2.103   2.310  1.6399 -1.4328  1.1445
  578SOL    HW2 2311   2.059   2.076   2.356  0.3841  1.2697 -2.8336
  578SOL     MW 2312   1.985   2.129   2.358  0.3307 -0.1206 -0.6399
  579SOL     OW 2313   0.833   2.470   2.470  0.2522  1.1683  0.3768
  579SOL    HW1 2314   0.890   2.412   2.512 -1.4395  0.6220  0.2583
  579SOL    HW2 2315   0.897   2.524   2.427 -0.9186  2.7237  1.2606
  579SOL     MW 2316   0.849   2.470   2.470 -0.1255  1.3014  0.4778
  580SOL     OW 2317   0.972   2.861   3.087  0.1462  0.0392  0.5197
  580SOL    HW1 2318   1.030   2.928   3.051 -2.2002 -0.1181 -0.8800
  580SOL    HW2 2319   0.923   2.833   3.005 -1.4830  2.3710 -0.2555
  580SOL     MW 2320   0.973   2.866   3.071 -0.3784  0.3261  0.2327
  581SOL     OW 2321   1.123   2.440   1.778 -0.1401  0.0921  0.0755
  581SOL    HW1 2322   1.182   2.501   1.822 -0.5278  1.6268  2.3160
  581SOL    HW2 2323   1.166   2.394   1.709  0.5678 -0.4093 -0.3052
  581SOL     MW 2324   1.136   2.442   1.775 -0.0978  0.2284  0.3208
  582SOL     OW 2325   3.084   2.949   2.655 -0.0977  0.8364 -0.1755
  582SOL    HW1 2326   3.019   3.004   2.699  1.3824 -2.6096  0.2567
  582SOL    HW2 2327   3.152   2.934   2.721 -1.3330 -3.0112  1.3014
  582SOL     MW 2328   3.085   2.955   2.669 -0.0654 -0.1260  0.0764
  583SOL     OW 2329   1.956   2.415   2.633 -0.2747  0.3292  0.7248
  583SOL    HW1 2330   2.047   2.425   2.606 -2.4205  0.2984 -0.1482
  583SOL    HW2 2331   1.937   2.321   2.651 -0.9983 -1.5540  0.4618
  583SOL     MW 2332   1.965   2.404   2.632 -0.6533  0.0767  0.5749
  584SOL     OW 2333   0.171   1.900   2.196  0.9677  0.6195  0.2943
  584SOL    HW1 2334   0.177   1.857   2.279 -3.8054  0.2772 -1.2044
  584SOL    HW2 2335   0.241   1.968   2.206  0.7713  0.0813 -0.7129
  584SOL     MW 2336   0.181   1.903   2.208  0.3121  0.5033 -0.0363
  585SOL     OW 2337   1.552   2.709   0.168  0.1041 -0.2698 -0.0136
  585SOL    HW1 2338   1.512   2.682   0.087 -2.1249  1.3664 -0.4697
  585SOL    HW2 2339   1.475   2.710   0.228  1.5818  1.1125 -0.5467
  585SOL     MW 2340   1.536   2.706   0.165  0.0050  0.1285 -0.1441
  586SOL     OW 2341   1.341   2.815   2.552 -0.0038 -0.1489 -0.1339
  586SOL    HW1 2342   1.396   2.774   2.483 -1.6672 -0.3812 -0.5457
  586SOL    HW2 2343   1.340   2.911   2.551  0.4938  2.6437 -0.0249
  586SOL     MW 2344   1.348   2.822   2.543 -0.1576  0.1889 -0.1739
  587SOL     OW 2345   1.337   1.442   2.171 -0.3809 -0.0266  0.0487
  587SOL    HW1 2346   1.292   1.388   2.234 -0.2133 -0.0505 -2.4310
  587SOL    HW2 2347   1.326   1.399   2.083  0.6550 -0.6159 -1.6639
  587SOL     MW 2348   1.329   1.429   2.168 -0.2221 -0.1075 -0.5044
  588SOL     OW 2349   1.346   2.014   2.704 -0.4931  0.0362 -0.1501
  588SOL    HW1 2350   1.365   1.926   2.735  0.2605  1.5490 -0.4428
  588SOL    HW2 2351   1.332   2.067   2.782 -0.7435  1.2270  1.0192
  588SOL     MW 2352   1.347   2.009   2.718 -0.4267  0.3929 -0.0344
  589SOL     OW 2353   1.371   2.026   0.051 -0.9951 -0.2352 -0.4662
  589SOL    HW1 2354   1.412   2.109   0.092 -0.2843 -0.3067  2.8864
  589SOL    HW2 2355   1.330   1.977   0.122  0.0502 -1.7840 -0.2577
  589SOL     MW 2356   1.371   2.031   0.066 -0.7634 -0.4490  0.0037
  590SOL     OW 2357   0.518   2.665   2.172 -0.4614 -0.0500  0.5011
  590SOL    HW1 2358   0.526   2.697   2.082  0.0747 -0.1826 -2.1986
  590SOL    HW2 2359   0.590   2.720   2.207 -0.5628  0.7616 -1.2624
  590SOL     MW 2360   0.529   2.676   2.165 -0.4041  0.0396 -0.0878
  591SOL     OW 2361   2.209   0.676   0.155 -0.2501 -0.3564  0.4130
  591SOL    HW1 2362   2.137   0.686   0.225 -2.1641  0.0460  2.9438
  591SOL    HW2 2363   2.206   0.741   0.088 -0.6721  1.4523 -1.0427
  591SOL     MW 2364   2.199   0.686   0.156 -0.5583 -0.0647  0.5548
  592SOL     OW 2365   1.659   2.921   0.806 -0.0040 -0.4256 -0.5773
  592SOL    HW1 2366   1.672   3.011   0.791 -0.6057 -0.7902 -0.3835
  592SOL    HW2 2367   1.749   2.881   0.799  0.6967 -0.8362  1.4615
  592SOL     MW 2368   1.673   2.927   0.803  0.0091 -0.5279 -0.2827
  593SOL     OW 2369   1.926   0.716   0.754  0.1124 -0.3367 -0.3965
  593SOL    HW1 2370   1.854   0.723   0.688 -2.7726  1.6204 -1.2535
  593SOL    HW2 2371   1.987   0.647   0.725  0.3934  0.7007  0.5325
  593SOL     MW 2372   1.925   0.708   0.741 -0.2312  0.0584 -0.3870
  594SOL     OW 2373   2.801   0.998   1.406  0.3888  0.0804 -0.8795
  594SOL    HW1 2374   2.878   1.040   1.373  1.5105 -2.3698 -1.6590
  594SOL    HW2 2375   2.729   1.042   1.364 -0.6899 -1.9614  1.8129
  594SOL     MW 2376   2.802   1.010   1.396  0.3944 -0.5123 -0.6271
  595SOL     OW 2377   0.528   0.914   0.841  0.3162  0.1392  0.3325
  595SOL    HW1 2378   0.506   0.960   0.761  0.1143 -0.5766 -1.2903
  595SOL    HW2 2379   0.590   0.984   0.876 -2.1787  1.9941 -0.8645
  595SOL     MW 2380   0.533   0.929   0.835 -0.0396  0.2895 -0.0396
  596SOL     OW 2381   2.461   1.372   0.486 -0.2190 -0.0658 -0.5650
  596SOL    HW1 2382   2.455   1.423   0.407 -1.1720  1.1606  0.4962
  596SOL    HW2 2383   2.514   1.413   0.553 -0.3987 -0.1909 -1.4400
  596SOL     MW 2384   2.467   1.384   0.484 -0.3684  0.0795 -0.5405
  597SOL     OW 2385   2.236   0.644   1.567 -0.4594  0.0747 -0.1715
  597SOL    HW1 2386   2.268   0.614   1.650 -0.3193  1.4452 -2.5606
  597SOL    HW2 2387   2.184   0.565   1.538  1.4399  2.6728  0.1793
  597SOL     MW 2388   2.234   0.629   1.574 -0.1903  0.5983 -0.4404
  598SOL     OW 2389   2.593   1.038   2.895  0.1990 -0.1308  0.0466
  598SOL    HW1 2390   2.612   0.948   2.915 -1.3722 -1.0995 -1.2507
  598SOL    HW2 2391   2.680   1.072   2.891 -1.1976 -0.8983 -0.0139
  598SOL     MW 2392   2.607   1.031   2.897 -0.1926 -0.3599 -0.1325
  599SOL     OW 2393   3.081   0.468   2.276 -0.3059  0.5693  0.1654
  599SOL    HW1 2394   3.175   0.478   2.316  1.6091 -0.0261  1.1198
  599SOL    HW2 2395   3.073   0.527   2.201 -1.2102  1.7927 -3.1645
  599SOL     MW 2396   3.092   0.477   2.272 -0.1726  0.6522 -0.1481
  600SOL     OW 2397   1.826   1.710   0.832 -0.3786 -0.2150  0.2819
  600SOL    HW1 2398   1.867   1.755   0.906 -0.7730 -0.4881 -1.1680
  600SOL    HW2 2399   1.748   1.767   0.818  0.2199  0.0027  0.0986
  600SOL     MW 2400   1.821   1.724   0.840 -0.3517 -0.2223  0.0664
  601SOL     OW 2401   2.551   0.763   0.846 -0.1653  0.3252  0.7132
  601SOL    HW1 2402   2.544   0.740   0.935  0.5345 -1.7455 -2.5048
  601SOL    HW2 2403   2.521   0.686   0.801 -1.9762 -0.5543  1.3737
  601SOL     MW 2404   2.546   0.750   0.852 -0.3119 -0.0641  0.3757
  602SOL     OW 2405   2.259   1.902   0.762  0.2770  0.5809  0.0179
  602SOL    HW1 2406   2.189   1.844   0.729 -2.7029 -0.4157  0.7688
  602SOL    HW2 2407   2.220   1.982   0.760  1.2896 -0.4466 -1.1114
  602SOL     MW 2408   2.245   1.905   0.758  0.0174  0.3139 -0.0321
  603SOL     OW 2409   2.987   1.367   1.963  0.1603 -0.1177 -0.0042
  603SOL    HW1 2410   2.968   1.422   2.036  1.3427 -3.4364  0.2777
  603SOL    HW2 2411   3.031   1.292   1.990  0.2832  2.0170 -0.0805
  603SOL     MW 2412   2.990   1.364   1.977  0.3326 -0.2739  0.0229
  604SOL     OW 2413   2.018   1.368   0.350 -0.2018  0.3519 -0.5720
  604SOL    HW1 2414   2.094   1.332   0.400  0.0143  1.8126 -2.0930
  604SOL    HW2 2415   1.952   1.397   0.415 -3.7135 -0.8227 -1.7051
  604SOL     MW 2416   2.019   1.367   0.365 -0.6366  0.3896 -0.9222
  605SOL     OW 2417   2.430   1.443   0.805  0.2804  0.1212  0.5360
  605SOL    HW1 2418   2.441   1.523   0.756 -2.0896 -0.0359 -1.6508
  605SOL    HW2 2419   2.484   1.373   0.767 -0.1122  0.0585  0.6703
  605SOL     MW 2420   2.439   1.444   0.793 -0.0841  0.0922  0.2652
  606SOL     OW 2421   2.698   1.754   1.806  0.1479  0.2574 -0.3797
  606SOL    HW1 2422   2.607   1.777   1.820 -0.2210 -1.6616  1.7613
  606SOL    HW2 2423   2.708   1.653   1.811  0.8955  0.3473  0.4465
  606SOL     MW 2424   2.687   1.744   1.808  0.1978  0.0160  0.0118
  607SOL     OW 2425   2.384   0.966   3.075 -0.1268  0.2920  0.1800
  607SOL    HW1 2426   2.454   1.002   3.017 -0.1911  1.7159  1.5101
  607SOL    HW2 2427   2.400   0.985   3.170 -2.1258  0.9340 -2.1480
  607SOL     MW 2428   2.395   0.973   3.080 -0.3990  0.5646  0.0483
  608SOL     OW 2429   1.870   0.249   0.511  0.0993 -0.0299 -0.3761
  608SOL    HW1 2430   1.844   0.273   0.421  0.1359  1.9367 -3.2609
  608SOL    HW2 2431   1.844   0.151   0.517  0.0552 -0.2714  0.7528
  608SOL     MW 2432   1.863   0.239   0.500  0.0983  0.1977 -0.6078
  609SOL     OW 2433   2.129   1.884   3.060 -0.0122  0.1245 -0.0483
  609SOL    HW1 2434   2.062   1.826   3.013  0.1327  0.6703 -0.5491
  609SOL    HW2 2435   2.130   1.860   3.153  1.4576 -0.8319 -0.7513
  609SOL     MW 2436   2.121   1.873   3.066  0.2008  0.0703 -0.2071
  610SOL     OW 2437   1.820   0.942   1.210 -0.4818  0.2548 -0.6570
  610SOL    HW1 2438   1.816   0.871   1.148 -2.2247 -1.1021  1.7292
  610SOL    HW2 2439   1.716   0.955   1.230 -1.8534 -1.5811  1.9155
  610SOL     MW 2440   1.806   0.935   1.205 -0.8928 -0.1664 -0.0028
  611SOL     OW 2441   2.461   1.657   0.605  0.0562 -0.1515 -0.2246
  611SOL    HW1 2442   2.481   1.634   0.517 -2.1396  0.8341  0.8402
  611SOL    HW2 2443   2.450   1.750   0.595 -0.8711  0.1879 -3.9287
  611SOL     MW 2444   2.463   1.666   0.592 -0.3558  0.0233 -0.5728
  612SOL     OW 2445   2.879   2.920   0.354 -0.4376 -0.4016  0.3045
  612SOL    HW1 2446   2.898   2.965   0.442 -2.2086 -0.5281  3.2110
  612SOL    HW2 2447   2.961   2.881   0.318  0.3814  1.3376 -0.4463
  612SOL     MW 2448   2.892   2.921   0.361 -0.5632 -0.1888  0.5889
  613SOL     OW 2449   1.430   1.106   1.004 -0.2219 -0.0321 -0.0085
  613SOL    HW1 2450   1.438   1.203   1.010 -0.4021 -0.1202 -2.3424
  613SOL    HW2 2451   1.481   1.061   1.074 -3.0249 -2.0164  1.2507
  613SOL     MW 2452   1.438   1.113   1.014 -0.6155 -0.3056 -0.1503
  614SOL     OW 2453   2.035   0.470   1.402  0.3683  0.1118  0.7022
  614SOL    HW1 2454   2.000   0.431   1.487 -0.6669 -0.6008  0.8176
  614SOL    HW2 2455   1.963   0.526   1.385 -0.1807 -0.3388  0.6034
  614SOL     MW 2456   2.021   0.473   1.411  0.1593 -0.0417  0.7044
  615SOL     OW 2457   2.419   0.724   0.337 -0.1701  0.1697 -0.0660
  615SOL    HW1 2458   2.485   0.655   0.326 -1.5275 -1.1087  2.1101
  615SOL    HW2 2459   2.347   0.698   0.282 -2.1137 -1.3992 -1.4105
  615SOL     MW 2460   2.418   0.711   0.329 -0.6057 -0.2060  0.0437
  616SOL     OW 2461   2.587   0.411   1.621  0.1806 -0.2291  0.2752
  616SOL    HW1 2462   2.614   0.324   1.587  0.3991 -1.9209  0.8460
  616SOL    HW2 2463   2.548   0.465   1.553 -0.8065  0.9710  1.8741
  616SOL     MW 2464   2.586   0.407   1.608  0.0792 -0.2940  0.5614
  617SOL     OW 2465   2.835   0.547   1.854 -0.0192  0.0193 -0.3292
  617SOL    HW1 2466   2.769   0.547   1.920  0.2398 -0.9805 -2.9400
  617SOL    HW2 2467   2.834   0.458   1.823  0.8212  0.0354 -1.4286
  617SOL     MW 2468   2.826   0.535   1.859  0.1258 -0.1105 -0.8188
  618SOL     OW 2469   2.812   0.259   2.003  0.4372  0.2354 -0.0545
  618SOL    HW1 2470   2.760   0.278   2.087 -2.2975 -0.2176 -0.3999
  618SOL    HW2 2471   2.890   0.214   2.044  1.9087 -0.2136 -0.7443
  618SOL     MW 2472   2.815   0.256   2.019  0.2705  0.1164 -0.1911
  619SOL     OW 2473   2.702   0.716   0.082  0.2630  0.3543  0.0404
  619SOL    HW1 2474   2.729   0.805   0.072  0.4592  0.7099 -0.8146
  619SOL    HW2 2475   2.752   0.684   0.152  0.2766 -0.7776 -1.7024
  619SOL     MW 2476   2.712   0.723   0.090  0.2907  0.2519 -0.3023
  620SOL     OW 2477   2.233   1.032   0.945 -0.0243 -0.2293 -0.2678
  620SOL    HW1 2478   2.304   1.021   0.880 -0.1071 -0.5123 -0.5167
  620SOL    HW2 2479   2.148   1.009   0.906 -1.1240  0.2874  0.8216
  620SOL     MW 2480   2.231   1.027   0.931 -0.1803 -0.1985 -0.1569
  621SOL     OW 2481   1.505   2.198   2.010  0.1805 -0.1982 -0.2165
  621SOL    HW1 2482   1.491   2.107   2.047  0.0339  0.9286 -2.1529
  621SOL    HW2 2483   1.599   2.217   2.000 -1.0596  0.1800  0.3148
  621SOL     MW 2484   1.515   2.188   2.014 -0.0025  0.0003 -0.4019
  622SOL     OW 2485   2.642   0.294   0.218 -0.0789 -0.0473  0.0134
  622SOL    HW1 2486   2.713   0.350   0.255 -1.2868  1.5014  1.5169
  622SOL    HW2 2487   2.685   0.210   0.217  1.2555  2.4268 -1.4240
  622SOL     MW 2488   2.657   0.290   0.223 -0.0622  0.4835  0.0221
  623SOL     OW 2489   2.369   2.770   0.822 -0.0447  0.2482  0.0305
  623SOL    HW1 2490   2.425   2.842   0.818 -1.5187  1.3927 -0.8889
  623SOL    HW2 2491   2.331   2.785   0.912  0.0410  0.6891 -0.7412
  623SOL     MW 2492   2.371   2.781   0.833 -0.2279  0.4574 -0.1926
  624SOL     OW 2493   2.118   1.564   3.053 -0.3910  0.7448 -0.4720
  624SOL    HW1 2494   2.071   1.490   3.017  1.9233 -1.3833 -0.1287
  624SOL    HW2 2495   2.056   1.639   3.040 -0.8947 -1.3916  0.2959
  624SOL     MW 2496   2.103   1.564   3.046 -0.1521  0.1821 -0.3254
  625SOL     OW 2497   2.172   1.853   1.009  0.0059 -0.0687  0.0944
  625SOL    HW1 2498   2.213   1.785   1.065 -0.3176  1.9278 -1.3613
  625SOL    HW2 2499   2.219   1.869   0.927 -0.9546  0.0535  0.2884
  625SOL     MW 2500   2.184   1.846   1.005 -0.1635  0.2108 -0.0721
  626SOL     OW 2501   0.174   1.848   2.469 -0.8744  0.0080 -0.0609
  626SOL    HW1 2502   0.143   1.763   2.480 -0.4147  2.9377 -0.6976
  626SOL    HW2 2503   0.098   1.911   2.479 -4.4115 -2.8498  0.7635
  626SOL     MW 2504   0.160   1.845   2.472 -1.2805  0.0175 -0.0361
  627SOL     OW 2505   2.620   0.812   2.575  0.3537  0.0631  0.3349
  627SOL    HW1 2506   2.538   0.859   2.606 -0.2330  0.9448  1.7184
  627SOL    HW2 2507   2.598   0.773   2.489 -2.0103 -1.6685  0.9282
  627SOL     MW 2508   2.606   0.813   2.568 -0.0356 -0.0490  0.5957
  628SOL     OW 2509   2.349   1.444   1.294  0.3613  0.2996 -0.1574
  628SOL    HW1 2510   2.342   1.356   1.258  0.5140 -0.8858 -0.6825
  628SOL    HW2 2511   2.389   1.496   1.223 -0.3030 -0.0770 -0.7814
  628SOL     MW 2512   2.354   1.439   1.280  0.2938  0.0935 -0.3090
  629SOL     OW 2513   1.813   0.627   1.324 -0.0435  0.2625 -0.0970
  629SOL    HW1 2514   1.855   0.654   1.242  0.7166 -0.8642 -1.2102
  629SOL    HW2 2515   1.719   0.621   1.303  0.8385 -1.1783  1.1187
  629SOL     MW 2516   1.806   0.630   1.310  0.1731 -0.0762 -0.0835
  630SOL     OW 2517   2.394   1.906   3.067 -0.2210  0.4063  0.1142
  630SOL    HW1 2518   2.389   1.982   3.004 -2.5171  1.1413 -3.1837
  630SOL    HW2 2519   2.301   1.877   3.052 -0.4597  0.7766 -1.0626
  630SOL     MW 2520   2.381   1.912   3.057 -0.5554  0.5521 -0.4762
  631SOL     OW 2521   2.093   1.842   1.497  0.3301  0.2762 -0.0710
  631SOL    HW1 2522   2.089   1.752   1.539 -0.9819 -0.3778  0.8876
  631SOL    HW2 2523   2.007   1.857   1.459 -0.6428 -0.0568 -0.0920
  631SOL     MW 2524   2.081   1.832   1.498  0.0287  0.1460  0.0527
  632SOL     OW 2525   0.340   1.867   1.494  0.6107 -0.4023 -0.6824
  632SOL    HW1 2526   0.261   1.924   1.508 -0.4227  5.1685 -0.3430
  632SOL    HW2 2527   0.312   1.777   1.493 -0.3880 -1.2844  0.2496
  632SOL     MW 2528   0.326   1.862   1.495  0.3426  0.2164 -0.5146
  633SOL     OW 2529   2.583   0.519   0.362  0.6797 -0.1371 -0.3963
  633SOL    HW1 2530   2.667   0.510   0.400 -0.8283  0.5415 -1.3127
  633SOL    HW2 2531   2.573   0.444   0.307  0.5613 -0.0709  1.0614
  633SOL     MW 2532   2.593   0.508   0.360  0.4651 -0.0388 -0.3249
  634SOL     OW 2533   2.690   3.068   0.586  0.8634 -0.2820 -0.1373
  634SOL    HW1 2534   2.682   3.165   0.570  3.0215  0.0662 -1.4348
  634SOL    HW2 2535   2.644   3.022   0.516 -0.2512 -0.2137 -0.1902
  634SOL     MW 2536   2.683   3.075   0.575  1.0010 -0.2270 -0.3155
  635SOL     OW 2537   2.633   0.027   1.882  0.0095 -0.7103  0.0391
  635SOL    HW1 2538   2.665  -0.023   1.804 -0.7958  0.8053  3.1351
  635SOL    HW2 2539   2.707   0.089   1.904  3.3408 -0.9094  0.9195
  635SOL     MW 2540   2.647   0.028   1.875  0.3428 -0.5366  0.5638
  636SOL     OW 2541   2.710   1.693   0.759 -0.0128 -0.3157  0.5787
  636SOL    HW1 2542   2.632   1.698   0.703  0.5015  0.7988 -0.6194
  636SOL    HW2 2543   2.717   1.774   0.809  2.5742 -0.6008 -0.7201
  636SOL     MW 2544   2.701   1.705   0.758  0.3964 -0.2063  0.2493
  637SOL     OW 2545   2.888   1.481   0.692  0.6305 -0.6748  0.5822
  637SOL    HW1 2546   2.914   1.555   0.633  1.5227 -1.9081 -0.7060
  637SOL    HW2 2547   2.834   1.531   0.751  1.7334 -1.1513 -1.3884
  637SOL     MW 2548   2.884   1.497   0.692  0.8937 -0.9004  0.1522
  638SOL     OW 2549   2.834   0.540   0.534  0.0233  0.2137  0.2478
  638SOL    HW1 2550   2.903   0.588   0.492 -0.3930 -1.0212 -2.3402
  638SOL    HW2 2551   2.843   0.540   0.626 -1.6245 -0.7295 -1.7302
  638SOL     MW 2552   2.844   0.546   0.540 -0.2491 -0.0737 -0.3546
  639SOL     OW 2553   1.804   3.082   0.548  0.7085  0.4774 -0.1068
  639SOL    HW1 2554   1.727   3.037   0.555 -0.5764  1.5146  1.6402
  639SOL    HW2 2555   1.857   3.011   0.515  2.5237 -0.8294  0.2686
  639SOL     MW 2556   1.801   3.067   0.544  0.7784  0.4418  0.1732
  640SOL     OW 2557   0.290   1.425   0.091  0.2535 -0.1062 -0.2773
  640SOL    HW1 2558   0.363   1.418   0.037 -1.0857  1.5003  0.8905
  640SOL    HW2 2559   0.299   1.345   0.146  0.2634  0.7035  0.9627
  640SOL     MW 2560   0.300   1.414   0.091  0.0781  0.2126  0.0404
  641SOL     OW 2561   2.261   0.336   0.414  0.9176  0.1212  0.1351
  641SOL    HW1 2562   2.295   0.275   0.345  1.3037  2.5710 -0.3637
  641SOL    HW2 2563   2.333   0.327   0.473  2.3382  1.6174  0.3233
  641SOL     MW 2564   2.275   0.327   0.413  1.1560  0.6419  0.0941
  642SOL     OW 2565   0.083   3.089   0.494  0.2925 -0.3708 -0.8803
  642SOL    HW1 2566   0.054   3.180   0.497 -1.8063 -0.1693  0.9396
  642SOL    HW2 2567   0.020   3.058   0.561  2.5820  0.1452  0.7248
  642SOL     MW 2568   0.071   3.097   0.503  0.3177 -0.2761 -0.4284
  643SOL     OW 2569   2.123   0.314   1.669  0.4554  0.7144  0.3085
  643SOL    HW1 2570   2.036   0.290   1.702  1.1487 -0.5384  1.1216
  643SOL    HW2 2571   2.145   0.252   1.599  1.1154 -1.1578 -0.6310
  643SOL     MW 2572   2.114   0.303   1.664  0.6340  0.3021  0.2918
  644SOL     OW 2573   2.683   1.878   0.943  0.8019 -0.2462  0.0227
  644SOL    HW1 2574   2.682   1.824   1.024 -0.6163 -0.0431 -0.9242
  644SOL    HW2 2575   2.613   1.947   0.933  1.7701  1.5792 -1.5966
  644SOL     MW 2576   2.673   1.880   0.952  0.7426  0.0214 -0.3159
  645SOL     OW 2577   2.789   0.928   0.793 -0.0233  0.7806  0.5038
  645SOL    HW1 2578   2.868   0.874   0.792  0.9430  2.8561 -0.6915
  645SOL    HW2 2579   2.739   0.902   0.870  2.7195  0.4903 -0.1699
  645SOL     MW 2580   2.793   0.917   0.803  0.4661  1.0161  0.2572
  646SOL     OW 2581   0.139   2.263   0.865 -0.7170  0.1496  0.2678
  646SOL    HW1 2582   0.171   2.163   0.866 -1.3594  0.3306  1.0610
  646SOL    HW2 2583   0.107   2.291   0.778  0.7305  0.5979  0.4339
  646SOL     MW 2584   0.139   2.253   0.854 -0.6108  0.2326  0.3944
  647SOL     OW 2585   2.789   0.515   2.991 -0.1234 -0.1609  0.3575
  647SOL    HW1 2586   2.705   0.474   3.006 -1.4740  2.0119  0.8316
  647SOL    HW2 2587   2.767   0.592   3.038  3.3748  0.2249  0.9464
  647SOL     MW 2588   2.775   0.520   2.999  0.1600  0.1767  0.4978
  648SOL     OW 2589   2.169   0.633   1.128 -1.0854 -0.3629 -0.1594
  648SOL    HW1 2590   2.210   0.591   1.200 -1.7802  3.2860 -0.9002
  648SOL    HW2 2591   2.194   0.726   1.139  0.8503 -1.4659 -1.2501
  648SOL     MW 2592   2.178   0.640   1.139 -0.9217 -0.0270 -0.4011
  649SOL     OW 2593   2.394   2.701   1.311  0.0228 -0.1395  0.0711
  649SOL    HW1 2594   2.477   2.744   1.313 -0.4244 -0.6452  3.1792
  649SOL    HW2 2595   2.422   2.606   1.311  0.1568 -0.1113  0.6861
  649SOL     MW 2596   2.409   2.694   1.311 -0.0185 -0.2025  0.5623
  650SOL     OW 2597   2.737   0.249   0.517 -0.3257 -0.1508 -0.7778
  650SOL    HW1 2598   2.776   0.332   0.538  2.5305 -2.4890 -1.1793
  650SOL    HW2 2599   2.787   0.230   0.440  1.5991 -0.7532  0.7634
  650SOL     MW 2600   2.749   0.257   0.510  0.3051 -0.5388 -0.6274
  651SOL     OW 2601   0.036   0.438   0.998 -0.3384 -0.1617 -0.2897
  651SOL    HW1 2602   0.078   0.523   0.963 -0.4636 -0.6870 -0.0418
  651SOL    HW2 2603  -0.050   0.477   1.031 -0.3578  3.2513  1.9584
  651SOL     MW 2604   0.030   0.454   0.998 -0.3575  0.2193  0.0397
  652SOL     OW 2605   2.386   1.446   2.979 -0.6859 -0.0132 -0.4003
  652SOL    HW1 2606   2.443   1.458   2.902 -0.6348 -1.6843 -1.4748
  652SOL    HW2 2607   2.356   1.537   3.002  0.2814  1.3425 -2.3596
  652SOL     MW 2608   2.389   1.460   2.972 -0.5515 -0.0548 -0.8006
  653SOL     OW 2609   1.849   0.345   0.230  0.4117  0.2673 -0.3582
  653SOL    HW1 2610   1.847   0.266   0.174 -1.9081  1.7123  1.1803
  653SOL    HW2 2611   1.893   0.405   0.174 -0.9694 -0.1445 -0.2044
  653SOL     MW 2612   1.855   0.343   0.216 -0.0766  0.4036 -0.1349
  654SOL     OW 2613   2.427   0.994   0.746 -0.2640  0.1757 -0.6683
  654SOL    HW1 2614   2.384   0.976   0.658 -2.3955 -1.3701  1.1483
  654SOL    HW2 2615   2.469   0.904   0.769  2.7790 -0.7958 -0.4974
  654SOL     MW 2616   2.427   0.980   0.738 -0.1437 -0.1564 -0.4060
  655SOL     OW 2617   2.878   0.926   0.281 -0.1751  0.2132 -0.2541
  655SOL    HW1 2618   2.855   0.967   0.365  0.3794  1.6680 -0.4823
  655SOL    HW2 2619   2.947   0.863   0.296  0.8548  1.7721  0.4925
  655SOL     MW 2620   2.884   0.923   0.294  0.0339  0.6108 -0.1857
  656SOL     OW 2621   1.794   2.646   1.420 -0.2172  0.1064  0.0476
  656SOL    HW1 2622   1.837   2.714   1.371  1.6029 -1.0765  0.7891
  656SOL    HW2 2623   1.820   2.563   1.385 -0.8859 -0.3703  0.6085
  656SOL     MW 2624   1.803   2.644   1.409 -0.0653 -0.1126  0.2195
  657SOL     OW 2625   0.069   1.780   1.123  0.2315 -0.1968 -0.3884
  657SOL    HW1 2626   0.155   1.808   1.125 -1.6489  0.5041 -0.0200
  657SOL    HW2 2627   0.077   1.685   1.129  3.5909 -0.0211 -0.1551
  657SOL     MW 2628   0.081   1.771   1.124  0.4267 -0.0812 -0.3090
  658SOL     OW 2629   2.644   1.348   0.224 -0.4607 -0.4877 -0.0877
  658SOL    HW1 2630   2.619   1.279   0.288 -0.8717 -1.3355  0.8867
  658SOL    HW2 2631   2.676   1.414   0.284  1.1284 -2.3341 -2.3456
  658SOL     MW 2632   2.645   1.348   0.241 -0.3052 -0.8432 -0.2571
  659SOL     OW 2633   2.118   1.424   1.031 -0.6280 -0.3379  0.0528
  659SOL    HW1 2634   2.169   1.348   1.062  1.4217 -2.9110  0.4405
  659SOL    HW2 2635   2.061   1.447   1.106  0.5343 -0.9499  0.4373
  659SOL     MW 2636   2.117   1.417   1.045 -0.2042 -0.7581  0.1547
  660SOL     OW 2637   2.090   1.564   1.595 -0.2484  0.8047 -0.3397
  660SOL    HW1 2638   2.118   1.580   1.684 -0.4868 -2.1060  0.5803
  660SOL    HW2 2639   2.011   1.507   1.617 -2.2876  2.2972  1.7163
  660SOL     MW 2640   2.083   1.559   1.609 -0.5489  0.6176  0.0530
  661SOL     OW 2641   2.413   0.987   0.247  0.2720  0.0730 -0.1084
  661SOL    HW1 2642   2.480   1.045   0.287  0.2807 -1.2656 -1.3398
  661SOL    HW2 2643   2.428   0.897   0.266  0.6036  0.3579  2.5841
  661SOL     MW 2644   2.424   0.983   0.255  0.3169 -0.0660  0.0844
  662SOL     OW 2645   2.551   2.966   0.825 -0.4825  0.2875 -0.5279
  662SOL    HW1 2646   2.496   3.031   0.869 -2.7878 -0.2043 -0.7230
  662SOL    HW2 2647   2.591   3.007   0.749  0.7354 -2.7084  3.0079
  662SOL     MW 2648   2.549   2.980   0.821 -0.6260 -0.1727 -0.0872
  663SOL     OW 2649   2.712   1.552   0.405 -0.2460  0.0705 -0.1535
  663SOL    HW1 2650   2.718   1.613   0.335  2.5362 -1.6727  0.5861
  663SOL    HW2 2651   2.765   1.594   0.478  1.5265  1.0512  2.7870
  663SOL     MW 2652   2.720   1.565   0.406  0.3550 -0.0301  0.3320
  664SOL     OW 2653   2.539   1.446   1.517 -0.5030 -0.0981 -0.1917
  664SOL    HW1 2654   2.524   1.536   1.484  0.0028 -2.4265 -3.1083
  664SOL    HW2 2655   2.452   1.410   1.515 -0.1233 -2.6231 -1.0149
  664SOL     MW 2656   2.526   1.453   1.512 -0.3862 -0.7385 -0.6851
  665SOL     OW 2657   2.860   0.795   2.115  0.0929 -0.5104  0.1852
  665SOL    HW1 2658   2.812   0.834   2.039  0.5050 -0.3685  0.0568
  665SOL    HW2 2659   2.933   0.745   2.078  1.0108 -0.8216  2.4185
  665SOL     MW 2660   2.863   0.794   2.100  0.2684 -0.5327  0.4629
  666SOL     OW 2661   2.809   2.999   1.698  0.6922 -0.2681  0.2519
  666SOL    HW1 2662   2.851   3.000   1.611  1.7352  1.3176  0.0516
  666SOL    HW2 2663   2.752   2.923   1.703  2.5861 -3.4323 -0.6533
  666SOL     MW 2664   2.807   2.989   1.687  1.0797 -0.4764  0.1060
  667SOL     OW 2665   2.007   2.736   1.724  0.6954 -0.5990  0.4250
  667SOL    HW1 2666   2.027   2.724   1.814 -1.3360  2.7961 -1.1013
  667SOL    HW2 2667   2.082   2.791   1.689 -0.8507 -0.6111 -2.0484
  667SOL     MW 2668   2.020   2.742   1.731  0.2234 -0.1526 -0.1027
  668SOL     OW 2669   2.778   0.560   0.832  0.3992  0.3604 -0.2618
  668SOL    HW1 2670   2.830   0.584   0.903 -1.1940 -2.1942 -1.7548
  668SOL    HW2 2671   2.715   0.628   0.807  0.5087  1.0908  0.3432
  668SOL     MW 2672   2.777   0.572   0.838  0.2034  0.1197 -0.3789
  669SOL     OW 2673   0.179   0.989   0.686 -0.3828  0.2106 -0.1816
  669SOL    HW1 2674   0.153   1.014   0.774 -0.0986 -0.3087 -0.0539
  669SOL    HW2 2675   0.244   1.066   0.667 -1.8435  1.2153  0.8024
  669SOL     MW 2676   0.184   1.003   0.695 -0.5380  0.2746 -0.0349
  670SOL     OW 2677   2.907   0.355   0.289  0.8793 -0.3587  0.4028
  670SOL    HW1 2678   2.910   0.299   0.212  0.9709 -0.8494  0.0895
  670SOL    HW2 2679   2.911   0.442   0.249  0.3499  1.0659 -2.5383
  670SOL     MW 2680   2.908   0.359   0.273  0.8215 -0.2355 -0.0266
  671SOL     OW 2681   2.037   3.050   1.485  0.7291  0.3507 -0.3994
  671SOL    HW1 2682   1.976   3.010   1.420 -2.6305  0.5444  0.2242
  671SOL    HW2 2683   1.989   3.067   1.566  0.7640 -0.4097  0.8343
  671SOL     MW 2684   2.023   3.047   1.487  0.2904  0.2760 -0.1544
  672SOL     OW 2685   1.835   1.770   1.299 -0.2336  0.4492  0.4332
  672SOL    HW1 2686   1.822   1.853   1.350  2.3831 -2.3637 -1.6621
  672SOL    HW2 2687   1.854   1.798   1.210  0.8648  0.6621 -1.5836
  672SOL     MW 2688   1.836   1.785   1.294  0.2566  0.1061 -0.1094
  673SOL     OW 2689   2.801   1.083   0.537 -0.1347  0.2151 -0.7988
  673SOL    HW1 2690   2.786   1.018   0.601  2.8478  3.1021  0.1903
  673SOL    HW2 2691   2.873   1.127   0.582 -0.0969  2.9398  1.7870
  673SOL     MW 2692   2.808   1.080   0.552  0.2638  0.9555 -0.3271
  674SOL     OW 2693   2.476   3.090   1.209 -0.1698 -0.3837 -0.0683
  674SOL    HW1 2694   2.442   3.106   1.118  1.1558 -1.5851 -0.6448
  674SOL    HW2 2695   2.403   3.042   1.243  0.7767 -0.2270 -3.4559
  674SOL     MW 2696   2.462   3.086   1.202  0.1300 -0.5215 -0.5913
  675SOL     OW 2697   3.003   0.887   1.091 -0.1563 -0.4593  0.1703
  675SOL    HW1 2698   3.042   0.899   1.177 -3.2410 -0.2217  0.8643
  675SOL    HW2 2699   3.078   0.895   1.032 -3.6287 -0.1654  0.0263
  675SOL     MW 2700   3.018   0.890   1.095 -1.0214 -0.3892  0.2429
  676SOL     OW 2701   2.892   1.465   1.695  0.2188 -0.1765  0.3115
  676SOL    HW1 2702   2.861   1.383   1.648  1.5438 -0.6733  2.8441
  676SOL    HW2 2703   2.917   1.438   1.784 -0.3287 -0.5297 -3.1785
  676SOL     MW 2704   2.891   1.450   1.700  0.3214 -0.2887  0.1852
  677SOL     OW 2705   2.482   0.660   1.919 -0.0643  0.6352 -0.4641
  677SOL    HW1 2706   2.427   0.585   1.882  1.9511 -1.0587  2.7658
  677SOL    HW2 2707   2.420   0.729   1.936  2.0723 -0.0724 -3.5493
  677SOL     MW 2708   2.466   0.659   1.917  0.4836  0.3183 -0.4450
  678SOL     OW 2709   2.386   1.582   0.324 -0.2936 -0.0796  0.0425
  678SOL    HW1 2710   2.294   1.595   0.360 -2.7893 -2.4452  0.7741
  678SOL    HW2 2711   2.382   1.518   0.246  3.1371 -0.3232  1.0387
  678SOL     MW 2712   2.373   1.576   0.318 -0.1703 -0.4239  0.2705
  679SOL     OW 2713   2.289   0.416   1.287  0.1313  0.0192  0.2901
  679SOL    HW1 2714   2.271   0.367   1.206  3.5695 -1.7580 -0.5476
  679SOL    HW2 2715   2.200   0.421   1.333  1.5502  2.2940  0.4565
  679SOL     MW 2716   2.275   0.410   1.282  0.7722  0.0849  0.2015
  680SOL     OW 2717   2.471   0.128   1.485 -0.0883  0.3583 -0.4584
  680SOL    HW1 2718   2.387   0.160   1.449  1.0785  0.1465  2.2546
  680SOL    HW2 2719   2.515   0.085   1.411 -2.2874  1.7881  1.7825
  680SOL     MW 2720   2.466   0.126   1.471 -0.2245  0.5190  0.1952
  681SOL     OW 2721   0.228   0.623   1.461  0.2395 -0.1432 -0.3291
  681SOL    HW1 2722   0.200   0.541   1.503 -1.4302 -3.4590 -4.0792
  681SOL    HW2 2723   0.217   0.604   1.369  0.7354 -0.0408  1.5671
  681SOL     MW 2724   0.223   0.609   1.455  0.0846 -0.5672 -0.5737
  682SOL     OW 2725   0.002   2.863   1.536 -0.7070  0.1254 -0.4284
  682SOL    HW1 2726   0.055   2.940   1.537 -1.7466 -1.7471 -1.7823
  682SOL    HW2 2727  -0.027   2.887   1.624 -1.6246  0.8326  1.4599
  682SOL     MW 2728   0.005   2.876   1.547 -0.9653 -0.0283 -0.3579
  683SOL     OW 2729   2.080   0.818   3.013  0.2915 -0.7788  0.0347
  683SOL    HW1 2730   2.033   0.736   3.036  0.8653 -2.4304 -2.0362
  683SOL    HW2 2731   2.022   0.883   3.057  0.7858  0.4252  1.1451
  683SOL     MW 2732   2.066   0.816   3.022  0.4324 -0.8379 -0.0920
  684SOL     OW 2733   2.052   1.754   0.649  0.2112 -0.4828 -0.3025
  684SOL    HW1 2734   2.070   1.697   0.573 -0.8516  1.2445 -0.7255
  684SOL    HW2 2735   1.981   1.719   0.706 -0.1987  3.3017 -0.7020
  684SOL     MW 2736   2.045   1.742   0.647  0.0169  0.2444 -0.4110
  685SOL     OW 2737   2.673   1.734   1.187 -0.2589  0.3073 -0.6729
  685SOL    HW1 2738   2.716   1.685   1.257 -2.5154  0.3494  2.5589
  685SOL    HW2 2739   2.598   1.686   1.166 -0.7393  1.0130  3.4882
  685SOL     MW 2740   2.669   1.722   1.193 -0.6200  0.4060  0.3025
  686SOL     OW 2741   2.846   0.657   1.612 -0.6205 -0.3420 -0.1261
  686SOL    HW1 2742   2.824   0.623   1.695 -1.0062  0.0467 -0.1453
  686SOL    HW2 2743   2.944   0.677   1.614  0.4818 -0.5402 -0.1356
  686SOL     MW 2744   2.856   0.655   1.623 -0.5260 -0.3168 -0.1299
  687SOL     OW 2745   2.105   0.167   1.127  0.1985  0.2281 -0.6550
  687SOL    HW1 2746   2.151   0.134   1.047  3.7136  1.5195  1.1428
  687SOL    HW2 2747   2.043   0.226   1.088 -2.4229 -3.0328  0.1784
  687SOL     MW 2748   2.103   0.170   1.111  0.3164 -0.0318 -0.3079
  688SOL     OW 2749   2.474   0.583   1.412 -0.0947 -0.4936  0.2451
  688SOL    HW1 2750   2.438   0.524   1.345 -2.0952 -1.5261  0.2163
  688SOL    HW2 2751   2.401   0.611   1.470  0.2964  0.5008  0.8907
  688SOL     MW 2752   2.460   0.579   1.411 -0.3070 -0.4986  0.3265
  689SOL     OW 2753   2.509   0.745   3.005 -0.1363 -0.2479 -0.3069
  689SOL    HW1 2754   2.439   0.804   3.034  0.4163  0.7476  1.8921
  689SOL    HW2 2755   2.576   0.733   3.077 -0.7168  1.3526  1.4894
  689SOL     MW 2756   2.509   0.751   3.018 -0.1400  0.0946  0.2203
  690SOL     OW 2757   2.041   0.908   1.854  0.0930  0.8062 -0.3443
  690SOL    HW1 2758   2.022   0.812   1.863  0.2345  1.7266  1.6413
  690SOL    HW2 2759   2.058   0.928   1.764 -2.7379  0.4187  1.5166
  690SOL     MW 2760   2.040   0.898   1.843 -0.2618  0.8765  0.1632
  691SOL     OW 2761   2.436   0.296   0.884  0.3084 -0.1279  0.3496
  691SOL    HW1 2762   2.527   0.313   0.914  0.1731  1.6113 -1.5464
  691SOL    HW2 2763   2.399   0.385   0.869  0.3659 -0.9451 -1.1686
  691SOL     MW 2764   2.443   0.310   0.886  0.2982 -0.0063 -0.1009
  692SOL     OW 2765   2.802   1.619   1.402 -0.6658  0.6467 -0.1556
  692SOL    HW1 2766   2.804   1.595   1.496 -1.2940 -3.6962  0.9021
  692SOL    HW2 2767   2.855   1.702   1.404 -0.8066 -1.5261 -1.5191
  692SOL     MW 2768   2.809   1.627   1.415 -0.7672 -0.2130 -0.1959
  693SOL     OW 2769   2.307   0.426   0.005 -0.4963  0.9437  0.2168
  693SOL    HW1 2770   2.244   0.373  -0.046 -2.8444 -1.5211 -1.8032
  693SOL    HW2 2771   2.263   0.502   0.042  1.0243  0.0828 -2.4447
  693SOL     MW 2772   2.293   0.429   0.003 -0.6055  0.5049 -0.4009
  694SOL     OW 2773   1.923   1.184   1.201  0.1043  0.0297  0.1461
  694SOL    HW1 2774   2.017   1.185   1.193 -1.3326 -0.3783 -1.1024
  694SOL    HW2 2775   1.898   1.086   1.200  1.7057  2.2187  0.0949
  694SOL     MW 2776   1.932   1.171   1.200  0.1260  0.2647 -0.0254
  695SOL     OW 2777   2.913   1.405   1.288 -0.1027  0.4235 -0.4136
  695SOL    HW1 2778   2.917   1.421   1.196  2.5904 -1.6347  1.1635
  695SOL    HW2 2779   2.878   1.488   1.334  0.8817 -0.1854 -0.5036
  695SOL     MW 2780   2.909   1.418   1.282  0.3825  0.0716 -0.2174
  696SOL     OW 2781   2.033   1.420   0.740  0.2205 -0.4397 -0.5644
  696SOL    HW1 2782   2.065   1.456   0.827  1.7233 -2.0639  0.3010
  696SOL    HW2 2783   1.986   1.339   0.762  1.6666 -0.3429  1.4368
  696SOL     MW 2784   2.031   1.414   0.754  0.6096 -0.6412 -0.1862
  697SOL     OW 2785   2.912   1.054   2.217 -0.6244 -0.3800  0.2019
  697SOL    HW1 2786   2.831   1.108   2.211 -2.2088 -0.2006  0.5786
  697SOL    HW2 2787   2.895   0.965   2.194  0.5939 -1.8689 -0.2341
  697SOL     MW 2788   2.899   1.049   2.213 -0.6727 -0.5528  0.1941
  698SOL     OW 2789   2.573   0.383   3.059 -0.7199  0.5598  0.3268
  698SOL    HW1 2790   2.481   0.401   3.080  0.5960  0.4978 -1.1051
  698SOL    HW2 2791   2.608   0.357   3.147 -3.0827 -0.5246 -1.7502
  698SOL     MW 2792   2.565   0.382   3.073 -0.8581  0.4085 -0.1361
  699SOL     OW 2793   1.869   1.612   2.045 -0.3889 -0.2800 -0.5406
  699SOL    HW1 2794   1.838   1.523   2.070  2.8287 -2.7343 -0.1262
  699SOL    HW2 2795   1.949   1.604   1.993 -1.7088  0.1042 -1.6177
  699SOL     MW 2796   1.875   1.599   2.041 -0.1385 -0.5532 -0.6281
  700SOL     OW 2797   2.684   0.872   1.604 -0.0935  0.2731  0.6014
  700SOL    HW1 2798   2.748   0.915   1.541  0.5958 -1.5938 -2.2132
  700SOL    HW2 2799   2.740   0.799   1.626  0.8331 -1.1337 -1.0430
  700SOL     MW 2800   2.700   0.868   1.599  0.1197 -0.1588  0.0131
  701SOL     OW 2801   1.678   1.073   2.524 -0.3494 -0.5747  0.7202
  701SOL    HW1 2802   1.751   1.021   2.568  1.8648  1.5722 -0.2550
  701SOL    HW2 2803   1.627   1.124   2.589 -0.7254  3.1768 -0.8189
  701SOL     MW 2804   1.681   1.073   2.538 -0.1069  0.2036  0.3885
  702SOL     OW 2805   2.063   0.467   0.676 -0.1426 -0.1196 -0.1643
  702SOL    HW1 2806   2.083   0.381   0.638 -2.4645  2.1921  1.9326
  702SOL    HW2 2807   2.130   0.527   0.642 -0.5634  0.2944 -0.7925
  702SOL     MW 2808   2.075   0.464   0.667 -0.5044  0.2400  0.0295
  703SOL     OW 2809   2.699   1.255   0.976 -0.1349 -0.0295  0.2820
  703SOL    HW1 2810   2.693   1.235   0.885  0.5462 -2.8749  2.0281
  703SOL    HW2 2811   2.692   1.164   1.007  0.4590 -2.0587 -0.2346
  703SOL     MW 2812   2.698   1.241   0.968  0.0333 -0.6727  0.4442
  704SOL     OW 2813   3.071   1.258   0.143 -0.1604  0.2812  0.3958
  704SOL    HW1 2814   2.976   1.265   0.129 -1.7674  0.8281  1.5635
  704SOL    HW2 2815   3.080   1.263   0.236 -0.8613 -0.9883 -0.3179
  704SOL     MW 2816   3.059   1.260   0.153 -0.4649  0.1858  0.4557
  705SOL     OW 2817   2.036   1.572   1.302 -0.4987  0.8866 -0.0362
  705SOL    HW1 2818   1.997   1.657   1.308  2.2495  1.2339  0.4362
  705SOL    HW2 2819   2.079   1.548   1.387  0.8005  2.2317  1.3121
  705SOL     MW 2820   2.037   1.580   1.314  0.0353  1.1099  0.2040
  706SOL     OW 2821   2.998   1.217   0.705 -0.1271 -0.1539 -0.2421
  706SOL    HW1 2822   3.049   1.214   0.627 -0.8263 -1.5653  0.7813
  706SOL    HW2 2823   2.976   1.313   0.716  1.6214  0.5594  1.4445
  706SOL     MW 2824   3.002   1.230   0.696  0.0114 -0.2460  0.1155
  707SOL     OW 2825   2.355   0.053   0.974 -0.2948  0.1799 -0.2712
  707SOL    HW1 2826   2.365   0.137   0.917 -1.5372  3.6800 -1.3663
  707SOL    HW2 2827   2.291  -0.005   0.932 -0.0635  1.5659  1.3938
  707SOL     MW 2828   2.348   0.057   0.961 -0.4282  0.8246 -0.1960
  708SOL     OW 2829   2.396   1.385   0.135  0.7690  0.7372 -0.5757
  708SOL    HW1 2830   2.488   1.374   0.161  0.5484  1.3589 -1.7285
  708SOL    HW2 2831   2.404   1.412   0.039 -1.8640 -0.8421 -0.2494
  708SOL     MW 2832   2.409   1.387   0.126  0.3925  0.6109 -0.6848
  709SOL     OW 2833   1.713   1.636   0.203 -0.2943 -0.4177  0.2049
  709SOL    HW1 2834   1.721   1.648   0.107 -1.4587 -0.7541 -0.5396
  709SOL    HW2 2835   1.621   1.635   0.217 -1.7012  2.5327 -0.1771
  709SOL     MW 2836   1.702   1.637   0.192 -0.6335 -0.0728  0.0563
  710SOL     OW 2837   2.190   1.168   1.175  0.8126 -0.1107 -0.3431
  710SOL    HW1 2838   2.209   1.129   1.085  3.4791  1.4879 -0.7868
  710SOL    HW2 2839   2.221   1.089   1.229  0.5252 -1.9549  2.1441
  710SOL     MW 2840   2.197   1.153   1.171  1.1265 -0.1431 -0.0735
  711SOL     OW 2841   2.386   0.110   1.788 -0.1389 -0.3332 -0.0108
  711SOL    HW1 2842   2.470   0.084   1.828 -1.3546 -0.7986  2.5310
  711SOL    HW2 2843   2.402   0.088   1.697 -3.8656 -0.3261  0.6475
  711SOL     MW 2844   2.399   0.104   1.781 -0.7910 -0.3936  0.4114
  712SOL     OW 2845   1.882   0.607   3.078 -0.1899  0.4845 -0.7323
  712SOL    HW1 2846   1.814   0.643   3.021  0.9002 -2.4699  3.0815
  712SOL    HW2 2847   1.852   0.620   3.170 -0.6539  1.9447  0.7591
  712SOL     MW 2848   1.869   0.613   3.082 -0.1073  0.2873 -0.0323
  713SOL     OW 2849   2.546   0.680   1.114  0.5818 -0.0949  0.3704
  713SOL    HW1 2850   2.555   0.598   1.154 -0.4334 -0.5453  0.2376
  713SOL    HW2 2851   2.517   0.747   1.177  1.9661  2.3583 -0.1103
  713SOL     MW 2852   2.544   0.678   1.127  0.6305  0.1693  0.2895
  714SOL     OW 2853   2.230   0.198   2.010  0.3817  0.1218  0.1663
  714SOL    HW1 2854   2.273   0.162   2.085  0.9025 -1.8208 -0.2958
  714SOL    HW2 2855   2.297   0.186   1.946  1.1483  0.4977  0.4232
  714SOL     MW 2856   2.244   0.192   2.011  0.5516 -0.0849  0.1392
  715SOL     OW 2857   1.828   2.002   1.722  0.1207 -0.1004 -0.2682
  715SOL    HW1 2858   1.919   2.026   1.739 -2.0392 -1.4905 -2.7509
  715SOL    HW2 2859   1.802   1.931   1.786 -0.4128 -2.6976 -1.1880
  715SOL     MW 2860   1.836   1.996   1.733 -0.2347 -0.6265 -0.7172
  716SOL     OW 2861   2.445   0.562   0.697  0.4797 -0.0012  0.6035
  716SOL    HW1 2862   2.473   0.471   0.670 -0.3175 -2.0399  1.4205
  716SOL    HW2 2863   2.387   0.588   0.631  1.3161 -1.3529  2.1035
  716SOL     MW 2864   2.441   0.554   0.685  0.4848 -0.4485  0.9092
  717SOL     OW 2865   2.812   1.628   2.823 -0.8949  0.3806 -0.5241
  717SOL    HW1 2866   2.895   1.597   2.857  0.9154  0.8780  3.0492
  717SOL    HW2 2867   2.770   1.685   2.891 -1.0561 -3.7759  1.1341
  717SOL     MW 2868   2.818   1.631   2.836 -0.6773 -0.1022  0.1661
  718SOL     OW 2869   2.654   1.346   1.282 -0.2610 -0.1760  0.4369
  718SOL    HW1 2870   2.609   1.363   1.369 -0.0193  0.7685  2.8999
  718SOL    HW2 2871   2.751   1.369   1.291 -0.0343  3.3884  0.3757
  718SOL     MW 2872   2.661   1.351   1.295 -0.1992  0.4189  0.7538
  719SOL     OW 2873   2.200   1.281   0.561  0.1016 -0.1624  0.1077
  719SOL    HW1 2874   2.291   1.317   0.549  0.1459 -1.4181 -4.9407
  719SOL    HW2 2875   2.159   1.319   0.640 -2.0986  1.0247 -0.5792
  719SOL     MW 2876   2.207   1.291   0.570 -0.1829 -0.1714 -0.6490
  720SOL     OW 2877   2.804   1.281   0.018  0.1686 -0.1933 -0.2658
  720SOL    HW1 2878   2.787   1.185   0.016 -1.8056 -0.8163 -0.2516
  720SOL    HW2 2879   2.743   1.307   0.084 -1.0079 -1.2657  0.2521
  720SOL     MW 2880   2.794   1.272   0.026 -0.2471 -0.4170 -0.1956
  721SOL     OW 2881   2.549   0.846   1.353  0.2216  0.5266 -0.2624
  721SOL    HW1 2882   2.537   0.748   1.357 -0.7369 -1.9776 -1.4756
  721SOL    HW2 2883   2.564   0.859   1.449  2.8644  1.2767 -2.1577
  721SOL     MW 2884   2.549   0.835   1.366  0.4438  0.2952 -0.6725
  722SOL     OW 2885   2.585   1.152   0.383 -0.0458  0.6503  0.4373
  722SOL    HW1 2886   2.554   1.214   0.450  2.4915 -1.7119  1.5155
  722SOL    HW2 2887   2.660   1.110   0.428  1.6856 -0.3539  0.0193
  722SOL     MW 2888   2.591   1.155   0.398  0.5174  0.2062  0.5244
  723SOL     OW 2889   2.278   1.347   1.555  0.4599 -0.4129  0.3015
  723SOL    HW1 2890   2.267   1.351   1.463  3.6768 -1.6538  1.7059
  723SOL    HW2 2891   2.207   1.403   1.597 -0.8979 -0.0488  0.1474
  723SOL     MW 2892   2.268   1.355   1.548  0.7052 -0.5286  0.4665
  724SOL     OW 2893   2.468   0.292   0.610 -0.9470 -0.5481 -0.2096
  724SOL    HW1 2894   2.470   0.284   0.705  0.6221  1.4127 -0.9911
  724SOL    HW2 2895   2.557   0.279   0.582 -0.6240  1.7465 -0.2476
  724SOL     MW 2896   2.480   0.289   0.619 -0.6973  0.0134 -0.3177
  725SOL     OW 2897   2.612   0.423   1.223  0.1743  0.4595  0.0114
  725SOL    HW1 2898   2.676   0.460   1.285  0.0385 -2.5636 -1.1514
  725SOL    HW2 2899   2.585   0.337   1.264 -0.8991 -0.1824 -1.5220
  725SOL     MW 2900   2.617   0.417   1.237  0.0147 -0.0241 -0.3443
  726SOL     OW 2901   2.504   2.499   0.434  0.1059 -0.3245 -0.5561
  726SOL    HW1 2902   2.523   2.589   0.408  2.0760 -1.7563  0.5450
  726SOL    HW2 2903   2.475   2.499   0.529  0.5643 -1.8200 -0.4413
  726SOL     MW 2904   2.502   2.511   0.443  0.4263 -0.7107 -0.3957
  727SOL     OW 2905   2.867   0.300   1.744 -0.1627  0.2614  0.1987
  727SOL    HW1 2906   2.801   0.312   1.678  0.7242  2.0606  1.1056
  727SOL    HW2 2907   2.826   0.285   1.824  0.3341  2.6630  0.9309
  727SOL     MW 2908   2.853   0.299   1.746  0.0199  0.8156  0.4149
  728SOL     OW 2909   2.837   1.170   2.862 -0.2763  0.1587  0.0735
  728SOL    HW1 2910   2.829   1.218   2.781  0.9382 -1.3336  2.3861
  728SOL    HW2 2911   2.822   1.239   2.930 -1.4217  0.4630 -0.6106
  728SOL     MW 2912   2.834   1.186   2.860 -0.2672  0.0019  0.2884
  729SOL     OW 2913   2.522   1.518   1.080  0.3440  0.0458 -0.9483
  729SOL    HW1 2914   2.595   1.457   1.099 -1.3676 -2.1303 -0.1477
  729SOL    HW2 2915   2.490   1.487   0.997  2.2059  0.8956 -2.6734
  729SOL     MW 2916   2.527   1.506   1.072  0.3638 -0.1292 -1.0702
  730SOL     OW 2917   2.217   1.182   0.181 -0.7754 -0.2501  0.0522
  730SOL    HW1 2918   2.293   1.132   0.174  0.4254  0.9375 -2.1293
  730SOL    HW2 2919   2.248   1.273   0.168 -0.8089 -0.4952 -1.5054
  730SOL     MW 2920   2.231   1.188   0.179 -0.6214 -0.1257 -0.4411
  731SOL     OW 2921   2.755   2.036   2.885  0.0872 -0.7841  0.0463
  731SOL    HW1 2922   2.694   2.025   2.816 -2.5342  0.4748  2.5404
  731SOL    HW2 2923   2.836   2.016   2.841  0.6355 -1.3998  1.7914
  731SOL     MW 2924   2.758   2.032   2.870 -0.1863 -0.6992  0.6056
  732SOL     OW 2925   2.304   0.965   1.366  0.7075 -0.0794 -0.4540
  732SOL    HW1 2926   2.283   0.939   1.457  0.8633  1.9128 -1.7773
  732SOL    HW2 2927   2.396   0.939   1.356  2.4483 -2.9062  0.5712
  732SOL     MW 2928   2.313   0.958   1.377  0.9577 -0.1895 -0.4934
  733SOL     OW 2929   2.394   2.731   2.994 -0.1419 -0.7888 -0.0539
  733SOL    HW1 2930   2.327   2.774   3.043  0.0935 -0.5290 -2.8731
  733SOL    HW2 2931   2.374   2.636   3.011  3.2457 -0.5488  0.6952
  733SOL     MW 2932   2.383   2.724   3.002  0.3361 -0.7228 -0.3270
  734SOL     OW 2933   1.509   0.274   2.513 -0.7305 -0.1572 -0.5909
  734SOL    HW1 2934   1.510   0.233   2.598  1.0103 -1.0903 -1.0524
  734SOL    HW2 2935   1.430   0.234   2.476 -2.8063 -1.5724  1.6982
  734SOL     MW 2936   1.498   0.263   2.519 -0.7747 -0.4671 -0.3498
  735SOL     OW 2937   3.000   0.890   2.669  0.3603 -0.1845 -0.4104
  735SOL    HW1 2938   2.993   0.791   2.666 -0.5212 -2.2091 -0.8983
  735SOL    HW2 2939   3.001   0.914   2.761 -0.0264  0.7090 -0.6285
  735SOL     MW 2940   2.999   0.880   2.681  0.1930 -0.3337 -0.5035
  736SOL     OW 2941   0.131   0.564   2.557 -0.0729 -0.2608 -0.3793
  736SOL    HW1 2942   0.132   0.636   2.486 -1.8025 -0.3443  0.9644
  736SOL    HW2 2943   0.187   0.495   2.531  0.2970  0.1450 -0.9260
  736SOL     MW 2944   0.138   0.564   2.544 -0.2523 -0.2183 -0.2741
  737SOL     OW 2945   2.968   0.620   2.666  0.0959 -0.4875 -0.3424
  737SOL    HW1 2946   2.889   0.612   2.606 -0.5804  0.1392 -0.7611
  737SOL    HW2 2947   3.038   0.599   2.612 -1.3365 -2.0269  0.7217
  737SOL     MW 2948   2.967   0.616   2.651 -0.1823 -0.6079 -0.2572
  738SOL     OW 2949   0.122   0.448   1.865  0.2087 -0.6973 -0.4635
  738SOL    HW1 2950   0.212   0.477   1.846 -0.1123 -0.0062 -0.1669
  738SOL    HW2 2951   0.101   0.410   1.782  1.5538 -0.4024  0.8355
  738SOL     MW 2952   0.131   0.447   1.851  0.3438 -0.5672 -0.2530
  739SOL     OW 2953   2.485   0.982   2.115  0.4930 -0.0456 -0.4877
  739SOL    HW1 2954   2.421   0.965   2.050  3.8941 -0.9798  3.4046
  739SOL    HW2 2955   2.532   1.061   2.088  1.7610 -1.2485 -1.7630
  739SOL     MW 2956   2.483   0.991   2.103  1.1090 -0.3276 -0.1424
  740SOL     OW 2957   0.113   1.786   2.955 -0.0803 -0.6628  1.0164
  740SOL    HW1 2958   0.076   1.694   2.940 -2.4504 -1.6304  0.0657
  740SOL    HW2 2959   0.193   1.778   3.003 -1.5262 -1.4782  0.9635
  740SOL     MW 2960   0.119   1.773   2.959 -0.5837 -0.8980  0.8840
  741SOL     OW 2961   2.205   1.140   2.711  0.8688  0.1411  0.0471
  741SOL    HW1 2962   2.178   1.220   2.671  2.8405 -2.8009  1.6160
  741SOL    HW2 2963   2.185   1.159   2.809  1.3950 -1.2583 -1.3633
  741SOL     MW 2964   2.199   1.153   2.719  1.1984 -0.4317  0.0680
  742SOL     OW 2965   1.595   1.232   2.268 -0.9567 -0.0412  0.1841
  742SOL    HW1 2966   1.546   1.153   2.275  0.4371  0.2964  1.0813
  742SOL    HW2 2967   1.641   1.233   2.349  1.1016 -1.1939 -0.3098
  742SOL     MW 2968   1.594   1.222   2.279 -0.5012 -0.1488  0.2373
  743SOL     OW 2969   2.491   1.234   2.727 -0.2211 -0.2884 -0.1401
  743SOL    HW1 2970   2.401   1.210   2.758 -3.0365 -0.6746  1.2460
  743SOL    HW2 2971   2.544   1.155   2.752  1.5969  1.5977  2.4028
  743SOL     MW 2972   2.486   1.220   2.734 -0.3527 -0.0905  0.3783
  744SOL     OW 2973   2.667   0.871   1.902  0.2633  0.1828  0.4185
  744SOL    HW1 2974   2.636   0.944   1.846 -0.5590 -2.8431 -1.3801
  744SOL    HW2 2975   2.601   0.800   1.896 -1.1738 -1.0922  3.1058
  744SOL     MW 2976   2.654   0.871   1.893 -0.0348 -0.3846  0.5358
  745SOL     OW 2977   1.672   0.496   2.496  0.1838  0.2445  0.3693
  745SOL    HW1 2978   1.669   0.524   2.402 -1.1913  0.2788  1.0051
  745SOL    HW2 2979   1.620   0.417   2.505  0.2473  0.6141 -0.3360
  745SOL     MW 2980   1.665   0.489   2.485  0.0108  0.2978  0.3602
  746SOL     OW 2981   1.626   1.449   1.644 -0.7306  0.5652 -0.6181
  746SOL    HW1 2982   1.719   1.419   1.661 -1.0407 -1.9329  1.3734
  746SOL    HW2 2983   1.603   1.471   1.737  1.7302  2.4290 -2.3995
  746SOL     MW 2984   1.635   1.448   1.659 -0.4468  0.4815 -0.5904
  747SOL     OW 2985   2.613   1.112   1.820 -0.2585 -0.3589 -0.0800
  747SOL    HW1 2986   2.522   1.131   1.781 -0.1213  3.1425 -1.3928
  747SOL    HW2 2987   2.630   1.186   1.883 -0.4910 -1.4998  2.0845
  747SOL     MW 2988   2.603   1.124   1.823 -0.2711 -0.0475  0.0323
  748SOL     OW 2989   0.059   0.107   1.907  0.3231  0.6486  0.0460
  748SOL    HW1 2990   0.141   0.164   1.887  0.9945 -0.4903  0.7347
  748SOL    HW2 2991   0.017   0.145   1.986  0.8449 -0.0981 -1.6363
  748SOL     MW 2992   0.064   0.120   1.914  0.4805  0.3998 -0.0851
  749SOL     OW 2993   2.542   0.593   2.768  0.1149 -0.6077  0.5616
  749SOL    HW1 2994   2.580   0.662   2.713 -0.4633 -1.1249  1.5777
  749SOL    HW2 2995   2.540   0.624   2.863  1.4767 -0.3972 -0.2543
  749SOL     MW 2996   2.547   0.606   2.773  0.2183 -0.6482  0.5880
  750SOL     OW 2997   2.019   3.076   1.989  0.1451 -0.1800 -0.0337
  750SOL    HW1 2998   2.055   3.162   2.005 -2.3727  0.9522 -1.8909
  750SOL    HW2 2999   2.096   3.016   1.967 -0.2505  1.6676 -0.9804
  750SOL     MW 3000   2.034   3.079   1.988 -0.2393  0.2131 -0.4036
  751SOL     OW 3001   0.277   0.317   2.429  0.9479  0.4585 -0.1630
  751SOL    HW1 3002   0.235   0.236   2.447  1.0448  3.8061  0.1994
  751SOL    HW2 3003   0.317   0.296   2.344  1.8019  0.6746 -0.5189
  751SOL     MW 3004   0.276   0.304   2.420  1.0733  0.9287 -0.1622
  752SOL     OW 3005   2.140   0.810   2.720  0.2118  0.3956 -0.0115
  752SOL    HW1 3006   2.223   0.852   2.693 -1.3783  1.6980 -0.0836
  752SOL    HW2 3007   2.151   0.790   2.813  1.2543 -0.0556 -0.1178
  752SOL     MW 3008   2.152   0.813   2.729  0.1395  0.5079 -0.0350
  753SOL     OW 3009   2.808   0.188   2.409 -0.8635 -0.3601  0.2984
  753SOL    HW1 3010   2.793   0.100   2.364 -2.2742 -0.9284 -1.0235
  753SOL    HW2 3011   2.763   0.251   2.354  0.4531 -0.2474  0.0053
  753SOL     MW 3012   2.800   0.185   2.396 -0.8759 -0.4202  0.0854
  754SOL     OW 3013   2.234   2.947   2.592  0.4495  0.1061  0.1250
  754SOL    HW1 3014   2.251   2.922   2.500  1.9305 -2.8195  1.0693
  754SOL    HW2 3015   2.315   2.925   2.636  0.2452 -2.3471 -0.1219
  754SOL     MW 3016   2.247   2.941   2.585  0.6180 -0.6036  0.2170
  755SOL     OW 3017   2.737   1.529   2.398  0.3322 -0.0797 -0.6099
  755SOL    HW1 3018   2.762   1.467   2.468  1.8871  0.1964 -0.4624
  755SOL    HW2 3019   2.762   1.620   2.434  1.3902 -0.2193  1.5507
  755SOL     MW 3020   2.744   1.533   2.412  0.6769 -0.0617 -0.3054
  756SOL     OW 3021   2.216   1.193   2.972  0.5785 -0.6003  0.4010
  756SOL    HW1 3022   2.277   1.264   2.987 -0.8081 -0.6269  0.8842
  756SOL    HW2 3023   2.261   1.115   2.999  0.2365  1.4878  0.3829
  756SOL     MW 3024   2.230   1.192   2.978  0.3504 -0.3283  0.4624
  757SOL     OW 3025   2.168   0.896   1.599 -0.1386  0.1185  0.2234
  757SOL    HW1 3026   2.176   0.803   1.575 -0.5414  1.8895 -0.4608
  757SOL    HW2 3027   2.083   0.911   1.545 -1.8298 -0.4291 -1.4686
  757SOL     MW 3028   2.157   0.885   1.589 -0.4149  0.2799 -0.0901
  758SOL     OW 3029   2.204   1.847   2.621  0.1608 -0.9132  0.0458
  758SOL    HW1 3030   2.164   1.854   2.539  2.2534 -0.7191 -0.2429
  758SOL    HW2 3031   2.295   1.862   2.602  0.1322  0.9567  0.5807
  758SOL     MW 3032   2.211   1.850   2.608  0.4331 -0.6409  0.0783
  759SOL     OW 3033   1.534   1.286   2.704  0.0503  0.4514  0.2700
  759SOL    HW1 3034   1.551   1.368   2.654  0.9255 -1.6889  2.6661
  759SOL    HW2 3035   1.581   1.297   2.790  0.3254 -1.0590 -0.0471
  759SOL     MW 3036   1.542   1.298   2.709  0.2021 -0.0303  0.5443
  760SOL     OW 3037   2.531   1.985   2.734  0.9905  0.1820 -0.3732
  760SOL    HW1 3038   2.517   1.894   2.699 -0.9108 -2.6978  2.0708
  760SOL    HW2 3039   2.528   2.046   2.661 -0.4949  1.7244  1.9368
  760SOL     MW 3040   2.529   1.981   2.720  0.5436  0.0056  0.2541
  761SOL     OW 3041   2.168   0.411   2.557  0.2094  0.1596  0.5319
  761SOL    HW1 3042   2.096   0.388   2.614  1.9249 -0.4030 -1.7977
  761SOL    HW2 3043   2.212   0.479   2.616  1.4508  1.9518 -1.7014
  761SOL     MW 3044   2.165   0.417   2.572  0.5995  0.3218 -0.0701
  762SOL     OW 3045   3.056   0.200   2.140  0.2361  0.2678 -0.1190
  762SOL    HW1 3046   3.087   0.142   2.210 -0.3839  2.0464 -1.2606
  762SOL    HW2 3047   3.050   0.288   2.187  0.0513  0.2932 -0.0789
  762SOL     MW 3048   3.059   0.204   2.156  0.1299  0.5058 -0.2643
  763SOL     OW 3049   2.331   1.024   2.340 -0.1281 -0.0767  0.1033
  763SOL    HW1 3050   2.352   0.998   2.252 -1.6950 -0.0565  0.7903
  763SOL    HW2 3051   2.372   1.113   2.365 -0.0520  2.7683  1.3301
  763SOL     MW 3052   2.339   1.033   2.332 -0.3248  0.3014  0.3558
  764SOL     OW 3053   0.440   0.275   2.819 -0.5141  0.1740 -0.0356
  764SOL    HW1 3054   0.354   0.233   2.803 -0.7934  0.7053  1.0941
  764SOL    HW2 3055   0.428   0.347   2.879 -0.1119  0.5165  0.0359
  764SOL     MW 3056   0.427   0.279   2.825 -0.4978  0.2893  0.1229
  765SOL     OW 3057   2.730   3.018   2.365 -0.4332 -0.1156  0.3182
  765SOL    HW1 3058   2.683   2.994   2.287 -0.7658 -1.4388  3.2130
  765SOL    HW2 3059   2.812   2.968   2.348 -0.1928 -1.0578 -1.6667
  765SOL     MW 3060   2.734   3.008   2.352 -0.4454 -0.4145  0.4383
  766SOL     OW 3061   1.873   2.941   2.178  0.1318 -0.2016 -0.0129
  766SOL    HW1 3062   1.922   2.993   2.111 -0.9992  1.3255  0.8534
  766SOL    HW2 3063   1.793   2.906   2.134  1.7109  0.2115  0.5371
  766SOL     MW 3064   1.869   2.943   2.163  0.1909  0.0544  0.1740
  767SOL     OW 3065   2.668   0.595   2.095 -0.5770  0.7400 -0.1355
  767SOL    HW1 3066   2.745   0.654   2.110  0.1425 -0.9863  3.7361
  767SOL    HW2 3067   2.619   0.636   2.024 -3.2934  2.7936  2.2592
  767SOL     MW 3068   2.672   0.608   2.088 -0.8405  0.7832  0.6913
  768SOL     OW 3069   3.071   1.554   2.903 -0.3447  0.3516 -0.1005
  768SOL    HW1 3070   3.085   1.551   3.006  1.2818 -0.4605  4.0726
  768SOL    HW2 3071   3.123   1.473   2.864 -0.6170  0.1206  0.6323
  768SOL     MW 3072   3.079   1.543   2.911 -0.1660  0.2139  0.5468
  769SOL     OW 3073   2.479   0.683   2.358  0.1999 -0.3725 -0.8135
  769SOL    HW1 3074   2.403   0.631   2.349 -0.5716 -1.2143  1.1246
  769SOL    HW2 3075   2.527   0.682   2.275  0.9542  0.2355  0.0450
  769SOL     MW 3076   2.475   0.676   2.346  0.1976 -0.4033 -0.4445
  770SOL     OW 3077   0.006   1.641   2.550  0.1305  0.5844 -0.6718
  770SOL    HW1 3078  -0.078   1.698   2.568 -3.7018 -2.0455 -0.9927
  770SOL    HW2 3079  -0.012   1.555   2.517  4.1881 -2.4984  1.2588
  770SOL     MW 3080  -0.008   1.637   2.548  0.1602 -0.1693 -0.4594
  771SOL     OW 3081   3.046   0.605   2.008 -0.3948  0.2995 -0.7653
  771SOL    HW1 3082   2.976   0.565   1.950 -1.1884  0.4992 -2.7150
  771SOL    HW2 3083   3.121   0.571   1.951  1.6323 -0.4670 -1.8242
  771SOL     MW 3084   3.047   0.595   1.993 -0.2321  0.2247 -1.1623
  772SOL     OW 3085   0.063   3.092   2.304  0.2727 -0.6649 -0.2968
  772SOL    HW1 3086  -0.023   3.055   2.283  0.7487 -2.6671  0.8528
  772SOL    HW2 3087   0.120   3.056   2.237 -1.2316  0.2158  0.8950
  772SOL     MW 3088   0.059   3.083   2.293  0.1370 -0.8129  0.0121
  773SOL     OW 3089   2.440   2.839   2.745  0.4515 -0.4102 -0.2869
  773SOL    HW1 3090   2.444   2.761   2.690 -0.7267 -1.6694 -0.4868
  773SOL    HW2 3091   2.411   2.809   2.833  1.1141 -0.6218  2.5075
  773SOL     MW 3092   2.437   2.824   2.749  0.3835 -0.6042  0.0554
  774SOL     OW 3093   2.365   1.148   1.737 -0.1577 -0.2699  0.1596
  774SOL    HW1 3094   2.330   1.198   1.663  1.0225  0.5126 -1.5966
  774SOL    HW2 3095   2.320   1.061   1.726 -1.9710  0.3446 -0.2417
  774SOL     MW 3096   2.355   1.143   1.726 -0.2412 -0.0856 -0.1250
  775SOL     OW 3097   2.319   2.932   2.331 -0.4119  0.6172  0.2825
  775SOL    HW1 3098   2.333   3.011   2.270  1.1970  1.8737  0.0232
  775SOL    HW2 3099   2.374   2.869   2.294 -2.5763 -2.8951 -0.6502
  775SOL     MW 3100   2.328   2.934   2.318 -0.4852  0.3196  0.1253
  776SOL     OW 3101   0.038   1.536   0.098  0.0051  0.0764 -0.2815
  776SOL    HW1 3102   0.125   1.506   0.087  0.0627  2.1414 -0.2557
  776SOL    HW2 3103  -0.009   1.458   0.113 -0.0838  2.4928 -0.5938
  776SOL     MW 3104   0.043   1.522   0.098  0.0009  0.6677 -0.3193
  777SOL     OW 3105   2.964   0.993   1.751 -0.3161 -0.4227  0.2295
  777SOL    HW1 3106   2.913   1.072   1.717  0.1444 -2.4270 -1.0100
  777SOL    HW2 3107   2.892   0.929   1.761 -0.3447  0.2205 -3.0828
  777SOL     MW 3108   2.948   0.995   1.748 -0.2591 -0.6023 -0.3711
  778SOL     OW 3109   2.888   0.390   2.771 -0.0062 -0.9489 -0.0165
  778SOL    HW1 3110   2.871   0.430   2.860  1.2437  0.0280 -1.2513
  778SOL    HW2 3111   2.927   0.469   2.728  0.3693 -2.8823  0.1585
  778SOL     MW 3112   2.891   0.405   2.777  0.2083 -1.0751 -0.1563
  779SOL     OW 3113   2.110   0.550   2.314 -0.1060 -0.1016  0.2365
  779SOL    HW1 3114   2.066   0.627   2.334  0.6295 -3.6154 -0.7917
  779SOL    HW2 3115   2.129   0.510   2.393 -0.3955 -0.6718 -2.6760
  779SOL     MW 3116   2.107   0.555   2.327 -0.0471 -0.6404 -0.2835
  780SOL     OW 3117   0.182   0.121   2.839 -0.4113  0.0204  0.1199
  780SOL    HW1 3118   0.114   0.159   2.898 -2.3362 -0.3505 -0.8184
  780SOL    HW2 3119   0.124   0.113   2.764  0.5272 -0.7478  1.5155
  780SOL     MW 3120   0.166   0.125   2.837 -0.5415 -0.1299  0.1803
  781SOL     OW 3121   3.053   1.368   2.465 -0.4245  0.4507 -0.5944
  781SOL    HW1 3122   3.049   1.393   2.374 -2.0377  1.5669 -1.2056
  781SOL    HW2 3123   3.097   1.282   2.462  1.8217 -2.0574 -1.5113
  781SOL     MW 3124   3.059   1.360   2.453 -0.3410  0.2671 -0.7960
  782SOL     OW 3125   0.532   1.575   3.049  0.6760 -0.5203  0.1623
  782SOL    HW1 3126   0.482   1.654   3.023  0.4084  1.7663  1.0205
  782SOL    HW2 3127   0.532   1.554   3.145  1.5163 -0.8001 -2.1764
  782SOL     MW 3128   0.525   1.583   3.058  0.7515 -0.2555 -0.0330
  783SOL     OW 3129   2.791   0.567   2.451  0.4292  0.0011 -0.2970
  783SOL    HW1 3130   2.862   0.518   2.417  0.6736  1.5826 -1.9807
  783SOL    HW2 3131   2.726   0.506   2.482  0.1492  2.1420 -0.9182
  783SOL     MW 3132   2.791   0.552   2.451  0.4245  0.4923 -0.6011
  784SOL     OW 3133   0.218   0.923   2.900 -0.5099  0.1480 -0.6157
  784SOL    HW1 3134   0.221   1.000   2.969  2.0123  0.5411 -0.4236
  784SOL    HW2 3135   0.225   0.963   2.812  2.7651 -3.3574  1.2394
  784SOL     MW 3136   0.219   0.939   2.898  0.2550 -0.2626 -0.3456
  785SOL     OW 3137   0.348   0.480   2.115 -0.2600  0.0451 -0.1099
  785SOL    HW1 3138   0.343   0.489   2.018 -0.2771  1.5005  1.3458
  785SOL    HW2 3139   0.296   0.401   2.128  0.7735  2.3911  3.5651
  785SOL     MW 3140   0.340   0.471   2.104 -0.1259  0.5467  0.5670
  786SOL     OW 3141   2.007   0.505   2.831  1.0330  0.0447  0.0079
  786SOL    HW1 3142   2.002   0.541   2.922  1.8875 -1.6315  0.3356
  786SOL    HW2 3143   2.085   0.541   2.795 -0.6411  0.4862 -3.4574
  786SOL     MW 3144   2.017   0.515   2.838  0.9249 -0.1182 -0.4061
  787SOL     OW 3145   2.442   0.189   2.921 -0.0281 -0.3696  0.4561
  787SOL    HW1 3146   2.490   0.125   2.871  1.7461  0.0249  0.2832
  787SOL    HW2 3147   2.506   0.250   2.950 -2.4481 -0.1424 -0.5105
  787SOL     MW 3148   2.457   0.189   2.918 -0.1133 -0.2876  0.3057
  788SOL     OW 3149   2.966   2.918   2.277 -0.0896 -0.3185 -0.0394
  788SOL    HW1 3150   2.980   2.861   2.206  1.5206  2.2429  0.1002
  788SOL    HW2 3151   3.021   2.868   2.340  1.3016  0.3932 -1.2170
  788SOL     MW 3152   2.975   2.904   2.276  0.3064  0.1134 -0.1763
  789SOL     OW 3153   0.024   0.254   3.019  0.6683  0.3800 -0.3015
  789SOL    HW1 3154  -0.065   0.267   3.041  0.2999 -1.7555  1.2412
  789SOL    HW2 3155   0.073   0.269   3.100 -1.2782  0.0961 -0.6037
  789SOL     MW 3156   0.019   0.258   3.032  0.3629  0.0608 -0.1378
  790SOL     OW 3157   0.021   1.060   2.504  0.0030 -0.0320  0.4410
  790SOL    HW1 3158  -0.020   1.005   2.569  2.2758 -0.5825  0.6239
  790SOL    HW2 3159  -0.043   1.069   2.437  0.0117  0.8280  0.0722
  790SOL     MW 3160   0.007   1.054   2.504  0.3040  0.0088  0.4165
  791SOL     OW 3161   2.654   0.387   2.634  0.0708 -0.0603  0.2375
  791SOL    HW1 3162   2.606   0.451   2.683  3.2705  0.3134 -1.0519
  791SOL    HW2 3163   2.736   0.392   2.685 -0.7588  0.3220 -1.6555
  791SOL     MW 3164   2.659   0.396   2.647  0.3835  0.0395 -0.1824
  792SOL     OW 3165   2.428   0.231   2.379  0.8795  0.2174 -0.7199
  792SOL    HW1 3166   2.370   0.298   2.405 -1.7997 -0.6238  0.5120
  792SOL    HW2 3167   2.492   0.214   2.446 -1.3361 -0.7827 -1.7040
  792SOL     MW 3168   2.429   0.238   2.391  0.2337 -0.0256 -0.6872
  793SOL     OW 3169   1.744   1.037   1.867  0.1258  0.4297  0.7533
  793SOL    HW1 3170   1.693   1.077   1.791 -1.8317 -1.6451 -1.9304
  793SOL    HW2 3171   1.824   1.008   1.825  0.4447 -4.2284  0.6520
  793SOL     MW 3172   1.748   1.039   1.852 -0.0904 -0.4586  0.3859
  794SOL     OW 3173   1.426   2.299   0.119  0.5829  0.3063 -0.2806
  794SOL    HW1 3174   1.456   2.352   0.043  2.1537  0.0314 -0.4726
  794SOL    HW2 3175   1.458   2.336   0.199 -0.4028  0.7055 -0.0783
  794SOL     MW 3176   1.434   2.311   0.119  0.6601  0.3227 -0.2793
  795SOL     OW 3177   2.358   0.928   2.595  0.0152  0.0215  0.4697
  795SOL    HW1 3178   2.308   0.999   2.630  0.0644  0.3043 -1.5945
  795SOL    HW2 3179   2.359   0.940   2.500  1.3751  0.6820 -0.1490
  795SOL     MW 3180   2.352   0.939   2.587  0.2011  0.1460  0.1157
  796SOL     OW 3181   0.319   0.690   2.779  0.0930  0.1692  0.2337
  796SOL    HW1 3182   0.284   0.770   2.815  0.5140 -0.8823  0.6202
  796SOL    HW2 3183   0.261   0.654   2.711 -2.1217  1.4180 -0.4557
  796SOL     MW 3184   0.307   0.696   2.774 -0.1437  0.1952  0.1937
  797SOL     OW 3185   2.588   0.141   2.565  0.0872  0.0567  0.5810
  797SOL    HW1 3186   2.606   0.230   2.607  2.4517  3.3890  0.4030
  797SOL    HW2 3187   2.663   0.132   2.506 -0.2272  0.6370 -0.1172
  797SOL     MW 3188   2.600   0.151   2.563  0.3577  0.5729  0.4654
  798SOL     OW 3189   2.373   0.044   2.192 -0.4399  0.4960  0.0546
  798SOL    HW1 3190   2.388   0.102   2.270 -0.5869 -0.9156  1.4385
  798SOL    HW2 3191   2.455  -0.002   2.169 -1.0543 -0.0617  1.4925
  798SOL     MW 3192   2.386   0.046   2.199 -0.5404  0.2362  0.4269
  799SOL     OW 3193   2.508   2.947   0.205  0.8149  0.0661  0.2332
  799SOL    HW1 3194   2.570   2.916   0.137 -1.8428  2.3799 -1.0299
  799SOL    HW2 3195   2.448   3.008   0.157  0.0520  1.3906 -0.5618
  799SOL     MW 3196   2.508   2.951   0.190  0.3636  0.5461 -0.0384
  800SOL     OW 3197   1.921   3.090   1.718  0.0761 -0.1702 -0.5948
  800SOL    HW1 3198   1.862   3.015   1.735  1.6111 -1.1680 -1.5551
  800SOL    HW2 3199   1.987   3.082   1.792  0.4603  1.3904 -0.7537
  800SOL     MW 3200   1.922   3.079   1.730  0.3293 -0.0960 -0.7424
  801SOL     OW 3201   2.821   1.289   2.605  0.0298  0.1349  0.7570
  801SOL    HW1 3202   2.799   1.213   2.544  0.9998  0.7366 -1.6313
  801SOL    HW2 3203   2.910   1.310   2.582  0.5906  0.1670  1.0117
  801SOL     MW 3204   2.830   1.282   2.594  0.2317  0.2186  0.4755
  802SOL     OW 3205   2.563   1.502   2.778  0.3112  0.3313 -0.0235
  802SOL    HW1 3206   2.554   1.409   2.755  2.2589  0.3389 -2.7615
  802SOL    HW2 3207   2.653   1.517   2.789 -1.2485  0.4172  0.2839
  802SOL     MW 3208   2.574   1.492   2.776  0.3624  0.3436 -0.3442
  803SOL     OW 3209   2.286   1.325   1.961 -0.0397  0.3734 -0.5176
  803SOL    HW1 3210   2.242   1.264   2.019  0.3089  1.4028  1.9250
  803SOL    HW2 3211   2.322   1.279   1.887 -1.0331  1.4129  1.5201
  803SOL     MW 3212   2.285   1.311   1.959 -0.1248  0.6464  0.0736
  804SOL     OW 3213   2.351   0.036   0.041  0.2018 -0.4407 -0.0668
  804SOL    HW1 3214   2.262   0.081   0.036  0.1283 -1.6052 -0.5719
  804SOL    HW2 3215   2.405   0.075  -0.030 -0.8174 -0.9700 -0.2692
  804SOL     MW 3216   2.346   0.047   0.031  0.0576 -0.6642 -0.1601
  805SOL     OW 3217   2.779   1.018   2.533  0.7183  0.1046  0.3373
  805SOL    HW1 3218   2.704   0.958   2.542 -0.9128  1.3001 -2.1868
  805SOL    HW2 3219   2.848   0.965   2.578  1.0575  1.3101 -0.6950
  805SOL     MW 3220   2.778   1.003   2.540  0.5479  0.4214 -0.1319
  806SOL     OW 3221   2.670   0.331   2.224 -0.6518 -0.4253 -0.0411
  806SOL    HW1 3222   2.585   0.321   2.263  0.1364  2.0276 -0.7195
  806SOL    HW2 3223   2.679   0.412   2.181 -0.9548 -2.7297  0.7736
  806SOL     MW 3224   2.660   0.340   2.223 -0.5878 -0.4057 -0.0231
  807SOL     OW 3225   0.030   1.157   2.073  0.4229 -0.0041  0.1860
  807SOL    HW1 3226   0.039   1.080   2.020 -2.3671  0.3545  1.1795
  807SOL    HW2 3227  -0.038   1.136   2.137 -0.6385  1.6067  0.2034
  807SOL     MW 3228   0.022   1.144   2.075 -0.0853  0.2558  0.3194
  808SOL     OW 3229   2.584   3.085   2.791  0.3189  0.0830 -0.6075
  808SOL    HW1 3230   2.529   3.006   2.771 -1.1977  1.5809  1.2193
  808SOL    HW2 3231   2.585   3.132   2.705 -0.3420 -3.2797  0.1101
  808SOL     MW 3232   2.577   3.081   2.777  0.0316 -0.1630 -0.2718
  809SOL     OW 3233   2.496   1.242   2.409  0.0412  0.2081  0.0287
  809SOL    HW1 3234   2.515   1.193   2.482 -0.2839 -1.4274 -0.0483
  809SOL    HW2 3235   2.573   1.231   2.355  1.2397  0.0956 -1.4871
  809SOL     MW 3236   2.509   1.234   2.412  0.1565 -0.0225 -0.1814
  810SOL     OW 3237   2.150   1.179   2.171 -0.4564 -0.3824  0.1270
  810SOL    HW1 3238   2.205   1.111   2.209  0.3164 -1.7010  0.1555
  810SOL    HW2 3239   2.069   1.138   2.134 -1.5346  2.2962  0.5864
  810SOL     MW 3240   2.147   1.164   2.171 -0.4967 -0.2030  0.1914
  811SOL     OW 3241   1.512   0.089   2.247  0.5684 -0.1135 -0.1835
  811SOL    HW1 3242   1.597   0.054   2.291  0.9887 -2.5398  0.7507
  811SOL    HW2 3243   1.540   0.074   2.160 -1.2046 -2.0930  2.7788
  811SOL     MW 3244   1.527   0.082   2.241  0.3899 -0.6948  0.3306
  812SOL     OW 3245   1.444   2.764   2.118  0.5708 -0.1550 -0.1208
  812SOL    HW1 3246   1.535   2.769   2.079 -0.1480 -1.8185  2.6766
  812SOL    HW2 3247   1.461   2.759   2.212 -0.4948 -0.6835 -1.0725
  812SOL     MW 3248   1.458   2.764   2.126  0.3353 -0.4442  0.1227
  813SOL     OW 3249   1.854   0.736   2.169  0.3172 -0.6510  0.1655
  813SOL    HW1 3250   1.813   0.648   2.175 -1.6996 -1.0689  3.0022
  813SOL    HW2 3251   1.873   0.761   2.261  0.3954 -0.8272 -0.7409
  813SOL     MW 3252   1.851   0.728   2.182  0.0614 -0.7294  0.4202
  814SOL     OW 3253   2.804   1.207   1.634  0.4982  0.1734  0.4635
  814SOL    HW1 3254   2.736   1.145   1.673 -0.7357 -0.3411  2.0601
  814SOL    HW2 3255   2.819   1.173   1.546 -0.2561  0.9743 -1.0186
  814SOL     MW 3256   2.797   1.194   1.628  0.2359  0.2112  0.4786
  815SOL     OW 3257   2.478   1.624   2.344  0.1549 -0.1740  0.1089
  815SOL    HW1 3258   2.397   1.564   2.342  1.3800 -1.8617  1.0164
  815SOL    HW2 3259   2.552   1.571   2.334 -0.8603 -1.1287 -0.1120
  815SOL     MW 3260   2.477   1.609   2.343  0.1826 -0.5227  0.1995
  816SOL     OW 3261   0.658   0.676   2.668  0.4527  0.3998  0.1739
  816SOL    HW1 3262   0.708   0.614   2.720 -0.1220  2.5094 -0.0137
  816SOL    HW2 3263   0.599   0.614   2.613 -1.0740  0.5166 -1.8742
  816SOL     MW 3264   0.657   0.660   2.667  0.1755  0.6936 -0.1211
  817SOL     OW 3265   3.037   1.153   1.336  0.6663 -0.1082 -0.4502
  817SOL    HW1 3266   3.087   1.172   1.416  0.5384  1.8737 -3.2776
  817SOL    HW2 3267   2.978   1.233   1.325 -1.1853  1.2129  1.4426
  817SOL     MW 3268   3.036   1.166   1.345  0.4051  0.3276 -0.5735
  818SOL     OW 3269   1.911   0.963   2.686 -0.0382 -0.1903  0.0334
  818SOL    HW1 3270   1.963   1.022   2.630  1.2535  0.9628 -1.0958
  818SOL    HW2 3271   1.971   0.891   2.703 -0.6663 -0.7929  3.3928
  818SOL     MW 3272   1.925   0.961   2.681  0.0494 -0.1177  0.3277
  819SOL     OW 3273   1.905   0.256   2.332  0.9079  0.0271 -0.0880
  819SOL    HW1 3274   1.856   0.335   2.356  1.8437 -3.3201  1.6792
  819SOL    HW2 3275   1.940   0.220   2.412  0.4125 -0.9327 -1.3049
  819SOL     MW 3276   1.903   0.261   2.345  0.9660 -0.5412 -0.0154
  820SOL     OW 3277   2.480   1.744   2.601 -0.5690 -0.2201 -0.1324
  820SOL    HW1 3278   2.533   1.682   2.655  4.0387 -2.4475 -1.7261
  820SOL    HW2 3279   2.460   1.700   2.518  3.0315  1.1798 -0.4874
  820SOL     MW 3280   2.485   1.730   2.597  0.5140 -0.3293 -0.3895
  821SOL     OW 3281   2.573   1.321   2.003 -0.3053 -0.2421  0.4201
  821SOL    HW1 3282   2.589   1.399   1.945 -0.4192  0.3203  0.6925
  821SOL    HW2 3283   2.483   1.325   2.017 -0.6047  0.3668  1.5478
  821SOL     MW 3284   2.563   1.332   1.997 -0.3598 -0.0876  0.6048
  822SOL     OW 3285   2.922   2.641   1.442 -0.3578 -0.5389  0.3529
  822SOL    HW1 3286   2.839   2.679   1.419 -0.3630  2.2788  1.5347
  822SOL    HW2 3287   2.978   2.716   1.474  2.4416 -0.9021  1.9208
  822SOL     MW 3288   2.918   2.656   1.443  0.0108 -0.2150  0.7157
  823SOL     OW 3289   2.354   0.469   1.782  0.1645 -0.0647  0.4830
  823SOL    HW1 3290   2.418   0.433   1.717  1.8106  2.6669 -0.6351
  823SOL    HW2 3291   2.280   0.404   1.776  0.8248  0.0865  1.2122
  823SOL     MW 3292   2.353   0.456   1.773  0.4688  0.3156  0.4317
  824SOL     OW 3293   2.112   1.369   2.590  0.0524 -0.0681 -0.1806
  824SOL    HW1 3294   2.170   1.405   2.519  0.5945 -1.3555 -1.2518
  824SOL    HW2 3295   2.100   1.442   2.656 -0.7217  0.2546 -1.5243
  824SOL     MW 3296   2.118   1.383   2.590  0.0218 -0.1954 -0.4992
  825SOL     OW 3297   2.130   2.378   0.351  0.0526 -0.4388  0.0289
  825SOL    HW1 3298   2.197   2.405   0.281 -2.1880 -2.4692 -1.0732
  825SOL    HW2 3299   2.184   2.377   0.429 -0.2441  1.4398  2.2558
  825SOL     MW 3300   2.146   2.382   0.352 -0.2822 -0.4588  0.1773
  826SOL     OW 3301   1.745   2.398   0.423  0.4139  0.2980  0.1309
  826SOL    HW1 3302   1.758   2.333   0.496 -0.3324 -1.2578  2.0109
  826SOL    HW2 3303   1.812   2.463   0.454  0.6115  2.9649 -1.3335
  826SOL     MW 3304   1.756   2.398   0.437  0.3415  0.4446  0.1857
  827SOL     OW 3305   1.927   2.271   0.861 -0.2105 -0.1351 -0.0609
  827SOL    HW1 3306   1.887   2.290   0.775 -0.6643 -0.5969  1.2575
  827SOL    HW2 3307   1.895   2.192   0.899  1.4839 -1.9385 -0.0911
  827SOL     MW 3308   1.917   2.263   0.855 -0.0468 -0.4340  0.1090
  828SOL     OW 3309   0.096   2.613   0.549  0.3440  0.5014 -0.0823
  828SOL    HW1 3310   0.176   2.650   0.586 -1.1164 -0.7149 -0.3463
  828SOL    HW2 3311   0.084   2.660   0.465  1.4191  1.0590  1.9240
  828SOL     MW 3312   0.105   2.624   0.543  0.2931  0.4145  0.1476
  829SOL     OW 3313   2.997   2.859   1.199 -0.0245 -0.4203 -0.0128
  829SOL    HW1 3314   2.915   2.859   1.144  2.5357 -1.3204  1.7598
  829SOL    HW2 3315   3.038   2.776   1.182  0.7306  1.5339  0.2067
  829SOL     MW 3316   2.992   2.848   1.190  0.4129 -0.2812  0.2500
  830SOL     OW 3317   2.513   2.790   1.995 -0.0973  0.1612 -0.2235
  830SOL    HW1 3318   2.426   2.837   1.973 -2.9527  1.9333 -1.4486
  830SOL    HW2 3319   2.558   2.791   1.912 -1.1721 -0.3803  1.2585
  830SOL     MW 3320   2.507   2.796   1.981 -0.6159  0.3235 -0.1896
  831SOL     OW 3321   2.465   2.422   1.238  0.0734  0.0122 -0.0254
  831SOL    HW1 3322   2.469   2.341   1.289 -0.2234  0.5171 -2.5624
  831SOL    HW2 3323   2.554   2.424   1.199  1.8813  0.8077  1.2667
  831SOL     MW 3324   2.477   2.412   1.240  0.2728  0.1838 -0.1896
  832SOL     OW 3325   2.434   2.111   1.911 -0.0274 -0.4956  0.1056
  832SOL    HW1 3326   2.454   2.208   1.903  0.0436  2.8211  1.2455
  832SOL    HW2 3327   2.499   2.080   1.851 -0.9499 -0.4457 -2.1462
  832SOL     MW 3328   2.446   2.120   1.902 -0.1397 -0.0514 -0.0411
  833SOL     OW 3329   1.620   2.500   0.808 -0.3006 -0.2787 -0.4607
  833SOL    HW1 3330   1.594   2.433   0.872  1.2315  0.9152 -2.4811
  833SOL    HW2 3331   1.541   2.565   0.816 -2.4250 -3.2628  2.1607
  833SOL     MW 3332   1.606   2.500   0.818 -0.3788 -0.5149 -0.3814
  834SOL     OW 3333   2.216   2.397   0.649 -1.1501  0.6698 -0.4226
  834SOL    HW1 3334   2.214   2.297   0.653  1.1722 -0.1131 -1.0031
  834SOL    HW2 3335   2.299   2.426   0.697  1.0240  1.1345  1.2135
  834SOL     MW 3336   2.227   2.388   0.656 -0.5568  0.6278 -0.2833
  835SOL     OW 3337   1.870   2.576   0.663  0.9101  0.8345  0.7615
  835SOL    HW1 3338   1.800   2.524   0.700 -2.9808 -1.6491 -0.5545
  835SOL    HW2 3339   1.942   2.563   0.722  1.6034  3.8473  0.0838
  835SOL     MW 3340   1.870   2.567   0.676  0.4882  0.9043  0.4985
  836SOL     OW 3341   2.087   2.061   1.754 -0.0002 -0.0682  0.5923
  836SOL    HW1 3342   2.171   2.013   1.741  1.1317 -1.0504  0.4519
  836SOL    HW2 3343   2.114   2.148   1.788 -0.1590  0.2525 -1.3646
  836SOL     MW 3344   2.102   2.066   1.757  0.1282 -0.1555  0.3156
  837SOL     OW 3345   2.126   0.178   0.646 -0.1106  0.4222  0.1867
  837SOL    HW1 3346   2.042   0.188   0.610  3.6156 -2.1740  3.0044
  837SOL    HW2 3347   2.185   0.147   0.579 -1.3062  2.0334  0.8485
  837SOL     MW 3348   2.123   0.175   0.632  0.2232  0.2923  0.6458
  838SOL     OW 3349   2.930   2.049   0.911  0.0416 -0.4976  0.3131
  838SOL    HW1 3350   2.861   1.987   0.893  0.6579  1.8971  1.5132
  838SOL    HW2 3351   2.955   2.045   1.002 -0.2359 -1.4263 -0.5813
  838SOL     MW 3352   2.924   2.041   0.921  0.0863 -0.3042  0.3535
  839SOL     OW 3353   1.530   2.388   1.081 -0.2760 -0.3496 -0.3343
  839SOL    HW1 3354   1.503   2.457   1.143  3.0564 -0.2577  0.1336
  839SOL    HW2 3355   1.524   2.297   1.123  3.4011  4.4365  0.1572
  839SOL     MW 3356   1.526   2.385   1.095  0.6488  0.2940 -0.2077
  840SOL     OW 3357   2.412   2.111   2.320 -0.5703  0.1274 -0.2074
  840SOL    HW1 3358   2.363   2.191   2.295 -0.5644 -1.1653  0.3455
  840SOL    HW2 3359   2.464   2.148   2.399  0.1621  0.9162  0.3003
  840SOL     MW 3360   2.413   2.126   2.327 -0.4729  0.0609 -0.0675
  841SOL     OW 3361   2.303   2.299   0.119 -0.4821 -0.1552  0.0721
  841SOL    HW1 3362   2.321   2.335   0.028 -1.6346 -1.4394 -1.0061
  841SOL    HW2 3363   2.226   2.242   0.112 -1.0234 -0.7566  2.0252
  841SOL     MW 3364   2.295   2.296   0.106 -0.7056 -0.4040  0.1875
  842SOL     OW 3365   2.668   1.935   1.485  0.3448  0.3263 -0.0738
  842SOL    HW1 3366   2.611   1.859   1.465 -0.5969  1.2768  2.1236
  842SOL    HW2 3367   2.662   1.990   1.410  1.9947 -0.9710  0.8101
  842SOL     MW 3368   2.659   1.932   1.473  0.4382  0.2805  0.3328
  843SOL     OW 3369   2.648   2.775   1.763  0.4352 -0.3559 -0.2677
  843SOL    HW1 3370   2.724   2.731   1.789 -3.0520 -0.2501  1.5809
  843SOL    HW2 3371   2.603   2.708   1.704 -2.5267  1.0425  0.7753
  843SOL     MW 3372   2.652   2.761   1.758 -0.4157 -0.1574  0.1139
  844SOL     OW 3373   2.677   2.335   1.086 -0.4166  0.1231  0.2245
  844SOL    HW1 3374   2.688   2.382   1.001  3.6598 -1.0724 -1.0571
  844SOL    HW2 3375   2.743   2.378   1.142 -1.0508  0.9489 -0.2490
  844SOL     MW 3376   2.687   2.347   1.082  0.0376  0.0743 -0.0071
  845SOL     OW 3377   2.840   2.615   0.274  0.0093  0.1365  0.0272
  845SOL    HW1 3378   2.817   2.544   0.341 -0.0792  1.7874 -1.1529
  845SOL    HW2 3379   2.852   2.691   0.338 -2.4032 -0.3986  1.0670
  845SOL     MW 3380   2.838   2.616   0.292 -0.3207  0.2837  0.0087
  846SOL     OW 3381   1.453   2.735   0.773 -0.4604 -0.4362 -0.1063
  846SOL    HW1 3382   1.506   2.808   0.804  0.5701 -1.7085 -0.3356
  846SOL    HW2 3383   1.362   2.759   0.791 -1.4082  1.5992  1.7021
  846SOL     MW 3384   1.448   2.748   0.779 -0.4495 -0.3356  0.1021
  847SOL     OW 3385   2.450   1.817   0.222  0.1082 -0.3782  0.1696
  847SOL    HW1 3386   2.411   1.731   0.247 -2.5195 -2.4784  1.0135
  847SOL    HW2 3387   2.414   1.846   0.130 -3.7717 -0.2229 -0.4157
  847SOL     MW 3388   2.440   1.809   0.213 -0.7504 -0.6348  0.2037
  848SOL     OW 3389   2.700   2.054   1.198  0.8555  0.4312  0.3153
  848SOL    HW1 3390   2.726   2.133   1.150  0.1114 -1.6283 -5.4369
  848SOL    HW2 3391   2.712   1.979   1.137 -0.7341  0.4764 -1.7111
  848SOL     MW 3392   2.705   2.055   1.183  0.5476  0.1654 -0.7110
  849SOL     OW 3393   1.940   2.845   0.826  0.0650  0.2006 -0.4994
  849SOL    HW1 3394   1.904   2.764   0.868 -3.8319  0.5761  2.9702
  849SOL    HW2 3395   2.006   2.803   0.771 -1.0655 -0.1080  1.6499
  849SOL     MW 3396   1.944   2.829   0.825 -0.5983  0.2094  0.2420
  850SOL     OW 3397   2.328   1.940   1.613 -0.2983  0.1020  0.0613
  850SOL    HW1 3398   2.240   1.921   1.573  1.5247 -0.2299 -0.4730
  850SOL    HW2 3399   2.344   2.034   1.599 -2.1695  3.5013 -2.5941
  850SOL     MW 3400   2.318   1.950   1.606 -0.3046  0.5067 -0.3596
  851SOL     OW 3401   2.541   2.198   0.406  0.3908 -0.1598  0.8052
  851SOL    HW1 3402   2.569   2.159   0.319  2.0802  1.5161 -0.9197
  851SOL    HW2 3403   2.508   2.285   0.387  3.6635  2.6611  0.8974
  851SOL     MW 3404   2.541   2.205   0.392  1.0455  0.4335  0.5898
  852SOL     OW 3405   2.299   2.001   0.353  1.1446  0.5074  0.1952
  852SOL    HW1 3406   2.283   2.088   0.314 -2.2369 -0.9253  0.9755
  852SOL    HW2 3407   2.366   1.949   0.301 -0.5741 -0.6539 -0.4755
  852SOL     MW 3408   2.306   2.006   0.341  0.4717  0.1652  0.2096
  853SOL     OW 3409   2.525   2.391   1.903 -0.3995  0.3831 -0.1497
  853SOL    HW1 3410   2.533   2.437   1.817  1.9258  1.4000 -1.1509
  853SOL    HW2 3411   2.617   2.369   1.921 -2.1651  2.0850 -0.1804
  853SOL     MW 3412   2.538   2.394   1.894 -0.3256  0.7418 -0.2858
  854SOL     OW 3413   2.861   2.257   0.730 -0.3002  0.3333 -0.0304
  854SOL    HW1 3414   2.768   2.235   0.735  0.8253 -0.2553  2.0273
  854SOL    HW2 3415   2.904   2.188   0.787  1.8108 -1.8847 -1.9434
  854SOL     MW 3416   2.855   2.245   0.738  0.1268 -0.0370 -0.0113
  855SOL     OW 3417   2.796   2.381   0.429  0.1171 -0.0316 -0.0548
  855SOL    HW1 3418   2.710   2.346   0.413 -0.0280 -0.9932  0.2050
  855SOL    HW2 3419   2.854   2.308   0.420  1.4715  0.2150 -0.2424
  855SOL     MW 3420   2.793   2.367   0.426  0.2767 -0.1259 -0.0453
  856SOL     OW 3421   2.093   1.857   0.239  0.3208 -0.7178 -0.2952
  856SOL    HW1 3422   2.015   1.875   0.289  1.5694  0.6002  0.4508
  856SOL    HW2 3423   2.152   1.926   0.267 -0.1881  0.1919  0.3679
  856SOL     MW 3424   2.091   1.868   0.249  0.4184 -0.4239 -0.1093
  857SOL     OW 3425   2.456   1.913   0.581 -0.2959 -0.0162 -0.2512
  857SOL    HW1 3426   2.408   1.950   0.509  1.2867 -0.7997  0.9892
  857SOL    HW2 3427   2.392   1.907   0.657 -0.8002 -0.7941  1.6462
  857SOL     MW 3428   2.442   1.917   0.582 -0.1536 -0.2222  0.1628
  858SOL     OW 3429   2.919   2.686   1.812  0.5433 -0.3587  0.2739
  858SOL    HW1 3430   2.998   2.735   1.828  1.0071 -1.9940  2.1692
  858SOL    HW2 3431   2.951   2.610   1.769 -0.3351  0.3182  0.9281
  858SOL     MW 3432   2.934   2.682   1.809  0.4886 -0.4852  0.6103
  859SOL     OW 3433   1.769   2.653   0.974 -0.4780 -0.2080  0.2791
  859SOL    HW1 3434   1.704   2.599   0.930 -1.6210 -2.3999  0.4733
  859SOL    HW2 3435   1.814   2.580   1.017  1.7706 -3.1985  1.2837
  859SOL     MW 3436   1.766   2.636   0.974 -0.3321 -0.8918  0.4372
  860SOL     OW 3437   2.632   2.585   0.115 -0.1650 -0.0304 -0.9003
  860SOL    HW1 3438   2.703   2.598   0.183  0.4102 -0.3030 -2.2311
  860SOL    HW2 3439   2.636   2.669   0.059  0.9712  0.7089 -1.1920
  860SOL     MW 3440   2.641   2.598   0.117  0.0608  0.0312 -1.1144
  861SOL     OW 3441   1.610   2.154   1.179 -0.2335  0.2506 -0.1871
  861SOL    HW1 3442   1.636   2.207   1.255  1.4908 -0.1481  2.5348
  861SOL    HW2 3443   1.529   2.110   1.214 -1.2132  1.5768  0.4226
  861SOL     MW 3444   1.603   2.156   1.193 -0.1353  0.3729  0.2525
  862SOL     OW 3445   2.411   1.713   1.430  0.2787 -0.1522  0.0153
  862SOL    HW1 3446   2.371   1.787   1.474 -1.1553  1.5607  2.2948
  862SOL    HW2 3447   2.348   1.679   1.366 -2.0428 -1.5613  1.7073
  862SOL     MW 3448   2.397   1.718   1.428 -0.2168 -0.1121  0.5393
  863SOL     OW 3449   2.915   1.709   0.968 -0.7569 -0.7178 -0.2824
  863SOL    HW1 3450   2.902   1.756   1.050 -2.1813  1.1316 -0.7297
  863SOL    HW2 3451   2.831   1.707   0.920  0.0369  2.4768 -1.3147
  863SOL     MW 3452   2.902   1.715   0.972 -0.8401 -0.0523 -0.4777
  864SOL     OW 3453   0.012   1.754   0.771 -0.6387 -0.0759  0.4906
  864SOL    HW1 3454  -0.041   1.735   0.850 -0.5787 -1.6896 -0.2297
  864SOL    HW2 3455  -0.049   1.766   0.693  1.8134  0.5745 -2.7677
  864SOL     MW 3456  -0.003   1.753   0.771 -0.3073 -0.2030 -0.0344
  865SOL     OW 3457   2.546   2.142   0.131 -0.4503  0.0446 -0.1239
  865SOL    HW1 3458   2.557   2.054   0.095 -0.6284 -2.1944  0.7686
  865SOL    HW2 3459   2.457   2.187   0.111  1.6401  1.1768  2.9467
  865SOL     MW 3460   2.535   2.136   0.124 -0.1980 -0.1014  0.3990
  866SOL     OW 3461   2.732   2.352   1.519  0.2920  0.4017 -0.2672
  866SOL    HW1 3462   2.749   2.258   1.549  1.3661 -1.0660 -1.3201
  866SOL    HW2 3463   2.771   2.370   1.436  0.6882 -0.2782  0.7186
  866SOL     MW 3464   2.739   2.342   1.512  0.4860  0.1183 -0.2761
  867SOL     OW 3465   0.115   2.662   1.734  0.5186 -0.0393 -0.1294
  867SOL    HW1 3466   0.203   2.694   1.730  1.1676 -0.6803 -0.9225
  867SOL    HW2 3467   0.069   2.738   1.699  1.1582 -1.8177  1.0313
  867SOL     MW 3468   0.121   2.676   1.729  0.6886 -0.3585 -0.0809
  868SOL     OW 3469   2.745   2.682   0.597  0.3560 -0.4664  0.4805
  868SOL    HW1 3470   2.725   2.594   0.584  0.1685  2.9735 -0.8743
  868SOL    HW2 3471   2.664   2.737   0.579 -0.1818  0.6040 -0.2514
  868SOL     MW 3472   2.732   2.678   0.593  0.2603  0.1287  0.2052
  869SOL     OW 3473   1.945   2.471   1.065 -0.8856  0.2791  0.2550
  869SOL    HW1 3474   2.000   2.521   1.005 -0.0875 -0.7062  0.8988
  869SOL    HW2 3475   1.924   2.385   1.032 -0.5430 -1.7954  0.7869
  869SOL     MW 3476   1.950   2.466   1.053 -0.7351 -0.1246  0.4101
  870SOL     OW 3477   2.201   3.077   0.454 -0.6639  0.1013 -0.0857
  870SOL    HW1 3478   2.274   3.108   0.400  0.5382  2.8969 -0.2987
  870SOL    HW2 3479   2.222   2.989   0.492 -1.3499 -2.1240  1.2388
  870SOL     MW 3480   2.214   3.070   0.452 -0.5958  0.1765  0.0610
  871SOL     OW 3481   2.475   2.089   0.919 -0.0086 -0.4283  0.0569
  871SOL    HW1 3482   2.402   2.045   0.874  0.9786 -3.8566 -1.1297
  871SOL    HW2 3483   2.467   2.184   0.929 -1.0558  0.5228  1.3879
  871SOL     MW 3484   2.464   2.096   0.914 -0.0165 -0.7552  0.0759
  872SOL     OW 3485   2.111   2.504   1.636 -0.4629 -1.0045 -0.3475
  872SOL    HW1 3486   2.069   2.584   1.676  2.1481  1.2219 -1.8844
  872SOL    HW2 3487   2.066   2.482   1.550 -0.5301  1.4781 -0.1537
  872SOL     MW 3488   2.099   2.512   1.630 -0.1273 -0.3832 -0.5247
  873SOL     OW 3489   2.857   2.160   1.833 -0.1088 -0.3198  0.3699
  873SOL    HW1 3490   2.858   2.237   1.886 -0.5600 -1.8058  0.6045
  873SOL    HW2 3491   2.926   2.174   1.767 -2.2845 -1.1922 -0.9984
  873SOL     MW 3492   2.866   2.172   1.832 -0.4554 -0.6310  0.2203
  874SOL     OW 3493   2.278   1.422   2.338  0.5117  0.3077  0.4178
  874SOL    HW1 3494   2.236   1.375   2.267  1.8014  1.3721  0.5183
  874SOL    HW2 3495   2.355   1.366   2.356  3.5752 -3.4523 -0.0081
  874SOL     MW 3496   2.283   1.408   2.331  1.0861 -0.0479  0.3749
  875SOL     OW 3497   2.385   2.349   0.970 -0.0012 -0.4121  0.6322
  875SOL    HW1 3498   2.415   2.420   0.914 -2.2586  0.9084  0.5017
  875SOL    HW2 3499   2.392   2.381   1.065 -1.0778  1.9109 -0.0150
  875SOL     MW 3500   2.390   2.362   0.975 -0.4411  0.0686  0.5296
  876SOL     OW 3501   3.087   2.222   1.324  0.2627 -0.1963 -0.1380
  876SOL    HW1 3502   3.166   2.259   1.291  0.8796 -1.3733  2.3211
  876SOL    HW2 3503   3.115   2.221   1.418  0.5446 -4.4556  0.6015
  876SOL     MW 3504   3.101   2.227   1.332  0.3813 -0.9136  0.2840
  877SOL     OW 3505   0.019   2.766   0.299  0.1226  0.7124 -0.3702
  877SOL    HW1 3506   0.099   2.816   0.301  1.9603  1.8832 -2.3922
  877SOL    HW2 3507   0.036   2.701   0.224 -0.1471  0.4351 -0.7926
  877SOL     MW 3508   0.032   2.764   0.289  0.3295  0.8303 -0.6927
  878SOL     OW 3509   2.264   1.659   1.161 -0.0361  0.2484 -0.0011
  878SOL    HW1 3510   2.180   1.607   1.205 -0.8133 -0.3075  0.3229
  878SOL    HW2 3511   2.291   1.591   1.092  1.2900 -0.2402 -0.7475
  878SOL     MW 3512   2.256   1.643   1.157  0.0363  0.1106 -0.0569
  879SOL     OW 3513   2.732   2.473   0.850 -0.1966 -0.4906 -0.2301
  879SOL    HW1 3514   2.781   2.546   0.891 -2.7420 -0.8475  0.7594
  879SOL    HW2 3515   2.799   2.403   0.818  0.3614  1.8108  1.7007
  879SOL     MW 3516   2.748   2.473   0.851 -0.4589 -0.2340  0.1552
  880SOL     OW 3517   2.615   2.215   0.685 -0.0132 -0.1610 -0.0495
  880SOL    HW1 3518   2.576   2.144   0.726  0.1445  0.2429 -0.4303
  880SOL    HW2 3519   2.612   2.189   0.586 -0.1145  0.3171 -0.3109
  880SOL     MW 3520   2.609   2.202   0.678 -0.0058 -0.0446 -0.1342
  881SOL     OW 3521   2.988   2.758   0.695  0.2238 -0.1415 -0.9032
  881SOL    HW1 3522   2.904   2.720   0.652  0.3476 -0.4104 -0.1266
  881SOL    HW2 3523   3.055   2.730   0.636 -1.9463 -1.6643  1.8039
  881SOL     MW 3524   2.986   2.749   0.682 -0.0462 -0.3779 -0.4435
  882SOL     OW 3525   2.228   2.899   1.938 -0.0192 -0.1060  0.0818
  882SOL    HW1 3526   2.229   2.896   1.841  0.8280 -0.6896  0.3695
  882SOL    HW2 3527   2.206   2.811   1.962  1.7301  1.0483  0.1011
  882SOL     MW 3528   2.225   2.887   1.928  0.3234 -0.0307  0.1223
  883SOL     OW 3529   2.458   2.145   1.299 -0.1364 -0.0518  0.1074
  883SOL    HW1 3530   2.528   2.111   1.246 -0.0653 -1.3681 -2.0478
  883SOL    HW2 3531   2.382   2.142   1.235 -2.8692  0.9626  1.4570
  883SOL     MW 3532   2.458   2.140   1.283 -0.4876 -0.0917  0.0011
  884SOL     OW 3533   1.908   1.864   1.052 -0.4865  0.0794  0.2567
  884SOL    HW1 3534   1.874   1.939   0.997  1.4232 -0.8095 -0.0943
  884SOL    HW2 3535   2.002   1.855   1.029 -0.4033  0.0267  2.3483
  884SOL     MW 3536   1.916   1.872   1.041 -0.2235 -0.0448  0.4864
  885SOL     OW 3537   2.942   2.436   1.684  0.1385  0.3867  0.3078
  885SOL    HW1 3538   2.989   2.358   1.659  1.2526 -0.2766 -0.2912
  885SOL    HW2 3539   2.864   2.441   1.624 -2.6193  1.8260 -0.7782
  885SOL     MW 3540   2.938   2.426   1.673 -0.0784  0.4891  0.0855
  886SOL     OW 3541   2.862   2.420   1.264 -0.5476 -0.4052  0.2017
  886SOL    HW1 3542   2.910   2.349   1.296  1.0783 -1.0234  0.4261
  886SOL    HW2 3543   2.889   2.503   1.312  0.1358  0.4656  1.0151
  886SOL     MW 3544   2.872   2.421   1.274 -0.2429 -0.3719  0.3387
  887SOL     OW 3545   2.318   2.678   1.569 -0.2376 -0.2465  0.3008
  887SOL    HW1 3546   2.324   2.687   1.470  3.4309 -2.0363 -1.5561
  887SOL    HW2 3547   2.250   2.612   1.586 -1.1192 -1.9104  2.0127
  887SOL     MW 3548   2.310   2.670   1.558  0.1301 -0.7022  0.2816
  888SOL     OW 3549   2.054   2.173   1.422  0.2691 -0.4153  0.2191
  888SOL    HW1 3550   2.137   2.152   1.380  1.1013  2.2202  1.2597
  888SOL    HW2 3551   2.067   2.151   1.515 -0.8196  2.1759 -0.4540
  888SOL     MW 3552   2.067   2.168   1.428  0.2353  0.2743  0.2676
  889SOL     OW 3553   2.276   1.904   2.100 -0.5827  0.4245  0.1838
  889SOL    HW1 3554   2.366   1.881   2.139  0.8459  0.4998 -0.2189
  889SOL    HW2 3555   2.299   1.974   2.040 -1.9808  2.2690  2.8981
  889SOL     MW 3556   2.291   1.910   2.097 -0.5787  0.6778  0.4888
  890SOL     OW 3557   0.071   2.333   0.152  0.5463 -0.3909  0.1013
  890SOL    HW1 3558   0.034   2.427   0.143 -1.0175 -0.7281 -0.7582
  890SOL    HW2 3559   0.093   2.317   0.244  0.3668 -0.3814 -3.7912
  890SOL     MW 3560   0.069   2.343   0.163  0.3163 -0.4341 -0.5257
  891SOL     OW 3561   2.997   1.979   1.161 -0.4178  0.1581  0.2434
  891SOL    HW1 3562   3.042   1.899   1.163 -2.6549  0.2167  0.8541
  891SOL    HW2 3563   3.054   2.032   1.223  2.5931 -1.5957 -1.0195
  891SOL     MW 3564   3.011   1.976   1.169 -0.3157 -0.0655  0.1573
  892SOL     OW 3565   2.469   2.356   2.772 -0.3435 -0.5443 -0.4691
  892SOL    HW1 3566   2.460   2.285   2.837  0.3194  2.2884 -2.0335
  892SOL    HW2 3567   2.563   2.392   2.788 -0.1327  1.5927 -1.3966
  892SOL     MW 3568   2.481   2.352   2.782 -0.2282  0.1114 -0.7979
  893SOL     OW 3569   1.627   2.338   1.409 -0.2010 -0.0052  0.1046
  893SOL    HW1 3570   1.565   2.412   1.429  0.9743 -1.1965 -1.8897
  893SOL    HW2 3571   1.683   2.333   1.487 -0.8691 -2.2904  0.5024
  893SOL     MW 3572   1.626   2.347   1.422 -0.1341 -0.4639 -0.1060
  894SOL     OW 3573   2.755   1.962   0.472  0.0083  0.5411 -0.1171
  894SOL    HW1 3574   2.677   1.977   0.520 -2.1812  0.7920  0.4670
  894SOL    HW2 3575   2.724   1.902   0.400  1.4833  0.4436 -1.4306
  894SOL     MW 3576   2.741   1.956   0.469 -0.0859  0.5613 -0.2134
  895SOL     OW 3577   2.233   2.132   1.147 -0.3168  0.5141  0.6561
  895SOL    HW1 3578   2.253   2.194   1.082 -2.0913  1.0468  0.2783
  895SOL    HW2 3579   2.234   2.046   1.106 -0.3198 -1.9405 -0.3044
  895SOL     MW 3580   2.236   2.129   1.133 -0.5513  0.2605  0.4795
  896SOL     OW 3581   2.228   2.823   1.070  0.1238  0.5141  0.0543
  896SOL    HW1 3582   2.244   2.800   1.159  0.3800 -1.0037 -0.9981
  896SOL    HW2 3583   2.157   2.887   1.074 -0.2612 -0.7860 -0.7955
  896SOL     MW 3584   2.221   2.829   1.082  0.1068  0.1423 -0.1967
  897SOL     OW 3585   3.099   3.047   3.089 -0.4936  0.6371 -0.5730
  897SOL    HW1 3586   3.145   2.962   3.087  1.5314 -1.9384  0.5046
  897SOL    HW2 3587   3.052   3.048   3.008  2.7074 -0.8151  0.5715
  897SOL     MW 3588   3.098   3.036   3.078  0.1959  0.1057 -0.2798
  898SOL     OW 3589   2.205   0.161   1.453  0.0532  0.0086 -0.3423
  898SOL    HW1 3590   2.155   0.083   1.478  1.4499 -1.3418 -0.2037
  898SOL    HW2 3591   2.181   0.168   1.363 -1.3696  0.7858 -2.1746
  898SOL     MW 3592   2.196   0.151   1.445  0.0497 -0.0670 -0.5658
  899SOL     OW 3593   2.958   3.029   0.634  0.1884 -0.3456  0.1025
  899SOL    HW1 3594   2.946   2.938   0.661 -3.5839 -0.0836  0.0700
  899SOL    HW2 3595   2.874   3.070   0.627  0.8897 -1.0835  0.2029
  899SOL     MW 3596   2.945   3.022   0.637 -0.2168 -0.4084  0.1114
  900SOL     OW 3597   0.167   2.388   1.133 -0.0757 -0.5724  0.7168
  900SOL    HW1 3598   0.097   2.454   1.140  0.1295  0.0148 -0.9242
  900SOL    HW2 3599   0.154   2.350   1.043  1.8744  0.2648 -1.0917
  900SOL     MW 3600   0.156   2.391   1.122  0.2087 -0.3845  0.2616
  901SOL     OW 3601   1.768   2.860   1.793 -0.1579 -0.1002  0.1885
  901SOL    HW1 3602   1.851   2.832   1.737 -0.8396  0.8285  0.0877
  901SOL    HW2 3603   1.681   2.837   1.751 -2.8372 -0.0734  1.4260
  901SOL     MW 3604   1.767   2.853   1.780 -0.6013  0.0259  0.3385
  902SOL     OW 3605   2.618   2.106   1.703 -0.0402 -0.2489  0.3166
  902SOL    HW1 3606   2.630   2.043   1.633 -0.1131 -0.6363  1.6279
  902SOL    HW2 3607   2.701   2.111   1.751  0.0576  1.3690  1.7009
  902SOL     MW 3608   2.630   2.098   1.700 -0.0369 -0.0865  0.6722
  903SOL     OW 3609   1.511   2.651   0.531  0.1790 -0.0610 -0.2897
  903SOL    HW1 3610   1.603   2.666   0.520  0.4652  0.4593 -1.1471
  903SOL    HW2 3611   1.500   2.700   0.612  2.1723 -1.9695  0.7423
  903SOL     MW 3612   1.522   2.660   0.540  0.4798 -0.2442 -0.2667
  904SOL     OW 3613   2.534   2.538   1.665  0.4558 -0.1373 -0.2782
  904SOL    HW1 3614   2.450   2.576   1.634 -0.5384 -0.1510 -0.6100
  904SOL    HW2 3615   2.562   2.474   1.594  2.2314 -0.7001 -0.4340
  904SOL     MW 3616   2.527   2.534   1.652  0.5589 -0.2134 -0.3425
  905SOL     OW 3617   2.330   2.480   2.099 -0.0016  0.3773  0.1370
  905SOL    HW1 3618   2.393   2.428   2.038  0.9066 -1.4710  0.1511
  905SOL    HW2 3619   2.284   2.425   2.174  0.7191  0.6283 -1.0843
  905SOL     MW 3620   2.332   2.466   2.101  0.2133  0.1666 -0.0223
  906SOL     OW 3621   2.464   2.527   0.730  0.0029 -0.1823  0.6805
  906SOL    HW1 3622   2.554   2.514   0.749 -0.9740  0.0276  0.5383
  906SOL    HW2 3623   2.455   2.619   0.742  0.2099 -1.0708 -1.2388
  906SOL     MW 3624   2.475   2.537   0.734 -0.0987 -0.2718  0.4085
  907SOL     OW 3625   2.672   2.778   1.307  0.6122 -0.1392  0.0748
  907SOL    HW1 3626   2.700   2.854   1.351 -0.8674 -1.9961  1.5112
  907SOL    HW2 3627   2.683   2.802   1.216 -0.4597 -2.3526 -2.9219
  907SOL     MW 3628   2.677   2.791   1.301  0.2755 -0.6762 -0.1311
  908SOL     OW 3629   2.674   2.351   3.079 -0.3224 -0.5846 -0.0021
  908SOL    HW1 3630   2.651   2.273   3.124  0.5699  2.2615 -0.7531
  908SOL    HW2 3631   2.650   2.437   3.129  1.2824  1.1260  1.6626
  908SOL     MW 3632   2.668   2.352   3.092  0.0071  0.0166  0.1184
  909SOL     OW 3633   1.717   0.114   1.309 -0.1614  0.2115  0.2005
  909SOL    HW1 3634   1.653   0.190   1.313  0.6646 -0.5035 -0.4900
  909SOL    HW2 3635   1.697   0.081   1.397  1.6042  1.3379 -2.7203
  909SOL     MW 3636   1.706   0.119   1.321  0.1805  0.2658 -0.2759
  910SOL     OW 3637   2.137   1.618   0.417  0.0247 -0.1117  0.3209
  910SOL    HW1 3638   2.080   1.549   0.379  1.0957  0.3328  3.3549
  910SOL    HW2 3639   2.129   1.693   0.353 -0.4367  0.3760  0.0949
  910SOL     MW 3640   2.128   1.619   0.404  0.1052  0.0113  0.6914
  911SOL     OW 3641   2.409   2.193   1.560  0.0816  0.4396 -0.2120
  911SOL    HW1 3642   2.485   2.179   1.621  2.6058 -0.9624  2.1937
  911SOL    HW2 3643   2.434   2.175   1.469  2.2615  3.2439  1.8514
  911SOL     MW 3644   2.422   2.189   1.556  0.7023  0.6246  0.3777
  912SOL     OW 3645   2.909   1.862   1.405 -0.2643  0.0933  0.5034
  912SOL    HW1 3646   2.920   1.922   1.328 -0.9296 -0.0429 -1.9217
  912SOL    HW2 3647   2.825   1.869   1.448  1.3653 -3.4061  1.4929
  912SOL     MW 3648   2.899   1.871   1.400 -0.1371 -0.3864  0.3140
  913SOL     OW 3649   2.706   0.012   0.278 -0.3992 -0.3330  0.4317
  913SOL    HW1 3650   2.768  -0.056   0.304  0.5999 -0.7738  1.5099
  913SOL    HW2 3651   2.637  -0.041   0.243 -1.5279  3.9978  1.5399
  913SOL     MW 3652   2.705  -0.004   0.277 -0.4163  0.1802  0.7202
  914SOL     OW 3653   2.656   1.798   2.999 -0.6270  0.0823  0.8583
  914SOL    HW1 3654   2.703   1.879   2.974  0.2451 -0.0848 -1.2404
  914SOL    HW2 3655   2.569   1.820   2.981  0.3515  0.0419 -0.8557
  914SOL     MW 3656   2.651   1.812   2.993 -0.3828  0.0549  0.3553
  915SOL     OW 3657   1.824   0.108   0.118  0.2345 -0.1416  0.8962
  915SOL    HW1 3658   1.897   0.056   0.162  0.5775 -1.4355  0.4708
  915SOL    HW2 3659   1.740   0.085   0.159  3.6601  1.4375  0.0780
  915SOL     MW 3660   1.823   0.098   0.129  0.7317 -0.1039  0.7321
  916SOL     OW 3661   1.790   2.155   1.983  0.1206  0.3375 -0.2373
  916SOL    HW1 3662   1.818   2.238   1.957  0.2143 -0.9116  2.0940
  916SOL    HW2 3663   1.835   2.089   1.928  0.9723  1.6975  1.2189
  916SOL     MW 3664   1.800   2.157   1.972  0.2454  0.3521  0.2624
  917SOL     OW 3665   2.537   2.185   2.543 -0.2215  0.2262 -0.3471
  917SOL    HW1 3666   2.513   2.264   2.583 -0.6572 -0.0294 -1.8267
  917SOL    HW2 3667   2.633   2.182   2.542  2.7734  0.3367  0.4063
  917SOL     MW 3668   2.547   2.195   2.548  0.1162  0.2070 -0.4429
  918SOL     OW 3669   2.046   1.604   2.717  0.1295 -0.0040 -0.2702
  918SOL    HW1 3670   1.986   1.621   2.647  0.3234 -1.9861  2.1520
  918SOL    HW2 3671   2.116   1.672   2.707  1.3681  1.6946 -3.0448
  918SOL     MW 3672   2.048   1.615   2.706  0.3185 -0.0414 -0.3167
  919SOL     OW 3673   3.041   2.405   2.293 -0.5067 -0.4175 -0.6052
  919SOL    HW1 3674   2.982   2.328   2.281  0.4144  0.8584 -2.3586
  919SOL    HW2 3675   3.090   2.402   2.212  3.4785  1.4395  0.1589
  919SOL     MW 3676   3.039   2.395   2.280  0.1407 -0.0042 -0.7357
  920SOL     OW 3677   2.648   2.830   3.096  0.2466  0.1768 -0.4799
  920SOL    HW1 3678   2.563   2.805   3.057  0.9433 -3.5897 -0.8204
  920SOL    HW2 3679   2.710   2.810   3.030 -3.0136  1.1286  0.2066
  920SOL     MW 3680   2.645   2.824   3.082 -0.0916 -0.1945 -0.4342
  921SOL     OW 3681   2.441   2.601   2.603  0.4512  0.1979 -0.4183
  921SOL    HW1 3682   2.507   2.616   2.533  2.7958  1.9733  1.5920
  921SOL    HW2 3683   2.454   2.522   2.658 -3.1526  0.0658  0.0374
  921SOL     MW 3684   2.451   2.592   2.601  0.2851  0.4147 -0.0929
  922SOL     OW 3685   2.085   2.655   0.428  0.2661 -0.8734 -0.1748
  922SOL    HW1 3686   2.103   2.666   0.329 -0.4487  0.7736 -1.0131
  922SOL    HW2 3687   2.090   2.566   0.438  1.3039  2.3980  2.4053
  922SOL     MW 3688   2.088   2.645   0.416  0.3087 -0.2245  0.0550
  923SOL     OW 3689   2.200   2.919   1.662  0.1079 -0.2555 -0.0511
  923SOL    HW1 3690   2.252   2.848   1.620  0.5691  0.1783  0.7847
  923SOL    HW2 3691   2.163   2.963   1.585 -0.5447  0.3105  0.5189
  923SOL     MW 3692   2.202   2.915   1.646  0.0826 -0.1236  0.1344
  924SOL     OW 3693   1.085   2.730   2.605  0.2808 -0.4680  0.0446
  924SOL    HW1 3694   1.177   2.752   2.586 -1.7544 -1.8553 -0.4882
  924SOL    HW2 3695   1.075   2.641   2.637  0.9390 -1.6901 -0.6132
  924SOL     MW 3696   1.096   2.721   2.607  0.0991 -0.8122 -0.1125
  925SOL     OW 3697   2.978   0.188   2.610  0.0289 -0.4062  0.0936
  925SOL    HW1 3698   2.929   0.184   2.531  0.2680 -1.3820  2.4117
  925SOL    HW2 3699   2.939   0.253   2.676 -3.4204  0.0649  0.2283
  925SOL     MW 3700   2.967   0.196   2.608 -0.3946 -0.4728  0.4172
  926SOL     OW 3701   2.810   2.405   1.950  0.3141  0.3096 -0.3480
  926SOL    HW1 3702   2.812   2.480   2.019  0.1512  1.0978 -1.3378
  926SOL    HW2 3703   2.859   2.440   1.877  0.1162 -1.9987 -0.1540
  926SOL     MW 3704   2.817   2.419   1.949  0.2665  0.1090 -0.4530
  927SOL     OW 3705   2.394   0.098   0.314 -0.3175 -0.2280  0.1514
  927SOL    HW1 3706   2.482   0.111   0.341 -1.3921  0.5851  0.4551
  927SOL    HW2 3707   2.406   0.104   0.213  0.1614  1.9521  0.2458
  927SOL     MW 3708   2.408   0.100   0.304 -0.3961  0.1669  0.2039
  928SOL     OW 3709   2.150   2.325   1.829  0.2324 -0.6628  0.0275
  928SOL    HW1 3710   2.156   2.389   1.751  0.5162  3.0131  2.2583
  928SOL    HW2 3711   2.217   2.347   1.889 -3.2334  0.0594  3.2850
  928SOL     MW 3712   2.160   2.337   1.826 -0.1874 -0.0825  0.7516
  929SOL     OW 3713   2.748   2.360   2.441 -0.5836  0.0566  0.3705
  929SOL    HW1 3714   2.760   2.308   2.358 -0.1891  1.5672 -1.0411
  929SOL    HW2 3715   2.814   2.325   2.510  1.7262  1.1740  4.0170
  929SOL     MW 3716   2.758   2.349   2.439 -0.2268  0.4033  0.6654
  930SOL     OW 3717   2.013   2.833   2.668  0.0293  0.5230  0.0067
  930SOL    HW1 3718   2.051   2.747   2.693 -0.0785  0.6986 -0.3015
  930SOL    HW2 3719   2.095   2.880   2.642  0.7490 -3.4076  0.0815
  930SOL     MW 3720   2.029   2.828   2.668  0.1100  0.0276 -0.0241
  931SOL     OW 3721   0.047   2.785   2.445 -0.2062  0.1347  0.5432
  931SOL    HW1 3722   0.019   2.846   2.511  0.5333 -3.0905 -1.0927
  931SOL    HW2 3723   0.132   2.821   2.414 -2.3351 -0.6426  0.0401
  931SOL     MW 3724   0.055   2.798   2.450 -0.3895 -0.3934  0.2610
  932SOL     OW 3725   2.774   2.020   2.477 -0.1095  0.6965 -0.6796
  932SOL    HW1 3726   2.866   2.021   2.492 -1.0499  0.9091  1.9658
  932SOL    HW2 3727   2.776   2.006   2.382  4.0108  0.2326 -1.5824
  932SOL     MW 3728   2.786   2.018   2.466  0.3100  0.6634 -0.4497
  933SOL     OW 3729   2.102   2.801   2.222  0.0015 -0.0138  0.3896
  933SOL    HW1 3730   2.178   2.848   2.243 -0.5075 -0.0158 -2.1083
  933SOL    HW2 3731   2.035   2.858   2.220  2.5165 -1.4140 -0.0379
  933SOL     MW 3732   2.104   2.815   2.225  0.2661 -0.1988  0.0036
  934SOL     OW 3733   2.015   2.670   2.447 -0.1675  0.1219  0.3211
  934SOL    HW1 3734   2.026   2.739   2.506  0.9974 -0.0602 -1.1206
  934SOL    HW2 3735   2.071   2.694   2.365  1.1670 -0.8689  0.5684
  934SOL     MW 3736   2.024   2.682   2.444  0.1623 -0.0329  0.1635
  935SOL     OW 3737   2.632   1.472   1.776 -0.2759  0.3136  0.0215
  935SOL    HW1 3738   2.720   1.436   1.752  0.8137 -0.6431 -1.0414
  935SOL    HW2 3739   2.581   1.464   1.694  0.1991 -1.3621  1.2294
  935SOL     MW 3740   2.637   1.466   1.762 -0.0695 -0.0337  0.0407
  936SOL     OW 3741   2.921   2.221   0.046 -0.0196 -0.5533  0.0267
  936SOL    HW1 3742   2.990   2.264   0.089 -1.3529  3.4367 -2.0996
  936SOL    HW2 3743   2.868   2.286   0.006  0.3936  0.3162 -1.3944
  936SOL     MW 3744   2.923   2.235   0.046 -0.1410  0.0879 -0.4413
  937SOL     OW 3745   1.935   2.106   2.633 -0.8351  0.3510 -0.8394
  937SOL    HW1 3746   2.020   2.097   2.681 -1.4107  1.6705  0.3394
  937SOL    HW2 3747   1.953   2.121   2.539 -0.1528 -0.4600  0.8955
  937SOL     MW 3748   1.949   2.107   2.627 -0.8210  0.4181 -0.4550
  938SOL     OW 3749   2.261   1.776   1.845 -0.5874  0.5424 -0.3791
  938SOL    HW1 3750   2.286   1.835   1.777  0.4523 -2.7639 -0.1046
  938SOL    HW2 3751   2.269   1.840   1.918  1.4517 -0.1002  1.7181
  938SOL     MW 3752   2.266   1.792   1.845 -0.1812  0.0214 -0.0662
  939SOL     OW 3753   2.775   1.959   2.191  0.5025 -0.3408 -0.5220
  939SOL    HW1 3754   2.816   1.924   2.108  2.2809  1.0427 -1.3303
  939SOL    HW2 3755   2.686   1.924   2.172  0.4306 -0.3844 -0.9858
  939SOL     MW 3756   2.769   1.950   2.177  0.7276 -0.1640 -0.6899
  940SOL     OW 3757   2.163   0.107   2.774  0.3067 -0.4460  0.0669
  940SOL    HW1 3758   2.233   0.044   2.778 -1.8860  0.9949  0.9745
  940SOL    HW2 3759   2.210   0.183   2.810  1.1713 -0.4513  1.0962
  940SOL     MW 3760   2.178   0.109   2.779  0.1315 -0.2566  0.3225
  941SOL     OW 3761   0.106   2.453   2.075 -0.4593 -0.1331  1.0017
  941SOL    HW1 3762   0.185   2.395   2.085 -0.7365 -2.1090  0.6903
  941SOL    HW2 3763   0.089   2.423   1.986  3.0557 -0.4824 -2.3950
  941SOL     MW 3764   0.114   2.442   2.065 -0.0321 -0.4399  0.5124
  942SOL     OW 3765   2.835   2.233   2.205  0.1184  0.7348 -0.1862
  942SOL    HW1 3766   2.815   2.259   2.114  0.5960  1.9107 -1.6362
  942SOL    HW2 3767   2.815   2.141   2.182  1.1752 -0.3855 -2.3480
  942SOL     MW 3768   2.829   2.224   2.190  0.3209  0.7421 -0.6627
  943SOL     OW 3769   0.320   2.125   2.280 -0.0416 -0.4568 -0.3906
  943SOL    HW1 3770   0.254   2.161   2.338  0.0443  1.1927 -6.3042
  943SOL    HW2 3771   0.376   2.075   2.338 -1.8211 -0.1025  1.0850
  943SOL     MW 3772   0.319   2.123   2.296 -0.2651 -0.1924 -0.9762
  944SOL     OW 3773   2.147   2.651   1.964  0.3215  0.3254 -0.2372
  944SOL    HW1 3774   2.206   2.586   2.007 -1.4146 -0.5879 -1.4614
  944SOL    HW2 3775   2.069   2.638   2.013 -2.2735  0.2355  0.6234
  944SOL     MW 3776   2.145   2.640   1.976 -0.2500  0.1931 -0.2852
  945SOL     OW 3777   2.759   2.725   2.856 -0.4776 -0.2886  0.4187
  945SOL    HW1 3778   2.725   2.632   2.848 -0.7117 -1.9281  0.1015
  945SOL    HW2 3779   2.759   2.764   2.771  2.2577  0.2930  2.6124
  945SOL     MW 3780   2.754   2.718   2.844 -0.1476 -0.4282  0.6663
  946SOL     OW 3781   2.475   2.683   2.247 -0.1503  0.1931  0.2831
  946SOL    HW1 3782   2.498   2.720   2.167 -2.2512  0.9363 -0.2419
  946SOL    HW2 3783   2.413   2.619   2.215 -0.5470 -1.2340 -1.0959
  946SOL     MW 3784   2.470   2.679   2.232 -0.4798  0.1029  0.0318
  947SOL     OW 3785   2.052   3.101   0.233 -0.0873  0.1220 -0.4230
  947SOL    HW1 3786   2.061   3.008   0.234  0.2214 -1.4612  0.5410
  947SOL    HW2 3787   2.094   3.116   0.324 -4.3925 -2.4004 -0.6354
  947SOL     MW 3788   2.059   3.090   0.245 -0.6146 -0.4197 -0.3239
  948SOL     OW 3789   1.810   3.038   2.606  0.2233  0.2484  0.2832
  948SOL    HW1 3790   1.845   2.951   2.596 -1.9376  1.3892  0.3567
  948SOL    HW2 3791   1.781   3.062   2.514 -0.1809  0.0388 -0.3200
  948SOL     MW 3792   1.810   3.030   2.592 -0.1151  0.3713  0.2133
  949SOL     OW 3793   2.522   1.867   2.203  0.0837  0.0278  0.7664
  949SOL    HW1 3794   2.520   1.797   2.268 -1.8399 -1.0814  0.3042
  949SOL    HW2 3795   2.503   1.951   2.247  0.6875  1.1696 -1.6756
  949SOL     MW 3796   2.519   1.869   2.218 -0.0904  0.0321  0.3832
  950SOL     OW 3797   2.317   2.449   2.995 -0.2946 -0.6872 -0.4856
  950SOL    HW1 3798   2.379   2.429   2.921  3.4827 -0.0340  2.0821
  950SOL    HW2 3799   2.230   2.468   2.961  0.1027  0.5183  1.3828
  950SOL     MW 3800   2.314   2.449   2.981  0.2562 -0.4420  0.0997
  951SOL     OW 3801   3.043   2.226   2.877 -0.0489  0.2825  0.0568
  951SOL    HW1 3802   2.994   2.218   2.961  0.3259 -0.2920 -0.5404
  951SOL    HW2 3803   3.075   2.141   2.855  1.8136 -0.6282 -0.5953
  951SOL     MW 3804   3.041   2.214   2.885  0.2463  0.0866 -0.1081
  952SOL     OW 3805   3.050   1.738   2.126  0.4493  0.0665 -0.4007
  952SOL    HW1 3806   2.991   1.800   2.075  1.0757  1.2457 -2.8615
  952SOL    HW2 3807   3.102   1.794   2.181  0.6846 -2.8195 -0.3141
  952SOL     MW 3808   3.049   1.754   2.126  0.5630 -0.1587 -0.7139
  953SOL     OW 3809   1.941   1.745   2.940 -0.0307  0.8299  0.4583
  953SOL    HW1 3810   1.854   1.720   2.979 -1.8540  2.4248  1.3795
  953SOL    HW2 3811   1.958   1.678   2.866 -2.1739 -0.7232  0.3583
  953SOL     MW 3812   1.932   1.733   2.935 -0.5540  0.8354  0.5667
  954SOL     OW 3813   2.368   2.136   2.900  0.1366 -0.3163  0.5024
  954SOL    HW1 3814   2.278   2.136   2.865  0.1303 -0.9173  0.5780
  954SOL    HW2 3815   2.421   2.084   2.841 -2.2842  0.9167 -0.2072
  954SOL     MW 3816   2.363   2.129   2.888 -0.1836 -0.2329  0.4187
  955SOL     OW 3817   1.571   1.517   2.545 -0.2493 -0.2368  0.2248
  955SOL    HW1 3818   1.546   1.510   2.449  0.7459  2.0762  1.5022
  955SOL    HW2 3819   1.667   1.539   2.554 -1.2841  1.5556 -1.3653
  955SOL     MW 3820   1.580   1.519   2.534 -0.2545  0.3049  0.1836
  956SOL     OW 3821   2.729   2.451   2.818 -0.2304 -0.5258 -0.4372
  956SOL    HW1 3822   2.743   2.420   2.902 -0.8322  2.3977 -3.0784
  956SOL    HW2 3823   2.803   2.412   2.764  0.6472 -1.3280  1.9261
  956SOL     MW 3824   2.741   2.442   2.822 -0.1940 -0.2459 -0.4739
  957SOL     OW 3825   2.249   2.827   0.542  0.4250  0.3973 -0.7490
  957SOL    HW1 3826   2.207   2.758   0.494  1.3997  1.9436  1.8848
  957SOL    HW2 3827   2.281   2.787   0.629 -2.0365 -0.1215 -1.0783
  957SOL     MW 3828   2.248   2.813   0.547  0.2288  0.5329 -0.4449
  958SOL     OW 3829   2.082   2.547   2.860 -0.2539 -0.4785 -0.9199
  958SOL    HW1 3830   2.027   2.485   2.808  0.0153  1.9000 -0.6632
  958SOL    HW2 3831   2.033   2.575   2.938  1.0208  0.3854  0.6189
  958SOL     MW 3832   2.068   2.542   2.863 -0.0502 -0.0507 -0.6830
  959SOL     OW 3833   2.504   2.793   0.447 -0.2735 -0.2742 -0.1421
  959SOL    HW1 3834   2.513   2.832   0.359  0.0573  2.0736 -0.4214
  959SOL    HW2 3835   2.411   2.807   0.469  0.6974 -1.3709 -2.3160
  959SOL     MW 3836   2.493   2.800   0.438 -0.1017 -0.1091 -0.4658
  960SOL     OW 3837   1.923   2.400   2.279  0.0259 -0.1244  0.4411
  960SOL    HW1 3838   1.929   2.320   2.332  0.1957  0.9250  0.2516
  960SOL    HW2 3839   1.838   2.440   2.306 -0.3997 -1.5239  0.8405
  960SOL     MW 3840   1.912   2.395   2.290 -0.0079 -0.1706  0.4688
  961SOL     OW 3841   2.230   2.341   2.299 -0.0515  0.0323 -0.4186
  961SOL    HW1 3842   2.136   2.327   2.277  1.2497 -0.0878 -1.3456
  961SOL    HW2 3843   2.241   2.389   2.383  1.2019  0.9263 -0.7582
  961SOL     MW 3844   2.219   2.345   2.307  0.2855  0.1344 -0.5857
  962SOL     OW 3845   2.122   2.031   2.807  0.0159  0.0493  0.4029
  962SOL    HW1 3846   2.103   1.996   2.894 -0.2629  2.8050  0.6615
  962SOL    HW2 3847   2.159   1.950   2.749  2.1265  0.5206 -2.9153
  962SOL     MW 3848   2.124   2.016   2.811  0.2576  0.4751 -0.0007
  963SOL     OW 3849   1.857   2.578   2.083 -0.3220 -0.7187 -0.0227
  963SOL    HW1 3850   1.896   2.539   2.160  0.5000  0.3401 -1.5712
  963SOL    HW2 3851   1.858   2.511   2.010 -2.3262 -1.1295 -0.5557
  963SOL     MW 3852   1.862   2.564   2.084 -0.4780 -0.6332 -0.2973
  964SOL     OW 3853   1.829   1.872   2.724 -0.2123 -0.2028 -0.7587
  964SOL    HW1 3854   1.875   1.957   2.697 -0.5627 -0.2250  1.5349
  964SOL    HW2 3855   1.885   1.851   2.798  1.5153 -1.3942  1.4677
  964SOL     MW 3856   1.843   1.881   2.730 -0.0306 -0.3629 -0.1624
  965SOL     OW 3857   2.091   2.584   0.799  0.4187 -0.4708 -0.2318
  965SOL    HW1 3858   2.111   2.518   0.728  1.1795  0.2221 -0.3051
  965SOL    HW2 3859   2.174   2.615   0.825  0.0482 -1.1625  0.8853
  965SOL     MW 3860   2.105   2.580   0.793  0.4702 -0.4707 -0.0941
  966SOL     OW 3861   2.656   2.611   2.424 -0.3805  0.1439  0.2733
  966SOL    HW1 3862   2.609   2.619   2.338  1.8294 -1.6542  1.3052
  966SOL    HW2 3863   2.687   2.519   2.431  1.0212 -0.6588  0.5141
  966SOL     MW 3864   2.654   2.600   2.414  0.0960 -0.1993  0.4412
  967SOL     OW 3865   2.707   0.017   3.051 -0.4689  0.8099  0.8274
  967SOL    HW1 3866   2.728  -0.069   3.064 -1.0315  1.8915 -1.3464
  967SOL    HW2 3867   2.674   0.027   2.958  1.9017 -0.4520 -1.7969
  967SOL     MW 3868   2.706   0.007   3.040 -0.2304  0.7861  0.1943
  968SOL     OW 3869   3.040   2.687   2.889 -0.9308 -0.3492 -0.0899
  968SOL    HW1 3870   2.947   2.723   2.891  1.3078  2.4021 -2.5448
  968SOL    HW2 3871   3.053   2.657   2.799 -0.7462 -0.8210  1.9568
  968SOL     MW 3872   3.029   2.688   2.877 -0.6111 -0.0485 -0.1438
  969SOL     OW 3873   1.559   2.129   1.699 -0.1241 -0.8406  0.6047
  969SOL    HW1 3874   1.622   2.055   1.696  2.0698 -0.5986 -0.8460
  969SOL    HW2 3875   1.539   2.144   1.794  0.2011 -0.9100 -2.1880
  969SOL     MW 3876   1.565   2.121   1.711  0.2083 -0.8178  0.0448
  970SOL     OW 3877   1.758   1.802   1.896 -0.0454  0.1016 -0.3125
  970SOL    HW1 3878   1.812   1.729   1.927 -0.7153 -0.6533 -0.7056
  970SOL    HW2 3879   1.673   1.759   1.903 -0.1339 -0.2989 -1.1071
  970SOL     MW 3880   1.754   1.787   1.901 -0.1455 -0.0508 -0.4692
  971SOL     OW 3881   1.743   0.014   2.364 -0.1815 -0.3159  0.0787
  971SOL    HW1 3882   1.764  -0.072   2.316 -0.6763 -0.4603  0.3993
  971SOL    HW2 3883   1.821   0.068   2.340  1.5073  1.5132 -1.6124
  971SOL     MW 3884   1.756   0.009   2.355 -0.0239 -0.0936 -0.1021
  972SOL     OW 3885   0.312   2.867   2.385  0.2456  0.0597 -0.1727
  972SOL    HW1 3886   0.354   2.784   2.417  0.2765  0.8495 -0.2512
  972SOL    HW2 3887   0.362   2.943   2.415  0.8544  1.3301  1.9512
  972SOL     MW 3888   0.324   2.866   2.393  0.3300  0.3315  0.0972
  973SOL     OW 3889   2.614   3.006   2.127  1.0498  0.2519 -0.6629
  973SOL    HW1 3890   2.598   2.914   2.093 -1.1120  3.2865  0.9828
  973SOL    HW2 3891   2.610   3.066   2.058 -2.2703  1.1195  1.5186
  973SOL     MW 3892   2.612   3.002   2.114  0.3265  0.7668 -0.1579
  974SOL     OW 3893   1.972   0.148   2.577  0.3567  0.1668 -0.2979
  974SOL    HW1 3894   2.047   0.138   2.636 -0.4031  0.6386 -1.9838
  974SOL    HW2 3895   1.929   0.064   2.595  2.0355 -0.3157 -0.6888
  974SOL     MW 3896   1.976   0.136   2.587  0.4779  0.1654 -0.5719
  975SOL     OW 3897   2.204   2.496   2.520 -0.5272 -0.0362 -0.2279
  975SOL    HW1 3898   2.281   2.553   2.547 -0.6843 -1.4388 -2.5035
  975SOL    HW2 3899   2.131   2.560   2.503  2.1040 -1.8646  2.4559
  975SOL     MW 3900   2.204   2.512   2.521 -0.2007 -0.4625 -0.1741
  976SOL     OW 3901   0.183   0.367   1.585 -0.0913 -0.0003 -0.0356
  976SOL    HW1 3902   0.268   0.332   1.583  0.3771 -0.2583  0.9768
  976SOL    HW2 3903   0.115   0.300   1.583  0.2802  0.2220  0.9862
  976SOL     MW 3904   0.185   0.354   1.584  0.0196 -0.0050  0.2328
  977SOL     OW 3905   1.749   2.755   2.384  0.7518 -0.1282  0.0326
  977SOL    HW1 3906   1.778   2.704   2.456 -2.3253  0.7979  0.5157
  977SOL    HW2 3907   1.823   2.776   2.330 -0.1510  1.2186 -2.8034
  977SOL     MW 3908   1.762   2.751   2.386  0.2267  0.1717 -0.2778
   3.10000   3.10000   3.10000
