977 TIP4P/2005f water molecules t=   0.71000 step= 710
 3908
    1SOL     OW    1   0.204   0.866   3.065  0.5380  0.1501 -0.5033
    1SOL    HW1    2   0.200   0.849   2.974 -0.9486  0.9418  0.3508
    1SOL    HW2    3   0.206   0.772   3.084 -0.9483  0.7190 -2.6311
    1SOL     MW    4   0.204   0.851   3.055  0.1458  0.3296 -0.6714
    2SOL     OW    5   0.244   2.988   1.170  0.8836  0.1865 -0.2146
    2SOL    HW1    6   0.312   3.050   1.141  1.8893 -0.3995 -0.2954
    2SOL    HW2    7   0.161   3.034   1.152  0.2085 -0.5478 -3.0041
    2SOL     MW    8   0.242   3.003   1.164  0.9272  0.0123 -0.5933
    3SOL     OW    9   2.648   0.397   0.928 -0.8214  0.2204  0.2881
    3SOL    HW1   10   2.651   0.475   0.865  0.3558  2.5291 -0.3835
    3SOL    HW2   11   2.608   0.435   1.006 -1.5277 -0.8857 -2.5128
    3SOL     MW   12   2.643   0.412   0.930 -0.7593  0.3790 -0.1701
    4SOL     OW   13   3.055   1.702   0.598 -0.1413  0.0423  0.0084
    4SOL    HW1   14   2.981   1.743   0.554  1.5067 -0.7270  2.6946
    4SOL    HW2   15   3.105   1.654   0.531  1.6278  0.1321 -0.1261
    4SOL     MW   16   3.052   1.701   0.583  0.3095 -0.0474  0.3450
    5SOL     OW   17   1.715   1.501   0.511  0.1040  0.2055  0.0770
    5SOL    HW1   18   1.759   1.454   0.581 -0.2678 -0.6623 -2.6569
    5SOL    HW2   19   1.618   1.479   0.521 -3.0791  1.2972  2.0151
    5SOL     MW   20   1.708   1.492   0.522 -0.3650  0.2350 -0.0280
    6SOL     OW   21   0.859   1.401   0.651 -0.1470  0.3708 -0.3032
    6SOL    HW1   22   0.772   1.439   0.655  0.7870  2.1774  1.7263
    6SOL    HW2   23   0.842   1.309   0.663  0.2804  1.3300 -0.9794
    6SOL     MW   24   0.845   1.394   0.653  0.0326  0.7357 -0.1247
    7SOL     OW   25   2.002   1.139   0.006  0.3942  0.2482 -0.3682
    7SOL    HW1   26   2.059   1.218  -0.013  2.4853 -0.2015 -0.3732
    7SOL    HW2   27   2.023   1.114   0.096  0.3206  1.4574  0.2300
    7SOL     MW   28   2.012   1.146   0.015  0.6604  0.3484 -0.2900
    8SOL     OW   29   0.954   1.336   1.024  0.2157 -0.0407  0.2960
    8SOL    HW1   30   1.031   1.283   1.045  2.1622 -1.8474  0.5804
    8SOL    HW2   31   0.893   1.315   1.097  1.7073 -0.4893 -1.8048
    8SOL     MW   32   0.956   1.326   1.036  0.6694 -0.3383  0.0564
    9SOL     OW   33   1.044   0.463   1.361  0.0015  0.4751  0.3031
    9SOL    HW1   34   0.974   0.397   1.338 -0.3589 -0.6141 -0.3552
    9SOL    HW2   35   1.098   0.416   1.427 -0.4066 -2.3473  2.1868
    9SOL     MW   36   1.042   0.448   1.367 -0.0999 -0.0410  0.4648
   10SOL     OW   37   0.279   0.798   0.448  0.2773 -0.3096  0.3619
   10SOL    HW1   38   0.374   0.807   0.428 -3.7267 -2.4033  1.4365
   10SOL    HW2   39   0.259   0.875   0.508  0.8561  1.0359  0.2043
   10SOL     MW   40   0.289   0.810   0.453 -0.1747 -0.4083  0.4829
   11SOL     OW   41   0.768   1.176   1.684 -0.2371 -0.2229  0.3351
   11SOL    HW1   42   0.804   1.151   1.770  1.3447 -4.2922  1.2850
   11SOL    HW2   43   0.771   1.085   1.633  1.1587 -0.9140  1.2094
   11SOL     MW   44   0.773   1.161   1.689  0.1558 -0.8510  0.5758
   12SOL     OW   45   3.094   1.067   0.877  0.4852 -0.0843 -0.2463
   12SOL    HW1   46   3.134   1.143   0.925 -0.2344  1.7313  1.8199
   12SOL    HW2   47   3.037   1.114   0.810  0.8015 -0.5054 -0.3925
   12SOL     MW   48   3.092   1.083   0.875  0.4320  0.0997  0.0070
   13SOL     OW   49   1.856   1.403   1.346  0.1677 -0.6969  0.1894
   13SOL    HW1   50   1.882   1.358   1.267 -1.0548  2.5086  2.8651
   13SOL    HW2   51   1.881   1.496   1.341 -1.1949 -1.1318  1.1066
   13SOL     MW   52   1.863   1.409   1.335 -0.1734 -0.3313  0.6635
   14SOL     OW   53   0.607   0.374   1.829  0.2433 -0.4179  0.2554
   14SOL    HW1   54   0.559   0.294   1.797  0.3696 -1.8947  2.7175
   14SOL    HW2   55   0.688   0.347   1.871 -1.2472  2.3106  1.5668
   14SOL     MW   56   0.611   0.360   1.830  0.0633 -0.2527  0.7533
   15SOL     OW   57   1.965   0.469   0.950  0.2460 -0.5966  0.4321
   15SOL    HW1   58   1.963   0.471   1.047  1.7362  1.2045 -0.4558
   15SOL    HW2   59   2.058   0.461   0.929  0.0086  0.0991 -0.6114
   15SOL     MW   60   1.977   0.468   0.960  0.4113 -0.2671  0.1773
   16SOL     OW   61   0.235   1.843   0.334 -0.5219 -0.1112 -0.3207
   16SOL    HW1   62   0.301   1.780   0.374  0.3871 -1.0973  0.3717
   16SOL    HW2   63   0.256   1.935   0.362  0.8736  3.1221 -0.9193
   16SOL     MW   64   0.246   1.847   0.343 -0.2179  0.1853 -0.3083
   17SOL     OW   65   1.048   0.914   1.524  0.1411  0.3448  0.1719
   17SOL    HW1   66   1.085   0.876   1.601  1.7643  1.4941 -0.0067
   17SOL    HW2   67   0.955   0.920   1.535 -0.8249  0.3709  1.2995
   17SOL     MW   68   1.041   0.909   1.536  0.2278  0.4999  0.2971
   18SOL     OW   69   0.103   1.611   0.394  0.0921 -0.3412  0.1688
   18SOL    HW1   70   0.148   1.685   0.354 -1.4571 -0.7447 -0.5483
   18SOL    HW2   71   0.064   1.566   0.318 -1.0013 -1.7347  0.3475
   18SOL     MW   72   0.104   1.615   0.379 -0.2565 -0.5783  0.0977
   19SOL     OW   73   0.114   1.301   0.978  0.1483 -0.1237 -0.0890
   19SOL    HW1   74   0.150   1.371   0.924 -1.3031 -4.3140 -0.0709
   19SOL    HW2   75   0.030   1.333   1.006  0.9140 -0.9138 -1.8191
   19SOL     MW   76   0.108   1.315   0.975  0.0578 -0.7808 -0.3149
   20SOL     OW   77   0.412   2.128   1.196 -0.1392 -0.2407 -0.2398
   20SOL    HW1   78   0.358   2.051   1.165  2.0011 -1.1219 -2.0200
   20SOL    HW2   79   0.364   2.163   1.270  1.7120 -2.6878 -2.4307
   20SOL     MW   80   0.399   2.122   1.202  0.3874 -0.6799 -0.7638
   21SOL     OW   81   0.536   0.813   0.356  0.3589  0.1230 -0.0016
   21SOL    HW1   82   0.615   0.789   0.408 -0.5137 -1.2072  0.3025
   21SOL    HW2   83   0.545   0.762   0.277  0.0702  2.4802  0.1475
   21SOL     MW   84   0.548   0.803   0.352  0.2057  0.2585  0.0582
   22SOL     OW   85   1.457   0.621   1.114 -0.2654  0.5391 -0.5542
   22SOL    HW1   86   1.489   0.574   1.043 -0.6247  0.4173  1.3834
   22SOL    HW2   87   1.378   0.669   1.085  0.0549  1.2961  0.4270
   22SOL     MW   88   1.451   0.621   1.101 -0.2705  0.6229 -0.1691
   23SOL     OW   89   0.024   0.779   0.641  0.6578 -0.1922 -0.4618
   23SOL    HW1   90   0.045   0.694   0.680 -1.1876  0.8476 -0.3121
   23SOL    HW2   91   0.103   0.828   0.670  3.5838 -0.2936  2.5548
   23SOL     MW   92   0.037   0.774   0.650  0.8004 -0.0684 -0.0440
   24SOL     OW   93   2.002   2.210   0.101 -0.5993 -0.7183  0.0592
   24SOL    HW1   94   1.996   2.165   0.184 -1.6711 -0.3319  0.6567
   24SOL    HW2   95   2.048   2.145   0.045  0.4599  2.5225 -1.2438
   24SOL     MW   96   2.007   2.195   0.104 -0.6010 -0.2397 -0.0339
   25SOL     OW   97   0.200   1.381   0.513  0.6631  0.3730 -0.9264
   25SOL    HW1   98   0.192   1.472   0.481 -2.7488  0.4575 -1.1954
   25SOL    HW2   99   0.286   1.360   0.483 -2.4280  3.0652 -0.3738
   25SOL     MW  100   0.210   1.390   0.505 -0.1949  0.7393 -0.8890
   26SOL     OW  101   1.995   0.983   0.383 -0.0396  0.4497 -0.3777
   26SOL    HW1  102   1.947   1.025   0.463 -0.4582 -1.2686 -0.6485
   26SOL    HW2  103   2.052   1.052   0.336  1.0152  2.6971  1.2366
   26SOL     MW  104   1.996   0.998   0.388  0.0443  0.5195 -0.2005
   27SOL     OW  105   2.062   1.418   0.216  0.4737  0.3805  0.6950
   27SOL    HW1  106   1.989   1.374   0.264 -0.8800 -0.6679  0.5463
   27SOL    HW2  107   2.096   1.482   0.282 -1.4839 -0.1071  1.6865
   27SOL     MW  108   2.057   1.420   0.231  0.0368  0.1778  0.8062
   28SOL     OW  109   0.398   1.075   2.027  0.4796  0.0819  0.2254
   28SOL    HW1  110   0.466   1.012   1.996  3.2835  1.6104  0.1542
   28SOL    HW2  111   0.335   1.014   2.063 -1.9023 -1.3490 -0.2814
   28SOL     MW  112   0.399   1.059   2.028  0.5353  0.0948  0.1492
   29SOL     OW  113   0.210   1.461   0.768  0.3198 -0.2424 -0.2384
   29SOL    HW1  114   0.244   1.548   0.758 -1.1988 -0.6823 -0.4295
   29SOL    HW2  115   0.202   1.432   0.675 -2.7277 -0.9631 -1.6357
   29SOL     MW  116   0.214   1.468   0.755 -0.2826 -0.3955 -0.4480
   30SOL     OW  117   0.806   1.200   1.214 -0.3528  0.4708  0.1315
   30SOL    HW1  118   0.721   1.209   1.259 -0.1830 -1.3986  0.6086
   30SOL    HW2  119   0.878   1.183   1.281 -1.1553  2.9378  2.0307
   30SOL     MW  120   0.804   1.199   1.229 -0.4362  0.5497  0.4451
   31SOL     OW  121   0.423   0.187   0.183 -0.0895  0.3420  0.4470
   31SOL    HW1  122   0.442   0.110   0.239 -1.0395 -0.0492 -2.9368
   31SOL    HW2  123   0.415   0.143   0.098  2.3327  0.6571 -0.5666
   31SOL     MW  124   0.424   0.171   0.179  0.1047  0.3320 -0.1332
   32SOL     OW  125   2.791   1.000   1.134 -0.0037 -0.1278  0.3362
   32SOL    HW1  126   2.708   0.940   1.139 -0.6751 -0.2012 -3.5359
   32SOL    HW2  127   2.867   0.940   1.136 -0.4056  1.3466 -0.7204
   32SOL     MW  128   2.790   0.984   1.135 -0.1453  0.0570 -0.3141
   33SOL     OW  129   1.836   1.306   0.357  0.0647 -0.3814 -0.0048
   33SOL    HW1  130   1.826   1.231   0.413 -0.4791  0.2491  0.6047
   33SOL    HW2  131   1.810   1.390   0.400 -0.7653  0.3423 -3.2646
   33SOL     MW  132   1.832   1.307   0.370 -0.1165 -0.2027 -0.3545
   34SOL     OW  133   1.238   1.873   1.083 -0.5148  0.0746 -0.2861
   34SOL    HW1  134   1.146   1.897   1.089  1.6487 -1.8685  0.7811
   34SOL    HW2  135   1.284   1.893   1.168  0.4714 -0.0759  1.9864
   34SOL     MW  136   1.232   1.879   1.095 -0.0992 -0.2016  0.1546
   35SOL     OW  137   0.425   0.169   1.869  0.7876  0.1250  0.0806
   35SOL    HW1  138   0.370   0.106   1.916 -0.1876  0.9677  2.9530
   35SOL    HW2  139   0.445   0.129   1.786  0.7451  2.5727  0.4454
   35SOL     MW  140   0.420   0.155   1.864  0.6533  0.5591  0.5077
   36SOL     OW  141   1.858   1.939   0.503  0.9025 -0.2346  0.6400
   36SOL    HW1  142   1.872   1.945   0.409 -1.4234 -0.3972  2.4605
   36SOL    HW2  143   1.902   1.853   0.519 -0.2515  0.5176 -0.9300
   36SOL     MW  144   1.866   1.929   0.493  0.4433 -0.1568  0.6730
   37SOL     OW  145   1.759   2.001   1.023  0.1295  0.5897 -0.3072
   37SOL    HW1  146   1.706   1.955   0.953 -1.8797  2.7087  0.3008
   37SOL    HW2  147   1.698   2.054   1.070  3.3846  1.2724  0.2571
   37SOL     MW  148   1.744   2.002   1.020  0.2938  0.9594 -0.1525
   38SOL     OW  149   2.795   0.895   0.149 -0.1037  0.1456 -0.4007
   38SOL    HW1  150   2.849   0.911   0.231 -2.8858  1.1830  0.1342
   38SOL    HW2  151   2.859   0.890   0.078  1.1551 -0.7821 -1.5518
   38SOL     MW  152   2.811   0.897   0.150 -0.3047  0.1601 -0.4820
   39SOL     OW  153   1.420   0.624   0.776  0.1082 -0.8195  0.2099
   39SOL    HW1  154   1.389   0.549   0.831  2.5323 -0.3140 -0.1906
   39SOL    HW2  155   1.341   0.664   0.747  1.5205 -1.8182  0.1379
   39SOL     MW  156   1.405   0.619   0.780  0.6144 -0.8846  0.1476
   40SOL     OW  157   1.160   1.900   0.234 -1.1074 -0.0045  0.3687
   40SOL    HW1  158   1.204   1.842   0.295 -1.3620 -1.0423  0.7042
   40SOL    HW2  159   1.128   1.974   0.289 -1.2789 -1.5079  1.6512
   40SOL     MW  160   1.162   1.902   0.249 -1.1636 -0.3398  0.5822
   41SOL     OW  161   0.612   0.526   1.563 -0.1157  0.6226  0.1261
   41SOL    HW1  162   0.707   0.549   1.559  0.2162  1.0730  0.1437
   41SOL    HW2  163   0.609   0.460   1.636  0.1999  3.3945 -0.5268
   41SOL     MW  164   0.624   0.521   1.572 -0.0303  1.0477  0.0423
   42SOL     OW  165   1.236   3.023   1.984  0.0996  0.6531 -0.8109
   42SOL    HW1  166   1.145   3.017   2.015 -0.8057  1.4408 -1.7365
   42SOL    HW2  167   1.283   2.946   2.008  0.2079 -2.0044 -0.6573
   42SOL     MW  168   1.230   3.012   1.991 -0.0056  0.4064 -0.9128
   43SOL     OW  169   1.552   0.132   1.738  0.0660  0.2306 -0.5577
   43SOL    HW1  170   1.583   0.073   1.665 -1.0679 -0.5642 -1.1684
   43SOL    HW2  171   1.460   0.096   1.755  0.6456 -1.7193 -1.5253
   43SOL     MW  172   1.544   0.119   1.730 -0.0071 -0.1316 -0.7660
   44SOL     OW  173   1.234   0.750   1.068 -1.3566 -0.0639 -0.4602
   44SOL    HW1  174   1.229   0.834   1.026 -1.5366 -0.7008  0.9964
   44SOL    HW2  175   1.232   0.759   1.167  1.7902  0.4398 -1.3530
   44SOL     MW  176   1.233   0.762   1.076 -0.9651 -0.0815 -0.3858
   45SOL     OW  177   1.174   0.748   0.733  0.6347  1.1822 -0.0157
   45SOL    HW1  178   1.127   0.700   0.797  0.4138  0.4215 -0.6054
   45SOL    HW2  179   1.151   0.691   0.657 -0.5034 -0.1713  1.1786
   45SOL     MW  180   1.165   0.734   0.731  0.4554  0.9032  0.0641
   46SOL     OW  181   0.548   1.148   0.567  0.1739 -0.1958 -0.0183
   46SOL    HW1  182   0.527   1.152   0.475  1.5813 -0.7815 -1.5032
   46SOL    HW2  183   0.639   1.131   0.566 -3.5157 -0.1704  1.1195
   46SOL     MW  184   0.557   1.147   0.555 -0.1272 -0.2697 -0.0641
   47SOL     OW  185   0.159   1.933   1.798  0.1887  0.5879  0.9450
   47SOL    HW1  186   0.216   1.862   1.769 -3.0741  1.0408  0.5124
   47SOL    HW2  187   0.181   1.947   1.891 -2.0734  1.3130 -0.8411
   47SOL     MW  188   0.169   1.926   1.806 -0.5403  0.7434  0.6523
   48SOL     OW  189   1.102   0.544   0.958  0.5683 -0.6743  0.1212
   48SOL    HW1  190   1.022   0.531   1.000  1.6249  0.0568 -2.5133
   48SOL    HW2  191   1.156   0.610   1.006 -0.9193  1.2193 -0.9986
   48SOL     MW  192   1.098   0.551   0.970  0.5114 -0.3280 -0.3741
   49SOL     OW  193   1.832   0.741   1.585  0.2322 -0.1237  0.0617
   49SOL    HW1  194   1.779   0.696   1.649  1.9353  1.1714 -1.1368
   49SOL    HW2  195   1.890   0.671   1.544 -0.5624 -1.1778  0.0352
   49SOL     MW  196   1.832   0.726   1.588  0.3520 -0.0919 -0.0999
   50SOL     OW  197   1.193   1.079   0.522  0.4861  0.2032  0.0263
   50SOL    HW1  198   1.141   1.118   0.590  0.5029 -3.8554 -1.3748
   50SOL    HW2  199   1.268   1.044   0.569  0.0282 -0.4107  1.3180
   50SOL     MW  200   1.196   1.079   0.537  0.4279 -0.4133  0.0119
   51SOL     OW  201   0.302   2.897   0.940 -0.0563  0.0845 -0.1991
   51SOL    HW1  202   0.395   2.865   0.958  3.1993  2.2008 -1.0197
   51SOL    HW2  203   0.278   2.927   1.025 -0.7987 -0.1058 -1.5229
   51SOL     MW  204   0.311   2.897   0.954  0.2753  0.3386 -0.4820
   52SOL     OW  205   0.817   1.838   0.450  0.0174  0.3540 -0.4319
   52SOL    HW1  206   0.783   1.922   0.474  0.5801  0.0121  1.6209
   52SOL    HW2  207   0.827   1.835   0.355  1.6801 -2.0258  0.9885
   52SOL     MW  208   0.814   1.849   0.440  0.3110 -0.0051  0.0263
   53SOL     OW  209   0.441   2.149   0.640 -0.5192 -0.1266  0.0779
   53SOL    HW1  210   0.369   2.137   0.577  0.0766  0.4808 -2.0309
   53SOL    HW2  211   0.484   2.241   0.633  0.4960 -1.8191 -3.2156
   53SOL     MW  212   0.437   2.159   0.631 -0.3067 -0.2698 -0.6349
   54SOL     OW  213   2.108   0.876   0.865 -0.3636  0.4687 -0.0428
   54SOL    HW1  214   2.107   0.908   0.775 -1.7219  1.1565 -1.1668
   54SOL    HW2  215   2.025   0.822   0.874 -0.9422 -0.5543 -0.6682
   54SOL     MW  216   2.097   0.873   0.854 -0.6192  0.4245 -0.2736
   55SOL     OW  217   0.572   1.525   1.639 -0.5258  0.5259 -0.2401
   55SOL    HW1  218   0.505   1.571   1.587 -2.6965 -1.2385 -0.5663
   55SOL    HW2  219   0.627   1.472   1.585 -1.7224 -0.4447  2.0809
   55SOL     MW  220   0.570   1.524   1.625 -0.9701  0.1651  0.0231
   56SOL     OW  221   0.554   0.772   0.054  0.3980 -0.1591 -0.3710
   56SOL    HW1  222   0.589   0.860   0.032  1.0084  1.1448 -0.8244
   56SOL    HW2  223   0.462   0.778   0.057  2.7780  0.0286 -0.4449
   56SOL     MW  224   0.547   0.784   0.051  0.7926  0.0377 -0.4406
   57SOL     OW  225   1.200   1.227   1.102 -1.0514  0.2426 -0.6912
   57SOL    HW1  226   1.294   1.258   1.085  0.0766 -0.0859  0.1915
   57SOL    HW2  227   1.209   1.169   1.184  1.3474 -2.5226  1.8227
   57SOL     MW  228   1.214   1.223   1.110 -0.5861 -0.1656 -0.2430
   58SOL     OW  229   0.533   1.162   1.306  0.0389 -0.7739  0.7126
   58SOL    HW1  230   0.501   1.243   1.255  0.1948  1.5648  0.0521
   58SOL    HW2  231   0.547   1.194   1.396  3.1559  0.5605 -2.5583
   58SOL     MW  232   0.531   1.177   1.311  0.4707 -0.2893  0.1939
   59SOL     OW  233   1.543   1.688   0.328 -0.0906  0.1387  0.2621
   59SOL    HW1  234   1.585   1.667   0.406  0.7564 -0.5262 -2.1866
   59SOL    HW2  235   1.447   1.682   0.345  1.1724 -1.9761  0.4699
   59SOL     MW  236   1.536   1.684   0.341  0.1878 -0.2280 -0.0336
   60SOL     OW  237   0.078   0.173   1.613 -0.2479  0.2195 -0.5347
   60SOL    HW1  238  -0.005   0.217   1.612 -1.3533  0.9166 -2.1385
   60SOL    HW2  239   0.076   0.126   1.695 -2.5315  2.5305  1.7824
   60SOL     MW  240   0.067   0.173   1.623 -0.6950  0.6164 -0.4406
   61SOL     OW  241   2.049   1.477   3.053 -0.1924  0.7186  0.4351
   61SOL    HW1  242   2.043   1.461   3.150 -1.0119 -2.9953 -0.4405
   61SOL    HW2  243   2.127   1.426   3.031  0.3947  3.1819 -3.0314
   61SOL     MW  244   2.059   1.468   3.063 -0.2231  0.5536 -0.1378
   62SOL     OW  245   0.582   1.712   0.641 -0.8552 -0.3891 -0.1668
   62SOL    HW1  246   0.666   1.734   0.599  4.6703  0.5124  1.0376
   62SOL    HW2  247   0.588   1.617   0.661  0.3743  0.8539  2.2996
   62SOL     MW  248   0.594   1.703   0.638  0.0361 -0.1062  0.3175
   63SOL     OW  249   1.666   0.693   0.736 -0.0182 -0.4526 -0.0909
   63SOL    HW1  250   1.648   0.748   0.657  0.0674  0.9257 -0.5931
   63SOL    HW2  251   1.578   0.687   0.770  0.9520 -0.5109  0.9041
   63SOL     MW  252   1.652   0.700   0.730  0.1211 -0.2785 -0.0259
   64SOL     OW  253   0.254   1.728   0.744 -0.2727  0.6723  0.1790
   64SOL    HW1  254   0.320   1.792   0.761 -0.7605 -1.3131 -1.4603
   64SOL    HW2  255   0.180   1.786   0.707 -3.2710  1.7818 -0.6838
   64SOL     MW  256   0.253   1.744   0.741 -0.7327  0.5567 -0.1511
   65SOL     OW  257   1.540   2.355   0.413 -0.2413  0.2559  0.0436
   65SOL    HW1  258   1.626   2.337   0.445 -1.8789 -2.1778  2.1148
   65SOL    HW2  259   1.497   2.410   0.475  2.3222 -1.7364 -1.1367
   65SOL     MW  260   1.546   2.360   0.425 -0.1191 -0.3281  0.1611
   66SOL     OW  261   0.293   0.554   0.570 -0.3906  0.0959 -0.0655
   66SOL    HW1  262   0.336   0.507   0.498 -0.3959  4.4078 -0.8020
   66SOL    HW2  263   0.279   0.645   0.533  0.1524  0.8487 -0.6158
   66SOL     MW  264   0.297   0.560   0.556 -0.3196  0.7641 -0.2352
   67SOL     OW  265   1.509   0.082   2.032  0.5113  0.0102  0.2690
   67SOL    HW1  266   1.533   0.077   1.940  0.9297 -0.1601  1.0063
   67SOL    HW2  267   1.439   0.021   2.048  0.2420 -2.1464 -1.7497
   67SOL     MW  268   1.503   0.073   2.022  0.5309 -0.2968  0.0999
   68SOL     OW  269   0.646   0.115   2.946  0.2073  0.5855 -0.1203
   68SOL    HW1  270   0.626   0.153   2.861 -0.6323  1.5533 -1.2114
   68SOL    HW2  271   0.658   0.193   2.995 -0.4201 -2.2670  0.9380
   68SOL     MW  272   0.645   0.131   2.941  0.0138  0.3368 -0.1246
   69SOL     OW  273   0.998   0.177   2.002  0.1237  0.2121  0.0915
   69SOL    HW1  274   1.070   0.216   2.057  1.1218  2.1229  1.8380
   69SOL    HW2  275   0.984   0.086   2.028 -1.5079 -0.7550  0.6573
   69SOL     MW  276   1.006   0.170   2.013  0.0401  0.3366  0.3966
   70SOL     OW  277   0.524   1.717   1.115 -0.2815  0.3793 -0.2799
   70SOL    HW1  278   0.576   1.699   1.198  1.7025 -1.2163 -0.2403
   70SOL    HW2  279   0.586   1.734   1.050 -0.5360 -1.1015 -1.2097
   70SOL     MW  280   0.539   1.717   1.118 -0.0533 -0.0266 -0.3973
   71SOL     OW  281   1.634   0.542   1.327 -0.3770 -0.3985  0.3832
   71SOL    HW1  282   1.587   0.589   1.397  0.3789  2.0298 -0.2123
   71SOL    HW2  283   1.579   0.571   1.249  0.0672  1.4136 -0.0270
   71SOL     MW  284   1.621   0.552   1.326 -0.2186  0.1610  0.2505
   72SOL     OW  285   0.766   1.783   0.986 -0.2729  0.6484  0.2745
   72SOL    HW1  286   0.732   1.821   0.905  0.9773  0.4843 -2.3489
   72SOL    HW2  287   0.770   1.686   0.978 -2.2822 -0.5279  2.1996
   72SOL     MW  288   0.762   1.775   0.975 -0.3731  0.4716  0.1824
   73SOL     OW  289   1.160   0.710   1.361 -0.2193  0.4450 -0.3208
   73SOL    HW1  290   1.128   0.618   1.364 -0.9236 -0.3654  0.6486
   73SOL    HW2  291   1.092   0.762   1.399  0.0850 -0.6263 -1.2394
   73SOL     MW  292   1.147   0.705   1.366 -0.2721  0.1967 -0.3141
   74SOL     OW  293   2.805   0.174   0.944 -0.2692 -0.4663  0.0285
   74SOL    HW1  294   2.818   0.162   0.853  1.1869  1.0892 -1.1198
   74SOL    HW2  295   2.748   0.254   0.940  0.7675  1.2935 -0.6272
   74SOL     MW  296   2.799   0.183   0.932  0.0597 -0.0289 -0.2095
   75SOL     OW  297   1.659   1.383   0.091 -0.4666  0.5705  0.0790
   75SOL    HW1  298   1.719   1.392   0.163 -1.5534 -1.6319 -0.8010
   75SOL    HW2  299   1.671   1.293   0.059  0.1687 -0.2087 -2.6517
   75SOL     MW  300   1.669   1.372   0.096 -0.5262  0.1771 -0.3974
   76SOL     OW  301   3.018   0.617   0.438  0.3253  0.1636  0.6181
   76SOL    HW1  302   3.041   0.655   0.524 -1.9635 -0.7845  1.0824
   76SOL    HW2  303   3.085   0.552   0.422 -2.2587  1.1165  0.8529
   76SOL     MW  304   3.030   0.614   0.447 -0.3176  0.1642  0.7104
   77SOL     OW  305   0.801   0.554   0.404 -0.5700  0.0168 -0.1700
   77SOL    HW1  306   0.786   0.564   0.312 -0.6309  1.5163 -0.6642
   77SOL    HW2  307   0.741   0.482   0.436 -3.3235  0.5646 -1.6800
   77SOL     MW  308   0.791   0.546   0.396 -0.9413  0.2869 -0.4344
   78SOL     OW  309   0.746   0.894   1.285 -0.3921  0.3201 -0.0858
   78SOL    HW1  310   0.702   0.976   1.284  3.0622 -1.4305  1.6157
   78SOL    HW2  311   0.726   0.869   1.198 -1.1689  1.9943  1.3861
   78SOL     MW  312   0.738   0.901   1.273 -0.0388  0.3100  0.3329
   79SOL     OW  313   1.927   1.685   0.590  0.3818 -0.3078 -0.1604
   79SOL    HW1  314   1.850   1.625   0.565  0.8737 -0.8238  0.8808
   79SOL    HW2  315   1.919   1.709   0.684 -1.5801 -2.8184 -3.6173
   79SOL     MW  316   1.916   1.680   0.599  0.1879 -0.7071 -0.4792
   80SOL     OW  317   0.075   0.945   0.300  0.1767 -0.2386  0.2207
   80SOL    HW1  318  -0.012   0.911   0.334 -0.3636  0.4246  0.4350
   80SOL    HW2  319   0.131   0.879   0.345  1.3953  0.9343 -0.0187
   80SOL     MW  320   0.071   0.932   0.311  0.2662  0.0037  0.2174
   81SOL     OW  321   1.889   1.900   0.233 -0.3468 -0.2624 -0.8069
   81SOL    HW1  322   1.848   1.815   0.203  1.0918 -1.1208 -0.3803
   81SOL    HW2  323   1.811   1.959   0.214  2.7040 -0.6970  0.3360
   81SOL     MW  324   1.874   1.897   0.227  0.2456 -0.4330 -0.5998
   82SOL     OW  325   0.826   1.061   0.524  0.0369 -0.5356 -0.1930
   82SOL    HW1  326   0.823   1.076   0.428  2.2792 -1.1769  0.1120
   82SOL    HW2  327   0.798   0.975   0.534  0.0426  2.8129 -0.2611
   82SOL     MW  328   0.822   1.052   0.513  0.3335 -0.1784 -0.1617
   83SOL     OW  329   0.123   0.594   1.358 -0.4236  0.5942  0.7349
   83SOL    HW1  330   0.123   0.681   1.331  0.5776  0.0266  1.3030
   83SOL    HW2  331   0.204   0.594   1.409 -2.2763 -0.1291  1.2700
   83SOL     MW  332   0.133   0.606   1.361 -0.5359  0.4239  0.8805
   84SOL     OW  333   0.077   0.266   0.929  0.4066  0.6789  0.5193
   84SOL    HW1  334  -0.004   0.311   0.888 -0.4932  1.7207  2.2733
   84SOL    HW2  335   0.048   0.190   0.984  1.5532 -1.5646 -0.5669
   84SOL     MW  336   0.062   0.262   0.931  0.4391  0.5203  0.6074
   85SOL     OW  337   0.475   0.428   0.743  0.0599 -0.5036 -0.1804
   85SOL    HW1  338   0.416   0.455   0.678  0.7174  2.3566  1.0685
   85SOL    HW2  339   0.441   0.346   0.776 -3.7839  1.4055 -2.7688
   85SOL     MW  340   0.462   0.421   0.738 -0.3605  0.1256 -0.3571
   86SOL     OW  341   1.221   0.338   1.093 -0.2466 -0.4930  0.6192
   86SOL    HW1  342   1.161   0.393   1.041 -0.5474  0.5725  0.0590
   86SOL    HW2  343   1.234   0.383   1.178  0.1173 -0.9279 -0.6150
   86SOL     MW  344   1.215   0.351   1.097 -0.2383 -0.4098  0.3824
   87SOL     OW  345   1.147   1.427   1.295  0.8873 -0.1842  0.0001
   87SOL    HW1  346   1.198   1.493   1.243 -2.4462 -0.6354 -2.0982
   87SOL    HW2  347   1.177   1.347   1.249 -0.3144 -0.1427  1.0793
   87SOL     MW  348   1.158   1.425   1.282  0.2889 -0.2383 -0.1344
   88SOL     OW  349   1.213   0.995   0.928  0.1387  0.0246 -0.7647
   88SOL    HW1  350   1.309   1.001   0.930  1.9862  1.3910  1.9876
   88SOL    HW2  351   1.178   1.048   1.001 -1.5333 -0.0977 -2.4748
   88SOL     MW  352   1.221   1.002   0.938  0.1618  0.1887 -0.6272
   89SOL     OW  353   1.769   0.679   0.351  0.4350  0.1037  0.3424
   89SOL    HW1  354   1.817   0.596   0.377  0.7449  3.5211  3.1610
   89SOL    HW2  355   1.799   0.710   0.266 -2.1535 -2.6768 -0.9064
   89SOL     MW  356   1.780   0.672   0.343  0.1344  0.1877  0.5495
   90SOL     OW  357   0.688   1.159   2.791 -0.0816 -0.0158 -0.2160
   90SOL    HW1  358   0.764   1.085   2.786  0.3684 -4.5465 -0.4691
   90SOL    HW2  359   0.703   1.219   2.863 -0.2987  1.2180 -0.1064
   90SOL     MW  360   0.700   1.157   2.800 -0.0509 -0.4508 -0.2350
   91SOL     OW  361   2.190   0.653   0.531 -0.6420  0.3654 -0.6952
   91SOL    HW1  362   2.221   0.719   0.467  0.8216 -0.1356 -2.4386
   91SOL    HW2  363   2.184   0.574   0.481 -0.4337  0.4709  1.3320
   91SOL     MW  364   2.193   0.651   0.516 -0.4214  0.3132 -0.6578
   92SOL     OW  365   1.631   0.839   0.521  0.1727 -0.0005  0.2115
   92SOL    HW1  366   1.537   0.831   0.522  2.1435  0.2488  1.1093
   92SOL    HW2  367   1.664   0.775   0.452  0.5211 -2.3116  1.1893
   92SOL     MW  368   1.623   0.829   0.512  0.4787 -0.2725  0.4590
   93SOL     OW  369   0.993   0.284   0.399 -0.6906 -0.8756  0.2703
   93SOL    HW1  370   0.934   0.359   0.397  1.0133 -0.2295  2.5984
   93SOL    HW2  371   1.036   0.290   0.315 -0.9504 -0.6739  0.6237
   93SOL     MW  372   0.991   0.295   0.388 -0.5001 -0.7638  0.6241
   94SOL     OW  373   1.852   1.425   1.619 -0.7470  0.8241 -0.0327
   94SOL    HW1  374   1.855   1.418   1.521 -0.1302  0.0090 -2.9291
   94SOL    HW2  375   1.828   1.338   1.650 -2.8766 -1.9297 -1.0438
   94SOL     MW  376   1.849   1.412   1.610 -0.9466  0.3532 -0.5483
   95SOL     OW  377   0.757   1.502   0.986  0.4641  0.1160 -0.3066
   95SOL    HW1  378   0.843   1.457   0.978 -1.4328 -0.5283 -1.7324
   95SOL    HW2  379   0.692   1.452   0.936  0.8220 -1.0581  0.6628
   95SOL     MW  380   0.760   1.490   0.978  0.2610 -0.1239 -0.3668
   96SOL     OW  381   1.236   1.849   1.642 -0.3201 -0.0072  0.1302
   96SOL    HW1  382   1.152   1.840   1.673 -0.0138  1.9647  1.2112
   96SOL    HW2  383   1.251   1.757   1.596  0.5696 -0.6413 -2.3667
   96SOL     MW  384   1.227   1.835   1.640 -0.1623  0.1693 -0.0566
   97SOL     OW  385   1.276   1.438   0.806  0.3882 -0.1817 -0.3014
   97SOL    HW1  386   1.304   1.451   0.901 -0.5218  0.2606  1.4536
   97SOL    HW2  387   1.202   1.498   0.785  0.7746  1.8615 -2.7898
   97SOL     MW  388   1.270   1.447   0.816  0.3192  0.1462 -0.3981
   98SOL     OW  389   1.463   1.292   1.052 -0.1577 -0.2958 -0.4623
   98SOL    HW1  390   1.491   1.349   1.121 -0.3727 -0.1165  2.7075
   98SOL    HW2  391   1.516   1.308   0.976  2.3536 -0.5137  1.4866
   98SOL     MW  392   1.473   1.302   1.051  0.1453 -0.3009  0.2130
   99SOL     OW  393   1.363   0.383   1.352 -0.3371  0.2834 -0.2790
   99SOL    HW1  394   1.420   0.448   1.314  0.6482  0.4242  0.5883
   99SOL    HW2  395   1.399   0.374   1.440  0.0549 -0.2805 -1.8350
   99SOL     MW  396   1.375   0.390   1.358 -0.1554  0.2276 -0.3698
  100SOL     OW  397   1.021   1.155   1.366 -0.3217 -0.2035 -0.3490
  100SOL    HW1  398   1.045   1.229   1.422  2.0617  1.1374 -1.1380
  100SOL    HW2  399   1.037   1.078   1.426  0.1495 -0.1721 -0.7294
  100SOL     MW  400   1.026   1.154   1.381  0.0549 -0.0224 -0.5033
  101SOL     OW  401   0.505   1.081   0.314 -0.3102 -0.2428  0.2737
  101SOL    HW1  402   0.531   0.991   0.331 -0.1720  2.1418  2.2932
  101SOL    HW2  403   0.487   1.090   0.222 -0.4259  2.8202 -1.9234
  101SOL     MW  404   0.506   1.070   0.304 -0.3072  0.4760  0.2503
  102SOL     OW  405   2.917   0.590   0.991 -0.7531  0.0602  0.3457
  102SOL    HW1  406   2.944   0.684   1.005  1.4002 -2.1682 -1.6472
  102SOL    HW2  407   2.964   0.544   1.064 -1.1784  1.5187  0.0655
  102SOL     MW  408   2.926   0.596   1.003 -0.5251 -0.0414  0.0458
  103SOL     OW  409   1.744   0.370   1.809 -0.3462 -0.6008 -0.5956
  103SOL    HW1  410   1.737   0.283   1.771 -0.9153  2.1725 -1.3772
  103SOL    HW2  411   1.782   0.354   1.889 -1.1422 -0.8666 -0.5749
  103SOL     MW  412   1.748   0.356   1.815 -0.5263 -0.2700 -0.6960
  104SOL     OW  413   0.126   1.748   1.544 -1.0103 -0.8409 -0.2853
  104SOL    HW1  414   0.061   1.725   1.613  1.9294  2.8683 -2.4162
  104SOL    HW2  415   0.104   1.716   1.454  0.1964  0.6773 -0.7209
  104SOL     MW  416   0.114   1.741   1.541 -0.4633 -0.1512 -0.6239
  105SOL     OW  417   0.019   1.161   0.486  0.0593 -0.1438 -0.3853
  105SOL    HW1  418   0.046   1.077   0.443 -2.3406 -1.1456 -2.6034
  105SOL    HW2  419   0.100   1.207   0.514  0.3007  0.3077  0.3056
  105SOL     MW  420   0.033   1.156   0.484 -0.2255 -0.2164 -0.5868
  106SOL     OW  421   0.877   0.367   1.033  0.1600 -0.3641 -0.3112
  106SOL    HW1  422   0.796   0.408   1.000 -0.0480  1.7026 -1.2185
  106SOL    HW2  423   0.904   0.327   0.952 -0.3431  0.8957  1.4438
  106SOL     MW  424   0.870   0.367   1.018  0.0662  0.0748 -0.1993
  107SOL     OW  425   0.773   2.161   2.974  0.1067  0.2154 -0.4095
  107SOL    HW1  426   0.698   2.119   2.921  2.3792  0.7383 -0.5835
  107SOL    HW2  427   0.748   2.130   3.062 -0.1284  1.2624  0.0406
  107SOL     MW  428   0.760   2.152   2.978  0.3755  0.4225 -0.3731
  108SOL     OW  429   1.300   1.548   1.519 -0.6060  0.2700  0.6381
  108SOL    HW1  430   1.251   1.485   1.456 -0.1821  0.2393 -0.6054
  108SOL    HW2  431   1.373   1.500   1.563  1.1860  1.4860 -1.0313
  108SOL     MW  432   1.303   1.534   1.516 -0.3136  0.4264  0.2538
  109SOL     OW  433   1.988   0.778   0.176 -0.3243  0.3450 -0.1580
  109SOL    HW1  434   2.070   0.794   0.126  1.9087 -0.4416  1.1009
  109SOL    HW2  435   1.992   0.804   0.268 -0.9207  1.7949  2.1267
  109SOL     MW  436   1.999   0.783   0.182 -0.1084  0.4325  0.3096
  110SOL     OW  437   0.468   1.911   0.780  0.0725  0.4074 -0.1322
  110SOL    HW1  438   0.492   1.843   0.714  0.1714 -3.6037  4.1052
  110SOL    HW2  439   0.484   1.994   0.733 -0.4487 -0.0196  2.1382
  110SOL     MW  440   0.473   1.913   0.765  0.0168 -0.1782  0.7264
  111SOL     OW  441   0.773   0.934   1.549  1.1874 -0.0456  0.2768
  111SOL    HW1  442   0.758   0.913   1.453 -2.2813 -0.5360  0.0683
  111SOL    HW2  443   0.693   0.904   1.593  0.7466  1.9200  0.9993
  111SOL     MW  444   0.760   0.927   1.542  0.6716  0.1491  0.3446
  112SOL     OW  445   1.331   1.058   1.608 -0.2079 -0.0235 -0.0651
  112SOL    HW1  446   1.256   1.114   1.637  0.0589  1.5955  0.3662
  112SOL    HW2  447   1.299   0.967   1.595 -0.4745 -0.1511 -1.4168
  112SOL     MW  448   1.317   1.053   1.610 -0.2079  0.1733 -0.1866
  113SOL     OW  449   1.301   0.040   1.746  0.1469  0.2148  0.1180
  113SOL    HW1  450   1.256  -0.007   1.820  1.4336  0.5489  2.7056
  113SOL    HW2  451   1.323  -0.033   1.679 -1.6006  0.2581 -0.2782
  113SOL     MW  452   1.298   0.024   1.747  0.0861  0.2646  0.4072
  114SOL     OW  453   0.346   2.855   1.947 -1.0581  0.0462  0.0364
  114SOL    HW1  454   0.360   2.936   1.997 -1.6971  2.2741 -2.5522
  114SOL    HW2  455   0.387   2.878   1.857  2.8933 -1.6312  0.8897
  114SOL     MW  456   0.353   2.869   1.941 -0.6211  0.1188 -0.1925
  115SOL     OW  457   0.510   0.825   1.135  0.4466 -0.1285 -0.0176
  115SOL    HW1  458   0.518   0.736   1.167 -0.8597 -0.7987  0.4599
  115SOL    HW2  459   0.503   0.875   1.217 -2.7861  1.5372  2.0163
  115SOL     MW  460   0.510   0.820   1.150 -0.1523  0.0028  0.3137
  116SOL     OW  461   0.785   1.012   1.017  0.4145  0.1323 -0.5347
  116SOL    HW1  462   0.834   1.032   0.940  0.5998 -1.2016 -2.8266
  116SOL    HW2  463   0.807   1.079   1.082 -0.3673  1.9133  0.9220
  116SOL     MW  464   0.794   1.023   1.015  0.3358  0.1913 -0.6449
  117SOL     OW  465   1.136   1.206   0.773 -0.5939 -0.2893  0.2497
  117SOL    HW1  466   1.161   1.147   0.843 -2.3568 -0.7880  2.5214
  117SOL    HW2  467   1.175   1.296   0.794  0.3202  2.1076  0.7179
  117SOL     MW  468   1.145   1.210   0.785 -0.7059 -0.0388  0.6112
  118SOL     OW  469   3.045   2.909   1.714  0.0004  0.0985  1.1484
  118SOL    HW1  470   3.085   2.968   1.779 -0.5845  0.2574  2.1165
  118SOL    HW2  471   2.950   2.913   1.725  2.8280 -0.8262 -3.3551
  118SOL     MW  472   3.038   2.917   1.724  0.2963 -0.0025  0.6819
  119SOL     OW  473   0.464   1.426   1.210  0.3817  0.6163  0.1089
  119SOL    HW1  474   0.487   1.472   1.132 -0.0689 -0.5863 -0.7067
  119SOL    HW2  475   0.367   1.407   1.193  3.3782 -0.2014 -1.8419
  119SOL     MW  476   0.454   1.429   1.198  0.7176  0.3497 -0.2561
  120SOL     OW  477   0.280   0.701   0.982 -0.1331  0.0459 -0.3126
  120SOL    HW1  478   0.313   0.626   1.028  1.1854 -0.7771  0.2442
  120SOL    HW2  479   0.339   0.767   1.013 -1.2070  0.4163  0.5855
  120SOL     MW  480   0.292   0.700   0.992 -0.1008 -0.0138 -0.1207
  121SOL     OW  481   1.777   1.158   1.706 -0.5528  0.3875 -0.4676
  121SOL    HW1  482   1.700   1.113   1.736 -1.0924  0.1128  0.1565
  121SOL    HW2  483   1.817   1.103   1.635 -0.9914 -0.5128  0.0383
  121SOL     MW  484   1.772   1.145   1.701 -0.6819  0.2325 -0.3185
  122SOL     OW  485   0.116   0.565   0.796 -0.4880 -0.6692 -0.1178
  122SOL    HW1  486   0.181   0.567   0.725  0.4117  0.2960  0.3977
  122SOL    HW2  487   0.154   0.631   0.854 -1.3655 -0.6945 -2.3888
  122SOL     MW  488   0.130   0.574   0.794 -0.4851 -0.5452 -0.3494
  123SOL     OW  489   1.812   1.066   0.578  0.3788 -0.3431 -0.3168
  123SOL    HW1  490   1.749   0.993   0.575  0.3666 -2.0818  0.5893
  123SOL    HW2  491   1.831   1.090   0.673 -2.5740  0.7973  2.3080
  123SOL     MW  492   1.806   1.059   0.590 -0.0124 -0.4221  0.1491
  124SOL     OW  493   0.687   0.529   0.915  0.4910  0.1165 -0.6344
  124SOL    HW1  494   0.617   0.495   0.859  0.3349  1.7076 -0.2530
  124SOL    HW2  495   0.713   0.614   0.878  0.6856 -1.1667  1.9944
  124SOL     MW  496   0.681   0.536   0.903  0.4961  0.1571 -0.2372
  125SOL     OW  497   0.704   1.764   1.708  0.2516  0.3371 -0.2105
  125SOL    HW1  498   0.629   1.707   1.686 -1.2779  1.1974  1.5053
  125SOL    HW2  499   0.680   1.849   1.680  2.9460 -1.4733  1.8901
  125SOL     MW  500   0.691   1.768   1.701  0.4053  0.2117  0.2930
  126SOL     OW  501   2.134   1.599   1.952 -0.4428  0.0405  0.3549
  126SOL    HW1  502   2.204   1.664   1.926 -1.0406  1.1161 -1.3246
  126SOL    HW2  503   2.178   1.512   1.966  1.7995 -0.7149  0.4451
  126SOL     MW  504   2.149   1.596   1.951 -0.2259  0.0827  0.1452
  127SOL     OW  505   0.692   0.801   1.864  0.1109  0.4554 -0.0005
  127SOL    HW1  506   0.769   0.742   1.877 -0.1464  3.0625 -2.6822
  127SOL    HW2  507   0.708   0.871   1.930 -0.4370  0.8394  1.7327
  127SOL     MW  508   0.705   0.802   1.875  0.0047  0.8500 -0.1257
  128SOL     OW  509   1.848   0.763   2.922 -0.0714 -0.3012 -0.1318
  128SOL    HW1  510   1.840   0.702   2.850 -2.0942  0.5503 -0.2001
  128SOL    HW2  511   1.780   0.829   2.913 -0.3111 -2.2114  1.2932
  128SOL     MW  512   1.838   0.764   2.911 -0.3699 -0.4409  0.0472
  129SOL     OW  513   1.645   0.927   0.193  0.3098 -0.1711  0.6673
  129SOL    HW1  514   1.571   0.871   0.192  1.0334  0.3111 -0.3264
  129SOL    HW2  515   1.680   0.922   0.279 -1.3749  0.9738 -0.8384
  129SOL     MW  516   1.640   0.919   0.205  0.1830  0.0436  0.3375
  130SOL     OW  517   0.748   1.368   0.381 -0.9149 -0.4756 -0.6554
  130SOL    HW1  518   0.819   1.385   0.447  4.1663 -2.8174  0.5632
  130SOL    HW2  519   0.795   1.375   0.302  1.3127 -0.0976 -0.3277
  130SOL     MW  520   0.764   1.371   0.379  0.0494 -0.7347 -0.4514
  131SOL     OW  521   2.994   0.839   3.054 -0.4936 -0.0630  0.3252
  131SOL    HW1  522   2.994   0.884   2.968  2.9856 -0.0197 -0.6189
  131SOL    HW2  523   3.085   0.836   3.077 -2.7396  0.5419 -0.3459
  131SOL     MW  524   3.006   0.845   3.046 -0.3309  0.0225  0.1121
  132SOL     OW  525   2.736   0.165   1.208 -0.7075  0.2581 -0.0584
  132SOL    HW1  526   2.764   0.150   1.115  0.3312  2.2747  1.0943
  132SOL    HW2  527   2.638   0.158   1.222  0.2508 -0.6640  2.3287
  132SOL     MW  528   2.726   0.162   1.198 -0.4440  0.4025  0.4087
  133SOL     OW  529   1.036   0.165   1.718  0.4680  0.0925 -0.0178
  133SOL    HW1  530   1.120   0.119   1.711  0.9378  0.9590 -0.8353
  133SOL    HW2  531   1.031   0.186   1.811  1.6241 -0.3836  0.2376
  133SOL     MW  532   1.046   0.162   1.729  0.6826  0.1440 -0.0919
  134SOL     OW  533   1.421   2.509   1.422 -0.0327 -0.4174  0.0512
  134SOL    HW1  534   1.378   2.591   1.405  0.2763  1.1573 -0.2250
  134SOL    HW2  535   1.453   2.518   1.514  2.6951 -0.1565  2.3141
  134SOL     MW  536   1.419   2.521   1.432  0.3680 -0.1752  0.3133
  135SOL     OW  537   3.055   1.035   2.833 -0.1124  0.0593  0.0246
  135SOL    HW1  538   3.112   1.103   2.869  2.8659  1.0012  2.0654
  135SOL    HW2  539   2.976   1.064   2.875  0.0799  0.6666  0.4557
  135SOL     MW  540   3.052   1.048   2.844  0.3059  0.2637  0.3507
  136SOL     OW  541   0.248   2.058   0.914 -0.7390  0.1518  0.0921
  136SOL    HW1  542   0.178   2.009   0.867  2.8458 -1.0613  1.3343
  136SOL    HW2  543   0.330   2.020   0.873  1.1783 -0.2922  0.2878
  136SOL     MW  544   0.250   2.046   0.902 -0.0131 -0.0669  0.2818
  137SOL     OW  545   0.677   2.072   0.542 -0.0052 -0.2190  0.1943
  137SOL    HW1  546   0.720   2.041   0.626 -3.1517 -0.7515  0.9242
  137SOL    HW2  547   0.589   2.113   0.564  0.6602 -0.7965  0.4749
  137SOL     MW  548   0.671   2.073   0.556 -0.3326 -0.3655  0.3276
  138SOL     OW  549   0.504   0.548   1.121 -0.0557  0.1132 -0.3821
  138SOL    HW1  550   0.428   0.493   1.087  0.2359  0.6340  0.1316
  138SOL    HW2  551   0.569   0.529   1.055  0.7072  3.8553 -1.0743
  138SOL     MW  552   0.503   0.538   1.108  0.0834  0.6756 -0.4057
  139SOL     OW  553   2.754   0.579   1.377  0.8308 -0.2230 -0.1197
  139SOL    HW1  554   2.815   0.513   1.345 -1.4532  2.4414  0.5121
  139SOL    HW2  555   2.806   0.624   1.444 -1.3678  0.6194 -1.9019
  139SOL     MW  556   2.769   0.576   1.381  0.2394  0.2397 -0.2715
  140SOL     OW  557   0.801   0.361   2.082 -0.0836 -0.2563  0.0656
  140SOL    HW1  558   0.872   0.302   2.068  0.0737  1.4071  1.5899
  140SOL    HW2  559   0.822   0.397   2.167 -2.9781  1.5044 -0.4433
  140SOL     MW  560   0.813   0.358   2.091 -0.4447  0.1955  0.1996
  141SOL     OW  561   1.076   0.564   1.783 -0.3770  0.0885 -0.3942
  141SOL    HW1  562   1.115   0.498   1.728 -0.9462  1.8853  1.0440
  141SOL    HW2  563   1.119   0.645   1.757  0.3432 -3.3341 -1.5055
  141SOL     MW  564   1.087   0.566   1.772 -0.3570 -0.1260 -0.3511
  142SOL     OW  565   0.879   1.136   0.772 -0.4937  0.2337 -0.4688
  142SOL    HW1  566   0.875   1.102   0.682 -0.7148  1.1728 -0.0566
  142SOL    HW2  567   0.966   1.182   0.784 -0.7382 -2.1426  2.2212
  142SOL     MW  568   0.890   1.138   0.761 -0.5552  0.0441 -0.0595
  143SOL     OW  569   1.745   0.792   1.093  0.0375 -0.2241 -0.2014
  143SOL    HW1  570   1.808   0.776   1.020 -1.2108  3.0077 -1.7898
  143SOL    HW2  571   1.683   0.723   1.086  0.3951 -3.0971 -0.2140
  143SOL     MW  572   1.745   0.781   1.083 -0.0801 -0.1768 -0.4127
  144SOL     OW  573   0.236   1.233   1.516  0.5639 -0.4026 -0.0093
  144SOL    HW1  574   0.331   1.223   1.519  2.3147  0.8753  1.1519
  144SOL    HW2  575   0.222   1.244   1.607  0.7717 -2.4416 -1.4702
  144SOL     MW  576   0.246   1.233   1.528  0.8223 -0.5030 -0.0488
  145SOL     OW  577   0.264   0.407   1.069 -0.6293  0.4570  0.1998
  145SOL    HW1  578   0.287   0.335   1.135 -1.2078 -2.9519  1.4496
  145SOL    HW2  579   0.202   0.362   0.997 -0.1457  1.0508  0.5850
  145SOL     MW  580   0.259   0.392   1.068 -0.6418  0.0856  0.4155
  146SOL     OW  581   0.856   1.944   1.352 -0.3170 -0.1949 -0.1893
  146SOL    HW1  582   0.881   1.925   1.258  0.6481 -1.8308 -1.0719
  146SOL    HW2  583   0.762   1.943   1.339  1.0818 -0.6674  3.6856
  146SOL     MW  584   0.847   1.942   1.338 -0.0051 -0.4731  0.2055
  147SOL     OW  585   0.388   0.390   3.013 -0.0825 -0.1752  0.1248
  147SOL    HW1  586   0.313   0.414   3.066  1.8043  1.5418 -1.0273
  147SOL    HW2  587   0.383   0.450   2.940  0.4497 -0.4976  0.9370
  147SOL     MW  588   0.377   0.401   3.011  0.2366  0.0088  0.0799
  148SOL     OW  589   0.096   0.890   1.297  0.0238 -0.3360 -0.1830
  148SOL    HW1  590   0.192   0.906   1.304  3.5640 -0.4509 -0.3974
  148SOL    HW2  591   0.071   0.887   1.388  0.1831  1.2535 -3.1719
  148SOL     MW  592   0.106   0.892   1.310  0.5119 -0.1415 -0.6057
  149SOL     OW  593   1.369   1.188   1.323 -0.2141 -0.2152 -0.3733
  149SOL    HW1  594   1.333   1.168   1.407  1.0088 -1.0528 -0.9080
  149SOL    HW2  595   1.453   1.231   1.353 -0.2317  0.3913  2.6899
  149SOL     MW  596   1.375   1.191   1.338 -0.0551 -0.2457 -0.0397
  150SOL     OW  597   1.866   1.403   0.741 -0.3324  0.3853 -0.0448
  150SOL    HW1  598   1.908   1.316   0.762  0.4151 -0.2908  0.7317
  150SOL    HW2  599   1.925   1.464   0.785 -3.1491 -0.7461  2.2002
  150SOL     MW  600   1.880   1.400   0.749 -0.6054  0.1468  0.3539
  151SOL     OW  601   1.647   1.829   0.853  0.5325 -0.8636 -0.4733
  151SOL    HW1  602   1.624   1.830   0.760  1.5921 -0.0782 -0.2508
  151SOL    HW2  603   1.614   1.751   0.887  1.0765  2.7062  1.3873
  151SOL     MW  604   1.640   1.819   0.845  0.7441 -0.2890 -0.1985
  152SOL     OW  605   0.737   1.362   1.504 -0.6312  0.7397 -0.2758
  152SOL    HW1  606   0.738   1.302   1.579  1.3515  1.6558 -0.5190
  152SOL    HW2  607   0.818   1.412   1.520  0.0957 -0.7110 -1.8662
  152SOL     MW  608   0.748   1.361   1.516 -0.2737  0.6692 -0.5178
  153SOL     OW  609   2.613   1.265   0.757 -0.2821 -0.0563  0.1523
  153SOL    HW1  610   2.688   1.231   0.700 -3.4981  0.2146  0.8757
  153SOL    HW2  611   2.562   1.185   0.756 -0.5732  0.3780  0.4367
  153SOL     MW  612   2.617   1.250   0.749 -0.7448  0.0367  0.2853
  154SOL     OW  613   0.370   1.756   1.734 -0.2329  0.2839 -0.1246
  154SOL    HW1  614   0.345   1.737   1.642 -0.3445 -1.9935  1.9177
  154SOL    HW2  615   0.360   1.674   1.783 -0.6260  4.1140  2.3120
  154SOL     MW  616   0.365   1.742   1.728 -0.2995  0.4888  0.4664
  155SOL     OW  617   1.180   0.723   0.286 -0.1771  0.0425 -0.3768
  155SOL    HW1  618   1.173   0.695   0.381 -1.3766  0.3455 -0.1000
  155SOL    HW2  619   1.150   0.813   0.286 -0.9683 -2.6194  0.6511
  155SOL     MW  620   1.175   0.731   0.299 -0.4397 -0.2687 -0.2047
  156SOL     OW  621   1.594   3.027   1.038  0.0202  0.2475  0.2587
  156SOL    HW1  622   1.619   3.100   1.087 -1.8754  0.2329 -0.3308
  156SOL    HW2  623   1.582   2.950   1.101 -1.4279  1.3736  2.1915
  156SOL     MW  624   1.596   3.026   1.052 -0.4209  0.3941  0.4360
  157SOL     OW  625   1.447   1.137   0.112  0.1060  0.1504 -0.1336
  157SOL    HW1  626   1.509   1.071   0.140  3.8574 -0.7610  2.1420
  157SOL    HW2  627   1.490   1.222   0.101  2.3721 -0.1943 -3.0911
  157SOL     MW  628   1.461   1.140   0.115  0.9000 -0.0153 -0.2236
  158SOL     OW  629   0.472   1.628   2.211  0.7531  0.0345 -0.1538
  158SOL    HW1  630   0.458   1.659   2.123 -1.8379 -0.6463 -1.7760
  158SOL    HW2  631   0.387   1.633   2.256 -0.0306 -0.4841  1.6719
  158SOL     MW  632   0.459   1.633   2.205  0.3079 -0.1238 -0.1269
  159SOL     OW  633   1.256   1.730   0.402  0.2492 -0.2858 -0.1768
  159SOL    HW1  634   1.229   1.649   0.350 -2.6117 -2.6028  0.6415
  159SOL    HW2  635   1.189   1.739   0.475  0.2827 -1.3948  0.4658
  159SOL     MW  636   1.244   1.721   0.405 -0.1239 -0.7378  0.0160
  160SOL     OW  637   0.510   1.156   1.595  0.3844  0.0636 -0.7799
  160SOL    HW1  638   0.516   1.063   1.608  0.3068 -1.8776  1.0176
  160SOL    HW2  639   0.575   1.190   1.664 -0.3542  0.6449  2.1890
  160SOL     MW  640   0.519   1.148   1.606  0.2767 -0.1158 -0.1510
  161SOL     OW  641   0.500   2.182   2.551 -0.2118  0.5678  0.0285
  161SOL    HW1  642   0.420   2.201   2.501 -1.6921  3.0761  1.1012
  161SOL    HW2  643   0.558   2.134   2.489 -1.9670 -1.3339  0.5374
  161SOL     MW  644   0.497   2.178   2.536 -0.6387  0.6478  0.2372
  162SOL     OW  645   1.062   1.769   1.852  0.4998  0.3947 -0.1729
  162SOL    HW1  646   1.078   1.852   1.896 -0.1683  2.2295  2.5490
  162SOL    HW2  647   0.972   1.737   1.892  0.9535  1.2112  0.8296
  162SOL     MW  648   1.052   1.776   1.863  0.4715  0.7445  0.3185
  163SOL     OW  649   2.122   0.050   0.976  0.4460 -0.8074 -0.3675
  163SOL    HW1  650   2.097   0.085   0.888  1.7544  2.8902 -3.1535
  163SOL    HW2  651   2.050  -0.005   1.010  1.5419  1.7414  0.6042
  163SOL     MW  652   2.109   0.047   0.969  0.7632  0.0167 -0.6069
  164SOL     OW  653   0.351   0.201   0.842  0.1602 -0.0610  1.2510
  164SOL    HW1  654   0.264   0.225   0.863 -0.7874 -1.5283  1.5307
  164SOL    HW2  655   0.350   0.119   0.788 -0.6490 -0.8490  0.4003
  164SOL     MW  656   0.340   0.193   0.837 -0.0716 -0.3586  1.1756
  165SOL     OW  657   1.329   1.242   0.363  0.1234 -0.0559 -0.0551
  165SOL    HW1  658   1.282   1.187   0.426 -1.6651  4.3701 -0.9903
  165SOL    HW2  659   1.376   1.188   0.295  0.6974 -0.8538 -0.2098
  165SOL     MW  660   1.329   1.228   0.363 -0.0368  0.4228 -0.1989
  166SOL     OW  661   0.531   1.088   0.986  0.0484  0.1558  0.0781
  166SOL    HW1  662   0.477   1.020   1.033 -1.0738  0.2312  1.9357
  166SOL    HW2  663   0.623   1.065   1.002 -0.3911  2.3727 -0.1885
  166SOL     MW  664   0.536   1.076   0.994 -0.1577  0.4582  0.2880
  167SOL     OW  665   0.802   1.050   0.254 -0.3812 -0.2553  0.2767
  167SOL    HW1  666   0.713   1.061   0.233  2.6333 -0.2939 -1.3330
  167SOL    HW2  667   0.849   1.106   0.185 -0.2474 -2.3851  0.8558
  167SOL     MW  668   0.797   1.059   0.242  0.0342 -0.5414  0.1407
  168SOL     OW  669   1.646   1.670   2.947 -0.2118  0.4265  0.5251
  168SOL    HW1  670   1.558   1.649   2.920 -0.4527 -0.5381 -0.8501
  168SOL    HW2  671   1.701   1.583   2.957  2.0503 -1.5426  1.2398
  168SOL     MW  672   1.642   1.656   2.945  0.0549  0.0394  0.4379
  169SOL     OW  673   0.383   0.928   1.362  0.0665 -0.5015  0.7700
  169SOL    HW1  674   0.437   0.888   1.431  1.0102  2.0216 -0.2796
  169SOL    HW2  675   0.417   1.023   1.354 -2.7534  1.5423  2.2266
  169SOL     MW  676   0.395   0.935   1.370 -0.1810  0.1010  0.8237
  170SOL     OW  677   0.970   1.471   1.492 -0.1604  0.9664  0.7058
  170SOL    HW1  678   0.966   1.569   1.494  1.0446  1.2127  3.4732
  170SOL    HW2  679   1.027   1.448   1.415  2.0263  0.2399 -3.7992
  170SOL     MW  680   0.977   1.481   1.482  0.2871  0.9031  0.4765
  171SOL     OW  681   0.578   1.424   0.675 -0.2347 -0.0961  0.5053
  171SOL    HW1  682   0.529   1.403   0.762 -0.8016  0.6200 -0.7905
  171SOL    HW2  683   0.555   1.355   0.613  1.5037 -1.5346  2.1917
  171SOL     MW  684   0.569   1.412   0.678 -0.0801 -0.1914  0.5568
  172SOL     OW  685   0.843   0.292   1.301  0.3638 -0.5731  0.0162
  172SOL    HW1  686   0.858   0.309   1.207  3.0152  1.0736 -1.0204
  172SOL    HW2  687   0.751   0.313   1.325 -0.9088 -0.8660  1.6817
  172SOL     MW  688   0.833   0.297   1.291  0.5457 -0.3945  0.0992
  173SOL     OW  689   0.444   1.670   0.376 -0.1012  0.5063  0.2081
  173SOL    HW1  690   0.447   1.569   0.363 -1.2441  1.4848  0.6020
  173SOL    HW2  691   0.507   1.682   0.449  1.5194 -1.9995 -1.2291
  173SOL     MW  692   0.453   1.658   0.384 -0.0381  0.3048  0.0705
  174SOL     OW  693   1.879   0.996   1.523 -0.9085  0.2773  0.3675
  174SOL    HW1  694   1.859   0.905   1.540  2.4128  0.0342  1.5496
  174SOL    HW2  695   1.856   1.024   1.433  0.4894  0.4163  3.1381
  174SOL     MW  696   1.874   0.988   1.514 -0.2858  0.2636  0.8890
  175SOL     OW  697   0.478   1.398   0.368  0.2544  0.7606  0.6688
  175SOL    HW1  698   0.449   1.362   0.283 -3.3477 -1.4387 -0.7279
  175SOL    HW2  699   0.581   1.386   0.370  0.3629 -3.3030  0.7146
  175SOL     MW  700   0.487   1.392   0.357 -0.2065 -0.0657  0.4906
  176SOL     OW  701   0.195   1.361   1.227 -0.3538  0.0324  0.2576
  176SOL    HW1  702   0.157   1.322   1.150  4.1354 -0.1559 -1.7229
  176SOL    HW2  703   0.160   1.311   1.296  0.5543  2.9524 -0.2751
  176SOL     MW  704   0.185   1.349   1.226  0.3583  0.3928 -0.0740
  177SOL     OW  705   0.574   0.368   1.340 -0.3171  0.7007  0.1817
  177SOL    HW1  706   0.548   0.437   1.266 -0.9273  1.7602 -0.2269
  177SOL    HW2  707   0.575   0.424   1.420  2.6016  1.2897 -1.4124
  177SOL     MW  708   0.570   0.385   1.340 -0.0125  0.9182 -0.0825
  178SOL     OW  709   3.103   0.410   2.913  0.9733  0.0193  0.3769
  178SOL    HW1  710   3.054   0.426   2.994 -0.8799  1.2540 -1.4689
  178SOL    HW2  711   3.040   0.441   2.849  0.7490 -0.0078  2.0955
  178SOL     MW  712   3.088   0.416   2.915  0.6992  0.1786  0.3601
  179SOL     OW  713   1.583   1.345   1.405  0.0103  0.1443 -0.1878
  179SOL    HW1  714   1.576   1.372   1.496  2.1655  0.2117 -0.1705
  179SOL    HW2  715   1.675   1.352   1.384 -0.1436 -0.7041 -1.5198
  179SOL     MW  716   1.594   1.349   1.415  0.2744  0.0412 -0.3612
  180SOL     OW  717   3.010   0.203   0.475  0.5229  0.5382 -0.1423
  180SOL    HW1  718   2.980   0.159   0.392  1.7688 -2.7930  3.3899
  180SOL    HW2  719   3.075   0.265   0.447 -0.0724 -1.5632  0.2433
  180SOL     MW  720   3.014   0.206   0.460  0.6088 -0.1786  0.3746
  181SOL     OW  721   1.144   1.354   3.061 -0.2872  0.0995  0.5962
  181SOL    HW1  722   1.220   1.401   3.102 -3.2116  2.6995 -0.5494
  181SOL    HW2  723   1.184   1.273   3.023 -1.5857  1.0541  0.2368
  181SOL     MW  724   1.159   1.349   3.061 -0.8444  0.5685  0.3976
  182SOL     OW  725   0.530   0.892   1.665 -0.1475 -0.0714  0.2089
  182SOL    HW1  726   0.448   0.875   1.712 -0.1812 -1.2350  0.6582
  182SOL    HW2  727   0.589   0.835   1.711 -0.9585 -0.0561  1.6048
  182SOL     MW  728   0.527   0.882   1.678 -0.2590 -0.2229  0.4524
  183SOL     OW  729   1.522   1.551   1.217  0.5300 -0.0368 -0.1267
  183SOL    HW1  730   1.430   1.578   1.205 -0.0180  2.9761  1.0247
  183SOL    HW2  731   1.517   1.494   1.300 -0.7704  0.2508  0.7334
  183SOL     MW  732   1.509   1.547   1.226  0.2861  0.3987  0.1387
  184SOL     OW  733   0.898   0.619   1.986  0.2931  0.1454  0.0318
  184SOL    HW1  734   0.968   0.590   1.925  1.9039  0.0504  1.5136
  184SOL    HW2  735   0.855   0.533   2.003 -0.7543 -1.7310  1.8037
  184SOL     MW  736   0.902   0.604   1.980  0.3675 -0.1147  0.4611
  185SOL     OW  737   1.209   0.989   1.930  0.3369  0.5944 -0.2002
  185SOL    HW1  738   1.204   0.902   1.973  2.9252 -0.8453  0.5341
  185SOL    HW2  739   1.248   1.050   1.999 -2.2949  2.4783 -2.4343
  185SOL     MW  740   1.213   0.986   1.945  0.3312  0.6530 -0.3981
  186SOL     OW  741   0.396   1.641   1.454 -0.0404 -0.1432  0.6953
  186SOL    HW1  742   0.417   1.590   1.373  0.6984  3.3499  0.0693
  186SOL    HW2  743   0.308   1.621   1.472  0.9042 -3.2133 -0.6495
  186SOL     MW  744   0.387   1.632   1.445  0.1817 -0.0874  0.4353
  187SOL     OW  745   1.439   0.719   1.434 -0.2054 -0.4159  0.0044
  187SOL    HW1  746   1.436   0.701   1.527  0.9293 -2.5891 -0.1525
  187SOL    HW2  747   1.351   0.722   1.398  1.3412  2.0465  0.7203
  187SOL     MW  748   1.427   0.717   1.441  0.1484 -0.3777  0.0782
  188SOL     OW  749   1.949   1.136   0.835  0.5569  0.0485 -0.4520
  188SOL    HW1  750   1.932   1.144   0.926  0.5568  3.5911 -1.5548
  188SOL    HW2  751   2.016   1.072   0.817 -0.6619 -1.8455 -0.5184
  188SOL     MW  752   1.955   1.129   0.845  0.3961  0.2660 -0.6063
  189SOL     OW  753   0.729   0.799   0.799 -0.0329  0.0584  0.2043
  189SOL    HW1  754   0.641   0.843   0.793 -0.5900 -1.7635 -0.4783
  189SOL    HW2  755   0.779   0.844   0.872  1.7833  0.1833  1.2762
  189SOL     MW  756   0.724   0.811   0.808  0.1332 -0.1655  0.2557
  190SOL     OW  757   1.866   0.237   2.047  0.3671  0.5272  0.6905
  190SOL    HW1  758   1.871   0.153   2.087  1.3812  0.9990 -1.8278
  190SOL    HW2  759   1.955   0.263   2.015  0.3029  2.5805  2.3335
  190SOL     MW  760   1.879   0.230   2.048  0.4924  0.8604  0.5750
  191SOL     OW  761   1.514   0.937   1.222  0.3031 -0.3898  0.1025
  191SOL    HW1  762   1.448   0.979   1.279  0.9296  0.7050 -0.8336
  191SOL    HW2  763   1.534   0.852   1.264 -0.7093 -0.7262  0.0260
  191SOL     MW  764   1.508   0.931   1.235  0.2522 -0.2897 -0.0311
  192SOL     OW  765   0.577   2.057   2.809 -0.3644  0.2931 -0.2460
  192SOL    HW1  766   0.536   2.083   2.729 -2.4656  0.8365 -2.6824
  192SOL    HW2  767   0.607   1.964   2.799  1.0671  0.9731 -0.2610
  192SOL     MW  768   0.575   2.048   2.797 -0.4527  0.4546 -0.5695
  193SOL     OW  769   1.049   1.578   0.776 -0.0966 -0.1337  0.9979
  193SOL    HW1  770   1.049   1.559   0.873 -1.2904 -0.4647 -1.6213
  193SOL    HW2  771   0.981   1.513   0.741  0.5159 -2.1486  1.2489
  193SOL     MW  772   1.040   1.567   0.784 -0.1733 -0.4432  0.6854
  194SOL     OW  773   0.467   1.374   0.912 -0.4574  0.6295 -0.2655
  194SOL    HW1  774   0.488   1.287   0.943 -1.2490  2.2483 -0.9833
  194SOL    HW2  775   0.375   1.384   0.888  0.6177 -3.9543  0.0088
  194SOL     MW  776   0.458   1.364   0.913 -0.4200  0.2383 -0.3240
  195SOL     OW  777   1.272   1.110   2.992  0.1395 -0.4104  0.2701
  195SOL    HW1  778   1.316   1.099   3.073 -1.4240  1.3288 -3.0995
  195SOL    HW2  779   1.188   1.058   3.010 -0.1225 -2.7874  1.4350
  195SOL     MW  780   1.267   1.102   3.005 -0.1013 -0.4946 -0.0208
  196SOL     OW  781   2.172   1.054   0.627  0.0295 -0.2223 -0.3191
  196SOL    HW1  782   2.125   1.033   0.546 -1.5900 -2.7612  0.4521
  196SOL    HW2  783   2.174   1.152   0.633 -0.1648 -0.1216  3.3073
  196SOL     MW  784   2.166   1.064   0.617 -0.2098 -0.5440  0.2611
  197SOL     OW  785   0.682   1.254   2.037 -0.4451 -0.0385  0.7450
  197SOL    HW1  786   0.696   1.159   2.023  0.3876 -3.2134  0.1861
  197SOL    HW2  787   0.623   1.282   1.968  0.4763 -0.1092 -0.6703
  197SOL     MW  788   0.676   1.245   2.026 -0.2137 -0.4668  0.4845
  198SOL     OW  789   2.979   1.388   1.067  0.2985 -1.0229 -0.0265
  198SOL    HW1  790   2.960   1.478   1.060 -1.2968 -2.5022 -0.0193
  198SOL    HW2  791   2.889   1.348   1.063 -0.8581 -0.0509 -0.5149
  198SOL     MW  792   2.964   1.394   1.066 -0.0646 -1.0898 -0.0900
  199SOL     OW  793   0.522   1.345   1.825 -0.0485  0.3477  0.6656
  199SOL    HW1  794   0.439   1.310   1.791  1.0797 -2.5822 -0.3398
  199SOL    HW2  795   0.548   1.417   1.763  1.2656 -0.5201  0.6640
  199SOL     MW  796   0.515   1.350   1.812  0.2737 -0.1534  0.5327
  200SOL     OW  797   1.879   0.002   1.341  0.1692  0.3089  0.1777
  200SOL    HW1  798   1.873   0.005   1.242 -2.7520  0.9848 -2.8725
  200SOL    HW2  799   1.793   0.019   1.372 -0.2296  1.0287 -0.0325
  200SOL     MW  800   1.867   0.005   1.332 -0.2688  0.4931 -0.2525
  201SOL     OW  801   0.961   0.228   0.818 -0.1826 -0.3360 -0.0595
  201SOL    HW1  802   0.942   0.145   0.774 -0.0569  0.0209  0.0537
  201SOL    HW2  803   1.027   0.269   0.750 -0.7698  0.5804  0.3203
  201SOL     MW  804   0.967   0.222   0.803 -0.2435 -0.1680  0.0056
  202SOL     OW  805   1.519   1.612   0.952 -0.5209 -0.8585 -0.0426
  202SOL    HW1  806   1.535   1.534   0.903  2.1493  0.1890 -0.7312
  202SOL    HW2  807   1.551   1.596   1.044  0.6582  2.4464  1.1677
  202SOL     MW  808   1.525   1.599   0.958 -0.0130 -0.2842  0.0262
  203SOL     OW  809   3.090   0.457   1.163  0.4044 -0.4594 -0.1457
  203SOL    HW1  810   3.165   0.453   1.107 -1.7500  2.7824  0.1285
  203SOL    HW2  811   3.126   0.502   1.244 -1.6262  1.4240 -0.5472
  203SOL     MW  812   3.104   0.463   1.166 -0.1477  0.2168 -0.1625
  204SOL     OW  813   1.044   1.804   0.586 -0.0858 -0.0378  0.1776
  204SOL    HW1  814   1.030   1.726   0.645  0.8644 -4.2135 -0.8535
  204SOL    HW2  815   0.960   1.805   0.534 -1.0097  3.3384 -0.4600
  204SOL     MW  816   1.031   1.794   0.587 -0.0823 -0.1433 -0.0426
  205SOL     OW  817   1.342   0.108   1.346 -0.0326 -0.3089  0.1490
  205SOL    HW1  818   1.280   0.077   1.282 -1.5343  1.5433  1.6020
  205SOL    HW2  819   1.348   0.208   1.330  0.3981 -1.2339 -0.7489
  205SOL     MW  820   1.335   0.117   1.336 -0.1739 -0.1865  0.2222
  206SOL     OW  821   0.424   3.040   1.402  0.0915 -0.5818  0.2925
  206SOL    HW1  822   0.362   3.016   1.334  1.2426 -0.3098 -2.9664
  206SOL    HW2  823   0.494   2.966   1.394 -1.4526  2.4607  1.8678
  206SOL     MW  824   0.425   3.027   1.392  0.0397 -0.1445  0.0704
  207SOL     OW  825   0.953   1.506   0.210 -0.6147 -0.4464 -0.2660
  207SOL    HW1  826   0.963   1.601   0.200 -2.1207  0.9833 -0.5922
  207SOL    HW2  827   1.039   1.478   0.229 -0.1551  0.5944  1.9410
  207SOL     MW  828   0.965   1.515   0.211 -0.7528 -0.1205 -0.0179
  208SOL     OW  829   0.690   1.627   1.317  0.3844 -0.0245 -0.2891
  208SOL    HW1  830   0.767   1.656   1.363 -0.9508  0.5942  0.9857
  208SOL    HW2  831   0.699   1.533   1.309  1.1984  1.2932  1.6808
  208SOL     MW  832   0.701   1.618   1.322  0.3156  0.2310  0.1390
  209SOL     OW  833   1.580   0.522   2.902 -0.0346 -0.1843  0.7428
  209SOL    HW1  834   1.626   0.580   2.958 -2.0776  1.2711 -1.4494
  209SOL    HW2  835   1.639   0.445   2.880 -1.6622  2.4477  0.6403
  209SOL     MW  836   1.594   0.520   2.906 -0.5189  0.3550  0.4401
  210SOL     OW  837   1.588   1.384   0.821  0.1088 -0.3916 -0.3963
  210SOL    HW1  838   1.682   1.371   0.799  1.2627 -0.0279 -0.4008
  210SOL    HW2  839   1.534   1.342   0.751 -2.0491 -0.5755 -1.4127
  210SOL     MW  840   1.593   1.376   0.809 -0.0236 -0.3679 -0.5310
  211SOL     OW  841   1.640   0.388   0.971 -0.0544 -0.2883 -0.2660
  211SOL    HW1  842   1.600   0.381   0.882  0.9336  0.1016  1.6202
  211SOL    HW2  843   1.729   0.378   0.948 -0.7809 -1.9453  1.4152
  211SOL     MW  844   1.647   0.386   0.956 -0.0199 -0.4555  0.2046
  212SOL     OW  845   0.197   1.102   0.084 -0.3564 -0.4777 -0.3553
  212SOL    HW1  846   0.133   1.096   0.159 -0.1617 -2.5915 -0.2168
  212SOL    HW2  847   0.197   1.011   0.054  1.0253 -0.5730  0.3728
  212SOL     MW  848   0.189   1.089   0.090 -0.1484 -0.7692 -0.2409
  213SOL     OW  849   0.435   1.690   3.033  0.7781 -0.4571  0.3986
  213SOL    HW1  850   0.465   1.749   3.103 -1.5661 -1.2541  0.3570
  213SOL    HW2  851   0.472   1.722   2.944  1.1884 -0.3344 -2.1196
  213SOL     MW  852   0.444   1.702   3.030  0.5229 -0.5461  0.0609
  214SOL     OW  853   0.599   0.288   2.221 -0.4672  0.0245  0.4688
  214SOL    HW1  854   0.541   0.366   2.212 -1.7970  2.7976 -0.6888
  214SOL    HW2  855   0.665   0.290   2.147  0.2650 -1.1100 -3.3553
  214SOL     MW  856   0.600   0.298   2.210 -0.5460  0.2407 -0.1885
  215SOL     OW  857   0.511   0.667   2.671  0.0903  0.6880  0.0432
  215SOL    HW1  858   0.505   0.660   2.577  0.8721  0.8913 -1.7986
  215SOL    HW2  859   0.438   0.617   2.711  0.9634 -0.8516  3.5567
  215SOL     MW  860   0.500   0.660   2.664  0.3086  0.5117  0.2638
  216SOL     OW  861   2.968   3.074   2.645 -0.7797 -0.2166 -0.1917
  216SOL    HW1  862   2.949   3.059   2.739 -1.8262  1.4346  1.8066
  216SOL    HW2  863   2.935   3.169   2.635 -2.5978  3.3295  0.9766
  216SOL     MW  864   2.961   3.085   2.656 -1.1577  0.4691  0.2261
  217SOL     OW  865   0.908   1.218   0.034  0.0963 -0.3331 -0.2325
  217SOL    HW1  866   0.944   1.143  -0.008  3.3421  1.9666  0.1545
  217SOL    HW2  867   0.980   1.280   0.029  0.2553  0.6028  4.0687
  217SOL     MW  868   0.923   1.216   0.028  0.5455  0.0938  0.3860
  218SOL     OW  869   0.904   1.320   2.541  0.2371  0.4336 -0.3106
  218SOL    HW1  870   0.916   1.236   2.584  0.1082  1.8010  1.0044
  218SOL    HW2  871   0.985   1.363   2.558 -0.2575 -2.5379 -0.8531
  218SOL     MW  872   0.916   1.314   2.549  0.1549  0.2219 -0.2086
  219SOL     OW  873   1.092   0.485   2.604  0.1666 -0.3715  0.7793
  219SOL    HW1  874   1.177   0.528   2.616  0.5044  0.6229 -4.1072
  219SOL    HW2  875   1.021   0.554   2.603  0.4135  0.6883 -3.4834
  219SOL     MW  876   1.094   0.500   2.606  0.2437 -0.1005 -0.4279
  220SOL     OW  877   1.789   0.453   2.223 -0.4239  0.0263  0.3189
  220SOL    HW1  878   1.719   0.480   2.162  1.0293  4.7146  1.2933
  220SOL    HW2  879   1.839   0.384   2.181 -0.0130 -3.3556  1.4185
  220SOL     MW  880   1.787   0.447   2.210 -0.1780  0.1986  0.5925
  221SOL     OW  881   0.364   1.346   2.901 -0.6901 -0.1692  0.2685
  221SOL    HW1  882   0.387   1.248   2.890  0.7814 -1.4759 -1.2953
  221SOL    HW2  883   0.415   1.389   2.831  1.1715 -3.4883 -1.4834
  221SOL     MW  884   0.374   1.339   2.890 -0.2503 -0.7795 -0.1690
  222SOL     OW  885   0.355   0.915   2.668  0.9604  0.1400 -0.0649
  222SOL    HW1  886   0.342   0.942   2.579  0.5343 -0.8788  1.9934
  222SOL    HW2  887   0.418   0.844   2.664  3.4784  4.4299 -1.3407
  222SOL     MW  888   0.362   0.909   2.656  1.2364  0.5716  0.0383
  223SOL     OW  889   0.020   2.074   2.617 -0.5052  0.3179 -0.3461
  223SOL    HW1  890   0.072   1.997   2.655  1.6543 -0.0288 -0.6987
  223SOL    HW2  891   0.095   2.112   2.571 -1.4590  1.7184 -0.4438
  223SOL     MW  892   0.037   2.069   2.616 -0.3461  0.4569 -0.4055
  224SOL     OW  893   1.529   0.817   2.613  0.3314  0.0277 -0.4615
  224SOL    HW1  894   1.532   0.876   2.693  0.1677 -1.3358  1.4866
  224SOL    HW2  895   1.523   0.872   2.537  2.5166  1.6827 -2.1132
  224SOL     MW  896   1.529   0.832   2.613  0.5981  0.0662 -0.4224
  225SOL     OW  897   2.960   1.503   2.307 -0.8584 -0.0850 -0.2686
  225SOL    HW1  898   3.008   1.570   2.258  1.3279  0.6816  1.7397
  225SOL    HW2  899   2.918   1.558   2.375  2.6533  0.9336 -1.1191
  225SOL     MW  900   2.961   1.519   2.310 -0.1066  0.1505 -0.1158
  226SOL     OW  901   0.469   1.425   2.646 -0.2884  0.3126  0.8515
  226SOL    HW1  902   0.558   1.433   2.615  2.5794  0.0190  1.4401
  226SOL    HW2  903   0.430   1.511   2.639 -0.4606 -1.6001 -0.0527
  226SOL     MW  904   0.475   1.437   2.641  0.0672  0.0215  0.8099
  227SOL     OW  905   0.416   1.090   2.871  0.0492  0.1932  0.4051
  227SOL    HW1  906   0.513   1.109   2.843  0.6601 -0.1376 -1.9870
  227SOL    HW2  907   0.396   1.023   2.812  0.5016  0.5561 -0.4561
  227SOL     MW  908   0.426   1.084   2.859  0.1895  0.1974 -0.0241
  228SOL     OW  909   0.737   0.981   2.047 -0.1478 -0.0611 -0.1612
  228SOL    HW1  910   0.829   0.985   2.016 -3.8319 -0.1432  1.3223
  228SOL    HW2  911   0.742   0.921   2.123  1.0218  0.2086  0.9023
  228SOL     MW  912   0.749   0.973   2.053 -0.4796 -0.0364  0.1748
  229SOL     OW  913   0.150   0.582   0.033  0.2305  0.2713  0.2274
  229SOL    HW1  914   0.097   0.558  -0.042  0.8659  2.4056 -2.4799
  229SOL    HW2  915   0.164   0.502   0.085  1.8977  2.0532  1.6144
  229SOL     MW  916   0.145   0.568   0.030  0.5343  0.7880  0.0532
  230SOL     OW  917   1.771   1.378   2.021 -0.0530 -0.2504 -0.0570
  230SOL    HW1  918   1.733   1.375   2.107  4.1089 -0.8250  0.8466
  230SOL    HW2  919   1.832   1.305   2.009  0.6904  0.3783  0.1242
  230SOL     MW  920   1.774   1.368   2.030  0.5942 -0.2432  0.0861
  231SOL     OW  921   2.770   1.326   2.219  0.7412 -0.1662 -0.7719
  231SOL    HW1  922   2.841   1.387   2.240  1.1119 -3.9524 -1.1647
  231SOL    HW2  923   2.712   1.359   2.146 -3.3174  1.2354  0.5452
  231SOL     MW  924   2.772   1.338   2.212  0.2546 -0.4808 -0.6500
  232SOL     OW  925   2.236   0.808   2.117 -0.4562  0.0233 -0.4029
  232SOL    HW1  926   2.189   0.863   2.054  1.5684 -1.4107  2.1095
  232SOL    HW2  927   2.212   0.839   2.205  0.3308  0.1306 -1.0310
  232SOL     MW  928   2.226   0.820   2.120 -0.0852 -0.1517 -0.1543
  233SOL     OW  929   2.049   0.473   1.949 -0.3011 -0.4998 -0.1668
  233SOL    HW1  930   2.112   0.410   1.917 -0.0791  2.4360  0.6252
  233SOL    HW2  931   2.083   0.478   2.039  0.9259 -2.0394 -1.9264
  233SOL     MW  932   2.062   0.466   1.957 -0.1099 -0.3156 -0.2945
  234SOL     OW  933   0.278   1.008   2.421  0.2449  0.0756  0.9579
  234SOL    HW1  934   0.188   1.040   2.405 -1.0174  1.4236  0.7430
  234SOL    HW2  935   0.327   1.093   2.433  0.6108 -0.5957 -0.7458
  234SOL     MW  936   0.273   1.023   2.421  0.1266  0.1649  0.7048
  235SOL     OW  937   1.151   3.061   2.722 -0.0570 -0.6898 -0.2257
  235SOL    HW1  938   1.163   3.004   2.805 -1.4382 -0.1418  2.1078
  235SOL    HW2  939   1.118   3.145   2.761  0.7367  0.7194 -1.4765
  235SOL     MW  940   1.148   3.064   2.738 -0.1345 -0.4316 -0.0828
  236SOL     OW  941   2.946   0.523   3.099 -0.2143  0.0853  0.0774
  236SOL    HW1  942   2.847   0.507   3.091 -0.1273  1.6193 -0.6431
  236SOL    HW2  943   2.955   0.612   3.128  0.6740  0.4277 -0.7402
  236SOL     MW  944   2.934   0.532   3.101 -0.0856  0.3329 -0.1255
  237SOL     OW  945   1.931   1.052   2.209  0.3245  1.0224  0.3951
  237SOL    HW1  946   1.983   1.057   2.130 -1.5081 -1.5621  2.0755
  237SOL    HW2  947   1.870   1.125   2.215 -0.2722 -1.0872  2.2694
  237SOL     MW  948   1.929   1.062   2.199  0.0040  0.4031  0.8641
  238SOL     OW  949   1.091   1.784   3.001 -0.2007 -0.0726 -0.4956
  238SOL    HW1  950   1.054   1.694   2.992 -1.3136  0.7762 -0.4639
  238SOL    HW2  951   1.184   1.759   3.012  1.9743  1.9952 -0.7272
  238SOL     MW  952   1.098   1.769   3.001 -0.0606  0.3122 -0.5220
  239SOL     OW  953   1.260   1.372   2.362 -0.3240  0.3876 -0.4233
  239SOL    HW1  954   1.209   1.425   2.433  1.2858  0.6626  2.4943
  239SOL    HW2  955   1.264   1.283   2.414  0.1467 -3.6302  1.2904
  239SOL     MW  956   1.254   1.367   2.378 -0.0495 -0.1062  0.1877
  240SOL     OW  957   0.729   0.803   2.265  0.2888  0.2807  0.1555
  240SOL    HW1  958   0.726   0.864   2.338  0.2114  0.2992 -1.1329
  240SOL    HW2  959   0.823   0.771   2.267 -0.6171 -0.9388 -0.5887
  240SOL     MW  960   0.741   0.807   2.275  0.1591  0.1223 -0.1127
  241SOL     OW  961   0.650   0.381   0.006 -0.4133  0.8137 -0.7377
  241SOL    HW1  962   0.698   0.453   0.049 -1.8938 -0.5543  0.4937
  241SOL    HW2  963   0.556   0.408   0.009 -1.1565 -0.5221  1.7299
  241SOL     MW  964   0.644   0.394   0.012 -0.7067  0.4570 -0.2497
  242SOL     OW  965   1.484   1.689   2.347  0.3176 -0.3022  0.9208
  242SOL    HW1  966   1.459   1.786   2.355 -0.7256  2.4436 -0.8488
  242SOL    HW2  967   1.426   1.658   2.271 -0.4445  1.0876  0.3779
  242SOL     MW  968   1.473   1.698   2.338  0.0794  0.2435  0.6157
  243SOL     OW  969   1.032   0.247   2.445 -0.1354 -0.0002  0.5690
  243SOL    HW1  970   1.119   0.220   2.412  1.4192 -0.0794 -0.8588
  243SOL    HW2  971   1.042   0.315   2.512 -0.3244  0.9734  0.3956
  243SOL     MW  972   1.045   0.252   2.450  0.0448  0.1178  0.3577
  244SOL     OW  973   0.245   0.735   2.357 -0.1100  0.0890 -0.6594
  244SOL    HW1  974   0.266   0.828   2.372  1.7737 -0.0250  1.2008
  244SOL    HW2  975   0.325   0.690   2.364  0.3274  0.6257  0.7326
  244SOL     MW  976   0.258   0.742   2.360  0.1963  0.1448 -0.2303
  245SOL     OW  977   1.284   0.239   2.322 -0.2174 -0.2138 -0.0803
  245SOL    HW1  978   1.341   0.165   2.337  0.5500 -2.3437  0.7615
  245SOL    HW2  979   1.326   0.313   2.363 -0.0647  2.2192 -0.3220
  245SOL     MW  980   1.297   0.239   2.330 -0.0960 -0.1738 -0.0011
  246SOL     OW  981   1.178   1.236   2.133  0.4780 -0.1259  0.4666
  246SOL    HW1  982   1.122   1.164   2.171 -1.4120 -0.5057  2.1305
  246SOL    HW2  983   1.231   1.266   2.207 -2.1648 -1.5736 -0.0800
  246SOL     MW  984   1.178   1.231   2.148 -0.1201 -0.3670  0.6140
  247SOL     OW  985   0.774   0.592   0.123 -0.0998 -0.3560  0.4111
  247SOL    HW1  986   0.727   0.663   0.077 -0.9401 -1.1799  1.2209
  247SOL    HW2  987   0.867   0.580   0.100  1.9371  1.5424 -0.2763
  247SOL     MW  988   0.780   0.600   0.114  0.0581 -0.2143  0.4272
  248SOL     OW  989   0.477   1.208   2.431  0.1122  0.0183  0.4105
  248SOL    HW1  990   0.467   1.254   2.343  0.4461 -2.3041  0.2366
  248SOL    HW2  991   0.475   1.279   2.495 -1.5002 -0.1433  1.6667
  248SOL     MW  992   0.475   1.223   2.428 -0.0565 -0.3094  0.5533
  249SOL     OW  993   0.138   1.841   2.708  0.2681  0.0501  0.4842
  249SOL    HW1  994   0.103   1.756   2.663  2.6396 -0.9073 -0.6327
  249SOL    HW2  995   0.143   1.821   2.805  0.7517 -1.7617  3.1542
  249SOL     MW  996   0.134   1.827   2.715  0.6448 -0.3153  0.6891
  250SOL     OW  997   2.183   0.860   2.402 -0.4742  0.2277 -0.4918
  250SOL    HW1  998   2.251   0.787   2.410  1.6203 -0.2732 -2.0543
  250SOL    HW2  999   2.220   0.929   2.461  0.9174  1.7555 -3.0105
  250SOL     MW 1000   2.197   0.859   2.411 -0.0143  0.3632 -1.0303
  251SOL     OW 1001   0.154   0.946   2.045 -0.1771 -0.1816 -0.3618
  251SOL    HW1 1002   0.113   0.889   2.106 -2.9316 -0.2573 -0.1482
  251SOL    HW2 1003   0.179   0.886   1.967 -2.0343 -4.2184  0.4654
  251SOL     MW 1004   0.152   0.930   2.043 -0.7856 -0.7242 -0.2245
  252SOL     OW 1005   1.697   0.992   2.886  0.6141 -0.2132 -0.4382
  252SOL    HW1 1006   1.690   1.081   2.927  1.5251  0.6896 -2.4244
  252SOL    HW2 1007   1.751   1.001   2.805  1.6497 -0.1777 -0.4450
  252SOL     MW 1008   1.703   1.005   2.881  0.8709 -0.0894 -0.7012
  253SOL     OW 1009   1.199   1.773   2.560  0.8472 -0.3327  0.1494
  253SOL    HW1 1010   1.173   1.781   2.467 -3.2693 -0.8471 -0.4015
  253SOL    HW2 1011   1.130   1.818   2.598  3.8653  1.3615 -1.0789
  253SOL     MW 1012   1.187   1.780   2.553  0.7023 -0.1771 -0.0853
  254SOL     OW 1013   1.022   1.037   2.276  0.0813 -0.2672  0.0909
  254SOL    HW1 1014   1.006   0.943   2.259 -0.3812  0.9856  0.4288
  254SOL    HW2 1015   0.940   1.092   2.268  1.4394 -3.1051 -0.2815
  254SOL     MW 1016   1.009   1.032   2.273  0.1995 -0.4764  0.0864
  255SOL     OW 1017   0.820   2.544   2.215 -0.7116  0.1389  0.5263
  255SOL    HW1 1018   0.755   2.475   2.235  1.6500 -1.9296  3.7019
  255SOL    HW2 1019   0.903   2.525   2.259  1.0634 -0.5770 -0.1094
  255SOL     MW 1020   0.822   2.532   2.224 -0.1658 -0.2285  0.8614
  256SOL     OW 1021   1.225   2.787   2.832  0.2915 -0.7372  0.0065
  256SOL    HW1 1022   1.231   2.734   2.754 -2.9327  0.5605  2.0661
  256SOL    HW2 1023   1.318   2.816   2.823  1.6954 -2.3553  1.2970
  256SOL     MW 1024   1.238   2.784   2.821  0.0513 -0.7795  0.4485
  257SOL     OW 1025   0.118   1.937   0.099 -0.1127  0.1356 -0.0054
  257SOL    HW1 1026   0.172   1.908   0.171 -0.0477  0.5321 -2.1122
  257SOL    HW2 1027   0.148   1.879   0.025  0.7794 -1.8388  1.0964
  257SOL     MW 1028   0.129   1.925   0.099  0.0136 -0.0726 -0.1380
  258SOL     OW 1029   0.703   1.018   2.467 -0.5638 -0.0172  0.1389
  258SOL    HW1 1030   0.735   1.076   2.402 -1.8146 -1.0449  1.7907
  258SOL    HW2 1031   0.679   1.077   2.531  0.1469 -0.7546  0.8958
  258SOL     MW 1032   0.704   1.033   2.467 -0.6351 -0.2501  0.4567
  259SOL     OW 1033   0.755   0.478   2.368  0.5035 -0.4245  0.6257
  259SOL    HW1 1034   0.680   0.537   2.378  1.8687 -1.0606  0.4375
  259SOL    HW2 1035   0.710   0.396   2.348  0.7772  0.6717 -0.7995
  259SOL     MW 1036   0.739   0.475   2.366  0.7198 -0.3638  0.4129
  260SOL     OW 1037   0.543   0.130   1.603 -0.9891 -0.0930  0.4198
  260SOL    HW1 1038   0.492   0.087   1.534  1.3671 -0.5305 -0.2557
  260SOL    HW2 1039   0.637   0.135   1.568 -0.2538  0.9118  1.2743
  260SOL     MW 1040   0.549   0.125   1.589 -0.5812 -0.0182  0.4434
  261SOL     OW 1041   1.283   0.733   2.016  0.5777  0.2285  0.1259
  261SOL    HW1 1042   1.304   0.750   2.108 -1.3706 -0.5531 -0.4208
  261SOL    HW2 1043   1.335   0.653   2.000  0.6600  2.2782  0.2836
  261SOL     MW 1044   1.293   0.725   2.026  0.3315  0.3958  0.0746
  262SOL     OW 1045   1.110   0.297   0.149 -0.0128  0.6094 -0.0448
  262SOL    HW1 1046   1.200   0.282   0.121 -1.2890  0.2388 -0.4900
  262SOL    HW2 1047   1.058   0.249   0.091 -0.0704  1.6500  1.4261
  262SOL     MW 1048   1.115   0.289   0.138 -0.1888  0.6978  0.0906
  263SOL     OW 1049   0.437   3.045   2.536 -0.2764  0.9693 -0.7603
  263SOL    HW1 1050   0.361   3.102   2.524 -0.8586 -1.1108  0.7920
  263SOL    HW2 1051   0.491   3.062   2.460  0.6188  0.2236  1.0472
  263SOL     MW 1052   0.434   3.055   2.525 -0.2351  0.5965 -0.3170
  264SOL     OW 1053   1.525   1.280   1.941  0.0130 -0.4503 -0.3234
  264SOL    HW1 1054   1.478   1.271   2.022  2.0104 -2.6478 -1.4174
  264SOL    HW2 1055   1.612   1.316   1.964 -1.9310 -0.3801  1.3640
  264SOL     MW 1056   1.530   1.284   1.954  0.0201 -0.7309 -0.2451
  265SOL     OW 1057   0.668   2.794   2.265 -0.2428  0.3007  0.5134
  265SOL    HW1 1058   0.730   2.723   2.237  1.5303 -0.5886 -1.1022
  265SOL    HW2 1059   0.700   2.800   2.356 -2.2015  0.3916 -2.2746
  265SOL     MW 1060   0.680   2.785   2.274 -0.2673  0.1954 -0.0676
  266SOL     OW 1061   1.019   0.751   2.213 -0.0550 -0.6371  0.2111
  266SOL    HW1 1062   1.007   0.674   2.154  1.8469  1.4381 -1.1744
  266SOL    HW2 1063   1.112   0.746   2.224  0.9163 -2.5825  2.0192
  266SOL     MW 1064   1.029   0.740   2.207  0.3241 -0.6199  0.2668
  267SOL     OW 1065   1.368   1.677   2.741 -0.1249  0.4701  0.5239
  267SOL    HW1 1066   1.453   1.649   2.699  0.4638 -0.0278  2.3116
  267SOL    HW2 1067   1.314   1.714   2.665  0.0200  2.5745  1.2231
  267SOL     MW 1068   1.372   1.678   2.726 -0.0281  0.6820  0.8520
  268SOL     OW 1069   0.279   0.829   1.755  0.1845  0.1694 -0.3705
  268SOL    HW1 1070   0.217   0.885   1.701 -1.4292  0.9255  0.1473
  268SOL    HW2 1071   0.260   0.736   1.731  0.0582 -0.1354 -0.3687
  268SOL     MW 1072   0.268   0.824   1.744 -0.0451  0.2289 -0.3019
  269SOL     OW 1073   1.403   1.944   2.358  0.0726  0.1378 -0.2374
  269SOL    HW1 1074   1.450   2.027   2.348 -2.2364  2.5139  1.1539
  269SOL    HW2 1075   1.354   1.956   2.437 -1.2647  1.0365  2.3177
  269SOL     MW 1076   1.402   1.956   2.367 -0.4085  0.5699  0.2833
  270SOL     OW 1077   1.186   0.374   1.589 -0.3327 -0.2277 -0.1740
  270SOL    HW1 1078   1.125   0.313   1.635  2.3349  0.1662  2.2675
  270SOL    HW2 1079   1.276   0.348   1.599 -2.1667  1.1207  0.1839
  270SOL     MW 1080   1.190   0.363   1.596 -0.2227  0.0022  0.1954
  271SOL     OW 1081   0.895   0.003   2.494  0.0747  0.3913  0.0881
  271SOL    HW1 1082   0.941  -0.017   2.574 -1.7718  2.6375 -1.3809
  271SOL    HW2 1083   0.954   0.075   2.460 -0.4919 -2.9624  1.4217
  271SOL     MW 1084   0.909   0.009   2.500 -0.2437  0.2452  0.0702
  272SOL     OW 1085   1.464   2.890   2.786  0.3160  0.6368 -0.0664
  272SOL    HW1 1086   1.461   2.932   2.702 -0.6755 -0.5956  1.4047
  272SOL    HW2 1087   1.517   2.942   2.845 -1.3441 -1.8055 -2.1770
  272SOL     MW 1088   1.471   2.902   2.783 -0.0339  0.1519 -0.1508
  273SOL     OW 1089   1.440   0.915   2.851 -0.1484  0.9768 -0.1435
  273SOL    HW1 1090   1.522   0.944   2.888 -1.5947  0.0641 -1.4489
  273SOL    HW2 1091   1.375   0.973   2.894 -2.0414  0.2440  1.1643
  273SOL     MW 1092   1.442   0.927   2.862 -0.5890  0.7597 -0.1432
  274SOL     OW 1093   1.437   0.750   0.195  0.8486 -0.3873 -0.4218
  274SOL    HW1 1094   1.474   0.667   0.219 -0.1900  1.5831 -1.1570
  274SOL    HW2 1095   1.339   0.742   0.214 -0.2559 -0.4335  1.0021
  274SOL     MW 1096   1.429   0.738   0.200  0.5658 -0.1334 -0.3309
  275SOL     OW 1097   1.696   0.630   1.810  0.1805 -0.0021  0.4709
  275SOL    HW1 1098   1.755   0.683   1.864  1.8755 -0.0688  3.8035
  275SOL    HW2 1099   1.719   0.536   1.826 -0.7449 -0.4008  1.2724
  275SOL     MW 1100   1.707   0.625   1.819  0.2820 -0.0635  1.0164
  276SOL     OW 1101   0.285   1.222   1.815 -0.4138 -0.4683  0.4934
  276SOL    HW1 1102   0.327   1.172   1.888 -1.5064  1.1443  0.7348
  276SOL    HW2 1103   0.200   1.221   1.848  0.4367 -0.3833 -0.4775
  276SOL     MW 1104   0.280   1.215   1.829 -0.4457 -0.2443  0.3972
  277SOL     OW 1105   1.867   1.281   2.464 -0.2432  0.0856 -0.6476
  277SOL    HW1 1106   1.940   1.349   2.474  0.4670 -1.8320 -0.4768
  277SOL    HW2 1107   1.898   1.201   2.511  0.0505 -1.6743 -2.5572
  277SOL     MW 1108   1.881   1.279   2.472 -0.1108 -0.3996 -0.8770
  278SOL     OW 1109   1.440   0.619   1.699  0.0527 -0.1124 -0.0164
  278SOL    HW1 1110   1.401   0.575   1.778  0.4094 -1.8240  0.5257
  278SOL    HW2 1111   1.523   0.635   1.737  0.2878 -2.8150 -0.9659
  278SOL     MW 1112   1.446   0.615   1.714  0.1308 -0.6948 -0.0702
  279SOL     OW 1113   0.529   0.034   2.261 -0.3136 -0.3234  0.1819
  279SOL    HW1 1114   0.618   0.002   2.239  3.6666  2.3917  3.5302
  279SOL    HW2 1115   0.531   0.126   2.234 -2.7980  0.6274 -1.0021
  279SOL     MW 1116   0.541   0.042   2.254 -0.1162  0.1602  0.4674
  280SOL     OW 1117   1.486   1.061   2.168 -0.3919 -0.3969 -0.1660
  280SOL    HW1 1118   1.542   0.992   2.133  0.1921 -0.2298 -1.3279
  280SOL    HW2 1119   1.471   1.026   2.261 -0.7738 -2.2427 -0.1955
  280SOL     MW 1120   1.491   1.047   2.176 -0.3652 -0.6184 -0.3232
  281SOL     OW 1121   1.283   1.287   2.721 -0.1128  0.4450 -0.0164
  281SOL    HW1 1122   1.370   1.324   2.739 -2.2233 -1.8211 -3.2004
  281SOL    HW2 1123   1.268   1.227   2.792  1.8922  0.4193  0.4050
  281SOL     MW 1124   1.293   1.284   2.733 -0.1267  0.1426 -0.3809
  282SOL     OW 1125   1.145   1.282   1.653  0.2634 -0.3386 -0.0871
  282SOL    HW1 1126   1.072   1.332   1.629  3.1954 -1.3057 -3.0047
  282SOL    HW2 1127   1.137   1.276   1.750  0.9427  0.3357  0.0878
  282SOL     MW 1128   1.134   1.288   1.663  0.7399 -0.3772 -0.4489
  283SOL     OW 1129   0.679   1.290   3.032  1.1520 -0.0321 -0.7114
  283SOL    HW1 1130   0.766   1.273   3.076  0.4182 -2.0384  0.9899
  283SOL    HW2 1131   0.668   1.393   3.030  0.0491  2.3861 -0.9845
  283SOL     MW 1132   0.689   1.301   3.037  0.9097  0.0223 -0.5230
  284SOL     OW 1133   0.528   0.654   2.379 -0.6104 -0.5650  0.6296
  284SOL    HW1 1134   0.599   0.714   2.351  0.0221  0.3015 -0.3295
  284SOL    HW2 1135   0.493   0.604   2.300 -1.5417 -0.5403 -1.7926
  284SOL     MW 1136   0.533   0.656   2.365 -0.6498 -0.4474  0.1835
  285SOL     OW 1137   0.848   0.930   2.823 -0.0236 -0.4624 -0.4514
  285SOL    HW1 1138   0.903   0.953   2.742 -0.2075 -0.5963 -1.7790
  285SOL    HW2 1139   0.815   0.842   2.808 -0.0464 -0.7848  1.5593
  285SOL     MW 1140   0.851   0.921   2.810 -0.0509 -0.5226 -0.3613
  286SOL     OW 1141   1.154   1.493   2.573  0.7416  0.0625 -0.2402
  286SOL    HW1 1142   1.197   1.469   2.656 -1.1204  1.5322 -0.2771
  286SOL    HW2 1143   1.163   1.587   2.562  2.0341  0.2948  1.1206
  286SOL     MW 1144   1.161   1.503   2.582  0.6665  0.2870 -0.0655
  287SOL     OW 1145   1.064   0.950   0.281  0.4054  0.3211 -0.0212
  287SOL    HW1 1146   1.082   0.988   0.369 -1.3707  0.1002 -1.6647
  287SOL    HW2 1147   0.970   0.961   0.270  1.1430  0.7459  1.3075
  287SOL     MW 1148   1.054   0.957   0.291  0.2684  0.3480 -0.0627
  288SOL     OW 1149   1.583   0.622   2.117 -0.8000 -0.8169  0.0119
  288SOL    HW1 1150   1.583   0.648   2.209  0.3464  0.5145 -1.0041
  288SOL    HW2 1151   1.625   0.694   2.065  0.7447  0.8350  0.6436
  288SOL     MW 1152   1.589   0.635   2.122 -0.4450 -0.4233 -0.0388
  289SOL     OW 1153   0.938   1.022   2.583 -0.0891  0.2424 -0.1920
  289SOL    HW1 1154   0.989   0.963   2.522 -1.6457 -1.1750  1.2744
  289SOL    HW2 1155   0.847   1.010   2.547 -1.8087  2.5936 -1.8910
  289SOL     MW 1156   0.933   1.012   2.570 -0.5214  0.3656 -0.2227
  290SOL     OW 1157   0.902   0.561   1.573  0.3228  0.5262 -0.1769
  290SOL    HW1 1158   0.947   0.544   1.488  1.4364 -1.7069 -0.6537
  290SOL    HW2 1159   0.969   0.563   1.644  0.9005  1.0817  1.7604
  290SOL     MW 1160   0.917   0.559   1.571  0.5459  0.3049  0.0158
  291SOL     OW 1161   0.176   0.333   0.145  0.6394 -0.7888 -0.2230
  291SOL    HW1 1162   0.246   0.280   0.179 -0.4829  1.2900  0.6528
  291SOL    HW2 1163   0.135   0.260   0.085 -0.4024 -0.0154  4.2338
  291SOL     MW 1164   0.180   0.317   0.141  0.3539 -0.4125  0.4806
  292SOL     OW 1165   1.047   0.552   0.094 -0.1925 -0.0018  0.2204
  292SOL    HW1 1166   1.089   0.610   0.163  0.8632 -0.6230  0.2239
  292SOL    HW2 1167   1.076   0.467   0.134  0.8424  2.1879 -1.5897
  292SOL     MW 1168   1.056   0.548   0.108  0.0833  0.2051 -0.0179
  293SOL     OW 1169   0.243   0.145   2.437  0.0880 -0.1469  0.2440
  293SOL    HW1 1170   0.153   0.111   2.413 -1.0067  1.7869  0.1490
  293SOL    HW2 1171   0.231   0.203   2.511 -2.0925  0.2185  1.0623
  293SOL     MW 1172   0.230   0.148   2.443 -0.3441  0.1564  0.3394
  294SOL     OW 1173   1.499   0.624   2.396 -0.0382  0.2943 -0.2270
  294SOL    HW1 1174   1.551   0.662   2.467  0.9377 -0.4727  0.2065
  294SOL    HW2 1175   1.483   0.534   2.415 -0.0256  5.3128 -0.1639
  294SOL     MW 1176   1.504   0.617   2.408  0.0922  0.8552 -0.1614
  295SOL     OW 1177   0.897   0.664   2.501 -0.3707 -0.2400 -0.4012
  295SOL    HW1 1178   0.861   0.581   2.467  1.6029  3.4512  2.0125
  295SOL    HW2 1179   0.844   0.671   2.584  4.3729 -1.8040  1.2648
  295SOL     MW 1180   0.885   0.654   2.508  0.5156  0.0407  0.1370
  296SOL     OW 1181   1.260   0.275   2.055 -0.1381 -0.5768 -0.2060
  296SOL    HW1 1182   1.329   0.211   2.023  0.3991 -0.3284  0.6352
  296SOL    HW2 1183   1.263   0.284   2.151 -0.3188  0.2828 -1.3629
  296SOL     MW 1184   1.270   0.268   2.064 -0.0911 -0.4306 -0.2477
  297SOL     OW 1185   1.465   0.344   1.596 -0.5701 -0.1987  0.1581
  297SOL    HW1 1186   1.501   0.429   1.631  2.6184  0.2272 -2.6587
  297SOL    HW2 1187   1.516   0.271   1.634 -0.3720  1.6208  2.7188
  297SOL     MW 1188   1.477   0.346   1.606 -0.1233  0.0975  0.1243
  298SOL     OW 1189   1.653   0.874   1.996 -0.0044 -0.1560 -0.4685
  298SOL    HW1 1190   1.615   0.939   1.930 -1.9247  0.0949 -0.4683
  298SOL    HW2 1191   1.748   0.878   1.999 -0.0754 -1.4253 -0.6928
  298SOL     MW 1192   1.660   0.883   1.988 -0.2671 -0.2903 -0.4981
  299SOL     OW 1193   0.561   1.054   0.008 -0.4183 -0.1972  0.3256
  299SOL    HW1 1194   0.597   1.143   0.009 -1.0106 -2.2814  2.6142
  299SOL    HW2 1195   0.518   1.039  -0.077  0.0212  1.2611 -1.3268
  299SOL     MW 1196   0.560   1.064  -0.003 -0.4385 -0.2798  0.4096
  300SOL     OW 1197   1.197   1.152   2.507  0.6765 -0.0805  0.2352
  300SOL    HW1 1198   1.110   1.126   2.540  3.1781  1.1300 -1.0704
  300SOL    HW2 1199   1.227   1.199   2.589 -2.4042 -2.0711  1.1164
  300SOL     MW 1200   1.190   1.155   2.522  0.6001 -0.1834  0.1792
  301SOL     OW 1201   1.380   0.912   0.688 -0.2031  0.4209  0.4043
  301SOL    HW1 1202   1.421   0.945   0.774 -0.0587 -0.2125  0.1754
  301SOL    HW2 1203   1.287   0.879   0.704  0.3219 -1.7657  1.2910
  301SOL     MW 1204   1.373   0.912   0.701 -0.1148  0.0489  0.4911
  302SOL     OW 1205   0.109   1.494   2.035  0.3481 -0.3934  0.0208
  302SOL    HW1 1206   0.125   1.420   2.098  1.6346  1.2289 -2.4658
  302SOL    HW2 1207   0.062   1.567   2.085  2.7547 -0.5679  3.0716
  302SOL     MW 1208   0.105   1.494   2.050  0.8354 -0.2024  0.0953
  303SOL     OW 1209   0.392   1.691   2.630  0.0998  0.1139  0.5613
  303SOL    HW1 1210   0.334   1.676   2.556  1.0465  1.3753  0.2942
  303SOL    HW2 1211   0.335   1.764   2.660  2.5459  1.0602 -0.7978
  303SOL     MW 1212   0.377   1.699   2.624  0.5474  0.4052  0.3467
  304SOL     OW 1213   0.639   2.053   2.355 -0.3080 -0.5137 -0.1097
  304SOL    HW1 1214   0.675   2.117   2.296 -1.2865 -0.7583 -1.5890
  304SOL    HW2 1215   0.711   1.992   2.375  1.6918 -0.1419 -0.7489
  304SOL     MW 1216   0.653   2.053   2.350 -0.1733 -0.4969 -0.3892
  305SOL     OW 1217   1.099   0.571   0.524  0.0413 -0.2616 -0.3381
  305SOL    HW1 1218   1.007   0.595   0.515  2.6617  0.4047  0.0746
  305SOL    HW2 1219   1.095   0.483   0.569  0.6631  1.6920  0.1855
  305SOL     MW 1220   1.086   0.562   0.529  0.4690  0.0841 -0.2146
  306SOL     OW 1221   1.234   1.480   0.267  0.7714 -0.0404 -0.2373
  306SOL    HW1 1222   1.246   1.395   0.301 -0.9999  0.5311  1.8162
  306SOL    HW2 1223   1.308   1.486   0.205 -2.3483 -2.0483  2.1241
  306SOL     MW 1224   1.246   1.470   0.263  0.1261 -0.2299  0.3452
  307SOL     OW 1225   1.393   0.491   1.940  0.1081  0.5845 -0.1582
  307SOL    HW1 1226   1.346   0.416   1.979  0.3826 -3.4262 -0.0075
  307SOL    HW2 1227   1.466   0.497   2.009  2.0940  1.5924  2.8766
  307SOL     MW 1228   1.397   0.482   1.954  0.4063  0.1883  0.2621
  308SOL     OW 1229   2.135   0.598   2.695 -0.2654  0.1693  0.3148
  308SOL    HW1 1230   2.226   0.567   2.726  2.1881 -0.3512 -0.2871
  308SOL    HW2 1231   2.129   0.686   2.728  3.2171 -1.7054 -1.1525
  308SOL     MW 1232   2.146   0.606   2.703  0.5178 -0.1468  0.0418
  309SOL     OW 1233   0.396   0.375   0.409  0.0918 -0.3478 -0.2634
  309SOL    HW1 1234   0.481   0.350   0.446  0.2988 -0.7639 -0.1266
  309SOL    HW2 1235   0.395   0.326   0.328 -1.7195 -0.2104  0.8409
  309SOL     MW 1236   0.407   0.365   0.403 -0.1199 -0.3846 -0.0997
  310SOL     OW 1237   0.484   0.593   1.922  0.2050  0.2009  0.2812
  310SOL    HW1 1238   0.524   0.523   1.866 -0.6135  1.1335 -0.7124
  310SOL    HW2 1239   0.537   0.678   1.910 -1.7397  2.9111 -0.4085
  310SOL     MW 1240   0.496   0.595   1.913 -0.1596  0.6815  0.0591
  311SOL     OW 1241   1.912   0.725   1.969  0.7349 -0.3868 -0.2616
  311SOL    HW1 1242   1.898   0.713   2.061  0.5798 -0.6761 -1.8154
  311SOL    HW2 1243   1.971   0.645   1.947  0.4947 -1.1568  0.2723
  311SOL     MW 1244   1.918   0.713   1.978  0.6827 -0.5266 -0.3962
  312SOL     OW 1245   1.669   2.502   0.111 -0.0575 -0.1094 -0.3407
  312SOL    HW1 1246   1.725   2.525   0.188  3.6214 -2.1188 -0.4733
  312SOL    HW2 1247   1.593   2.555   0.107 -1.2056 -0.6223 -0.6313
  312SOL     MW 1248   1.666   2.512   0.120  0.2764 -0.4422 -0.3966
  313SOL     OW 1249   0.099   1.218   2.974  0.3274 -0.0922 -0.0195
  313SOL    HW1 1250   0.137   1.161   3.043 -0.1010  0.7814  1.0006
  313SOL    HW2 1251   0.170   1.272   2.945  1.5704  1.7406 -4.5715
  313SOL     MW 1252   0.113   1.217   2.979  0.4349  0.2649 -0.4855
  314SOL     OW 1253   2.112   2.971   3.004 -0.0797  0.2437 -0.2550
  314SOL    HW1 1254   2.079   3.033   2.939 -1.7621  1.9415  1.7465
  314SOL    HW2 1255   2.151   3.030   3.065  0.8108 -0.1158 -0.3468
  314SOL     MW 1256   2.112   2.987   3.003 -0.1842  0.4203 -0.0030
  315SOL     OW 1257   1.516   1.912   0.045 -0.2286  0.2936 -0.3374
  315SOL    HW1 1258   1.428   1.962   0.059 -1.1589  0.1816 -0.6378
  315SOL    HW2 1259   1.553   1.955  -0.034  0.0770  0.6679 -0.0609
  315SOL     MW 1260   1.509   1.924   0.037 -0.3111  0.3282 -0.3406
  316SOL     OW 1261   1.307   0.664   2.701  0.1201 -0.0280  0.2357
  316SOL    HW1 1262   1.393   0.709   2.695 -1.0198  2.2274  3.3983
  316SOL    HW2 1263   1.270   0.701   2.784 -0.0480  1.0243  2.5573
  316SOL     MW 1264   1.313   0.675   2.711 -0.0524  0.4085  0.9593
  317SOL     OW 1265   0.712   1.507   2.552  0.7006  0.2903  0.5330
  317SOL    HW1 1266   0.756   1.422   2.551 -0.0258 -0.2478 -0.9870
  317SOL    HW2 1267   0.711   1.541   2.460 -1.5127 -0.0783 -0.5534
  317SOL     MW 1268   0.717   1.501   2.540  0.3127  0.1707  0.1891
  318SOL     OW 1269   1.336   0.395   2.932 -0.0340 -0.2634 -0.0536
  318SOL    HW1 1270   1.253   0.444   2.913 -4.0993  0.4316 -1.4259
  318SOL    HW2 1271   1.411   0.456   2.919  1.6946 -0.3274 -1.0663
  318SOL     MW 1272   1.335   0.409   2.928 -0.3423 -0.1802 -0.3683
  319SOL     OW 1273   0.764   0.404   2.868 -0.0652 -0.8948  0.2001
  319SOL    HW1 1274   0.722   0.355   2.797 -0.9715  0.2068 -1.1103
  319SOL    HW2 1275   0.716   0.389   2.953 -0.0720  0.8029  0.4717
  319SOL     MW 1276   0.752   0.396   2.870 -0.1856 -0.5254  0.0630
  320SOL     OW 1277   1.059   1.334   1.926 -0.0816  0.2892 -0.2092
  320SOL    HW1 1278   1.113   1.287   1.997  1.0810 -0.6767 -1.1093
  320SOL    HW2 1279   1.126   1.403   1.902  2.5932 -0.6071 -0.6090
  320SOL     MW 1280   1.075   1.337   1.932  0.4247  0.0435 -0.3807
  321SOL     OW 1281   1.050   0.992   3.033 -0.1085 -0.1944 -0.1979
  321SOL    HW1 1282   0.986   0.945   2.978 -0.0922 -1.7920 -1.1375
  321SOL    HW2 1283   1.090   0.912   3.071  1.0756 -1.3665 -2.1849
  321SOL     MW 1284   1.047   0.975   3.031  0.0499 -0.5598 -0.5840
  322SOL     OW 1285   1.227   0.802   1.710  0.7942  0.6500  0.0673
  322SOL    HW1 1286   1.304   0.746   1.693  1.3399 -1.7784 -3.7527
  322SOL    HW2 1287   1.260   0.851   1.784  3.9377 -0.6470 -0.7532
  322SOL     MW 1288   1.242   0.801   1.718  1.2810  0.1585 -0.5450
  323SOL     OW 1289   1.207   1.540   1.888 -0.0429 -0.0182  0.0332
  323SOL    HW1 1290   1.253   1.528   1.805 -2.4432  1.8634  1.1857
  323SOL    HW2 1291   1.133   1.604   1.875  0.8608 -0.7544 -1.2786
  323SOL     MW 1292   1.203   1.547   1.875 -0.2404  0.1329  0.0122
  324SOL     OW 1293   1.472   1.015   2.427 -0.3366  0.4321  0.1220
  324SOL    HW1 1294   1.381   1.012   2.472  2.2224 -1.7169 -1.6241
  324SOL    HW2 1295   1.517   1.093   2.461 -0.0610 -2.4645 -0.2985
  324SOL     MW 1296   1.466   1.025   2.438  0.0374 -0.2336 -0.1638
  325SOL     OW 1297   1.093   0.505   2.908  0.0083 -0.4184  0.5548
  325SOL    HW1 1298   1.057   0.520   2.996  2.2087 -0.5620  1.0246
  325SOL    HW2 1299   1.018   0.506   2.849 -2.4175 -1.0828 -2.2821
  325SOL     MW 1300   1.078   0.507   2.912 -0.0214 -0.5250  0.2425
  326SOL     OW 1301   0.474   1.336   2.198 -0.2793  0.0673 -1.1662
  326SOL    HW1 1302   0.540   1.298   2.136  0.4939 -2.6182 -1.7142
  326SOL    HW2 1303   0.485   1.433   2.189  2.8240 -2.2766 -1.2343
  326SOL     MW 1304   0.484   1.344   2.189  0.2322 -0.5963 -1.2475
  327SOL     OW 1305   1.902   0.854   2.453  0.2947 -0.6416  0.0615
  327SOL    HW1 1306   1.901   0.775   2.517  1.2323 -1.9876  0.6200
  327SOL    HW2 1307   1.998   0.858   2.419  0.5146  0.8750 -0.1343
  327SOL     MW 1308   1.915   0.844   2.457  0.4475 -0.6191  0.1094
  328SOL     OW 1309   0.202   1.275   2.204  0.1572  0.1894 -0.5536
  328SOL    HW1 1310   0.146   1.223   2.151  0.4560  1.2214  2.0698
  328SOL    HW2 1311   0.293   1.263   2.173  1.8848 -1.2059 -1.4613
  328SOL     MW 1312   0.207   1.267   2.193  0.4246  0.1414 -0.3273
  329SOL     OW 1313   0.122   0.066   1.383 -0.6008 -0.8382 -0.4942
  329SOL    HW1 1314   0.098   0.107   1.465 -0.1766  0.9509 -0.8513
  329SOL    HW2 1315   0.185   0.121   1.335  4.3374 -0.6796 -2.1045
  329SOL     MW 1316   0.127   0.079   1.388  0.1067 -0.5812 -0.7538
  330SOL     OW 1317   0.305   3.095   2.078  0.1200  0.3079 -0.1634
  330SOL    HW1 1318   0.368   3.114   2.149 -1.0553 -1.4061  1.5236
  330SOL    HW2 1319   0.238   3.044   2.116 -1.4636  0.2178  1.8091
  330SOL     MW 1320   0.304   3.091   2.092 -0.2440  0.0699  0.3194
  331SOL     OW 1321   0.819   1.203   2.279  0.4647  0.1292 -0.1606
  331SOL    HW1 1322   0.780   1.243   2.203  1.2342 -0.3909  0.9967
  331SOL    HW2 1323   0.861   1.278   2.326  4.9932 -0.0329 -0.9327
  331SOL     MW 1324   0.819   1.218   2.275  1.1637  0.0392 -0.1097
  332SOL     OW 1325   1.364   1.694   3.008  0.2936  0.2671  0.2047
  332SOL    HW1 1326   1.359   1.703   2.906  0.0951  1.1451  2.2434
  332SOL    HW2 1327   1.414   1.766   3.047  2.1211  0.9350  1.9576
  332SOL     MW 1328   1.370   1.704   3.000  0.5085  0.4711  0.7050
  333SOL     OW 1329   1.793   1.443   2.963 -0.7440 -0.5278 -0.5117
  333SOL    HW1 1330   1.891   1.451   2.992  0.5339 -1.2206  1.1131
  333SOL    HW2 1331   1.751   1.415   3.043  3.6618  1.4842  0.6427
  333SOL     MW 1332   1.800   1.441   2.977  0.0059 -0.3537 -0.1450
  334SOL     OW 1333   1.402   3.085   2.569  0.6662  0.4950 -0.2979
  334SOL    HW1 1334   1.316   3.079   2.615  0.8629 -3.0984  0.5164
  334SOL    HW2 1335   1.436   3.169   2.602 -0.9332 -0.4056  1.0147
  334SOL     MW 1336   1.395   3.096   2.579  0.4811 -0.0979 -0.0173
  335SOL     OW 1337   1.259   0.770   3.012  0.1697 -0.1648 -0.2997
  335SOL    HW1 1338   1.283   0.707   3.080  2.1506 -0.7108 -2.5890
  335SOL    HW2 1339   1.340   0.808   2.986 -0.7536 -2.1175  2.2882
  335SOL     MW 1340   1.273   0.767   3.018  0.3092 -0.4945 -0.2603
  336SOL     OW 1341   0.946   1.072   1.916  0.3703 -0.2911  0.3524
  336SOL    HW1 1342   0.964   1.166   1.922  1.8790 -0.1565  0.3855
  336SOL    HW2 1343   1.033   1.039   1.899  1.2044 -0.3708  2.2156
  336SOL     MW 1344   0.960   1.080   1.914  0.6794 -0.2839  0.6026
  337SOL     OW 1345   0.622   1.779   2.809 -0.5179  0.2081 -0.3853
  337SOL    HW1 1346   0.568   1.756   2.733  2.5869 -2.3916 -0.6848
  337SOL    HW2 1347   0.713   1.741   2.792  1.6987  0.9250 -2.6579
  337SOL     MW 1348   0.627   1.771   2.797  0.1842 -0.0403 -0.7247
  338SOL     OW 1349   1.140   0.829   2.517 -0.0457 -0.8205 -0.3689
  338SOL    HW1 1350   1.068   0.762   2.514  0.2208 -0.0452 -1.1215
  338SOL    HW2 1351   1.209   0.789   2.575  0.8674 -1.9064  0.7811
  338SOL     MW 1352   1.140   0.815   2.524  0.1099 -0.8615 -0.3165
  339SOL     OW 1353   1.555   1.055   1.801  0.0876  0.4612  0.5241
  339SOL    HW1 1354   1.488   1.033   1.733 -1.8697 -0.5165 -1.9791
  339SOL    HW2 1355   1.526   1.135   1.848  0.8769  0.1670  0.4566
  339SOL     MW 1356   1.542   1.063   1.798 -0.0665  0.2934  0.1849
  340SOL     OW 1357   1.403   1.465   0.054  0.0895 -0.1308 -0.1891
  340SOL    HW1 1358   1.388   1.531  -0.011  0.6960 -0.2132  1.8859
  340SOL    HW2 1359   1.498   1.448   0.065 -0.3134 -3.4895 -0.1056
  340SOL     MW 1360   1.414   1.471   0.047  0.1164 -0.5848  0.0957
  341SOL     OW 1361   0.114   1.399   2.685  0.5971 -0.1759  0.1053
  341SOL    HW1 1362   0.202   1.363   2.685 -0.8866 -0.6222  1.2546
  341SOL    HW2 1363   0.062   1.361   2.609  1.7766  2.6005  0.7752
  341SOL     MW 1364   0.119   1.389   2.675  0.5569  0.1315  0.3453
  342SOL     OW 1365   1.377   0.299   0.084 -0.3274 -0.1090  0.2573
  342SOL    HW1 1366   1.442   0.355   0.124  0.2901 -1.8462 -2.2741
  342SOL    HW2 1367   1.365   0.330  -0.008 -1.1224  1.7197  0.4251
  342SOL     MW 1368   1.384   0.310   0.077 -0.3508 -0.0969 -0.0546
  343SOL     OW 1369   0.221   0.304   2.218  0.3928 -0.2381 -0.3068
  343SOL    HW1 1370   0.234   0.231   2.284  2.3380 -1.8661 -1.7566
  343SOL    HW2 1371   0.192   0.261   2.137 -0.2855  3.7318 -1.4160
  343SOL     MW 1372   0.219   0.289   2.216  0.5599  0.0709 -0.6445
  344SOL     OW 1373   1.693   2.058   0.180  0.4021  0.1115 -0.2639
  344SOL    HW1 1374   1.710   2.122   0.109 -0.4301 -2.7581 -1.6761
  344SOL    HW2 1375   1.621   2.009   0.148  0.4598  1.9428  0.4171
  344SOL     MW 1376   1.685   2.060   0.167  0.2999 -0.0255 -0.3604
  345SOL     OW 1377   0.734   1.642   2.306 -0.0770  0.5535  0.1866
  345SOL    HW1 1378   0.638   1.640   2.273 -2.2599 -3.0487 -1.2062
  345SOL    HW2 1379   0.794   1.597   2.248  0.1370  0.6713 -2.0353
  345SOL     MW 1380   0.729   1.636   2.294 -0.3368  0.0938 -0.2903
  346SOL     OW 1381   1.741   1.135   0.028 -0.1820 -0.0740 -0.4664
  346SOL    HW1 1382   1.837   1.137   0.024 -0.9473 -0.3702 -1.7052
  346SOL    HW2 1383   1.715   1.066   0.085 -0.9372  1.2603  0.6626
  346SOL     MW 1384   1.750   1.126   0.035 -0.3826  0.0630 -0.4809
  347SOL     OW 1385   1.275   0.772   2.295  0.2553  0.1446  0.2357
  347SOL    HW1 1386   1.352   0.720   2.321 -0.8665 -0.6961  0.1065
  347SOL    HW2 1387   1.232   0.808   2.370  1.4442  2.3047 -2.9523
  347SOL     MW 1388   1.279   0.770   2.308  0.2642  0.3187 -0.2020
  348SOL     OW 1389   1.359   2.611   1.862  1.0097 -0.0136  0.1946
  348SOL    HW1 1390   1.413   2.541   1.905 -0.7925  0.3640 -2.2128
  348SOL    HW2 1391   1.369   2.687   1.918  0.2952  1.4350  0.0081
  348SOL     MW 1392   1.367   2.611   1.875  0.6776  0.2273 -0.1476
  349SOL     OW 1393   1.409   0.260   2.713  0.2550  0.0494  0.0351
  349SOL    HW1 1394   1.351   0.299   2.780  0.8404 -0.1597 -1.0609
  349SOL    HW2 1395   1.499   0.276   2.747  2.2520 -0.7131  0.8101
  349SOL     MW 1396   1.413   0.267   2.727  0.5957 -0.0788 -0.0072
  350SOL     OW 1397   1.896   0.639   2.617 -0.5518  0.1282  0.1653
  350SOL    HW1 1398   1.869   0.552   2.582 -0.2515  0.5918  0.9003
  350SOL    HW2 1399   1.985   0.615   2.655  3.2282 -0.2705  1.4363
  350SOL     MW 1400   1.904   0.625   2.617 -0.0134  0.1367  0.4300
  351SOL     OW 1401   0.078   0.945   1.571 -0.5166  0.3584 -0.7698
  351SOL    HW1 1402   0.017   0.988   1.635 -3.2798  2.5413 -1.9518
  351SOL    HW2 1403   0.121   1.024   1.538 -2.3621 -1.2032  0.2191
  351SOL     MW 1404   0.075   0.961   1.575 -1.1247  0.4404 -0.7953
  352SOL     OW 1405   0.854   1.675   2.715  0.4169 -0.0677 -0.0021
  352SOL    HW1 1406   0.909   1.612   2.756 -1.9135  0.7826 -1.7673
  352SOL    HW2 1407   0.791   1.625   2.656 -0.3289  0.4884 -1.8177
  352SOL     MW 1408   0.853   1.660   2.712  0.0110  0.1178 -0.4745
  353SOL     OW 1409   3.068   2.451   2.734  0.8638 -0.4288 -0.0291
  353SOL    HW1 1410   3.139   2.401   2.702 -0.0508 -2.2707  2.7966
  353SOL    HW2 1411   3.064   2.522   2.669  0.3462  0.8788 -3.5518
  353SOL     MW 1412   3.077   2.454   2.722  0.6748 -0.4993 -0.1210
  354SOL     OW 1413   0.364   2.485   0.844  0.1051  0.7880 -0.3615
  354SOL    HW1 1414   0.364   2.473   0.941  0.3750 -1.3717  0.9646
  354SOL    HW2 1415   0.292   2.421   0.811 -3.1698  0.8433  1.2552
  354SOL     MW 1416   0.355   2.475   0.853 -0.2914  0.5104  0.0268
  355SOL     OW 1417   0.028   2.231   0.371 -0.0380  0.6056 -0.0732
  355SOL    HW1 1418  -0.046   2.167   0.365  0.0569  1.5119 -0.7288
  355SOL    HW2 1419  -0.003   2.278   0.443  1.8910 -0.3992 -0.1213
  355SOL     MW 1420   0.014   2.229   0.380  0.2290  0.5926 -0.1661
  356SOL     OW 1421   0.853   2.879   1.051 -0.8013 -0.3132 -0.3349
  356SOL    HW1 1422   0.879   2.871   0.956  0.7971  1.7334 -1.5839
  356SOL    HW2 1423   0.761   2.862   1.045 -2.8480 -0.8149 -2.4631
  356SOL     MW 1424   0.845   2.876   1.038 -0.8604 -0.1094 -0.7805
  357SOL     OW 1425   1.796   2.942   0.409  0.5144 -0.1840  0.3573
  357SOL    HW1 1426   1.733   2.898   0.470  1.5436  1.9722  0.9582
  357SOL    HW2 1427   1.871   2.897   0.391 -4.9163 -0.1704  3.0105
  357SOL     MW 1428   1.798   2.930   0.415 -0.0663  0.1023  0.7867
  358SOL     OW 1429   0.471   0.066   1.069  0.4662 -0.0577  0.0940
  358SOL    HW1 1430   0.568   0.062   1.069  1.1039  1.0465 -0.4305
  358SOL    HW2 1431   0.439   0.108   0.989 -1.3032  0.4167 -0.0539
  358SOL     MW 1432   0.479   0.071   1.059  0.3169  0.1506  0.0053
  359SOL     OW 1433   0.890   2.834   1.831 -0.5107  0.1192  0.1206
  359SOL    HW1 1434   0.879   2.739   1.861  0.3637 -0.6192 -2.2527
  359SOL    HW2 1435   0.934   2.830   1.738  3.6589  2.7127 -1.2309
  359SOL     MW 1436   0.895   2.821   1.823  0.1548  0.3640 -0.3708
  360SOL     OW 1437   0.584   2.803   1.016 -0.1145  0.0953  0.2189
  360SOL    HW1 1438   0.571   2.756   0.931 -0.2339  1.3876  0.9215
  360SOL    HW2 1439   0.591   2.734   1.082  0.3270 -0.1193 -2.3053
  360SOL     MW 1440   0.583   2.787   1.014 -0.0720  0.2375 -0.0214
  361SOL     OW 1441   0.190   2.716   1.342  0.2186 -0.1000  0.2699
  361SOL    HW1 1442   0.174   2.791   1.402 -1.5537 -0.8921 -3.4176
  361SOL    HW2 1443   0.284   2.698   1.353  2.0765 -0.1409  0.9059
  361SOL     MW 1444   0.200   2.724   1.351  0.2299 -0.2099 -0.1327
  362SOL     OW 1445   1.466   2.448   0.650  0.3204 -0.1194  0.1169
  362SOL    HW1 1446   1.504   2.365   0.669  2.2263  0.8140 -1.1227
  362SOL    HW2 1447   1.493   2.499   0.730  0.7474  0.7589 -0.6491
  362SOL     MW 1448   1.475   2.443   0.663  0.6282  0.1197 -0.1477
  363SOL     OW 1449   0.300   3.067   0.705 -0.1200 -0.1926  0.9327
  363SOL    HW1 1450   0.274   3.006   0.777  1.7841 -0.5532 -2.1887
  363SOL    HW2 1451   0.218   3.098   0.664 -0.5139 -3.8625  0.4618
  363SOL     MW 1452   0.286   3.063   0.709  0.0793 -0.7244  0.4587
  364SOL     OW 1453   0.698   0.214   0.236 -0.3471 -0.6786  0.2415
  364SOL    HW1 1454   0.633   0.151   0.244  0.5060  0.8367 -0.8850
  364SOL    HW2 1455   0.653   0.275   0.177  0.7971 -0.5649  1.7153
  364SOL     MW 1456   0.683   0.213   0.229 -0.0836 -0.4637  0.2873
  365SOL     OW 1457   0.981   1.943   1.099  0.7126 -0.5106  0.2690
  365SOL    HW1 1458   0.957   2.027   1.049  0.7051  1.8002 -2.0483
  365SOL    HW2 1459   0.932   1.867   1.061  0.5307 -2.5384 -2.9422
  365SOL     MW 1460   0.971   1.944   1.087  0.6876 -0.4732 -0.4605
  366SOL     OW 1461   2.851   2.617   1.076 -0.0994  0.1489 -0.1715
  366SOL    HW1 1462   2.925   2.629   1.132 -2.1127 -0.4409 -1.3661
  366SOL    HW2 1463   2.903   2.628   0.993  1.5320  0.1287 -0.7158
  366SOL     MW 1464   2.867   2.620   1.072 -0.1498  0.0684 -0.4009
  367SOL     OW 1465   1.239   2.854   0.906  0.3905  0.4640  0.1174
  367SOL    HW1 1466   1.245   2.947   0.912 -3.5537 -1.8404  0.7869
  367SOL    HW2 1467   1.223   2.827   0.814  1.4825 -1.9841 -0.8725
  367SOL     MW 1468   1.238   2.863   0.895  0.0142 -0.1631  0.0751
  368SOL     OW 1469   1.671   0.430   0.669 -0.3107 -0.1957  0.0397
  368SOL    HW1 1470   1.760   0.404   0.656  0.5447  0.3933  1.2781
  368SOL    HW2 1471   1.684   0.529   0.686  0.3414  0.4085  1.1397
  368SOL     MW 1472   1.684   0.440   0.670 -0.1118 -0.0383  0.3482
  369SOL     OW 1473   0.168   2.474   1.664  0.3641  0.5404 -0.2814
  369SOL    HW1 1474   0.261   2.472   1.676 -0.2407  1.7661  1.3805
  369SOL    HW2 1475   0.134   2.556   1.704 -0.7125  1.5584 -2.8549
  369SOL     MW 1476   0.175   2.485   1.671  0.1423  0.8364 -0.4017
  370SOL     OW 1477   0.741   0.058   1.002 -0.3016 -0.4857 -0.5741
  370SOL    HW1 1478   0.779   0.137   1.039 -0.8448  0.7870  1.4141
  370SOL    HW2 1479   0.794  -0.016   1.021 -1.4415  1.0029  3.5607
  370SOL     MW 1480   0.753   0.058   1.010 -0.5237 -0.1214  0.2338
  371SOL     OW 1481   1.333   2.979   1.522  0.1346 -0.6378  0.0633
  371SOL    HW1 1482   1.305   2.902   1.469  1.0439  0.1939  0.3174
  371SOL    HW2 1483   1.340   3.055   1.462 -0.7096 -0.5487 -1.5827
  371SOL     MW 1484   1.330   2.979   1.507  0.1432 -0.5163 -0.1204
  372SOL     OW 1485   0.770   2.329   0.450 -0.3076  0.2631 -0.3845
  372SOL    HW1 1486   0.716   2.244   0.444 -2.1024  0.3039  0.7127
  372SOL    HW2 1487   0.819   2.357   0.365 -1.2478  0.9341 -1.5378
  372SOL     MW 1488   0.769   2.321   0.438 -0.6685  0.3570 -0.3919
  373SOL     OW 1489   2.794   3.025   1.397 -0.2615  0.1249  0.5372
  373SOL    HW1 1490   2.849   2.968   1.342 -1.6570  0.9078 -0.2393
  373SOL    HW2 1491   2.779   3.102   1.340  1.6871  0.3758  3.4318
  373SOL     MW 1492   2.799   3.028   1.382 -0.1885  0.2613  0.8167
  374SOL     OW 1493   1.535   0.479   0.216 -0.3191 -0.6794 -0.6567
  374SOL    HW1 1494   1.633   0.495   0.216 -0.7123 -1.2314  1.7170
  374SOL    HW2 1495   1.517   0.464   0.310  1.4148  3.6652 -0.0340
  374SOL     MW 1496   1.546   0.479   0.229 -0.1422 -0.1790 -0.2614
  375SOL     OW 1497   1.107   2.095   2.290  0.3562 -0.2293  0.1656
  375SOL    HW1 1498   1.157   2.118   2.364  0.5039 -0.2810  0.8150
  375SOL    HW2 1499   1.111   2.000   2.290 -0.3427 -0.8496  2.3104
  375SOL     MW 1500   1.114   2.085   2.300  0.2835 -0.3180  0.5342
  376SOL     OW 1501   0.669   2.515   0.073  0.5010  0.3047 -0.5790
  376SOL    HW1 1502   0.656   2.458   0.150 -2.2171  1.3330  3.7697
  376SOL    HW2 1503   0.645   2.453  -0.002 -1.8272 -1.6759  0.6685
  376SOL     MW 1504   0.664   2.499   0.073 -0.1648  0.1791  0.1594
  377SOL     OW 1505   1.346   1.988   0.852  0.2559  0.4018 -0.1382
  377SOL    HW1 1506   1.272   1.972   0.795  3.2161 -1.9183 -2.4618
  377SOL    HW2 1507   1.330   1.931   0.929 -1.7743 -0.6648 -2.7234
  377SOL     MW 1508   1.334   1.978   0.855  0.3786 -0.0450 -0.7859
  378SOL     OW 1509   1.031   2.820   1.583  0.0367 -0.4050  0.6821
  378SOL    HW1 1510   0.990   2.737   1.555  1.5384 -0.9067 -2.0130
  378SOL    HW2 1511   1.003   2.877   1.512  0.2194 -2.9501 -1.5845
  378SOL     MW 1512   1.022   2.816   1.570  0.2589 -0.8070  0.0275
  379SOL     OW 1513   1.119   1.769   2.302 -0.1008  0.2522 -0.0285
  379SOL    HW1 1514   1.034   1.739   2.268  0.0183 -0.3855 -1.0066
  379SOL    HW2 1515   1.178   1.694   2.275  0.1796 -0.0879  1.2806
  379SOL     MW 1516   1.116   1.755   2.294 -0.0481  0.1232  0.0152
  380SOL     OW 1517   0.824   0.068   1.577 -0.3641 -0.1026 -0.4355
  380SOL    HW1 1518   0.831   0.082   1.483 -0.8804  0.0907  1.9584
  380SOL    HW2 1519   0.902   0.117   1.613  0.6884 -0.0951  0.6678
  380SOL     MW 1520   0.835   0.076   1.570 -0.2934 -0.0761  0.0259
  381SOL     OW 1521   0.804   2.011   0.779 -0.3019  0.0881 -0.0516
  381SOL    HW1 1522   0.897   1.999   0.793 -0.7779 -1.3533  0.0253
  381SOL    HW2 1523   0.787   2.085   0.841 -0.2021  0.9853  0.6115
  381SOL     MW 1524   0.814   2.019   0.789 -0.3515  0.0163  0.0460
  382SOL     OW 1525   0.664   0.103   0.713 -0.3293 -0.0710 -0.1554
  382SOL    HW1 1526   0.676   0.088   0.810  0.6665 -0.6617 -2.5468
  382SOL    HW2 1527   0.628   0.026   0.670 -0.6770  0.1122 -0.9409
  382SOL     MW 1528   0.661   0.091   0.720 -0.2438 -0.1247 -0.5746
  383SOL     OW 1529   0.516   0.008   0.369  0.6620 -0.5114  0.0584
  383SOL    HW1 1530   0.560  -0.059   0.320  1.1557 -3.1639  1.4792
  383SOL    HW2 1531   0.454  -0.044   0.421  1.0322 -0.3282 -1.2328
  383SOL     MW 1532   0.513  -0.008   0.370  0.7760 -0.8372  0.0755
  384SOL     OW 1533   0.640   2.919   0.644 -0.1245  0.2987 -0.3909
  384SOL    HW1 1534   0.681   2.870   0.717 -0.4963  3.2738 -1.3514
  384SOL    HW2 1535   0.547   2.892   0.635 -1.6349 -1.1828  1.4010
  384SOL     MW 1536   0.633   2.909   0.652 -0.3729  0.4957 -0.2812
  385SOL     OW 1537   1.344   2.071   1.502 -0.4853 -0.0398 -0.7274
  385SOL    HW1 1538   1.417   2.082   1.565 -0.3795 -3.4824 -0.7834
  385SOL    HW2 1539   1.285   1.995   1.526  0.7761  0.7389  1.0531
  385SOL     MW 1540   1.346   2.062   1.513 -0.3049 -0.3912 -0.4999
  386SOL     OW 1541   1.328   0.386   0.843 -0.4368  0.1960 -0.3307
  386SOL    HW1 1542   1.254   0.390   0.774 -1.2088 -2.1563 -0.6219
  386SOL    HW2 1543   1.298   0.340   0.921  1.7889  0.2601 -1.2482
  386SOL     MW 1544   1.314   0.380   0.844 -0.2450 -0.1059 -0.4902
  387SOL     OW 1545   0.870   2.189   1.449 -0.0834 -1.1285  0.9104
  387SOL    HW1 1546   0.925   2.239   1.389 -2.6012 -0.1646 -0.4686
  387SOL    HW2 1547   0.871   2.097   1.410 -0.2743 -0.8468 -0.7586
  387SOL     MW 1548   0.877   2.184   1.435 -0.4408 -0.9641  0.5083
  388SOL     OW 1549   1.543   2.755   1.208 -0.5424  0.2068 -0.4768
  388SOL    HW1 1550   1.451   2.724   1.198 -0.8666 -1.6096 -2.9904
  388SOL    HW2 1551   1.597   2.680   1.174 -0.4891 -1.0419  2.4764
  388SOL     MW 1552   1.538   2.741   1.202 -0.5781 -0.1976 -0.4188
  389SOL     OW 1553   0.380   3.092   3.041  0.5263  0.3152 -0.0119
  389SOL    HW1 1554   0.412   3.006   3.011  1.2390 -0.9830 -2.3872
  389SOL    HW2 1555   0.355   3.144   2.961  1.4471  2.6486 -2.9197
  389SOL     MW 1556   0.381   3.087   3.026  0.7419  0.4518 -0.7090
  390SOL     OW 1557   1.304   0.094   0.648 -0.0554  0.5579 -0.1710
  390SOL    HW1 1558   1.396   0.099   0.611  0.0626 -1.4244  1.5270
  390SOL    HW2 1559   1.326   0.082   0.739  0.3667 -1.1979 -0.3058
  390SOL     MW 1560   1.319   0.093   0.655  0.0158  0.0647  0.0353
  391SOL     OW 1561   0.280   2.237   1.390 -0.1645 -0.5797 -0.7488
  391SOL    HW1 1562   0.224   2.161   1.425  0.4962 -2.7535  1.0551
  391SOL    HW2 1563   0.227   2.321   1.418  0.2764 -0.3884 -0.2747
  391SOL     MW 1564   0.265   2.238   1.399 -0.0192 -0.8413 -0.4482
  392SOL     OW 1565   2.078   2.125   0.384  0.4161  0.3130 -0.0664
  392SOL    HW1 1566   2.127   2.064   0.436 -2.3638 -1.2234 -0.6189
  392SOL    HW2 1567   2.035   2.192   0.433 -2.6286  0.5757 -0.0301
  392SOL     MW 1568   2.079   2.126   0.398 -0.3524  0.1450 -0.1345
  393SOL     OW 1569   0.189   3.015   2.712 -0.0784 -0.1571 -0.0040
  393SOL    HW1 1570   0.234   3.090   2.756 -1.0375 -1.9451 -0.1486
  393SOL    HW2 1571   0.104   3.042   2.679  2.5333  2.5959 -0.8799
  393SOL     MW 1572   0.184   3.028   2.714  0.1397 -0.0298 -0.1387
  394SOL     OW 1573   0.896   1.737   1.499  0.6175  0.4221 -0.0542
  394SOL    HW1 1574   0.827   1.746   1.565 -2.5261  2.8225  0.3806
  394SOL    HW2 1575   0.886   1.820   1.441 -1.4038 -0.1435 -2.0191
  394SOL     MW 1576   0.885   1.749   1.500 -0.0639  0.6642 -0.2561
  395SOL     OW 1577   1.009   2.807   2.638  0.3202 -0.2839 -0.2865
  395SOL    HW1 1578   1.059   2.878   2.686  1.3131 -0.7130 -1.0414
  395SOL    HW2 1579   1.066   2.727   2.628 -1.1480  0.0062  0.3369
  395SOL     MW 1580   1.023   2.806   2.643  0.2575 -0.3022 -0.3039
  396SOL     OW 1581   0.863   1.873   2.387 -0.8900  0.0980 -0.1914
  396SOL    HW1 1582   0.905   1.879   2.474 -0.7313 -2.4860  0.4773
  396SOL    HW2 1583   0.815   1.789   2.380  1.8237  1.4527  1.4583
  396SOL     MW 1584   0.862   1.863   2.398 -0.5110 -0.0642  0.1145
  397SOL     OW 1585   1.041   2.348   1.301  0.4221 -0.0375 -0.6488
  397SOL    HW1 1586   1.080   2.386   1.220  0.2570  3.2420 -1.3117
  397SOL    HW2 1587   1.117   2.323   1.360 -0.0023 -4.0100 -0.3765
  397SOL     MW 1588   1.056   2.350   1.298  0.3443 -0.1290 -0.7003
  398SOL     OW 1589   0.591   2.672   0.772 -0.6730 -0.0490 -0.1053
  398SOL    HW1 1590   0.509   2.628   0.732 -0.4847  0.6223 -1.5787
  398SOL    HW2 1591   0.668   2.626   0.739  0.9518  0.1161 -0.3442
  398SOL     MW 1592   0.590   2.660   0.762 -0.4338  0.0614 -0.3312
  399SOL     OW 1593   0.271   2.091   0.457 -0.2530  0.2558 -0.5272
  399SOL    HW1 1594   0.177   2.122   0.442 -0.4188  2.0807  0.2239
  399SOL    HW2 1595   0.327   2.127   0.383  3.1936  0.5462  0.4900
  399SOL     MW 1596   0.266   2.100   0.445  0.1799  0.5349 -0.2939
  400SOL     OW 1597   0.562   1.825   0.180 -0.2377  0.4493  0.2392
  400SOL    HW1 1598   0.542   1.915   0.209  0.2303 -0.1574 -1.8608
  400SOL    HW2 1599   0.534   1.771   0.248  0.7404  5.1369 -0.6374
  400SOL     MW 1600   0.555   1.830   0.193 -0.0469  0.9877 -0.1535
  401SOL     OW 1601   0.909   2.067   0.131 -0.3043 -0.4878  0.0174
  401SOL    HW1 1602   0.879   1.977   0.146 -1.0797  0.1526  0.6789
  401SOL    HW2 1603   0.970   2.085   0.211 -1.0032 -0.1313 -0.1979
  401SOL     MW 1604   0.913   2.058   0.144 -0.4989 -0.3563  0.0762
  402SOL     OW 1605   0.676   2.961   1.688 -0.4545  0.0031  0.1122
  402SOL    HW1 1606   0.740   2.932   1.755 -1.8187 -0.9878  1.1351
  402SOL    HW2 1607   0.734   3.022   1.632  4.2416 -0.4274 -0.7504
  402SOL     MW 1608   0.692   2.966   1.690 -0.0149 -0.1844  0.1333
  403SOL     OW 1609   0.092   0.420   0.412  0.1051 -0.2433  0.1380
  403SOL    HW1 1610   0.180   0.437   0.447 -0.3710  0.6634 -0.9799
  403SOL    HW2 1611   0.112   0.410   0.321  0.2035 -0.8759  0.1364
  403SOL     MW 1612   0.106   0.421   0.404  0.0553 -0.2071 -0.0097
  404SOL     OW 1613   0.908   2.840   0.791 -0.7254  0.0128 -0.2258
  404SOL    HW1 1614   0.983   2.800   0.746  0.6620 -0.1262 -1.4687
  404SOL    HW2 1615   0.910   2.930   0.754 -0.4745 -0.2055 -0.2801
  404SOL     MW 1616   0.918   2.847   0.780 -0.5092 -0.0344 -0.3969
  405SOL     OW 1617   0.482   2.363   1.516  0.1506  0.1079  0.2538
  405SOL    HW1 1618   0.491   2.449   1.470 -1.8941  2.0135  1.1129
  405SOL    HW2 1619   0.405   2.312   1.463  0.3620 -0.6390  0.3295
  405SOL     MW 1620   0.473   2.368   1.503 -0.0912  0.2608  0.3771
  406SOL     OW 1621   0.336   2.404   1.123 -0.1959  0.1853  0.5340
  406SOL    HW1 1622   0.239   2.414   1.104 -0.5027  0.1991  1.3110
  406SOL    HW2 1623   0.349   2.311   1.138  0.9045 -0.6972  0.8055
  406SOL     MW 1624   0.325   2.393   1.122 -0.0912  0.0707  0.6723
  407SOL     OW 1625   0.001   2.738   1.124 -0.5014 -0.2825 -0.1501
  407SOL    HW1 1626   0.056   2.742   1.202 -0.1591  1.6732  2.7497
  407SOL    HW2 1627   0.048   2.766   1.052 -4.9071 -1.3183 -0.6265
  407SOL     MW 1628   0.014   2.742   1.125 -1.0376 -0.1611  0.1696
  408SOL     OW 1629   2.058   2.060   0.738 -0.4813  0.2967  0.3279
  408SOL    HW1 1630   2.007   2.109   0.802 -2.0019 -0.6545  1.6425
  408SOL    HW2 1631   1.997   2.029   0.675  1.7893  3.0678  1.2898
  408SOL     MW 1632   2.043   2.062   0.738 -0.3823  0.5368  0.6283
  409SOL     OW 1633   1.358   0.044   0.928  0.3565  0.9959 -0.2860
  409SOL    HW1 1634   1.372   0.124   0.975 -4.0025  0.1203 -0.4739
  409SOL    HW2 1635   1.429  -0.013   0.958  1.5538  2.0688  1.2348
  409SOL     MW 1636   1.369   0.047   0.938 -0.0606  1.0219 -0.1101
  410SOL     OW 1637   1.138   2.430   1.054  0.5529  0.0996 -0.2408
  410SOL    HW1 1638   1.071   2.480   1.004  2.1724 -0.4744 -2.7488
  410SOL    HW2 1639   1.167   2.367   0.990  1.2257 -0.9410 -1.9636
  410SOL     MW 1640   1.133   2.428   1.039  0.8554 -0.1134 -0.7990
  411SOL     OW 1641   1.954   0.028   2.851 -0.1725 -0.2591 -0.6089
  411SOL    HW1 1642   1.895  -0.016   2.790 -0.6303 -0.2222 -0.2971
  411SOL    HW2 1643   1.905   0.045   2.935 -2.2867  2.0006 -0.1091
  411SOL     MW 1644   1.940   0.025   2.854 -0.5118  0.0439 -0.5019
  412SOL     OW 1645   0.992   2.255   0.594 -0.5577 -0.1674 -0.0866
  412SOL    HW1 1646   1.027   2.348   0.616 -0.5450  0.5515 -1.0233
  412SOL    HW2 1647   0.901   2.276   0.556 -2.7780  2.4841  0.8575
  412SOL     MW 1648   0.985   2.270   0.591 -0.8490  0.2773 -0.0856
  413SOL     OW 1649   0.537   2.741   3.100 -0.4789  0.6390 -0.8661
  413SOL    HW1 1650   0.588   2.659   3.131  0.6012 -1.0048 -0.6329
  413SOL    HW2 1651   0.594   2.766   3.030 -3.6879 -2.5730  1.1542
  413SOL     MW 1652   0.551   2.733   3.095 -0.7598 -0.0017 -0.5687
  414SOL     OW 1653   1.925   3.003   1.074  0.4157  0.0089  0.0446
  414SOL    HW1 1654   1.875   2.974   0.992 -0.0173 -0.6454  0.6089
  414SOL    HW2 1655   1.997   2.941   1.079  2.5757  0.6823 -0.9561
  414SOL     MW 1656   1.928   2.991   1.064  0.6436  0.0114 -0.0130
  415SOL     OW 1657   1.729   2.562   1.126  0.2098 -0.3044  0.0256
  415SOL    HW1 1658   1.706   2.489   1.177 -1.4887 -1.7095 -2.0954
  415SOL    HW2 1659   1.797   2.600   1.184 -0.6308  1.3364  0.7900
  415SOL     MW 1660   1.735   2.557   1.140 -0.1252 -0.2733 -0.1534
  416SOL     OW 1661   0.543   1.946   1.364 -0.4916 -0.1102 -0.2355
  416SOL    HW1 1662   0.498   2.006   1.305  0.6108  0.8702  0.5611
  416SOL    HW2 1663   0.508   1.863   1.358  0.4187  2.5870 -2.4009
  416SOL     MW 1664   0.532   1.943   1.355 -0.2261  0.3750 -0.4161
  417SOL     OW 1665   0.967   3.011   2.052  0.5650  0.1981  0.4715
  417SOL    HW1 1666   0.926   3.015   2.133 -0.4145 -0.3239  0.1354
  417SOL    HW2 1667   0.911   2.952   1.999  0.4676 -0.5124 -2.5107
  417SOL     MW 1668   0.954   3.003   2.056  0.4229  0.0355  0.0337
  418SOL     OW 1669   0.623   2.950   0.170  0.6528  0.0749 -0.6025
  418SOL    HW1 1670   0.714   2.955   0.133 -0.3512  0.5804  1.0482
  418SOL    HW2 1671   0.583   2.881   0.108 -0.4658  1.5271  0.4460
  418SOL     MW 1672   0.630   2.941   0.157  0.3727  0.3332 -0.2464
  419SOL     OW 1673   0.458   2.618   1.403 -0.0752 -0.1961 -0.1975
  419SOL    HW1 1674   0.520   2.685   1.430 -1.5037  2.8221  2.6138
  419SOL    HW2 1675   0.498   2.594   1.322  0.3258 -3.3631 -0.6118
  419SOL     MW 1676   0.472   2.623   1.396 -0.2108 -0.2158  0.1187
  420SOL     OW 1677   0.842   2.172   0.987  0.6322  0.2388 -0.5821
  420SOL    HW1 1678   0.797   2.199   1.070  3.1457  1.5563 -1.2974
  420SOL    HW2 1679   0.874   2.253   0.954 -0.7578  1.4240  1.9854
  420SOL     MW 1680   0.840   2.186   0.993  0.7804  0.5690 -0.3377
  421SOL     OW 1681   2.941   0.071   0.016  0.1266 -0.5065 -0.0631
  421SOL    HW1 1682   2.897   0.025  -0.057 -2.2767 -0.9355  0.6618
  421SOL    HW2 1683   2.958  -0.011   0.067  0.0230 -2.2786  0.3192
  421SOL     MW 1684   2.937   0.054   0.013 -0.2042 -0.7969  0.0830
  422SOL     OW 1685   0.903   2.437   0.909  0.1616  0.4574 -0.2321
  422SOL    HW1 1686   0.842   2.487   0.960 -1.4618 -1.3014 -0.7787
  422SOL    HW2 1687   0.876   2.441   0.823  1.2039  2.0144  1.0971
  422SOL     MW 1688   0.892   2.444   0.904  0.0849  0.4308 -0.1289
  423SOL     OW 1689   1.520   0.154   0.503  0.1213 -0.3153 -0.1482
  423SOL    HW1 1690   1.517   0.138   0.410 -0.0522  1.8770 -1.0240
  423SOL    HW2 1691   1.495   0.243   0.520 -0.8767 -5.0363  1.6178
  423SOL     MW 1692   1.516   0.163   0.493 -0.0333 -0.6489 -0.0307
  424SOL     OW 1693   0.674   2.250   1.198 -0.1356  0.2517  0.1012
  424SOL    HW1 1694   0.579   2.221   1.187 -0.8819  0.1642 -2.9394
  424SOL    HW2 1695   0.689   2.262   1.296 -3.7297 -0.9514  2.9083
  424SOL     MW 1696   0.664   2.247   1.210 -0.7083  0.0814  0.0704
  425SOL     OW 1697   1.721   2.860   1.955  0.0921  0.2104  0.0462
  425SOL    HW1 1698   1.741   2.867   1.856  0.0552  0.1311 -2.4591
  425SOL    HW2 1699   1.745   2.772   1.987  0.8448 -1.7316 -1.7570
  425SOL     MW 1700   1.727   2.850   1.946  0.1865 -0.0563 -0.5223
  426SOL     OW 1701   0.832   1.683   1.939 -0.1221 -0.3072  0.4103
  426SOL    HW1 1702   0.788   1.699   1.853 -0.6668  1.7963  0.3132
  426SOL    HW2 1703   0.801   1.758   2.002 -0.7986 -1.9844  0.5951
  426SOL     MW 1704   0.822   1.695   1.936 -0.2832 -0.2509  0.4219
  427SOL     OW 1705   0.336   1.546   1.904 -0.4503  0.3597 -0.0966
  427SOL    HW1 1706   0.374   1.460   1.894  0.7523 -0.2799 -1.9623
  427SOL    HW2 1707   0.246   1.528   1.930  3.7105 -0.3235  2.1835
  427SOL     MW 1708   0.329   1.532   1.906  0.2573  0.1851 -0.0419
  428SOL     OW 1709   0.576   2.561   1.169 -0.0825  0.5823 -0.1141
  428SOL    HW1 1710   0.641   2.519   1.226 -0.7020 -0.2606 -0.4893
  428SOL    HW2 1711   0.518   2.486   1.154  1.8530 -0.5258  0.7297
  428SOL     MW 1712   0.577   2.545   1.175  0.0912  0.3249 -0.0523
  429SOL     OW 1713   1.320   2.637   1.073  0.3640  0.7430  0.3874
  429SOL    HW1 1714   1.267   2.558   1.082  0.0728 -1.8206 -1.6397
  429SOL    HW2 1715   1.270   2.700   1.014  0.5904  0.9619 -1.5132
  429SOL     MW 1716   1.306   2.635   1.066  0.3554  0.4336 -0.1308
  430SOL     OW 1717   1.169   2.717   0.667  0.1406  0.7095  0.4844
  430SOL    HW1 1718   1.172   2.621   0.687 -0.2371 -0.2445 -1.5217
  430SOL    HW2 1719   1.100   2.724   0.604  1.4768 -2.3925 -0.8093
  430SOL     MW 1720   1.160   2.705   0.661  0.2671  0.1744  0.0490
  431SOL     OW 1721   0.261   1.890   1.113  0.3582 -0.0159 -0.1654
  431SOL    HW1 1722   0.336   1.829   1.103 -1.4940  1.4309 -2.7048
  431SOL    HW2 1723   0.254   1.955   1.039  0.6284  0.1583  0.8572
  431SOL     MW 1724   0.270   1.891   1.102  0.1495  0.1980 -0.3655
  432SOL     OW 1725   0.010   0.048   1.121 -0.1813 -0.4979 -0.3892
  432SOL    HW1 1726   0.020   0.058   1.219  2.9938 -1.2643 -1.6289
  432SOL    HW2 1727  -0.075   0.005   1.117  0.5065  2.0461  0.3252
  432SOL     MW 1728   0.000   0.044   1.134  0.3284 -0.2634 -0.4585
  433SOL     OW 1729   0.621   2.851   1.424 -0.1395 -0.0212  0.7392
  433SOL    HW1 1730   0.642   2.877   1.517 -2.4812  0.8076 -0.7225
  433SOL    HW2 1731   0.701   2.880   1.376 -0.4579  1.0090 -0.6456
  433SOL     MW 1732   0.635   2.858   1.430 -0.4905  0.2240  0.3636
  434SOL     OW 1733   1.579   2.869   1.475 -0.0323  0.4707 -0.1889
  434SOL    HW1 1734   1.486   2.898   1.483  1.5288 -1.3528  0.3186
  434SOL    HW2 1735   1.577   2.840   1.386 -0.9046  1.0345 -1.2709
  434SOL     MW 1736   1.567   2.869   1.464  0.0586  0.3045 -0.2647
  435SOL     OW 1737   2.811   1.811   0.186 -0.0920  0.6100 -0.0063
  435SOL    HW1 1738   2.864   1.881   0.148  1.2317  1.0578 -0.8946
  435SOL    HW2 1739   2.796   1.753   0.106  0.1012 -0.4788 -0.9197
  435SOL     MW 1740   2.816   1.813   0.170  0.1081  0.5254 -0.2440
  436SOL     OW 1741   1.272   2.774   0.309 -0.0733  0.5723  0.2194
  436SOL    HW1 1742   1.312   2.726   0.381  1.3613 -0.2264  0.3841
  436SOL    HW2 1743   1.247   2.853   0.352  0.1433 -0.2801 -0.7501
  436SOL     MW 1744   1.274   2.778   0.324  0.1445  0.3545  0.1132
  437SOL     OW 1745   0.880   2.905   1.360  0.4082  0.1179  0.1215
  437SOL    HW1 1746   0.905   2.983   1.306  1.5898 -0.7450  0.0602
  437SOL    HW2 1747   0.914   2.829   1.311 -0.0396 -0.4327  1.2885
  437SOL     MW 1748   0.888   2.906   1.346  0.5050 -0.0686  0.2674
  438SOL     OW 1749   0.891   2.598   1.950 -0.2603 -0.0316 -0.1589
  438SOL    HW1 1750   0.865   2.553   2.031 -1.6039 -0.0733 -4.2322
  438SOL    HW2 1751   0.845   2.536   1.895  1.7648  0.7352 -2.1726
  438SOL     MW 1752   0.882   2.584   1.953 -0.1704  0.0641 -0.9620
  439SOL     OW 1753   1.085   2.132   0.359 -0.0878  0.1287  0.0839
  439SOL    HW1 1754   1.058   2.158   0.445 -2.5056 -0.9247  0.2454
  439SOL    HW2 1755   1.110   2.213   0.314 -0.8063  0.5448  1.6520
  439SOL     MW 1756   1.084   2.146   0.365 -0.5016  0.0446  0.3121
  440SOL     OW 1757   1.667   2.929   3.039  0.4874  0.9924 -0.0492
  440SOL    HW1 1758   1.603   2.931   3.112 -0.7070 -0.6034  3.9779
  440SOL    HW2 1759   1.738   2.874   3.067 -1.1750  1.7164 -1.2529
  440SOL     MW 1760   1.668   2.922   3.052  0.1105  0.8774  0.3233
  441SOL     OW 1761   0.352   2.635   0.517  0.2133  0.0939 -0.4182
  441SOL    HW1 1762   0.335   2.612   0.423 -4.0503  1.3712  1.4138
  441SOL    HW2 1763   0.360   2.731   0.514  1.1695  4.2392  0.2786
  441SOL     MW 1764   0.351   2.644   0.504 -0.2231  0.8094 -0.0846
  442SOL     OW 1765   3.049   2.361   0.633 -0.1050 -0.0667  0.0236
  442SOL    HW1 1766   3.069   2.447   0.663  1.4918 -2.5438 -1.9036
  442SOL    HW2 1767   2.960   2.343   0.665  0.0471  0.9694  0.3420
  442SOL     MW 1768   3.040   2.370   0.641  0.1258 -0.2568 -0.1887
  443SOL     OW 1769   1.372   1.752   1.876  1.2168  0.2729  0.8200
  443SOL    HW1 1770   1.332   1.800   1.801 -0.1974 -2.3554  1.8382
  443SOL    HW2 1771   1.303   1.686   1.882  0.2782 -0.9255  1.6331
  443SOL     MW 1772   1.358   1.749   1.867  0.9064 -0.2320  1.0616
  444SOL     OW 1773   0.933   2.572   1.565  0.1659 -0.0467  0.7701
  444SOL    HW1 1774   1.006   2.520   1.610  0.6909 -1.4960  1.1963
  444SOL    HW2 1775   0.857   2.561   1.623  1.9248  2.3593  1.4945
  444SOL     MW 1776   0.933   2.563   1.579  0.4672  0.0796  0.9219
  445SOL     OW 1777   0.949   0.028   1.255 -0.2147 -0.4539  0.2195
  445SOL    HW1 1778   0.917   0.119   1.270  0.8090  2.4415 -0.2026
  445SOL    HW2 1779   1.028   0.048   1.204 -2.2793 -2.3920 -2.4257
  445SOL     MW 1780   0.955   0.043   1.250 -0.3520 -0.3276 -0.1852
  446SOL     OW 1781   2.693   2.841   1.104 -0.0799 -0.1418 -0.2221
  446SOL    HW1 1782   2.657   2.882   1.023 -1.5073  0.3793 -0.6752
  446SOL    HW2 1783   2.747   2.762   1.077 -1.9330 -1.2706 -0.7880
  446SOL     MW 1784   2.695   2.836   1.090 -0.5127 -0.2220 -0.3566
  447SOL     OW 1785   3.033   2.070   1.653  0.8679  0.1009  0.1526
  447SOL    HW1 1786   3.090   2.003   1.691 -0.4994  0.0145  0.6471
  447SOL    HW2 1787   2.973   2.016   1.599  0.7504  0.8691  4.5378
  447SOL     MW 1788   3.033   2.054   1.651  0.6720  0.1908  0.7964
  448SOL     OW 1789   1.693   2.341   1.673  0.9159  0.7058  0.4085
  448SOL    HW1 1790   1.628   2.263   1.663  0.6640  0.0396 -0.4152
  448SOL    HW2 1791   1.648   2.423   1.668 -0.0750 -3.3951 -0.8955
  448SOL     MW 1792   1.678   2.342   1.671  0.7519  0.0768  0.1278
  449SOL     OW 1793   0.764   2.859   0.374  0.0837 -0.2300  0.4060
  449SOL    HW1 1794   0.702   2.878   0.300 -1.1322 -1.4177  0.3215
  449SOL    HW2 1795   0.710   2.862   0.448 -2.4101  1.7152 -1.7946
  449SOL     MW 1796   0.749   2.862   0.374 -0.4057 -0.1300  0.1045
  450SOL     OW 1797   1.184   2.443   0.689 -0.2189  0.0645 -0.4524
  450SOL    HW1 1798   1.187   2.386   0.766  2.8028  1.9217  0.8636
  450SOL    HW2 1799   1.279   2.451   0.657  0.7523 -0.4740  1.2080
  450SOL     MW 1800   1.197   2.437   0.695  0.3079  0.2385 -0.0597
  451SOL     OW 1801   0.619   2.035   1.642 -0.0638  0.1813  0.2964
  451SOL    HW1 1802   0.658   2.120   1.670  0.4527  2.2269  0.3085
  451SOL    HW2 1803   0.615   2.036   1.546  1.9264  2.2885 -0.2222
  451SOL     MW 1804   0.624   2.046   1.633  0.2669  0.7292  0.2296
  452SOL     OW 1805   0.277   2.739   0.056  0.0698 -0.7209 -0.2076
  452SOL    HW1 1806   0.369   2.736   0.039 -0.4092 -3.2218  0.6122
  452SOL    HW2 1807   0.223   2.751  -0.028 -2.5313 -0.6794  0.1538
  452SOL     MW 1808   0.282   2.740   0.042 -0.3366 -1.0454 -0.0517
  453SOL     OW 1809   0.381   3.030   1.712 -0.4821 -0.3422 -0.2852
  453SOL    HW1 1810   0.480   3.014   1.711  1.1010  0.7805 -0.0831
  453SOL    HW2 1811   0.353   3.028   1.622  1.5505  1.1522  0.5047
  453SOL     MW 1812   0.391   3.028   1.700 -0.0050  0.0031 -0.1543
  454SOL     OW 1813   1.002   2.688   1.206 -0.6977  0.1264 -0.2451
  454SOL    HW1 1814   0.929   2.628   1.231 -2.4230  1.6980 -0.5314
  454SOL    HW2 1815   0.965   2.732   1.130 -0.5125 -0.6975 -2.0917
  454SOL     MW 1816   0.987   2.686   1.199 -0.9009  0.2250 -0.5266
  455SOL     OW 1817   1.525   2.938   0.190  0.0821 -0.3316 -0.3965
  455SOL    HW1 1818   1.573   2.896   0.265 -0.6640  1.6030  2.0659
  455SOL    HW2 1819   1.446   2.885   0.188  0.8726  1.2725 -0.2843
  455SOL     MW 1820   1.521   2.925   0.200  0.0879  0.1353 -0.0568
  456SOL     OW 1821   2.901   0.358   1.312 -0.0735 -0.1222 -0.0621
  456SOL    HW1 1822   2.839   0.288   1.272  0.3846 -1.5310 -0.1273
  456SOL    HW2 1823   2.981   0.375   1.255  0.8060 -0.9096  1.7202
  456SOL     MW 1824   2.903   0.351   1.299  0.1030 -0.4119  0.1644
  457SOL     OW 1825   0.929   1.548   2.997  0.3107 -0.1898 -0.2891
  457SOL    HW1 1826   0.837   1.552   3.028  0.7893 -1.3323  1.8878
  457SOL    HW2 1827   0.977   1.498   3.057 -1.8046 -1.6153 -1.9044
  457SOL     MW 1828   0.923   1.542   3.009  0.0947 -0.5287 -0.2150
  458SOL     OW 1829   1.448   1.392   0.551 -0.2782 -0.5384 -0.6700
  458SOL    HW1 1830   1.377   1.427   0.605  1.9358  0.2539 -0.6994
  458SOL    HW2 1831   1.412   1.331   0.486 -0.3677  2.8159  0.7351
  458SOL     MW 1832   1.434   1.389   0.549  0.0021  0.0087 -0.4885
  459SOL     OW 1833   1.538   0.097   0.217 -1.0935  0.1821 -0.1186
  459SOL    HW1 1834   1.509   0.004   0.211  1.2975 -3.2130  1.0746
  459SOL    HW2 1835   1.478   0.143   0.158  0.1913  0.1180 -0.4448
  459SOL     MW 1836   1.526   0.091   0.209 -0.6085 -0.2743 -0.0042
  460SOL     OW 1837   1.795   2.146   0.685  0.3596  0.4163  0.5673
  460SOL    HW1 1838   1.703   2.140   0.720  2.4667 -0.3468 -0.3320
  460SOL    HW2 1839   1.796   2.077   0.615 -1.0508  1.9960 -2.3303
  460SOL     MW 1840   1.783   2.136   0.680  0.4515  0.5241  0.0663
  461SOL     OW 1841   0.505   2.405   0.615  0.0387 -0.3080  0.0156
  461SOL    HW1 1842   0.436   2.457   0.572  1.5381 -0.1378 -2.3309
  461SOL    HW2 1843   0.489   2.429   0.707  0.5759  0.7060 -1.0227
  461SOL     MW 1844   0.494   2.415   0.621  0.3074 -0.1518 -0.4310
  462SOL     OW 1845   0.333   0.232   1.276  0.3037 -0.1504 -0.3899
  462SOL    HW1 1846   0.406   0.172   1.228  1.9306 -2.5391  0.5658
  462SOL    HW2 1847   0.376   0.285   1.338  1.6855 -0.6199 -0.3254
  462SOL     MW 1848   0.348   0.231   1.277  0.7007 -0.5275 -0.2553
  463SOL     OW 1849   0.907   3.085   0.688 -0.6753  0.2375  0.1491
  463SOL    HW1 1850   0.932   3.095   0.593  0.3334  3.5026  0.5177
  463SOL    HW2 1851   0.816   3.101   0.693  1.1139 -1.0353  0.3621
  463SOL     MW 1852   0.899   3.088   0.676 -0.3062  0.5003  0.2258
  464SOL     OW 1853   0.785   3.046   2.252  0.5902 -0.0865  0.2170
  464SOL    HW1 1854   0.744   2.956   2.239 -2.9835 -3.1697  0.4959
  464SOL    HW2 1855   0.819   3.048   2.342  2.2990 -1.3773  3.7876
  464SOL     MW 1856   0.784   3.035   2.262  0.3442 -0.6636  0.7249
  465SOL     OW 1857   0.653   0.309   0.480 -0.1337  0.5914 -0.2420
  465SOL    HW1 1858   0.630   0.257   0.559  0.6652 -0.6926 -0.0423
  465SOL    HW2 1859   0.693   0.245   0.414 -0.2993 -0.7244 -0.4869
  465SOL     MW 1860   0.655   0.294   0.482 -0.0502  0.2484 -0.2480
  466SOL     OW 1861   1.086   2.014   0.744  0.1872 -0.0927 -0.1465
  466SOL    HW1 1862   1.078   1.950   0.676  1.3603  0.1671  0.8186
  466SOL    HW2 1863   1.050   2.101   0.716  0.5031  0.8792 -1.3101
  466SOL     MW 1864   1.080   2.017   0.731  0.3836  0.0698 -0.1727
  467SOL     OW 1865   1.274   2.256   0.888  0.3327  0.4098  0.3097
  467SOL    HW1 1866   1.363   2.288   0.913  0.1073 -1.9835  0.4649
  467SOL    HW2 1867   1.274   2.163   0.868 -1.7524  0.2612  0.0965
  467SOL     MW 1868   1.286   2.248   0.889  0.0278  0.0745  0.3020
  468SOL     OW 1869   0.355   2.583   1.990  0.1180 -0.1141 -0.4626
  468SOL    HW1 1870   0.379   2.528   1.915 -1.6381 -1.4627  1.3950
  468SOL    HW2 1871   0.386   2.672   1.964 -1.4859  1.4168 -0.3382
  468SOL     MW 1872   0.363   2.588   1.977 -0.3253 -0.0901 -0.2011
  469SOL     OW 1873   0.369   2.135   1.773 -0.4581 -0.1233  0.0186
  469SOL    HW1 1874   0.321   2.055   1.776  1.2312  2.1718  0.8803
  469SOL    HW2 1875   0.454   2.113   1.731  1.8061 -0.0528  0.4131
  469SOL     MW 1876   0.374   2.121   1.768  0.0635  0.1888  0.1843
  470SOL     OW 1877   3.047   2.590   0.079 -0.3568 -0.4924 -0.5462
  470SOL    HW1 1878   2.979   2.561   0.137  0.6223 -0.6672  1.7033
  470SOL    HW2 1879   3.019   2.578  -0.012 -2.1166 -1.1263 -0.3746
  470SOL     MW 1880   3.035   2.584   0.075 -0.4598 -0.5991 -0.2267
  471SOL     OW 1881   1.244   2.737   1.409  0.1985  0.4168  0.3869
  471SOL    HW1 1882   1.182   2.740   1.485  0.5242  0.5562  1.6544
  471SOL    HW2 1883   1.189   2.745   1.330 -1.4913  0.7525 -0.8747
  471SOL     MW 1884   1.228   2.738   1.409  0.0185  0.4795  0.3877
  472SOL     OW 1885   2.906   2.058   0.389 -0.1845 -0.1048  0.3888
  472SOL    HW1 1886   2.918   2.033   0.294  1.5960  2.2958  0.2343
  472SOL    HW2 1887   2.882   1.969   0.411  0.5302 -0.5124 -0.1711
  472SOL     MW 1888   2.905   2.043   0.379  0.1447  0.1582  0.2946
  473SOL     OW 1889   0.802   2.474   1.338  0.5608  0.4532  0.1533
  473SOL    HW1 1890   0.879   2.424   1.307 -0.2909  1.9440  0.8440
  473SOL    HW2 1891   0.836   2.491   1.419 -2.0457  0.3557 -0.3009
  473SOL     MW 1892   0.817   2.470   1.344  0.1045  0.6371  0.1845
  474SOL     OW 1893   0.755   2.263   1.683 -0.1339 -0.5832 -0.2527
  474SOL    HW1 1894   0.830   2.247   1.738  1.6992 -0.1624 -1.5351
  474SOL    HW2 1895   0.784   2.250   1.596 -1.2395  4.0779  2.7379
  474SOL     MW 1896   0.769   2.259   1.679 -0.0379  0.0873 -0.0274
  475SOL     OW 1897   1.617   0.036   1.493 -0.0140 -0.4661 -0.0101
  475SOL    HW1 1898   1.535   0.055   1.438 -0.9893  1.6296  0.6451
  475SOL    HW2 1899   1.626  -0.061   1.481 -1.6182 -3.0345  2.6880
  475SOL     MW 1900   1.607   0.026   1.484 -0.3543 -0.5284  0.4324
  476SOL     OW 1901   1.496   2.627   0.859  0.1805 -0.2462 -0.2630
  476SOL    HW1 1902   1.430   2.621   0.934 -1.7309  1.2403  0.1802
  476SOL    HW2 1903   1.523   2.718   0.832 -0.2348  1.9903  1.1493
  476SOL     MW 1904   1.491   2.638   0.865 -0.1265  0.2450 -0.0182
  477SOL     OW 1905   0.801   2.521   0.663 -0.4332  0.5494 -0.2267
  477SOL    HW1 1906   0.874   2.575   0.636  1.6018  0.4660 -1.8721
  477SOL    HW2 1907   0.765   2.463   0.595 -0.9424 -0.8045  1.7981
  477SOL     MW 1908   0.805   2.521   0.651 -0.2319  0.3598 -0.1767
  478SOL     OW 1909   0.155   2.675   0.901 -0.3247  0.7033  0.3238
  478SOL    HW1 1910   0.213   2.749   0.920 -0.5650  1.0557 -1.6160
  478SOL    HW2 1911   0.214   2.616   0.865 -0.1820 -2.2106  0.0558
  478SOL     MW 1912   0.171   2.677   0.899 -0.3376  0.3653  0.0325
  479SOL     OW 1913   1.409   1.919   1.279 -0.0714  0.5537 -0.0123
  479SOL    HW1 1914   1.381   1.975   1.351 -1.0996  0.1177  0.1492
  479SOL    HW2 1915   1.499   1.904   1.293 -0.6188 -0.6099 -1.3776
  479SOL     MW 1916   1.417   1.924   1.290 -0.2793  0.3427 -0.1712
  480SOL     OW 1917   1.846   2.405   1.378 -0.4191  0.1268 -0.1692
  480SOL    HW1 1918   1.851   2.311   1.385 -0.0373  1.6128  1.1250
  480SOL    HW2 1919   1.897   2.416   1.300  2.2328 -0.2795  3.3068
  480SOL     MW 1920   1.853   2.394   1.369 -0.0188  0.2692  0.4602
  481SOL     OW 1921   1.180   0.061   1.123  0.0931 -0.0404  0.8099
  481SOL    HW1 1922   1.230   0.031   1.050 -0.4754  0.6289  0.8689
  481SOL    HW2 1923   1.185   0.159   1.103  2.3779  0.8414 -0.8072
  481SOL     MW 1924   1.187   0.070   1.111  0.3195  0.1642  0.6043
  482SOL     OW 1925   0.946   0.009   0.406 -0.6569 -0.1658  0.1103
  482SOL    HW1 1926   0.876  -0.032   0.351  0.1774 -0.7751 -1.3711
  482SOL    HW2 1927   0.956   0.099   0.375 -1.8429  1.5398  1.4859
  482SOL     MW 1928   0.938   0.015   0.394 -0.7033 -0.0212  0.0964
  483SOL     OW 1929   0.383   2.911   0.503 -0.0535  0.5979  0.1603
  483SOL    HW1 1930   0.294   2.912   0.460 -0.1289  1.6585 -0.7560
  483SOL    HW2 1931   0.359   2.972   0.581 -0.5612  1.9095  2.0965
  483SOL     MW 1932   0.368   2.920   0.508 -0.1304  0.9109  0.2948
  484SOL     OW 1933   1.676   1.857   1.380 -0.1161 -0.1928 -0.4369
  484SOL    HW1 1934   1.739   1.924   1.355  0.5760 -0.4370 -2.0046
  484SOL    HW2 1935   1.654   1.875   1.469  0.2766  1.1787 -0.4206
  484SOL     MW 1936   1.682   1.868   1.388  0.0270 -0.0441 -0.6416
  485SOL     OW 1937   0.549   2.393   0.276 -0.9126  0.2916  0.2600
  485SOL    HW1 1938   0.604   2.416   0.358  1.7552  1.9938  2.2471
  485SOL    HW2 1939   0.465   2.440   0.256  0.6433 -1.1933 -1.5947
  485SOL     MW 1940   0.545   2.402   0.284 -0.3553  0.3203  0.2775
  486SOL     OW 1941   0.128   2.458   1.396  0.0623  0.1599  0.1101
  486SOL    HW1 1942   0.145   2.547   1.357  0.5676 -2.7073  0.0791
  486SOL    HW2 1943   0.124   2.474   1.491 -2.7828 -1.2864  1.0050
  486SOL     MW 1944   0.130   2.472   1.403 -0.2464 -0.4092  0.2240
  487SOL     OW 1945   1.273   1.602   1.097  0.1501 -0.0659  0.3363
  487SOL    HW1 1946   1.242   1.697   1.096  0.0059  1.0217 -1.2838
  487SOL    HW2 1947   1.351   1.608   1.033  1.7237 -0.6149 -2.4975
  487SOL     MW 1948   1.280   1.616   1.089  0.3387  0.0052 -0.2513
  488SOL     OW 1949   1.611   1.859   0.575  0.1566 -0.1922 -0.1531
  488SOL    HW1 1950   1.702   1.879   0.550 -0.8984  0.9750  1.1485
  488SOL    HW2 1951   1.560   1.870   0.494  0.9631  0.7972 -0.4866
  488SOL     MW 1952   1.616   1.863   0.561  0.1238  0.0923 -0.0253
  489SOL     OW 1953   0.763   0.804   0.534 -0.3822 -0.4353  0.6781
  489SOL    HW1 1954   0.778   0.724   0.481 -0.7032  0.3797  1.0694
  489SOL    HW2 1955   0.769   0.788   0.628  0.4581 -0.0571  0.8728
  489SOL     MW 1956   0.766   0.791   0.539 -0.3137 -0.2779  0.7554
  490SOL     OW 1957   1.412   2.113   0.440  0.1283 -0.1740  0.4538
  490SOL    HW1 1958   1.444   2.203   0.416  1.0535  0.9529  0.6289
  490SOL    HW2 1959   1.321   2.115   0.405 -1.9835  0.3346  0.2855
  490SOL     MW 1960   1.404   2.125   0.432 -0.0282  0.0418  0.4547
  491SOL     OW 1961   1.194   2.992   0.445  0.3193  0.6511  0.6179
  491SOL    HW1 1962   1.253   3.032   0.505 -0.1979  0.2744  1.6123
  491SOL    HW2 1963   1.113   3.039   0.435 -1.4885 -1.9650  1.1530
  491SOL     MW 1964   1.191   3.004   0.451  0.0125  0.2562  0.8197
  492SOL     OW 1965   1.540   2.139   0.718 -0.1184 -0.0104  0.1790
  492SOL    HW1 1966   1.509   2.094   0.633 -0.1162  2.4207 -0.1639
  492SOL    HW2 1967   1.487   2.084   0.782  0.2841  0.0849  1.2800
  492SOL     MW 1968   1.529   2.126   0.715 -0.0650  0.3229  0.2790
  493SOL     OW 1969   0.135   2.918   0.399 -0.2040  0.3351 -0.6727
  493SOL    HW1 1970   0.088   2.975   0.461 -0.9772 -1.3288 -2.3328
  493SOL    HW2 1971   0.147   2.974   0.321 -0.4334  0.0782 -1.4249
  493SOL     MW 1972   0.130   2.933   0.397 -0.3363  0.0817 -0.9910
  494SOL     OW 1973   0.436   2.410   1.769 -0.4594  0.0306 -0.4239
  494SOL    HW1 1974   0.395   2.319   1.790  0.4021  0.6793 -2.4267
  494SOL    HW2 1975   0.460   2.387   1.677 -0.6684 -0.6296  0.7869
  494SOL     MW 1976   0.434   2.395   1.760 -0.3733  0.0291 -0.5284
  495SOL     OW 1977   2.890   1.662   2.718 -0.4692  0.0021 -0.1773
  495SOL    HW1 1978   2.890   1.730   2.789 -1.2562 -0.2914  1.5609
  495SOL    HW2 1979   2.900   1.587   2.777 -1.3995  0.4388  1.6393
  495SOL     MW 1980   2.891   1.661   2.735 -0.6958  0.0210  0.2917
  496SOL     OW 1981   2.854   2.313   2.637 -0.0094  0.4178 -0.1108
  496SOL    HW1 1982   2.856   2.224   2.674 -0.8043 -0.4280  0.0483
  496SOL    HW2 1983   2.931   2.360   2.662  0.5482 -0.6710 -2.3061
  496SOL     MW 1984   2.864   2.307   2.645 -0.0407  0.1626 -0.3794
  497SOL     OW 1985   1.509   2.309   2.525  0.5209  0.1483  0.9730
  497SOL    HW1 1986   1.499   2.271   2.439  0.1691 -0.4850  1.1793
  497SOL    HW2 1987   1.472   2.250   2.584  0.3097  1.4004 -1.8458
  497SOL     MW 1988   1.503   2.296   2.521  0.4466  0.2299  0.6283
  498SOL     OW 1989   1.586   2.724   2.253 -0.5424 -0.6732  0.4803
  498SOL    HW1 1990   1.571   2.629   2.250 -0.5625  2.4312 -0.8843
  498SOL    HW2 1991   1.652   2.727   2.320 -2.7829  1.0212 -1.0220
  498SOL     MW 1992   1.593   2.712   2.261 -0.8406 -0.0401  0.1021
  499SOL     OW 1993   0.922   0.158   3.095 -0.3744  0.1140 -0.0236
  499SOL    HW1 1994   0.879   0.189   3.172  1.3386  0.6539 -2.0174
  499SOL    HW2 1995   0.904   0.065   3.094 -0.1367  4.1458  1.1712
  499SOL     MW 1996   0.914   0.150   3.105 -0.1170  0.7172 -0.1290
  500SOL     OW 1997   1.005   2.444   2.791 -0.2138 -0.2145  0.2926
  500SOL    HW1 1998   1.065   2.449   2.863 -0.4125  0.5574  0.2967
  500SOL    HW2 1999   0.937   2.509   2.809  0.4138  2.4380  0.2066
  500SOL     MW 2000   1.004   2.453   2.803 -0.1572  0.2373  0.2818
  501SOL     OW 2001   1.748   2.235   3.069  0.3624  0.3303  0.3031
  501SOL    HW1 2002   1.722   2.317   3.108 -2.2041  0.6881 -1.0410
  501SOL    HW2 2003   1.840   2.231   3.096 -0.2351  2.4074  0.2538
  501SOL     MW 2004   1.757   2.245   3.078 -0.0551  0.6516  0.1193
  502SOL     OW 2005   0.112   2.804   2.934 -0.0253  0.4368  0.1501
  502SOL    HW1 2006   0.042   2.737   2.919 -1.1469  0.1258  2.3119
  502SOL    HW2 2007   0.134   2.852   2.849 -0.0593 -0.0681 -0.5897
  502SOL     MW 2008   0.106   2.802   2.921 -0.1778  0.3292  0.3377
  503SOL     OW 2009   1.135   2.617   2.056  0.2051  0.0310 -0.2834
  503SOL    HW1 2010   1.208   2.599   1.996 -2.7206 -0.1224  0.7443
  503SOL    HW2 2011   1.052   2.603   2.007  0.5351 -0.3745 -1.8107
  503SOL     MW 2012   1.133   2.613   2.042 -0.1374 -0.0427 -0.3493
  504SOL     OW 2013   0.095   2.648   2.052  0.0043  0.0343 -0.2888
  504SOL    HW1 2014   0.181   2.629   2.010  1.5396 -2.2212  1.0093
  504SOL    HW2 2015   0.069   2.564   2.083 -0.0176  1.8795  1.6069
  504SOL     MW 2016   0.103   2.634   2.051  0.2040 -0.0198  0.1326
  505SOL     OW 2017   1.644   2.675   2.724  0.2289 -0.2883 -0.0838
  505SOL    HW1 2018   1.680   2.684   2.631  0.4516 -0.6070  0.4788
  505SOL    HW2 2019   1.601   2.759   2.749 -1.4441 -0.3996 -0.4110
  505SOL     MW 2020   1.643   2.687   2.715  0.0376 -0.3450 -0.0528
  506SOL     OW 2021   1.628   0.022   2.861  0.2910 -0.6446  0.5819
  506SOL    HW1 2022   1.659  -0.046   2.928  2.8502  1.1250  0.1675
  506SOL    HW2 2023   1.679   0.006   2.780  2.1528 -0.1794 -1.4069
  506SOL     MW 2024   1.639   0.011   2.859  0.8743 -0.3497  0.2648
  507SOL     OW 2025   0.898   2.684   2.869  0.6287 -0.1637  0.4075
  507SOL    HW1 2026   0.933   2.724   2.790  0.0037 -1.6444 -1.1189
  507SOL    HW2 2027   0.803   2.698   2.863  2.1305  1.1570 -0.1476
  507SOL     MW 2028   0.890   2.691   2.858  0.7443 -0.1848  0.1329
  508SOL     OW 2029   1.245   2.116   2.530 -0.3892  0.1205  0.0906
  508SOL    HW1 2030   1.283   2.114   2.618 -0.7894 -2.1145  0.0515
  508SOL    HW2 2031   1.170   2.169   2.550  2.4391 -2.5691 -1.3649
  508SOL     MW 2032   1.240   2.123   2.544 -0.0688 -0.5293 -0.1066
  509SOL     OW 2033   0.638   2.631   2.790  0.3906 -0.4150 -0.5081
  509SOL    HW1 2034   0.628   2.576   2.719  2.3040  0.4645  3.1696
  509SOL    HW2 2035   0.579   2.707   2.764  1.2718  0.6009  1.1471
  509SOL     MW 2036   0.629   2.633   2.777  0.7593 -0.1649  0.1955
  510SOL     OW 2037   1.568   2.608   1.646  0.1925  0.1791 -0.4710
  510SOL    HW1 2038   1.604   2.678   1.600 -1.8009 -2.1345  0.8010
  510SOL    HW2 2039   1.495   2.644   1.708 -0.2122 -1.9818 -2.9792
  510SOL     MW 2040   1.563   2.622   1.648 -0.1239 -0.4112 -0.6341
  511SOL     OW 2041   0.383   2.614   2.524  0.3156  0.2021 -0.7167
  511SOL    HW1 2042   0.461   2.574   2.553 -0.4882 -1.3580  1.1300
  511SOL    HW2 2043   0.399   2.624   2.425  2.8887  0.6464 -0.3671
  511SOL     MW 2044   0.395   2.610   2.515  0.5491  0.0549 -0.4269
  512SOL     OW 2045   0.992   2.034   2.887 -0.5357 -0.3860 -0.1091
  512SOL    HW1 2046   0.933   2.070   2.956 -0.2790  2.6801  0.8681
  512SOL    HW2 2047   1.033   1.964   2.939  0.4528  0.6152  0.5462
  512SOL     MW 2048   0.990   2.029   2.903 -0.3714  0.1507  0.1063
  513SOL     OW 2049   1.686   2.456   2.206 -0.7011 -0.0337 -0.4297
  513SOL    HW1 2050   1.752   2.520   2.157 -0.0948  3.2020  0.2595
  513SOL    HW2 2051   1.744   2.444   2.285 -1.4462  0.4509  1.4870
  513SOL     MW 2052   1.703   2.463   2.210 -0.7194  0.4571 -0.0859
  514SOL     OW 2053   0.248   2.404   2.676  0.3832  0.5110  0.3651
  514SOL    HW1 2054   0.304   2.483   2.657 -0.7853  0.7424 -0.7239
  514SOL    HW2 2055   0.281   2.352   2.749 -0.0640 -0.6507  1.4161
  514SOL     MW 2056   0.260   2.408   2.683  0.1700  0.3882  0.3601
  515SOL     OW 2057   1.065   2.066   1.931 -0.0606  0.8091  0.1839
  515SOL    HW1 2058   1.056   2.159   1.908 -0.1427 -1.7828 -0.7612
  515SOL    HW2 2059   1.142   2.061   1.987  0.5074 -0.0032  3.1311
  515SOL     MW 2060   1.074   2.078   1.935  0.0035  0.3599  0.4480
  516SOL     OW 2061   1.412   2.498   2.967  0.0281 -0.1783  0.5060
  516SOL    HW1 2062   1.418   2.483   2.873 -1.6258 -2.8966  0.6860
  516SOL    HW2 2063   1.316   2.490   2.981 -1.2601 -3.8470  1.2293
  516SOL     MW 2064   1.400   2.495   2.957 -0.3601 -1.0210  0.6252
  517SOL     OW 2065   0.604   2.405   2.266 -0.0029  0.1763  0.1314
  517SOL    HW1 2066   0.540   2.472   2.289  2.3714  1.3592 -1.0874
  517SOL    HW2 2067   0.548   2.351   2.203 -3.1783 -1.6709 -3.7601
  517SOL     MW 2068   0.588   2.406   2.261 -0.1086  0.0887 -0.5428
  518SOL     OW 2069   1.846   0.048   0.008  0.3538  0.5698  0.5449
  518SOL    HW1 2070   1.778   0.110   0.042  0.4842  1.8726 -1.5631
  518SOL    HW2 2071   1.807  -0.041   0.023  0.6622 -3.3995  0.1449
  518SOL     MW 2072   1.832   0.045   0.015  0.4117  0.2180  0.2140
  519SOL     OW 2073   0.713   2.527   1.723  0.1542 -0.5312 -0.1961
  519SOL    HW1 2074   0.725   2.430   1.695 -0.1922 -1.5591 -3.4692
  519SOL    HW2 2075   0.622   2.534   1.749 -0.4404  0.3704  1.8036
  519SOL     MW 2076   0.702   2.515   1.722  0.0300 -0.5479 -0.3641
  520SOL     OW 2077   1.208   2.201   2.954  0.1495  0.1370 -0.4664
  520SOL    HW1 2078   1.123   2.159   2.923 -1.7843  0.6842 -1.6351
  520SOL    HW2 2079   1.245   2.146   3.030 -3.2671 -0.8631  2.7919
  520SOL     MW 2080   1.202   2.188   2.960 -0.5564  0.0772 -0.1907
  521SOL     OW 2081   1.757   2.034   2.231 -0.5492 -0.2108 -0.6826
  521SOL    HW1 2082   1.751   2.035   2.132  1.6759 -1.9074  0.3247
  521SOL    HW2 2083   1.744   1.938   2.239  1.1785 -0.8748  2.3626
  521SOL     MW 2084   1.754   2.022   2.219 -0.0277 -0.5223 -0.1479
  522SOL     OW 2085   2.917   2.514   2.279  0.1784  0.3656  0.4084
  522SOL    HW1 2086   2.995   2.457   2.261 -0.3598 -1.9597 -1.6476
  522SOL    HW2 2087   2.941   2.601   2.283  2.2795 -2.2406  1.2283
  522SOL     MW 2088   2.931   2.518   2.277  0.3846 -0.2850  0.2453
  523SOL     OW 2089   0.907   1.505   2.130  0.0927 -0.4112 -0.5752
  523SOL    HW1 2090   0.850   1.560   2.068  1.7023 -0.5018 -0.5905
  523SOL    HW2 2091   0.958   1.444   2.078  0.7807  0.5134  0.2785
  523SOL     MW 2092   0.906   1.504   2.115  0.3959 -0.3012 -0.4646
  524SOL     OW 2093   0.590   2.389   2.943 -0.3546  0.1221  0.3215
  524SOL    HW1 2094   0.592   2.457   2.875 -1.6071  0.7398 -0.9491
  524SOL    HW2 2095   0.665   2.325   2.931  3.2785 -0.6674  1.7150
  524SOL     MW 2096   0.600   2.390   2.932 -0.0405  0.0994  0.3377
  525SOL     OW 2097   0.458   2.203   2.137 -0.0689  0.5932 -0.2162
  525SOL    HW1 2098   0.415   2.123   2.178 -2.4070 -0.8955 -0.1135
  525SOL    HW2 2099   0.515   2.159   2.073  0.8699  2.6788  0.0451
  525SOL     MW 2100   0.460   2.186   2.134 -0.2535  0.6719 -0.1682
  526SOL     OW 2101   0.695   2.117   1.990  0.5003  0.1083  0.0940
  526SOL    HW1 2102   0.700   2.158   1.911 -2.8030 -4.4748  3.3633
  526SOL    HW2 2103   0.767   2.161   2.036 -2.6654  0.8180 -1.9495
  526SOL     MW 2104   0.705   2.129   1.986 -0.3532 -0.4027  0.2557
  527SOL     OW 2105   1.326   1.948   2.077  0.2707  0.5742  0.1928
  527SOL    HW1 2106   1.345   1.938   2.167  0.4128  1.5821 -2.0380
  527SOL    HW2 2107   1.335   1.864   2.041  0.4587  1.1580  3.4580
  527SOL     MW 2108   1.329   1.936   2.084  0.3143  0.7842  0.3293
  528SOL     OW 2109   0.683   2.918   2.921  0.0902 -0.1380  0.4839
  528SOL    HW1 2110   0.656   3.011   2.929 -1.7499  0.1733 -2.7377
  528SOL    HW2 2111   0.652   2.888   2.827  1.8144  0.0856 -1.9324
  528SOL     MW 2112   0.675   2.927   2.910  0.0749 -0.0674 -0.2599
  529SOL     OW 2113   0.941   2.333   1.896  0.3673 -0.0071 -0.4793
  529SOL    HW1 2114   0.988   2.304   1.972 -0.1656 -1.8820  0.6951
  529SOL    HW2 2115   1.002   2.392   1.842 -1.1291  0.6643 -0.0620
  529SOL     MW 2116   0.955   2.337   1.899  0.0996 -0.1658 -0.2693
  530SOL     OW 2117   1.140   2.450   3.057  0.3068  0.1461  0.0315
  530SOL    HW1 2118   1.095   2.523   3.105 -1.8234  2.8550 -1.3376
  530SOL    HW2 2119   1.108   2.367   3.083  0.0271  1.3651 -2.1816
  530SOL     MW 2120   1.130   2.449   3.067 -0.0112  0.6643 -0.4411
  531SOL     OW 2121   0.978   1.903   2.649  0.5502  0.3222 -0.0090
  531SOL    HW1 2122   0.959   1.957   2.727 -0.5889  0.4274 -2.5248
  531SOL    HW2 2123   0.919   1.828   2.676 -0.9835 -1.1951  0.4953
  531SOL     MW 2124   0.968   1.900   2.663  0.1975  0.1359 -0.2744
  532SOL     OW 2125   1.702   0.298   2.836 -0.0097  0.2048  0.0090
  532SOL    HW1 2126   1.678   0.211   2.858  0.5206  2.1036  1.8299
  532SOL    HW2 2127   1.789   0.315   2.892  0.7113  0.1305  0.9493
  532SOL     MW 2128   1.711   0.289   2.847  0.1554  0.4455  0.3733
  533SOL     OW 2129   1.794   2.639   2.982 -0.6064 -0.3411  0.1257
  533SOL    HW1 2130   1.756   2.585   3.052 -1.0638  0.7386  1.0903
  533SOL    HW2 2131   1.724   2.634   2.909 -2.4945  1.5363 -2.4181
  533SOL     MW 2132   1.780   2.631   2.982 -0.9159  0.0490 -0.0827
  534SOL     OW 2133   1.775   2.386   2.463  0.5601 -0.6013  0.4532
  534SOL    HW1 2134   1.700   2.338   2.497  0.4367 -2.6645  0.5911
  534SOL    HW2 2135   1.861   2.375   2.520 -0.9272 -1.2964 -1.7997
  534SOL     MW 2136   1.777   2.378   2.475  0.3476 -0.9652  0.1741
  535SOL     OW 2137   1.831   2.323   1.957  0.0642 -0.1755  0.0757
  535SOL    HW1 2138   1.786   2.346   1.876 -0.5498  1.8392  0.2049
  535SOL    HW2 2139   1.928   2.329   1.946  1.1928  0.3412 -0.6541
  535SOL     MW 2140   1.838   2.327   1.944  0.1321  0.1585 -0.0036
  536SOL     OW 2141   0.468   1.830   2.020 -0.0669  0.0365  0.1300
  536SOL    HW1 2142   0.464   1.798   1.931  1.6305  0.7446 -1.4544
  536SOL    HW2 2143   0.560   1.843   2.035 -2.3399  0.6193 -1.4446
  536SOL     MW 2144   0.480   1.828   2.010 -0.1429  0.2068 -0.2868
  537SOL     OW 2145   1.117   0.190   2.895 -0.1220  0.6177 -0.0229
  537SOL    HW1 2146   1.056   0.184   2.966 -0.6355  0.0437  1.6041
  537SOL    HW2 2147   1.114   0.288   2.877  0.3189  1.6525 -0.7692
  537SOL     MW 2148   1.109   0.202   2.902 -0.1316  0.6785  0.0933
  538SOL     OW 2149   1.352   0.061   2.970  0.9645  0.4482  0.0553
  538SOL    HW1 2150   1.284   0.126   2.954  0.8015  0.4989  0.0357
  538SOL    HW2 2151   1.422   0.081   2.905  0.3986  0.7620 -1.2237
  538SOL     MW 2152   1.352   0.072   2.959  0.8683  0.4963 -0.1161
  539SOL     OW 2153   0.767   2.753   2.514 -0.4792  0.3380  0.4568
  539SOL    HW1 2154   0.851   2.792   2.539  0.1791  0.3833  0.4497
  539SOL    HW2 2155   0.789   2.656   2.522  2.0196 -1.4299 -0.0034
  539SOL     MW 2156   0.781   2.745   2.519 -0.0627  0.1107  0.3952
  540SOL     OW 2157   0.351   2.277   2.891 -0.2573  0.6757 -0.3410
  540SOL    HW1 2158   0.432   2.316   2.921 -0.0396 -0.8824 -2.5354
  540SOL    HW2 2159   0.319   2.226   2.964  3.1412  1.0791  1.9341
  540SOL     MW 2160   0.357   2.275   2.905  0.2198  0.5233 -0.3303
  541SOL     OW 2161   0.143   2.912   2.205 -0.0499  0.0772 -0.5343
  541SOL    HW1 2162   0.158   2.839   2.147  0.3998 -1.1156  0.4856
  541SOL    HW2 2163   0.192   2.885   2.289  3.3793  2.1107  0.6241
  541SOL     MW 2164   0.152   2.899   2.208  0.4619  0.1881 -0.2469
  542SOL     OW 2165   1.031   2.264   2.577  0.5902  0.4253 -0.7402
  542SOL    HW1 2166   0.983   2.197   2.614  1.9621  1.2768 -1.8327
  542SOL    HW2 2167   1.048   2.324   2.650  0.5351  0.5203 -0.2982
  542SOL     MW 2168   1.027   2.263   2.591  0.7639  0.5502 -0.8260
  543SOL     OW 2169   1.412   2.520   2.683 -0.3762  0.2428  0.2288
  543SOL    HW1 2170   1.442   2.445   2.623  2.4776 -1.4334 -1.7347
  543SOL    HW2 2171   1.489   2.577   2.677  1.0306  1.6880  0.5661
  543SOL     MW 2172   1.426   2.517   2.674  0.1859  0.2123  0.0142
  544SOL     OW 2173   0.578   0.236   2.701 -0.0303  0.1460 -0.0744
  544SOL    HW1 2174   0.478   0.214   2.716  1.7916 -0.9896 -0.6855
  544SOL    HW2 2175   0.605   0.181   2.626  3.3666  0.0417 -0.1168
  544SOL     MW 2176   0.568   0.225   2.693  0.6583 -0.0176 -0.1607
  545SOL     OW 2177   1.517   2.166   2.256  0.3010 -0.0644  0.1095
  545SOL    HW1 2178   1.479   2.170   2.169  0.2890  0.2751 -0.4877
  545SOL    HW2 2179   1.616   2.148   2.241  2.0392  1.7017 -1.7495
  545SOL     MW 2180   1.525   2.164   2.242  0.5287  0.2135 -0.2146
  546SOL     OW 2181   2.956   2.047   0.117 -0.3884 -0.1796 -0.1197
  546SOL    HW1 2182   2.969   2.137   0.071  3.2648  1.3612  0.5183
  546SOL    HW2 2183   3.044   2.013   0.091  1.3971  1.8636 -2.6891
  546SOL     MW 2184   2.969   2.054   0.107  0.3292  0.2933 -0.3746
  547SOL     OW 2185   0.226   2.980   0.148  0.0238 -0.0775  0.4056
  547SOL    HW1 2186   0.280   3.026   0.094 -0.1034 -0.5948  2.3494
  547SOL    HW2 2187   0.247   2.887   0.128  1.3026 -1.3647  0.4213
  547SOL     MW 2188   0.236   2.974   0.138  0.1758 -0.3156  0.6642
  548SOL     OW 2189   0.315   2.547   0.247  0.1459  0.1451 -0.5906
  548SOL    HW1 2190   0.320   2.606   0.174  1.7324 -0.0816  0.1289
  548SOL    HW2 2191   0.254   2.484   0.217  0.6247  3.4049  0.2993
  548SOL     MW 2192   0.307   2.546   0.233  0.4184  0.5453 -0.3783
  549SOL     OW 2193   0.744   1.877   2.088  0.8278  0.0798  0.5954
  549SOL    HW1 2194   0.733   1.973   2.059  3.5808  0.2399  1.2329
  549SOL    HW2 2195   0.792   1.887   2.172 -1.1870  0.4484 -0.1889
  549SOL     MW 2196   0.749   1.891   2.095  0.9252  0.1495  0.5760
  550SOL     OW 2197   1.819   1.751   2.511 -0.4254 -0.2175 -0.1902
  550SOL    HW1 2198   1.815   1.742   2.419  0.6044 -0.0079  1.7477
  550SOL    HW2 2199   1.796   1.836   2.535  1.0965 -0.3212 -0.9884
  550SOL     MW 2200   1.816   1.761   2.502 -0.0887 -0.2035 -0.0398
  551SOL     OW 2201   0.877   2.352   0.222  0.4724 -0.0025  0.3493
  551SOL    HW1 2202   0.967   2.375   0.252  3.5214 -1.4292 -0.1950
  551SOL    HW2 2203   0.875   2.259   0.207  1.1185  0.2990  0.4128
  551SOL     MW 2204   0.889   2.343   0.224  0.9599 -0.1510  0.2858
  552SOL     OW 2205   1.739   1.777   2.230 -0.0361  0.3428  0.1604
  552SOL    HW1 2206   1.648   1.746   2.240 -1.4460  2.0108 -1.8560
  552SOL    HW2 2207   1.778   1.734   2.149  2.5110 -3.5320 -3.9698
  552SOL     MW 2208   1.732   1.767   2.221  0.1140  0.0517 -0.6506
  553SOL     OW 2209   1.234   2.329   1.496 -0.2345  0.2802 -0.0551
  553SOL    HW1 2210   1.265   2.236   1.500  2.2358 -0.8247 -0.0108
  553SOL    HW2 2211   1.301   2.383   1.454  1.0481  0.0734 -1.9475
  553SOL     MW 2212   1.247   2.323   1.491  0.2606  0.1071 -0.2989
  554SOL     OW 2213   0.585   2.864   2.684  0.0860 -0.3405  0.0557
  554SOL    HW1 2214   0.540   2.939   2.634 -0.5107 -1.3543 -0.4603
  554SOL    HW2 2215   0.663   2.839   2.630  1.4761  2.7688  0.1844
  554SOL     MW 2216   0.589   2.871   2.670  0.1907 -0.0640  0.0046
  555SOL     OW 2217   0.606   2.462   2.579 -0.1409 -0.5050  0.2303
  555SOL    HW1 2218   0.578   2.364   2.586 -3.6565 -1.5867 -0.0542
  555SOL    HW2 2219   0.692   2.458   2.535  3.1494 -0.8899 -3.4949
  555SOL     MW 2220   0.613   2.449   2.574 -0.1706 -0.6985 -0.2987
  556SOL     OW 2221   0.937   1.783   0.175  0.0933  0.0277 -0.0859
  556SOL    HW1 2222   0.960   1.787   0.080  1.3774 -0.2885  0.4296
  556SOL    HW2 2223   1.025   1.817   0.206  1.6614 -0.5852  0.6471
  556SOL     MW 2224   0.952   1.788   0.167  0.4696 -0.0949  0.0788
  557SOL     OW 2225   0.957   2.715   0.513  0.7972 -0.0956  0.0994
  557SOL    HW1 2226   0.987   2.664   0.442  0.6880  0.6927  1.9274
  557SOL    HW2 2227   0.890   2.767   0.472 -0.7850  2.1698 -0.9516
  557SOL     MW 2228   0.952   2.715   0.498  0.5740  0.3073  0.2020
  558SOL     OW 2229   0.254   2.153   0.050 -0.0488 -0.7501 -0.2682
  558SOL    HW1 2230   0.222   2.065   0.065 -0.4580 -1.4234 -2.7855
  558SOL    HW2 2231   0.181   2.213   0.049 -0.3242  0.1169  0.5344
  558SOL     MW 2232   0.240   2.149   0.052 -0.1391 -0.7245 -0.4944
  559SOL     OW 2233   1.121   2.304   2.097 -0.2284  0.6300 -0.2839
  559SOL    HW1 2234   1.141   2.386   2.144  1.1539 -1.6748  0.5818
  559SOL    HW2 2235   1.137   2.237   2.170  1.0985 -1.1940  1.3549
  559SOL     MW 2236   1.126   2.306   2.113  0.1290  0.0852  0.0465
  560SOL     OW 2237   1.924   2.859   0.052 -0.3210  0.3479  0.7347
  560SOL    HW1 2238   1.993   2.900  -0.007  0.6896  1.1131 -0.7660
  560SOL    HW2 2239   1.923   2.774   0.008  0.3499  2.2399 -1.5329
  560SOL     MW 2240   1.933   2.853   0.038 -0.0992  0.6985  0.2375
  561SOL     OW 2241   0.452   2.120   0.232 -0.0474  0.4272  0.1604
  561SOL    HW1 2242   0.386   2.148   0.161  0.9574  1.9352 -0.8055
  561SOL    HW2 2243   0.500   2.207   0.254  2.1627 -5.1356  1.8470
  561SOL     MW 2244   0.450   2.135   0.226  0.3768 -0.1078  0.2555
  562SOL     OW 2245   0.860   2.180   2.223 -0.5537 -0.0442 -0.0427
  562SOL    HW1 2246   0.880   2.264   2.268  2.4704 -0.7230 -1.2313
  562SOL    HW2 2247   0.944   2.130   2.240 -0.8099 -2.0127  1.5678
  562SOL     MW 2248   0.874   2.184   2.231 -0.1885 -0.3935  0.0130
  563SOL     OW 2249   1.135   0.313   0.637 -0.2748 -0.0904  0.6042
  563SOL    HW1 2250   1.097   0.276   0.558  2.4402 -1.0516 -0.0221
  563SOL    HW2 2251   1.192   0.238   0.658 -1.5712 -1.3700  0.8979
  563SOL     MW 2252   1.138   0.298   0.630 -0.0877 -0.3861  0.5603
  564SOL     OW 2253   1.078   2.536   2.326 -0.4611  0.0286 -0.1573
  564SOL    HW1 2254   1.120   2.589   2.251 -0.6074 -0.4348 -0.5479
  564SOL    HW2 2255   1.130   2.565   2.404 -1.9858  0.5443 -0.6383
  564SOL     MW 2256   1.090   2.546   2.327 -0.6816  0.0355 -0.2723
  565SOL     OW 2257   2.876   2.681   2.596  0.2824  0.4339  0.5421
  565SOL    HW1 2258   2.936   2.720   2.536 -3.6255 -1.8048  0.8174
  565SOL    HW2 2259   2.796   2.665   2.547  0.1709  1.6416 -3.1957
  565SOL     MW 2260   2.874   2.684   2.582 -0.2479  0.2978  0.0853
  566SOL     OW 2261   2.161   1.841   2.428 -0.0845  0.2897  0.3640
  566SOL    HW1 2262   2.214   1.811   2.355 -0.4680 -1.8108  1.8929
  566SOL    HW2 2263   2.198   1.930   2.449 -0.8953 -0.8273 -3.0663
  566SOL     MW 2264   2.173   1.849   2.421 -0.2421 -0.1348  0.1132
  567SOL     OW 2265   1.131   2.958   3.043 -0.3717  0.0705 -0.4159
  567SOL    HW1 2266   1.196   3.022   3.025  0.0763  1.6318 -3.2666
  567SOL    HW2 2267   1.150   2.888   2.979  1.4120 -1.7099  2.7755
  567SOL     MW 2268   1.142   2.957   3.032 -0.0773  0.0416 -0.3710
  568SOL     OW 2269   1.586   2.044   2.925  0.3847  0.7327 -0.2518
  568SOL    HW1 2270   1.625   2.117   2.967 -2.0931 -1.1168  0.0769
  568SOL    HW2 2271   1.646   2.002   2.860  3.6451 -1.5929  0.3698
  568SOL     MW 2272   1.599   2.048   2.922  0.4880  0.1818 -0.1264
  569SOL     OW 2273   0.210   2.237   2.450 -0.1816 -0.1169  0.3508
  569SOL    HW1 2274   0.156   2.272   2.375  1.3686 -1.2187  1.5459
  569SOL    HW2 2275   0.211   2.301   2.524 -0.0057  3.2453 -1.2794
  569SOL     MW 2276   0.203   2.250   2.450  0.0461  0.1814  0.2934
  570SOL     OW 2277   1.490   0.432   0.469 -0.0381  0.2106  0.1402
  570SOL    HW1 2278   1.409   0.480   0.493 -2.0582 -1.5749  0.5090
  570SOL    HW2 2279   1.541   0.438   0.552  2.2616 -0.7286  1.2399
  570SOL     MW 2280   1.486   0.439   0.483 -0.0012 -0.1489  0.3339
  571SOL     OW 2281   1.496   2.410   2.002  0.0610 -0.2483 -0.0454
  571SOL    HW1 2282   1.554   2.421   2.081  0.9251 -0.5392  1.4389
  571SOL    HW2 2283   1.471   2.321   2.000 -1.4857 -0.3798 -0.8986
  571SOL     MW 2284   1.500   2.400   2.012 -0.0291 -0.3040  0.0379
  572SOL     OW 2285   0.929   2.612   0.019 -0.4329 -0.9640 -0.5885
  572SOL    HW1 2286   0.923   2.636  -0.073 -0.4732  0.3302  1.3589
  572SOL    HW2 2287   0.844   2.575   0.044 -0.8236 -1.9752 -0.6778
  572SOL     MW 2288   0.917   2.610   0.010 -0.4898 -0.9267 -0.3434
  573SOL     OW 2289   1.158   2.363   0.263  0.1170  0.0156 -0.0236
  573SOL    HW1 2290   1.235   2.368   0.200 -2.3639 -0.2292 -0.5179
  573SOL    HW2 2291   1.138   2.457   0.282 -2.4586  3.2489  0.8402
  573SOL     MW 2292   1.165   2.376   0.257 -0.5502  0.4099  0.0252
  574SOL     OW 2293   1.056   2.613   0.275  0.2784 -0.0391 -0.4386
  574SOL    HW1 2294   1.129   2.679   0.276 -0.1815  0.9043  0.0276
  574SOL    HW2 2295   1.009   2.643   0.200  1.4136 -1.3346 -0.4860
  574SOL     MW 2296   1.059   2.626   0.265  0.3675 -0.0855 -0.3834
  575SOL     OW 2297   3.090   2.315   1.789  0.4244 -0.2022  0.0566
  575SOL    HW1 2298   3.069   2.244   1.722 -1.6548  0.9446 -1.4937
  575SOL    HW2 2299   3.156   2.370   1.743 -0.6222 -2.2675 -3.6847
  575SOL     MW 2300   3.096   2.313   1.774  0.0120 -0.3234 -0.6416
  576SOL     OW 2301   2.869   1.798   2.031  0.7663 -0.0540  0.0563
  576SOL    HW1 2302   2.876   1.878   1.971  1.5591  1.6681  1.4742
  576SOL    HW2 2303   2.781   1.763   2.025  1.8675 -1.6219 -0.9982
  576SOL     MW 2304   2.858   1.804   2.022  1.0162 -0.0336  0.1042
  577SOL     OW 2305   2.135   0.282   0.061 -0.0272 -0.4515 -0.5587
  577SOL    HW1 2306   2.064   0.281  -0.004  2.3449 -2.4719 -2.4953
  577SOL    HW2 2307   2.098   0.244   0.146 -0.7874 -2.2602  3.0440
  577SOL     MW 2308   2.120   0.277   0.063  0.1854 -0.9567 -0.3388
  578SOL     OW 2309   1.924   2.051   2.457 -0.3404  0.2925 -0.3948
  578SOL    HW1 2310   1.874   2.065   2.380 -1.2013 -0.5863  3.1887
  578SOL    HW2 2311   1.977   1.976   2.432 -1.1199  0.0106  1.7706
  578SOL     MW 2312   1.924   2.043   2.444 -0.5568  0.1393  0.3637
  579SOL     OW 2313   0.864   2.473   2.509  0.1570  0.1508 -0.2344
  579SOL    HW1 2314   0.914   2.393   2.531  3.6793  0.7958  0.0760
  579SOL    HW2 2315   0.928   2.511   2.449  1.8629 -1.1032  1.1724
  579SOL     MW 2316   0.879   2.467   2.504  0.8468  0.0704 -0.0078
  580SOL     OW 2317   0.858   2.994   0.008  0.3320 -0.2561  0.2698
  580SOL    HW1 2318   0.948   2.960  -0.004 -1.1765 -0.4158 -0.8147
  580SOL    HW2 2319   0.797   2.961  -0.060  1.1902  1.1794 -0.1928
  580SOL     MW 2320   0.862   2.985  -0.003  0.2462 -0.0877  0.0657
  581SOL     OW 2321   1.136   2.454   1.707 -0.2357  0.3542 -0.7254
  581SOL    HW1 2322   1.211   2.480   1.759 -2.2965  0.2345 -1.8227
  581SOL    HW2 2323   1.175   2.395   1.640  0.0464 -3.2119  1.9570
  581SOL     MW 2324   1.151   2.449   1.705 -0.4704 -0.1321 -0.5163
  582SOL     OW 2325   3.087   2.874   2.518 -0.2680  0.0776  0.1620
  582SOL    HW1 2326   3.049   2.948   2.567 -1.6942 -2.8380 -1.2393
  582SOL    HW2 2327   3.182   2.896   2.509 -0.4565  2.4782 -0.9732
  582SOL     MW 2328   3.095   2.886   2.523 -0.4810  0.0096 -0.1727
  583SOL     OW 2329   1.967   2.394   2.651 -0.1279 -0.4911 -0.3438
  583SOL    HW1 2330   2.048   2.401   2.600 -0.3823  0.8288 -0.0926
  583SOL    HW2 2331   1.957   2.297   2.669 -1.2409 -0.0761 -0.4746
  583SOL     MW 2332   1.976   2.382   2.646 -0.3083 -0.2622 -0.3279
  584SOL     OW 2333   0.205   1.902   2.111 -0.8167  0.0847  0.7214
  584SOL    HW1 2334   0.285   1.846   2.097  1.6316 -0.6779 -2.3215
  584SOL    HW2 2335   0.228   1.974   2.171 -0.6707 -2.2728  1.8575
  584SOL     MW 2336   0.219   1.904   2.117 -0.4744 -0.3270  0.4698
  585SOL     OW 2337   1.443   2.656   0.091  0.1640 -0.2421  0.2569
  585SOL    HW1 2338   1.431   2.636   0.003 -2.8233  2.7530 -0.2419
  585SOL    HW2 2339   1.356   2.653   0.128 -2.4422  0.6110  0.3200
  585SOL     MW 2340   1.430   2.653   0.084 -0.5740  0.2657  0.1994
  586SOL     OW 2341   1.406   2.827   2.469  0.2700 -0.6867  0.1214
  586SOL    HW1 2342   1.456   2.819   2.392  2.6601  1.5078  0.7782
  586SOL    HW2 2343   1.413   2.919   2.509 -0.4694  1.0143  4.7836
  586SOL     MW 2344   1.413   2.838   2.464  0.4878 -0.1727  0.8232
  587SOL     OW 2345   1.303   1.577   2.174 -0.1138 -0.7722  0.3964
  587SOL    HW1 2346   1.301   1.498   2.231 -0.4981 -0.4883 -1.5349
  587SOL    HW2 2347   1.275   1.549   2.088  3.4309  1.4341 -0.8942
  587SOL     MW 2348   1.299   1.563   2.170  0.3032 -0.4436 -0.0287
  588SOL     OW 2349   1.395   2.137   2.755 -0.5322 -0.3282 -0.4471
  588SOL    HW1 2350   1.462   2.082   2.800  0.7936  0.6609 -0.0465
  588SOL    HW2 2351   1.329   2.174   2.816 -1.4151  4.2456  1.3715
  588SOL     MW 2352   1.395   2.134   2.769 -0.4738  0.4058 -0.1543
  589SOL     OW 2353   1.309   2.072   0.065  0.3661 -0.2251 -0.1381
  589SOL    HW1 2354   1.335   2.165   0.083  1.2123  1.0110 -0.4146
  589SOL    HW2 2355   1.258   2.031   0.137 -0.4646 -0.2519 -0.0255
  589SOL     MW 2356   1.306   2.079   0.077  0.3682 -0.0655 -0.1597
  590SOL     OW 2357   0.436   2.635   2.258  0.2181  1.0146 -0.2587
  590SOL    HW1 2358   0.402   2.588   2.173 -0.7648  3.1544 -2.3346
  590SOL    HW2 2359   0.521   2.682   2.244 -0.1768  2.5888 -1.0849
  590SOL     MW 2360   0.443   2.635   2.245  0.0363  1.5046 -0.6416
  591SOL     OW 2361   2.281   0.732   3.066  0.0051 -0.1627  0.0379
  591SOL    HW1 2362   2.217   0.807   3.045 -0.2230  0.0343  1.5453
  591SOL    HW2 2363   2.367   0.757   3.033  2.1395 -2.2218 -1.2948
  591SOL     MW 2364   2.284   0.745   3.059  0.2566 -0.4084  0.0610
  592SOL     OW 2365   1.799   2.937   0.830 -0.0698 -0.2672  0.0772
  592SOL    HW1 2366   1.795   3.008   0.765  2.3063 -0.6394 -0.1882
  592SOL    HW2 2367   1.866   2.878   0.802 -1.0120 -0.3295 -0.8571
  592SOL     MW 2368   1.807   2.938   0.818  0.1194 -0.3245 -0.0811
  593SOL     OW 2369   1.900   0.723   0.879  0.1084 -0.4176  0.7237
  593SOL    HW1 2370   1.823   0.705   0.824 -1.0538 -1.1807  1.9451
  593SOL    HW2 2371   1.943   0.638   0.875  0.9903  0.8488 -1.1846
  593SOL     MW 2372   1.895   0.710   0.871  0.0714 -0.3512  0.6331
  594SOL     OW 2373   2.775   1.168   1.345  0.2267  0.0494 -0.4023
  594SOL    HW1 2374   2.864   1.182   1.366  0.0792 -1.2562 -0.6423
  594SOL    HW2 2375   2.781   1.120   1.261  0.5924  0.9237 -1.8448
  594SOL     MW 2376   2.787   1.163   1.337  0.2555 -0.0075 -0.6243
  595SOL     OW 2377   0.507   0.976   0.744 -0.4123  0.5346  0.2233
  595SOL    HW1 2378   0.499   1.049   0.681  2.2356 -1.6059  0.9803
  595SOL    HW2 2379   0.520   1.019   0.830  2.7434  2.1359 -0.3561
  595SOL     MW 2380   0.508   0.992   0.747  0.3534  0.4634  0.2467
  596SOL     OW 2381   2.520   1.350   0.526 -0.4562 -0.0222  0.2649
  596SOL    HW1 2382   2.551   1.436   0.500  2.3504  2.0270  2.3791
  596SOL    HW2 2383   2.576   1.327   0.602  1.4277  1.7803 -0.3590
  596SOL     MW 2384   2.531   1.358   0.533  0.1627  0.4860  0.4615
  597SOL     OW 2385   2.189   0.694   1.604  0.3203  0.3559 -0.1386
  597SOL    HW1 2386   2.221   0.641   1.677  3.2058 -1.8493 -1.6612
  597SOL    HW2 2387   2.126   0.641   1.550 -1.5344 -0.0922  1.6965
  597SOL     MW 2388   2.185   0.680   1.607  0.4563  0.0058 -0.0973
  598SOL     OW 2389   2.591   0.974   2.874  0.0775 -0.2153 -0.5405
  598SOL    HW1 2390   2.626   0.944   2.793  0.9888 -0.9710 -2.9467
  598SOL    HW2 2391   2.666   1.016   2.912  1.8407 -0.9587 -1.2140
  598SOL     MW 2392   2.605   0.975   2.869  0.4304 -0.4131 -0.9468
  599SOL     OW 2393   2.931   0.411   2.084  0.7690 -0.1624 -0.1416
  599SOL    HW1 2394   2.909   0.397   2.176 -0.6925  0.1582 -0.1878
  599SOL    HW2 2395   2.973   0.503   2.069  0.7063  0.3643 -0.1087
  599SOL     MW 2396   2.933   0.421   2.094  0.5679 -0.0506 -0.1434
  600SOL     OW 2397   1.915   1.757   0.886 -0.2541 -0.6280  0.1384
  600SOL    HW1 2398   1.946   1.776   0.979  3.5588  1.2510 -2.4668
  600SOL    HW2 2399   1.822   1.774   0.886  2.2138  3.0188 -2.7973
  600SOL     MW 2400   1.907   1.762   0.898  0.5746  0.1011 -0.5927
  601SOL     OW 2401   2.516   0.791   0.827  0.3726 -0.8618 -0.1691
  601SOL    HW1 2402   2.504   0.821   0.918 -0.5532  1.1715  2.6338
  601SOL    HW2 2403   2.434   0.738   0.809 -0.9274  1.0821 -0.6723
  601SOL     MW 2404   2.504   0.788   0.837  0.0789 -0.3370  0.1343
  602SOL     OW 2405   2.300   1.949   0.826  0.6531 -0.1008  0.1663
  602SOL    HW1 2406   2.264   1.868   0.869 -0.2317 -0.1861  0.1010
  602SOL    HW2 2407   2.224   1.992   0.790 -0.1961 -0.5152 -0.5717
  602SOL     MW 2408   2.285   1.944   0.827  0.4243 -0.1667  0.0603
  603SOL     OW 2409   3.064   1.375   1.818 -0.5717  0.3030 -0.0409
  603SOL    HW1 2410   3.090   1.424   1.894  0.0072  2.1852 -1.8907
  603SOL    HW2 2411   3.083   1.287   1.858  1.7802 -0.7968  1.6372
  603SOL     MW 2412   3.070   1.370   1.833 -0.1850  0.4062 -0.0636
  604SOL     OW 2413   2.135   1.548   0.471  0.4148  0.0935  0.1321
  604SOL    HW1 2414   2.168   1.489   0.538 -0.2850 -0.9844 -0.3814
  604SOL    HW2 2415   2.060   1.593   0.505  5.0622  0.5498 -3.0083
  604SOL     MW 2416   2.129   1.546   0.484  0.9357  0.0115 -0.3500
  605SOL     OW 2417   2.648   1.533   0.826 -0.2189  0.3279  0.0180
  605SOL    HW1 2418   2.599   1.600   0.772 -1.2879 -0.7311 -0.3663
  605SOL    HW2 2419   2.630   1.445   0.784 -0.0247  1.8981 -1.8772
  605SOL     MW 2420   2.640   1.530   0.813 -0.3343  0.3954 -0.2827
  606SOL     OW 2421   2.592   1.860   1.898  0.3031 -0.1014 -0.0847
  606SOL    HW1 2422   2.503   1.854   1.926 -0.2921  0.2620 -0.1574
  606SOL    HW2 2423   2.616   1.769   1.884  2.5086 -0.2284 -0.0816
  606SOL     MW 2424   2.583   1.847   1.900  0.5156 -0.0702 -0.0939
  607SOL     OW 2425   2.350   1.027   3.047  0.0060 -0.0367  0.1712
  607SOL    HW1 2426   2.438   1.042   3.011  0.4421  0.6429 -1.8140
  607SOL    HW2 2427   2.365   1.008   3.146 -1.4058 -3.0741  1.5984
  607SOL     MW 2428   2.364   1.026   3.055 -0.1227 -0.3478  0.0976
  608SOL     OW 2429   1.899   0.293   0.619  0.0767  0.2165 -0.4103
  608SOL    HW1 2430   1.922   0.321   0.530  1.4656 -1.0855  0.4841
  608SOL    HW2 2431   1.826   0.226   0.605 -1.0693 -0.3193  2.8667
  608SOL     MW 2432   1.892   0.288   0.605  0.1088 -0.0260  0.1401
  609SOL     OW 2433   2.095   2.013   3.052  0.1773  0.0840  0.1416
  609SOL    HW1 2434   2.013   1.962   3.046  1.3156  0.4226 -0.5745
  609SOL    HW2 2435   2.148   1.984   3.131 -1.2329 -1.2433  1.3064
  609SOL     MW 2436   2.092   2.002   3.062  0.1415 -0.0465  0.2008
  610SOL     OW 2437   1.763   1.013   1.261 -0.0370  0.1448  0.2152
  610SOL    HW1 2438   1.785   0.940   1.201 -0.6926  1.2690  1.0132
  610SOL    HW2 2439   1.671   1.013   1.240  3.2446  1.4764 -2.1714
  610SOL     MW 2440   1.754   1.003   1.250  0.3095  0.4688  0.0056
  611SOL     OW 2441   2.523   1.754   0.693  0.3800  0.2129  0.1570
  611SOL    HW1 2442   2.484   1.810   0.762 -0.7647 -0.3695  1.1220
  611SOL    HW2 2443   2.508   1.811   0.612  2.3900 -0.7884 -3.9516
  611SOL     MW 2444   2.516   1.769   0.691  0.4942  0.0040 -0.2578
  612SOL     OW 2445   2.810   2.832   0.384 -0.2157 -0.0288  0.0424
  612SOL    HW1 2446   2.851   2.869   0.463 -0.0626  0.7569 -0.6110
  612SOL    HW2 2447   2.889   2.787   0.353  0.1343  0.6246  2.3838
  612SOL     MW 2448   2.826   2.831   0.390 -0.1493  0.1611  0.2651
  613SOL     OW 2449   1.477   0.999   0.934  0.0758  0.3810 -0.2221
  613SOL    HW1 2450   1.494   1.088   0.969 -0.2063  0.5222  0.4713
  613SOL    HW2 2451   1.523   0.939   0.993 -0.6048  0.8713 -0.6739
  613SOL     MW 2452   1.485   1.003   0.947 -0.0512  0.4643 -0.1902
  614SOL     OW 2453   1.972   0.534   1.496  0.0713  0.1139 -0.1771
  614SOL    HW1 2454   1.989   0.464   1.556  1.4387 -0.4459 -0.8711
  614SOL    HW2 2455   1.959   0.484   1.417  1.7192 -0.6602  0.0896
  614SOL     MW 2456   1.973   0.518   1.493  0.4692 -0.0621 -0.2335
  615SOL     OW 2457   2.382   0.738   0.297  0.0786 -0.2912  0.2113
  615SOL    HW1 2458   2.462   0.702   0.334  0.0703 -0.7115  0.7037
  615SOL    HW2 2459   2.373   0.684   0.221  0.5051 -0.3520 -1.3968
  615SOL     MW 2460   2.391   0.726   0.292  0.1337 -0.3547  0.0641
  616SOL     OW 2461   2.511   0.434   1.601 -0.2131  0.4258  0.0618
  616SOL    HW1 2462   2.490   0.353   1.552 -1.6726 -1.5801 -0.2519
  616SOL    HW2 2463   2.522   0.505   1.540 -1.7854  1.4094  1.4754
  616SOL     MW 2464   2.510   0.433   1.586 -0.6131  0.2909  0.2070
  617SOL     OW 2465   2.926   0.539   1.748 -0.2558 -0.2388 -0.0093
  617SOL    HW1 2466   2.840   0.563   1.784 -0.4052 -0.8795  0.2854
  617SOL    HW2 2467   2.896   0.461   1.693  2.0301 -1.2441  0.1896
  617SOL     MW 2468   2.911   0.532   1.745  0.0261 -0.4560  0.0559
  618SOL     OW 2469   2.703   0.336   1.930  0.6855  0.5997 -0.6893
  618SOL    HW1 2470   2.688   0.428   1.918 -0.7788 -0.2341 -0.8931
  618SOL    HW2 2471   2.776   0.339   1.992 -1.7697 -1.1090  0.4790
  618SOL     MW 2472   2.710   0.349   1.937  0.1684  0.2643 -0.5620
  619SOL     OW 2473   2.664   0.653   0.119  0.3593 -0.3144 -0.0032
  619SOL    HW1 2474   2.715   0.732   0.128 -0.0211 -0.1381 -3.8926
  619SOL    HW2 2475   2.632   0.625   0.207 -0.0584  2.2748 -0.2706
  619SOL     MW 2476   2.667   0.659   0.132  0.2540  0.0505 -0.5516
  620SOL     OW 2477   2.315   1.039   1.009 -0.1152 -0.2266 -0.1818
  620SOL    HW1 2478   2.389   1.091   0.976 -0.4942  1.0562  0.7566
  620SOL    HW2 2479   2.275   0.992   0.938  0.2348  0.7250  2.4564
  620SOL     MW 2480   2.319   1.040   0.995 -0.1190  0.0682  0.2901
  621SOL     OW 2481   1.467   2.125   1.950  0.7689 -0.4007  0.4453
  621SOL    HW1 2482   1.403   2.064   1.988 -1.5191  2.4018 -2.4967
  621SOL    HW2 2483   1.554   2.088   1.964 -0.7518 -1.3109 -1.3046
  621SOL     MW 2484   1.470   2.112   1.957  0.2664 -0.1510 -0.1737
  622SOL     OW 2485   2.585   0.170   0.271  0.2111 -0.1640  0.1982
  622SOL    HW1 2486   2.669   0.219   0.257 -0.9860 -0.8710  1.1848
  622SOL    HW2 2487   2.610   0.081   0.294 -3.5557 -0.1868  0.0911
  622SOL     MW 2488   2.599   0.165   0.272 -0.4439 -0.2603  0.3142
  623SOL     OW 2489   2.359   2.814   0.872  0.3478  0.4019  0.1913
  623SOL    HW1 2490   2.438   2.868   0.853  0.2445 -2.8496 -0.1855
  623SOL    HW2 2491   2.296   2.864   0.922 -0.0809  1.4976  0.7763
  623SOL     MW 2492   2.361   2.828   0.876  0.2776  0.1175  0.2188
  624SOL     OW 2493   2.174   1.716   3.009 -0.2112  0.4935 -0.1300
  624SOL    HW1 2494   2.137   1.632   3.029 -1.2377  2.4189  1.1682
  624SOL    HW2 2495   2.099   1.771   2.980 -4.3276  1.0749 -0.5119
  624SOL     MW 2496   2.159   1.712   3.008 -0.8897  0.8243 -0.0091
  625SOL     OW 2497   2.206   2.004   1.119  0.2080 -0.7597  0.0675
  625SOL    HW1 2498   2.279   1.946   1.119  1.1521 -1.7668 -1.9383
  625SOL    HW2 2499   2.227   2.044   1.034 -2.1396 -1.9235 -1.3824
  625SOL     MW 2500   2.219   2.002   1.108  0.0229 -1.0461 -0.3884
  626SOL     OW 2501   0.220   1.605   2.374  0.4805  0.4238  0.1920
  626SOL    HW1 2502   0.196   1.524   2.330  0.2164 -2.0438  0.4970
  626SOL    HW2 2503   0.133   1.633   2.415  0.4856 -0.0216 -2.5428
  626SOL     MW 2504   0.206   1.598   2.373  0.4463  0.0395 -0.1286
  627SOL     OW 2505   2.451   0.784   2.648  0.0131 -0.1496  0.0934
  627SOL    HW1 2506   2.407   0.870   2.648 -0.7092  0.1690  2.9122
  627SOL    HW2 2507   2.427   0.747   2.563  2.9475  2.1236 -1.1198
  627SOL     MW 2508   2.442   0.790   2.637  0.3050  0.1924  0.3052
  628SOL     OW 2509   2.291   1.343   1.366  1.0483  0.1688  0.3364
  628SOL    HW1 2510   2.253   1.273   1.304 -0.6485  0.6344  1.4629
  628SOL    HW2 2511   2.388   1.333   1.363 -1.3638 -1.8832  0.5814
  628SOL     MW 2512   2.299   1.333   1.357  0.5062 -0.0405  0.5174
  629SOL     OW 2513   1.873   0.559   1.219 -0.3782 -0.0729 -0.5779
  629SOL    HW1 2514   1.866   0.650   1.198 -1.1525  0.5274  1.0016
  629SOL    HW2 2515   1.789   0.540   1.255 -0.7825 -0.8844 -1.4987
  629SOL     MW 2516   1.861   0.568   1.221 -0.5337 -0.1008 -0.4910
  630SOL     OW 2517   2.438   1.813   3.040  0.3134 -0.2787 -0.7111
  630SOL    HW1 2518   2.458   1.905   3.013 -0.2028  3.4998 -1.6726
  630SOL    HW2 2519   2.343   1.805   3.024 -0.5627 -2.6492 -0.0813
  630SOL     MW 2520   2.428   1.824   3.034  0.1297 -0.0929 -0.7548
  631SOL     OW 2521   1.962   1.833   1.579 -0.2680  0.3112 -0.0947
  631SOL    HW1 2522   1.975   1.754   1.637 -0.5336 -1.2579  0.5385
  631SOL    HW2 2523   1.942   1.800   1.495 -1.2662  1.1691  1.4549
  631SOL     MW 2524   1.961   1.818   1.576 -0.4348  0.2174  0.1933
  632SOL     OW 2525   0.137   2.020   1.478  0.6100 -0.3445 -0.1574
  632SOL    HW1 2526   0.072   2.058   1.540 -0.4138  2.5375  0.9360
  632SOL    HW2 2527   0.142   1.926   1.500  1.8696  2.1600 -0.2065
  632SOL     MW 2528   0.129   2.013   1.489  0.6411  0.3662 -0.0196
  633SOL     OW 2529   2.588   0.567   0.367  0.3331 -0.9996 -0.2948
  633SOL    HW1 2530   2.677   0.559   0.411  4.0315  0.7368 -0.2701
  633SOL    HW2 2531   2.535   0.516   0.431  0.1957  1.8363  0.5833
  633SOL     MW 2532   2.593   0.559   0.382  0.8030 -0.3964 -0.1757
  634SOL     OW 2533   2.688   3.050   0.619  0.2825  0.0860  0.0373
  634SOL    HW1 2534   2.707   3.144   0.631  2.3992  2.4643 -0.9541
  634SOL    HW2 2535   2.630   3.045   0.543 -1.4029 -0.9651 -0.1071
  634SOL     MW 2536   2.683   3.061   0.610  0.3394  0.2611 -0.1125
  635SOL     OW 2537   2.613   0.094   1.850 -0.2863  0.3006 -0.4625
  635SOL    HW1 2538   2.679   0.036   1.806  3.7743 -0.2570 -1.0351
  635SOL    HW2 2539   2.655   0.185   1.864  2.6674  1.3791  2.5878
  635SOL     MW 2540   2.627   0.098   1.846  0.6392  0.3693 -0.1356
  636SOL     OW 2541   2.934   1.671   1.121 -0.6249 -0.1940  0.2824
  636SOL    HW1 2542   2.855   1.718   1.158 -0.4875  0.0093  0.0669
  636SOL    HW2 2543   2.998   1.743   1.108 -0.7837  2.9380  2.2008
  636SOL     MW 2544   2.932   1.687   1.124 -0.6277  0.2460  0.5071
  637SOL     OW 2545   2.852   1.477   0.676 -0.4042 -0.1879  0.5500
  637SOL    HW1 2546   2.913   1.550   0.663  0.2603 -0.8293  2.9977
  637SOL    HW2 2547   2.773   1.516   0.724 -0.9899  1.4766 -0.9316
  637SOL     MW 2548   2.850   1.492   0.681 -0.3938 -0.0529  0.6775
  638SOL     OW 2549   2.783   0.480   0.552  0.1130 -0.3133  0.1526
  638SOL    HW1 2550   2.870   0.505   0.532  0.9990 -2.1547 -1.2776
  638SOL    HW2 2551   2.757   0.527   0.630 -0.3185  0.5276  0.4470
  638SOL     MW 2552   2.791   0.489   0.560  0.1730 -0.4453  0.0028
  639SOL     OW 2553   1.778   0.058   0.563  0.0391 -0.3284  0.1277
  639SOL    HW1 2554   1.680   0.082   0.553 -0.6246  0.6207 -0.2207
  639SOL    HW2 2555   1.792  -0.011   0.493  0.8162 -1.1305  1.0000
  639SOL     MW 2556   1.767   0.052   0.552  0.0541 -0.3090  0.1968
  640SOL     OW 2557   0.368   1.337   0.110  0.0686 -0.5576  0.3099
  640SOL    HW1 2558   0.383   1.342   0.016  0.9999 -0.2670 -0.6751
  640SOL    HW2 2559   0.308   1.260   0.119  2.5824 -1.5144  1.3227
  640SOL     MW 2560   0.362   1.327   0.099  0.5231 -0.6455  0.3136
  641SOL     OW 2561   2.224   0.422   0.343 -0.4705 -0.0396 -0.7510
  641SOL    HW1 2562   2.268   0.472   0.274  0.8305 -1.2564  0.5506
  641SOL    HW2 2563   2.265   0.336   0.342 -1.1345 -2.5083  0.5736
  641SOL     MW 2564   2.235   0.417   0.334 -0.3864 -0.5258 -0.4045
  642SOL     OW 2565   0.052   3.088   0.580  0.3179 -0.3223 -0.2543
  642SOL    HW1 2566   0.019   3.176   0.555 -4.3035 -0.5841  1.4090
  642SOL    HW2 2567  -0.025   3.041   0.624  0.0437 -2.0923  0.5086
  642SOL     MW 2568   0.038   3.093   0.582 -0.3280 -0.5904  0.0658
  643SOL     OW 2569   2.085   0.318   1.647 -0.2592  0.0483 -0.4512
  643SOL    HW1 2570   2.048   0.247   1.699 -0.8032  2.3461 -0.6270
  643SOL    HW2 2571   2.075   0.300   1.553 -1.5723 -2.5480  0.2632
  643SOL     MW 2572   2.079   0.307   1.641 -0.5042  0.0089 -0.3801
  644SOL     OW 2573   2.742   1.992   1.047 -0.3100  0.5410 -0.1068
  644SOL    HW1 2574   2.725   1.934   1.118 -0.4370  0.8902 -0.4445
  644SOL    HW2 2575   2.661   2.038   1.033  2.8341 -0.8643 -2.0558
  644SOL     MW 2576   2.729   1.990   1.055  0.0881  0.4017 -0.4085
  645SOL     OW 2577   2.863   0.849   0.666 -0.3038 -0.4251 -0.1871
  645SOL    HW1 2578   2.954   0.839   0.656 -2.1555 -1.2351  1.7230
  645SOL    HW2 2579   2.828   0.776   0.720  0.2730  2.9005  2.8540
  645SOL     MW 2580   2.870   0.838   0.672 -0.4720 -0.0932  0.4662
  646SOL     OW 2581   0.191   2.295   0.771  0.1086 -0.1507 -0.2052
  646SOL    HW1 2582   0.217   2.212   0.819  0.7428 -3.9683  3.1827
  646SOL    HW2 2583   0.109   2.297   0.730  1.2813  1.1948  0.9919
  646SOL     MW 2584   0.184   2.285   0.772  0.3470 -0.4769  0.3997
  647SOL     OW 2585   2.680   0.479   2.976 -0.3572  0.1691  0.2378
  647SOL    HW1 2586   2.653   0.407   3.038 -0.2779  0.4446  0.8224
  647SOL    HW2 2587   2.641   0.561   3.000 -0.9415 -2.9350 -0.2775
  647SOL     MW 2588   2.671   0.480   2.987 -0.4238 -0.2041  0.2470
  648SOL     OW 2589   2.129   0.728   1.156  0.1830 -0.0045  0.9922
  648SOL    HW1 2590   2.164   0.792   1.089  0.0540  0.9971  0.2032
  648SOL    HW2 2591   2.167   0.766   1.237 -0.8411  0.0128 -0.3103
  648SOL     MW 2592   2.138   0.741   1.158  0.0308  0.1300  0.7163
  649SOL     OW 2593   2.306   2.736   1.292  0.3478  0.1007 -0.0298
  649SOL    HW1 2594   2.390   2.783   1.284  2.4910 -2.0472 -0.1477
  649SOL    HW2 2595   2.328   2.643   1.289  1.5991 -2.5582 -1.8164
  649SOL     MW 2596   2.320   2.730   1.291  0.7956 -0.5335 -0.2811
  650SOL     OW 2597   2.794   0.201   0.654  0.2973  0.7711 -0.4623
  650SOL    HW1 2598   2.812   0.295   0.662 -1.1658  1.2026  0.6646
  650SOL    HW2 2599   2.868   0.165   0.603 -1.1168 -0.5719 -2.8589
  650SOL     MW 2600   2.806   0.208   0.649 -0.0823  0.6508 -0.6298
  651SOL     OW 2601   3.005   0.408   0.791  0.2292 -0.1881  0.6097
  651SOL    HW1 2602   3.094   0.458   0.797  2.0220 -1.0059  0.9703
  651SOL    HW2 2603   2.949   0.466   0.844  1.7170  2.7430  1.4172
  651SOL     MW 2604   3.009   0.422   0.799  0.6620  0.0907  0.7638
  652SOL     OW 2605   2.420   1.487   2.980  0.2363 -0.6440 -0.9507
  652SOL    HW1 2606   2.501   1.485   2.928 -1.7632 -0.8752 -0.7049
  652SOL    HW2 2607   2.402   1.582   2.988  0.2092  2.1209  1.2523
  652SOL     MW 2608   2.429   1.499   2.974 -0.0311 -0.3097 -0.6276
  653SOL     OW 2609   1.897   0.433   0.377 -0.0144 -0.3309  0.4825
  653SOL    HW1 2610   1.838   0.368   0.342  0.4398 -1.2921  3.7215
  653SOL    HW2 2611   1.972   0.426   0.320 -3.6350 -0.1385  0.7861
  653SOL     MW 2612   1.899   0.423   0.365 -0.4322 -0.4324  0.9499
  654SOL     OW 2613   2.434   1.049   0.736 -0.6426  0.0720 -0.2741
  654SOL    HW1 2614   2.355   1.043   0.684  0.1584 -0.1186 -0.5948
  654SOL    HW2 2615   2.447   0.957   0.768  1.1979 -0.7884 -1.2001
  654SOL     MW 2616   2.425   1.036   0.734 -0.2941 -0.0667 -0.4386
  655SOL     OW 2617   2.922   0.884   0.390 -1.1122 -0.1709 -0.1780
  655SOL    HW1 2618   2.870   0.896   0.469  0.5270 -1.4268  1.0654
  655SOL    HW2 2619   2.954   0.791   0.403  1.9449  0.0139 -0.0378
  655SOL     MW 2620   2.919   0.873   0.402 -0.4926 -0.3122  0.0046
  656SOL     OW 2621   1.886   2.742   1.295 -0.6634 -0.4506  0.4978
  656SOL    HW1 2622   1.865   2.827   1.321 -1.2788  1.0144 -1.6588
  656SOL    HW2 2623   1.966   2.725   1.340  1.3182  0.9064  0.7530
  656SOL     MW 2624   1.894   2.751   1.305 -0.4831 -0.0782  0.2470
  657SOL     OW 2625   0.152   1.669   1.266 -0.2667  0.5293 -0.2156
  657SOL    HW1 2626   0.228   1.688   1.208  1.4651  1.3110  1.2121
  657SOL    HW2 2627   0.110   1.593   1.227 -1.0429  1.7422 -0.0694
  657SOL     MW 2628   0.156   1.661   1.253 -0.1406  0.7925 -0.0079
  658SOL     OW 2629   2.716   1.304   0.221  0.4301  0.2392  0.3536
  658SOL    HW1 2630   2.672   1.229   0.260  1.3915  0.7321 -1.3071
  658SOL    HW2 2631   2.739   1.351   0.301 -0.3576  0.4042 -1.0989
  658SOL     MW 2632   2.713   1.300   0.237  0.4530  0.3260 -0.0572
  659SOL     OW 2633   2.272   1.483   1.078 -0.3066  0.0441  0.1466
  659SOL    HW1 2634   2.364   1.490   1.098 -0.6541  5.3349 -0.2455
  659SOL    HW2 2635   2.232   1.511   1.161  1.9691 -1.7091 -0.2010
  659SOL     MW 2636   2.279   1.488   1.092 -0.0522  0.5108  0.0490
  660SOL     OW 2637   2.026   1.599   1.709  0.3996  0.1063  0.1539
  660SOL    HW1 2638   2.033   1.596   1.807  1.5594 -0.0676 -0.4502
  660SOL    HW2 2639   1.963   1.525   1.689 -1.3240 -0.8447  4.3288
  660SOL     MW 2640   2.019   1.589   1.720  0.3252 -0.0422  0.6251
  661SOL     OW 2641   2.368   1.009   0.230 -0.4224 -0.1303 -0.2468
  661SOL    HW1 2642   2.435   1.063   0.280  3.2822  1.4564 -0.4906
  661SOL    HW2 2643   2.372   0.922   0.271 -0.1684  0.1372 -0.5308
  661SOL     MW 2644   2.377   1.005   0.242  0.0999  0.1143 -0.3164
  662SOL     OW 2645   2.584   2.986   0.861 -0.5714 -0.2132 -0.1548
  662SOL    HW1 2646   2.527   3.050   0.897 -0.1416  1.4985 -1.5310
  662SOL    HW2 2647   2.614   3.021   0.776 -0.9823  0.0215 -0.1017
  662SOL     MW 2648   2.580   2.999   0.855 -0.5689  0.0436 -0.3294
  663SOL     OW 2649   2.755   1.476   0.426 -0.6288 -0.4377  0.8459
  663SOL    HW1 2650   2.699   1.560   0.413  0.4555  2.3198 -1.4471
  663SOL    HW2 2651   2.789   1.482   0.519  0.5411 -1.5709  1.2811
  663SOL     MW 2652   2.752   1.488   0.436 -0.3314 -0.2234  0.6008
  664SOL     OW 2653   2.499   1.525   1.603 -0.2401  0.2574 -0.1007
  664SOL    HW1 2654   2.464   1.613   1.578  4.5417  0.3613 -1.1439
  664SOL    HW2 2655   2.422   1.470   1.610 -0.7862  2.3557  0.4175
  664SOL     MW 2656   2.484   1.529   1.601  0.3187  0.5479 -0.1700
  665SOL     OW 2657   2.857   0.884   2.013 -0.3050 -0.2014 -0.0219
  665SOL    HW1 2658   2.823   0.917   1.926  1.6755  0.3631  1.9066
  665SOL    HW2 2659   2.927   0.822   2.007 -0.0024  3.0530  1.6838
  665SOL     MW 2660   2.862   0.880   2.000 -0.0038  0.3025  0.4576
  666SOL     OW 2661   2.769   3.023   1.697 -0.7284  0.1994  0.0749
  666SOL    HW1 2662   2.796   3.040   1.605  0.3176 -1.2109  0.8719
  666SOL    HW2 2663   2.704   2.954   1.707  2.8169  0.5799  2.3365
  666SOL     MW 2664   2.764   3.016   1.686 -0.1226  0.0636  0.4784
  667SOL     OW 2665   1.977   2.646   1.724 -0.0653  0.2824  0.9345
  667SOL    HW1 2666   2.017   2.573   1.775  2.6234  1.2888 -0.4245
  667SOL    HW2 2667   2.049   2.709   1.734  1.5899 -0.8160  0.8185
  667SOL     MW 2668   1.992   2.645   1.732  0.5078  0.2703  0.7399
  668SOL     OW 2669   2.747   0.629   0.791 -0.1336  0.2648  0.1314
  668SOL    HW1 2670   2.796   0.605   0.868  0.1414 -1.5735 -1.0194
  668SOL    HW2 2671   2.669   0.674   0.815  3.7264 -0.0622 -0.8595
  668SOL     MW 2672   2.743   0.631   0.804  0.4119 -0.0209 -0.1512
  669SOL     OW 2673   0.240   0.940   0.687 -0.6041  0.4615  0.5016
  669SOL    HW1 2674   0.192   0.989   0.749  3.8751 -2.1903 -0.7359
  669SOL    HW2 2675   0.334   0.955   0.714  1.9207  0.3745  1.5779
  669SOL     MW 2676   0.246   0.949   0.699  0.3200  0.1001  0.4804
  670SOL     OW 2677   2.848   0.234   0.220  0.5531 -0.1466 -0.2241
  670SOL    HW1 2678   2.880   0.178   0.144 -0.8766 -1.1932  0.1612
  670SOL    HW2 2679   2.872   0.325   0.198  2.1347 -0.9171  1.4927
  670SOL     MW 2680   2.855   0.239   0.207  0.5731 -0.3863  0.0532
  671SOL     OW 2681   2.077   2.934   1.475 -0.5501  0.3666 -0.3589
  671SOL    HW1 2682   2.034   2.970   1.392 -0.5497  0.0461 -2.7134
  671SOL    HW2 2683   2.030   2.980   1.544  0.1920 -0.8807  1.1362
  671SOL     MW 2684   2.065   2.945   1.473 -0.4521  0.1597 -0.4723
  672SOL     OW 2685   1.898   1.673   1.368  0.3490 -0.2414 -0.4120
  672SOL    HW1 2686   1.806   1.684   1.396 -0.2075  0.7654  0.8363
  672SOL    HW2 2687   1.894   1.737   1.292  0.7399 -1.9092  0.2316
  672SOL     MW 2688   1.885   1.683   1.362  0.3271 -0.3286 -0.1624
  673SOL     OW 2689   2.750   1.084   0.573  0.4411 -0.4119  0.0542
  673SOL    HW1 2690   2.762   0.996   0.616  2.4844 -0.8095  1.4041
  673SOL    HW2 2691   2.838   1.113   0.572 -0.9092  0.4104 -0.9939
  673SOL     MW 2692   2.763   1.076   0.579  0.5326 -0.3559  0.0940
  674SOL     OW 2693   2.468   0.071   1.250 -0.5648 -0.6232  0.9538
  674SOL    HW1 2694   2.419   0.074   1.167 -0.2403  0.2458  1.0618
  674SOL    HW2 2695   2.481  -0.023   1.272 -2.2307 -0.1505  1.7142
  674SOL     MW 2696   2.464   0.059   1.242 -0.7417 -0.4462  1.0684
  675SOL     OW 2697   3.024   0.874   1.069 -0.2305  0.0279  0.0011
  675SOL    HW1 2698   3.092   0.903   1.124 -0.7678  0.1264 -0.1372
  675SOL    HW2 2699   3.050   0.928   0.994  0.3255 -2.1292  2.8245
  675SOL     MW 2700   3.036   0.885   1.066 -0.2281 -0.2437  0.3553
  676SOL     OW 2701   2.847   1.469   1.685 -0.2679 -0.0796  0.6333
  676SOL    HW1 2702   2.788   1.389   1.668  1.8843  1.9210 -2.9658
  676SOL    HW2 2703   2.926   1.424   1.721  0.5507 -1.3359 -2.1516
  676SOL     MW 2704   2.850   1.453   1.687  0.1241  0.0186 -0.2090
  677SOL     OW 2705   2.413   0.642   1.961  0.2792 -0.4349 -0.0251
  677SOL    HW1 2706   2.362   0.565   1.930 -0.2703  1.8097 -1.6542
  677SOL    HW2 2707   2.360   0.710   2.010 -1.1837  1.0892 -0.9884
  677SOL     MW 2708   2.399   0.641   1.964  0.0137  0.0623 -0.3671
  678SOL     OW 2709   2.518   1.646   0.382 -0.0189 -0.2473 -0.0099
  678SOL    HW1 2710   2.431   1.697   0.394 -2.9788 -1.5789 -0.7079
  678SOL    HW2 2711   2.524   1.624   0.283  1.2597  0.1651 -2.7809
  678SOL     MW 2712   2.507   1.650   0.370 -0.2407 -0.3686 -0.4676
  679SOL     OW 2713   2.264   0.470   1.164 -0.0890  0.5628  0.1912
  679SOL    HW1 2714   2.227   0.385   1.155  2.2902 -0.5899  0.3288
  679SOL    HW2 2715   2.194   0.528   1.140 -1.7850 -1.1068  1.0274
  679SOL     MW 2716   2.250   0.467   1.160  0.0011  0.1904  0.3197
  680SOL     OW 2717   2.344   0.142   1.476 -0.3101 -0.0231  0.1024
  680SOL    HW1 2718   2.262   0.186   1.447  1.3254 -0.5141  3.7127
  680SOL    HW2 2719   2.375   0.119   1.384  0.1505  1.0215 -1.1394
  680SOL     MW 2720   2.337   0.145   1.460 -0.0335  0.0500  0.4149
  681SOL     OW 2721   0.343   0.559   1.568 -0.4280 -0.3773  0.4183
  681SOL    HW1 2722   0.302   0.489   1.615  0.6769  1.2096  0.0748
  681SOL    HW2 2723   0.437   0.548   1.549 -0.3074 -1.8750  1.1163
  681SOL     MW 2724   0.350   0.549   1.571 -0.2663 -0.3655  0.4651
  682SOL     OW 2725   0.078   2.924   1.480  0.0092  0.2670 -0.2098
  682SOL    HW1 2726   0.108   3.014   1.441 -0.8944  0.8700  0.0697
  682SOL    HW2 2727   0.018   2.937   1.552 -0.5231  1.5402 -1.3575
  682SOL     MW 2728   0.074   2.937   1.484 -0.1802  0.5145 -0.3243
  683SOL     OW 2729   2.066   0.879   2.998 -0.0164 -0.0396 -0.2534
  683SOL    HW1 2730   1.979   0.835   2.978  2.1079 -0.9680 -1.0759
  683SOL    HW2 2731   2.045   0.969   3.019  0.1655 -0.7319 -1.3200
  683SOL     MW 2732   2.051   0.885   2.998  0.2879 -0.2534 -0.5026
  684SOL     OW 2733   2.214   1.711   0.915  0.0789 -0.4088 -0.0897
  684SOL    HW1 2734   2.145   1.702   0.854  2.5067  0.0366 -0.7979
  684SOL    HW2 2735   2.220   1.626   0.949 -0.6121 -2.1129 -1.1085
  684SOL     MW 2736   2.206   1.698   0.911  0.3081 -0.5749 -0.3176
  685SOL     OW 2737   2.685   1.750   1.227  0.0704  0.2399 -0.3526
  685SOL    HW1 2738   2.700   1.692   1.304  1.2159  0.7150  0.2085
  685SOL    HW2 2739   2.635   1.691   1.168 -0.4995 -0.0943  0.6865
  685SOL     MW 2740   2.680   1.734   1.229  0.1463  0.2585 -0.1414
  686SOL     OW 2741   2.924   0.738   1.525  0.0494 -0.0326  0.2060
  686SOL    HW1 2742   2.938   0.683   1.603 -0.2735  1.1054 -1.4537
  686SOL    HW2 2743   3.003   0.784   1.513  0.7272 -0.9701  2.3670
  686SOL     MW 2744   2.936   0.737   1.534  0.0962 -0.0062  0.2721
  687SOL     OW 2745   2.062   0.276   1.139 -0.3506 -0.3605  0.4081
  687SOL    HW1 2746   2.108   0.201   1.099 -2.2770  2.4421 -0.2880
  687SOL    HW2 2747   2.049   0.330   1.064  1.6157 -0.8246  0.2831
  687SOL     MW 2748   2.066   0.273   1.124 -0.3453 -0.0520  0.2998
  688SOL     OW 2749   2.394   0.643   1.403 -0.1682 -0.9402 -0.0147
  688SOL    HW1 2750   2.344   0.614   1.329 -1.0389 -1.2380  0.2098
  688SOL    HW2 2751   2.331   0.649   1.474 -0.0153  0.1680 -3.4681
  688SOL     MW 2752   2.379   0.640   1.403 -0.2629 -0.8333 -0.4407
  689SOL     OW 2753   2.539   0.742   2.999  0.3443  0.2358 -0.2112
  689SOL    HW1 2754   2.575   0.821   2.955 -1.6211 -1.1660  0.8484
  689SOL    HW2 2755   2.566   0.728   3.096 -3.7302 -0.8460  0.3554
  689SOL     MW 2756   2.547   0.750   3.006 -0.4526 -0.0919  0.0034
  690SOL     OW 2757   2.079   0.937   1.955 -0.0794  0.0035 -0.2977
  690SOL    HW1 2758   2.023   0.858   1.955  1.5676  0.1046 -2.4255
  690SOL    HW2 2759   2.122   0.949   1.872  0.9435 -0.4393  1.7369
  690SOL     MW 2760   2.077   0.928   1.944  0.2728 -0.0416 -0.3100
  691SOL     OW 2761   2.441   0.269   0.838 -0.0185  0.0717  0.6169
  691SOL    HW1 2762   2.524   0.315   0.862  0.4121 -0.2908  1.1657
  691SOL    HW2 2763   2.358   0.323   0.856  1.6959  2.1224  1.7684
  691SOL     MW 2764   2.441   0.282   0.843  0.2645  0.2944  0.8413
  692SOL     OW 2765   2.829   1.630   1.451 -0.2797 -0.8841  0.2644
  692SOL    HW1 2766   2.815   1.583   1.533 -0.4361 -0.6594 -2.4264
  692SOL    HW2 2767   2.867   1.719   1.481  2.2339 -0.4084 -1.7984
  692SOL     MW 2768   2.832   1.635   1.465  0.0313 -0.7917 -0.3628
  693SOL     OW 2769   2.326   0.497   0.071  0.0617  0.2387 -0.1829
  693SOL    HW1 2770   2.253   0.446   0.038 -1.6138  2.6160  0.7333
  693SOL    HW2 2771   2.327   0.582   0.018  0.4638 -5.3796 -0.8961
  693SOL     MW 2772   2.316   0.501   0.060 -0.1063 -0.1890 -0.1561
  694SOL     OW 2773   1.932   1.210   1.090  0.2662 -0.1839  0.7884
  694SOL    HW1 2774   2.023   1.194   1.135 -0.5854  0.1879  1.7736
  694SOL    HW2 2775   1.874   1.147   1.132  2.4639 -0.7847  0.0235
  694SOL     MW 2776   1.936   1.199   1.102  0.4438 -0.2142  0.8175
  695SOL     OW 2777   3.014   1.476   1.354 -0.3004  0.3066  0.7959
  695SOL    HW1 2778   3.004   1.486   1.260 -0.5592  0.1167 -0.7819
  695SOL    HW2 2779   2.952   1.532   1.394  2.0335 -0.2026 -0.3035
  695SOL     MW 2780   3.004   1.485   1.347 -0.0266  0.2143  0.4427
  696SOL     OW 2781   2.115   1.373   0.881  0.2014 -0.2554  0.0950
  696SOL    HW1 2782   2.178   1.402   0.953 -2.8503  1.2452 -1.9309
  696SOL    HW2 2783   2.052   1.320   0.930  0.6404  0.2055  0.4761
  696SOL     MW 2784   2.115   1.370   0.897 -0.1433  0.0034 -0.1220
  697SOL     OW 2785   2.922   1.114   2.157  0.2179  0.5461 -0.1587
  697SOL    HW1 2786   2.850   1.172   2.166 -2.9281  0.2456  2.0506
  697SOL    HW2 2787   2.886   1.037   2.107  1.7179 -0.0611 -0.7627
  697SOL     MW 2788   2.908   1.112   2.151  0.0008  0.4264  0.0531
  698SOL     OW 2789   2.545   0.315   0.037 -0.6738  0.2374  0.0230
  698SOL    HW1 2790   2.468   0.372   0.059  0.0867  0.7850 -0.9158
  698SOL    HW2 2791   2.568   0.263   0.113 -0.1272 -0.9886  2.6629
  698SOL     MW 2792   2.538   0.316   0.050 -0.5013  0.1479  0.2475
  699SOL     OW 2793   1.835   1.658   1.988  0.4152 -0.5969 -0.1015
  699SOL    HW1 2794   1.820   1.571   2.004  2.4982  0.5969 -1.6824
  699SOL    HW2 2795   1.932   1.663   1.981 -1.0416 -1.3717  1.2886
  699SOL     MW 2796   1.846   1.647   1.989  0.4978 -0.5416 -0.1267
  700SOL     OW 2797   2.697   0.927   1.521  0.0686  0.0452 -0.0867
  700SOL    HW1 2798   2.713   1.006   1.468 -1.7779  1.3256 -0.9722
  700SOL    HW2 2799   2.769   0.864   1.512  2.4672  2.6391  0.1436
  700SOL     MW 2800   2.709   0.929   1.513  0.1414  0.5564 -0.1732
  701SOL     OW 2801   1.595   1.233   2.503  0.3083 -0.0731 -0.3856
  701SOL    HW1 2802   1.692   1.228   2.491  1.3611 -2.0998 -0.1457
  701SOL    HW2 2803   1.577   1.270   2.589 -1.0500 -1.2076 -1.5823
  701SOL     MW 2804   1.605   1.237   2.513  0.2680 -0.4902 -0.5118
  702SOL     OW 2805   2.218   0.404   0.870  0.1898  1.0137  0.2705
  702SOL    HW1 2806   2.181   0.336   0.806 -0.4714  1.1544 -2.9731
  702SOL    HW2 2807   2.243   0.480   0.812  0.6807  1.3420  0.1557
  702SOL     MW 2808   2.217   0.405   0.854  0.1673  1.0756 -0.1726
  703SOL     OW 2809   2.745   1.242   1.009  0.0737 -0.4887 -0.2306
  703SOL    HW1 2810   2.713   1.254   0.921 -2.0776  0.6173 -1.4527
  703SOL    HW2 2811   2.759   1.151   1.025 -1.2441  2.4149 -1.7209
  703SOL     MW 2812   2.743   1.231   1.000 -0.3840  0.0403 -0.5885
  704SOL     OW 2813   0.023   1.291   0.250 -0.1432 -0.7536  0.0191
  704SOL    HW1 2814  -0.045   1.244   0.199 -2.0941 -2.5237  0.6580
  704SOL    HW2 2815   0.001   1.261   0.336  0.6899  0.4953 -5.0794
  704SOL     MW 2816   0.011   1.281   0.255 -0.2907 -0.8224 -0.5693
  705SOL     OW 2817   2.222   1.625   1.331 -0.0145  0.2352  0.1024
  705SOL    HW1 2818   2.138   1.652   1.351 -3.8315  0.8326  1.8522
  705SOL    HW2 2819   2.234   1.538   1.362  1.0666  2.2567  1.0163
  705SOL     MW 2820   2.213   1.617   1.337 -0.3755  0.5807  0.4538
  706SOL     OW 2821   2.955   1.220   0.695 -0.0813 -0.1491 -0.2851
  706SOL    HW1 2822   3.023   1.186   0.635 -1.2055  0.9145  2.8918
  706SOL    HW2 2823   2.956   1.317   0.688 -1.1436 -1.3351  0.3487
  706SOL     MW 2824   2.964   1.228   0.686 -0.3698 -0.1652  0.2177
  707SOL     OW 2825   2.384   0.036   0.984  0.1230 -0.6019  0.1134
  707SOL    HW1 2826   2.383   0.117   0.936 -1.9915  1.1512 -2.2461
  707SOL    HW2 2827   2.296   0.003   0.987  0.9946 -2.5477 -0.8929
  707SOL     MW 2828   2.372   0.042   0.978 -0.0410 -0.6274 -0.3306
  708SOL     OW 2829   2.557   1.519   0.128 -0.6510 -0.7081 -0.3448
  708SOL    HW1 2830   2.606   1.438   0.140 -0.2324 -1.1848  1.5314
  708SOL    HW2 2831   2.526   1.507   0.041  0.7381 -0.1666  0.8833
  708SOL     MW 2832   2.559   1.507   0.118 -0.4125 -0.6996  0.0648
  709SOL     OW 2833   1.730   1.709   0.120  0.6686 -0.4333 -0.1983
  709SOL    HW1 2834   1.701   1.704   0.033  1.8334  1.9780  0.7332
  709SOL    HW2 2835   1.647   1.733   0.162 -1.9395 -0.2956  0.2420
  709SOL     MW 2836   1.715   1.711   0.114  0.4782 -0.0970 -0.0173
  710SOL     OW 2837   2.174   1.168   1.197 -0.6997  0.6977 -0.1618
  710SOL    HW1 2838   2.232   1.133   1.124  3.2934  3.1064  2.3027
  710SOL    HW2 2839   2.168   1.092   1.256 -1.4574  0.4775  0.8054
  710SOL     MW 2840   2.181   1.153   1.195 -0.2728  0.9864  0.2910
  711SOL     OW 2841   2.356   0.129   1.767  0.2953  0.1545  0.4087
  711SOL    HW1 2842   2.450   0.131   1.775 -1.4341 -0.6986  1.0976
  711SOL    HW2 2843   2.341   0.119   1.668 -0.1894 -4.4375  2.0689
  711SOL     MW 2844   2.367   0.128   1.755  0.0032 -0.5639  0.7187
  712SOL     OW 2845   1.898   0.560   3.087 -0.0045 -0.4205  0.6179
  712SOL    HW1 2846   1.865   0.626   3.024 -1.4032  0.4812  2.1685
  712SOL    HW2 2847   1.938   0.620   3.155  4.4561 -0.0475  3.6784
  712SOL     MW 2848   1.899   0.577   3.088  0.3995 -0.2523  1.2263
  713SOL     OW 2849   2.578   0.824   1.109  0.7013  0.2400 -0.0510
  713SOL    HW1 2850   2.586   0.732   1.103 -2.4931  0.2981 -0.3601
  713SOL    HW2 2851   2.535   0.842   1.198  1.3488 -1.3065  0.3395
  713SOL     MW 2852   2.574   0.814   1.120  0.3652  0.0436 -0.0403
  714SOL     OW 2853   2.185   0.217   1.965  0.6605  0.6721  0.1096
  714SOL    HW1 2854   2.229   0.215   2.058  0.1772 -0.2585 -0.8632
  714SOL    HW2 2855   2.247   0.180   1.894 -0.3781 -4.4313  0.1326
  714SOL     MW 2856   2.199   0.211   1.968  0.4597 -0.1241 -0.0157
  715SOL     OW 2857   1.712   1.932   1.680  0.3171  0.1914 -0.1735
  715SOL    HW1 2858   1.790   1.897   1.638 -1.3888  3.6254  0.2943
  715SOL    HW2 2859   1.663   1.857   1.717 -3.8332  1.6368 -0.7097
  715SOL     MW 2860   1.716   1.918   1.679 -0.4555  0.8352 -0.1825
  716SOL     OW 2861   2.345   0.599   0.732 -0.0374  0.0385  0.1912
  716SOL    HW1 2862   2.406   0.544   0.681  0.0365  0.0167 -1.1688
  716SOL    HW2 2863   2.285   0.637   0.668  0.1024  2.1456  2.0858
  716SOL     MW 2864   2.345   0.597   0.717 -0.0092  0.3136  0.2618
  717SOL     OW 2865   2.885   1.450   2.917 -0.0346  0.9208  0.1017
  717SOL    HW1 2866   2.980   1.462   2.922 -1.2447 -0.4540 -0.0386
  717SOL    HW2 2867   2.850   1.526   2.968  1.5390  1.9092  2.7675
  717SOL     MW 2868   2.893   1.462   2.924  0.0133  0.8699  0.4349
  718SOL     OW 2869   2.559   1.365   1.348  0.7351 -0.0846  0.4165
  718SOL    HW1 2870   2.558   1.412   1.432  0.9480 -0.5763 -3.4794
  718SOL    HW2 2871   2.631   1.307   1.364  0.8313  2.1932 -1.8151
  718SOL     MW 2872   2.569   1.364   1.361  0.7758  0.1511 -0.3920
  719SOL     OW 2873   2.230   1.328   0.633  0.1790  0.7569 -0.1040
  719SOL    HW1 2874   2.322   1.324   0.602  1.0046 -1.2780 -0.5768
  719SOL    HW2 2875   2.223   1.354   0.724  2.5316 -0.4885 -1.1333
  719SOL     MW 2876   2.241   1.331   0.641  0.5983  0.3241 -0.3022
  720SOL     OW 2877   2.916   1.166   0.102 -0.4245  0.0053 -0.2890
  720SOL    HW1 2878   2.877   1.089   0.143  1.3207 -2.3926  0.8837
  720SOL    HW2 2879   2.849   1.244   0.117 -3.6100 -0.5026 -1.9454
  720SOL     MW 2880   2.902   1.166   0.109 -0.6145 -0.3781 -0.3528
  721SOL     OW 2881   2.473   0.903   1.348 -0.7282  0.6796 -0.1805
  721SOL    HW1 2882   2.436   0.816   1.371 -1.2124  0.6982  2.4942
  721SOL    HW2 2883   2.559   0.901   1.401 -1.2465 -0.6595 -1.0584
  721SOL     MW 2884   2.480   0.891   1.358 -0.8605  0.5054  0.0566
  722SOL     OW 2885   2.579   1.124   0.381  0.3255  0.5539  0.0326
  722SOL    HW1 2886   2.536   1.203   0.417 -1.0928 -1.8146  0.6741
  722SOL    HW2 2887   2.651   1.106   0.451  2.9814  0.4145  2.5624
  722SOL     MW 2888   2.583   1.132   0.395  0.4888  0.2230  0.4510
  723SOL     OW 2889   2.242   1.408   1.646  0.4291  0.1613 -0.4481
  723SOL    HW1 2890   2.223   1.394   1.551  2.2550 -0.0976 -2.6584
  723SOL    HW2 2891   2.183   1.480   1.672  0.1417  0.7582 -1.8419
  723SOL     MW 2892   2.232   1.415   1.637  0.6321  0.2059 -0.9236
  724SOL     OW 2893   2.510   0.420   0.620 -0.6570 -0.1966  0.4370
  724SOL    HW1 2894   2.490   0.352   0.688  0.4042  1.0024  0.5056
  724SOL    HW2 2895   2.597   0.400   0.586 -1.7383 -0.1690  1.1832
  724SOL     MW 2896   2.519   0.408   0.625 -0.6596 -0.0348  0.5445
  725SOL     OW 2897   2.535   0.511   1.148 -0.2263 -0.1279  0.2677
  725SOL    HW1 2898   2.580   0.539   1.235  0.7053 -1.1001  1.9995
  725SOL    HW2 2899   2.449   0.479   1.166  3.5090 -2.3453  0.6302
  725SOL     MW 2900   2.529   0.511   1.162  0.3894 -0.5488  0.5440
  726SOL     OW 2901   2.578   2.457   0.561  0.4122  0.2018 -0.2366
  726SOL    HW1 2902   2.531   2.522   0.505 -0.6776 -1.1716  0.0894
  726SOL    HW2 2903   2.499   2.426   0.613  0.2949  1.4129 -0.5371
  726SOL     MW 2904   2.561   2.462   0.560  0.2529  0.1804 -0.2332
  727SOL     OW 2905   2.910   0.278   1.592 -0.5310  0.4829  0.4856
  727SOL    HW1 2906   2.926   0.305   1.504 -2.0398  3.2514  3.3500
  727SOL    HW2 2907   2.819   0.257   1.590 -0.1989 -1.2244  2.2738
  727SOL     MW 2908   2.900   0.279   1.580 -0.6862  0.6230  1.0995
  728SOL     OW 2909   2.833   1.134   2.925 -0.3361 -0.2682 -0.1682
  728SOL    HW1 2910   2.841   1.224   2.891 -0.1410  0.4478 -1.6222
  728SOL    HW2 2911   2.855   1.136   3.019  3.0149  0.3963 -0.3520
  728SOL     MW 2912   2.837   1.146   2.933  0.1318 -0.0861 -0.3843
  729SOL     OW 2913   2.543   1.542   1.080  0.2748  0.0346 -0.4592
  729SOL    HW1 2914   2.581   1.480   1.141  1.4953 -0.1034 -1.7235
  729SOL    HW2 2915   2.589   1.542   0.998 -3.1775  1.3248  2.0536
  729SOL     MW 2916   2.554   1.534   1.077 -0.0197  0.1866 -0.2945
  730SOL     OW 2917   2.141   1.152   0.227  0.1160  0.5711 -0.2981
  730SOL    HW1 2918   2.220   1.108   0.204  0.5925  1.0198  1.6125
  730SOL    HW2 2919   2.159   1.246   0.218 -1.4657  0.5089  0.9107
  730SOL     MW 2920   2.154   1.159   0.222 -0.0298  0.6221  0.1134
  731SOL     OW 2921   2.856   1.882   2.872 -0.0477  0.8504 -0.3503
  731SOL    HW1 2922   2.775   1.923   2.821  3.4059  0.9322  0.5384
  731SOL    HW2 2923   2.913   1.962   2.870 -1.2885  0.9666  0.7820
  731SOL     MW 2924   2.853   1.898   2.865  0.2442  0.8765 -0.0837
  732SOL     OW 2925   2.196   0.934   1.357 -0.4969 -0.4081  1.3311
  732SOL    HW1 2926   2.154   0.951   1.442 -2.6230 -0.0019 -0.3019
  732SOL    HW2 2927   2.288   0.947   1.371  1.5912 -0.8551 -1.6291
  732SOL     MW 2928   2.202   0.938   1.370 -0.5019 -0.4135  0.7251
  733SOL     OW 2929   2.322   2.798   3.008 -0.1895  0.1942  0.1057
  733SOL    HW1 2930   2.232   2.839   3.004  0.9384  0.0189 -3.6865
  733SOL    HW2 2931   2.313   2.700   3.007  0.7810 -0.9970 -1.1205
  733SOL     MW 2932   2.309   2.791   3.008  0.0874  0.0139 -0.5565
  734SOL     OW 2933   1.489   0.357   2.456  0.0037  0.0530 -0.5141
  734SOL    HW1 2934   1.457   0.323   2.537  1.8544 -0.5985  1.2392
  734SOL    HW2 2935   1.525   0.276   2.407  2.3770 -0.3848  3.3953
  734SOL     MW 2936   1.489   0.342   2.460  0.5610 -0.0907  0.2330
  735SOL     OW 2937   2.966   0.953   2.593 -0.7991  0.2093  0.1755
  735SOL    HW1 2938   2.964   0.854   2.611 -1.0297  0.3340  1.1179
  735SOL    HW2 2939   2.994   0.985   2.678  3.3548 -0.8012 -1.6032
  735SOL     MW 2940   2.969   0.944   2.607 -0.2815  0.0924  0.0651
  736SOL     OW 2941   0.116   0.601   2.566  0.3581 -0.8737 -0.1965
  736SOL    HW1 2942   0.153   0.657   2.500 -0.8102 -0.1005 -2.4195
  736SOL    HW2 2943   0.078   0.531   2.509  1.6776 -0.0702 -0.8017
  736SOL     MW 2944   0.116   0.599   2.550  0.3780 -0.6656 -0.5696
  737SOL     OW 2945   2.928   0.671   2.620 -0.3445 -0.4349  0.3421
  737SOL    HW1 2946   2.888   0.647   2.536  0.6208 -0.6565 -0.0201
  737SOL    HW2 2947   3.020   0.642   2.616 -0.1098  0.8191 -0.8171
  737SOL     MW 2948   2.935   0.664   2.609 -0.1862 -0.2987  0.1414
  738SOL     OW 2949   0.230   0.520   1.909  0.4805  0.4907 -0.5456
  738SOL    HW1 2950   0.320   0.562   1.904 -0.8527  0.5742  3.5815
  738SOL    HW2 2951   0.233   0.443   1.848 -0.5004 -3.6341 -0.6312
  738SOL     MW 2952   0.242   0.515   1.900  0.1752 -0.0425 -0.0123
  739SOL     OW 2953   2.454   1.038   2.127 -0.6323  0.2918 -0.2202
  739SOL    HW1 2954   2.421   0.951   2.103  3.4136 -0.8277  1.0362
  739SOL    HW2 2955   2.506   1.070   2.053  0.2373 -1.1174  0.2785
  739SOL     MW 2956   2.456   1.031   2.114  0.0163 -0.0419  0.0114
  740SOL     OW 2957   0.182   1.780   2.970 -0.0345  0.4912  0.3646
  740SOL    HW1 2958   0.128   1.701   2.983 -0.4649 -1.3315  1.2289
  740SOL    HW2 2959   0.275   1.765   2.981  0.3841  1.4880 -3.1021
  740SOL     MW 2960   0.187   1.768   2.973 -0.0361  0.3822  0.0212
  741SOL     OW 2961   2.268   1.288   2.712 -0.3066  0.6560 -0.4138
  741SOL    HW1 2962   2.223   1.344   2.650  0.4240 -0.8607 -0.9161
  741SOL    HW2 2963   2.240   1.315   2.800  1.3856 -1.0455  1.0100
  741SOL     MW 2964   2.258   1.299   2.716  0.0130  0.2314 -0.2922
  742SOL     OW 2965   1.573   1.324   2.216 -0.2685 -0.4176 -0.1080
  742SOL    HW1 2966   1.551   1.232   2.199  0.3744 -0.9473  1.9501
  742SOL    HW2 2967   1.562   1.331   2.307  0.8823 -1.2448 -0.9245
  742SOL     MW 2968   1.569   1.313   2.226 -0.0318 -0.5966  0.0558
  743SOL     OW 2969   2.534   1.230   2.786  0.3631  0.2906  0.3830
  743SOL    HW1 2970   2.443   1.247   2.769 -3.3397 -0.5212 -0.3929
  743SOL    HW2 2971   2.543   1.138   2.793  0.2059  3.9357  2.0383
  743SOL     MW 2972   2.523   1.220   2.785 -0.1462  0.6644  0.4990
  744SOL     OW 2973   2.748   0.986   1.777 -0.1170  0.4521 -0.4933
  744SOL    HW1 2974   2.679   1.028   1.833  0.4486  1.4383 -0.2918
  744SOL    HW2 2975   2.702   0.954   1.693 -0.7032  0.1969 -0.2183
  744SOL     MW 2976   2.733   0.987   1.774 -0.1197  0.5486 -0.4304
  745SOL     OW 2977   1.789   0.420   2.499  0.2949  0.0564 -0.1070
  745SOL    HW1 2978   1.815   0.441   2.407 -1.1793  0.2462 -1.0538
  745SOL    HW2 2979   1.691   0.416   2.488 -1.4118 -1.0010  1.6091
  745SOL     MW 2980   1.779   0.422   2.485 -0.1248 -0.0581 -0.0055
  746SOL     OW 2981   1.498   1.469   1.710 -0.2563 -0.5535 -0.2165
  746SOL    HW1 2982   1.575   1.527   1.714  0.8200 -1.3763 -0.0589
  746SOL    HW2 2983   1.507   1.405   1.778 -1.5772  2.8919  1.8398
  746SOL     MW 2984   1.509   1.468   1.719 -0.2885 -0.2075  0.0756
  747SOL     OW 2985   2.552   1.160   1.907 -0.0977 -0.4062 -0.3858
  747SOL    HW1 2986   2.458   1.164   1.881  2.4294  1.0358  1.3824
  747SOL    HW2 2987   2.575   1.248   1.940  2.5735 -1.0258 -0.8625
  747SOL     MW 2988   2.543   1.172   1.908  0.5881 -0.2977 -0.2154
  748SOL     OW 2989   0.097   3.097   1.869  0.3546  0.2238  0.0000
  748SOL    HW1 2990   0.171   3.049   1.912 -1.0381 -0.0497  3.0923
  748SOL    HW2 2991   0.076   3.170   1.932 -0.1282  1.9880  0.6906
  748SOL     MW 2992   0.104   3.100   1.883  0.1071  0.4205  0.4991
  749SOL     OW 2993   2.404   0.538   2.759 -0.0947 -0.1560  0.5712
  749SOL    HW1 2994   2.435   0.618   2.720 -1.1823  1.4014 -1.2176
  749SOL    HW2 2995   2.419   0.541   2.848 -0.4390 -2.7615 -3.6155
  749SOL     MW 2996   2.410   0.549   2.766 -0.2836 -0.2943 -0.2172
  750SOL     OW 2997   2.048   3.078   1.961 -0.5757  0.1910 -0.0244
  750SOL    HW1 2998   2.106   3.154   1.947 -0.8125 -1.3135  1.0513
  750SOL    HW2 2999   2.105   3.007   1.959  1.1170  1.2122 -0.2331
  750SOL     MW 3000   2.063   3.078   1.959 -0.3836  0.1272  0.0900
  751SOL     OW 3001   0.024   0.422   2.377 -0.0998  0.7047 -0.3307
  751SOL    HW1 3002  -0.066   0.382   2.355 -1.2377  3.7868 -0.9128
  751SOL    HW2 3003   0.090   0.386   2.319  1.2372  0.2146 -0.5815
  751SOL     MW 3004   0.021   0.412   2.367 -0.0736  1.0467 -0.4406
  752SOL     OW 3005   2.129   0.883   2.749 -0.3599 -0.1447 -0.4215
  752SOL    HW1 3006   2.207   0.937   2.728  2.0262 -2.6652  2.8840
  752SOL    HW2 3007   2.115   0.889   2.847 -0.5476 -2.2306  0.5371
  752SOL     MW 3008   2.137   0.891   2.759 -0.0698 -0.7525  0.1411
  753SOL     OW 3009   2.857   0.356   2.347  0.3421 -0.4433  0.0428
  753SOL    HW1 3010   2.801   0.277   2.334 -1.7898  1.2810 -1.4815
  753SOL    HW2 3011   2.799   0.430   2.366 -0.4369 -3.3863  2.5076
  753SOL     MW 3012   2.842   0.355   2.348 -0.0420 -0.6041  0.1669
  754SOL     OW 3013   2.208   3.014   2.641  0.4969 -0.3070  0.8109
  754SOL    HW1 3014   2.236   3.005   2.548 -0.7584 -0.5593  2.0474
  754SOL    HW2 3015   2.279   2.986   2.697 -1.2696 -0.7405  0.4014
  754SOL     MW 3016   2.221   3.009   2.636  0.0982 -0.3975  0.9200
  755SOL     OW 3017   2.746   1.596   2.489 -0.1012 -0.2622  0.0473
  755SOL    HW1 3018   2.711   1.511   2.515 -3.0847  0.7698  0.6964
  755SOL    HW2 3019   2.778   1.632   2.570  0.5979  0.6250 -2.4977
  755SOL     MW 3020   2.746   1.590   2.503 -0.4026 -0.0090 -0.2029
  756SOL     OW 3021   2.236   1.278   3.001  0.6281  0.4813  0.4749
  756SOL    HW1 3022   2.309   1.333   2.987  0.3444 -0.6683  1.3327
  756SOL    HW2 3023   2.268   1.186   3.014  2.8409  1.8883 -0.3529
  756SOL     MW 3024   2.250   1.273   3.001  0.8826  0.5153  0.4788
  757SOL     OW 3025   2.125   0.970   1.629 -0.2662 -0.4228  0.1053
  757SOL    HW1 3026   2.151   0.878   1.634  1.4767  1.0484  0.9155
  757SOL    HW2 3027   2.036   0.977   1.593  0.2746  0.1098 -1.0636
  757SOL     MW 3028   2.116   0.958   1.625  0.0351 -0.1584  0.0580
  758SOL     OW 3029   2.237   1.761   2.671 -0.1539  0.8902  0.3303
  758SOL    HW1 3030   2.215   1.782   2.580  2.5611 -2.4579  1.0398
  758SOL    HW2 3031   2.336   1.765   2.662 -0.7125  0.3499 -1.1902
  758SOL     MW 3032   2.247   1.764   2.658  0.1306  0.3771  0.2233
  759SOL     OW 3033   1.561   1.373   2.747 -0.1204 -0.6524 -0.6412
  759SOL    HW1 3034   1.599   1.426   2.672  0.4160  1.9326 -2.3828
  759SOL    HW2 3035   1.583   1.424   2.828  2.9818 -1.7571  2.2194
  759SOL     MW 3036   1.569   1.386   2.748  0.3597 -0.4571 -0.4936
  760SOL     OW 3037   2.682   1.970   2.690  0.2880 -0.4053  0.4237
  760SOL    HW1 3038   2.634   1.888   2.673 -4.4216 -1.1260  0.4175
  760SOL    HW2 3039   2.755   1.967   2.624  0.3716  0.6384  1.8071
  760SOL     MW 3040   2.685   1.959   2.679 -0.3223 -0.3627  0.6054
  761SOL     OW 3041   2.110   0.431   2.438 -0.1633  0.7074 -0.0878
  761SOL    HW1 3042   2.054   0.358   2.413 -2.1343 -2.1098 -3.0581
  761SOL    HW2 3043   2.113   0.446   2.535  2.1928  2.4275  2.2023
  761SOL     MW 3044   2.103   0.423   2.448 -0.1125  0.5627 -0.1776
  762SOL     OW 3045   3.096   0.167   2.061 -0.6242  0.2899  0.0993
  762SOL    HW1 3046   3.106   0.123   2.149  3.3167 -0.7623  0.1739
  762SOL    HW2 3047   3.039   0.245   2.071 -1.9323 -0.1496 -2.2360
  762SOL     MW 3048   3.090   0.172   2.074 -0.2768  0.0931 -0.1990
  763SOL     OW 3049   2.413   1.157   2.363 -0.7790 -0.4428  0.7661
  763SOL    HW1 3050   2.434   1.117   2.273 -1.8327  1.1254 -0.6523
  763SOL    HW2 3051   2.489   1.214   2.389  0.3541 -1.0096 -1.2679
  763SOL     MW 3052   2.426   1.159   2.354 -0.7685 -0.3107  0.3106
  764SOL     OW 3053   0.327   0.177   2.820  0.2402  0.2376  0.0197
  764SOL    HW1 3054   0.240   0.212   2.795  0.3377 -1.4305  2.1483
  764SOL    HW2 3055   0.353   0.237   2.891 -0.7550  1.1953  0.4042
  764SOL     MW 3056   0.319   0.189   2.826  0.1217  0.1439  0.3513
  765SOL     OW 3057   2.689   0.136   2.318 -0.2659 -0.7342 -0.2070
  765SOL    HW1 3058   2.642   0.124   2.237  1.4352 -2.0394 -2.4312
  765SOL    HW2 3059   2.752   0.063   2.314  0.6068  0.5174 -0.7427
  765SOL     MW 3060   2.691   0.125   2.306  0.0736 -0.7413 -0.5712
  766SOL     OW 3061   1.844   3.012   2.144 -0.2260  0.3519  0.5592
  766SOL    HW1 3062   1.918   3.030   2.081  0.7781 -1.3340  0.7156
  766SOL    HW2 3063   1.801   2.943   2.088  0.3831  0.1096 -1.4577
  766SOL     MW 3064   1.848   3.006   2.128 -0.0132  0.0975  0.3138
  767SOL     OW 3065   2.677   0.596   1.856  0.0068  0.1045  0.1069
  767SOL    HW1 3066   2.725   0.657   1.917  1.3661 -2.0798  1.1909
  767SOL    HW2 3067   2.588   0.638   1.853  0.1821  1.6809 -1.6321
  767SOL     MW 3068   2.671   0.610   1.863  0.2093  0.0243  0.0205
  768SOL     OW 3069   0.052   1.524   2.928  0.1440  0.1694  0.4662
  768SOL    HW1 3070   0.099   1.496   3.009  0.3093  1.6614  1.6265
  768SOL    HW2 3071   0.083   1.458   2.862  2.5993 -1.2002  1.4634
  768SOL     MW 3072   0.062   1.512   2.930  0.4897  0.1856  0.7509
  769SOL     OW 3073   2.368   0.648   2.393  0.4372 -0.3273 -0.7219
  769SOL    HW1 3074   2.291   0.591   2.366 -1.0006 -1.8759 -1.8038
  769SOL    HW2 3075   2.427   0.629   2.319  0.9399 -0.0777  0.4480
  769SOL     MW 3076   2.366   0.638   2.379  0.3138 -0.4987 -0.7103
  770SOL     OW 3077   0.026   1.634   2.563 -0.6821  0.3275 -0.2387
  770SOL    HW1 3078  -0.060   1.655   2.610  1.5685  1.8444  1.6128
  770SOL    HW2 3079   0.049   1.545   2.601 -1.0288  0.3124  2.4314
  770SOL     MW 3080   0.018   1.625   2.574 -0.4309  0.5257  0.3579
  771SOL     OW 3081   3.068   0.631   1.971  0.3947  0.0895 -0.2110
  771SOL    HW1 3082   3.032   0.613   1.879  0.8499 -1.0440 -2.1985
  771SOL    HW2 3083   3.155   0.604   1.960 -1.2125  2.2862 -1.7839
  771SOL     MW 3084   3.075   0.625   1.957  0.2427  0.2297 -0.6808
  772SOL     OW 3085   0.016   0.034   2.303 -0.3745  0.5217 -0.8965
  772SOL    HW1 3086  -0.065   0.018   2.345 -0.1939  0.1880  0.6563
  772SOL    HW2 3087   0.062  -0.049   2.275  1.0921 -0.0942 -0.8370
  772SOL     MW 3088   0.012   0.021   2.305 -0.1572  0.3964 -0.6838
  773SOL     OW 3089   2.415   2.897   2.757 -0.2106 -0.2665  0.3371
  773SOL    HW1 3090   2.406   2.820   2.704 -2.1479 -0.8773 -1.1171
  773SOL    HW2 3091   2.372   2.866   2.835  0.1450 -1.1979 -1.0180
  773SOL     MW 3092   2.408   2.883   2.760 -0.4193 -0.4700 -0.0336
  774SOL     OW 3093   2.319   1.175   1.778 -0.3665 -0.1465 -0.4177
  774SOL    HW1 3094   2.276   1.250   1.734  0.7498  0.7534 -0.3161
  774SOL    HW2 3095   2.270   1.093   1.743  0.3778 -2.6623  1.8904
  774SOL     MW 3096   2.307   1.174   1.768 -0.1210 -0.3597 -0.0998
  775SOL     OW 3097   2.287   2.990   2.360 -0.6839  0.5634  0.0242
  775SOL    HW1 3098   2.287   3.078   2.327 -0.5226  0.3165  2.5588
  775SOL    HW2 3099   2.360   2.937   2.326 -2.2705 -2.0591  1.5557
  775SOL     MW 3100   2.297   2.995   2.351 -0.8720  0.1848  0.5607
  776SOL     OW 3101   0.143   1.493   0.086  0.1316 -0.1726 -0.0133
  776SOL    HW1 3102   0.231   1.462   0.092  0.2996  0.9620 -0.6171
  776SOL    HW2 3103   0.089   1.436   0.138 -2.7193  1.9571  1.1406
  776SOL     MW 3104   0.147   1.482   0.094 -0.2224  0.2581  0.0593
  777SOL     OW 3105   3.009   1.090   1.713 -0.0055 -0.3586  0.0442
  777SOL    HW1 3106   2.984   1.171   1.670  0.4904 -0.0109  0.2855
  777SOL    HW2 3107   2.924   1.043   1.734 -3.6152 -1.7539 -1.1767
  777SOL     MW 3108   2.994   1.094   1.710 -0.4164 -0.4968 -0.0851
  778SOL     OW 3109   2.825   0.443   2.753 -0.3886  0.3958 -0.2981
  778SOL    HW1 3110   2.765   0.463   2.829 -1.1314  1.4624 -0.6862
  778SOL    HW2 3111   2.862   0.527   2.715  3.2716  3.3521 -0.1882
  778SOL     MW 3112   2.822   0.457   2.758 -0.0037  0.9266 -0.3348
  779SOL     OW 3113   2.150   0.548   2.209 -0.7435  0.2165 -0.2153
  779SOL    HW1 3114   2.146   0.644   2.181 -2.9647  1.6180  1.2147
  779SOL    HW2 3115   2.116   0.532   2.293  2.3093 -0.4877 -0.3038
  779SOL     MW 3116   2.145   0.558   2.217 -0.6338  0.3085 -0.0383
  780SOL     OW 3117   0.095   0.280   2.678 -0.0752 -0.6681  0.4525
  780SOL    HW1 3118   0.080   0.329   2.760 -3.4238  3.4375  0.2251
  780SOL    HW2 3119   0.010   0.277   2.634 -1.1977  2.0082 -1.3957
  780SOL     MW 3120   0.082   0.286   2.683 -0.6651  0.2267  0.1787
  781SOL     OW 3121   3.055   1.303   2.497  0.0064 -0.1393  0.4766
  781SOL    HW1 3122   3.049   1.373   2.431 -1.2548  1.0743  2.1202
  781SOL    HW2 3123   3.088   1.225   2.454 -0.2431  0.4339  0.5581
  781SOL     MW 3124   3.058   1.302   2.483 -0.1929  0.0964  0.7042
  782SOL     OW 3125   0.674   1.552   3.074 -0.0710 -0.2373 -0.2359
  782SOL    HW1 3126   0.593   1.592   3.046  0.8817  0.6613 -0.0092
  782SOL    HW2 3127   0.703   1.607   3.147  1.6819 -5.3860 -0.7973
  782SOL     MW 3128   0.667   1.564   3.080  0.2860 -0.7981 -0.2800
  783SOL     OW 3129   2.722   0.573   2.418 -0.1446 -0.8274  0.1573
  783SOL    HW1 3130   2.677   0.581   2.332  2.1715 -1.8871 -0.8115
  783SOL    HW2 3131   2.658   0.541   2.483  0.7713 -0.1295 -1.3149
  783SOL     MW 3132   2.708   0.570   2.415  0.2818 -0.8751 -0.1648
  784SOL     OW 3133   0.143   0.826   2.811  0.4314  0.2226  0.0122
  784SOL    HW1 3134   0.084   0.904   2.820  0.7346 -1.7998  0.9028
  784SOL    HW2 3135   0.222   0.858   2.762  1.2831 -0.6589 -0.9605
  784SOL     MW 3136   0.146   0.840   2.806  0.5838 -0.1606  0.0014
  785SOL     OW 3137   0.426   0.511   2.182  0.4184  0.2951  0.0921
  785SOL    HW1 3138   0.441   0.513   2.086 -0.6353 -0.9791  1.2379
  785SOL    HW2 3139   0.337   0.473   2.194  0.0326 -0.6797 -1.1654
  785SOL     MW 3140   0.416   0.506   2.171  0.2285 -0.0016  0.0774
  786SOL     OW 3141   1.964   0.324   2.961  0.8192 -0.6648 -0.1523
  786SOL    HW1 3142   1.954   0.418   2.991 -0.2851 -2.3015 -1.8758
  786SOL    HW2 3143   1.967   0.328   2.864  1.3895 -1.6584  1.8354
  786SOL     MW 3144   1.963   0.337   2.952  0.7488 -1.0118 -0.1175
  787SOL     OW 3145   2.453   0.165   2.935  0.0672 -0.0911 -0.4274
  787SOL    HW1 3146   2.524   0.100   2.908 -0.7246  1.2797  1.3849
  787SOL    HW2 3147   2.480   0.204   3.018 -0.0109 -1.0258 -3.3077
  787SOL     MW 3148   2.466   0.161   2.942 -0.0476 -0.0335 -0.5683
  788SOL     OW 3149   2.836   3.010   2.336  0.0061  0.2474  0.1022
  788SOL    HW1 3150   2.824   2.984   2.423 -3.3413 -0.5883 -2.7995
  788SOL    HW2 3151   2.867   2.925   2.295  0.3253 -3.0087 -0.4328
  788SOL     MW 3152   2.839   2.995   2.342 -0.3934 -0.2925 -0.3513
  789SOL     OW 3153   0.087   0.163   3.048  0.6082 -0.2667  0.3558
  789SOL    HW1 3154   0.001   0.116   3.058 -2.5588  1.1245 -1.5467
  789SOL    HW2 3155   0.062   0.228   2.982 -0.5680  0.7414  1.8171
  789SOL     MW 3156   0.072   0.165   3.041  0.0352  0.0498  0.2976
  790SOL     OW 3157   0.017   1.071   2.365  0.4110  0.0460  0.2739
  790SOL    HW1 3158  -0.016   1.018   2.433  3.8314  0.3323  0.9251
  790SOL    HW2 3159  -0.050   1.086   2.300 -1.2877 -0.0762  0.9511
  790SOL     MW 3160   0.004   1.066   2.365  0.6382  0.0677  0.4492
  791SOL     OW 3161   2.589   0.404   2.618 -0.0075 -0.1370  0.0713
  791SOL    HW1 3162   2.506   0.437   2.647  0.8676 -0.2066 -1.5574
  791SOL    HW2 3163   2.653   0.410   2.695  1.0427 -0.0926  3.2016
  791SOL     MW 3164   2.586   0.409   2.632  0.2465 -0.1403  0.2694
  792SOL     OW 3165   2.359   0.298   2.417  0.0406  0.7639  0.0677
  792SOL    HW1 3166   2.283   0.354   2.439  2.1675 -1.9779 -0.2502
  792SOL    HW2 3167   2.355   0.253   2.501 -1.3287  1.5379 -1.2200
  792SOL     MW 3168   2.348   0.300   2.431  0.1406  0.5043 -0.1441
  793SOL     OW 3169   1.934   1.179   1.942 -0.1656 -0.3527  0.4697
  793SOL    HW1 3170   1.869   1.178   1.862 -2.4291  1.4000 -0.7911
  793SOL    HW2 3171   1.980   1.096   1.941 -0.0125 -0.7041  0.6457
  793SOL     MW 3172   1.931   1.168   1.932 -0.4441 -0.1678  0.3266
  794SOL     OW 3173   1.392   2.328   0.127  0.3462 -0.5720  0.0782
  794SOL    HW1 3174   1.407   2.393   0.056 -1.4510 -2.6238  3.0484
  794SOL    HW2 3175   1.459   2.343   0.195  0.3438 -0.9203 -1.5929
  794SOL     MW 3176   1.403   2.339   0.126  0.1088 -0.8887  0.2496
  795SOL     OW 3177   2.351   1.043   2.612  0.2767 -0.5534  0.0053
  795SOL    HW1 3178   2.317   1.133   2.651  0.1199  3.6219 -0.3770
  795SOL    HW2 3179   2.395   1.083   2.534 -0.3697  1.1700 -1.8414
  795SOL     MW 3180   2.352   1.060   2.607  0.1707  0.2249 -0.2888
  796SOL     OW 3181   0.277   0.563   2.779  0.7537  0.2172 -0.1129
  796SOL    HW1 3182   0.258   0.653   2.802 -3.5186 -0.4860  2.6048
  796SOL    HW2 3183   0.206   0.566   2.706  0.3246  0.3206  0.7298
  796SOL     MW 3184   0.265   0.576   2.772  0.1334  0.1381  0.3569
  797SOL     OW 3185   2.660   0.104   2.585 -0.3033  0.2806  0.4116
  797SOL    HW1 3186   2.618   0.181   2.608  1.0812  0.4996  2.9791
  797SOL    HW2 3187   2.643   0.120   2.493  1.6210 -0.2213  2.4621
  797SOL     MW 3188   2.652   0.116   2.576  0.1333  0.2432  1.0209
  798SOL     OW 3189   2.280   0.121   2.224 -0.3576  0.1691  0.2162
  798SOL    HW1 3190   2.321   0.182   2.287  2.3420  0.5162  0.6148
  798SOL    HW2 3191   2.355   0.075   2.181  1.7171  0.3677 -0.5938
  798SOL     MW 3192   2.296   0.123   2.226  0.2723  0.2411  0.1619
  799SOL     OW 3193   2.561   2.934   0.044 -0.1629 -0.1089 -0.8433
  799SOL    HW1 3194   2.497   2.876   0.004  1.0110 -0.0281 -0.2455
  799SOL    HW2 3195   2.526   2.986   0.115  0.5494  3.7907 -1.5253
  799SOL     MW 3196   2.548   2.933   0.048  0.0860  0.4163 -0.8544
  800SOL     OW 3197   1.963   3.101   1.680  0.2932  0.0317 -0.0173
  800SOL    HW1 3198   1.889   3.042   1.685  1.1755  0.5354 -1.0114
  800SOL    HW2 3199   1.992   3.104   1.769  1.1323  1.5719 -3.2779
  800SOL     MW 3200   1.957   3.093   1.692  0.5203  0.3013 -0.5786
  801SOL     OW 3201   2.808   1.283   2.641  0.0422  0.1212  0.3745
  801SOL    HW1 3202   2.764   1.196   2.641 -2.5028  0.6566 -0.3232
  801SOL    HW2 3203   2.893   1.286   2.600 -1.1970  1.7686 -0.9515
  801SOL     MW 3204   2.814   1.272   2.635 -0.4571  0.4092  0.1075
  802SOL     OW 3205   2.614   1.498   2.770 -0.2582  0.6122  0.2423
  802SOL    HW1 3206   2.608   1.397   2.767 -0.9508 -0.1834 -1.5275
  802SOL    HW2 3207   2.712   1.515   2.770  1.5267  4.5710 -0.9883
  802SOL     MW 3208   2.626   1.487   2.770 -0.1141  1.0295 -0.1535
  803SOL     OW 3209   2.288   1.383   1.983 -0.0387 -0.6957 -0.5838
  803SOL    HW1 3210   2.240   1.343   2.059  0.9022 -2.6204  1.0790
  803SOL    HW2 3211   2.300   1.306   1.928 -1.0736 -3.2011  1.7845
  803SOL     MW 3212   2.283   1.368   1.986 -0.0511 -1.2802 -0.0519
  804SOL     OW 3213   2.302   0.072   0.032  0.2319 -0.0978 -0.0361
  804SOL    HW1 3214   2.243   0.145   0.037  1.2888 -3.7936  0.1368
  804SOL    HW2 3215   2.380   0.094  -0.016  0.0228  1.7196 -0.5770
  804SOL     MW 3216   2.304   0.085   0.026  0.3438 -0.3456 -0.0846
  805SOL     OW 3217   2.700   1.034   2.558  0.2291  0.0513 -0.0527
  805SOL    HW1 3218   2.662   0.988   2.484 -4.6133  0.9150  2.3552
  805SOL    HW2 3219   2.790   0.994   2.570 -2.2352 -1.6747  0.8182
  805SOL     MW 3220   2.707   1.023   2.549 -0.7349 -0.0624  0.3799
  806SOL     OW 3221   2.555   0.569   2.196 -0.4163 -0.7561  0.1688
  806SOL    HW1 3222   2.523   0.479   2.187 -2.1075 -2.6094 -1.5708
  806SOL    HW2 3223   2.538   0.597   2.107  0.2241 -0.0112 -0.7264
  806SOL     MW 3224   2.548   0.561   2.183 -0.5550 -0.9024 -0.1788
  807SOL     OW 3225   0.028   1.188   1.997 -0.4451  0.1553 -0.3395
  807SOL    HW1 3226   0.048   1.096   1.983 -1.9800 -1.2779 -0.8711
  807SOL    HW2 3227  -0.058   1.180   2.045 -5.2143 -1.3560  0.9293
  807SOL     MW 3228   0.019   1.175   2.002 -1.2768 -0.2332 -0.2423
  808SOL     OW 3229   2.620   3.072   2.823 -0.4866  0.4734 -0.1702
  808SOL    HW1 3230   2.546   3.007   2.800  0.1921  1.9954  1.5235
  808SOL    HW2 3231   2.641   3.109   2.737 -3.6264 -0.7025  0.5725
  808SOL     MW 3232   2.613   3.068   2.809 -0.8113  0.5191  0.1513
  809SOL     OW 3233   2.610   1.332   2.428  0.3378 -0.1034 -0.2596
  809SOL    HW1 3234   2.653   1.314   2.511  0.8457 -4.1619  0.8192
  809SOL    HW2 3235   2.682   1.332   2.366 -0.8104  2.4599  2.1902
  809SOL     MW 3236   2.625   1.330   2.431  0.2533 -0.3007  0.2060
  810SOL     OW 3237   2.203   1.299   2.221 -0.1098 -0.1383 -0.3439
  810SOL    HW1 3238   2.266   1.236   2.255 -0.8476 -1.4926  1.7038
  810SOL    HW2 3239   2.124   1.255   2.247 -1.9572 -0.9443  1.0039
  810SOL     MW 3240   2.201   1.285   2.229 -0.4509 -0.4233  0.1041
  811SOL     OW 3241   1.568   0.127   2.303  0.1783 -0.0477  0.4523
  811SOL    HW1 3242   1.621   0.060   2.355 -1.2751  2.5503  2.3624
  811SOL    HW2 3243   1.563   0.092   2.214 -0.0181 -0.9700  0.8254
  811SOL     MW 3244   1.574   0.114   2.298 -0.0394  0.1734  0.7536
  812SOL     OW 3245   1.454   2.825   1.998  0.3038  0.6523  0.8754
  812SOL    HW1 3246   1.541   2.854   1.977  0.3147 -0.6898  1.7465
  812SOL    HW2 3247   1.463   2.785   2.087  2.1230  0.0010  0.0252
  812SOL     MW 3248   1.467   2.824   2.007  0.5453  0.3893  0.8781
  813SOL     OW 3249   1.869   0.705   2.232 -0.0065  0.6298 -0.0722
  813SOL    HW1 3250   1.832   0.618   2.262 -3.7477 -1.2222  0.7846
  813SOL    HW2 3251   1.884   0.759   2.311  1.6242  1.1501 -0.4620
  813SOL     MW 3252   1.866   0.701   2.246 -0.2850  0.4541 -0.0106
  814SOL     OW 3253   2.706   1.249   1.627  0.4206 -0.0520 -0.0174
  814SOL    HW1 3254   2.690   1.206   1.706 -1.9731  1.7057 -1.4455
  814SOL    HW2 3255   2.716   1.185   1.550  2.3111  1.9202  0.2238
  814SOL     MW 3256   2.705   1.235   1.627  0.3542  0.4402 -0.1740
  815SOL     OW 3257   2.555   1.728   2.390 -0.1033 -0.3543  0.0183
  815SOL    HW1 3258   2.504   1.648   2.365  0.8144  4.2535 -1.5240
  815SOL    HW2 3259   2.645   1.693   2.427  2.4147  2.3739 -0.5873
  815SOL     MW 3260   2.560   1.713   2.392  0.3500  0.6136 -0.2651
  816SOL     OW 3261   0.764   0.653   2.756 -0.2880  0.4125  0.1328
  816SOL    HW1 3262   0.766   0.579   2.817 -0.6231  3.6899  0.1143
  816SOL    HW2 3263   0.671   0.674   2.722  0.9382 -0.3940 -0.4241
  816SOL     MW 3264   0.752   0.646   2.760 -0.1705  0.7385  0.0568
  817SOL     OW 3265   3.038   1.238   1.481 -0.2238 -0.0004  0.1423
  817SOL    HW1 3266   3.133   1.231   1.485  1.6873  1.4298 -0.2329
  817SOL    HW2 3267   3.014   1.323   1.451 -2.1791 -1.0578  2.2891
  817SOL     MW 3268   3.048   1.248   1.477 -0.2296  0.0488  0.3761
  818SOL     OW 3269   1.882   1.005   2.683  0.1745 -0.2653 -0.4215
  818SOL    HW1 3270   1.888   0.965   2.595  2.3033  3.0264  0.3353
  818SOL    HW2 3271   1.964   0.980   2.727 -0.7311 -2.8418 -0.4521
  818SOL     MW 3272   1.894   0.997   2.677  0.3359 -0.1709 -0.3257
  819SOL     OW 3273   1.935   0.201   2.440 -0.3343 -0.2324  0.4856
  819SOL    HW1 3274   1.879   0.270   2.462  1.0573 -0.8206 -3.5975
  819SOL    HW2 3275   1.982   0.183   2.523 -0.3473 -0.3234  3.3357
  819SOL     MW 3276   1.934   0.208   2.454 -0.1524 -0.3220  0.3229
  820SOL     OW 3277   2.517   1.741   2.668 -0.1818 -0.7830 -1.0802
  820SOL    HW1 3278   2.546   1.652   2.704 -0.8637  0.1238  0.6692
  820SOL    HW2 3279   2.524   1.733   2.573 -0.7765 -0.2708  0.0243
  820SOL     MW 3280   2.521   1.729   2.660 -0.3502 -0.5958 -0.7037
  821SOL     OW 3281   2.573   1.429   2.048  0.2870  0.5058 -0.5737
  821SOL    HW1 3282   2.623   1.497   2.000  2.2344  1.1533 -2.4367
  821SOL    HW2 3283   2.472   1.435   2.033 -1.0500 -1.4498 -0.5631
  821SOL     MW 3284   2.566   1.439   2.040  0.3675  0.3332 -0.8181
  822SOL     OW 3285   2.711   2.650   1.374  0.1352 -0.0993  0.0045
  822SOL    HW1 3286   2.745   2.673   1.457 -3.1631 -1.4738  2.6318
  822SOL    HW2 3287   2.647   2.713   1.352  0.5593 -0.3007 -0.1076
  822SOL     MW 3288   2.707   2.661   1.382 -0.2440 -0.3072  0.3363
  823SOL     OW 3289   2.294   0.488   1.759 -0.4147  0.3249 -0.5617
  823SOL    HW1 3290   2.381   0.479   1.719  0.4634  3.4445 -0.7244
  823SOL    HW2 3291   2.239   0.415   1.730 -0.2327  1.6804 -2.0503
  823SOL     MW 3292   2.298   0.477   1.750 -0.2748  0.9153 -0.7796
  824SOL     OW 3293   2.104   1.440   2.514 -0.2768 -0.4496  0.0427
  824SOL    HW1 3294   2.154   1.481   2.443 -2.5429 -0.7767 -1.1132
  824SOL    HW2 3295   2.062   1.507   2.567 -1.3375 -1.2144 -1.0735
  824SOL     MW 3296   2.105   1.454   2.512 -0.7157 -0.5937 -0.2571
  825SOL     OW 3297   1.892   2.549   0.302  0.5974  0.2159  0.6238
  825SOL    HW1 3298   1.916   2.507   0.383  1.9666 -1.1890 -2.2988
  825SOL    HW2 3299   1.955   2.516   0.238 -0.4741  0.2552  0.3448
  825SOL     MW 3300   1.904   2.539   0.304  0.6367  0.0357  0.2014
  826SOL     OW 3301   1.892   2.375   0.531  0.1591  0.1378 -0.2661
  826SOL    HW1 3302   1.862   2.288   0.570 -2.4091 -0.6132 -0.7765
  826SOL    HW2 3303   1.831   2.440   0.569  1.7437  0.7440  0.3196
  826SOL     MW 3304   1.880   2.372   0.541  0.0294  0.1187 -0.2562
  827SOL     OW 3305   1.922   2.189   0.954 -0.2518 -0.3998  0.1304
  827SOL    HW1 3306   1.867   2.244   0.907  2.0274  0.3832  4.9209
  827SOL    HW2 3307   1.859   2.115   0.968 -1.6053  0.0529 -0.3941
  827SOL     MW 3308   1.907   2.187   0.950 -0.1297 -0.2367  0.6932
  828SOL     OW 3309   0.088   2.611   0.605  0.0731  0.0700  0.2272
  828SOL    HW1 3310   0.177   2.630   0.575  0.5926 -0.1043  1.3502
  828SOL    HW2 3311   0.025   2.626   0.527 -0.2138 -3.3344 -1.5794
  828SOL     MW 3312   0.092   2.615   0.591  0.1038 -0.4022  0.1370
  829SOL     OW 3313   2.937   2.956   1.144  0.5175 -0.1537  0.1089
  829SOL    HW1 3314   2.849   2.927   1.123  1.8456  0.4196 -0.0998
  829SOL    HW2 3315   2.997   2.878   1.140  0.9277 -0.5850  2.2671
  829SOL     MW 3316   2.933   2.942   1.141  0.7468 -0.1350  0.3661
  830SOL     OW 3317   2.516   2.884   2.030 -0.1554 -0.4663  0.2542
  830SOL    HW1 3318   2.426   2.878   1.997 -1.1030  0.6954  2.0968
  830SOL    HW2 3319   2.563   2.854   1.955 -0.1426  0.0712 -0.4421
  830SOL     MW 3320   2.510   2.879   2.016 -0.2787 -0.2421  0.4055
  831SOL     OW 3321   2.395   2.470   1.294  0.4128 -0.2689  0.0994
  831SOL    HW1 3322   2.367   2.431   1.382 -2.0637 -0.8508  2.1693
  831SOL    HW2 3323   2.476   2.422   1.278 -0.4360  1.5910  1.2372
  831SOL     MW 3324   2.402   2.458   1.303 -0.0259 -0.1003  0.5226
  832SOL     OW 3325   2.394   2.187   1.921 -0.5278 -0.0643 -0.0625
  832SOL    HW1 3326   2.420   2.275   1.961  0.9743 -0.9512  0.7068
  832SOL    HW2 3327   2.474   2.164   1.872 -0.4952  2.8082 -2.0751
  832SOL     MW 3328   2.408   2.196   1.920 -0.3253  0.1976 -0.2265
  833SOL     OW 3329   1.770   2.426   0.865 -0.3471  0.5110 -0.0237
  833SOL    HW1 3330   1.695   2.373   0.860  3.0134  4.0944  0.0789
  833SOL    HW2 3331   1.764   2.492   0.944  0.9555  0.6907  4.1615
  833SOL     MW 3332   1.759   2.427   0.875  0.2682  1.0075  0.5420
  834SOL     OW 3333   2.143   2.467   0.570  0.4986 -0.0099 -0.0168
  834SOL    HW1 3334   2.050   2.460   0.569  0.8881 -2.8154 -0.8679
  834SOL    HW2 3335   2.174   2.432   0.494 -0.8145  0.6528 -0.7309
  834SOL     MW 3336   2.135   2.461   0.559  0.3768 -0.2926 -0.2233
  835SOL     OW 3337   1.782   2.584   0.645 -0.5103 -0.2058 -0.4783
  835SOL    HW1 3338   1.768   2.534   0.732  1.2988  1.4902 -1.0759
  835SOL    HW2 3339   1.862   2.632   0.663  1.6338  0.4161 -0.6487
  835SOL     MW 3340   1.790   2.584   0.659  0.0113  0.1000 -0.5796
  836SOL     OW 3341   1.911   2.200   1.612  0.6009 -0.3386 -0.4103
  836SOL    HW1 3342   1.994   2.245   1.616  0.6881 -0.8779 -1.5954
  836SOL    HW2 3343   1.843   2.267   1.629 -1.6766 -1.0960  0.1038
  836SOL     MW 3344   1.913   2.214   1.615  0.3119 -0.5097 -0.4988
  837SOL     OW 3345   2.133   0.192   0.716 -0.3260 -0.0616 -0.1490
  837SOL    HW1 3346   2.044   0.219   0.683 -2.3490  1.3930  0.8074
  837SOL    HW2 3347   2.152   0.117   0.655  0.8729  2.7398 -2.7200
  837SOL     MW 3348   2.124   0.186   0.704 -0.4348  0.5000 -0.3620
  838SOL     OW 3349   2.953   2.147   0.926 -0.3233  0.4815 -0.2748
  838SOL    HW1 3350   2.890   2.086   0.970 -0.0005 -0.4502  0.7877
  838SOL    HW2 3351   3.016   2.091   0.880  2.6630 -0.5074 -0.1058
  838SOL     MW 3352   2.953   2.132   0.926  0.1133  0.2281 -0.1123
  839SOL     OW 3353   1.522   2.347   0.956 -0.0180 -0.0342 -0.3170
  839SOL    HW1 3354   1.523   2.430   1.003  0.0653 -0.3290 -0.5110
  839SOL    HW2 3355   1.540   2.274   1.019  1.2286 -1.3384 -0.1252
  839SOL     MW 3356   1.525   2.348   0.970  0.1575 -0.2451 -0.3173
  840SOL     OW 3357   2.340   2.084   2.413 -0.4900 -0.6239  0.0603
  840SOL    HW1 3358   2.313   2.113   2.330  0.9993  2.0548  2.6460
  840SOL    HW2 3359   2.370   2.167   2.457  0.1252  0.9958 -2.8146
  840SOL     MW 3360   2.341   2.099   2.408 -0.2123 -0.0568  0.0221
  841SOL     OW 3361   2.090   2.471   0.125  0.8086  0.1403 -0.4647
  841SOL    HW1 3362   2.153   2.504   0.062  0.0634 -0.6114 -0.1604
  841SOL    HW2 3363   2.048   2.389   0.092  0.6654 -2.3771 -0.3930
  841SOL     MW 3364   2.093   2.465   0.112  0.6914 -0.2910 -0.4151
  842SOL     OW 3365   2.611   1.952   1.580  0.3976 -0.6847  0.4719
  842SOL    HW1 3366   2.549   1.880   1.585 -1.2909 -2.2290  2.3414
  842SOL    HW2 3367   2.575   2.010   1.518 -0.8333 -1.5957  2.1376
  842SOL     MW 3368   2.598   1.950   1.573  0.0124 -1.0086  0.9383
  843SOL     OW 3369   2.601   2.753   1.801 -0.5840 -0.2984 -0.0017
  843SOL    HW1 3370   2.693   2.733   1.771  1.7232 -1.9508 -1.7726
  843SOL    HW2 3371   2.570   2.671   1.778  0.4497  0.7342 -2.0189
  843SOL     MW 3372   2.609   2.739   1.794 -0.1432 -0.3802 -0.5015
  844SOL     OW 3373   2.605   2.300   1.206 -0.2267 -0.1616  0.1780
  844SOL    HW1 3374   2.632   2.323   1.122  2.4434  0.0301  1.2513
  844SOL    HW2 3375   2.680   2.301   1.265  0.8208 -0.2785 -0.9460
  844SOL     MW 3376   2.619   2.303   1.203  0.2638 -0.1518  0.1713
  845SOL     OW 3377   2.852   2.491   0.279  0.3931 -0.0244  0.6613
  845SOL    HW1 3378   2.803   2.413   0.301 -2.3936  2.0432 -0.0197
  845SOL    HW2 3379   2.859   2.530   0.366  0.2281  0.6070 -1.6519
  845SOL     MW 3380   2.846   2.486   0.293  0.0037  0.3317  0.2662
  846SOL     OW 3381   1.538   2.877   0.779 -0.5139 -0.6799  0.1036
  846SOL    HW1 3382   1.619   2.916   0.823  1.5731 -2.1362  1.7250
  846SOL    HW2 3383   1.463   2.920   0.828  1.4030  0.8560  1.2424
  846SOL     MW 3384   1.538   2.888   0.792  0.0144 -0.6694  0.4678
  847SOL     OW 3385   2.576   1.924   0.179 -0.3748  0.2021 -0.0721
  847SOL    HW1 3386   2.668   1.888   0.182  1.8161 -0.8124  0.9079
  847SOL    HW2 3387   2.514   1.851   0.154 -0.9076 -0.3666 -0.7646
  847SOL     MW 3388   2.580   1.910   0.176 -0.1560 -0.0068 -0.0341
  848SOL     OW 3389   2.514   2.112   1.392  0.6315 -0.0512  0.6022
  848SOL    HW1 3390   2.546   2.170   1.325 -0.4983 -0.6152 -0.3486
  848SOL    HW2 3391   2.470   2.046   1.341 -1.0357  0.1334  0.8217
  848SOL     MW 3392   2.512   2.111   1.377  0.2625 -0.1013  0.5057
  849SOL     OW 3393   2.007   2.750   0.763 -0.4941 -0.2190  0.7756
  849SOL    HW1 3394   2.038   2.686   0.825 -1.5331  2.8050  0.3536
  849SOL    HW2 3395   2.081   2.751   0.693  1.5262  1.5550 -0.1599
  849SOL     MW 3396   2.021   2.741   0.762 -0.3646  0.4141  0.5965
  850SOL     OW 3397   2.217   1.935   1.638  0.6230 -0.0942 -0.0121
  850SOL    HW1 3398   2.125   1.927   1.617 -0.2850  3.1520  0.5593
  850SOL    HW2 3399   2.222   2.020   1.680  4.0608 -0.7322 -3.4613
  850SOL     MW 3400   2.205   1.945   1.640  0.9568  0.2499 -0.3918
  851SOL     OW 3401   2.273   2.421   0.336  0.3077 -0.0169 -0.2761
  851SOL    HW1 3402   2.218   2.449   0.264 -0.0242 -3.1026  0.7273
  851SOL    HW2 3403   2.333   2.496   0.342 -0.9165 -0.5535  0.2673
  851SOL     MW 3404   2.274   2.435   0.327  0.1024 -0.4948 -0.0720
  852SOL     OW 3405   2.365   2.157   0.258  0.2444 -0.1805  0.2709
  852SOL    HW1 3406   2.337   2.250   0.250  0.4831  0.0390 -0.0174
  852SOL    HW2 3407   2.432   2.136   0.197 -3.4609  0.7819  2.3482
  852SOL     MW 3408   2.370   2.166   0.249 -0.2130 -0.0245  0.5069
  853SOL     OW 3409   2.480   2.420   2.003  0.3128 -0.1600 -0.7761
  853SOL    HW1 3410   2.492   2.449   1.911 -0.3349  2.2628 -2.1345
  853SOL    HW2 3411   2.566   2.424   2.035 -1.1739  0.2779 -2.2621
  853SOL     MW 3412   2.493   2.424   1.995  0.0312  0.2174 -1.1514
  854SOL     OW 3413   2.794   2.275   0.748  0.0387  0.6331 -0.4166
  854SOL    HW1 3414   2.712   2.235   0.719  1.5285  0.1530 -0.6393
  854SOL    HW2 3415   2.848   2.208   0.793 -1.3157 -1.3813 -1.4086
  854SOL     MW 3416   2.791   2.261   0.750  0.0566  0.3040 -0.5769
  855SOL     OW 3417   2.711   2.252   0.357  0.4372 -0.3195 -0.1105
  855SOL    HW1 3418   2.668   2.272   0.438 -1.4982  1.5977  1.1503
  855SOL    HW2 3419   2.772   2.183   0.382  1.1974 -1.0419  3.3628
  855SOL     MW 3420   2.713   2.246   0.371  0.2822 -0.1619  0.5141
  856SOL     OW 3421   2.203   1.945   0.197 -0.4253  0.6079 -0.3123
  856SOL    HW1 3422   2.119   1.960   0.241  1.5158 -0.0792 -0.0809
  856SOL    HW2 3423   2.253   2.021   0.234  0.4093  2.2180  0.3603
  856SOL     MW 3424   2.199   1.957   0.207 -0.0591  0.7297 -0.1931
  857SOL     OW 3425   2.580   1.966   0.450  0.3806 -0.0768  0.9331
  857SOL    HW1 3426   2.598   2.059   0.426 -1.2200  3.3369 -3.0040
  857SOL    HW2 3427   2.569   1.932   0.356 -1.6537 -0.7183 -3.4191
  857SOL     MW 3428   2.581   1.974   0.435 -0.0990  0.2890 -0.1606
  858SOL     OW 3429   2.829   2.665   1.673  0.3877 -0.1364  0.1433
  858SOL    HW1 3430   2.915   2.702   1.676  0.7566  0.7354  1.5860
  858SOL    HW2 3431   2.829   2.587   1.723 -0.9002 -1.8359  2.6822
  858SOL     MW 3432   2.840   2.660   1.680  0.2665 -0.2456  0.6686
  859SOL     OW 3433   2.130   2.537   0.901  0.2267  0.3229  0.0558
  859SOL    HW1 3434   2.102   2.464   0.843 -0.1664  1.8486  0.6593
  859SOL    HW2 3435   2.225   2.545   0.889 -1.9694 -0.1110 -0.7974
  859SOL     MW 3436   2.139   2.528   0.892 -0.1149  0.4669  0.0228
  860SOL     OW 3437   2.620   2.588   0.182  0.0764  0.0148  0.2256
  860SOL    HW1 3438   2.703   2.566   0.219 -2.3473 -0.7427  0.1761
  860SOL    HW2 3439   2.639   2.677   0.146  2.3681  2.0743  3.1430
  860SOL     MW 3440   2.633   2.597   0.182  0.0590  0.1865  0.6040
  861SOL     OW 3441   1.552   2.137   1.121  0.0466 -0.2518  0.2361
  861SOL    HW1 3442   1.552   2.198   1.200 -0.6160  2.4963  0.4488
  861SOL    HW2 3443   1.482   2.077   1.154 -1.8427 -3.4665  2.2958
  861SOL     MW 3444   1.543   2.137   1.136 -0.2901 -0.3133  0.5360
  862SOL     OW 3445   2.404   1.775   1.545  0.0868  0.5615 -0.0805
  862SOL    HW1 3446   2.330   1.795   1.602 -2.5654 -0.5993 -3.4744
  862SOL    HW2 3447   2.383   1.815   1.459 -0.7134 -2.0317  0.6471
  862SOL     MW 3448   2.391   1.783   1.541 -0.3687  0.0662 -0.4323
  863SOL     OW 3449   3.093   1.904   1.100 -1.0226 -0.5332 -0.8293
  863SOL    HW1 3450   3.167   1.884   1.158  0.4395 -1.7575  1.2397
  863SOL    HW2 3451   3.043   1.960   1.164  1.2329  1.4923 -0.6534
  863SOL     MW 3452   3.096   1.909   1.116 -0.5321 -0.4275 -0.5331
  864SOL     OW 3453   0.019   1.924   0.822 -0.2607  0.2548 -0.3131
  864SOL    HW1 3454   0.007   1.893   0.913 -0.1758 -1.9759 -2.4659
  864SOL    HW2 3455  -0.018   1.861   0.753 -1.6921  0.1542 -1.4197
  864SOL     MW 3456   0.013   1.912   0.825 -0.4384 -0.0528 -0.7432
  865SOL     OW 3457   2.620   2.136   3.098  0.4548  0.0830  0.3057
  865SOL    HW1 3458   2.606   2.057   3.153  0.5513 -0.4388  0.0629
  865SOL    HW2 3459   2.598   2.118   3.005 -0.2967  1.0095 -0.5476
  865SOL     MW 3460   2.615   2.123   3.093  0.3684  0.1364  0.1611
  866SOL     OW 3461   2.684   2.303   1.608 -0.2191  0.0054  0.5128
  866SOL    HW1 3462   2.660   2.218   1.651  0.8109 -0.6111  0.5110
  866SOL    HW2 3463   2.685   2.293   1.516 -0.2384 -1.7898  2.5545
  866SOL     MW 3464   2.681   2.291   1.602 -0.0858 -0.3128  0.7819
  867SOL     OW 3465   0.008   2.657   1.775  0.1477 -0.0606 -0.0791
  867SOL    HW1 3466   0.015   2.643   1.866  1.9496  0.0684  0.3360
  867SOL    HW2 3467   0.013   2.755   1.765 -0.1388  1.4698  0.7142
  867SOL     MW 3468   0.010   2.668   1.786  0.3476  0.1583  0.0804
  868SOL     OW 3469   2.814   2.586   0.532 -0.3103 -0.0292  0.3283
  868SOL    HW1 3470   2.732   2.539   0.540 -0.1222 -0.2177  0.0541
  868SOL    HW2 3471   2.793   2.677   0.500  0.9795  0.4151 -2.8111
  868SOL     MW 3472   2.800   2.592   0.529 -0.1153  0.0046 -0.1221
  869SOL     OW 3473   1.995   2.376   1.158  0.0935 -0.0500 -0.3755
  869SOL    HW1 3474   2.070   2.404   1.105  1.8955 -0.8063  0.1683
  869SOL    HW2 3475   1.941   2.324   1.094  0.6716 -2.0713 -1.4433
  869SOL     MW 3476   1.998   2.373   1.143  0.4075 -0.4165 -0.4447
  870SOL     OW 3477   2.165   0.030   0.479 -0.2421 -1.1500  0.3229
  870SOL    HW1 3478   2.228   0.084   0.429  1.4924  2.1477 -0.7978
  870SOL    HW2 3479   2.196  -0.054   0.457 -2.0284 -0.0929 -1.0775
  870SOL     MW 3480   2.177   0.026   0.470 -0.2490 -0.5754 -0.0097
  871SOL     OW 3481   2.488   2.121   0.955  0.2320 -0.3248  0.0771
  871SOL    HW1 3482   2.438   2.047   0.919  2.1615  1.0474  0.1295
  871SOL    HW2 3483   2.429   2.169   1.010 -1.0207  0.5554 -2.7319
  871SOL     MW 3484   2.474   2.117   0.957  0.3213 -0.0276 -0.2866
  872SOL     OW 3485   2.046   2.570   1.481  0.5256  0.3291  0.0781
  872SOL    HW1 3486   2.014   2.612   1.564 -1.9867 -1.7910  0.6345
  872SOL    HW2 3487   1.969   2.515   1.455  0.9572 -0.7389  0.1033
  872SOL     MW 3488   2.032   2.568   1.488  0.2511 -0.0916  0.1548
  873SOL     OW 3489   2.909   2.058   1.899 -0.0246 -0.6930 -0.4691
  873SOL    HW1 3490   2.943   2.111   1.968  1.2896 -0.7636 -0.5480
  873SOL    HW2 3491   2.961   2.091   1.830 -2.2383 -1.2185  0.0808
  873SOL     MW 3492   2.920   2.069   1.899 -0.1433 -0.7717 -0.4069
  874SOL     OW 3493   2.363   1.525   2.379 -0.8556 -0.0804  0.4503
  874SOL    HW1 3494   2.357   1.482   2.293 -2.6967 -0.5258 -1.5787
  874SOL    HW2 3495   2.433   1.469   2.411 -0.9024 -0.1051 -2.1598
  874SOL     MW 3496   2.371   1.512   2.372 -1.1047 -0.1424 -0.1617
  875SOL     OW 3497   2.281   2.335   1.068  0.1445 -0.3866  0.2262
  875SOL    HW1 3498   2.305   2.399   1.003  0.4332 -0.9976  1.0270
  875SOL    HW2 3499   2.309   2.376   1.151 -1.0645  0.3846 -0.8120
  875SOL     MW 3500   2.288   2.349   1.070  0.0230 -0.3655  0.1949
  876SOL     OW 3501   3.029   2.322   1.238 -0.2267  0.2123 -0.2454
  876SOL    HW1 3502   3.058   2.343   1.150 -0.3454 -1.5551  1.1952
  876SOL    HW2 3503   3.093   2.373   1.294  1.9363  0.7539 -0.3808
  876SOL     MW 3504   3.041   2.331   1.234  0.0431  0.0505 -0.0732
  877SOL     OW 3505   3.055   2.715   0.355 -0.8190 -0.2258 -0.3553
  877SOL    HW1 3506   3.107   2.792   0.348  0.3377 -2.5582 -0.4561
  877SOL    HW2 3507   3.053   2.687   0.263 -2.8380 -0.8466 -2.1077
  877SOL     MW 3508   3.061   2.722   0.342 -0.9328 -0.6154 -0.5998
  878SOL     OW 3509   2.432   1.863   1.290 -0.1320 -0.2352  0.1742
  878SOL    HW1 3510   2.376   1.787   1.271  0.6625 -0.0465 -1.6019
  878SOL    HW2 3511   2.518   1.828   1.288  2.2213  0.6732 -1.3188
  878SOL     MW 3512   2.436   1.848   1.287  0.2833 -0.0904 -0.2571
  879SOL     OW 3513   2.677   2.438   0.960 -0.1590 -0.2549 -0.0566
  879SOL    HW1 3514   2.753   2.484   0.997 -0.5094  2.2724  1.5658
  879SOL    HW2 3515   2.720   2.386   0.888  1.9092  1.6256 -0.0038
  879SOL     MW 3516   2.693   2.437   0.955  0.0677  0.3267  0.1644
  880SOL     OW 3517   2.546   2.180   0.681  0.4831  0.5389 -0.0232
  880SOL    HW1 3518   2.517   2.164   0.773 -1.8203 -2.0301  3.2158
  880SOL    HW2 3519   2.482   2.136   0.630  0.5128 -1.5352  0.2769
  880SOL     MW 3520   2.534   2.173   0.686  0.1831 -0.0737  0.4437
  881SOL     OW 3521   2.959   2.658   0.780 -0.3334  0.2416  0.2452
  881SOL    HW1 3522   2.899   2.616   0.714 -1.3476  0.7371 -2.2976
  881SOL    HW2 3523   3.051   2.649   0.753  1.0414  1.2969  2.3085
  881SOL     MW 3524   2.963   2.652   0.768 -0.2858  0.4462  0.1820
  882SOL     OW 3525   2.253   2.890   1.932  0.6294 -0.2965 -0.7755
  882SOL    HW1 3526   2.261   2.864   1.841  1.6528 -0.0099 -1.6286
  882SOL    HW2 3527   2.221   2.812   1.978  0.5993  1.9798 -0.1262
  882SOL     MW 3528   2.250   2.876   1.926  0.7605  0.0417 -0.8024
  883SOL     OW 3529   2.328   2.275   1.482  0.0819 -0.3619  0.6594
  883SOL    HW1 3530   2.397   2.206   1.467  1.4166 -4.1014  2.2576
  883SOL    HW2 3531   2.247   2.258   1.436 -0.9509  2.1041 -2.1003
  883SOL     MW 3532   2.327   2.263   1.474  0.1217 -0.5299  0.5062
  884SOL     OW 3533   1.958   1.846   1.155 -0.1950 -0.1961 -0.0671
  884SOL    HW1 3534   1.897   1.913   1.128  0.0500 -0.2865  1.0286
  884SOL    HW2 3535   2.038   1.900   1.154  0.1192  2.2610 -1.0214
  884SOL     MW 3536   1.961   1.862   1.151 -0.1212  0.1162 -0.0485
  885SOL     OW 3537   2.830   2.421   1.827 -0.1010  0.0534  0.6872
  885SOL    HW1 3538   2.925   2.401   1.820  0.4953 -0.2697  0.2059
  885SOL    HW2 3539   2.795   2.369   1.749 -0.0514  0.7833 -1.5874
  885SOL     MW 3540   2.838   2.411   1.816 -0.0158  0.1071  0.3236
  886SOL     OW 3541   2.805   2.383   1.356  0.0517 -0.1027  0.0375
  886SOL    HW1 3542   2.883   2.354   1.309  1.0601 -0.3882 -1.1376
  886SOL    HW2 3543   2.777   2.471   1.330  1.7314  0.2912 -0.4923
  886SOL     MW 3544   2.812   2.391   1.346  0.4063 -0.0884 -0.1874
  887SOL     OW 3545   2.317   2.591   1.542  0.1516 -0.1613  0.6637
  887SOL    HW1 3546   2.333   2.655   1.469  0.0319  0.0966  1.4686
  887SOL    HW2 3547   2.236   2.546   1.509 -0.4679 -0.4058  0.8571
  887SOL     MW 3548   2.309   2.594   1.528  0.0541 -0.1595  0.7954
  888SOL     OW 3549   1.839   2.105   1.347 -0.0364 -0.4645  0.3994
  888SOL    HW1 3550   1.935   2.116   1.332  1.7087 -0.5288  2.8784
  888SOL    HW2 3551   1.842   2.109   1.442 -0.6777 -0.7187  1.6587
  888SOL     MW 3552   1.852   2.107   1.357  0.1092 -0.5066  0.8926
  889SOL     OW 3553   2.329   2.003   2.104 -0.3435  0.4872 -0.0484
  889SOL    HW1 3554   2.418   1.995   2.141 -1.0745 -0.0344 -1.8018
  889SOL    HW2 3555   2.346   2.081   2.046 -0.0178 -0.2309 -0.5908
  889SOL     MW 3556   2.343   2.012   2.101 -0.3969  0.3236 -0.3513
  890SOL     OW 3557   0.099   2.375   0.160  0.0385 -0.4895 -0.2906
  890SOL    HW1 3558   0.047   2.455   0.153  1.9351 -1.4131 -2.7680
  890SOL    HW2 3559   0.076   2.325   0.240  0.4135  0.1887 -1.0117
  890SOL     MW 3560   0.089   2.379   0.169  0.3382 -0.5219 -0.7126
  891SOL     OW 3561   3.006   2.056   1.314  0.1379  0.2667 -0.4740
  891SOL    HW1 3562   3.097   2.043   1.344  0.2932  1.2740 -0.9077
  891SOL    HW2 3563   2.995   2.146   1.285 -0.0192  1.4934  1.4925
  891SOL     MW 3564   3.016   2.066   1.314  0.1376  0.5615 -0.2718
  892SOL     OW 3565   2.446   2.360   2.848  0.1678  0.0037 -0.2765
  892SOL    HW1 3566   2.457   2.263   2.859  1.8487  1.8978  2.6117
  892SOL    HW2 3567   2.541   2.381   2.842 -1.5612 -1.7601  0.0877
  892SOL     MW 3568   2.460   2.350   2.849  0.1615  0.0209  0.1526
  893SOL     OW 3569   1.583   2.337   1.304 -0.5785  0.5515  0.2133
  893SOL    HW1 3570   1.519   2.399   1.348  0.8098 -0.6028  1.0890
  893SOL    HW2 3571   1.668   2.360   1.339 -0.3138 -1.6171  0.0119
  893SOL     MW 3572   1.586   2.348   1.314 -0.3604  0.1131  0.3022
  894SOL     OW 3573   2.816   1.782   0.478  0.3017  0.2416  0.5999
  894SOL    HW1 3574   2.718   1.821   0.478 -0.9072 -2.4732 -0.7941
  894SOL    HW2 3575   2.815   1.739   0.398  3.3724  0.7560  1.1665
  894SOL     MW 3576   2.803   1.782   0.468  0.5474 -0.0487  0.4907
  895SOL     OW 3577   2.108   2.191   1.321 -0.2087 -0.4764  0.2432
  895SOL    HW1 3578   2.076   2.259   1.264  3.2866  0.7514 -2.1251
  895SOL    HW2 3579   2.155   2.125   1.261  0.0213  0.8832  0.8713
  895SOL     MW 3580   2.110   2.191   1.306  0.2828 -0.1350  0.0136
  896SOL     OW 3581   2.139   2.804   1.072 -0.0024 -0.1200 -0.3049
  896SOL    HW1 3582   2.175   2.799   1.160  1.1733 -1.3015 -0.1425
  896SOL    HW2 3583   2.121   2.716   1.040 -0.4368 -2.2871 -4.0454
  896SOL     MW 3584   2.142   2.792   1.079  0.0954 -0.5618 -0.7770
  897SOL     OW 3585   3.000   2.909   0.114 -0.1272  0.5774  0.1173
  897SOL    HW1 3586   3.067   2.872   0.053 -2.2624  2.2584 -2.2233
  897SOL    HW2 3587   2.929   2.853   0.077 -1.5446 -3.4514  1.1619
  897SOL     MW 3588   3.000   2.897   0.101 -0.5959  0.2677 -0.0537
  898SOL     OW 3589   2.063   0.231   1.406 -0.0661 -1.0770 -0.2642
  898SOL    HW1 3590   2.016   0.151   1.400  0.2030 -0.7783 -2.1292
  898SOL    HW2 3591   2.060   0.271   1.318  0.6483  1.1921 -1.4448
  898SOL     MW 3592   2.056   0.226   1.394  0.0637 -0.7382 -0.6661
  899SOL     OW 3593   2.939   2.926   0.637  0.2364  0.5776 -0.0624
  899SOL    HW1 3594   2.946   2.852   0.694 -0.0745  1.1381 -1.3281
  899SOL    HW2 3595   2.847   2.951   0.641  1.1593 -0.9600 -0.3471
  899SOL     MW 3596   2.928   2.919   0.645  0.3171  0.4487 -0.2670
  900SOL     OW 3597   0.066   2.427   1.002 -0.2159  0.5375  0.6715
  900SOL    HW1 3598   0.072   2.518   0.968  0.1481  0.0878 -1.7149
  900SOL    HW2 3599   0.075   2.365   0.928 -0.9540 -2.4363 -0.3428
  900SOL     MW 3600   0.068   2.431   0.987 -0.2653  0.0858  0.2228
  901SOL     OW 3601   1.792   2.848   1.689 -0.9875  0.3356  0.1316
  901SOL    HW1 3602   1.851   2.776   1.689 -1.0101  0.4979 -0.7552
  901SOL    HW2 3603   1.748   2.842   1.606  0.4662 -1.0265  0.0191
  901SOL     MW 3604   1.794   2.838   1.678 -0.7987  0.1773 -0.0002
  902SOL     OW 3605   2.661   2.122   1.837  0.1798  0.0027 -0.6055
  902SOL    HW1 3606   2.635   2.029   1.845  0.0632 -1.9058 -0.2845
  902SOL    HW2 3607   2.755   2.123   1.855  1.8441 -4.3639  1.0395
  902SOL     MW 3608   2.670   2.110   1.840  0.3840 -0.8252 -0.3461
  903SOL     OW 3609   1.605   2.787   0.524  0.5895 -0.3350 -0.3349
  903SOL    HW1 3610   1.648   2.706   0.551 -0.9248 -1.0477 -1.0162
  903SOL    HW2 3611   1.575   2.828   0.609 -2.7881  0.5749  1.0402
  903SOL     MW 3612   1.607   2.782   0.539 -0.0559 -0.3090 -0.2433
  904SOL     OW 3613   2.504   2.491   1.721 -0.2196 -0.2219  0.3259
  904SOL    HW1 3614   2.448   2.519   1.650  0.3260  0.7718  0.9798
  904SOL    HW2 3615   2.574   2.446   1.678 -1.0382 -0.6210 -0.6946
  904SOL     MW 3616   2.506   2.489   1.706 -0.2556 -0.1434  0.2776
  905SOL     OW 3617   2.318   2.557   2.162  0.2051  0.7817 -0.3581
  905SOL    HW1 3618   2.389   2.526   2.105  1.3234  0.9556 -2.1254
  905SOL    HW2 3619   2.315   2.477   2.224  1.0572 -2.1795  1.8790
  905SOL     MW 3620   2.327   2.542   2.162  0.4651  0.4139 -0.2961
  906SOL     OW 3621   2.424   2.552   0.920  0.3548  1.0266 -0.3518
  906SOL    HW1 3622   2.515   2.515   0.933  1.6124  2.7205 -1.1698
  906SOL    HW2 3623   2.449   2.643   0.910 -2.0628 -0.3712  2.2154
  906SOL     MW 3624   2.439   2.559   0.920  0.2018  1.0657 -0.1210
  907SOL     OW 3625   2.571   2.867   1.335 -0.3641  0.3481  0.2762
  907SOL    HW1 3626   2.635   2.905   1.395 -0.6539 -0.9872  0.8553
  907SOL    HW2 3627   2.619   2.854   1.248  2.7678 -0.3068 -0.6340
  907SOL     MW 3628   2.586   2.870   1.332  0.0109  0.0855  0.2325
  908SOL     OW 3629   2.764   2.370   0.010 -0.6362 -0.4104  0.0335
  908SOL    HW1 3630   2.716   2.291   0.027 -2.0626 -1.3738  1.0477
  908SOL    HW2 3631   2.730   2.442   0.059  2.8474 -1.5335  1.2187
  908SOL     MW 3632   2.753   2.369   0.019 -0.3647 -0.6857  0.3237
  909SOL     OW 3633   1.648   0.178   1.167  0.7031  0.0102 -0.0356
  909SOL    HW1 3634   1.659   0.244   1.094  0.4682 -0.0260 -1.5971
  909SOL    HW2 3635   1.639   0.223   1.249  1.2882  0.6241 -3.3073
  909SOL     MW 3636   1.648   0.192   1.168  0.7493  0.0864 -0.6733
  910SOL     OW 3637   2.284   1.802   0.420 -0.7029 -0.3941 -0.2810
  910SOL    HW1 3638   2.241   1.717   0.433 -0.1045  1.0307 -0.8999
  910SOL    HW2 3639   2.258   1.830   0.329 -2.2530  1.0221 -0.3894
  910SOL     MW 3640   2.275   1.795   0.410 -0.8284 -0.0193 -0.3770
  911SOL     OW 3641   2.201   2.228   1.724 -0.2523 -0.3712  0.9187
  911SOL    HW1 3642   2.272   2.219   1.791  0.6160  0.0493 -0.3280
  911SOL    HW2 3643   2.247   2.254   1.640 -1.1568  0.7435 -1.1120
  911SOL     MW 3644   2.217   2.230   1.722 -0.2571 -0.1686  0.4862
  912SOL     OW 3645   2.869   1.914   1.518  0.6394  0.1157  0.6779
  912SOL    HW1 3646   2.900   1.958   1.435  0.4455  1.1688 -2.1538
  912SOL    HW2 3647   2.777   1.934   1.539  3.3843 -0.3547  0.4718
  912SOL     MW 3648   2.861   1.923   1.509  0.9760  0.1926  0.2771
  913SOL     OW 3649   2.584   3.004   0.354 -0.0479 -0.2173 -0.2982
  913SOL    HW1 3650   2.654   2.938   0.343 -0.1171 -0.5128 -0.2765
  913SOL    HW2 3651   2.500   2.967   0.366  1.5406 -0.0772  1.1851
  913SOL     MW 3652   2.582   2.990   0.355  0.1526 -0.2378 -0.0996
  914SOL     OW 3653   2.764   1.678   3.043  0.4356  0.0845 -0.1865
  914SOL    HW1 3654   2.769   1.760   2.997 -0.7660  1.6422 -1.3018
  914SOL    HW2 3655   2.675   1.682   3.061  0.6152  2.3752  1.6745
  914SOL     MW 3656   2.753   1.689   3.039  0.3007  0.5923 -0.0881
  915SOL     OW 3657   1.767   0.246   0.223 -0.2229 -0.1392  0.3474
  915SOL    HW1 3658   1.840   0.189   0.237 -0.8915  0.8007  0.0634
  915SOL    HW2 3659   1.685   0.195   0.216  1.2700 -0.3035 -2.2637
  915SOL     MW 3660   1.765   0.232   0.224 -0.1141 -0.0369 -0.0346
  916SOL     OW 3661   1.741   2.055   1.952  0.2521 -0.0048  0.3535
  916SOL    HW1 3662   1.761   2.149   1.946  2.6245 -0.6695  0.5249
  916SOL    HW2 3663   1.772   2.008   1.875  0.1905  3.4775 -1.0534
  916SOL     MW 3664   1.748   2.061   1.941  0.5570  0.3669  0.1905
  917SOL     OW 3665   2.418   2.313   2.541 -0.0928 -0.4139 -0.2179
  917SOL    HW1 3666   2.414   2.316   2.635  1.9371 -1.4688 -0.0566
  917SOL    HW2 3667   2.512   2.324   2.515 -1.1288  0.3945 -1.3840
  917SOL     MW 3668   2.430   2.315   2.550  0.0384 -0.4465 -0.3505
  918SOL     OW 3669   1.989   1.643   2.721 -0.2744  0.1310 -0.1781
  918SOL    HW1 3670   1.932   1.684   2.650  0.2073 -1.9844  0.0048
  918SOL    HW2 3671   2.080   1.675   2.707  1.0959 -2.0006 -2.8171
  918SOL     MW 3672   1.993   1.653   2.710 -0.0301 -0.4294 -0.5021
  919SOL     OW 3673   0.039   2.360   2.245  0.3161 -0.1054  0.1357
  919SOL    HW1 3674  -0.040   2.311   2.232 -0.5089  0.3797  0.6301
  919SOL    HW2 3675   0.089   2.357   2.165 -0.6249  0.2354 -1.4884
  919SOL     MW 3676   0.035   2.353   2.233  0.0831  0.0036 -0.0134
  920SOL     OW 3677   2.784   2.779   0.014 -0.0896 -0.3199 -0.7571
  920SOL    HW1 3678   2.704   2.833   0.022 -1.6029  0.3552  0.1042
  920SOL    HW2 3679   2.775   2.728  -0.066 -0.6202 -0.0527  1.6970
  920SOL     MW 3680   2.772   2.779   0.004 -0.3593 -0.1956 -0.3197
  921SOL     OW 3681   2.383   2.635   2.648 -0.1320 -0.0640 -0.7567
  921SOL    HW1 3682   2.466   2.657   2.612  0.9012  2.0510  0.3742
  921SOL    HW2 3683   2.397   2.562   2.706 -2.5389 -2.9526  0.4022
  921SOL     MW 3684   2.396   2.629   2.651 -0.3132 -0.1661 -0.4546
  922SOL     OW 3685   2.013   2.805   0.319  0.1483  1.2382  0.0151
  922SOL    HW1 3686   1.995   2.834   0.230 -0.9917 -2.4936  2.3614
  922SOL    HW2 3687   1.970   2.715   0.321  1.6528 -2.4452 -0.0686
  922SOL     MW 3688   2.005   2.797   0.307  0.1964  0.2598  0.3137
  923SOL     OW 3689   2.204   2.798   1.683 -0.1325  0.1148 -0.1186
  923SOL    HW1 3690   2.255   2.730   1.633  0.3320  0.3864  0.1448
  923SOL    HW2 3691   2.179   2.860   1.616  0.1075 -1.6735  1.2975
  923SOL     MW 3692   2.208   2.797   1.667 -0.0396 -0.0853  0.1030
  924SOL     OW 3693   1.217   2.637   2.557  0.4356 -1.0081 -0.2196
  924SOL    HW1 3694   1.275   2.705   2.519  1.9090  2.7609  0.3286
  924SOL    HW2 3695   1.278   2.569   2.590  2.0574  1.7970 -2.2808
  924SOL     MW 3696   1.233   2.637   2.556  0.8440 -0.1407 -0.4192
  925SOL     OW 3697   2.929   0.256   2.585  0.1513  0.0071 -0.0808
  925SOL    HW1 3698   2.873   0.285   2.518 -0.1514 -1.7748 -1.9052
  925SOL    HW2 3699   2.881   0.294   2.662  1.7760  0.2840 -1.7766
  925SOL     MW 3700   2.915   0.265   2.586  0.3257 -0.1914 -0.5453
  926SOL     OW 3701   2.750   2.416   2.079  0.1211 -0.0469 -0.5358
  926SOL    HW1 3702   2.808   2.473   2.132  0.5069 -1.1893  0.6680
  926SOL    HW2 3703   2.770   2.410   1.982 -0.6115 -1.6068 -1.6688
  926SOL     MW 3704   2.761   2.423   2.073  0.0754 -0.4034 -0.5265
  927SOL     OW 3705   2.325   0.150   0.305 -0.0006  0.1926 -0.4334
  927SOL    HW1 3706   2.423   0.152   0.289  3.4183 -3.9624 -1.3289
  927SOL    HW2 3707   2.297   0.111   0.218 -2.1361 -0.2307 -0.9385
  927SOL     MW 3708   2.334   0.145   0.291  0.1687 -0.4114 -0.6182
  928SOL     OW 3709   2.082   2.414   1.872 -0.0853 -0.6211  0.1463
  928SOL    HW1 3710   2.121   2.360   1.803 -0.4045 -1.2356 -1.3415
  928SOL    HW2 3711   2.159   2.452   1.921  1.4615  0.8475  0.2008
  928SOL     MW 3712   2.097   2.412   1.870  0.0767 -0.5084 -0.0428
  929SOL     OW 3713   2.665   2.363   2.416  0.5425 -0.2309  0.1791
  929SOL    HW1 3714   2.672   2.381   2.321 -2.5895  0.7913  1.6417
  929SOL    HW2 3715   2.752   2.346   2.445  0.0624  0.8364  0.8136
  929SOL     MW 3716   2.678   2.363   2.407  0.0659  0.0448  0.4558
  930SOL     OW 3717   1.995   2.839   2.692 -0.1894 -0.2543  0.5202
  930SOL    HW1 3718   2.005   2.780   2.770 -0.5485  1.4246 -2.1841
  930SOL    HW2 3719   2.083   2.873   2.677  0.3979  0.1370  0.4139
  930SOL     MW 3720   2.008   2.836   2.700 -0.1593  0.0188  0.1494
  931SOL     OW 3721   3.003   2.777   2.289  0.2351 -0.0343  0.0361
  931SOL    HW1 3722   3.029   2.836   2.362 -1.4258  0.0627  0.7220
  931SOL    HW2 3723   3.080   2.780   2.223  0.9746  0.6325  1.2378
  931SOL     MW 3724   3.017   2.785   2.290  0.1135  0.0665  0.2851
  932SOL     OW 3725   2.876   1.986   2.510 -0.9019 -0.0266  0.1080
  932SOL    HW1 3726   2.957   2.031   2.537 -0.4100 -0.5246 -0.5004
  932SOL    HW2 3727   2.882   1.984   2.415  0.3752  1.7400  1.6758
  932SOL     MW 3728   2.888   1.991   2.501 -0.6685  0.1408  0.2346
  933SOL     OW 3729   2.070   2.872   2.251 -0.2176 -0.0475  0.1531
  933SOL    HW1 3730   2.133   2.925   2.300  0.5533 -1.3070 -0.1569
  933SOL    HW2 3731   1.986   2.922   2.244 -1.5535 -1.6478  4.3708
  933SOL     MW 3732   2.067   2.886   2.256 -0.2921 -0.4248  0.6687
  934SOL     OW 3733   2.020   2.700   2.454 -0.2875 -0.0684  0.1290
  934SOL    HW1 3734   2.016   2.739   2.543  0.4218 -1.9380 -1.0079
  934SOL    HW2 3735   2.026   2.768   2.388  0.4050 -0.3113 -1.2021
  934SOL     MW 3736   2.021   2.714   2.457 -0.1025 -0.3472 -0.1966
  935SOL     OW 3737   2.670   1.596   1.832  0.2352 -0.0122  0.2749
  935SOL    HW1 3738   2.741   1.564   1.781 -0.8537  3.7171 -1.2742
  935SOL    HW2 3739   2.605   1.587   1.759 -2.1942 -0.8008 -1.7060
  935SOL     MW 3740   2.670   1.591   1.815 -0.2290  0.3758 -0.1908
  936SOL     OW 3741   3.028   2.273   3.070 -0.0747  0.0633  0.1032
  936SOL    HW1 3742   3.080   2.308   3.145 -0.6586 -2.5163  0.0798
  936SOL    HW2 3743   2.941   2.304   3.092  0.0386 -0.3630 -3.1850
  936SOL     MW 3744   3.024   2.281   3.083 -0.1368 -0.3333 -0.3337
  937SOL     OW 3745   1.998   2.118   2.707 -0.2799 -1.0049 -0.2130
  937SOL    HW1 3746   2.088   2.094   2.751  0.7251 -1.6886  2.5941
  937SOL    HW2 3747   1.979   2.096   2.617  0.1511  1.5529 -1.4919
  937SOL     MW 3748   2.007   2.112   2.701 -0.0905 -0.7576 -0.0114
  938SOL     OW 3749   2.289   1.819   1.875 -0.8274  0.3791 -0.3127
  938SOL    HW1 3750   2.231   1.860   1.807 -0.1265 -1.6696 -0.1499
  938SOL    HW2 3751   2.291   1.879   1.949  3.7658  1.8636 -1.7249
  938SOL     MW 3752   2.282   1.832   1.875 -0.1289  0.3047 -0.4775
  939SOL     OW 3753   2.806   1.999   2.215 -0.1282 -0.0270  0.2142
  939SOL    HW1 3754   2.828   1.920   2.161  2.2982 -2.4918 -0.2766
  939SOL    HW2 3755   2.712   2.003   2.232  1.1756  1.3544 -0.2112
  939SOL     MW 3756   2.796   1.989   2.210  0.3640 -0.1699  0.0933
  940SOL     OW 3757   2.321   0.179   2.687 -0.2977  0.4020 -0.4857
  940SOL    HW1 3758   2.297   0.086   2.667  0.6082 -0.3136 -0.2704
  940SOL    HW2 3759   2.350   0.182   2.774  0.0714 -0.0217 -2.7790
  940SOL     MW 3760   2.321   0.167   2.696 -0.1294  0.2517 -0.7599
  941SOL     OW 3761   0.189   2.260   2.016 -0.0268 -0.1016 -0.6118
  941SOL    HW1 3762   0.276   2.231   2.027 -0.2698  0.6054  1.1138
  941SOL    HW2 3763   0.162   2.223   1.932  0.5187  0.3547  4.9634
  941SOL     MW 3764   0.197   2.252   2.007  0.0131  0.0519  0.3514
  942SOL     OW 3765   2.934   2.213   2.153  0.0003  0.1810  0.3242
  942SOL    HW1 3766   2.867   2.273   2.109 -0.5783  0.1009 -2.6826
  942SOL    HW2 3767   2.878   2.135   2.178  2.0434  0.4403 -0.1971
  942SOL     MW 3768   2.918   2.211   2.150  0.1935  0.2046 -0.1413
  943SOL     OW 3769   0.357   2.019   2.306 -0.2919  0.1822 -0.0159
  943SOL    HW1 3770   0.304   2.071   2.372 -1.9013  1.6035  0.6578
  943SOL    HW2 3771   0.450   1.995   2.330  2.3997 -0.3901 -1.7368
  943SOL     MW 3772   0.362   2.023   2.318 -0.1491  0.2942 -0.1541
  944SOL     OW 3773   2.103   2.686   2.065 -0.1738 -0.1237 -0.1416
  944SOL    HW1 3774   2.147   2.611   2.105 -2.5268 -2.6274  0.6078
  944SOL    HW2 3775   2.097   2.751   2.135 -1.7835  1.7842 -0.8993
  944SOL     MW 3776   2.108   2.684   2.080 -0.6966 -0.2023 -0.1427
  945SOL     OW 3777   2.746   2.685   2.842  0.3627  0.0751  0.6693
  945SOL    HW1 3778   2.746   2.588   2.824  1.8529 -0.9883  1.1127
  945SOL    HW2 3779   2.790   2.724   2.766 -0.9510 -0.8724 -0.0531
  945SOL     MW 3780   2.752   2.678   2.830  0.3860 -0.1902  0.6325
  946SOL     OW 3781   2.500   2.739   2.278  0.1586 -0.2446  0.3957
  946SOL    HW1 3782   2.540   2.763   2.191  3.0977  0.8613  2.0310
  946SOL    HW2 3783   2.422   2.682   2.268 -0.8571  1.9960  3.9515
  946SOL     MW 3784   2.495   2.734   2.265  0.4124  0.1969  1.0806
  947SOL     OW 3785   2.000   0.096   0.259 -0.2602 -0.1489  0.4620
  947SOL    HW1 3786   1.964   0.026   0.194 -0.6393  1.3962  1.6714
  947SOL    HW2 3787   2.041   0.055   0.336  0.4897 -0.4882 -2.0909
  947SOL     MW 3788   2.000   0.081   0.260 -0.2113  0.0102  0.2847
  948SOL     OW 3789   1.777   3.005   2.664  0.0100 -0.4028 -0.3280
  948SOL    HW1 3790   1.841   2.936   2.688 -0.5906  2.1652 -0.6312
  948SOL    HW2 3791   1.778   3.002   2.562  0.3337 -1.5224  1.2482
  948SOL     MW 3792   1.786   2.996   2.653 -0.0266 -0.2117 -0.1600
  949SOL     OW 3793   2.544   1.974   2.278 -0.3235  0.1176  0.5007
  949SOL    HW1 3794   2.558   1.890   2.323 -0.3031 -0.6410  0.1524
  949SOL    HW2 3795   2.475   2.019   2.336  1.8139  0.0891 -0.2386
  949SOL     MW 3796   2.536   1.969   2.292 -0.0388  0.0137  0.3572
  950SOL     OW 3797   2.278   2.533   3.008  0.5615 -0.3091  0.3108
  950SOL    HW1 3798   2.345   2.473   2.977  2.8778 -0.5735 -0.8461
  950SOL    HW2 3799   2.207   2.514   2.944 -1.6461 -1.3470 -0.8321
  950SOL     MW 3800   2.278   2.523   2.996  0.5759 -0.4810  0.0074
  951SOL     OW 3801   2.972   2.132   2.827  0.6779 -0.0460  0.4509
  951SOL    HW1 3802   2.986   2.182   2.905 -2.7395  0.2669 -2.3244
  951SOL    HW2 3803   3.056   2.114   2.780  0.7868  0.6975  0.4847
  951SOL     MW 3804   2.985   2.136   2.831  0.2414  0.0934  0.0892
  952SOL     OW 3805   3.086   1.702   2.157  0.0338 -0.8880 -0.1742
  952SOL    HW1 3806   3.023   1.734   2.086 -1.2563  0.8806  0.3055
  952SOL    HW2 3807   3.158   1.769   2.138 -0.9272 -0.1109 -4.1951
  952SOL     MW 3808   3.087   1.715   2.145 -0.2633 -0.5522 -0.6414
  953SOL     OW 3809   1.893   1.781   2.931 -0.3074 -0.3695 -0.2015
  953SOL    HW1 3810   1.797   1.756   2.933  2.8132  2.2204  1.3762
  953SOL    HW2 3811   1.923   1.728   2.859  0.3305  2.3867  3.1529
  953SOL     MW 3812   1.885   1.770   2.922  0.1885  0.3358  0.4493
  954SOL     OW 3813   2.484   2.067   2.865 -0.1550  0.5614 -0.2975
  954SOL    HW1 3814   2.396   2.032   2.833 -0.1514 -1.4019  0.8730
  954SOL    HW2 3815   2.542   2.054   2.786  1.7314  0.0244  2.5958
  954SOL     MW 3816   2.480   2.060   2.850  0.0944  0.2315  0.2387
  955SOL     OW 3817   1.597   1.595   2.606 -0.1485 -0.4908  0.1435
  955SOL    HW1 3818   1.546   1.606   2.516  1.7352  0.4970  1.4833
  955SOL    HW2 3819   1.674   1.652   2.586  0.3099  1.2024  1.3959
  955SOL     MW 3820   1.601   1.604   2.592  0.1605 -0.1370  0.4855
  956SOL     OW 3821   2.704   2.420   2.851 -0.3123 -0.3994 -0.5455
  956SOL    HW1 3822   2.739   2.411   2.939 -0.2889  2.3584 -0.5466
  956SOL    HW2 3823   2.758   2.377   2.788  0.0841 -3.4527 -0.2944
  956SOL     MW 3824   2.716   2.413   2.854 -0.2569 -0.4384 -0.5125
  957SOL     OW 3825   2.294   2.880   0.375  0.5432 -0.2728 -0.2741
  957SOL    HW1 3826   2.225   2.849   0.316  0.6922 -1.0898 -0.1642
  957SOL    HW2 3827   2.283   2.831   0.459 -0.7769  3.0459  0.0141
  957SOL     MW 3828   2.284   2.870   0.379  0.3887  0.0573 -0.2215
  958SOL     OW 3829   2.026   2.610   2.844  0.3661  0.4828 -0.0129
  958SOL    HW1 3830   2.037   2.536   2.787  1.4848 -0.1912  0.3289
  958SOL    HW2 3831   1.931   2.612   2.878  1.1271  0.4587  2.8941
  958SOL     MW 3832   2.015   2.600   2.841  0.6141  0.3907  0.4157
  959SOL     OW 3833   2.428   2.631   0.368 -0.2808  0.1173  0.0582
  959SOL    HW1 3834   2.495   2.612   0.305  3.2690 -1.7009  0.5563
  959SOL    HW2 3835   2.411   2.725   0.351  0.7334 -0.3066 -0.8804
  959SOL     MW 3836   2.434   2.641   0.358  0.3214 -0.1785  0.0001
  960SOL     OW 3837   1.962   2.305   2.268 -0.0452 -0.1171 -0.1194
  960SOL    HW1 3838   1.909   2.328   2.194  1.9481  0.3448  0.1847
  960SOL    HW2 3839   1.901   2.277   2.337  1.3325 -0.7127  2.4401
  960SOL     MW 3840   1.947   2.304   2.267  0.3995 -0.1347  0.2585
  961SOL     OW 3841   2.249   2.324   2.296  0.3520  0.2001 -0.0857
  961SOL    HW1 3842   2.153   2.321   2.296 -0.7437  0.2205  1.0457
  961SOL    HW2 3843   2.269   2.368   2.378 -1.2555  0.6949 -2.5326
  961SOL     MW 3844   2.239   2.329   2.307 -0.0047  0.2681 -0.2593
  962SOL     OW 3845   2.227   2.016   2.805 -0.2715 -0.4362  0.2668
  962SOL    HW1 3846   2.186   2.004   2.890 -1.4054 -0.3609 -0.4320
  962SOL    HW2 3847   2.220   1.926   2.765 -4.2065 -0.4453 -1.6827
  962SOL     MW 3848   2.221   2.002   2.811 -0.9403 -0.4274 -0.0826
  963SOL     OW 3849   1.829   2.617   2.035 -0.3893 -0.0714  0.6404
  963SOL    HW1 3850   1.926   2.647   2.030  2.0093  2.7155  0.0366
  963SOL    HW2 3851   1.822   2.537   1.975  1.0657 -0.0809  0.0168
  963SOL     MW 3852   1.841   2.611   2.026  0.1192  0.2950  0.4785
  964SOL     OW 3853   1.773   1.949   2.755 -0.9006 -0.3229 -0.1114
  964SOL    HW1 3854   1.832   2.015   2.713 -1.3745 -1.0993  0.8327
  964SOL    HW2 3855   1.824   1.915   2.831  0.8860 -1.9141  1.1601
  964SOL     MW 3856   1.788   1.953   2.759 -0.7274 -0.6353  0.1809
  965SOL     OW 3857   2.235   2.757   0.628 -0.0640 -0.0168 -0.0991
  965SOL    HW1 3858   2.240   2.666   0.603 -0.1455  0.8612  1.2730
  965SOL    HW2 3859   2.271   2.772   0.717  2.5217 -2.7959  0.0714
  965SOL     MW 3860   2.240   2.747   0.637  0.2664 -0.2676  0.1044
  966SOL     OW 3861   2.618   2.629   2.504  0.1723  0.3496  0.2796
  966SOL    HW1 3862   2.582   2.674   2.430 -1.0892  0.4947 -0.8939
  966SOL    HW2 3863   2.620   2.533   2.486  0.7841 -3.1370 -0.3826
  966SOL     MW 3864   2.613   2.622   2.492  0.0866 -0.0913  0.0374
  967SOL     OW 3865   2.866   3.018   2.909 -0.5375  0.1175  0.1208
  967SOL    HW1 3866   2.860   2.938   2.961 -0.7453  0.9241 -1.1676
  967SOL    HW2 3867   2.775   3.033   2.885  0.0577  0.6554  0.2254
  967SOL     MW 3868   2.853   3.009   2.913 -0.4864  0.2949 -0.0354
  968SOL     OW 3869   3.001   2.625   2.926 -0.1176  0.9895 -0.0572
  968SOL    HW1 3870   2.923   2.660   2.894 -0.4364  0.2553 -0.3891
  968SOL    HW2 3871   3.021   2.541   2.879 -0.0859  0.9777 -3.7980
  968SOL     MW 3872   2.993   2.618   2.916 -0.1554  0.8911 -0.5945
  969SOL     OW 3873   1.538   2.130   1.674 -0.2871 -0.0956  0.0365
  969SOL    HW1 3874   1.609   2.065   1.681  0.4754 -0.5668  3.7951
  969SOL    HW2 3875   1.507   2.140   1.763  1.7085  0.3366 -3.0810
  969SOL     MW 3876   1.543   2.123   1.687  0.0768 -0.1007  0.1211
  970SOL     OW 3877   1.639   1.687   1.767 -0.8337  0.5138 -0.2470
  970SOL    HW1 3878   1.703   1.684   1.834 -0.1239  3.5194 -0.2983
  970SOL    HW2 3879   1.558   1.688   1.812  1.6334 -0.9237 -0.2008
  970SOL     MW 3880   1.637   1.687   1.782 -0.4145  0.7207 -0.2477
  971SOL     OW 3881   1.765   3.068   2.395 -0.6584 -0.4352  0.4570
  971SOL    HW1 3882   1.792   3.044   2.311  2.5970 -0.1169 -0.0362
  971SOL    HW2 3883   1.828   3.144   2.411  3.0179  1.0456 -0.6467
  971SOL     MW 3884   1.777   3.075   2.386  0.2561 -0.1978  0.2463
  972SOL     OW 3885   0.263   2.848   2.444  0.2074  0.1848  0.4801
  972SOL    HW1 3886   0.296   2.761   2.464  1.9461  1.5484  3.6701
  972SOL    HW2 3887   0.312   2.905   2.499 -1.4652 -1.3876 -0.8106
  972SOL     MW 3888   0.273   2.844   2.454  0.2161  0.1573  0.7307
  973SOL     OW 3889   2.543   0.035   2.123 -0.6507  0.2178 -0.6133
  973SOL    HW1 3890   2.552  -0.059   2.122  1.5631  1.2474  0.1240
  973SOL    HW2 3891   2.566   0.062   2.032  0.1207  1.4828 -3.1268
  973SOL     MW 3892   2.547   0.026   2.111 -0.2568  0.5206 -0.8477
  974SOL     OW 3893   2.053   0.212   2.691 -0.3260 -0.5137 -0.1499
  974SOL    HW1 3894   2.149   0.196   2.682  3.0851 -0.2664 -0.9864
  974SOL    HW2 3895   2.016   0.137   2.740  0.4140 -0.6586 -0.6174
  974SOL     MW 3896   2.061   0.200   2.696  0.2217 -0.5002 -0.3219
  975SOL     OW 3897   2.176   2.491   2.509  0.2002 -0.5950 -0.4562
  975SOL    HW1 3898   2.246   2.510   2.575 -0.5299 -1.4449 -1.9149
  975SOL    HW2 3899   2.147   2.579   2.480  2.5908  2.1938  1.2872
  975SOL     MW 3900   2.182   2.505   2.514  0.4193 -0.3392 -0.4186
  976SOL     OW 3901   0.247   0.344   1.716 -0.2609  0.2610 -0.2438
  976SOL    HW1 3902   0.303   0.279   1.765  3.5779 -0.7110  0.7526
  976SOL    HW2 3903   0.178   0.288   1.679 -0.9333 -0.7967 -2.7818
  976SOL     MW 3904   0.245   0.328   1.718  0.1569 -0.0068 -0.4472
  977SOL     OW 3905   1.747   2.654   2.471  0.3949 -0.5272  0.1781
  977SOL    HW1 3906   1.763   2.558   2.466  1.8082 -0.4791  0.6283
  977SOL    HW2 3907   1.837   2.681   2.465  0.0244  1.2401  0.9218
  977SOL     MW 3908   1.761   2.645   2.469  0.5325 -0.2877  0.3357
   3.10000   3.10000   3.10000
