977 TIP4P/2005f water molecules t=   0.02000 step= 20
 3908
    1SOL     OW    1   0.204   0.763   3.097 -0.2881  0.0382 -0.8165
    1SOL    HW1    2   0.185   0.794   3.006 -0.1148  2.4235  0.3624
    1SOL    HW2    3   0.228   0.667   3.091 -3.8572 -0.9279  2.9955
    1SOL     MW    4   0.204   0.755   3.084 -0.7362  0.2255 -0.1580
    2SOL     OW    5   0.329   3.041   1.102  0.6999 -0.2897 -0.5151
    2SOL    HW1    6   0.380   3.114   1.063 -1.5536  1.1625  0.8966
    2SOL    HW2    7   0.252   3.078   1.147 -0.3305  0.0688 -1.1616
    2SOL     MW    8   0.325   3.056   1.103  0.2666 -0.0508 -0.4142
    3SOL     OW    9   2.776   0.365   0.885 -0.7082  0.2055 -0.0669
    3SOL    HW1   10   2.743   0.449   0.850  0.5344 -1.2897 -1.1832
    3SOL    HW2   11   2.773   0.370   0.982  0.4931 -0.4063  4.2071
    3SOL     MW   12   2.771   0.377   0.893 -0.3858 -0.0725  0.3497
    4SOL     OW   13   3.086   1.671   0.729  0.3879  0.0088  0.0723
    4SOL    HW1   14   3.023   1.708   0.660 -1.1253  3.5253  3.7320
    4SOL    HW2   15   3.164   1.643   0.686  0.2811 -0.0690 -0.1186
    4SOL     MW   16   3.088   1.672   0.714  0.1742  0.4625  0.5300
    5SOL     OW   17   1.664   1.432   0.547  0.0832 -0.0857  0.2169
    5SOL    HW1   18   1.739   1.404   0.608  2.0384  1.2489  0.5101
    5SOL    HW2   19   1.589   1.417   0.598  3.4961  0.5949 -2.0330
    5SOL     MW   20   1.664   1.426   0.562  0.7915  0.1802 -0.0413
    6SOL     OW   21   0.827   1.367   0.576 -0.0783 -0.5456 -0.3732
    6SOL    HW1   22   0.737   1.379   0.619  1.7615  0.1167 -0.5341
    6SOL    HW2   23   0.863   1.281   0.610  0.6847 -0.4616 -0.0400
    6SOL     MW   24   0.820   1.358   0.586  0.2652 -0.4471 -0.3505
    7SOL     OW   25   1.984   1.067   3.008  0.1378 -0.2807  0.4762
    7SOL    HW1   26   2.039   1.131   2.961  0.0782  1.4116 -0.0299
    7SOL    HW2   27   1.999   1.070   3.101  1.2110 -4.0499  2.4033
    7SOL     MW   28   1.994   1.076   3.014  0.2715 -0.5548  0.6637
    8SOL     OW   29   1.003   1.305   1.059  0.5095  0.6225 -0.2329
    8SOL    HW1   30   1.072   1.288   1.116 -2.8544  0.1666 -0.7189
    8SOL    HW2   31   0.939   1.235   1.071  1.6691  2.0393  1.0240
    8SOL     MW   32   1.004   1.294   1.068  0.2187  0.7493 -0.1312
    9SOL     OW   33   0.995   0.476   1.466 -0.0043  0.4996 -0.0080
    9SOL    HW1   34   0.961   0.386   1.474 -0.7764  0.2891  2.0260
    9SOL    HW2   35   1.066   0.473   1.529 -0.0704  0.9899 -2.1164
    9SOL     MW   36   1.000   0.464   1.475 -0.1149  0.5365 -0.0178
   10SOL     OW   37   0.301   0.868   0.441  0.0197 -0.4921 -0.8441
   10SOL    HW1   38   0.396   0.868   0.407  0.1743 -0.2590  2.8054
   10SOL    HW2   39   0.312   0.883   0.535 -0.6992 -0.7713 -0.1721
   10SOL     MW   40   0.315   0.870   0.449 -0.0548 -0.4982 -0.2739
   11SOL     OW   41   0.922   1.065   1.588  0.2784  0.3371 -0.2416
   11SOL    HW1   42   0.916   1.104   1.679  1.7849  1.7493  0.9849
   11SOL    HW2   43   0.841   1.011   1.581 -2.1242 -1.9933  0.1849
   11SOL     MW   44   0.911   1.063   1.599  0.1601  0.2160 -0.0235
   12SOL     OW   45   3.050   1.032   0.862 -0.3668 -0.2882  0.1891
   12SOL    HW1   46   3.054   1.082   0.942 -0.7287  2.6798  0.4047
   12SOL    HW2   47   3.037   1.097   0.799  2.4818  0.7759 -1.6973
   12SOL     MW   48   3.049   1.047   0.864 -0.0387  0.2438 -0.0314
   13SOL     OW   49   1.923   1.379   1.438  0.3905  0.0884  0.0327
   13SOL    HW1   50   1.915   1.343   1.351  0.4278 -1.0571 -0.0617
   13SOL    HW2   51   1.936   1.476   1.412 -1.2413  1.0824  1.7731
   13SOL     MW   52   1.924   1.387   1.423  0.1801  0.0684  0.2499
   14SOL     OW   53   0.618   0.369   1.775  0.0580  0.0316 -0.1087
   14SOL    HW1   54   0.603   0.280   1.746  0.1512 -1.0070  1.6286
   14SOL    HW2   55   0.702   0.372   1.824  2.0216  0.4032  0.3114
   14SOL     MW   56   0.627   0.358   1.777  0.3293 -0.0564  0.1759
   15SOL     OW   57   1.992   0.591   0.967 -0.3657 -0.3504 -0.5454
   15SOL    HW1   58   2.026   0.559   1.050  2.0858 -1.4297 -1.0602
   15SOL    HW2   59   2.071   0.588   0.915 -0.0998  1.2142  0.4256
   15SOL     MW   60   2.007   0.586   0.971 -0.0071 -0.2864 -0.4852
   16SOL     OW   61   0.143   1.752   0.302 -0.2814  0.2426 -0.3381
   16SOL    HW1   62   0.224   1.714   0.331  0.9553  0.1781 -0.3194
   16SOL    HW2   63   0.150   1.837   0.346 -0.0509  0.0547 -2.0927
   16SOL     MW   64   0.155   1.758   0.312 -0.0878  0.2093 -0.5672
   17SOL     OW   65   1.146   0.801   1.443  0.4944 -0.2962  0.1769
   17SOL    HW1   66   1.166   0.846   1.524  0.7838 -0.1554  1.8679
   17SOL    HW2   67   1.100   0.727   1.475  0.0195 -0.3772 -1.2710
   17SOL     MW   68   1.142   0.797   1.458  0.4699 -0.2883  0.2090
   18SOL     OW   69   3.082   1.530   0.373  0.2166  0.3190  0.3532
   18SOL    HW1   70   3.134   1.607   0.345  2.0276  0.4320 -1.5510
   18SOL    HW2   71   3.091   1.466   0.301  0.4058  1.2041  1.2623
   18SOL     MW   72   3.090   1.532   0.360  0.4805  0.4507  0.2219
   19SOL     OW   73   0.033   1.291   1.029  0.2131 -0.7440  0.3086
   19SOL    HW1   74   0.096   1.321   0.965 -0.0167 -0.8150  2.0464
   19SOL    HW2   75  -0.015   1.375   1.046  2.3464  0.8730 -1.0810
   19SOL     MW   76   0.035   1.306   1.023  0.4642 -0.5400  0.3546
   20SOL     OW   77   0.464   2.174   1.269  0.4746 -0.0537  0.4572
   20SOL    HW1   78   0.418   2.107   1.209 -0.2422 -2.0114  0.7413
   20SOL    HW2   79   0.400   2.197   1.339  0.2190  0.2364  2.2485
   20SOL     MW   80   0.449   2.168   1.271  0.3463 -0.2737  0.7310
   21SOL     OW   81   0.570   0.879   0.355  0.5121  0.1867  0.5882
   21SOL    HW1   82   0.623   0.810   0.383 -1.3831  0.9356 -0.6629
   21SOL    HW2   83   0.543   0.850   0.262 -0.2432 -0.6274  0.6125
   21SOL     MW   84   0.573   0.866   0.346  0.1624  0.1781  0.4264
   22SOL     OW   85   1.601   0.625   1.139  0.2321  0.2258  0.1726
   22SOL    HW1   86   1.658   0.583   1.070 -2.2767  0.7314  0.3461
   22SOL    HW2   87   1.528   0.666   1.097 -2.1475  0.6502  0.4103
   22SOL     MW   88   1.599   0.625   1.124 -0.4129  0.3485  0.2269
   23SOL     OW   89   3.084   0.687   0.654  0.0904  0.4239 -0.2290
   23SOL    HW1   90   3.129   0.616   0.691 -0.7428  0.5485  3.2939
   23SOL    HW2   91   3.150   0.752   0.670  0.1175 -3.4528 -0.7010
   23SOL     MW   92   3.099   0.686   0.661 -0.0160 -0.0711  0.1735
   24SOL     OW   93   2.034   2.224   3.066  0.8449  0.0940  0.1721
   24SOL    HW1   94   2.034   2.218   3.163 -1.8520  0.5992  0.0918
   24SOL    HW2   95   2.054   2.137   3.040  0.9796 -1.4069  0.7919
   24SOL     MW   96   2.037   2.212   3.076  0.5068 -0.0373  0.2433
   25SOL     OW   97   0.170   1.501   0.576  0.0026 -0.3717 -0.0274
   25SOL    HW1   98   0.113   1.494   0.501 -0.8915  0.4390  0.5841
   25SOL    HW2   99   0.258   1.541   0.547  0.4099 -0.1579 -2.5972
   25SOL     MW  100   0.174   1.505   0.562 -0.0616 -0.2365 -0.2858
   26SOL     OW  101   1.990   1.035   0.390 -0.4525 -0.1119 -0.3135
   26SOL    HW1  102   1.891   1.044   0.389  0.6434  0.1628 -0.4454
   26SOL    HW2  103   2.025   1.077   0.307  0.7312  0.4547  1.1103
   26SOL     MW  104   1.982   1.042   0.379 -0.1517 -0.0009 -0.1431
   27SOL     OW  105   2.019   1.383   0.251  0.0053  0.4803 -0.3577
   27SOL    HW1  106   1.932   1.355   0.279  0.4670 -1.2176 -3.2735
   27SOL    HW2  107   2.054   1.421   0.334 -0.7220  0.4825  2.5593
   27SOL     MW  108   2.012   1.384   0.265 -0.0297  0.2566 -0.3575
   28SOL     OW  109   0.265   0.968   1.926  0.7132 -0.3803 -0.3142
   28SOL    HW1  110   0.225   0.891   1.968  2.4517  3.2315 -1.9379
   28SOL    HW2  111   0.322   0.932   1.859  2.0775  0.0609 -0.6867
   28SOL     MW  112   0.267   0.953   1.923  1.1226  0.1545 -0.5776
   29SOL     OW  113   0.238   1.413   0.875  0.5272  0.3442  0.7162
   29SOL    HW1  114   0.234   1.511   0.885  1.7457 -1.9902  1.4451
   29SOL    HW2  115   0.213   1.407   0.779  0.4780  1.0823 -1.1211
   29SOL     MW  116   0.234   1.425   0.864  0.6815  0.1336  0.5699
   30SOL     OW  117   0.885   1.052   1.162 -0.0818 -0.8575 -0.4288
   30SOL    HW1  118   0.814   1.070   1.220 -0.1591 -1.8550  0.7680
   30SOL    HW2  119   0.963   1.046   1.218 -1.8771  3.1786  1.5298
   30SOL     MW  120   0.886   1.054   1.177 -0.3288 -0.4566 -0.0125
   31SOL     OW  121   0.508   0.232   0.150  0.1421  0.3922 -0.1105
   31SOL    HW1  122   0.489   0.174   0.231 -0.9337  3.2500  0.7562
   31SOL    HW2  123   0.481   0.167   0.078 -0.0426  0.8302 -1.7843
   31SOL     MW  124   0.502   0.216   0.151 -0.0242  0.8271 -0.2170
   32SOL     OW  125   2.697   1.029   1.150 -0.3069  0.3856  0.1456
   32SOL    HW1  126   2.639   0.950   1.131  0.6330 -0.6719  2.1290
   32SOL    HW2  127   2.785   0.988   1.125  0.5308  1.2912  1.0694
   32SOL     MW  128   2.701   1.013   1.144 -0.0723  0.3656  0.5292
   33SOL     OW  129   1.768   1.285   0.337  0.7675 -0.2309 -0.1141
   33SOL    HW1  130   1.753   1.209   0.387 -0.3544  0.9795  0.8207
   33SOL    HW2  131   1.732   1.353   0.402  0.0386 -0.5896 -1.1316
   33SOL     MW  132   1.762   1.284   0.352  0.5233 -0.1185 -0.1250
   34SOL     OW  133   1.275   1.850   1.108  0.5084 -0.2339 -0.5025
   34SOL    HW1  134   1.192   1.892   1.123  0.1592  2.5384 -1.9122
   34SOL    HW2  135   1.328   1.880   1.181 -2.7529  1.3287 -1.0151
   34SOL     MW  136   1.271   1.859   1.120  0.0320  0.3380 -0.7561
   35SOL     OW  137   0.345   0.088   1.896  0.4754 -0.4610 -0.5600
   35SOL    HW1  138   0.368   0.029   1.965  0.7123 -2.3383  1.0945
   35SOL    HW2  139   0.372   0.045   1.815 -0.4467  0.1232 -0.5350
   35SOL     MW  140   0.351   0.074   1.895  0.3850 -0.6316 -0.3384
   36SOL     OW  141   1.819   1.928   0.468 -0.1054 -0.0102  0.2541
   36SOL    HW1  142   1.836   1.902   0.378  0.1649 -1.2168  0.0395
   36SOL    HW2  143   1.814   1.838   0.507 -1.2772  0.1556 -2.7167
   36SOL     MW  144   1.821   1.913   0.462 -0.2244 -0.1475 -0.1662
   37SOL     OW  145   1.828   1.969   0.958  0.0966  0.1159 -0.6276
   37SOL    HW1  146   1.768   1.902   0.920  2.0632  3.7003  0.7867
   37SOL    HW2  147   1.767   2.017   1.008 -2.2487  1.3315 -0.6911
   37SOL     MW  148   1.812   1.966   0.960  0.0466  0.7492 -0.4494
   38SOL     OW  149   2.812   0.903   0.298  0.1758  0.3184 -0.2229
   38SOL    HW1  150   2.870   0.907   0.381 -1.8872  1.8695 -0.2211
   38SOL    HW2  151   2.863   0.858   0.229  0.8094  0.0942  0.5200
   38SOL     MW  152   2.826   0.898   0.300 -0.0128  0.4935 -0.1246
   39SOL     OW  153   1.432   0.630   0.810  0.4027  0.3287 -0.5688
   39SOL    HW1  154   1.376   0.554   0.796  0.5483  2.8820 -0.6225
   39SOL    HW2  155   1.390   0.658   0.890  2.3905 -1.8041 -0.6964
   39SOL     MW  156   1.419   0.624   0.818  0.6842  0.3842 -0.5927
   40SOL     OW  157   1.301   1.896   0.220 -0.1099  0.5345 -0.0136
   40SOL    HW1  158   1.303   1.834   0.295 -2.8007  0.5441 -1.0767
   40SOL    HW2  159   1.315   1.974   0.269  2.3627 -0.0033  1.7784
   40SOL     MW  160   1.303   1.898   0.236 -0.1387  0.4648  0.0825
   41SOL     OW  161   0.590   0.576   1.560 -0.4175 -0.2278 -0.0778
   41SOL    HW1  162   0.659   0.634   1.579  1.2007  1.6978  2.3796
   41SOL    HW2  163   0.605   0.510   1.625 -0.9947  0.2696 -2.8092
   41SOL     MW  164   0.601   0.575   1.571 -0.2801  0.0919 -0.1140
   42SOL     OW  165   1.377   3.065   1.999  0.7020 -0.3276  0.2662
   42SOL    HW1  166   1.284   3.058   2.035 -0.3664  0.4025 -2.8682
   42SOL    HW2  167   1.404   2.973   2.016 -0.2074  0.1888 -1.9127
   42SOL     MW  168   1.368   3.052   2.006  0.4410 -0.1631 -0.4348
   43SOL     OW  169   1.586   0.175   1.581 -0.1233 -0.2104  0.2021
   43SOL    HW1  170   1.641   0.155   1.499 -1.1684 -2.0024 -1.0841
   43SOL    HW2  171   1.519   0.108   1.576 -1.1233 -3.2425  0.3549
   43SOL     MW  172   1.585   0.163   1.569 -0.3931 -0.8469  0.0526
   44SOL     OW  173   1.352   0.746   1.058 -0.3211 -0.0456  0.8622
   44SOL    HW1  174   1.345   0.839   1.030 -3.9562  0.4002 -0.0529
   44SOL    HW2  175   1.327   0.737   1.152  0.0370  1.5493  1.6092
   44SOL     MW  176   1.348   0.757   1.067 -0.7535  0.2237  0.8400
   45SOL     OW  177   1.000   0.847   0.796 -0.0114 -0.3571 -0.4323
   45SOL    HW1  178   1.029   0.768   0.846 -2.3175  0.2512  1.1449
   45SOL    HW2  179   0.944   0.811   0.715  1.1900 -0.2471  0.1510
   45SOL     MW  180   0.997   0.832   0.792 -0.1571 -0.2623 -0.1473
   46SOL     OW  181   0.644   1.098   0.633 -0.4602  0.8253 -1.1045
   46SOL    HW1  182   0.651   1.106   0.542 -1.4254 -0.1386  1.8879
   46SOL    HW2  183   0.732   1.071   0.663  0.9804 -3.7490 -2.9158
   46SOL     MW  184   0.657   1.096   0.625 -0.3975  0.0946 -0.9486
   47SOL     OW  185   0.054   1.797   1.818  0.1243  1.3301 -0.2577
   47SOL    HW1  186   0.145   1.770   1.805  1.0161 -0.2152 -2.1629
   47SOL    HW2  187   0.020   1.743   1.888  1.1104  0.4429  1.7179
   47SOL     MW  188   0.062   1.787   1.825  0.3721  1.0091 -0.2484
   48SOL     OW  189   1.053   0.629   0.977 -0.3913 -0.3177  0.9498
   48SOL    HW1  190   1.004   0.683   1.044  2.0705 -0.8785 -0.0674
   48SOL    HW2  191   1.147   0.648   0.991  3.6264 -0.2764 -0.9688
   48SOL     MW  192   1.059   0.638   0.988  0.4636 -0.3863  0.5624
   49SOL     OW  193   1.889   0.707   1.586 -0.3935  0.9988  0.0500
   49SOL    HW1  194   1.825   0.668   1.642  0.7546  1.4728  0.4507
   49SOL    HW2  195   1.959   0.644   1.566  0.3126 -0.8942 -0.2641
   49SOL     MW  196   1.890   0.694   1.591 -0.1489  0.8115  0.0614
   50SOL     OW  197   1.292   1.033   0.567 -0.1985 -0.1646  0.4806
   50SOL    HW1  198   1.271   1.070   0.652 -0.9350  0.9605 -2.0830
   50SOL    HW2  199   1.311   0.946   0.594 -1.9420  3.2608 -2.5216
   50SOL     MW  200   1.292   1.026   0.582 -0.5257  0.4358 -0.2537
   51SOL     OW  201   0.303   2.909   0.874 -0.4515 -0.2062  0.2777
   51SOL    HW1  202   0.376   2.844   0.880 -0.3099  1.9414  0.0905
   51SOL    HW2  203   0.307   2.949   0.965 -0.9852  0.5303 -1.8435
   51SOL     MW  204   0.313   2.906   0.887 -0.5033  0.1743 -0.0269
   52SOL     OW  205   0.813   1.880   0.477  0.2737  0.5069  0.1875
   52SOL    HW1  206   0.756   1.936   0.535 -2.9309 -2.4330  1.6065
   52SOL    HW2  207   0.765   1.849   0.399  2.1974  2.0263 -0.0277
   52SOL     MW  208   0.799   1.883   0.474  0.1047  0.3194  0.3464
   53SOL     OW  209   0.392   2.057   0.646  0.1712  0.2085 -0.4184
   53SOL    HW1  210   0.361   2.047   0.552  2.7813 -0.6768 -0.2653
   53SOL    HW2  211   0.400   2.146   0.648  0.2770 -1.6237 -1.1710
   53SOL     MW  212   0.389   2.067   0.634  0.5295 -0.1501 -0.4975
   54SOL     OW  213   2.184   0.850   0.851  0.1674 -0.1823  0.0257
   54SOL    HW1  214   2.203   0.841   0.759 -0.4815 -0.3512  1.4473
   54SOL    HW2  215   2.090   0.848   0.860 -1.1244  0.4460  1.4125
   54SOL     MW  216   2.174   0.848   0.840 -0.0887 -0.1217  0.3963
   55SOL     OW  217   0.509   1.456   1.536  0.4741 -0.1419 -0.3440
   55SOL    HW1  218   0.507   1.523   1.468  2.0127 -0.1307 -1.2842
   55SOL    HW2  219   0.591   1.404   1.510  1.3518  0.1463  1.6721
   55SOL     MW  220   0.519   1.458   1.524  0.7929 -0.1024 -0.2021
   56SOL     OW  221   0.480   0.817   0.100  0.0050 -0.2607  0.4325
   56SOL    HW1  222   0.511   0.886   0.044  2.1912 -0.5546 -1.0874
   56SOL    HW2  223   0.389   0.806   0.071 -0.4901 -0.9421  0.5729
   56SOL     MW  224   0.472   0.825   0.089  0.2281 -0.3894  0.2505
   57SOL     OW  225   1.249   1.213   1.179  0.4528  0.2659 -0.3262
   57SOL    HW1  226   1.345   1.211   1.189 -0.8791 -1.2879 -0.1203
   57SOL    HW2  227   1.223   1.171   1.262  0.8328  1.3670  1.8017
   57SOL     MW  228   1.258   1.207   1.191  0.3272  0.2062 -0.0183
   58SOL     OW  229   0.668   1.093   1.282 -0.0253 -0.5810 -0.3645
   58SOL    HW1  230   0.605   1.166   1.249 -1.3972 -0.3322 -1.1249
   58SOL    HW2  231   0.623   1.052   1.357  0.1481  1.3667  0.3622
   58SOL     MW  232   0.654   1.097   1.288 -0.1835 -0.2912 -0.3689
   59SOL     OW  233   1.575   1.604   0.337 -0.0847 -0.3042 -0.4561
   59SOL    HW1  234   1.581   1.569   0.428  2.1900 -0.0048 -2.3603
   59SOL    HW2  235   1.508   1.675   0.348 -0.7794  0.5218 -1.9944
   59SOL     MW  236   1.567   1.609   0.350  0.1238 -0.1557 -0.9103
   60SOL     OW  237   0.036   0.142   1.691  0.4736 -0.2007  0.1267
   60SOL    HW1  238  -0.044   0.194   1.669 -0.0654 -0.7300 -1.4848
   60SOL    HW2  239   0.008   0.050   1.698  1.8700 -1.1084 -1.9622
   60SOL     MW  240   0.022   0.137   1.689  0.5867 -0.3903 -0.3615
   61SOL     OW  241   2.035   1.477   3.030 -0.4455  0.2360  0.2308
   61SOL    HW1  242   2.024   1.461   3.127 -0.6310  1.6285  1.0741
   61SOL    HW2  243   2.086   1.401   3.003 -3.6883  1.7580  3.2667
   61SOL     MW  244   2.040   1.465   3.039 -0.8978  0.6206  0.7426
   62SOL     OW  245   0.583   1.622   0.541  0.3185 -0.1444 -0.3526
   62SOL    HW1  246   0.647   1.602   0.465  0.2071 -0.0545  1.3825
   62SOL    HW2  247   0.572   1.545   0.603  0.3534 -1.0001  2.5922
   62SOL     MW  248   0.590   1.609   0.539  0.3084 -0.2454  0.2649
   63SOL     OW  249   1.688   0.779   0.738  0.8665  0.3025  0.3271
   63SOL    HW1  250   1.677   0.803   0.645 -0.6660  0.1189  0.4398
   63SOL    HW2  251   1.607   0.746   0.779 -0.8893  0.7834 -0.7660
   63SOL     MW  252   1.675   0.778   0.731  0.4327  0.3418  0.1978
   64SOL     OW  253   0.241   1.689   0.956  0.0748 -0.1192 -0.0597
   64SOL    HW1  254   0.305   1.731   0.900  3.8338 -2.4896 -0.4560
   64SOL    HW2  255   0.165   1.745   0.962 -0.7814  0.4249 -2.2304
   64SOL     MW  256   0.239   1.702   0.949  0.4578 -0.3602 -0.3984
   65SOL     OW  257   1.608   2.277   0.306 -0.9670 -0.8568  0.9215
   65SOL    HW1  258   1.662   2.248   0.229 -0.4590 -0.1050 -2.5710
   65SOL    HW2  259   1.604   2.374   0.303  0.0489  3.9063  1.8337
   65SOL     MW  260   1.614   2.286   0.295 -0.7659 -0.1292  0.5811
   66SOL     OW  261   0.322   0.598   0.531 -1.1604  0.6043  0.6003
   66SOL    HW1  262   0.384   0.558   0.463 -0.4846  2.4576  2.1421
   66SOL    HW2  263   0.301   0.693   0.516  0.8437 -1.1369  1.5506
   66SOL     MW  264   0.327   0.606   0.520 -0.8068  0.6191  0.9291
   67SOL     OW  265   1.519   0.206   2.007 -0.2321  0.4253 -0.0865
   67SOL    HW1  266   1.555   0.217   1.922 -1.3847  0.1287  2.2440
   67SOL    HW2  267   1.475   0.123   1.991  1.2620  0.3460  0.7077
   67SOL     MW  268   1.518   0.196   1.993 -0.1870  0.3757  0.3257
   68SOL     OW  269   0.761   0.078   2.995 -0.1384 -0.3044  0.1555
   68SOL    HW1  270   0.773   0.060   2.900 -0.2525 -1.8761 -0.7998
   68SOL    HW2  271   0.740   0.174   3.002 -1.2301 -2.6467  4.2981
   68SOL     MW  272   0.760   0.088   2.984 -0.2975 -0.8208  0.5761
   69SOL     OW  273   1.026   0.169   1.967  0.0378  0.3546  0.5793
   69SOL    HW1  274   1.114   0.206   1.989 -2.3119  2.8291 -1.9237
   69SOL    HW2  275   1.023   0.076   1.995  0.2331 -1.5760 -3.4704
   69SOL     MW  276   1.037   0.162   1.974 -0.2465  0.4263 -0.2852
   70SOL     OW  277   0.582   1.821   1.138  0.3928  0.2239  0.5283
   70SOL    HW1  278   0.556   1.729   1.145 -1.4373  1.5180 -0.1289
   70SOL    HW2  279   0.671   1.832   1.096 -1.1905  0.2622  2.0463
   70SOL     MW  280   0.590   1.810   1.134 -0.0576  0.3997  0.6419
   71SOL     OW  281   1.825   0.633   1.318  0.1724  0.2484  0.2596
   71SOL    HW1  282   1.829   0.646   1.410  0.4146  0.1059  1.2995
   71SOL    HW2  283   1.733   0.636   1.293  1.4541 -1.7512 -0.6019
   71SOL     MW  284   1.813   0.635   1.327  0.3735 -0.0342  0.2831
   72SOL     OW  285   0.834   1.834   1.025 -0.0734 -0.2536 -0.4712
   72SOL    HW1  286   0.816   1.871   0.938 -0.2623  1.8489 -1.6812
   72SOL    HW2  287   0.834   1.734   1.021 -0.5300 -0.4229  0.7208
   72SOL     MW  288   0.832   1.825   1.013 -0.1586  0.0015 -0.4736
   73SOL     OW  289   1.305   0.615   1.325  0.7311 -0.8016 -0.2013
   73SOL    HW1  290   1.247   0.569   1.261  0.4560 -0.7288  0.3434
   73SOL    HW2  291   1.256   0.694   1.356  3.1885  0.6260 -0.1497
   73SOL     MW  292   1.291   0.620   1.320  1.0190 -0.6037 -0.1226
   74SOL     OW  293   2.794   0.081   1.034 -0.0427  0.2388 -0.1016
   74SOL    HW1  294   2.740   0.056   0.958  1.9179  1.7595  0.9882
   74SOL    HW2  295   2.885   0.073   1.008  0.7172  1.4131 -0.5403
   74SOL     MW  296   2.799   0.077   1.021  0.3162  0.5944 -0.0157
   75SOL     OW  297   1.633   1.270   0.083  0.6089  0.6716  0.1397
   75SOL    HW1  298   1.690   1.260   0.165  0.3235  0.7813 -1.1018
   75SOL    HW2  299   1.635   1.179   0.041  1.5513  0.7817  0.2382
   75SOL     MW  300   1.641   1.257   0.089  0.6956  0.7006 -0.0111
   76SOL     OW  301   2.936   0.626   0.424  0.4766  0.1853  1.1244
   76SOL    HW1  302   2.985   0.654   0.507 -3.6799 -0.4638  2.2345
   76SOL    HW2  303   2.999   0.568   0.378 -0.9904 -1.5473  0.5472
   76SOL     MW  304   2.951   0.622   0.429 -0.2653 -0.1289  1.1947
   77SOL     OW  305   0.917   0.490   0.517  0.1040 -0.2946 -0.0263
   77SOL    HW1  306   0.857   0.565   0.521  0.3681  2.9027 -2.6211
   77SOL    HW2  307   0.849   0.418   0.513 -3.1938  0.8906  3.7314
   77SOL     MW  308   0.900   0.490   0.517 -0.2962  0.2836  0.1271
   78SOL     OW  309   0.920   0.745   1.215 -0.7535  0.3227 -0.2259
   78SOL    HW1  310   0.851   0.696   1.260 -0.4263 -2.9356  0.5645
   78SOL    HW2  311   0.913   0.838   1.232 -1.0998 -0.7898  2.3440
   78SOL     MW  312   0.910   0.751   1.223 -0.7560 -0.2540  0.2175
   79SOL     OW  313   1.861   1.656   0.557  0.2207 -0.4753  0.5250
   79SOL    HW1  314   1.783   1.630   0.510 -2.1515  0.7210 -1.0115
   79SOL    HW2  315   1.845   1.639   0.649 -1.9039 -0.4727  2.0085
   79SOL     MW  316   1.849   1.651   0.563 -0.3726 -0.3171  0.5180
   80SOL     OW  317   0.156   1.089   0.296  0.0236 -0.1914  0.1212
   80SOL    HW1  318   0.072   1.051   0.294 -1.2563 -1.3335 -2.6016
   80SOL    HW2  319   0.211   1.023   0.337 -0.0152  0.5072 -1.6883
   80SOL     MW  320   0.153   1.075   0.301 -0.1504 -0.2499 -0.4768
   81SOL     OW  321   1.889   1.902   0.204  0.3915  0.0451  0.1775
   81SOL    HW1  322   1.844   1.820   0.179 -1.0307  0.0095  2.9431
   81SOL    HW2  323   1.861   1.975   0.144  1.6287 -2.7828 -0.3756
   81SOL     MW  324   1.879   1.901   0.193  0.3671 -0.3327  0.4694
   82SOL     OW  325   0.914   0.860   0.548 -0.8405 -0.1203 -0.1235
   82SOL    HW1  326   0.982   0.890   0.484 -1.2126  1.8420  0.3732
   82SOL    HW2  327   0.861   0.801   0.495 -2.4238  0.0114 -0.0194
   82SOL     MW  328   0.916   0.856   0.533 -1.0985  0.1560 -0.0442
   83SOL     OW  329   0.064   0.578   1.358  0.3331 -0.1288  0.2014
   83SOL    HW1  330   0.062   0.675   1.343 -0.4478  1.2074  0.4130
   83SOL    HW2  331   0.146   0.574   1.404 -0.6154 -2.1765 -0.4285
   83SOL     MW  332   0.075   0.590   1.362  0.1050 -0.2227  0.1462
   84SOL     OW  333   0.074   0.292   1.055  0.2283 -0.0489  0.7298
   84SOL    HW1  334   0.020   0.292   0.975  0.8005  0.8507  2.3919
   84SOL    HW2  335   0.053   0.210   1.099 -2.7775  1.4190 -0.8045
   84SOL     MW  336   0.064   0.281   1.051 -0.0928  0.2635  0.7467
   85SOL     OW  337   0.487   0.409   0.701 -0.3254 -0.3898  0.3750
   85SOL    HW1  338   0.457   0.483   0.653  0.2732  1.6095 -1.4805
   85SOL    HW2  339   0.408   0.367   0.741 -1.2130 -2.7046  2.7138
   85SOL     MW  340   0.472   0.413   0.700 -0.3635 -0.4314  0.4388
   86SOL     OW  341   1.125   0.460   1.197  0.4539 -0.1034  0.3910
   86SOL    HW1  342   1.058   0.504   1.138  0.0314  0.5643 -0.4270
   86SOL    HW2  343   1.083   0.450   1.283 -0.2428 -0.1678  0.9577
   86SOL     MW  344   1.111   0.464   1.200  0.3062 -0.0238  0.3578
   87SOL     OW  345   1.243   1.468   1.365  0.2771 -0.6535  0.4027
   87SOL    HW1  346   1.271   1.510   1.280  1.4677 -1.8181 -0.4773
   87SOL    HW2  347   1.267   1.379   1.346 -0.1634 -1.5826 -0.3446
   87SOL     MW  348   1.250   1.462   1.351  0.3760 -0.9298  0.1880
   88SOL     OW  349   1.343   1.009   0.993  0.2410  0.2849  0.1920
   88SOL    HW1  350   1.428   1.031   1.020 -1.6750 -2.1726  1.1141
   88SOL    HW2  351   1.297   1.072   1.046 -0.7974 -2.4110 -0.6443
   88SOL     MW  352   1.348   1.020   1.004 -0.1488 -0.3951  0.2033
   89SOL     OW  353   1.815   0.587   0.329  0.3230 -0.6914 -0.6920
   89SOL    HW1  354   1.880   0.522   0.362 -0.9865 -0.5630  1.4010
   89SOL    HW2  355   1.856   0.641   0.255  2.5857  0.8003  0.1486
   89SOL     MW  356   1.829   0.586   0.323  0.4487 -0.4776 -0.3049
   90SOL     OW  357   0.793   1.226   2.843 -0.6730  0.6690  0.1496
   90SOL    HW1  358   0.836   1.146   2.828  0.2123  1.2262 -2.6297
   90SOL    HW2  359   0.847   1.286   2.894 -0.0093 -4.5175 -0.8847
   90SOL     MW  360   0.806   1.223   2.848 -0.4686  0.0582 -0.3536
   91SOL     OW  361   1.925   0.784   0.485  0.0192 -0.1168 -0.6363
   91SOL    HW1  362   1.971   0.862   0.442  0.9010 -2.4906 -0.3948
   91SOL    HW2  363   1.897   0.743   0.407  2.0129  0.8109 -2.1058
   91SOL     MW  364   1.928   0.789   0.469  0.3986 -0.3076 -0.7983
   92SOL     OW  365   1.628   0.777   0.458  0.6328 -0.1478 -0.0588
   92SOL    HW1  366   1.538   0.737   0.461 -0.5413 -0.8004 -1.8369
   92SOL    HW2  367   1.686   0.705   0.470 -0.1042 -3.0684 -2.4314
   92SOL     MW  368   1.624   0.762   0.460  0.3806 -0.6193 -0.6065
   93SOL     OW  369   1.000   0.241   0.389 -0.4132 -0.3453  0.3780
   93SOL    HW1  370   0.990   0.333   0.412  2.0225 -0.6476 -1.0816
   93SOL    HW2  371   0.936   0.212   0.322 -1.1420  0.2067 -0.7811
   93SOL     MW  372   0.991   0.249   0.383 -0.1880 -0.3124  0.0325
   94SOL     OW  373   1.980   1.304   1.695 -0.1819 -0.1512 -0.0221
   94SOL    HW1  374   1.955   1.323   1.606 -4.1398 -0.4234 -1.8136
   94SOL    HW2  375   1.922   1.230   1.713  0.7515  2.1094  1.1705
   94SOL     MW  376   1.969   1.297   1.686 -0.5810  0.1111 -0.1011
   95SOL     OW  377   0.934   1.564   1.012 -0.3188  0.0753 -0.0728
   95SOL    HW1  378   0.955   1.474   1.032  1.9912  0.1557  1.5712
   95SOL    HW2  379   0.995   1.616   1.065 -1.8198 -0.5942 -3.2119
   95SOL     MW  380   0.945   1.559   1.022 -0.2121 -0.0024 -0.2701
   96SOL     OW  381   1.324   1.815   1.711 -0.5582 -0.1835  0.2101
   96SOL    HW1  382   1.231   1.812   1.730 -2.7694 -3.3096 -0.1421
   96SOL    HW2  383   1.342   1.739   1.651  2.8331  1.2481  0.1682
   96SOL     MW  384   1.314   1.805   1.706 -0.4025 -0.4071  0.1581
   97SOL     OW  385   1.225   1.435   0.869 -0.3492  0.4014  0.4490
   97SOL    HW1  386   1.221   1.478   0.957 -0.0303  0.6455 -2.0547
   97SOL    HW2  387   1.145   1.470   0.817 -1.9598  1.0722 -1.1830
   97SOL     MW  388   1.214   1.445   0.873 -0.5196  0.5221 -0.0967
   98SOL     OW  389   1.548   1.270   1.135 -0.2116 -0.0559  0.6616
   98SOL    HW1  390   1.594   1.332   1.192  0.2398  1.1949  0.1761
   98SOL    HW2  391   1.594   1.268   1.052 -0.4127 -1.0218  1.6474
   98SOL     MW  392   1.560   1.278   1.132 -0.1785 -0.0183  0.7276
   99SOL     OW  393   1.431   0.366   1.203  0.2357  0.0711 -0.1519
   99SOL    HW1  394   1.491   0.431   1.173 -0.9430 -0.7069  0.2891
   99SOL    HW2  395   1.396   0.408   1.279 -2.5661 -1.1753  2.0048
   99SOL     MW  396   1.434   0.380   1.209 -0.2895 -0.1960  0.1909
  100SOL     OW  397   1.074   1.047   1.362  0.4312  0.0960 -0.1130
  100SOL    HW1  398   1.026   1.076   1.446  0.7536 -1.2031 -0.6864
  100SOL    HW2  399   1.097   0.957   1.387  0.1638  1.9966 -1.3653
  100SOL     MW  400   1.071   1.039   1.376  0.4385  0.1754 -0.3539
  101SOL     OW  401   0.639   1.142   0.354  0.5553  0.2764  0.0770
  101SOL    HW1  402   0.642   1.040   0.346  1.8694 -1.1439 -1.0624
  101SOL    HW2  403   0.659   1.181   0.268  0.0400  0.2327  1.7744
  101SOL     MW  404   0.642   1.134   0.342  0.6607  0.0832  0.1506
  102SOL     OW  405   2.894   0.670   0.933  0.7597 -0.6249  0.0536
  102SOL    HW1  406   2.974   0.663   0.888 -1.4067  1.2834 -0.8383
  102SOL    HW2  407   2.910   0.657   1.026  1.0337 -1.2650  2.2527
  102SOL     MW  408   2.907   0.667   0.939  0.5100 -0.4576  0.2261
  103SOL     OW  409   1.713   0.343   1.769 -0.0469  0.2463  0.0292
  103SOL    HW1  410   1.686   0.272   1.706 -0.9025  1.3879  1.0538
  103SOL    HW2  411   1.791   0.314   1.826 -0.3905  2.3767 -0.7488
  103SOL     MW  412   1.720   0.330   1.768 -0.2051  0.6780  0.0617
  104SOL     OW  413   0.088   1.807   1.477  0.2410 -0.0897  0.2143
  104SOL    HW1  414   0.169   1.770   1.444  0.0749  2.9431  1.8933
  104SOL    HW2  415   0.057   1.756   1.548  0.5779  1.8661 -4.0085
  104SOL     MW  416   0.095   1.796   1.482  0.2636  0.5685 -0.1213
  105SOL     OW  417   0.127   1.223   0.536  0.3548 -1.0768  0.0418
  105SOL    HW1  418   0.174   1.198   0.458 -1.6883  1.0140  0.8198
  105SOL    HW2  419   0.150   1.314   0.561 -3.2742  0.7513 -0.1069
  105SOL     MW  420   0.136   1.231   0.529 -0.3936 -0.5598  0.1248
  106SOL     OW  421   0.822   0.328   0.918  0.5137 -0.5588  0.4123
  106SOL    HW1  422   0.787   0.416   0.917 -0.7199  3.4389  1.0629
  106SOL    HW2  423   0.899   0.325   0.864 -0.8087 -2.1537 -0.6280
  106SOL     MW  424   0.828   0.339   0.911  0.1765 -0.2418  0.3608
  107SOL     OW  425   0.796   2.208   3.062 -0.2861 -0.2633  0.0234
  107SOL    HW1  426   0.735   2.149   3.018  0.4785  1.0619  2.3514
  107SOL    HW2  427   0.860   2.159   3.115  1.7959 -1.8983  2.0786
  107SOL     MW  428   0.797   2.193   3.063  0.0895 -0.3042  0.6017
  108SOL     OW  429   1.378   1.563   1.586  0.0984  0.3154 -0.6071
  108SOL    HW1  430   1.337   1.515   1.521  2.0276 -1.7540  0.8953
  108SOL    HW2  431   1.439   1.510   1.637 -1.3658  0.4303 -0.6339
  108SOL     MW  432   1.381   1.549   1.584  0.1598  0.0575 -0.4124
  109SOL     OW  433   1.957   0.752   0.167  0.0777  0.2360  0.4259
  109SOL    HW1  434   1.980   0.768   0.072  1.4136  4.8593 -0.6153
  109SOL    HW2  435   2.045   0.749   0.205 -1.2188 -0.2972 -1.1225
  109SOL     MW  436   1.972   0.754   0.159  0.0829  0.7757  0.0842
  110SOL     OW  437   0.457   1.800   0.750 -0.2659  0.1445 -0.2620
  110SOL    HW1  438   0.525   1.753   0.699  2.0884 -1.6802 -2.8588
  110SOL    HW2  439   0.449   1.891   0.724 -0.5418 -1.0562  0.3334
  110SOL     MW  440   0.465   1.806   0.740  0.0084 -0.2547 -0.5261
  111SOL     OW  441   0.697   0.908   1.501 -0.0794  0.1305 -0.5400
  111SOL    HW1  442   0.759   0.830   1.499  1.3538  0.9211 -1.2110
  111SOL    HW2  443   0.621   0.885   1.558 -0.7557  1.6737  0.2414
  111SOL     MW  444   0.695   0.895   1.509  0.0205  0.4384 -0.5255
  112SOL     OW  445   1.308   1.144   1.618 -0.5548  0.1233 -0.4595
  112SOL    HW1  446   1.260   1.227   1.647 -1.3367  0.0796 -1.5987
  112SOL    HW2  447   1.242   1.082   1.596  2.5192  1.0903 -1.0068
  112SOL     MW  448   1.293   1.147   1.619 -0.2524  0.2451 -0.6820
  113SOL     OW  449   1.342   0.028   1.686  0.6194  0.3062  0.3142
  113SOL    HW1  450   1.343  -0.017   1.770  0.4234 -0.9797 -1.1698
  113SOL    HW2  451   1.322  -0.029   1.612 -1.2505  0.6725  3.4813
  113SOL     MW  452   1.339   0.015   1.687  0.3468  0.1848  0.5363
  114SOL     OW  453   0.449   2.782   1.851 -0.0256  0.2232  0.0110
  114SOL    HW1  454   0.416   2.845   1.914 -2.1565  1.5728 -1.4349
  114SOL    HW2  455   0.464   2.831   1.772  0.1050  1.1517  0.6111
  114SOL     MW  456   0.447   2.797   1.849 -0.2895  0.5238 -0.1006
  115SOL     OW  457   0.370   0.834   1.052  0.2540  0.3138 -0.2418
  115SOL    HW1  458   0.404   0.748   1.065 -0.1579  0.6413 -0.1242
  115SOL    HW2  459   0.367   0.876   1.142 -1.5841  0.5413 -0.7250
  115SOL     MW  460   0.374   0.828   1.066 -0.0428  0.3870 -0.2900
  116SOL     OW  461   0.779   0.969   0.910 -0.2501  0.0022  0.0613
  116SOL    HW1  462   0.864   0.932   0.874  2.7030  1.5144  1.3674
  116SOL    HW2  463   0.822   1.018   0.978  1.3460  0.1206  1.1901
  116SOL     MW  464   0.796   0.970   0.914  0.3501  0.2173  0.3826
  117SOL     OW  465   1.213   1.169   0.809  0.2221  0.6093 -0.6012
  117SOL    HW1  466   1.271   1.124   0.869  2.1859  0.0680  1.4956
  117SOL    HW2  467   1.209   1.258   0.848 -1.7850  1.4823  1.6306
  117SOL     MW  468   1.220   1.175   0.822  0.2164  0.6531 -0.0301
  118SOL     OW  469   3.093   2.979   1.717  0.3367 -0.0442  0.1314
  118SOL    HW1  470   3.135   2.988   1.809  2.1993  0.5197  1.2997
  118SOL    HW2  471   2.995   2.997   1.735 -2.3100 -0.9840 -1.4116
  118SOL     MW  472   3.085   2.983   1.732  0.2332 -0.0938  0.0820
  119SOL     OW  473   0.496   1.304   1.222 -0.1101 -0.6624  0.0585
  119SOL    HW1  474   0.511   1.338   1.126 -1.1491  3.3832  0.9632
  119SOL    HW2  475   0.401   1.278   1.226 -1.8031 -1.6071  2.1894
  119SOL     MW  476   0.486   1.305   1.210 -0.4705 -0.2533  0.4590
  120SOL     OW  477   0.189   0.603   0.965 -0.2293 -0.3325 -0.1361
  120SOL    HW1  478   0.222   0.568   1.052  2.4446  0.3235  0.1777
  120SOL    HW2  479   0.192   0.702   0.967 -2.7555  0.3392 -0.9046
  120SOL     MW  480   0.194   0.612   0.977 -0.2098 -0.1573 -0.1961
  121SOL     OW  481   1.789   1.039   1.795  0.2406 -0.1123 -0.6084
  121SOL    HW1  482   1.751   1.043   1.712  2.4434  1.5161  0.2695
  121SOL    HW2  483   1.769   0.952   1.829  0.8212 -1.8092  3.2592
  121SOL     MW  484   1.781   1.028   1.788  0.6078 -0.1214  0.0177
  122SOL     OW  485   0.141   0.481   0.724 -0.4233  0.3434 -0.0344
  122SOL    HW1  486   0.207   0.492   0.652  0.2154 -0.9248 -1.7167
  122SOL    HW2  487   0.188   0.525   0.798  0.8942 -0.4236 -0.1265
  122SOL     MW  488   0.156   0.488   0.724 -0.1652  0.0749 -0.2685
  123SOL     OW  489   1.721   1.048   0.474 -0.0382 -0.2075 -0.2066
  123SOL    HW1  490   1.679   0.967   0.445  0.8822 -0.2034  1.7397
  123SOL    HW2  491   1.783   1.037   0.549  1.3606 -0.4421 -1.0495
  123SOL     MW  492   1.724   1.036   0.480  0.2678 -0.2379 -0.0610
  124SOL     OW  493   0.621   0.536   0.913  0.4859 -0.2513 -0.4333
  124SOL    HW1  494   0.581   0.485   0.842 -1.8026  1.2741 -1.1988
  124SOL    HW2  495   0.636   0.621   0.869 -0.1801  1.7557  0.1341
  124SOL     MW  496   0.618   0.540   0.898  0.0961  0.2148 -0.4594
  125SOL     OW  497   0.650   1.637   1.694 -0.7533 -0.2138  0.0944
  125SOL    HW1  498   0.593   1.588   1.636 -0.7162  2.2887  1.0569
  125SOL    HW2  499   0.628   1.735   1.679  0.5963  1.8472  1.1203
  125SOL     MW  500   0.640   1.644   1.684 -0.5703  0.3883  0.3568
  126SOL     OW  501   2.124   1.599   2.053  0.3031  0.1368 -0.0259
  126SOL    HW1  502   2.176   1.675   2.047  1.6080 -1.4092 -0.3688
  126SOL    HW2  503   2.179   1.545   2.102 -0.4193  1.4215 -0.7603
  126SOL     MW  504   2.138   1.602   2.058  0.3799  0.1023 -0.1681
  127SOL     OW  505   0.642   0.680   1.853 -0.1728 -0.1792  0.3059
  127SOL    HW1  506   0.700   0.609   1.874  1.5444 -2.0266 -0.5220
  127SOL    HW2  507   0.682   0.764   1.886  0.0618  1.8097  2.2420
  127SOL     MW  508   0.655   0.681   1.860  0.0847 -0.1605  0.4521
  128SOL     OW  509   1.737   0.731   2.811  0.1394 -0.1861 -0.2070
  128SOL    HW1  510   1.800   0.723   2.739 -3.8320  0.0726  0.7102
  128SOL    HW2  511   1.706   0.820   2.790 -0.8853  0.4902  1.6005
  128SOL     MW  512   1.741   0.742   2.799 -0.5198 -0.0627  0.1525
  129SOL     OW  513   1.624   0.845   0.185 -0.3100 -0.3284  0.5094
  129SOL    HW1  514   1.536   0.834   0.156  2.3048 -1.3936  2.6485
  129SOL    HW2  515   1.643   0.782   0.251  0.2796 -0.0764  1.2957
  129SOL     MW  516   1.615   0.836   0.190  0.1128 -0.4356  0.8954
  130SOL     OW  517   0.749   1.511   0.353 -0.0470  0.5924 -0.2300
  130SOL    HW1  518   0.778   1.460   0.434  0.7172  0.2519 -1.1666
  130SOL    HW2  519   0.835   1.547   0.331 -2.5956 -0.5570  1.8622
  130SOL     MW  520   0.764   1.509   0.361 -0.2824  0.3958 -0.0776
  131SOL     OW  521   3.030   0.853   0.090 -0.5124 -1.1195 -0.5120
  131SOL    HW1  522   3.030   0.934   0.025  0.7807  1.6512 -2.4447
  131SOL    HW2  523   3.104   0.801   0.054  1.1757  0.4440  0.0959
  131SOL     MW  524   3.040   0.857   0.077 -0.1190 -0.5477 -0.6868
  132SOL     OW  525   2.714   0.104   1.297 -0.5439  0.5422 -0.2517
  132SOL    HW1  526   2.749   0.114   1.205 -1.1230  0.6330 -0.7117
  132SOL    HW2  527   2.616   0.117   1.294 -0.8696 -0.2315  0.7697
  132SOL     MW  528   2.706   0.107   1.285 -0.6633  0.4521 -0.1776
  133SOL     OW  529   1.094   0.221   1.694 -0.5545  0.3302 -0.3140
  133SOL    HW1  530   1.168   0.158   1.696 -1.0415  0.9064  0.2986
  133SOL    HW2  531   1.050   0.203   1.773  1.7776 -0.7336  0.4976
  133SOL     MW  532   1.098   0.211   1.705 -0.3111  0.2659 -0.1261
  134SOL     OW  533   1.377   2.533   1.489  0.1864 -0.2616 -0.2438
  134SOL    HW1  534   1.327   2.608   1.457  3.4447 -2.0296 -2.0314
  134SOL    HW2  535   1.428   2.580   1.559  1.6544  0.3000 -1.0924
  134SOL     MW  536   1.377   2.549   1.494  0.8100 -0.4208 -0.5916
  135SOL     OW  537   2.995   1.032   3.002  0.0578 -0.2778  0.1815
  135SOL    HW1  538   3.060   1.089   2.967  0.0407 -1.0737  2.5486
  135SOL    HW2  539   2.923   1.093   3.006  0.4925  0.5195 -0.6521
  135SOL     MW  540   2.994   1.047   2.998  0.1129 -0.2776  0.3839
  136SOL     OW  541   0.196   2.089   0.856  1.2719 -0.2204  0.7481
  136SOL    HW1  542   0.152   2.006   0.875 -2.6870  2.0641  0.5253
  136SOL    HW2  543   0.223   2.091   0.759  2.2737 -0.4938  2.4723
  136SOL     MW  544   0.194   2.079   0.846  0.8818  0.0450  0.9462
  137SOL     OW  545   0.671   2.070   0.599  0.0569  0.2257  0.1911
  137SOL    HW1  546   0.724   2.050   0.678  0.5149 -2.9891 -2.9438
  137SOL    HW2  547   0.584   2.038   0.620 -1.5949 -1.0489  1.2905
  137SOL     MW  548   0.667   2.063   0.612 -0.1006 -0.3667 -0.0774
  138SOL     OW  549   0.469   0.590   1.129  0.2788 -0.0883  0.2237
  138SOL    HW1  550   0.409   0.517   1.129 -1.0623 -1.1654 -2.9079
  138SOL    HW2  551   0.521   0.568   1.053  0.2334 -0.9416  1.3567
  138SOL     MW  552   0.468   0.577   1.119  0.0959 -0.3430 -0.0400
  139SOL     OW  553   2.691   0.534   1.382  0.9532  0.3453  0.3507
  139SOL    HW1  554   2.751   0.453   1.381 -0.7064  1.5855 -0.2908
  139SOL    HW2  555   2.733   0.605   1.428  1.8741 -1.1927  1.5100
  139SOL     MW  556   2.705   0.532   1.388  0.8558  0.3060  0.4190
  140SOL     OW  557   0.883   0.273   2.162  0.5239  0.1147  0.5422
  140SOL    HW1  558   0.927   0.239   2.074 -2.2315 -0.4168 -5.3874
  140SOL    HW2  559   0.954   0.266   2.226 -0.6507  0.0349  0.0075
  140SOL     MW  560   0.898   0.268   2.159  0.0054  0.0341 -0.3107
  141SOL     OW  561   1.051   0.688   1.765  0.0401 -0.0693 -0.2082
  141SOL    HW1  562   1.113   0.614   1.756  1.0621 -1.7565 -0.0788
  141SOL    HW2  563   1.101   0.761   1.728  1.9412  1.0075  0.7354
  141SOL     MW  564   1.065   0.688   1.759  0.4257 -0.1498 -0.0666
  142SOL     OW  565   0.937   1.144   0.727  0.1325  0.0020  0.1259
  142SOL    HW1  566   0.955   1.062   0.685  1.3318 -1.9312 -3.1031
  142SOL    HW2  567   1.022   1.143   0.772  1.3129 -1.6933  0.3004
  142SOL     MW  568   0.950   1.133   0.728  0.4465 -0.4768 -0.2771
  143SOL     OW  569   1.889   0.896   1.187  0.4849  0.3199  0.5092
  143SOL    HW1  570   1.906   0.863   1.096 -2.2146 -3.3188 -0.9527
  143SOL    HW2  571   1.868   0.822   1.244  2.4120 -0.8931  3.1038
  143SOL     MW  572   1.889   0.882   1.182  0.3830 -0.3203  0.6586
  144SOL     OW  573   0.177   1.270   1.552 -0.4402 -0.3164 -0.3004
  144SOL    HW1  574   0.268   1.244   1.537  1.1405 -0.5202  0.4790
  144SOL    HW2  575   0.147   1.231   1.635 -0.4129 -0.6762 -0.4993
  144SOL     MW  576   0.185   1.261   1.561 -0.2280 -0.3908 -0.2238
  145SOL     OW  577   0.298   0.382   1.154 -0.3980  0.4210 -0.1483
  145SOL    HW1  578   0.333   0.322   1.217 -0.1074  0.2759 -2.0865
  145SOL    HW2  579   0.217   0.342   1.124 -0.2796  1.4446 -0.6934
  145SOL     MW  580   0.292   0.369   1.159 -0.3440  0.5369 -0.4759
  146SOL     OW  581   0.877   1.947   1.365 -0.4035 -0.2319  0.1021
  146SOL    HW1  582   0.937   1.955   1.291  0.6110 -0.7135 -3.5601
  146SOL    HW2  583   0.788   1.957   1.333  2.4299  0.1694 -1.4173
  146SOL     MW  584   0.873   1.950   1.351  0.1042 -0.2425 -0.5816
  147SOL     OW  585   0.484   0.446   2.849 -0.1358 -0.7371  0.1904
  147SOL    HW1  586   0.413   0.480   2.903  0.0038  1.5519 -2.5690
  147SOL    HW2  587   0.548   0.519   2.838 -1.7431  0.6129  1.2874
  147SOL     MW  588   0.483   0.460   2.855 -0.3294 -0.2570 -0.0289
  148SOL     OW  589   0.083   0.859   1.284 -0.1597  0.8532  0.5127
  148SOL    HW1  590   0.165   0.882   1.242  1.7556 -0.7007  0.9752
  148SOL    HW2  591   0.092   0.894   1.374 -0.7542 -0.0810 -1.3999
  148SOL     MW  592   0.095   0.867   1.290  0.0146  0.5249  0.3213
  149SOL     OW  593   1.439   1.142   1.378 -0.4131 -0.5972 -0.1952
  149SOL    HW1  594   1.391   1.131   1.459 -0.8938 -0.6865 -1.2047
  149SOL    HW2  595   1.489   1.220   1.399 -0.1949  0.4115 -2.0234
  149SOL     MW  596   1.439   1.151   1.391 -0.4478 -0.4759 -0.5696
  150SOL     OW  597   1.849   1.323   0.729  0.1947  0.4122 -0.8432
  150SOL    HW1  598   1.873   1.231   0.729  1.3636  0.0700  2.0164
  150SOL    HW2  599   1.918   1.364   0.787  0.0292  0.3300 -0.9251
  150SOL     MW  600   1.862   1.316   0.737  0.3271  0.3562 -0.4767
  151SOL     OW  601   1.614   1.798   0.843 -0.4063  0.0576 -0.1033
  151SOL    HW1  602   1.566   1.797   0.755 -0.6316 -0.6867 -2.9852
  151SOL    HW2  603   1.554   1.741   0.891 -0.0027  1.6727  0.5733
  151SOL     MW  604   1.600   1.790   0.838 -0.3828  0.1725 -0.3943
  152SOL     OW  605   0.734   1.321   1.428  0.4745  0.0600  0.5721
  152SOL    HW1  606   0.722   1.235   1.377  0.6749 -0.3606 -2.1069
  152SOL    HW2  607   0.821   1.332   1.451 -1.2761  1.9531  1.7980
  152SOL     MW  608   0.744   1.311   1.424  0.2700  0.2543  0.3804
  153SOL     OW  609   2.622   1.189   0.741 -0.7183  0.1651  0.1702
  153SOL    HW1  610   2.685   1.164   0.675  3.1595  2.9913 -0.9586
  153SOL    HW2  611   2.572   1.106   0.741  0.7019  2.8887  2.0777
  153SOL     MW  612   2.624   1.175   0.733 -0.0193  0.8973  0.2729
  154SOL     OW  613   0.326   1.758   1.734  0.0088 -0.0546 -0.4590
  154SOL    HW1  614   0.336   1.759   1.642 -1.4350 -0.5513 -1.4101
  154SOL    HW2  615   0.386   1.693   1.774  0.9348 -3.9815  0.4498
  154SOL     MW  616   0.335   1.749   1.728 -0.0595 -0.6382 -0.4646
  155SOL     OW  617   1.104   0.702   0.227 -0.2515  0.5206  0.6675
  155SOL    HW1  618   1.114   0.635   0.292  1.2881  0.0562 -1.6476
  155SOL    HW2  619   1.090   0.786   0.271 -0.4240  0.1943  2.2849
  155SOL     MW  620   1.103   0.704   0.242 -0.0711  0.4163  0.5754
  156SOL     OW  621   1.607   3.039   0.993 -0.4875 -0.0253  0.2304
  156SOL    HW1  622   1.692   3.081   1.001  0.6439 -1.2967  1.3903
  156SOL    HW2  623   1.617   2.970   1.059  0.6062 -1.9521  0.9168
  156SOL     MW  624   1.620   3.036   1.003 -0.1939 -0.4473  0.4740
  157SOL     OW  625   1.347   1.211   0.095  0.7755 -0.1333  0.0842
  157SOL    HW1  626   1.325   1.188   0.182  2.5412  0.5892  0.6384
  157SOL    HW2  627   1.415   1.279   0.114 -0.6048  1.5669  1.2424
  157SOL     MW  628   1.353   1.217   0.109  0.8264  0.1864  0.3102
  158SOL     OW  629   0.373   1.573   2.225  0.3125  0.6239  0.8631
  158SOL    HW1  630   0.382   1.591   2.131  0.7390 -2.7193 -1.2280
  158SOL    HW2  631   0.296   1.614   2.258 -2.3011 -0.9689 -1.7780
  158SOL     MW  632   0.364   1.581   2.217  0.0240 -0.0274  0.2387
  159SOL     OW  633   1.263   1.707   0.407 -0.4194  0.2597 -0.1282
  159SOL    HW1  634   1.259   1.609   0.385  0.5886 -0.1495 -3.0693
  159SOL    HW2  635   1.180   1.727   0.460 -1.2864 -2.1293  2.9238
  159SOL     MW  636   1.252   1.697   0.411 -0.4008 -0.1095 -0.1136
  160SOL     OW  637   0.391   1.097   1.524  0.3292 -0.5978  0.1814
  160SOL    HW1  638   0.407   1.021   1.580 -1.9165 -0.0926  1.5181
  160SOL    HW2  639   0.462   1.163   1.536  0.2809  1.5949 -0.7713
  160SOL     MW  640   0.402   1.096   1.533  0.0266 -0.2419  0.2320
  161SOL     OW  641   0.522   2.148   2.653  0.2327 -0.3420 -0.2632
  161SOL    HW1  642   0.471   2.187   2.732 -1.4500  0.2206  0.6032
  161SOL    HW2  643   0.456   2.088   2.610  1.1319  1.3181  1.6080
  161SOL     MW  644   0.506   2.145   2.658  0.1293 -0.0488  0.0980
  162SOL     OW  645   1.027   1.760   1.838 -0.3292 -0.0915 -0.1404
  162SOL    HW1  646   1.018   1.848   1.867 -1.9308  0.6614  2.3730
  162SOL    HW2  647   0.954   1.707   1.857  0.7811  0.5571 -0.1455
  162SOL     MW  648   1.016   1.765   1.844 -0.3940  0.0934  0.1906
  163SOL     OW  649   2.156   0.155   0.992  0.1594  0.4892  0.7121
  163SOL    HW1  650   2.132   0.171   0.895  1.9266  0.8884 -1.2594
  163SOL    HW2  651   2.118   0.073   1.006  3.5326  1.3241  0.1349
  163SOL     MW  652   2.148   0.146   0.981  0.8376  0.6520  0.3758
  164SOL     OW  653   0.309   0.252   0.850 -0.1049 -0.1605  0.5632
  164SOL    HW1  654   0.223   0.247   0.881  2.8264 -3.4938 -1.8168
  164SOL    HW2  655   0.315   0.170   0.798  1.9708 -0.0363 -2.0140
  164SOL     MW  656   0.298   0.240   0.847  0.5558 -0.5839 -0.0909
  165SOL     OW  657   1.399   1.188   0.381 -0.2006 -0.2705 -0.0255
  165SOL    HW1  658   1.361   1.128   0.448 -2.3008  1.6344 -1.1119
  165SOL    HW2  659   1.476   1.143   0.358  0.6265  1.3966  3.2009
  165SOL     MW  660   1.404   1.174   0.387 -0.3686  0.2008  0.2569
  166SOL     OW  661   0.509   1.039   0.951  0.3270  0.5398  0.7078
  166SOL    HW1  662   0.453   0.969   0.994 -1.3272  1.3799 -0.2999
  166SOL    HW2  663   0.595   0.996   0.943  1.0404 -1.7439 -2.3540
  166SOL     MW  664   0.513   1.024   0.956  0.2029  0.3493  0.1708
  167SOL     OW  665   0.956   1.190   0.357 -0.3353 -0.5445  0.3441
  167SOL    HW1  666   0.904   1.259   0.385  2.4003 -1.7530 -0.4444
  167SOL    HW2  667   0.937   1.175   0.262  1.8964  0.3048 -5.1307
  167SOL     MW  668   0.947   1.197   0.348  0.3201 -0.5919 -0.4823
  168SOL     OW  669   1.685   1.740   2.917 -0.1523 -0.1060  0.2319
  168SOL    HW1  670   1.628   1.816   2.936 -0.3454  1.6867 -0.2863
  168SOL    HW2  671   1.709   1.712   3.007  2.7091 -0.0216 -1.6035
  168SOL     MW  672   1.680   1.746   2.931  0.1997  0.1416 -0.0786
  169SOL     OW  673   0.339   1.006   1.275  0.2008  0.1666  0.8223
  169SOL    HW1  674   0.384   1.027   1.357  1.3759 -0.4515 -3.4935
  169SOL    HW2  675   0.277   1.081   1.265 -3.6156 -0.3064  0.2475
  169SOL     MW  676   0.337   1.019   1.284 -0.1477  0.0227  0.1770
  170SOL     OW  677   1.023   1.471   1.534 -0.0058  0.2054 -0.0657
  170SOL    HW1  678   0.969   1.552   1.538  0.1342  0.6262  0.8447
  170SOL    HW2  679   1.070   1.463   1.450 -4.2105 -0.7874  1.2013
  170SOL     MW  680   1.022   1.481   1.524 -0.5421  0.1300  0.2216
  171SOL     OW  681   0.579   1.361   0.688 -0.8417  0.2629  0.2794
  171SOL    HW1  682   0.557   1.355   0.785  2.0733  1.0131 -0.5168
  171SOL    HW2  683   0.597   1.270   0.661  0.3144 -1.5824  2.3202
  171SOL     MW  684   0.579   1.348   0.697 -0.3046  0.1184  0.4436
  172SOL     OW  685   0.831   0.291   1.172  0.1475 -0.1144  0.1818
  172SOL    HW1  686   0.839   0.295   1.078  1.1791 -1.2432  1.1028
  172SOL    HW2  687   0.755   0.338   1.198  1.2029  0.3353 -1.3168
  172SOL     MW  688   0.822   0.298   1.163  0.4229 -0.2040  0.1056
  173SOL     OW  689   0.375   1.640   0.361  0.4538 -0.5853 -0.0627
  173SOL    HW1  690   0.372   1.547   0.338  3.3182  0.0109  0.3379
  173SOL    HW2  691   0.443   1.649   0.430  2.0181 -0.4503 -0.7185
  173SOL     MW  692   0.384   1.629   0.367  1.0381 -0.4888 -0.0963
  174SOL     OW  693   2.045   0.918   1.475  0.1313  0.5654 -0.3192
  174SOL    HW1  694   1.999   0.838   1.517  0.2992 -1.3954  1.4101
  174SOL    HW2  695   1.971   0.967   1.446  0.7775  2.2438 -2.2396
  174SOL     MW  696   2.029   0.914   1.477  0.2387  0.5281 -0.3444
  175SOL     OW  697   0.377   1.364   0.396 -0.0945  0.3067  0.0474
  175SOL    HW1  698   0.369   1.352   0.302  0.0465  0.4168  1.7587
  175SOL    HW2  699   0.447   1.303   0.417 -2.8095  1.1234 -1.2013
  175SOL     MW  700   0.386   1.354   0.386 -0.4341  0.4290  0.1085
  176SOL     OW  701   0.201   1.258   1.240  0.2261 -0.2717  0.0485
  176SOL    HW1  702   0.139   1.284   1.173  2.4392 -1.6163  0.9736
  176SOL    HW2  703   0.175   1.310   1.315  1.9270 -4.0253 -1.5380
  176SOL     MW  704   0.190   1.268   1.241  0.7425 -0.9444 -0.0387
  177SOL     OW  705   0.608   0.433   1.286  0.1805  0.0049 -0.6062
  177SOL    HW1  706   0.559   0.491   1.225  1.5764 -1.1736  0.0237
  177SOL    HW2  707   0.603   0.481   1.370 -1.8656 -0.4305 -0.2528
  177SOL     MW  708   0.601   0.447   1.289  0.0947 -0.2081 -0.4765
  178SOL     OW  709   0.008   0.434   3.045 -0.2068  0.1766 -0.1307
  178SOL    HW1  710  -0.042   0.489   3.109  1.8609 -0.2548 -1.0498
  178SOL    HW2  711  -0.022   0.465   2.962  1.4219 -0.6299  3.2654
  178SOL     MW  712  -0.002   0.445   3.043  0.2809  0.0132  0.1961
  179SOL     OW  713   1.634   1.322   1.478 -0.1660  0.2593  0.0005
  179SOL    HW1  714   1.601   1.357   1.564  0.7891 -0.4624  2.6211
  179SOL    HW2  715   1.733   1.344   1.478  0.6235  0.0323 -1.1324
  179SOL     MW  716   1.643   1.329   1.489  0.0642  0.1341  0.1968
  180SOL     OW  717   2.960   0.287   0.499  0.3020  0.1701  0.1354
  180SOL    HW1  718   2.918   0.317   0.420 -0.3478 -1.2792  1.9561
  180SOL    HW2  719   3.001   0.365   0.543  1.5779 -0.0120 -1.7241
  180SOL     MW  720   2.960   0.301   0.494  0.3846 -0.0451  0.1303
  181SOL     OW  721   1.139   1.353   3.047 -0.3386 -0.0623 -0.0606
  181SOL    HW1  722   1.213   1.336   3.107 -2.1604  0.7554  0.0431
  181SOL    HW2  723   1.157   1.303   2.967  2.5079  0.6221 -0.9642
  181SOL     MW  724   1.151   1.344   3.045 -0.2034  0.1359 -0.1662
  182SOL     OW  725   0.443   0.884   1.724  0.2476 -0.4814  0.0657
  182SOL    HW1  726   0.375   0.831   1.686 -0.3325 -1.7074  2.8247
  182SOL    HW2  727   0.499   0.829   1.775 -2.4284 -0.1309 -2.1985
  182SOL     MW  728   0.441   0.870   1.725 -0.1820 -0.5969  0.1310
  183SOL     OW  729   1.584   1.526   1.314 -0.2322 -0.5030 -0.0682
  183SOL    HW1  730   1.573   1.615   1.349  1.0830 -1.4750 -0.5730
  183SOL    HW2  731   1.593   1.458   1.390 -2.0189  0.4061 -0.1905
  183SOL     MW  732   1.584   1.528   1.328 -0.2944 -0.5113 -0.1509
  184SOL     OW  733   0.835   0.462   1.927 -0.7197 -0.0045  0.3384
  184SOL    HW1  734   0.903   0.529   1.937 -2.7766 -1.0058  0.5102
  184SOL    HW2  735   0.843   0.416   2.010  1.8391  4.5976 -1.0393
  184SOL     MW  736   0.845   0.464   1.939 -0.6535  0.4706  0.1793
  185SOL     OW  737   1.092   0.948   1.975  0.5780 -0.7748 -0.4118
  185SOL    HW1  738   1.075   0.863   2.018 -0.2773  0.8706  0.4718
  185SOL    HW2  739   1.148   1.002   2.031  2.5177  1.0108  0.4989
  185SOL     MW  740   1.097   0.944   1.988  0.7211 -0.3221 -0.1751
  186SOL     OW  741   0.375   1.786   1.459 -0.3726 -0.0449 -0.0579
  186SOL    HW1  742   0.434   1.856   1.435 -1.0356 -3.1283 -4.0081
  186SOL    HW2  743   0.359   1.730   1.385  0.6646 -0.3128 -1.8866
  186SOL     MW  744   0.380   1.788   1.446 -0.3233 -0.4871 -0.8204
  187SOL     OW  745   1.512   0.740   1.488  0.2205 -0.0039  0.0821
  187SOL    HW1  746   1.463   0.730   1.568 -1.3589  1.2545 -0.3381
  187SOL    HW2  747   1.462   0.678   1.439  0.2096  2.7081  1.6989
  187SOL     MW  748   1.499   0.730   1.492  0.0107  0.5200  0.2400
  188SOL     OW  749   1.912   1.062   0.697  0.0102  0.6736  0.0865
  188SOL    HW1  750   1.923   0.981   0.748  1.2421 -0.0190  0.0296
  188SOL    HW2  751   2.000   1.078   0.661 -0.9353  0.1281  2.4560
  188SOL     MW  752   1.925   1.053   0.699  0.0480  0.5102  0.3916
  189SOL     OW  753   0.628   0.784   0.715  0.0489 -0.0274  0.1710
  189SOL    HW1  754   0.547   0.837   0.706  1.3967  1.2358  3.1939
  189SOL    HW2  755   0.685   0.823   0.778  1.0404 -1.7611  3.8744
  189SOL     MW  756   0.625   0.796   0.722  0.3576 -0.0895  1.0585
  190SOL     OW  757   1.918   0.340   1.941 -1.1851  0.0896  0.1194
  190SOL    HW1  758   1.958   0.273   1.880 -1.4480  0.1216  1.1670
  190SOL    HW2  759   1.926   0.429   1.899 -2.4823  1.5409 -0.6192
  190SOL     MW  760   1.924   0.343   1.927 -1.3909  0.2853  0.1602
  191SOL     OW  761   1.629   0.984   1.511  0.1147  0.0118 -0.7445
  191SOL    HW1  762   1.571   1.034   1.465  1.2958 -0.5762  1.4471
  191SOL    HW2  763   1.593   0.895   1.518  0.2075  0.8029 -1.4005
  191SOL     MW  764   1.617   0.979   1.506  0.2828  0.0386 -0.5419
  192SOL     OW  765   0.670   2.049   2.866  0.1482 -0.1379 -0.1245
  192SOL    HW1  766   0.630   2.091   2.787  0.0257  1.3973 -0.5794
  192SOL    HW2  767   0.663   1.952   2.853  1.4006 -2.2321  1.3564
  192SOL     MW  768   0.664   2.042   2.854  0.2973 -0.2117  0.0108
  193SOL     OW  769   0.985   1.558   0.742  0.2231 -0.4912  0.7321
  193SOL    HW1  770   0.957   1.563   0.831 -0.1479  0.6762 -0.5343
  193SOL    HW2  771   0.919   1.497   0.701 -0.0869 -3.1962 -0.3730
  193SOL     MW  772   0.972   1.550   0.748  0.1333 -0.6941  0.4192
  194SOL     OW  773   0.522   1.339   0.962 -0.2748  0.6672 -0.1345
  194SOL    HW1  774   0.514   1.243   0.963  0.7174 -2.3892 -0.5057
  194SOL    HW2  775   0.431   1.368   0.955  0.0239  3.6886  1.4740
  194SOL     MW  776   0.509   1.330   0.961 -0.1044  0.6626  0.0288
  195SOL     OW  777   1.273   1.132   2.919  0.5240  0.2416 -0.4663
  195SOL    HW1  778   1.312   1.147   3.008  0.2218  1.9593 -1.4097
  195SOL    HW2  779   1.188   1.088   2.936  1.2956  1.6516  2.2456
  195SOL     MW  780   1.267   1.128   2.933  0.5859  0.6543 -0.2330
  196SOL     OW  781   2.179   1.071   0.581  0.7289  0.4259  0.2003
  196SOL    HW1  782   2.115   1.054   0.509 -2.2681  1.7816 -0.8616
  196SOL    HW2  783   2.166   1.164   0.603  2.4404  0.7639  0.0084
  196SOL     MW  784   2.169   1.081   0.574  0.5593  0.6494  0.0349
  197SOL     OW  785   0.544   1.161   1.978 -0.4888 -0.0684 -0.0434
  197SOL    HW1  786   0.576   1.069   1.963 -1.2091  1.3745  0.4410
  197SOL    HW2  787   0.516   1.190   1.892  2.5525 -1.9126  3.3380
  197SOL     MW  788   0.544   1.153   1.964 -0.1826 -0.1213  0.4667
  198SOL     OW  789   2.901   1.431   1.096  1.0021  0.2103  0.6903
  198SOL    HW1  790   2.908   1.510   1.036 -3.2607 -2.5984 -1.3574
  198SOL    HW2  791   2.843   1.375   1.050  2.7038  2.8519  1.3596
  198SOL     MW  792   2.894   1.434   1.082  0.6642  0.1883  0.5085
  199SOL     OW  793   0.417   1.294   1.746  0.0233 -0.3050 -0.5863
  199SOL    HW1  794   0.327   1.316   1.763  1.7879  1.9431 -0.0123
  199SOL    HW2  795   0.429   1.355   1.669 -1.8653 -1.4782  3.6180
  199SOL     MW  796   0.407   1.305   1.738  0.0069 -0.1632  0.0441
  200SOL     OW  797   1.940   3.004   1.246 -0.0258 -0.2301  0.2727
  200SOL    HW1  798   1.957   3.010   1.153 -3.3814 -2.6899 -1.1775
  200SOL    HW2  799   1.856   3.047   1.262  0.8686 -0.5301  0.7401
  200SOL     MW  800   1.931   3.010   1.236 -0.3505 -0.5942  0.1431
  201SOL     OW  801   1.041   0.303   0.739 -0.0599 -0.1657  0.2577
  201SOL    HW1  802   1.086   0.218   0.731  0.5420  2.7331 -0.2207
  201SOL    HW2  803   1.036   0.333   0.654 -0.0806 -0.9543  2.0536
  201SOL     MW  804   1.046   0.296   0.726  0.0168  0.1127  0.4315
  202SOL     OW  805   1.527   1.594   1.003  0.7072  0.2143 -0.1676
  202SOL    HW1  806   1.559   1.504   0.979  1.0235  1.0679 -0.7774
  202SOL    HW2  807   1.555   1.603   1.095 -0.3747 -1.0922  1.0179
  202SOL     MW  808   1.535   1.583   1.012  0.6062  0.1545 -0.0917
  203SOL     OW  809   2.959   0.444   1.172 -0.0223  0.1959  1.1130
  203SOL    HW1  810   3.043   0.414   1.127  0.4480 -1.8742 -5.0819
  203SOL    HW2  811   2.985   0.487   1.249  2.7127  2.4952  0.2281
  203SOL     MW  812   2.974   0.445   1.176  0.4006  0.2262  0.1789
  204SOL     OW  813   1.058   1.782   0.569 -0.0592  0.4318 -0.2782
  204SOL    HW1  814   1.036   1.712   0.631 -0.2925  0.4441  2.2829
  204SOL    HW2  815   0.976   1.805   0.525  0.0215  1.4385  0.2459
  204SOL     MW  816   1.044   1.776   0.571 -0.0793  0.5662  0.1289
  205SOL     OW  817   1.465   0.107   1.222  0.0616 -0.4125 -0.3255
  205SOL    HW1  818   1.427   0.086   1.132 -1.5970  2.6921 -1.6025
  205SOL    HW2  819   1.481   0.202   1.213  1.5554 -2.4272 -4.0881
  205SOL     MW  820   1.462   0.117   1.209  0.0398 -0.2687 -0.9905
  206SOL     OW  821   0.436   3.058   1.348  0.8100  0.1119  0.2216
  206SOL    HW1  822   0.415   3.031   1.256  0.4269 -0.5054  2.2478
  206SOL    HW2  823   0.513   3.002   1.374  1.7343 -0.1420  1.7332
  206SOL     MW  824   0.443   3.047   1.339  0.8814 -0.0030  0.6884
  207SOL     OW  825   0.977   1.589   0.251  0.6934  0.1210 -0.3208
  207SOL    HW1  826   1.001   1.670   0.200 -0.6676 -0.8886  2.6608
  207SOL    HW2  827   1.055   1.539   0.253 -0.1084 -1.1140  0.9854
  207SOL     MW  828   0.991   1.593   0.244  0.4080 -0.1751  0.2449
  208SOL     OW  829   0.596   1.597   1.311  0.2662 -0.3589  0.4373
  208SOL    HW1  830   0.680   1.590   1.351 -1.9031  0.3201 -1.3150
  208SOL    HW2  831   0.576   1.507   1.271 -1.8776 -0.3881  0.6537
  208SOL     MW  832   0.605   1.584   1.311 -0.3029 -0.2732  0.2346
  209SOL     OW  833   1.505   0.564   2.789 -0.1154 -0.0794  0.1973
  209SOL    HW1  834   1.561   0.642   2.784 -0.4449 -1.1188  0.1677
  209SOL    HW2  835   1.576   0.493   2.772 -0.9707 -1.8623 -0.2175
  209SOL     MW  836   1.522   0.565   2.786 -0.2717 -0.4518  0.1387
  210SOL     OW  837   1.604   1.379   0.865  0.1384 -0.6685 -0.3094
  210SOL    HW1  838   1.691   1.353   0.830 -0.7945 -1.7222 -1.9927
  210SOL    HW2  839   1.533   1.357   0.801  0.8310 -0.7915  0.2438
  210SOL     MW  840   1.606   1.372   0.852  0.1067 -0.8238 -0.4585
  211SOL     OW  841   1.754   0.470   0.956  0.0676  0.8940  0.2535
  211SOL    HW1  842   1.711   0.499   0.865  1.1951 -0.2255 -2.0360
  211SOL    HW2  843   1.842   0.510   0.957 -0.1626  0.6591 -0.5158
  211SOL     MW  844   1.760   0.479   0.944  0.1860  0.7153 -0.1501
  212SOL     OW  845   0.321   1.131   0.043 -0.1642 -0.1433 -0.2132
  212SOL    HW1  846   0.284   1.107   0.128  1.1282 -1.5536  2.6562
  212SOL    HW2  847   0.417   1.111   0.054  1.3189 -0.9067  1.3102
  212SOL     MW  848   0.329   1.125   0.055  0.2020 -0.4301  0.3664
  213SOL     OW  849   0.532   1.678   3.080 -0.3432  0.9507 -0.5452
  213SOL    HW1  850   0.558   1.734   3.161  2.9530 -1.7423 -1.4151
  213SOL    HW2  851   0.583   1.721   3.008  1.7382  0.3408 -0.7653
  213SOL     MW  852   0.542   1.691   3.082  0.3663  0.5149 -0.6890
  214SOL     OW  853   0.641   0.234   2.289 -0.5387  0.0591 -0.1308
  214SOL    HW1  854   0.584   0.303   2.240 -3.6257 -0.3269  0.2884
  214SOL    HW2  855   0.729   0.235   2.245  1.6515  0.1241 -0.1731
  214SOL     MW  856   0.645   0.244   2.277 -0.6570  0.0167 -0.0810
  215SOL     OW  857   0.468   0.681   2.623 -0.0062  0.1600 -0.1928
  215SOL    HW1  858   0.469   0.666   2.529  1.1749  0.4967  0.0860
  215SOL    HW2  859   0.393   0.631   2.654  1.0977 -1.4004  1.0008
  215SOL     MW  860   0.458   0.673   2.615  0.2953 -0.0015  0.0015
  216SOL     OW  861   3.034  -0.003   2.833  0.3073  0.1382  0.5968
  216SOL    HW1  862   2.976  -0.002   2.911  0.7721 -0.3100 -0.9526
  216SOL    HW2  863   3.025   0.074   2.772  2.9066  0.3994 -2.8774
  216SOL     MW  864   3.025   0.008   2.835  0.7116  0.1135 -0.0660
  217SOL     OW  865   0.987   1.176   0.073 -0.1419 -0.3064  0.1053
  217SOL    HW1  866   1.012   1.114   0.005  1.2537  1.2423 -0.4354
  217SOL    HW2  867   1.042   1.251   0.058  0.0490  2.4294 -1.5116
  217SOL     MW  868   0.997   1.178   0.062  0.0674  0.2589 -0.1794
  218SOL     OW  869   0.921   1.304   2.502  0.2281  0.1515 -0.1009
  218SOL    HW1  870   0.986   1.250   2.465 -0.9259  2.1877  0.3253
  218SOL    HW2  871   0.971   1.376   2.551  0.3391  3.1842 -0.4821
  218SOL     MW  872   0.936   1.307   2.504  0.0905  0.8203 -0.0950
  219SOL     OW  873   1.028   0.377   2.624 -0.0869 -0.2161 -1.2615
  219SOL    HW1  874   1.059   0.467   2.622  2.0867 -0.5113 -0.8582
  219SOL    HW2  875   0.935   0.384   2.656 -2.5121  0.4423  0.6645
  219SOL     MW  876   1.020   0.390   2.628 -0.1201 -0.1682 -0.9542
  220SOL     OW  877   1.718   0.550   2.185 -0.4470  0.4428 -0.5218
  220SOL    HW1  878   1.636   0.598   2.169  2.9324 -2.4836  2.4764
  220SOL    HW2  879   1.687   0.464   2.150  3.3905 -0.8948  1.4825
  220SOL     MW  880   1.703   0.545   2.178  0.5052 -0.1198  0.1382
  221SOL     OW  881   0.388   1.390   2.913  0.0161  0.2624 -0.0695
  221SOL    HW1  882   0.407   1.304   2.871 -1.3139 -0.5789  2.8716
  221SOL    HW2  883   0.413   1.444   2.838 -2.3821  2.8015  0.7839
  221SOL     MW  884   0.393   1.385   2.898 -0.4758  0.4864  0.4311
  222SOL     OW  885   0.366   0.959   2.716  0.9522 -0.3417 -1.0008
  222SOL    HW1  886   0.320   0.943   2.636 -0.1403 -1.3351  2.2822
  222SOL    HW2  887   0.422   0.880   2.717 -1.1257  1.8119 -2.2703
  222SOL     MW  888   0.368   0.946   2.706  0.5339 -0.1886 -0.7351
  223SOL     OW  889   3.049   2.026   2.660 -0.0258 -0.1562  0.2534
  223SOL    HW1  890   3.120   1.965   2.668  0.9468  0.6147 -2.5292
  223SOL    HW2  891   3.080   2.103   2.603 -1.7342  1.4854 -0.6443
  223SOL     MW  892   3.062   2.028   2.654 -0.1229  0.1621 -0.2322
  224SOL     OW  893   1.552   0.804   2.525 -0.1830  0.0056  0.8953
  224SOL    HW1  894   1.487   0.797   2.590  1.0230 -1.5395 -2.9070
  224SOL    HW2  895   1.542   0.894   2.505  0.5275 -0.5540  3.0697
  224SOL     MW  896   1.542   0.815   2.531  0.0699 -0.2721  0.6805
  225SOL     OW  897   2.994   1.528   2.270 -0.5117 -0.5465 -0.4264
  225SOL    HW1  898   3.021   1.583   2.191  3.4914 -1.0052 -2.1867
  225SOL    HW2  899   2.946   1.585   2.326  0.4150  0.2694  1.9988
  225SOL     MW  900   2.991   1.542   2.267  0.1387 -0.4994 -0.3386
  226SOL     OW  901   0.419   1.523   2.669 -0.0969  0.5877  0.0174
  226SOL    HW1  902   0.494   1.478   2.626 -0.8240  2.7556  0.3858
  226SOL    HW2  903   0.429   1.615   2.668  0.2865 -1.1478 -0.6001
  226SOL     MW  904   0.430   1.529   2.663 -0.1422  0.6448 -0.0155
  227SOL     OW  905   0.515   1.161   2.803 -1.2540 -0.0472 -0.1946
  227SOL    HW1  906   0.562   1.211   2.737  0.7949 -0.8116  1.1728
  227SOL    HW2  907   0.469   1.087   2.770  0.8241  4.0194 -1.3761
  227SOL     MW  908   0.515   1.158   2.790 -0.7095  0.3885 -0.1701
  228SOL     OW  909   0.670   0.922   1.984  0.0958  0.4885  0.0490
  228SOL    HW1  910   0.748   0.964   2.022 -1.2912 -1.3136 -1.5772
  228SOL    HW2  911   0.623   0.882   2.064  0.6046  0.2312 -0.6115
  228SOL     MW  912   0.674   0.922   2.000 -0.0201  0.2168 -0.2527
  229SOL     OW  913   0.260   0.509   3.064 -0.2221 -0.5342 -0.1155
  229SOL    HW1  914   0.158   0.478   3.060 -0.5401  1.3154  0.1766
  229SOL    HW2  915   0.296   0.467   3.143  0.1782  0.2116  1.6158
  229SOL     MW  916   0.252   0.500   3.074 -0.2112 -0.1918  0.1515
  230SOL     OW  917   1.702   1.400   2.107 -0.0920 -0.2875 -0.2866
  230SOL    HW1  918   1.662   1.415   2.188 -0.0458  1.3724  0.2106
  230SOL    HW2  919   1.748   1.313   2.121 -0.1377 -1.9338 -0.2304
  230SOL     MW  920   1.703   1.391   2.119 -0.0919 -0.2857 -0.2136
  231SOL     OW  921   2.839   1.319   2.198  0.0138 -0.1674  0.1385
  231SOL    HW1  922   2.908   1.369   2.237 -0.8606  0.7337 -1.0634
  231SOL    HW2  923   2.781   1.376   2.146 -0.8406  5.2349 -0.4459
  231SOL     MW  924   2.840   1.333   2.196 -0.2143  0.6642 -0.0972
  232SOL     OW  925   2.271   1.031   2.132  0.6001  0.4619 -0.5451
  232SOL    HW1  926   2.227   1.033   2.053 -0.8742  4.7191  0.2346
  232SOL    HW2  927   2.226   0.961   2.188  0.4580 -2.8492 -2.1588
  232SOL     MW  928   2.259   1.022   2.129  0.3869  0.5867 -0.6551
  233SOL     OW  929   2.028   0.601   1.880 -0.0803 -0.3167  0.1740
  233SOL    HW1  930   2.094   0.595   1.811  0.6487  3.1070 -2.5082
  233SOL    HW2  931   2.068   0.577   1.964  1.0810  0.7499 -0.8955
  233SOL     MW  932   2.042   0.597   1.882  0.1691  0.2758 -0.3210
  234SOL     OW  933   0.212   0.945   2.491  0.2093 -0.2770  0.2570
  234SOL    HW1  934   0.116   0.935   2.496 -0.6376  2.3041 -2.1960
  234SOL    HW2  935   0.216   1.039   2.464 -1.8651  2.8304  1.1568
  234SOL     MW  936   0.200   0.956   2.488 -0.1761  0.4736  0.0521
  235SOL     OW  937   0.988   3.046   2.780 -0.1547  0.0488  0.0668
  235SOL    HW1  938   1.015   2.994   2.857 -2.4477 -0.5275  0.8978
  235SOL    HW2  939   0.994   3.135   2.822 -1.2180  0.3972  0.8272
  235SOL     MW  940   0.992   3.051   2.796 -0.5975  0.0187  0.2767
  236SOL     OW  941   2.937   0.573   0.125  0.3076 -0.0857  0.1188
  236SOL    HW1  942   2.856   0.587   0.072 -2.2055  0.1794 -1.5352
  236SOL    HW2  943   2.950   0.657   0.154  0.3480 -4.7583  1.0841
  236SOL     MW  944   2.928   0.586   0.122 -0.0187 -0.6673  0.0279
  237SOL     OW  945   1.776   0.935   2.183 -0.3240 -0.4306  0.3014
  237SOL    HW1  946   1.809   1.023   2.150 -1.0672 -0.9204  1.0144
  237SOL    HW2  947   1.816   0.936   2.267 -1.2085 -1.9484  0.2951
  237SOL     MW  948   1.785   0.947   2.189 -0.5388 -0.6955  0.3946
  238SOL     OW  949   1.033   1.775   2.956 -0.0422  0.0581  0.2644
  238SOL    HW1  950   0.993   1.691   2.940  0.3531 -0.8576 -0.1465
  238SOL    HW2  951   1.126   1.755   2.946 -1.2137 -0.0119  0.4200
  238SOL     MW  952   1.040   1.761   2.952 -0.1446 -0.0720  0.2307
  239SOL     OW  953   1.289   1.444   2.361  0.0556 -0.3403 -0.1065
  239SOL    HW1  954   1.244   1.454   2.444  2.9696  0.6972  1.8045
  239SOL    HW2  955   1.380   1.413   2.375 -0.0298  1.0925  0.6048
  239SOL     MW  956   1.295   1.442   2.374  0.4288 -0.0144  0.2395
  240SOL     OW  957   0.592   0.823   2.225 -0.5335  0.1131  0.4500
  240SOL    HW1  958   0.569   0.897   2.279  0.6731  0.2622  0.0868
  240SOL    HW2  959   0.682   0.797   2.255 -0.3791 -2.0731  2.3637
  240SOL     MW  960   0.601   0.829   2.236 -0.3539 -0.1557  0.6546
  241SOL     OW  961   0.659   0.327   3.019 -0.0685  0.1608 -0.1123
  241SOL    HW1  962   0.622   0.313   3.108 -3.1578  0.5297  0.6340
  241SOL    HW2  963   0.583   0.364   2.974 -1.1407  1.5117 -0.3238
  241SOL     MW  964   0.644   0.330   3.025 -0.6176  0.3877 -0.0417
  242SOL     OW  965   1.452   1.742   2.268  0.1288 -0.8604 -0.0743
  242SOL    HW1  966   1.417   1.829   2.302 -0.7700 -0.5329  0.4318
  242SOL    HW2  967   1.385   1.684   2.239  1.3558 -0.7682  1.0667
  242SOL     MW  968   1.439   1.746   2.269  0.1721 -0.8050  0.1430
  243SOL     OW  969   1.069   0.226   2.372 -0.3075 -0.3920  0.1233
  243SOL    HW1  970   1.154   0.185   2.362 -1.5916  1.1997 -1.5114
  243SOL    HW2  971   1.083   0.287   2.444  3.7112 -1.1705  1.3531
  243SOL     MW  972   1.082   0.229   2.380  0.0533 -0.2847  0.0699
  244SOL     OW  973   0.212   0.750   2.308  0.1651  0.2461 -0.0713
  244SOL    HW1  974   0.223   0.833   2.353  2.5840  1.2799  0.1569
  244SOL    HW2  975   0.293   0.693   2.321 -1.2937  0.9333 -0.3642
  244SOL     MW  976   0.224   0.753   2.315  0.2918  0.4732 -0.0799
  245SOL     OW  977   1.339   0.137   2.311  0.6041  0.0521  0.2483
  245SOL    HW1  978   1.311   0.050   2.292 -1.9303  1.7316  0.5877
  245SOL    HW2  979   1.431   0.132   2.327  0.4848 -1.4179  1.7009
  245SOL     MW  980   1.348   0.125   2.311  0.2540  0.0797  0.4847
  246SOL     OW  981   1.156   1.135   2.170 -0.5363  0.2440  0.1623
  246SOL    HW1  982   1.091   1.108   2.236  1.2228  0.3114 -2.7887
  246SOL    HW2  983   1.237   1.149   2.221 -0.5461  0.7812  1.0397
  246SOL     MW  984   1.158   1.134   2.186 -0.3055  0.3238 -0.1113
  247SOL     OW  985   0.613   0.568   0.127  0.2653  0.4637 -0.0483
  247SOL    HW1  986   0.580   0.628   0.064  0.8583  1.0042  1.6392
  247SOL    HW2  987   0.706   0.576   0.128  0.3671 -0.1955 -1.2977
  247SOL     MW  988   0.621   0.577   0.118  0.3570  0.4480  0.0095
  248SOL     OW  989   0.321   1.214   2.398  0.8494  0.1336  0.2139
  248SOL    HW1  990   0.357   1.258   2.319 -1.1317 -0.5525  0.8075
  248SOL    HW2  991   0.316   1.280   2.461 -0.2579 -3.1436  0.8182
  248SOL     MW  992   0.325   1.229   2.396  0.4419 -0.3893  0.3719
  249SOL     OW  993   0.158   1.840   2.706 -0.7705 -0.2977 -0.1175
  249SOL    HW1  994   0.103   1.761   2.671 -1.4809 -1.7567  1.1201
  249SOL    HW2  995   0.160   1.833   2.803 -2.7168 -1.1696  1.4757
  249SOL     MW  996   0.151   1.829   2.715 -1.1210 -0.6052  0.2560
  250SOL     OW  997   2.176   0.847   2.310  0.5849  0.2204 -0.3229
  250SOL    HW1  998   2.239   0.773   2.312 -1.2218  0.4438  1.3006
  250SOL    HW2  999   2.212   0.913   2.376  0.1569 -1.4668  0.4884
  250SOL     MW 1000   2.189   0.846   2.319  0.2901  0.0273 -0.0017
  251SOL     OW 1001   0.070   0.808   2.092  0.5226 -0.0867  0.3687
  251SOL    HW1 1002   0.132   0.767   2.155  0.4569  2.2498 -0.3212
  251SOL    HW2 1003   0.017   0.727   2.072 -0.2558  3.1868  0.1036
  251SOL     MW 1004   0.071   0.792   2.098  0.4112  0.6534  0.2427
  252SOL     OW 1005   1.701   1.001   2.801  0.5729  0.1213 -0.7246
  252SOL    HW1 1006   1.704   1.017   2.896 -2.6440 -1.3059 -0.9409
  252SOL    HW2 1007   1.768   1.056   2.761 -0.1078  0.2520  2.0428
  252SOL     MW 1008   1.710   1.010   2.808  0.0587 -0.0497 -0.3880
  253SOL     OW 1009   1.153   1.736   2.535 -0.1498 -0.0712  0.3660
  253SOL    HW1 1010   1.170   1.763   2.444  1.8305 -1.3884  0.9731
  253SOL    HW2 1011   1.062   1.770   2.559 -0.3061  0.1554  0.9267
  253SOL     MW 1012   1.143   1.744   2.526  0.0908 -0.2151  0.5200
  254SOL     OW 1013   0.971   1.034   2.345 -0.1046  0.7678 -0.1568
  254SOL    HW1 1014   0.959   0.938   2.338  1.6922 -2.0093 -2.9802
  254SOL    HW2 1015   0.889   1.064   2.301 -0.4427  2.5009  2.8943
  254SOL     MW 1016   0.958   1.025   2.338  0.0878  0.6300 -0.1267
  255SOL     OW 1017   0.713   2.266   2.326 -0.1626  0.5913 -0.4458
  255SOL    HW1 1018   0.619   2.266   2.321  0.9993  2.6454  0.9294
  255SOL    HW2 1019   0.742   2.303   2.407 -1.8845 -0.1443 -1.2970
  255SOL     MW 1020   0.704   2.271   2.336 -0.2365  0.7653 -0.3767
  256SOL     OW 1021   1.210   2.857   2.981 -0.1526  0.2094 -0.3085
  256SOL    HW1 1022   1.252   2.773   2.961  2.3229  0.2989  0.0668
  256SOL    HW2 1023   1.265   2.909   2.917 -0.1983  0.6583 -0.4609
  256SOL     MW 1024   1.223   2.853   2.970  0.1679  0.2804 -0.2791
  257SOL     OW 1025   0.143   1.864   0.017  0.0454 -0.1712 -0.5394
  257SOL    HW1 1026   0.135   1.831   0.102 -1.8942 -0.8974  1.2310
  257SOL    HW2 1027   0.180   1.791  -0.032 -2.3100 -0.6468  1.1560
  257SOL     MW 1028   0.147   1.850   0.022 -0.5213 -0.3298 -0.0821
  258SOL     OW 1029   0.554   1.055   2.357 -0.5991 -0.5410  0.5867
  258SOL    HW1 1030   0.606   1.101   2.293 -1.6743 -0.1370  1.0772
  258SOL    HW2 1031   0.481   1.116   2.388 -0.5605  0.2396  0.7530
  258SOL     MW 1032   0.551   1.069   2.353 -0.7359 -0.3847  0.6734
  259SOL     OW 1033   0.606   0.383   2.526  0.1460 -0.2172  0.2111
  259SOL    HW1 1034   0.544   0.346   2.593 -4.6383 -0.1266  3.6064
  259SOL    HW2 1035   0.614   0.320   2.451 -2.2948 -0.6919 -0.9427
  259SOL     MW 1036   0.599   0.370   2.525 -0.8072 -0.2679  0.5069
  260SOL     OW 1037   0.594   0.160   1.607 -0.0434 -0.0623  0.2268
  260SOL    HW1 1038   0.536   0.208   1.538  1.2347  2.8494  0.8990
  260SOL    HW2 1039   0.684   0.173   1.580  0.4078  0.6592 -3.8627
  260SOL     MW 1040   0.598   0.168   1.594  0.1848  0.4171 -0.2241
  261SOL     OW 1041   1.043   0.658   2.088 -0.1201  0.0313  0.3465
  261SOL    HW1 1042   1.087   0.637   2.177 -1.2367  0.1651  2.1972
  261SOL    HW2 1043   1.113   0.632   2.025 -0.3930 -0.5815 -0.9644
  261SOL     MW 1044   1.058   0.652   2.091 -0.3034 -0.0319  0.4177
  262SOL     OW 1045   1.156   0.401   0.128 -0.2928 -0.0629  0.2185
  262SOL    HW1 1046   1.220   0.339   0.160 -1.1231 -0.6190  0.0358
  262SOL    HW2 1047   1.208   0.444   0.057  3.1159  1.7042  0.6679
  262SOL     MW 1048   1.171   0.398   0.123  0.0474  0.0969  0.2537
  263SOL     OW 1049   0.414   3.027   2.450 -0.2437 -0.7895  0.4036
  263SOL    HW1 1050   0.359   3.106   2.440  0.6545  0.6525 -1.5445
  263SOL    HW2 1051   0.474   3.014   2.379 -1.7700 -1.2217  2.1893
  263SOL     MW 1052   0.414   3.036   2.439 -0.3265 -0.6563  0.3822
  264SOL     OW 1053   1.437   1.346   1.982  0.3384 -0.4458  0.0531
  264SOL    HW1 1054   1.363   1.395   2.021  2.5067  0.4340  0.0609
  264SOL    HW2 1055   1.506   1.385   2.035  1.3440 -0.2580  1.1203
  264SOL     MW 1056   1.437   1.358   1.994  0.7572 -0.3049  0.1950
  265SOL     OW 1057   0.756   2.747   2.202 -0.1608  0.6444  0.1347
  265SOL    HW1 1058   0.752   2.655   2.164 -1.0377  0.1472 -1.9287
  265SOL    HW2 1059   0.752   2.739   2.300 -1.3609  0.9444  1.3103
  265SOL     MW 1060   0.755   2.733   2.210 -0.4348  0.6184  0.0176
  266SOL     OW 1061   0.855   0.783   2.268  0.5713  0.0073  0.6219
  266SOL    HW1 1062   0.918   0.757   2.201  0.5747 -0.1314  4.8093
  266SOL    HW2 1063   0.843   0.703   2.324  1.0642 -1.7017  0.4973
  266SOL     MW 1064   0.862   0.769   2.267  0.6368 -0.2365  1.1580
  267SOL     OW 1065   1.376   1.784   2.695 -0.1293  0.6489  0.3993
  267SOL    HW1 1066   1.453   1.765   2.644  0.3286  0.3269 -3.6252
  267SOL    HW2 1067   1.297   1.763   2.650  1.6783  0.6840 -1.4434
  267SOL     MW 1068   1.375   1.779   2.682  0.1696  0.6110 -0.3748
  268SOL     OW 1069   0.207   0.768   1.683 -0.4989  0.4540 -0.2881
  268SOL    HW1 1070   0.153   0.838   1.637 -3.0379  1.9484  0.2674
  268SOL    HW2 1071   0.229   0.694   1.623  0.4718 -3.1095 -1.6934
  268SOL     MW 1072   0.203   0.767   1.669 -0.7059  0.1810 -0.4002
  269SOL     OW 1073   1.346   1.952   2.458  0.3322 -0.0671 -0.1427
  269SOL    HW1 1074   1.363   1.922   2.547  0.7338  0.7377 -0.7753
  269SOL    HW2 1075   1.268   2.007   2.470  0.4082 -0.7602  0.3087
  269SOL     MW 1076   1.338   1.955   2.471  0.3952 -0.0523 -0.1666
  270SOL     OW 1077   1.195   0.475   1.648  0.2962  0.3363  0.1369
  270SOL    HW1 1078   1.168   0.388   1.667  0.2050  1.0523  1.4620
  270SOL    HW2 1079   1.292   0.460   1.625 -1.2877  0.2360 -0.5017
  270SOL     MW 1080   1.204   0.462   1.648  0.0752  0.4176  0.2274
  271SOL     OW 1081   0.919   0.015   2.503 -0.0384 -0.0839 -0.9326
  271SOL    HW1 1082   0.938   0.027   2.594  0.9279 -3.4195 -2.9437
  271SOL    HW2 1083   0.975   0.082   2.456 -2.2233  0.0035 -1.2377
  271SOL     MW 1084   0.929   0.026   2.508 -0.1991 -0.5125 -1.2382
  272SOL     OW 1085   1.355   2.980   2.781 -0.4323  0.3017 -0.6395
  272SOL    HW1 1086   1.319   3.020   2.700  0.2385  1.1089  4.7173
  272SOL    HW2 1087   1.381   3.064   2.830  2.9061 -0.9117 -1.1695
  272SOL     MW 1088   1.354   2.997   2.777  0.0967  0.2481 -0.0027
  273SOL     OW 1089   1.421   0.925   2.813  0.0204 -0.0944 -0.5117
  273SOL    HW1 1090   1.511   0.957   2.804 -0.3331  1.5947  1.0132
  273SOL    HW2 1091   1.367   0.998   2.857  1.7746 -0.7241 -2.6187
  273SOL     MW 1092   1.426   0.939   2.818  0.2052  0.0454 -0.5885
  274SOL     OW 1093   1.351   0.718   0.121  0.1126 -0.0239  0.1488
  274SOL    HW1 1094   1.399   0.641   0.146 -1.7614  1.6254 -0.8747
  274SOL    HW2 1095   1.263   0.699   0.165 -0.3344  1.0024 -0.1606
  274SOL     MW 1096   1.346   0.705   0.130 -0.1936  0.3291 -0.0271
  275SOL     OW 1097   1.670   0.611   1.766  0.3586 -0.1633  0.3012
  275SOL    HW1 1098   1.713   0.640   1.850  1.4211  2.1043  0.5100
  275SOL    HW2 1099   1.697   0.515   1.752 -1.6391 -0.3133 -1.2467
  275SOL     MW 1100   1.679   0.602   1.775  0.2352  0.1161  0.1245
  276SOL     OW 1101   0.141   1.182   1.828  0.1443 -0.1842  0.0962
  276SOL    HW1 1102   0.209   1.115   1.856  0.7120  1.3092  1.1234
  276SOL    HW2 1103   0.053   1.132   1.828 -0.2825 -0.7750 -2.1111
  276SOL     MW 1104   0.139   1.167   1.832  0.1629 -0.0651 -0.0595
  277SOL     OW 1105   1.907   1.357   2.711 -0.1408  0.2070  0.3660
  277SOL    HW1 1106   1.932   1.443   2.683 -1.4582 -2.2035  1.7829
  277SOL    HW2 1107   1.957   1.289   2.668 -1.8223  3.7043 -0.1849
  277SOL     MW 1108   1.917   1.359   2.702 -0.5365  0.3504  0.4803
  278SOL     OW 1109   1.395   0.717   1.759  0.4832  0.2158  0.2970
  278SOL    HW1 1110   1.333   0.660   1.807 -1.6050  1.6636  0.2488
  278SOL    HW2 1111   1.479   0.664   1.753  0.0507  2.7236 -1.5295
  278SOL     MW 1112   1.398   0.703   1.765  0.1506  0.7377  0.0497
  279SOL     OW 1113   0.607   3.030   2.257 -0.0677 -0.4889  0.3148
  279SOL    HW1 1114   0.699   3.045   2.235 -0.1007 -1.2623  0.2900
  279SOL    HW2 1115   0.566   3.120   2.259 -0.3973  0.9426 -1.2851
  279SOL     MW 1116   0.614   3.044   2.254 -0.1156 -0.4021  0.1004
  280SOL     OW 1117   1.418   1.147   2.297  0.4012  0.3297 -1.2410
  280SOL    HW1 1118   1.459   1.077   2.250 -0.0640  0.2851  1.8843
  280SOL    HW2 1119   1.435   1.132   2.393 -0.8225  1.4083  0.0503
  280SOL     MW 1120   1.426   1.136   2.303  0.1784  0.4661 -0.6583
  281SOL     OW 1121   1.322   1.355   2.715 -0.0041  0.2018  0.6902
  281SOL    HW1 1122   1.397   1.390   2.764  0.5333 -1.0822  2.0860
  281SOL    HW2 1123   1.316   1.268   2.753  0.9491 -1.1059  1.7398
  281SOL     MW 1124   1.331   1.348   2.726  0.1926 -0.1401  1.0129
  282SOL     OW 1125   1.159   1.330   1.732  0.3410 -0.1483  0.0332
  282SOL    HW1 1126   1.118   1.366   1.659 -0.9110 -1.7687  0.9917
  282SOL    HW2 1127   1.097   1.258   1.755  0.0541  0.3209 -1.7013
  282SOL     MW 1128   1.145   1.325   1.725  0.1379 -0.3002 -0.0692
  283SOL     OW 1129   0.715   1.211   0.084 -0.1537 -0.0737 -0.0356
  283SOL    HW1 1130   0.812   1.212   0.058  2.5558 -0.2270 -0.4491
  283SOL    HW2 1131   0.690   1.301   0.057 -1.6713 -1.3780  0.4358
  283SOL     MW 1132   0.724   1.223   0.077  0.0036 -0.2660 -0.0279
  284SOL     OW 1133   0.474   0.636   2.349 -0.0621 -0.1667  0.5093
  284SOL    HW1 1134   0.501   0.722   2.306  0.4695 -0.8632 -0.5727
  284SOL    HW2 1135   0.471   0.566   2.285 -1.8027  2.3051  1.0779
  284SOL     MW 1136   0.477   0.638   2.335 -0.2216  0.0675  0.4416
  285SOL     OW 1137   0.839   0.935   2.793  0.2259 -0.3375 -0.1074
  285SOL    HW1 1138   0.808   0.934   2.701 -1.8989 -1.2216  1.5838
  285SOL    HW2 1139   0.784   0.866   2.831  4.0793  1.7724 -3.4381
  285SOL     MW 1140   0.827   0.926   2.786  0.4540 -0.1758 -0.3237
  286SOL     OW 1141   1.123   1.471   2.580  0.4046  0.1672 -0.3632
  286SOL    HW1 1142   1.197   1.426   2.635  0.1038 -1.2972 -0.4306
  286SOL    HW2 1143   1.140   1.573   2.591 -2.9777 -0.3532  1.8866
  286SOL     MW 1144   1.135   1.478   2.588 -0.0814 -0.0946 -0.0752
  287SOL     OW 1145   1.095   0.939   0.386  0.1124  0.1968  0.2710
  287SOL    HW1 1146   1.180   0.972   0.418 -0.0338 -0.6885 -1.1755
  287SOL    HW2 1147   1.052   1.027   0.376  1.3523 -0.5338  0.0339
  287SOL     MW 1148   1.100   0.955   0.389  0.2567 -0.0164  0.0489
  288SOL     OW 1149   1.471   0.630   2.123  0.3224  0.2728  0.4326
  288SOL    HW1 1150   1.452   0.631   2.221 -0.5877 -0.0585  1.0140
  288SOL    HW2 1151   1.478   0.725   2.098 -0.9290  0.7524 -2.1683
  288SOL     MW 1152   1.470   0.643   2.132  0.0372  0.2924  0.1662
  289SOL     OW 1153   0.754   0.944   2.539  0.9834  0.4116  0.1137
  289SOL    HW1 1154   0.829   0.975   2.492  1.0562  2.5858 -3.0431
  289SOL    HW2 1155   0.679   0.998   2.517  0.5303  5.9021 -2.1028
  289SOL     MW 1156   0.754   0.955   2.530  0.9332  1.4229 -0.5952
  290SOL     OW 1157   0.858   0.680   1.568 -0.1315  0.6687 -0.2718
  290SOL    HW1 1158   0.890   0.597   1.528 -1.1739 -1.9182  1.6173
  290SOL    HW2 1159   0.918   0.678   1.644 -0.8818 -2.0777  0.3029
  290SOL     MW 1160   0.870   0.668   1.573 -0.3680 -0.0350  0.0533
  291SOL     OW 1161   0.266   0.362   0.226 -0.1908  0.2242  0.1061
  291SOL    HW1 1162   0.354   0.320   0.206 -0.6103  2.2413  0.5309
  291SOL    HW2 1163   0.203   0.301   0.192  2.1120 -0.0578 -0.7865
  291SOL     MW 1164   0.269   0.348   0.219  0.0576  0.4531  0.0444
  292SOL     OW 1165   0.912   0.533   0.079  0.1561  0.0878  0.1578
  292SOL    HW1 1166   0.967   0.609   0.108 -0.3004 -0.6523  2.0596
  292SOL    HW2 1167   0.974   0.462   0.100 -1.4111  1.6477  0.7081
  292SOL     MW 1168   0.928   0.534   0.086 -0.1109  0.1960  0.4813
  293SOL     OW 1169   0.229   0.115   2.436  0.0004 -0.4281 -0.2473
  293SOL    HW1 1170   0.146   0.066   2.415 -0.3026 -0.4408 -1.8626
  293SOL    HW2 1171   0.199   0.198   2.463  2.4227  0.3942 -1.6862
  293SOL     MW 1172   0.214   0.119   2.437  0.2800 -0.3213 -0.6503
  294SOL     OW 1173   1.427   0.593   2.397  0.3289  0.2482  0.4266
  294SOL    HW1 1174   1.470   0.677   2.423  0.7434 -0.6838  1.4551
  294SOL    HW2 1175   1.472   0.511   2.434  2.1544  2.3699 -0.0444
  294SOL     MW 1176   1.439   0.593   2.405  0.6244  0.4051  0.5001
  295SOL     OW 1177   0.813   0.589   2.437 -0.3030 -0.1362  0.4387
  295SOL    HW1 1178   0.737   0.533   2.446  1.1060  1.1600 -3.1136
  295SOL    HW2 1179   0.811   0.652   2.513  1.6254 -0.4165 -3.3461
  295SOL     MW 1180   0.803   0.590   2.448  0.1374 -0.0022 -0.5294
  296SOL     OW 1181   1.272   0.276   2.045  0.0887  0.1913 -0.3079
  296SOL    HW1 1182   1.358   0.244   2.021 -0.6397 -0.4553  3.1741
  296SOL    HW2 1183   1.270   0.260   2.137  0.8167 -2.9672 -2.7421
  296SOL     MW 1184   1.283   0.270   2.054  0.0887 -0.3108 -0.1696
  297SOL     OW 1185   1.451   0.438   1.546 -0.4628  0.4872 -0.3034
  297SOL    HW1 1186   1.533   0.491   1.555 -0.4259 -0.2993 -1.4573
  297SOL    HW2 1187   1.475   0.339   1.553 -0.0905  0.9578 -0.2150
  297SOL     MW 1188   1.465   0.432   1.548 -0.4088  0.4455 -0.4439
  298SOL     OW 1189   1.496   0.949   2.111  0.1975  0.8433 -0.3275
  298SOL    HW1 1190   1.484   0.982   2.020  1.3747 -0.0288 -1.0884
  298SOL    HW2 1191   1.588   0.947   2.135  0.6160 -1.8070  0.2155
  298SOL     MW 1192   1.507   0.953   2.102  0.4081  0.3786 -0.3563
  299SOL     OW 1193   0.585   1.007   3.043 -0.6330 -0.5747 -0.7349
  299SOL    HW1 1194   0.644   1.063   3.092  2.4711  2.4362 -1.2703
  299SOL    HW2 1195   0.576   1.048   2.954 -4.5607 -3.0682  1.9742
  299SOL     MW 1196   0.591   1.020   3.038 -0.7417 -0.5065 -0.4481
  300SOL     OW 1197   1.193   1.033   2.551 -0.1436  0.0460  0.0821
  300SOL    HW1 1198   1.185   1.074   2.461 -2.6373  1.6459 -2.4526
  300SOL    HW2 1199   1.136   0.961   2.568  0.5657  1.4685  0.8144
  300SOL     MW 1200   1.184   1.029   2.541 -0.3790  0.4448 -0.1557
  301SOL     OW 1201   1.374   0.724   0.528 -0.0891 -0.3086 -0.3903
  301SOL    HW1 1202   1.394   0.691   0.616 -1.2719 -2.1227  0.6843
  301SOL    HW2 1203   1.297   0.670   0.490  1.4193  0.2369  1.7594
  301SOL     MW 1204   1.367   0.713   0.535 -0.0462 -0.4760  0.0351
  302SOL     OW 1205   0.123   1.457   2.010  0.0884  0.1186 -0.6514
  302SOL    HW1 1206   0.113   1.395   2.085  0.5217  2.5696  1.8233
  302SOL    HW2 1207   0.073   1.539   2.030 -0.1925  2.0873 -3.2514
  302SOL     MW 1208   0.115   1.460   2.023  0.1085  0.7017 -0.6679
  303SOL     OW 1209   0.466   1.803   2.664  0.0172  0.2884  0.1276
  303SOL    HW1 1210   0.464   1.827   2.568  0.3815  2.4201 -1.8193
  303SOL    HW2 1211   0.370   1.817   2.677 -1.2187 -0.5477  2.0588
  303SOL     MW 1212   0.453   1.808   2.653 -0.0978  0.4593  0.1255
  304SOL     OW 1213   0.489   1.952   2.432  0.8599 -0.2194 -0.3014
  304SOL    HW1 1214   0.518   2.041   2.407 -2.5069  1.5356 -0.7231
  304SOL    HW2 1215   0.553   1.892   2.397 -2.1035  0.2969  0.3365
  304SOL     MW 1216   0.501   1.956   2.424  0.0247  0.0803 -0.2728
  305SOL     OW 1217   1.175   0.560   0.462  0.4118 -0.1465  0.0929
  305SOL    HW1 1218   1.087   0.544   0.480 -1.2812 -1.3932 -1.2522
  305SOL    HW2 1219   1.207   0.468   0.454  1.2189  0.1768  1.3496
  305SOL     MW 1220   1.167   0.546   0.463  0.2949 -0.2683  0.0812
  306SOL     OW 1221   1.228   1.454   0.265 -0.5850 -0.7072  0.0916
  306SOL    HW1 1222   1.279   1.406   0.326  0.0915  0.1656 -0.5509
  306SOL    HW2 1223   1.286   1.480   0.187 -0.1996 -0.0497  1.6880
  306SOL     MW 1224   1.242   1.451   0.263 -0.4449 -0.5053  0.2175
  307SOL     OW 1225   1.296   0.533   1.939  0.8125  0.1011 -0.0636
  307SOL    HW1 1226   1.286   0.444   1.976 -1.5150  0.4907  3.7329
  307SOL    HW2 1227   1.362   0.574   1.996  1.0703 -1.9858  1.9523
  307SOL     MW 1228   1.303   0.527   1.952  0.5394 -0.1228  0.7033
  308SOL     OW 1229   2.108   0.562   2.756  0.3729  0.1659 -0.2504
  308SOL    HW1 1230   2.052   0.473   2.729  0.5323 -1.7428  3.0000
  308SOL    HW2 1231   2.204   0.548   2.738  2.3159  0.5585 -0.1060
  308SOL     MW 1232   2.113   0.548   2.750  0.6503 -0.0342  0.1975
  309SOL     OW 1233   0.534   0.494   0.372  0.3783 -0.2281 -0.0943
  309SOL    HW1 1234   0.594   0.421   0.397  2.2040  1.4982 -1.1864
  309SOL    HW2 1235   0.564   0.516   0.284 -1.1339 -1.0244  0.2245
  309SOL     MW 1236   0.546   0.488   0.363  0.4197 -0.1054 -0.1963
  310SOL     OW 1237   0.404   0.514   1.898 -0.5786  0.3644  0.1411
  310SOL    HW1 1238   0.475   0.466   1.861  1.5566 -0.1701 -0.1718
  310SOL    HW2 1239   0.442   0.598   1.886  0.2507 -2.4666 -1.3852
  310SOL     MW 1240   0.419   0.519   1.892 -0.1874 -0.0797 -0.1015
  311SOL     OW 1241   1.839   0.806   1.925 -0.4816 -0.6304  0.0046
  311SOL    HW1 1242   1.824   0.814   2.019 -3.5515 -0.4799 -0.3586
  311SOL    HW2 1243   1.901   0.742   1.916 -1.0316 -0.8260  1.7609
  311SOL     MW 1244   1.845   0.799   1.936 -0.9592 -0.6363  0.1884
  312SOL     OW 1245   1.744   2.655   0.015  0.4178  0.3786 -0.5929
  312SOL    HW1 1246   1.812   2.643   0.077  0.2680  0.3359 -0.5637
  312SOL    HW2 1247   1.667   2.601   0.051  2.7054 -1.2760  1.1054
  312SOL     MW 1248   1.743   2.647   0.028  0.6999  0.1547 -0.3650
  313SOL     OW 1249   0.152   1.162   2.879 -0.0342  0.0750  0.4117
  313SOL    HW1 1250   0.216   1.152   2.956  0.7882  2.9059  2.6162
  313SOL    HW2 1251   0.185   1.215   2.804 -0.7563  0.7402 -1.7853
  313SOL     MW 1252   0.165   1.168   2.880 -0.0209  0.5363  0.4127
  314SOL     OW 1253   2.129   3.010   2.994  0.2442 -0.0170 -0.5850
  314SOL    HW1 1254   2.080   3.046   2.915 -0.8500  0.4747  0.1914
  314SOL    HW2 1255   2.152   3.104   3.037 -1.6276  3.9166  0.2487
  314SOL     MW 1256   2.126   3.027   2.989 -0.1471  0.5669 -0.3726
  315SOL     OW 1257   1.575   1.989   3.012 -0.1229  0.1516 -0.0704
  315SOL    HW1 1258   1.482   2.004   3.046 -1.0129  1.2461 -0.2855
  315SOL    HW2 1259   1.600   2.050   2.941 -0.9550 -1.2414  1.9201
  315SOL     MW 1260   1.566   1.999   3.007 -0.3501  0.1122  0.1638
  316SOL     OW 1261   1.207   0.596   2.736 -0.2882  0.4646 -0.7378
  316SOL    HW1 1262   1.300   0.571   2.731  0.0922 -0.5770 -1.7282
  316SOL    HW2 1263   1.205   0.653   2.813  2.8152  2.0879  0.2236
  316SOL     MW 1264   1.219   0.600   2.745  0.1714  0.5414 -0.7416
  317SOL     OW 1265   0.681   1.367   2.639  0.0166 -0.6486 -0.6904
  317SOL    HW1 1266   0.729   1.319   2.706 -1.2998 -1.0923 -2.5843
  317SOL    HW2 1267   0.741   1.357   2.559  2.7374  1.6464 -1.9667
  317SOL     MW 1268   0.695   1.359   2.637  0.2019 -0.4044 -1.1087
  318SOL     OW 1269   1.317   0.452   2.980 -0.3250 -0.2039 -0.4321
  318SOL    HW1 1270   1.223   0.463   2.952  1.6199  1.0948 -1.9679
  318SOL    HW2 1271   1.366   0.494   2.907  1.2293 -1.4224 -1.1400
  318SOL     MW 1272   1.311   0.459   2.967  0.1367 -0.1933 -0.7282
  319SOL     OW 1273   0.792   0.407   2.760 -0.4940  0.7142 -0.3103
  319SOL    HW1 1274   0.733   0.383   2.690  3.0615 -3.4620 -1.2387
  319SOL    HW2 1275   0.745   0.367   2.833 -0.5469  1.3692 -0.6818
  319SOL     MW 1276   0.778   0.398   2.760 -0.0319  0.2496 -0.4818
  320SOL     OW 1277   1.007   1.342   2.055 -0.0384 -0.6589 -0.1798
  320SOL    HW1 1278   1.055   1.281   2.110  0.7667 -0.6245  2.3484
  320SOL    HW2 1279   1.075   1.395   2.015  0.1329 -1.2858 -1.0704
  320SOL     MW 1280   1.022   1.341   2.057  0.0904 -0.7371  0.0363
  321SOL     OW 1281   1.039   0.983   2.956  0.2084  0.2392  0.1587
  321SOL    HW1 1282   0.969   0.946   2.887  1.9328 -1.1869  2.0450
  321SOL    HW2 1283   1.099   0.909   2.961  0.4056  0.1778 -0.6333
  321SOL     MW 1284   1.037   0.968   2.948  0.4619  0.0430  0.3031
  322SOL     OW 1285   1.196   0.903   1.713  0.0690  0.5951 -0.2580
  322SOL    HW1 1286   1.288   0.860   1.721  0.2534 -0.0121  0.0721
  322SOL    HW2 1287   1.172   0.935   1.800  1.8363  1.1061  0.6229
  322SOL     MW 1288   1.205   0.901   1.726  0.3265  0.5824 -0.0982
  323SOL     OW 1289   1.157   1.521   1.922  0.4623 -0.5852 -0.0204
  323SOL    HW1 1290   1.162   1.447   1.853 -1.4260  2.1606 -0.6805
  323SOL    HW2 1291   1.112   1.601   1.891  0.3033  0.6493  0.3294
  323SOL     MW 1292   1.151   1.522   1.908  0.1922 -0.0600 -0.0614
  324SOL     OW 1293   1.469   1.073   2.544 -0.3558 -0.3329  0.7070
  324SOL    HW1 1294   1.384   1.064   2.586  4.4316 -0.8701 -0.0756
  324SOL    HW2 1295   1.526   1.098   2.615  1.2794 -0.6880 -0.2773
  324SOL     MW 1296   1.466   1.075   2.559  0.4916 -0.4507  0.4739
  325SOL     OW 1297   1.006   0.433   2.947 -0.3336  0.1816 -0.6283
  325SOL    HW1 1298   0.958   0.485   3.023 -2.3266  1.3988 -0.7458
  325SOL    HW2 1299   0.937   0.424   2.878 -2.3308 -0.8437 -0.6415
  325SOL     MW 1300   0.991   0.439   2.948 -0.8600  0.2069 -0.6456
  326SOL     OW 1301   0.430   1.306   2.166  0.1875  0.6092 -0.5515
  326SOL    HW1 1302   0.472   1.275   2.087 -0.7370  3.9166 -2.1141
  326SOL    HW2 1303   0.446   1.398   2.157 -1.3709 -0.8855 -0.1940
  326SOL     MW 1304   0.438   1.314   2.155 -0.1401  0.8484 -0.7105
  327SOL     OW 1305   1.922   0.904   2.418 -0.7791 -1.1153  0.3320
  327SOL    HW1 1306   1.899   0.829   2.472 -1.7137  0.3740 -0.5989
  327SOL    HW2 1307   2.022   0.896   2.403  0.1660  1.8808 -0.7263
  327SOL     MW 1308   1.932   0.893   2.424 -0.7777 -0.5235  0.0695
  328SOL     OW 1309   0.118   1.229   2.137  0.0715  0.3937  0.3425
  328SOL    HW1 1310   0.133   1.216   2.040  0.0842 -1.0566 -0.1475
  328SOL    HW2 1311   0.202   1.219   2.188  0.4096  1.3009  1.5568
  328SOL     MW 1312   0.131   1.226   2.131  0.1178  0.3221  0.4381
  329SOL     OW 1313   0.128   0.150   1.453 -0.7064  0.2688 -0.0366
  329SOL    HW1 1314   0.108   0.145   1.551 -1.0435  1.3447  1.1548
  329SOL    HW2 1315   0.227   0.173   1.444 -0.1013  1.9764  2.0588
  329SOL     MW 1316   0.139   0.152   1.465 -0.6710  0.6361  0.3971
  330SOL     OW 1317   0.417   2.976   2.059 -0.3294  0.2771 -0.4427
  330SOL    HW1 1318   0.489   2.989   2.129 -0.3136 -2.1813 -0.8075
  330SOL    HW2 1319   0.354   2.920   2.106 -1.7433 -0.3016  0.3251
  330SOL     MW 1320   0.418   2.970   2.074 -0.5139 -0.1236 -0.3895
  331SOL     OW 1321   0.722   1.194   2.188 -0.0552 -0.0354  0.0792
  331SOL    HW1 1322   0.665   1.199   2.107  1.2457  0.6110 -2.6766
  331SOL    HW2 1323   0.737   1.282   2.225  2.1550 -2.7325  3.8825
  331SOL     MW 1324   0.716   1.206   2.182  0.4080 -0.3060  0.2174
  332SOL     OW 1325   1.341   1.757   2.983  0.5403  0.0495 -0.3269
  332SOL    HW1 1326   1.379   1.765   2.896  2.7421  1.1022 -2.6877
  332SOL    HW2 1327   1.325   1.848   3.001  1.2839  0.4776 -2.6590
  332SOL     MW 1328   1.344   1.770   2.974  0.9289  0.2449 -0.9460
  333SOL     OW 1329   1.746   1.483   3.037 -0.2999 -0.2334  0.3948
  333SOL    HW1 1330   1.839   1.494   3.021  1.3992  0.4500 -0.6598
  333SOL    HW2 1331   1.731   1.397   3.077 -2.4372 -0.2215  1.0616
  333SOL     MW 1332   1.756   1.474   3.040 -0.3577 -0.1417  0.3436
  334SOL     OW 1333   1.203   0.025   2.605 -0.3583 -0.0860 -0.3796
  334SOL    HW1 1334   1.144   0.016   2.678 -0.3449  0.2288  0.1893
  334SOL    HW2 1335   1.255   0.104   2.625  0.6712 -2.2058  0.4847
  334SOL     MW 1336   1.202   0.034   2.617 -0.2207 -0.3242 -0.1905
  335SOL     OW 1337   1.247   0.777   2.949  0.3584  0.4067 -0.5134
  335SOL    HW1 1338   1.268   0.779   3.048  1.7956 -1.3557  0.6791
  335SOL    HW2 1339   1.313   0.835   2.902  0.9131  0.3173 -1.1853
  335SOL     MW 1340   1.259   0.785   2.956  0.6212  0.1624 -0.4447
  336SOL     OW 1341   0.985   1.157   1.839 -0.7175 -0.9362 -0.1839
  336SOL    HW1 1342   0.978   1.216   1.913  0.8713 -1.9158  2.6343
  336SOL    HW2 1343   1.014   1.072   1.878 -0.6034  3.2280 -0.3162
  336SOL     MW 1344   0.988   1.153   1.854 -0.4928 -0.5160  0.1705
  337SOL     OW 1345   0.659   1.781   2.850  0.0758 -0.4813  0.0015
  337SOL    HW1 1346   0.582   1.794   2.788 -2.8333  0.9614  1.7616
  337SOL    HW2 1347   0.708   1.709   2.820 -4.4304  0.5121  1.1186
  337SOL     MW 1348   0.656   1.773   2.838 -0.9026 -0.1599  0.3812
  338SOL     OW 1349   1.056   0.792   2.622 -0.0270  0.3437 -0.4755
  338SOL    HW1 1350   0.996   0.805   2.695 -2.4874  1.6681  2.5697
  338SOL    HW2 1351   1.106   0.712   2.647  1.2784  2.0914 -2.3158
  338SOL     MW 1352   1.055   0.783   2.635 -0.1794  0.7490 -0.3165
  339SOL     OW 1353   1.409   1.074   1.884 -0.1822  0.0482 -0.2868
  339SOL    HW1 1354   1.385   1.113   1.799  0.6615  0.6395  0.4742
  339SOL    HW2 1355   1.422   1.150   1.932 -0.1426  1.1137  1.7665
  339SOL     MW 1356   1.408   1.089   1.879 -0.0656  0.2668  0.0845
  340SOL     OW 1357   1.400   1.509   0.051 -0.2318 -0.0781  0.3254
  340SOL    HW1 1358   1.384   1.582  -0.011 -0.8530 -2.7426  1.2214
  340SOL    HW2 1359   1.482   1.534   0.090 -0.4947  0.3614 -0.0139
  340SOL     MW 1360   1.409   1.522   0.048 -0.3485 -0.3717  0.3989
  341SOL     OW 1361   0.220   1.329   2.660  0.1702 -0.9588  0.0831
  341SOL    HW1 1362   0.286   1.383   2.694 -1.4883 -3.0466 -0.7531
  341SOL    HW2 1363   0.193   1.371   2.577  2.2768  0.2527  0.3597
  341SOL     MW 1364   0.225   1.342   2.654  0.2294 -1.0744  0.0093
  342SOL     OW 1365   1.409   0.270   0.056 -0.1044 -0.4927 -0.0730
  342SOL    HW1 1366   1.453   0.340   0.105 -1.8924  0.8879 -0.1499
  342SOL    HW2 1367   1.376   0.327  -0.010  0.2629 -2.0445  0.0423
  342SOL     MW 1368   1.410   0.286   0.053 -0.2919 -0.5153 -0.0680
  343SOL     OW 1369   0.247   0.308   2.226  0.1418 -0.5486  0.8821
  343SOL    HW1 1370   0.246   0.236   2.284  1.7161  1.4168  0.4552
  343SOL    HW2 1371   0.192   0.276   2.156 -1.7122 -0.3707  0.6125
  343SOL     MW 1372   0.240   0.295   2.224  0.1049 -0.2658  0.7902
  344SOL     OW 1373   1.707   2.172   0.073 -0.2022  0.0722 -0.4796
  344SOL    HW1 1374   1.737   2.229  -0.008 -1.5991  2.9447  0.5964
  344SOL    HW2 1375   1.675   2.090   0.042  1.1649 -0.1410  0.9974
  344SOL     MW 1376   1.707   2.169   0.058 -0.2061  0.4231 -0.1428
  345SOL     OW 1377   0.631   1.561   2.339  0.5007 -0.0208  0.0957
  345SOL    HW1 1378   0.544   1.563   2.294 -1.5101 -0.6059  0.4979
  345SOL    HW2 1379   0.701   1.533   2.271  1.4116 -0.2175  0.4731
  345SOL     MW 1380   0.629   1.558   2.324  0.3556 -0.1240  0.1986
  346SOL     OW 1381   1.702   1.020   3.080 -0.7951 -0.5468  0.6077
  346SOL    HW1 1382   1.796   1.026   3.062 -0.4740  0.6115 -1.4768
  346SOL    HW2 1383   1.694   0.965   3.157 -1.4256  0.6588 -0.9224
  346SOL     MW 1384   1.713   1.013   3.088 -0.8359 -0.2349  0.1308
  347SOL     OW 1385   1.136   0.676   2.337  0.0884 -0.2847 -0.5031
  347SOL    HW1 1386   1.211   0.626   2.365 -2.0348 -2.1095 -0.8728
  347SOL    HW2 1387   1.082   0.695   2.407  0.2178  3.0848  1.2482
  347SOL     MW 1388   1.139   0.672   2.350 -0.1746 -0.0809 -0.3208
  348SOL     OW 1389   1.313   2.633   1.866 -0.1880  0.6201  0.3189
  348SOL    HW1 1390   1.352   2.541   1.889  1.0024 -2.6372  1.7564
  348SOL    HW2 1391   1.325   2.685   1.943  0.3341  0.4555 -0.5977
  348SOL     MW 1392   1.319   2.628   1.879  0.0379  0.1686  0.3876
  349SOL     OW 1393   1.321   0.271   2.691 -0.3103 -0.2425 -0.3799
  349SOL    HW1 1394   1.262   0.296   2.759  1.1554 -0.6281  1.4109
  349SOL    HW2 1395   1.396   0.228   2.735  0.9616 -2.3483 -0.6065
  349SOL     MW 1396   1.323   0.268   2.706  0.0509 -0.5712 -0.1735
  350SOL     OW 1397   1.928   0.688   2.610 -0.3501  0.2086  0.6701
  350SOL    HW1 1398   1.922   0.602   2.564  1.7335  0.1196  0.9411
  350SOL    HW2 1399   2.004   0.668   2.666  0.6279  2.9609  1.0100
  350SOL     MW 1400   1.937   0.674   2.611  0.0538  0.5600  0.7507
  351SOL     OW 1401   0.092   0.971   1.526 -0.3857  0.3584  0.1922
  351SOL    HW1 1402   0.020   1.016   1.581  0.9413 -0.4312 -0.7662
  351SOL    HW2 1403   0.173   1.021   1.547  0.7789  1.8359  3.0557
  351SOL     MW 1404   0.093   0.984   1.536 -0.0569  0.4492  0.4436
  352SOL     OW 1405   0.815   1.591   2.704  0.4396  0.1768  0.1046
  352SOL    HW1 1406   0.871   1.546   2.767 -2.6901 -1.2809  0.3298
  352SOL    HW2 1407   0.769   1.519   2.666  1.4634  2.3925 -1.2891
  352SOL     MW 1408   0.816   1.576   2.707  0.1617  0.2768 -0.0496
  353SOL     OW 1409   3.054   2.451   2.788 -0.3648 -0.0398 -0.3389
  353SOL    HW1 1410   3.135   2.426   2.740 -3.7589  1.5560  1.1726
  353SOL    HW2 1411   3.012   2.523   2.742 -0.0505  1.9530  1.6598
  353SOL     MW 1412   3.059   2.458   2.775 -0.7711  0.4336  0.1242
  354SOL     OW 1413   0.293   2.473   0.862  0.5969  0.0701  0.5240
  354SOL    HW1 1414   0.342   2.455   0.943  0.5292 -1.7979  4.1119
  354SOL    HW2 1415   0.203   2.433   0.876  2.0753  0.9131  0.7656
  354SOL     MW 1416   0.287   2.465   0.875  0.7830 -0.0651  1.0293
  355SOL     OW 1417   0.045   2.227   0.353  0.4555  0.6765 -0.2481
  355SOL    HW1 1418  -0.031   2.172   0.378 -1.4341 -2.6029 -2.1065
  355SOL    HW2 1419   0.048   2.300   0.413  2.8570  0.2246 -1.0945
  355SOL     MW 1420   0.035   2.229   0.364  0.5230  0.1842 -0.6050
  356SOL     OW 1421   0.730   2.925   1.019  0.1336  0.4029 -0.9228
  356SOL    HW1 1422   0.804   2.904   0.961  1.3820 -0.4730 -0.4350
  356SOL    HW2 1423   0.660   2.866   0.987 -1.2711 -2.4862 -0.4701
  356SOL     MW 1424   0.730   2.914   1.007  0.1130 -0.0939 -0.7987
  357SOL     OW 1425   1.781   2.997   0.385 -0.0594  0.3611 -0.2349
  357SOL    HW1 1426   1.747   2.921   0.439 -1.4187 -0.5235  3.0653
  357SOL    HW2 1427   1.868   2.976   0.366 -3.4129  0.6171  0.3574
  357SOL     MW 1428   1.788   2.984   0.389 -0.6812  0.2782  0.2787
  358SOL     OW 1429   0.494   0.146   1.010 -0.0088  0.0095 -0.1387
  358SOL    HW1 1430   0.564   0.134   0.952 -1.3622 -0.8977  0.8014
  358SOL    HW2 1431   0.435   0.214   0.970 -1.8430 -0.3242 -0.7935
  358SOL     MW 1432   0.495   0.153   0.997 -0.4294 -0.1543 -0.1011
  359SOL     OW 1433   0.891   2.754   1.930 -0.2178 -0.7953 -0.4436
  359SOL    HW1 1434   0.879   2.727   2.019  1.9951 -1.9348  2.4502
  359SOL    HW2 1435   0.960   2.690   1.900 -0.3016  1.4822  2.5215
  359SOL     MW 1436   0.899   2.742   1.938  0.0631 -0.6452  0.3294
  360SOL     OW 1437   0.529   2.768   0.936 -0.4187 -0.6418  0.3914
  360SOL    HW1 1438   0.551   2.698   0.874 -0.5991  1.3266  2.3839
  360SOL    HW2 1439   0.541   2.722   1.020 -0.0268 -1.3035 -1.2807
  360SOL     MW 1440   0.533   2.753   0.939 -0.3908 -0.4694  0.4337
  361SOL     OW 1441   0.176   2.716   1.366  0.0088  0.5407  0.3287
  361SOL    HW1 1442   0.176   2.790   1.416  1.9231 -2.2630 -1.7062
  361SOL    HW2 1443   0.262   2.685   1.384 -1.7372 -3.1248 -0.9076
  361SOL     MW 1444   0.188   2.722   1.375  0.0310 -0.3129 -0.1029
  362SOL     OW 1445   1.458   2.444   0.620 -0.0465 -0.6159  0.1562
  362SOL    HW1 1446   1.466   2.354   0.641 -1.8944 -0.1947 -0.1870
  362SOL    HW2 1447   1.438   2.500   0.696  0.5131  0.1590 -2.2334
  362SOL     MW 1448   1.456   2.439   0.633 -0.2165 -0.4581 -0.2043
  363SOL     OW 1449   0.279   0.013   0.685  0.2238 -0.6260  0.3981
  363SOL    HW1 1450   0.257  -0.067   0.746  2.4839 -1.3032  1.6845
  363SOL    HW2 1451   0.209   0.034   0.621  0.0272  1.6421  0.4691
  363SOL     MW 1452   0.267   0.005   0.685  0.4961 -0.4161  0.5772
  364SOL     OW 1453   0.756   0.174   0.246 -0.3623  0.0625  0.2711
  364SOL    HW1 1454   0.717   0.084   0.254 -1.6009 -0.1210 -3.7102
  364SOL    HW2 1455   0.687   0.224   0.205  0.6700 -0.9279  1.0633
  364SOL     MW 1456   0.742   0.169   0.242 -0.3895 -0.0924 -0.1497
  365SOL     OW 1457   1.030   1.994   1.141 -0.0110  0.7326 -0.1084
  365SOL    HW1 1458   1.026   2.089   1.132  4.2280  0.0922  1.7255
  365SOL    HW2 1459   0.953   1.963   1.087 -2.1061 -2.7096 -0.2016
  365SOL     MW 1460   1.019   2.002   1.133  0.2719  0.1939  0.1213
  366SOL     OW 1461   2.867   2.626   1.002 -0.1805 -0.2848 -0.3786
  366SOL    HW1 1462   2.933   2.655   1.068 -3.9594  0.0789 -2.4794
  366SOL    HW2 1463   2.875   2.682   0.924  2.2710 -0.3414 -0.8162
  366SOL     MW 1464   2.877   2.638   1.001 -0.3556 -0.2443 -0.7135
  367SOL     OW 1465   1.252   2.930   0.790 -0.4534 -0.0029  0.7075
  367SOL    HW1 1466   1.196   2.986   0.842  1.6684 -0.2531 -0.3832
  367SOL    HW2 1467   1.205   2.847   0.768  2.7423  0.2204  2.8378
  367SOL     MW 1468   1.238   2.926   0.794  0.2482 -0.0064  0.8447
  368SOL     OW 1469   1.723   0.480   0.683  0.4392 -0.3057 -0.5215
  368SOL    HW1 1470   1.789   0.410   0.675  2.8857 -0.3206  0.4622
  368SOL    HW2 1471   1.775   0.555   0.681 -1.8852 -3.5394  1.2528
  368SOL     MW 1472   1.738   0.480   0.682  0.4553 -0.7343 -0.1576
  369SOL     OW 1473   0.133   2.462   1.727  0.0822 -0.0147  0.2541
  369SOL    HW1 1474   0.213   2.418   1.764  0.0590 -0.5287 -0.9571
  369SOL    HW2 1475   0.116   2.539   1.787  1.1740  1.1440 -2.4528
  369SOL     MW 1476   0.141   2.466   1.740  0.2232  0.0704 -0.2628
  370SOL     OW 1477   0.725   0.061   0.879  0.5528  0.5822 -0.2333
  370SOL    HW1 1478   0.765   0.142   0.913  1.2950  0.9038  0.1478
  370SOL    HW2 1479   0.722  -0.005   0.958  1.7195  1.5744  1.6284
  370SOL     MW 1480   0.730   0.063   0.894  0.8047  0.7555  0.0626
  371SOL     OW 1481   1.386   2.991   1.439  0.4574 -0.1944  0.2457
  371SOL    HW1 1482   1.357   2.899   1.421 -1.3644 -2.0912 -4.1800
  371SOL    HW2 1483   1.340   3.037   1.366 -2.3667 -2.6032 -1.7368
  371SOL     MW 1484   1.376   2.985   1.427 -0.1555 -0.7625 -0.5998
  372SOL     OW 1485   0.773   2.308   0.480 -0.0530 -0.5483 -0.1967
  372SOL    HW1 1486   0.749   2.217   0.501 -2.9292  1.8873 -3.0379
  372SOL    HW2 1487   0.788   2.325   0.385  2.1510 -1.5374 -0.0268
  372SOL     MW 1488   0.772   2.298   0.470 -0.1417 -0.3574 -0.5491
  373SOL     OW 1489   2.831   2.968   1.431  0.1043 -0.3747  0.5860
  373SOL    HW1 1490   2.880   2.980   1.345 -0.2404 -0.6508 -2.5426
  373SOL    HW2 1491   2.758   3.031   1.407 -1.7909 -0.8503  2.4860
  373SOL     MW 1492   2.828   2.978   1.417 -0.1913 -0.4738  0.4239
  374SOL     OW 1493   1.532   0.458   0.184 -0.1606  0.0200  0.2259
  374SOL    HW1 1494   1.590   0.514   0.141 -2.4092  0.3818  0.3480
  374SOL    HW2 1495   1.567   0.434   0.268 -1.3528  0.9880  4.6991
  374SOL     MW 1496   1.544   0.462   0.189 -0.6146  0.1955  0.8322
  375SOL     OW 1497   1.102   2.109   2.262 -0.0502  0.1117 -0.4553
  375SOL    HW1 1498   1.107   2.135   2.354 -0.5563 -1.0999  0.4187
  375SOL    HW2 1499   1.096   2.013   2.253  1.6347 -1.3506 -0.3840
  375SOL     MW 1500   1.102   2.100   2.273  0.1053 -0.2411 -0.3305
  376SOL     OW 1501   0.667   2.554   0.122 -0.0265 -0.7343  0.3122
  376SOL    HW1 1502   0.723   2.485   0.158 -0.5723 -0.6249 -0.8040
  376SOL    HW2 1503   0.614   2.512   0.056 -1.8885 -0.8083 -0.2744
  376SOL     MW 1504   0.667   2.539   0.118 -0.3442 -0.7296  0.0875
  377SOL     OW 1505   1.297   2.034   0.900  0.2214  0.0024  0.5914
  377SOL    HW1 1506   1.233   2.000   0.841 -0.4491 -1.3840  0.4283
  377SOL    HW2 1507   1.297   1.968   0.967 -2.4558  2.0221 -0.3161
  377SOL     MW 1508   1.289   2.021   0.901 -0.2203  0.0860  0.4502
  378SOL     OW 1509   0.976   2.865   1.486 -0.0002  0.0435  0.0853
  378SOL    HW1 1510   0.942   2.784   1.529 -0.6558 -0.3476  0.2569
  378SOL    HW2 1511   0.931   2.855   1.403 -0.8671  1.1915 -0.8525
  378SOL     MW 1512   0.965   2.853   1.481 -0.2011  0.1434 -0.0158
  379SOL     OW 1513   1.076   1.839   2.269 -0.0429 -0.0980 -0.7948
  379SOL    HW1 1514   0.984   1.825   2.293 -1.2734 -0.4086  1.2740
  379SOL    HW2 1515   1.097   1.752   2.224  0.6971  0.4401  1.1058
  379SOL     MW 1516   1.067   1.826   2.266 -0.1077 -0.0680 -0.2711
  380SOL     OW 1517   0.926   0.204   1.477  0.1640  0.3776 -0.4577
  380SOL    HW1 1518   0.959   0.147   1.407  0.2559  0.7283  2.1979
  380SOL    HW2 1519   0.989   0.207   1.547  0.7366 -1.0520  0.5417
  380SOL     MW 1520   0.939   0.197   1.477  0.2517  0.2353  0.0245
  381SOL     OW 1521   0.814   1.999   0.807  0.4738 -0.2829  0.5579
  381SOL    HW1 1522   0.901   1.971   0.770 -1.0063 -0.4987 -0.7233
  381SOL    HW2 1523   0.851   2.083   0.849  1.5388  0.6856  0.3020
  381SOL     MW 1524   0.831   2.006   0.808  0.4190 -0.1836  0.3551
  382SOL     OW 1525   0.654   0.030   0.618 -0.3288  0.4968 -0.1742
  382SOL    HW1 1526   0.643   0.040   0.708  0.0244 -2.2720  0.5960
  382SOL    HW2 1527   0.649  -0.065   0.600 -1.2180 -0.0466 -1.5276
  382SOL     MW 1528   0.652   0.019   0.628 -0.3995  0.0598 -0.2511
  383SOL     OW 1529   0.511   0.069   0.379  0.4180 -0.5791  0.2409
  383SOL    HW1 1530   0.553   0.089   0.464  0.5092  1.2663 -0.5487
  383SOL    HW2 1531   0.474  -0.019   0.390 -0.7877 -4.6396 -0.0379
  383SOL     MW 1532   0.511   0.060   0.392  0.2710 -0.8714  0.0999
  384SOL     OW 1533   0.653   2.850   0.553  0.1171 -0.3470 -0.2034
  384SOL    HW1 1534   0.629   2.769   0.601 -1.8234 -0.1308  0.2750
  384SOL    HW2 1535   0.580   2.852   0.488 -0.7207 -1.4811 -3.7717
  384SOL     MW 1536   0.640   2.839   0.551 -0.2495 -0.4681 -0.6111
  385SOL     OW 1537   1.352   2.029   1.558 -0.6252  0.3095  0.2776
  385SOL    HW1 1538   1.445   2.047   1.576 -2.2981 -0.0102 -1.9094
  385SOL    HW2 1539   1.333   1.941   1.608 -2.5446  0.1089 -0.7326
  385SOL     MW 1540   1.362   2.020   1.567 -1.0992  0.2409 -0.1442
  386SOL     OW 1541   1.279   0.406   0.908 -0.2085  0.1116  1.0332
  386SOL    HW1 1542   1.183   0.388   0.888 -2.9850 -3.2548 -1.3211
  386SOL    HW2 1543   1.279   0.407   1.005 -2.0068  1.3061  1.0200
  386SOL     MW 1544   1.266   0.404   0.918 -0.8121 -0.1750  0.7208
  387SOL     OW 1545   0.862   2.207   1.483 -0.1177  0.9141 -0.2848
  387SOL    HW1 1546   0.945   2.241   1.462 -1.9785 -0.8079  0.2267
  387SOL    HW2 1547   0.866   2.110   1.461  0.3304  0.2710  1.2089
  387SOL     MW 1548   0.874   2.198   1.477 -0.3041  0.6020 -0.0203
  388SOL     OW 1549   1.604   2.851   1.242 -0.4250 -0.4829 -0.1335
  388SOL    HW1 1550   1.532   2.854   1.178 -1.3157  0.6415  0.8698
  388SOL    HW2 1551   1.663   2.782   1.205 -4.0227  0.5748  1.5251
  388SOL     MW 1552   1.602   2.843   1.229 -1.0172 -0.1950  0.2177
  389SOL     OW 1553   0.498   0.046   3.035 -0.2916  0.3074  0.2545
  389SOL    HW1 1554   0.594   0.063   3.005 -0.2589 -0.2383 -0.0949
  389SOL    HW2 1555   0.492  -0.054   3.025 -1.7792 -1.8105 -0.2666
  389SOL     MW 1556   0.510   0.035   3.030 -0.4835 -0.0440  0.1396
  390SOL     OW 1557   1.393   0.117   0.660 -0.5618  0.1602 -0.0980
  390SOL    HW1 1558   1.482   0.094   0.638 -0.6221 -1.6653  0.1891
  390SOL    HW2 1559   1.366   0.083   0.744  0.1130 -1.1816 -0.0185
  390SOL     MW 1560   1.401   0.110   0.668 -0.4807 -0.2577 -0.0496
  391SOL     OW 1561   0.306   2.258   1.468 -0.5364  0.4322 -0.0348
  391SOL    HW1 1562   0.248   2.191   1.504  2.0335  0.0947 -2.7495
  391SOL    HW2 1563   0.247   2.331   1.458  1.1947 -1.8459  1.6892
  391SOL     MW 1564   0.291   2.259   1.471  0.0311  0.0871 -0.1655
  392SOL     OW 1565   2.053   2.214   0.240  0.3995 -0.7638  0.2664
  392SOL    HW1 1566   2.019   2.274   0.307  1.6489 -0.1207 -2.3427
  392SOL    HW2 1567   2.111   2.152   0.288 -1.3049  2.7818  2.1757
  392SOL     MW 1568   2.056   2.214   0.255  0.3395 -0.2112  0.1740
  393SOL     OW 1569   0.200   2.974   2.918 -0.4918  0.5421  0.4775
  393SOL    HW1 1570   0.264   3.030   2.873 -1.6439 -0.5038  2.8024
  393SOL    HW2 1571   0.119   3.014   2.894  2.7200 -2.1045 -0.2308
  393SOL     MW 1572   0.198   2.987   2.909 -0.2200  0.0549  0.6908
  394SOL     OW 1573   0.853   1.668   1.495  0.5249 -0.2091 -0.0552
  394SOL    HW1 1574   0.790   1.666   1.567 -2.4313 -2.6281  3.0094
  394SOL    HW2 1575   0.863   1.766   1.470 -0.9354 -1.8939 -2.1349
  394SOL     MW 1576   0.846   1.680   1.501 -0.0578 -0.7506  0.0747
  395SOL     OW 1577   0.895   2.827   2.622  0.1640 -0.3753 -0.2405
  395SOL    HW1 1578   0.926   2.898   2.679 -0.8097 -0.6507  0.2437
  395SOL    HW2 1579   0.980   2.802   2.566 -0.6090 -0.3494 -0.6084
  395SOL     MW 1580   0.910   2.833   2.622 -0.0664 -0.4083 -0.2251
  396SOL     OW 1581   0.751   1.797   2.368  0.0628  0.2626 -0.3203
  396SOL    HW1 1582   0.787   1.809   2.460 -1.5558  0.5920  3.5515
  396SOL    HW2 1583   0.709   1.711   2.371  0.8860  0.3902 -1.0326
  396SOL     MW 1584   0.750   1.787   2.381 -0.0422  0.3229  0.0965
  397SOL     OW 1585   1.055   2.341   1.272 -0.5181  0.3070  0.0302
  397SOL    HW1 1586   1.078   2.389   1.193 -0.7916  1.5105  1.5663
  397SOL    HW2 1587   1.125   2.347   1.331 -2.0364  0.4202 -1.8800
  397SOL     MW 1588   1.067   2.348   1.270 -0.7545  0.4807 -0.0192
  398SOL     OW 1589   0.560   2.619   0.704  0.1694 -0.6275 -0.4304
  398SOL    HW1 1590   0.494   2.611   0.630  1.8258 -2.6898  1.3271
  398SOL    HW2 1591   0.639   2.563   0.680  1.2527 -1.3935 -1.8964
  398SOL     MW 1592   0.562   2.611   0.691  0.5309 -1.0007 -0.3919
  399SOL     OW 1593   0.206   2.005   0.381  0.2565  0.5109 -0.7743
  399SOL    HW1 1594   0.157   2.090   0.387  0.7090 -2.1640  1.1382
  399SOL    HW2 1595   0.282   2.022   0.310  0.5778 -1.2670 -1.4502
  399SOL     MW 1596   0.210   2.019   0.373  0.3586 -0.0766 -0.6111
  400SOL     OW 1597   0.554   1.817   0.231  0.0568 -0.2262 -0.0595
  400SOL    HW1 1598   0.522   1.907   0.217  1.7977  0.4235 -1.7290
  400SOL    HW2 1599   0.483   1.760   0.264  0.9008  1.1334 -0.0672
  400SOL     MW 1600   0.541   1.821   0.234  0.3979  0.0389 -0.2808
  401SOL     OW 1601   0.996   2.109   0.129  0.3479  0.3057 -0.2903
  401SOL    HW1 1602   1.016   2.014   0.137  1.7755  1.1174 -0.1086
  401SOL    HW2 1603   1.023   2.151   0.212 -2.0904 -1.6110 -1.0386
  401SOL     MW 1604   1.002   2.102   0.141  0.2146  0.1599 -0.3651
  402SOL     OW 1605   0.706   2.665   1.759  0.0369  0.1519 -0.0376
  402SOL    HW1 1606   0.617   2.681   1.797 -1.2132  0.0809 -1.0546
  402SOL    HW2 1607   0.767   2.702   1.823 -2.7657  0.2907 -2.6044
  402SOL     MW 1608   0.702   2.672   1.773 -0.4978  0.1609 -0.5105
  403SOL     OW 1609   0.089   0.541   0.330 -0.3045  0.4017 -0.2401
  403SOL    HW1 1610   0.149   0.613   0.355  0.6085 -0.4270  0.2961
  403SOL    HW2 1611   0.153   0.470   0.295  0.4768 -0.2422  1.3897
  403SOL     MW 1612   0.106   0.541   0.329 -0.0809  0.2074  0.0457
  404SOL     OW 1613   0.953   2.864   0.858  0.4759  0.6405  0.2952
  404SOL    HW1 1614   1.009   2.799   0.809 -0.6862  0.5016 -1.4029
  404SOL    HW2 1615   0.958   2.944   0.809 -0.1382 -0.0552  0.0283
  404SOL     MW 1616   0.961   2.866   0.845  0.2415  0.5304  0.0360
  405SOL     OW 1617   0.448   2.491   1.585 -0.0344 -0.8516  0.2115
  405SOL    HW1 1618   0.474   2.572   1.535  0.2475  0.9368 -1.4163
  405SOL    HW2 1619   0.457   2.421   1.526 -1.1993  3.4081  2.6230
  405SOL     MW 1620   0.452   2.492   1.571 -0.1509 -0.0536  0.3149
  406SOL     OW 1621   0.384   2.389   1.125  0.2216 -0.1030  0.6779
  406SOL    HW1 1622   0.290   2.410   1.139  0.4123 -1.1346 -1.7453
  406SOL    HW2 1623   0.412   2.311   1.172 -2.6848  1.2356 -1.5777
  406SOL     MW 1624   0.375   2.381   1.133 -0.1367 -0.0625  0.0606
  407SOL     OW 1625   3.068   2.742   1.164 -0.1959 -0.1370 -0.3066
  407SOL    HW1 1626   3.136   2.741   1.235  1.9078  1.2365  2.2594
  407SOL    HW2 1627   3.122   2.747   1.084 -0.5117 -0.4819 -1.1068
  407SOL     MW 1628   3.084   2.743   1.163  0.0400 -0.0013 -0.0736
  408SOL     OW 1629   2.097   2.008   0.468  0.1499  0.1783  0.5652
  408SOL    HW1 1630   2.095   2.049   0.553  2.1525  0.9709  0.3748
  408SOL    HW2 1631   2.022   1.960   0.456  1.6759  1.8543  0.4234
  408SOL     MW 1632   2.087   2.007   0.478  0.6155  0.5040  0.5214
  409SOL     OW 1633   1.414   0.157   0.950  0.3082  0.4173  0.3554
  409SOL    HW1 1634   1.415   0.251   0.931  1.3053 -0.5720 -1.4330
  409SOL    HW2 1635   1.499   0.118   0.941  1.5076  0.4665 -0.8426
  409SOL     MW 1636   1.426   0.164   0.946  0.5980  0.2933 -0.0386
  410SOL     OW 1637   1.077   2.514   1.055 -0.2577  0.1390 -0.2866
  410SOL    HW1 1638   0.985   2.512   1.014 -0.8626  2.1684  2.3047
  410SOL    HW2 1639   1.129   2.456   1.005 -2.4936  0.7919 -0.7857
  410SOL     MW 1640   1.072   2.506   1.043 -0.6325  0.4929 -0.0105
  411SOL     OW 1641   1.945   0.090   2.856 -0.4103 -0.0326  0.8226
  411SOL    HW1 1642   1.902   0.039   2.790 -1.9027  1.2957  2.5141
  411SOL    HW2 1643   1.877   0.118   2.913 -1.1423 -2.2554  0.6518
  411SOL     MW 1644   1.930   0.087   2.855 -0.7038 -0.1506  1.0233
  412SOL     OW 1645   1.004   2.232   0.606  0.5261 -0.0502 -0.2759
  412SOL    HW1 1646   1.048   2.310   0.634 -1.3451 -2.0627 -1.7080
  412SOL    HW2 1647   0.919   2.268   0.581 -1.5255  0.7090  0.3215
  412SOL     MW 1648   0.999   2.247   0.606  0.0085 -0.2156 -0.3860
  413SOL     OW 1649   0.511   2.809   0.057 -0.0444 -0.0278 -0.7395
  413SOL    HW1 1650   0.567   2.743   0.098  1.1935 -0.7412  0.8342
  413SOL    HW2 1651   0.556   2.826  -0.026 -2.4279  0.9208  0.4650
  413SOL     MW 1652   0.524   2.803   0.051 -0.1955  0.0032 -0.3729
  414SOL     OW 1653   2.030   3.013   0.986 -0.4635 -0.1413  0.0635
  414SOL    HW1 1654   1.956   2.970   0.938 -1.2429  0.6467  3.2267
  414SOL    HW2 1655   2.095   2.939   0.991 -0.0121 -2.6272  0.7048
  414SOL     MW 1656   2.029   2.997   0.981 -0.5068 -0.3653  0.5655
  415SOL     OW 1657   1.739   2.649   1.113  0.0508  0.7602  0.0393
  415SOL    HW1 1658   1.680   2.582   1.150 -0.3676 -0.1366  0.6704
  415SOL    HW2 1659   1.816   2.662   1.171 -0.8388 -0.4014 -2.1872
  415SOL     MW 1660   1.741   2.642   1.125 -0.1218  0.4886 -0.1712
  416SOL     OW 1661   0.590   1.957   1.379 -0.4744 -0.0816 -0.0214
  416SOL    HW1 1662   0.561   2.045   1.342 -3.2060 -1.4296  0.2333
  416SOL    HW2 1663   0.591   1.899   1.304 -0.6697 -2.1203  0.9209
  416SOL     MW 1664   0.586   1.961   1.364 -0.8605 -0.5284  0.1366
  417SOL     OW 1665   1.040   2.977   2.039  0.0907 -0.3590  0.3247
  417SOL    HW1 1666   0.983   2.998   2.119 -1.3631  0.6233 -1.2357
  417SOL    HW2 1667   0.981   2.911   2.000  1.3780  1.0274 -1.2673
  417SOL     MW 1668   1.024   2.971   2.044  0.0687 -0.0465 -0.0912
  418SOL     OW 1669   0.720   2.981   0.153  0.1007  0.0329  0.3672
  418SOL    HW1 1670   0.775   2.962   0.077  0.9606  1.7067  0.5635
  418SOL    HW2 1671   0.633   2.941   0.134  0.3728 -1.0986  1.3710
  418SOL     MW 1672   0.716   2.973   0.140  0.2501  0.1045  0.5255
  419SOL     OW 1673   0.468   2.708   1.399 -0.0099 -0.1337  0.2096
  419SOL    HW1 1674   0.537   2.764   1.439 -3.7400 -0.3722 -0.7820
  419SOL    HW2 1675   0.494   2.689   1.308 -1.3580  0.6431  1.0387
  419SOL     MW 1676   0.481   2.712   1.392 -0.6799 -0.0627  0.1882
  420SOL     OW 1677   0.891   2.224   0.951  0.4338 -0.5271 -0.0734
  420SOL    HW1 1678   0.866   2.209   1.047  1.6679  4.3253 -1.4532
  420SOL    HW2 1679   0.867   2.316   0.930  0.8855 -0.3058  1.7453
  420SOL     MW 1680   0.885   2.234   0.961  0.6562  0.1423 -0.0155
  421SOL     OW 1681   2.957   0.072   0.135 -0.6567  0.0621 -0.5654
  421SOL    HW1 1682   2.919   0.082   0.052  3.8066  2.2193 -1.2659
  421SOL    HW2 1683   2.956  -0.021   0.150  1.6313  0.0950 -0.7988
  421SOL     MW 1684   2.952   0.061   0.126  0.2340  0.3511 -0.6886
  422SOL     OW 1685   0.827   2.492   0.921  0.0086  0.0979 -0.2266
  422SOL    HW1 1686   0.741   2.519   0.953 -1.8267 -0.8526  1.4256
  422SOL    HW2 1687   0.839   2.542   0.839 -0.5733  3.8985 -2.6157
  422SOL     MW 1688   0.817   2.502   0.914 -0.3103  0.4740 -0.3238
  423SOL     OW 1689   1.620   0.080   0.529 -0.2047  0.2873 -0.1766
  423SOL    HW1 1690   1.677   0.023   0.481 -0.4569  1.6397 -0.4487
  423SOL    HW2 1691   1.630   0.169   0.489  1.7890 -1.0540 -1.3372
  423SOL     MW 1692   1.628   0.084   0.517  0.0251  0.2888 -0.3656
  424SOL     OW 1693   0.755   2.184   1.177 -0.0651 -0.3451 -0.5054
  424SOL    HW1 1694   0.659   2.193   1.162 -3.3188 -1.0107  0.3092
  424SOL    HW2 1695   0.785   2.231   1.260  0.7875  1.2213  2.2912
  424SOL     MW 1696   0.746   2.191   1.186 -0.3819 -0.2262 -0.0289
  425SOL     OW 1697   1.755   2.798   2.062  0.3643  0.0413 -0.1004
  425SOL    HW1 1698   1.778   2.797   1.967 -1.2623 -2.0602  0.2929
  425SOL    HW2 1699   1.780   2.708   2.092  0.8203 -0.6916  0.3504
  425SOL     MW 1700   1.761   2.786   2.054  0.2099 -0.3326  0.0110
  426SOL     OW 1701   0.784   1.653   1.927 -0.4819 -0.6832 -0.3902
  426SOL    HW1 1702   0.714   1.642   1.855  0.3756 -0.1390  0.3239
  426SOL    HW2 1703   0.759   1.734   1.974 -0.3217 -0.3920 -0.3689
  426SOL     MW 1704   0.771   1.662   1.924 -0.3476 -0.5730 -0.2932
  427SOL     OW 1705   0.392   1.532   1.950 -0.0827  0.5137 -1.0329
  427SOL    HW1 1706   0.450   1.460   1.911  2.7660 -2.8179 -2.5176
  427SOL    HW2 1707   0.304   1.497   1.966  1.1770  1.1604  1.6806
  427SOL     MW 1708   0.388   1.518   1.947  0.4594  0.1594 -0.8708
  428SOL     OW 1709   0.590   2.594   1.160  0.0381  0.2469 -0.2483
  428SOL    HW1 1710   0.670   2.564   1.209 -1.0565  0.0084  0.3508
  428SOL    HW2 1711   0.539   2.517   1.141 -0.5747  1.7571  1.4741
  428SOL     MW 1712   0.594   2.580   1.164 -0.1872  0.4147  0.0580
  429SOL     OW 1713   1.381   2.849   1.039  0.3188 -0.2719 -0.1612
  429SOL    HW1 1714   1.293   2.814   1.075  0.5608 -0.6319 -0.0923
  429SOL    HW2 1715   1.350   2.890   0.957 -0.4431 -0.2388  1.6463
  429SOL     MW 1716   1.365   2.850   1.033  0.2502 -0.3150  0.0864
  430SOL     OW 1717   1.099   2.711   0.698  0.4897  0.4459  0.1693
  430SOL    HW1 1718   1.113   2.616   0.700 -1.5179  2.1483 -1.6008
  430SOL    HW2 1719   1.091   2.713   0.601 -2.6376  1.2310  3.1308
  430SOL     MW 1720   1.100   2.699   0.686 -0.1878  0.7741  0.3265
  431SOL     OW 1721   0.401   2.021   1.063 -0.2507  0.4441  0.0447
  431SOL    HW1 1722   0.454   1.941   1.054 -0.5463 -3.2485  1.3490
  431SOL    HW2 1723   0.333   2.039   0.999  0.3201  0.4293  3.2640
  431SOL     MW 1724   0.399   2.013   1.053 -0.2144 -0.0451  0.6416
  432SOL     OW 1725   0.059   0.043   1.202 -0.0675  0.0042  0.0034
  432SOL    HW1 1726   0.061   0.086   1.294 -1.2433  0.8972 -2.3634
  432SOL    HW2 1727  -0.027  -0.007   1.198  1.6058  2.2569 -2.1464
  432SOL     MW 1728   0.048   0.042   1.213 -0.0018  0.4193 -0.5925
  433SOL     OW 1729   0.677   2.908   1.433  0.2783  0.2000  0.3536
  433SOL    HW1 1730   0.727   2.953   1.506 -1.5107 -1.5824  0.7146
  433SOL    HW2 1731   0.733   2.869   1.366 -1.9631  0.8381  0.3278
  433SOL     MW 1732   0.691   2.909   1.434 -0.2535  0.0490  0.3978
  434SOL     OW 1733   1.627   2.878   1.519 -0.1015 -0.0974 -0.0047
  434SOL    HW1 1734   1.535   2.909   1.513 -0.0715 -0.1656  0.7069
  434SOL    HW2 1735   1.646   2.844   1.428  0.3160 -1.9141 -1.7364
  434SOL     MW 1736   1.617   2.877   1.506 -0.0424 -0.3461 -0.1393
  435SOL     OW 1737   2.817   1.792   0.298  0.1914  0.3335  0.1687
  435SOL    HW1 1738   2.868   1.851   0.244 -0.2172  0.3206  0.2494
  435SOL    HW2 1739   2.817   1.713   0.243 -1.0135 -0.2399 -2.3333
  435SOL     MW 1740   2.824   1.790   0.284 -0.0215  0.2561 -0.1508
  436SOL     OW 1741   1.484   2.785   0.331  0.2609  0.1524 -0.4104
  436SOL    HW1 1742   1.547   2.785   0.407  3.1370 -1.7436 -1.1348
  436SOL    HW2 1743   1.427   2.864   0.353  0.1718  0.2569  0.4624
  436SOL     MW 1744   1.485   2.795   0.344  0.6286 -0.0840 -0.3908
  437SOL     OW 1745   0.879   2.871   1.233 -0.4988  0.1564  0.0216
  437SOL    HW1 1746   0.888   2.974   1.234 -1.1217 -0.5474  2.0209
  437SOL    HW2 1747   0.815   2.872   1.161 -3.0558  0.1211 -0.6318
  437SOL     MW 1748   0.871   2.885   1.224 -0.9184  0.0589  0.1992
  438SOL     OW 1749   0.816   2.480   2.105 -0.3293  0.1530 -1.1713
  438SOL    HW1 1750   0.808   2.409   2.173 -1.8797 -1.6318  0.0289
  438SOL    HW2 1751   0.761   2.433   2.043  0.3632  1.5954 -0.1671
  438SOL     MW 1752   0.807   2.464   2.106 -0.4425  0.1078 -0.8804
  439SOL     OW 1753   1.128   2.183   0.372 -0.2757 -0.0426 -0.2776
  439SOL    HW1 1754   1.065   2.192   0.449  0.5685 -1.5002 -1.5935
  439SOL    HW2 1755   1.135   2.265   0.325 -1.2598  1.8446 -0.5339
  439SOL     MW 1756   1.120   2.195   0.376 -0.2941  0.0141 -0.4850
  440SOL     OW 1757   1.624   3.076   2.968  0.2523 -0.0765 -0.1167
  440SOL    HW1 1758   1.593   3.049   3.056  0.8408  0.0876  0.3255
  440SOL    HW2 1759   1.680   3.003   2.940 -1.3697 -1.2962 -0.6449
  440SOL     MW 1760   1.628   3.063   2.976  0.1159 -0.2157 -0.1280
  441SOL     OW 1761   0.367   2.654   0.505 -0.0082 -0.0591 -0.2013
  441SOL    HW1 1762   0.329   2.626   0.419  1.2079  0.1348  1.2073
  441SOL    HW2 1763   0.356   2.745   0.509 -0.0560 -0.5412 -4.2780
  441SOL     MW 1764   0.361   2.662   0.494  0.1460 -0.0971 -0.5533
  442SOL     OW 1765   3.092   2.382   0.631  0.2702 -0.6080  0.0415
  442SOL    HW1 1766   3.126   2.471   0.655  1.2560  0.9307  0.3107
  442SOL    HW2 1767   2.998   2.376   0.649 -0.2682  0.8317 -1.2048
  442SOL     MW 1768   3.084   2.393   0.637  0.3292 -0.2150 -0.0875
  443SOL     OW 1769   1.390   1.684   1.931  0.4622  0.1166 -0.2178
  443SOL    HW1 1770   1.376   1.734   1.854 -0.0787 -0.4696 -1.8529
  443SOL    HW2 1771   1.330   1.617   1.929  3.5875  2.5355 -1.0349
  443SOL     MW 1772   1.380   1.682   1.921  0.8032  0.3584 -0.5413
  444SOL     OW 1773   0.893   2.619   1.548  0.0397 -0.0437  0.0895
  444SOL    HW1 1774   0.945   2.608   1.622 -1.8106 -0.4950  1.1377
  444SOL    HW2 1775   0.813   2.645   1.587  3.6491 -1.6290 -0.5302
  444SOL     MW 1776   0.889   2.621   1.563  0.2718 -0.3124  0.1461
  445SOL     OW 1777   0.965   0.034   1.225 -0.4711  0.6514  0.0252
  445SOL    HW1 1778   0.898   0.110   1.219  1.6156  1.2091  0.8842
  445SOL    HW2 1779   1.045   0.069   1.193 -0.7579  2.3605  3.6302
  445SOL     MW 1780   0.967   0.048   1.220 -0.2336  0.9505  0.6142
  446SOL     OW 1781   2.727   2.859   1.063  0.0813 -0.2906 -0.1172
  446SOL    HW1 1782   2.703   2.901   0.977  2.5027 -1.0474 -1.3486
  446SOL    HW2 1783   2.768   2.772   1.042 -0.2379 -0.4829 -0.3390
  446SOL     MW 1784   2.730   2.853   1.049  0.3586 -0.4159 -0.3089
  447SOL     OW 1785   3.023   2.014   1.709 -0.1412 -0.1365 -0.2462
  447SOL    HW1 1786   3.062   1.942   1.758  0.0398  0.7710 -0.2089
  447SOL    HW2 1787   2.958   1.974   1.651 -0.5060 -0.1764  0.0700
  447SOL     MW 1788   3.020   1.999   1.708 -0.1654 -0.0220 -0.1995
  448SOL     OW 1789   1.685   2.377   1.684 -0.3371 -0.2187 -0.1848
  448SOL    HW1 1790   1.631   2.294   1.680  1.3768 -0.3036  0.2034
  448SOL    HW2 1791   1.623   2.447   1.693 -0.6977 -1.0288 -0.9279
  448SOL     MW 1792   1.669   2.375   1.685 -0.1586 -0.3368 -0.2316
  449SOL     OW 1793   0.857   2.851   0.371 -0.1930  0.4317  0.7262
  449SOL    HW1 1794   0.832   2.840   0.278 -0.6310 -3.9366 -0.9518
  449SOL    HW2 1795   0.780   2.865   0.425  0.4724  0.7280  1.0499
  449SOL     MW 1796   0.844   2.852   0.366 -0.1630 -0.1056  0.5475
  450SOL     OW 1797   1.156   2.452   0.672  0.3216 -0.4062 -0.6723
  450SOL    HW1 1798   1.186   2.404   0.747  3.0590 -0.0875  1.0518
  450SOL    HW2 1799   1.226   2.442   0.611  2.6947 -0.1271 -0.1976
  450SOL     MW 1800   1.169   2.444   0.674  0.9958 -0.3273 -0.3822
  451SOL     OW 1801   0.626   1.903   1.666  0.4116  0.3744  0.0987
  451SOL    HW1 1802   0.698   1.952   1.709 -2.1496 -0.3319 -1.4815
  451SOL    HW2 1803   0.635   1.914   1.570  2.8214 -0.6312 -0.3147
  451SOL     MW 1804   0.637   1.911   1.659  0.3916  0.1485 -0.1643
  452SOL     OW 1805   0.300   2.638   3.099  0.6314  0.2208  0.1791
  452SOL    HW1 1806   0.391   2.678   3.113  0.8798 -1.3467  0.1842
  452SOL    HW2 1807   0.303   2.612   3.006  2.4073 -1.6577  0.2933
  452SOL     MW 1808   0.313   2.640   3.089  0.8985 -0.2339  0.1948
  453SOL     OW 1809   0.429   3.042   1.680 -0.8669 -0.2889 -0.3448
  453SOL    HW1 1810   0.488   3.114   1.651 -0.2293  2.2785 -0.5319
  453SOL    HW2 1811   0.368   3.017   1.609 -2.2556 -0.6502  2.2430
  453SOL     MW 1812   0.429   3.048   1.667 -0.9660  0.0022 -0.0281
  454SOL     OW 1813   1.149   2.765   1.159  0.4158  0.0857  0.3109
  454SOL    HW1 1814   1.119   2.674   1.136  1.8266 -0.6641 -0.9130
  454SOL    HW2 1815   1.065   2.810   1.186  0.4706 -1.0119 -0.1879
  454SOL     MW 1816   1.134   2.759   1.159  0.6091 -0.1581  0.0836
  455SOL     OW 1817   1.600   2.937   0.114  0.3163 -0.2555  0.3215
  455SOL    HW1 1818   1.687   2.943   0.151  0.3050 -1.6326  0.0978
  455SOL    HW2 1819   1.558   2.889   0.180 -0.3169  2.0030  0.5104
  455SOL     MW 1820   1.606   2.931   0.128  0.2313 -0.1392  0.3169
  456SOL     OW 1821   2.840   0.321   1.389 -0.4698 -0.0029 -0.8552
  456SOL    HW1 1822   2.786   0.248   1.364  0.1231 -0.5536  1.3894
  456SOL    HW2 1823   2.903   0.322   1.311  0.4715  0.3210  2.4895
  456SOL     MW 1824   2.841   0.312   1.375 -0.2674 -0.0328 -0.1177
  457SOL     OW 1825   0.912   1.482   2.956  0.4155  0.2734 -0.2524
  457SOL    HW1 1826   0.840   1.500   3.024 -0.3126  0.2443  2.3025
  457SOL    HW2 1827   0.984   1.444   3.000  0.0395  2.0781 -0.0512
  457SOL     MW 1828   0.912   1.480   2.971  0.2698  0.5077  0.1112
  458SOL     OW 1829   1.435   1.321   0.669  0.2968  0.0072  0.0712
  458SOL    HW1 1830   1.345   1.328   0.707 -3.2663  1.0207  2.2555
  458SOL    HW2 1831   1.425   1.280   0.585 -0.1618  1.4368  0.6093
  458SOL     MW 1832   1.422   1.316   0.663 -0.2338  0.3295  0.4304
  459SOL     OW 1833   1.630   0.121   0.189 -0.6998  0.0498  0.0683
  459SOL    HW1 1834   1.594   0.028   0.185 -0.1381 -0.8458  2.0977
  459SOL    HW2 1835   1.563   0.179   0.157 -2.2374 -1.4486  2.5542
  459SOL     MW 1836   1.616   0.116   0.184 -0.8285 -0.2661  0.6640
  460SOL     OW 1837   1.762   2.143   0.613 -0.1956  0.0441  0.2061
  460SOL    HW1 1838   1.676   2.162   0.657 -1.4084  0.8533 -1.2737
  460SOL    HW2 1839   1.776   2.069   0.552  0.8722 -0.5466 -2.3644
  460SOL     MW 1840   1.752   2.136   0.610 -0.2147  0.0729 -0.3283
  461SOL     OW 1841   0.350   2.317   0.625  0.2605 -0.5243  0.1077
  461SOL    HW1 1842   0.345   2.347   0.532 -2.8746  0.8950  2.8535
  461SOL    HW2 1843   0.310   2.379   0.683 -0.7932 -1.8842 -0.9297
  461SOL     MW 1844   0.344   2.329   0.621 -0.2922 -0.5164  0.3331
  462SOL     OW 1845   0.428   0.247   1.361 -0.4935  0.0902 -0.0537
  462SOL    HW1 1846   0.439   0.154   1.340  0.6070  3.5250  0.7713
  462SOL    HW2 1847   0.508   0.297   1.324  3.1101  0.6766  1.5095
  462SOL     MW 1848   0.440   0.241   1.353  0.1272  0.6207  0.2614
  463SOL     OW 1849   0.985  -0.001   0.705 -0.3738 -0.5660 -0.4212
  463SOL    HW1 1850   1.001  -0.000   0.609  0.6647 -0.7224 -1.8478
  463SOL    HW2 1851   0.894   0.024   0.707 -1.6953  0.8491  0.1342
  463SOL     MW 1852   0.975   0.003   0.692 -0.4111 -0.3999 -0.5362
  464SOL     OW 1853   0.872   3.001   2.252 -0.1672  0.1724  0.0091
  464SOL    HW1 1854   0.848   2.909   2.266 -1.5118 -3.0205  2.1464
  464SOL    HW2 1855   0.870   3.042   2.340 -0.1436 -0.4705 -0.4905
  464SOL     MW 1856   0.869   2.995   2.265 -0.3415 -0.3337  0.2251
  465SOL     OW 1857   0.708   0.330   0.473  0.1698 -0.1933 -0.5509
  465SOL    HW1 1858   0.665   0.324   0.556  0.8786  0.5742  0.0163
  465SOL    HW2 1859   0.713   0.245   0.424  0.3817 -1.9780 -0.4494
  465SOL     MW 1860   0.703   0.318   0.477  0.2913 -0.3275 -0.4627
  466SOL     OW 1861   1.082   1.997   0.713  0.0073  0.1343  0.2072
  466SOL    HW1 1862   1.079   1.927   0.649  1.1616  1.2857  0.1812
  466SOL    HW2 1863   1.049   2.075   0.671 -2.5619  1.4184 -0.4563
  466SOL     MW 1864   1.077   1.998   0.699 -0.1793  0.4556  0.1162
  467SOL     OW 1865   1.243   2.330   0.904 -0.1508  0.6743 -0.4147
  467SOL    HW1 1866   1.340   2.340   0.896  2.0147 -2.6762 -0.2136
  467SOL    HW2 1867   1.236   2.238   0.930  1.5533  3.0893 -2.9073
  467SOL     MW 1868   1.255   2.319   0.906  0.3598  0.5509 -0.7171
  468SOL     OW 1869   0.325   2.590   1.989  0.0616  0.4123  0.8682
  468SOL    HW1 1870   0.345   2.514   1.933  1.4847  2.2037 -0.7225
  468SOL    HW2 1871   0.386   2.649   1.943 -0.7961 -1.0653 -2.0547
  468SOL     MW 1872   0.336   2.588   1.975  0.1362  0.4537  0.2727
  469SOL     OW 1873   0.387   2.095   1.741  0.0170 -0.3730 -0.1304
  469SOL    HW1 1874   0.320   2.085   1.671  2.5369  0.9845 -1.6252
  469SOL    HW2 1875   0.456   2.042   1.705  0.1959 -0.1343 -0.4333
  469SOL     MW 1876   0.387   2.087   1.727  0.3731 -0.1624 -0.3676
  470SOL     OW 1877   3.103   2.572   0.226  0.4218  0.1927 -0.5608
  470SOL    HW1 1878   3.025   2.530   0.262 -0.3600  3.1843 -2.5085
  470SOL    HW2 1879   3.094   2.545   0.136  1.5359  0.2236  1.9545
  470SOL     MW 1880   3.091   2.563   0.219  0.4656  0.5915 -0.4859
  471SOL     OW 1881   1.235   2.755   1.409  0.0951 -0.2271  0.4439
  471SOL    HW1 1882   1.152   2.793   1.441 -2.3479 -0.8408  1.1827
  471SOL    HW2 1883   1.212   2.743   1.316  1.7715  0.3622 -2.6066
  471SOL     MW 1884   1.221   2.758   1.401 -0.0060 -0.2303  0.1389
  472SOL     OW 1885   2.962   2.055   0.415 -0.1291  0.7216 -0.5234
  472SOL    HW1 1886   2.969   2.021   0.323  0.0606  0.5882 -0.1601
  472SOL    HW2 1887   2.955   1.988   0.482  1.0677 -0.2903  0.1427
  472SOL     MW 1888   2.962   2.042   0.412  0.0539  0.5705 -0.3876
  473SOL     OW 1889   0.828   2.512   1.288  0.3188 -0.4235  0.1917
  473SOL    HW1 1890   0.908   2.468   1.269  1.1967 -1.0521 -0.0511
  473SOL    HW2 1891   0.833   2.529   1.380  1.1692  1.0730  0.1065
  473SOL     MW 1892   0.839   2.509   1.298  0.5468 -0.3090  0.1485
  474SOL     OW 1893   0.839   2.067   1.722  0.1682  0.4964  0.2980
  474SOL    HW1 1894   0.923   2.058   1.771 -1.8976  2.4048 -0.7466
  474SOL    HW2 1895   0.862   2.120   1.647 -0.7630  1.4776 -0.3792
  474SOL     MW 1896   0.853   2.073   1.719 -0.2272  0.8776  0.0709
  475SOL     OW 1897   1.713   0.028   1.305 -0.5587 -0.1389  0.1916
  475SOL    HW1 1898   1.631   0.064   1.266 -0.9690 -1.7196  1.1428
  475SOL    HW2 1899   1.674  -0.056   1.329  0.4714  0.7471 -0.4886
  475SOL     MW 1900   1.697   0.022   1.303 -0.4769 -0.2305  0.2274
  476SOL     OW 1901   1.425   2.619   0.854  0.2055  0.0630  0.0544
  476SOL    HW1 1902   1.395   2.659   0.931  4.1155 -2.5157 -0.5196
  476SOL    HW2 1903   1.482   2.685   0.817  1.8762  0.4125 -1.6994
  476SOL     MW 1904   1.429   2.633   0.859  0.9418 -0.2311 -0.2527
  477SOL     OW 1905   0.802   2.529   0.634  0.5922  0.5017 -0.2731
  477SOL    HW1 1906   0.864   2.574   0.583 -2.0141 -0.8537 -0.4704
  477SOL    HW2 1907   0.780   2.445   0.583 -0.0774  2.1308 -2.8558
  477SOL     MW 1908   0.807   2.524   0.621  0.1600  0.5378 -0.6399
  478SOL     OW 1909   0.136   2.704   0.949  0.4050 -0.2451  0.7699
  478SOL    HW1 1910   0.193   2.777   0.934 -0.1139  1.7431 -2.8729
  478SOL    HW2 1911   0.164   2.636   0.886 -0.2081  0.2354 -0.7839
  478SOL     MW 1912   0.148   2.705   0.939  0.2557  0.0806  0.0842
  479SOL     OW 1913   1.469   1.944   1.321  0.0942 -0.0315  0.1283
  479SOL    HW1 1914   1.420   1.954   1.405  0.0215  0.1493 -1.4541
  479SOL    HW2 1915   1.540   1.882   1.349 -0.5116 -2.2604 -0.2011
  479SOL     MW 1916   1.472   1.937   1.336  0.0047 -0.3018 -0.1239
  480SOL     OW 1917   1.850   2.414   1.337  0.3610  0.0920  0.7776
  480SOL    HW1 1918   1.874   2.338   1.392 -0.6960  2.0239 -0.3799
  480SOL    HW2 1919   1.870   2.386   1.244  0.8471  2.4939  1.0104
  480SOL     MW 1920   1.855   2.400   1.332  0.2856  0.6638  0.6556
  481SOL     OW 1921   1.169   0.171   1.095 -0.0825 -0.2367 -0.5386
  481SOL    HW1 1922   1.246   0.168   1.036  1.5788 -1.9755  1.7318
  481SOL    HW2 1923   1.179   0.246   1.149  1.2577  0.4250  0.0477
  481SOL     MW 1924   1.180   0.180   1.094  0.3135 -0.3788 -0.1617
  482SOL     OW 1925   1.064   3.049   0.414 -0.0639 -0.3696  0.3572
  482SOL    HW1 1926   0.997   2.982   0.422  2.0793 -1.9272 -1.5498
  482SOL    HW2 1927   1.016   3.114   0.362 -1.3480  0.0911  0.1173
  482SOL     MW 1928   1.049   3.049   0.408  0.0495 -0.5143  0.0739
  483SOL     OW 1929   0.382   2.929   0.494  0.4733 -0.2405  0.1894
  483SOL    HW1 1930   0.308   2.945   0.438 -0.0554  2.3909 -2.7429
  483SOL    HW2 1931   0.365   2.984   0.574 -1.0671 -4.1820  0.1896
  483SOL     MW 1932   0.370   2.938   0.497  0.2003 -0.4134 -0.1975
  484SOL     OW 1933   1.706   1.796   1.426  0.0688  0.4441  0.3848
  484SOL    HW1 1934   1.754   1.869   1.384  1.2497  0.6904  2.6310
  484SOL    HW2 1935   1.689   1.830   1.518 -1.5718 -0.2638  1.3655
  484SOL     MW 1936   1.710   1.810   1.432  0.0081  0.3832  0.8106
  485SOL     OW 1937   0.374   2.313   0.345  0.3159  0.6069 -0.4602
  485SOL    HW1 1938   0.459   2.353   0.350 -0.6793  2.5032  0.6493
  485SOL    HW2 1939   0.310   2.373   0.302  4.4493 -0.0226  0.3698
  485SOL     MW 1940   0.377   2.326   0.340  0.7300  0.7741 -0.2043
  486SOL     OW 1941   0.113   2.470   1.461 -0.3110  0.0080  0.4755
  486SOL    HW1 1942   0.130   2.562   1.435  0.3024 -0.3347 -2.6754
  486SOL    HW2 1943   0.097   2.477   1.560  1.4589 -1.3642  3.9884
  486SOL     MW 1944   0.114   2.483   1.471  0.0034 -0.2183  0.5232
  487SOL     OW 1945   1.268   1.577   1.101  0.5254 -1.0541  0.1722
  487SOL    HW1 1946   1.275   1.672   1.111 -1.0237 -1.3511  1.0502
  487SOL    HW2 1947   1.357   1.562   1.059  2.4731  1.3661 -0.9458
  487SOL     MW 1948   1.281   1.587   1.097  0.5780 -0.7739  0.1406
  488SOL     OW 1949   1.463   1.779   0.600 -0.9274 -0.0012 -0.1134
  488SOL    HW1 1950   1.466   1.869   0.568  1.2457 -0.6679  0.3479
  488SOL    HW2 1951   1.383   1.739   0.565  1.0179  0.8223 -0.2261
  488SOL     MW 1952   1.453   1.786   0.591 -0.3840  0.0195 -0.0674
  489SOL     OW 1953   0.708   0.675   0.475  0.2550 -0.2108 -0.2149
  489SOL    HW1 1954   0.655   0.598   0.449 -1.2135  0.1089  0.7271
  489SOL    HW2 1955   0.661   0.705   0.558 -0.7303 -0.7815 -0.7135
  489SOL     MW 1956   0.695   0.668   0.482 -0.0687 -0.2439 -0.1564
  490SOL     OW 1957   1.379   2.063   0.426 -0.7073  0.0466 -0.1546
  490SOL    HW1 1958   1.451   2.123   0.412  1.4648 -3.1690 -1.1660
  490SOL    HW2 1959   1.295   2.111   0.421  0.4227 -0.1710 -0.1236
  490SOL     MW 1960   1.377   2.077   0.424 -0.2717 -0.4063 -0.2839
  491SOL     OW 1961   1.351   3.021   0.433 -0.4706 -0.1788 -0.4384
  491SOL    HW1 1962   1.363   3.097   0.489  0.6631  1.1699  0.5468
  491SOL    HW2 1963   1.261   3.016   0.455 -3.8660  1.8538  0.5173
  491SOL     MW 1964   1.341   3.030   0.443 -0.7690  0.2673 -0.1824
  492SOL     OW 1965   1.445   2.150   0.688  0.2716 -0.0983  0.3660
  492SOL    HW1 1966   1.382   2.118   0.627  0.9367  2.0946  0.4356
  492SOL    HW2 1967   1.420   2.112   0.766 -1.6024  0.5698  1.8089
  492SOL     MW 1968   1.434   2.141   0.690  0.1121  0.2791  0.5655
  493SOL     OW 1969   0.188   3.008   0.305 -0.0028  0.3402  0.2805
  493SOL    HW1 1970   0.120   3.060   0.334  4.1414 -0.5842 -1.0025
  493SOL    HW2 1971   0.171   2.972   0.220 -0.0612  0.6091 -0.5895
  493SOL     MW 1972   0.177   3.010   0.298  0.5363  0.2537 -0.0036
  494SOL     OW 1973   0.364   2.387   1.818  0.0400 -0.4049  0.1838
  494SOL    HW1 1974   0.351   2.293   1.787 -1.0550 -1.4208 -0.6756
  494SOL    HW2 1975   0.403   2.440   1.736  2.4653 -0.6660  0.1459
  494SOL     MW 1976   0.368   2.382   1.803  0.2155 -0.5734  0.0654
  495SOL     OW 1977   2.823   1.627   2.684  0.1426  0.0068 -0.5201
  495SOL    HW1 1978   2.796   1.686   2.754 -0.8694  1.1786 -0.9344
  495SOL    HW2 1979   2.793   1.537   2.712  3.0391 -1.1198 -0.0955
  495SOL     MW 1980   2.815   1.623   2.697  0.3912  0.0128 -0.5188
  496SOL     OW 1981   2.822   2.298   2.743  0.4668  0.2172  0.1388
  496SOL    HW1 1982   2.832   2.212   2.777 -0.5168 -1.2742  2.0454
  496SOL    HW2 1983   2.906   2.337   2.767  2.9856 -0.6509  1.0331
  496SOL     MW 1984   2.835   2.292   2.751  0.6694 -0.0941  0.5083
  497SOL     OW 1985   1.485   2.423   2.591 -0.6853  0.6483  0.1559
  497SOL    HW1 1986   1.491   2.355   2.527 -0.6044 -1.3043 -0.7140
  497SOL    HW2 1987   1.444   2.371   2.663 -0.3093 -0.4333 -1.8983
  497SOL     MW 1988   1.481   2.407   2.592 -0.6250  0.2480 -0.2299
  498SOL     OW 1989   1.485   2.728   2.328  0.2860 -0.1225 -0.1998
  498SOL    HW1 1990   1.440   2.660   2.377 -1.3952 -0.7897 -2.5495
  498SOL    HW2 1991   1.565   2.743   2.377 -1.8462  1.1562  0.8525
  498SOL     MW 1992   1.490   2.721   2.341 -0.2171 -0.0418 -0.3710
  499SOL     OW 1993   0.978   0.029   0.091 -0.6161  0.7316  0.2028
  499SOL    HW1 1994   0.899   0.064   0.133  0.3195 -0.5307  1.3115
  499SOL    HW2 1995   0.951  -0.035   0.029 -0.6993  1.5075  0.9057
  499SOL     MW 1996   0.964   0.025   0.088 -0.5036  0.6674  0.4418
  500SOL     OW 1997   1.018   2.542   2.723  0.3163 -0.1357 -0.0112
  500SOL    HW1 1998   1.085   2.511   2.791  0.1310 -2.7161  0.9573
  500SOL    HW2 1999   0.954   2.603   2.759  1.0050 -0.6744  3.0832
  500SOL     MW 2000   1.018   2.546   2.737  0.3827 -0.5472  0.5248
  501SOL     OW 2001   1.807   2.324   2.970 -0.1097 -0.5669 -0.5565
  501SOL    HW1 2002   1.816   2.418   2.960  0.6854  0.2044  1.5515
  501SOL    HW2 2003   1.895   2.297   3.004 -1.0461 -0.9281 -0.3571
  501SOL     MW 2004   1.820   2.333   2.973 -0.1284 -0.5128 -0.2521
  502SOL     OW 2005   0.313   2.738   2.820  0.7504  0.0635  0.8596
  502SOL    HW1 2006   0.341   2.759   2.734 -0.1646 -3.9932 -1.0241
  502SOL    HW2 2007   0.261   2.812   2.854  0.2943  0.7825 -0.3631
  502SOL     MW 2008   0.310   2.751   2.813  0.5695 -0.3769  0.4498
  503SOL     OW 2009   1.104   2.478   2.074  0.1761  0.0549 -0.1699
  503SOL    HW1 2010   1.142   2.519   2.000 -0.7477  0.1897  1.3188
  503SOL    HW2 2011   1.011   2.491   2.064  0.4857 -0.8692  2.5427
  503SOL     MW 2012   1.097   2.485   2.063  0.0950 -0.0492  0.3844
  504SOL     OW 2013   0.076   2.609   2.173 -0.3663  0.3939  0.4210
  504SOL    HW1 2014   0.111   2.524   2.140  0.6025 -0.2354 -2.3835
  504SOL    HW2 2015   0.064   2.594   2.262  1.8510 -1.4076 -2.5145
  504SOL     MW 2016   0.079   2.596   2.180  0.0541  0.0732 -0.3364
  505SOL     OW 2017   1.605   2.857   2.704 -0.6060 -0.0241  0.6509
  505SOL    HW1 2018   1.655   2.894   2.629  3.3361 -0.5005  0.3303
  505SOL    HW2 2019   1.541   2.927   2.728  0.8935  0.1389  1.4514
  505SOL     MW 2020   1.603   2.871   2.697  0.1119 -0.0655  0.7142
  506SOL     OW 2021   1.549   0.128   2.752 -0.0593  0.2554  1.0366
  506SOL    HW1 2022   1.570   0.095   2.836  1.3344  0.7466 -0.9026
  506SOL    HW2 2023   1.578   0.063   2.685  1.3077 -2.9940 -0.8393
  506SOL     MW 2024   1.556   0.115   2.754  0.3049 -0.1085  0.5332
  507SOL     OW 2025   0.805   2.702   2.848 -0.5735  0.3439 -0.2829
  507SOL    HW1 2026   0.819   2.760   2.769 -1.2544 -0.6407 -1.2092
  507SOL    HW2 2027   0.712   2.694   2.850  1.5322 -3.5558 -1.7571
  507SOL     MW 2028   0.795   2.709   2.838 -0.3855 -0.3005 -0.5996
  508SOL     OW 2029   1.185   2.151   2.551  0.7330  0.0378  0.1123
  508SOL    HW1 2030   1.248   2.210   2.592  1.8097  1.1701  1.3666
  508SOL    HW2 2031   1.109   2.150   2.606 -0.4185  0.6876  0.7633
  508SOL     MW 2032   1.183   2.159   2.564  0.7231  0.2729  0.3637
  509SOL     OW 2033   0.551   2.603   2.878 -0.2774 -0.1283 -0.2235
  509SOL    HW1 2034   0.544   2.554   2.795 -1.6347  1.2706  2.2048
  509SOL    HW2 2035   0.458   2.639   2.886 -0.1113 -0.3081 -0.0995
  509SOL     MW 2036   0.538   2.601   2.868 -0.4345  0.0325  0.1132
  510SOL     OW 2037   1.525   2.641   1.707 -0.2444  0.0653 -1.1007
  510SOL    HW1 2038   1.600   2.701   1.732 -0.9199  2.0166 -4.4819
  510SOL    HW2 2039   1.449   2.650   1.770 -0.5061  1.9863 -0.3573
  510SOL     MW 2040   1.525   2.650   1.719 -0.3680  0.5762 -1.4487
  511SOL     OW 2041   0.385   2.592   2.517  0.1923  0.2280 -0.0019
  511SOL    HW1 2042   0.451   2.531   2.541  0.4403 -0.4568 -1.4595
  511SOL    HW2 2043   0.407   2.610   2.424 -1.0087 -1.0125 -1.4190
  511SOL     MW 2044   0.397   2.587   2.508  0.0666 -0.0260 -0.3812
  512SOL     OW 2045   0.933   1.998   2.806  0.0174  0.0121 -0.2165
  512SOL    HW1 2046   0.843   2.023   2.834  1.1096 -1.1480  2.5002
  512SOL    HW2 2047   0.957   1.923   2.864 -1.9027  0.2931 -0.5494
  512SOL     MW 2048   0.924   1.992   2.817 -0.0918 -0.1039  0.0980
  513SOL     OW 2049   1.469   2.410   2.212  0.4113 -0.4237  0.2177
  513SOL    HW1 2050   1.547   2.468   2.205  0.5168  1.5650 -2.1549
  513SOL    HW2 2051   1.500   2.336   2.265 -2.1831 -0.2038  1.0078
  513SOL     MW 2052   1.483   2.408   2.218  0.0829 -0.1323  0.0089
  514SOL     OW 2053   0.197   2.390   2.641  0.6059 -0.4209  0.3203
  514SOL    HW1 2054   0.246   2.466   2.613 -1.9054  1.5445  2.3656
  514SOL    HW2 2055   0.254   2.355   2.711  0.3188 -2.7306  0.1636
  514SOL     MW 2056   0.211   2.395   2.647  0.2367 -0.4663  0.5695
  515SOL     OW 2057   1.068   2.013   1.900  0.4019  0.1005  0.0756
  515SOL    HW1 2058   1.041   2.080   1.956 -1.0704 -1.8450 -4.6165
  515SOL    HW2 2059   1.142   1.979   1.949 -0.2206 -0.1579  1.8377
  515SOL     MW 2060   1.074   2.017   1.914  0.1255 -0.1903 -0.3110
  516SOL     OW 2061   1.324   2.617   2.902  0.7028  0.3497 -0.1484
  516SOL    HW1 2062   1.324   2.618   2.807  1.8515 -1.5267  2.0499
  516SOL    HW2 2063   1.273   2.538   2.932 -0.4334  2.4148 -0.2719
  516SOL     MW 2064   1.317   2.607   2.894  0.7044  0.3746  0.1254
  517SOL     OW 2065   0.442   2.271   2.326 -0.3931 -0.3701 -0.4140
  517SOL    HW1 2066   0.431   2.365   2.318 -0.0979  1.5017  1.1758
  517SOL    HW2 2067   0.396   2.235   2.247  0.8127  0.5470 -0.7658
  517SOL     MW 2068   0.435   2.279   2.314 -0.1951 -0.0021 -0.2507
  518SOL     OW 2069   1.765   0.208   3.028 -0.1646 -0.3450 -0.0934
  518SOL    HW1 2070   1.746   0.259   3.105  1.1863 -2.3859  0.3567
  518SOL    HW2 2071   1.711   0.133   3.022 -3.1799 -1.7454 -1.6503
  518SOL     MW 2072   1.755   0.205   3.037 -0.3842 -0.7991 -0.2394
  519SOL     OW 2073   0.603   2.368   1.995  0.6452 -0.4969  0.0719
  519SOL    HW1 2074   0.604   2.272   1.998 -1.6946 -1.4626 -1.8883
  519SOL    HW2 2075   0.541   2.393   1.921  0.2287 -0.9062 -2.2994
  519SOL     MW 2076   0.595   2.358   1.986  0.2815 -0.6783 -0.4996
  520SOL     OW 2077   1.126   2.154   2.902 -0.1837  0.0878 -0.2222
  520SOL    HW1 2078   1.048   2.097   2.884  1.5574  0.0987 -0.2404
  520SOL    HW2 2079   1.153   2.105   2.984  0.5833 -2.3579 -2.7461
  520SOL     MW 2080   1.119   2.140   2.910  0.1473 -0.2335 -0.5576
  521SOL     OW 2081   1.700   2.117   2.178  0.3245 -0.5120 -0.1154
  521SOL    HW1 2082   1.765   2.115   2.110  0.1063  3.0196  0.9514
  521SOL    HW2 2083   1.656   2.031   2.190 -0.1096 -0.0688  0.0867
  521SOL     MW 2084   1.703   2.106   2.170  0.2384  0.0124  0.0520
  522SOL     OW 2085   2.832   2.545   2.148  0.4715  0.4660  0.6895
  522SOL    HW1 2086   2.872   2.528   2.236 -1.0597 -1.4811 -2.0645
  522SOL    HW2 2087   2.881   2.629   2.126  1.6941 -1.2637 -1.6966
  522SOL     MW 2088   2.844   2.554   2.156  0.4308 -0.0192  0.0113
  523SOL     OW 2089   0.793   1.493   2.141  0.4305  0.3058 -0.2867
  523SOL    HW1 2090   0.775   1.558   2.072 -0.2852  0.6831 -0.9070
  523SOL    HW2 2091   0.870   1.442   2.108  0.0535  1.5971 -0.0874
  523SOL     MW 2092   0.801   1.495   2.128  0.2863  0.5260 -0.3422
  524SOL     OW 2093   0.547   2.355   3.034  0.8386  0.1662  0.6413
  524SOL    HW1 2094   0.571   2.426   2.974  0.3955 -0.8710  2.6837
  524SOL    HW2 2095   0.619   2.294   3.041 -3.2850  3.8682  1.5570
  524SOL     MW 2096   0.560   2.357   3.027  0.2361  0.5178  1.0316
  525SOL     OW 2097   0.296   2.161   2.133  0.1274  0.1289 -0.0705
  525SOL    HW1 2098   0.246   2.120   2.207  3.6536 -1.2325 -0.9528
  525SOL    HW2 2099   0.326   2.093   2.070 -0.9356  0.2217  0.4785
  525SOL     MW 2100   0.294   2.147   2.134  0.4524 -0.0385 -0.1144
  526SOL     OW 2101   0.670   2.097   1.933 -0.8236 -0.2483  0.1045
  526SOL    HW1 2102   0.718   2.106   1.858 -0.2841  1.4243 -0.7778
  526SOL    HW2 2103   0.736   2.109   2.000  3.9303  2.7388  0.0185
  526SOL     MW 2104   0.685   2.100   1.932 -0.1252  0.3665 -0.0232
  527SOL     OW 2105   1.276   1.906   2.050 -0.2669 -0.0239  0.3351
  527SOL    HW1 2106   1.240   1.906   2.140  0.4290  3.6291  2.6535
  527SOL    HW2 2107   1.301   1.814   2.037 -0.8539  2.5215  0.0877
  527SOL     MW 2108   1.275   1.894   2.060 -0.2525  0.7939  0.6083
  528SOL     OW 2109   0.621   2.903   2.917  0.1910 -0.3698  0.7006
  528SOL    HW1 2110   0.699   2.957   2.927 -1.9272 -1.0250 -0.6909
  528SOL    HW2 2111   0.587   2.918   2.832  0.2354  1.6461 -0.5756
  528SOL     MW 2112   0.627   2.912   2.907 -0.0826 -0.1902  0.3486
  529SOL     OW 2113   1.113   2.269   1.771  0.2641  0.7644  0.2989
  529SOL    HW1 2114   1.154   2.205   1.825  1.1686 -0.2533 -0.3286
  529SOL    HW2 2115   1.132   2.270   1.677 -2.8596  2.5444 -0.9115
  529SOL     MW 2116   1.121   2.260   1.766 -0.0287  0.8650  0.0564
  530SOL     OW 2117   1.134   2.415   2.952 -0.3783 -0.8344  0.0219
  530SOL    HW1 2118   1.050   2.449   2.981  1.0548 -1.7757 -1.7094
  530SOL    HW2 2119   1.127   2.319   2.937 -0.8677 -2.1969 -0.0381
  530SOL     MW 2120   1.122   2.406   2.954 -0.2538 -1.1383 -0.2144
  531SOL     OW 2121   0.898   1.830   2.598 -0.3596  0.1090  0.5513
  531SOL    HW1 2122   0.904   1.900   2.672 -2.1108 -2.8187  0.7030
  531SOL    HW2 2123   0.864   1.753   2.648  2.0794  1.5108 -0.2356
  531SOL     MW 2124   0.895   1.829   2.614 -0.2688 -0.0923  0.4675
  532SOL     OW 2125   1.703   0.365   2.769  0.6773  0.1275  0.4491
  532SOL    HW1 2126   1.657   0.288   2.742  1.0526 -1.1881  0.1653
  532SOL    HW2 2127   1.747   0.341   2.850 -1.1640 -0.2834 -0.4601
  532SOL     MW 2128   1.703   0.351   2.776  0.4839 -0.1003  0.2917
  533SOL     OW 2129   1.779   2.857   2.941  0.6631 -0.1702 -0.1027
  533SOL    HW1 2130   1.746   2.788   3.000  1.0549 -0.6499 -1.0513
  533SOL    HW2 2131   1.735   2.830   2.860  1.6451 -0.5645  1.4904
  533SOL     MW 2132   1.769   2.844   2.938  0.8444 -0.2855 -0.0176
  534SOL     OW 2133   1.761   2.549   2.517  0.8161 -0.5104 -0.3429
  534SOL    HW1 2134   1.686   2.492   2.542 -3.4956 -2.9394 -0.7968
  534SOL    HW2 2135   1.803   2.549   2.601  1.2948  2.2497 -3.2495
  534SOL     MW 2136   1.756   2.541   2.531  0.3104 -0.4667 -0.7863
  535SOL     OW 2137   1.821   2.364   1.935 -0.7155  0.6212 -0.1090
  535SOL    HW1 2138   1.768   2.374   1.854  0.5560  0.1852  0.3243
  535SOL    HW2 2139   1.911   2.382   1.911  0.0232  1.3396  1.2361
  535SOL     MW 2140   1.826   2.368   1.921 -0.4503  0.6585  0.1257
  536SOL     OW 2141   0.389   1.956   1.999 -0.6394 -0.5560 -0.0532
  536SOL    HW1 2142   0.396   2.002   1.912  1.7920  0.9603 -0.5173
  536SOL    HW2 2143   0.478   1.934   2.021 -0.5905  0.1856  1.1843
  536SOL     MW 2144   0.402   1.959   1.991 -0.3121 -0.2581  0.0489
  537SOL     OW 2145   1.065   0.163   2.955 -1.1833  0.0730  0.1961
  537SOL    HW1 2146   1.043   0.122   3.035 -2.5827 -2.0346 -0.0826
  537SOL    HW2 2147   1.044   0.260   2.956 -2.9055 -2.7299 -0.1749
  537SOL     MW 2148   1.060   0.171   2.966 -1.5952 -0.5749  0.1103
  538SOL     OW 2149   1.325   0.103   2.965  0.1701  0.2516  0.5510
  538SOL    HW1 2150   1.237   0.129   2.968  2.0438  0.3247  0.9120
  538SOL    HW2 2151   1.371   0.127   3.044 -1.1128 -3.3499 -1.1560
  538SOL     MW 2152   1.319   0.109   2.976  0.2481 -0.2139  0.3734
  539SOL     OW 2153   0.706   2.739   2.474  0.1236  0.1835 -0.0387
  539SOL    HW1 2154   0.772   2.779   2.542 -1.6843 -1.0360  0.3345
  539SOL    HW2 2155   0.734   2.645   2.474  0.9693 -0.1912 -0.7543
  539SOL     MW 2156   0.718   2.732   2.483 -0.0033 -0.0268 -0.0839
  540SOL     OW 2157   0.359   2.269   2.852  0.4856 -0.2083 -0.1423
  540SOL    HW1 2158   0.426   2.303   2.907  1.5192  0.3126 -1.2569
  540SOL    HW2 2159   0.317   2.212   2.916  1.6355  0.2339 -1.7552
  540SOL     MW 2160   0.362   2.266   2.868  0.7737 -0.0812 -0.5022
  541SOL     OW 2161   0.148   2.869   2.278  0.0490  0.3179 -0.2992
  541SOL    HW1 2162   0.118   2.792   2.227  2.1213 -0.3742 -2.0663
  541SOL    HW2 2163   0.181   2.827   2.358 -1.3171  2.5533 -0.7275
  541SOL     MW 2164   0.149   2.853   2.282  0.1422  0.5215 -0.5889
  542SOL     OW 2165   0.858   2.326   2.813  0.1467  0.5614 -0.5956
  542SOL    HW1 2166   0.872   2.271   2.898 -0.6168 -1.0114 -3.2435
  542SOL    HW2 2167   0.943   2.373   2.804  1.1894 -0.2634 -0.1782
  542SOL     MW 2168   0.871   2.325   2.823  0.1835  0.2450 -0.8899
  543SOL     OW 2169   1.360   2.674   2.594 -0.0792 -0.4108  0.1806
  543SOL    HW1 2170   1.391   2.585   2.579  0.9773 -1.6884  0.3309
  543SOL    HW2 2171   1.434   2.716   2.643  1.1800  0.5180 -0.5830
  543SOL     MW 2172   1.374   2.668   2.598  0.2263 -0.4568  0.0997
  544SOL     OW 2173   0.668   0.084   2.706 -0.1500  0.3871 -0.0961
  544SOL    HW1 2174   0.578   0.062   2.715  1.6711  1.0456 -1.0283
  544SOL    HW2 2175   0.701   0.049   2.622  0.3444 -0.7268 -3.3010
  544SOL     MW 2176   0.661   0.076   2.696  0.1555  0.3270 -0.6420
  545SOL     OW 2177   1.522   2.197   2.405  0.5628 -0.3183 -0.1150
  545SOL    HW1 2178   1.463   2.127   2.421  0.7415 -0.5583  0.3405
  545SOL    HW2 2179   1.603   2.172   2.370 -0.9988 -3.3802 -0.3340
  545SOL     MW 2180   1.525   2.185   2.402  0.3803 -0.7540 -0.0838
  546SOL     OW 2181   2.989   1.963   0.164  0.0894  0.4584  0.0329
  546SOL    HW1 2182   2.976   2.049   0.114  0.4978  3.1939 -0.7212
  546SOL    HW2 2183   3.057   1.918   0.112 -1.4317  0.9713  0.3620
  546SOL     MW 2184   2.997   1.968   0.151 -0.0574  0.8870 -0.0232
  547SOL     OW 2185   0.132   2.879   0.070  0.0349  0.2677  0.5506
  547SOL    HW1 2186   0.168   2.913  -0.013  1.1776  0.3731 -0.2659
  547SOL    HW2 2187   0.176   2.797   0.073 -1.1241  0.0340  2.2786
  547SOL     MW 2188   0.143   2.873   0.059  0.0327  0.2507  0.6708
  548SOL     OW 2189   0.259   2.545   0.271  0.0797 -0.1642  0.2178
  548SOL    HW1 2190   0.279   2.564   0.182  0.3449 -0.2952 -1.5849
  548SOL    HW2 2191   0.164   2.561   0.275  1.3869 -0.2507 -2.0908
  548SOL     MW 2192   0.249   2.549   0.260  0.2872 -0.1929 -0.3246
  549SOL     OW 2193   0.657   1.854   2.105  1.0065 -0.5310  0.8738
  549SOL    HW1 2194   0.727   1.920   2.085  2.5778  0.8821 -1.4232
  549SOL    HW2 2195   0.674   1.812   2.190 -2.1951  2.4320 -1.2953
  549SOL     MW 2196   0.669   1.857   2.114  0.7914  0.0464  0.2845
  550SOL     OW 2197   1.744   1.816   2.476  0.4404 -0.3202  0.0917
  550SOL    HW1 2198   1.733   1.815   2.380 -1.1571 -0.5341 -1.8040
  550SOL    HW2 2199   1.774   1.903   2.502 -1.5135  1.6271  4.1651
  550SOL     MW 2200   1.747   1.827   2.467 -0.0282 -0.0915  0.3790
  551SOL     OW 2201   0.857   2.380   0.206  0.5878 -0.3371 -0.2697
  551SOL    HW1 2202   0.945   2.411   0.220 -1.9493  1.6857 -0.3309
  551SOL    HW2 2203   0.872   2.326   0.130 -0.5025  0.7533  1.6331
  551SOL     MW 2204   0.871   2.377   0.198  0.1092  0.0737 -0.0267
  552SOL     OW 2205   1.691   1.825   2.197 -0.8464 -0.7632  0.2126
  552SOL    HW1 2206   1.596   1.789   2.200 -1.0733 -2.9662  0.5221
  552SOL    HW2 2207   1.755   1.763   2.159 -1.1202 -1.0522 -0.3085
  552SOL     MW 2208   1.687   1.812   2.193 -0.9125 -1.0920  0.1847
  553SOL     OW 2209   1.231   2.280   1.536  0.5207  0.1735  0.5994
  553SOL    HW1 2210   1.280   2.199   1.563  1.3909  1.0754 -0.7640
  553SOL    HW2 2211   1.295   2.348   1.512 -0.2580 -0.9627 -0.9121
  553SOL     MW 2212   1.246   2.278   1.537  0.5328  0.1426  0.2201
  554SOL     OW 2213   0.538   2.888   2.660  0.2406 -0.0849  1.1092
  554SOL    HW1 2214   0.484   2.945   2.604 -2.8373  0.4356  1.2529
  554SOL    HW2 2215   0.589   2.845   2.593 -0.3387  0.8323 -0.2413
  554SOL     MW 2216   0.538   2.890   2.644 -0.2419  0.1048  0.9500
  555SOL     OW 2217   0.578   2.425   2.650  0.7932  0.1220 -0.1796
  555SOL    HW1 2218   0.584   2.327   2.653 -0.1128 -2.0694  0.6294
  555SOL    HW2 2219   0.670   2.435   2.664  2.8351 -2.5350 -1.8821
  555SOL     MW 2220   0.591   2.414   2.652  0.9430 -0.5177 -0.2975
  556SOL     OW 2221   1.038   1.837   0.125  0.3423  0.4725 -0.0610
  556SOL    HW1 2222   1.024   1.819   0.034  1.0868 -2.4265 -1.4362
  556SOL    HW2 2223   1.133   1.827   0.144 -1.2424 -0.4202 -0.3431
  556SOL     MW 2224   1.049   1.833   0.116  0.2314 -0.0278 -0.2797
  557SOL     OW 2225   0.999   2.648   0.452 -0.3123 -0.5105 -0.1099
  557SOL    HW1 2226   1.073   2.639   0.388 -0.2163 -0.2194 -1.8341
  557SOL    HW2 2227   0.946   2.723   0.417 -0.7637  2.2194 -0.8656
  557SOL     MW 2228   1.002   2.657   0.439 -0.3591 -0.1119 -0.4371
  558SOL     OW 2229   0.265   2.106   3.073  0.0485  0.3922  0.3461
  558SOL    HW1 2230   0.198   2.034   3.068 -0.0945 -0.2805  0.3264
  558SOL    HW2 2231   0.204   2.186   3.108  0.6115  0.4014  2.5567
  558SOL     MW 2232   0.248   2.107   3.077  0.1039  0.3046  0.6351
  559SOL     OW 2233   1.229   2.216   2.034  0.2209  0.2411 -0.5148
  559SOL    HW1 2234   1.183   2.296   2.050 -0.8037  1.9794  1.4757
  559SOL    HW2 2235   1.210   2.169   2.116  1.9050 -1.7696 -1.3061
  559SOL     MW 2236   1.221   2.220   2.047  0.3079  0.2052 -0.3566
  560SOL     OW 2237   1.929   2.931   0.058 -0.0118  0.0042  0.2222
  560SOL    HW1 2238   2.008   2.965   0.018  0.2939 -0.9161 -2.0206
  560SOL    HW2 2239   1.865   2.924  -0.012 -0.0937  0.9483 -1.9651
  560SOL     MW 2240   1.931   2.935   0.043  0.0177  0.0074 -0.3623
  561SOL     OW 2241   0.405   2.078   0.206  0.4108 -0.0586 -0.5031
  561SOL    HW1 2242   0.364   2.087   0.119  1.7400 -1.1527 -2.9938
  561SOL    HW2 2243   0.377   2.164   0.254  0.8024 -1.0363 -1.6148
  561SOL     MW 2244   0.396   2.090   0.201  0.6379 -0.3320 -0.9784
  562SOL     OW 2245   0.859   2.118   2.127  0.1155 -0.3780 -0.1959
  562SOL    HW1 2246   0.789   2.166   2.171  1.5196 -0.2995  2.8927
  562SOL    HW2 2247   0.932   2.153   2.178  0.3667  2.2278  3.5017
  562SOL     MW 2248   0.859   2.129   2.140  0.3339 -0.0238  0.6995
  563SOL     OW 2249   1.279   0.285   0.463  0.1881  0.3831  0.3035
  563SOL    HW1 2250   1.209   0.237   0.424 -2.1289  0.1269 -0.7863
  563SOL    HW2 2251   1.295   0.228   0.540  1.4059  0.1649 -1.9446
  563SOL     MW 2252   1.272   0.271   0.468  0.0431  0.3205 -0.1369
  564SOL     OW 2253   1.040   2.535   2.333 -0.6973  0.1500  0.2466
  564SOL    HW1 2254   1.088   2.510   2.253  2.4658  1.0551  1.8701
  564SOL    HW2 2255   1.091   2.604   2.376 -1.5702 -2.6504 -2.6914
  564SOL     MW 2256   1.053   2.541   2.328 -0.3951 -0.1001  0.0731
  565SOL     OW 2257   2.909   2.655   2.656  0.3314 -0.0937  0.6664
  565SOL    HW1 2258   2.966   2.729   2.657 -0.6187 -1.1544 -0.0367
  565SOL    HW2 2259   2.850   2.648   2.583 -0.1258 -0.3688 -1.8117
  565SOL     MW 2260   2.909   2.664   2.647  0.1457 -0.2699  0.2467
  566SOL     OW 2261   2.169   2.107   2.350 -0.2343 -0.1917 -0.4189
  566SOL    HW1 2262   2.187   2.120   2.258 -1.7518 -0.5396  0.3216
  566SOL    HW2 2263   2.245   2.144   2.397 -0.1510 -0.9645 -0.6252
  566SOL     MW 2264   2.181   2.114   2.344 -0.4235 -0.3395 -0.3484
  567SOL     OW 2265   1.111   2.874   0.169  0.0987 -0.0467  0.0500
  567SOL    HW1 2266   1.110   2.964   0.193  1.4617 -1.7385 -0.5068
  567SOL    HW2 2267   1.149   2.875   0.085  0.1527  1.5591 -1.2463
  567SOL     MW 2268   1.116   2.886   0.161  0.2857 -0.0580 -0.1945
  568SOL     OW 2269   1.642   2.150   2.801 -0.1865 -0.2396 -0.3755
  568SOL    HW1 2270   1.715   2.200   2.840 -0.7500 -0.8756 -2.2906
  568SOL    HW2 2271   1.692   2.091   2.748  2.6137  2.5214 -2.0167
  568SOL     MW 2272   1.659   2.149   2.799  0.1086  0.0408 -0.8447
  569SOL     OW 2273   0.043   2.215   2.505 -0.2873  0.3806  0.5144
  569SOL    HW1 2274  -0.004   2.266   2.447 -2.3659  0.7913  1.1273
  569SOL    HW2 2275   0.107   2.274   2.543 -0.2986 -1.0731  0.1598
  569SOL     MW 2276   0.045   2.229   2.502 -0.5630  0.2430  0.5485
  570SOL     OW 2277   1.568   0.347   0.456 -0.2972 -0.4448 -0.0208
  570SOL    HW1 2278   1.473   0.331   0.458 -2.4811 -0.2405  2.2411
  570SOL    HW2 2279   1.596   0.398   0.529  0.9173 -0.7017  0.4882
  570SOL     MW 2280   1.560   0.352   0.466 -0.4251 -0.4517  0.3448
  571SOL     OW 2281   1.451   2.421   1.942 -0.1985  0.1040  0.7507
  571SOL    HW1 2282   1.436   2.423   2.039 -0.7078  0.0465 -1.0321
  571SOL    HW2 2283   1.478   2.336   1.915 -1.5503 -0.2199  0.1880
  571SOL     MW 2284   1.452   2.410   1.951 -0.4441  0.0537  0.4412
  572SOL     OW 2285   0.900   2.550   3.046  0.3906 -0.3100 -0.0759
  572SOL    HW1 2286   0.871   2.587   2.962 -4.2040 -0.3827 -0.8868
  572SOL    HW2 2287   0.828   2.579   3.103  0.3997  1.6552 -0.6484
  572SOL     MW 2288   0.887   2.559   3.043 -0.2144 -0.0603 -0.2584
  573SOL     OW 2289   1.138   2.397   0.207  0.1707  0.3266 -0.1982
  573SOL    HW1 2290   1.214   2.349   0.170 -2.4722  0.7598 -0.4765
  573SOL    HW2 2291   1.176   2.477   0.239  1.6713  0.9370  1.6657
  573SOL     MW 2292   1.153   2.402   0.206  0.0200  0.4643  0.0110
  574SOL     OW 2293   1.226   2.678   0.295  0.2725 -0.3642 -0.5340
  574SOL    HW1 2294   1.312   2.693   0.334 -1.1385 -0.0303 -0.7268
  574SOL    HW2 2295   1.186   2.759   0.259  1.8498  1.0898 -1.7279
  574SOL     MW 2296   1.232   2.690   0.295  0.2944 -0.1283 -0.7170
  575SOL     OW 2297   3.080   2.252   1.870  0.3040  0.1009 -0.7119
  575SOL    HW1 2298   3.060   2.174   1.819  0.3259  1.8198  0.3275
  575SOL    HW2 2299   3.127   2.311   1.812 -2.1335 -1.7273 -3.5151
  575SOL     MW 2300   3.083   2.249   1.856 -0.0147  0.0865 -0.9446
  576SOL     OW 2301   2.744   1.846   2.078  0.1159  0.2448  0.0410
  576SOL    HW1 2302   2.774   1.921   2.028  1.1193 -4.2976 -0.6709
  576SOL    HW2 2303   2.661   1.820   2.042 -0.5573  0.7820  0.0413
  576SOL     MW 2304   2.737   1.853   2.067  0.1595 -0.2837 -0.0529
  577SOL     OW 2305   2.049   0.357   0.073  0.3339  0.2203  0.0377
  577SOL    HW1 2306   1.980   0.395   0.021  3.1579  1.9352 -0.7252
  577SOL    HW2 2307   2.009   0.283   0.121 -1.7726 -3.0690  0.8395
  577SOL     MW 2308   2.034   0.352   0.073  0.4285  0.0126  0.0428
  578SOL     OW 2309   1.896   2.197   2.375  0.6284  0.0707 -0.1809
  578SOL    HW1 2310   1.866   2.186   2.288  2.1548  1.1761  2.1489
  578SOL    HW2 2311   1.988   2.157   2.365  0.8633 -0.7463 -0.3900
  578SOL     MW 2312   1.904   2.190   2.362  0.8608  0.1088  0.0989
  579SOL     OW 2313   0.826   2.494   2.510 -0.4325  0.3706 -0.4227
  579SOL    HW1 2314   0.878   2.502   2.589 -2.3111  1.4200 -2.2167
  579SOL    HW2 2315   0.898   2.501   2.441  0.4078  1.7405  0.6993
  579SOL     MW 2316   0.842   2.496   2.511 -0.5695  0.6898 -0.5114
  580SOL     OW 2317   0.908   2.880   3.059 -0.6489 -0.5047  0.2957
  580SOL    HW1 2318   0.992   2.841   3.098  1.9937 -3.1866 -1.2779
  580SOL    HW2 2319   0.864   2.808   3.006 -1.0830  0.7046 -2.3951
  580SOL     MW 2320   0.913   2.866   3.057 -0.3575 -0.6990 -0.2670
  581SOL     OW 2321   1.058   2.554   1.767  0.1866 -0.1609 -0.1594
  581SOL    HW1 2322   1.140   2.592   1.801  0.5081 -0.1715  0.1515
  581SOL    HW2 2323   1.067   2.453   1.771 -2.1883 -0.8381 -3.6103
  581SOL     MW 2324   1.070   2.546   1.772 -0.0843 -0.2516 -0.5737
  582SOL     OW 2325   3.076   2.883   2.634  0.6930  0.3376  0.2373
  582SOL    HW1 2326   3.065   2.957   2.696  1.0775 -2.1984  0.5452
  582SOL    HW2 2327   3.171   2.880   2.603 -0.1260  1.0152 -2.0190
  582SOL     MW 2328   3.087   2.893   2.638  0.6357  0.0924 -0.0198
  583SOL     OW 2329   1.944   2.524   2.738 -0.1937 -1.0893  0.0289
  583SOL    HW1 2330   1.977   2.570   2.659  2.2429  1.6814 -2.0607
  583SOL    HW2 2331   1.939   2.429   2.719 -1.3929 -1.1646  1.4694
  583SOL     MW 2332   1.948   2.518   2.725 -0.0304 -0.7336 -0.0567
  584SOL     OW 2333   0.172   1.842   2.123  0.0695 -0.1421 -0.7263
  584SOL    HW1 2334   0.254   1.858   2.072  0.1136  0.1143  1.8772
  584SOL    HW2 2335   0.169   1.905   2.194  0.1284 -1.5519 -0.6267
  584SOL     MW 2336   0.182   1.853   2.126  0.0831 -0.2943 -0.3696
  585SOL     OW 2337   1.476   2.551   0.086 -1.0551 -0.1189 -0.8823
  585SOL    HW1 2338   1.460   2.622   0.020 -0.6146 -2.3681  2.6423
  585SOL    HW2 2339   1.463   2.599   0.170  0.4882 -0.0249  3.0375
  585SOL     MW 2340   1.472   2.567   0.088 -0.7934 -0.4032  0.0999
  586SOL     OW 2341   1.260   2.962   2.335 -0.0642  0.1490 -0.3242
  586SOL    HW1 2342   1.320   2.886   2.319 -2.3495  1.5312 -1.9428
  586SOL    HW2 2343   1.259   2.993   2.425  0.8978 -1.8103  0.4450
  586SOL     MW 2344   1.268   2.956   2.345 -0.2388  0.0728 -0.4362
  587SOL     OW 2345   1.191   1.617   2.182  0.0069  0.2346 -0.3432
  587SOL    HW1 2346   1.214   1.561   2.254  0.7259  1.4474 -2.2088
  587SOL    HW2 2347   1.169   1.557   2.109  1.6378 -4.1165 -1.0451
  587SOL     MW 2348   1.191   1.602   2.182  0.3170 -0.1795 -0.6819
  588SOL     OW 2349   1.376   2.220   2.730  0.2281  0.0290  0.2174
  588SOL    HW1 2350   1.450   2.162   2.756  1.2784  1.6111 -0.6695
  588SOL    HW2 2351   1.305   2.172   2.776 -3.7700 -5.0095  1.2600
  588SOL     MW 2352   1.377   2.206   2.739 -0.1608 -0.4271  0.2380
  589SOL     OW 2353   1.322   2.040  -0.005  0.0551 -0.0406  0.8408
  589SOL    HW1 2354   1.310   2.129   0.025 -2.6387  2.2658  0.0655
  589SOL    HW2 2355   1.339   1.988   0.073 -0.3262  0.4567  0.4552
  589SOL     MW 2356   1.323   2.045   0.009 -0.3506  0.3293  0.6876
  590SOL     OW 2357   0.446   2.536   2.246  0.2030  0.3448 -0.0490
  590SOL    HW1 2358   0.379   2.574   2.185  0.5396  2.0998 -0.9588
  590SOL    HW2 2359   0.519   2.507   2.190  0.4378  0.9892 -0.5675
  590SOL     MW 2360   0.447   2.537   2.230  0.2784  0.6614 -0.2374
  591SOL     OW 2361   2.229   0.685   3.022 -0.2665 -0.6271  0.2300
  591SOL    HW1 2362   2.151   0.671   2.973 -0.3205 -1.2996 -3.8614
  591SOL    HW2 2363   2.295   0.677   2.950  1.3849 -1.8543  2.1528
  591SOL     MW 2364   2.228   0.682   3.006 -0.0558 -0.8777 -0.0562
  592SOL     OW 2365   1.880   2.876   0.815 -0.8062  0.0210  0.2211
  592SOL    HW1 2366   1.914   2.934   0.748 -0.8931  1.5060 -3.2036
  592SOL    HW2 2367   1.912   2.786   0.806  0.5821  2.2534  0.8698
  592SOL     MW 2368   1.889   2.871   0.805 -0.6345  0.5115 -0.1452
  593SOL     OW 2369   1.905   0.832   0.909  0.3682  0.2578  0.1303
  593SOL    HW1 2370   1.836   0.835   0.845  1.8107 -1.6238  0.1099
  593SOL    HW2 2371   1.915   0.734   0.932 -1.4678 -1.2428 -2.7207
  593SOL     MW 2372   1.898   0.819   0.904  0.3163 -0.1885 -0.2485
  594SOL     OW 2373   2.773   1.103   1.427 -0.0270  0.1455 -0.3030
  594SOL    HW1 2374   2.851   1.156   1.436  0.0885 -2.9386 -0.7853
  594SOL    HW2 2375   2.767   1.087   1.332 -0.0654 -1.7839 -1.0020
  594SOL     MW 2376   2.783   1.108   1.416 -0.0169 -0.5160 -0.4588
  595SOL     OW 2377   0.420   0.989   0.702 -0.1822  0.4782  0.7263
  595SOL    HW1 2378   0.502   1.036   0.653  2.2894  1.5240 -0.7187
  595SOL    HW2 2379   0.446   1.015   0.797 -2.5235  1.2228 -0.3890
  595SOL     MW 2380   0.434   0.998   0.708 -0.1650  0.7144  0.3885
  596SOL     OW 2381   2.434   1.342   0.599 -0.7760  0.1355  0.4357
  596SOL    HW1 2382   2.468   1.429   0.573  1.3798 -0.0452  1.8537
  596SOL    HW2 2383   2.498   1.303   0.666  0.1256  0.4746 -0.1362
  596SOL     MW 2384   2.447   1.348   0.605 -0.3726  0.1564  0.5473
  597SOL     OW 2385   2.303   0.666   1.708 -0.0255 -0.0063 -0.3899
  597SOL    HW1 2386   2.313   0.603   1.787 -1.6512 -1.7606  4.3338
  597SOL    HW2 2387   2.313   0.604   1.633  3.1689 -0.3039  0.5053
  597SOL     MW 2388   2.306   0.650   1.709  0.1815 -0.2770  0.3515
  598SOL     OW 2389   2.618   1.036   2.809 -0.1056 -0.7064 -0.3287
  598SOL    HW1 2390   2.646   0.949   2.781 -0.9412 -0.6959 -1.6985
  598SOL    HW2 2391   2.679   1.067   2.869 -0.0409 -2.4571 -1.2380
  598SOL     MW 2392   2.630   1.029   2.813 -0.2073 -0.9360 -0.6294
  599SOL     OW 2393   2.898   0.364   2.095  0.4255  0.2103 -0.0622
  599SOL    HW1 2394   2.883   0.342   2.187  0.8855  0.8094 -1.3284
  599SOL    HW2 2395   2.948   0.445   2.083 -0.3981  0.7648  0.4483
  599SOL     MW 2396   2.902   0.372   2.105  0.3775  0.3625 -0.1619
  600SOL     OW 2397   1.843   1.637   0.861  0.2848 -0.4928  0.1568
  600SOL    HW1 2398   1.871   1.591   0.945 -0.3349 -0.0335  3.7399
  600SOL    HW2 2399   1.760   1.678   0.877  0.9965 -1.4059 -0.3074
  600SOL     MW 2400   1.836   1.637   0.874  0.2969 -0.5527  0.5683
  601SOL     OW 2401   2.457   0.725   0.882 -0.2570  0.1601  0.2118
  601SOL    HW1 2402   2.512   0.741   0.962  2.8664 -0.0795 -1.9705
  601SOL    HW2 2403   2.362   0.693   0.891 -2.2287 -0.1132  1.4244
  601SOL     MW 2404   2.452   0.723   0.894 -0.1051  0.0924  0.0838
  602SOL     OW 2405   2.290   1.940   0.747 -0.5982 -0.3472 -0.2780
  602SOL    HW1 2406   2.211   1.895   0.783  0.9866 -1.1677 -0.8746
  602SOL    HW2 2407   2.284   1.930   0.654 -1.4214  1.7905 -2.4183
  602SOL     MW 2408   2.279   1.932   0.740 -0.4977 -0.1734 -0.6391
  603SOL     OW 2409   3.017   1.369   1.846 -0.0410 -0.3906 -0.0654
  603SOL    HW1 2410   3.100   1.412   1.854 -0.9438 -1.1187 -0.5658
  603SOL    HW2 2411   3.026   1.281   1.816  0.3582  0.3995  0.1158
  603SOL     MW 2412   3.029   1.363   1.843 -0.1074 -0.3825 -0.1075
  604SOL     OW 2413   2.101   1.521   0.477 -0.6461  0.1718  0.1422
  604SOL    HW1 2414   2.121   1.470   0.556 -0.9144 -1.2410 -0.3450
  604SOL    HW2 2415   2.027   1.574   0.500 -0.5494  3.5201  0.1236
  604SOL     MW 2416   2.094   1.521   0.491 -0.6687  0.4272  0.0755
  605SOL     OW 2417   2.666   1.558   0.826  0.3720 -0.4613 -0.4044
  605SOL    HW1 2418   2.617   1.605   0.760 -2.1994  0.7257 -1.3387
  605SOL    HW2 2419   2.609   1.502   0.875 -1.1997 -0.7539  1.8518
  605SOL     MW 2420   2.652   1.557   0.824 -0.1747 -0.3433 -0.2300
  606SOL     OW 2421   2.544   1.827   1.895 -0.1699  0.2952 -0.2216
  606SOL    HW1 2422   2.451   1.816   1.894 -1.3327  1.4361 -0.0052
  606SOL    HW2 2423   2.595   1.745   1.894  1.4046  1.5813  0.2950
  606SOL     MW 2424   2.539   1.815   1.894 -0.1156  0.6154 -0.1249
  607SOL     OW 2425   2.391   1.045   2.962  0.1396  0.1030  0.1786
  607SOL    HW1 2426   2.484   1.063   2.933  3.5057 -1.2754  1.8395
  607SOL    HW2 2427   2.391   1.063   3.054 -0.3473 -2.7846 -2.4719
  607SOL     MW 2428   2.403   1.049   2.970  0.5195 -0.4598  0.0481
  608SOL     OW 2429   1.917   0.290   0.677 -0.8649 -0.5915 -0.3014
  608SOL    HW1 2430   1.929   0.307   0.585  2.3703  0.8076  2.0310
  608SOL    HW2 2431   1.887   0.196   0.689 -0.7169 -0.0986  2.0779
  608SOL     MW 2432   1.914   0.280   0.667 -0.4185 -0.3418  0.3202
  609SOL     OW 2433   2.113   1.957   3.013  0.3209 -0.1411 -0.4596
  609SOL    HW1 2434   2.061   1.879   2.992 -2.6451  1.2927  1.3622
  609SOL    HW2 2435   2.159   1.942   3.095  2.3281  1.8032 -2.3100
  609SOL     MW 2436   2.112   1.945   3.021  0.1944  0.3046 -0.4634
  610SOL     OW 2437   1.838   1.081   1.367 -0.2306 -0.4441  0.5498
  610SOL    HW1 2438   1.840   1.024   1.290 -0.8415  1.3460  0.5883
  610SOL    HW2 2439   1.761   1.049   1.422 -0.8043 -0.4610 -0.1706
  610SOL     MW 2440   1.828   1.070   1.364 -0.3869 -0.2101  0.4598
  611SOL     OW 2441   2.537   1.823   0.734 -0.3084 -0.6833  0.1131
  611SOL    HW1 2442   2.452   1.862   0.759 -2.5849  0.6155  2.2885
  611SOL    HW2 2443   2.540   1.793   0.640 -2.6687 -0.2872 -1.7857
  611SOL     MW 2444   2.527   1.824   0.725 -0.9202 -0.4597  0.1496
  612SOL     OW 2445   2.768   2.789   0.374 -0.0058 -0.0605  0.1289
  612SOL    HW1 2446   2.847   2.841   0.401 -1.2263 -1.0438  1.2819
  612SOL    HW2 2447   2.775   2.779   0.281 -1.5871 -0.2404  1.2426
  612SOL     MW 2448   2.779   2.795   0.365 -0.3754 -0.2140  0.4280
  613SOL     OW 2449   1.637   1.004   1.098  0.3497 -0.0385  0.2739
  613SOL    HW1 2450   1.618   1.063   1.172  0.2440 -0.0651 -0.6213
  613SOL    HW2 2451   1.720   0.958   1.118  0.2373  0.6737 -0.9931
  613SOL     MW 2452   1.646   1.006   1.111  0.3209  0.0519 -0.0114
  614SOL     OW 2453   2.054   0.505   1.517 -0.9045  0.3509 -0.3430
  614SOL    HW1 2454   2.074   0.433   1.580  0.3471 -1.0016 -0.8826
  614SOL    HW2 2455   2.091   0.473   1.434 -0.6363  0.6366  1.1251
  614SOL     MW 2456   2.061   0.492   1.514 -0.7039  0.2101 -0.2205
  615SOL     OW 2457   2.243   0.810   0.180  0.0173 -0.3640  0.3778
  615SOL    HW1 2458   2.278   0.745   0.239  1.8852 -1.7725 -1.5890
  615SOL    HW2 2459   2.253   0.776   0.088 -1.9137  0.0114 -1.1536
  615SOL     MW 2460   2.249   0.797   0.176  0.0089 -0.5003 -0.0838
  616SOL     OW 2461   2.618   0.369   1.616  0.1312 -0.3269  0.4412
  616SOL    HW1 2462   2.546   0.319   1.580  1.4697 -1.0366  1.5506
  616SOL    HW2 2463   2.634   0.438   1.556  0.2777 -1.6679 -0.0389
  616SOL     MW 2464   2.611   0.371   1.603  0.3271 -0.5975  0.5242
  617SOL     OW 2465   2.895   0.563   1.761  0.5743 -0.2621 -0.3818
  617SOL    HW1 2466   2.811   0.569   1.801 -0.2615  1.8367 -0.4885
  617SOL    HW2 2467   2.917   0.471   1.738  1.0309  0.7505 -0.3179
  617SOL     MW 2468   2.887   0.552   1.763  0.5242  0.1484 -0.3875
  618SOL     OW 2469   2.666   0.343   1.940  0.1063  0.5454 -0.1072
  618SOL    HW1 2470   2.647   0.419   1.885 -0.6140  0.9949 -0.9243
  618SOL    HW2 2471   2.747   0.374   1.986  1.1689 -1.9747 -0.4788
  618SOL     MW 2472   2.674   0.357   1.939  0.1515  0.2722 -0.2641
  619SOL     OW 2473   2.575   0.778   0.151 -0.4798  0.5208  0.0132
  619SOL    HW1 2474   2.633   0.838   0.201  0.8485 -0.1272  0.0762
  619SOL    HW2 2475   2.515   0.748   0.216  0.9820  0.0812  1.2244
  619SOL     MW 2476   2.575   0.782   0.166 -0.1117  0.3773  0.1813
  620SOL     OW 2477   2.294   1.135   0.922  0.1696  0.2698  0.3862
  620SOL    HW1 2478   2.372   1.095   0.886  1.3095 -0.2938 -0.4324
  620SOL    HW2 2479   2.237   1.064   0.906  1.0514  1.4202 -0.0781
  620SOL     MW 2480   2.297   1.120   0.915  0.4363  0.3473  0.2170
  621SOL     OW 2481   1.489   2.165   1.971  0.5279  0.0684  0.0755
  621SOL    HW1 2482   1.395   2.169   1.976  0.1016  2.3385  0.2710
  621SOL    HW2 2483   1.534   2.164   2.057  2.3699 -3.1353 -0.1006
  621SOL     MW 2484   1.483   2.165   1.983  0.7147 -0.0548  0.0781
  622SOL     OW 2485   2.631   0.225   0.094 -0.2367  0.0958  0.0502
  622SOL    HW1 2486   2.699   0.266   0.144  0.6151  1.0933 -0.8287
  622SOL    HW2 2487   2.656   0.135   0.068 -0.8803 -1.7988 -0.5955
  622SOL     MW 2488   2.643   0.219   0.097 -0.2092 -0.0226 -0.1509
  623SOL     OW 2489   2.431   2.769   0.836 -0.5899 -0.2977  0.0906
  623SOL    HW1 2490   2.471   2.856   0.833  0.0278  1.8328 -1.0113
  623SOL    HW2 2491   2.353   2.788   0.890  0.7423 -0.1392  0.6268
  623SOL     MW 2492   2.426   2.783   0.843 -0.3326  0.0043  0.0160
  624SOL     OW 2493   2.206   1.635   2.888  0.4442 -0.4697  0.6172
  624SOL    HW1 2494   2.160   1.568   2.943 -1.2979 -2.4717 -2.2321
  624SOL    HW2 2495   2.133   1.683   2.849 -1.0578  1.3674  0.9571
  624SOL     MW 2496   2.190   1.632   2.890  0.0162 -0.4915  0.2861
  625SOL     OW 2497   2.218   1.944   1.068  0.1372 -0.2591  0.5606
  625SOL    HW1 2498   2.283   1.909   1.129  0.2304  1.6179  0.7348
  625SOL    HW2 2499   2.263   1.984   0.999 -0.5682 -0.8698  1.8974
  625SOL     MW 2500   2.233   1.945   1.067  0.0564 -0.0920  0.7599
  626SOL     OW 2501   0.112   1.567   2.408 -0.3663  0.4270  0.1563
  626SOL    HW1 2502   0.030   1.534   2.366  0.9179  3.2700  0.1339
  626SOL    HW2 2503   0.081   1.603   2.495 -2.4502 -3.0150  2.4898
  626SOL     MW 2504   0.097   1.568   2.414 -0.4718  0.3480  0.4613
  627SOL     OW 2505   2.446   0.801   2.597 -0.1019  0.1525 -0.0098
  627SOL    HW1 2506   2.377   0.868   2.574 -1.0241  1.6949 -0.9136
  627SOL    HW2 2507   2.443   0.743   2.520 -0.2411 -0.0934  1.2933
  627SOL     MW 2508   2.436   0.802   2.584 -0.2420  0.3236  0.0429
  628SOL     OW 2509   2.311   1.385   1.349  0.0131  0.2004 -0.0052
  628SOL    HW1 2510   2.280   1.311   1.288  1.2061 -0.1084  0.7861
  628SOL    HW2 2511   2.408   1.396   1.330  0.1503 -1.5477  0.5008
  628SOL     MW 2512   2.320   1.376   1.338  0.1886 -0.0710  0.1660
  629SOL     OW 2513   2.057   0.531   1.226 -0.4095  0.5895  0.2295
  629SOL    HW1 2514   2.106   0.615   1.212 -2.1647  0.0082  1.1285
  629SOL    HW2 2515   1.964   0.559   1.245 -2.6643  1.0985 -1.0825
  629SOL     MW 2516   2.051   0.546   1.226 -0.9386  0.5800  0.1750
  630SOL     OW 2517   2.485   1.825   3.074  0.3444  0.1919  0.7027
  630SOL    HW1 2518   2.436   1.846   2.996 -0.6763 -0.5062  0.4934
  630SOL    HW2 2519   2.432   1.783   3.136  0.5193  3.6085 -1.4786
  630SOL     MW 2520   2.472   1.822   3.072  0.2328  0.5506  0.3872
  631SOL     OW 2521   1.980   1.794   1.624 -0.0178 -0.1611 -0.1570
  631SOL    HW1 2522   1.980   1.710   1.678  2.0259  1.1442 -0.4997
  631SOL    HW2 2523   1.979   1.762   1.529  0.9849 -0.3382  1.5383
  631SOL     MW 2524   1.980   1.779   1.619  0.3841 -0.0122  0.0214
  632SOL     OW 2525   0.161   2.053   1.586  0.2434  0.6386  0.8355
  632SOL    HW1 2526   0.070   2.045   1.629  0.8216  0.8747 -2.3298
  632SOL    HW2 2527   0.169   1.966   1.540  1.2937  1.3255  0.0332
  632SOL     MW 2528   0.150   2.041   1.585  0.4583  0.7604  0.3120
  633SOL     OW 2529   2.422   0.693   0.370  0.5081  0.0641 -0.7444
  633SOL    HW1 2530   2.513   0.679   0.406  1.2721  2.2249  1.9885
  633SOL    HW2 2531   2.378   0.605   0.366  1.8199  3.6764  0.7258
  633SOL     MW 2532   2.428   0.679   0.374  0.7820  0.8258 -0.1899
  634SOL     OW 2533   2.589   3.084   0.595  0.3947  0.2997  0.5274
  634SOL    HW1 2534   2.616   3.167   0.562 -0.6649  0.0041  1.1794
  634SOL    HW2 2535   2.558   3.036   0.516 -0.2311 -0.2240 -0.9891
  634SOL     MW 2536   2.588   3.088   0.580  0.1723  0.1916  0.4133
  635SOL     OW 2537   2.615   0.080   1.853  0.7123  0.2967 -0.7116
  635SOL    HW1 2538   2.686   0.037   1.794  0.5590 -2.7671  0.4603
  635SOL    HW2 2539   2.642   0.173   1.861 -0.6317  1.4244 -1.2423
  635SOL     MW 2540   2.628   0.087   1.846  0.5147  0.0413 -0.6270
  636SOL     OW 2541   2.939   1.676   1.001 -0.4609  0.2899  0.8102
  636SOL    HW1 2542   2.879   1.736   0.949  0.1119 -0.9260 -0.4746
  636SOL    HW2 2543   2.936   1.706   1.093  0.4265 -0.0218 -0.7688
  636SOL     MW 2544   2.931   1.688   1.006 -0.2683  0.0884  0.4324
  637SOL     OW 2545   2.888   1.467   0.692  0.1916  0.7357 -0.1654
  637SOL    HW1 2546   2.949   1.538   0.706  0.2654 -1.7658 -0.0131
  637SOL    HW2 2547   2.809   1.496   0.745 -0.0319  0.8921  2.6741
  637SOL     MW 2548   2.885   1.480   0.700  0.1718  0.4263  0.2293
  638SOL     OW 2549   2.663   0.692   0.490 -0.2730  0.1565 -0.5193
  638SOL    HW1 2550   2.749   0.667   0.453  0.7193  1.4488 -0.0347
  638SOL    HW2 2551   2.659   0.658   0.580  0.4703  0.7650 -0.1395
  638SOL     MW 2552   2.674   0.684   0.497 -0.0440  0.4073 -0.4053
  639SOL     OW 2553   1.916   0.004   0.637  0.2174 -0.6142 -0.2505
  639SOL    HW1 2554   1.853  -0.016   0.568 -1.7556  2.3131  1.2899
  639SOL    HW2 2555   1.995  -0.025   0.602  1.0753 -0.9837  0.1484
  639SOL     MW 2556   1.918  -0.002   0.623  0.0703 -0.2767  0.0054
  640SOL     OW 2557   0.383   1.408   0.111  0.2550 -0.4676  0.2283
  640SOL    HW1 2558   0.421   1.461   0.044 -1.5817  0.3319  0.0372
  640SOL    HW2 2559   0.356   1.327   0.062 -0.9799 -0.6553  1.0682
  640SOL     MW 2560   0.384   1.404   0.096 -0.1503 -0.3869  0.3139
  641SOL     OW 2561   2.288   0.441   0.407  0.2382  0.4779 -0.6819
  641SOL    HW1 2562   2.277   0.393   0.327  1.4853  2.6447 -0.9739
  641SOL    HW2 2563   2.364   0.403   0.449  2.4553 -1.0094  0.7290
  641SOL     MW 2564   2.296   0.430   0.402  0.6952  0.5675 -0.5343
  642SOL     OW 2565   3.087   0.037   0.476 -0.1026  0.0540 -0.0750
  642SOL    HW1 2566   3.046   0.123   0.479  1.1375 -0.0834  2.0957
  642SOL    HW2 2567   3.027  -0.015   0.530  1.7073 -0.5919 -0.3685
  642SOL     MW 2568   3.073   0.042   0.484  0.2998 -0.0493  0.1727
  643SOL     OW 2569   2.114   0.262   1.667 -0.4628  0.0612 -0.3207
  643SOL    HW1 2570   2.193   0.219   1.698 -1.0260 -0.0176 -0.6714
  643SOL    HW2 2571   2.098   0.216   1.583 -1.0204  1.3779  1.4383
  643SOL     MW 2572   2.122   0.250   1.660 -0.6107  0.2245 -0.1349
  644SOL     OW 2573   2.739   1.850   0.913 -0.1957 -0.6749 -0.3683
  644SOL    HW1 2574   2.700   1.833   0.997  0.8899  1.0252  1.9106
  644SOL    HW2 2575   2.674   1.834   0.842 -0.6667 -0.8395  1.1345
  644SOL     MW 2576   2.725   1.846   0.915 -0.1146 -0.4723  0.1306
  645SOL     OW 2577   2.774   0.909   0.582 -0.5877 -0.0911  0.4549
  645SOL    HW1 2578   2.836   0.874   0.647  0.8245  0.7662  2.1770
  645SOL    HW2 2579   2.722   0.839   0.537 -0.6272  1.6770 -0.8125
  645SOL     MW 2580   2.775   0.895   0.585 -0.4065  0.2553  0.5149
  646SOL     OW 2581   0.073   2.332   0.883  0.0737  0.2465 -0.4303
  646SOL    HW1 2582   0.123   2.250   0.882 -1.2145 -0.9190 -0.3899
  646SOL    HW2 2583   0.021   2.339   0.795  3.8626 -1.0514  2.3577
  646SOL     MW 2584   0.073   2.322   0.871  0.4036 -0.0785 -0.0571
  647SOL     OW 2585   2.758   0.572   3.013 -0.2986  0.3461  0.2622
  647SOL    HW1 2586   2.687   0.514   3.026  1.8665  2.3905  0.6672
  647SOL    HW2 2587   2.715   0.654   2.989 -1.0147  4.6765 -0.7529
  647SOL     MW 2588   2.743   0.575   3.012 -0.1074  1.1872  0.1817
  648SOL     OW 2589   2.211   0.738   1.105  0.4050  0.1178 -0.3060
  648SOL    HW1 2590   2.216   0.789   1.024 -0.6649 -0.1751  3.1506
  648SOL    HW2 2591   2.227   0.801   1.177 -2.8765  0.7880 -2.1087
  648SOL     MW 2592   2.214   0.753   1.104 -0.1691  0.1676 -0.0878
  649SOL     OW 2593   2.366   2.694   1.205  0.2764 -0.0711 -0.2046
  649SOL    HW1 2594   2.418   2.772   1.194  0.1739  0.2753  3.2980
  649SOL    HW2 2595   2.418   2.618   1.187 -3.2999 -2.3412 -0.7881
  649SOL     MW 2596   2.379   2.695   1.201 -0.2090 -0.3249  0.1805
  650SOL     OW 2597   2.741   0.232   0.642  0.1150 -0.0171 -0.1963
  650SOL    HW1 2598   2.746   0.263   0.735  0.8275 -1.1937  0.5519
  650SOL    HW2 2599   2.822   0.244   0.596 -2.0126  1.0561  0.3799
  650SOL     MW 2600   2.752   0.237   0.648 -0.0717 -0.0307 -0.0216
  651SOL     OW 2601   3.040   0.274   0.821  0.1522  0.0438 -0.2337
  651SOL    HW1 2602   3.095   0.339   0.777 -0.3255 -0.3989  0.4948
  651SOL    HW2 2603   2.955   0.318   0.844 -1.8895  1.8666 -1.6703
  651SOL     MW 2604   3.036   0.288   0.818 -0.1802  0.2259 -0.3272
  652SOL     OW 2605   2.407   1.472   2.976 -0.0391 -0.6107  0.0081
  652SOL    HW1 2606   2.478   1.465   2.911 -0.0860  1.6626 -0.2288
  652SOL    HW2 2607   2.359   1.549   2.943 -0.3077  2.0622 -0.3252
  652SOL     MW 2608   2.410   1.482   2.963 -0.0807  0.0419 -0.0672
  653SOL     OW 2609   2.003   0.369   0.427 -0.6532 -0.2170 -0.6374
  653SOL    HW1 2610   1.972   0.290   0.377  0.9668 -1.3856 -0.6040
  653SOL    HW2 2611   2.098   0.384   0.410 -1.2502 -1.6855  1.3893
  653SOL     MW 2612   2.012   0.361   0.418 -0.5182 -0.5649 -0.3656
  654SOL     OW 2613   2.448   0.999   0.760  0.4594  0.0911 -0.2972
  654SOL    HW1 2614   2.380   1.011   0.689 -0.0698 -0.6979 -0.1740
  654SOL    HW2 2615   2.439   0.911   0.795  1.3348  2.0929  3.9803
  654SOL     MW 2616   2.438   0.989   0.755  0.5051  0.2511  0.2834
  655SOL     OW 2617   3.062   0.942   0.434  0.2375 -0.2264  0.2183
  655SOL    HW1 2618   3.055   0.996   0.514  0.3616 -0.8094  0.6756
  655SOL    HW2 2619   3.106   0.861   0.452  1.0876 -1.0151 -1.6122
  655SOL     MW 2620   3.067   0.939   0.447  0.3660 -0.4073  0.0371
  656SOL     OW 2621   1.965   2.728   1.246  0.1570  0.1607 -0.5588
  656SOL    HW1 2622   1.958   2.822   1.268 -1.0573 -2.5397  0.8449
  656SOL    HW2 2623   2.012   2.679   1.317 -1.7941  2.5138  1.3515
  656SOL     MW 2624   1.970   2.734   1.258 -0.2607  0.1149 -0.1215
  657SOL     OW 2625   0.228   1.648   1.267 -0.3315  0.0063  0.8830
  657SOL    HW1 2626   0.149   1.595   1.269 -0.8556 -1.3540 -0.8472
  657SOL    HW2 2627   0.236   1.665   1.171  0.3849 -0.7899  1.9283
  657SOL     MW 2628   0.219   1.643   1.254 -0.3061 -0.2782  0.7926
  658SOL     OW 2629   2.654   1.336   0.259  0.3272  0.4472  0.3445
  658SOL    HW1 2630   2.581   1.285   0.296  1.7156 -1.6861 -1.7505
  658SOL    HW2 2631   2.693   1.390   0.332  0.4784 -0.7870  0.4994
  658SOL     MW 2632   2.650   1.336   0.274  0.5303  0.0029  0.0885
  659SOL     OW 2633   2.219   1.536   1.023 -0.0999 -0.0097 -0.1412
  659SOL    HW1 2634   2.309   1.502   1.003  3.5605  0.7283 -0.5568
  659SOL    HW2 2635   2.228   1.591   1.095 -1.4999  2.4026 -0.4410
  659SOL     MW 2636   2.232   1.539   1.030  0.1983  0.4060 -0.2356
  660SOL     OW 2637   2.016   1.557   1.788  0.1188 -0.6249 -0.1865
  660SOL    HW1 2638   2.042   1.554   1.874  0.1178  0.3697  0.2568
  660SOL    HW2 2639   1.994   1.467   1.783 -0.2914  1.3858 -1.1458
  660SOL     MW 2640   2.016   1.545   1.799  0.0646 -0.2284 -0.2546
  661SOL     OW 2641   2.326   1.064   0.166 -0.2983  0.1258  0.1463
  661SOL    HW1 2642   2.374   1.098   0.243 -0.0893  4.0490  1.8030
  661SOL    HW2 2643   2.315   0.968   0.184  3.2705  0.3512 -2.2225
  661SOL     MW 2644   2.331   1.056   0.178  0.2001  0.6732  0.0523
  662SOL     OW 2645   2.605   3.000   0.871 -0.3726 -0.6042 -0.4999
  662SOL    HW1 2646   2.537   3.046   0.916  2.2289 -0.4711  0.2075
  662SOL    HW2 2647   2.596   3.039   0.781 -0.3217  3.1328  0.9653
  662SOL     MW 2648   2.595   3.011   0.865 -0.0226 -0.0936 -0.2133
  663SOL     OW 2649   2.811   1.508   0.448  0.4533  0.2120 -0.3840
  663SOL    HW1 2650   2.903   1.515   0.427 -3.5500  3.0801 -0.6026
  663SOL    HW2 2651   2.820   1.483   0.536  1.3574  0.3652 -0.9123
  663SOL     MW 2652   2.824   1.505   0.457  0.0444  0.6106 -0.4825
  664SOL     OW 2653   2.482   1.558   1.643 -0.2743  0.2173  0.1005
  664SOL    HW1 2654   2.454   1.645   1.618 -1.1008 -0.6455 -0.8228
  664SOL    HW2 2655   2.395   1.505   1.643 -1.0421  2.7610 -0.5210
  664SOL     MW 2656   2.467   1.562   1.640 -0.4847  0.4391 -0.1033
  665SOL     OW 2657   2.862   0.824   2.063  0.3072 -0.1222 -0.8062
  665SOL    HW1 2658   2.853   0.864   1.972 -2.2455  1.2653 -1.2950
  665SOL    HW2 2659   2.953   0.807   2.069  1.0217 -1.0881 -2.2702
  665SOL     MW 2660   2.873   0.827   2.051  0.0647 -0.0666 -1.0638
  666SOL     OW 2661   2.792   3.026   1.702 -0.1378  0.4176 -0.7315
  666SOL    HW1 2662   2.814   3.035   1.607  0.7461  0.0377 -1.9330
  666SOL    HW2 2663   2.736   2.948   1.711 -2.5909  1.9478 -2.0158
  666SOL     MW 2664   2.787   3.017   1.691 -0.3448  0.5694 -1.0594
  667SOL     OW 2665   1.972   2.657   1.774  0.5149  0.2026 -0.2789
  667SOL    HW1 2666   1.998   2.563   1.797 -2.1088 -0.2033 -2.6909
  667SOL    HW2 2667   2.053   2.710   1.760 -0.4047 -0.2738  2.6814
  667SOL     MW 2668   1.986   2.651   1.775  0.0474  0.0862 -0.2065
  668SOL     OW 2669   2.671   0.596   0.756  0.1375  0.4361  0.1716
  668SOL    HW1 2670   2.736   0.656   0.786 -2.2765 -0.3609 -1.6127
  668SOL    HW2 2671   2.590   0.646   0.781 -0.1181 -1.9322 -0.4206
  668SOL     MW 2672   2.669   0.611   0.764 -0.2147  0.0185 -0.1420
  669SOL     OW 2673   0.175   0.878   0.732 -0.1913  0.3611  0.0087
  669SOL    HW1 2674   0.115   0.911   0.792 -0.9391 -2.0214 -0.5896
  669SOL    HW2 2675   0.257   0.933   0.744 -0.7267 -3.6936  0.0290
  669SOL     MW 2676   0.178   0.890   0.742 -0.3606 -0.4882 -0.0676
  670SOL     OW 2677   2.873   0.326   0.236  0.6189  0.3544 -0.2992
  670SOL    HW1 2678   2.927   0.248   0.223  1.7640  0.3389  2.0085
  670SOL    HW2 2679   2.912   0.406   0.196  1.0323  0.1543 -0.5468
  670SOL     MW 2680   2.885   0.327   0.229  0.8246  0.3259 -0.0274
  671SOL     OW 2681   2.190   3.024   1.595  0.2796  0.2526  0.2476
  671SOL    HW1 2682   2.161   3.072   1.518 -1.6030  2.8081 -1.0658
  671SOL    HW2 2683   2.110   3.017   1.645  2.1546 -1.7283 -3.4074
  671SOL     MW 2684   2.176   3.030   1.591  0.2786  0.3284 -0.4079
  672SOL     OW 2685   1.926   1.644   1.372 -0.4731  0.0515 -0.0589
  672SOL    HW1 2686   1.834   1.669   1.393 -0.9300  0.4863 -1.2507
  672SOL    HW2 2687   1.935   1.683   1.287  0.2571  1.7504 -1.2291
  672SOL     MW 2688   1.915   1.653   1.364 -0.4370  0.3330 -0.3706
  673SOL     OW 2689   2.759   1.156   0.492  0.5289  0.0465 -0.4051
  673SOL    HW1 2690   2.765   1.063   0.521  2.2423 -2.1519 -2.9339
  673SOL    HW2 2691   2.841   1.186   0.528  2.1844 -0.3539 -2.6687
  673SOL     MW 2692   2.770   1.148   0.501  0.9734 -0.2964 -1.0374
  674SOL     OW 2693   2.446   0.071   1.273 -0.1117 -0.0917  0.2172
  674SOL    HW1 2694   2.433   0.081   1.178 -1.8838 -0.9925  0.0484
  674SOL    HW2 2695   2.465  -0.020   1.285 -0.7133  0.7165  2.5244
  674SOL     MW 2696   2.447   0.060   1.262 -0.4249 -0.1039  0.4993
  675SOL     OW 2697   2.947   0.899   1.124 -0.6024  0.6200 -0.3131
  675SOL    HW1 2698   3.035   0.891   1.166  1.8626  2.4420 -1.8166
  675SOL    HW2 2699   2.969   0.884   1.034  3.5168  4.3198 -2.9545
  675SOL     MW 2700   2.962   0.896   1.117  0.2663  1.3486 -0.8600
  676SOL     OW 2701   2.881   1.508   1.668  0.2194  0.1712  0.0790
  676SOL    HW1 2702   2.836   1.424   1.641 -0.7958  1.2798 -3.3074
  676SOL    HW2 2703   2.936   1.468   1.734 -1.2076  0.4684 -0.0001
  676SOL     MW 2704   2.882   1.492   1.673 -0.1028  0.3567 -0.3782
  677SOL     OW 2705   2.486   0.835   1.821 -0.3407 -0.1842  0.2336
  677SOL    HW1 2706   2.416   0.766   1.791  0.4892  0.1699  2.0146
  677SOL    HW2 2707   2.498   0.878   1.734  0.3858  1.6050  2.6222
  677SOL     MW 2708   2.478   0.831   1.806 -0.1353  0.0986  0.7837
  678SOL     OW 2709   2.533   1.588   0.517 -0.2174 -0.7489  0.1369
  678SOL    HW1 2710   2.453   1.600   0.458 -1.5667 -0.6254  3.2022
  678SOL    HW2 2711   2.612   1.582   0.467  0.1383  1.3218  1.0436
  678SOL     MW 2712   2.533   1.589   0.503 -0.3485 -0.4594  0.6610
  679SOL     OW 2713   2.373   0.536   1.224  0.0349  0.7246  0.5180
  679SOL    HW1 2714   2.320   0.457   1.234 -1.4794  0.7054  0.9368
  679SOL    HW2 2715   2.323   0.595   1.162 -0.6549 -4.4874 -3.6799
  679SOL     MW 2716   2.360   0.533   1.217 -0.2559  0.0344  0.0194
  680SOL     OW 2717   2.405   0.225   1.531  0.2124 -0.3571  0.0419
  680SOL    HW1 2718   2.402   0.160   1.606 -0.4090 -0.2209 -0.6737
  680SOL    HW2 2719   2.396   0.168   1.449  0.2099 -0.9673  0.2072
  680SOL     MW 2720   2.403   0.209   1.530  0.1301 -0.4196 -0.0307
  681SOL     OW 2721   0.319   0.523   1.508  0.4653 -0.1873  0.1405
  681SOL    HW1 2722   0.301   0.456   1.569  0.3361 -2.6608  1.7999
  681SOL    HW2 2723   0.415   0.532   1.519  0.5954 -1.8261 -2.1544
  681SOL     MW 2724   0.329   0.515   1.517  0.4654 -0.7299  0.0567
  682SOL     OW 2725   0.203   2.962   1.531  0.4271  0.4175  0.0088
  682SOL    HW1 2726   0.160   3.025   1.478 -0.2638  4.0898 -1.6629
  682SOL    HW2 2727   0.135   2.945   1.602  0.2567 -0.3484  2.0473
  682SOL     MW 2728   0.188   2.968   1.533  0.3135  0.8010  0.0572
  683SOL     OW 2729   1.941   0.807   2.978 -0.0664 -0.3419  0.5026
  683SOL    HW1 2730   1.859   0.794   2.924 -2.7194 -0.8819  0.9338
  683SOL    HW2 2731   1.967   0.902   2.972  0.9819  0.7226  1.6242
  683SOL     MW 2732   1.934   0.818   2.970 -0.2782 -0.2727  0.7074
  684SOL     OW 2733   2.109   1.739   0.825 -0.0458  0.0916 -0.4816
  684SOL    HW1 2734   2.018   1.713   0.811 -0.8791 -0.0727  0.6761
  684SOL    HW2 2735   2.160   1.668   0.855  0.5518  0.3534  0.0077
  684SOL     MW 2736   2.104   1.727   0.827 -0.0769  0.1044 -0.2643
  685SOL     OW 2737   2.680   1.754   1.167 -0.4121 -0.4214  0.4007
  685SOL    HW1 2738   2.739   1.781   1.234 -1.0107 -0.9787 -2.0767
  685SOL    HW2 2739   2.683   1.658   1.169  1.3075 -0.9119 -0.5245
  685SOL     MW 2740   2.688   1.745   1.176 -0.2642 -0.5597 -0.0483
  686SOL     OW 2741   2.872   0.684   1.506 -0.1008  0.2230  0.1072
  686SOL    HW1 2742   2.885   0.655   1.598  0.9633  2.9568 -0.3591
  686SOL    HW2 2743   2.958   0.715   1.484  1.9872 -3.3757  0.2892
  686SOL     MW 2744   2.885   0.684   1.516  0.3151  0.1089  0.0697
  687SOL     OW 2745   2.210   0.307   1.198  0.0314  0.1591  0.0816
  687SOL    HW1 2746   2.176   0.260   1.117  0.2148 -1.7178 -1.6694
  687SOL    HW2 2747   2.148   0.383   1.209  0.9752  0.2065 -0.4723
  687SOL     MW 2748   2.197   0.311   1.189  0.1801 -0.0823 -0.2225
  688SOL     OW 2749   2.365   0.511   1.498 -0.2910  0.4925 -0.1138
  688SOL    HW1 2750   2.371   0.422   1.532  0.0840  0.5753  0.7440
  688SOL    HW2 2751   2.392   0.517   1.403 -2.6701 -1.5592  0.1505
  688SOL     MW 2752   2.369   0.500   1.490 -0.5554  0.2327  0.0343
  689SOL     OW 2753   2.549   0.780   2.986  0.5753  0.0014 -0.1897
  689SOL    HW1 2754   2.484   0.853   2.971  0.8518  4.4633  1.1579
  689SOL    HW2 2755   2.549   0.774   3.080  1.0377 -2.5181 -3.1878
  689SOL     MW 2756   2.541   0.789   2.997  0.6728  0.2577 -0.4074
  690SOL     OW 2757   2.088   0.993   1.936 -0.1341  0.5536  0.6242
  690SOL    HW1 2758   2.019   0.930   1.926 -0.7116  0.7817 -0.4626
  690SOL    HW2 2759   2.128   0.989   1.849 -2.1835  1.6480  0.4667
  690SOL     MW 2760   2.084   0.984   1.923 -0.4807  0.7281  0.4601
  691SOL     OW 2761   2.466   0.380   0.885  0.2204  0.3472 -0.4196
  691SOL    HW1 2762   2.531   0.424   0.943 -0.3660 -1.5665 -0.9417
  691SOL    HW2 2763   2.391   0.439   0.893 -2.4448 -2.6131 -1.6255
  691SOL     MW 2764   2.465   0.394   0.894 -0.2086 -0.2959 -0.6476
  692SOL     OW 2765   2.804   1.649   1.457  0.4642  0.4308 -0.4277
  692SOL    HW1 2766   2.815   1.605   1.534 -2.2167  0.8916  1.0405
  692SOL    HW2 2767   2.825   1.737   1.487 -1.6375 -0.9849 -1.2256
  692SOL     MW 2768   2.808   1.655   1.471 -0.1668  0.3048 -0.3393
  693SOL     OW 2769   2.279   0.491   0.088 -0.0600  0.2498 -0.1176
  693SOL    HW1 2770   2.196   0.444   0.104  0.8261  0.5440 -0.2497
  693SOL    HW2 2771   2.267   0.571   0.036  0.5982  1.6980 -3.7940
  693SOL     MW 2772   2.267   0.495   0.084  0.1438  0.4797 -0.6201
  694SOL     OW 2773   1.961   1.270   1.191  0.1322  0.0960 -0.0607
  694SOL    HW1 2774   2.046   1.230   1.223  2.8748  0.4599  1.3043
  694SOL    HW2 2775   1.897   1.208   1.225 -0.1091  0.4575  0.2159
  694SOL     MW 2776   1.964   1.256   1.200  0.4623  0.1917  0.1559
  695SOL     OW 2777   3.063   1.504   1.302 -0.3836 -0.6083 -0.1806
  695SOL    HW1 2778   3.011   1.483   1.219 -3.1214 -1.1993 -0.5227
  695SOL    HW2 2779   3.007   1.541   1.367 -1.1495  0.6423 -1.3454
  695SOL     MW 2780   3.049   1.506   1.299 -0.8459 -0.5213 -0.3794
  696SOL     OW 2781   2.034   1.369   0.936  0.0598 -0.1725  0.2822
  696SOL    HW1 2782   2.099   1.438   0.962  0.1371  1.4364 -1.2899
  696SOL    HW2 2783   1.985   1.350   1.020  0.3684 -0.3824 -0.3370
  696SOL     MW 2784   2.036   1.376   0.950  0.1107  0.0121 -0.0069
  697SOL     OW 2785   2.888   1.041   2.266 -0.4590 -0.4835  0.0173
  697SOL    HW1 2786   2.886   1.132   2.245  0.0379 -2.8053 -0.6110
  697SOL    HW2 2787   2.885   0.996   2.187  0.4805  0.5277  0.7987
  697SOL     MW 2788   2.888   1.047   2.253 -0.2695 -0.6564  0.0375
  698SOL     OW 2789   2.520   0.419   3.009 -0.0306 -0.2909 -0.4377
  698SOL    HW1 2790   2.470   0.465   3.079 -2.0769 -2.7964  0.7035
  698SOL    HW2 2791   2.576   0.353   3.044  3.9767 -0.6896 -1.1585
  698SOL     MW 2792   2.521   0.417   3.023  0.2281 -0.6741 -0.3823
  699SOL     OW 2793   1.819   1.643   2.045  0.0223  0.1445 -0.3282
  699SOL    HW1 2794   1.784   1.551   2.066  2.5999 -0.8713  2.3740
  699SOL    HW2 2795   1.912   1.632   2.028 -0.0704  0.0142  1.0421
  699SOL     MW 2796   1.826   1.630   2.045  0.3502 -0.0067  0.2091
  700SOL     OW 2797   2.689   0.880   1.538  0.3867 -0.5574 -0.6460
  700SOL    HW1 2798   2.708   0.971   1.505 -1.1058  1.4736 -1.2152
  700SOL    HW2 2799   2.766   0.824   1.528  0.1143  2.6895  0.5771
  700SOL     MW 2800   2.701   0.884   1.533  0.1538  0.1390 -0.5597
  701SOL     OW 2801   1.658   1.297   2.584  0.2001  0.0975 -0.4083
  701SOL    HW1 2802   1.751   1.289   2.604  1.7220 -0.5260  0.8995
  701SOL    HW2 2803   1.626   1.351   2.659 -0.1455  3.8784 -2.6599
  701SOL     MW 2804   1.666   1.303   2.597  0.3553  0.5141 -0.5328
  702SOL     OW 2805   2.229   0.531   0.817  0.0942 -0.3005 -0.8013
  702SOL    HW1 2806   2.209   0.444   0.796  0.7963 -1.4470  0.9952
  702SOL    HW2 2807   2.217   0.575   0.735 -0.5268 -2.3737  1.0150
  702SOL     MW 2808   2.225   0.526   0.804  0.1049 -0.7253 -0.3246
  703SOL     OW 2809   2.678   1.254   1.003 -0.1993  0.4841 -0.4033
  703SOL    HW1 2810   2.692   1.236   0.908  3.0326  0.7604 -1.6683
  703SOL    HW2 2811   2.682   1.168   1.052  1.7218  0.3567 -2.2877
  703SOL     MW 2812   2.680   1.241   0.997  0.4806  0.5037 -0.8188
  704SOL     OW 2813   0.006   1.324   0.193 -0.1087 -0.4370  0.2314
  704SOL    HW1 2814  -0.066   1.274   0.155 -2.3034 -0.7815 -0.2702
  704SOL    HW2 2815   0.061   1.258   0.227 -2.2353  1.5583 -1.1562
  704SOL     MW 2816   0.004   1.309   0.193 -0.6788 -0.2192 -0.0178
  705SOL     OW 2817   2.223   1.634   1.275  0.6149 -0.1025  0.7958
  705SOL    HW1 2818   2.132   1.661   1.293 -0.4835 -1.2103  2.6937
  705SOL    HW2 2819   2.245   1.548   1.306 -0.2911 -2.1955 -1.1927
  705SOL     MW 2820   2.214   1.626   1.281  0.3504 -0.5248  0.7838
  706SOL     OW 2821   2.983   1.211   0.657  0.3021  0.5462 -0.6424
  706SOL    HW1 2822   3.068   1.208   0.609 -1.6893 -2.7397 -1.1147
  706SOL    HW2 2823   2.962   1.309   0.683 -2.0227  3.2031 -0.0130
  706SOL     MW 2824   2.991   1.223   0.654 -0.2673  0.4632 -0.6217
  707SOL     OW 2825   2.412   0.103   0.970  0.1966  0.0341  0.5810
  707SOL    HW1 2826   2.451   0.183   0.944  0.0198 -1.7599  1.5125
  707SOL    HW2 2827   2.317   0.126   0.985  1.1078  2.1901 -0.3557
  707SOL     MW 2828   2.404   0.117   0.969  0.2935  0.0819  0.5803
  708SOL     OW 2829   2.513   1.558   0.128 -0.0670 -0.1523 -0.3032
  708SOL    HW1 2830   2.555   1.477   0.170  2.0971 -1.8124  0.5791
  708SOL    HW2 2831   2.471   1.535   0.049 -2.7615 -2.8048  4.4779
  708SOL     MW 2832   2.513   1.544   0.123 -0.1370 -0.7213  0.4440
  709SOL     OW 2833   1.751   1.674   0.135  0.5276  0.3537 -0.1377
  709SOL    HW1 2834   1.765   1.594   0.087  0.9851  2.3720  1.3953
  709SOL    HW2 2835   1.690   1.652   0.208  1.3028 -2.1451  1.9759
  709SOL     MW 2836   1.745   1.660   0.138  0.6903  0.2903  0.3434
  710SOL     OW 2837   2.224   1.171   1.194 -0.2327  0.3852 -0.4860
  710SOL    HW1 2838   2.244   1.166   1.102 -0.8960 -0.8574  0.0034
  710SOL    HW2 2839   2.263   1.096   1.236  1.6592 -0.9976  0.8954
  710SOL     MW 2840   2.232   1.161   1.187 -0.0706  0.0388 -0.2392
  711SOL     OW 2841   2.325   0.112   1.786 -0.5018  0.6832 -0.4466
  711SOL    HW1 2842   2.414   0.112   1.830 -1.2187  1.5880 -0.1688
  711SOL    HW2 2843   2.322   0.030   1.743 -2.6621 -2.8776 -4.2407
  711SOL     MW 2844   2.336   0.101   1.786 -0.8814  0.3328 -0.9106
  712SOL     OW 2845   1.652   0.632   0.010 -1.0829  0.7799  0.1487
  712SOL    HW1 2846   1.580   0.646  -0.052  0.9685  0.6510 -0.9343
  712SOL    HW2 2847   1.712   0.707  -0.002 -2.2701  0.9673 -2.2885
  712SOL     MW 2848   1.650   0.644  -0.000 -0.9689  0.7876 -0.3157
  713SOL     OW 2849   2.554   0.774   1.148  0.7575  0.1768 -0.2465
  713SOL    HW1 2850   2.589   0.691   1.130 -2.8868 -1.4223 -0.3611
  713SOL    HW2 2851   2.494   0.749   1.224 -0.7964 -0.5553  0.9084
  713SOL     MW 2852   2.551   0.760   1.156  0.0716 -0.1308 -0.1093
  714SOL     OW 2853   2.249   0.169   2.059  0.1901 -0.1679 -0.4523
  714SOL    HW1 2854   2.312   0.121   2.117  1.8690  2.9793 -0.9004
  714SOL    HW2 2855   2.276   0.137   1.972  2.9986 -0.7951 -0.8991
  714SOL     MW 2856   2.261   0.158   2.055  0.7822  0.1646 -0.5704
  715SOL     OW 2857   1.734   1.892   1.690 -0.1448  0.1148  0.5075
  715SOL    HW1 2858   1.825   1.881   1.655  1.6858 -0.9262  1.6456
  715SOL    HW2 2859   1.725   1.813   1.748  2.8307 -2.3301 -1.3372
  715SOL     MW 2860   1.745   1.880   1.693  0.4893 -0.3452  0.4142
  716SOL     OW 2861   2.211   0.729   0.584 -0.3969 -0.0048 -0.6312
  716SOL    HW1 2862   2.277   0.734   0.512 -1.7715 -0.3465 -2.5551
  716SOL    HW2 2863   2.129   0.753   0.538  1.3380 -0.3717 -1.3955
  716SOL     MW 2864   2.209   0.733   0.568 -0.3494 -0.0983 -0.9859
  717SOL     OW 2865   2.895   1.412   2.992  0.2652 -0.2156 -0.3226
  717SOL    HW1 2866   2.977   1.426   2.940  0.1887 -1.3873  1.1264
  717SOL    HW2 2867   2.881   1.491   3.048 -3.2286  0.4098  3.0668
  717SOL     MW 2868   2.904   1.424   2.993 -0.2058 -0.2877  0.3158
  718SOL     OW 2869   2.589   1.497   1.252 -0.5169  0.1188  0.1271
  718SOL    HW1 2870   2.615   1.543   1.337 -0.4849 -0.2440  3.0753
  718SOL    HW2 2871   2.651   1.429   1.249 -1.2131  0.9907  1.1760
  718SOL     MW 2872   2.601   1.494   1.263 -0.6045  0.1860  0.6545
  719SOL     OW 2873   2.163   1.350   0.704 -0.0010 -0.7510 -0.0092
  719SOL    HW1 2874   2.258   1.339   0.691 -0.7414  0.7974  2.5436
  719SOL    HW2 2875   2.144   1.352   0.801  1.3552 -3.0690 -0.4627
  719SOL     MW 2876   2.173   1.349   0.715  0.0803 -0.8525  0.2678
  720SOL     OW 2877   2.857   1.187   0.172  0.3215 -0.1023 -0.5083
  720SOL    HW1 2878   2.872   1.110   0.233  1.9607 -1.9618 -0.8608
  720SOL    HW2 2879   2.797   1.239   0.220  2.2995  0.1567  2.2493
  720SOL     MW 2880   2.851   1.184   0.187  0.7988 -0.3134 -0.1910
  721SOL     OW 2881   2.455   0.798   1.436 -0.1225  0.2565 -0.3063
  721SOL    HW1 2882   2.448   0.718   1.489 -1.8137 -0.8588 -0.8381
  721SOL    HW2 2883   2.536   0.837   1.486 -1.7236  0.0381 -0.4930
  721SOL     MW 2884   2.465   0.792   1.450 -0.5569  0.0805 -0.4011
  722SOL     OW 2885   2.468   1.144   0.377  0.0218 -0.2939 -1.1728
  722SOL    HW1 2886   2.439   1.205   0.441  3.2795  1.5644 -1.4111
  722SOL    HW2 2887   2.550   1.107   0.413 -1.7497 -0.8270 -0.9245
  722SOL     MW 2888   2.475   1.147   0.391  0.2179 -0.1191 -1.1715
  723SOL     OW 2889   2.263   1.365   1.642 -0.4948  0.2412  0.3013
  723SOL    HW1 2890   2.260   1.355   1.546  3.8519 -2.4981  1.3500
  723SOL    HW2 2891   2.173   1.365   1.676 -1.6982  1.9303 -0.8248
  723SOL     MW 2892   2.251   1.363   1.634 -0.0801  0.1026  0.2911
  724SOL     OW 2893   2.483   0.358   0.595  0.7957  0.2173  0.0513
  724SOL    HW1 2894   2.467   0.365   0.689  0.2755 -1.5815 -1.9116
  724SOL    HW2 2895   2.577   0.339   0.587 -0.8823  1.4130  0.2101
  724SOL     MW 2896   2.493   0.357   0.607  0.5057  0.1377 -0.1868
  725SOL     OW 2897   2.619   0.473   1.114  0.4772  0.0639  0.0912
  725SOL    HW1 2898   2.685   0.496   1.181  1.6826  1.7595  3.4023
  725SOL    HW2 2899   2.530   0.486   1.149  0.3312 -2.2390  0.3300
  725SOL     MW 2900   2.616   0.477   1.127  0.6170 -0.0162  0.5596
  726SOL     OW 2901   2.568   2.381   0.519  0.0674 -0.0212 -0.0276
  726SOL    HW1 2902   2.518   2.440   0.463  1.7496  0.9868 -0.8396
  726SOL    HW2 2903   2.517   2.377   0.602 -0.8132  0.9300 -2.9801
  726SOL     MW 2904   2.555   2.388   0.523  0.1732  0.2373 -0.5243
  727SOL     OW 2905   2.913   0.307   1.667 -0.3688 -0.4251 -0.1664
  727SOL    HW1 2906   2.894   0.318   1.578 -0.4987  2.8835  0.0422
  727SOL    HW2 2907   2.831   0.303   1.720 -0.2037  0.2474  2.4232
  727SOL     MW 2908   2.900   0.308   1.663 -0.3642  0.1002  0.2028
  728SOL     OW 2909   2.761   1.189   2.989  0.3484 -0.2360  0.4691
  728SOL    HW1 2910   2.824   1.258   2.975  3.5559 -0.1153  2.0523
  728SOL    HW2 2911   2.748   1.179   3.081 -2.5707  0.8688 -4.4769
  728SOL     MW 2912   2.768   1.197   2.999  0.3865 -0.0743  0.0254
  729SOL     OW 2913   2.477   1.448   0.988 -0.4042  0.0694 -0.3267
  729SOL    HW1 2914   2.514   1.479   1.073 -1.7304  0.9974 -2.6338
  729SOL    HW2 2915   2.535   1.369   0.976  0.1935  0.7831 -0.7084
  729SOL     MW 2916   2.489   1.442   0.998 -0.5003  0.2860 -0.6815
  730SOL     OW 2917   2.055   1.134   0.158  0.1566  0.7797  0.7349
  730SOL    HW1 2918   2.152   1.110   0.160 -0.9341  0.2231 -0.8024
  730SOL    HW2 2919   2.057   1.231   0.172 -0.7490  0.2735  1.1761
  730SOL     MW 2920   2.068   1.143   0.160 -0.1068  0.6395  0.5903
  731SOL     OW 2921   2.767   1.812   2.896  0.2443 -0.1953 -0.3787
  731SOL    HW1 2922   2.684   1.835   2.855 -0.4788 -0.4182 -1.6345
  731SOL    HW2 2923   2.802   1.901   2.898 -0.0934  0.4061  2.3439
  731SOL     MW 2924   2.761   1.827   2.891  0.1044 -0.1453 -0.1852
  732SOL     OW 2925   2.261   0.907   1.306 -0.5286 -0.3557  0.4637
  732SOL    HW1 2926   2.180   0.909   1.364  1.6947  2.4404  0.4834
  732SOL    HW2 2927   2.337   0.853   1.357 -2.0078 -0.2991  1.2869
  732SOL     MW 2928   2.260   0.900   1.321 -0.4304  0.0207  0.5749
  733SOL     OW 2929   2.369   2.885   3.050  0.5392 -0.5198  0.0688
  733SOL    HW1 2930   2.291   2.928   3.014  0.9463  2.4152  2.2312
  733SOL    HW2 2931   2.337   2.794   3.046  1.1136 -1.0448  2.5770
  733SOL     MW 2932   2.354   2.879   3.045  0.6687 -0.2018  0.6850
  734SOL     OW 2933   1.531   0.335   2.508 -0.2912 -0.3242 -0.3185
  734SOL    HW1 2934   1.454   0.295   2.541  0.3025  1.0434 -0.7642
  734SOL    HW2 2935   1.554   0.294   2.414 -0.4379  3.1383 -0.1073
  734SOL     MW 2936   1.524   0.324   2.500 -0.2322  0.3131 -0.3494
  735SOL     OW 2937   2.987   0.901   2.747  0.7897 -0.4698 -0.3050
  735SOL    HW1 2938   2.899   0.875   2.729  0.5898  0.0935  1.1466
  735SOL    HW2 2939   2.987   0.927   2.835 -2.4680 -0.0391  0.4557
  735SOL     MW 2940   2.976   0.901   2.756  0.3335 -0.3386 -0.0131
  736SOL     OW 2941   0.046   0.624   2.507 -0.2045  0.3921 -0.1409
  736SOL    HW1 2942   0.121   0.663   2.459  2.6494 -0.8867  2.9152
  736SOL    HW2 2943   0.035   0.538   2.462  2.4157  1.4270 -1.3626
  736SOL     MW 2944   0.054   0.617   2.494  0.5177  0.3599  0.1011
  737SOL     OW 2945   2.879   0.599   2.572 -0.4199 -0.0415  0.0672
  737SOL    HW1 2946   2.836   0.570   2.490  1.0119 -1.7382  0.1025
  737SOL    HW2 2947   2.974   0.607   2.547  0.2637  1.9878 -0.9127
  737SOL     MW 2948   2.886   0.596   2.558 -0.1408  0.0024 -0.0574
  738SOL     OW 2949   0.158   0.389   1.912 -0.0756 -0.0570 -0.3780
  738SOL    HW1 2950   0.239   0.428   1.896 -1.6105 -1.0107  0.4205
  738SOL    HW2 2951   0.165   0.319   1.853  0.6411  0.7301 -0.0575
  738SOL     MW 2952   0.170   0.385   1.902 -0.1836 -0.0790 -0.2304
  739SOL     OW 2953   2.530   1.022   2.167  0.6513 -0.2387  0.1378
  739SOL    HW1 2954   2.435   1.033   2.163 -0.6666  0.5525  2.1099
  739SOL    HW2 2955   2.564   1.059   2.085  1.4708  0.7409  1.3584
  739SOL     MW 2956   2.522   1.028   2.156  0.5855 -0.0051  0.5590
  740SOL     OW 2957   0.285   1.707   2.923  0.3587  0.0546 -0.1114
  740SOL    HW1 2958   0.256   1.615   2.916 -0.6122 -0.1311 -0.4503
  740SOL    HW2 2959   0.369   1.698   2.972 -0.5813 -1.4861 -0.5896
  740SOL     MW 2960   0.292   1.694   2.929  0.1066 -0.1732 -0.2192
  741SOL     OW 2961   2.214   1.276   2.624 -0.1841 -0.3244  0.2524
  741SOL    HW1 2962   2.236   1.358   2.576 -0.4160 -1.2826 -1.6549
  741SOL    HW2 2963   2.235   1.301   2.714  1.6080 -1.0568 -2.8421
  741SOL     MW 2964   2.220   1.290   2.629  0.0217 -0.5475 -0.4076
  742SOL     OW 2965   1.546   1.403   2.336 -0.4293 -0.2658  0.4943
  742SOL    HW1 2966   1.509   1.318   2.328  1.8338 -1.9784 -0.6476
  742SOL    HW2 2967   1.601   1.390   2.419  0.0147  0.5404  0.7218
  742SOL     MW 2968   1.548   1.390   2.346 -0.0722 -0.3854  0.3737
  743SOL     OW 2969   2.512   1.250   2.671 -0.0884 -1.3574  0.5694
  743SOL    HW1 2970   2.422   1.236   2.642 -1.2458  1.9067  1.4879
  743SOL    HW2 2971   2.533   1.174   2.721 -0.3859  1.8292 -0.9092
  743SOL     MW 2972   2.503   1.238   2.674 -0.2804 -0.5063  0.4955
  744SOL     OW 2973   2.794   0.978   1.793 -0.1699 -0.1933  0.3533
  744SOL    HW1 2974   2.714   0.975   1.847 -1.2388  0.4747  1.1489
  744SOL    HW2 2975   2.765   0.936   1.709  2.0032 -1.0828 -2.3987
  744SOL     MW 2976   2.779   0.972   1.789 -0.0242 -0.2225  0.0952
  745SOL     OW 2977   1.845   0.476   2.470 -0.6382 -0.3416  0.5221
  745SOL    HW1 2978   1.816   0.520   2.389  0.3055  4.7097 -2.5942
  745SOL    HW2 2979   1.757   0.465   2.508 -1.6759  1.2265 -0.7273
  745SOL     MW 2980   1.829   0.481   2.464 -0.6506  0.5318 -0.0539
  746SOL     OW 2981   1.565   1.426   1.746  0.6425  0.1105 -0.2039
  746SOL    HW1 2982   1.599   1.512   1.765 -1.4789  4.4641  1.1033
  746SOL    HW2 2983   1.516   1.392   1.826  1.5192 -1.5242 -1.4389
  746SOL     MW 2984   1.563   1.433   1.759  0.4782  0.4693 -0.1943
  747SOL     OW 2985   2.610   1.159   1.952 -0.7254 -0.3688 -0.0119
  747SOL    HW1 2986   2.523   1.165   1.906 -0.5058  1.7204  0.5302
  747SOL    HW2 2987   2.630   1.248   1.996 -0.4180 -0.0820 -0.8272
  747SOL     MW 2988   2.601   1.172   1.952 -0.6559 -0.0553 -0.0479
  748SOL     OW 2989   0.140   2.977   1.961  0.0152  0.6858  0.0365
  748SOL    HW1 2990   0.159   3.067   1.956  1.2514 -2.2368  1.6796
  748SOL    HW2 2991   0.087   2.956   2.039  1.5057 -1.3041  2.5330
  748SOL     MW 2992   0.136   2.986   1.971  0.3749  0.0376  0.5827
  749SOL     OW 2993   2.395   0.656   2.800  0.0906 -0.0842 -0.1011
  749SOL    HW1 2994   2.420   0.703   2.728 -2.5365 -0.8028  1.2261
  749SOL    HW2 2995   2.463   0.675   2.868 -0.0331  1.6781 -1.3704
  749SOL     MW 2996   2.407   0.664   2.800 -0.2724  0.0535 -0.0934
  750SOL     OW 2997   2.055   3.061   1.994 -0.4150 -0.0131 -0.6774
  750SOL    HW1 2998   2.110   3.144   2.003  0.6842 -2.1354  0.1129
  750SOL    HW2 2999   2.118   2.988   1.970 -0.4850 -0.7806 -0.2879
  750SOL     MW 3000   2.070   3.062   1.992 -0.2792 -0.3944 -0.5217
  751SOL     OW 3001   0.029   0.375   2.404 -0.4631  0.3172  0.6946
  751SOL    HW1 3002  -0.054   0.334   2.377  3.1115 -2.6674 -3.5346
  751SOL    HW2 3003   0.085   0.372   2.321 -1.3516  0.0710  1.0141
  751SOL     MW 3004   0.025   0.369   2.389 -0.1087 -0.1091  0.1788
  752SOL     OW 3005   2.158   0.963   2.776 -0.0835 -0.0025  0.1769
  752SOL    HW1 3006   2.237   0.984   2.824 -1.6457 -1.3760 -1.4991
  752SOL    HW2 3007   2.142   0.871   2.801  1.3893 -0.2706 -0.6323
  752SOL     MW 3008   2.166   0.953   2.786 -0.0953 -0.2191 -0.1510
  753SOL     OW 3009   2.870   0.300   2.373 -0.0570  0.0123 -0.5978
  753SOL    HW1 3010   2.836   0.206   2.369  0.9929 -2.1079  1.2994
  753SOL    HW2 3011   2.787   0.355   2.377 -0.2701 -2.1610 -2.0101
  753SOL     MW 3012   2.855   0.295   2.373  0.0534 -0.5542 -0.5338
  754SOL     OW 3013   2.281   3.003   2.639 -0.5227  0.0948 -0.1084
  754SOL    HW1 3014   2.299   2.943   2.565  0.6501 -0.2728  0.7520
  754SOL    HW2 3015   2.347   2.987   2.708 -2.9481 -1.4802  1.7575
  754SOL     MW 3016   2.292   2.993   2.638 -0.6880 -0.1615  0.2513
  755SOL     OW 3017   2.770   1.640   2.418  0.0900 -0.2263 -0.4215
  755SOL    HW1 3018   2.727   1.553   2.418 -1.5469 -1.0969 -0.5805
  755SOL    HW2 3019   2.802   1.652   2.513 -0.1700  0.6946 -1.0516
  755SOL     MW 3020   2.768   1.630   2.430 -0.1603 -0.2196 -0.5256
  756SOL     OW 3021   2.218   1.269   2.950 -0.0623 -0.5223  0.4908
  756SOL    HW1 3022   2.275   1.337   2.983 -0.3750 -0.3584 -1.7632
  756SOL    HW2 3023   2.273   1.189   2.946 -0.4485 -3.0856  2.2743
  756SOL     MW 3024   2.233   1.267   2.954 -0.1545 -0.8389  0.4287
  757SOL     OW 3025   2.221   0.970   1.687 -0.6038  0.1202  0.0285
  757SOL    HW1 3026   2.245   0.878   1.685 -0.9502  1.6577 -0.4164
  757SOL    HW2 3027   2.146   0.968   1.625  0.3114  0.0785 -1.2793
  757SOL     MW 3028   2.214   0.957   1.679 -0.5287  0.3176 -0.2028
  758SOL     OW 3029   2.151   1.863   2.477  0.2168 -0.4464  0.5694
  758SOL    HW1 3030   2.161   1.926   2.407  3.6201 -0.6408 -0.6547
  758SOL    HW2 3031   2.231   1.808   2.462 -0.0509 -0.1533  2.7873
  758SOL     MW 3032   2.163   1.864   2.466  0.6305 -0.4334  0.7005
  759SOL     OW 3033   1.577   1.449   2.788  0.3262 -0.1149  0.5200
  759SOL    HW1 3034   1.572   1.519   2.718  0.7316  2.1678 -3.3274
  759SOL    HW2 3035   1.619   1.496   2.864  1.5323 -1.1331  2.2064
  759SOL     MW 3036   1.582   1.465   2.789  0.5388  0.0520  0.2348
  760SOL     OW 3037   2.590   1.895   2.711  0.3487  0.5021  0.0924
  760SOL    HW1 3038   2.558   1.811   2.677  0.6285  1.4762  1.5245
  760SOL    HW2 3039   2.651   1.933   2.647 -0.2181  0.4978 -1.1572
  760SOL     MW 3040   2.594   1.889   2.698  0.3108  0.6300  0.1165
  761SOL     OW 3041   2.331   0.429   2.346 -0.1581  0.0386  0.7533
  761SOL    HW1 3042   2.247   0.386   2.354  0.6442  1.6173  2.4444
  761SOL    HW2 3043   2.357   0.457   2.436 -1.0247  1.3416 -3.3210
  761SOL     MW 3044   2.324   0.427   2.359 -0.1665  0.4188  0.4388
  762SOL     OW 3045   0.018   0.183   2.138 -0.2466  0.1184  0.1600
  762SOL    HW1 3046  -0.016   0.118   2.201  0.2707 -0.4551  0.8233
  762SOL    HW2 3047  -0.046   0.253   2.122 -0.4113 -1.5628 -1.8078
  762SOL     MW 3048   0.005   0.183   2.144 -0.2000 -0.1791 -0.0121
  763SOL     OW 3049   2.458   1.185   2.376  0.0526  0.2602  0.4686
  763SOL    HW1 3050   2.489   1.149   2.294  1.3770  2.1190 -0.5010
  763SOL    HW2 3051   2.545   1.216   2.412 -2.7292 -1.3882  1.2935
  763SOL     MW 3052   2.473   1.185   2.370 -0.1397  0.2880  0.4495
  764SOL     OW 3053   0.406   0.036   2.785 -0.4516  0.3528 -0.0197
  764SOL    HW1 3054   0.353   0.110   2.759  1.4104  1.0808 -1.5010
  764SOL    HW2 3055   0.444   0.058   2.873  4.2912  0.7571 -0.2879
  764SOL     MW 3056   0.404   0.048   2.793  0.4198  0.5022 -0.2505
  765SOL     OW 3057   2.779   0.034   2.357 -0.3541  0.0035 -0.5072
  765SOL    HW1 3058   2.740   0.002   2.274  1.4383  1.3512  0.9083
  765SOL    HW2 3059   2.829  -0.040   2.397 -2.3118 -1.1682  0.4575
  765SOL     MW 3060   2.781   0.020   2.351 -0.3759  0.0268 -0.1932
  766SOL     OW 3061   1.918   2.950   2.235  0.2477  0.2216 -0.2379
  766SOL    HW1 3062   1.956   3.002   2.160 -2.0094  0.4510 -0.4129
  766SOL    HW2 3063   1.840   2.897   2.187 -1.1024  2.8756  0.1200
  766SOL     MW 3064   1.912   2.950   2.219 -0.2282  0.6020 -0.2138
  767SOL     OW 3065   2.666   0.633   1.896 -0.6565  0.1625 -0.0435
  767SOL    HW1 3066   2.687   0.641   1.992 -0.3283 -1.5836  1.9499
  767SOL    HW2 3067   2.599   0.701   1.880  0.4375  0.0829 -1.4650
  767SOL     MW 3068   2.660   0.643   1.907 -0.4689 -0.0784  0.0319
  768SOL     OW 3069   0.048   1.450   2.887  0.6866 -0.0058  0.5563
  768SOL    HW1 3070   0.074   1.479   2.977 -0.0337  2.7913  2.1466
  768SOL    HW2 3071   0.083   1.358   2.879 -0.9062 -1.3751 -1.5500
  768SOL     MW 3072   0.056   1.442   2.898  0.3814  0.1826  0.4882
  769SOL     OW 3073   2.405   0.691   2.346 -0.5557  0.4148  0.4278
  769SOL    HW1 3074   2.392   0.606   2.297 -0.1500 -0.6992  0.2927
  769SOL    HW2 3075   2.468   0.735   2.295 -2.2252  0.1677  0.6524
  769SOL     MW 3076   2.412   0.686   2.333 -0.7224  0.2352  0.4396
  770SOL     OW 3077   3.085   1.643   2.662 -0.3667 -0.3887 -0.5359
  770SOL    HW1 3078   2.990   1.638   2.651 -0.1805  1.8276  0.2017
  770SOL    HW2 3079   3.109   1.599   2.746 -0.3290  0.8658  1.6774
  770SOL     MW 3080   3.076   1.637   2.671 -0.3372  0.0692 -0.1466
  771SOL     OW 3081   3.064   0.561   1.984  0.4156 -0.1067  0.2948
  771SOL    HW1 3082   3.006   0.606   1.922  0.0413 -0.5703 -2.0547
  771SOL    HW2 3083   3.130   0.499   1.944 -1.8172 -2.6688 -0.2868
  771SOL     MW 3084   3.065   0.559   1.971  0.0716 -0.5059 -0.0919
  772SOL     OW 3085   0.008   3.084   2.339 -0.0275  0.8511  0.1280
  772SOL    HW1 3086  -0.079   3.052   2.377  2.0313 -1.3646  0.4206
  772SOL    HW2 3087   0.064   3.001   2.314  1.0184 -0.4538  0.7987
  772SOL     MW 3088   0.004   3.069   2.341  0.3822  0.3866  0.2551
  773SOL     OW 3089   2.474   2.910   2.789 -0.3627  0.1569 -0.7548
  773SOL    HW1 3090   2.516   2.830   2.769  0.6545  0.5252  0.0860
  773SOL    HW2 3091   2.469   2.906   2.883  2.3608  1.9645  0.4397
  773SOL     MW 3092   2.479   2.899   2.799  0.1309  0.4440 -0.4862
  774SOL     OW 3093   2.370   1.180   1.801  0.7540 -0.2130 -0.3846
  774SOL    HW1 3094   2.330   1.247   1.745 -0.4605  1.3256 -0.1983
  774SOL    HW2 3095   2.321   1.103   1.756 -1.8588 -1.4838  0.8728
  774SOL     MW 3096   2.358   1.179   1.788  0.2490 -0.1777 -0.1941
  775SOL     OW 3097   2.353   2.885   2.380 -0.1351 -0.3893  0.3937
  775SOL    HW1 3098   2.358   2.968   2.333 -1.4407  0.2119 -0.2631
  775SOL    HW2 3099   2.415   2.836   2.334 -0.2128 -0.2815  1.1830
  775SOL     MW 3100   2.362   2.889   2.368 -0.3176 -0.2958  0.4112
  776SOL     OW 3101   0.139   1.496   0.034 -0.0912  0.0127  0.1063
  776SOL    HW1 3102   0.221   1.464   0.080  1.0657  1.7762  0.5754
  776SOL    HW2 3103   0.064   1.470   0.092 -1.9355 -0.5343  2.5208
  776SOL     MW 3104   0.140   1.488   0.048 -0.1819  0.1732  0.4868
  777SOL     OW 3105   3.015   1.113   1.689 -0.1506  0.3630 -0.7490
  777SOL    HW1 3106   2.956   1.147   1.620 -2.7651  0.8087 -5.7488
  777SOL    HW2 3107   2.964   1.051   1.743  1.9176  0.3552 -0.2936
  777SOL     MW 3108   3.001   1.109   1.687 -0.2227  0.4207 -1.3486
  778SOL     OW 3109   2.944   0.493   2.798 -0.1422  0.2550 -0.2792
  778SOL    HW1 3110   2.874   0.522   2.856 -2.8809 -0.0665  1.5617
  778SOL    HW2 3111   2.927   0.537   2.712  1.6649  3.3555  1.7435
  778SOL     MW 3112   2.932   0.503   2.794 -0.2651  0.6217  0.2306
  779SOL     OW 3113   2.208   0.562   2.106 -0.1605  0.0597 -0.1768
  779SOL    HW1 3114   2.129   0.589   2.164 -0.5050 -2.3672 -1.0131
  779SOL    HW2 3115   2.246   0.486   2.159 -0.4440  1.8577  2.6464
  779SOL     MW 3116   2.202   0.556   2.121 -0.2434 -0.0233  0.0854
  780SOL     OW 3117   0.242   0.234   2.715  0.1352 -0.2265  0.2195
  780SOL    HW1 3118   0.153   0.232   2.732 -2.6859  0.0019  1.6690
  780SOL    HW2 3119   0.266   0.326   2.711 -2.0662 -1.1235  1.8536
  780SOL     MW 3120   0.234   0.246   2.717 -0.5275 -0.3147  0.6263
  781SOL     OW 3121   0.014   1.211   2.442 -0.3626 -0.2853 -0.0528
  781SOL    HW1 3122   0.027   1.220   2.351 -0.4907  0.3714  0.7406
  781SOL    HW2 3123  -0.026   1.123   2.454 -0.4184  1.6056 -0.8458
  781SOL     MW 3124   0.010   1.201   2.431 -0.3869  0.0508 -0.0528
  782SOL     OW 3125   0.714   1.481   0.067  0.3017 -0.0588 -0.2728
  782SOL    HW1 3126   0.632   1.519   0.062  1.7027 -0.7246  0.3108
  782SOL    HW2 3127   0.737   1.494   0.161  2.8234  1.5372  0.7045
  782SOL     MW 3128   0.706   1.488   0.079  0.8193  0.0639 -0.0669
  783SOL     OW 3129   2.701   0.555   2.360  0.3050 -0.1084 -0.1464
  783SOL    HW1 3130   2.676   0.625   2.301  1.9232 -1.5123  2.4566
  783SOL    HW2 3131   2.628   0.553   2.423  0.5900 -1.9214 -1.8587
  783SOL     MW 3132   2.688   0.564   2.360  0.5561 -0.5328 -0.0289
  784SOL     OW 3133   0.141   0.801   2.825 -0.4108 -0.1137  0.3397
  784SOL    HW1 3134   0.059   0.835   2.798 -2.8855  1.3398  0.2714
  784SOL    HW2 3135   0.196   0.871   2.793 -1.6498  1.3966  2.6938
  784SOL     MW 3136   0.138   0.814   2.817 -0.9008  0.2773  0.6413
  785SOL     OW 3137   0.483   0.416   2.154 -0.2773  0.1388 -0.1530
  785SOL    HW1 3138   0.465   0.458   2.063  0.5083  1.4070  0.3306
  785SOL    HW2 3139   0.396   0.381   2.180 -0.7641  2.5832 -0.4228
  785SOL     MW 3140   0.469   0.417   2.145 -0.2379  0.6286 -0.1248
  786SOL     OW 3141   1.869   0.498   3.035  0.0264  0.7053  0.1556
  786SOL    HW1 3142   1.912   0.569   3.003  0.4414 -3.3256 -1.6328
  786SOL    HW2 3143   1.781   0.529   3.032 -0.5146 -0.2284  0.5325
  786SOL     MW 3144   1.863   0.512   3.031  0.0098  0.0503 -0.0307
  787SOL     OW 3145   2.371   0.192   2.914  0.1720  0.0488  0.2819
  787SOL    HW1 3146   2.452   0.136   2.879 -0.4992 -1.3980 -0.2209
  787SOL    HW2 3147   2.408   0.282   2.931  0.2056  1.0087  0.3111
  787SOL     MW 3148   2.387   0.196   2.912  0.0878 -0.0154  0.2194
  788SOL     OW 3149   2.915   2.883   2.391  0.1120 -0.1911  0.1659
  788SOL    HW1 3150   2.985   2.858   2.452 -0.1001 -0.3856 -2.7976
  788SOL    HW2 3151   2.932   2.839   2.310  0.7388 -1.2166 -1.7645
  788SOL     MW 3152   2.926   2.874   2.388  0.1667 -0.3521 -0.4798
  789SOL     OW 3153   0.089   0.197   0.095 -0.0677 -0.2361 -0.2456
  789SOL    HW1 3154   0.020   0.143   0.122 -0.3908 -3.2177 -2.8948
  789SOL    HW2 3155   0.051   0.266   0.038  3.4210  0.7132 -2.4411
  789SOL     MW 3156   0.075   0.199   0.091  0.3499 -0.5043 -0.8848
  790SOL     OW 3157   3.041   0.935   2.477  0.2946 -0.1710  0.5287
  790SOL    HW1 3158   3.015   0.941   2.571  0.3176 -0.8015 -1.9376
  790SOL    HW2 3159   2.978   0.958   2.408 -1.3123  0.7489 -0.8897
  790SOL     MW 3160   3.029   0.939   2.480  0.0856 -0.1328  0.0162
  791SOL     OW 3161   2.486   0.486   2.569  0.2556  0.5322  0.0653
  791SOL    HW1 3162   2.478   0.541   2.646  0.4909 -1.3304 -0.0821
  791SOL    HW2 3163   2.514   0.403   2.610  1.9722  0.7242  1.5604
  791SOL     MW 3164   2.489   0.482   2.584  0.5131  0.3118  0.2431
  792SOL     OW 3165   2.507   0.224   2.436 -0.2485 -0.1062  0.3820
  792SOL    HW1 3166   2.465   0.269   2.363 -0.4780  1.2786  0.3897
  792SOL    HW2 3167   2.443   0.218   2.509 -2.1954  0.9091  0.0632
  792SOL     MW 3168   2.493   0.229   2.436 -0.5357  0.2104  0.3410
  793SOL     OW 3169   1.852   1.161   2.050  0.0064 -0.4704  0.1042
  793SOL    HW1 3170   1.822   1.137   1.957  1.5560 -1.5998  2.5587
  793SOL    HW2 3171   1.948   1.178   2.044 -0.8381 -1.5031 -0.4729
  793SOL     MW 3172   1.861   1.160   2.037  0.0994 -0.7557  0.3519
  794SOL     OW 3173   1.391   2.287   0.127  0.1977  0.2265 -0.1212
  794SOL    HW1 3174   1.412   2.374   0.093 -2.2601 -2.0145 -1.0360
  794SOL    HW2 3175   1.469   2.272   0.178 -4.0352  0.0258 -1.2198
  794SOL     MW 3176   1.404   2.296   0.129 -0.6851 -0.0956 -0.3868
  795SOL     OW 3177   2.277   1.003   2.501 -0.3166  0.0049  0.0478
  795SOL    HW1 3178   2.211   1.067   2.535 -0.0041  1.0114  1.8465
  795SOL    HW2 3179   2.345   1.068   2.455  0.6667  0.9996  0.0333
  795SOL     MW 3180   2.277   1.020   2.499 -0.1456  0.2690  0.2832
  796SOL     OW 3181   0.224   0.563   2.693  0.7734  0.4660 -0.8035
  796SOL    HW1 3182   0.214   0.645   2.738  2.3730  0.9111 -2.2969
  796SOL    HW2 3183   0.162   0.572   2.623  1.2760  2.2881 -1.5093
  796SOL     MW 3184   0.215   0.575   2.690  1.0508  0.7651 -1.0936
  797SOL     OW 3185   2.785   0.216   2.646 -0.1826 -0.0900  0.1512
  797SOL    HW1 3186   2.765   0.226   2.556  0.2327  1.4174 -1.0618
  797SOL    HW2 3187   2.874   0.253   2.669 -0.1746  2.0674  1.9203
  797SOL     MW 3188   2.794   0.222   2.637 -0.1267  0.3935  0.2246
  798SOL     OW 3189   2.427   0.051   2.234 -0.2341 -0.5955  0.2043
  798SOL    HW1 3190   2.455   0.087   2.324  1.6456 -0.7595 -0.0200
  798SOL    HW2 3191   2.514   0.049   2.189 -1.7336  0.7756  2.3920
  798SOL     MW 3192   2.442   0.055   2.240 -0.1840 -0.4362  0.4633
  799SOL     OW 3193   2.603   2.982   0.063 -0.6476  0.0220  0.3122
  799SOL    HW1 3194   2.521   2.943   0.036 -1.7070  1.2454 -0.4910
  799SOL    HW2 3195   2.590   2.999   0.159 -2.2908 -1.4763 -1.0959
  799SOL     MW 3196   2.591   2.979   0.072 -1.0041 -0.0143  0.0204
  800SOL     OW 3197   1.947   3.021   1.749  0.1641 -0.4227  0.5489
  800SOL    HW1 3198   1.862   2.975   1.743 -1.9421 -1.6806  2.0741
  800SOL    HW2 3199   1.976   3.030   1.841 -3.4931 -0.0007 -0.5294
  800SOL     MW 3200   1.940   3.016   1.760 -0.5963 -0.5330  0.6079
  801SOL     OW 3201   2.900   1.285   2.600  0.1134 -0.3710 -0.6396
  801SOL    HW1 3202   2.907   1.212   2.663 -0.8941 -3.2251 -0.9123
  801SOL    HW2 3203   2.988   1.283   2.561  0.7937  1.2242 -0.8537
  801SOL     MW 3204   2.912   1.275   2.603  0.0702 -0.5371 -0.7038
  802SOL     OW 3205   2.632   1.451   2.823 -0.1545 -0.5747  0.4604
  802SOL    HW1 3206   2.608   1.365   2.777  1.6095 -0.4927 -0.3045
  802SOL    HW2 3207   2.694   1.418   2.890 -0.6915 -0.7278 -3.5876
  802SOL     MW 3208   2.637   1.435   2.826  0.0074 -0.5841 -0.1746
  803SOL     OW 3209   2.365   1.394   1.977 -0.0052  0.4013  0.3538
  803SOL    HW1 3210   2.324   1.355   2.053 -1.0599 -0.6220  1.2491
  803SOL    HW2 3211   2.369   1.322   1.914 -0.1133  0.2868 -0.5764
  803SOL     MW 3212   2.360   1.379   1.978 -0.1587  0.2512  0.3492
  804SOL     OW 3213   2.214   0.140   0.024  0.6030 -0.0873  0.4140
  804SOL    HW1 3214   2.169   0.221   0.037  2.8451 -2.2272 -1.4921
  804SOL    HW2 3215   2.276   0.161  -0.044 -1.0177 -0.0970  2.7378
  804SOL     MW 3216   2.217   0.153   0.017  0.6850 -0.3709  0.4691
  805SOL     OW 3217   2.735   0.805   2.678  0.1119  0.5095 -0.0326
  805SOL    HW1 3218   2.654   0.810   2.629  0.0717 -2.0881 -0.0063
  805SOL    HW2 3219   2.785   0.742   2.633 -3.2870 -2.8732 -0.7050
  805SOL     MW 3220   2.731   0.798   2.666 -0.3418 -0.2795 -0.1179
  806SOL     OW 3221   2.619   0.774   2.186  0.3021 -0.0883  0.2307
  806SOL    HW1 3222   2.698   0.784   2.137 -1.0922 -0.7215 -0.6045
  806SOL    HW2 3223   2.587   0.868   2.177  0.0022  0.9266  0.1744
  806SOL     MW 3224   2.625   0.788   2.178  0.0785 -0.0379  0.1131
  807SOL     OW 3225   3.042   1.050   1.984  0.2181  0.3523  0.4364
  807SOL    HW1 3226   3.080   0.980   2.036 -0.0920  2.4494  2.4138
  807SOL    HW2 3227   3.063   1.122   2.037 -0.6749 -4.0316 -1.2638
  807SOL     MW 3228   3.050   1.050   1.998  0.0594  0.0506  0.4730
  808SOL     OW 3229   2.604   0.071   2.827 -0.3034  0.1823  0.0418
  808SOL    HW1 3230   2.595  -0.021   2.798 -1.3535 -1.2607 -1.6913
  808SOL    HW2 3231   2.660   0.113   2.762  2.4140  3.2997  0.0674
  808SOL     MW 3232   2.610   0.064   2.815 -0.0834  0.4032 -0.1835
  809SOL     OW 3233   2.688   1.368   2.410  0.2229 -0.3964  0.4562
  809SOL    HW1 3234   2.744   1.331   2.482 -0.1314  0.5214 -0.8690
  809SOL    HW2 3235   2.719   1.337   2.323  0.0536 -3.4487  2.3409
  809SOL     MW 3236   2.699   1.359   2.408  0.1538 -0.6780  0.5300
  810SOL     OW 3237   2.236   1.282   2.193  0.2112 -0.0675 -0.1090
  810SOL    HW1 3238   2.316   1.286   2.245  0.3007  2.6120  0.9320
  810SOL    HW2 3239   2.234   1.189   2.167 -1.5302 -0.8153  1.9359
  810SOL     MW 3240   2.246   1.270   2.196 -0.0067  0.1873  0.2982
  811SOL     OW 3241   1.610   0.235   2.292 -0.4262  0.0703  0.7074
  811SOL    HW1 3242   1.696   0.198   2.305  1.6061  1.7199  0.8684
  811SOL    HW2 3243   1.583   0.213   2.198  0.4441 -1.7139 -2.8676
  811SOL     MW 3244   1.618   0.228   2.281 -0.0432  0.0525  0.2570
  812SOL     OW 3245   1.469   2.794   2.058 -0.1201  0.2033  0.1391
  812SOL    HW1 3246   1.558   2.816   2.024 -1.0398  0.1773 -0.2572
  812SOL    HW2 3247   1.491   2.754   2.142  0.4295 -1.9347  0.3359
  812SOL     MW 3248   1.483   2.791   2.064 -0.1689 -0.0822  0.1128
  813SOL     OW 3249   1.998   0.635   2.249  0.8910  0.1498 -0.0405
  813SOL    HW1 3250   1.908   0.605   2.220 -1.7144 -0.4668 -1.6488
  813SOL    HW2 3251   1.993   0.727   2.275 -3.0301  1.9259  2.9471
  813SOL     MW 3252   1.985   0.643   2.249  0.0299  0.3028  0.1415
  814SOL     OW 3253   2.723   1.297   1.638 -0.1827  0.0299 -0.0221
  814SOL    HW1 3254   2.711   1.286   1.734  1.0095 -1.9375  1.7429
  814SOL    HW2 3255   2.650   1.250   1.596 -0.7023  1.9834 -1.5949
  814SOL     MW 3256   2.712   1.289   1.645 -0.0940  0.0281  0.0032
  815SOL     OW 3257   2.554   1.774   2.336 -0.1809  0.3211  0.6733
  815SOL    HW1 3258   2.510   1.701   2.280 -0.1881  1.0868  3.3568
  815SOL    HW2 3259   2.645   1.740   2.352  0.1342 -0.9785 -2.6787
  815SOL     MW 3260   2.560   1.760   2.331 -0.1402  0.2507  0.5851
  816SOL     OW 3261   0.708   0.673   2.767 -0.2050 -0.0133  0.2049
  816SOL    HW1 3262   0.734   0.582   2.740  1.5583  0.9679 -2.6897
  816SOL    HW2 3263   0.637   0.676   2.714 -0.8951  0.1994  1.7493
  816SOL     MW 3264   0.702   0.661   2.757 -0.0634  0.1442  0.0268
  817SOL     OW 3265   3.006   1.260   1.444 -0.3115  0.0120  0.6800
  817SOL    HW1 3266   3.103   1.255   1.459  3.9653 -0.3032 -1.3743
  817SOL    HW2 3267   3.002   1.348   1.412 -0.0421  0.4642  2.1243
  817SOL     MW 3268   3.019   1.271   1.442  0.2883  0.0301  0.5995
  818SOL     OW 3269   1.918   1.083   2.634 -0.3885 -0.6904  0.3664
  818SOL    HW1 3270   1.905   1.017   2.568 -0.0937  0.4692 -4.3876
  818SOL    HW2 3271   2.007   1.069   2.675  3.6104  2.1246 -0.3013
  818SOL     MW 3272   1.928   1.073   2.630  0.1780 -0.1660 -0.3489
  819SOL     OW 3273   2.094   0.302   2.403 -0.4146  0.2401 -0.1280
  819SOL    HW1 3274   2.037   0.377   2.394 -0.4088  0.4658 -0.3831
  819SOL    HW2 3275   2.095   0.281   2.490 -0.8389  0.4638 -2.3368
  819SOL     MW 3276   2.087   0.310   2.413 -0.4698  0.2994 -0.4531
  820SOL     OW 3277   2.472   1.666   2.569  0.1018 -0.1221  0.4801
  820SOL    HW1 3278   2.541   1.615   2.608  0.0287  0.3580 -1.1153
  820SOL    HW2 3279   2.500   1.685   2.480  0.9763  2.0363  0.4874
  820SOL     MW 3280   2.485   1.662   2.562  0.2075  0.2260  0.2706
  821SOL     OW 3281   2.604   1.436   2.077  0.5178 -0.4957 -0.7354
  821SOL    HW1 3282   2.645   1.481   2.002 -1.3983 -3.4280 -0.1482
  821SOL    HW2 3283   2.509   1.436   2.039 -0.0338  0.9886 -2.0877
  821SOL     MW 3284   2.597   1.442   2.062  0.1922 -0.6867 -0.8363
  822SOL     OW 3285   2.958   2.742   1.516 -0.1046  0.2936 -0.1888
  822SOL    HW1 3286   2.937   2.732   1.610 -0.3859 -2.2720  3.0269
  822SOL    HW2 3287   2.905   2.819   1.486  2.1242 -1.1403  1.0214
  822SOL     MW 3288   2.948   2.751   1.524  0.1524 -0.2341  0.3951
  823SOL     OW 3289   2.369   0.485   1.888  0.3769 -0.4080 -0.2372
  823SOL    HW1 3290   2.429   0.425   1.917 -1.6409  1.4926 -2.7038
  823SOL    HW2 3291   2.310   0.507   1.962  1.8726  1.6487 -0.0200
  823SOL     MW 3292   2.369   0.480   1.901  0.3080  0.1141 -0.5340
  824SOL     OW 3293   2.239   1.541   2.483  0.6620  0.4395 -0.1290
  824SOL    HW1 3294   2.316   1.570   2.529  0.9802 -1.0406 -1.9447
  824SOL    HW2 3295   2.159   1.586   2.510 -1.0298 -0.2958  1.8063
  824SOL     MW 3296   2.238   1.551   2.493  0.4808  0.1472 -0.1132
  825SOL     OW 3297   1.898   2.616   0.239 -0.2429  0.0798 -0.2757
  825SOL    HW1 3298   1.865   2.534   0.290 -3.7230  1.4699  2.4270
  825SOL    HW2 3299   1.984   2.592   0.213 -4.5936  0.3362 -0.4929
  825SOL     MW 3300   1.905   2.602   0.242 -1.2761  0.2971  0.0523
  826SOL     OW 3301   1.867   2.391   0.375 -0.1255 -0.7266  0.1003
  826SOL    HW1 3302   1.807   2.316   0.376  0.0772 -1.2286 -1.8014
  826SOL    HW2 3303   1.850   2.422   0.464  1.8547 -1.2730 -2.6174
  826SOL     MW 3304   1.857   2.385   0.387  0.1625 -0.8649 -0.5092
  827SOL     OW 3305   1.987   2.159   0.805  0.3557  0.6773 -0.5573
  827SOL    HW1 3306   1.911   2.161   0.743 -2.1356 -0.2017 -0.9091
  827SOL    HW2 3307   1.971   2.084   0.858  0.0010  0.0467  4.1459
  827SOL     MW 3308   1.975   2.150   0.803 -0.0198  0.4781  0.0168
  828SOL     OW 3309   0.092   2.652   0.658 -0.7197 -0.2414 -0.5083
  828SOL    HW1 3310   0.188   2.650   0.644  0.2419  0.6697  0.3555
  828SOL    HW2 3311   0.047   2.698   0.586 -0.0305  0.9600  0.9537
  828SOL     MW 3312   0.099   2.658   0.647 -0.5019  0.0373 -0.2015
  829SOL     OW 3313   2.939   2.983   1.182  0.0785  0.5063 -0.3842
  829SOL    HW1 3314   2.852   2.951   1.139  1.3969  1.0901  0.7590
  829SOL    HW2 3315   2.997   2.902   1.162 -0.4434 -1.8198  0.7741
  829SOL     MW 3316   2.936   2.968   1.174  0.1836  0.2764 -0.0805
  830SOL     OW 3317   2.536   2.835   1.984 -0.1644 -0.2195  0.1440
  830SOL    HW1 3318   2.453   2.862   1.945  0.1388 -1.5808 -2.8500
  830SOL    HW2 3319   2.599   2.813   1.917  2.4892 -1.0079  1.4309
  830SOL     MW 3320   2.533   2.835   1.970  0.2257 -0.5031 -0.0813
  831SOL     OW 3321   2.443   2.416   1.208  0.1742 -0.6013  0.1322
  831SOL    HW1 3322   2.389   2.391   1.286  0.5334  2.2630 -1.6805
  831SOL    HW2 3323   2.528   2.365   1.203  0.2234 -0.2603 -1.2593
  831SOL     MW 3324   2.447   2.406   1.217  0.2281 -0.1784 -0.2906
  832SOL     OW 3325   2.313   2.214   1.866  0.0481  0.0034  0.2298
  832SOL    HW1 3326   2.365   2.290   1.863 -2.6248 -2.1847  1.3270
  832SOL    HW2 3327   2.381   2.144   1.864 -1.2158 -0.5039 -2.1001
  832SOL     MW 3328   2.328   2.215   1.865 -0.4713 -0.3522  0.0671
  833SOL     OW 3329   1.733   2.486   0.886  0.2178  0.7126  0.0453
  833SOL    HW1 3330   1.636   2.482   0.886 -0.9224  0.4834 -2.2132
  833SOL    HW2 3331   1.768   2.543   0.958 -2.8695  0.3194 -1.7756
  833SOL     MW 3332   1.725   2.493   0.895 -0.3400  0.6305 -0.4929
  834SOL     OW 3333   2.191   2.452   0.545 -0.9120 -0.3105 -0.1200
  834SOL    HW1 3334   2.135   2.379   0.558 -0.8650  1.0436 -0.1755
  834SOL    HW2 3335   2.238   2.434   0.463  1.7869  0.0271 -0.3101
  834SOL     MW 3336   2.190   2.440   0.536 -0.5497 -0.0873 -0.1524
  835SOL     OW 3337   1.832   2.558   0.624 -0.1153 -0.0104  0.2581
  835SOL    HW1 3338   1.795   2.518   0.696 -2.4291  0.3651  1.5151
  835SOL    HW2 3339   1.912   2.600   0.651 -0.3850  1.9688  2.7430
  835SOL     MW 3340   1.837   2.558   0.637 -0.4562  0.3003  0.7518
  836SOL     OW 3341   1.891   2.242   1.558  0.0441 -0.2101 -0.4641
  836SOL    HW1 3342   1.974   2.239   1.599 -0.1463  0.5553 -0.8831
  836SOL    HW2 3343   1.838   2.317   1.599  0.6854  1.9015  0.2168
  836SOL     MW 3344   1.895   2.252   1.569  0.1036  0.1695 -0.4295
  837SOL     OW 3345   2.181   0.267   0.740  0.0083 -0.4755 -0.1194
  837SOL    HW1 3346   2.084   0.262   0.708 -0.8105  0.9636  0.3347
  837SOL    HW2 3347   2.228   0.203   0.686  1.5783 -2.4103  0.2015
  837SOL     MW 3348   2.174   0.258   0.728  0.1074 -0.5409 -0.0171
  838SOL     OW 3349   2.926   2.051   0.912  0.3673  0.9813  0.5614
  838SOL    HW1 3350   2.861   1.974   0.899 -0.1655 -1.1058  0.4019
  838SOL    HW2 3351   3.010   2.010   0.900 -1.1174 -1.9018  1.1734
  838SOL     MW 3352   2.928   2.035   0.909  0.1011  0.3255  0.6211
  839SOL     OW 3353   1.523   2.326   1.055 -0.0445 -0.1780  0.1092
  839SOL    HW1 3354   1.534   2.389   1.130  1.9601  0.1774  0.0936
  839SOL    HW2 3355   1.569   2.251   1.088  2.7867 -0.7920 -0.8405
  839SOL     MW 3356   1.530   2.324   1.069  0.5935 -0.2121 -0.0182
  840SOL     OW 3357   2.391   2.218   2.464 -0.0614  0.7904 -0.1168
  840SOL    HW1 3358   2.365   2.295   2.410  1.4717 -1.0250  1.2908
  840SOL    HW2 3359   2.344   2.237   2.546 -3.6449  2.0222  0.3610
  840SOL     MW 3360   2.381   2.230   2.468 -0.3319  0.7134  0.1320
  841SOL     OW 3361   2.151   2.493   0.116 -0.4492  0.0261  0.4192
  841SOL    HW1 3362   2.215   2.544   0.065 -0.1852  0.3895 -0.0430
  841SOL    HW2 3363   2.156   2.413   0.067 -0.2699  0.4726 -2.3910
  841SOL     MW 3364   2.160   2.489   0.103 -0.3907  0.1329 -0.0126
  842SOL     OW 3365   2.645   2.107   1.562  0.4518 -0.1966  0.6617
  842SOL    HW1 3366   2.589   2.102   1.638  2.1374 -0.4404 -1.0607
  842SOL    HW2 3367   2.580   2.094   1.488 -0.8165 -0.0224  0.2064
  842SOL     MW 3368   2.629   2.105   1.562  0.5069 -0.2058  0.3744
  843SOL     OW 3369   2.677   2.778   1.743 -0.4484 -0.7707  0.2685
  843SOL    HW1 3370   2.761   2.748   1.782 -1.9567 -0.9816  0.3871
  843SOL    HW2 3371   2.619   2.694   1.745  0.2603 -0.4616 -0.8072
  843SOL     MW 3372   2.680   2.763   1.748 -0.5539 -0.7577  0.1422
  844SOL     OW 3373   2.677   2.298   1.198  0.1025  0.4843  0.7903
  844SOL    HW1 3374   2.696   2.302   1.103  1.8556 -1.0064  0.6272
  844SOL    HW2 3375   2.727   2.365   1.237  2.4388  3.5623 -0.5516
  844SOL     MW 3376   2.686   2.307   1.191  0.6421  0.6937  0.5917
  845SOL     OW 3377   2.874   2.476   0.343 -0.0832 -0.2986 -0.1499
  845SOL    HW1 3378   2.830   2.389   0.353 -1.2579 -0.4602  0.4407
  845SOL    HW2 3379   2.871   2.523   0.426  0.8921  2.7908 -1.6788
  845SOL     MW 3380   2.868   2.471   0.355 -0.1095  0.0877 -0.2737
  846SOL     OW 3381   1.517   2.878   0.735 -0.3722 -0.0693  0.3208
  846SOL    HW1 3382   1.550   2.903   0.819 -1.6987 -0.5740  0.5788
  846SOL    HW2 3383   1.419   2.866   0.742 -2.1302  3.0687  0.6057
  846SOL     MW 3384   1.509   2.880   0.747 -0.7792  0.2781  0.3924
  847SOL     OW 3385   2.650   1.975   0.148 -0.6615  0.1914  0.1854
  847SOL    HW1 3386   2.699   1.924   0.214 -3.8146 -0.1856  0.4154
  847SOL    HW2 3387   2.604   1.908   0.093 -2.9952 -0.1970 -2.2670
  847SOL     MW 3388   2.650   1.959   0.149 -1.3855  0.0904 -0.1078
  848SOL     OW 3389   2.492   2.079   1.302 -0.0960 -0.2203 -0.6227
  848SOL    HW1 3390   2.538   2.142   1.245 -3.0085  0.4164  0.0976
  848SOL    HW2 3391   2.483   1.998   1.248 -0.1279 -1.6006 -1.0413
  848SOL     MW 3392   2.497   2.077   1.287 -0.4845 -0.3184 -0.5829
  849SOL     OW 3393   2.055   2.671   0.794  0.1013 -0.0902 -0.2060
  849SOL    HW1 3394   2.051   2.583   0.822 -0.0918 -0.3471  1.8586
  849SOL    HW2 3395   2.128   2.663   0.728  0.8884  1.1169 -1.6189
  849SOL     MW 3396   2.064   2.658   0.789  0.1797  0.0352 -0.1200
  850SOL     OW 3397   2.221   1.869   1.700 -0.0526  0.3101  0.0505
  850SOL    HW1 3398   2.135   1.841   1.667 -1.3134  1.5332  2.6220
  850SOL    HW2 3399   2.206   1.961   1.691 -1.4838  0.4893  1.3173
  850SOL     MW 3400   2.207   1.877   1.694 -0.4078  0.4951  0.5569
  851SOL     OW 3401   2.294   2.381   0.307 -0.6306  0.4721 -0.2541
  851SOL    HW1 3402   2.239   2.436   0.248 -1.4179 -2.2734  2.7481
  851SOL    HW2 3403   2.379   2.438   0.323 -1.0828  0.7433  1.9645
  851SOL     MW 3404   2.298   2.396   0.302 -0.7942  0.1456  0.4347
  852SOL     OW 3405   2.325   2.102   0.278  0.0382 -0.0025  0.4332
  852SOL    HW1 3406   2.321   2.200   0.279 -1.4249  2.1648 -0.7230
  852SOL    HW2 3407   2.373   2.085   0.195 -0.4900 -0.3050 -0.6077
  852SOL     MW 3408   2.330   2.112   0.267 -0.2245  0.2435  0.1433
  853SOL     OW 3409   2.454   2.448   1.865 -0.6314 -0.7831 -0.3630
  853SOL    HW1 3410   2.482   2.488   1.782  1.5672  1.3122 -0.2674
  853SOL    HW2 3411   2.536   2.408   1.891 -4.0496 -1.9307  0.3465
  853SOL     MW 3412   2.468   2.448   1.857 -0.7923 -0.6581 -0.2568
  854SOL     OW 3413   2.814   2.260   0.773 -0.3534 -0.3742  0.1812
  854SOL    HW1 3414   2.756   2.211   0.715  0.2707  2.0918 -1.6744
  854SOL    HW2 3415   2.861   2.185   0.818  2.9941  0.0372 -2.5845
  854SOL     MW 3416   2.812   2.244   0.771  0.1706  0.0054 -0.4285
  855SOL     OW 3417   2.747   2.236   0.365 -1.1106  0.3997  0.5898
  855SOL    HW1 3418   2.697   2.253   0.442  0.4325 -0.3225 -1.1467
  855SOL    HW2 3419   2.806   2.166   0.391 -0.5397 -0.7990 -1.6066
  855SOL     MW 3420   2.748   2.229   0.379 -0.8317  0.1463  0.0709
  856SOL     OW 3421   2.171   1.855   0.213  0.2050  0.1723 -0.0829
  856SOL    HW1 3422   2.078   1.882   0.221 -0.8886  0.0382  0.7368
  856SOL    HW2 3423   2.212   1.933   0.252 -2.8006  0.6670 -1.7153
  856SOL     MW 3424   2.164   1.869   0.219 -0.3358  0.2199 -0.1901
  857SOL     OW 3425   2.463   1.913   0.447  0.2252 -0.3646 -0.0530
  857SOL    HW1 3426   2.423   1.981   0.397  0.5904  0.5418  0.9834
  857SOL    HW2 3427   2.435   1.830   0.404 -2.4071 -0.0153 -3.8932
  857SOL     MW 3428   2.454   1.911   0.435 -0.0739 -0.1989 -0.4230
  858SOL     OW 3429   2.931   2.693   1.816 -0.1243 -0.0037  0.0395
  858SOL    HW1 3430   3.030   2.695   1.829  0.8713 -2.8193 -0.6551
  858SOL    HW2 3431   2.917   2.603   1.795  0.0506 -0.7726 -5.0030
  858SOL     MW 3432   2.942   2.681   1.815  0.0301 -0.4767 -0.7175
  859SOL     OW 3433   2.066   2.417   0.886 -0.2951  0.3287 -0.1088
  859SOL    HW1 3434   2.027   2.350   0.830 -1.4647 -1.0976 -0.0045
  859SOL    HW2 3435   2.157   2.391   0.911 -2.2086 -1.8675 -2.7516
  859SOL     MW 3436   2.073   2.405   0.882 -0.7019 -0.1493 -0.4438
  860SOL     OW 3437   2.690   2.556   0.176 -0.1230  0.7421 -0.1877
  860SOL    HW1 3438   2.761   2.525   0.231 -0.7840 -0.7551  0.7902
  860SOL    HW2 3439   2.725   2.644   0.141  1.4611  1.0824 -1.4471
  860SOL     MW 3440   2.704   2.563   0.179 -0.0012  0.5895 -0.2248
  861SOL     OW 3441   1.671   2.117   1.166 -0.6561  0.2961  0.0451
  861SOL    HW1 3442   1.725   2.124   1.245 -2.3127  1.4351  2.1389
  861SOL    HW2 3443   1.579   2.107   1.202 -1.7326 -0.9519  0.1933
  861SOL     MW 3444   1.666   2.117   1.181 -1.0167  0.2817  0.3409
  862SOL     OW 3445   2.431   1.860   1.524  0.0777  0.2012  0.3933
  862SOL    HW1 3446   2.351   1.874   1.583 -0.1000  0.5383  0.8203
  862SOL    HW2 3447   2.409   1.862   1.430  1.0956  1.2812  1.4084
  862SOL     MW 3448   2.417   1.862   1.520  0.1886  0.3881  0.5835
  863SOL     OW 3449   3.023   1.822   1.219 -0.4796 -0.0081  0.1338
  863SOL    HW1 3450   3.074   1.770   1.277 -1.7650 -1.3295 -1.9984
  863SOL    HW2 3451   3.062   1.904   1.247 -0.2676 -4.0860  2.4588
  863SOL     MW 3452   3.035   1.826   1.230 -0.6212 -0.7205  0.1592
  864SOL     OW 3453   0.034   1.863   0.927 -0.1098 -0.0962  0.0981
  864SOL    HW1 3454  -0.041   1.838   0.982  1.3255 -1.1788 -1.1733
  864SOL    HW2 3455   0.024   1.803   0.854 -0.4410 -1.8436 -0.7702
  864SOL     MW 3456   0.023   1.852   0.925  0.0359 -0.4696 -0.1842
  865SOL     OW 3457   2.477   2.153   0.050  0.3036  0.2188 -0.5560
  865SOL    HW1 3458   2.566   2.104   0.071  1.5648  0.6085 -2.8301
  865SOL    HW2 3459   2.448   2.105  -0.025  1.7370  2.5197  2.0901
  865SOL     MW 3460   2.485   2.140   0.043  0.6591  0.5738 -0.5069
  866SOL     OW 3461   2.697   2.406   1.522  0.0351 -0.4403  0.1332
  866SOL    HW1 3462   2.698   2.310   1.523  0.2845  0.3677 -1.2219
  866SOL    HW2 3463   2.755   2.435   1.449 -1.1259  0.0323  0.7491
  866SOL     MW 3464   2.705   2.398   1.512 -0.0851 -0.2714  0.0357
  867SOL     OW 3465   0.114   2.691   1.871 -0.1169 -0.1905 -0.1564
  867SOL    HW1 3466   0.190   2.668   1.920 -0.1752 -0.2239 -0.9212
  867SOL    HW2 3467   0.149   2.782   1.857 -0.0915  1.0780 -3.6281
  867SOL     MW 3468   0.128   2.700   1.876 -0.1213 -0.0275 -0.7154
  868SOL     OW 3469   2.780   2.611   0.597 -0.3154 -0.4923  0.2942
  868SOL    HW1 3470   2.726   2.545   0.633  2.7166  1.5295  0.0144
  868SOL    HW2 3471   2.723   2.663   0.535 -1.9745 -2.8977  1.2213
  868SOL     MW 3472   2.765   2.609   0.593 -0.1343 -0.5429  0.3796
  869SOL     OW 3473   1.904   2.320   1.077 -0.2174 -0.5285  0.1118
  869SOL    HW1 3474   1.964   2.372   1.024 -0.6182 -0.8312  0.6790
  869SOL    HW2 3475   1.837   2.291   1.021  2.0843  2.0738  1.5887
  869SOL     MW 3476   1.903   2.323   1.063  0.0334 -0.2251  0.3815
  870SOL     OW 3477   2.313   0.116   0.522 -0.0902 -0.3997  0.5030
  870SOL    HW1 3478   2.342   0.133   0.435  0.6345 -2.0968 -2.0405
  870SOL    HW2 3479   2.362   0.175   0.580 -2.6763  0.7502  1.0927
  870SOL     MW 3480   2.324   0.126   0.518 -0.3358 -0.4719  0.2452
  871SOL     OW 3481   2.435   2.178   0.773  0.2534 -0.3825  0.1837
  871SOL    HW1 3482   2.387   2.099   0.763  3.9362  2.4532 -2.1795
  871SOL    HW2 3483   2.383   2.239   0.824 -0.7500 -0.5696  2.0824
  871SOL     MW 3484   2.422   2.175   0.779  0.6069 -0.0331  0.1224
  872SOL     OW 3485   2.052   2.565   1.478 -0.3083  0.2280 -0.1738
  872SOL    HW1 3486   2.009   2.607   1.551  0.0580  0.7327 -1.0316
  872SOL    HW2 3487   1.996   2.505   1.429 -0.9215 -0.3414 -2.8822
  872SOL     MW 3488   2.039   2.563   1.481 -0.3409  0.2195 -0.6443
  873SOL     OW 3489   2.827   2.059   1.886  0.9479 -0.6038 -0.3946
  873SOL    HW1 3490   2.863   2.116   1.961  1.4719 -0.1714 -0.7540
  873SOL    HW2 3491   2.895   2.041   1.821 -3.3000 -1.8508 -1.9904
  873SOL     MW 3492   2.841   2.064   1.888  0.4566 -0.7112 -0.6526
  874SOL     OW 3493   2.412   1.559   2.276  0.0964 -0.3911  0.4266
  874SOL    HW1 3494   2.334   1.540   2.330  2.2326  2.1901 -1.2058
  874SOL    HW2 3495   2.462   1.478   2.260  2.0264 -0.4907 -1.2942
  874SOL     MW 3496   2.409   1.546   2.281  0.6329 -0.0637 -0.0158
  875SOL     OW 3497   2.316   2.365   0.953  0.6600  0.4735  0.3694
  875SOL    HW1 3498   2.373   2.438   0.908  1.5966  1.3241 -0.4290
  875SOL    HW2 3499   2.338   2.370   1.045 -3.0790  3.0229  0.2673
  875SOL     MW 3500   2.327   2.375   0.959  0.2902  0.9221  0.2506
  876SOL     OW 3501   3.042   2.338   1.307 -0.5504  0.1139  0.6745
  876SOL    HW1 3502   3.087   2.363   1.230 -2.9892 -0.7968  1.1368
  876SOL    HW2 3503   3.100   2.373   1.380 -0.8591  0.1436 -0.4872
  876SOL     MW 3504   3.055   2.346   1.307 -0.9129 -0.0023  0.5823
  877SOL     OW 3505   3.089   2.808   0.443 -0.2088  0.0466 -0.5920
  877SOL    HW1 3506   3.081   2.904   0.448 -0.5047  0.1291 -1.8039
  877SOL    HW2 3507   3.107   2.788   0.353  1.0090  1.1465 -0.2364
  877SOL     MW 3508   3.090   2.818   0.431 -0.0872  0.2026 -0.7050
  878SOL     OW 3509   2.411   1.818   1.231 -0.1082  0.7487  0.2372
  878SOL    HW1 3510   2.346   1.738   1.233  0.1227 -1.7931  1.2911
  878SOL    HW2 3511   2.506   1.792   1.225 -2.4309  0.8193 -0.7741
  878SOL     MW 3512   2.415   1.804   1.230 -0.3842  0.4226  0.2428
  879SOL     OW 3513   2.695   2.403   0.961  0.1569 -0.0777  0.3579
  879SOL    HW1 3514   2.763   2.467   0.973 -1.2460 -0.0780  0.2003
  879SOL    HW2 3515   2.724   2.345   0.889 -0.7420  2.9935 -1.7100
  879SOL     MW 3516   2.708   2.403   0.953 -0.1468  0.3275  0.0643
  880SOL     OW 3517   2.719   2.046   0.588  0.0228 -0.2515  0.2192
  880SOL    HW1 3518   2.639   2.004   0.625 -2.9420 -1.8366  1.1110
  880SOL    HW2 3519   2.690   2.075   0.505  1.7172  2.2865  0.9218
  880SOL     MW 3520   2.704   2.044   0.582 -0.1448 -0.1258  0.4296
  881SOL     OW 3521   2.925   2.765   0.770 -0.2767 -0.2477 -0.0021
  881SOL    HW1 3522   2.876   2.701   0.708 -2.3629  0.3230  0.8899
  881SOL    HW2 3523   3.023   2.754   0.754  0.8963 -0.9020 -0.5565
  881SOL     MW 3524   2.931   2.755   0.760 -0.3972 -0.2588  0.0424
  882SOL     OW 3525   2.249   2.883   1.917  0.7366 -0.7116 -1.1271
  882SOL    HW1 3526   2.239   2.854   1.826  0.1454 -0.6745 -1.7445
  882SOL    HW2 3527   2.231   2.802   1.961 -2.0751 -0.6480  0.5962
  882SOL     MW 3528   2.245   2.868   1.911  0.2876 -0.6984 -0.9812
  883SOL     OW 3529   2.296   2.219   1.400  0.4107 -0.4736 -0.8703
  883SOL    HW1 3530   2.375   2.164   1.369 -0.7481 -1.8529  1.0340
  883SOL    HW2 3531   2.224   2.185   1.350 -3.2858 -1.1975 -0.1458
  883SOL     MW 3532   2.297   2.207   1.390 -0.2299 -0.7511 -0.5235
  884SOL     OW 3533   1.969   1.762   1.116  0.2822  0.0420 -0.1451
  884SOL    HW1 3534   1.908   1.833   1.076 -0.4185 -0.8840 -1.4231
  884SOL    HW2 3535   2.045   1.763   1.057  0.2284  2.9874  0.1781
  884SOL     MW 3536   1.971   1.771   1.103  0.1826  0.3084 -0.2711
  885SOL     OW 3537   2.850   2.442   1.737 -0.1421 -0.0816  0.4530
  885SOL    HW1 3538   2.908   2.367   1.744 -1.9243  1.8787 -0.8511
  885SOL    HW2 3539   2.792   2.424   1.667 -1.3142 -1.4712  1.9561
  885SOL     MW 3540   2.850   2.429   1.728 -0.5319 -0.0063  0.4793
  886SOL     OW 3541   2.849   2.503   1.338  0.8549 -0.1986 -0.0599
  886SOL    HW1 3542   2.926   2.446   1.318 -1.1523 -0.7007  0.1718
  886SOL    HW2 3543   2.894   2.586   1.367  0.5387 -0.7826 -1.8749
  886SOL     MW 3544   2.865   2.507   1.339  0.5484 -0.3419 -0.2688
  887SOL     OW 3545   2.325   2.618   1.477  0.4618 -0.0927 -0.3057
  887SOL    HW1 3546   2.334   2.668   1.395  0.5747  0.2443  0.6272
  887SOL    HW2 3547   2.251   2.562   1.453  0.4853 -0.7867  0.0408
  887SOL     MW 3548   2.316   2.617   1.463  0.4798 -0.1398 -0.1369
  888SOL     OW 3549   1.848   2.027   1.371 -0.3367  0.0496  0.4701
  888SOL    HW1 3550   1.932   2.069   1.332 -1.5152  1.9059  0.4680
  888SOL    HW2 3551   1.847   2.073   1.458  1.1836  1.2712  0.9827
  888SOL     MW 3552   1.859   2.038   1.377 -0.2916  0.4557  0.5374
  889SOL     OW 3553   2.266   2.079   2.090  0.3363  0.2667  0.1097
  889SOL    HW1 3554   2.344   2.051   2.144 -0.6627 -0.7018  1.4105
  889SOL    HW2 3555   2.285   2.151   2.028 -0.2373  1.2052  1.6467
  889SOL     MW 3556   2.279   2.085   2.089  0.1288  0.2628  0.4841
  890SOL     OW 3557   0.101   2.291   0.096  0.0797  0.2286  0.0328
  890SOL    HW1 3558   0.038   2.356   0.074 -0.2898 -1.2543  0.1520
  890SOL    HW2 3559   0.088   2.275   0.193 -2.6163  0.6168 -0.8973
  890SOL     MW 3560   0.091   2.297   0.106 -0.3248  0.0842 -0.0742
  891SOL     OW 3561   3.068   2.077   1.381  0.2218  0.0456 -0.4502
  891SOL    HW1 3562   3.155   2.072   1.415 -1.8952  1.4487  0.0182
  891SOL    HW2 3563   3.065   2.170   1.351  1.2919 -2.8443 -1.0663
  891SOL     MW 3564   3.079   2.089   1.382  0.0837 -0.1506 -0.4697
  892SOL     OW 3565   2.349   2.346   2.885 -0.1464  0.0328  0.7860
  892SOL    HW1 3566   2.357   2.247   2.898 -2.4444  0.5381  1.0048
  892SOL    HW2 3567   2.435   2.368   2.848 -0.8261 -1.1697 -0.6276
  892SOL     MW 3568   2.361   2.336   2.882 -0.5392 -0.0592  0.6284
  893SOL     OW 3569   1.578   2.478   1.284 -0.3689  0.4605 -0.0428
  893SOL    HW1 3570   1.520   2.494   1.366 -3.2654 -0.3425  3.5356
  893SOL    HW2 3571   1.663   2.454   1.318  1.1264 -0.7002 -0.6133
  893SOL     MW 3572   1.582   2.477   1.300 -0.5538  0.2014  0.3541
  894SOL     OW 3573   2.908   1.824   0.564 -0.1473 -0.6432 -0.6189
  894SOL    HW1 3574   2.841   1.890   0.589 -2.3321  4.7773  0.4789
  894SOL    HW2 3575   2.865   1.784   0.482 -0.3815  0.9725  1.6950
  894SOL     MW 3576   2.894   1.827   0.557 -0.4665  0.2852 -0.1687
  895SOL     OW 3577   2.058   2.128   1.220  0.1309  0.1862 -0.3709
  895SOL    HW1 3578   2.005   2.183   1.159  0.6881  1.2561  1.3647
  895SOL    HW2 3579   2.110   2.065   1.169  2.0195  0.2090  1.2196
  895SOL     MW 3580   2.058   2.127   1.205  0.4536  0.3304  0.0680
  896SOL     OW 3581   2.207   2.803   0.967 -0.3082 -0.0705  0.2284
  896SOL    HW1 3582   2.207   2.750   1.045 -0.0426  0.0805  0.0530
  896SOL    HW2 3583   2.149   2.768   0.906  1.1186  2.0133  0.2467
  896SOL     MW 3584   2.200   2.792   0.969 -0.0849  0.2243  0.2076
  897SOL     OW 3585   2.999   2.908   0.175 -0.0596  0.3794  0.1542
  897SOL    HW1 3586   3.082   2.877   0.131 -0.4825  1.9979  2.0257
  897SOL    HW2 3587   2.934   2.840   0.148 -1.4455 -1.3765 -1.7498
  897SOL     MW 3588   3.002   2.895   0.165 -0.2983  0.3613  0.1499
  898SOL     OW 3589   2.071   0.126   1.378  0.1187  0.5226  0.0402
  898SOL    HW1 3590   2.050   0.042   1.335 -2.1454 -0.5025  1.1519
  898SOL    HW2 3591   2.132   0.165   1.321 -1.2673 -0.8142 -2.8443
  898SOL     MW 3592   2.076   0.120   1.365 -0.3629  0.2110 -0.1937
  899SOL     OW 3593   2.867   2.986   0.572 -0.3008 -0.4629  0.2505
  899SOL    HW1 3594   2.892   2.921   0.641  1.6832 -0.2062 -1.6519
  899SOL    HW2 3595   2.776   3.005   0.588  1.1400 -1.5818 -0.7216
  899SOL     MW 3596   2.858   2.980   0.583  0.1510 -0.5766 -0.1288
  900SOL     OW 3597   0.116   2.470   1.122  0.2099 -0.1711  0.3043
  900SOL    HW1 3598   0.133   2.564   1.109  2.0947 -1.1891  0.0053
  900SOL    HW2 3599   0.073   2.433   1.043  0.6317 -0.9292  1.4322
  900SOL     MW 3600   0.113   2.478   1.110  0.5142 -0.4055  0.4136
  901SOL     OW 3601   1.732   2.844   1.776 -0.6556  0.1059  0.4668
  901SOL    HW1 3602   1.808   2.782   1.767 -0.2027 -0.0045 -0.8489
  901SOL    HW2 3603   1.714   2.855   1.682  1.5978 -0.1712 -2.2125
  901SOL     MW 3604   1.740   2.837   1.762 -0.2985  0.0548 -0.0603
  902SOL     OW 3605   2.544   2.081   1.820  0.3362  0.0016 -0.1470
  902SOL    HW1 3606   2.553   1.979   1.818  0.8728  0.7372  0.5360
  902SOL    HW2 3607   2.636   2.096   1.851  1.4871  1.2657 -1.2233
  902SOL     MW 3608   2.558   2.070   1.824  0.5589  0.2654 -0.1989
  903SOL     OW 3609   1.681   2.782   0.543 -0.1862  0.0046 -0.3953
  903SOL    HW1 3610   1.725   2.698   0.570 -0.7345  3.2397 -1.2230
  903SOL    HW2 3611   1.630   2.815   0.616  1.4402  0.4454 -1.3700
  903SOL     MW 3612   1.680   2.776   0.556 -0.0440  0.4896 -0.6331
  904SOL     OW 3613   2.535   2.568   1.640  0.1641 -0.7208 -0.0579
  904SOL    HW1 3614   2.466   2.589   1.576 -0.0777 -1.7674 -1.5478
  904SOL    HW2 3615   2.598   2.507   1.598 -0.7333  0.2264 -1.8438
  904SOL     MW 3616   2.534   2.563   1.626  0.0138 -0.7339 -0.4901
  905SOL     OW 3617   2.411   2.552   2.117 -0.5076  0.1199 -0.3895
  905SOL    HW1 3618   2.428   2.522   2.026  0.6198  0.2146  0.1352
  905SOL    HW2 3619   2.362   2.490   2.177 -0.9342 -2.4544 -0.9232
  905SOL     MW 3620   2.407   2.540   2.113 -0.4152 -0.2072 -0.3907
  906SOL     OW 3621   2.492   2.505   0.806  0.5200  0.0559 -0.4207
  906SOL    HW1 3622   2.558   2.462   0.864  0.1902  0.7960 -1.4095
  906SOL    HW2 3623   2.500   2.598   0.833 -0.3774  2.8054  1.0622
  906SOL     MW 3624   2.502   2.512   0.817  0.3581  0.5164 -0.3555
  907SOL     OW 3625   2.531   2.914   1.252  0.3809 -0.1271  0.0319
  907SOL    HW1 3626   2.570   2.879   1.331 -1.4356  1.2767  0.2905
  907SOL    HW2 3627   2.596   2.905   1.184  1.0418 -1.1432 -1.0345
  907SOL     MW 3628   2.544   2.908   1.253  0.2284 -0.0759 -0.0747
  908SOL     OW 3629   2.643   2.353   3.093  0.2848 -0.2423 -0.0577
  908SOL    HW1 3630   2.560   2.302   3.118 -0.0703  2.0428  2.4242
  908SOL    HW2 3631   2.654   2.424   3.166 -1.4542  2.7541  0.2948
  908SOL     MW 3632   2.633   2.356   3.106  0.0085  0.4545  0.3163
  909SOL     OW 3633   1.772   0.162   1.047 -0.4014  0.0553 -0.3270
  909SOL    HW1 3634   1.768   0.253   1.016 -0.5462 -1.3006  0.0314
  909SOL    HW2 3635   1.773   0.165   1.141 -2.3346  1.1733 -0.2578
  909SOL     MW 3636   1.771   0.174   1.055 -0.6756  0.0239 -0.2706
  910SOL     OW 3637   2.296   1.671   0.398 -0.3568 -0.2006  0.4620
  910SOL    HW1 3638   2.225   1.610   0.417 -1.9841 -1.8788  1.3110
  910SOL    HW2 3639   2.253   1.740   0.348 -1.5368 -0.7643  1.4947
  910SOL     MW 3640   2.281   1.672   0.394 -0.7272 -0.4964  0.7103
  911SOL     OW 3641   2.154   2.127   1.642 -0.4956 -0.1533 -0.4261
  911SOL    HW1 3642   2.197   2.169   1.717  1.2722  0.6845 -1.0422
  911SOL    HW2 3643   2.209   2.144   1.564  1.2058  1.2266  0.5755
  911SOL     MW 3644   2.167   2.135   1.642 -0.0379  0.1393 -0.3752
  912SOL     OW 3645   2.846   1.928   1.500 -0.2131 -0.3736  0.1245
  912SOL    HW1 3646   2.919   1.977   1.459 -0.4440  0.1056  1.8748
  912SOL    HW2 3647   2.777   1.988   1.530  1.7255 -1.4372  1.6775
  912SOL     MW 3648   2.846   1.943   1.499  0.0122 -0.4507  0.5604
  913SOL     OW 3649   2.570   2.970   0.333  0.4206 -0.8053 -0.2662
  913SOL    HW1 3650   2.646   2.922   0.358 -2.0103 -0.4331  1.4034
  913SOL    HW2 3651   2.496   2.914   0.350  0.8891  1.2231 -0.5339
  913SOL     MW 3652   2.570   2.956   0.338  0.1617 -0.4886 -0.0813
  914SOL     OW 3653   2.797   1.655   0.016  0.3686 -0.0231 -0.0179
  914SOL    HW1 3654   2.792   1.726  -0.057  0.4172 -0.5363  0.0316
  914SOL    HW2 3655   2.712   1.645   0.045  2.6669  1.0304 -0.5787
  914SOL     MW 3656   2.785   1.663   0.010  0.6783  0.0482 -0.0854
  915SOL     OW 3657   1.923   0.168   0.264 -0.3780  0.5040 -0.5901
  915SOL    HW1 3658   1.966   0.103   0.323  0.2286  0.0048 -1.3378
  915SOL    HW2 3659   1.830   0.137   0.255 -0.6302  0.2089  1.2103
  915SOL     MW 3660   1.917   0.156   0.271 -0.3313  0.3992 -0.4512
  916SOL     OW 3661   1.873   2.078   1.985 -0.6646  0.0378  0.6092
  916SOL    HW1 3662   1.848   2.161   1.952 -3.1454 -2.6725 -0.6500
  916SOL    HW2 3663   1.851   2.014   1.921 -1.0027  1.3003 -0.5020
  916SOL     MW 3664   1.867   2.080   1.972 -1.0365 -0.1532  0.2964
  917SOL     OW 3665   2.236   2.323   2.648 -0.1248  0.1051 -0.1940
  917SOL    HW1 3666   2.263   2.322   2.745  0.5027  0.9890  2.0755
  917SOL    HW2 3667   2.283   2.410   2.622 -0.2789  0.4776 -0.9767
  917SOL     MW 3668   2.246   2.334   2.657 -0.0623  0.2709  0.0022
  918SOL     OW 3669   1.985   1.669   2.568  0.0026  0.0179  0.7391
  918SOL    HW1 3670   1.894   1.677   2.541 -2.6538 -0.6325 -1.8781
  918SOL    HW2 3671   2.025   1.753   2.536 -1.2467 -0.0536  1.9730
  918SOL     MW 3672   1.978   1.682   2.560 -0.5127 -0.0774  0.5566
  919SOL     OW 3673   3.012   2.367   2.314 -0.2330  0.2558 -0.1493
  919SOL    HW1 3674   2.931   2.322   2.273 -1.7356 -1.0802 -1.4647
  919SOL    HW2 3675   3.069   2.343   2.240  1.0302  0.1220  0.1120
  919SOL     MW 3676   3.009   2.358   2.299 -0.2646  0.0619 -0.2884
  920SOL     OW 3677   2.783   2.784   0.091 -0.3596  0.6837  0.0442
  920SOL    HW1 3678   2.710   2.848   0.085  1.2841  1.4319  1.5529
  920SOL    HW2 3679   2.798   2.755  -0.002 -1.5503  0.2192  0.8006
  920SOL     MW 3680   2.775   2.789   0.078 -0.2998  0.7211  0.3431
  921SOL     OW 3681   2.577   2.651   2.668  0.1615 -0.7494  0.7699
  921SOL    HW1 3682   2.622   2.601   2.602 -2.0953  0.1623  0.7719
  921SOL    HW2 3683   2.585   2.582   2.736  2.1342  3.4653  0.7484
  921SOL     MW 3684   2.584   2.636   2.668  0.1240 -0.0730  0.7673
  922SOL     OW 3685   2.083   2.868   0.265 -0.7208  0.4132  0.2897
  922SOL    HW1 3686   2.042   2.925   0.199 -0.8753 -0.0900  0.2194
  922SOL    HW2 3687   2.020   2.802   0.279  1.3059  3.0620  1.0795
  922SOL     MW 3688   2.069   2.867   0.258 -0.4738  0.6963  0.3846
  923SOL     OW 3689   2.199   2.779   1.674 -1.2892  0.4196 -0.5048
  923SOL    HW1 3690   2.242   2.705   1.625 -0.7979  1.7594 -2.4628
  923SOL    HW2 3691   2.201   2.850   1.614 -0.3465 -0.4305  0.0971
  923SOL     MW 3692   2.205   2.779   1.660 -1.1000  0.4842 -0.6837
  924SOL     OW 3693   1.116   2.774   2.472  0.3273 -0.1524  0.1267
  924SOL    HW1 3694   1.148   2.839   2.408  0.0340 -1.9222 -1.3569
  924SOL    HW2 3695   1.187   2.750   2.529 -1.1710 -0.6859 -1.0116
  924SOL     MW 3696   1.129   2.780   2.471  0.0909 -0.4563 -0.2192
  925SOL     OW 3697   3.058   0.278   2.689 -0.2127 -0.1311 -0.3494
  925SOL    HW1 3698   3.094   0.296   2.605  0.5752  1.3384 -1.0313
  925SOL    HW2 3699   3.026   0.359   2.737 -0.6453  1.4303 -0.4660
  925SOL     MW 3700   3.058   0.291   2.684 -0.1658  0.2688 -0.4547
  926SOL     OW 3701   2.690   2.384   1.956 -0.6785 -0.1847  0.5340
  926SOL    HW1 3702   2.722   2.448   2.023  6.1271  3.1527  0.3424
  926SOL    HW2 3703   2.741   2.399   1.871 -0.6682 -0.2092 -0.6970
  926SOL     MW 3704   2.701   2.394   1.953  0.2208  0.2524  0.3463
  927SOL     OW 3705   2.396   0.189   0.257 -0.2663 -0.3777  0.2040
  927SOL    HW1 3706   2.488   0.198   0.233  0.0049 -0.5923  2.5270
  927SOL    HW2 3707   2.341   0.159   0.178  0.9956 -1.2782  0.2754
  927SOL     MW 3708   2.401   0.186   0.243 -0.0640 -0.5248  0.5199
  928SOL     OW 3709   2.099   2.424   1.877 -0.2877  0.7274 -0.6120
  928SOL    HW1 3710   2.176   2.371   1.851  4.2861  0.1364  0.5362
  928SOL    HW2 3711   2.128   2.493   1.941 -0.1762  1.2018 -1.0306
  928SOL     MW 3712   2.113   2.426   1.882  0.3304  0.7120 -0.5157
  929SOL     OW 3713   2.691   2.314   2.498  0.4268  0.0503 -0.0865
  929SOL    HW1 3714   2.624   2.249   2.498  1.9115  0.6608 -1.3102
  929SOL    HW2 3715   2.750   2.305   2.579 -0.1131 -2.2969  1.0251
  929SOL     MW 3716   2.690   2.304   2.509  0.5515 -0.1789 -0.1013
  930SOL     OW 3717   2.007   2.923   2.726  0.1340 -0.3742 -0.3285
  930SOL    HW1 3718   2.019   2.860   2.801 -1.2897  0.1329  0.5871
  930SOL    HW2 3719   2.097   2.957   2.703 -2.2506 -0.2517 -0.4803
  930SOL     MW 3720   2.020   2.919   2.733 -0.3685 -0.2911 -0.2277
  931SOL     OW 3721   2.988   2.785   2.063 -0.2646  0.8526  0.4671
  931SOL    HW1 3722   3.055   2.724   2.085 -2.9417  0.8537  1.3906
  931SOL    HW2 3723   2.963   2.761   1.972 -2.9649 -2.1955  0.5448
  931SOL     MW 3724   2.993   2.774   2.054 -0.9741  0.4506  0.5992
  932SOL     OW 3725   2.782   1.962   2.529  0.4026 -0.5361  0.1214
  932SOL    HW1 3726   2.860   1.978   2.578  0.6526 -1.2573 -0.1338
  932SOL    HW2 3727   2.802   2.002   2.448  3.3001  1.4708  0.4889
  932SOL     MW 3728   2.795   1.969   2.525  0.8179 -0.3664  0.1362
  933SOL     OW 3729   2.108   2.754   2.275 -0.1312  0.5161 -0.4785
  933SOL    HW1 3730   2.184   2.807   2.307 -0.2880  0.5330  0.8553
  933SOL    HW2 3731   2.042   2.815   2.246  0.4392 -0.6712  0.4374
  933SOL     MW 3732   2.109   2.769   2.275 -0.0767  0.3617 -0.1817
  934SOL     OW 3733   2.082   2.708   2.556 -0.1319  0.6721 -0.3459
  934SOL    HW1 3734   2.062   2.792   2.598  0.2379 -3.7896  0.7451
  934SOL    HW2 3735   2.072   2.731   2.464 -1.1475  2.1414 -2.1883
  934SOL     MW 3736   2.078   2.722   2.549 -0.2171  0.2772 -0.4451
  935SOL     OW 3737   2.656   1.572   1.858 -0.3109 -0.2344  0.3364
  935SOL    HW1 3738   2.736   1.561   1.808  0.3771 -0.6246 -0.7932
  935SOL    HW2 3739   2.574   1.561   1.791  1.0262 -2.8377 -0.0878
  935SOL     MW 3740   2.655   1.569   1.842 -0.0437 -0.6293  0.1314
  936SOL     OW 3741   2.895   2.198   0.033 -0.2423 -0.0923 -0.4163
  936SOL    HW1 3742   2.927   2.284   0.063 -1.6958  1.1465  3.7844
  936SOL    HW2 3743   2.801   2.208   0.051 -0.9583 -0.3369 -2.5015
  936SOL     MW 3744   2.887   2.211   0.039 -0.5285  0.0389 -0.1372
  937SOL     OW 3745   1.962   2.274   2.623  0.1489  0.1289 -0.1337
  937SOL    HW1 3746   2.057   2.294   2.618  1.2786  0.3421 -1.4057
  937SOL    HW2 3747   1.931   2.244   2.533  1.4256  0.5555  0.9665
  937SOL     MW 3748   1.971   2.273   2.610  0.4664  0.2133 -0.1563
  938SOL     OW 3749   2.273   1.833   1.969  0.1518  0.3981  0.3971
  938SOL    HW1 3750   2.249   1.839   1.879  0.8496 -1.0650 -0.1550
  938SOL    HW2 3751   2.281   1.918   2.014  0.5956  1.7573  2.4468
  938SOL     MW 3752   2.271   1.845   1.963  0.3024  0.3844  0.5947
  939SOL     OW 3753   2.742   2.026   2.270  0.6793 -0.1076  0.2230
  939SOL    HW1 3754   2.753   1.938   2.231  0.4763  1.9490 -0.7581
  939SOL    HW2 3755   2.648   2.029   2.276 -2.4218 -1.0003 -0.2774
  939SOL     MW 3756   2.731   2.015   2.265  0.2434  0.0460  0.0275
  940SOL     OW 3757   2.328   0.182   2.638 -0.0607 -0.2797 -0.0085
  940SOL    HW1 3758   2.322   0.085   2.625 -2.1249  3.4323  0.2469
  940SOL    HW2 3759   2.320   0.191   2.734  0.7536 -1.0838  1.0977
  940SOL     MW 3760   2.326   0.171   2.649 -0.2256  0.1040  0.1711
  941SOL     OW 3761   0.110   2.347   2.101  0.0618 -0.0373 -0.1807
  941SOL    HW1 3762   0.172   2.283   2.099  0.6035  0.0510  0.2870
  941SOL    HW2 3763   0.039   2.317   2.043 -0.4258 -2.5114 -1.7728
  941SOL     MW 3764   0.109   2.335   2.093  0.0689 -0.3521 -0.3291
  942SOL     OW 3765   2.850   2.210   2.109  0.6195  0.1452 -0.5974
  942SOL    HW1 3766   2.784   2.261   2.065  0.4829  1.9758 -1.9983
  942SOL    HW2 3767   2.802   2.145   2.164 -0.9167  1.0581  0.1870
  942SOL     MW 3768   2.835   2.208   2.110  0.3988  0.5072 -0.6787
  943SOL     OW 3769   0.171   2.041   2.331  0.5884 -0.0234 -0.2291
  943SOL    HW1 3770   0.130   2.107   2.387  0.2373 -1.4249 -1.4269
  943SOL    HW2 3771   0.241   2.002   2.381  1.3839  2.6108 -2.3134
  943SOL     MW 3772   0.175   2.045   2.345  0.6470  0.1393 -0.6621
  944SOL     OW 3773   2.180   2.640   2.036 -0.2335 -0.3166 -0.2836
  944SOL    HW1 3774   2.265   2.617   2.081 -2.0413  0.4232 -0.2748
  944SOL    HW2 3775   2.130   2.667   2.115 -0.5615  0.3956 -1.3806
  944SOL     MW 3776   2.184   2.640   2.052 -0.5153 -0.1250 -0.4272
  945SOL     OW 3777   2.811   2.638   2.966 -0.4662 -0.4531 -0.2337
  945SOL    HW1 3778   2.734   2.579   2.956 -3.1252  2.7005  0.1142
  945SOL    HW2 3779   2.818   2.672   2.871 -0.9287 -2.4204 -1.0839
  945SOL     MW 3780   2.802   2.635   2.952 -0.8780 -0.2966 -0.2999
  946SOL     OW 3781   2.549   2.736   2.273 -0.0295 -0.2270  0.1838
  946SOL    HW1 3782   2.592   2.790   2.208  0.1866 -1.7746  2.5660
  946SOL    HW2 3783   2.515   2.663   2.212  1.3560  1.2519 -0.0690
  946SOL     MW 3784   2.550   2.733   2.257  0.1818 -0.2361  0.4648
  947SOL     OW 3785   2.093   3.088   0.421  0.0261  0.2695  0.2244
  947SOL    HW1 3786   2.102   2.996   0.398 -0.0571  0.0668 -0.3701
  947SOL    HW2 3787   2.176   3.119   0.456 -2.3566 -3.1581 -0.5465
  947SOL     MW 3788   2.105   3.080   0.423 -0.2993 -0.2095  0.0442
  948SOL     OW 3789   1.811   3.086   2.627  0.6867 -0.1414 -0.1444
  948SOL    HW1 3790   1.884   3.031   2.650  0.9385 -4.3930  0.2092
  948SOL    HW2 3791   1.851   3.136   2.554  1.0567  0.4044 -1.5959
  948SOL     MW 3792   1.826   3.086   2.620  0.7687 -0.6304 -0.2893
  949SOL     OW 3793   2.468   2.026   2.256 -0.0190 -0.6477 -0.1739
  949SOL    HW1 3794   2.494   1.935   2.281  0.7014 -1.6219  1.0972
  949SOL    HW2 3795   2.447   2.070   2.338  0.6232 -0.4034  0.7530
  949SOL     MW 3796   2.469   2.020   2.270  0.1608 -0.7440  0.1161
  950SOL     OW 3797   2.286   2.619   3.003 -0.0240 -0.4627  0.1541
  950SOL    HW1 3798   2.302   2.538   2.964 -0.8866  1.5837  0.0237
  950SOL    HW2 3799   2.201   2.641   2.959  0.5730 -1.8833 -1.5556
  950SOL     MW 3800   2.277   2.611   2.992 -0.0591 -0.3801 -0.0886
  951SOL     OW 3801   2.881   2.053   2.880 -0.0413  0.2396  0.0160
  951SOL    HW1 3802   2.913   2.098   2.960  0.6704 -1.9982 -1.6986
  951SOL    HW2 3803   2.962   2.045   2.816  0.6194 -2.1060 -0.7360
  951SOL     MW 3804   2.896   2.058   2.882  0.1398 -0.3651 -0.3095
  952SOL     OW 3805   3.047   1.704   2.055  0.0474 -0.5082  0.8552
  952SOL    HW1 3806   2.958   1.732   2.079 -0.4312 -3.9461  0.7231
  952SOL    HW2 3807   3.115   1.774   2.076 -0.3188 -1.0645  1.7927
  952SOL     MW 3808   3.044   1.717   2.061 -0.0641 -1.0352  0.9614
  953SOL     OW 3809   1.930   1.800   2.826  0.0122  0.6046 -0.4463
  953SOL    HW1 3810   1.849   1.767   2.864 -0.3700 -1.1092 -0.1719
  953SOL    HW2 3811   1.940   1.766   2.740 -2.3415  0.2771 -1.4057
  953SOL     MW 3812   1.921   1.791   2.820 -0.3488  0.3353 -0.5366
  954SOL     OW 3813   2.408   2.051   2.883  0.3590  0.0832  1.1062
  954SOL    HW1 3814   2.331   2.024   2.827  0.3333 -0.3273  0.9065
  954SOL    HW2 3815   2.479   2.017   2.826  0.1001  0.8749 -1.3334
  954SOL     MW 3816   2.408   2.043   2.868  0.3215  0.1335  0.7580
  955SOL     OW 3817   1.574   1.617   2.552  0.6633 -0.4048  0.1274
  955SOL    HW1 3818   1.529   1.604   2.467 -1.6510  0.2470  0.3234
  955SOL    HW2 3819   1.622   1.702   2.529 -2.0640 -1.4271 -0.1591
  955SOL     MW 3820   1.575   1.626   2.538 -0.0019 -0.4537  0.1155
  956SOL     OW 3821   2.614   2.461   2.857 -0.1881 -0.3941 -0.1064
  956SOL    HW1 3822   2.614   2.420   2.937  1.4395  1.4564 -3.8418
  956SOL    HW2 3823   2.690   2.422   2.807  0.0071  0.7921 -1.4579
  956SOL     MW 3824   2.624   2.450   2.861  0.0524  0.0065 -0.7775
  957SOL     OW 3825   2.336   2.800   0.335 -0.2139  0.0226  0.5402
  957SOL    HW1 3826   2.257   2.800   0.287 -2.2154  0.2697  0.8766
  957SOL    HW2 3827   2.300   2.785   0.425 -0.8543 -1.9718 -0.7887
  957SOL     MW 3828   2.321   2.798   0.341 -0.5625 -0.2080  0.4092
  958SOL     OW 3829   2.038   2.713   2.910 -0.5740 -0.0224  0.5128
  958SOL    HW1 3830   2.029   2.637   2.846  2.0668  1.7183 -1.3704
  958SOL    HW2 3831   1.949   2.719   2.941  0.8732  0.4646 -1.5015
  958SOL     MW 3832   2.025   2.704   2.906 -0.0346  0.2715 -0.0015
  959SOL     OW 3833   2.481   2.575   0.341  0.0064  0.5231  0.1016
  959SOL    HW1 3834   2.555   2.584   0.278 -0.6438 -1.1800 -0.8813
  959SOL    HW2 3835   2.435   2.663   0.331 -3.3343  0.9171 -1.5688
  959SOL     MW 3836   2.485   2.588   0.331 -0.5202  0.3504 -0.2485
  960SOL     OW 3837   1.964   2.481   2.343 -0.0955 -0.3957 -0.0905
  960SOL    HW1 3838   1.965   2.394   2.389  1.7341  0.2209  1.6661
  960SOL    HW2 3839   1.895   2.534   2.392  0.3322  2.3364 -1.8201
  960SOL     MW 3840   1.955   2.477   2.355  0.2023  0.0462 -0.0870
  961SOL     OW 3841   2.255   2.444   2.326 -0.3450  0.3544  0.0064
  961SOL    HW1 3842   2.168   2.480   2.316 -0.6613  1.0994  1.7037
  961SOL    HW2 3843   2.307   2.508   2.383 -1.7691  2.1817  1.8789
  961SOL     MW 3844   2.251   2.457   2.332 -0.5747  0.6938  0.4774
  962SOL     OW 3845   2.180   1.993   2.723 -0.2812  0.2040  0.4235
  962SOL    HW1 3846   2.115   1.958   2.779  1.3929  2.4562 -0.9603
  962SOL    HW2 3847   2.177   1.940   2.639  0.0954  0.9372 -0.6869
  962SOL     MW 3848   2.171   1.981   2.719 -0.0107  0.5979  0.0944
  963SOL     OW 3849   1.772   2.541   2.141 -0.6791 -0.3402  0.3922
  963SOL    HW1 3850   1.836   2.505   2.198 -0.8752  2.4201  2.3707
  963SOL    HW2 3851   1.767   2.477   2.060 -0.2348  0.0268 -2.2198
  963SOL     MW 3852   1.780   2.528   2.138 -0.6464  0.0724  0.3087
  964SOL     OW 3853   1.843   2.026   2.659  0.2645  0.1804  0.1046
  964SOL    HW1 3854   1.916   2.091   2.668 -0.2400  2.3683 -2.3229
  964SOL    HW2 3855   1.877   1.962   2.723 -0.2914  2.7999 -0.9753
  964SOL     MW 3856   1.857   2.026   2.669  0.1246  0.8147 -0.3582
  965SOL     OW 3857   2.249   2.705   0.593 -0.3511  0.1298  0.3154
  965SOL    HW1 3858   2.234   2.612   0.563  0.1849 -0.5656 -1.3675
  965SOL    HW2 3859   2.325   2.704   0.656  0.1138 -1.8524 -1.2400
  965SOL     MW 3860   2.257   2.693   0.597 -0.2190 -0.2235 -0.1119
  966SOL     OW 3861   2.743   2.580   2.457 -0.2091  0.0279 -0.0483
  966SOL    HW1 3862   2.691   2.646   2.411 -1.4107  0.4607 -1.3077
  966SOL    HW2 3863   2.705   2.498   2.438  1.4596 -0.1050 -1.6641
  966SOL     MW 3864   2.731   2.578   2.449 -0.1475  0.0675 -0.4276
  967SOL     OW 3865   2.805   0.005   3.006  0.5531 -0.4237 -0.0769
  967SOL    HW1 3866   2.745  -0.042   3.063  1.9909 -1.6715  0.2710
  967SOL    HW2 3867   2.751   0.024   2.928 -1.1427 -2.3913  0.5868
  967SOL     MW 3868   2.790   0.001   3.003  0.5191 -0.8480  0.0566
  968SOL     OW 3869   2.997   2.475   3.095  0.4100  0.2366 -0.4663
  968SOL    HW1 3870   2.915   2.520   3.057  1.5133 -2.1039 -0.9800
  968SOL    HW2 3871   3.026   2.431   3.013 -0.0907 -0.0408 -0.0614
  968SOL     MW 3872   2.990   2.475   3.079  0.4895 -0.1088 -0.4807
  969SOL     OW 3873   1.581   2.135   1.716 -0.7340  0.4582  0.0302
  969SOL    HW1 3874   1.654   2.081   1.713 -1.7440  0.9742  2.5027
  969SOL    HW2 3875   1.546   2.128   1.805  0.0277  2.7958  3.2237
  969SOL     MW 3876   1.586   2.127   1.727 -0.7667  0.8347  0.7778
  970SOL     OW 3877   1.653   1.679   1.822  0.5091  0.5167 -0.7705
  970SOL    HW1 3878   1.726   1.666   1.886 -1.1524  2.0341  2.3958
  970SOL    HW2 3879   1.577   1.701   1.879  0.3077 -1.7319 -0.0038
  970SOL     MW 3880   1.653   1.680   1.838  0.2633  0.4202 -0.2516
  971SOL     OW 3881   1.874   0.128   2.405  0.4382 -0.3325 -0.2018
  971SOL    HW1 3882   1.902   0.049   2.353 -0.9639 -4.1523 -2.2802
  971SOL    HW2 3883   1.949   0.190   2.393  0.1538 -1.2890  0.8128
  971SOL     MW 3884   1.887   0.126   2.397  0.2157 -0.9626 -0.3422
  972SOL     OW 3885   0.239   2.823   2.537  0.4879 -0.4996  0.0608
  972SOL    HW1 3886   0.279   2.729   2.531 -0.5365 -2.1287  2.4720
  972SOL    HW2 3887   0.293   2.902   2.515  0.3046  4.0563 -0.2586
  972SOL     MW 3888   0.251   2.821   2.533  0.3285 -0.1134  0.3368
  973SOL     OW 3889   2.652   3.053   2.118  0.0244  0.0716  0.4883
  973SOL    HW1 3890   2.623   2.967   2.081 -1.4051 -1.1273  2.7863
  973SOL    HW2 3891   2.648   3.100   2.036  1.6274  1.8451 -1.4479
  973SOL     MW 3892   2.648   3.047   2.102  0.0473  0.1474  0.5361
  974SOL     OW 3893   1.970   0.315   2.693  0.2363 -0.0100 -0.1281
  974SOL    HW1 3894   1.981   0.243   2.756 -0.5636  0.0982  0.3831
  974SOL    HW2 3895   1.873   0.341   2.697  0.5320  0.7128 -2.6240
  974SOL     MW 3896   1.959   0.309   2.702  0.1698  0.0996 -0.3900
  975SOL     OW 3897   2.343   2.568   2.554 -0.2036 -0.1259  0.0896
  975SOL    HW1 3898   2.421   2.614   2.595  0.1866 -1.9922  4.3278
  975SOL    HW2 3899   2.260   2.620   2.576 -0.7844 -0.7303  0.2638
  975SOL     MW 3900   2.343   2.581   2.562 -0.2287 -0.4519  0.6718
  976SOL     OW 3901   0.294   0.271   1.681 -0.2878 -0.2167  0.3340
  976SOL    HW1 3902   0.328   0.225   1.755 -0.0867 -0.9824  0.1111
  976SOL    HW2 3903   0.203   0.243   1.665 -2.3327 -2.8145 -1.4996
  976SOL     MW 3904   0.287   0.261   1.689 -0.5311 -0.6605  0.0627
  977SOL     OW 3905   1.728   2.834   2.452  0.1196 -0.4241  0.2398
  977SOL    HW1 3906   1.757   2.742   2.461 -3.1573  0.0947 -0.7891
  977SOL    HW2 3907   1.802   2.875   2.407  0.7549  2.1217  2.2702
  977SOL     MW 3908   1.741   2.827   2.447 -0.2289 -0.0197  0.3720
   3.10000   3.10000   3.10000
