977 TIP4P/2005f water molecules t=   0.84000 step= 840
 3908
    1SOL     OW    1   0.310   0.832   3.050  0.6894 -0.4884  0.1182
    1SOL    HW1    2   0.288   0.864   2.961  2.2488  0.5050 -2.7931
    1SOL    HW2    3   0.267   0.750   3.068  1.8034  2.0247 -1.9879
    1SOL     MW    4   0.302   0.826   3.041  1.0421 -0.0258 -0.5438
    2SOL     OW    5   0.303   2.993   1.177  0.6055 -0.1399  0.5275
    2SOL    HW1    6   0.367   3.052   1.138 -1.9799  0.7049 -1.1965
    2SOL    HW2    7   0.213   3.033   1.177 -0.2197  0.2405 -0.7035
    2SOL     MW    8   0.299   3.006   1.172  0.1555  0.0218  0.1376
    3SOL     OW    9   2.633   0.419   0.963  0.1642  0.6314  0.0471
    3SOL    HW1   10   2.659   0.477   0.884 -0.3143 -0.0065 -0.4828
    3SOL    HW2   11   2.613   0.479   1.046  0.7613 -0.3704  4.3120
    3SOL     MW   12   2.634   0.435   0.963  0.1799  0.4151  0.5399
    4SOL     OW   13   2.996   1.714   0.633 -0.1256 -0.2917 -0.3344
    4SOL    HW1   14   2.921   1.742   0.571 -1.3340 -2.5037 -2.3877
    4SOL    HW2   15   3.045   1.655   0.580 -1.7106  1.6512 -2.4159
    4SOL     MW   16   2.992   1.710   0.618 -0.4941 -0.3272 -0.8799
    5SOL     OW   17   1.747   1.510   0.521  0.2364  0.0077 -0.0951
    5SOL    HW1   18   1.780   1.457   0.596  2.5193 -1.3477  0.8102
    5SOL    HW2   19   1.652   1.481   0.517  1.6533  0.7577 -0.3317
    5SOL     MW   20   1.739   1.499   0.530  0.7246 -0.0722 -0.0069
    6SOL     OW   21   0.841   1.457   0.607 -0.2791  0.6059 -0.5047
    6SOL    HW1   22   0.769   1.486   0.665 -1.6602  0.0324 -0.0498
    6SOL    HW2   23   0.842   1.366   0.636 -1.0879 -1.7681  1.8574
    6SOL     MW   24   0.832   1.449   0.619 -0.5680  0.2170 -0.1331
    7SOL     OW   25   2.034   1.156   3.065  0.4599 -0.1714  0.2543
    7SOL    HW1   26   2.106   1.200   3.026  1.1289  2.0093  1.9544
    7SOL    HW2   27   2.063   1.153   3.159  0.0059 -0.8016 -0.4979
    7SOL     MW   28   2.047   1.162   3.073  0.4883  0.0331  0.3793
    8SOL     OW   29   0.923   1.372   1.029 -0.1562  0.5577  0.0850
    8SOL    HW1   30   1.014   1.370   1.038 -3.0452  1.1974 -0.9773
    8SOL    HW2   31   0.897   1.307   1.090  2.4564  1.1614  0.2881
    8SOL     MW   32   0.932   1.363   1.038 -0.1926  0.7218 -0.0284
    9SOL     OW   33   1.028   0.520   1.392 -0.6332  0.5957  0.1823
    9SOL    HW1   34   0.977   0.456   1.338 -1.0809 -0.0930  0.1354
    9SOL    HW2   35   1.067   0.468   1.465  3.0652 -1.7142  0.6442
    9SOL     MW   36   1.026   0.505   1.394 -0.2043  0.2000  0.2370
   10SOL     OW   37   0.292   0.806   0.472 -0.2048 -0.4865  0.2470
   10SOL    HW1   38   0.380   0.818   0.429 -1.3174 -2.5134 -1.8186
   10SOL    HW2   39   0.278   0.878   0.535 -2.2745 -2.2640  0.3440
   10SOL     MW   40   0.302   0.817   0.475 -0.6247 -0.9884 -0.0127
   11SOL     OW   41   0.799   1.130   1.727  0.2686 -0.1408 -0.0544
   11SOL    HW1   42   0.816   1.131   1.820  1.3166 -0.7217  1.9009
   11SOL    HW2   43   0.833   1.035   1.705 -2.0088 -1.5628 -2.7832
   11SOL     MW   44   0.806   1.118   1.736  0.1064 -0.4051 -0.1565
   12SOL     OW   45   0.020   1.060   0.880  0.0138  0.7697 -0.1711
   12SOL    HW1   46   0.070   1.132   0.939  3.0187  0.8816  1.0100
   12SOL    HW2   47  -0.025   1.114   0.809  0.2476 -1.1553 -1.0330
   12SOL     MW   48   0.021   1.077   0.878  0.4411  0.5305 -0.1290
   13SOL     OW   49   1.839   1.403   1.365 -0.2881  1.0531  0.5280
   13SOL    HW1   50   1.870   1.342   1.303  0.6707  0.3418  0.2990
   13SOL    HW2   51   1.879   1.482   1.330  0.3638 -0.6879 -1.1898
   13SOL     MW   52   1.848   1.405   1.352 -0.0756  0.7295  0.2711
   14SOL     OW   53   0.659   0.407   1.861  0.0966 -0.1431  0.1176
   14SOL    HW1   54   0.603   0.333   1.851 -1.2449  1.0565  2.5958
   14SOL    HW2   55   0.713   0.386   1.940  0.6114 -2.1648  0.6049
   14SOL     MW   56   0.659   0.394   1.870 -0.0125 -0.2516  0.5089
   15SOL     OW   57   1.930   0.416   0.991  0.7380 -0.2333  0.8022
   15SOL    HW1   58   1.933   0.472   1.072  2.1517 -1.6272  0.6547
   15SOL    HW2   59   2.022   0.414   0.956 -0.0506 -1.1383 -1.4226
   15SOL     MW   60   1.943   0.423   0.997  0.8204 -0.5367  0.4892
   16SOL     OW   61   0.176   1.830   0.330 -0.5344 -0.3800  0.0008
   16SOL    HW1   62   0.260   1.786   0.354 -1.1601  0.5670  2.5496
   16SOL    HW2   63   0.179   1.917   0.376 -2.7693  0.8390 -1.1127
   16SOL     MW   64   0.188   1.836   0.339 -0.9118 -0.0942  0.1902
   17SOL     OW   65   1.109   0.913   1.514 -0.0202 -0.3534 -0.1789
   17SOL    HW1   66   1.159   0.880   1.591 -0.4910  1.7990 -0.5890
   17SOL    HW2   67   1.022   0.912   1.547  2.5861  0.6272 -1.1657
   17SOL     MW   68   1.104   0.909   1.529  0.2615  0.0600 -0.3632
   18SOL     OW   69   0.073   1.582   0.373  0.0990 -0.5201  0.5757
   18SOL    HW1   70   0.089   1.679   0.359 -0.1908  1.0264 -0.0595
   18SOL    HW2   71   0.098   1.534   0.297 -0.8072  1.8482  1.0423
   18SOL     MW   72   0.078   1.589   0.361 -0.0588 -0.0036  0.5535
   19SOL     OW   73   0.124   1.303   0.994  0.0130  0.5467 -0.0665
   19SOL    HW1   74   0.145   1.349   0.917  3.1936 -1.2768 -0.3510
   19SOL    HW2   75   0.035   1.329   1.023  0.0568 -1.6961  3.5156
   19SOL     MW   76   0.115   1.312   0.988  0.4384  0.0102  0.3686
   20SOL     OW   77   0.436   2.133   1.153  0.5622  0.5551 -0.1833
   20SOL    HW1   78   0.402   2.038   1.134 -1.2140 -1.1917  3.0271
   20SOL    HW2   79   0.376   2.170   1.215  0.2390  2.8033  1.4104
   20SOL     MW   80   0.424   2.125   1.159  0.2852  0.6212  0.4505
   21SOL     OW   81   0.538   0.818   0.345 -0.0850  0.0447 -0.1566
   21SOL    HW1   82   0.586   0.776   0.414  0.7693  1.1595 -1.9205
   21SOL    HW2   83   0.586   0.802   0.263 -0.5073 -1.2360  0.8902
   21SOL     MW   84   0.551   0.810   0.343 -0.0280  0.0228 -0.2512
   22SOL     OW   85   1.510   0.676   1.057  0.6057  1.3864  0.4877
   22SOL    HW1   86   1.463   0.630   0.984 -2.3300 -0.5024 -1.9828
   22SOL    HW2   87   1.453   0.748   1.079  0.8255  0.3394 -0.3866
   22SOL     MW   88   1.496   0.679   1.051  0.2473  0.9991  0.0464
   23SOL     OW   89   0.038   0.761   0.670  0.0380 -0.3418  0.0036
   23SOL    HW1   90   0.053   0.687   0.731  1.5430  2.7468  1.2275
   23SOL    HW2   91   0.111   0.828   0.683  0.5216 -1.9633 -0.5765
   23SOL     MW   92   0.050   0.760   0.680  0.3004 -0.1483  0.0885
   24SOL     OW   93   1.968   2.229   0.116 -0.2998  0.1672 -0.3450
   24SOL    HW1   94   2.003   2.206   0.208  1.6480 -0.6561  2.0038
   24SOL    HW2   95   2.008   2.166   0.054 -0.9657 -0.8821 -0.7990
   24SOL     MW   96   1.978   2.217   0.120 -0.1307 -0.0798 -0.0950
   25SOL     OW   97   0.235   1.388   0.494  0.0441  0.7506 -0.2422
   25SOL    HW1   98   0.184   1.455   0.449 -0.6590  0.1712  1.4948
   25SOL    HW2   99   0.331   1.404   0.470  3.8164  1.9115  1.0331
   25SOL     MW  100   0.241   1.399   0.485  0.4491  0.8273  0.1552
   26SOL     OW  101   2.028   0.978   0.358 -0.0571 -0.2886 -0.1454
   26SOL    HW1  102   1.969   1.016   0.420  1.9306 -1.0800  0.8696
   26SOL    HW2  103   2.082   1.049   0.320  1.7271  2.4064 -1.1612
   26SOL     MW  104   2.028   0.992   0.361  0.4405 -0.0375 -0.1455
   27SOL     OW  105   2.033   1.439   0.266  0.1171 -0.0013  0.0159
   27SOL    HW1  106   1.938   1.417   0.279  0.1780 -0.9437  1.0074
   27SOL    HW2  107   2.048   1.506   0.335  1.2504  0.4442  0.3536
   27SOL     MW  108   2.022   1.445   0.277  0.2746 -0.0668  0.1913
   28SOL     OW  109   0.376   1.008   2.000 -0.0272 -1.1729 -0.0223
   28SOL    HW1  110   0.457   0.970   1.973 -2.5075  0.8698 -0.1950
   28SOL    HW2  111   0.322   0.962   2.060 -0.3315  1.4344 -3.6201
   28SOL     MW  112   0.380   0.997   2.005 -0.3946 -0.5594 -0.5198
   29SOL     OW  113   0.237   1.451   0.771  0.1072 -0.1059  0.7242
   29SOL    HW1  114   0.214   1.545   0.780  0.4507  0.2629  1.0759
   29SOL    HW2  115   0.221   1.431   0.678  0.1530  1.7524  1.8198
   29SOL     MW  116   0.232   1.461   0.760  0.1585  0.1880  0.9152
   30SOL     OW  117   0.810   1.168   1.214  0.4274 -0.2953  0.1105
   30SOL    HW1  118   0.736   1.207   1.268 -3.2915 -0.4588  0.4614
   30SOL    HW2  119   0.894   1.177   1.267  2.3718  0.4845 -1.9379
   30SOL     MW  120   0.812   1.174   1.228  0.1933 -0.2140 -0.1135
   31SOL     OW  121   0.420   0.150   0.201 -0.3874  0.4333  0.2135
   31SOL    HW1  122   0.462   0.085   0.259 -1.7893  3.3007  1.1174
   31SOL    HW2  123   0.380   0.106   0.123 -1.3334  0.7617  3.2094
   31SOL     MW  124   0.420   0.135   0.199 -0.6972  0.8549  0.7280
   32SOL     OW  125   2.792   0.990   1.121  0.0421 -0.6567 -0.1990
   32SOL    HW1  126   2.721   0.924   1.119 -0.0216  2.6998  0.0317
   32SOL    HW2  127   2.866   0.932   1.119  0.4767  1.8701 -0.7029
   32SOL     MW  128   2.792   0.974   1.120  0.0910  0.1195 -0.2351
   33SOL     OW  129   1.806   1.308   0.346 -0.7112 -0.0207 -0.4163
   33SOL    HW1  130   1.811   1.221   0.380 -2.1937  1.2939  2.1238
   33SOL    HW2  131   1.770   1.352   0.421 -1.5395  1.7435 -0.5478
   33SOL     MW  132   1.802   1.302   0.360 -1.0161  0.3855 -0.0985
   34SOL     OW  133   1.239   1.858   1.073 -0.2013  0.2587 -0.0443
   34SOL    HW1  134   1.162   1.908   1.079 -2.2090 -3.5004  2.3537
   34SOL    HW2  135   1.282   1.876   1.159 -0.3896 -0.8956 -0.5898
   34SOL     MW  136   1.235   1.867   1.085 -0.4910 -0.3896  0.2001
   35SOL     OW  137   0.452   0.200   1.864  0.2622  0.8234 -0.6518
   35SOL    HW1  138   0.412   0.133   1.919  3.2373 -1.8486 -0.9035
   35SOL    HW2  139   0.469   0.151   1.777  1.8411 -2.1912 -1.3259
   35SOL     MW  140   0.449   0.184   1.860  0.8630  0.0731 -0.7739
   36SOL     OW  141   1.925   1.943   0.547  0.6113  0.3261 -0.1586
   36SOL    HW1  142   1.933   1.948   0.446 -1.3910 -2.3491 -0.5907
   36SOL    HW2  143   1.924   1.844   0.567  0.4383  1.3150  1.4668
   36SOL     MW  144   1.926   1.931   0.536  0.3243  0.1036 -0.0012
   37SOL     OW  145   1.745   1.983   1.013 -0.0721 -0.0597 -0.6081
   37SOL    HW1  146   1.697   1.941   0.948 -0.7855  0.8583  1.0524
   37SOL    HW2  147   1.688   2.038   1.065  2.8469  1.5618  0.2610
   37SOL     MW  148   1.731   1.985   1.011  0.2189  0.2753 -0.2744
   38SOL     OW  149   2.776   0.922   0.116  0.3490  0.0283  0.1767
   38SOL    HW1  150   2.833   0.925   0.191 -0.3570  2.2514 -0.6983
   38SOL    HW2  151   2.843   0.915   0.044  2.6561  0.8464 -1.8214
   38SOL     MW  152   2.793   0.921   0.116  0.5602  0.4295 -0.2024
   39SOL     OW  153   1.423   0.602   0.821  0.4176  0.4220 -0.4187
   39SOL    HW1  154   1.391   0.510   0.802 -1.0329 -0.5345  0.1276
   39SOL    HW2  155   1.365   0.652   0.759 -0.9835  0.9168 -2.3802
   39SOL     MW  156   1.411   0.597   0.810  0.0413  0.3611 -0.6054
   40SOL     OW  157   1.149   1.886   0.265 -0.5742  0.0883  0.3050
   40SOL    HW1  158   1.209   1.828   0.314  3.7640 -0.7333 -2.6884
   40SOL    HW2  159   1.127   1.961   0.318  0.7021 -0.8303 -2.0841
   40SOL     MW  160   1.154   1.888   0.279  0.1666 -0.1413 -0.4051
   41SOL     OW  161   0.590   0.543   1.608 -0.3861  0.1829 -0.2004
   41SOL    HW1  162   0.675   0.585   1.599 -0.5890 -1.0431  1.6330
   41SOL    HW2  163   0.606   0.491   1.690  1.2075 -2.6974  0.5367
   41SOL     MW  164   0.603   0.542   1.618 -0.2026 -0.3589  0.1388
   42SOL     OW  165   1.295   3.023   1.961  0.3927 -0.4184  0.1438
   42SOL    HW1  166   1.199   3.041   1.984  0.9102  1.5995  0.7242
   42SOL    HW2  167   1.322   2.976   2.038 -1.6921  0.9530 -1.7584
   42SOL     MW  168   1.286   3.019   1.974  0.1859  0.0288 -0.0306
   43SOL     OW  169   1.579   0.103   1.726  0.3905 -0.2090 -0.5154
   43SOL    HW1  170   1.592   0.080   1.632  0.3744 -0.8189  1.2031
   43SOL    HW2  171   1.484   0.094   1.743 -0.9108 -1.0997 -0.0016
   43SOL     MW  172   1.568   0.099   1.716  0.2167 -0.4070 -0.2209
   44SOL     OW  173   1.077   0.748   1.031 -0.5292  0.4361 -0.3533
   44SOL    HW1  174   1.105   0.835   1.005 -3.6701  0.3696 -0.8662
   44SOL    HW2  175   1.082   0.747   1.126 -3.5848 -0.9500 -2.2117
   44SOL     MW  176   1.081   0.759   1.040 -1.3467  0.2445 -0.6661
   45SOL     OW  177   1.232   0.737   0.705  0.4250 -0.0017 -0.6014
   45SOL    HW1  178   1.175   0.735   0.781  1.3391  0.9949  1.5189
   45SOL    HW2  179   1.183   0.702   0.630  2.6994  0.4356 -3.1172
   45SOL     MW  180   1.218   0.732   0.705  0.8457  0.1875 -0.6536
   46SOL     OW  181   0.571   1.170   0.572 -0.5826 -0.0850  0.6530
   46SOL    HW1  182   0.541   1.143   0.483  1.0607 -4.2678  1.9054
   46SOL    HW2  183   0.661   1.131   0.560  2.2057 -0.2358  0.1119
   46SOL     MW  184   0.579   1.162   0.558  0.0021 -0.6568  0.7469
   47SOL     OW  185   0.170   1.999   1.909 -0.7481  0.5663  0.6093
   47SOL    HW1  186   0.234   1.931   1.874 -0.4210  0.2241 -0.6249
   47SOL    HW2  187   0.159   1.962   1.993  2.6219 -0.0103  0.8900
   47SOL     MW  188   0.177   1.985   1.915 -0.2603  0.4451  0.4835
   48SOL     OW  189   1.091   0.499   0.959  0.2372  0.2329 -0.0959
   48SOL    HW1  190   1.002   0.477   0.979 -0.7957 -1.5978  0.1527
   48SOL    HW2  191   1.087   0.592   0.976  0.2656 -2.3526 -1.0316
   48SOL     MW  192   1.079   0.508   0.964  0.1046 -0.3498 -0.1866
   49SOL     OW  193   1.838   0.732   1.592  0.2556 -0.1107 -0.4471
   49SOL    HW1  194   1.781   0.664   1.634 -2.2030 -0.9105  1.4186
   49SOL    HW2  195   1.885   0.684   1.527 -2.5434  1.9099 -1.1522
   49SOL     MW  196   1.836   0.716   1.589 -0.4381  0.0504 -0.2939
   50SOL     OW  197   1.217   1.085   0.515  0.7644  0.0582 -0.3345
   50SOL    HW1  198   1.185   1.131   0.594 -0.0453  1.4035  2.1801
   50SOL    HW2  199   1.299   1.046   0.547 -0.5462 -2.3689 -1.5181
   50SOL     MW  200   1.224   1.086   0.530  0.4846 -0.0845 -0.1589
   51SOL     OW  201   0.291   2.893   0.926 -0.3740  0.7011 -0.1348
   51SOL    HW1  202   0.374   2.831   0.934  2.4870  1.0652 -0.6620
   51SOL    HW2  203   0.272   2.908   1.021 -0.6360 -0.4382 -2.0130
   51SOL     MW  204   0.300   2.887   0.940 -0.0311  0.5988 -0.4522
   52SOL     OW  205   0.818   1.817   0.439  0.0076 -0.5094  0.4014
   52SOL    HW1  206   0.791   1.905   0.475  0.9303 -0.7743  0.4661
   52SOL    HW2  207   0.764   1.806   0.363  0.4550  2.1341  0.9097
   52SOL     MW  208   0.807   1.827   0.434  0.1884 -0.1956  0.4770
   53SOL     OW  209   0.420   2.123   0.589  0.4991 -0.1238 -0.0836
   53SOL    HW1  210   0.338   2.104   0.540 -1.8410  1.8354 -0.6039
   53SOL    HW2  211   0.411   2.214   0.586  0.1442 -0.8894 -2.1711
   53SOL     MW  212   0.408   2.133   0.582  0.1435  0.0337 -0.4277
   54SOL     OW  213   2.085   0.941   0.829 -0.1841  0.5924 -0.3875
   54SOL    HW1  214   2.119   0.934   0.738 -1.7367  0.2811 -1.1292
   54SOL    HW2  215   2.035   0.863   0.857  1.1093  1.0443  1.2553
   54SOL     MW  216   2.083   0.930   0.820 -0.2183  0.6110 -0.2686
   55SOL     OW  217   0.578   1.541   1.666 -0.2809 -0.7175 -0.3546
   55SOL    HW1  218   0.500   1.555   1.617 -0.0779  1.9604  0.9596
   55SOL    HW2  219   0.640   1.507   1.601 -1.0925  2.5358  0.1584
   55SOL     MW  220   0.576   1.539   1.651 -0.3612  0.0651 -0.1135
   56SOL     OW  221   0.611   0.789   0.064 -0.0743  0.2118  0.5197
   56SOL    HW1  222   0.607   0.886   0.060 -0.8909 -0.7679  1.7445
   56SOL    HW2  223   0.525   0.770   0.038  0.3507 -0.8082 -0.5602
   56SOL     MW  224   0.599   0.800   0.060 -0.1260 -0.0520  0.5388
   57SOL     OW  225   1.203   1.217   1.141 -0.5695  0.5531 -0.2905
   57SOL    HW1  226   1.277   1.269   1.105 -0.6044  2.3048 -0.6166
   57SOL    HW2  227   1.250   1.180   1.223 -0.8935 -0.6669 -0.4367
   57SOL     MW  228   1.219   1.219   1.147 -0.6168  0.6232 -0.3528
   58SOL     OW  229   0.527   1.185   1.321 -0.0405 -0.4654  0.6915
   58SOL    HW1  230   0.519   1.281   1.304  3.1551  1.6808 -0.4859
   58SOL    HW2  231   0.527   1.184   1.415  1.8580 -0.4053  2.0514
   58SOL     MW  232   0.526   1.198   1.331  0.6316 -0.1743  0.7156
   59SOL     OW  233   1.553   1.696   0.330 -0.0182  0.4102  0.2996
   59SOL    HW1  234   1.594   1.715   0.413  1.3245 -1.8487 -1.6503
   59SOL    HW2  235   1.461   1.664   0.351 -1.4641  1.0127  1.3718
   59SOL     MW  236   1.546   1.695   0.344 -0.0318  0.1917  0.1838
   60SOL     OW  237   0.010   0.180   1.586 -0.1175  0.4163 -0.4700
   60SOL    HW1  238  -0.071   0.221   1.595  1.7757 -1.9916 -1.3467
   60SOL    HW2  239   0.044   0.158   1.671 -3.7377  2.1680 -0.9847
   60SOL     MW  240   0.004   0.183   1.598 -0.3453  0.3297 -0.6536
   61SOL     OW  241   2.024   1.509   3.097  0.1714  0.0932  0.0680
   61SOL    HW1  242   2.008   1.484   3.189 -4.2891  0.1846  0.2487
   61SOL    HW2  243   2.051   1.434   3.048  0.0585  0.0887 -0.4938
   61SOL     MW  244   2.025   1.496   3.103 -0.4320  0.1047  0.0177
   62SOL     OW  245   0.584   1.721   0.642 -0.1459  0.3648  0.3826
   62SOL    HW1  246   0.671   1.738   0.607  2.0554  2.2070 -3.6204
   62SOL    HW2  247   0.575   1.623   0.656  1.9591  0.0311  0.7263
   62SOL     MW  248   0.594   1.711   0.639  0.4223  0.5638 -0.1002
   63SOL     OW  249   1.681   0.670   0.734  0.2444  0.2215  0.0149
   63SOL    HW1  250   1.685   0.751   0.683 -1.6925 -0.8300 -0.7882
   63SOL    HW2  251   1.593   0.666   0.770 -0.1997 -0.8869  0.2690
   63SOL     MW  252   1.670   0.680   0.732 -0.0697 -0.0635 -0.0575
   64SOL     OW  253   0.191   1.717   0.779 -0.2200 -0.8730  0.2227
   64SOL    HW1  254   0.266   1.766   0.807 -1.8196 -0.8533  2.8487
   64SOL    HW2  255   0.116   1.777   0.776 -3.0589  2.7901  0.9183
   64SOL     MW  256   0.191   1.731   0.782 -0.8056 -0.3871  0.6610
   65SOL     OW  257   1.564   2.324   0.388  0.5735 -0.6144 -0.0054
   65SOL    HW1  258   1.650   2.288   0.403  2.2381  0.1199  0.2597
   65SOL    HW2  259   1.550   2.382   0.461 -2.7254  0.4130  0.2442
   65SOL     MW  260   1.573   2.327   0.400  0.3579 -0.3819  0.0625
   66SOL     OW  261   0.290   0.536   0.549  0.2767  0.0229  0.0431
   66SOL    HW1  262   0.363   0.509   0.491 -0.9322 -1.2095  1.2808
   66SOL    HW2  263   0.275   0.635   0.524 -1.6860  2.0763 -0.1315
   66SOL     MW  264   0.298   0.545   0.538 -0.1417  0.1312  0.1833
   67SOL     OW  265   1.546   0.064   2.059  0.2149 -0.0360 -0.1824
   67SOL    HW1  266   1.617   0.062   2.000 -0.8615 -0.1331  0.8789
   67SOL    HW2  267   1.509  -0.022   2.047  2.8794 -1.2838  0.7241
   67SOL     MW  268   1.551   0.052   2.049  0.4245 -0.2135  0.0772
   68SOL     OW  269   0.693   0.131   2.938  0.2514 -0.2968  0.2302
   68SOL    HW1  270   0.674   0.196   2.871 -0.1338 -2.7948  1.0027
   68SOL    HW2  271   0.747   0.173   3.008  1.2879 -2.1171 -1.8657
   68SOL     MW  272   0.697   0.145   2.938  0.3373 -0.8666  0.0556
   69SOL     OW  273   1.023   0.212   2.005  0.4744  0.6479 -0.0817
   69SOL    HW1  274   1.121   0.218   2.015 -1.0982 -0.2836  0.2391
   69SOL    HW2  275   1.001   0.118   2.015  0.5218 -1.5776  1.5828
   69SOL     MW  276   1.033   0.200   2.007  0.2732  0.2314  0.1802
   70SOL     OW  277   0.540   1.727   1.128 -0.4473 -0.2003  0.0522
   70SOL    HW1  278   0.592   1.673   1.186  0.7379  1.9876  0.4944
   70SOL    HW2  279   0.617   1.772   1.088  0.5547  1.8262  1.2956
   70SOL     MW  280   0.557   1.726   1.130 -0.1587  0.3557  0.2746
   71SOL     OW  281   1.582   0.525   1.266 -0.4838  0.0156 -0.3405
   71SOL    HW1  282   1.525   0.572   1.326 -1.9780 -2.0339 -1.3529
   71SOL    HW2  283   1.555   0.565   1.180  0.0511 -0.1981 -0.3633
   71SOL     MW  284   1.571   0.537   1.263 -0.6104 -0.2830 -0.4771
   72SOL     OW  285   0.747   1.838   0.965  0.3168  0.5245  0.0154
   72SOL    HW1  286   0.762   1.892   0.886 -0.1615  0.1832 -0.9910
   72SOL    HW2  287   0.729   1.754   0.930  0.4744  2.8520 -4.2289
   72SOL     MW  288   0.747   1.834   0.950  0.2745  0.7866 -0.6773
   73SOL     OW  289   1.161   0.735   1.307 -0.2185 -0.5906 -0.3378
   73SOL    HW1  290   1.118   0.647   1.325  1.9693 -0.8449 -0.5640
   73SOL    HW2  291   1.129   0.792   1.378  0.8183  1.8263 -0.6730
   73SOL     MW  292   1.151   0.731   1.319  0.2070 -0.3053 -0.4119
   74SOL     OW  293   2.741   0.159   0.957 -0.6212 -0.7992  0.5822
   74SOL    HW1  294   2.820   0.170   0.906  1.8149 -0.1036  0.4907
   74SOL    HW2  295   2.703   0.250   0.968  0.1970 -0.1918  1.4535
   74SOL     MW  296   2.746   0.173   0.952 -0.1918 -0.6273  0.6851
   75SOL     OW  297   1.646   1.387   0.119 -0.2982 -0.3481  0.3674
   75SOL    HW1  298   1.694   1.470   0.127  1.0572 -0.2021 -1.0910
   75SOL    HW2  299   1.670   1.349   0.205  0.0519  2.5592  0.2404
   75SOL     MW  300   1.655   1.393   0.131 -0.0732  0.0547  0.1582
   76SOL     OW  301   3.013   0.604   0.466 -0.2157  0.1963  0.1963
   76SOL    HW1  302   3.074   0.664   0.510 -2.0256  0.7298  0.1510
   76SOL    HW2  303   3.069   0.530   0.446  3.3997  1.1632 -1.3073
   76SOL     MW  304   3.028   0.602   0.469  0.0225  0.3943 -0.0081
   77SOL     OW  305   0.832   0.535   0.443  0.1906 -0.4373  0.5412
   77SOL    HW1  306   0.811   0.538   0.350  1.5693 -0.7860 -1.6823
   77SOL    HW2  307   0.753   0.495   0.485  0.9310 -0.3013 -0.5694
   77SOL     MW  308   0.819   0.530   0.436  0.4702 -0.4654  0.1013
   78SOL     OW  309   0.729   0.934   1.309 -0.2897 -0.1747  0.1583
   78SOL    HW1  310   0.762   1.003   1.250 -0.9825 -2.6054 -1.1166
   78SOL    HW2  311   0.646   0.904   1.271  2.0632  0.2208  1.6389
   78SOL     MW  312   0.722   0.939   1.296 -0.0706 -0.4433  0.1855
   79SOL     OW  313   1.932   1.684   0.582 -0.2356  0.2102 -0.2370
   79SOL    HW1  314   1.870   1.625   0.534  0.6372  1.9639  0.6259
   79SOL    HW2  315   1.963   1.641   0.666 -2.3419  0.6825  2.1868
   79SOL     MW  316   1.928   1.670   0.587 -0.3984  0.5039  0.1966
   80SOL     OW  317   0.071   0.939   0.343  0.0404  0.1075  0.2840
   80SOL    HW1  318  -0.017   0.901   0.334 -1.5034 -1.1733 -1.5231
   80SOL    HW2  319   0.135   0.870   0.366  0.0348  0.9048 -2.6696
   80SOL     MW  320   0.068   0.925   0.345 -0.1641  0.0437 -0.3441
   81SOL     OW  321   1.920   1.919   0.228  0.3778 -0.0178  0.2305
   81SOL    HW1  322   1.885   1.831   0.244 -1.7530  1.0524  2.2128
   81SOL    HW2  323   1.848   1.984   0.223 -1.2400 -1.5802  0.8212
   81SOL     MW  324   1.906   1.916   0.229 -0.1168 -0.0827  0.5700
   82SOL     OW  325   0.812   1.020   0.519 -0.1370  0.1249  0.2309
   82SOL    HW1  326   0.806   1.023   0.419  0.7862 -1.7930  0.6935
   82SOL    HW2  327   0.776   0.931   0.540 -1.2096  3.0005 -0.7909
   82SOL     MW  328   0.806   1.009   0.509 -0.1567  0.2513  0.1571
   83SOL     OW  329   0.035   0.665   1.455  0.0505  0.3872  0.4452
   83SOL    HW1  330   0.075   0.725   1.382 -1.0275  2.9383  1.7356
   83SOL    HW2  331   0.107   0.629   1.501 -0.9209 -0.2780  0.0800
   83SOL     MW  332   0.050   0.668   1.451 -0.2199  0.6361  0.5673
   84SOL     OW  333   0.108   0.283   0.961  0.6717  0.0447  0.4412
   84SOL    HW1  334   0.015   0.315   0.938 -0.5068 -1.1159  2.4557
   84SOL    HW2  335   0.092   0.197   1.003  1.9639  0.5061  2.6953
   84SOL     MW  336   0.094   0.276   0.963  0.6867 -0.0475  1.0044
   85SOL     OW  337   0.479   0.410   0.745 -0.2293  0.6727 -0.5871
   85SOL    HW1  338   0.405   0.446   0.700  0.3829  1.0207 -1.8232
   85SOL    HW2  339   0.447   0.332   0.787 -0.4289 -0.6019 -0.6907
   85SOL     MW  340   0.465   0.404   0.744 -0.1749  0.5505 -0.7638
   86SOL     OW  341   1.174   0.296   1.129 -0.4115 -0.3316 -0.2485
   86SOL    HW1  342   1.162   0.379   1.085 -0.2145 -1.4565  0.8730
   86SOL    HW2  343   1.202   0.325   1.214 -1.7358 -2.5861  0.5315
   86SOL     MW  344   1.176   0.311   1.135 -0.5602 -0.7775  0.0024
   87SOL     OW  345   1.218   1.465   1.357  0.1455  0.1641  0.5268
   87SOL    HW1  346   1.238   1.519   1.281  2.6186 -1.8960 -0.3367
   87SOL    HW2  347   1.225   1.380   1.319  0.9785  1.3566  0.6699
   87SOL     MW  348   1.221   1.461   1.342  0.5817  0.0496  0.4317
   88SOL     OW  349   1.214   1.005   0.937 -0.1005  0.2820  0.4750
   88SOL    HW1  350   1.306   0.975   0.946  0.4417 -0.5914  0.0190
   88SOL    HW2  351   1.210   1.067   1.006 -0.8094 -0.1996 -2.1566
   88SOL     MW  352   1.226   1.009   0.947 -0.1225  0.1032  0.0676
   89SOL     OW  353   1.784   0.683   0.371 -0.4191  0.2145 -0.0132
   89SOL    HW1  354   1.813   0.596   0.385  1.5343 -0.2846  0.6289
   89SOL    HW2  355   1.856   0.718   0.319  0.4427 -1.1893  0.9288
   89SOL     MW  356   1.797   0.676   0.366 -0.0477 -0.0366  0.1958
   90SOL     OW  357   0.700   1.131   2.716  0.3257  0.3929 -0.0894
   90SOL    HW1  358   0.741   1.044   2.743 -1.0528 -0.6506  1.6763
   90SOL    HW2  359   0.725   1.178   2.795  1.9031  4.1626  2.6952
   90SOL     MW  360   0.709   1.126   2.730  0.3520  0.7526  0.5110
   91SOL     OW  361   2.173   0.667   0.451  0.0890 -0.3355 -0.2446
   91SOL    HW1  362   2.248   0.697   0.399 -2.5055  0.0709 -2.9520
   91SOL    HW2  363   2.170   0.572   0.438 -0.8055  0.9897 -0.2193
   91SOL     MW  364   2.183   0.659   0.442 -0.3713 -0.1070 -0.5985
   92SOL     OW  365   1.685   0.886   0.534  0.7665  0.4147 -0.0753
   92SOL    HW1  366   1.588   0.882   0.560 -0.3610 -0.7232  2.7793
   92SOL    HW2  367   1.713   0.808   0.487  3.2114  1.9028 -1.4048
   92SOL     MW  368   1.676   0.875   0.531  0.9403  0.4609  0.1259
   93SOL     OW  369   0.925   0.255   0.417 -0.2407 -0.1740  0.4181
   93SOL    HW1  370   0.885   0.340   0.443 -1.3126 -0.1673 -3.2339
   93SOL    HW2  371   0.963   0.275   0.333  0.4854  0.5233  1.1752
   93SOL     MW  372   0.924   0.269   0.410 -0.2863 -0.0811  0.0362
   94SOL     OW  373   1.785   1.483   1.624  0.3736 -0.3486 -0.2914
   94SOL    HW1  374   1.796   1.473   1.533 -1.0215  0.9486  1.4577
   94SOL    HW2  375   1.752   1.394   1.654 -0.5432 -2.5436  1.4635
   94SOL     MW  376   1.782   1.470   1.616  0.0685 -0.4671  0.1709
   95SOL     OW  377   0.743   1.567   0.912 -0.3147 -0.0301 -0.2831
   95SOL    HW1  378   0.786   1.491   0.947 -0.3354 -0.9180 -1.6278
   95SOL    HW2  379   0.655   1.534   0.922  0.0706 -0.5443  0.3028
   95SOL     MW  380   0.737   1.552   0.918 -0.2666 -0.2151 -0.3832
   96SOL     OW  381   1.265   1.846   1.674  0.6493  0.2707  0.4981
   96SOL    HW1  382   1.175   1.833   1.720 -2.4559 -2.3478  4.4075
   96SOL    HW2  383   1.281   1.768   1.617 -1.0861  3.3449  2.7459
   96SOL     MW  384   1.255   1.834   1.672  0.0106  0.3308  1.3105
   97SOL     OW  385   1.257   1.443   0.740  0.3620 -0.3122 -0.6121
   97SOL    HW1  386   1.316   1.486   0.806 -0.1494  0.0844  0.1305
   97SOL    HW2  387   1.177   1.494   0.758 -1.3036 -0.5000  1.2276
   97SOL     MW  388   1.254   1.455   0.751  0.0747 -0.2847 -0.2714
   98SOL     OW  389   1.442   1.296   1.039 -0.1036 -0.0252  0.3677
   98SOL    HW1  390   1.453   1.372   1.091 -1.9865  1.5300  1.0751
   98SOL    HW2  391   1.504   1.305   0.968  2.2742  0.0929  0.7705
   98SOL     MW  392   1.451   1.307   1.036 -0.0383  0.1956  0.5142
   99SOL     OW  393   1.375   0.360   1.329  0.0722 -0.3833 -0.1155
   99SOL    HW1  394   1.460   0.380   1.285 -1.6185 -0.7637 -1.5681
   99SOL    HW2  395   1.388   0.367   1.426  0.0445 -2.1453 -0.4931
   99SOL     MW  396   1.388   0.364   1.336 -0.1546 -0.6660 -0.3570
  100SOL     OW  397   1.019   1.178   1.400 -0.2270  0.4783  0.7619
  100SOL    HW1  398   1.033   1.205   1.492 -1.0188  2.4023  1.7707
  100SOL    HW2  399   1.031   1.084   1.403  0.0237 -0.7609  1.8342
  100SOL     MW  400   1.023   1.169   1.412 -0.2984  0.5687  1.0365
  101SOL     OW  401   0.499   1.092   0.331 -0.1801  0.6410  0.3248
  101SOL    HW1  402   0.508   0.997   0.339  0.8587 -2.8557 -0.3185
  101SOL    HW2  403   0.502   1.118   0.237 -0.9991 -1.3707  0.8989
  101SOL     MW  404   0.501   1.083   0.320 -0.1511 -0.0858  0.3157
  102SOL     OW  405   2.912   0.629   1.047  0.5482  0.1430  0.5298
  102SOL    HW1  406   2.976   0.703   1.051 -1.8742 -1.2823  0.0549
  102SOL    HW2  407   2.928   0.577   1.125 -0.4698 -0.9551  0.6463
  102SOL     MW  408   2.923   0.632   1.058  0.0943 -0.1899  0.4825
  103SOL     OW  409   1.772   0.300   1.822  1.1234 -0.9377  0.4296
  103SOL    HW1  410   1.722   0.219   1.804 -2.5030 -2.7717  2.4849
  103SOL    HW2  411   1.790   0.294   1.923 -0.8450 -0.8616 -0.6747
  103SOL     MW  412   1.768   0.289   1.833  0.3852 -1.1696  0.5551
  104SOL     OW  413   0.061   1.690   1.500  0.4509 -1.0103 -0.0004
  104SOL    HW1  414   0.017   1.660   1.570 -0.0024  0.8829 -4.8084
  104SOL    HW2  415   0.036   1.633   1.429  1.7292  0.0806  3.5322
  104SOL     MW  416   0.052   1.679   1.500  0.5597 -0.6166 -0.1686
  105SOL     OW  417   0.020   1.189   0.444 -0.5946  0.0357 -0.6736
  105SOL    HW1  418   0.041   1.094   0.407  0.4870 -0.3615 -0.9936
  105SOL    HW2  419   0.108   1.234   0.456  3.2044 -0.0335  0.3054
  105SOL     MW  420   0.035   1.183   0.441  0.0493 -0.0258 -0.5866
  106SOL     OW  421   0.852   0.389   1.014 -0.0762 -0.5527 -0.1754
  106SOL    HW1  422   0.793   0.436   0.949  0.8571  1.6379  0.4013
  106SOL    HW2  423   0.897   0.311   0.969 -0.9733 -1.0354  0.3607
  106SOL     MW  424   0.850   0.385   0.999 -0.0714 -0.3274 -0.0286
  107SOL     OW  425   0.778   2.153   2.973  0.3788 -0.2365  0.3873
  107SOL    HW1  426   0.711   2.116   2.913  1.2843  0.2587  0.2790
  107SOL    HW2  427   0.755   2.116   3.059 -1.0178 -3.8935 -1.1146
  107SOL     MW  428   0.766   2.143   2.976  0.3140 -0.6536  0.1748
  108SOL     OW  429   1.277   1.567   1.606  0.4118 -0.2580  0.4070
  108SOL    HW1  430   1.250   1.569   1.517 -1.8291 -0.5272 -2.0771
  108SOL    HW2  431   1.359   1.508   1.613  1.4629 -0.5968 -0.4752
  108SOL     MW  432   1.285   1.560   1.595  0.2548 -0.3382 -0.0372
  109SOL     OW  433   1.958   0.776   0.175  0.0792 -0.4810 -0.3373
  109SOL    HW1  434   2.029   0.795   0.115 -0.6894 -2.7885 -0.6412
  109SOL    HW2  435   1.992   0.839   0.242 -3.7375  3.5659 -0.7232
  109SOL     MW  436   1.971   0.787   0.176 -0.5258 -0.2515 -0.4283
  110SOL     OW  437   0.425   1.902   0.792 -0.4050 -0.2204 -0.9184
  110SOL    HW1  438   0.476   1.828   0.758  0.3527  1.6071 -2.2675
  110SOL    HW2  439   0.445   1.977   0.734  1.5497  1.5224 -0.6830
  110SOL     MW  440   0.434   1.902   0.780 -0.0471  0.2506 -1.0653
  111SOL     OW  441   0.845   0.919   1.557  0.7423  0.8109 -0.2647
  111SOL    HW1  442   0.780   0.932   1.485  0.2634  2.2320 -1.8087
  111SOL    HW2  443   0.839   0.823   1.580  1.8749  1.1541  1.7037
  111SOL     MW  444   0.836   0.908   1.551  0.8285  1.0437 -0.2087
  112SOL     OW  445   1.341   1.094   1.605 -0.4187  0.1053  0.6028
  112SOL    HW1  446   1.263   1.150   1.621 -1.7644  1.2652 -1.8240
  112SOL    HW2  447   1.313   1.006   1.634 -0.1610 -0.8885  0.3322
  112SOL     MW  448   1.327   1.090   1.611 -0.5622  0.1272  0.2469
  113SOL     OW  449   1.301   0.053   1.731 -0.2543 -0.1062  0.2442
  113SOL    HW1  450   1.286   0.015   1.818 -1.6128 -1.9198  1.1378
  113SOL    HW2  451   1.332  -0.028   1.694 -1.6911  0.6989  1.3643
  113SOL     MW  452   1.303   0.038   1.738 -0.6231 -0.2392  0.5099
  114SOL     OW  453   0.270   2.857   1.931 -0.2298  0.4200 -0.3249
  114SOL    HW1  454   0.324   2.928   1.959 -0.0088  0.5665  0.3426
  114SOL    HW2  455   0.278   2.871   1.833 -1.7185 -1.1830  1.0694
  114SOL     MW  456   0.278   2.868   1.921 -0.3970  0.2278 -0.0529
  115SOL     OW  457   0.471   0.827   1.138  0.0619  0.3741 -0.4939
  115SOL    HW1  458   0.503   0.732   1.125 -2.1866 -2.7861  2.5994
  115SOL    HW2  459   0.472   0.832   1.230  2.9161  0.5276 -2.8592
  115SOL     MW  460   0.475   0.815   1.148  0.1418 -0.0226 -0.3978
  116SOL     OW  461   0.803   1.055   0.959 -0.6840  0.3993 -0.2114
  116SOL    HW1  462   0.842   1.098   0.883  0.8241  0.7320  0.0417
  116SOL    HW2  463   0.834   1.104   1.030  1.9192  0.5084 -2.7098
  116SOL     MW  464   0.812   1.067   0.959 -0.1416  0.4576 -0.5076
  117SOL     OW  465   1.120   1.181   0.748  0.4331  0.0839  0.1870
  117SOL    HW1  466   1.158   1.113   0.808 -0.0025 -0.4440  3.1311
  117SOL    HW2  467   1.167   1.264   0.754  0.3986 -0.8481 -2.1854
  117SOL     MW  468   1.131   1.183   0.757  0.3711 -0.1087  0.2625
  118SOL     OW  469   3.020   2.962   1.762  0.2081  0.3972 -0.2648
  118SOL    HW1  470   3.060   3.047   1.775 -0.8783  2.1527  0.1358
  118SOL    HW2  471   2.926   2.976   1.751 -1.5090  1.9237 -0.9636
  118SOL     MW  472   3.013   2.975   1.762 -0.1618  0.8302 -0.3041
  119SOL     OW  473   0.480   1.430   1.235 -0.3240  0.5635  0.1837
  119SOL    HW1  474   0.478   1.418   1.138  2.1571 -0.1056  0.4755
  119SOL    HW2  475   0.386   1.453   1.256 -0.9469  3.7385  2.8770
  119SOL     MW  476   0.467   1.431   1.225 -0.0788  0.8941  0.5775
  120SOL     OW  477   0.266   0.715   0.979 -0.0250 -0.0449  0.2959
  120SOL    HW1  478   0.264   0.639   1.036 -1.9755  0.4879 -0.4919
  120SOL    HW2  479   0.313   0.778   1.031 -0.8488 -0.7692 -0.0526
  120SOL     MW  480   0.272   0.713   0.994 -0.3911 -0.0701  0.1460
  121SOL     OW  481   1.737   1.193   1.718  0.0496 -0.1275 -0.1520
  121SOL    HW1  482   1.664   1.159   1.764 -2.0995  1.2675  2.4451
  121SOL    HW2  483   1.770   1.123   1.662 -2.6899  0.5938 -0.9760
  121SOL     MW  484   1.732   1.180   1.717 -0.5954  0.1518  0.0819
  122SOL     OW  485   0.111   0.540   0.788 -0.1191 -0.1057 -0.0167
  122SOL    HW1  486   0.164   0.518   0.710  0.7736  0.8257  0.3850
  122SOL    HW2  487   0.164   0.593   0.850 -1.4869 -1.2450 -1.7006
  122SOL     MW  488   0.125   0.544   0.786 -0.1818 -0.1331 -0.1858
  123SOL     OW  489   1.848   1.114   0.536  0.4654  0.5001 -0.3973
  123SOL    HW1  490   1.773   1.053   0.554 -0.5564 -2.8106 -0.5603
  123SOL    HW2  491   1.869   1.151   0.622  0.7460  3.1341  0.7530
  123SOL     MW  492   1.841   1.111   0.550  0.3676  0.4108 -0.2671
  124SOL     OW  493   0.688   0.530   0.859 -0.3021  0.0761 -0.6346
  124SOL    HW1  494   0.607   0.491   0.815 -0.0240  1.8830  2.0742
  124SOL    HW2  495   0.677   0.626   0.846 -0.4631 -1.4854  0.1712
  124SOL     MW  496   0.676   0.537   0.851 -0.2866  0.1085 -0.1709
  125SOL     OW  497   0.689   1.787   1.729 -0.2427  0.2582  0.2711
  125SOL    HW1  498   0.648   1.704   1.690  1.7421  1.5843 -1.1252
  125SOL    HW2  499   0.643   1.852   1.683  0.7048  0.2839  1.6702
  125SOL     MW  500   0.678   1.785   1.718  0.1442  0.4366  0.2714
  126SOL     OW  501   2.116   1.597   1.972 -0.2890 -0.5988 -0.4570
  126SOL    HW1  502   2.181   1.667   1.959 -1.9016  0.4607 -1.5474
  126SOL    HW2  503   2.172   1.523   1.983 -0.6106  0.1992 -1.4277
  126SOL     MW  504   2.132   1.597   1.971 -0.5442 -0.3537 -0.7290
  127SOL     OW  505   0.723   0.779   1.852 -0.1273  0.1615 -0.3098
  127SOL    HW1  506   0.793   0.728   1.898  0.2082 -4.5641  0.6178
  127SOL    HW2  507   0.706   0.855   1.913  0.2362  2.0171  0.1120
  127SOL     MW  508   0.730   0.782   1.866 -0.0351 -0.2171 -0.1318
  128SOL     OW  509   1.772   0.723   2.931  0.0740  0.6022  0.3817
  128SOL    HW1  510   1.820   0.696   2.851  2.1805 -3.6577  1.8744
  128SOL    HW2  511   1.739   0.814   2.914  1.3349  2.0574  0.1683
  128SOL     MW  512   1.774   0.731   2.918  0.5183  0.2321  0.5505
  129SOL     OW  513   1.636   0.958   0.218 -0.3377 -0.2839 -0.2983
  129SOL    HW1  514   1.600   0.874   0.204  1.2421  0.1583  1.9174
  129SOL    HW2  515   1.642   0.968   0.309  0.9232 -0.6130 -0.3620
  129SOL     MW  516   1.632   0.948   0.228  0.0371 -0.2689 -0.0144
  130SOL     OW  517   0.740   1.331   0.365  0.0025  0.0861  0.1848
  130SOL    HW1  518   0.779   1.350   0.448  2.6381  1.3716  2.1073
  130SOL    HW2  519   0.801   1.396   0.312  1.2385  0.4051 -4.7418
  130SOL     MW  520   0.753   1.342   0.369  0.5133  0.2978 -0.2116
  131SOL     OW  521   3.032   0.805   3.080  0.3163 -0.0651  0.1414
  131SOL    HW1  522   3.061   0.850   2.998  0.0639 -0.0054 -0.6139
  131SOL    HW2  523   3.096   0.836   3.139 -0.6008 -1.5434 -0.4304
  131SOL     MW  524   3.044   0.815   3.077  0.1620 -0.2522 -0.0337
  132SOL     OW  525   2.684   0.139   1.238  0.1146  0.1208 -0.3098
  132SOL    HW1  526   2.691   0.120   1.143 -1.8619 -1.3938  1.2497
  132SOL    HW2  527   2.591   0.116   1.257  0.7822  0.6214 -1.2511
  132SOL     MW  528   2.673   0.134   1.228 -0.0581 -0.0130 -0.2282
  133SOL     OW  529   1.011   0.136   1.726 -0.2428 -0.4592 -0.3795
  133SOL    HW1  530   1.078   0.068   1.725 -0.5333 -1.5387  2.1648
  133SOL    HW2  531   1.002   0.162   1.820 -3.9743  0.1898  1.3900
  133SOL     MW  532   1.018   0.131   1.738 -0.7735 -0.5160  0.1896
  134SOL     OW  533   1.385   2.509   1.432 -0.3163  0.1214  0.5082
  134SOL    HW1  534   1.326   2.585   1.414  1.1111  1.2943 -4.8350
  134SOL    HW2  535   1.439   2.547   1.506 -1.1941 -0.1871  4.0175
  134SOL     MW  536   1.384   2.524   1.439 -0.2438  0.2355  0.2662
  135SOL     OW  537   3.024   0.985   2.842 -0.1727 -0.0461  0.5649
  135SOL    HW1  538   3.079   1.042   2.888 -2.2986 -4.6943 -1.1490
  135SOL    HW2  539   2.941   1.032   2.843  0.1395 -2.7934 -1.1223
  135SOL     MW  540   3.021   0.999   2.848 -0.4120 -1.0219  0.1161
  136SOL     OW  541   0.193   2.045   0.875  0.0535 -0.0516 -0.2386
  136SOL    HW1  542   0.107   2.012   0.838 -1.7309  0.8865  0.4596
  136SOL    HW2  543   0.264   1.999   0.826 -1.5999 -0.3103  1.6990
  136SOL     MW  544   0.191   2.035   0.864 -0.4001  0.0381  0.1092
  137SOL     OW  545   0.689   2.072   0.534 -0.1452 -0.3032 -0.0787
  137SOL    HW1  546   0.711   2.047   0.621  1.4018  1.0238  0.8805
  137SOL    HW2  547   0.600   2.054   0.538  4.2931 -0.5335  2.4493
  137SOL     MW  548   0.680   2.066   0.546  0.6445 -0.1585  0.3814
  138SOL     OW  549   0.555   0.574   1.102  0.3715  0.1083  0.6595
  138SOL    HW1  550   0.470   0.535   1.088 -0.2985 -0.9899 -0.4152
  138SOL    HW2  551   0.597   0.566   1.012 -0.2154  1.4146 -0.7087
  138SOL     MW  552   0.550   0.568   1.088  0.2057  0.1358  0.3372
  139SOL     OW  553   2.791   0.584   1.353  0.6744  0.0633  0.3766
  139SOL    HW1  554   2.812   0.490   1.353  2.4335 -0.7946 -0.3354
  139SOL    HW2  555   2.861   0.630   1.405 -0.3594 -1.5891  2.4274
  139SOL     MW  556   2.803   0.577   1.360  0.7701 -0.2679  0.5532
  140SOL     OW  557   0.816   0.392   2.100  0.1325  0.0310  0.0519
  140SOL    HW1  558   0.895   0.341   2.079 -1.4242  1.8011  3.6272
  140SOL    HW2  559   0.827   0.434   2.189  1.8254 -0.1176  0.0783
  140SOL     MW  560   0.828   0.390   2.109  0.1505  0.2449  0.5271
  141SOL     OW  561   1.081   0.649   1.749 -0.4457  0.5813 -0.4658
  141SOL    HW1  562   1.101   0.563   1.716  0.0808  1.7931 -1.7153
  141SOL    HW2  563   1.160   0.711   1.738  0.7092  2.2351  1.8682
  141SOL     MW  564   1.094   0.646   1.743 -0.2238  0.9594 -0.3227
  142SOL     OW  565   0.857   1.188   0.728  0.4695  0.0280 -0.2915
  142SOL    HW1  566   0.863   1.113   0.663  1.9768 -0.6923  1.2625
  142SOL    HW2  567   0.951   1.213   0.742  0.2620 -0.3601  0.2372
  142SOL     MW  568   0.871   1.181   0.722  0.6410 -0.1183 -0.0167
  143SOL     OW  569   1.763   0.761   1.121  0.5825 -0.4753 -0.5842
  143SOL    HW1  570   1.811   0.739   1.041  0.5388 -0.0418  0.2006
  143SOL    HW2  571   1.672   0.749   1.095  2.2037 -4.3614  0.8364
  143SOL     MW  572   1.757   0.757   1.107  0.7907 -0.9309 -0.2932
  144SOL     OW  573   0.220   1.161   1.586 -0.0135 -0.0199 -0.1235
  144SOL    HW1  574   0.286   1.218   1.547 -0.0531  2.5011  0.2053
  144SOL    HW2  575   0.250   1.157   1.676 -1.5961 -2.1770  0.5646
  144SOL     MW  576   0.232   1.168   1.593 -0.2275  0.0281  0.0107
  145SOL     OW  577   0.259   0.467   1.133 -0.5560  0.2552 -0.1012
  145SOL    HW1  578   0.300   0.402   1.183  0.2165  3.5984 -4.5225
  145SOL    HW2  579   0.221   0.407   1.061 -1.3950  0.9576  2.6454
  145SOL     MW  580   0.259   0.450   1.130 -0.5648  0.7889 -0.3222
  146SOL     OW  581   0.821   1.929   1.328  0.3537  0.0423 -0.0246
  146SOL    HW1  582   0.877   1.942   1.249  2.4918 -1.8777  0.9115
  146SOL    HW2  583   0.730   1.924   1.313  1.2353 -1.3518  1.1530
  146SOL     MW  584   0.817   1.930   1.315  0.7522 -0.3950  0.2543
  147SOL     OW  585   0.351   0.402   2.987  0.6286  0.5280 -0.3064
  147SOL    HW1  586   0.309   0.433   3.069  1.0561 -1.8761  1.0551
  147SOL    HW2  587   0.332   0.473   2.923 -2.4333  1.2578 -0.8106
  147SOL     MW  588   0.343   0.416   2.989  0.2810  0.3071 -0.1933
  148SOL     OW  589   0.150   0.846   1.267  0.0217 -0.3685  0.1909
  148SOL    HW1  590   0.242   0.852   1.293 -2.8944  1.8751 -1.4499
  148SOL    HW2  591   0.106   0.892   1.338  1.4579 -1.5118 -0.3588
  148SOL     MW  592   0.156   0.853   1.280 -0.1736 -0.2233 -0.0981
  149SOL     OW  593   1.382   1.159   1.339  0.5531  0.1198  0.0144
  149SOL    HW1  594   1.348   1.140   1.428  0.9502 -3.8109  0.4483
  149SOL    HW2  595   1.464   1.210   1.349 -1.0622  1.7080 -2.8167
  149SOL     MW  596   1.388   1.163   1.352  0.3924 -0.1893 -0.3019
  150SOL     OW  597   1.853   1.409   0.746 -0.1738  0.2421  0.2040
  150SOL    HW1  598   1.899   1.331   0.767  0.2790  2.1568 -1.2655
  150SOL    HW2  599   1.898   1.473   0.804 -0.6044  0.1633 -1.1052
  150SOL     MW  600   1.865   1.408   0.757 -0.1708  0.4843 -0.1626
  151SOL     OW  601   1.682   1.762   0.828  0.6083  0.1079  0.0015
  151SOL    HW1  602   1.664   1.793   0.738 -0.4769 -1.5638  0.0404
  151SOL    HW2  603   1.614   1.692   0.834 -3.6208 -1.6079 -1.7452
  151SOL     MW  604   1.670   1.757   0.817 -0.0928 -0.3390 -0.2239
  152SOL     OW  605   0.741   1.426   1.500  0.0661  0.2237 -0.0180
  152SOL    HW1  606   0.766   1.339   1.475 -0.1194 -0.4901  3.6015
  152SOL    HW2  607   0.828   1.462   1.519 -0.5241  0.4566 -1.1519
  152SOL     MW  608   0.756   1.419   1.500 -0.0362  0.1603  0.3099
  153SOL     OW  609   2.592   1.204   0.764  0.0036 -0.4284  0.4819
  153SOL    HW1  610   2.657   1.146   0.711 -0.4062  1.0404  0.7403
  153SOL    HW2  611   2.512   1.150   0.783 -0.6432 -0.9864  2.4232
  153SOL     MW  612   2.590   1.189   0.759 -0.1358 -0.3082  0.7722
  154SOL     OW  613   0.315   1.812   1.728 -0.4907  0.0487 -0.8023
  154SOL    HW1  614   0.340   1.793   1.637 -0.5407 -0.3143  0.9196
  154SOL    HW2  615   0.336   1.732   1.785  1.5410 -0.9894  1.0072
  154SOL     MW  616   0.321   1.799   1.724 -0.2292 -0.1362 -0.3364
  155SOL     OW  617   1.223   0.724   0.262  0.3157  0.3181 -0.1203
  155SOL    HW1  618   1.179   0.675   0.326  1.8472 -0.6350 -2.9891
  155SOL    HW2  619   1.181   0.815   0.267  0.5742 -0.2997 -1.1610
  155SOL     MW  620   1.212   0.730   0.271  0.5518  0.1108 -0.6361
  156SOL     OW  621   1.525   3.058   1.110  0.0122  0.3500  1.0447
  156SOL    HW1  622   1.596   3.127   1.119  0.7961  1.5197  0.2028
  156SOL    HW2  623   1.555   2.972   1.137 -2.4397 -2.4460 -1.5391
  156SOL     MW  624   1.538   3.056   1.115 -0.2079  0.1354  0.5927
  157SOL     OW  625   1.442   1.132   0.103 -0.3846  0.7291 -0.3547
  157SOL    HW1  626   1.507   1.062   0.139  1.4193 -1.8180  1.6364
  157SOL    HW2  627   1.505   1.199   0.075  0.7664  0.7532 -0.0546
  157SOL     MW  628   1.459   1.131   0.104  0.0053  0.3962 -0.0524
  158SOL     OW  629   0.515   1.657   2.193  0.8460  0.0770  0.4235
  158SOL    HW1  630   0.492   1.724   2.126  0.3850  0.3603 -1.7460
  158SOL    HW2  631   0.442   1.632   2.247  1.8343  1.8630 -0.3439
  158SOL     MW  632   0.503   1.663   2.191  0.9156  0.3500  0.0360
  159SOL     OW  633   1.288   1.702   0.427 -0.0924 -0.3187 -0.1689
  159SOL    HW1  634   1.240   1.623   0.401 -0.1870 -1.5760  0.4394
  159SOL    HW2  635   1.234   1.730   0.496  1.2099 -0.8285 -0.0907
  159SOL     MW  636   1.275   1.696   0.433  0.0669 -0.5518 -0.0783
  160SOL     OW  637   0.556   1.170   1.602  0.2167  0.1793 -0.4116
  160SOL    HW1  638   0.533   1.082   1.632 -2.5754 -0.5787  0.8856
  160SOL    HW2  639   0.632   1.189   1.652 -0.4083  0.6494 -0.7803
  160SOL     MW  640   0.563   1.161   1.613 -0.2341  0.1413 -0.2891
  161SOL     OW  641   0.466   2.181   2.574 -0.0855  0.1600  0.1013
  161SOL    HW1  642   0.372   2.197   2.551 -2.4305  3.1600  1.5768
  161SOL    HW2  643   0.509   2.163   2.493  2.4656  0.3633  0.4711
  161SOL     MW  644   0.459   2.181   2.560 -0.0583  0.5826  0.3448
  162SOL     OW  645   1.066   1.784   1.862  0.1214  0.2578 -0.2659
  162SOL    HW1  646   1.075   1.867   1.907 -2.3973 -0.5827 -1.9008
  162SOL    HW2  647   0.971   1.756   1.883  1.0785  1.6753 -2.0677
  162SOL     MW  648   1.055   1.791   1.871 -0.0846  0.3339 -0.7193
  163SOL     OW  649   2.162   0.023   0.934  0.5302 -0.5515 -0.1207
  163SOL    HW1  650   2.126   0.048   0.847  1.5700 -2.9134 -0.4401
  163SOL    HW2  651   2.122  -0.059   0.971 -1.9093 -1.0289  0.3626
  163SOL     MW  652   2.152   0.016   0.927  0.3455 -0.9261 -0.0990
  164SOL     OW  653   0.372   0.211   0.880 -0.2528 -0.3601  0.0647
  164SOL    HW1  654   0.290   0.250   0.892  0.3292  0.4327  0.7575
  164SOL    HW2  655   0.352   0.133   0.827  1.3947  0.0639  0.8926
  164SOL     MW  656   0.359   0.206   0.875  0.0413 -0.1995  0.2654
  165SOL     OW  657   1.349   1.247   0.354 -0.0129  0.6020  0.1631
  165SOL    HW1  658   1.290   1.177   0.385  1.0151 -1.7511 -2.3930
  165SOL    HW2  659   1.368   1.219   0.261 -1.9579 -1.0858  0.1552
  165SOL     MW  660   1.344   1.234   0.346 -0.1339  0.0688 -0.1752
  166SOL     OW  661   0.535   1.138   1.011  0.0645  0.3899  0.0980
  166SOL    HW1  662   0.551   1.138   1.107  3.2120 -0.4233  2.1016
  166SOL    HW2  663   0.623   1.107   0.987  1.8499 -0.6468  1.5130
  166SOL     MW  664   0.549   1.134   1.021  0.7153  0.1458  0.5491
  167SOL     OW  665   0.760   1.018   0.258  0.2983 -0.3356  0.2203
  167SOL    HW1  666   0.662   1.036   0.243  0.5562  1.1384 -1.2087
  167SOL    HW2  667   0.814   1.088   0.216 -1.4714 -2.1580  1.8784
  167SOL     MW  668   0.754   1.030   0.251  0.0988 -0.3816  0.2505
  168SOL     OW  669   1.686   1.668   2.996  1.0234  0.1285  0.3827
  168SOL    HW1  670   1.632   1.720   2.936 -2.1272 -1.5189  1.1721
  168SOL    HW2  671   1.687   1.578   2.961 -1.2895 -4.5587  0.6766
  168SOL     MW  672   1.679   1.663   2.983  0.3025 -0.7073  0.5256
  169SOL     OW  673   0.394   0.893   1.391  0.0269 -0.0665 -0.4829
  169SOL    HW1  674   0.429   0.886   1.485 -1.5750 -0.1128  1.5575
  169SOL    HW2  675   0.433   0.978   1.362  3.6228 -0.0027  1.3720
  169SOL     MW  676   0.404   0.903   1.400  0.2900 -0.0642  0.0310
  170SOL     OW  677   1.002   1.472   1.503  0.0278  0.3165 -0.4733
  170SOL    HW1  678   1.003   1.570   1.504  1.0675  0.8810  1.3368
  170SOL    HW2  679   1.081   1.450   1.446 -0.2420  3.3376  1.8816
  170SOL     MW  680   1.013   1.482   1.495  0.1294  0.7896  0.0762
  171SOL     OW  681   0.561   1.442   0.698 -0.3364  0.2383  0.3772
  171SOL    HW1  682   0.546   1.409   0.781 -3.1007  2.2544 -1.1290
  171SOL    HW2  683   0.577   1.367   0.638 -2.1681 -0.6144 -0.6979
  171SOL     MW  684   0.561   1.427   0.701 -0.9428  0.3918  0.0366
  172SOL     OW  685   0.843   0.338   1.287  0.1216  0.4442  0.0951
  172SOL    HW1  686   0.835   0.352   1.193  0.1496  1.6580 -0.4685
  172SOL    HW2  687   0.746   0.352   1.312  1.3962 -0.4614  0.5321
  172SOL     MW  688   0.829   0.341   1.278  0.2935  0.4848  0.0784
  173SOL     OW  689   0.450   1.732   0.375  0.2033 -0.3448 -0.0445
  173SOL    HW1  690   0.452   1.641   0.348  4.3460  0.1920 -2.9690
  173SOL    HW2  691   0.502   1.731   0.455 -0.4485  2.7793 -2.0611
  173SOL     MW  692   0.457   1.720   0.382  0.6639  0.1382 -0.6964
  174SOL     OW  693   1.854   1.002   1.567 -0.3513  0.1995  0.3722
  174SOL    HW1  694   1.856   0.901   1.577  1.3292 -1.3340 -1.9275
  174SOL    HW2  695   1.866   1.016   1.475 -1.7867 -0.1694  1.9992
  174SOL     MW  696   1.856   0.991   1.556 -0.3190 -0.0515  0.2835
  175SOL     OW  697   0.501   1.455   0.302  0.4220  0.6330 -0.7311
  175SOL    HW1  698   0.445   1.405   0.230 -2.0605 -1.8408  0.7465
  175SOL    HW2  699   0.573   1.398   0.328  0.1960  1.7719 -0.5297
  175SOL     MW  700   0.503   1.441   0.296  0.0646  0.4569 -0.5096
  176SOL     OW  701   0.199   1.457   1.217 -0.7717  0.9896 -0.3114
  176SOL    HW1  702   0.194   1.382   1.154 -2.1724 -2.7042  1.1293
  176SOL    HW2  703   0.115   1.474   1.251 -0.0946 -0.5788  0.5288
  176SOL     MW  704   0.187   1.449   1.213 -0.8672  0.2953 -0.0105
  177SOL     OW  705   0.603   0.429   1.348  0.4860  0.5179  0.4786
  177SOL    HW1  706   0.582   0.483   1.269  2.1634 -1.3050  2.8017
  177SOL    HW2  707   0.584   0.486   1.426 -2.3602  1.2066  0.2689
  177SOL     MW  708   0.598   0.443   1.348  0.3318  0.3683  0.7575
  178SOL     OW  709   0.010   0.439   2.950 -0.3671  0.1837 -0.3326
  178SOL    HW1  710  -0.060   0.478   3.005  0.0643 -1.2226  2.1437
  178SOL    HW2  711   0.008   0.473   2.864 -1.0258 -2.1304  0.0971
  178SOL     MW  712   0.001   0.449   2.946 -0.3971 -0.3071  0.0508
  179SOL     OW  713   1.563   1.322   1.398  0.0200 -0.3551 -0.6494
  179SOL    HW1  714   1.535   1.342   1.493 -0.4966 -2.5294  0.5290
  179SOL    HW2  715   1.660   1.313   1.397 -0.6498  2.3368 -0.9374
  179SOL     MW  716   1.572   1.324   1.410 -0.1365 -0.2868 -0.5320
  180SOL     OW  717   3.064   0.185   0.444  0.5589 -0.2504 -0.0975
  180SOL    HW1  718   3.000   0.193   0.373 -1.5894  2.4981 -0.2598
  180SOL    HW2  719   3.112   0.265   0.425 -1.9616  0.0106 -1.9138
  180SOL     MW  720   3.062   0.196   0.432 -0.0571  0.1467 -0.3585
  181SOL     OW  721   1.112   1.368   3.084 -0.4502  0.0562  0.1327
  181SOL    HW1  722   1.197   1.389   3.124  3.1793  1.0267  0.9645
  181SOL    HW2  723   1.142   1.297   3.024  3.2105 -0.9264  1.2669
  181SOL     MW  724   1.127   1.362   3.082  0.5117  0.0546  0.3921
  182SOL     OW  725   0.473   0.873   1.652 -0.5658 -0.3558  0.2290
  182SOL    HW1  726   0.380   0.851   1.672 -0.5020  1.6851  0.3641
  182SOL    HW2  727   0.540   0.815   1.697  1.7605 -1.3883 -0.9155
  182SOL     MW  728   0.469   0.862   1.661 -0.2505 -0.2228  0.0958
  183SOL     OW  729   1.569   1.530   1.186  0.2245 -0.6100 -0.5313
  183SOL    HW1  730   1.564   1.606   1.241  1.4703 -0.6044  0.7219
  183SOL    HW2  731   1.585   1.457   1.247 -1.6491  1.2141 -2.8261
  183SOL     MW  732   1.570   1.530   1.201  0.1417 -0.3686 -0.6687
  184SOL     OW  733   0.921   0.636   1.966  0.2645  0.1983  0.0629
  184SOL    HW1  734   0.983   0.645   1.893 -0.7458 -0.6888  0.8902
  184SOL    HW2  735   0.882   0.551   1.967  2.8306  0.8777 -0.9834
  184SOL     MW  736   0.924   0.626   1.956  0.4698  0.1709  0.0340
  185SOL     OW  737   1.262   1.030   1.899  0.0942  0.0877 -0.3296
  185SOL    HW1  738   1.287   0.964   1.970  0.2868 -1.5053 -0.2172
  185SOL    HW2  739   1.229   1.105   1.948 -1.5256  3.5193  0.0509
  185SOL     MW  740   1.261   1.031   1.915 -0.0941  0.3303 -0.2646
  186SOL     OW  741   0.364   1.661   1.433  0.1864  0.5483 -0.0754
  186SOL    HW1  742   0.426   1.653   1.359 -1.9353  0.4924 -0.1170
  186SOL    HW2  743   0.277   1.647   1.395  0.1308 -1.8251 -1.2900
  186SOL     MW  744   0.360   1.658   1.418 -0.1009  0.2278 -0.2412
  187SOL     OW  745   1.433   0.720   1.409  0.5450 -0.0315 -0.3290
  187SOL    HW1  746   1.439   0.694   1.500  0.6354  0.6882 -0.3033
  187SOL    HW2  747   1.342   0.736   1.393  1.7492 -2.0518  0.2548
  187SOL     MW  748   1.422   0.718   1.419  0.7158 -0.2031 -0.2486
  188SOL     OW  749   1.917   1.159   0.844 -0.1877 -0.3522  0.7980
  188SOL    HW1  750   1.903   1.188   0.941  2.5229 -0.7761  0.5198
  188SOL    HW2  751   1.963   1.074   0.855 -2.7964 -2.0525  1.2211
  188SOL     MW  752   1.921   1.152   0.858 -0.1743 -0.6325  0.8171
  189SOL     OW  753   0.685   0.792   0.860 -0.1309 -0.1510 -0.0226
  189SOL    HW1  754   0.598   0.836   0.848 -0.2638  3.0325  1.4655
  189SOL    HW2  755   0.740   0.851   0.910 -3.0630  0.8340 -1.2239
  189SOL     MW  756   0.681   0.806   0.865 -0.5353  0.3990  0.0152
  190SOL     OW  757   1.849   0.276   2.072 -0.1979 -0.4773  0.1481
  190SOL    HW1  758   1.854   0.191   2.033 -0.3097 -0.2840 -0.3875
  190SOL    HW2  759   1.932   0.321   2.048 -1.2075  0.2920 -0.5642
  190SOL     MW  760   1.861   0.271   2.064 -0.3459 -0.3503 -0.0165
  191SOL     OW  761   1.491   0.909   1.230  0.2869 -0.2047 -0.0432
  191SOL    HW1  762   1.429   0.976   1.255  0.9193 -2.0637  1.3301
  191SOL    HW2  763   1.483   0.847   1.305 -1.8318 -0.1557 -0.0167
  191SOL     MW  764   1.482   0.910   1.243  0.0908 -0.4435  0.1415
  192SOL     OW  765   0.587   2.078   2.784  0.5063  0.1286  0.4957
  192SOL    HW1  766   0.533   2.110   2.705  0.5375  0.8442 -2.7922
  192SOL    HW2  767   0.593   1.982   2.782 -1.3423 -1.8135  1.3589
  192SOL     MW  768   0.581   2.070   2.773  0.2665 -0.0332  0.1758
  193SOL     OW  769   1.030   1.561   0.782 -0.7213  0.3544 -0.2950
  193SOL    HW1  770   0.978   1.561   0.863  1.6580 -0.4627 -3.4831
  193SOL    HW2  771   0.965   1.531   0.716 -1.0710 -0.5925 -0.3494
  193SOL     MW  772   1.015   1.557   0.784 -0.4535  0.1217 -0.7228
  194SOL     OW  773   0.472   1.397   0.956  1.0749  0.0926 -0.4230
  194SOL    HW1  774   0.472   1.300   0.961  0.2791 -1.1189  0.5371
  194SOL    HW2  775   0.388   1.420   0.910 -2.0213  2.0242 -0.7905
  194SOL     MW  776   0.461   1.388   0.951  0.5614  0.1876 -0.3448
  195SOL     OW  777   1.260   1.128   2.998 -0.1065 -0.7865 -0.3165
  195SOL    HW1  778   1.313   1.138   3.080 -1.9158  0.0734 -2.8846
  195SOL    HW2  779   1.192   1.049   3.014  0.4748 -0.7047 -0.1141
  195SOL     MW  780   1.258   1.119   3.011 -0.2685 -0.6623 -0.6287
  196SOL     OW  781   2.186   1.017   0.585  0.5786 -0.0364  0.3720
  196SOL    HW1  782   2.150   0.988   0.499 -1.7213  1.1921 -1.8556
  196SOL    HW2  783   2.168   1.112   0.587 -2.0763  0.1373 -0.7809
  196SOL     MW  784   2.179   1.025   0.574 -0.0751  0.1486 -0.0740
  197SOL     OW  785   0.709   1.258   2.052  0.0093 -0.5317  0.2492
  197SOL    HW1  786   0.695   1.160   2.056 -1.0293 -0.5869  1.4426
  197SOL    HW2  787   0.642   1.285   1.996 -0.0473  1.6853 -1.4636
  197SOL     MW  788   0.699   1.249   2.046 -0.1352 -0.2464  0.1806
  198SOL     OW  789   2.989   1.352   1.097 -0.1374 -0.5474  0.3844
  198SOL    HW1  790   2.952   1.443   1.095  0.3778  2.7657  1.8843
  198SOL    HW2  791   2.920   1.289   1.067  0.6276  0.3882  0.6091
  198SOL     MW  792   2.975   1.356   1.093  0.0315  0.0131  0.6119
  199SOL     OW  793   0.510   1.358   1.874 -0.0888  0.0357  0.1591
  199SOL    HW1  794   0.435   1.309   1.839  2.1285 -0.5166 -0.2237
  199SOL    HW2  795   0.546   1.411   1.803  0.4276 -1.2465  2.4102
  199SOL     MW  796   0.505   1.358   1.860  0.2719 -0.2063  0.4056
  200SOL     OW  797   1.856   3.061   1.290  0.2587 -0.7269 -0.8600
  200SOL    HW1  798   1.864   3.006   1.208 -1.2891 -1.8733  2.3365
  200SOL    HW2  799   1.776   3.120   1.275  0.2345  1.8130 -0.4567
  200SOL     MW  800   1.846   3.062   1.278  0.0513 -0.5430 -0.3851
  201SOL     OW  801   0.985   0.205   0.856  0.3709  0.0221  0.4967
  201SOL    HW1  802   0.956   0.158   0.773  0.9934 -0.6765 -0.6030
  201SOL    HW2  803   1.049   0.268   0.826  2.6776  1.6320 -1.3005
  201SOL     MW  804   0.989   0.207   0.841  0.7573  0.1423  0.1145
  202SOL     OW  805   1.518   1.567   0.914  0.1687  0.1562 -0.4103
  202SOL    HW1  806   1.562   1.489   0.874 -0.2072 -4.5374  1.4811
  202SOL    HW2  807   1.557   1.560   1.001 -0.2938 -0.9045  0.3464
  202SOL     MW  808   1.529   1.556   0.920  0.0581 -0.6030 -0.0609
  203SOL     OW  809   3.062   0.494   1.257 -0.3302 -0.0685  0.7084
  203SOL    HW1  810   3.148   0.485   1.208 -1.9067  0.0590  1.5402
  203SOL    HW2  811   3.076   0.562   1.325 -2.5620 -2.4478  2.2037
  203SOL     MW  812   3.075   0.502   1.260 -0.8326 -0.3656  1.0154
  204SOL     OW  813   1.063   1.746   0.592  0.0354  0.0554 -0.0670
  204SOL    HW1  814   1.059   1.689   0.669 -1.2382  1.7411 -3.4238
  204SOL    HW2  815   0.980   1.759   0.545 -0.1406 -2.3730 -2.0655
  204SOL     MW  816   1.052   1.740   0.596 -0.1558 -0.0426 -0.7735
  205SOL     OW  817   1.365   0.100   1.351 -0.2345 -0.0181 -0.4421
  205SOL    HW1  818   1.319   0.075   1.273  2.4943 -0.4311 -1.0907
  205SOL    HW2  819   1.365   0.194   1.355 -1.6920  0.5608  2.5466
  205SOL     MW  820   1.359   0.109   1.341 -0.0668  0.0038 -0.1333
  206SOL     OW  821   0.387   3.015   1.424  0.2968 -0.0375 -0.2086
  206SOL    HW1  822   0.348   2.980   1.335  0.4296 -0.7749 -1.4965
  206SOL    HW2  823   0.460   2.958   1.444 -3.4018  0.9842 -0.3979
  206SOL     MW  824   0.391   3.003   1.415 -0.1736 -0.0000 -0.4035
  207SOL     OW  825   0.914   1.497   0.187  0.0700  0.4829 -0.2066
  207SOL    HW1  826   0.916   1.596   0.191 -0.5204  2.2092 -0.0651
  207SOL    HW2  827   1.002   1.468   0.170 -0.4593  2.5105  0.3667
  207SOL     MW  828   0.925   1.506   0.185 -0.0777  0.9782 -0.1123
  208SOL     OW  829   0.695   1.643   1.334  0.1672  0.1187  0.7064
  208SOL    HW1  830   0.771   1.687   1.369  0.6774 -0.4623 -1.0593
  208SOL    HW2  831   0.708   1.551   1.366 -0.5475  0.0463  1.4756
  208SOL     MW  832   0.707   1.637   1.342  0.1402  0.0325  0.5749
  209SOL     OW  833   1.574   0.529   2.980 -0.5189 -0.6908  0.3808
  209SOL    HW1  834   1.599   0.615   2.949 -1.0713 -2.5899  0.5732
  209SOL    HW2  835   1.636   0.473   2.938  0.1936 -0.7605 -0.9426
  209SOL     MW  836   1.586   0.533   2.970 -0.4978 -0.9505  0.2316
  210SOL     OW  837   1.595   1.326   0.784  0.2121 -0.4403 -0.4615
  210SOL    HW1  838   1.688   1.359   0.773  0.7563  1.2894  1.4490
  210SOL    HW2  839   1.555   1.322   0.694  0.5336  1.0370  0.6905
  210SOL     MW  840   1.602   1.330   0.771  0.3263 -0.0172 -0.0574
  211SOL     OW  841   1.661   0.370   0.974 -0.5628 -0.0578  0.0867
  211SOL    HW1  842   1.636   0.379   0.885  0.0080  1.4697 -0.7629
  211SOL    HW2  843   1.752   0.406   0.981 -0.3886 -2.2902 -1.2862
  211SOL     MW  844   1.670   0.376   0.963 -0.4645 -0.1508 -0.2065
  212SOL     OW  845   0.226   1.060   0.110  0.4042 -0.7252 -0.0016
  212SOL    HW1  846   0.174   1.029   0.185 -1.7700  2.0015  1.1351
  212SOL    HW2  847   0.251   0.986   0.054 -1.6537  1.4786  0.4849
  212SOL     MW  848   0.222   1.046   0.113 -0.1542 -0.0747  0.2125
  213SOL     OW  849   0.498   1.747   3.035  0.0618 -0.2766 -0.1558
  213SOL    HW1  850   0.525   1.801   3.108  3.3713 -0.2666  0.0703
  213SOL    HW2  851   0.539   1.782   2.951  1.0623  3.2932  1.1237
  213SOL     MW  852   0.507   1.759   3.034  0.6305  0.1957  0.0428
  214SOL     OW  853   0.555   0.274   2.263  0.0162  0.1721 -0.1272
  214SOL    HW1  854   0.490   0.350   2.275 -0.8769  1.4161  1.1650
  214SOL    HW2  855   0.585   0.289   2.177  0.0646 -0.3679 -0.7149
  214SOL     MW  856   0.550   0.286   2.254 -0.0953  0.2650 -0.0342
  215SOL     OW  857   0.534   0.687   2.660 -0.3597  0.0377 -0.4630
  215SOL    HW1  858   0.531   0.658   2.571  2.8124 -2.0891 -0.4510
  215SOL    HW2  859   0.464   0.626   2.691 -0.4789  0.1360  0.0883
  215SOL     MW  860   0.524   0.675   2.652  0.0431 -0.2299 -0.3887
  216SOL     OW  861   2.901   3.068   2.636 -0.2691  0.2951 -0.4020
  216SOL    HW1  862   2.889   3.043   2.735 -2.4174  0.2602  1.1348
  216SOL    HW2  863   2.916   3.163   2.621  0.6131 -2.6220  1.2343
  216SOL     MW  864   2.901   3.077   2.647 -0.4362 -0.0944  0.0167
  217SOL     OW  865   0.948   1.128   0.054 -0.0615 -0.5820 -0.0875
  217SOL    HW1  866   0.972   1.048   0.000  0.1975 -1.8254 -0.4303
  217SOL    HW2  867   1.006   1.199   0.031  0.6055 -1.3423  1.2257
  217SOL     MW  868   0.959   1.127   0.044  0.0607 -0.8463  0.0406
  218SOL     OW  869   0.959   1.351   2.509 -0.1265 -0.3694  0.1133
  218SOL    HW1  870   0.955   1.281   2.573 -2.1634 -0.0352 -0.8683
  218SOL    HW2  871   1.021   1.418   2.537 -1.9384 -0.3005  1.1453
  218SOL     MW  872   0.967   1.351   2.521 -0.6343 -0.3162  0.1200
  219SOL     OW  873   1.104   0.470   2.644 -0.0698  0.0249  0.2654
  219SOL    HW1  874   1.155   0.532   2.692  0.0536 -0.4846 -0.3945
  219SOL    HW2  875   1.059   0.536   2.593 -0.9837 -0.3848 -2.8581
  219SOL     MW  876   1.105   0.487   2.643 -0.1741 -0.0964 -0.2338
  220SOL     OW  877   1.762   0.487   2.240  0.0915  0.9312  0.1481
  220SOL    HW1  878   1.672   0.489   2.202 -1.8650  0.4932  0.7529
  220SOL    HW2  879   1.802   0.402   2.200 -0.5745 -1.0331 -1.7793
  220SOL     MW  880   1.755   0.476   2.230 -0.2545  0.6143 -0.0264
  221SOL     OW  881   0.385   1.355   2.959  0.4228  0.0996 -0.2860
  221SOL    HW1  882   0.414   1.265   2.938  1.9455  3.7415  2.3572
  221SOL    HW2  883   0.419   1.416   2.892 -0.4590  1.6925  2.1562
  221SOL     MW  884   0.394   1.351   2.947  0.5074  0.7903  0.3850
  222SOL     OW  885   0.394   0.950   2.667 -0.0323 -0.0885 -0.4951
  222SOL    HW1  886   0.373   0.986   2.576 -0.7582 -0.1143  0.8395
  222SOL    HW2  887   0.447   0.875   2.664  0.3698  1.6003 -1.4763
  222SOL     MW  888   0.398   0.945   2.655 -0.0750  0.1309 -0.4484
  223SOL     OW  889   0.010   2.037   2.567 -0.3888 -0.2803 -0.2901
  223SOL    HW1  890   0.072   1.977   2.618  0.6641  1.0218  0.0270
  223SOL    HW2  891   0.063   2.116   2.549  1.5979 -0.0228  1.5819
  223SOL     MW  892   0.025   2.040   2.571  0.0123 -0.0745 -0.0013
  224SOL     OW  893   1.532   0.809   2.610 -0.4363  0.0816  0.4111
  224SOL    HW1  894   1.506   0.867   2.686 -1.8248 -0.4684 -0.2496
  224SOL    HW2  895   1.550   0.871   2.545  1.2615  0.9639  1.9590
  224SOL     MW  896   1.531   0.825   2.612 -0.3955  0.1255  0.5282
  225SOL     OW  897   2.952   1.457   2.312 -0.2578 -0.5391 -0.2763
  225SOL    HW1  898   3.020   1.521   2.270  1.9970 -0.2540 -0.1854
  225SOL    HW2  899   2.900   1.512   2.369 -3.6291 -2.0467 -0.1812
  225SOL     MW  900   2.954   1.473   2.314 -0.4051 -0.7004 -0.2518
  226SOL     OW  901   0.472   1.452   2.690  0.2588 -0.0553  0.0868
  226SOL    HW1  902   0.569   1.472   2.702 -0.5366 -0.1823 -0.7284
  226SOL    HW2  903   0.437   1.540   2.669 -0.2938 -0.2577  2.4043
  226SOL     MW  904   0.480   1.466   2.688  0.0809 -0.0988  0.2850
  227SOL     OW  905   0.466   1.100   2.879  0.0986  0.2259 -0.4090
  227SOL    HW1  906   0.554   1.114   2.848  0.7587 -1.0857 -3.9145
  227SOL    HW2  907   0.427   1.060   2.801  0.7857 -1.9067 -0.6383
  227SOL     MW  908   0.472   1.097   2.865  0.2763 -0.2285 -0.9018
  228SOL     OW  909   0.707   0.958   2.063  0.0073  0.0055 -0.1893
  228SOL    HW1  910   0.800   0.980   2.040 -1.6045 -0.1701  0.7900
  228SOL    HW2  911   0.701   0.894   2.142 -0.8435 -1.0055  0.9661
  228SOL     MW  912   0.719   0.952   2.070 -0.3176 -0.1511  0.0924
  229SOL     OW  913   0.179   0.581   0.030  0.3076  0.6004  0.2915
  229SOL    HW1  914   0.136   0.550  -0.054 -0.5443  0.3688 -0.0224
  229SOL    HW2  915   0.176   0.506   0.092  0.1621 -2.0173 -3.0815
  229SOL     MW  916   0.173   0.567   0.027  0.1760  0.2245 -0.1949
  230SOL     OW  917   1.748   1.369   2.034  0.1279  0.0536 -0.1704
  230SOL    HW1  918   1.693   1.347   2.111  1.3546  2.1001 -0.0238
  230SOL    HW2  919   1.801   1.289   2.011 -0.8737 -1.2536 -2.0615
  230SOL     MW  920   1.747   1.356   2.041  0.1576  0.1511 -0.4006
  231SOL     OW  921   2.746   1.293   2.189 -0.3460 -0.6309  0.2422
  231SOL    HW1  922   2.813   1.347   2.225 -2.1639 -0.8068  4.3461
  231SOL    HW2  923   2.694   1.353   2.136  1.7294 -3.9086  0.3848
  231SOL     MW  924   2.748   1.308   2.187 -0.3120 -1.0866  0.8025
  232SOL     OW  925   2.283   0.832   2.050  0.4162 -0.3261 -0.6532
  232SOL    HW1  926   2.190   0.842   2.016  1.2683 -1.5889  0.6976
  232SOL    HW2  927   2.266   0.842   2.147  1.4925 -1.3520  0.3437
  232SOL     MW  928   2.268   0.834   2.058  0.6706 -0.6281 -0.3435
  233SOL     OW  929   2.068   0.463   1.962 -0.0291  0.4016  1.0262
  233SOL    HW1  930   2.111   0.379   1.942  1.7180 -0.6115 -0.1397
  233SOL    HW2  931   2.101   0.496   2.049  1.4279  2.5213  1.4833
  233SOL     MW  932   2.078   0.456   1.971  0.3936  0.5476  0.9327
  234SOL     OW  933   0.277   1.051   2.440  0.0696  0.7408 -0.1342
  234SOL    HW1  934   0.183   1.079   2.428 -1.4036  0.9395 -1.2841
  234SOL    HW2  935   0.335   1.127   2.454 -2.1101  0.0447  1.1977
  234SOL     MW  936   0.272   1.065   2.440 -0.4124  0.6752 -0.1102
  235SOL     OW  937   1.134   3.044   2.713 -0.5157  0.8946  0.3130
  235SOL    HW1  938   1.162   3.006   2.799 -0.3343 -1.9962 -2.5605
  235SOL    HW2  939   1.116   3.132   2.746  1.3361  0.3906  0.3263
  235SOL     MW  940   1.135   3.050   2.729 -0.2474  0.4467 -0.0644
  236SOL     OW  941   2.917   0.553   0.008  0.0162  0.4809  0.1416
  236SOL    HW1  942   2.830   0.579   0.038 -2.3056  2.1494 -0.0046
  236SOL    HW2  943   2.969   0.633   0.013  1.7984 -2.9080  1.2280
  236SOL     MW  944   2.913   0.567   0.013 -0.0550  0.2539  0.2656
  237SOL     OW  945   2.005   1.106   2.198  0.5451 -0.5120 -0.2869
  237SOL    HW1  946   1.947   1.146   2.126  1.4693  2.0966 -0.5702
  237SOL    HW2  947   2.047   1.027   2.163 -2.2246 -0.7878 -3.7001
  237SOL     MW  948   2.003   1.101   2.184  0.3016 -0.2042 -0.7746
  238SOL     OW  949   1.063   1.807   3.009  0.1338  0.2921 -0.4263
  238SOL    HW1  950   1.033   1.727   2.971 -0.7870  0.5098 -0.9617
  238SOL    HW2  951   1.158   1.804   3.030 -1.9216 -2.4686  0.0311
  238SOL     MW  952   1.072   1.796   3.006 -0.2589 -0.0435 -0.4366
  239SOL     OW  953   1.241   1.353   2.355  0.0933  0.3841  0.1236
  239SOL    HW1  954   1.188   1.391   2.422 -0.2346 -1.2675 -0.4613
  239SOL    HW2  955   1.283   1.273   2.396  1.5049 -2.2816  1.2510
  239SOL     MW  956   1.240   1.347   2.369  0.2363 -0.1855  0.1952
  240SOL     OW  957   0.720   0.797   2.292  0.1523  0.5035 -0.4109
  240SOL    HW1  958   0.728   0.870   2.352  2.0563 -3.3762  0.2533
  240SOL    HW2  959   0.808   0.761   2.280 -0.7555  0.3091  1.0113
  240SOL     MW  960   0.733   0.802   2.298  0.2837 -0.0340 -0.1356
  241SOL     OW  961   0.640   0.370   3.092 -0.0072 -0.0731  0.2253
  241SOL    HW1  962   0.672   0.447   3.143  2.5529  0.9357 -3.7854
  241SOL    HW2  963   0.549   0.381   3.079  0.2624  1.0243 -0.5241
  241SOL     MW  964   0.632   0.381   3.097  0.3662  0.2048 -0.4028
  242SOL     OW  965   1.500   1.682   2.345  0.3737 -0.5144 -0.1227
  242SOL    HW1  966   1.469   1.774   2.359 -1.6240  3.8125 -0.2069
  242SOL    HW2  967   1.449   1.646   2.276  1.7241  2.1585 -1.0711
  242SOL     MW  968   1.489   1.689   2.338  0.2883  0.4091 -0.2589
  243SOL     OW  969   1.039   0.242   2.487 -0.2518 -0.1949  0.0188
  243SOL    HW1  970   1.117   0.238   2.424  0.7426 -0.1500 -1.5034
  243SOL    HW2  971   1.070   0.312   2.550  0.1170  0.3670  1.2513
  243SOL     MW  972   1.053   0.251   2.487 -0.0719 -0.1148 -0.0195
  244SOL     OW  973   0.257   0.764   2.383  0.3711 -0.1022  0.5692
  244SOL    HW1  974   0.275   0.859   2.384  1.8541  1.7034 -0.2305
  244SOL    HW2  975   0.340   0.725   2.369 -0.6942 -0.7155  1.8278
  244SOL     MW  976   0.270   0.772   2.382  0.4262  0.0551  0.6298
  245SOL     OW  977   1.278   0.224   2.322  0.5533  0.2612 -0.1577
  245SOL    HW1  978   1.325   0.149   2.353 -2.0821  0.0068  1.3960
  245SOL    HW2  979   1.321   0.308   2.347 -0.9912 -2.4179  0.6357
  245SOL     MW  980   1.290   0.225   2.329  0.0018 -0.1258  0.1519
  246SOL     OW  981   1.203   1.187   2.142  0.0709 -0.1493  0.1009
  246SOL    HW1  982   1.165   1.107   2.187  2.3069 -0.7563 -1.2467
  246SOL    HW2  983   1.207   1.254   2.203 -2.2905  2.2121  1.2251
  246SOL     MW  984   1.199   1.185   2.156  0.0544  0.0822  0.0714
  247SOL     OW  985   0.746   0.566   0.171 -0.2847 -0.2635  0.7956
  247SOL    HW1  986   0.704   0.647   0.145 -0.3792 -4.3470 -1.4180
  247SOL    HW2  987   0.835   0.580   0.133  0.4802 -0.2159 -0.3661
  247SOL     MW  988   0.752   0.579   0.162 -0.1963 -0.7960  0.3502
  248SOL     OW  989   0.435   1.281   2.474 -0.8326  0.6968  0.0215
  248SOL    HW1  990   0.453   1.326   2.390 -1.1985  2.4789  0.6978
  248SOL    HW2  991   0.486   1.320   2.544  0.7121  1.7738 -0.7957
  248SOL     MW  992   0.444   1.292   2.472 -0.6770  1.0740  0.0029
  249SOL     OW  993   0.160   1.879   2.712  0.1104  0.4542  0.4178
  249SOL    HW1  994   0.119   1.795   2.673  0.6555  1.0120 -2.5955
  249SOL    HW2  995   0.174   1.860   2.813  0.3244 -1.8730  1.8206
  249SOL     MW  996   0.156   1.865   2.720  0.2105  0.2208  0.2053
  250SOL     OW  997   2.192   0.905   2.324 -0.0574  0.7893 -0.6103
  250SOL    HW1  998   2.257   0.837   2.360  0.6541  0.3405  2.0761
  250SOL    HW2  999   2.229   0.988   2.359 -0.2722 -0.0083 -1.2315
  250SOL     MW 1000   2.205   0.907   2.334  0.0081  0.6248 -0.3378
  251SOL     OW 1001   0.149   0.862   1.990  0.4125 -0.0964 -1.0912
  251SOL    HW1 1002   0.069   0.816   1.986  0.0372 -2.2258  0.9286
  251SOL    HW2 1003   0.184   0.836   1.903  0.7696 -0.2413 -1.6024
  251SOL     MW 1004   0.143   0.853   1.978  0.4101 -0.3965 -0.8921
  252SOL     OW 1005   1.716   0.973   2.851  0.0546  0.0154 -0.0513
  252SOL    HW1 1006   1.748   1.019   2.937  0.8631 -1.4702 -0.3975
  252SOL    HW2 1007   1.775   1.009   2.781  2.0287 -0.2707  0.9112
  252SOL     MW 1008   1.728   0.984   2.853  0.4217 -0.2184  0.0300
  253SOL     OW 1009   1.246   1.784   2.547 -0.1857 -0.0025 -0.2352
  253SOL    HW1 1010   1.230   1.801   2.455  1.0295 -0.9010  1.3069
  253SOL    HW2 1011   1.167   1.819   2.597  3.6720 -0.5840  4.6931
  253SOL     MW 1012   1.233   1.791   2.542  0.4837 -0.1978  0.6185
  254SOL     OW 1013   1.056   0.996   2.274 -0.0795  0.6226 -0.2448
  254SOL    HW1 1014   1.048   0.923   2.213 -0.3756  0.4420  0.2408
  254SOL    HW2 1015   0.979   1.048   2.269  0.2299 -1.4835  0.0518
  254SOL     MW 1016   1.045   0.993   2.266 -0.0777  0.3209 -0.1416
  255SOL     OW 1017   0.757   2.571   2.163 -0.3020  0.0383  0.1086
  255SOL    HW1 1018   0.695   2.507   2.200 -1.9136 -2.7911 -1.0752
  255SOL    HW2 1019   0.838   2.552   2.207 -1.3470 -0.7382 -3.6659
  255SOL     MW 1020   0.760   2.560   2.174 -0.6525 -0.4374 -0.5456
  256SOL     OW 1021   1.286   2.726   2.894  0.8087 -0.8047  0.3912
  256SOL    HW1 1022   1.309   2.652   2.848 -1.6903 -0.0460  0.9178
  256SOL    HW2 1023   1.357   2.792   2.890  0.9074  0.2215  2.1838
  256SOL     MW 1024   1.299   2.725   2.888  0.4920 -0.5692  0.6972
  257SOL     OW 1025   0.119   1.928   0.072  0.3561  0.1354 -0.3503
  257SOL    HW1 1026   0.147   1.902   0.159  1.7515  3.0312  0.8487
  257SOL    HW2 1027   0.154   1.864   0.007  0.9066  1.8143 -1.5926
  257SOL     MW 1028   0.127   1.916   0.075  0.6128  0.7390 -0.3560
  258SOL     OW 1029   0.703   1.039   2.469  0.3129  0.0366  0.2082
  258SOL    HW1 1030   0.746   1.093   2.392  3.7755 -1.3920 -2.3187
  258SOL    HW2 1031   0.681   1.089   2.548  0.4421 -1.5280 -1.0722
  258SOL     MW 1032   0.706   1.053   2.469  0.7868 -0.3583 -0.2942
  259SOL     OW 1033   0.793   0.409   2.374  1.0030 -1.1926 -0.3368
  259SOL    HW1 1034   0.696   0.405   2.391 -0.0879 -0.1956 -1.4208
  259SOL    HW2 1035   0.831   0.335   2.420 -0.3621 -0.8463  0.2770
  259SOL     MW 1036   0.785   0.398   2.383  0.6789 -1.0154 -0.3988
  260SOL     OW 1037   0.483   0.142   1.598 -0.0783  0.0276 -0.1523
  260SOL    HW1 1038   0.458   0.097   1.518 -2.1280 -2.5660  0.2548
  260SOL    HW2 1039   0.580   0.116   1.608 -0.7767 -2.4455  0.7298
  260SOL     MW 1040   0.493   0.133   1.588 -0.4409 -0.6409  0.0178
  261SOL     OW 1041   1.312   0.775   2.010 -0.6040  0.1319  0.2282
  261SOL    HW1 1042   1.314   0.779   2.106  0.1570 -2.5499 -0.7800
  261SOL    HW2 1043   1.306   0.679   1.981  1.9778  0.2329 -0.3829
  261SOL     MW 1044   1.312   0.763   2.019 -0.1629 -0.2086  0.0146
  262SOL     OW 1045   1.037   0.340   0.176 -0.3957 -0.0209 -0.2340
  262SOL    HW1 1046   1.131   0.332   0.151 -1.3398  4.1018 -0.7306
  262SOL    HW2 1047   0.987   0.286   0.111 -1.0735 -0.5549 -1.1602
  262SOL     MW 1048   1.043   0.331   0.164 -0.6097  0.4526 -0.4217
  263SOL     OW 1049   0.425   0.009   2.527 -0.2691 -0.0246 -0.0981
  263SOL    HW1 1050   0.358   0.077   2.504  0.1955 -0.4753 -3.9665
  263SOL    HW2 1051   0.465  -0.006   2.439 -1.9758  0.1304 -1.0139
  263SOL     MW 1052   0.421   0.016   2.513 -0.4330 -0.0636 -0.7293
  264SOL     OW 1053   1.485   1.325   1.895 -0.4915  0.3315 -0.5629
  264SOL    HW1 1054   1.443   1.273   1.960  0.2118  1.7901 -1.4547
  264SOL    HW2 1055   1.574   1.323   1.922 -1.9193  0.9319 -0.6064
  264SOL     MW 1056   1.491   1.318   1.907 -0.5871  0.6032 -0.6863
  265SOL     OW 1057   0.682   2.815   2.294  0.0978 -0.1793  0.1350
  265SOL    HW1 1058   0.704   2.731   2.246  0.4937 -0.2902 -1.2541
  265SOL    HW2 1059   0.710   2.793   2.383 -0.6650 -0.1775 -1.5108
  265SOL     MW 1060   0.689   2.801   2.300  0.0494 -0.1937 -0.2654
  266SOL     OW 1061   0.971   0.723   2.215 -0.8244 -0.3837 -0.3179
  266SOL    HW1 1062   0.959   0.692   2.124 -0.4906  2.1431  0.5993
  266SOL    HW2 1063   1.043   0.673   2.248  1.8165  1.2338 -0.2172
  266SOL     MW 1064   0.979   0.712   2.207 -0.4319  0.1631 -0.1836
  267SOL     OW 1065   1.424   1.744   2.790  0.3343  0.6553  0.2014
  267SOL    HW1 1066   1.492   1.680   2.754  1.5085  2.1814 -1.8856
  267SOL    HW2 1067   1.377   1.775   2.715 -0.5311 -0.6027 -1.1392
  267SOL     MW 1068   1.427   1.740   2.775  0.3751  0.6907 -0.2508
  268SOL     OW 1069   0.198   0.831   1.704 -0.6385  0.1488  0.7142
  268SOL    HW1 1070   0.139   0.868   1.639  0.3005 -2.1182  1.2430
  268SOL    HW2 1071   0.197   0.740   1.680  1.4087  2.8160  0.8196
  268SOL     MW 1072   0.190   0.824   1.692 -0.2445  0.2016  0.7979
  269SOL     OW 1073   1.431   1.948   2.349 -0.1022 -0.0508  0.3544
  269SOL    HW1 1074   1.484   2.029   2.346  1.2518  2.3034 -1.2227
  269SOL    HW2 1075   1.357   1.959   2.413  0.6233 -0.7051 -1.8098
  269SOL     MW 1076   1.428   1.960   2.357  0.1722  0.1735 -0.1392
  270SOL     OW 1077   1.120   0.379   1.625 -0.5825  0.3230  0.2474
  270SOL    HW1 1078   1.075   0.303   1.660 -2.5319  2.8372 -1.4114
  270SOL    HW2 1079   1.206   0.344   1.610  0.6930  0.3800 -0.7481
  270SOL     MW 1080   1.126   0.364   1.628 -0.6714  0.6622 -0.1028
  271SOL     OW 1081   0.887   0.009   2.534 -0.1540 -0.3029  0.0722
  271SOL    HW1 1082   0.928  -0.033   2.605  0.8718  0.1104  1.1594
  271SOL    HW2 1083   0.929   0.105   2.531 -1.2515  1.5059 -0.2989
  271SOL     MW 1084   0.898   0.016   2.543 -0.1635 -0.0097  0.1666
  272SOL     OW 1085   1.474   2.881   2.802 -0.0436 -0.2629  1.1126
  272SOL    HW1 1086   1.465   2.924   2.718 -1.8089 -0.9607 -0.5675
  272SOL    HW2 1087   1.494   2.958   2.854 -0.2616 -1.4745 -2.6530
  272SOL     MW 1088   1.476   2.897   2.798 -0.3053 -0.5148  0.3941
  273SOL     OW 1089   1.440   0.980   2.845 -0.0272  0.5366 -0.2678
  273SOL    HW1 1090   1.534   0.994   2.852  0.2450  1.7577  1.0683
  273SOL    HW2 1091   1.400   1.054   2.888  0.5141 -0.8372  0.3918
  273SOL     MW 1092   1.447   0.992   2.851  0.0802  0.5165 -0.0045
  274SOL     OW 1093   1.484   0.728   0.132 -0.2090  0.1940 -0.2737
  274SOL    HW1 1094   1.519   0.640   0.137 -0.3681 -0.8921 -2.3547
  274SOL    HW2 1095   1.411   0.722   0.186  3.8200  0.6958  0.3276
  274SOL     MW 1096   1.479   0.716   0.140  0.3016  0.1169 -0.4689
  275SOL     OW 1097   1.722   0.573   1.793 -0.2987 -0.2020 -0.6571
  275SOL    HW1 1098   1.796   0.619   1.839  0.6873 -0.8699  0.4664
  275SOL    HW2 1099   1.745   0.480   1.789 -0.4703  2.0126 -1.5460
  275SOL     MW 1100   1.735   0.566   1.799 -0.1912  0.0021 -0.6261
  276SOL     OW 1101   0.280   1.206   1.849  0.6033  0.4015  1.0295
  276SOL    HW1 1102   0.324   1.132   1.894  1.3320  0.3590 -0.9775
  276SOL    HW2 1103   0.193   1.213   1.893  0.7465  2.3837 -0.2067
  276SOL     MW 1104   0.274   1.197   1.861  0.7184  0.6574  0.6016
  277SOL     OW 1105   1.874   1.294   2.437  0.0946  0.4067 -0.1483
  277SOL    HW1 1106   1.927   1.357   2.476  1.3920 -1.2851  2.3654
  277SOL    HW2 1107   1.934   1.231   2.397 -0.2258 -1.5165 -0.7308
  277SOL     MW 1108   1.889   1.294   2.437  0.2235 -0.0702  0.1065
  278SOL     OW 1109   1.466   0.618   1.718 -0.2249  0.1158  0.1972
  278SOL    HW1 1110   1.422   0.564   1.783  0.7991  3.0021  1.1502
  278SOL    HW2 1111   1.552   0.624   1.756  1.0456  2.5239  1.1066
  278SOL     MW 1112   1.472   0.612   1.731  0.0779  0.8143  0.4429
  279SOL     OW 1113   0.567   3.095   2.266  0.0251 -0.0545  0.3471
  279SOL    HW1 1114   0.659   3.069   2.280 -1.5527  3.4920  3.0240
  279SOL    HW2 1115   0.574   3.188   2.264  0.4063  0.3689 -0.0954
  279SOL     MW 1116   0.580   3.104   2.267 -0.1328  0.4693  0.6419
  280SOL     OW 1117   1.453   1.008   2.135 -0.4220 -1.0754 -0.1783
  280SOL    HW1 1118   1.501   0.941   2.080  2.3447 -2.1210  0.2983
  280SOL    HW2 1119   1.468   0.990   2.232 -0.2666 -1.9372 -1.4395
  280SOL     MW 1120   1.461   0.997   2.141 -0.0364 -1.3271 -0.2818
  281SOL     OW 1121   1.290   1.309   2.767  0.1503 -0.1970  0.0777
  281SOL    HW1 1122   1.383   1.294   2.766  0.8711  2.2973 -2.3226
  281SOL    HW2 1123   1.260   1.270   2.846  0.6030 -1.4620 -0.5264
  281SOL     MW 1124   1.299   1.302   2.777  0.3051 -0.0348 -0.3187
  282SOL     OW 1125   1.136   1.274   1.638 -0.3146 -0.4594  0.3852
  282SOL    HW1 1126   1.098   1.359   1.597 -0.4987  3.2299 -1.0271
  282SOL    HW2 1127   1.096   1.267   1.728 -1.5626  2.2053  1.2371
  282SOL     MW 1128   1.126   1.285   1.644 -0.5035  0.3790  0.3113
  283SOL     OW 1129   0.760   1.231   2.981  0.1681 -0.7732 -0.4229
  283SOL    HW1 1130   0.812   1.180   3.044  0.4810 -0.4363  2.8096
  283SOL    HW2 1131   0.743   1.318   3.030  0.3515 -0.0602  0.9700
  283SOL     MW 1132   0.765   1.236   2.996  0.2336 -0.6347  0.1874
  284SOL     OW 1133   0.531   0.642   2.383 -0.5362  0.1355  0.3068
  284SOL    HW1 1134   0.596   0.703   2.341 -0.0006 -0.9713  0.4366
  284SOL    HW2 1135   0.494   0.589   2.315 -1.4925 -1.3756  3.8613
  284SOL     MW 1136   0.535   0.643   2.369 -0.5917 -0.2099  0.7929
  285SOL     OW 1137   0.881   0.918   2.797  0.8703  0.2096 -0.0654
  285SOL    HW1 1138   0.911   0.919   2.703 -0.8225 -0.6605 -2.0363
  285SOL    HW2 1139   0.849   0.828   2.805  0.6518 -2.6363  0.1743
  285SOL     MW 1140   0.881   0.906   2.785  0.6181 -0.2807 -0.2938
  286SOL     OW 1141   1.178   1.515   2.596  0.4956  0.3864  0.0425
  286SOL    HW1 1142   1.223   1.488   2.672 -1.7461 -0.8638  1.1067
  286SOL    HW2 1143   1.209   1.606   2.592  0.8323 -0.1759 -1.4187
  286SOL     MW 1144   1.188   1.524   2.606  0.2443  0.1473 -0.0099
  287SOL     OW 1145   1.105   0.952   0.293 -0.0204 -0.4738  0.0361
  287SOL    HW1 1146   1.126   1.009   0.366  1.3190  0.8120  1.0004
  287SOL    HW2 1147   1.016   0.963   0.261  1.0765 -1.7778 -4.2306
  287SOL     MW 1148   1.096   0.961   0.298  0.3010 -0.4762 -0.3996
  288SOL     OW 1149   1.535   0.607   2.102  0.0892 -0.1854 -0.2922
  288SOL    HW1 1150   1.534   0.650   2.187 -2.2454 -1.4542  0.5867
  288SOL    HW2 1151   1.553   0.687   2.045 -3.3929 -0.4349  0.6376
  288SOL     MW 1152   1.537   0.624   2.106 -0.6783 -0.3857 -0.0536
  289SOL     OW 1153   0.987   1.029   2.570 -0.1312  0.1414  0.1023
  289SOL    HW1 1154   1.049   0.964   2.540 -1.9738 -0.3744 -0.9456
  289SOL    HW2 1155   0.920   1.023   2.503 -0.5891 -0.6656  1.4771
  289SOL     MW 1156   0.986   1.020   2.557 -0.4347 -0.0331  0.1454
  290SOL     OW 1157   0.876   0.649   1.560 -0.0909 -0.4853  0.5238
  290SOL    HW1 1158   0.917   0.588   1.492  2.5707  0.3848 -0.1645
  290SOL    HW2 1159   0.933   0.644   1.639 -2.0207 -0.6682  0.5093
  290SOL     MW 1160   0.889   0.640   1.562  0.0057 -0.3946  0.4311
  291SOL     OW 1161   0.209   0.332   0.151  0.3200 -0.3105  0.2179
  291SOL    HW1 1162   0.274   0.264   0.180  1.2802 -2.2752  0.0918
  291SOL    HW2 1163   0.162   0.290   0.070 -0.3943 -0.9997 -2.3123
  291SOL     MW 1164   0.212   0.317   0.144  0.3524 -0.6606 -0.1325
  292SOL     OW 1165   1.010   0.587   0.095  0.1163  0.2583  0.1489
  292SOL    HW1 1166   1.069   0.649   0.137 -0.9283 -2.4326  1.4074
  292SOL    HW2 1167   1.013   0.495   0.135 -1.5935  0.8377 -0.6828
  292SOL     MW 1168   1.018   0.583   0.106 -0.2471 -0.0203  0.2052
  293SOL     OW 1169   0.172   0.133   2.448  0.0426 -0.1946 -0.2313
  293SOL    HW1 1170   0.106   0.100   2.385  1.1421  2.1128 -3.4560
  293SOL    HW2 1171   0.119   0.147   2.523 -0.4797 -2.4393 -1.6980
  293SOL     MW 1172   0.156   0.130   2.450  0.1188 -0.1863 -0.8503
  294SOL     OW 1173   1.534   0.648   2.381 -0.2056  0.0512  0.0281
  294SOL    HW1 1174   1.544   0.689   2.471 -0.1031  1.5595 -2.9504
  294SOL    HW2 1175   1.510   0.560   2.391  1.2139  1.0052 -4.6032
  294SOL     MW 1176   1.532   0.642   2.394 -0.0047  0.3761 -0.9760
  295SOL     OW 1177   0.907   0.617   2.525  1.0699 -0.2408 -0.0803
  295SOL    HW1 1178   0.877   0.546   2.465  0.2992  0.0717  3.5560
  295SOL    HW2 1179   0.843   0.630   2.603 -3.2677 -1.6019 -0.2373
  295SOL     MW 1180   0.895   0.609   2.528  0.3959 -0.3792  0.3788
  296SOL     OW 1181   1.300   0.229   2.045  0.0760  0.1934  0.2230
  296SOL    HW1 1182   1.347   0.147   2.030 -1.7129 -2.1641  2.6041
  296SOL    HW2 1183   1.287   0.219   2.141  3.0616  0.9775  0.9240
  296SOL     MW 1184   1.304   0.217   2.056  0.2339 -0.0142  0.6297
  297SOL     OW 1185   1.417   0.364   1.612 -0.1263 -0.2642  0.7171
  297SOL    HW1 1186   1.450   0.444   1.649 -2.4903  2.5328 -0.2901
  297SOL    HW2 1187   1.454   0.293   1.660  1.6283  1.8235 -0.3579
  297SOL     MW 1188   1.426   0.366   1.623 -0.2067  0.3803  0.4424
  298SOL     OW 1189   1.617   0.839   1.990  0.1790 -0.3958 -0.1239
  298SOL    HW1 1190   1.603   0.906   1.916  1.0168  0.8521  1.2198
  298SOL    HW2 1191   1.697   0.864   2.036  0.2373 -0.5865 -0.3953
  298SOL     MW 1192   1.626   0.851   1.986  0.2973 -0.2563  0.0176
  299SOL     OW 1193   0.557   1.064   0.046  0.6478  0.7624  0.2768
  299SOL    HW1 1194   0.632   1.112   0.002 -0.1344 -1.4464 -0.1411
  299SOL    HW2 1195   0.499   1.052  -0.030  1.2738  2.6016 -0.0456
  299SOL     MW 1196   0.560   1.069   0.030  0.6272  0.7136  0.1791
  300SOL     OW 1197   1.244   1.139   2.554  0.7929  0.7430  0.7511
  300SOL    HW1 1198   1.143   1.129   2.545 -1.2525 -5.2774  0.2506
  300SOL    HW2 1199   1.263   1.196   2.626  1.0624  0.1220  0.6804
  300SOL     MW 1200   1.233   1.145   2.562  0.5586 -0.1333  0.6758
  301SOL     OW 1201   1.438   0.949   0.661 -0.1678 -0.5761 -0.1085
  301SOL    HW1 1202   1.482   0.964   0.742  0.3185 -0.2554  1.4761
  301SOL    HW2 1203   1.378   0.880   0.686  0.7807  2.4119 -0.1459
  301SOL     MW 1204   1.436   0.942   0.675  0.0215 -0.1395  0.0956
  302SOL     OW 1205   0.146   1.490   2.010  0.3004 -0.3995  0.1500
  302SOL    HW1 1206   0.183   1.431   2.073 -0.0250 -0.0789 -0.4886
  302SOL    HW2 1207   0.074   1.537   2.067 -2.0723  3.9014  0.3543
  302SOL     MW 1208   0.141   1.488   2.026 -0.0556  0.2103  0.0927
  303SOL     OW 1209   0.368   1.695   2.640  0.1319  0.3930  0.0508
  303SOL    HW1 1210   0.366   1.681   2.546 -2.9472  0.7205  2.4262
  303SOL    HW2 1211   0.300   1.753   2.668  5.1639  1.9286  3.6335
  303SOL     MW 1212   0.359   1.701   2.631  0.3896  0.6388  0.8369
  304SOL     OW 1213   0.587   2.086   2.357  0.1966  0.0845 -0.3096
  304SOL    HW1 1214   0.670   2.136   2.329  0.0698  0.8004  0.8933
  304SOL    HW2 1215   0.622   2.011   2.408  1.1145 -0.1208 -0.6267
  304SOL     MW 1216   0.603   2.083   2.360  0.3010  0.1518 -0.1927
  305SOL     OW 1217   1.088   0.592   0.503  0.2309  0.3245 -0.1233
  305SOL    HW1 1218   0.997   0.590   0.470  0.7081  1.1352  0.3425
  305SOL    HW2 1219   1.090   0.506   0.547 -2.2774 -2.8475  0.9749
  305SOL     MW 1220   1.076   0.580   0.505 -0.0371  0.0129  0.0831
  306SOL     OW 1221   1.194   1.470   0.266 -0.1985 -0.0396 -0.0273
  306SOL    HW1 1222   1.223   1.393   0.319 -0.5095 -1.7260  1.2353
  306SOL    HW2 1223   1.268   1.482   0.216 -0.6781  1.9325  4.5643
  306SOL     MW 1224   1.208   1.462   0.266 -0.3028 -0.0019  0.7451
  307SOL     OW 1225   1.338   0.488   1.932 -0.5370 -0.0896  0.2784
  307SOL    HW1 1226   1.298   0.405   1.946 -1.5934  4.4778 -0.4243
  307SOL    HW2 1227   1.408   0.508   1.993 -0.4243 -0.9632 -1.0432
  307SOL     MW 1228   1.342   0.480   1.942 -0.6616  0.3978  0.0113
  308SOL     OW 1229   2.147   0.579   2.708  0.4098 -0.2227  0.5704
  308SOL    HW1 1230   2.229   0.555   2.755 -0.9971  1.0656 -0.4039
  308SOL    HW2 1231   2.150   0.670   2.686 -1.1474 -1.0793 -1.8677
  308SOL     MW 1232   2.158   0.588   2.711  0.0187 -0.1657  0.1201
  309SOL     OW 1233   0.438   0.361   0.371  0.4058 -0.3592 -0.6506
  309SOL    HW1 1234   0.510   0.334   0.430 -1.8820 -0.6147  1.3830
  309SOL    HW2 1235   0.446   0.293   0.304  3.7508  1.7836 -1.0952
  309SOL     MW 1236   0.448   0.349   0.370  0.5453 -0.1102 -0.4409
  310SOL     OW 1237   0.504   0.623   1.938  0.0722  0.6037  0.1875
  310SOL    HW1 1238   0.561   0.547   1.905 -2.3357 -0.9072  0.5163
  310SOL    HW2 1239   0.567   0.690   1.947 -0.3095 -3.4884 -1.1137
  310SOL     MW 1240   0.520   0.622   1.935 -0.2958 -0.1356  0.0592
  311SOL     OW 1241   1.946   0.692   1.904 -0.1038 -0.0846 -0.3758
  311SOL    HW1 1242   1.906   0.708   1.989  1.1060  1.1090 -0.2816
  311SOL    HW2 1243   1.993   0.605   1.921  1.8927 -2.0389  0.0540
  311SOL     MW 1244   1.947   0.683   1.918  0.3192 -0.1850 -0.3067
  312SOL     OW 1245   1.697   2.536   0.117  0.9423  0.3783  0.0115
  312SOL    HW1 1246   1.758   2.558   0.190  2.5265  1.0623  1.9669
  312SOL    HW2 1247   1.615   2.572   0.151  0.6099  3.8982  2.2237
  312SOL     MW 1248   1.694   2.544   0.131  1.1075  0.9330  0.5614
  313SOL     OW 1249   0.090   1.199   2.967 -0.1391 -0.6274  0.3083
  313SOL    HW1 1250   0.075   1.162   3.054  0.9599  0.3531  1.2508
  313SOL    HW2 1251   0.184   1.219   2.977 -0.7548 -0.3397  0.4355
  313SOL     MW 1252   0.100   1.197   2.980 -0.0753 -0.4601  0.4495
  314SOL     OW 1253   2.114   2.954   3.011  0.3799 -0.1587 -0.4956
  314SOL    HW1 1254   2.060   2.976   2.934 -2.0162 -0.9143 -0.1139
  314SOL    HW2 1255   2.181   3.023   3.034  1.4633  1.7556  0.0401
  314SOL     MW 1256   2.116   2.966   3.004  0.2067 -0.0058 -0.3746
  315SOL     OW 1257   1.512   1.972   3.097  0.0351  0.3446 -0.4342
  315SOL    HW1 1258   1.426   2.015   3.106  0.9164  0.0819 -0.5434
  315SOL    HW2 1259   1.562   2.009   3.027 -0.8810  0.2966  1.9933
  315SOL     MW 1260   1.508   1.983   3.089  0.0305  0.3036 -0.1283
  316SOL     OW 1261   1.273   0.679   2.713  0.4246  0.1322 -0.1063
  316SOL    HW1 1262   1.353   0.638   2.681 -0.6696 -1.3859 -2.0913
  316SOL    HW2 1263   1.305   0.720   2.792 -1.7864  0.0789  0.3771
  316SOL     MW 1264   1.288   0.679   2.720 -0.0115 -0.0751 -0.3044
  317SOL     OW 1265   0.733   1.490   2.599  0.2855 -0.3365  0.3432
  317SOL    HW1 1266   0.798   1.420   2.588  0.3718 -0.3924 -0.9138
  317SOL    HW2 1267   0.723   1.509   2.506  1.8734 -1.3896 -0.4371
  317SOL     MW 1268   0.740   1.483   2.585  0.5064 -0.4828  0.0744
  318SOL     OW 1269   1.363   0.369   2.900  0.1098 -0.2634 -0.3698
  318SOL    HW1 1270   1.274   0.418   2.896  0.2861  2.4951  1.1477
  318SOL    HW2 1271   1.421   0.439   2.930 -0.7705 -1.3210  0.1217
  318SOL     MW 1272   1.359   0.385   2.903  0.0169 -0.0390 -0.1048
  319SOL     OW 1273   0.784   0.407   2.856 -0.4225 -0.0627  0.0467
  319SOL    HW1 1274   0.728   0.363   2.791  1.3659 -0.2178  2.2095
  319SOL    HW2 1275   0.744   0.390   2.946 -0.9376  1.4755 -1.1839
  319SOL     MW 1276   0.771   0.399   2.859 -0.2545  0.1198  0.1697
  320SOL     OW 1277   1.076   1.334   1.947  0.2001  0.2455  0.0535
  320SOL    HW1 1278   1.134   1.303   2.014  2.2641  1.9538 -0.6921
  320SOL    HW2 1279   1.113   1.416   1.921 -0.0812 -0.3397 -0.2837
  320SOL     MW 1280   1.089   1.341   1.952  0.4353  0.3936 -0.0893
  321SOL     OW 1281   1.086   0.931   3.016  1.1294  0.0539 -0.0080
  321SOL    HW1 1282   1.034   0.917   2.937  1.1933 -0.3748  0.9890
  321SOL    HW2 1283   1.148   0.857   3.030  1.0643  0.1083  1.2428
  321SOL     MW 1284   1.088   0.919   3.008  1.1292  0.0045  0.2886
  322SOL     OW 1285   1.277   0.826   1.718  0.3811 -0.1052 -0.1717
  322SOL    HW1 1286   1.351   0.762   1.716 -1.0857 -0.4994 -1.4829
  322SOL    HW2 1287   1.269   0.876   1.801  1.3563  1.2534 -0.4935
  322SOL     MW 1288   1.286   0.824   1.729  0.3162  0.0221 -0.3872
  323SOL     OW 1289   1.248   1.586   1.882  0.4446 -0.5806  0.8624
  323SOL    HW1 1290   1.276   1.583   1.787  0.3231 -0.5974 -1.5911
  323SOL    HW2 1291   1.174   1.651   1.872 -1.1025 -1.8712  1.4671
  323SOL     MW 1292   1.242   1.594   1.868  0.2244 -0.7531  0.6185
  324SOL     OW 1293   1.496   0.987   2.390  0.0684 -0.5773 -0.2750
  324SOL    HW1 1294   1.399   0.973   2.427  1.4942 -1.2512  1.0979
  324SOL    HW2 1295   1.542   1.063   2.428  0.6677 -3.0084  0.0118
  324SOL     MW 1296   1.489   0.995   2.400  0.3356 -0.9870 -0.0560
  325SOL     OW 1297   1.057   0.448   2.937  0.5752 -0.5392 -0.1384
  325SOL    HW1 1298   1.040   0.501   3.016 -0.3233  0.4579  0.4740
  325SOL    HW2 1299   0.990   0.455   2.875 -2.6572 -2.1668  1.3360
  325SOL     MW 1300   1.046   0.456   2.939  0.0301 -0.6224  0.1369
  326SOL     OW 1301   0.442   1.361   2.196  0.2935 -0.0151  0.6214
  326SOL    HW1 1302   0.501   1.308   2.146 -1.7149 -0.4739  1.1915
  326SOL    HW2 1303   0.462   1.447   2.167 -1.9869  1.1768 -1.1269
  326SOL     MW 1304   0.452   1.365   2.186 -0.2723  0.0817  0.4660
  327SOL     OW 1305   1.926   0.805   2.436  0.1972 -0.0692 -0.1467
  327SOL    HW1 1306   1.925   0.743   2.513 -1.3191 -1.3987 -0.0890
  327SOL    HW2 1307   2.013   0.835   2.420  0.1769 -0.4029  0.0485
  327SOL     MW 1308   1.937   0.801   2.444 -0.0055 -0.2887 -0.1133
  328SOL     OW 1309   0.169   1.260   2.218 -0.3711  0.1806  0.0131
  328SOL    HW1 1310   0.133   1.207   2.143 -0.2478  1.2021  0.4275
  328SOL    HW2 1311   0.268   1.259   2.206  1.4079 -1.0795 -0.2922
  328SOL     MW 1312   0.177   1.253   2.206 -0.1201  0.1491  0.0275
  329SOL     OW 1313   0.117   0.123   1.350  0.6356  0.6220 -0.5364
  329SOL    HW1 1314   0.077   0.155   1.431 -1.7894  3.0444 -0.9915
  329SOL    HW2 1315   0.198   0.166   1.363 -3.8136 -0.2279 -0.1704
  329SOL     MW 1316   0.122   0.133   1.362 -0.2714  0.8295 -0.5482
  330SOL     OW 1317   0.335   3.092   2.053  0.3635 -0.2658 -0.3807
  330SOL    HW1 1318   0.407   3.058   2.101  0.4193 -3.7056 -0.8303
  330SOL    HW2 1319   0.258   3.050   2.093 -4.4712 -1.4522 -0.5971
  330SOL     MW 1320   0.335   3.082   2.065 -0.2670 -0.8762 -0.4686
  331SOL     OW 1321   0.857   1.178   2.300  0.7288 -0.1290 -0.0677
  331SOL    HW1 1322   0.815   1.226   2.230 -2.9664  2.3481  1.4112
  331SOL    HW2 1323   0.902   1.242   2.350  0.6241  1.8289 -2.0189
  331SOL     MW 1324   0.857   1.193   2.298  0.2274  0.4562 -0.1300
  332SOL     OW 1325   1.327   1.756   3.053 -0.3964  0.5725  0.1854
  332SOL    HW1 1326   1.347   1.733   2.963 -0.6439 -0.8615 -0.5536
  332SOL    HW2 1327   1.396   1.811   3.084 -0.0852  4.7463 -0.4410
  332SOL     MW 1328   1.339   1.760   3.045 -0.3880  0.9340  0.0052
  333SOL     OW 1329   1.737   1.404   2.919 -0.1152 -0.5710  0.0483
  333SOL    HW1 1330   1.817   1.407   2.872  3.5332  2.0465 -0.0787
  333SOL    HW2 1331   1.755   1.347   2.997 -2.2270  0.7938  0.5781
  333SOL     MW 1332   1.750   1.397   2.923  0.0875 -0.0456  0.1015
  334SOL     OW 1333   1.390  -0.001   2.635 -0.1516  0.0085  0.2901
  334SOL    HW1 1334   1.295  -0.015   2.660  0.5428  1.8246 -2.5237
  334SOL    HW2 1335   1.407   0.090   2.661  2.3646 -0.8181 -0.1250
  334SOL     MW 1336   1.379   0.009   2.642  0.2720  0.1391 -0.1359
  335SOL     OW 1337   1.316   0.786   2.976  0.6467  0.0934  0.2973
  335SOL    HW1 1338   1.387   0.766   3.035 -1.0620  0.5397  2.1289
  335SOL    HW2 1339   1.349   0.859   2.927  0.3247  0.0459 -1.3806
  335SOL     MW 1340   1.330   0.793   2.977  0.3788  0.1460  0.3176
  336SOL     OW 1341   0.947   1.051   1.965  0.2764  0.0785  0.5216
  336SOL    HW1 1342   0.961   1.149   1.980 -0.9550 -0.2680  0.1916
  336SOL    HW2 1343   1.022   1.018   1.917 -1.6533 -1.7151  1.7174
  336SOL     MW 1344   0.959   1.060   1.960 -0.1407 -0.2038  0.6358
  337SOL     OW 1345   0.587   1.818   2.781  0.2307  0.3452 -0.4285
  337SOL    HW1 1346   0.508   1.800   2.721 -1.6336 -2.1295  0.5299
  337SOL    HW2 1347   0.664   1.787   2.738  0.4657 -2.4076  0.8995
  337SOL     MW 1348   0.587   1.811   2.767  0.0157 -0.3446 -0.1268
  338SOL     OW 1349   1.120   0.809   2.525 -0.3866 -0.0786 -0.1976
  338SOL    HW1 1350   1.039   0.753   2.509  0.8035 -0.9428 -2.7356
  338SOL    HW2 1351   1.179   0.762   2.591  1.8460  0.4698  1.0284
  338SOL     MW 1352   1.117   0.796   2.531  0.0650 -0.1203 -0.3707
  339SOL     OW 1353   1.543   1.015   1.800  0.4475 -0.2965  0.4230
  339SOL    HW1 1354   1.519   1.043   1.709 -0.4830  1.1215  0.9923
  339SOL    HW2 1355   1.462   1.032   1.848 -1.0427 -1.5058  0.3885
  339SOL     MW 1356   1.529   1.021   1.794  0.1281 -0.2690  0.4936
  340SOL     OW 1357   1.378   1.473   0.040 -0.3130  0.3135  0.3540
  340SOL    HW1 1358   1.364   1.566   0.018  2.5083 -2.3667 -2.1199
  340SOL    HW2 1359   1.466   1.468   0.074 -2.3322  0.3350  1.0321
  340SOL     MW 1360   1.388   1.485   0.041 -0.2072 -0.0373  0.1170
  341SOL     OW 1361   0.152   1.452   2.694 -0.1973 -0.0314  0.2473
  341SOL    HW1 1362   0.241   1.433   2.676 -1.2363 -1.3840  0.0348
  341SOL    HW2 1363   0.101   1.400   2.634  1.8153 -0.2054 -1.5124
  341SOL     MW 1364   0.157   1.443   2.683 -0.0688 -0.2329 -0.0129
  342SOL     OW 1365   1.308   0.318   0.081 -0.3998  0.6612  0.1695
  342SOL    HW1 1366   1.379   0.372   0.111 -0.2135 -1.7008 -0.2061
  342SOL    HW2 1367   1.304   0.343  -0.012 -0.3171 -1.9486 -0.5797
  342SOL     MW 1368   1.317   0.328   0.073 -0.3643  0.0052  0.0211
  343SOL     OW 1369   0.217   0.325   2.145 -0.0246 -0.0072 -0.0249
  343SOL    HW1 1370   0.270   0.253   2.188  1.5294 -0.7255 -1.8897
  343SOL    HW2 1371   0.144   0.278   2.100  0.8909 -1.0177 -2.4924
  343SOL     MW 1372   0.215   0.309   2.144  0.3012 -0.2353 -0.5965
  344SOL     OW 1373   1.699   2.065   0.186  0.1836  0.0754  0.2239
  344SOL    HW1 1374   1.709   2.139   0.127  1.8134  0.5583 -0.3673
  344SOL    HW2 1375   1.624   2.011   0.154 -3.2974 -0.8405  2.1938
  344SOL     MW 1376   1.690   2.068   0.174 -0.0607  0.0183  0.4058
  345SOL     OW 1377   0.759   1.588   2.327 -0.1284 -0.2183  0.4064
  345SOL    HW1 1378   0.692   1.618   2.264 -0.6486  2.7567 -1.4516
  345SOL    HW2 1379   0.810   1.544   2.256 -1.2186 -1.4160  0.2617
  345SOL     MW 1380   0.757   1.586   2.310 -0.3409  0.0162  0.1422
  346SOL     OW 1381   1.776   1.089   3.085  0.0052 -0.6326 -0.1916
  346SOL    HW1 1382   1.861   1.132   3.107 -0.3763 -0.6491  2.2028
  346SOL    HW2 1383   1.755   1.034   3.162  2.8241 -0.5730 -1.0070
  346SOL     MW 1384   1.785   1.087   3.098  0.3268 -0.6269  0.0167
  347SOL     OW 1385   1.277   0.762   2.287  0.2066 -0.4136  0.1987
  347SOL    HW1 1386   1.355   0.737   2.328  0.3313 -0.4949 -0.9096
  347SOL    HW2 1387   1.222   0.790   2.364 -0.1657  1.1261  1.9288
  347SOL     MW 1388   1.280   0.762   2.303  0.1739 -0.2212  0.2807
  348SOL     OW 1389   1.429   2.652   1.874  0.0304  0.6553  0.2857
  348SOL    HW1 1390   1.461   2.571   1.911  0.9034 -0.6343  0.9822
  348SOL    HW2 1391   1.431   2.717   1.940  0.8296 -1.9206  1.2525
  348SOL     MW 1392   1.433   2.650   1.887  0.2511  0.1453  0.5051
  349SOL     OW 1393   1.514   0.269   2.695 -0.0919  0.5414 -0.0632
  349SOL    HW1 1394   1.453   0.299   2.760  2.3801 -0.3628  0.6332
  349SOL    HW2 1395   1.596   0.284   2.742 -3.2557  0.2566 -0.2446
  349SOL     MW 1396   1.517   0.275   2.710 -0.1832  0.3845  0.0047
  350SOL     OW 1397   1.871   0.612   2.663  0.5142  0.0512 -0.0375
  350SOL    HW1 1398   1.825   0.535   2.640  0.4696 -0.4419  1.0774
  350SOL    HW2 1399   1.966   0.585   2.675 -0.7635 -1.5315  3.6940
  350SOL     MW 1400   1.878   0.599   2.661  0.3397 -0.2227  0.6019
  351SOL     OW 1401   0.064   0.937   1.504 -0.3616 -0.1550 -0.4931
  351SOL    HW1 1402  -0.011   0.980   1.550  0.9253  1.1329 -0.3860
  351SOL    HW2 1403   0.135   1.002   1.512 -3.6571 -0.9465 -2.4945
  351SOL     MW 1404   0.063   0.951   1.511 -0.6266 -0.0895 -0.7430
  352SOL     OW 1405   0.850   1.688   2.724 -0.8089 -0.1506 -0.2967
  352SOL    HW1 1406   0.913   1.634   2.772  1.1630 -1.1017  0.5459
  352SOL    HW2 1407   0.826   1.619   2.663 -1.3745  0.6974  1.6729
  352SOL     MW 1408   0.855   1.672   2.723 -0.6233 -0.1642  0.0743
  353SOL     OW 1409   3.081   2.476   2.671  0.1506  0.4653 -0.5872
  353SOL    HW1 1410   3.175   2.479   2.648 -1.2091  0.2760 -3.5791
  353SOL    HW2 1411   3.034   2.556   2.655 -2.9646  1.1466  0.0842
  353SOL     MW 1412   3.087   2.487   2.666 -0.4398  0.5302 -0.8934
  354SOL     OW 1413   0.338   2.528   0.843 -0.4048  0.3981 -0.3042
  354SOL    HW1 1414   0.357   2.510   0.935 -0.2339  3.1254 -1.6664
  354SOL    HW2 1415   0.279   2.456   0.819 -1.4697  1.1916  0.7333
  354SOL     MW 1416   0.333   2.516   0.852 -0.5227  0.8626 -0.3470
  355SOL     OW 1417   0.031   2.277   0.358  0.1588  0.0222  0.6492
  355SOL    HW1 1418  -0.033   2.203   0.375  0.0289  1.3857  0.7686
  355SOL    HW2 1419   0.011   2.335   0.431 -0.5757  2.0761 -0.2954
  355SOL     MW 1420   0.020   2.275   0.370  0.0448  0.4731  0.5403
  356SOL     OW 1421   0.805   2.870   0.989  0.1972 -0.6782 -0.2756
  356SOL    HW1 1422   0.813   2.863   0.893 -0.5325  2.5348 -0.9620
  356SOL    HW2 1423   0.715   2.827   1.003  1.0871  0.9316 -0.2969
  356SOL     MW 1424   0.794   2.864   0.978  0.2183 -0.0419 -0.3690
  357SOL     OW 1425   1.797   2.945   0.428 -0.1292 -0.3949  0.1303
  357SOL    HW1 1426   1.728   2.881   0.454 -1.5006  3.5501  1.6308
  357SOL    HW2 1427   1.874   2.899   0.402  1.5442  1.2259 -0.3112
  357SOL     MW 1428   1.798   2.931   0.428 -0.0893  0.3395  0.2700
  358SOL     OW 1429   0.516   0.100   1.091 -0.2400  0.3494  0.2961
  358SOL    HW1 1430   0.597   0.077   1.046 -1.2059  3.6522 -0.4513
  358SOL    HW2 1431   0.472   0.142   1.016 -0.7208  1.0385  2.8617
  358SOL     MW 1432   0.520   0.102   1.075 -0.4308  0.8761  0.5360
  359SOL     OW 1433   0.891   2.909   1.854  0.1087  0.7975  0.0736
  359SOL    HW1 1434   0.872   2.814   1.883 -0.3386  0.6875  1.1779
  359SOL    HW2 1435   0.945   2.907   1.772 -1.6394  0.0362  0.4657
  359SOL     MW 1436   0.896   2.897   1.847 -0.1810  0.6826  0.2710
  360SOL     OW 1437   0.550   2.751   1.006 -0.4852 -0.3967 -0.2990
  360SOL    HW1 1438   0.547   2.701   0.923 -0.7411 -1.1614 -2.2755
  360SOL    HW2 1439   0.548   2.688   1.079 -0.3614  1.0114  1.6663
  360SOL     MW 1440   0.549   2.736   1.005 -0.5026 -0.3118 -0.3005
  361SOL     OW 1441   0.191   2.686   1.329 -0.2499  0.0894  0.0321
  361SOL    HW1 1442   0.150   2.755   1.384 -1.5034 -0.7578 -1.0370
  361SOL    HW2 1443   0.287   2.703   1.347 -0.6654  1.8242  0.4513
  361SOL     MW 1444   0.199   2.698   1.338 -0.4701  0.2065 -0.0537
  362SOL     OW 1445   1.477   2.432   0.626  0.2815  0.6007 -0.2230
  362SOL    HW1 1446   1.503   2.342   0.654  0.3938 -1.6423 -1.4895
  362SOL    HW2 1447   1.462   2.486   0.700 -1.4611  1.4279 -1.2277
  362SOL     MW 1448   1.479   2.427   0.639  0.0664  0.4139 -0.5227
  363SOL     OW 1449   0.302   3.079   0.719  0.1434 -0.3915  0.0286
  363SOL    HW1 1450   0.302   3.010   0.790  0.6387  0.0932 -0.0218
  363SOL    HW2 1451   0.213   3.084   0.690  0.5143  1.2043 -1.3925
  363SOL     MW 1452   0.290   3.070   0.725  0.2577 -0.1170 -0.1655
  364SOL     OW 1453   0.714   0.181   0.229 -0.5405  0.0395 -0.1370
  364SOL    HW1 1454   0.660   0.116   0.276 -1.4963 -3.1725  1.1677
  364SOL    HW2 1455   0.646   0.227   0.173 -2.1935 -0.4423 -1.3563
  364SOL     MW 1456   0.698   0.179   0.228 -0.8847 -0.4479 -0.1258
  365SOL     OW 1457   0.981   1.962   1.065  0.1373  0.6200 -0.2730
  365SOL    HW1 1458   0.964   2.049   1.028  1.3170 -1.8916  1.8216
  365SOL    HW2 1459   0.916   1.909   1.018 -1.3123  0.3263 -0.5231
  365SOL     MW 1460   0.971   1.966   1.054  0.1017  0.2499 -0.0297
  366SOL     OW 1461   2.815   2.626   1.013 -0.0448 -0.2871 -0.1578
  366SOL    HW1 1462   2.864   2.614   1.100  1.4251  1.1614  2.3159
  366SOL    HW2 1463   2.864   2.664   0.941 -0.9473 -0.4692  0.1908
  366SOL     MW 1464   2.828   2.630   1.015  0.0301 -0.1200  0.2146
  367SOL     OW 1465   1.254   2.926   0.925  0.0103  0.5367 -0.2522
  367SOL    HW1 1466   1.233   2.996   0.868  1.4884 -0.9403 -4.1318
  367SOL    HW2 1467   1.203   2.850   0.888 -2.1609  0.2174  0.2370
  367SOL     MW 1468   1.245   2.925   0.912 -0.0812  0.2997 -0.6995
  368SOL     OW 1469   1.632   0.401   0.685 -0.1856  0.1186 -0.1748
  368SOL    HW1 1470   1.723   0.386   0.655 -0.9584 -1.6816 -1.9595
  368SOL    HW2 1471   1.619   0.500   0.695  1.2093 -1.5463 -0.3660
  368SOL     MW 1472   1.643   0.412   0.683 -0.1035 -0.3386 -0.4355
  369SOL     OW 1473   0.151   2.518   1.655 -0.3264  0.8374  0.0744
  369SOL    HW1 1474   0.244   2.525   1.669  1.6210  1.4385  1.0441
  369SOL    HW2 1475   0.121   2.583   1.709 -0.6183 -1.7484 -1.0069
  369SOL     MW 1476   0.159   2.528   1.664 -0.1080  0.5755  0.0597
  370SOL     OW 1477   0.747   0.028   0.920  0.0167  0.5925 -0.2212
  370SOL    HW1 1478   0.844   0.041   0.914  1.3965  0.7626 -1.8447
  370SOL    HW2 1479   0.748  -0.062   0.951 -0.3480  0.7543  2.2961
  370SOL     MW 1480   0.760   0.018   0.924  0.1506  0.6363 -0.1033
  371SOL     OW 1481   1.354   2.940   1.517 -0.4392 -0.4452 -0.5220
  371SOL    HW1 1482   1.290   2.874   1.486 -0.2263  0.2029 -0.5791
  371SOL    HW2 1483   1.331   3.028   1.476 -2.2696  2.8392  0.4352
  371SOL     MW 1484   1.342   2.943   1.507 -0.6526  0.0736 -0.4032
  372SOL     OW 1485   0.770   2.337   0.465  0.3439 -0.0147 -0.6617
  372SOL    HW1 1486   0.725   2.252   0.479  1.6909  0.8655  3.4049
  372SOL    HW2 1487   0.805   2.328   0.371  0.9660  0.2022 -2.3439
  372SOL     MW 1488   0.769   2.325   0.455  0.6037  0.1300 -0.3471
  373SOL     OW 1489   2.761   3.054   1.425 -0.2645 -0.1700  0.3110
  373SOL    HW1 1490   2.830   3.020   1.370 -0.8709  0.1538  2.4854
  373SOL    HW2 1491   2.721   3.114   1.360 -0.0787 -0.2647  0.2332
  373SOL     MW 1492   2.765   3.057   1.409 -0.3200 -0.1398  0.5876
  374SOL     OW 1493   1.540   0.441   0.213 -0.6661 -0.0073  0.4717
  374SOL    HW1 1494   1.598   0.361   0.225  2.8692 -0.0609  1.2586
  374SOL    HW2 1495   1.513   0.449   0.305 -1.9941  3.7518  0.8551
  374SOL     MW 1496   1.544   0.432   0.227 -0.3748  0.4816  0.6261
  375SOL     OW 1497   1.065   2.074   2.261 -0.4398  0.2403  0.6704
  375SOL    HW1 1498   1.118   2.080   2.344 -1.4673 -1.1072 -1.5880
  375SOL    HW2 1499   1.052   1.979   2.249 -0.9921  1.2139 -1.2682
  375SOL     MW 1500   1.070   2.062   2.270 -0.6483  0.1910  0.1166
  376SOL     OW 1501   0.614   2.563   0.081 -0.1780  0.4302 -0.7183
  376SOL    HW1 1502   0.608   2.500   0.167  2.7338 -1.6921  1.2814
  376SOL    HW2 1503   0.606   2.493   0.019 -1.4951 -1.8903  0.3666
  376SOL     MW 1504   0.612   2.546   0.084  0.0324 -0.1560 -0.3113
  377SOL     OW 1505   1.320   2.006   0.823 -0.2253  0.1061  0.1724
  377SOL    HW1 1506   1.236   1.987   0.775  1.5980  0.3676 -3.7617
  377SOL    HW2 1507   1.309   1.960   0.907 -2.9472 -2.0157  0.1195
  377SOL     MW 1508   1.308   1.998   0.828 -0.3438 -0.1394 -0.3537
  378SOL     OW 1509   1.040   2.809   1.639 -0.3885  0.0016 -0.1620
  378SOL    HW1 1510   0.982   2.729   1.649 -0.0134 -1.6331  1.2700
  378SOL    HW2 1511   0.984   2.871   1.591  0.0749  0.8910 -1.5140
  378SOL     MW 1512   1.025   2.807   1.634 -0.2778 -0.0967 -0.1515
  379SOL     OW 1513   1.143   1.782   2.267  0.2140  0.0818 -0.0931
  379SOL    HW1 1514   1.080   1.718   2.236 -0.2421  1.0320  0.6685
  379SOL    HW2 1515   1.222   1.743   2.227 -0.0733 -1.8516 -2.4001
  379SOL     MW 1516   1.145   1.768   2.258  0.1159 -0.0479 -0.2970
  380SOL     OW 1517   0.800   0.063   1.567 -0.5018 -0.1914 -0.0245
  380SOL    HW1 1518   0.820   0.076   1.476  0.9025 -1.8567  2.6244
  380SOL    HW2 1519   0.874   0.096   1.619 -0.7789  2.8755  0.8309
  380SOL     MW 1520   0.813   0.069   1.562 -0.3530 -0.0065  0.4378
  381SOL     OW 1521   0.826   2.015   0.786  0.1843  0.8147 -0.3492
  381SOL    HW1 1522   0.921   2.007   0.759 -0.7707  0.5161 -2.7482
  381SOL    HW2 1523   0.829   2.098   0.832  1.2618  1.3710 -0.2891
  381SOL     MW 1524   0.839   2.025   0.788  0.2004  0.8487 -0.6578
  382SOL     OW 1525   0.614   0.115   0.688 -0.2724 -0.5237 -0.3482
  382SOL    HW1 1526   0.634   0.117   0.787  2.0321 -1.2906  2.3015
  382SOL    HW2 1527   0.591   0.022   0.674  0.3163  1.6225 -0.6790
  382SOL     MW 1528   0.614   0.103   0.699  0.1093 -0.3417 -0.0423
  383SOL     OW 1529   0.566   3.063   0.345 -0.1074 -0.5874  0.3706
  383SOL    HW1 1530   0.590   3.012   0.268 -0.2324  1.0530  1.0931
  383SOL    HW2 1531   0.504   3.025   0.405 -1.8502  1.3842 -2.1826
  383SOL     MW 1532   0.561   3.051   0.343 -0.3538 -0.1108  0.1291
  384SOL     OW 1533   0.606   2.940   0.641 -0.2493  0.7189 -0.0916
  384SOL    HW1 1534   0.693   2.919   0.665 -2.1800 -1.8834 -2.0254
  384SOL    HW2 1535   0.570   2.854   0.656  0.0492  1.9951 -0.5631
  384SOL     MW 1536   0.612   2.926   0.646 -0.4647  0.5439 -0.4089
  385SOL     OW 1537   1.321   2.062   1.502  0.1824  0.1785  0.0307
  385SOL    HW1 1538   1.381   2.121   1.551 -0.2854  4.7471 -2.3587
  385SOL    HW2 1539   1.295   1.998   1.570  1.5562  1.0150 -0.9021
  385SOL     MW 1540   1.326   2.061   1.518  0.3020  0.8917 -0.4076
  386SOL     OW 1541   1.308   0.367   0.814 -0.4737 -0.1644  0.1565
  386SOL    HW1 1542   1.243   0.424   0.858  0.2174  2.7165  3.9289
  386SOL    HW2 1543   1.335   0.309   0.882  1.0351 -1.3922 -2.7066
  386SOL     MW 1544   1.303   0.367   0.829 -0.1835  0.0537  0.2765
  387SOL     OW 1545   0.890   2.150   1.474 -0.0116  0.1800  0.1782
  387SOL    HW1 1546   0.891   2.198   1.393 -1.8857  1.3633  0.8315
  387SOL    HW2 1547   0.884   2.060   1.442 -0.2490  2.4595 -0.3456
  387SOL     MW 1548   0.889   2.145   1.459 -0.2902  0.6369  0.1953
  388SOL     OW 1549   1.574   2.816   1.194 -0.0548 -0.0281  0.2183
  388SOL    HW1 1550   1.490   2.791   1.156  0.7667  0.6428  0.7256
  388SOL    HW2 1551   1.631   2.745   1.172  1.1025  1.1957  2.4049
  388SOL     MW 1552   1.570   2.803   1.186  0.2063  0.2219  0.5737
  389SOL     OW 1553   0.439   0.042   3.033  0.7752  0.1939 -0.1512
  389SOL    HW1 1554   0.533   0.052   3.000  2.3513  0.7996  1.2651
  389SOL    HW2 1555   0.400   0.090   2.963  1.0058 -0.9122  0.6971
  389SOL     MW 1556   0.446   0.050   3.020  1.0136  0.1279  0.1476
  390SOL     OW 1557   1.300   0.101   0.649 -0.4702  0.2783 -0.0888
  390SOL    HW1 1558   1.381   0.103   0.596 -3.2351 -3.8702 -0.3089
  390SOL    HW2 1559   1.332   0.112   0.742  1.9997 -1.6352 -0.7688
  390SOL     MW 1560   1.315   0.102   0.654 -0.5091 -0.5215 -0.2076
  391SOL     OW 1561   0.304   2.219   1.372  0.2645 -0.4520  0.2438
  391SOL    HW1 1562   0.273   2.128   1.411 -1.1534 -2.3724  0.5279
  391SOL    HW2 1563   0.230   2.285   1.366 -0.9952 -0.1484 -0.5573
  391SOL     MW 1564   0.290   2.215   1.377 -0.0888 -0.6653  0.1756
  392SOL     OW 1565   2.034   2.188   0.379  0.0040  0.3621 -0.0645
  392SOL    HW1 1566   2.119   2.181   0.417 -1.8681 -1.6434  0.5107
  392SOL    HW2 1567   2.001   2.276   0.404  3.8737 -0.2582  0.5101
  392SOL     MW 1568   2.041   2.199   0.387  0.2676  0.0156  0.0872
  393SOL     OW 1569   0.150   3.054   2.748 -0.1618  0.6339 -0.2064
  393SOL    HW1 1570   0.229   3.025   2.707 -1.2818  2.7700  2.7459
  393SOL    HW2 1571   0.154   3.150   2.740  0.1281 -0.2576 -0.8589
  393SOL     MW 1572   0.161   3.063   2.741 -0.2713  0.7981  0.0970
  394SOL     OW 1573   0.918   1.759   1.519  0.1061 -0.5181  0.0538
  394SOL    HW1 1574   0.848   1.770   1.588 -0.3941 -0.2671  0.9921
  394SOL    HW2 1575   0.904   1.822   1.450  1.4079 -1.4772  1.0117
  394SOL     MW 1576   0.907   1.769   1.519  0.2119 -0.6115  0.3040
  395SOL     OW 1577   1.047   2.797   2.583 -0.1096 -0.0949 -0.0488
  395SOL    HW1 1578   1.075   2.863   2.646 -0.4319 -0.6348 -3.2664
  395SOL    HW2 1579   1.113   2.732   2.566 -0.5378  1.5445  1.8194
  395SOL     MW 1580   1.059   2.797   2.589 -0.2086  0.0501 -0.2268
  396SOL     OW 1581   0.795   1.873   2.404 -0.9334 -0.1840 -0.2534
  396SOL    HW1 1582   0.868   1.896   2.467 -1.1831  2.5241  0.6740
  396SOL    HW2 1583   0.802   1.779   2.385 -2.5290 -2.7233 -0.8386
  396SOL     MW 1584   0.805   1.864   2.410 -1.1768 -0.1617 -0.2082
  397SOL     OW 1585   1.015   2.330   1.254 -0.4624 -0.3372 -0.1947
  397SOL    HW1 1586   1.069   2.374   1.179 -1.5247 -0.3895 -0.6131
  397SOL    HW2 1587   1.081   2.317   1.326  0.6858  1.7414 -0.4939
  397SOL     MW 1588   1.031   2.334   1.254 -0.4511 -0.0698 -0.2894
  398SOL     OW 1589   0.540   2.699   0.727 -0.1172 -0.2073 -0.2326
  398SOL    HW1 1590   0.469   2.630   0.717 -1.2988 -2.9344 -1.0808
  398SOL    HW2 1591   0.619   2.654   0.691 -0.6601 -0.9712 -1.7732
  398SOL     MW 1592   0.541   2.684   0.721 -0.3447 -0.6679 -0.5478
  399SOL     OW 1593   0.239   2.090   0.396 -0.0122  0.0036 -0.3301
  399SOL    HW1 1594   0.164   2.141   0.374 -0.0688 -0.5361  1.4161
  399SOL    HW2 1595   0.310   2.122   0.333  4.3392 -0.3436 -1.1811
  399SOL     MW 1596   0.239   2.101   0.385  0.5544 -0.1134 -0.2120
  400SOL     OW 1597   0.531   1.893   0.164  0.4109  0.4869  0.5379
  400SOL    HW1 1598   0.478   1.973   0.170 -2.5933  0.2008 -4.3835
  400SOL    HW2 1599   0.504   1.819   0.223  0.4209 -1.3241  0.3595
  400SOL     MW 1600   0.520   1.894   0.172  0.0158  0.2102 -0.1350
  401SOL     OW 1601   0.812   2.035   0.119 -1.1750 -0.3896 -0.2555
  401SOL    HW1 1602   0.865   1.960   0.136 -0.1770 -0.2685  3.8561
  401SOL    HW2 1603   0.716   2.001   0.123 -2.4568 -0.4113 -3.9764
  401SOL     MW 1604   0.806   2.020   0.122 -1.2125 -0.3765 -0.2040
  402SOL     OW 1605   0.623   3.007   1.732 -0.3572  0.8043  0.2852
  402SOL    HW1 1606   0.685   3.002   1.809  0.0357 -2.5044 -0.6928
  402SOL    HW2 1607   0.684   3.053   1.668 -0.3756 -0.3287  0.0491
  402SOL     MW 1608   0.639   3.012   1.734 -0.3078  0.2183  0.1250
  403SOL     OW 1609   0.090   0.419   0.372  0.3468 -0.4314 -0.2093
  403SOL    HW1 1610   0.163   0.453   0.419 -0.8558  1.8973 -2.8475
  403SOL    HW2 1611   0.125   0.402   0.281  0.9254  1.3079 -0.3945
  403SOL     MW 1612   0.104   0.421   0.366  0.2645  0.1054 -0.5818
  404SOL     OW 1613   0.865   2.845   0.730  0.3304  0.0703 -0.2943
  404SOL    HW1 1614   0.921   2.801   0.663  1.3279 -0.8560 -0.7649
  404SOL    HW2 1615   0.908   2.932   0.736 -0.5849  0.2904 -3.5938
  404SOL     MW 1616   0.878   2.850   0.721  0.3412 -0.0229 -0.7917
  405SOL     OW 1617   0.496   2.388   1.489  0.2609 -0.0010 -0.6131
  405SOL    HW1 1618   0.470   2.479   1.462  1.8383 -0.6713 -2.4276
  405SOL    HW2 1619   0.447   2.323   1.438  1.1972  2.1560  1.2997
  405SOL     MW 1620   0.486   2.392   1.479  0.5926  0.1951 -0.6002
  406SOL     OW 1621   0.377   2.407   1.082  0.5894 -0.5757 -0.1922
  406SOL    HW1 1622   0.281   2.424   1.093  0.8024 -1.4960  0.3679
  406SOL    HW2 1623   0.385   2.316   1.064  0.8778 -0.9602  0.0884
  406SOL     MW 1624   0.366   2.397   1.081  0.6556 -0.7478 -0.0813
  407SOL     OW 1625   3.054   2.710   1.152 -0.7147 -0.0113 -0.3838
  407SOL    HW1 1626   3.131   2.683   1.211  1.2472 -0.0902 -1.9228
  407SOL    HW2 1627   3.105   2.711   1.067 -1.3288  1.2187  0.9594
  407SOL     MW 1628   3.071   2.707   1.149 -0.5369  0.1406 -0.4097
  408SOL     OW 1629   2.119   2.067   0.793  0.0330  0.6272 -0.1478
  408SOL    HW1 1630   2.054   2.107   0.852 -0.7090 -2.1047  0.5509
  408SOL    HW2 1631   2.062   2.035   0.727  0.4216 -3.6210  2.5775
  408SOL     MW 1632   2.103   2.068   0.792 -0.0136 -0.2938  0.3040
  409SOL     OW 1633   1.407   0.108   0.908  0.3153  0.3428 -0.5603
  409SOL    HW1 1634   1.488   0.157   0.899 -0.4080 -1.0179  0.9628
  409SOL    HW2 1635   1.436   0.043   0.971 -1.9838  2.6280  0.3338
  409SOL     MW 1636   1.422   0.106   0.915 -0.0835  0.4648 -0.2414
  410SOL     OW 1637   1.136   2.465   1.030 -0.1393  0.0105 -0.2397
  410SOL    HW1 1638   1.064   2.502   0.983 -3.2418 -1.3701  1.5571
  410SOL    HW2 1639   1.163   2.382   0.985  1.9940 -0.9813  0.7190
  410SOL     MW 1640   1.130   2.459   1.018 -0.2672 -0.3025  0.1239
  411SOL     OW 1641   1.965   0.022   2.851  0.2935  0.1887  0.3762
  411SOL    HW1 1642   1.894   0.005   2.786  1.0828  2.0363  0.8287
  411SOL    HW2 1643   1.922   0.046   2.934  1.4993 -0.1588  0.3097
  411SOL     MW 1644   1.950   0.023   2.854  0.5568  0.3867  0.4271
  412SOL     OW 1645   0.979   2.270   0.641  0.3446  0.4192  0.2600
  412SOL    HW1 1646   1.034   2.346   0.628  1.5769 -0.1353  0.8448
  412SOL    HW2 1647   0.887   2.300   0.600 -0.7192 -3.2285 -1.1714
  412SOL     MW 1648   0.974   2.284   0.634  0.3668 -0.1352  0.1483
  413SOL     OW 1649   0.512   2.789   3.060  0.2625  0.2247 -0.0053
  413SOL    HW1 1650   0.561   2.701   3.076  1.0781 -0.6468  0.2394
  413SOL    HW2 1651   0.564   2.830   2.996 -2.3519  0.9950  0.8603
  413SOL     MW 1652   0.526   2.783   3.054  0.0251  0.2114  0.1412
  414SOL     OW 1653   1.918   2.931   1.084 -0.2920 -0.5667 -0.2805
  414SOL    HW1 1654   1.877   2.953   1.001  1.3938 -1.7213  1.5912
  414SOL    HW2 1655   1.998   2.870   1.074  1.3104 -0.6083 -0.2035
  414SOL     MW 1656   1.923   2.926   1.072  0.1419 -0.7245 -0.0234
  415SOL     OW 1657   1.715   2.604   1.128  0.4751  0.6283 -0.8958
  415SOL    HW1 1658   1.649   2.551   1.179 -2.0281  2.5963  2.0903
  415SOL    HW2 1659   1.767   2.639   1.198 -0.4093  0.6095 -1.2873
  415SOL     MW 1660   1.713   2.601   1.144  0.0282  0.8855 -0.5535
  416SOL     OW 1661   0.527   1.946   1.366 -0.5622  0.0586  0.0417
  416SOL    HW1 1662   0.489   2.007   1.300 -4.0744 -1.4516 -1.4741
  416SOL    HW2 1663   0.485   1.867   1.347  1.6561  2.1724  0.0349
  416SOL     MW 1664   0.517   1.944   1.355 -0.7329  0.1382 -0.1592
  417SOL     OW 1665   1.012   3.055   2.043  0.5427  0.7817  0.4479
  417SOL    HW1 1666   0.959   3.042   2.129  1.6344 -1.3691 -3.9297
  417SOL    HW2 1667   0.956   3.010   1.968  1.5167 -1.3200 -1.6447
  417SOL     MW 1668   0.998   3.047   2.045  0.8153  0.2206 -0.4058
  418SOL     OW 1669   0.679   2.896   0.152  0.5883 -0.5711  0.2129
  418SOL    HW1 1670   0.751   2.916   0.091 -0.5444 -1.8207 -0.9096
  418SOL    HW2 1671   0.611   2.853   0.092  1.0270  0.8142 -1.1694
  418SOL     MW 1672   0.680   2.893   0.136  0.4967 -0.5532 -0.1176
  419SOL     OW 1673   0.451   2.637   1.402 -0.1822  0.1118  0.2136
  419SOL    HW1 1674   0.517   2.703   1.429  2.6159  0.1819 -2.3298
  419SOL    HW2 1675   0.506   2.606   1.330 -1.3244  0.5194  3.8440
  419SOL     MW 1676   0.467   2.642   1.396  0.0363  0.1748  0.3570
  420SOL     OW 1677   0.873   2.202   0.988 -0.2606  0.2773 -0.8456
  420SOL    HW1 1678   0.808   2.224   1.059  0.3305 -0.9214  2.4020
  420SOL    HW2 1679   0.901   2.295   0.966  3.4004 -0.9344  3.0414
  420SOL     MW 1680   0.868   2.217   0.995  0.3004 -0.0407  0.0957
  421SOL     OW 1681   2.944   0.040   0.014  0.0765 -0.3393  0.3749
  421SOL    HW1 1682   2.884   0.022  -0.057 -0.7325 -0.4987  1.1351
  421SOL    HW2 1683   2.974  -0.039   0.051 -0.2087 -0.9594 -0.7958
  421SOL     MW 1684   2.940   0.027   0.010 -0.0679 -0.4421  0.3207
  422SOL     OW 1685   0.906   2.510   0.892  0.0744  0.5353  0.0512
  422SOL    HW1 1686   0.858   2.583   0.929 -1.8546  1.2558 -0.8060
  422SOL    HW2 1687   0.853   2.494   0.813 -0.7849  2.1132 -3.7291
  422SOL     MW 1688   0.893   2.517   0.887 -0.2935  0.8385 -0.5606
  423SOL     OW 1689   1.535   0.141   0.508  0.3308 -0.1780  0.4572
  423SOL    HW1 1690   1.528   0.072   0.439 -0.7608 -0.5851 -1.3746
  423SOL    HW2 1691   1.496   0.223   0.464  1.7830  3.2368 -1.3979
  423SOL     MW 1692   1.529   0.143   0.493  0.3784  0.2188 -0.0293
  424SOL     OW 1693   0.688   2.264   1.164  0.0519 -0.0018 -0.1935
  424SOL    HW1 1694   0.609   2.215   1.163  2.4068  1.0804  0.9388
  424SOL    HW2 1695   0.697   2.312   1.250 -0.0447  0.6131  0.0295
  424SOL     MW 1696   0.679   2.264   1.175  0.3499  0.2221 -0.0147
  425SOL     OW 1697   1.724   2.841   1.969 -0.1165 -0.2157 -0.1510
  425SOL    HW1 1698   1.739   2.849   1.874  0.2081 -1.3995  0.4278
  425SOL    HW2 1699   1.747   2.751   1.979  0.3049  0.3110  1.0593
  425SOL     MW 1700   1.729   2.830   1.958 -0.0180 -0.3024  0.0851
  426SOL     OW 1701   0.838   1.694   1.947 -0.5689 -0.3661  0.1309
  426SOL    HW1 1702   0.780   1.728   1.873  1.3752  0.4351 -0.3110
  426SOL    HW2 1703   0.822   1.762   2.007  1.0564 -3.0345  1.1912
  426SOL     MW 1704   0.828   1.708   1.945 -0.0979 -0.6125  0.2125
  427SOL     OW 1705   0.365   1.610   1.888  0.2994  0.3016  0.2315
  427SOL    HW1 1706   0.424   1.544   1.919 -1.5495 -1.2785 -3.6758
  427SOL    HW2 1707   0.278   1.569   1.895  0.0988  0.9792  1.3245
  427SOL     MW 1708   0.362   1.596   1.893  0.0290  0.1825 -0.1398
  428SOL     OW 1709   0.579   2.547   1.192  0.3652 -0.9830  0.0601
  428SOL    HW1 1710   0.675   2.539   1.213  0.9652  4.5218 -0.2595
  428SOL    HW2 1711   0.535   2.462   1.165  0.1228 -0.0457  0.7349
  428SOL     MW 1712   0.586   2.535   1.192  0.4124 -0.1330  0.1070
  429SOL     OW 1713   1.331   2.710   1.098  0.1281  0.6057  0.4976
  429SOL    HW1 1714   1.274   2.636   1.096 -0.7370  0.9623  2.1338
  429SOL    HW2 1715   1.276   2.774   1.054  0.4816 -0.7665 -0.4969
  429SOL     MW 1716   1.316   2.708   1.092  0.0606  0.4717  0.5823
  430SOL     OW 1717   1.171   2.707   0.712 -0.3450 -0.2883  0.1256
  430SOL    HW1 1718   1.183   2.613   0.723 -0.8709 -0.6588  0.8085
  430SOL    HW2 1719   1.130   2.706   0.626  1.1462 -0.2727  2.4189
  430SOL     MW 1720   1.167   2.695   0.702 -0.2176 -0.3351  0.5183
  431SOL     OW 1721   0.293   1.908   1.085  0.3420  0.4316 -0.4971
  431SOL    HW1 1722   0.366   1.857   1.050 -0.3607  1.5428 -1.2443
  431SOL    HW2 1723   0.252   1.962   1.008 -1.1364  1.5809 -0.3492
  431SOL     MW 1724   0.297   1.908   1.070  0.0542  0.7299 -0.5761
  432SOL     OW 1725   0.059   3.092   1.101 -0.0513 -0.4922  0.6562
  432SOL    HW1 1726   0.075   3.155   1.173 -1.2955  0.2795  0.5531
  432SOL    HW2 1727  -0.024   3.044   1.121 -1.7018  2.2482  1.1107
  432SOL     MW 1728   0.051   3.094   1.113 -0.4333 -0.0288  0.7026
  433SOL     OW 1729   0.632   2.834   1.497 -0.3072  0.2519  0.5520
  433SOL    HW1 1730   0.629   2.847   1.597 -1.2272  0.7977  2.5377
  433SOL    HW2 1731   0.725   2.845   1.465  0.1791 -0.5091  3.3549
  433SOL     MW 1732   0.644   2.838   1.506 -0.3644  0.2235  1.1838
  434SOL     OW 1733   1.588   2.816   1.492  0.6897  0.1668  0.0800
  434SOL    HW1 1734   1.495   2.844   1.504  0.5488 -0.8478  0.0747
  434SOL    HW2 1735   1.579   2.797   1.398 -0.0322 -3.0551 -2.4325
  434SOL     MW 1736   1.574   2.817   1.481  0.5759 -0.3922 -0.2522
  435SOL     OW 1737   2.794   1.818   0.218 -0.1001 -0.2384  0.0901
  435SOL    HW1 1738   2.809   1.913   0.201 -0.2759  2.6170 -1.3193
  435SOL    HW2 1739   2.768   1.779   0.138 -0.4388  0.0216  0.9650
  435SOL     MW 1740   2.793   1.825   0.205 -0.1680  0.1727  0.0196
  436SOL     OW 1741   1.310   2.808   0.337  0.2196 -0.1970  0.3311
  436SOL    HW1 1742   1.375   2.776   0.400  0.2162 -2.0103  0.9790
  436SOL    HW2 1743   1.265   2.883   0.385  0.7021 -2.3076 -0.9707
  436SOL     MW 1744   1.312   2.814   0.352  0.2828 -0.7147  0.2448
  437SOL     OW 1745   0.888   2.870   1.414  0.3378 -0.1670  0.1233
  437SOL    HW1 1746   0.899   2.954   1.369 -0.4818  0.6689  1.0874
  437SOL    HW2 1747   0.928   2.804   1.357 -0.2305  0.0782 -0.7545
  437SOL     MW 1748   0.895   2.872   1.401  0.1547 -0.0244  0.1347
  438SOL     OW 1749   0.861   2.654   1.900 -0.3063  0.3540 -0.3885
  438SOL    HW1 1750   0.837   2.635   1.987  2.9736 -2.4902 -3.9131
  438SOL    HW2 1751   0.803   2.601   1.847  0.6874 -2.4286  1.8934
  438SOL     MW 1752   0.850   2.645   1.905  0.2576 -0.3884 -0.5525
  439SOL     OW 1753   1.122   2.144   0.411  0.9997 -0.1716  0.3781
  439SOL    HW1 1754   1.050   2.182   0.468  0.0086  0.1159  2.1308
  439SOL    HW2 1755   1.149   2.226   0.371 -0.9073 -1.6666  0.9637
  439SOL     MW 1756   1.116   2.160   0.413  0.6173 -0.3309  0.6866
  440SOL     OW 1757   1.702   2.994  -0.004  0.3652 -0.2735  0.5998
  440SOL    HW1 1758   1.647   2.978   0.065  2.6567  0.7124  0.8936
  440SOL    HW2 1759   1.775   2.929   0.022  2.4148 -0.7917  0.5485
  440SOL     MW 1760   1.705   2.983   0.008  0.9380 -0.2118  0.6318
  441SOL     OW 1761   0.345   2.660   0.493 -0.6499  0.3309  0.2594
  441SOL    HW1 1762   0.337   2.627   0.408  2.6374 -0.6091 -0.4083
  441SOL    HW2 1763   0.356   2.761   0.488 -1.5185  1.1543 -0.6447
  441SOL     MW 1764   0.345   2.669   0.481 -0.3308  0.3155  0.0520
  442SOL     OW 1765   3.061   2.364   0.627 -0.2188  0.0886 -0.6306
  442SOL    HW1 1766   3.091   2.465   0.613 -0.1661  3.1820 -1.2716
  442SOL    HW2 1767   2.971   2.370   0.659  1.7953 -0.0396  0.0539
  442SOL     MW 1768   3.053   2.378   0.629  0.0539  0.4798 -0.6249
  443SOL     OW 1769   1.416   1.800   1.920 -0.2025  0.0390 -0.7635
  443SOL    HW1 1770   1.395   1.848   1.838 -0.8399  2.0386 -1.7433
  443SOL    HW2 1771   1.357   1.723   1.921  1.9505  1.6705  1.2736
  443SOL     MW 1772   1.406   1.796   1.909 -0.0025  0.5181 -0.6240
  444SOL     OW 1773   0.892   2.563   1.597 -0.0990 -0.1211  0.4201
  444SOL    HW1 1774   0.943   2.495   1.638 -0.3517 -0.6536 -1.2889
  444SOL    HW2 1775   0.808   2.559   1.636 -1.2685 -0.8964 -0.0159
  444SOL     MW 1776   0.887   2.554   1.608 -0.2866 -0.2937  0.1371
  445SOL     OW 1777   0.904   0.017   1.291 -0.0282  0.4026  0.4262
  445SOL    HW1 1778   0.854   0.096   1.280 -1.5165 -0.2692  2.9899
  445SOL    HW2 1779   0.997   0.025   1.257  1.7694  2.0981 -1.4755
  445SOL     MW 1780   0.910   0.028   1.285  0.0126  0.5377  0.5135
  446SOL     OW 1781   2.701   2.851   1.074  0.5560  0.5152 -0.4879
  446SOL    HW1 1782   2.656   2.886   0.995 -0.0643 -0.9810  1.4762
  446SOL    HW2 1783   2.739   2.765   1.044 -1.3052 -0.3695  0.2427
  446SOL     MW 1784   2.700   2.845   1.059  0.2286  0.2011 -0.1324
  447SOL     OW 1785   0.013   2.052   1.695  0.5335  0.1792  0.2452
  447SOL    HW1 1786   0.070   1.998   1.746  2.1881 -1.1216 -0.9315
  447SOL    HW2 1787  -0.055   1.993   1.656 -0.9597  0.7907 -0.5368
  447SOL     MW 1788   0.011   2.037   1.697  0.5548  0.0883 -0.0132
  448SOL     OW 1789   1.730   2.381   1.684 -0.2312 -0.6843 -0.0615
  448SOL    HW1 1790   1.658   2.324   1.678 -0.5272 -0.8672 -0.8388
  448SOL    HW2 1791   1.682   2.463   1.683 -0.1891  0.5126  0.1566
  448SOL     MW 1792   1.714   2.385   1.683 -0.2647 -0.5505 -0.1353
  449SOL     OW 1793   0.762   2.840   0.395  0.1642  0.0607 -0.0745
  449SOL    HW1 1794   0.727   2.834   0.306  0.4675 -1.9752  0.3040
  449SOL    HW2 1795   0.696   2.875   0.455  0.1505 -1.1852  0.3355
  449SOL     MW 1796   0.749   2.844   0.391  0.2024 -0.3723  0.0295
  450SOL     OW 1797   1.192   2.428   0.663 -0.2326 -0.0049 -0.2091
  450SOL    HW1 1798   1.220   2.365   0.729 -1.6005  2.9882  1.3261
  450SOL    HW2 1799   1.268   2.415   0.609  0.8867 -0.6594 -1.5269
  450SOL     MW 1800   1.206   2.418   0.664 -0.2654  0.3036 -0.1804
  451SOL     OW 1801   0.529   2.001   1.631 -0.3088  0.2363 -0.2202
  451SOL    HW1 1802   0.595   2.067   1.652 -1.0722 -2.2293 -3.5463
  451SOL    HW2 1803   0.542   1.979   1.536 -0.5604  0.0403 -1.2420
  451SOL     MW 1804   0.539   2.007   1.621 -0.4427 -0.1149 -0.7939
  452SOL     OW 1805   0.261   2.723   0.015 -0.3512 -0.2793 -0.1257
  452SOL    HW1 1806   0.345   2.734  -0.025  0.1333 -0.7980  1.1243
  452SOL    HW2 1807   0.203   2.784  -0.042 -0.5673  0.2554 -0.5955
  452SOL     MW 1808   0.264   2.732   0.002 -0.3158 -0.2772 -0.0227
  453SOL     OW 1809   0.356   2.928   1.692  0.0858 -0.5799  0.4089
  453SOL    HW1 1810   0.443   2.960   1.709  0.0597 -0.7968 -0.0331
  453SOL    HW2 1811   0.352   2.957   1.597 -1.8451 -4.1786 -1.4394
  453SOL     MW 1812   0.367   2.936   1.682 -0.1724 -1.0833  0.1067
  454SOL     OW 1813   0.977   2.751   1.170  0.4493  0.4656  0.3002
  454SOL    HW1 1814   0.922   2.682   1.209  2.3087  0.0570 -0.6177
  454SOL    HW2 1815   0.917   2.807   1.115 -1.3524 -0.5796 -1.9530
  454SOL     MW 1816   0.962   2.749   1.168  0.4569  0.2737 -0.1182
  455SOL     OW 1817   1.571   2.915   0.214  0.3687 -0.0318  0.1327
  455SOL    HW1 1818   1.635   2.888   0.284  2.6780  0.9190 -0.5603
  455SOL    HW2 1819   1.514   2.839   0.196 -0.0924 -0.7286  0.0015
  455SOL     MW 1820   1.572   2.902   0.221  0.6126  0.0017  0.0239
  456SOL     OW 1821   2.860   0.318   1.362 -0.6428  0.2044 -0.2329
  456SOL    HW1 1822   2.825   0.249   1.300 -0.2447 -0.2245  3.6023
  456SOL    HW2 1823   2.944   0.336   1.320 -0.6065 -0.4199 -2.3462
  456SOL     MW 1824   2.866   0.311   1.348 -0.5855  0.0654 -0.0057
  457SOL     OW 1825   0.973   1.524   2.927 -0.3954  0.3983 -0.2657
  457SOL    HW1 1826   0.896   1.536   2.980 -1.8894  1.2537 -0.7491
  457SOL    HW2 1827   1.029   1.455   2.970  1.7269 -1.3194 -1.8739
  457SOL     MW 1828   0.970   1.517   2.940 -0.3125  0.2845 -0.5417
  458SOL     OW 1829   1.454   1.382   0.549 -0.0586  0.0762 -0.0378
  458SOL    HW1 1830   1.382   1.409   0.609 -1.6533 -0.1012 -0.1342
  458SOL    HW2 1831   1.412   1.332   0.480 -0.1272 -1.8767  1.2692
  458SOL     MW 1832   1.439   1.379   0.548 -0.2781 -0.2049  0.1219
  459SOL     OW 1833   1.484   0.083   0.220  0.1117 -0.4056  0.3364
  459SOL    HW1 1834   1.487  -0.014   0.209  0.7611  0.9172 -0.7616
  459SOL    HW2 1835   1.414   0.123   0.168 -0.5752 -1.8247 -2.2874
  459SOL     MW 1836   1.475   0.075   0.212  0.1068 -0.4183 -0.1546
  460SOL     OW 1837   1.804   2.170   0.622  0.1956  0.7034 -0.5978
  460SOL    HW1 1838   1.720   2.153   0.668 -0.2297  2.1431 -0.6644
  460SOL    HW2 1839   1.852   2.085   0.619  1.4574  0.7809 -2.1825
  460SOL     MW 1840   1.799   2.157   0.627  0.3060  0.9036 -0.8157
  461SOL     OW 1841   0.439   2.421   0.607 -0.5966 -0.6309 -0.2655
  461SOL    HW1 1842   0.392   2.495   0.569 -1.9291 -1.7725 -0.7462
  461SOL    HW2 1843   0.419   2.429   0.703  1.5746 -1.6205 -0.3843
  461SOL     MW 1844   0.430   2.431   0.615 -0.4859 -0.9121 -0.3446
  462SOL     OW 1845   0.391   0.268   1.289  0.1947 -0.1950  0.5637
  462SOL    HW1 1846   0.445   0.209   1.243 -0.3485  2.7999  1.6918
  462SOL    HW2 1847   0.455   0.297   1.357  2.0085  2.6869  1.5785
  462SOL     MW 1848   0.406   0.264   1.292  0.3624  0.5804  0.8464
  463SOL     OW 1849   0.887   0.022   0.678  0.4375  0.6908 -0.7055
  463SOL    HW1 1850   0.892   0.008   0.580 -1.1921 -0.0961 -2.0378
  463SOL    HW2 1851   0.791   0.026   0.697  0.5901 -1.3747 -1.7772
  463SOL     MW 1852   0.875   0.021   0.667  0.2426  0.3145 -1.0227
  464SOL     OW 1853   0.838   3.051   2.266  0.6541  0.2061 -0.1140
  464SOL    HW1 1854   0.820   2.961   2.295 -1.2007  0.9348  0.4546
  464SOL    HW2 1855   0.867   3.088   2.348  0.7639 -0.6264  2.7388
  464SOL     MW 1856   0.840   3.044   2.281  0.4239  0.1924  0.3374
  465SOL     OW 1857   0.669   0.296   0.490  0.4620 -0.1809 -0.0654
  465SOL    HW1 1858   0.664   0.247   0.575  0.3870  2.4355  1.4977
  465SOL    HW2 1859   0.718   0.235   0.437 -0.4831  0.7132  0.5056
  465SOL     MW 1860   0.675   0.281   0.494  0.3274  0.2822  0.2162
  466SOL     OW 1861   1.079   1.995   0.698 -0.1458 -0.3844 -0.1571
  466SOL    HW1 1862   1.065   1.922   0.639 -1.2265 -1.4824 -1.0084
  466SOL    HW2 1863   1.062   2.077   0.653 -1.1311 -2.9942  0.2751
  466SOL     MW 1864   1.075   1.996   0.684 -0.4184 -0.8736 -0.2124
  467SOL     OW 1865   1.284   2.288   0.880  0.3650  0.4426  0.5362
  467SOL    HW1 1866   1.366   2.312   0.917 -1.5175  0.4354  1.8825
  467SOL    HW2 1867   1.298   2.196   0.858 -0.8177  0.7470 -1.2561
  467SOL     MW 1868   1.297   2.279   0.882 -0.0394  0.4818  0.4773
  468SOL     OW 1869   0.367   2.598   1.959  0.0561  0.0428  0.1206
  468SOL    HW1 1870   0.366   2.537   1.881  1.8037 -0.2096 -0.7144
  468SOL    HW2 1871   0.338   2.688   1.942  0.7966 -0.1472 -2.6559
  468SOL     MW 1872   0.363   2.602   1.946  0.3844 -0.0156 -0.3559
  469SOL     OW 1873   0.364   2.146   1.802  0.2969  0.2599 -0.0085
  469SOL    HW1 1874   0.284   2.104   1.842 -2.4529  0.0082  1.1156
  469SOL    HW2 1875   0.400   2.077   1.744  1.0019 -0.1657  0.4457
  469SOL     MW 1876   0.358   2.131   1.800  0.0271  0.1706  0.1997
  470SOL     OW 1877   3.025   2.530   0.105 -0.1021  0.2130  0.3379
  470SOL    HW1 1878   2.944   2.481   0.131 -1.6215  0.0449 -1.2467
  470SOL    HW2 1879   3.006   2.564   0.016  1.9545 -1.7458 -0.4916
  470SOL     MW 1880   3.012   2.528   0.096 -0.0312 -0.0676  0.0194
  471SOL     OW 1881   1.182   2.739   1.415 -0.4771  0.0196  0.2551
  471SOL    HW1 1882   1.118   2.750   1.488 -1.8134 -0.4976 -0.3813
  471SOL    HW2 1883   1.160   2.795   1.340 -0.4245  3.3016  0.2735
  471SOL     MW 1884   1.171   2.748   1.415 -0.6465  0.3844  0.1735
  472SOL     OW 1885   2.943   2.083   0.407  0.1211  0.6052  0.6306
  472SOL    HW1 1886   2.938   2.067   0.308 -1.0503 -1.6601  0.5126
  472SOL    HW2 1887   2.934   1.993   0.443 -0.7814 -1.0094 -0.1635
  472SOL     MW 1888   2.941   2.069   0.398 -0.1525  0.0933  0.5103
  473SOL     OW 1889   0.829   2.515   1.302 -0.1951 -0.1445 -0.5517
  473SOL    HW1 1890   0.900   2.447   1.295 -2.8475  1.0111  1.0999
  473SOL    HW2 1891   0.818   2.539   1.396  1.1360  1.7833  1.3687
  473SOL     MW 1892   0.837   2.509   1.314 -0.3695  0.2623 -0.0804
  474SOL     OW 1893   0.766   2.191   1.738  0.4780 -0.8471 -0.0714
  474SOL    HW1 1894   0.842   2.230   1.789  1.0674  1.7035  2.2850
  474SOL    HW2 1895   0.816   2.180   1.656 -1.4850 -0.4179  2.2119
  474SOL     MW 1896   0.783   2.195   1.734  0.2967 -0.4539  0.5407
  475SOL     OW 1897   1.614   0.014   1.443 -0.2899 -0.4711  0.2872
  475SOL    HW1 1898   1.537   0.041   1.393  1.6870 -3.5116 -0.9313
  475SOL    HW2 1899   1.616  -0.079   1.445 -0.6660  2.1440  0.9652
  475SOL     MW 1900   1.604   0.005   1.436 -0.0787 -0.5273  0.2159
  476SOL     OW 1901   1.485   2.600   0.881 -0.3695  0.1280  0.0004
  476SOL    HW1 1902   1.444   2.640   0.952  2.7448 -0.5390  0.1857
  476SOL    HW2 1903   1.497   2.677   0.821  1.8037  0.5865 -3.0587
  476SOL     MW 1904   1.481   2.615   0.882  0.3282  0.1005 -0.3787
  477SOL     OW 1905   0.767   2.559   0.639 -0.4546 -0.4387  0.1307
  477SOL    HW1 1906   0.828   2.605   0.576 -2.2149 -1.2791 -0.0078
  477SOL    HW2 1907   0.736   2.491   0.582  1.2683  0.2779 -2.0807
  477SOL     MW 1908   0.771   2.556   0.623 -0.4595 -0.4550 -0.1793
  478SOL     OW 1909   0.102   2.697   0.904 -0.5954  0.0217  0.2841
  478SOL    HW1 1910   0.142   2.777   0.883 -2.5474 -0.7057 -0.5528
  478SOL    HW2 1911   0.167   2.625   0.871 -0.5638 -4.3235 -1.4693
  478SOL     MW 1912   0.116   2.698   0.897 -0.8488 -0.6476 -0.0577
  479SOL     OW 1913   1.413   1.924   1.280 -0.3457  0.3631  0.4886
  479SOL    HW1 1914   1.372   1.972   1.351  1.9918 -0.0916 -1.1562
  479SOL    HW2 1915   1.487   1.889   1.320 -1.4203  0.7377  0.0160
  479SOL     MW 1916   1.417   1.926   1.295 -0.1791  0.3525  0.2092
  480SOL     OW 1917   1.888   2.357   1.372  0.1054 -0.6178 -0.3143
  480SOL    HW1 1918   1.895   2.300   1.450  0.8414  0.0348  0.8163
  480SOL    HW2 1919   1.969   2.355   1.321  2.8680 -0.3756 -0.9774
  480SOL     MW 1920   1.899   2.349   1.376  0.5670 -0.4998 -0.2526
  481SOL     OW 1921   1.216   0.019   1.149  0.0267 -0.3631 -0.0910
  481SOL    HW1 1922   1.256  -0.043   1.088 -0.7689 -1.6156  1.9664
  481SOL    HW2 1923   1.228   0.113   1.119  1.5413  0.7846  0.8155
  481SOL     MW 1924   1.223   0.023   1.137  0.1216 -0.3769  0.3001
  482SOL     OW 1925   0.935   3.059   0.412 -0.2363 -0.1278 -0.0477
  482SOL    HW1 1926   0.858   2.998   0.414 -1.4717 -1.7033 -0.6523
  482SOL    HW2 1927   0.905   3.143   0.376  0.0494  0.7784  0.0444
  482SOL     MW 1928   0.921   3.062   0.408 -0.3616 -0.2161 -0.1153
  483SOL     OW 1929   0.361   2.934   0.490  0.4285 -0.0662 -0.5900
  483SOL    HW1 1930   0.275   2.921   0.448  3.9048  0.2802 -1.5817
  483SOL    HW2 1931   0.354   2.986   0.573  0.5446 -0.4034  0.9580
  483SOL     MW 1932   0.348   2.939   0.496  0.9025 -0.0650 -0.5166
  484SOL     OW 1933   1.661   1.833   1.373  0.1122 -0.5655  0.1096
  484SOL    HW1 1934   1.724   1.886   1.322  2.1821  0.9206  2.3638
  484SOL    HW2 1935   1.668   1.866   1.461  0.3366 -0.1192  0.4400
  484SOL     MW 1936   1.671   1.844   1.378  0.4149 -0.3105  0.4506
  485SOL     OW 1937   0.533   2.402   0.286  0.0157  0.4398  0.4878
  485SOL    HW1 1938   0.596   2.407   0.357 -3.0747  3.9665 -2.4946
  485SOL    HW2 1939   0.455   2.450   0.307 -0.5238 -1.8401  2.6914
  485SOL     MW 1940   0.531   2.409   0.298 -0.4632  0.6043  0.3851
  486SOL     OW 1941   0.137   2.423   1.385 -0.1617 -0.2875 -0.3175
  486SOL    HW1 1942   0.160   2.504   1.342  1.1139 -0.8973  1.9459
  486SOL    HW2 1943   0.151   2.465   1.472 -1.1539 -0.2383  0.9633
  486SOL     MW 1944   0.142   2.439   1.391 -0.1243 -0.3615  0.1502
  487SOL     OW 1945   1.277   1.583   1.078  0.1264 -0.3846 -0.4022
  487SOL    HW1 1946   1.254   1.678   1.064  1.9505  2.9848  0.8029
  487SOL    HW2 1947   1.358   1.570   1.033 -3.9200 -0.8051  0.2492
  487SOL     MW 1948   1.285   1.594   1.070 -0.1668  0.0045 -0.1572
  488SOL     OW 1949   1.651   1.858   0.541  0.1728  0.1818 -0.1897
  488SOL    HW1 1950   1.738   1.898   0.522  2.1737  0.5945  2.0869
  488SOL    HW2 1951   1.588   1.930   0.536  0.2534 -1.2076 -1.2144
  488SOL     MW 1952   1.654   1.873   0.538  0.4474  0.0529 -0.0245
  489SOL     OW 1953   0.703   0.780   0.588 -0.2757 -0.5322  0.4583
  489SOL    HW1 1954   0.763   0.710   0.566 -2.2518 -0.0572  1.4994
  489SOL    HW2 1955   0.717   0.785   0.685 -1.5463  3.6522  0.1261
  489SOL     MW 1956   0.713   0.771   0.598 -0.7041  0.0826  0.5519
  490SOL     OW 1957   1.383   2.098   0.455 -0.0811 -0.1649 -0.4093
  490SOL    HW1 1958   1.410   2.170   0.405 -0.2185  0.3454  1.9099
  490SOL    HW2 1959   1.284   2.092   0.451 -1.2120  2.2065  0.4504
  490SOL     MW 1960   1.373   2.107   0.448 -0.2484  0.2153  0.0101
  491SOL     OW 1961   1.196   3.005   0.470  0.1342 -0.0421  0.1705
  491SOL    HW1 1962   1.203   3.095   0.504 -1.3750 -1.6694  1.1383
  491SOL    HW2 1963   1.098   3.004   0.451  1.4796  0.1324 -1.8499
  491SOL     MW 1964   1.184   3.016   0.472  0.1126 -0.2338  0.0316
  492SOL     OW 1965   1.524   2.134   0.704 -0.1018 -0.8844 -0.2884
  492SOL    HW1 1966   1.496   2.126   0.614 -2.7414 -0.6750 -0.9854
  492SOL    HW2 1967   1.451   2.101   0.756 -1.1923 -0.4175 -2.7856
  492SOL     MW 1968   1.511   2.129   0.699 -0.5940 -0.7952 -0.7098
  493SOL     OW 1969   0.115   2.910   0.363 -0.0283  0.2287 -0.6355
  493SOL    HW1 1970   0.082   2.968   0.432  3.4184 -0.2834  0.8608
  493SOL    HW2 1971   0.125   2.955   0.282 -0.7519  0.1231  1.8792
  493SOL     MW 1972   0.112   2.923   0.362  0.3310  0.1472 -0.1063
  494SOL     OW 1973   0.404   2.419   1.736 -0.5297  0.6861  0.1299
  494SOL    HW1 1974   0.415   2.323   1.764 -0.9244 -1.1925  0.6126
  494SOL    HW2 1975   0.435   2.415   1.646  0.0816 -1.6614 -0.9493
  494SOL     MW 1976   0.409   2.406   1.728 -0.5012  0.1285  0.0512
  495SOL     OW 1977   2.893   1.686   2.714  0.6813  0.0706 -0.1113
  495SOL    HW1 1978   2.893   1.778   2.754 -0.5772  1.5936 -1.2736
  495SOL    HW2 1979   2.897   1.621   2.790 -1.6214 -1.1570  1.3238
  495SOL     MW 1980   2.893   1.690   2.730  0.2115  0.1096 -0.0753
  496SOL     OW 1981   2.879   2.290   2.637 -0.2486  0.1350  0.2481
  496SOL    HW1 1982   2.929   2.222   2.683  2.7163  2.3191  0.9609
  496SOL    HW2 1983   2.955   2.348   2.634  0.8119 -2.7431 -1.7323
  496SOL     MW 1984   2.895   2.289   2.643  0.2825  0.0435  0.0808
  497SOL     OW 1985   1.548   2.275   2.578  0.4653 -0.0008 -0.1681
  497SOL    HW1 1986   1.537   2.229   2.493 -0.7372 -0.0915  0.1430
  497SOL    HW2 1987   1.495   2.229   2.638 -0.6840  3.4248 -0.4803
  497SOL     MW 1988   1.540   2.263   2.575  0.1550  0.4393 -0.1682
  498SOL     OW 1989   1.553   2.702   2.304 -0.0272  0.8143  0.3946
  498SOL    HW1 1990   1.539   2.608   2.281  1.2818 -3.3138  2.0395
  498SOL    HW2 1991   1.616   2.685   2.375  1.1280 -3.6271  2.4878
  498SOL     MW 1992   1.560   2.687   2.310  0.2979 -0.3164  0.8878
  499SOL     OW 1993   0.893   0.164   0.029  0.2906 -0.2007 -0.0173
  499SOL    HW1 1994   0.827   0.177   0.099  0.3929  2.1140  1.4242
  499SOL    HW2 1995   0.898   0.062   0.018 -2.2646  0.5360  1.8818
  499SOL     MW 1996   0.885   0.152   0.037 -0.0331  0.2019  0.4235
  500SOL     OW 1997   1.021   2.436   2.797  0.4545 -0.0262 -0.2757
  500SOL    HW1 1998   1.076   2.420   2.876  0.5213  0.1256 -0.0710
  500SOL    HW2 1999   1.015   2.534   2.785 -1.2314 -0.3359 -1.3894
  500SOL     MW 2000   1.027   2.447   2.806  0.2409 -0.0470 -0.3957
  501SOL     OW 2001   1.755   2.276   3.080  0.0340  0.5590  0.4047
  501SOL    HW1 2002   1.714   2.358   3.107 -1.0872 -1.4868 -1.8539
  501SOL    HW2 2003   1.846   2.270   3.112 -1.4653  0.4017 -0.0739
  501SOL     MW 2004   1.762   2.286   3.088 -0.3117  0.2683  0.0435
  502SOL     OW 2005   0.072   2.881   2.985 -0.9997 -0.2029  0.9332
  502SOL    HW1 2006   0.024   2.810   2.938 -0.9794  1.3664 -0.0114
  502SOL    HW2 2007   0.095   2.944   2.920 -0.5633 -1.0509  1.9274
  502SOL     MW 2008   0.069   2.880   2.970 -0.9395 -0.1077  0.9398
  503SOL     OW 2009   1.174   2.605   2.014  0.3510 -0.0333 -0.7120
  503SOL    HW1 2010   1.256   2.598   1.961 -0.6256  1.5946  0.4852
  503SOL    HW2 2011   1.115   2.561   1.953 -1.8351  0.8795 -0.6070
  503SOL     MW 2012   1.177   2.598   1.999 -0.0663  0.3019 -0.5402
  504SOL     OW 2013   0.103   2.621   2.064  0.1776 -0.3509  0.1240
  504SOL    HW1 2014   0.177   2.562   2.064 -0.5512 -3.5534 -0.8553
  504SOL    HW2 2015   0.031   2.571   2.095 -0.1461 -1.3337  0.0073
  504SOL     MW 2016   0.103   2.606   2.068  0.0387 -0.9031 -0.0206
  505SOL     OW 2017   1.654   2.679   2.744 -0.0025 -0.2864  0.2520
  505SOL    HW1 2018   1.681   2.664   2.654  0.6311 -1.6664  1.3387
  505SOL    HW2 2019   1.599   2.759   2.744  0.1711  0.4494 -1.3553
  505SOL     MW 2020   1.650   2.687   2.732  0.1040 -0.3714  0.1833
  506SOL     OW 2021   1.626   0.023   2.866 -0.0865 -0.2107  0.4071
  506SOL    HW1 2022   1.648  -0.031   2.945 -1.8082 -1.2502 -1.8316
  506SOL    HW2 2023   1.658  -0.027   2.783 -0.2293 -1.6013 -1.2794
  506SOL     MW 2024   1.633   0.009   2.865 -0.3325 -0.5313 -0.1108
  507SOL     OW 2025   0.944   2.683   2.845  0.2992  0.3774 -0.2502
  507SOL    HW1 2026   0.979   2.721   2.765 -1.6130  1.2520  1.7402
  507SOL    HW2 2027   0.868   2.630   2.819  1.1857 -0.0761 -0.3060
  507SOL     MW 2028   0.939   2.681   2.831  0.1639  0.4330  0.0050
  508SOL     OW 2029   1.242   2.111   2.522  0.0816  0.2308 -0.1546
  508SOL    HW1 2030   1.269   2.091   2.616 -1.0278  0.5843  1.4428
  508SOL    HW2 2031   1.167   2.170   2.533  2.5780 -2.4313 -0.9890
  508SOL     MW 2032   1.236   2.116   2.536  0.2646 -0.0738 -0.0539
  509SOL     OW 2033   0.682   2.601   2.801  0.1177  0.1563  0.2162
  509SOL    HW1 2034   0.646   2.565   2.724  0.2520  2.0385 -1.0580
  509SOL    HW2 2035   0.646   2.691   2.804 -5.1000  0.6847 -3.8468
  509SOL     MW 2036   0.673   2.608   2.791 -0.5530  0.4744 -0.4880
  510SOL     OW 2037   1.581   2.597   1.643 -0.6089  0.1537  0.0507
  510SOL    HW1 2038   1.614   2.679   1.593 -0.6284  3.8530  0.0568
  510SOL    HW2 2039   1.528   2.634   1.719  0.8344 -2.5581 -2.5215
  510SOL     MW 2040   1.578   2.613   1.647 -0.4210  0.2840 -0.2879
  511SOL     OW 2041   0.428   2.608   2.466 -0.0422  0.1309 -0.0880
  511SOL    HW1 2042   0.496   2.542   2.474  2.4191 -2.5719  1.8832
  511SOL    HW2 2043   0.427   2.648   2.375 -2.3809 -1.0427  0.9473
  511SOL     MW 2044   0.437   2.605   2.455 -0.0260 -0.3805  0.3087
  512SOL     OW 2045   0.977   2.034   2.835 -0.2086  0.3434 -0.2401
  512SOL    HW1 2046   0.915   2.089   2.887  1.7906 -1.5041  0.9280
  512SOL    HW2 2047   0.995   1.955   2.884  1.9870  1.9397 -1.0646
  512SOL     MW 2048   0.971   2.031   2.848  0.3448  0.3103 -0.1948
  513SOL     OW 2049   1.630   2.443   2.204  0.0677  0.0703 -0.2783
  513SOL    HW1 2050   1.703   2.488   2.162 -0.4026 -0.8517 -0.2443
  513SOL    HW2 2051   1.648   2.397   2.287  2.1350 -0.6745  1.3951
  513SOL     MW 2052   1.642   2.443   2.209  0.2784 -0.1496 -0.0531
  514SOL     OW 2053   0.255   2.465   2.631 -0.2783  0.4704  0.0078
  514SOL    HW1 2054   0.314   2.523   2.592 -1.1390  0.6141  1.0016
  514SOL    HW2 2055   0.293   2.442   2.714 -2.8902  1.0015 -2.2030
  514SOL     MW 2056   0.268   2.469   2.637 -0.7365  0.5595 -0.1528
  515SOL     OW 2057   1.094   2.029   1.973  0.3996 -0.8679  0.2341
  515SOL    HW1 2058   1.097   2.108   1.921  0.8905 -1.1054 -1.0619
  515SOL    HW2 2059   1.176   2.022   2.013 -0.1309 -0.6147  1.5860
  515SOL     MW 2060   1.105   2.038   1.971  0.3944 -0.8659  0.2415
  516SOL     OW 2061   1.457   2.444   3.040 -0.0155  0.0537  0.7671
  516SOL    HW1 2062   1.477   2.437   2.945 -0.3549 -1.9872 -0.6422
  516SOL    HW2 2063   1.361   2.440   3.046 -0.8974 -0.8410  3.1105
  516SOL     MW 2064   1.447   2.443   3.028 -0.1767 -0.3336  0.8903
  517SOL     OW 2065   0.558   2.416   2.261 -0.4495  0.0036 -0.6500
  517SOL    HW1 2066   0.482   2.464   2.291  1.9795 -0.2938  0.1473
  517SOL    HW2 2067   0.539   2.335   2.207  1.9759 -1.9488  0.2199
  517SOL     MW 2068   0.545   2.412   2.258  0.1910 -0.2932 -0.4300
  518SOL     OW 2069   1.859   0.112   0.027 -0.6329  0.5406 -0.2896
  518SOL    HW1 2070   1.820   0.153   0.105 -0.5112  1.3983 -0.5976
  518SOL    HW2 2071   1.809   0.031   0.012  0.5639 -0.8043  1.6015
  518SOL     MW 2072   1.847   0.106   0.035 -0.4590  0.4764 -0.0808
  519SOL     OW 2073   0.675   2.498   1.774  0.1589 -0.2633  0.2104
  519SOL    HW1 2074   0.699   2.406   1.749  0.7112 -1.6606  1.9340
  519SOL    HW2 2075   0.590   2.483   1.817 -1.6085 -0.9056  0.6401
  519SOL     MW 2076   0.667   2.484   1.776 -0.0015 -0.5324  0.4945
  520SOL     OW 2077   1.188   2.179   2.956 -0.4731 -0.6619  0.4112
  520SOL    HW1 2078   1.116   2.143   2.902  0.5544 -1.2102 -0.8529
  520SOL    HW2 2079   1.192   2.122   3.034 -0.7324  0.7606  0.7536
  520SOL     MW 2080   1.179   2.167   2.959 -0.3717 -0.5465  0.2896
  521SOL     OW 2081   1.748   2.004   2.191  0.1651 -0.6347 -0.5399
  521SOL    HW1 2082   1.802   2.007   2.118 -1.1445  0.1377  0.6737
  521SOL    HW2 2083   1.726   1.911   2.207 -2.0411 -0.8334  2.4781
  521SOL     MW 2084   1.752   1.992   2.183 -0.2988 -0.5590  0.0184
  522SOL     OW 2085   2.934   2.515   2.265  0.4457  0.0589 -0.2421
  522SOL    HW1 2086   3.010   2.466   2.298  2.0412 -1.0294 -0.6588
  522SOL    HW2 2087   2.972   2.601   2.272  1.4713 -3.9476  2.2365
  522SOL     MW 2088   2.949   2.520   2.270  0.7915 -0.6133  0.0300
  523SOL     OW 2089   0.902   1.496   2.118  0.3095  0.4059 -0.2456
  523SOL    HW1 2090   0.899   1.556   2.046 -1.8531  0.1294  2.0643
  523SOL    HW2 2091   0.925   1.417   2.073 -0.0932  1.5656  0.3548
  523SOL     MW 2092   0.905   1.493   2.103 -0.0290  0.5224  0.1384
  524SOL     OW 2093   0.592   2.387   2.972 -0.0028  0.2762  0.7965
  524SOL    HW1 2094   0.617   2.458   2.915 -0.6767 -0.9745  0.4625
  524SOL    HW2 2095   0.657   2.316   2.967  1.0345 -1.8035 -0.5723
  524SOL     MW 2096   0.604   2.387   2.964  0.0452 -0.1632  0.5718
  525SOL     OW 2097   0.445   2.234   2.083  0.1586  0.2841  0.3004
  525SOL    HW1 2098   0.391   2.168   2.135  0.2125  0.9753 -1.7754
  525SOL    HW2 2099   0.508   2.191   2.035 -3.9728  1.3409  1.0255
  525SOL     MW 2100   0.446   2.220   2.084 -0.3794  0.5148  0.1222
  526SOL     OW 2101   0.682   2.113   1.995  0.2857 -0.5705  0.0506
  526SOL    HW1 2102   0.729   2.128   1.905 -0.1497  0.0144  0.8658
  526SOL    HW2 2103   0.723   2.164   2.064 -2.1160  0.2227  3.6748
  526SOL     MW 2104   0.693   2.122   1.992 -0.0887 -0.3887  0.6364
  527SOL     OW 2105   1.334   2.015   2.099  0.2199  0.2713  0.1814
  527SOL    HW1 2106   1.358   2.014   2.189  2.1350  2.4922  0.2787
  527SOL    HW2 2107   1.362   1.929   2.057  1.4886  1.2178 -1.7253
  527SOL     MW 2108   1.341   2.003   2.105  0.6400  0.6892 -0.0573
  528SOL     OW 2109   0.698   2.934   2.907  0.8807 -0.3688 -0.2564
  528SOL    HW1 2110   0.718   3.027   2.915  2.5015  2.0486 -0.1748
  528SOL    HW2 2111   0.635   2.922   2.832 -1.8961 -0.9900 -0.2167
  528SOL     MW 2112   0.693   2.944   2.898  0.7282 -0.1318 -0.2404
  529SOL     OW 2113   1.031   2.290   1.850  0.4851 -0.1489 -0.4074
  529SOL    HW1 2114   1.022   2.305   1.947 -0.9694  1.1807  0.6786
  529SOL    HW2 2115   1.105   2.341   1.822 -3.4727  1.0865  4.2025
  529SOL     MW 2116   1.040   2.298   1.859 -0.2290  0.1895  0.3441
  530SOL     OW 2117   1.165   2.437   3.044  0.8397  0.2593  0.4321
  530SOL    HW1 2118   1.126   2.474   3.122  1.1728 -1.2612  0.1539
  530SOL    HW2 2119   1.146   2.344   3.056  0.8562 -2.4306 -0.3942
  530SOL     MW 2120   1.158   2.429   3.056  0.8859 -0.2962  0.2864
  531SOL     OW 2121   0.997   1.893   2.609  0.1699 -0.3528 -0.2047
  531SOL    HW1 2122   1.004   1.948   2.686 -1.0917 -2.2110 -2.2343
  531SOL    HW2 2123   0.937   1.825   2.642 -0.4603  1.6460 -0.2567
  531SOL     MW 2124   0.990   1.891   2.624 -0.0797 -0.3342 -0.4794
  532SOL     OW 2125   1.718   0.330   2.877 -0.1519  0.5727  0.6333
  532SOL    HW1 2126   1.682   0.257   2.930 -0.7746 -3.1063  2.4759
  532SOL    HW2 2127   1.824   0.325   2.896  4.0658  1.1972  0.4652
  532SOL     MW 2128   1.727   0.319   2.886  0.3224  0.1697  0.8543
  533SOL     OW 2129   1.820   2.680   2.983  0.5373 -0.4914 -0.4578
  533SOL    HW1 2130   1.775   2.618   3.042 -2.3535  1.5602  1.0899
  533SOL    HW2 2131   1.756   2.717   2.912 -2.8575  1.9412 -0.2418
  533SOL     MW 2132   1.806   2.677   2.981 -0.2920  0.1003 -0.2251
  534SOL     OW 2133   1.795   2.339   2.451  0.3188  0.2818  0.3693
  534SOL    HW1 2134   1.715   2.296   2.489 -1.4734 -2.1980  0.9560
  534SOL    HW2 2135   1.864   2.309   2.504 -0.5851 -0.2221 -3.4794
  534SOL     MW 2136   1.793   2.330   2.463 -0.0369 -0.1119 -0.0611
  535SOL     OW 2137   1.824   2.358   1.958 -0.0823  0.1167 -0.6868
  535SOL    HW1 2138   1.809   2.387   1.868  1.1392  0.5523  0.9494
  535SOL    HW2 2139   1.920   2.353   1.964 -2.2822  0.8906 -1.8085
  535SOL     MW 2140   1.835   2.361   1.947 -0.2114  0.2763 -0.6189
  536SOL     OW 2141   0.443   1.856   2.018  0.0456  0.7755 -0.0497
  536SOL    HW1 2142   0.448   1.826   1.927 -2.5488 -0.7622  0.3501
  536SOL    HW2 2143   0.505   1.925   2.017 -1.6670 -0.1351  0.6755
  536SOL     MW 2144   0.452   1.861   2.006 -0.5226  0.4525  0.0987
  537SOL     OW 2145   1.072   0.157   2.877 -0.5945 -0.5225 -0.2077
  537SOL    HW1 2146   1.022   0.106   2.932  1.1894 -1.1535 -1.4131
  537SOL    HW2 2147   1.058   0.251   2.896 -1.3569 -1.2089  0.6895
  537SOL     MW 2148   1.063   0.163   2.887 -0.4597 -0.6963 -0.2483
  538SOL     OW 2149   1.365   0.052   2.964  0.4849  0.3335 -0.1496
  538SOL    HW1 2150   1.314   0.132   2.949 -2.1414 -1.1305 -0.3568
  538SOL    HW2 2151   1.456   0.073   2.933  1.2397  1.6665 -0.5309
  538SOL     MW 2152   1.370   0.065   2.958  0.2380  0.3162 -0.2272
  539SOL     OW 2153   0.765   2.761   2.559 -0.0460  0.2353  0.3360
  539SOL    HW1 2154   0.865   2.785   2.553  1.0198  1.4039  0.9390
  539SOL    HW2 2155   0.768   2.664   2.560 -0.7325  1.8751  1.1293
  539SOL     MW 2156   0.779   2.752   2.558  0.0040  0.6058  0.5202
  540SOL     OW 2157   0.331   2.347   2.873  0.1841  0.7280 -0.4625
  540SOL    HW1 2158   0.418   2.383   2.898  2.1550  1.6553 -0.4273
  540SOL    HW2 2159   0.344   2.256   2.893 -1.1469 -0.4470 -2.8461
  540SOL     MW 2160   0.344   2.340   2.879  0.2685  0.6953 -0.7723
  541SOL     OW 2161   0.169   2.927   2.194  0.2465  0.3166  0.2813
  541SOL    HW1 2162   0.173   2.845   2.146  1.4932  0.8387  0.0788
  541SOL    HW2 2163   0.228   2.912   2.267 -1.1991  1.0574  1.0814
  541SOL     MW 2164   0.177   2.914   2.198  0.2202  0.4832  0.3601
  542SOL     OW 2165   1.037   2.286   2.572 -0.4716 -0.5528  0.0037
  542SOL    HW1 2166   1.005   2.204   2.594 -0.0801  1.8116  0.0794
  542SOL    HW2 2167   1.036   2.333   2.659 -1.5552  1.7750 -1.5196
  542SOL     MW 2168   1.033   2.282   2.586 -0.5629  0.0663 -0.1873
  543SOL     OW 2169   1.439   2.487   2.747  0.3708 -0.2217 -0.1018
  543SOL    HW1 2170   1.471   2.418   2.687 -0.1631  0.1135  1.6937
  543SOL    HW2 2171   1.509   2.557   2.756  0.5469  2.8426  0.5565
  543SOL     MW 2172   1.453   2.487   2.740  0.3236  0.2268  0.2219
  544SOL     OW 2173   0.612   0.242   2.676  0.7514  0.1528 -0.0998
  544SOL    HW1 2174   0.522   0.233   2.716  3.0180  2.1233 -3.0702
  544SOL    HW2 2175   0.630   0.154   2.640 -0.7249 -0.5053 -0.0884
  544SOL     MW 2176   0.602   0.229   2.677  0.8557  0.3260 -0.4902
  545SOL     OW 2177   1.539   2.197   2.325  0.6338 -0.3568  0.7016
  545SOL    HW1 2178   1.486   2.240   2.256 -0.8802 -0.4285  0.2414
  545SOL    HW2 2179   1.621   2.174   2.278 -0.0448  0.1741 -0.1213
  545SOL     MW 2180   1.542   2.200   2.310  0.3445 -0.2962  0.5323
  546SOL     OW 2181   2.950   2.043   0.139 -0.1055 -0.4213 -0.3825
  546SOL    HW1 2182   2.947   2.128   0.077  0.5479 -1.1817  1.6130
  546SOL    HW2 2183   3.027   1.987   0.121  1.1555 -0.9669 -0.2904
  546SOL     MW 2184   2.960   2.047   0.128  0.1471 -0.5936 -0.1071
  547SOL     OW 2185   0.262   2.966   0.129  0.1249  0.0834  0.9823
  547SOL    HW1 2186   0.301   3.016   0.049 -1.0721  1.1972 -3.5156
  547SOL    HW2 2187   0.276   2.876   0.105 -1.3891 -2.1731  0.9874
  547SOL     MW 2188   0.269   2.961   0.115 -0.2328 -0.0674  0.3895
  548SOL     OW 2189   0.272   2.556   0.251  0.0276  0.4146 -0.0642
  548SOL    HW1 2190   0.303   2.620   0.187  0.4428 -1.7125 -1.9805
  548SOL    HW2 2191   0.259   2.477   0.192 -0.7100  0.5881 -1.2847
  548SOL     MW 2192   0.274   2.554   0.235 -0.0149  0.1568 -0.4780
  549SOL     OW 2193   0.805   1.899   2.113 -0.0338  0.7860  0.2369
  549SOL    HW1 2194   0.750   1.966   2.089 -0.1054  0.1146  0.2829
  549SOL    HW2 2195   0.799   1.894   2.210  4.8522 -0.3535 -0.5245
  549SOL     MW 2196   0.797   1.907   2.123  0.6014  0.5471  0.1425
  550SOL     OW 2197   1.792   1.722   2.526 -0.2521 -0.8029 -0.0258
  550SOL    HW1 2198   1.812   1.752   2.435  1.7218  1.7176 -1.7759
  550SOL    HW2 2199   1.782   1.812   2.563  0.5081  0.9267  1.1711
  550SOL     MW 2200   1.793   1.738   2.519  0.1086 -0.2421 -0.0988
  551SOL     OW 2201   0.881   2.299   0.221 -0.4566 -0.5355  0.4641
  551SOL    HW1 2202   0.969   2.312   0.192 -0.2116 -0.0513  2.0848
  551SOL    HW2 2203   0.862   2.213   0.187  0.2945  0.5340  0.6007
  551SOL     MW 2204   0.890   2.290   0.213 -0.3252 -0.3305  0.6960
  552SOL     OW 2205   1.753   1.737   2.254  0.2523  0.3388  0.0817
  552SOL    HW1 2206   1.674   1.711   2.291 -0.6171  0.8362  0.7989
  552SOL    HW2 2207   1.758   1.685   2.169  0.0205  0.1036 -0.5693
  552SOL     MW 2208   1.743   1.726   2.248  0.1070  0.3734  0.0904
  553SOL     OW 2209   1.187   2.323   1.470 -0.0492 -0.2840 -0.0829
  553SOL    HW1 2210   1.220   2.238   1.495  0.7136  1.2988 -0.3319
  553SOL    HW2 2211   1.266   2.362   1.442  0.4359  0.3870  0.2891
  553SOL     MW 2212   1.201   2.317   1.469  0.1155  0.0134 -0.0667
  554SOL     OW 2213   0.552   2.905   2.675 -0.0606  0.3396 -0.3925
  554SOL    HW1 2214   0.507   2.981   2.633 -0.0550  2.2316 -1.1406
  554SOL    HW2 2215   0.633   2.870   2.630 -1.2330 -1.4197  1.8488
  554SOL     MW 2216   0.557   2.911   2.663 -0.2146  0.3571 -0.1955
  555SOL     OW 2217   0.626   2.442   2.568  0.0820  0.1612 -0.0080
  555SOL    HW1 2218   0.570   2.365   2.587  0.8489  0.3195  0.1748
  555SOL    HW2 2219   0.713   2.414   2.524 -0.3425 -0.2754 -1.0687
  555SOL     MW 2220   0.630   2.428   2.565  0.1272  0.1245 -0.1238
  556SOL     OW 2221   0.940   1.772   0.141  0.3420  0.1887  0.6092
  556SOL    HW1 2222   0.983   1.781   0.056 -0.2585 -0.7928  1.5575
  556SOL    HW2 2223   1.007   1.805   0.201  1.5753  0.3789 -0.6048
  556SOL     MW 2224   0.954   1.778   0.137  0.4255  0.0843  0.5741
  557SOL     OW 2225   0.966   2.694   0.494  0.0929 -0.0280  0.0962
  557SOL    HW1 2226   1.005   2.645   0.426 -0.2708  0.3191  0.8637
  557SOL    HW2 2227   0.901   2.743   0.443  0.7308 -3.3527 -0.8801
  557SOL     MW 2228   0.963   2.694   0.479  0.1291 -0.4209  0.0686
  558SOL     OW 2229   0.273   2.141   0.015 -0.7157 -0.0536 -0.5913
  558SOL    HW1 2230   0.218   2.063   0.042 -1.5450 -1.4726  1.1161
  558SOL    HW2 2231   0.220   2.219   0.038 -1.3375  1.7397 -0.0841
  558SOL     MW 2232   0.258   2.141   0.021 -0.9072 -0.0042 -0.2991
  559SOL     OW 2233   1.077   2.317   2.116 -0.5136 -0.2044  0.3928
  559SOL    HW1 2234   1.115   2.358   2.190 -0.6303 -0.0277 -0.9572
  559SOL    HW2 2235   1.068   2.227   2.138 -1.5624 -2.2388 -1.3054
  559SOL     MW 2236   1.081   2.310   2.129 -0.6674 -0.4495 -0.0094
  560SOL     OW 2237   1.922   2.839   0.055 -0.2969  0.2166  0.5294
  560SOL    HW1 2238   1.997   2.877   0.006  0.4911  1.0456 -1.1223
  560SOL    HW2 2239   1.877   2.775  -0.001 -1.1845  0.9803 -0.7283
  560SOL     MW 2240   1.926   2.836   0.041 -0.3100  0.4268  0.1455
  561SOL     OW 2241   0.451   2.145   0.213 -0.1509  0.2657  0.6447
  561SOL    HW1 2242   0.402   2.142   0.131  0.0290  3.8515 -2.7276
  561SOL    HW2 2243   0.485   2.236   0.203  0.0010  0.2815 -3.3439
  561SOL     MW 2244   0.449   2.157   0.201 -0.1071  0.7409 -0.3265
  562SOL     OW 2245   0.816   2.186   2.230 -0.4762  0.0937  0.0407
  562SOL    HW1 2246   0.838   2.275   2.218 -3.4596 -0.5459 -3.5445
  562SOL    HW2 2247   0.899   2.144   2.243 -1.4299  2.2933  0.7008
  562SOL     MW 2248   0.830   2.192   2.230 -0.9957  0.2995 -0.3453
  563SOL     OW 2249   1.125   0.313   0.587  0.2093 -0.0192 -0.0895
  563SOL    HW1 2250   1.061   0.277   0.520  1.6175  3.0900 -3.4542
  563SOL    HW2 2251   1.188   0.241   0.605  1.8487  0.3685  0.9588
  563SOL     MW 2252   1.125   0.299   0.581  0.6114  0.4421 -0.3951
  564SOL     OW 2253   1.032   2.598   2.272 -0.3676  0.5050 -0.6961
  564SOL    HW1 2254   1.075   2.607   2.182 -1.0198  1.5439  1.1476
  564SOL    HW2 2255   1.109   2.609   2.331 -0.1732  1.8694 -0.8657
  564SOL     MW 2256   1.048   2.601   2.268 -0.4280  0.8221 -0.4753
  565SOL     OW 2257   2.901   2.691   2.645  0.2822 -0.2123  0.3437
  565SOL    HW1 2258   2.958   2.753   2.596  1.6130  1.3005 -0.5418
  565SOL    HW2 2259   2.828   2.651   2.593  1.1574 -1.4695  0.6085
  565SOL     MW 2260   2.899   2.694   2.632  0.5733 -0.1786  0.2618
  566SOL     OW 2261   2.142   1.869   2.416  0.2866 -0.0825 -0.7104
  566SOL    HW1 2262   2.150   1.781   2.381  3.4143  0.1711 -0.9670
  566SOL    HW2 2263   2.213   1.921   2.376 -2.9313 -0.1239  1.2123
  566SOL     MW 2264   2.152   1.865   2.406  0.2747 -0.0545 -0.4906
  567SOL     OW 2265   1.181   2.964   2.963 -0.3153 -0.6914 -0.1143
  567SOL    HW1 2266   1.263   3.030   2.966  0.1972  2.9226  3.4229
  567SOL    HW2 2267   1.217   2.874   2.945  0.2331 -2.5538 -2.1305
  567SOL     MW 2268   1.197   2.961   2.961 -0.1753 -0.4603  0.0864
  568SOL     OW 2269   1.634   2.108   2.888 -0.0094  0.2135 -0.0059
  568SOL    HW1 2270   1.690   2.176   2.923  0.7095 -1.1205 -2.2275
  568SOL    HW2 2271   1.684   2.063   2.812  0.0876  0.7449 -0.0559
  568SOL     MW 2272   1.648   2.111   2.882  0.0983  0.1076 -0.3056
  569SOL     OW 2273   0.204   2.243   2.472 -0.3114 -0.2624 -0.0027
  569SOL    HW1 2274   0.126   2.272   2.412 -1.3144 -2.6222  0.9437
  569SOL    HW2 2275   0.230   2.323   2.524 -1.3131  2.4274 -1.1674
  569SOL     MW 2276   0.197   2.258   2.471 -0.5759 -0.2189 -0.0315
  570SOL     OW 2277   1.466   0.395   0.473 -0.2663 -0.4337 -0.2065
  570SOL    HW1 2278   1.380   0.412   0.509  0.3411 -2.5684 -2.5103
  570SOL    HW2 2279   1.538   0.405   0.539  1.0838  0.0262  0.4694
  570SOL     MW 2280   1.464   0.398   0.487 -0.0080 -0.6547 -0.4213
  571SOL     OW 2281   1.476   2.407   1.982 -0.0937  0.3066 -0.1778
  571SOL    HW1 2282   1.539   2.419   2.052  0.3920 -0.3463  2.2127
  571SOL    HW2 2283   1.462   2.312   1.962 -1.5328 -2.3332 -1.5885
  571SOL     MW 2284   1.483   2.396   1.989 -0.2195 -0.1279 -0.0485
  572SOL     OW 2285   0.915   2.592   0.033 -0.0103  0.4206  0.1457
  572SOL    HW1 2286   0.940   2.612  -0.059  0.6767  0.9562 -0.9153
  572SOL    HW2 2287   0.822   2.607   0.034 -0.7059  2.4970 -1.1556
  572SOL     MW 2288   0.906   2.597   0.021 -0.0114  0.7652 -0.1660
  573SOL     OW 2289   1.188   2.367   0.269 -0.1774 -0.2243 -0.1304
  573SOL    HW1 2290   1.258   2.340   0.207 -2.5857  1.5514  2.6649
  573SOL    HW2 2291   1.175   2.466   0.262  0.7643  2.2247 -0.7266
  573SOL     MW 2292   1.196   2.376   0.260 -0.3709  0.3331  0.1598
  574SOL     OW 2293   1.122   2.636   0.246  0.6407 -0.0039  0.0655
  574SOL    HW1 2294   1.162   2.714   0.281  2.0909 -2.9668 -0.9691
  574SOL    HW2 2295   1.056   2.656   0.184  2.4774 -2.1436  2.4845
  574SOL     MW 2296   1.118   2.649   0.243  1.0744 -0.6772  0.2482
  575SOL     OW 2297   0.029   2.303   1.797  0.1327 -0.7142  0.0761
  575SOL    HW1 2298   0.035   2.223   1.744 -2.4006 -1.3731  1.5144
  575SOL    HW2 2299   0.077   2.369   1.751 -0.2179 -1.2768  0.3150
  575SOL     MW 2300   0.036   2.301   1.784 -0.2478 -0.8754  0.2974
  576SOL     OW 2301   2.868   1.801   2.051 -0.4443  0.2896  0.1820
  576SOL    HW1 2302   2.866   1.873   1.983 -0.9357  1.0485 -0.8847
  576SOL    HW2 2303   2.778   1.772   2.045  0.3318 -0.6526  2.2311
  576SOL     MW 2304   2.856   1.807   2.042 -0.4067  0.2654  0.3116
  577SOL     OW 2305   2.103   0.214   0.069 -0.0827 -0.4817  0.0491
  577SOL    HW1 2306   2.043   0.232  -0.007 -3.4980  0.8280  0.0600
  577SOL    HW2 2307   2.047   0.190   0.148  2.0507  0.6035 -1.4336
  577SOL     MW 2308   2.088   0.214   0.069 -0.2518 -0.1657 -0.1451
  578SOL     OW 2309   1.908   2.033   2.430 -0.4656  0.3217 -0.1444
  578SOL    HW1 2310   1.860   2.025   2.346 -0.1512 -1.0873 -1.8447
  578SOL    HW2 2311   1.991   1.989   2.410 -0.2987  0.5353 -0.4954
  578SOL     MW 2312   1.913   2.026   2.416 -0.4021  0.1640 -0.4151
  579SOL     OW 2313   0.883   2.484   2.471  0.2331 -0.3842 -0.4575
  579SOL    HW1 2314   0.951   2.418   2.509  1.5199 -1.2457  0.0135
  579SOL    HW2 2315   0.925   2.542   2.404 -0.7459 -1.0003 -1.7232
  579SOL     MW 2316   0.897   2.483   2.467  0.2737 -0.5792 -0.5624
  580SOL     OW 2317   0.918   2.996   3.080  0.4103 -0.4572 -1.0622
  580SOL    HW1 2318   1.016   2.982   3.080  0.0177  0.7256 -0.3101
  580SOL    HW2 2319   0.888   2.955   2.994 -1.4216 -0.4150 -0.4274
  580SOL     MW 2320   0.927   2.989   3.069  0.1168 -0.2956 -0.8792
  581SOL     OW 2321   1.187   2.464   1.702  0.9139  0.3417 -0.1786
  581SOL    HW1 2322   1.262   2.518   1.709 -2.7963  0.3646 -1.8442
  581SOL    HW2 2323   1.193   2.403   1.627 -2.8838  0.0838  1.4604
  581SOL     MW 2324   1.198   2.463   1.693 -0.0767  0.3107 -0.1821
  582SOL     OW 2325   3.085   2.876   2.538  0.2037 -0.3923 -0.2773
  582SOL    HW1 2326   3.036   2.944   2.581  1.9431 -1.4103 -0.6753
  582SOL    HW2 2327   3.177   2.898   2.534  0.6837  2.5954 -1.5608
  582SOL     MW 2328   3.091   2.888   2.543  0.4965 -0.1324 -0.4992
  583SOL     OW 2329   2.025   2.362   2.706  0.3524 -0.0978 -0.0501
  583SOL    HW1 2330   2.085   2.384   2.630  1.7243  0.1604 -0.7160
  583SOL    HW2 2331   1.989   2.272   2.698 -1.3334  0.2238 -1.5409
  583SOL     MW 2332   2.028   2.353   2.695  0.3110 -0.0213 -0.3346
  584SOL     OW 2333   0.204   1.845   2.170  0.7275 -1.1058  0.7819
  584SOL    HW1 2334   0.290   1.825   2.142 -0.5644  0.9822  3.1654
  584SOL    HW2 2335   0.216   1.933   2.213  0.3223  0.8494 -1.0614
  584SOL     MW 2336   0.217   1.854   2.172  0.5036 -0.5723  0.8532
  585SOL     OW 2337   1.446   2.649   0.146  0.3758  0.0358  0.1532
  585SOL    HW1 2338   1.422   2.599   0.063 -1.1606  0.3011 -0.4898
  585SOL    HW2 2339   1.362   2.650   0.194 -1.6154  0.8578  2.6337
  585SOL     MW 2340   1.432   2.643   0.141 -0.0896  0.1793  0.3957
  586SOL     OW 2341   1.394   2.819   2.511 -0.3876  0.1903  0.1656
  586SOL    HW1 2342   1.446   2.829   2.436 -1.4349  1.7049 -0.0256
  586SOL    HW2 2343   1.384   2.912   2.539 -0.0920  2.6421  1.5265
  586SOL     MW 2344   1.399   2.833   2.505 -0.4868  0.7137  0.3199
  587SOL     OW 2345   1.307   1.566   2.177 -0.1635 -0.1638 -0.2543
  587SOL    HW1 2346   1.284   1.491   2.236 -0.6074 -2.6318 -2.6352
  587SOL    HW2 2347   1.363   1.530   2.110  2.0764 -0.1493 -0.2801
  587SOL     MW 2348   1.311   1.551   2.176  0.0735 -0.4875 -0.5718
  588SOL     OW 2349   1.376   2.135   2.773 -0.0860 -0.2760  0.0185
  588SOL    HW1 2350   1.467   2.106   2.813 -1.6480 -0.3149 -3.2803
  588SOL    HW2 2351   1.329   2.162   2.853 -2.3472 -4.0964  1.6725
  588SOL     MW 2352   1.382   2.135   2.789 -0.5904 -0.7852 -0.1985
  589SOL     OW 2353   1.274   2.056   0.066 -0.5049 -0.2940  0.3938
  589SOL    HW1 2354   1.329   2.119   0.116  0.2748  1.2982 -1.1027
  589SOL    HW2 2355   1.258   1.984   0.128  2.5712  0.9822  1.1945
  589SOL     MW 2356   1.279   2.055   0.081  0.0038  0.0844  0.3020
  590SOL     OW 2357   0.418   2.720   2.223  0.1474  0.9252 -0.5139
  590SOL    HW1 2358   0.418   2.678   2.138 -2.0143  1.1836  2.0619
  590SOL    HW2 2359   0.496   2.775   2.210 -0.7734  1.7524  1.3614
  590SOL     MW 2360   0.428   2.722   2.210 -0.2593  1.0684  0.0734
  591SOL     OW 2361   2.288   0.706   0.014  0.0184 -0.1779  0.3891
  591SOL    HW1 2362   2.224   0.742  -0.046  0.8481 -0.6505 -2.7772
  591SOL    HW2 2363   2.381   0.700  -0.040  2.7163 -0.7726  0.1024
  591SOL     MW 2364   2.292   0.710  -0.002  0.4838 -0.3187 -0.0665
  592SOL     OW 2365   1.796   2.972   0.843  0.1547 -0.5078  0.1852
  592SOL    HW1 2366   1.779   3.029   0.767 -1.0801  2.4988  0.1331
  592SOL    HW2 2367   1.866   2.912   0.809  0.5948 -1.4662  1.1333
  592SOL     MW 2368   1.803   2.972   0.829  0.0498 -0.2376  0.3034
  593SOL     OW 2369   1.947   0.706   0.881 -0.1257  0.2251 -0.2887
  593SOL    HW1 2370   1.871   0.679   0.829 -2.0005 -3.2219  2.4141
  593SOL    HW2 2371   1.995   0.626   0.896 -0.4970 -0.3694  0.9514
  593SOL     MW 2372   1.943   0.692   0.876 -0.4221 -0.3081  0.2315
  594SOL     OW 2373   2.829   1.156   1.342 -0.1294 -0.1726 -0.1310
  594SOL    HW1 2374   2.923   1.145   1.340  0.5814 -0.5887  0.4053
  594SOL    HW2 2375   2.813   1.104   1.260  0.0343 -1.1297 -0.4385
  594SOL     MW 2376   2.840   1.148   1.331 -0.0140 -0.3538 -0.1008
  595SOL     OW 2377   0.473   0.979   0.808 -0.3829  0.2866  0.0839
  595SOL    HW1 2378   0.529   1.024   0.743 -0.5472  1.8840 -3.3454
  595SOL    HW2 2379   0.480   1.026   0.891 -2.3404  3.2398  2.4763
  595SOL     MW 2380   0.481   0.991   0.810 -0.6629  0.8870 -0.0529
  596SOL     OW 2381   2.466   1.338   0.559 -0.8048 -0.0895  0.4435
  596SOL    HW1 2382   2.534   1.403   0.532  1.2489  0.9105 -1.5544
  596SOL    HW2 2383   2.506   1.267   0.611  0.6194  0.0337  0.9223
  596SOL     MW 2384   2.480   1.337   0.563 -0.3459  0.0587  0.2431
  597SOL     OW 2385   2.177   0.714   1.593 -0.0098  0.0165  0.4877
  597SOL    HW1 2386   2.195   0.646   1.663  0.5845  0.6526  1.0743
  597SOL    HW2 2387   2.111   0.672   1.529 -0.2965 -1.7411  0.7023
  597SOL     MW 2388   2.171   0.700   1.594  0.0308 -0.1315  0.5934
  598SOL     OW 2389   2.594   0.997   2.853 -0.2152  0.6243  0.3770
  598SOL    HW1 2390   2.594   1.002   2.755 -1.0410 -1.3126  2.1003
  598SOL    HW2 2391   2.668   1.049   2.881  0.8604 -0.8192 -0.0671
  598SOL     MW 2392   2.604   1.004   2.844 -0.1822  0.1783  0.5458
  599SOL     OW 2393   2.970   0.448   2.047  0.2058 -0.0098 -0.0616
  599SOL    HW1 2394   2.939   0.459   2.135  1.4180 -0.3220 -0.1746
  599SOL    HW2 2395   3.001   0.540   2.018 -1.4986  0.6366 -0.0774
  599SOL     MW 2396   2.970   0.461   2.055  0.1409  0.0343 -0.0786
  600SOL     OW 2397   1.921   1.634   0.864 -0.4000 -1.0604 -0.2236
  600SOL    HW1 2398   1.965   1.702   0.921 -2.0445 -1.5026  3.2570
  600SOL    HW2 2399   1.838   1.688   0.861  0.2080 -1.2322 -0.0967
  600SOL     MW 2400   1.916   1.650   0.871 -0.5368 -1.1414  0.2524
  601SOL     OW 2401   2.536   0.804   0.830  0.3342 -0.8335 -0.2635
  601SOL    HW1 2402   2.508   0.803   0.919 -3.3179 -0.5786  2.6167
  601SOL    HW2 2403   2.473   0.752   0.779 -0.2461 -1.5766  1.7353
  601SOL     MW 2404   2.524   0.797   0.835 -0.2243 -0.8979  0.3802
  602SOL     OW 2405   2.358   1.914   0.859  0.2878 -0.5206  0.4547
  602SOL    HW1 2406   2.326   1.823   0.873  0.9267 -0.4224  0.7244
  602SOL    HW2 2407   2.285   1.956   0.815  0.7777 -0.9962 -0.3788
  602SOL     MW 2408   2.344   1.908   0.855  0.4367 -0.5704  0.3803
  603SOL     OW 2409   3.068   1.395   1.802  0.0470 -0.3197  0.0104
  603SOL    HW1 2410   3.129   1.434   1.867  2.7727  0.0835 -1.2606
  603SOL    HW2 2411   3.060   1.302   1.806  1.2014 -1.1382 -1.5728
  603SOL     MW 2412   3.075   1.388   1.811  0.5589 -0.3745 -0.3662
  604SOL     OW 2413   2.174   1.573   0.469  0.2430  0.0064 -0.4475
  604SOL    HW1 2414   2.186   1.487   0.514 -0.1245  0.1074  0.5133
  604SOL    HW2 2415   2.101   1.623   0.519  0.0445  1.7104 -1.2148
  604SOL     MW 2416   2.166   1.568   0.482  0.1683  0.2445 -0.4220
  605SOL     OW 2417   2.615   1.541   0.829  0.2539 -0.6597  0.1513
  605SOL    HW1 2418   2.594   1.620   0.774 -0.4630  3.6079  0.2558
  605SOL    HW2 2419   2.566   1.467   0.785 -1.2880  0.0498 -0.3790
  605SOL     MW 2420   2.605   1.541   0.816 -0.0441 -0.0030  0.0951
  606SOL     OW 2421   2.533   1.828   1.943 -0.7230 -0.3795  0.7728
  606SOL    HW1 2422   2.439   1.830   1.939 -0.9398 -0.2713  1.2621
  606SOL    HW2 2423   2.568   1.744   1.912  0.4425  0.0116  1.8191
  606SOL     MW 2424   2.525   1.817   1.938 -0.5978 -0.3137  0.9754
  607SOL     OW 2425   2.394   1.065   3.044  0.2473  0.6693 -0.1367
  607SOL    HW1 2426   2.450   1.025   2.979 -0.3541 -0.8327 -0.3257
  607SOL    HW2 2427   2.413   1.027   3.136  1.7842 -0.5865  0.5200
  607SOL     MW 2428   2.404   1.055   3.048  0.3708  0.3054 -0.0750
  608SOL     OW 2429   1.883   0.282   0.631 -0.2113  0.0485 -0.4861
  608SOL    HW1 2430   1.876   0.320   0.542 -0.7110 -0.3928  2.4362
  608SOL    HW2 2431   1.836   0.196   0.621 -1.0656 -0.6420 -0.7069
  608SOL     MW 2432   1.876   0.275   0.618 -0.3900 -0.1008 -0.1297
  609SOL     OW 2433   2.033   2.022   3.041  0.0322 -0.4343 -0.1578
  609SOL    HW1 2434   1.964   1.954   3.041 -0.4450  0.1120 -0.8251
  609SOL    HW2 2435   2.088   1.986   3.111 -1.9090  1.7301 -1.6647
  609SOL     MW 2436   2.031   2.008   3.051 -0.2869 -0.0767 -0.4446
  610SOL     OW 2437   1.774   1.004   1.292 -0.3792  0.1606  0.4279
  610SOL    HW1 2438   1.817   0.930   1.246  0.3698  1.1149  3.3889
  610SOL    HW2 2439   1.680   0.983   1.296  1.1297  0.9407 -0.7752
  610SOL     MW 2440   1.767   0.992   1.287 -0.0813  0.3894  0.6598
  611SOL     OW 2441   2.512   1.784   0.681 -0.3952 -0.2963  0.0201
  611SOL    HW1 2442   2.448   1.839   0.727  0.7988  0.9233  1.7175
  611SOL    HW2 2443   2.543   1.811   0.591  2.7365 -0.0184  0.4792
  611SOL     MW 2444   2.508   1.795   0.675  0.1755 -0.0987  0.3046
  612SOL     OW 2445   2.794   2.824   0.417  0.1994 -0.3240 -0.2047
  612SOL    HW1 2446   2.851   2.837   0.494 -1.4537 -2.6257 -0.5279
  612SOL    HW2 2447   2.858   2.796   0.350  0.9615  0.4215 -0.3331
  612SOL     MW 2448   2.810   2.822   0.418  0.0818 -0.5294 -0.2643
  613SOL     OW 2449   1.487   0.986   0.963 -0.3451 -0.5208  0.1861
  613SOL    HW1 2450   1.481   1.077   0.984  2.0236  0.6429 -3.0449
  613SOL    HW2 2451   1.490   0.937   1.044 -0.1604 -0.9393  0.5738
  613SOL     MW 2452   1.487   0.992   0.976 -0.0082 -0.4225 -0.1891
  614SOL     OW 2453   2.001   0.563   1.448  0.1611  0.1572  0.7952
  614SOL    HW1 2454   2.025   0.481   1.493 -0.1217 -1.4812 -1.7376
  614SOL    HW2 2455   1.942   0.551   1.371  1.4440  1.2473  1.4493
  614SOL     MW 2456   1.996   0.551   1.444  0.2931  0.0849  0.5474
  615SOL     OW 2457   2.394   0.721   0.267  0.6251  0.0374 -0.6244
  615SOL    HW1 2458   2.461   0.654   0.283  0.0806  0.7915 -0.1015
  615SOL    HW2 2459   2.356   0.711   0.180 -1.8732  1.3382  0.3627
  615SOL     MW 2460   2.398   0.711   0.257  0.2237  0.3085 -0.4252
  616SOL     OW 2461   2.479   0.396   1.602 -0.1177 -0.2525  0.7384
  616SOL    HW1 2462   2.446   0.309   1.572 -0.8765 -1.6376 -0.1838
  616SOL    HW2 2463   2.466   0.450   1.521 -2.1428 -3.1354 -0.5154
  616SOL     MW 2464   2.473   0.392   1.587 -0.4850 -0.8156  0.4513
  617SOL     OW 2465   2.902   0.593   1.736 -0.4601  0.9138 -0.4473
  617SOL    HW1 2466   2.823   0.613   1.786 -0.5193  1.0569 -2.5645
  617SOL    HW2 2467   2.901   0.508   1.693 -1.6178 -1.8124  3.2593
  617SOL     MW 2468   2.891   0.584   1.737 -0.6206  0.5730 -0.2376
  618SOL     OW 2469   2.763   0.377   1.869 -0.8473  0.4390  0.3802
  618SOL    HW1 2470   2.714   0.457   1.883 -2.0635 -0.0618 -0.6503
  618SOL    HW2 2471   2.847   0.383   1.909 -0.0714  0.6636 -0.7590
  618SOL     MW 2472   2.767   0.388   1.876 -0.9054  0.4026  0.0939
  619SOL     OW 2473   2.657   0.650   0.125 -0.5197 -0.7997 -0.0445
  619SOL    HW1 2474   2.666   0.742   0.151 -0.0194 -0.1473 -0.2655
  619SOL    HW2 2475   2.643   0.607   0.210 -1.3658  0.3609  1.7135
  619SOL     MW 2476   2.656   0.657   0.139 -0.5653 -0.5605  0.1583
  620SOL     OW 2477   2.275   1.045   1.021 -0.2917 -0.2127 -0.0882
  620SOL    HW1 2478   2.321   1.045   0.935 -0.1995  2.3984 -1.2905
  620SOL    HW2 2479   2.183   1.024   0.988 -1.6941  1.3064 -2.3596
  620SOL     MW 2480   2.269   1.042   1.006 -0.4646  0.3322 -0.5465
  621SOL     OW 2481   1.528   2.125   1.946  0.2497  0.3270 -0.7457
  621SOL    HW1 2482   1.457   2.099   2.015  2.4964 -1.5268  1.6423
  621SOL    HW2 2483   1.606   2.082   1.978 -2.2100  1.1377  0.0083
  621SOL     MW 2484   1.529   2.116   1.959  0.2216  0.1894 -0.3312
  622SOL     OW 2485   2.632   0.156   0.256 -0.1250  0.0051 -0.2771
  622SOL    HW1 2486   2.717   0.196   0.273 -0.4796 -1.3166  0.4291
  622SOL    HW2 2487   2.648   0.067   0.283  0.8214 -0.0327 -0.2525
  622SOL     MW 2488   2.646   0.149   0.262 -0.0469 -0.1743 -0.1807
  623SOL     OW 2489   2.324   2.829   0.855  0.5650  0.2546  0.1877
  623SOL    HW1 2490   2.413   2.860   0.844 -1.6738 -1.8761  3.1618
  623SOL    HW2 2491   2.311   2.817   0.953  0.4454  1.7093 -1.6691
  623SOL     MW 2492   2.334   2.832   0.867  0.2538  0.1654  0.3351
  624SOL     OW 2493   2.192   1.723   3.003 -0.0428 -0.0611 -0.0489
  624SOL    HW1 2494   2.148   1.669   3.072 -0.2244 -0.3356  1.9474
  624SOL    HW2 2495   2.112   1.751   2.967 -1.9981 -0.5492 -2.5304
  624SOL     MW 2496   2.176   1.720   3.007 -0.3248 -0.1617 -0.1129
  625SOL     OW 2497   2.193   1.951   1.091 -0.2853 -0.0466 -1.2671
  625SOL    HW1 2498   2.251   1.897   1.154 -2.2887  0.0269 -0.8494
  625SOL    HW2 2499   2.233   1.954   1.002  0.3406 -1.2793 -0.8916
  625SOL     MW 2500   2.206   1.944   1.087 -0.4670 -0.1995 -1.1624
  626SOL     OW 2501   0.304   1.621   2.370 -0.0077 -0.0589 -0.8277
  626SOL    HW1 2502   0.294   1.526   2.377  1.1570 -3.4383 -0.2334
  626SOL    HW2 2503   0.213   1.651   2.383 -0.1500  1.7214  0.9465
  626SOL     MW 2504   0.291   1.613   2.373  0.1272 -0.2699 -0.5152
  627SOL     OW 2505   2.477   0.733   2.616 -0.2657 -0.7835 -0.3985
  627SOL    HW1 2506   2.447   0.823   2.630  1.5837 -0.3130 -0.1119
  627SOL    HW2 2507   2.456   0.707   2.526 -0.4339  0.7004 -0.7876
  627SOL     MW 2508   2.470   0.741   2.606 -0.0439 -0.5256 -0.4120
  628SOL     OW 2509   2.347   1.413   1.367 -0.1755  0.3974 -0.1986
  628SOL    HW1 2510   2.309   1.339   1.320  0.8388  0.2756  2.2407
  628SOL    HW2 2511   2.440   1.398   1.367 -2.4927  3.1717  2.4032
  628SOL     MW 2512   2.354   1.402   1.361 -0.3474  0.7474  0.4665
  629SOL     OW 2513   1.857   0.541   1.230  0.1983 -0.5496 -0.9314
  629SOL    HW1 2514   1.833   0.632   1.201  0.2240  0.0592  0.7026
  629SOL    HW2 2515   1.773   0.509   1.266 -2.3579  1.9613  2.7103
  629SOL     MW 2516   1.843   0.548   1.231 -0.1356 -0.1380 -0.2353
  630SOL     OW 2517   2.455   1.808   2.978  0.2031  0.6502 -0.1080
  630SOL    HW1 2518   2.472   1.903   2.960 -0.0124  3.6499 -1.6529
  630SOL    HW2 2519   2.359   1.796   2.993 -0.4944  1.5507 -1.6927
  630SOL     MW 2520   2.444   1.819   2.978  0.0826  1.1648 -0.5209
  631SOL     OW 2521   1.981   1.825   1.562 -0.0447 -0.3294 -0.5489
  631SOL    HW1 2522   1.993   1.734   1.593  1.1962 -1.7227  1.7329
  631SOL    HW2 2523   1.954   1.815   1.471 -0.8186  2.0853  0.6415
  631SOL     MW 2524   1.979   1.812   1.554  0.0170 -0.1946 -0.0908
  632SOL     OW 2525   0.152   1.967   1.445  0.6985 -0.1566 -0.0192
  632SOL    HW1 2526   0.116   1.994   1.534 -4.1539 -2.1208  0.0464
  632SOL    HW2 2527   0.140   1.876   1.440  2.4636 -0.4339 -2.4141
  632SOL     MW 2528   0.146   1.959   1.456  0.2911 -0.4523 -0.3265
  633SOL     OW 2529   2.586   0.506   0.343 -0.3779 -0.0267 -0.6147
  633SOL    HW1 2530   2.646   0.505   0.419 -1.3870 -1.5120 -0.5834
  633SOL    HW2 2531   2.545   0.422   0.329  1.4887  0.6457 -0.7859
  633SOL     MW 2532   2.589   0.495   0.351 -0.2647 -0.1339 -0.6332
  634SOL     OW 2533   2.680   3.077   0.613 -0.4262  0.0358  0.0371
  634SOL    HW1 2534   2.708   3.168   0.608  2.0520  0.7219  0.6248
  634SOL    HW2 2535   2.624   3.062   0.535 -1.2762  3.1100  1.2467
  634SOL     MW 2536   2.677   3.087   0.602 -0.2114  0.5319  0.2742
  635SOL     OW 2537   2.630   0.133   1.816 -0.1637 -0.1561 -0.1791
  635SOL    HW1 2538   2.707   0.075   1.796  1.3086 -0.3769  2.1846
  635SOL    HW2 2539   2.657   0.220   1.836 -2.5698  2.5925  1.4706
  635SOL     MW 2540   2.644   0.137   1.816 -0.2869  0.1774  0.3504
  636SOL     OW 2541   2.870   1.613   1.101 -0.7257  0.4808 -0.5254
  636SOL    HW1 2542   2.804   1.649   1.163  0.1147 -0.7813  2.5919
  636SOL    HW2 2543   2.932   1.692   1.092  0.8616 -0.9092  0.0155
  636SOL     MW 2544   2.869   1.628   1.108 -0.4054  0.1309 -0.0427
  637SOL     OW 2545   2.884   1.475   0.737 -0.3748 -0.5773  0.5036
  637SOL    HW1 2546   2.926   1.563   0.739  0.9290  0.6802  1.9811
  637SOL    HW2 2547   2.815   1.476   0.801 -0.8585 -1.6975 -0.9650
  637SOL     MW 2548   2.880   1.486   0.745 -0.2666 -0.5592  0.5048
  638SOL     OW 2549   2.764   0.494   0.559 -0.7980  0.2303 -0.0016
  638SOL    HW1 2550   2.847   0.526   0.521  1.4242 -0.1862  1.2525
  638SOL    HW2 2551   2.757   0.552   0.638 -1.3890  2.3568  1.9643
  638SOL     MW 2552   2.774   0.506   0.565 -0.5828  0.4559  0.4233
  639SOL     OW 2553   1.758   0.028   0.626 -0.5313  0.1264 -0.2111
  639SOL    HW1 2554   1.685   0.069   0.582  1.2170  0.5352 -0.8862
  639SOL    HW2 2555   1.798  -0.035   0.557 -0.0126 -1.1930 -2.0446
  639SOL     MW 2556   1.753   0.025   0.611 -0.2322  0.0063 -0.5421
  640SOL     OW 2557   0.360   1.310   0.110 -0.0811 -0.2138 -0.0289
  640SOL    HW1 2558   0.375   1.321   0.012  0.5025  1.8346  0.0879
  640SOL    HW2 2559   0.321   1.224   0.125 -1.4806  0.1299  0.3703
  640SOL     MW 2560   0.357   1.300   0.099 -0.1887  0.1018  0.0392
  641SOL     OW 2561   2.160   0.410   0.345  0.2795 -0.0633  0.6425
  641SOL    HW1 2562   2.189   0.439   0.255  0.3780 -0.6753 -2.6548
  641SOL    HW2 2563   2.222   0.345   0.365 -0.8434  1.4266  1.3819
  641SOL     MW 2564   2.172   0.405   0.336  0.1443  0.0525  0.3050
  642SOL     OW 2565   0.051   3.068   0.581  0.2147 -0.0231 -0.2035
  642SOL    HW1 2566   0.041   3.147   0.522  2.7926 -0.9212 -1.4942
  642SOL    HW2 2567  -0.042   3.029   0.600 -0.5480 -1.0761  1.6707
  642SOL     MW 2568   0.037   3.073   0.576  0.4542 -0.2805 -0.1265
  643SOL     OW 2569   2.027   0.336   1.632 -0.6506  0.3094 -0.4070
  643SOL    HW1 2570   1.956   0.314   1.691  0.4191  0.3801 -1.3734
  643SOL    HW2 2571   2.025   0.253   1.580 -1.8801 -3.9473  1.1366
  643SOL     MW 2572   2.017   0.322   1.633 -0.6717 -0.2429 -0.3308
  644SOL     OW 2573   2.746   2.035   1.043  0.1254  0.1084  0.0699
  644SOL    HW1 2574   2.705   1.957   1.079 -1.2727 -1.3168 -0.8107
  644SOL    HW2 2575   2.676   2.093   1.028 -0.3857 -1.0064  1.6001
  644SOL     MW 2576   2.731   2.032   1.046 -0.1265 -0.2267  0.1556
  645SOL     OW 2577   2.860   0.839   0.659 -0.3901  0.2190 -0.2451
  645SOL    HW1 2578   2.949   0.816   0.670 -0.2923 -0.0818 -1.9528
  645SOL    HW2 2579   2.819   0.794   0.727 -1.4527  0.2420 -0.5022
  645SOL     MW 2580   2.866   0.830   0.669 -0.5174  0.1824 -0.5043
  646SOL     OW 2581   0.164   2.301   0.819 -0.0529 -0.5478 -0.0936
  646SOL    HW1 2582   0.189   2.204   0.828 -1.7201 -1.0914  0.8930
  646SOL    HW2 2583   0.120   2.294   0.730 -1.2048 -0.1569  2.8453
  646SOL     MW 2584   0.162   2.288   0.808 -0.4249 -0.5679  0.4243
  647SOL     OW 2585   2.666   0.472   2.965 -0.2006 -0.1338 -0.0933
  647SOL    HW1 2586   2.651   0.406   3.034  0.3133  0.3475  0.4907
  647SOL    HW2 2587   2.638   0.549   3.015  2.1533  0.5700  0.2373
  647SOL     MW 2588   2.661   0.473   2.980  0.1778  0.0225  0.0274
  648SOL     OW 2589   2.104   0.742   1.219 -0.4593  0.2512 -0.3371
  648SOL    HW1 2590   2.148   0.764   1.138  0.3033 -0.8719  3.0889
  648SOL    HW2 2591   2.121   0.813   1.280 -0.9210 -3.4606 -1.5529
  648SOL     MW 2592   2.112   0.754   1.216 -0.4196 -0.3867 -0.0455
  649SOL     OW 2593   2.362   2.685   1.264  0.3877 -0.2930  0.0692
  649SOL    HW1 2594   2.432   2.742   1.286  2.8841  0.7797 -2.5553
  649SOL    HW2 2595   2.399   2.596   1.268 -0.4422 -4.4457  0.5910
  649SOL     MW 2596   2.376   2.681   1.267  0.6076 -0.6994 -0.2082
  650SOL     OW 2597   2.829   0.215   0.628  0.3450 -0.2882  0.1311
  650SOL    HW1 2598   2.847   0.303   0.657  1.0357 -0.3833 -3.0930
  650SOL    HW2 2599   2.916   0.193   0.600 -0.7761  4.3563  2.8333
  650SOL     MW 2600   2.843   0.224   0.628  0.2882  0.3121  0.0623
  651SOL     OW 2601   2.976   0.410   0.883  0.1808  0.6358  0.3474
  651SOL    HW1 2602   3.049   0.454   0.843  0.2633  0.0548  4.6251
  651SOL    HW2 2603   2.936   0.480   0.935 -1.8309 -1.7755 -0.9221
  651SOL     MW 2604   2.980   0.425   0.885 -0.0738  0.2410  0.7443
  652SOL     OW 2605   2.448   1.520   2.980  0.3484 -0.6166  0.5544
  652SOL    HW1 2606   2.498   1.488   2.904 -0.7652  1.4299 -2.8081
  652SOL    HW2 2607   2.435   1.608   2.955 -0.3478 -5.0425 -2.9312
  652SOL     MW 2608   2.453   1.527   2.967  0.1096 -0.9306 -0.3492
  653SOL     OW 2609   1.858   0.417   0.394 -1.2261 -0.1129  0.3956
  653SOL    HW1 2610   1.812   0.406   0.310 -1.1850  0.6882  1.1915
  653SOL    HW2 2611   1.948   0.415   0.369 -3.1845 -3.2978 -0.8436
  653SOL     MW 2612   1.864   0.415   0.379 -1.4791 -0.4274  0.3371
  654SOL     OW 2613   2.393   1.024   0.754 -0.1441  0.3622  0.4965
  654SOL    HW1 2614   2.328   1.008   0.683  0.8111 -0.1225 -1.3433
  654SOL    HW2 2615   2.449   0.948   0.751 -1.8278  2.1938  0.4144
  654SOL     MW 2616   2.392   1.012   0.744 -0.2402  0.5399  0.2430
  655SOL     OW 2617   2.899   0.815   0.352  0.4737 -0.2144  0.0974
  655SOL    HW1 2618   2.849   0.855   0.422 -0.9209 -1.6357 -1.0742
  655SOL    HW2 2619   2.939   0.732   0.392 -1.1280  1.8904  1.2727
  655SOL     MW 2620   2.898   0.809   0.367  0.0784 -0.1242  0.0979
  656SOL     OW 2621   1.860   2.721   1.331  0.5885 -0.1896  0.7317
  656SOL    HW1 2622   1.872   2.814   1.336  1.1963  0.2459  0.7346
  656SOL    HW2 2623   1.896   2.682   1.406 -0.1286  0.4673 -3.3387
  656SOL     MW 2624   1.866   2.728   1.342  0.5740 -0.0455  0.1951
  657SOL     OW 2625   0.137   1.710   1.214 -0.3962 -0.0316 -0.9186
  657SOL    HW1 2626   0.188   1.785   1.179  1.6189 -1.0625  1.1966
  657SOL    HW2 2627   0.174   1.623   1.191  0.2223  1.4819 -2.7284
  657SOL     MW 2628   0.148   1.708   1.206 -0.0487  0.0321 -0.8783
  658SOL     OW 2629   2.723   1.343   0.225 -0.9290  0.1832  0.4725
  658SOL    HW1 2630   2.667   1.278   0.265  3.5901  2.2640 -0.3948
  658SOL    HW2 2631   2.762   1.393   0.299  0.5341  0.6804  0.1369
  658SOL     MW 2632   2.721   1.341   0.240 -0.1397  0.5233  0.3138
  659SOL     OW 2633   2.280   1.519   1.069 -0.0838 -0.1984 -0.6990
  659SOL    HW1 2634   2.374   1.499   1.093  1.8165 -0.5050 -2.3459
  659SOL    HW2 2635   2.227   1.559   1.145 -0.6329  3.8868  0.5800
  659SOL     MW 2636   2.285   1.521   1.082  0.0945  0.3002 -0.7476
  660SOL     OW 2637   2.037   1.580   1.687 -0.6838 -0.3459  0.4213
  660SOL    HW1 2638   2.019   1.597   1.779  0.7636  1.3710 -0.2585
  660SOL    HW2 2639   1.958   1.534   1.655  0.1168  2.3742 -0.3054
  660SOL     MW 2640   2.024   1.576   1.695 -0.3872  0.2395  0.2357
  661SOL     OW 2641   2.417   0.995   0.207  0.4323  0.2475 -0.6559
  661SOL    HW1 2642   2.474   1.043   0.272 -1.9779 -0.1818  3.2679
  661SOL    HW2 2643   2.408   0.902   0.243 -1.8643 -2.1883 -0.0196
  661SOL     MW 2644   2.423   0.989   0.221 -0.1887 -0.1305 -0.0542
  662SOL     OW 2645   2.591   2.965   0.846 -0.5797 -0.0961  0.2027
  662SOL    HW1 2646   2.546   3.031   0.896  0.7940 -0.7443  1.8973
  662SOL    HW2 2647   2.635   3.006   0.771 -1.0086 -0.8087  0.0677
  662SOL     MW 2648   2.591   2.979   0.842 -0.4550 -0.2756  0.4084
  663SOL     OW 2649   2.693   1.490   0.494 -0.3500  0.2255  0.2538
  663SOL    HW1 2650   2.641   1.555   0.449  0.3667  0.5749  2.2187
  663SOL    HW2 2651   2.769   1.525   0.540 -1.4094  0.2363 -0.7167
  663SOL     MW 2652   2.696   1.503   0.495 -0.3952  0.2730  0.3850
  664SOL     OW 2653   2.511   1.519   1.582  0.5808  0.4228 -0.4552
  664SOL    HW1 2654   2.480   1.606   1.564  1.8450 -1.0318  0.8595
  664SOL    HW2 2655   2.430   1.471   1.604 -0.5185  1.7780  1.2114
  664SOL     MW 2656   2.496   1.524   1.582  0.6026  0.4097 -0.0619
  665SOL     OW 2657   2.851   0.853   2.017  0.3087 -0.1963  0.1535
  665SOL    HW1 2658   2.806   0.903   1.940  2.1583  0.7657 -0.1314
  665SOL    HW2 2659   2.919   0.790   1.983 -2.3965 -1.8364  0.6480
  665SOL     MW 2660   2.854   0.851   2.002  0.1958 -0.2858  0.1811
  666SOL     OW 2661   2.758   2.996   1.716 -0.2091 -0.3122 -0.0437
  666SOL    HW1 2662   2.761   3.031   1.632  0.9117  1.3900  1.3389
  666SOL    HW2 2663   2.687   2.929   1.714  0.1512  1.5149 -3.1060
  666SOL     MW 2664   2.749   2.992   1.705 -0.0137  0.1535 -0.2653
  667SOL     OW 2665   1.955   2.692   1.753 -0.9341  0.6612 -0.1685
  667SOL    HW1 2666   2.002   2.622   1.802 -0.3704  0.0244  1.5775
  667SOL    HW2 2667   2.028   2.745   1.715  0.6940  1.8195  1.9281
  667SOL     MW 2668   1.971   2.690   1.754 -0.6449  0.7300  0.3385
  668SOL     OW 2669   2.748   0.645   0.837 -0.2413  0.4848  0.2352
  668SOL    HW1 2670   2.804   0.649   0.915  1.1887  1.5793 -0.2382
  668SOL    HW2 2671   2.674   0.706   0.845 -2.3991  1.5153  2.2296
  668SOL     MW 2672   2.746   0.654   0.848 -0.3373  0.7652  0.4359
  669SOL     OW 2673   0.236   0.966   0.679  0.0190  0.1936  0.0485
  669SOL    HW1 2674   0.184   1.025   0.727  2.8865  0.2921 -1.0933
  669SOL    HW2 2675   0.327   0.955   0.724 -1.6288 -1.5054 -1.1533
  669SOL     MW 2676   0.241   0.972   0.692  0.1799 -0.0176 -0.2607
  670SOL     OW 2677   2.904   0.233   0.232  0.1043 -0.1518 -0.4006
  670SOL    HW1 2678   2.918   0.162   0.165  0.6079  1.8559  0.0734
  670SOL    HW2 2679   2.954   0.310   0.210 -0.6213 -1.4836 -2.6807
  670SOL     MW 2680   2.912   0.234   0.221  0.0750 -0.0626 -0.6389
  671SOL     OW 2681   2.012   2.969   1.477 -0.0923  0.3523  0.7739
  671SOL    HW1 2682   1.965   3.004   1.403 -1.3976  0.6244  1.4234
  671SOL    HW2 2683   1.990   3.033   1.546 -2.4095  0.4139 -1.0173
  671SOL     MW 2684   2.003   2.982   1.477 -0.5703  0.3963  0.6233
  672SOL     OW 2685   1.915   1.667   1.310 -0.1717 -0.0364 -0.0670
  672SOL    HW1 2686   1.829   1.693   1.341 -0.2251  1.3920 -0.5112
  672SOL    HW2 2687   1.934   1.720   1.225  1.0759  0.5774 -0.8187
  672SOL     MW 2688   1.906   1.677   1.303 -0.0141  0.2330 -0.2248
  673SOL     OW 2689   2.765   1.073   0.588  0.6683 -0.0327 -0.3368
  673SOL    HW1 2690   2.792   0.983   0.613  0.1544  1.1989 -0.6493
  673SOL    HW2 2691   2.842   1.124   0.624  1.1192  3.0451  0.9996
  673SOL     MW 2692   2.779   1.068   0.596  0.6600  0.5359 -0.2017
  674SOL     OW 2693   2.430   0.052   1.309 -0.2342  0.0918  0.4173
  674SOL    HW1 2694   2.415   0.050   1.213  1.8087 -0.4461  1.8747
  674SOL    HW2 2695   2.456  -0.038   1.323 -1.6528  0.8271  0.4878
  674SOL     MW 2696   2.432   0.040   1.298 -0.1518  0.1179  0.6189
  675SOL     OW 2697   3.046   0.876   1.059  0.5831  0.3184  0.2756
  675SOL    HW1 2698   3.128   0.862   1.109 -2.7609 -2.3950 -0.4928
  675SOL    HW2 2699   3.066   0.936   0.986  0.6761  0.3054  1.9163
  675SOL     MW 2700   3.060   0.882   1.056  0.1541 -0.0413  0.3907
  676SOL     OW 2701   2.867   1.501   1.651  0.3377  0.7942 -0.5032
  676SOL    HW1 2702   2.796   1.431   1.633 -3.2639 -0.6789 -1.8329
  676SOL    HW2 2703   2.945   1.471   1.701  0.9712 -1.6045 -1.5849
  676SOL     MW 2704   2.868   1.488   1.655 -0.0539  0.2834 -0.8213
  677SOL     OW 2705   2.401   0.596   1.974 -0.0725 -0.6517  0.4486
  677SOL    HW1 2706   2.341   0.570   1.906  0.9676  0.5705 -2.5444
  677SOL    HW2 2707   2.355   0.668   2.013  2.4301 -2.0066  0.5946
  677SOL     MW 2708   2.387   0.602   1.970  0.3949 -0.6692  0.0729
  678SOL     OW 2709   2.541   1.648   0.332  1.4478  0.0566 -0.5751
  678SOL    HW1 2710   2.465   1.702   0.366 -1.3041  0.7087  0.5584
  678SOL    HW2 2711   2.503   1.571   0.277 -0.7213 -1.6972 -1.1189
  678SOL     MW 2712   2.526   1.645   0.330  0.7985 -0.0888 -0.4973
  679SOL     OW 2713   2.250   0.490   1.226 -0.0928 -0.0467  0.2887
  679SOL    HW1 2714   2.235   0.398   1.206  2.7253 -0.3820 -0.1048
  679SOL    HW2 2715   2.166   0.536   1.230 -1.3786 -1.0636  3.5309
  679SOL     MW 2716   2.237   0.484   1.224  0.1094 -0.2251  0.6645
  680SOL     OW 2717   2.356   0.191   1.518  0.1873  0.1831 -0.3155
  680SOL    HW1 2718   2.269   0.220   1.501  5.1656 -0.4889  0.1841
  680SOL    HW2 2719   2.380   0.132   1.450 -0.2719  1.7524  1.4199
  680SOL     MW 2720   2.348   0.187   1.507  0.7836  0.3015 -0.0206
  681SOL     OW 2721   0.292   0.575   1.569 -0.1545 -0.8528 -0.0993
  681SOL    HW1 2722   0.274   0.502   1.619 -0.8963  1.6364 -2.4281
  681SOL    HW2 2723   0.382   0.591   1.595  0.2556 -2.4852 -0.8817
  681SOL     MW 2724   0.302   0.568   1.579 -0.1982 -0.7398 -0.5098
  682SOL     OW 2725   0.080   2.891   1.488 -0.1693 -0.0932  0.0924
  682SOL    HW1 2726   0.034   2.967   1.461  0.7684  0.5070  0.6976
  682SOL    HW2 2727   0.049   2.889   1.576  0.6496 -0.2890  0.7146
  682SOL     MW 2728   0.070   2.901   1.496  0.0624 -0.0398  0.2543
  683SOL     OW 2729   2.051   0.853   2.981 -0.2687 -0.5007 -0.0683
  683SOL    HW1 2730   1.965   0.818   3.001 -1.5396 -0.4146  1.0035
  683SOL    HW2 2731   2.039   0.947   2.992 -0.8150 -1.4349 -2.3965
  683SOL     MW 2732   2.038   0.861   2.985 -0.5084 -0.6126 -0.2341
  684SOL     OW 2733   2.215   1.674   0.874 -0.1412 -0.4505 -0.5564
  684SOL    HW1 2734   2.179   1.605   0.826  1.7143  0.6467 -0.1965
  684SOL    HW2 2735   2.260   1.632   0.955 -1.1153  1.1321  1.3543
  684SOL     MW 2736   2.216   1.660   0.878 -0.0249 -0.0969 -0.2568
  685SOL     OW 2737   2.660   1.758   1.221 -0.4305 -0.0773 -0.5422
  685SOL    HW1 2738   2.684   1.715   1.305 -0.3747  1.3048  0.0766
  685SOL    HW2 2739   2.620   1.687   1.167 -0.2082 -2.0568  0.5568
  685SOL     MW 2740   2.658   1.743   1.225 -0.3938 -0.1561 -0.3155
  686SOL     OW 2741   2.907   0.771   1.513 -0.2046  0.0796 -0.4666
  686SOL    HW1 2742   2.884   0.718   1.588 -2.2527  1.5920 -1.3225
  686SOL    HW2 2743   2.996   0.742   1.492 -1.6728  1.8413 -0.0042
  686SOL     MW 2744   2.916   0.760   1.520 -0.6685  0.5116 -0.5185
  687SOL     OW 2745   2.106   0.223   1.136  0.1367  0.0126  0.2506
  687SOL    HW1 2746   2.151   0.161   1.079  3.4396  0.5970  0.0727
  687SOL    HW2 2747   2.023   0.246   1.098  1.0631  2.5015  1.5245
  687SOL     MW 2748   2.101   0.218   1.124  0.6947  0.4181  0.3952
  688SOL     OW 2749   2.387   0.605   1.431  0.2510 -0.5308  0.3363
  688SOL    HW1 2750   2.351   0.550   1.355 -2.5118 -1.1408 -0.3006
  688SOL    HW2 2751   2.306   0.640   1.467 -1.3179 -4.3027 -2.0079
  688SOL     MW 2752   2.372   0.602   1.426 -0.3206 -1.1089 -0.0571
  689SOL     OW 2753   2.542   0.737   2.977 -0.3315  0.2862  0.1572
  689SOL    HW1 2754   2.571   0.804   2.918  1.4663 -0.1756  1.1965
  689SOL    HW2 2755   2.570   0.783   3.057 -3.3926 -2.5641 -2.1081
  689SOL     MW 2756   2.549   0.752   2.980 -0.4982 -0.1508 -0.0045
  690SOL     OW 2757   2.051   0.956   1.920 -0.6148  0.3362 -0.5601
  690SOL    HW1 2758   2.013   0.865   1.899 -1.8278 -0.9821 -0.8131
  690SOL    HW2 2759   2.094   0.986   1.839  0.3671  3.8370 -1.0347
  690SOL     MW 2760   2.052   0.948   1.907 -0.6453  0.6242 -0.6561
  691SOL     OW 2761   2.415   0.276   0.886 -0.6801  0.1196  0.3267
  691SOL    HW1 2762   2.478   0.336   0.926 -0.3495 -1.6968  2.9052
  691SOL    HW2 2763   2.332   0.321   0.888 -2.3063 -1.8174 -0.1737
  691SOL     MW 2764   2.413   0.290   0.891 -0.8511 -0.3756  0.6009
  692SOL     OW 2765   2.783   1.690   1.455  0.4711 -0.1110 -0.0547
  692SOL    HW1 2766   2.806   1.629   1.530  3.9954  2.9558  2.4511
  692SOL    HW2 2767   2.835   1.768   1.473  0.7934  0.3160 -0.3252
  692SOL     MW 2768   2.793   1.693   1.467  0.9787  0.3500  0.2402
  693SOL     OW 2769   2.265   0.432   0.090  0.3009 -0.2186  0.0745
  693SOL    HW1 2770   2.194   0.363   0.073 -1.8848 -0.3235  2.1204
  693SOL    HW2 2771   2.268   0.513   0.033 -1.0996 -2.5861  0.3789
  693SOL     MW 2772   2.256   0.433   0.080 -0.1723 -0.5448  0.3846
  694SOL     OW 2773   1.917   1.213   1.121  0.6136 -0.4126  0.3205
  694SOL    HW1 2774   2.007   1.210   1.157 -2.0471 -2.0167  0.8697
  694SOL    HW2 2775   1.868   1.148   1.170  0.3577  0.1318 -3.3446
  694SOL     MW 2776   1.923   1.204   1.132  0.2288 -0.5524 -0.0906
  695SOL     OW 2777   3.017   1.483   1.359 -0.1114  0.1671 -0.3160
  695SOL    HW1 2778   3.003   1.436   1.279 -0.0724 -0.7608 -1.0388
  695SOL    HW2 2779   2.938   1.536   1.383 -1.2070  0.4985  0.3181
  695SOL     MW 2780   3.005   1.484   1.352 -0.2508  0.0884 -0.3277
  696SOL     OW 2781   2.154   1.385   0.883  0.4317 -0.0421  0.3890
  696SOL    HW1 2782   2.197   1.433   0.953 -2.7955  1.1385 -4.2077
  696SOL    HW2 2783   2.138   1.303   0.926  0.1101  0.6635 -1.0110
  696SOL     MW 2784   2.157   1.380   0.898 -0.0366  0.2068 -0.4022
  697SOL     OW 2785   2.927   1.064   2.186  0.0288 -0.4751 -0.1367
  697SOL    HW1 2786   2.852   1.125   2.171 -2.5882  1.2546 -3.1830
  697SOL    HW2 2787   2.900   0.982   2.149 -0.6985  2.6695  1.4350
  697SOL     MW 2788   2.914   1.061   2.179 -0.4125  0.1680 -0.3313
  698SOL     OW 2789   2.540   0.295   0.031 -0.3092 -0.1808 -0.4042
  698SOL    HW1 2790   2.451   0.320   0.058  1.1895  1.4998  1.5002
  698SOL    HW2 2791   2.566   0.239   0.111  0.2370  0.7634 -0.6578
  698SOL     MW 2792   2.532   0.291   0.045 -0.0394  0.1655 -0.1864
  699SOL     OW 2793   1.823   1.617   2.000 -0.0420 -0.1288  0.4146
  699SOL    HW1 2794   1.790   1.529   2.032 -5.0125  1.1515 -0.4665
  699SOL    HW2 2795   1.922   1.617   1.990  0.7692  1.7298 -0.8850
  699SOL     MW 2796   1.832   1.605   2.003 -0.5908  0.2854  0.1269
  700SOL     OW 2797   2.705   0.937   1.489 -0.2276 -0.0559  0.2718
  700SOL    HW1 2798   2.755   1.006   1.442 -3.8305  2.0582 -0.4453
  700SOL    HW2 2799   2.767   0.858   1.488  1.0843  0.4806 -1.3169
  700SOL     MW 2800   2.719   0.936   1.483 -0.5299  0.2938 -0.0324
  701SOL     OW 2801   1.618   1.204   2.481  0.0106 -0.3200  0.4003
  701SOL    HW1 2802   1.710   1.229   2.463 -1.6730  0.0771 -1.2803
  701SOL    HW2 2803   1.610   1.242   2.566  0.8716  2.1403  1.0385
  701SOL     MW 2804   1.629   1.212   2.490 -0.0979  0.0570  0.2628
  702SOL     OW 2805   2.166   0.417   0.861 -0.4798 -0.0119 -0.4749
  702SOL    HW1 2806   2.163   0.346   0.790 -0.4416  0.5395 -0.3602
  702SOL    HW2 2807   2.210   0.483   0.806  0.5549 -0.6904 -0.3008
  702SOL     MW 2808   2.172   0.416   0.845 -0.3382 -0.0286 -0.4368
  703SOL     OW 2809   2.744   1.247   0.998 -0.0275  0.1557 -0.1255
  703SOL    HW1 2810   2.677   1.235   0.933 -0.0695  0.6210  2.6836
  703SOL    HW2 2811   2.761   1.156   1.031  1.4379 -2.7606  1.5676
  703SOL     MW 2812   2.737   1.234   0.994  0.1603 -0.1677  0.4685
  704SOL     OW 2813   3.057   1.246   0.188 -0.2078 -0.4347 -0.4660
  704SOL    HW1 2814   2.971   1.227   0.141 -0.1029  3.6268 -0.0925
  704SOL    HW2 2815   3.055   1.232   0.283  1.0729  1.1408  3.8555
  704SOL     MW 2816   3.045   1.242   0.194 -0.0250  0.3091  0.1534
  705SOL     OW 2817   2.212   1.644   1.327 -0.3214  0.0103  0.0886
  705SOL    HW1 2818   2.125   1.619   1.352  2.9518  2.0136 -1.4128
  705SOL    HW2 2819   2.272   1.567   1.365  0.3193 -4.6938  0.1940
  705SOL     MW 2820   2.209   1.630   1.335  0.1950 -0.3461 -0.0956
  706SOL     OW 2821   3.000   1.202   0.688 -0.1227  0.0930  0.0696
  706SOL    HW1 2822   3.055   1.218   0.604 -0.4125  0.6643 -2.2084
  706SOL    HW2 2823   2.965   1.287   0.717 -0.5717 -2.8426  1.1708
  706SOL     MW 2824   3.003   1.215   0.680 -0.2202 -0.2190 -0.0857
  707SOL     OW 2825   2.431   0.019   1.007  0.0320  0.4733 -0.2874
  707SOL    HW1 2826   2.422   0.106   0.979  0.8342 -2.0580 -1.9136
  707SOL    HW2 2827   2.351  -0.018   0.965 -2.7844  0.1324 -0.3733
  707SOL     MW 2828   2.419   0.026   0.998 -0.2338  0.0943 -0.5133
  708SOL     OW 2829   2.485   1.465   0.151 -0.6777 -0.3167  0.4419
  708SOL    HW1 2830   2.570   1.424   0.173  1.4003  0.6909  0.7680
  708SOL    HW2 2831   2.482   1.495   0.056 -0.7533 -0.0558 -1.6752
  708SOL     MW 2832   2.496   1.463   0.141 -0.4135 -0.1493  0.2056
  709SOL     OW 2833   1.759   1.612   0.176  0.2087 -0.3040  0.6243
  709SOL    HW1 2834   1.750   1.629   0.078 -0.0330  3.1536 -2.7821
  709SOL    HW2 2835   1.683   1.641   0.227  0.3238 -1.7205  1.5675
  709SOL     MW 2836   1.748   1.618   0.170  0.1920 -0.0347  0.2993
  710SOL     OW 2837   2.208   1.204   1.218  0.0139  1.6226 -0.4351
  710SOL    HW1 2838   2.251   1.161   1.142 -2.2295  0.3090 -1.7202
  710SOL    HW2 2839   2.204   1.131   1.279  2.7158  0.2956  0.7192
  710SOL     MW 2840   2.213   1.189   1.216  0.0744  1.2742 -0.4524
  711SOL     OW 2841   2.343   0.118   1.797 -0.1853 -0.0177  0.1877
  711SOL    HW1 2842   2.436   0.125   1.788  0.0147  2.8434 -0.8142
  711SOL    HW2 2843   2.320   0.112   1.708  3.5489 -0.8279  0.7905
  711SOL     MW 2844   2.352   0.118   1.784  0.3338  0.2529  0.1351
  712SOL     OW 2845   1.936   0.519   0.049  0.3699 -0.0387 -0.2978
  712SOL    HW1 2846   1.870   0.583   0.044 -1.3564 -1.9404  1.5159
  712SOL    HW2 2847   1.992   0.547   0.118  0.7578  0.9208  4.0774
  712SOL     MW 2848   1.935   0.531   0.057  0.1933 -0.1630  0.5188
  713SOL     OW 2849   2.560   0.820   1.114 -0.4785  0.9505 -0.1243
  713SOL    HW1 2850   2.583   0.724   1.104  2.6925  0.2941  0.0588
  713SOL    HW2 2851   2.514   0.831   1.198 -0.0044 -1.7612  2.0350
  713SOL     MW 2852   2.557   0.809   1.124  0.0024  0.5061  0.1848
  714SOL     OW 2853   2.208   0.229   1.998  0.6089 -0.0461  0.3522
  714SOL    HW1 2854   2.237   0.181   2.075 -1.7434  2.6653 -0.4662
  714SOL    HW2 2855   2.274   0.213   1.929  0.9188  0.6590 -1.4402
  714SOL     MW 2856   2.221   0.221   1.999  0.3394  0.4047  0.0077
  715SOL     OW 2857   1.725   1.957   1.674  0.0524 -0.0621 -0.2007
  715SOL    HW1 2858   1.802   1.928   1.632 -1.8919 -2.2775 -1.7923
  715SOL    HW2 2859   1.696   1.870   1.717  2.1291 -1.4800  1.4775
  715SOL     MW 2860   1.731   1.942   1.674  0.0698 -0.5415 -0.1892
  716SOL     OW 2861   2.319   0.641   0.677 -0.0873 -0.1256 -0.0588
  716SOL    HW1 2862   2.363   0.567   0.635 -0.4847 -1.5255  0.9490
  716SOL    HW2 2863   2.257   0.667   0.608  1.4344  1.0873 -2.4095
  716SOL     MW 2864   2.317   0.635   0.663  0.0610 -0.1503 -0.2360
  717SOL     OW 2865   2.882   1.530   2.935 -0.3001  0.5257  0.0110
  717SOL    HW1 2866   2.974   1.533   2.960 -0.5983 -0.2728  0.1983
  717SOL    HW2 2867   2.843   1.577   3.011  0.7937 -0.1086  0.7388
  717SOL     MW 2868   2.889   1.537   2.948 -0.1951  0.3366  0.1317
  718SOL     OW 2869   2.650   1.398   1.328  0.6678  0.2112 -0.2821
  718SOL    HW1 2870   2.656   1.399   1.426 -1.6069 -0.3281  1.4444
  718SOL    HW2 2871   2.700   1.321   1.294  1.7294 -2.1678 -1.4913
  718SOL     MW 2872   2.657   1.388   1.336  0.5077 -0.1738 -0.2139
  719SOL     OW 2873   2.189   1.300   0.609 -0.2417 -0.8378 -0.4468
  719SOL    HW1 2874   2.282   1.325   0.598  2.0761 -2.1651 -1.1493
  719SOL    HW2 2875   2.169   1.301   0.704 -2.8936 -0.3033  0.3962
  719SOL     MW 2876   2.199   1.303   0.620 -0.2858 -0.9424 -0.4282
  720SOL     OW 2877   2.832   1.177   0.041 -0.6137  0.4471 -0.3622
  720SOL    HW1 2878   2.812   1.094   0.081 -2.8300  0.9217  0.0021
  720SOL    HW2 2879   2.778   1.243   0.083 -1.9783  1.4408  0.0556
  720SOL     MW 2880   2.822   1.175   0.052 -1.0862  0.6408 -0.2590
  721SOL     OW 2881   2.434   0.860   1.355  0.0818  0.2820  0.1482
  721SOL    HW1 2882   2.438   0.766   1.390  0.9770  0.1705 -0.8346
  721SOL    HW2 2883   2.525   0.895   1.379  3.2754  1.7404 -4.4128
  721SOL     MW 2884   2.447   0.852   1.362  0.6212  0.4597 -0.5833
  722SOL     OW 2885   2.579   1.171   0.376  0.6958  0.0205  0.2045
  722SOL    HW1 2886   2.510   1.216   0.420 -0.9826  1.0812 -3.8994
  722SOL    HW2 2887   2.639   1.122   0.440 -1.9904 -0.2860 -0.8347
  722SOL     MW 2888   2.578   1.171   0.390  0.1199  0.1200 -0.4741
  723SOL     OW 2889   2.258   1.415   1.638 -0.3213 -0.3188 -0.4432
  723SOL    HW1 2890   2.245   1.382   1.546  1.3992 -2.4230 -1.7011
  723SOL    HW2 2891   2.203   1.492   1.651 -1.7715 -0.4073 -0.1592
  723SOL     MW 2892   2.249   1.421   1.627 -0.2857 -0.6081 -0.5717
  724SOL     OW 2893   2.452   0.397   0.638 -0.3128 -0.0875  0.0074
  724SOL    HW1 2894   2.435   0.347   0.716  0.3481  2.3435 -0.1779
  724SOL    HW2 2895   2.540   0.375   0.616 -0.7728  0.6417  1.2576
  724SOL     MW 2896   2.461   0.387   0.645 -0.2863  0.3295  0.1479
  725SOL     OW 2897   2.578   0.544   1.178 -0.4500  0.0263 -0.2775
  725SOL    HW1 2898   2.637   0.571   1.260  0.9825  2.4311  0.2366
  725SOL    HW2 2899   2.509   0.489   1.219  2.1799 -1.3327  1.9107
  725SOL     MW 2900   2.577   0.540   1.195  0.0860  0.1643  0.0790
  726SOL     OW 2901   2.608   2.445   0.534 -0.1962 -0.2505  0.4684
  726SOL    HW1 2902   2.558   2.494   0.469  4.7294  0.8339 -1.4695
  726SOL    HW2 2903   2.555   2.372   0.580 -1.2830 -1.0300  2.4050
  726SOL     MW 2904   2.595   2.442   0.532  0.3103 -0.2103  0.4682
  727SOL     OW 2905   2.869   0.296   1.631  0.2967 -0.1279 -0.0046
  727SOL    HW1 2906   2.858   0.291   1.538  0.6285  0.3970 -0.4243
  727SOL    HW2 2907   2.789   0.323   1.675  0.3484  0.9130  0.5286
  727SOL     MW 2908   2.857   0.299   1.625  0.3473  0.0787  0.0104
  728SOL     OW 2909   2.822   1.154   2.871 -0.1878  0.2393 -0.8210
  728SOL    HW1 2910   2.843   1.238   2.833  1.9415  0.7040 -0.1042
  728SOL    HW2 2911   2.830   1.182   2.966  1.6574 -1.0465 -2.6476
  728SOL     MW 2912   2.826   1.169   2.878  0.3366  0.1310 -0.9674
  729SOL     OW 2913   2.549   1.514   1.108  0.1090 -0.0591 -0.1188
  729SOL    HW1 2914   2.597   1.471   1.181 -0.1308 -1.3642  0.7596
  729SOL    HW2 2915   2.606   1.502   1.026  1.3731 -0.2060  1.1548
  729SOL     MW 2916   2.563   1.507   1.107  0.2442 -0.2506  0.1651
  730SOL     OW 2917   2.142   1.179   0.205  0.0796 -0.0427 -0.5552
  730SOL    HW1 2918   2.238   1.162   0.198 -1.8655  0.9597 -2.2858
  730SOL    HW2 2919   2.127   1.262   0.248  0.1761  0.1420  0.5554
  730SOL     MW 2920   2.153   1.188   0.209 -0.1643  0.1140 -0.6370
  731SOL     OW 2921   2.838   1.918   2.863 -0.5029 -0.1179  0.2038
  731SOL    HW1 2922   2.755   1.935   2.801 -2.2254  0.0500 -1.8593
  731SOL    HW2 2923   2.908   1.980   2.837  1.4035 -0.1432 -1.0412
  731SOL     MW 2924   2.836   1.928   2.851 -0.4786 -0.0991 -0.2326
  732SOL     OW 2925   2.173   0.958   1.366  0.5535 -0.2210 -0.8457
  732SOL    HW1 2926   2.154   0.985   1.458  1.1188 -2.0919  0.9518
  732SOL    HW2 2927   2.266   0.945   1.368  1.3506  0.5486 -1.6026
  732SOL     MW 2928   2.183   0.960   1.378  0.7332 -0.3663 -0.7084
  733SOL     OW 2929   2.323   2.769   3.059  0.6644 -0.1615  0.4796
  733SOL    HW1 2930   2.247   2.817   3.028  2.2955  2.2182 -2.5469
  733SOL    HW2 2931   2.316   2.675   3.027 -0.4777  0.0386 -0.3231
  733SOL     MW 2932   2.312   2.763   3.051  0.7289  0.1789 -0.0256
  734SOL     OW 2933   1.482   0.378   2.451 -1.0313 -0.3875 -0.1197
  734SOL    HW1 2934   1.470   0.326   2.528 -1.6045 -0.3873 -0.2924
  734SOL    HW2 2935   1.527   0.317   2.386 -0.8310  0.0970 -1.6879
  734SOL     MW 2936   1.486   0.363   2.453 -1.0805 -0.3236 -0.3494
  735SOL     OW 2937   2.929   0.935   2.592 -0.4871 -0.7091  0.2897
  735SOL    HW1 2938   2.930   0.837   2.592 -0.8685  0.2037  0.4420
  735SOL    HW2 2939   2.984   0.968   2.668  1.7184  0.8383  0.6228
  735SOL     MW 2940   2.936   0.927   2.602 -0.2465 -0.3845  0.3538
  736SOL     OW 2941   0.136   0.579   2.529 -0.4024 -0.3305 -0.4308
  736SOL    HW1 2942   0.187   0.651   2.489  2.3558  1.4606 -0.3797
  736SOL    HW2 2943   0.103   0.534   2.451 -0.4603 -0.1932 -0.7424
  736SOL     MW 2944   0.138   0.582   2.513 -0.0461 -0.0760 -0.4651
  737SOL     OW 2945   2.961   0.647   2.559  0.1720 -0.6593 -0.5864
  737SOL    HW1 2946   2.931   0.611   2.476  1.8922 -0.6617 -1.2945
  737SOL    HW2 2947   3.055   0.644   2.539  1.5564  1.1074 -0.3795
  737SOL     MW 2948   2.969   0.642   2.545  0.5816 -0.4265 -0.6525
  738SOL     OW 2949   0.240   0.570   1.885 -0.5204 -0.0619 -0.2595
  738SOL    HW1 2950   0.326   0.589   1.927  1.6673 -1.0991 -1.6519
  738SOL    HW2 2951   0.247   0.480   1.850 -1.1586  2.0538  0.3424
  738SOL     MW 2952   0.253   0.560   1.886 -0.3160  0.0804 -0.3638
  739SOL     OW 2953   2.416   1.055   2.115  0.4394  0.8706 -0.3358
  739SOL    HW1 2954   2.360   0.983   2.081 -1.3161  0.0759  0.3920
  739SOL    HW2 2955   2.455   1.093   2.038  1.9084 -0.8206 -0.4664
  739SOL     MW 2956   2.414   1.051   2.101  0.4016  0.5426 -0.2570
  740SOL     OW 2957   0.244   1.777   2.971  0.4128  0.1399 -0.5700
  740SOL    HW1 2958   0.205   1.689   2.972  0.7403  0.6284 -0.3158
  740SOL    HW2 2959   0.337   1.754   2.990  0.5500 -2.0642 -0.6659
  740SOL     MW 2960   0.251   1.762   2.973  0.4741 -0.0864 -0.5491
  741SOL     OW 2961   2.267   1.273   2.725  0.0828 -0.2562  0.1201
  741SOL    HW1 2962   2.208   1.319   2.665  0.6516  1.7597 -1.5393
  741SOL    HW2 2963   2.228   1.290   2.813 -2.6732 -1.7596 -1.0678
  741SOL     MW 2964   2.254   1.281   2.729 -0.2058 -0.1886 -0.2555
  742SOL     OW 2965   1.554   1.259   2.201 -0.3767  0.1201  0.0450
  742SOL    HW1 2966   1.503   1.181   2.177 -3.4032  1.7576  0.8037
  742SOL    HW2 2967   1.579   1.239   2.292 -0.2120 -0.6507  1.5449
  742SOL     MW 2968   1.550   1.246   2.210 -0.7543  0.2344  0.3430
  743SOL     OW 2969   2.527   1.262   2.797  0.0647  0.1127 -0.1792
  743SOL    HW1 2970   2.440   1.274   2.764  0.1601  0.0112  0.8806
  743SOL    HW2 2971   2.531   1.160   2.828  0.2856 -2.2420  2.5845
  743SOL     MW 2972   2.516   1.250   2.797  0.1064 -0.2114  0.3252
  744SOL     OW 2973   2.724   0.948   1.772 -0.3800  0.1885 -0.2427
  744SOL    HW1 2974   2.645   0.999   1.807 -0.7196 -0.7784  0.6327
  744SOL    HW2 2975   2.704   0.950   1.678 -0.5427 -1.4824 -1.3821
  744SOL     MW 2976   2.711   0.955   1.764 -0.4463 -0.1595 -0.2775
  745SOL     OW 2977   1.753   0.420   2.519 -0.2077  0.4731 -0.2106
  745SOL    HW1 2978   1.765   0.486   2.444  1.4750  1.6797  3.0418
  745SOL    HW2 2979   1.662   0.413   2.535  0.3369  0.1211 -1.4998
  745SOL     MW 2980   1.743   0.428   2.511  0.0862  0.5859  0.0484
  746SOL     OW 2981   1.507   1.418   1.639  0.8417  0.0409 -0.2230
  746SOL    HW1 2982   1.581   1.474   1.665  2.2297  0.0467  0.5785
  746SOL    HW2 2983   1.482   1.385   1.730 -0.7553 -0.4959  0.7883
  746SOL     MW 2984   1.513   1.421   1.654  0.8142 -0.0292  0.0162
  747SOL     OW 2985   2.523   1.136   1.850  0.2818 -0.9007 -0.8092
  747SOL    HW1 2986   2.442   1.149   1.804 -2.9637  0.0838  4.1160
  747SOL    HW2 2987   2.547   1.220   1.890  0.2118 -3.2631  1.2147
  747SOL     MW 2988   2.516   1.149   1.849 -0.1556 -1.0825  0.1077
  748SOL     OW 2989   0.115   0.074   1.815  0.5677 -0.2054  0.0681
  748SOL    HW1 2990   0.171  -0.002   1.822 -1.2683  0.3947 -0.2800
  748SOL    HW2 2991   0.108   0.116   1.897 -0.3889 -0.5043  0.4117
  748SOL     MW 2992   0.121   0.070   1.827  0.1992 -0.1657  0.0675
  749SOL     OW 2993   2.399   0.549   2.798 -0.2504  0.6892  0.2891
  749SOL    HW1 2994   2.418   0.631   2.752  1.3655  2.1335  0.4407
  749SOL    HW2 2995   2.455   0.564   2.868 -4.1416 -0.9096 -2.0093
  749SOL     MW 2996   2.409   0.562   2.801 -0.5506  0.6688  0.0059
  750SOL     OW 2997   2.069   3.090   1.957 -0.1708 -0.3135  0.0428
  750SOL    HW1 2998   2.122   3.169   1.948 -2.9515  0.2230  2.9452
  750SOL    HW2 2999   2.135   3.017   1.971  1.2915 -2.0268  1.6535
  750SOL     MW 3000   2.085   3.091   1.958 -0.3448 -0.4688  0.6383
  751SOL     OW 3001   0.021   0.430   2.314  0.1757  0.2737  0.3421
  751SOL    HW1 3002  -0.045   0.359   2.319 -1.5210 -0.6386  0.3175
  751SOL    HW2 3003   0.094   0.387   2.265 -1.5531 -0.5839  0.7829
  751SOL     MW 3004   0.022   0.415   2.308 -0.2762  0.0402  0.3970
  752SOL     OW 3005   2.125   0.847   2.711 -0.7897 -0.0146  0.2658
  752SOL    HW1 3006   2.189   0.918   2.705  1.8522 -1.2012 -0.4453
  752SOL    HW2 3007   2.091   0.850   2.800  2.4136 -3.6138  1.4412
  752SOL     MW 3008   2.129   0.857   2.722 -0.0185 -0.6461  0.3270
  753SOL     OW 3009   2.878   0.295   2.325  0.0585 -0.4530  0.2919
  753SOL    HW1 3010   2.803   0.235   2.306  1.0617 -2.4909 -0.5458
  753SOL    HW2 3011   2.836   0.379   2.351  0.6861  0.4322  1.6199
  753SOL     MW 3012   2.863   0.298   2.326  0.2737 -0.6051  0.3566
  754SOL     OW 3013   2.237   3.004   2.686  0.3294 -0.3675  0.0342
  754SOL    HW1 3014   2.225   2.993   2.586  0.8048 -0.0521 -0.6526
  754SOL    HW2 3015   2.309   2.945   2.712 -2.6445 -1.2551  0.2628
  754SOL     MW 3016   2.245   2.995   2.676 -0.0002 -0.4430 -0.0262
  755SOL     OW 3017   2.724   1.576   2.486 -0.3969  0.1299 -0.4304
  755SOL    HW1 3018   2.738   1.512   2.554  0.5549  0.4873  0.5106
  755SOL    HW2 3019   2.766   1.659   2.516 -2.2807  2.9494  3.0984
  755SOL     MW 3020   2.731   1.579   2.499 -0.5198  0.5490  0.1593
  756SOL     OW 3021   2.255   1.309   2.974  0.2337  0.4241  0.4605
  756SOL    HW1 3022   2.316   1.379   3.002 -1.6247  2.7361 -1.4136
  756SOL    HW2 3023   2.295   1.220   2.992  0.4557  0.3126  0.2053
  756SOL     MW 3024   2.269   1.307   2.980  0.0178  0.7144  0.1796
  757SOL     OW 3025   2.102   0.979   1.627 -0.2010  0.8974  0.7213
  757SOL    HW1 3026   2.125   0.886   1.610  0.2246  0.2736 -1.4880
  757SOL    HW2 3027   2.004   0.988   1.615 -0.0189 -0.0526  1.3175
  757SOL     MW 3028   2.092   0.968   1.623 -0.1208  0.6897  0.5085
  758SOL     OW 3029   2.199   1.782   2.658 -0.3062  0.4098 -0.0488
  758SOL    HW1 3030   2.177   1.828   2.576  0.3828  2.8782  0.1679
  758SOL    HW2 3031   2.284   1.731   2.652  0.1326  2.2253  1.4786
  758SOL     MW 3032   2.208   1.781   2.647 -0.1574  0.9750  0.1813
  759SOL     OW 3033   1.566   1.326   2.734 -0.2569 -0.5581 -0.1026
  759SOL    HW1 3034   1.574   1.409   2.684 -3.1497 -1.1566 -2.1473
  759SOL    HW2 3035   1.629   1.348   2.799 -1.1035  3.5294  0.6639
  759SOL     MW 3036   1.575   1.339   2.736 -0.7503 -0.0978 -0.2713
  760SOL     OW 3037   2.615   1.948   2.730 -0.2178  0.2543  0.1616
  760SOL    HW1 3038   2.580   1.878   2.690  0.6643  0.9812  0.3961
  760SOL    HW2 3039   2.635   2.011   2.660 -2.2315  2.8401 -0.1965
  760SOL     MW 3040   2.613   1.947   2.715 -0.3671  0.6914  0.1453
  761SOL     OW 3041   2.091   0.442   2.469 -0.2968 -0.9157 -0.0457
  761SOL    HW1 3042   2.015   0.391   2.475  3.0827  1.5623  1.4685
  761SOL    HW2 3043   2.119   0.485   2.556 -2.0665 -1.8922  3.0836
  761SOL     MW 3044   2.085   0.441   2.482 -0.0844 -0.7176  0.5669
  762SOL     OW 3045   0.012   0.196   2.059  0.0018 -0.1611  0.0638
  762SOL    HW1 3046  -0.038   0.139   2.121 -1.3376  0.7248  1.1622
  762SOL    HW2 3047  -0.059   0.261   2.038 -0.3570  1.2731 -0.1344
  762SOL     MW 3048  -0.004   0.197   2.064 -0.2222  0.1450  0.1826
  763SOL     OW 3049   2.367   1.113   2.379  0.1252 -0.8931 -0.1889
  763SOL    HW1 3050   2.401   1.069   2.302 -4.1138 -0.9060  0.4485
  763SOL    HW2 3051   2.437   1.173   2.404 -2.6711  1.8409 -1.0828
  763SOL     MW 3052   2.381   1.115   2.372 -0.8030 -0.5341 -0.2227
  764SOL     OW 3053   0.383   0.192   2.807  0.3101  0.2243 -0.9838
  764SOL    HW1 3054   0.292   0.195   2.771 -2.0819 -0.5012  3.4284
  764SOL    HW2 3055   0.372   0.262   2.875  1.3044 -0.2095  1.0896
  764SOL     MW 3056   0.369   0.202   2.811  0.1257  0.0714 -0.1281
  765SOL     OW 3057   2.667   0.083   2.283 -0.2527 -0.2927 -0.2762
  765SOL    HW1 3058   2.613   0.065   2.204 -0.7875  0.1872  0.2250
  765SOL    HW2 3059   2.731   0.015   2.298 -1.1947  0.2924 -0.3995
  765SOL     MW 3060   2.669   0.071   2.274 -0.4475 -0.1522 -0.2263
  766SOL     OW 3061   1.863   3.035   2.121  0.2588  0.1019 -0.7787
  766SOL    HW1 3062   1.950   3.052   2.080  2.8167 -0.5574  5.1980
  766SOL    HW2 3063   1.825   2.959   2.076 -1.6246  1.0006  0.4197
  766SOL     MW 3064   1.869   3.027   2.110  0.3478  0.1335  0.1680
  767SOL     OW 3065   2.688   0.663   1.920  0.2057 -0.4213  0.4755
  767SOL    HW1 3066   2.735   0.730   1.977 -1.6583  1.3487  3.3136
  767SOL    HW2 3067   2.598   0.683   1.914 -1.4946  0.5462  1.6382
  767SOL     MW 3068   2.683   0.675   1.927 -0.2646 -0.0601  1.0034
  768SOL     OW 3069   0.072   1.531   2.982  0.5554 -0.3394  0.6387
  768SOL    HW1 3070   0.095   1.501   3.070 -0.9171  0.4673  0.9962
  768SOL    HW2 3071   0.121   1.475   2.927  0.4694 -0.2524 -0.1282
  768SOL     MW 3072   0.082   1.519   2.986  0.3498 -0.2215  0.5847
  769SOL     OW 3073   2.341   0.664   2.331 -0.2804  0.0918 -0.5241
  769SOL    HW1 3074   2.267   0.615   2.302 -1.3411 -2.1687  0.7122
  769SOL    HW2 3075   2.418   0.642   2.280 -1.2443 -1.3154 -1.3289
  769SOL     MW 3076   2.341   0.654   2.321 -0.5475 -0.3921 -0.4672
  770SOL     OW 3077   0.039   1.671   2.611  0.4048  0.3325  0.0209
  770SOL    HW1 3078  -0.058   1.681   2.635 -0.3683  3.1981  0.7887
  770SOL    HW2 3079   0.069   1.583   2.654  0.3388  1.7828  0.8494
  770SOL     MW 3080   0.030   1.660   2.620  0.2941  0.9019  0.2315
  771SOL     OW 3081   3.065   0.684   1.951  0.3713  0.6738  0.4452
  771SOL    HW1 3082   3.029   0.673   1.855 -1.2136  1.4272 -1.5783
  771SOL    HW2 3083   3.155   0.662   1.941 -0.3131 -0.7883 -3.7778
  771SOL     MW 3084   3.072   0.680   1.937  0.0719  0.5803 -0.3789
  772SOL     OW 3085   3.093   0.018   2.279  0.3703 -0.0597 -0.4556
  772SOL    HW1 3086   3.009  -0.013   2.317 -2.7997 -1.2493  0.1252
  772SOL    HW2 3087   3.129  -0.062   2.239  2.8153 -0.2654 -0.0191
  772SOL     MW 3088   3.087   0.003   2.279  0.2747 -0.2438 -0.3214
  773SOL     OW 3089   2.420   2.826   2.752 -0.3895 -0.2614 -0.0700
  773SOL    HW1 3090   2.433   2.752   2.690 -0.0058  0.5487  0.0321
  773SOL    HW2 3091   2.406   2.797   2.842 -1.1298 -1.7556  0.1322
  773SOL     MW 3092   2.420   2.812   2.756 -0.4365 -0.3517 -0.0298
  774SOL     OW 3093   2.285   1.159   1.738 -0.2172 -0.2908  0.1404
  774SOL    HW1 3094   2.269   1.254   1.727 -2.4378  0.7552 -0.0885
  774SOL    HW2 3095   2.220   1.116   1.687 -2.6289  1.3180 -2.0508
  774SOL     MW 3096   2.274   1.166   1.730 -0.8284  0.0595 -0.1789
  775SOL     OW 3097   2.226   3.018   2.399 -0.3327 -0.5204  0.1628
  775SOL    HW1 3098   2.242   3.104   2.358  1.1871 -0.7755 -1.5699
  775SOL    HW2 3099   2.304   2.965   2.375  1.2634  2.3168 -1.1735
  775SOL     MW 3100   2.239   3.022   2.390  0.0784 -0.1797 -0.2421
  776SOL     OW 3101   0.136   1.447   0.139 -0.6643 -0.5055 -0.1418
  776SOL    HW1 3102   0.223   1.397   0.121  0.2353  1.2636  0.8619
  776SOL    HW2 3103   0.065   1.384   0.138  0.1263  1.2866 -4.2710
  776SOL     MW 3104   0.138   1.432   0.136 -0.4413 -0.0357 -0.5542
  777SOL     OW 3105   3.010   1.069   1.705 -0.1324 -0.2887 -0.1188
  777SOL    HW1 3106   2.989   1.136   1.637  1.6853 -0.5564 -1.3142
  777SOL    HW2 3107   2.926   1.020   1.709  0.8608 -0.0193 -0.7958
  777SOL     MW 3108   2.997   1.071   1.697  0.2384 -0.2885 -0.3658
  778SOL     OW 3109   2.853   0.438   2.758  0.4329  0.0375  0.2407
  778SOL    HW1 3110   2.818   0.469   2.841  2.1908 -0.5481 -2.9498
  778SOL    HW2 3111   2.889   0.521   2.717 -0.4725  1.7277 -1.3540
  778SOL     MW 3112   2.853   0.453   2.763  0.5454  0.1832 -0.3906
  779SOL     OW 3113   2.091   0.557   2.231  0.1322  0.4062 -0.1162
  779SOL    HW1 3114   2.026   0.614   2.199 -1.0150  0.2093 -2.0430
  779SOL    HW2 3115   2.057   0.527   2.311 -0.2864  1.7067  1.9400
  779SOL     MW 3116   2.078   0.561   2.237 -0.0744  0.5518 -0.0991
  780SOL     OW 3117   0.092   0.215   2.753 -0.4361 -0.2018  0.7281
  780SOL    HW1 3118   0.067   0.186   2.841 -1.0208 -3.1469  1.7680
  780SOL    HW2 3119   0.008   0.239   2.715 -0.1940 -0.2617  1.5197
  780SOL     MW 3120   0.078   0.215   2.759 -0.4813 -0.5983  0.9697
  781SOL     OW 3121   3.041   1.317   2.525  0.5136 -0.2510  0.8090
  781SOL    HW1 3122   3.025   1.375   2.448 -1.0769  0.4594  1.3445
  781SOL    HW2 3123   3.081   1.240   2.486  0.5998  1.8428 -2.1722
  781SOL     MW 3124   3.044   1.315   2.510  0.3151  0.1190  0.4863
  782SOL     OW 3125   0.727   1.483   3.091  0.8609 -0.7436 -0.2882
  782SOL    HW1 3126   0.683   1.573   3.082 -0.4433  0.0041 -1.3369
  782SOL    HW2 3127   0.787   1.486   3.174  0.5954  1.1065  0.2480
  782SOL     MW 3128   0.729   1.496   3.101  0.6538 -0.4009 -0.3558
  783SOL     OW 3129   2.732   0.508   2.399  0.1650 -0.4486 -0.5838
  783SOL    HW1 3130   2.671   0.505   2.325 -0.9692  0.6374  1.2424
  783SOL    HW2 3131   2.689   0.462   2.474  0.0089 -0.2608 -1.5125
  783SOL     MW 3132   2.719   0.502   2.399 -0.0053 -0.2805 -0.4654
  784SOL     OW 3133   0.173   0.836   2.800 -0.1690  0.0831  1.0612
  784SOL    HW1 3134   0.085   0.819   2.762 -0.5318 -2.3221 -1.6802
  784SOL    HW2 3135   0.225   0.887   2.728  0.5946  2.5392 -1.7111
  784SOL     MW 3136   0.169   0.841   2.785 -0.1161  0.0898  0.3338
  785SOL     OW 3137   0.410   0.510   2.179  0.0775 -0.2655 -0.1506
  785SOL    HW1 3138   0.454   0.546   2.102 -0.3938  0.9150 -1.0114
  785SOL    HW2 3139   0.343   0.453   2.147 -0.1833 -1.7179  3.2820
  785SOL     MW 3140   0.407   0.507   2.164 -0.0191 -0.3014  0.1887
  786SOL     OW 3141   1.979   0.338   2.940  0.2480  0.8745  0.4618
  786SOL    HW1 3142   1.971   0.389   3.018 -1.8027 -1.0160  1.9225
  786SOL    HW2 3143   2.005   0.399   2.872  0.3151  1.8068  1.3514
  786SOL     MW 3144   1.981   0.353   2.941 -0.0137  0.7481  0.7719
  787SOL     OW 3145   2.412   0.202   2.895  0.0658 -0.0395 -0.6678
  787SOL    HW1 3146   2.473   0.133   2.860  0.8108 -0.6357 -1.9303
  787SOL    HW2 3147   2.454   0.242   2.970  2.9315  2.1477  1.5153
  787SOL     MW 3148   2.426   0.198   2.900  0.5422  0.1704 -0.5463
  788SOL     OW 3149   2.855   3.009   2.362 -0.3567  0.2730  0.6338
  788SOL    HW1 3150   2.828   3.023   2.451  2.0826 -2.1361  0.5871
  788SOL    HW2 3151   2.908   2.933   2.336 -1.4728 -1.7887  2.0150
  788SOL     MW 3152   2.859   3.001   2.370 -0.1821 -0.3169  0.8099
  789SOL     OW 3153   0.082   0.199   3.040 -0.1839  0.8498 -0.3706
  789SOL    HW1 3154   0.003   0.138   3.053 -1.0464 -0.1750  1.9745
  789SOL    HW2 3155   0.052   0.290   3.025  0.1862  2.4259 -1.9873
  789SOL     MW 3156   0.068   0.203   3.040 -0.2489  0.9225 -0.2745
  790SOL     OW 3157   0.007   1.073   2.432  0.4369  0.5275  0.2069
  790SOL    HW1 3158  -0.050   1.021   2.489 -1.4645 -1.9908  1.9097
  790SOL    HW2 3159  -0.051   1.075   2.355 -1.8237 -1.3045  2.0326
  790SOL     MW 3160  -0.008   1.067   2.429 -0.1122 -0.0465  0.6724
  791SOL     OW 3161   2.600   0.404   2.643  0.1724 -0.1829 -0.0890
  791SOL    HW1 3162   2.527   0.441   2.683  1.2575 -0.4558 -0.7753
  791SOL    HW2 3163   2.675   0.433   2.701  1.0191  0.1054 -2.5718
  791SOL     MW 3164   2.600   0.413   2.656  0.4273 -0.1808 -0.5071
  792SOL     OW 3165   2.352   0.357   2.392 -0.1491 -0.3425  0.0146
  792SOL    HW1 3166   2.265   0.399   2.390  2.4772  5.6735 -1.7147
  792SOL    HW2 3167   2.359   0.316   2.475 -0.1237  4.3211  2.2362
  792SOL     MW 3168   2.341   0.357   2.403  0.2008  1.0666  0.0795
  793SOL     OW 3169   1.854   1.124   1.958 -0.7871 -0.7484  0.2596
  793SOL    HW1 3170   1.821   1.142   1.865 -1.0883  0.2001 -0.5245
  793SOL    HW2 3171   1.935   1.071   1.939  2.5407 -0.1814  0.9979
  793SOL     MW 3172   1.861   1.119   1.944 -0.3878 -0.5484  0.2535
  794SOL     OW 3173   1.422   2.272   0.136 -0.0128 -0.6621  0.2976
  794SOL    HW1 3174   1.436   2.334   0.060  0.8907  2.3253 -0.9228
  794SOL    HW2 3175   1.488   2.302   0.199 -1.1225 -2.0009 -1.9805
  794SOL     MW 3176   1.433   2.284   0.135 -0.0400 -0.4446 -0.1640
  795SOL     OW 3177   2.335   1.030   2.627  0.1297 -0.6254 -0.0940
  795SOL    HW1 3178   2.308   1.115   2.676  2.3357  1.9982 -1.0465
  795SOL    HW2 3179   2.352   1.055   2.531 -0.1776 -0.6227 -1.1169
  795SOL     MW 3180   2.334   1.045   2.621  0.3803 -0.2789 -0.3547
  796SOL     OW 3181   0.306   0.586   2.773 -0.1651  0.1034 -0.9060
  796SOL    HW1 3182   0.281   0.679   2.763  0.8133 -1.2655  2.0325
  796SOL    HW2 3183   0.238   0.543   2.723 -1.1166 -3.0013  0.4953
  796SOL     MW 3184   0.294   0.593   2.765 -0.1616 -0.4868 -0.3334
  797SOL     OW 3185   2.616   0.114   2.559 -0.1536  0.0684 -0.7924
  797SOL    HW1 3186   2.603   0.194   2.594  0.7531 -3.7506  0.1169
  797SOL    HW2 3187   2.620   0.110   2.459 -1.4162 -1.7652 -2.3532
  797SOL     MW 3188   2.615   0.124   2.550 -0.2006 -0.6774 -0.8784
  798SOL     OW 3189   2.293   0.124   2.241 -0.2402 -0.4293 -0.0810
  798SOL    HW1 3190   2.320   0.210   2.283  0.1141  1.1263 -1.0092
  798SOL    HW2 3191   2.376   0.089   2.207  1.9377  0.1310  0.1301
  798SOL     MW 3192   2.307   0.131   2.242  0.0939 -0.1502 -0.1756
  799SOL     OW 3193   2.542   2.960   3.077 -0.3232  0.1137  0.0325
  799SOL    HW1 3194   2.470   2.893   3.075 -1.3608  1.3990  0.8618
  799SOL    HW2 3195   2.488   3.036   3.108 -1.9498 -1.4377  0.9318
  799SOL     MW 3196   2.525   2.961   3.081 -0.6747  0.0786  0.2606
  800SOL     OW 3197   1.946   3.097   1.701 -0.2171  0.6087 -0.1351
  800SOL    HW1 3198   1.868   3.039   1.705 -0.5069 -0.3557  0.3166
  800SOL    HW2 3199   1.978   3.103   1.787 -1.1370 -1.4946  1.0836
  800SOL     MW 3200   1.940   3.090   1.713 -0.3767  0.2040  0.0853
  801SOL     OW 3201   2.780   1.302   2.624 -0.1320  0.2354 -0.3990
  801SOL    HW1 3202   2.749   1.214   2.634 -0.1275  2.7326 -2.5465
  801SOL    HW2 3203   2.875   1.289   2.594  1.0417 -1.8969  2.0122
  801SOL     MW 3204   2.789   1.289   2.621  0.0235  0.2835 -0.3642
  802SOL     OW 3205   2.630   1.521   2.742 -0.4239 -0.2781  0.0212
  802SOL    HW1 3206   2.639   1.422   2.737 -0.6987  0.0308 -1.1659
  802SOL    HW2 3207   2.699   1.539   2.806  2.8140 -0.3691 -0.3255
  802SOL     MW 3208   2.640   1.510   2.750 -0.0330 -0.2494 -0.1812
  803SOL     OW 3209   2.273   1.341   1.992 -0.8107  0.3713 -0.5245
  803SOL    HW1 3210   2.253   1.298   2.083 -0.2345  1.2462  3.2215
  803SOL    HW2 3211   2.275   1.272   1.927  0.8699 -0.8796  1.6186
  803SOL     MW 3212   2.271   1.327   1.995 -0.5129  0.3217  0.2525
  804SOL     OW 3213   2.302   0.053   3.080 -0.2070  0.0158 -0.2252
  804SOL    HW1 3214   2.232   0.119   3.112 -2.3526  1.5019 -0.0918
  804SOL    HW2 3215   2.332   0.090   2.997 -0.8696 -1.5463 -0.6520
  804SOL     MW 3216   2.297   0.066   3.073 -0.5775  0.0058 -0.2639
  805SOL     OW 3217   2.672   1.029   2.585 -0.2671  0.1111 -0.0048
  805SOL    HW1 3218   2.666   1.087   2.510 -0.7634 -1.2919 -0.8749
  805SOL    HW2 3219   2.767   0.994   2.592  1.3240  0.8257 -2.8601
  805SOL     MW 3220   2.684   1.032   2.576 -0.1227  0.0203 -0.4963
  806SOL     OW 3221   2.524   0.468   2.219 -0.4343 -0.1606  0.4989
  806SOL    HW1 3222   2.471   0.437   2.294 -0.0886 -0.5089  2.6153
  806SOL    HW2 3223   2.476   0.457   2.137  2.7817  1.3600  0.6968
  806SOL     MW 3224   2.511   0.462   2.218  0.0356 -0.0059  0.8043
  807SOL     OW 3225   0.043   1.126   2.004  0.1945 -0.8318  0.6281
  807SOL    HW1 3226   0.062   1.048   1.953  2.1546  0.0562  0.8637
  807SOL    HW2 3227  -0.028   1.107   2.073 -3.0646 -0.3553  2.7853
  807SOL     MW 3228   0.037   1.113   2.006  0.0231 -0.6518  0.9438
  808SOL     OW 3229   2.545   3.091   2.791 -0.3716  0.6169 -0.1839
  808SOL    HW1 3230   2.510   3.000   2.777 -1.3817  1.4146  0.2697
  808SOL    HW2 3231   2.588   3.118   2.707  1.2653  1.7202 -0.9949
  808SOL     MW 3232   2.546   3.082   2.778 -0.2889  0.8677 -0.2310
  809SOL     OW 3233   2.574   1.290   2.408  0.0380 -0.0428 -0.5979
  809SOL    HW1 3234   2.618   1.349   2.464 -0.7062 -2.9841  2.5636
  809SOL    HW2 3235   2.631   1.291   2.329  2.5739  0.1570  0.3236
  809SOL     MW 3236   2.588   1.298   2.405  0.2744 -0.4045 -0.0592
  810SOL     OW 3237   2.204   1.281   2.229  0.1879 -0.2143 -0.1469
  810SOL    HW1 3238   2.265   1.226   2.287  1.1939 -2.1445  0.5310
  810SOL    HW2 3239   2.123   1.228   2.218 -0.5408 -0.0980  1.0364
  810SOL     MW 3240   2.201   1.267   2.235  0.2245 -0.4536  0.0987
  811SOL     OW 3241   1.547   0.149   2.316 -0.4349  0.3472  0.0833
  811SOL    HW1 3242   1.600   0.086   2.359  0.8956 -1.6552 -3.5504
  811SOL    HW2 3243   1.548   0.122   2.219  0.7543 -0.1939 -0.2570
  811SOL     MW 3244   1.554   0.137   2.309 -0.1024  0.0116 -0.4410
  812SOL     OW 3245   1.489   2.881   2.105  0.4981 -0.0865  0.1812
  812SOL    HW1 3246   1.565   2.869   2.049 -2.2590  1.0068  2.4725
  812SOL    HW2 3247   1.508   2.820   2.173 -0.1593  1.3047 -0.5027
  812SOL     MW 3248   1.501   2.871   2.107  0.0476  0.2413  0.3933
  813SOL     OW 3249   1.878   0.723   2.173 -0.3996 -0.7186 -0.3122
  813SOL    HW1 3250   1.830   0.644   2.185  3.9589  1.0627 -0.9186
  813SOL    HW2 3251   1.895   0.746   2.266 -1.8291 -0.3169  0.9377
  813SOL     MW 3252   1.874   0.715   2.187 -0.0131 -0.4305 -0.2273
  814SOL     OW 3253   2.731   1.273   1.600 -0.0617  0.3760  0.1532
  814SOL    HW1 3254   2.672   1.214   1.648  0.4953 -3.3234  0.9628
  814SOL    HW2 3255   2.774   1.219   1.535  2.4136 -2.6095 -1.3124
  814SOL     MW 3256   2.729   1.258   1.598  0.3384 -0.5060  0.0667
  815SOL     OW 3257   2.501   1.672   2.330 -0.3126 -0.3977 -0.1850
  815SOL    HW1 3258   2.421   1.624   2.297 -3.1400 -1.4122 -4.3702
  815SOL    HW2 3259   2.579   1.629   2.303 -3.7537 -0.3025  0.4810
  815SOL     MW 3260   2.501   1.660   2.322 -1.1397 -0.5190 -0.6493
  816SOL     OW 3261   0.783   0.675   2.775  0.0594  0.2472  0.2075
  816SOL    HW1 3262   0.779   0.595   2.822  0.8080 -0.1773  1.6238
  816SOL    HW2 3263   0.689   0.679   2.744 -0.7624  1.8532  3.5767
  816SOL     MW 3264   0.770   0.665   2.777  0.0498  0.4031  0.8389
  817SOL     OW 3265   3.068   1.249   1.499  0.6240  0.6190  0.0640
  817SOL    HW1 3266   3.154   1.244   1.539  1.6138  3.1089 -0.7806
  817SOL    HW2 3267   3.060   1.342   1.483  0.4700 -3.1553 -1.1694
  817SOL     MW 3268   3.079   1.261   1.502  0.7343  0.4496 -0.2102
  818SOL     OW 3269   1.919   1.043   2.666 -0.1012  0.3147  0.2756
  818SOL    HW1 3270   1.869   1.028   2.584  2.1186  0.6642 -0.8530
  818SOL    HW2 3271   1.975   0.965   2.674  1.6116 -0.0104  0.5302
  818SOL     MW 3272   1.920   1.030   2.656  0.4177  0.3179  0.1603
  819SOL     OW 3273   1.906   0.209   2.466  0.1051  0.0777  0.0038
  819SOL    HW1 3274   1.842   0.285   2.482  0.8496 -2.5151  1.5995
  819SOL    HW2 3275   1.957   0.212   2.549 -2.6256  1.5848 -0.3966
  819SOL     MW 3276   1.904   0.219   2.479 -0.1570 -0.0656  0.1615
  820SOL     OW 3277   2.470   1.702   2.616 -0.1682 -0.5110 -0.0792
  820SOL    HW1 3278   2.529   1.644   2.671  1.4478  0.4895 -2.4087
  820SOL    HW2 3279   2.507   1.685   2.529 -0.1950  1.3456 -0.9291
  820SOL     MW 3280   2.483   1.692   2.612  0.0415 -0.1340 -0.4987
  821SOL     OW 3281   2.562   1.396   1.969 -0.0254 -0.4636 -0.4138
  821SOL    HW1 3282   2.597   1.453   1.892  2.8500  0.5261 -0.0073
  821SOL    HW2 3283   2.470   1.414   1.975  1.8077  3.4108  3.3358
  821SOL     MW 3284   2.555   1.406   1.959  0.5958  0.1782  0.1346
  822SOL     OW 3285   2.736   2.631   1.472  0.3570 -0.2276  0.6889
  822SOL    HW1 3286   2.806   2.640   1.540 -2.0214  0.3393  1.2956
  822SOL    HW2 3287   2.705   2.715   1.454  1.3894 -2.2813 -2.0095
  822SOL     MW 3288   2.741   2.643   1.478  0.1794 -0.4238  0.4129
  823SOL     OW 3289   2.261   0.515   1.740  0.4463  0.0857 -0.3897
  823SOL    HW1 3290   2.342   0.480   1.698 -1.0997 -1.3415 -0.4439
  823SOL    HW2 3291   2.206   0.441   1.749  0.7502 -0.1838  1.1014
  823SOL     MW 3292   2.264   0.501   1.736  0.2824 -0.1382 -0.2001
  824SOL     OW 3293   2.100   1.407   2.573  0.1518 -0.0157  0.1707
  824SOL    HW1 3294   2.167   1.452   2.518 -0.4361  0.8418  0.4706
  824SOL    HW2 3295   2.064   1.472   2.632 -0.8244 -0.7985 -0.3281
  824SOL     MW 3296   2.104   1.421   2.574 -0.0546 -0.0059  0.1444
  825SOL     OW 3297   1.983   2.567   0.277  0.0273 -0.0085  0.1211
  825SOL    HW1 3298   1.972   2.523   0.363 -0.2445 -1.4132 -0.4508
  825SOL    HW2 3299   2.018   2.508   0.209 -0.6829 -1.4970 -1.6328
  825SOL     MW 3300   1.986   2.553   0.280 -0.1023 -0.3902 -0.1858
  826SOL     OW 3301   1.896   2.388   0.498  0.1386 -0.2001 -0.5515
  826SOL    HW1 3302   1.888   2.302   0.549  0.8527 -2.1741  0.1175
  826SOL    HW2 3303   1.858   2.458   0.550  1.0901 -1.7870  2.4090
  826SOL     MW 3304   1.890   2.386   0.512  0.3584 -0.6699 -0.0727
  827SOL     OW 3305   1.921   2.231   0.941  0.1735  0.0526  0.6574
  827SOL    HW1 3306   1.894   2.310   0.893  2.0301  0.4249 -2.1245
  827SOL    HW2 3307   1.852   2.172   0.960  1.7648 -3.0684 -0.4672
  827SOL     MW 3308   1.908   2.234   0.937  0.6284 -0.3101  0.1419
  828SOL     OW 3309   0.047   2.613   0.565  0.3874  0.1154  0.0905
  828SOL    HW1 3310   0.131   2.638   0.530 -1.6803  1.6870 -3.7764
  828SOL    HW2 3311  -0.010   2.633   0.490  1.2552  0.0008  2.5108
  828SOL     MW 3312   0.050   2.619   0.550  0.2291  0.3076 -0.1004
  829SOL     OW 3313   2.910   2.946   1.227  0.1923 -0.3259  0.5889
  829SOL    HW1 3314   2.843   2.935   1.158  1.0057  0.6642 -0.8567
  829SOL    HW2 3315   2.959   2.863   1.220  0.7570 -0.0961 -3.5583
  829SOL     MW 3316   2.908   2.933   1.217  0.3742 -0.1649 -0.1490
  830SOL     OW 3317   2.497   2.859   2.017 -0.3165 -0.0359 -0.7121
  830SOL    HW1 3318   2.414   2.894   1.981  0.8338  3.3485  1.7927
  830SOL    HW2 3319   2.553   2.840   1.939 -2.2582 -0.4243  0.0288
  830SOL     MW 3320   2.494   2.861   2.002 -0.4209  0.3594 -0.2838
  831SOL     OW 3321   2.407   2.421   1.319  0.2524 -0.5241 -0.0339
  831SOL    HW1 3322   2.381   2.355   1.384  2.8421  0.2783 -1.2373
  831SOL    HW2 3323   2.502   2.402   1.296 -0.9458 -0.9790  1.1212
  831SOL     MW 3324   2.416   2.410   1.324  0.4360 -0.4783 -0.0403
  832SOL     OW 3325   2.417   2.190   1.912 -0.2390  0.2624  0.0878
  832SOL    HW1 3326   2.440   2.261   1.976 -0.4088 -0.3542 -1.7715
  832SOL    HW2 3327   2.496   2.137   1.897  1.0764 -0.9253  2.1880
  832SOL     MW 3328   2.431   2.192   1.918 -0.0878  0.0243  0.1196
  833SOL     OW 3329   1.781   2.459   0.891 -0.3740  0.2681  0.3644
  833SOL    HW1 3330   1.708   2.401   0.907  3.2671  1.4677 -2.4345
  833SOL    HW2 3331   1.790   2.504   0.977 -0.3303 -0.0092 -4.5816
  833SOL     MW 3332   1.772   2.458   0.904  0.1122  0.3898 -0.6574
  834SOL     OW 3333   2.221   2.490   0.590  0.5148 -0.2756  0.4892
  834SOL    HW1 3334   2.176   2.441   0.656 -0.5692  2.7953  3.6748
  834SOL    HW2 3335   2.234   2.442   0.510 -1.6920  0.3509 -2.2288
  834SOL     MW 3336   2.217   2.477   0.588  0.0807  0.2122  0.5509
  835SOL     OW 3337   1.776   2.579   0.638 -0.9462  0.5468  0.6312
  835SOL    HW1 3338   1.751   2.534   0.718  0.7555  0.5865 -1.8320
  835SOL    HW2 3339   1.850   2.636   0.674  1.1605  0.6821  2.1034
  835SOL     MW 3340   1.782   2.581   0.654 -0.4437  0.5699  0.5004
  836SOL     OW 3341   1.927   2.207   1.611 -0.1435 -0.0792  0.2219
  836SOL    HW1 3342   2.000   2.222   1.673 -0.3911  1.8238 -0.3780
  836SOL    HW2 3343   1.845   2.242   1.649  0.0972 -0.3041  1.5691
  836SOL     MW 3344   1.926   2.214   1.624 -0.1445  0.1422  0.3205
  837SOL     OW 3345   2.146   0.199   0.683  0.0197  0.0974 -0.5022
  837SOL    HW1 3346   2.056   0.205   0.665  1.7548 -2.1342  2.0021
  837SOL    HW2 3347   2.177   0.127   0.624  2.1106 -1.9689 -1.3648
  837SOL     MW 3348   2.138   0.190   0.673  0.5245 -0.4697 -0.2856
  838SOL     OW 3349   2.936   2.150   0.866  0.0002 -0.2340 -0.3071
  838SOL    HW1 3350   2.893   2.106   0.944  1.1172 -0.0589  1.0154
  838SOL    HW2 3351   2.959   2.080   0.809  0.0283 -0.9168  0.3368
  838SOL     MW 3352   2.934   2.135   0.869  0.1513 -0.3010 -0.0477
  839SOL     OW 3353   1.554   2.336   0.940 -0.0664  0.3250 -0.2000
  839SOL    HW1 3354   1.525   2.431   0.938 -1.4194  0.7220 -3.2507
  839SOL    HW2 3355   1.553   2.300   1.031  0.3304  0.4489 -0.6765
  839SOL     MW 3356   1.550   2.344   0.952 -0.1925  0.3937 -0.6653
  840SOL     OW 3357   2.292   2.117   2.399  0.1204 -0.1683 -0.1912
  840SOL    HW1 3358   2.255   2.181   2.332 -1.9013  0.5220 -1.6657
  840SOL    HW2 3359   2.346   2.180   2.446  1.5113  0.3286  0.0529
  840SOL     MW 3360   2.294   2.133   2.396  0.0372 -0.0116 -0.3536
  841SOL     OW 3361   2.150   2.442   0.106  0.6906 -0.0938 -0.1956
  841SOL    HW1 3362   2.190   2.472   0.025  3.7271  0.9965  1.5072
  841SOL    HW2 3363   2.098   2.365   0.079  0.4075 -0.3165 -2.0899
  841SOL     MW 3364   2.148   2.436   0.091  1.0539  0.0207 -0.2209
  842SOL     OW 3365   2.683   1.934   1.592 -0.1452  0.6166  0.0200
  842SOL    HW1 3366   2.665   1.842   1.586  0.8409  1.4098  0.7051
  842SOL    HW2 3367   2.624   1.970   1.528 -1.7821  0.4656 -0.5785
  842SOL     MW 3368   2.673   1.927   1.583 -0.2311  0.7014  0.0314
  843SOL     OW 3369   2.627   2.757   1.787  0.6526  0.5755  0.2414
  843SOL    HW1 3370   2.706   2.729   1.742 -0.5948  1.1254  0.3746
  843SOL    HW2 3371   2.551   2.698   1.768  0.9676 -0.7530  0.0265
  843SOL     MW 3372   2.628   2.746   1.779  0.5296  0.4728  0.2306
  844SOL     OW 3373   2.616   2.277   1.214 -0.0520 -0.5979  0.4036
  844SOL    HW1 3374   2.641   2.292   1.117 -0.5803  0.9810 -2.2550
  844SOL    HW2 3375   2.700   2.301   1.269 -0.9131  0.6654 -0.2217
  844SOL     MW 3376   2.630   2.282   1.209 -0.2353 -0.2229 -0.0297
  845SOL     OW 3377   2.850   2.441   0.318  0.1444 -0.1857 -0.0117
  845SOL    HW1 3378   2.796   2.363   0.326 -1.5948  0.3531  0.7890
  845SOL    HW2 3379   2.836   2.487   0.399 -0.4188  1.3597  0.4232
  845SOL     MW 3380   2.841   2.437   0.330 -0.1594  0.0893  0.1513
  846SOL     OW 3381   1.522   2.867   0.763  0.2166 -0.1690  0.0546
  846SOL    HW1 3382   1.591   2.922   0.793 -1.7900 -0.3653  0.5869
  846SOL    HW2 3383   1.436   2.891   0.807 -1.9941 -1.1532 -1.3873
  846SOL     MW 3384   1.520   2.877   0.773 -0.3398 -0.3248 -0.0654
  847SOL     OW 3385   2.518   1.883   0.154 -0.3874 -0.3715  0.2135
  847SOL    HW1 3386   2.559   1.814   0.212 -0.1310  0.3111 -1.5536
  847SOL    HW2 3387   2.442   1.831   0.116 -1.3662 -0.7533 -0.8044
  847SOL     MW 3388   2.513   1.867   0.157 -0.4827 -0.3318 -0.1540
  848SOL     OW 3389   2.541   2.056   1.403 -0.3164 -0.2914 -0.4380
  848SOL    HW1 3390   2.562   2.138   1.353 -1.2282  3.2167  2.8543
  848SOL    HW2 3391   2.516   1.987   1.340 -0.2531 -0.3892 -1.9658
  848SOL     MW 3392   2.540   2.057   1.388 -0.4283  0.1586 -0.2052
  849SOL     OW 3393   1.985   2.748   0.732 -0.5764  0.7356 -0.2577
  849SOL    HW1 3394   2.007   2.700   0.816 -1.6540 -1.9807  0.1265
  849SOL    HW2 3395   2.068   2.754   0.677 -1.7692  0.0219  2.7820
  849SOL     MW 3396   1.999   2.743   0.736 -0.8760  0.2830  0.1941
  850SOL     OW 3397   2.229   1.935   1.636  0.1554 -0.2663  0.7697
  850SOL    HW1 3398   2.142   1.898   1.623 -0.9409 -0.2710  1.4080
  850SOL    HW2 3399   2.225   2.028   1.662  2.0619  0.6124  0.1698
  850SOL     MW 3400   2.217   1.942   1.637  0.2623 -0.1509  0.7748
  851SOL     OW 3401   2.282   2.404   0.338  0.2925 -0.2488  0.0071
  851SOL    HW1 3402   2.237   2.424   0.252 -0.5018  2.1631  2.0231
  851SOL    HW2 3403   2.354   2.478   0.345 -1.0768 -0.8229 -0.6865
  851SOL     MW 3404   2.285   2.416   0.328  0.0070 -0.0063  0.1815
  852SOL     OW 3405   2.369   2.120   0.309 -0.2225 -0.5923  0.0209
  852SOL    HW1 3406   2.344   2.212   0.312  0.6815 -0.5040 -0.6699
  852SOL    HW2 3407   2.428   2.124   0.242 -3.0413 -1.8663  2.6801
  852SOL     MW 3408   2.373   2.133   0.300 -0.4752 -0.7487  0.2806
  853SOL     OW 3409   2.497   2.437   1.995  0.1102  0.0047  0.0338
  853SOL    HW1 3410   2.507   2.467   1.901  1.1041 -0.4218  1.6909
  853SOL    HW2 3411   2.588   2.437   2.031 -2.6057  2.5606 -2.2033
  853SOL     MW 3412   2.510   2.441   1.987 -0.1170  0.2857 -0.0427
  854SOL     OW 3413   2.817   2.360   0.754 -0.0547  0.0745  0.2258
  854SOL    HW1 3414   2.744   2.320   0.709 -1.5534  0.2338 -0.9348
  854SOL    HW2 3415   2.860   2.289   0.807  2.3000 -0.3590 -0.9452
  854SOL     MW 3416   2.813   2.346   0.755  0.0583  0.0384 -0.0818
  855SOL     OW 3417   2.705   2.230   0.391  0.2786  0.3925 -0.4791
  855SOL    HW1 3418   2.694   2.284   0.471  2.6788  1.0414 -1.8389
  855SOL    HW2 3419   2.792   2.200   0.416  3.1854  1.4767 -0.2784
  855SOL     MW 3420   2.715   2.233   0.405  0.9788  0.6212 -0.6320
  856SOL     OW 3421   2.198   1.942   0.165 -0.1404 -0.1040 -0.3941
  856SOL    HW1 3422   2.109   1.950   0.201 -0.8189  0.7618  0.7594
  856SOL    HW2 3423   2.260   2.005   0.205  0.4565  1.2774 -2.1136
  856SOL     MW 3424   2.195   1.951   0.175 -0.1512  0.1925 -0.4687
  857SOL     OW 3425   2.601   2.005   0.488 -0.9737 -0.5466 -0.0872
  857SOL    HW1 3426   2.646   2.073   0.429  2.5712 -2.3243 -0.5370
  857SOL    HW2 3427   2.522   1.987   0.445  1.8691  3.6667  4.2741
  857SOL     MW 3428   2.597   2.012   0.475 -0.1309 -0.2253  0.4288
  858SOL     OW 3429   2.875   2.653   1.704  0.5722 -0.2870  0.2872
  858SOL    HW1 3430   2.962   2.688   1.717 -1.1121 -2.2279  3.0675
  858SOL    HW2 3431   2.890   2.575   1.751  1.3160 -1.0497  0.5480
  858SOL     MW 3432   2.889   2.647   1.712  0.4481 -0.6437  0.6884
  859SOL     OW 3433   2.128   2.568   0.921 -0.7352 -0.2097  0.8161
  859SOL    HW1 3434   2.131   2.504   0.993 -1.3227  1.3622 -0.8823
  859SOL    HW2 3435   2.215   2.569   0.881 -0.3484  0.6055  0.1060
  859SOL     MW 3436   2.140   2.560   0.925 -0.7617  0.1052  0.4983
  860SOL     OW 3437   2.673   2.594   0.171  0.3227 -0.0104 -0.1569
  860SOL    HW1 3438   2.733   2.556   0.237 -3.5668 -1.8358 -2.5162
  860SOL    HW2 3439   2.706   2.674   0.137  0.2384 -0.0718  0.7906
  860SOL     MW 3440   2.686   2.599   0.175 -0.2016 -0.2593 -0.3431
  861SOL     OW 3441   1.560   2.150   1.158  0.2248 -0.2098  0.4086
  861SOL    HW1 3442   1.574   2.219   1.220 -0.8769  0.1416  0.4216
  861SOL    HW2 3443   1.498   2.089   1.193  0.7196  0.4031  1.0564
  861SOL     MW 3444   1.554   2.151   1.171  0.1447 -0.0826  0.4958
  862SOL     OW 3445   2.435   1.779   1.548  0.3591 -0.4433 -0.0974
  862SOL    HW1 3446   2.376   1.819   1.613  0.6729  0.3616  3.6585
  862SOL    HW2 3447   2.401   1.817   1.465  1.5500  0.0897 -3.5079
  862SOL     MW 3448   2.423   1.789   1.546  0.5576 -0.2668 -0.0518
  863SOL     OW 3449   3.022   1.825   1.052  0.0631 -0.5990  0.2515
  863SOL    HW1 3450   3.092   1.769   1.080 -1.9560 -1.9712  2.0990
  863SOL    HW2 3451   3.014   1.897   1.116  0.5874 -0.6303  1.3239
  863SOL     MW 3452   3.030   1.827   1.064 -0.1341 -0.7842  0.6368
  864SOL     OW 3453   3.063   1.924   0.802 -0.4020 -0.2806  0.2948
  864SOL    HW1 3454   3.034   1.882   0.883  1.4411  1.0456  1.8533
  864SOL    HW2 3455   3.024   1.868   0.730 -0.0403  2.1121 -2.4954
  864SOL     MW 3456   3.054   1.911   0.803 -0.1111  0.2100  0.1323
  865SOL     OW 3457   2.616   2.145   0.003  0.0576  0.6361  0.0575
  865SOL    HW1 3458   2.643   2.060   0.033 -2.1397  0.6612  1.1056
  865SOL    HW2 3459   2.555   2.128  -0.070  0.3297  0.5813  0.7039
  865SOL     MW 3460   2.611   2.131  -0.003 -0.1964  0.6322  0.2811
  866SOL     OW 3461   2.692   2.322   1.638  0.0347  0.1942  0.5086
  866SOL    HW1 3462   2.700   2.237   1.684 -2.0723  0.8000  4.2144
  866SOL    HW2 3463   2.696   2.302   1.542 -1.2250  0.2024 -0.1776
  866SOL     MW 3464   2.693   2.308   1.631 -0.4095  0.2752  0.9070
  867SOL     OW 3465   0.025   2.713   1.803  0.3252  0.4097  0.0676
  867SOL    HW1 3466   0.060   2.698   1.892  2.1218  0.5613  2.2555
  867SOL    HW2 3467  -0.004   2.804   1.804  1.2776 -0.7906 -0.1078
  867SOL     MW 3468   0.026   2.723   1.815  0.6879  0.2713  0.3332
  868SOL     OW 3469   2.829   2.583   0.553  0.2573 -0.1539 -0.3234
  868SOL    HW1 3470   2.744   2.536   0.566 -0.4099 -0.0912  0.1292
  868SOL    HW2 3471   2.807   2.666   0.506  0.8900  0.0878  2.4479
  868SOL     MW 3472   2.815   2.588   0.549  0.2528 -0.1137  0.1020
  869SOL     OW 3473   2.092   2.370   1.168  0.7909 -0.0887 -0.5445
  869SOL    HW1 3474   2.183   2.347   1.137 -0.5277 -1.3107 -1.1840
  869SOL    HW2 3475   2.032   2.350   1.098  1.7400 -0.2342  0.4450
  869SOL     MW 3476   2.096   2.364   1.155  0.7421 -0.2692 -0.4983
  870SOL     OW 3477   2.156   0.014   0.476 -0.1283  0.4466  0.5085
  870SOL    HW1 3478   2.221   0.048   0.416  0.2929  0.1469 -2.1985
  870SOL    HW2 3479   2.171  -0.074   0.504  0.7086  1.0440 -0.5747
  870SOL     MW 3480   2.167   0.007   0.472  0.0377  0.4859  0.0084
  871SOL     OW 3481   2.484   2.138   0.943  0.2303  0.5104 -0.2179
  871SOL    HW1 3482   2.437   2.054   0.930  1.4006  2.0458 -1.0923
  871SOL    HW2 3483   2.422   2.196   0.994 -0.0142 -0.8759  1.0383
  871SOL     MW 3484   2.470   2.134   0.948  0.3524  0.5301 -0.1675
  872SOL     OW 3485   1.997   2.560   1.524 -0.6363 -0.0410 -0.0503
  872SOL    HW1 3486   1.957   2.595   1.606 -1.0992  1.2397 -0.8444
  872SOL    HW2 3487   1.956   2.477   1.500  0.2759 -1.1578 -0.2863
  872SOL     MW 3488   1.986   2.554   1.532 -0.5770 -0.0194 -0.1862
  873SOL     OW 3489   2.926   2.064   1.914 -0.5538 -0.2506  0.3757
  873SOL    HW1 3490   2.942   2.110   1.997  0.3877  2.7280 -1.5537
  873SOL    HW2 3491   3.001   2.085   1.856  1.7537  0.5211 -1.9834
  873SOL     MW 3492   2.938   2.073   1.917 -0.1251  0.2442 -0.1902
  874SOL     OW 3493   2.271   1.486   2.385  0.0285  0.2276  0.6664
  874SOL    HW1 3494   2.231   1.419   2.316 -1.8043  1.5298  0.9880
  874SOL    HW2 3495   2.353   1.454   2.421  1.3843  1.6250 -0.3212
  874SOL     MW 3496   2.276   1.473   2.381 -0.0345  0.5838  0.5785
  875SOL     OW 3497   2.332   2.325   1.061 -0.0903 -0.2099  0.0942
  875SOL    HW1 3498   2.349   2.384   0.983  0.5587 -0.9583 -0.5575
  875SOL    HW2 3499   2.379   2.350   1.141 -1.7109  0.6200  0.0390
  875SOL     MW 3500   2.340   2.336   1.061 -0.2185 -0.1992  0.0009
  876SOL     OW 3501   3.014   2.310   1.242 -0.0699 -0.4017  0.5494
  876SOL    HW1 3502   3.037   2.361   1.161  2.2612 -0.6968 -1.0215
  876SOL    HW2 3503   3.088   2.340   1.296  1.8530 -2.2680 -2.9322
  876SOL     MW 3504   3.027   2.321   1.238  0.4914 -0.6869 -0.1173
  877SOL     OW 3505   3.035   2.704   0.346 -0.3060  0.6764 -0.4175
  877SOL    HW1 3506   3.087   2.784   0.334 -0.7824 -0.5206 -2.6789
  877SOL    HW2 3507   3.059   2.640   0.282  1.7577 -0.9106  2.0307
  877SOL     MW 3508   3.045   2.706   0.336 -0.0966  0.3091 -0.3929
  878SOL     OW 3509   2.399   1.833   1.263 -0.2283 -0.0284  0.6465
  878SOL    HW1 3510   2.361   1.750   1.289  4.0464 -3.5449  1.0043
  878SOL    HW2 3511   2.485   1.813   1.225  2.4162 -0.4832 -1.1866
  878SOL     MW 3512   2.405   1.820   1.262  0.6846 -0.5524  0.4518
  879SOL     OW 3513   2.669   2.414   0.962  0.6202 -0.0346  0.3086
  879SOL    HW1 3514   2.710   2.494   0.997  0.3926 -0.3262  2.4149
  879SOL    HW2 3515   2.725   2.393   0.889 -1.2313  1.6409  2.1170
  879SOL     MW 3516   2.682   2.422   0.957  0.3459  0.1480  0.8251
  880SOL     OW 3517   2.607   2.204   0.689  0.3631 -0.0431 -0.1446
  880SOL    HW1 3518   2.592   2.195   0.792  2.4681  0.6881  3.1727
  880SOL    HW2 3519   2.584   2.118   0.648  0.5129 -0.5309  1.8490
  880SOL     MW 3520   2.602   2.191   0.697  0.6606 -0.0110  0.5561
  881SOL     OW 3521   2.965   2.737   0.786  0.3949  0.1756  0.1739
  881SOL    HW1 3522   2.939   2.662   0.729  0.1789 -3.1358 -0.2993
  881SOL    HW2 3523   3.050   2.721   0.826 -0.6206  2.9713 -0.2531
  881SOL     MW 3524   2.973   2.725   0.784  0.2324  0.1076  0.0551
  882SOL     OW 3525   2.244   2.899   1.925 -0.0067 -0.0702 -0.0160
  882SOL    HW1 3526   2.216   2.888   1.832  0.8290 -0.6737 -0.7710
  882SOL    HW2 3527   2.194   2.836   1.974 -0.3150  2.8583 -3.2351
  882SOL     MW 3528   2.233   2.889   1.919  0.0629  0.2366 -0.5403
  883SOL     OW 3529   2.296   2.224   1.479  0.3341 -0.6209 -0.1374
  883SOL    HW1 3530   2.379   2.172   1.471 -1.4376 -0.8263  0.1433
  883SOL    HW2 3531   2.245   2.182   1.410  0.7472 -0.6325  1.1073
  883SOL     MW 3532   2.300   2.212   1.469  0.1548 -0.6495  0.0639
  884SOL     OW 3533   1.962   1.804   1.074  0.2926 -0.4797 -0.7188
  884SOL    HW1 3534   1.885   1.862   1.050 -0.5151 -1.9520  0.0608
  884SOL    HW2 3535   2.050   1.858   1.087  1.2902  0.2652  1.0142
  884SOL     MW 3536   1.964   1.819   1.073  0.3176 -0.5756 -0.3873
  885SOL     OW 3537   2.871   2.396   1.849  0.3336 -0.0505 -0.3816
  885SOL    HW1 3538   2.960   2.357   1.839  0.5904  0.4601  0.4157
  885SOL    HW2 3539   2.815   2.379   1.772  1.7243  1.4032 -0.4060
  885SOL     MW 3540   2.876   2.388   1.837  0.5510  0.2087 -0.2796
  886SOL     OW 3541   2.803   2.344   1.395  0.2487  0.1051  0.0138
  886SOL    HW1 3542   2.885   2.342   1.343  1.3212 -0.7062 -0.0903
  886SOL    HW2 3543   2.792   2.429   1.439 -1.3584  0.2043  1.1472
  886SOL     MW 3544   2.812   2.355   1.394  0.1782  0.0112  0.1496
  887SOL     OW 3545   2.268   2.623   1.509 -0.9204  0.5048 -0.3014
  887SOL    HW1 3546   2.290   2.644   1.419  1.4117  2.5987 -0.5769
  887SOL    HW2 3547   2.173   2.596   1.496 -2.3687  0.6582 -0.7692
  887SOL     MW 3548   2.258   2.622   1.496 -0.8038  0.8013 -0.3995
  888SOL     OW 3549   1.892   2.047   1.389  0.7893 -0.2221  0.2763
  888SOL    HW1 3550   1.971   2.081   1.349  0.8714 -0.1258 -1.9529
  888SOL    HW2 3551   1.898   2.083   1.481 -1.3330  1.2452  0.0134
  888SOL     MW 3552   1.903   2.056   1.396  0.5201 -0.0158 -0.0525
  889SOL     OW 3553   2.303   2.022   2.101 -0.2569  0.5375 -0.2199
  889SOL    HW1 3554   2.389   1.995   2.140 -2.5244 -2.2216  0.2465
  889SOL    HW2 3555   2.312   2.097   2.047  0.1440 -2.6507 -2.3717
  889SOL     MW 3556   2.316   2.028   2.099 -0.5031 -0.2472 -0.4423
  890SOL     OW 3557   0.123   2.343   0.127  0.1412 -0.2678 -0.8125
  890SOL    HW1 3558   0.080   2.425   0.097 -1.6471 -1.6004 -0.7686
  890SOL    HW2 3559   0.082   2.321   0.216 -0.3932  1.2395  0.4994
  890SOL     MW 3560   0.112   2.351   0.135 -0.1653 -0.2447 -0.6336
  891SOL     OW 3561   3.028   2.016   1.283 -0.3762 -0.7529 -0.4748
  891SOL    HW1 3562   3.113   2.008   1.325 -1.2231 -0.4069 -0.9748
  891SOL    HW2 3563   3.023   2.114   1.279  0.5032  0.1914  0.1742
  891SOL     MW 3564   3.039   2.028   1.288 -0.3719 -0.5826 -0.4551
  892SOL     OW 3565   2.423   2.378   2.793 -0.0711 -0.2886  0.0272
  892SOL    HW1 3566   2.417   2.290   2.832 -4.2614 -0.5932  1.9604
  892SOL    HW2 3567   2.523   2.389   2.795  2.5574  0.6566 -1.2712
  892SOL     MW 3568   2.436   2.368   2.798 -0.2772 -0.2041  0.1110
  893SOL     OW 3569   1.594   2.381   1.313  0.4992 -0.2412  0.1090
  893SOL    HW1 3570   1.538   2.439   1.358 -0.1711 -3.1869  0.4423
  893SOL    HW2 3571   1.674   2.381   1.362 -0.6136 -0.3763  1.5157
  893SOL     MW 3572   1.597   2.388   1.325  0.2639 -0.6477  0.3386
  894SOL     OW 3573   2.840   1.848   0.487 -0.5095  0.9556  0.5968
  894SOL    HW1 3574   2.755   1.892   0.500  2.8258 -0.9102  1.2430
  894SOL    HW2 3575   2.823   1.809   0.402  2.0652 -0.4660 -1.7148
  894SOL     MW 3576   2.826   1.849   0.477  0.2703  0.5218  0.3771
  895SOL     OW 3577   2.125   2.122   1.293  0.0261 -0.7925 -0.2366
  895SOL    HW1 3578   2.092   2.195   1.243 -3.2899 -0.9553  0.5303
  895SOL    HW2 3579   2.173   2.063   1.236 -1.0637  1.2308  3.1796
  895SOL     MW 3580   2.127   2.124   1.279 -0.5552 -0.5470  0.3153
  896SOL     OW 3581   2.176   2.786   1.093  0.2304 -0.0702 -0.2593
  896SOL    HW1 3582   2.231   2.749   1.161  0.1046 -1.3807  2.1211
  896SOL    HW2 3583   2.156   2.699   1.044  0.6394  0.3587  0.5348
  896SOL     MW 3584   2.181   2.770   1.095  0.2678 -0.1865  0.1595
  897SOL     OW 3585   3.008   2.885   0.097  0.3959  0.0266 -0.6728
  897SOL    HW1 3586   3.093   2.877   0.041  1.5904 -1.0424  1.5131
  897SOL    HW2 3587   2.929   2.834   0.066  2.8750  3.2140 -0.8886
  897SOL     MW 3588   3.009   2.877   0.086  0.8806  0.3061 -0.4129
  898SOL     OW 3589   2.087   0.151   1.402  0.0033  0.3291  0.2422
  898SOL    HW1 3590   2.074   0.054   1.391  0.9688 -0.8244  0.4524
  898SOL    HW2 3591   2.094   0.183   1.313 -0.3222 -1.2363  1.0361
  898SOL     MW 3592   2.086   0.142   1.389  0.0878 -0.0296  0.3747
  899SOL     OW 3593   2.925   2.961   0.632 -0.4022  0.6628  0.0798
  899SOL    HW1 3594   2.934   2.901   0.705 -1.2949  1.5897 -0.4207
  899SOL    HW2 3595   2.842   3.002   0.620  0.9274  0.6300 -3.0518
  899SOL     MW 3596   2.915   2.959   0.640 -0.3445  0.7808 -0.3994
  900SOL     OW 3597   0.102   2.426   1.053  0.0051 -0.3223  0.9959
  900SOL    HW1 3598   0.051   2.489   1.005 -0.4281 -0.4800  1.0522
  900SOL    HW2 3599   0.122   2.360   0.983  0.6648  3.4789  0.4279
  900SOL     MW 3600   0.098   2.425   1.037  0.0350  0.1584  0.9284
  901SOL     OW 3601   1.772   2.906   1.694  0.1394 -0.3923  0.8305
  901SOL    HW1 3602   1.836   2.830   1.693  0.5666  0.7666  1.9445
  901SOL    HW2 3603   1.694   2.886   1.639 -0.0588  0.5379  0.2162
  901SOL     MW 3604   1.770   2.893   1.687  0.1696 -0.1167  0.8964
  902SOL     OW 3605   2.688   2.105   1.805  0.6652  0.2767  0.0653
  902SOL    HW1 3606   2.681   2.030   1.745 -0.3450 -0.2024 -3.6821
  902SOL    HW2 3607   2.775   2.085   1.844  1.2502  0.2531 -0.1553
  902SOL     MW 3608   2.698   2.093   1.802  0.6091  0.2103 -0.4582
  903SOL     OW 3609   1.589   2.774   0.506 -0.1838  0.3126  0.0001
  903SOL    HW1 3610   1.642   2.691   0.531  0.3910 -0.6974  0.4121
  903SOL    HW2 3611   1.565   2.799   0.598  2.0120  0.6988 -1.6859
  903SOL     MW 3612   1.593   2.766   0.521  0.1818  0.2303 -0.1680
  904SOL     OW 3613   2.493   2.517   1.725 -0.1971  0.3520  0.0862
  904SOL    HW1 3614   2.422   2.516   1.667  0.0349 -0.5045 -0.1222
  904SOL    HW2 3615   2.555   2.451   1.699  1.2098  2.3119 -0.7113
  904SOL     MW 3616   2.492   2.508   1.714  0.0191  0.4976 -0.0465
  905SOL     OW 3617   2.319   2.573   2.172  0.1017 -0.0888  0.3267
  905SOL    HW1 3618   2.385   2.571   2.106  1.0497 -0.4692  1.1791
  905SOL    HW2 3619   2.301   2.481   2.194  1.2431 -2.2960  0.7669
  905SOL     MW 3620   2.325   2.561   2.166  0.3774 -0.4302  0.4972
  906SOL     OW 3621   2.431   2.514   0.902 -0.1024 -0.1851 -0.6525
  906SOL    HW1 3622   2.526   2.479   0.919  0.3274  0.0262  0.0384
  906SOL    HW2 3623   2.437   2.604   0.878  1.0320  2.5941  0.0916
  906SOL     MW 3624   2.444   2.521   0.901  0.1040  0.2094 -0.4632
  907SOL     OW 3625   2.593   2.856   1.328  0.1941 -0.6273  0.6420
  907SOL    HW1 3626   2.645   2.920   1.375 -0.3676  0.5111 -0.1207
  907SOL    HW2 3627   2.625   2.869   1.241  0.6036  0.4995  0.9915
  907SOL     MW 3628   2.604   2.866   1.323  0.1740 -0.3284  0.5875
  908SOL     OW 3629   2.729   2.390   0.002 -0.5592  0.1247 -0.2913
  908SOL    HW1 3630   2.680   2.306   0.033  1.8474  0.7935  2.6146
  908SOL    HW2 3631   2.683   2.462   0.053  1.7835 -1.3190  0.7249
  908SOL     MW 3632   2.717   2.388   0.013  0.0674  0.0225  0.2262
  909SOL     OW 3633   1.715   0.160   1.148 -0.0178 -0.6754 -0.1090
  909SOL    HW1 3634   1.702   0.236   1.086  0.3165 -0.1743  1.4336
  909SOL    HW2 3635   1.805   0.140   1.140  1.9440 -2.2124  0.8129
  909SOL     MW 3636   1.725   0.167   1.139  0.2851 -0.8121  0.2162
  910SOL     OW 3637   2.325   1.811   0.380  0.3775  0.3631  0.2801
  910SOL    HW1 3638   2.275   1.741   0.428 -0.3094  0.7266  1.1908
  910SOL    HW2 3639   2.278   1.826   0.297  0.8913  1.8145  1.0742
  910SOL     MW 3640   2.312   1.804   0.375  0.3547  0.6026  0.5050
  911SOL     OW 3641   2.194   2.224   1.751  0.7798  0.4024 -0.0156
  911SOL    HW1 3642   2.286   2.219   1.779  0.1272  0.2116 -2.8404
  911SOL    HW2 3643   2.204   2.243   1.660 -1.0572  0.5561  1.1816
  911SOL     MW 3644   2.208   2.226   1.743  0.4514  0.3975 -0.2303
  912SOL     OW 3645   2.946   1.906   1.528  0.2983  0.5096 -0.3934
  912SOL    HW1 3646   2.983   1.952   1.445  1.2612  0.7433  2.2204
  912SOL    HW2 3647   2.850   1.937   1.534 -0.5500  1.7623  0.1288
  912SOL     MW 3648   2.938   1.916   1.518  0.3134  0.7057  0.0204
  913SOL     OW 3649   2.566   3.008   0.380 -0.1564  0.1469  0.1678
  913SOL    HW1 3650   2.632   2.946   0.408 -0.2226  1.9121  0.9589
  913SOL    HW2 3651   2.487   2.950   0.395 -0.1736  1.0454  1.5183
  913SOL     MW 3652   2.564   2.992   0.386 -0.1674  0.4983  0.4503
  914SOL     OW 3653   2.732   1.729   3.062 -1.0230  0.3631 -0.3376
  914SOL    HW1 3654   2.773   1.786   2.991  0.5550 -0.1004 -1.5469
  914SOL    HW2 3655   2.646   1.755   3.085  2.8879 -2.8031  4.0879
  914SOL     MW 3656   2.726   1.740   3.056 -0.2988 -0.1158  0.0867
  915SOL     OW 3657   1.722   0.230   0.233 -0.2397 -0.5764 -0.2043
  915SOL    HW1 3658   1.791   0.191   0.279 -1.7450  0.4799 -1.7642
  915SOL    HW2 3659   1.651   0.167   0.240  1.1553  0.6918  0.6305
  915SOL     MW 3660   1.721   0.216   0.240 -0.2542 -0.2697 -0.3000
  916SOL     OW 3661   1.814   2.062   1.922  0.3753 -0.0422  0.1616
  916SOL    HW1 3662   1.831   2.156   1.938  0.3574  0.6789  2.4474
  916SOL    HW2 3663   1.787   2.057   1.830  0.6717  0.9821 -0.2704
  916SOL     MW 3664   1.813   2.074   1.912  0.4120  0.1881  0.4062
  917SOL     OW 3665   2.486   2.230   2.564  0.8999 -0.6773 -0.1730
  917SOL    HW1 3666   2.467   2.295   2.631  0.4152 -1.4673 -0.3592
  917SOL    HW2 3667   2.547   2.268   2.502  1.3168 -0.4452  2.0707
  917SOL     MW 3668   2.492   2.244   2.565  0.8910 -0.7509  0.0985
  918SOL     OW 3669   1.970   1.620   2.708 -0.2695 -0.3601  0.1003
  918SOL    HW1 3670   1.901   1.645   2.646 -0.9387 -3.5490  0.2619
  918SOL    HW2 3671   2.037   1.681   2.688 -0.5586 -0.4773  0.1781
  918SOL     MW 3672   1.970   1.631   2.697 -0.3959 -0.7963  0.1319
  919SOL     OW 3673   0.044   2.316   2.264 -0.7528 -0.1453 -0.2150
  919SOL    HW1 3674  -0.027   2.255   2.235 -1.2334  1.0326 -1.1157
  919SOL    HW2 3675   0.108   2.298   2.190 -2.6555  0.9340 -1.2794
  919SOL     MW 3676   0.043   2.306   2.250 -1.0672  0.1526 -0.4743
  920SOL     OW 3677   2.771   2.802   3.095 -0.1181  0.1796 -0.0657
  920SOL    HW1 3678   2.699   2.868   3.100 -0.7200  0.0926 -4.2299
  920SOL    HW2 3679   2.750   2.743   3.018  0.9847  0.2696  0.6803
  920SOL     MW 3680   2.759   2.803   3.085 -0.0520  0.1800 -0.5167
  921SOL     OW 3681   2.418   2.572   2.616  0.8114 -0.3642 -0.3138
  921SOL    HW1 3682   2.505   2.608   2.595 -1.5895  1.6008 -1.0781
  921SOL    HW2 3683   2.428   2.521   2.691 -0.0472  1.8047 -0.3794
  921SOL     MW 3684   2.431   2.570   2.623  0.3813  0.1812 -0.4233
  922SOL     OW 3685   2.040   2.823   0.310 -0.3146  0.1716 -0.4753
  922SOL    HW1 3686   2.004   2.856   0.225 -3.1372  1.6113  1.1076
  922SOL    HW2 3687   2.036   2.724   0.284 -0.7781 -0.5419  0.8383
  922SOL     MW 3688   2.035   2.814   0.295 -0.7482  0.2674 -0.0932
  923SOL     OW 3689   2.183   2.828   1.667  0.1360 -0.0022  0.1357
  923SOL    HW1 3690   2.225   2.753   1.620  1.6291  0.9563  0.4721
  923SOL    HW2 3691   2.139   2.876   1.600 -0.1063 -0.3461  0.2032
  923SOL     MW 3692   2.183   2.824   1.652  0.3010  0.0789  0.1890
  924SOL     OW 3693   1.222   2.604   2.498  0.0549 -0.2125  0.1669
  924SOL    HW1 3694   1.290   2.672   2.497 -2.3758 -1.3633 -2.6098
  924SOL    HW2 3695   1.262   2.528   2.546  0.0674 -2.0083 -2.0826
  924SOL     MW 3696   1.237   2.603   2.504 -0.2641 -0.6013 -0.4962
  925SOL     OW 3697   2.965   0.243   2.606  0.2907 -0.3281  0.2346
  925SOL    HW1 3698   2.943   0.279   2.513 -1.5256 -1.1403  0.2792
  925SOL    HW2 3699   2.925   0.297   2.667  1.7682 -0.7813 -4.2993
  925SOL     MW 3700   2.957   0.255   2.601  0.2460 -0.4951 -0.3577
  926SOL     OW 3701   2.761   2.411   2.090  0.1403 -0.3571  0.4038
  926SOL    HW1 3702   2.828   2.448   2.151 -2.8621  0.2561  0.5326
  926SOL    HW2 3703   2.807   2.415   2.004 -1.0524 -0.8201 -1.1981
  926SOL     MW 3704   2.776   2.416   2.087 -0.4132 -0.3373  0.2094
  927SOL     OW 3705   2.326   0.142   0.314  1.1294 -0.0162 -0.0136
  927SOL    HW1 3706   2.414   0.147   0.339 -2.9914  1.2013  1.2844
  927SOL    HW2 3707   2.323   0.131   0.219 -0.1916 -0.8807  0.8366
  927SOL     MW 3708   2.338   0.141   0.305  0.4114  0.0304  0.2698
  928SOL     OW 3709   2.101   2.437   1.918  0.0450  0.6713  0.5570
  928SOL    HW1 3710   2.132   2.374   1.850  1.0140 -1.2487  0.3953
  928SOL    HW2 3711   2.178   2.498   1.932  3.4595 -2.4619  0.9274
  928SOL     MW 3712   2.116   2.437   1.911  0.6233  0.0046  0.5846
  929SOL     OW 3713   2.689   2.372   2.444  0.1482 -0.3168 -0.0639
  929SOL    HW1 3714   2.745   2.384   2.369 -1.8312  2.2153  1.6969
  929SOL    HW2 3715   2.740   2.350   2.519  2.2969  0.1065  0.2763
  929SOL     MW 3716   2.703   2.370   2.444  0.1705  0.0731  0.2133
  930SOL     OW 3717   2.028   2.824   2.717  0.1848 -0.3591  0.1895
  930SOL    HW1 3718   2.050   2.752   2.777  0.1890  0.8107 -0.3813
  930SOL    HW2 3719   2.102   2.896   2.725  0.6921  0.3849  0.5771
  930SOL     MW 3720   2.041   2.824   2.726  0.2523 -0.1066  0.1653
  931SOL     OW 3721   3.018   2.765   2.279 -0.1271 -0.0887  0.7167
  931SOL    HW1 3722   3.060   2.810   2.349 -1.7580  1.3367 -2.0352
  931SOL    HW2 3723   3.075   2.780   2.205  1.7990 -1.3571 -2.0009
  931SOL     MW 3724   3.031   2.773   2.278 -0.0881 -0.0680 -0.0050
  932SOL     OW 3725   2.823   2.012   2.560  0.0122  0.0820  0.3743
  932SOL    HW1 3726   2.918   2.011   2.572 -0.2156 -1.5703  2.1008
  932SOL    HW2 3727   2.806   2.009   2.464 -1.0013  0.0864 -0.2884
  932SOL     MW 3728   2.833   2.012   2.549 -0.1516 -0.1354  0.5146
  933SOL     OW 3729   2.029   2.870   2.273  0.1273  0.0528  0.1750
  933SOL    HW1 3730   2.098   2.916   2.319 -2.5100  2.5632  2.2469
  933SOL    HW2 3731   1.968   2.942   2.249  0.1764  0.7760  2.6191
  933SOL     MW 3732   2.030   2.885   2.276 -0.2142  0.4794  0.7708
  934SOL     OW 3733   1.997   2.681   2.466 -0.7517 -0.1356  0.0035
  934SOL    HW1 3734   2.005   2.729   2.551  1.0681  0.0877  0.1278
  934SOL    HW2 3735   2.035   2.742   2.403  0.6907  0.6629 -0.3626
  934SOL     MW 3736   2.003   2.695   2.469 -0.3213 -0.0008 -0.0284
  935SOL     OW 3737   2.648   1.602   1.814 -0.1237 -0.2960 -0.2986
  935SOL    HW1 3738   2.732   1.601   1.776  2.5701 -1.0568 -0.6247
  935SOL    HW2 3739   2.595   1.561   1.740  0.2878 -0.8572 -0.0435
  935SOL     MW 3740   2.652   1.596   1.799  0.2860 -0.4704 -0.3080
  936SOL     OW 3741   2.985   2.262   3.078 -0.2314 -0.4186 -0.3509
  936SOL    HW1 3742   3.067   2.299   3.115  0.0839  0.6806  0.1550
  936SOL    HW2 3743   2.914   2.330   3.077 -1.0177  1.1380  2.3768
  936SOL     MW 3744   2.987   2.276   3.083 -0.2935 -0.0682  0.0758
  937SOL     OW 3745   1.949   2.104   2.681  0.4827  0.0601 -0.2301
  937SOL    HW1 3746   2.037   2.087   2.711 -3.6842  1.0583 -0.4746
  937SOL    HW2 3747   1.947   2.071   2.587 -0.5042  0.0476 -0.2571
  937SOL     MW 3748   1.960   2.098   2.672 -0.1973  0.1902 -0.2660
  938SOL     OW 3749   2.270   1.824   1.909  0.3454 -0.2311  0.1733
  938SOL    HW1 3750   2.239   1.846   1.820 -1.3356  0.3997 -1.8112
  938SOL    HW2 3751   2.258   1.904   1.960  0.2809  3.3158 -2.0739
  938SOL     MW 3752   2.264   1.837   1.904  0.1151  0.3201 -0.3851
  939SOL     OW 3753   2.801   1.977   2.255 -0.5136  0.0421  0.1745
  939SOL    HW1 3754   2.828   1.913   2.185  0.4273  1.2585  1.5319
  939SOL    HW2 3755   2.707   1.964   2.263 -2.0046 -0.5333  1.7257
  939SOL     MW 3756   2.792   1.967   2.247 -0.5862  0.1267  0.5583
  940SOL     OW 3757   2.314   0.184   2.628  0.1989 -0.1764 -0.0739
  940SOL    HW1 3758   2.314   0.092   2.652  0.0105  1.6611 -1.8247
  940SOL    HW2 3759   2.358   0.224   2.703  2.5381  3.7189  1.0912
  940SOL     MW 3760   2.320   0.177   2.641  0.4826  0.5800 -0.1512
  941SOL     OW 3761   0.177   2.319   2.015 -0.3416  1.1114  0.5869
  941SOL    HW1 3762   0.268   2.291   2.011  1.6077 -1.0092  1.5520
  941SOL    HW2 3763   0.130   2.324   1.922 -1.8287 -1.4450 -2.7637
  941SOL     MW 3764   0.182   2.316   2.002 -0.2806  0.4943  0.2722
  942SOL     OW 3765   2.942   2.188   2.155  0.2980 -0.1385  0.6953
  942SOL    HW1 3766   2.870   2.243   2.117 -0.9137 -1.1146  0.4332
  942SOL    HW2 3767   2.901   2.118   2.205 -3.6586  0.9458  0.9945
  942SOL     MW 3768   2.927   2.186   2.157 -0.3839 -0.1242  0.7002
  943SOL     OW 3769   0.292   2.083   2.258  0.0176  1.0007 -0.5632
  943SOL    HW1 3770   0.253   2.128   2.330 -0.7460 -1.8233 -0.2868
  943SOL    HW2 3771   0.375   2.048   2.297 -1.3104  1.5320 -2.1592
  943SOL     MW 3772   0.298   2.084   2.273 -0.2583  0.6982 -0.7373
  944SOL     OW 3773   2.103   2.693   2.078 -0.4644 -0.1378  0.3854
  944SOL    HW1 3774   2.172   2.651   2.132 -1.8037  1.2307  0.9145
  944SOL    HW2 3775   2.064   2.757   2.140  0.3625 -2.7373 -0.3842
  944SOL     MW 3776   2.107   2.696   2.093 -0.5320 -0.3002  0.3537
  945SOL     OW 3777   2.692   2.682   2.878 -0.6091 -0.0935  0.1479
  945SOL    HW1 3778   2.688   2.586   2.859  0.3119  2.0067  1.1140
  945SOL    HW2 3779   2.744   2.719   2.808 -1.4268  0.6871  0.4513
  945SOL     MW 3780   2.698   2.674   2.866 -0.5955  0.2866  0.3154
  946SOL     OW 3781   2.464   2.764   2.318 -0.5960  0.1756 -0.2992
  946SOL    HW1 3782   2.507   2.778   2.237 -0.4030 -1.0138  2.9125
  946SOL    HW2 3783   2.399   2.703   2.287  0.5791  2.7433  0.9919
  946SOL     MW 3784   2.461   2.758   2.303 -0.4155  0.3574  0.2949
  947SOL     OW 3785   1.975   0.120   0.291 -0.1769  0.0760  0.1669
  947SOL    HW1 3786   1.951   0.033   0.269 -0.9736 -3.0897  1.6279
  947SOL    HW2 3787   2.033   0.095   0.360 -1.9520  0.6359  0.9206
  947SOL     MW 3788   1.979   0.106   0.297 -0.5163 -0.2678  0.4591
  948SOL     OW 3789   1.764   2.966   2.681  0.5336  0.2050 -0.0285
  948SOL    HW1 3790   1.847   2.921   2.702  0.6654 -0.0056 -0.4516
  948SOL    HW2 3791   1.763   2.972   2.586 -0.2075  1.3616  2.4464
  948SOL     MW 3792   1.775   2.961   2.671  0.4532  0.3298  0.2422
  949SOL     OW 3793   2.512   1.970   2.275  0.0672 -0.6673  0.4891
  949SOL    HW1 3794   2.502   1.872   2.288 -0.8846 -0.0522  0.8031
  949SOL    HW2 3795   2.452   2.012   2.332  1.0531 -1.2130 -2.4212
  949SOL     MW 3796   2.503   1.963   2.284  0.0717 -0.6581  0.1466
  950SOL     OW 3797   2.268   2.517   2.972 -0.1969 -0.5463 -0.1985
  950SOL    HW1 3798   2.324   2.476   2.903 -0.2629 -1.1721 -2.4154
  950SOL    HW2 3799   2.179   2.541   2.938  0.7678 -0.6179 -2.3521
  950SOL     MW 3800   2.264   2.514   2.958 -0.0783 -0.6383 -0.7751
  951SOL     OW 3801   3.008   2.128   2.819  0.0020 -0.0366 -0.5105
  951SOL    HW1 3802   3.027   2.150   2.911  2.5875 -3.3079  1.0318
  951SOL    HW2 3803   3.095   2.119   2.779  3.1478  0.0523  1.8140
  951SOL     MW 3804   3.022   2.130   2.826  0.7582 -0.4565 -0.0003
  952SOL     OW 3805   3.098   1.667   2.164 -0.2905  0.3121  0.0079
  952SOL    HW1 3806   3.015   1.708   2.135 -0.8098 -1.9335 -0.0795
  952SOL    HW2 3807   3.170   1.735   2.178 -1.6785  2.2467 -0.2576
  952SOL     MW 3808   3.097   1.681   2.162 -0.5422  0.2710 -0.0387
  953SOL     OW 3809   1.925   1.793   2.891  0.2258  0.3090  0.2533
  953SOL    HW1 3810   1.860   1.749   2.947 -2.2478  0.6638 -0.0915
  953SOL    HW2 3811   1.934   1.727   2.819 -0.1303 -2.6784  2.3894
  953SOL     MW 3812   1.918   1.778   2.889 -0.1475 -0.0383  0.4897
  954SOL     OW 3813   2.458   2.107   2.883 -0.3372  0.0400 -0.0687
  954SOL    HW1 3814   2.373   2.063   2.864 -2.5322 -1.4399 -1.5125
  954SOL    HW2 3815   2.516   2.055   2.820 -1.9496  0.1325  0.2462
  954SOL     MW 3816   2.455   2.095   2.872 -0.8396 -0.1430 -0.2177
  955SOL     OW 3817   1.586   1.574   2.635 -0.0884 -0.1939 -0.3990
  955SOL    HW1 3818   1.518   1.558   2.566 -0.0146  0.6864  2.5018
  955SOL    HW2 3819   1.648   1.635   2.591 -1.3622  3.2875 -1.0195
  955SOL     MW 3820   1.585   1.580   2.620 -0.2468  0.3816 -0.0981
  956SOL     OW 3821   2.682   2.397   2.838 -0.1657 -0.0702  0.0176
  956SOL    HW1 3822   2.699   2.387   2.934  0.9311 -1.6697  0.9276
  956SOL    HW2 3823   2.763   2.364   2.800  2.1651  0.4348 -1.6342
  956SOL     MW 3824   2.695   2.391   2.846  0.2865 -0.2146 -0.0803
  957SOL     OW 3825   2.336   2.856   0.402  0.7920  0.0110  0.0011
  957SOL    HW1 3826   2.250   2.847   0.353  0.4099 -1.1040 -2.0849
  957SOL    HW2 3827   2.307   2.803   0.482 -0.9483 -0.8953  0.9751
  957SOL     MW 3828   2.321   2.848   0.406  0.5120 -0.2557 -0.1456
  958SOL     OW 3829   2.026   2.577   2.858 -0.7146  0.3313 -0.2652
  958SOL    HW1 3830   2.014   2.499   2.793 -1.0414 -1.6520  0.6660
  958SOL    HW2 3831   1.935   2.595   2.880 -0.0087  0.1516  1.4144
  958SOL     MW 3832   2.013   2.569   2.852 -0.6646  0.0459  0.0792
  959SOL     OW 3833   2.469   2.605   0.351  0.4798 -0.0499 -0.4873
  959SOL    HW1 3834   2.521   2.592   0.271 -1.5250  2.6046 -1.1567
  959SOL    HW2 3835   2.427   2.689   0.343  1.1544 -1.7835 -2.1865
  959SOL     MW 3836   2.471   2.615   0.339  0.3043  0.0716 -0.7998
  960SOL     OW 3837   1.958   2.290   2.211 -0.1335 -0.3020 -0.3856
  960SOL    HW1 3838   1.924   2.203   2.215 -1.6345 -0.7848  1.3518
  960SOL    HW2 3839   1.902   2.349   2.262  0.4246 -1.9457  0.7886
  960SOL     MW 3840   1.946   2.286   2.218 -0.2579 -0.5826 -0.0014
  961SOL     OW 3841   2.230   2.333   2.249 -0.4774  0.5574  0.3070
  961SOL    HW1 3842   2.137   2.315   2.229 -1.3937  0.5287  1.7335
  961SOL    HW2 3843   2.230   2.377   2.329  2.3002  0.4228 -3.1844
  961SOL     MW 3844   2.218   2.336   2.257 -0.2318  0.5358  0.0346
  962SOL     OW 3845   2.190   2.026   2.820 -0.9989  0.0751 -0.0110
  962SOL    HW1 3846   2.130   2.008   2.889 -2.9734 -0.8685 -0.6470
  962SOL    HW2 3847   2.201   1.940   2.768  1.2324 -0.0520 -3.3473
  962SOL     MW 3848   2.184   2.012   2.822 -0.9650 -0.0662 -0.5351
  963SOL     OW 3849   1.833   2.594   2.061  0.1250 -0.1798  0.3580
  963SOL    HW1 3850   1.929   2.612   2.077  0.4311 -0.4323 -0.3155
  963SOL    HW2 3851   1.835   2.510   2.017 -0.0678  0.2925  0.0510
  963SOL     MW 3852   1.846   2.585   2.057  0.1400 -0.1508  0.2286
  964SOL     OW 3853   1.737   1.927   2.729  0.3282  0.4532  0.2167
  964SOL    HW1 3854   1.802   1.994   2.697 -1.3577  1.8084 -2.0307
  964SOL    HW2 3855   1.788   1.886   2.806 -0.8144 -2.3215 -0.4804
  964SOL     MW 3856   1.753   1.931   2.735 -0.0450  0.2659 -0.1718
  965SOL     OW 3857   2.207   2.759   0.612  0.1704  0.0381 -0.3546
  965SOL    HW1 3858   2.211   2.662   0.604 -0.8159  3.2701 -4.0760
  965SOL    HW2 3859   2.239   2.781   0.699  0.6906 -0.2812 -0.1208
  965SOL     MW 3860   2.212   2.749   0.623  0.1089  0.4224 -0.8148
  966SOL     OW 3861   2.656   2.656   2.502  0.3517  0.6339 -0.0690
  966SOL    HW1 3862   2.604   2.706   2.441 -0.3520 -1.4314  1.4255
  966SOL    HW2 3863   2.672   2.576   2.453 -2.7307  1.2126 -0.8823
  966SOL     MW 3864   2.651   2.652   2.488 -0.1479  0.4377  0.0209
  967SOL     OW 3865   2.805   3.011   2.909 -0.6023 -0.0815  0.0167
  967SOL    HW1 3866   2.792   2.941   2.975  0.8256  1.2972  0.7837
  967SOL    HW2 3867   2.715   3.034   2.882 -1.4236  1.4136 -0.4408
  967SOL     MW 3868   2.791   3.005   2.914 -0.5223  0.2977  0.0575
  968SOL     OW 3869   3.044   2.649   2.909  0.4729  0.1509  0.2245
  968SOL    HW1 3870   2.976   2.701   2.850 -5.1783  0.4216 -0.1663
  968SOL    HW2 3871   3.077   2.586   2.846 -0.3421 -0.7717  0.8099
  968SOL     MW 3872   3.040   2.648   2.893 -0.3802  0.0649  0.2502
  969SOL     OW 3873   1.529   2.170   1.671  0.7415  0.0255  0.0720
  969SOL    HW1 3874   1.586   2.096   1.644  1.3522  1.0347  0.3564
  969SOL    HW2 3875   1.499   2.163   1.763 -0.1899  1.2056  1.4025
  969SOL     MW 3876   1.532   2.159   1.679  0.6992  0.3144  0.2851
  970SOL     OW 3877   1.655   1.716   1.786  0.2532  0.4973  0.8721
  970SOL    HW1 3878   1.737   1.700   1.831 -1.3280  2.5148 -1.4592
  970SOL    HW2 3879   1.596   1.741   1.854 -1.4050 -0.4665 -0.1172
  970SOL     MW 3880   1.658   1.717   1.801 -0.1742  0.6363  0.4340
  971SOL     OW 3881   1.746   3.058   2.398 -0.1453  0.1393  0.1371
  971SOL    HW1 3882   1.761   3.034   2.303  0.8121 -0.9791 -2.4582
  971SOL    HW2 3883   1.791   3.139   2.409 -0.6039 -0.5354 -1.2488
  971SOL     MW 3884   1.754   3.066   2.387 -0.0795 -0.0973 -0.3882
  972SOL     OW 3885   0.253   2.874   2.459  0.1097 -0.0401 -0.1235
  972SOL    HW1 3886   0.324   2.810   2.466 -1.2638 -1.1791  1.0435
  972SOL    HW2 3887   0.298   2.961   2.481  0.6578  2.9009  0.7260
  972SOL     MW 3888   0.268   2.877   2.463  0.0008  0.1977  0.1426
  973SOL     OW 3889   2.511   0.028   2.060  0.5053 -0.0123  0.6202
  973SOL    HW1 3890   2.522  -0.068   2.065  2.4542 -2.9253 -2.4332
  973SOL    HW2 3891   2.567   0.050   1.984  1.2957  1.4371 -0.5330
  973SOL     MW 3892   2.520   0.019   2.051  0.8667 -0.2054  0.0652
  974SOL     OW 3893   2.060   0.221   2.688 -0.0799 -0.1429  0.0007
  974SOL    HW1 3894   2.152   0.211   2.662  0.6183  2.9982  1.2017
  974SOL    HW2 3895   2.043   0.154   2.754 -0.1968 -0.7284 -2.1042
  974SOL     MW 3896   2.070   0.211   2.693 -0.0032  0.1943 -0.1185
  975SOL     OW 3897   2.197   2.459   2.485  0.0735 -0.3564 -0.3375
  975SOL    HW1 3898   2.274   2.505   2.520  1.2571 -4.4723  3.5908
  975SOL    HW2 3899   2.118   2.517   2.475 -0.1214  1.6316 -1.5139
  975SOL     MW 3900   2.197   2.473   2.489  0.2039 -0.6371  0.0256
  976SOL     OW 3901   0.249   0.354   1.719 -0.4267  1.1123  0.1153
  976SOL    HW1 3902   0.312   0.297   1.761 -0.5672  0.1188  0.0300
  976SOL    HW2 3903   0.179   0.291   1.682  0.7037  0.6945  1.3031
  976SOL     MW 3904   0.248   0.338   1.720 -0.2961  0.9261  0.2608
  977SOL     OW 3905   1.736   2.616   2.488 -0.0834  0.1017 -0.0044
  977SOL    HW1 3906   1.740   2.520   2.477  1.1245 -0.0879  1.1571
  977SOL    HW2 3907   1.827   2.641   2.473  1.1117 -2.5877  1.5948
  977SOL     MW 3908   1.748   2.607   2.485  0.2336 -0.2782  0.3598
   3.10000   3.10000   3.10000
