977 TIP4P/2005f water molecules t=   1.76000 step= 1760
 3908
    1SOL     OW    1   0.405   0.783   0.104 -0.2699 -0.2313 -0.0890
    1SOL    HW1    2   0.368   0.744   0.025  0.0511 -3.6209  0.1153
    1SOL    HW2    3   0.389   0.711   0.164 -1.4955  1.0670 -2.4675
    1SOL     MW    4   0.398   0.769   0.102 -0.3893 -0.5072 -0.3759
    2SOL     OW    5   0.307   3.017   1.095 -0.4269 -0.3065  0.2300
    2SOL    HW1    6   0.361   3.098   1.085  0.6600  0.2984  1.7734
    2SOL    HW2    7   0.214   3.042   1.080  0.2545  0.3879 -0.0327
    2SOL     MW    8   0.302   3.031   1.092 -0.1936 -0.1351  0.3990
    3SOL     OW    9   2.681   0.356   0.982  0.2328  0.5850 -0.3708
    3SOL    HW1   10   2.724   0.433   0.933 -2.0377 -1.6458  0.3512
    3SOL    HW2   11   2.671   0.383   1.084 -0.8350  2.1219 -1.0285
    3SOL     MW   12   2.685   0.370   0.989 -0.2076  0.4935 -0.3623
    4SOL     OW   13   2.930   1.693   0.525 -0.4744 -0.2243  0.8414
    4SOL    HW1   14   2.908   1.785   0.503  1.8288 -1.0485 -0.2346
    4SOL    HW2   15   2.999   1.674   0.460 -0.7878 -2.9364  0.0765
    4SOL     MW   16   2.937   1.703   0.514 -0.2118 -0.6909  0.5985
    5SOL     OW   17   1.609   1.407   0.622  0.2345  0.2996  0.0444
    5SOL    HW1   18   1.649   1.431   0.710  0.7596 -1.4527  2.4531
    5SOL    HW2   19   1.521   1.434   0.627 -0.4930 -1.8510 -2.4461
    5SOL     MW   20   1.603   1.414   0.634  0.2078 -0.2154  0.0336
    6SOL     OW   21   0.795   1.431   0.607  0.4163 -0.0888  0.1384
    6SOL    HW1   22   0.696   1.434   0.609  1.4746  1.8854  3.1858
    6SOL    HW2   23   0.825   1.347   0.656 -2.0234 -1.0165  0.3638
    6SOL     MW   24   0.786   1.420   0.614  0.2340  0.0493  0.5702
    7SOL     OW   25   1.955   1.030   0.014  0.0863 -0.8746  0.0071
    7SOL    HW1   26   2.031   1.088  -0.010  2.4783  1.1812 -2.6150
    7SOL    HW2   27   1.970   1.025   0.112 -1.3678 -1.4516  3.1819
    7SOL     MW   28   1.967   1.037   0.024  0.2100 -0.6795  0.0801
    8SOL     OW   29   0.807   1.443   1.043  0.1163 -0.7764 -0.3444
    8SOL    HW1   30   0.864   1.497   1.093  1.9925  0.8243 -1.3433
    8SOL    HW2   31   0.800   1.364   1.098  1.1449  0.2998 -2.8403
    8SOL     MW   32   0.814   1.440   1.057  0.4995 -0.4232 -0.8055
    9SOL     OW   33   0.923   0.519   1.311  0.0684  0.1643  0.0377
    9SOL    HW1   34   0.844   0.455   1.312 -0.2681 -0.2602  2.5949
    9SOL    HW2   35   0.998   0.476   1.353  0.8214 -0.7087  0.5688
    9SOL     MW   36   0.923   0.505   1.317  0.1234 -0.0069  0.4452
   10SOL     OW   37   0.296   0.823   0.482  0.3993 -0.0172 -0.0349
   10SOL    HW1   38   0.390   0.851   0.466 -0.1254 -0.0760  0.0157
   10SOL    HW2   39   0.266   0.850   0.574  0.3515  2.0317  1.5480
   10SOL     MW   40   0.305   0.830   0.492  0.3238  0.2454  0.1806
   11SOL     OW   41   0.771   1.129   1.472 -0.0681 -0.1718 -0.4182
   11SOL    HW1   42   0.833   1.149   1.542  1.1139  0.5898 -2.4817
   11SOL    HW2   43   0.823   1.060   1.416 -0.0273 -1.3744 -0.0157
   11SOL     MW   44   0.786   1.123   1.474  0.0932 -0.2300 -0.6374
   12SOL     OW   45   0.059   1.075   0.914  0.6571 -0.0469  0.1139
   12SOL    HW1   46   0.096   1.151   0.958 -2.0305 -0.8491  0.1358
   12SOL    HW2   47  -0.012   1.120   0.859 -2.9388  1.6251 -0.1309
   12SOL     MW   48   0.054   1.091   0.912 -0.1719  0.0678  0.0845
   13SOL     OW   49   1.813   1.409   1.307 -0.2765  0.2107  0.3248
   13SOL    HW1   50   1.864   1.334   1.271  2.4416  3.6695  0.9102
   13SOL    HW2   51   1.880   1.476   1.296 -1.0970  0.9640  0.9621
   13SOL     MW   52   1.828   1.408   1.301 -0.0261  0.7664  0.4861
   14SOL     OW   53   0.577   0.312   1.825  0.3792 -0.5268  0.7727
   14SOL    HW1   54   0.501   0.274   1.778 -1.1523 -1.4693 -1.0921
   14SOL    HW2   55   0.641   0.307   1.760  1.3344  0.4056  1.4018
   14SOL     MW   56   0.575   0.306   1.810  0.3032 -0.5281  0.6096
   15SOL     OW   57   2.017   0.434   0.977  0.6968  0.4661 -0.3199
   15SOL    HW1   58   2.050   0.509   1.028  1.3864 -1.9275  0.4878
   15SOL    HW2   59   2.047   0.438   0.887 -1.5166 -1.7252  0.3018
   15SOL     MW   60   2.025   0.445   0.972  0.4957 -0.1389 -0.1313
   16SOL     OW   61   0.266   1.822   0.275  0.0166  0.3058  0.0350
   16SOL    HW1   62   0.354   1.784   0.284 -2.3526  1.3799 -3.0376
   16SOL    HW2   63   0.272   1.905   0.323 -0.2485  1.0948 -0.4695
   16SOL     MW   64   0.278   1.828   0.282 -0.3310  0.5516 -0.4369
   17SOL     OW   65   1.116   0.861   1.415 -0.0358  0.3469  0.4092
   17SOL    HW1   66   1.138   0.834   1.505 -0.4105  0.6323 -1.2560
   17SOL    HW2   67   1.016   0.873   1.416 -0.3592  1.3974 -0.8982
   17SOL     MW   68   1.106   0.859   1.427 -0.1279  0.5231  0.0170
   18SOL     OW   69   0.040   1.649   0.350  0.0990  0.1432  0.2320
   18SOL    HW1   70   0.112   1.714   0.336 -0.9680 -0.2954  1.3658
   18SOL    HW2   71   0.039   1.623   0.259  1.2841  1.7303 -0.4197
   18SOL     MW   72   0.050   1.654   0.336  0.1146  0.2947  0.2956
   19SOL     OW   73   0.108   1.349   0.984 -0.1025  0.1880 -0.1275
   19SOL    HW1   74   0.119   1.350   0.890  1.8144  1.1617 -0.4453
   19SOL    HW2   75   0.014   1.336   0.996 -1.6772 -0.6384 -1.8186
   19SOL     MW   76   0.097   1.348   0.973 -0.0573  0.2075 -0.3926
   20SOL     OW   77   0.446   2.119   1.261  0.0972 -0.2591 -0.2208
   20SOL    HW1   78   0.411   2.054   1.200  0.9280 -1.0410  0.4168
   20SOL    HW2   79   0.405   2.095   1.349  0.5123  3.5681  1.5748
   20SOL     MW   80   0.436   2.108   1.264  0.2616  0.1427  0.1003
   21SOL     OW   81   0.557   0.902   0.424 -0.3398  0.4524  0.1620
   21SOL    HW1   82   0.638   0.855   0.460  4.3984  0.8726  3.4040
   21SOL    HW2   83   0.583   0.931   0.337 -0.0282 -1.2261  1.4710
   21SOL     MW   84   0.571   0.899   0.417  0.3265  0.2864  0.7624
   22SOL     OW   85   1.547   0.713   1.024 -0.0466  0.4249 -0.0989
   22SOL    HW1   86   1.534   0.713   0.931 -2.9579 -1.2778  0.5087
   22SOL    HW2   87   1.493   0.778   1.060  1.7730 -1.8143  0.6432
   22SOL     MW   88   1.538   0.721   1.016 -0.1907 -0.0952  0.0792
   23SOL     OW   89   3.048   0.818   0.727 -0.2564  0.1478 -0.8627
   23SOL    HW1   90   3.097   0.758   0.783  2.1539  1.0922 -0.9295
   23SOL    HW2   91   3.111   0.884   0.694  2.4579  0.2988 -0.6155
   23SOL     MW   92   3.063   0.819   0.730  0.4197  0.2923 -0.8389
   24SOL     OW   93   2.080   2.136   0.077  0.2726 -0.8578 -0.1745
   24SOL    HW1   94   2.041   2.154   0.165 -1.5460  0.9438  0.2402
   24SOL    HW2   95   2.049   2.056   0.038  1.5378  0.8450 -0.3604
   24SOL     MW   96   2.071   2.127   0.083  0.1996 -0.3954 -0.1443
   25SOL     OW   97   0.223   1.438   0.414  0.0051  0.2080 -0.1827
   25SOL    HW1   98   0.166   1.513   0.374  2.3034 -2.3708 -0.8164
   25SOL    HW2   99   0.303   1.439   0.355  2.0402  0.0612 -0.1750
   25SOL     MW  100   0.226   1.448   0.401  0.5768 -0.1516 -0.2653
   26SOL     OW  101   1.999   1.057   0.278 -0.6691 -0.5877  0.5233
   26SOL    HW1  102   1.958   1.091   0.360  0.6551  0.5932  0.2988
   26SOL    HW2  103   2.073   1.118   0.261  0.2241 -0.7709  2.1791
   26SOL     MW  104   2.003   1.070   0.286 -0.3765 -0.4561  0.7121
   27SOL     OW  105   1.856   1.365   0.128  0.2892  0.0821  0.6030
   27SOL    HW1  106   1.808   1.448   0.140 -0.2898 -0.9301  1.3317
   27SOL    HW2  107   1.916   1.352   0.198  0.6602 -0.3858 -0.6463
   27SOL     MW  108   1.857   1.374   0.139  0.2618 -0.1132  0.5343
   28SOL     OW  109   0.430   0.936   2.061  0.4397  0.2251  0.1179
   28SOL    HW1  110   0.486   0.916   2.137  1.4994 -0.5190  1.2463
   28SOL    HW2  111   0.336   0.912   2.066  0.2594 -0.9039  0.0069
   28SOL     MW  112   0.425   0.930   2.072  0.5557 -0.0220  0.2522
   29SOL     OW  113   0.166   1.437   0.721 -0.3202  0.2806 -0.4171
   29SOL    HW1  114   0.192   1.530   0.701 -0.3464  0.4944  1.3408
   29SOL    HW2  115   0.107   1.420   0.647 -0.2527 -1.1420 -1.2828
   29SOL     MW  116   0.161   1.447   0.709 -0.3147  0.1211 -0.2994
   30SOL     OW  117   0.738   1.276   1.242  0.4381 -0.3341  0.4494
   30SOL    HW1  118   0.643   1.297   1.247  1.9489  1.4102 -0.9958
   30SOL    HW2  119   0.752   1.219   1.317 -2.1954  0.2264 -1.9644
   30SOL     MW  120   0.727   1.271   1.253  0.2900 -0.0300 -0.0597
   31SOL     OW  121   0.510   0.240   0.225  0.0525 -0.9152 -0.3864
   31SOL    HW1  122   0.541   0.154   0.263  0.1308  2.5046  1.0335
   31SOL    HW2  123   0.475   0.221   0.138 -0.1405 -1.8623  2.0000
   31SOL     MW  124   0.510   0.226   0.218  0.0374 -0.5890  0.1158
   32SOL     OW  125   2.712   0.970   1.068  0.3028  0.3148 -0.0554
   32SOL    HW1  126   2.673   0.890   1.119 -0.6013  1.1476  0.0606
   32SOL    HW2  127   2.810   0.950   1.070  2.0915 -0.6697  1.1673
   32SOL     MW  128   2.720   0.957   1.075  0.4195  0.2948  0.1213
   33SOL     OW  129   1.601   1.236   0.412 -0.2333 -0.4391  0.2510
   33SOL    HW1  130   1.698   1.225   0.408  1.5545  0.4027 -0.6031
   33SOL    HW2  131   1.595   1.277   0.497  1.4940  0.9067  0.2232
   33SOL     MW  132   1.613   1.240   0.423  0.2305 -0.1504  0.1346
   34SOL     OW  133   1.143   1.971   1.148 -0.1539 -0.3733  0.2784
   34SOL    HW1  134   1.072   1.979   1.207 -1.5052  2.4037 -2.2395
   34SOL    HW2  135   1.219   1.978   1.202 -2.8910 -0.5948 -1.6587
   34SOL     MW  136   1.144   1.973   1.163 -0.6933 -0.0362 -0.3094
   35SOL     OW  137   0.340   0.138   1.706 -0.3943  0.1189 -1.0496
   35SOL    HW1  138   0.361   0.095   1.791 -0.3411  0.7789  0.0221
   35SOL    HW2  139   0.298   0.065   1.654 -2.3454 -1.5233 -0.1885
   35SOL     MW  140   0.338   0.123   1.711 -0.6447 -0.0107 -0.7946
   36SOL     OW  141   1.922   1.999   0.607  0.2324  0.2987 -0.1950
   36SOL    HW1  142   1.896   1.962   0.526 -1.5942  0.9124  2.4382
   36SOL    HW2  143   1.952   1.911   0.634 -0.5326 -0.4785  1.0527
   36SOL     MW  144   1.923   1.983   0.600 -0.1095  0.2771  0.3170
   37SOL     OW  145   1.786   2.081   0.981 -0.8052 -0.4834 -0.5106
   37SOL    HW1  146   1.744   2.028   0.910 -1.4450  0.2750 -1.5413
   37SOL    HW2  147   1.720   2.102   1.044  2.1753 -0.1333 -2.8784
   37SOL     MW  148   1.772   2.077   0.980 -0.4964 -0.3371 -0.9590
   38SOL     OW  149   2.797   0.961   0.025  0.0536 -0.0776 -0.1536
   38SOL    HW1  150   2.815   0.944   0.118 -0.6209  2.0242 -1.0753
   38SOL    HW2  151   2.892   0.982  -0.007  1.1234 -0.5966 -1.8423
   38SOL     MW  152   2.812   0.961   0.033  0.1057  0.1313 -0.4980
   39SOL     OW  153   1.512   0.666   0.739 -0.1448  0.0882 -0.0178
   39SOL    HW1  154   1.489   0.571   0.757 -0.3580 -0.7198 -3.9290
   39SOL    HW2  155   1.430   0.711   0.727  1.5057 -1.3800  1.0747
   39SOL     MW  156   1.498   0.660   0.740  0.0448 -0.2121 -0.3897
   40SOL     OW  157   1.262   1.878   0.250  0.5233 -0.5307  0.3678
   40SOL    HW1  158   1.299   1.795   0.285  0.8847  0.3577  1.4007
   40SOL    HW2  159   1.250   1.938   0.327  1.8235  1.2737 -0.6813
   40SOL     MW  160   1.265   1.875   0.265  0.7425 -0.1754  0.3657
   41SOL     OW  161   0.512   0.507   1.543 -0.0228 -1.1945  0.5750
   41SOL    HW1  162   0.589   0.567   1.530  5.3015  0.2830  2.7120
   41SOL    HW2  163   0.442   0.572   1.541 -0.7037 -3.0802 -1.1521
   41SOL     MW  164   0.513   0.523   1.541  0.5899 -1.2483  0.6291
   42SOL     OW  165   1.224   2.906   1.997  0.2445 -0.5896  0.0768
   42SOL    HW1  166   1.165   2.854   2.057  1.0483 -0.6540  0.7437
   42SOL    HW2  167   1.299   2.896   2.055  0.6161  0.5316  1.2114
   42SOL     MW  168   1.226   2.898   2.013  0.3996 -0.4501  0.3145
   43SOL     OW  169   1.408   0.103   1.696 -0.2563  0.4061 -0.1172
   43SOL    HW1  170   1.486   0.062   1.649  3.4220  2.2156 -0.1830
   43SOL    HW2  171   1.345   0.027   1.689  0.1414 -0.7747  0.8781
   43SOL     MW  172   1.410   0.088   1.689  0.2815  0.4891  0.0055
   44SOL     OW  173   1.230   0.834   0.978  0.0478  0.4219 -0.8797
   44SOL    HW1  174   1.197   0.924   0.977  0.2030  0.5920 -3.1996
   44SOL    HW2  175   1.195   0.787   1.056 -1.3871  0.9911 -1.9303
   44SOL     MW  176   1.221   0.840   0.988 -0.1211  0.5194 -1.3244
   45SOL     OW  177   1.306   0.818   0.722 -0.0097 -0.5279 -0.1506
   45SOL    HW1  178   1.263   0.800   0.806 -1.6908 -1.2559 -0.6177
   45SOL    HW2  179   1.244   0.772   0.659 -2.4436 -1.5809  1.4973
   45SOL     MW  180   1.292   0.810   0.725 -0.5526 -0.7628  0.0052
   46SOL     OW  181   0.427   1.126   0.667 -0.3787 -0.0886  0.1138
   46SOL    HW1  182   0.479   1.143   0.586 -0.0917 -0.2664  1.3800
   46SOL    HW2  183   0.447   1.190   0.733  1.2220 -1.3316  2.0485
   46SOL     MW  184   0.437   1.137   0.665 -0.1296 -0.2761  0.5361
   47SOL     OW  185   0.090   1.994   1.931 -0.2498 -0.7242  0.9291
   47SOL    HW1  186   0.094   1.909   1.883  1.5255  1.2719  1.0680
   47SOL    HW2  187   0.112   1.975   2.017 -0.5048  0.4266  0.8792
   47SOL     MW  188   0.093   1.980   1.936 -0.0492 -0.3090  0.9408
   48SOL     OW  189   1.224   0.499   1.004  0.3849  0.0344  0.0876
   48SOL    HW1  190   1.169   0.454   0.940 -0.6583 -2.9098  0.3177
   48SOL    HW2  191   1.176   0.580   1.011 -0.0338  0.0301  1.2450
   48SOL     MW  192   1.210   0.504   0.996  0.1920 -0.3546  0.2707
   49SOL     OW  193   1.686   0.709   1.554  0.3248  0.5510 -0.3834
   49SOL    HW1  194   1.736   0.666   1.622  1.0690  0.8314 -1.8639
   49SOL    HW2  195   1.719   0.684   1.469 -1.8408  1.4211 -0.6177
   49SOL     MW  196   1.697   0.700   1.552  0.1373  0.7028 -0.6097
   50SOL     OW  197   1.318   1.212   0.635  0.4511 -0.3684  0.2990
   50SOL    HW1  198   1.240   1.199   0.701 -1.8385  0.0393  0.8071
   50SOL    HW2  199   1.393   1.155   0.669 -0.2816  1.1353  0.1498
   50SOL     MW  200   1.318   1.203   0.649  0.0523 -0.1162  0.3464
   51SOL     OW  201   0.352   2.887   0.856  0.3509 -0.2300  0.3899
   51SOL    HW1  202   0.444   2.856   0.869  0.9120 -3.4721 -5.3526
   51SOL    HW2  203   0.325   2.919   0.945 -0.4781 -2.2366  0.0866
   51SOL     MW  204   0.360   2.887   0.870  0.3156 -0.9225 -0.4078
   52SOL     OW  205   0.788   1.825   0.481 -0.1186 -0.1533 -0.1737
   52SOL    HW1  206   0.771   1.919   0.502 -1.4632  0.0912  0.8001
   52SOL    HW2  207   0.800   1.821   0.388  0.3832  2.2518  0.6287
   52SOL     MW  208   0.787   1.836   0.471 -0.2298  0.1963  0.0607
   53SOL     OW  209   0.477   2.151   0.581 -0.0197  0.9259 -0.2839
   53SOL    HW1  210   0.416   2.120   0.505 -1.2173 -0.5189 -0.5306
   53SOL    HW2  211   0.461   2.245   0.587 -2.0660  1.9544  0.5519
   53SOL     MW  212   0.467   2.159   0.572 -0.4477  0.8710 -0.2061
   54SOL     OW  213   2.024   0.971   0.740 -0.2216  0.0205 -0.0867
   54SOL    HW1  214   2.107   0.963   0.695 -0.5492  2.4027 -1.8240
   54SOL    HW2  215   1.980   0.890   0.723  1.2515  0.6691 -0.8291
   54SOL     MW  216   2.029   0.959   0.732 -0.0704  0.4204 -0.4139
   55SOL     OW  217   0.428   1.534   1.719 -0.1745 -0.0683  0.0272
   55SOL    HW1  218   0.374   1.566   1.644 -0.5732  0.4386 -0.5878
   55SOL    HW2  219   0.519   1.525   1.688 -2.9355  0.3113 -0.5094
   55SOL     MW  220   0.433   1.537   1.705 -0.5914  0.0487 -0.1247
   56SOL     OW  221   0.626   0.904   0.138  0.0787 -0.3988  0.2185
   56SOL    HW1  222   0.636   0.972   0.073  2.2747  2.7622  2.0316
   56SOL    HW2  223   0.544   0.858   0.106  0.3582  1.2129  0.0027
   56SOL     MW  224   0.617   0.907   0.125  0.4053  0.2309  0.4293
   57SOL     OW  225   1.101   1.286   1.144  0.4096  0.2258  0.0315
   57SOL    HW1  226   1.194   1.306   1.168 -0.4364 -0.3375  1.4624
   57SOL    HW2  227   1.058   1.260   1.230 -0.7163  0.5801  1.0465
   57SOL     MW  228   1.108   1.285   1.158  0.1494  0.1982  0.3542
   58SOL     OW  229   0.428   1.282   1.295 -0.5743 -0.0638 -0.0126
   58SOL    HW1  230   0.416   1.379   1.297  0.6069  0.1359  1.0542
   58SOL    HW2  231   0.440   1.247   1.384  0.3666  1.1417 -2.5943
   58SOL     MW  232   0.428   1.290   1.307 -0.2943  0.1216 -0.2125
   59SOL     OW  233   1.424   1.688   0.373 -0.3610  0.3226 -0.3741
   59SOL    HW1  234   1.484   1.722   0.432 -1.0048  0.7589  0.4609
   59SOL    HW2  235   1.352   1.659   0.440 -1.7888 -1.7682  0.7058
   59SOL     MW  236   1.422   1.689   0.390 -0.6344  0.1043 -0.1214
   60SOL     OW  237   3.096   0.184   1.645 -0.1841 -0.2697  0.3736
   60SOL    HW1  238   3.019   0.228   1.678  1.4826 -0.0428 -0.1850
   60SOL    HW2  239   3.126   0.124   1.720  0.3648  0.1390 -0.2301
   60SOL     MW  240   3.089   0.182   1.659  0.1082 -0.1859  0.2203
   61SOL     OW  241   1.976   1.343   2.967  0.3618  0.2050 -0.1157
   61SOL    HW1  242   1.946   1.356   3.060  0.7714  1.0321 -1.4376
   61SOL    HW2  243   2.066   1.299   2.967 -1.0045  0.4765  0.1749
   61SOL     MW  244   1.984   1.339   2.979  0.2356  0.3499 -0.2518
   62SOL     OW  245   0.572   1.719   0.667  0.0292  0.6479 -0.2185
   62SOL    HW1  246   0.643   1.746   0.609 -0.7936 -0.7716 -1.9473
   62SOL    HW2  247   0.538   1.637   0.631 -0.2520 -0.5612 -1.0892
   62SOL     MW  248   0.577   1.712   0.655 -0.1164  0.3011 -0.5615
   63SOL     OW  249   1.747   0.721   0.578  0.4826 -0.0714 -0.8822
   63SOL    HW1  250   1.738   0.806   0.528  0.6950  0.9487  0.9783
   63SOL    HW2  251   1.665   0.722   0.634 -1.3860  1.7703 -0.4288
   63SOL     MW  252   1.735   0.732   0.579  0.2641  0.3062 -0.5769
   64SOL     OW  253   0.270   1.698   0.682 -0.1857  0.2970 -0.7197
   64SOL    HW1  254   0.341   1.751   0.716 -0.9155 -2.4020  3.3515
   64SOL    HW2  255   0.184   1.725   0.716 -2.5900 -1.6957  1.5095
   64SOL     MW  256   0.268   1.709   0.691 -0.5992 -0.3220  0.1116
   65SOL     OW  257   1.483   2.294   0.394 -0.3036 -0.1007  0.0417
   65SOL    HW1  258   1.566   2.340   0.404  0.4023 -1.9405  1.7244
   65SOL    HW2  259   1.432   2.331   0.475  0.9562  3.3137 -0.2697
   65SOL     MW  260   1.487   2.305   0.406 -0.0443  0.1071  0.2226
   66SOL     OW  261   0.390   0.569   0.532  0.3354 -0.5873  0.3727
   66SOL    HW1  262   0.437   0.541   0.450 -1.9934 -3.0038 -0.2401
   66SOL    HW2  263   0.345   0.649   0.507  0.8256 -5.1656 -0.5325
   66SOL     MW  264   0.390   0.576   0.518  0.0928 -1.5102  0.1724
   67SOL     OW  265   1.394   0.060   1.968 -0.8444 -0.0240  0.4820
   67SOL    HW1  266   1.397   0.081   1.873  1.4269 -1.7789 -1.6137
   67SOL    HW2  267   1.321  -0.007   1.973 -1.0973  0.0681 -0.7275
   67SOL     MW  268   1.385   0.054   1.956 -0.5781 -0.2434  0.0459
   68SOL     OW  269   0.761   0.092   2.918 -0.2362  0.3241 -0.7659
   68SOL    HW1  270   0.735   0.145   2.844  3.2261  3.3328  0.4351
   68SOL    HW2  271   0.854   0.124   2.938  0.9505 -0.8308 -1.0860
   68SOL     MW  272   0.770   0.103   2.911  0.3772  0.5687 -0.6497
   69SOL     OW  273   1.086   0.294   1.969 -0.0688 -0.0719  0.3350
   69SOL    HW1  274   1.173   0.326   2.006  1.3095 -0.0900  2.3809
   69SOL    HW2  275   1.067   0.206   1.999 -0.8410 -0.8215 -1.5830
   69SOL     MW  276   1.095   0.287   1.977  0.0112 -0.1732  0.3519
   70SOL     OW  277   0.527   1.735   1.116  0.4590 -0.4021  0.5808
   70SOL    HW1  278   0.614   1.781   1.118  1.7347  0.0322 -3.6653
   70SOL    HW2  279   0.523   1.682   1.033 -3.2175  1.5183  0.0573
   70SOL     MW  280   0.538   1.734   1.105  0.1423 -0.0914 -0.0485
   71SOL     OW  281   1.551   0.575   1.278  0.4168  0.5074 -0.1722
   71SOL    HW1  282   1.488   0.647   1.321  0.3985  0.9425 -1.4297
   71SOL    HW2  283   1.545   0.610   1.188 -0.9181 -0.8112 -1.4474
   71SOL     MW  284   1.542   0.589   1.272  0.2382  0.3908 -0.5063
   72SOL     OW  285   0.787   1.819   1.014 -0.1291 -0.0042  0.2615
   72SOL    HW1  286   0.807   1.880   0.941 -2.5842  0.2528  1.0395
   72SOL    HW2  287   0.789   1.743   0.957 -1.5798  0.3987  1.0015
   72SOL     MW  288   0.790   1.817   0.997 -0.6444  0.0829  0.4618
   73SOL     OW  289   1.104   0.700   1.193 -0.6623 -0.2655 -0.7291
   73SOL    HW1  290   1.044   0.627   1.209  2.8208 -1.6440 -2.4663
   73SOL    HW2  291   1.081   0.764   1.267 -0.7926  4.5332  1.0345
   73SOL     MW  292   1.093   0.699   1.205 -0.2199  0.1857 -0.7256
   74SOL     OW  293   2.784   0.067   0.972  0.5165 -0.3089 -0.3132
   74SOL    HW1  294   2.868   0.064   0.930  0.1527  1.9273  0.1751
   74SOL    HW2  295   2.740   0.148   0.956 -0.8966 -2.2735  1.0001
   74SOL     MW  296   2.790   0.077   0.965  0.2821 -0.2731 -0.0755
   75SOL     OW  297   1.510   1.317   0.181 -0.2281 -0.5777 -0.0108
   75SOL    HW1  298   1.576   1.260   0.136 -0.0282 -2.2128  1.9304
   75SOL    HW2  299   1.543   1.311   0.277 -1.1303  3.0251  0.8494
   75SOL     MW  300   1.523   1.308   0.188 -0.3208 -0.3181  0.3588
   76SOL     OW  301   3.043   0.692   0.451  0.6637  0.1955 -0.1087
   76SOL    HW1  302   3.029   0.740   0.540  0.8232  0.0063  0.3947
   76SOL    HW2  303   3.133   0.665   0.443 -1.1275  1.1703  1.4204
   76SOL     MW  304   3.053   0.695   0.462  0.4484  0.2992  0.1594
   77SOL     OW  305   0.846   0.627   0.439  0.6867  0.2736  0.1691
   77SOL    HW1  306   0.804   0.657   0.356 -0.4168 -1.2746 -0.6509
   77SOL    HW2  307   0.838   0.528   0.428  0.2702 -0.7038 -1.2495
   77SOL     MW  308   0.840   0.618   0.427  0.4861 -0.0596 -0.1263
   78SOL     OW  309   0.805   0.869   1.082  0.9814  0.1673  0.2214
   78SOL    HW1  310   0.785   0.947   1.032  1.1544  1.1389 -2.6212
   78SOL    HW2  311   0.716   0.847   1.121  0.5730  0.0861 -4.1099
   78SOL     MW  312   0.790   0.876   1.081  0.9503  0.2848 -0.7251
   79SOL     OW  313   1.853   1.508   0.541  0.2726  0.0427  0.1389
   79SOL    HW1  314   1.760   1.479   0.543 -1.3289  0.8084 -0.1368
   79SOL    HW2  315   1.899   1.466   0.611  0.1933  0.7842 -2.8855
   79SOL     MW  316   1.847   1.499   0.551  0.0509  0.2416 -0.2965
   80SOL     OW  317   0.192   0.977   0.287  0.8685  0.3337 -0.0683
   80SOL    HW1  318   0.140   0.914   0.242 -1.1208  0.0873 -0.3176
   80SOL    HW2  319   0.239   0.923   0.353 -0.9515  0.3473 -0.1277
   80SOL     MW  320   0.192   0.961   0.290  0.3659  0.3030 -0.1090
   81SOL     OW  321   1.842   1.877   0.365 -0.1456 -0.6657  0.4759
   81SOL    HW1  322   1.820   1.792   0.337  2.0135 -0.8434  1.2062
   81SOL    HW2  323   1.802   1.937   0.296  0.4183  2.9186 -2.7110
   81SOL     MW  324   1.834   1.874   0.353  0.2137 -0.2162  0.1518
   82SOL     OW  325   0.963   1.040   0.555 -0.1723 -0.1788  0.1229
   82SOL    HW1  326   0.918   1.065   0.473  0.5261 -1.0961 -0.8866
   82SOL    HW2  327   0.927   0.956   0.578  3.1158  0.5611  0.1801
   82SOL     MW  328   0.952   1.032   0.547  0.3537 -0.2022 -0.0027
   83SOL     OW  329   0.019   0.740   1.573 -0.8165 -0.1128  0.1789
   83SOL    HW1  330  -0.001   0.814   1.501 -1.6326  1.5019 -1.7554
   83SOL    HW2  331   0.082   0.689   1.517 -0.2277 -0.4988 -2.2064
   83SOL     MW  332   0.025   0.743   1.556 -0.8465  0.0493 -0.3910
   84SOL     OW  333   0.010   0.180   0.918 -0.2853 -0.1003 -0.2332
   84SOL    HW1  334   0.020   0.267   0.960 -1.3952 -0.1425 -0.3539
   84SOL    HW2  335   0.013   0.125   0.998 -2.6732  2.8846 -2.3211
   84SOL     MW  336   0.012   0.184   0.934 -0.7468  0.2879 -0.5246
   85SOL     OW  337   0.340   0.500   0.787  0.1761 -0.1639  0.5113
   85SOL    HW1  338   0.368   0.525   0.697 -0.7427  1.7222  1.6580
   85SOL    HW2  339   0.303   0.412   0.791  2.2805  1.7323  0.6812
   85SOL     MW  340   0.339   0.492   0.775  0.3325  0.3352  0.6850
   86SOL     OW  341   1.282   0.284   1.176  0.9164  0.1586  0.6203
   86SOL    HW1  342   1.256   0.357   1.119  1.4560 -1.1404  1.9727
   86SOL    HW2  343   1.354   0.319   1.227  0.7993  1.6056 -1.3669
   86SOL     MW  344   1.288   0.298   1.176  0.9721  0.1782  0.5365
   87SOL     OW  345   1.029   1.553   1.169  0.0118  0.7219  0.1625
   87SOL    HW1  346   1.076   1.631   1.134 -0.5104  1.9146 -1.7806
   87SOL    HW2  347   1.081   1.477   1.146 -0.8058 -2.1268  0.6859
   87SOL     MW  348   1.042   1.553   1.161 -0.1650  0.5034 -0.0248
   88SOL     OW  349   1.157   1.090   0.977 -0.4839  0.2145 -0.3401
   88SOL    HW1  350   1.252   1.109   0.983 -0.6748 -0.9249 -0.8825
   88SOL    HW2  351   1.115   1.139   1.052 -0.7407  2.6580  0.9425
   88SOL     MW  352   1.164   1.099   0.988 -0.5430  0.3866 -0.2424
   89SOL     OW  353   1.776   0.688   0.223  0.4594 -0.1258  0.4250
   89SOL    HW1  354   1.724   0.616   0.256 -0.6858  1.3200  2.0597
   89SOL    HW2  355   1.849   0.690   0.282 -0.0811  3.0665  1.6324
   89SOL     MW  356   1.779   0.679   0.235  0.2370  0.4861  0.8000
   90SOL     OW  357   0.785   1.216   2.850 -0.2161  0.0171 -0.1319
   90SOL    HW1  358   0.857   1.160   2.872  0.5150 -0.5714 -0.8859
   90SOL    HW2  359   0.790   1.290   2.910  2.2560 -2.2334 -0.7062
   90SOL     MW  360   0.795   1.219   2.861  0.2065 -0.3574 -0.3072
   91SOL     OW  361   2.241   0.624   0.506  0.5020 -0.0670  0.4051
   91SOL    HW1  362   2.310   0.667   0.447  1.0494 -1.3221  0.5288
   91SOL    HW2  363   2.236   0.531   0.469 -0.4216  0.9206 -1.1728
   91SOL     MW  364   2.249   0.617   0.493  0.4524 -0.1023  0.2132
   92SOL     OW  365   1.638   0.952   0.499 -0.1407 -0.1767 -0.1528
   92SOL    HW1  366   1.603   0.979   0.582  2.8608 -0.2501 -1.9933
   92SOL    HW2  367   1.573   0.945   0.429 -0.3220 -1.8259 -2.4732
   92SOL     MW  368   1.625   0.954   0.501  0.2314 -0.4040 -0.7018
   93SOL     OW  369   1.082   0.272   0.378  0.2498  0.0308  0.3603
   93SOL    HW1  370   0.989   0.286   0.379 -0.6342 -2.1240  0.3725
   93SOL    HW2  371   1.107   0.284   0.284 -1.2640 -1.0896 -0.6103
   93SOL     MW  372   1.073   0.276   0.366 -0.0666 -0.4013  0.2338
   94SOL     OW  373   1.872   1.362   1.603 -0.1018 -0.1618 -0.1713
   94SOL    HW1  374   1.864   1.351   1.511  0.4816  0.0505  2.4295
   94SOL    HW2  375   1.857   1.264   1.629 -0.6365 -1.6271 -3.0631
   94SOL     MW  376   1.869   1.348   1.594 -0.0954 -0.3271 -0.2097
   95SOL     OW  377   0.586   1.551   0.918 -0.0643 -0.2617  0.1509
   95SOL    HW1  378   0.665   1.498   0.955  0.8583  1.3693 -0.7311
   95SOL    HW2  379   0.528   1.486   0.879 -1.4347  0.4545 -2.3396
   95SOL     MW  380   0.588   1.535   0.918 -0.1234  0.0480 -0.2941
   96SOL     OW  381   1.328   1.851   1.680  0.5928 -0.3652 -0.1591
   96SOL    HW1  382   1.242   1.850   1.729 -1.2769 -2.4939  0.7532
   96SOL    HW2  383   1.346   1.758   1.660 -0.8470 -1.5461  1.4576
   96SOL     MW  384   1.319   1.838   1.684  0.1562 -0.8018  0.1746
   97SOL     OW  385   1.106   1.572   0.836  0.1792  0.1396  0.1798
   97SOL    HW1  386   1.145   1.636   0.902 -1.6641  0.9901  1.5322
   97SOL    HW2  387   1.009   1.590   0.834 -1.3349  1.8597 -0.7892
   97SOL     MW  388   1.099   1.583   0.845 -0.2638  0.4788  0.2304
   98SOL     OW  389   1.344   1.403   1.220  0.1243 -0.1698  0.5961
   98SOL    HW1  390   1.400   1.431   1.287  0.3122  0.0399 -1.9095
   98SOL    HW2  391   1.392   1.427   1.137  2.1097 -1.0990 -0.9150
   98SOL     MW  392   1.358   1.410   1.218  0.4110 -0.2647  0.0661
   99SOL     OW  393   1.515   0.304   1.334  0.2278  0.4108 -0.7459
   99SOL    HW1  394   1.539   0.398   1.323  0.8149 -1.1529  0.2218
   99SOL    HW2  395   1.449   0.310   1.414 -0.0138 -1.7823  1.9268
   99SOL     MW  396   1.510   0.317   1.343  0.2734 -0.0849 -0.2656
  100SOL     OW  397   1.060   1.165   1.388  0.5818  0.2918  0.4225
  100SOL    HW1  398   1.034   1.187   1.479 -2.7006  0.0490 -0.5173
  100SOL    HW2  399   1.096   1.076   1.395 -2.3964  1.4083  1.1933
  100SOL     MW  400   1.061   1.156   1.401 -0.2443  0.4070  0.4002
  101SOL     OW  401   0.552   1.227   0.425  0.3539 -0.1524  0.3464
  101SOL    HW1  402   0.493   1.206   0.352 -2.8967  0.4130 -2.7491
  101SOL    HW2  403   0.636   1.218   0.381  1.6757  0.4453 -1.2979
  101SOL     MW  404   0.556   1.223   0.410  0.0994  0.0011 -0.2790
  102SOL     OW  405   2.947   0.602   1.101 -0.3710 -0.1894  0.0138
  102SOL    HW1  406   2.967   0.691   1.106 -2.2491  0.1658  0.1859
  102SOL    HW2  407   2.917   0.588   1.190 -0.3913 -0.4967 -3.5515
  102SOL     MW  408   2.945   0.612   1.114 -0.6215 -0.1831 -0.4339
  103SOL     OW  409   1.851   0.262   1.771 -0.0776  0.4160 -0.1850
  103SOL    HW1  410   1.860   0.169   1.752 -1.7801  1.9746 -1.5268
  103SOL    HW2  411   1.845   0.267   1.870 -1.5114 -0.0229 -0.5190
  103SOL     MW  412   1.852   0.250   1.782 -0.4914  0.5638 -0.4061
  104SOL     OW  413   0.050   1.532   1.687  0.0674 -0.7451  0.1424
  104SOL    HW1  414   0.100   1.455   1.729 -0.3475  3.3137  0.4730
  104SOL    HW2  415  -0.034   1.490   1.673  0.9447 -0.4318  2.2248
  104SOL     MW  416   0.046   1.516   1.691  0.1284 -0.1683  0.4608
  105SOL     OW  417   0.051   1.223   0.417  0.9768 -0.1295  0.4339
  105SOL    HW1  418   0.089   1.138   0.404 -2.1890 -0.7655 -0.6149
  105SOL    HW2  419   0.117   1.294   0.414  0.6736 -2.7587 -1.7615
  105SOL     MW  420   0.065   1.221   0.415  0.5191 -0.5603  0.0059
  106SOL     OW  421   0.788   0.266   0.830  0.3441 -0.5557 -0.1997
  106SOL    HW1  422   0.737   0.348   0.838  1.1240  1.9503  0.7209
  106SOL    HW2  423   0.866   0.283   0.888 -1.3095 -1.5501  2.6481
  106SOL     MW  424   0.791   0.279   0.839  0.2288 -0.3562  0.2975
  107SOL     OW  425   0.780   2.217   2.889 -0.4529  0.2324 -0.2270
  107SOL    HW1  426   0.686   2.196   2.910 -3.0350  0.5360  0.7688
  107SOL    HW2  427   0.826   2.168   2.960 -0.0312 -0.3739 -0.7245
  107SOL     MW  428   0.774   2.208   2.901 -0.7379  0.1925 -0.1613
  108SOL     OW  429   1.331   1.578   1.638  0.0137  0.4459  0.4732
  108SOL    HW1  430   1.251   1.545   1.591 -4.2585  0.7264 -0.3247
  108SOL    HW2  431   1.414   1.542   1.605 -3.5645  0.0372  1.4057
  108SOL     MW  432   1.332   1.569   1.627 -1.0221  0.4290  0.4910
  109SOL     OW  433   2.035   0.765   0.348 -0.0670  0.4260 -0.4067
  109SOL    HW1  434   2.030   0.853   0.320  0.6271 -2.0686  0.0317
  109SOL    HW2  435   2.094   0.763   0.425 -0.5196 -0.6783  1.1929
  109SOL     MW  436   2.042   0.776   0.354 -0.0351 -0.0488 -0.1378
  110SOL     OW  437   0.419   1.926   0.749 -0.4784 -0.5087  0.5433
  110SOL    HW1  438   0.486   1.860   0.723  1.1608 -1.2679 -1.0838
  110SOL    HW2  439   0.428   2.002   0.686  3.2345 -0.8978  2.9780
  110SOL     MW  440   0.429   1.927   0.737  0.2278 -0.6602  0.6499
  111SOL     OW  441   0.855   0.883   1.351 -0.4550  0.3529  0.2548
  111SOL    HW1  442   0.862   0.878   1.256 -0.6129 -1.1482  0.5509
  111SOL    HW2  443   0.786   0.829   1.380 -1.1948  2.0885 -0.6770
  111SOL     MW  444   0.847   0.875   1.342 -0.5734  0.3839  0.1709
  112SOL     OW  445   1.395   1.124   1.609 -0.4714  0.6104 -0.0285
  112SOL    HW1  446   1.313   1.171   1.621  0.2512 -0.0333  1.1044
  112SOL    HW2  447   1.375   1.030   1.609  0.1367  1.6046  0.9965
  112SOL     MW  448   1.381   1.118   1.611 -0.2958  0.6567  0.2562
  113SOL     OW  449   1.225   2.996   1.719 -0.3527 -0.4050 -0.1323
  113SOL    HW1  450   1.226   2.941   1.798 -0.9280 -0.4702 -1.0115
  113SOL    HW2  451   1.194   2.953   1.640  1.4310  0.2688 -1.9702
  113SOL     MW  452   1.221   2.983   1.719 -0.1933 -0.3247 -0.4908
  114SOL     OW  453   0.374   2.877   1.774  0.2324  0.4857  0.0223
  114SOL    HW1  454   0.446   2.946   1.772  2.4195  3.4863  0.4852
  114SOL    HW2  455   0.304   2.906   1.834  1.0475 -0.1995  0.3632
  114SOL     MW  456   0.374   2.890   1.781  0.6285  0.7912  0.1284
  115SOL     OW  457   0.548   0.837   1.180 -0.2386 -0.1293 -0.1230
  115SOL    HW1  458   0.522   0.745   1.178  1.4552 -0.0517  0.7869
  115SOL    HW2  459   0.464   0.887   1.172  1.0050 -0.8934  2.2421
  115SOL     MW  460   0.534   0.831   1.179  0.1490 -0.2199  0.3091
  116SOL     OW  461   0.690   1.124   0.970 -0.7146 -0.1670  0.5555
  116SOL    HW1  462   0.730   1.171   0.888  3.6204  1.1961  1.7052
  116SOL    HW2  463   0.726   1.168   1.050  1.3430 -0.1337  1.6959
  116SOL     MW  464   0.700   1.136   0.969  0.1288  0.0172  0.8577
  117SOL     OW  465   1.111   1.307   0.802 -0.6702  0.1617 -0.0874
  117SOL    HW1  466   1.137   1.252   0.882  0.3871 -3.1247  0.6281
  117SOL    HW2  467   1.145   1.397   0.828  2.3951  1.0161  0.9627
  117SOL     MW  468   1.119   1.311   0.816 -0.1263 -0.1592  0.1456
  118SOL     OW  469   3.071   2.927   1.800 -0.0905  0.1878 -0.2683
  118SOL    HW1  470   3.131   2.999   1.816  1.7308  0.2038 -0.0238
  118SOL    HW2  471   2.979   2.956   1.793  0.6076 -0.3224  1.1399
  118SOL     MW  472   3.067   2.941   1.801  0.2419  0.1226 -0.0503
  119SOL     OW  473   0.364   1.546   1.279 -0.1786 -0.1765  0.4193
  119SOL    HW1  474   0.426   1.574   1.209 -2.2714  0.4273  0.9609
  119SOL    HW2  475   0.279   1.531   1.234  0.0717  0.5083 -0.0304
  119SOL     MW  476   0.361   1.548   1.264 -0.4217 -0.0065  0.4314
  120SOL     OW  477   0.272   0.844   0.984  0.3100  0.8949 -0.0886
  120SOL    HW1  478   0.247   0.928   1.017  0.3570  0.2561  0.0528
  120SOL    HW2  479   0.365   0.858   0.961  0.5590  0.4473  0.4082
  120SOL     MW  480   0.281   0.857   0.985  0.3491  0.7516 -0.0044
  121SOL     OW  481   1.783   1.127   1.607 -0.2149  0.2230 -0.1528
  121SOL    HW1  482   1.703   1.161   1.565  0.7672  0.1109 -1.0425
  121SOL    HW2  483   1.820   1.064   1.549 -3.6414 -0.5323 -0.0859
  121SOL     MW  484   1.778   1.123   1.594 -0.5374  0.1086 -0.2614
  122SOL     OW  485   0.129   0.658   0.879  1.0155 -0.2634  0.6500
  122SOL    HW1  486   0.199   0.610   0.834  1.3534  0.2132  0.8914
  122SOL    HW2  487   0.191   0.708   0.934 -0.7593  0.1183 -3.3058
  122SOL     MW  488   0.147   0.658   0.881  0.8259 -0.1501  0.1599
  123SOL     OW  489   1.872   1.103   0.536  0.3195  0.1198 -0.0327
  123SOL    HW1  490   1.783   1.063   0.540 -0.1062  2.3603  0.7827
  123SOL    HW2  491   1.923   1.056   0.600 -2.0403 -1.2851 -0.5188
  123SOL     MW  492   1.867   1.092   0.545 -0.0480  0.2301  0.0107
  124SOL     OW  493   0.604   0.468   0.927 -0.4104  0.0068 -0.6648
  124SOL    HW1  494   0.519   0.448   0.880 -0.2397  0.0175 -1.6510
  124SOL    HW2  495   0.622   0.564   0.924  0.4164 -0.5411 -3.3557
  124SOL     MW  496   0.595   0.478   0.920 -0.2788 -0.0641 -1.1500
  125SOL     OW  497   0.679   1.690   1.741 -0.1154 -0.1263 -0.4708
  125SOL    HW1  498   0.670   1.679   1.645  1.2616  2.1519 -0.2278
  125SOL    HW2  499   0.629   1.767   1.751  3.1668 -1.7019  3.3074
  125SOL     MW  500   0.671   1.699   1.730  0.4994 -0.0336  0.0597
  126SOL     OW  501   2.112   1.541   1.914 -0.0539 -0.1422 -0.2649
  126SOL    HW1  502   2.174   1.611   1.904 -0.6934 -0.0342  4.2263
  126SOL    HW2  503   2.164   1.468   1.945  1.1979  0.7993  0.5150
  126SOL     MW  504   2.127   1.541   1.917  0.0269 -0.0037  0.4306
  127SOL     OW  505   0.501   0.776   1.819 -0.3511 -0.1726  0.1020
  127SOL    HW1  506   0.591   0.751   1.802 -3.3397  1.7176 -1.9062
  127SOL    HW2  507   0.504   0.827   1.901  0.0774  2.7468  3.2211
  127SOL     MW  508   0.513   0.779   1.828 -0.6888  0.4620  0.2485
  128SOL     OW  509   1.733   0.733   2.884  0.2308 -0.3760 -0.3007
  128SOL    HW1  510   1.781   0.707   2.809  0.8377 -1.5200 -0.4004
  128SOL    HW2  511   1.727   0.825   2.878  2.1721 -0.9961  2.8914
  128SOL     MW  512   1.739   0.742   2.874  0.5670 -0.6088  0.1073
  129SOL     OW  513   1.564   0.869   0.177 -0.0441  0.7630 -0.3429
  129SOL    HW1  514   1.508   0.795   0.155 -2.4351  0.1070  1.5035
  129SOL    HW2  515   1.643   0.823   0.201  0.2939 -1.5867 -0.0041
  129SOL     MW  516   1.567   0.853   0.178 -0.3150  0.3665 -0.0546
  130SOL     OW  517   0.828   1.459   0.349 -0.1294 -0.4951 -0.0590
  130SOL    HW1  518   0.830   1.447   0.442  2.7740  1.6292 -2.0117
  130SOL    HW2  519   0.915   1.497   0.318  1.0146  0.4448  0.0798
  130SOL     MW  520   0.840   1.462   0.357  0.4046 -0.0908 -0.2983
  131SOL     OW  521   0.066   0.788   0.122 -0.2936 -0.6830 -0.0653
  131SOL    HW1  522   0.056   0.837   0.038  0.7580  1.0622 -2.8340
  131SOL    HW2  523   0.124   0.714   0.100  0.3568 -1.7018  1.0865
  131SOL     MW  524   0.073   0.785   0.108 -0.0690 -0.5871 -0.2786
  132SOL     OW  525   2.723   0.085   1.248 -0.5425 -0.0020  0.2943
  132SOL    HW1  526   2.768   0.061   1.170 -2.0803 -0.8480 -0.3833
  132SOL    HW2  527   2.639   0.038   1.221 -1.1705  1.1084 -0.0030
  132SOL     MW  528   2.718   0.076   1.234 -0.8283  0.0329  0.1657
  133SOL     OW  529   1.038   0.107   1.709  0.3572 -0.3801  0.8578
  133SOL    HW1  530   1.101   0.038   1.733  0.2639  1.2310  0.0966
  133SOL    HW2  531   1.040   0.167   1.786  2.1640  1.0713  2.1134
  133SOL     MW  532   1.047   0.106   1.723  0.5833  0.0239  0.9230
  134SOL     OW  533   1.401   2.481   1.450  0.1807  0.2571  0.2623
  134SOL    HW1  534   1.335   2.528   1.394  1.2527 -0.0204 -4.3256
  134SOL    HW2  535   1.412   2.532   1.524 -3.3098 -0.5017 -0.4452
  134SOL     MW  536   1.393   2.494   1.452 -0.1384  0.1204 -0.4364
  135SOL     OW  537   3.022   0.988   2.965 -0.1302  0.4692  0.1520
  135SOL    HW1  538   3.099   1.045   2.985 -0.3372 -1.2675 -0.8138
  135SOL    HW2  539   2.948   1.042   2.922 -0.1010  1.2727 -0.4841
  135SOL     MW  540   3.022   1.003   2.962 -0.1537  0.3461 -0.0594
  136SOL     OW  541   0.161   1.986   0.881 -0.3862  0.4053  0.0933
  136SOL    HW1  542   0.102   1.919   0.848 -0.0104 -0.6433 -0.5831
  136SOL    HW2  543   0.239   1.976   0.819 -2.1770 -2.0172 -3.6958
  136SOL     MW  544   0.164   1.976   0.868 -0.5728 -0.0527 -0.4959
  137SOL     OW  545   0.745   2.076   0.596 -0.0443  0.2787 -0.1490
  137SOL    HW1  546   0.776   2.066   0.689  2.0634  2.9755  1.4862
  137SOL    HW2  547   0.651   2.097   0.598  0.3691 -2.5868 -0.9849
  137SOL     MW  548   0.736   2.077   0.608  0.2884  0.2565 -0.0435
  138SOL     OW  549   0.469   0.593   1.129  0.2622  0.1577 -1.0292
  138SOL    HW1  550   0.386   0.556   1.149  2.3304  1.2375  0.7024
  138SOL    HW2  551   0.502   0.533   1.065 -0.9561  2.6157  0.5111
  138SOL     MW  552   0.463   0.580   1.123  0.3743  0.6244 -0.5975
  139SOL     OW  553   2.849   0.528   1.366  0.0832 -0.5038  0.0903
  139SOL    HW1  554   2.938   0.487   1.377  1.5765  0.8615  0.1307
  139SOL    HW2  555   2.840   0.580   1.448  2.3077  1.4689 -1.3995
  139SOL     MW  556   2.859   0.529   1.378  0.5737 -0.0634 -0.1009
  140SOL     OW  557   0.889   0.460   1.959  0.1973 -0.0348  0.5403
  140SOL    HW1  558   0.953   0.385   1.963  1.1169  1.5521  2.8063
  140SOL    HW2  559   0.867   0.463   2.055  0.8247  1.0551  2.8498
  140SOL     MW  560   0.895   0.451   1.972  0.4014  0.3184  1.1440
  141SOL     OW  561   1.089   0.625   1.673  0.4933  0.2519  0.3356
  141SOL    HW1  562   1.085   0.571   1.594  1.1251  1.5686 -0.7263
  141SOL    HW2  563   1.182   0.628   1.708  2.2469 -2.3274  1.5680
  141SOL     MW  564   1.101   0.619   1.667  0.8080  0.0853  0.3581
  142SOL     OW  565   0.870   1.218   0.738  0.3279 -0.0925 -0.1174
  142SOL    HW1  566   0.897   1.149   0.668 -1.8825 -0.6746 -0.1313
  142SOL    HW2  567   0.951   1.251   0.787  0.0025  1.5843  2.3241
  142SOL     MW  568   0.884   1.213   0.735 -0.0067  0.0520  0.2029
  143SOL     OW  569   1.832   0.723   1.035  0.0085 -0.0203  0.6443
  143SOL    HW1  570   1.871   0.691   0.957  0.7313  0.3119 -0.9783
  143SOL    HW2  571   1.741   0.700   1.028  1.0652 -2.2400  0.1966
  143SOL     MW  572   1.826   0.716   1.023  0.2433 -0.2694  0.3712
  144SOL     OW  573   0.232   1.322   1.725 -0.2625  0.4297  0.2114
  144SOL    HW1  574   0.294   1.399   1.735 -2.8695 -0.1708  0.7394
  144SOL    HW2  575   0.258   1.279   1.804  1.1669  1.4558 -0.6768
  144SOL     MW  576   0.243   1.327   1.737 -0.4178  0.4859  0.1638
  145SOL     OW  577   0.237   0.490   1.195  0.6402 -0.0788 -0.3431
  145SOL    HW1  578   0.253   0.396   1.214 -1.2756  0.8710 -1.2879
  145SOL    HW2  579   0.182   0.504   1.121 -0.0607  0.7911 -2.0199
  145SOL     MW  580   0.232   0.480   1.188  0.2949  0.1613 -0.6890
  146SOL     OW  581   0.778   1.961   1.518  0.3539  0.9650  0.5598
  146SOL    HW1  582   0.826   1.984   1.430  0.9032  0.4230 -0.3449
  146SOL    HW2  583   0.716   1.887   1.492 -0.5108  0.3557 -1.5412
  146SOL     MW  584   0.776   1.954   1.503  0.3123  0.8131  0.1632
  147SOL     OW  585   0.465   0.504   2.955 -0.2806  0.2357  1.0546
  147SOL    HW1  586   0.394   0.558   2.991 -0.1299  0.1347 -1.2347
  147SOL    HW2  587   0.481   0.551   2.874 -1.8201  0.9343  0.4877
  147SOL     MW  588   0.457   0.517   2.949 -0.4639  0.3146  0.6778
  148SOL     OW  589   0.048   0.914   1.365 -0.1141 -0.3429 -0.5269
  148SOL    HW1  590   0.144   0.926   1.348  0.9151  1.1877 -0.8462
  148SOL    HW2  591   0.010   0.999   1.351 -1.7553  0.2319 -0.2116
  148SOL     MW  592   0.055   0.927   1.361 -0.1949 -0.0651 -0.5275
  149SOL     OW  593   1.577   1.183   1.401 -0.9700 -0.0302  0.9655
  149SOL    HW1  594   1.516   1.173   1.476  2.9514  0.0752 -1.2136
  149SOL    HW2  595   1.589   1.279   1.390 -0.9901  0.1711  2.7849
  149SOL     MW  596   1.570   1.194   1.409 -0.4553  0.0103  0.9181
  150SOL     OW  597   1.723   1.466   0.846 -0.0261  0.0239 -0.1060
  150SOL    HW1  598   1.776   1.394   0.882 -0.7447 -4.2560 -1.2368
  150SOL    HW2  599   1.777   1.545   0.842 -1.0816  2.1687 -1.1091
  150SOL     MW  600   1.737   1.467   0.850 -0.2601 -0.2578 -0.3876
  151SOL     OW  601   1.617   1.886   0.828 -0.3266  0.0518 -0.1407
  151SOL    HW1  602   1.602   1.857   0.737  0.6828  0.5753  0.6595
  151SOL    HW2  603   1.544   1.858   0.884  0.0530  0.0826  0.9185
  151SOL     MW  604   1.605   1.878   0.824 -0.1433  0.1249  0.1046
  152SOL     OW  605   0.651   1.418   1.567 -0.0071 -0.2478  0.2179
  152SOL    HW1  606   0.697   1.460   1.487  1.2353  1.8206 -1.0648
  152SOL    HW2  607   0.613   1.332   1.555  0.7118  1.6478  3.2363
  152SOL     MW  608   0.652   1.412   1.555  0.2517  0.2752  0.4469
  153SOL     OW  609   2.584   1.235   0.717  0.2023  0.3933 -0.0734
  153SOL    HW1  610   2.648   1.185   0.671  1.9005  1.1557 -1.3141
  153SOL    HW2  611   2.531   1.162   0.751 -0.7349 -1.6393  3.5654
  153SOL     MW  612   2.585   1.218   0.716  0.3027  0.2257  0.2430
  154SOL     OW  613   0.122   1.773   1.769  0.0584 -0.2777 -0.2808
  154SOL    HW1  614   0.085   1.679   1.738  1.8849 -1.0493  2.4273
  154SOL    HW2  615   0.220   1.760   1.764  1.2146  1.4347 -3.3826
  154SOL     MW  616   0.130   1.759   1.765  0.4519 -0.1536 -0.3327
  155SOL     OW  617   1.219   0.698   0.296 -0.0447 -0.4102  0.1609
  155SOL    HW1  618   1.214   0.668   0.383 -1.0848  0.9877 -4.1959
  155SOL    HW2  619   1.179   0.788   0.293 -0.9182  2.1672  0.0701
  155SOL     MW  620   1.213   0.706   0.307 -0.2971  0.1143 -0.4259
  156SOL     OW  621   1.565   0.004   1.073  0.0799 -0.0992  0.1465
  156SOL    HW1  622   1.597   0.051   1.145 -0.6298  0.7307  0.6527
  156SOL    HW2  623   1.585  -0.090   1.092  1.2864  1.2009  0.5616
  156SOL     MW  624   1.572  -0.002   1.085  0.1455  0.1818  0.2681
  157SOL     OW  625   1.317   1.132   0.192 -0.3069  0.2586 -0.2432
  157SOL    HW1  626   1.311   1.066   0.255 -3.2972  0.8533 -0.2337
  157SOL    HW2  627   1.391   1.195   0.204  2.4751  0.7086 -0.5911
  157SOL     MW  628   1.326   1.132   0.202 -0.3344  0.3964 -0.2878
  158SOL     OW  629   0.386   1.646   2.255  0.2435 -0.0719  0.9251
  158SOL    HW1  630   0.414   1.737   2.237 -2.2607  2.1107  0.0652
  158SOL    HW2  631   0.334   1.621   2.176  1.7325 -1.0637  0.2471
  158SOL     MW  632   0.383   1.655   2.242  0.1096  0.0852  0.7222
  159SOL     OW  633   1.198   1.687   0.531  0.3171  0.8040 -0.5557
  159SOL    HW1  634   1.144   1.647   0.462 -1.5241  0.9254  2.1050
  159SOL    HW2  635   1.141   1.759   0.560  0.3476 -1.7636  0.8602
  159SOL     MW  636   1.184   1.691   0.526  0.0782  0.4813 -0.0178
  160SOL     OW  637   0.505   1.131   1.539 -0.1392 -0.2785  0.1071
  160SOL    HW1  638   0.449   1.057   1.550 -2.6765  3.8405  3.8203
  160SOL    HW2  639   0.590   1.088   1.524  2.0633 -0.1004 -0.7361
  160SOL     MW  640   0.509   1.116   1.538 -0.1834  0.2884  0.4858
  161SOL     OW  641   0.468   2.278   2.685  0.0704  0.3405 -0.0316
  161SOL    HW1  642   0.383   2.311   2.661  3.7496  0.5612  1.2144
  161SOL    HW2  643   0.481   2.201   2.628  0.0784  0.0353 -1.0136
  161SOL     MW  644   0.458   2.272   2.675  0.5569  0.3294  0.0033
  162SOL     OW  645   1.088   1.819   1.806 -0.3760 -0.0937  0.5709
  162SOL    HW1  646   1.104   1.900   1.864  1.3005 -1.1444  1.1302
  162SOL    HW2  647   1.009   1.781   1.850 -4.3234 -0.4125 -0.5772
  162SOL     MW  648   1.080   1.824   1.819 -0.6756 -0.2744  0.4932
  163SOL     OW  649   2.131   3.075   0.814 -0.1574 -0.5232 -0.6916
  163SOL    HW1  650   2.132   3.148   0.749  0.9775  1.0117 -2.1009
  163SOL    HW2  651   2.064   3.016   0.786  2.0839 -0.0690  1.6949
  163SOL     MW  652   2.122   3.077   0.801  0.2881 -0.2608 -0.5627
  164SOL     OW  653   0.283   0.226   0.861 -0.6764  0.3744 -0.5333
  164SOL    HW1  654   0.185   0.208   0.875  0.2346 -1.6906 -1.3082
  164SOL    HW2  655   0.302   0.151   0.803 -0.6550  0.1335  0.3455
  164SOL     MW  656   0.272   0.214   0.855 -0.5534  0.0702 -0.5196
  165SOL     OW  657   1.175   1.309   0.395 -0.3894 -0.4082 -0.2598
  165SOL    HW1  658   1.205   1.252   0.475 -0.9483 -1.4309  1.4852
  165SOL    HW2  659   1.228   1.274   0.327  1.1156 -1.4447 -1.2653
  165SOL     MW  660   1.186   1.297   0.397 -0.2646 -0.6799 -0.1622
  166SOL     OW  661   0.405   1.156   1.035 -0.7168 -0.2899  0.0147
  166SOL    HW1  662   0.393   1.198   1.119 -1.9311 -0.3596  0.2020
  166SOL    HW2  663   0.505   1.153   1.027  0.0769 -3.7797 -2.0573
  166SOL     MW  664   0.416   1.161   1.045 -0.7723 -0.7596 -0.2339
  167SOL     OW  665   0.839   1.163   0.366  0.3639  0.1324  0.2688
  167SOL    HW1  666   0.857   1.254   0.399 -1.1806  2.1047  0.9415
  167SOL    HW2  667   0.868   1.152   0.272 -2.0482  0.0747 -0.0655
  167SOL     MW  668   0.845   1.174   0.358 -0.1581  0.3850  0.3135
  168SOL     OW  669   1.727   1.641   3.030  0.6345 -0.2064 -0.5987
  168SOL    HW1  670   1.669   1.720   3.028  0.1326  0.0963  0.2720
  168SOL    HW2  671   1.678   1.567   2.988  2.6669 -0.8031 -1.5858
  168SOL     MW  672   1.713   1.642   3.024  0.8364 -0.2452 -0.6140
  169SOL     OW  673   0.317   0.965   1.329 -0.7434 -0.3319  0.0100
  169SOL    HW1  674   0.336   0.928   1.409 -1.2180 -0.5386 -0.8051
  169SOL    HW2  675   0.320   1.060   1.350 -0.4009  0.8634  0.7621
  169SOL     MW  676   0.320   0.973   1.342 -0.7608 -0.2014  0.0017
  170SOL     OW  677   1.121   1.517   1.462 -0.4453  0.4591 -0.3173
  170SOL    HW1  678   1.087   1.604   1.453 -0.0702 -1.6531 -2.6537
  170SOL    HW2  679   1.134   1.488   1.371  1.0734  1.3938 -0.2548
  170SOL     MW  680   1.118   1.524   1.449 -0.1954  0.3037 -0.6173
  171SOL     OW  681   0.494   1.458   0.551 -0.7701  0.7370 -0.3329
  171SOL    HW1  682   0.395   1.465   0.565  1.1928 -0.1989 -0.6501
  171SOL    HW2  683   0.483   1.383   0.486  0.5397 -1.3871 -2.4741
  171SOL     MW  684   0.479   1.449   0.545 -0.3383  0.3333 -0.6573
  172SOL     OW  685   0.749   0.300   1.307  0.1700  0.0995 -0.3011
  172SOL    HW1  686   0.711   0.253   1.234 -1.7039 -0.3441 -1.6491
  172SOL    HW2  687   0.813   0.237   1.358 -1.0816 -2.8881  2.5246
  172SOL     MW  688   0.752   0.285   1.304 -0.2424 -0.3532 -0.1061
  173SOL     OW  689   0.510   1.752   0.339 -0.6632  0.6750 -0.0415
  173SOL    HW1  690   0.528   1.664   0.340 -0.5866  1.1068 -1.3619
  173SOL    HW2  691   0.520   1.784   0.428 -2.6438  1.4382  0.3638
  173SOL     MW  692   0.514   1.745   0.351 -0.9144  0.8327 -0.1622
  174SOL     OW  693   1.901   0.929   1.476  0.2679 -0.3812  0.6289
  174SOL    HW1  694   1.848   0.870   1.527  2.8588 -2.6928  0.9282
  174SOL    HW2  695   1.875   0.919   1.384  0.9634 -1.4950  2.7762
  174SOL     MW  696   1.890   0.920   1.471  0.7015 -0.8331  0.9517
  175SOL     OW  697   0.582   1.464   0.211  0.3515 -0.0608  0.5844
  175SOL    HW1  698   0.566   1.382   0.165  1.3464 -0.2315 -0.9317
  175SOL    HW2  699   0.671   1.447   0.240  2.6423  0.2261  2.1524
  175SOL     MW  700   0.592   1.451   0.209  0.7850 -0.0455  0.5912
  176SOL     OW  701   0.089   1.512   1.188  0.2845  0.1615  0.8223
  176SOL    HW1  702   0.114   1.472   1.101  1.5097 -0.2560  0.0188
  176SOL    HW2  703   0.008   1.462   1.213  1.4575 -2.6280  0.6600
  176SOL     MW  704   0.082   1.500   1.179  0.6009 -0.2616  0.6949
  177SOL     OW  705   0.509   0.275   1.421 -0.1034 -0.2981  0.4569
  177SOL    HW1  706   0.594   0.262   1.375  1.0040  1.5966  1.5024
  177SOL    HW2  707   0.514   0.367   1.463  2.4444  0.1471  0.0602
  177SOL     MW  708   0.521   0.286   1.420  0.3789  0.0106  0.5425
  178SOL     OW  709   3.060   0.545   2.989 -0.0983  0.1327 -0.5003
  178SOL    HW1  710   2.970   0.555   3.036  1.1197  2.4940 -2.1904
  178SOL    HW2  711   3.043   0.553   2.897 -1.0890  3.2922 -2.2684
  178SOL     MW  712   3.046   0.548   2.983 -0.0683  0.8611 -0.9566
  179SOL     OW  713   1.559   1.488   1.362  0.3317  0.2193 -0.6623
  179SOL    HW1  714   1.560   1.492   1.461  3.5473  0.4814  0.2405
  179SOL    HW2  715   1.652   1.481   1.326 -2.1024 -1.6247 -2.2668
  179SOL     MW  716   1.571   1.488   1.371  0.4348  0.0105 -0.7549
  180SOL     OW  717   0.020   0.242   0.418  0.1597  0.3928 -0.0059
  180SOL    HW1  718  -0.068   0.268   0.376 -2.4971  1.3088 -2.1506
  180SOL    HW2  719   0.059   0.319   0.456  0.6150 -1.9298 -0.2422
  180SOL     MW  720   0.014   0.255   0.417 -0.1308  0.2072 -0.3201
  181SOL     OW  721   1.078   1.336   0.009 -0.8851  0.1987  0.0081
  181SOL    HW1  722   1.155   1.377   0.056  0.8383  0.0876 -1.0638
  181SOL    HW2  723   1.117   1.289  -0.061  1.5623 -1.2308  4.1741
  181SOL     MW  724   1.094   1.335   0.006 -0.3348 -0.0045  0.4163
  182SOL     OW  725   0.366   0.892   1.587  0.0263 -0.8576  0.7127
  182SOL    HW1  726   0.273   0.899   1.616 -2.8557 -0.5564 -1.7471
  182SOL    HW2  727   0.415   0.854   1.658  0.3112 -1.8632 -2.2421
  182SOL     MW  728   0.360   0.888   1.600 -0.3164 -0.9506 -0.0017
  183SOL     OW  729   1.582   1.748   1.275  0.2412 -0.2875  0.2349
  183SOL    HW1  730   1.672   1.758   1.296 -2.6358  1.3961  2.1462
  183SOL    HW2  731   1.562   1.654   1.302 -0.6276 -1.0764 -0.1488
  183SOL     MW  732   1.591   1.737   1.281 -0.2530 -0.1694  0.4364
  184SOL     OW  733   0.818   0.629   1.758 -0.1898 -0.2117 -0.5017
  184SOL    HW1  734   0.915   0.629   1.734  0.8154  1.1052  0.0310
  184SOL    HW2  735   0.809   0.552   1.816 -1.7302 -0.1356 -1.0002
  184SOL     MW  736   0.830   0.619   1.762 -0.2604 -0.0279 -0.4972
  185SOL     OW  737   1.125   0.964   1.868 -0.3078  0.1643  0.1321
  185SOL    HW1  738   1.075   0.886   1.906 -1.9544 -1.3542  0.4325
  185SOL    HW2  739   1.162   1.009   1.947 -0.9022  0.8550 -0.9960
  185SOL     MW  740   1.123   0.960   1.884 -0.6035  0.0550  0.0229
  186SOL     OW  741   0.267   1.599   1.516  0.1545 -0.0916  0.0766
  186SOL    HW1  742   0.303   1.549   1.437 -0.0134 -0.0250 -0.0955
  186SOL    HW2  743   0.177   1.570   1.542  0.5323 -0.3335  0.3847
  186SOL     MW  744   0.260   1.588   1.509  0.1822 -0.1147  0.0945
  187SOL     OW  745   1.409   0.793   1.340  0.8142  0.1354 -0.5761
  187SOL    HW1  746   1.409   0.794   1.435 -1.1876 -1.4575 -0.0979
  187SOL    HW2  747   1.318   0.781   1.316  0.0566  1.1718  1.3069
  187SOL     MW  748   1.397   0.792   1.350  0.4501  0.0620 -0.2645
  188SOL     OW  749   1.862   1.229   0.932 -0.5583  0.1144  0.1264
  188SOL    HW1  750   1.881   1.223   1.028  0.7495  0.0603  1.1437
  188SOL    HW2  751   1.861   1.138   0.894 -0.7845 -0.8042  0.4413
  188SOL     MW  752   1.864   1.216   0.940 -0.4156 -0.0139  0.3022
  189SOL     OW  753   0.706   0.717   0.875  0.0952  0.6746 -0.5174
  189SOL    HW1  754   0.626   0.763   0.861 -1.3230  0.0757 -2.7563
  189SOL    HW2  755   0.756   0.770   0.933  0.9615 -0.4507 -1.7019
  189SOL     MW  756   0.702   0.730   0.881  0.0224  0.4471 -0.9691
  190SOL     OW  757   1.882   0.269   2.051 -0.1451 -0.4481  0.1875
  190SOL    HW1  758   1.887   0.254   2.140  0.0295  0.8705 -2.0414
  190SOL    HW2  759   1.959   0.322   2.023  1.5395  0.3106 -1.0660
  190SOL     MW  760   1.893   0.274   2.059  0.1002 -0.1740 -0.2720
  191SOL     OW  761   1.561   0.981   1.229 -0.1157  0.5087  0.3142
  191SOL    HW1  762   1.569   1.057   1.294  0.8337  0.0563  0.3992
  191SOL    HW2  763   1.499   0.917   1.266 -0.6395  1.4933 -1.8099
  191SOL     MW  764   1.553   0.983   1.242 -0.0595  0.5789  0.0452
  192SOL     OW  765   0.524   2.175   2.951  0.3285  0.5895  0.3878
  192SOL    HW1  766   0.491   2.206   2.865  3.3420 -1.7741 -1.3665
  192SOL    HW2  767   0.500   2.083   2.946  1.5391 -2.3516 -2.1457
  192SOL     MW  768   0.517   2.167   2.939  0.8858 -0.1104 -0.1779
  193SOL     OW  769   0.828   1.614   0.798  0.0603 -0.4274 -0.5555
  193SOL    HW1  770   0.731   1.623   0.816 -4.7322  0.5227  1.2760
  193SOL    HW2  771   0.844   1.541   0.739 -2.9094 -0.3730  1.4696
  193SOL     MW  772   0.817   1.605   0.792 -0.9638 -0.2949 -0.0466
  194SOL     OW  773   0.411   1.352   0.859 -0.3070  0.4364  0.0251
  194SOL    HW1  774   0.399   1.285   0.929 -0.4210 -3.2803  1.8543
  194SOL    HW2  775   0.322   1.381   0.832 -2.0780 -1.8977  0.6595
  194SOL     MW  776   0.397   1.347   0.865 -0.5557 -0.3619  0.3502
  195SOL     OW  777   1.199   1.116   3.017  0.0804  0.3345 -0.2236
  195SOL    HW1  778   1.244   1.128   3.104  1.8912 -3.7737  1.2627
  195SOL    HW2  779   1.148   1.034   3.023 -3.4460 -0.4589  1.2692
  195SOL     MW  780   1.198   1.107   3.029 -0.1459 -0.3122  0.1694
  196SOL     OW  781   2.237   1.025   0.506  0.2934  0.1198 -0.2950
  196SOL    HW1  782   2.300   1.007   0.433 -0.1227 -1.5112  2.3262
  196SOL    HW2  783   2.236   1.118   0.517 -1.7517 -1.1451  2.4930
  196SOL     MW  784   2.245   1.035   0.498 -0.0314 -0.2623  0.4187
  197SOL     OW  785   0.617   1.347   2.155  0.1758 -0.0444  0.0298
  197SOL    HW1  786   0.632   1.268   2.102 -2.1564  0.8710 -0.8742
  197SOL    HW2  787   0.674   1.418   2.125  1.2629  1.6425  0.8341
  197SOL     MW  788   0.626   1.346   2.144  0.0115  0.2990  0.0166
  198SOL     OW  789   2.941   1.388   1.021 -0.3029  0.0632 -0.0824
  198SOL    HW1  790   2.936   1.465   0.960  0.1546  0.6992  1.9311
  198SOL    HW2  791   2.855   1.340   1.000  3.1681 -0.2961  1.0862
  198SOL     MW  792   2.929   1.392   1.010  0.2154  0.0997  0.3375
  199SOL     OW  793   0.668   1.254   1.827  0.2475 -0.3022  0.2175
  199SOL    HW1  794   0.573   1.236   1.834 -2.1712 -2.2765 -1.6963
  199SOL    HW2  795   0.672   1.327   1.761  1.2758  0.5065 -3.0075
  199SOL     MW  796   0.656   1.261   1.819  0.0641 -0.4560 -0.4605
  200SOL     OW  797   1.843   2.975   1.291 -0.4558  0.3970  0.2738
  200SOL    HW1  798   1.909   2.978   1.216 -0.4653  0.6284 -3.2983
  200SOL    HW2  799   1.804   3.057   1.293  0.6699 -3.1674 -1.4445
  200SOL     MW  800   1.846   2.986   1.282 -0.3085 -0.0427 -0.4242
  201SOL     OW  801   1.196   0.292   0.817  0.1284  0.1777 -0.1084
  201SOL    HW1  802   1.166   0.206   0.799 -1.8237  0.2587 -0.9098
  201SOL    HW2  803   1.289   0.294   0.808 -0.6924  1.2646  2.1844
  201SOL     MW  804   1.204   0.281   0.814 -0.2375  0.3318  0.0884
  202SOL     OW  805   1.477   1.736   1.026 -0.3363  0.1387 -0.1141
  202SOL    HW1  806   1.486   1.645   1.020  0.8155 -1.6646 -0.7530
  202SOL    HW2  807   1.503   1.763   1.116 -1.4221 -0.2866  1.4373
  202SOL     MW  808   1.481   1.728   1.037 -0.3276 -0.1553  0.0063
  203SOL     OW  809   3.067   0.363   1.315  0.7889  0.5174  0.4641
  203SOL    HW1  810   3.092   0.271   1.351  0.7849 -1.4182 -2.8717
  203SOL    HW2  811   3.137   0.395   1.260 -0.5513  1.9685  0.6664
  203SOL     MW  812   3.079   0.355   1.313  0.6116  0.4534  0.0507
  204SOL     OW  813   0.998   1.828   0.659  0.5786  0.1809 -0.1665
  204SOL    HW1  814   0.976   1.761   0.721  1.2308  3.6163  1.3636
  204SOL    HW2  815   0.919   1.826   0.605 -0.9386  0.1702 -0.2243
  204SOL     MW  816   0.984   1.819   0.660  0.4645  0.6327  0.0278
  205SOL     OW  817   1.413   3.018   1.309  0.2294 -0.8949 -0.7147
  205SOL    HW1  818   1.449   3.055   1.230 -0.1239 -1.2061 -0.0344
  205SOL    HW2  819   1.336   3.071   1.335  1.5405 -0.9805  1.5344
  205SOL     MW  820   1.407   3.030   1.302  0.3558 -0.9472 -0.3282
  206SOL     OW  821   0.367   2.931   1.335 -0.1263  0.0264  0.5790
  206SOL    HW1  822   0.358   2.976   1.251 -0.7323 -0.6497 -0.9705
  206SOL    HW2  823   0.461   2.916   1.351 -0.2543  0.2201  0.0119
  206SOL     MW  824   0.379   2.935   1.326 -0.2232 -0.0373  0.2997
  207SOL     OW  825   0.895   1.748   0.220 -0.2573  0.2687 -0.1676
  207SOL    HW1  826   0.955   1.802   0.166  3.5812 -1.5081 -1.3335
  207SOL    HW2  827   0.965   1.693   0.258  0.7807  1.7087 -1.9483
  207SOL     MW  828   0.912   1.748   0.218  0.3861  0.2243 -0.5563
  208SOL     OW  829   0.781   1.549   1.325  0.0041 -0.0170 -0.1336
  208SOL    HW1  830   0.876   1.568   1.298  4.6086 -0.5562  1.9625
  208SOL    HW2  831   0.761   1.467   1.279 -1.6757 -1.3360  5.2217
  208SOL     MW  832   0.791   1.541   1.315  0.3900 -0.2622  0.8495
  209SOL     OW  833   1.624   0.477   2.829  0.6708 -0.3273 -0.1814
  209SOL    HW1  834   1.663   0.565   2.832 -1.4337  0.8070  1.2910
  209SOL    HW2  835   1.693   0.422   2.796 -1.1015  0.8098 -2.1229
  209SOL     MW  836   1.638   0.482   2.825  0.1593 -0.0276 -0.2433
  210SOL     OW  837   1.489   1.419   0.982  0.3006 -0.2296  0.5298
  210SOL    HW1  838   1.573   1.439   0.943 -0.1216  2.1114  0.9089
  210SOL    HW2  839   1.422   1.443   0.916 -0.4329 -1.5780  0.2894
  210SOL     MW  840   1.491   1.425   0.968  0.1481 -0.0986  0.5481
  211SOL     OW  841   1.746   0.464   0.905  0.0978  0.3162  0.0888
  211SOL    HW1  842   1.762   0.440   0.809 -0.6248  1.1140  0.1011
  211SOL    HW2  843   1.841   0.454   0.933  1.9988  3.0958 -0.8126
  211SOL     MW  844   1.760   0.459   0.896  0.2532  0.7882 -0.0286
  212SOL     OW  845   0.360   1.184   0.205 -0.2312  0.6915 -0.6200
  212SOL    HW1  846   0.302   1.112   0.220  1.4585  2.7560  1.0660
  212SOL    HW2  847   0.432   1.164   0.144  2.1783 -1.0303 -0.1130
  212SOL     MW  848   0.362   1.171   0.199  0.3097  0.7367 -0.3306
  213SOL     OW  849   0.379   1.836   3.017  0.4187 -0.3843  0.4513
  213SOL    HW1  850   0.447   1.858   3.088  0.9745  0.7369 -0.4200
  213SOL    HW2  851   0.414   1.879   2.933  0.0897  1.8911 -1.5872
  213SOL     MW  852   0.392   1.844   3.015  0.4486  0.0638  0.0674
  214SOL     OW  853   0.597   0.342   2.094 -0.6365 -0.1722 -0.1000
  214SOL    HW1  854   0.517   0.402   2.092 -0.3880 -4.4894 -3.8241
  214SOL    HW2  855   0.585   0.290   2.014  1.7109  0.3860 -2.8170
  214SOL     MW  856   0.585   0.343   2.083 -0.2940 -0.6681 -0.9498
  215SOL     OW  857   0.523   0.519   2.520  0.1345 -0.4281  0.2011
  215SOL    HW1  858   0.464   0.580   2.474 -1.8767 -0.3792 -2.8263
  215SOL    HW2  859   0.488   0.467   2.590  0.9781 -2.1546 -2.0751
  215SOL     MW  860   0.511   0.520   2.523 -0.0195 -0.6494 -0.4987
  216SOL     OW  861   2.899   3.094   2.782  0.2469 -0.0514  0.5915
  216SOL    HW1  862   2.814   3.061   2.808  1.9413 -0.4362  0.1708
  216SOL    HW2  863   2.879   3.171   2.740  3.6956 -1.8739 -0.1392
  216SOL     MW  864   2.885   3.100   2.780  0.9255 -0.3427  0.4396
  217SOL     OW  865   0.969   1.087   0.131 -0.7569  0.3902  0.3410
  217SOL    HW1  866   0.975   1.008   0.076  1.1897 -0.2790 -0.3520
  217SOL    HW2  867   1.020   1.156   0.099 -1.5019 -1.4603  4.3174
  217SOL     MW  868   0.977   1.085   0.120 -0.5984  0.0578  0.7742
  218SOL     OW  869   0.847   1.364   2.600 -0.0192 -0.2076 -0.0212
  218SOL    HW1  870   0.813   1.313   2.673 -1.0283  0.5031 -2.1980
  218SOL    HW2  871   0.936   1.388   2.626 -0.3576  2.9790 -0.8989
  218SOL     MW  872   0.854   1.360   2.613 -0.1970  0.3066 -0.4242
  219SOL     OW  873   1.054   0.451   2.600 -0.5020 -0.0531 -0.1891
  219SOL    HW1  874   1.129   0.515   2.610  2.5798  1.3490  0.9504
  219SOL    HW2  875   0.982   0.505   2.568  2.4730 -0.5750 -0.6957
  219SOL     MW  876   1.054   0.467   2.597  0.2971  0.0630 -0.1056
  220SOL     OW  877   1.710   0.512   2.199 -0.4205  0.4922 -0.2493
  220SOL    HW1  878   1.641   0.567   2.159  0.1871  0.2104  0.6418
  220SOL    HW2  879   1.741   0.451   2.131  0.8828  1.4703 -0.4851
  220SOL     MW  880   1.705   0.512   2.185 -0.1684  0.5841 -0.1628
  221SOL     OW  881   0.388   1.383   2.925 -0.4505 -0.0130 -0.0151
  221SOL    HW1  882   0.446   1.304   2.927  2.2962  1.0606  0.6423
  221SOL    HW2  883   0.451   1.460   2.950  1.8050  1.0268 -0.4395
  221SOL     MW  884   0.404   1.383   2.928  0.2095  0.2659  0.0157
  222SOL     OW  885   0.528   0.922   2.721  0.1251 -0.2590  0.2212
  222SOL    HW1  886   0.435   0.914   2.717  0.3657 -0.9264  0.8574
  222SOL    HW2  887   0.562   0.836   2.688 -1.4695 -2.9614 -1.3288
  222SOL     MW  888   0.520   0.910   2.717 -0.0535 -0.7036  0.1006
  223SOL     OW  889   3.092   2.042   2.539 -0.1267 -0.0059 -0.3175
  223SOL    HW1  890   3.081   2.022   2.634  0.8217 -2.2052  0.2501
  223SOL    HW2  891   3.122   2.133   2.531 -0.2601 -1.7098 -0.1763
  223SOL     MW  892   3.094   2.051   2.550 -0.0192 -0.5208 -0.2240
  224SOL     OW  893   1.464   0.690   2.442  0.1086 -0.2230 -0.3529
  224SOL    HW1  894   1.534   0.649   2.498 -1.1881 -5.2269  2.4962
  224SOL    HW2  895   1.441   0.782   2.470  0.3898 -1.9117  0.4942
  224SOL     MW  896   1.470   0.697   2.453 -0.0254 -1.1060  0.1348
  225SOL     OW  897   2.951   1.493   2.245 -0.1167 -0.0538 -0.2348
  225SOL    HW1  898   2.968   1.579   2.204 -3.4811  2.4265 -1.0904
  225SOL    HW2  899   2.871   1.521   2.291 -1.9630  0.5804 -1.2385
  225SOL     MW  900   2.943   1.508   2.246 -0.8042  0.3571 -0.4801
  226SOL     OW  901   0.437   1.558   2.687  0.2972  0.3993  0.2377
  226SOL    HW1  902   0.526   1.593   2.674 -0.4577  2.7716  1.0582
  226SOL    HW2  903   0.367   1.627   2.694  0.6758  0.7102 -0.5524
  226SOL     MW  904   0.439   1.572   2.687  0.2476  0.7533  0.2417
  227SOL     OW  905   0.507   1.142   2.918 -0.7371  0.2678 -0.9096
  227SOL    HW1  906   0.587   1.161   2.866 -1.8662  0.4157  0.2543
  227SOL    HW2  907   0.473   1.071   2.866  0.5482  1.9642  1.8517
  227SOL     MW  908   0.513   1.135   2.904 -0.7165  0.5112 -0.3917
  228SOL     OW  909   0.746   1.113   2.040 -0.1392  0.4045 -0.4943
  228SOL    HW1  910   0.723   1.166   1.964  3.0605 -1.8459  0.3395
  228SOL    HW2  911   0.812   1.161   2.089  1.8853 -0.8183 -4.0600
  228SOL     MW  912   0.751   1.126   2.036  0.5501 -0.0537 -0.8547
  229SOL     OW  913   0.206   0.569   0.025  0.0202  0.1911  0.7344
  229SOL    HW1  914   0.136   0.548  -0.042  1.6174 -0.7431  2.5830
  229SOL    HW2  915   0.205   0.496   0.089  0.7571  0.1529 -1.2035
  229SOL     MW  916   0.197   0.556   0.024  0.3281  0.0628  0.7226
  230SOL     OW  917   1.720   1.376   2.054 -0.2217  0.0030  0.4936
  230SOL    HW1  918   1.673   1.338   2.129  1.5251 -1.6018  1.7855
  230SOL    HW2  919   1.800   1.331   2.066 -1.6586  0.1469  1.5234
  230SOL     MW  920   1.724   1.365   2.066 -0.1808 -0.1898  0.7999
  231SOL     OW  921   2.734   1.269   2.229  0.0252  0.8131 -0.3816
  231SOL    HW1  922   2.807   1.333   2.246  2.7424 -1.6645  0.6019
  231SOL    HW2  923   2.678   1.295   2.153 -2.5741  0.2947 -2.7521
  231SOL     MW  924   2.736   1.281   2.221  0.0408  0.4178 -0.5646
  232SOL     OW  925   2.294   0.895   1.940  0.1659  0.2130  0.4462
  232SOL    HW1  926   2.206   0.910   1.915 -0.9780 -1.9343 -1.9108
  232SOL    HW2  927   2.276   0.856   2.025 -0.1713 -0.5110  0.0532
  232SOL     MW  928   2.280   0.892   1.948 -0.0295 -0.1658  0.0834
  233SOL     OW  929   2.098   0.419   2.040 -0.0060  0.4336 -0.1393
  233SOL    HW1  930   2.141   0.333   2.028  3.9325 -3.5424 -0.6676
  233SOL    HW2  931   2.120   0.447   2.129 -0.4883  0.1171 -2.0620
  233SOL     MW  932   2.107   0.411   2.050  0.4500 -0.1327 -0.4627
  234SOL     OW  933   0.245   1.061   2.673  0.0838  0.1066 -0.0860
  234SOL    HW1  934   0.178   1.059   2.606  1.2018 -0.0984  1.2446
  234SOL    HW2  935   0.275   1.153   2.654  1.5658 -1.7051  4.0524
  234SOL     MW  936   0.240   1.073   2.662  0.4269 -0.1595  0.6356
  235SOL     OW  937   1.142   3.090   2.840  0.0555  0.8452  0.4943
  235SOL    HW1  938   1.209   3.089   2.905 -2.2721  1.8260  1.5926
  235SOL    HW2  939   1.106   3.184   2.821  0.3407  2.2021 -3.4883
  235SOL     MW  940   1.146   3.102   2.846 -0.2140  1.1537  0.1138
  236SOL     OW  941   2.984   0.595   0.209 -0.1129 -0.3062 -0.7331
  236SOL    HW1  942   3.000   0.641   0.294  2.1571  1.7484 -1.9771
  236SOL    HW2  943   3.035   0.660   0.155  2.2839 -0.2001 -2.3598
  236SOL     MW  944   2.993   0.610   0.213  0.5028 -0.0212 -1.1119
  237SOL     OW  945   1.891   1.058   2.125 -0.3959 -0.2043 -0.1884
  237SOL    HW1  946   1.819   1.071   2.179  2.7394  0.1572 -1.1592
  237SOL    HW2  947   1.852   1.039   2.038 -0.2183  1.6175 -4.4226
  237SOL     MW  948   1.877   1.057   2.120  0.0412  0.0838 -0.8752
  238SOL     OW  949   1.072   1.719   2.933  0.1361 -0.2995 -0.3876
  238SOL    HW1  950   1.033   1.634   2.931 -0.8143 -0.5677 -1.4251
  238SOL    HW2  951   1.165   1.706   2.909  0.3805  2.8190  0.3275
  238SOL     MW  952   1.079   1.706   2.929  0.0430  0.0766 -0.4301
  239SOL     OW  953   1.189   1.319   2.354 -0.2840 -0.0851 -0.0261
  239SOL    HW1  954   1.115   1.319   2.294 -1.6613  2.5050 -0.2758
  239SOL    HW2  955   1.166   1.255   2.420  2.7519 -0.2470 -0.7462
  239SOL     MW  956   1.176   1.310   2.355 -0.0652  0.2353 -0.1540
  240SOL     OW  957   0.578   0.878   2.277  0.0757 -0.1915 -0.0969
  240SOL    HW1  958   0.601   0.935   2.352  0.8426 -0.5352  3.3713
  240SOL    HW2  959   0.660   0.857   2.234  2.8288 -0.8211 -1.5242
  240SOL     MW  960   0.592   0.882   2.281  0.5401 -0.3199  0.1724
  241SOL     OW  961   0.701   0.438   3.099 -0.0122  0.2325  0.0070
  241SOL    HW1  962   0.731   0.525   3.129  3.1268 -1.3842  0.0955
  241SOL    HW2  963   0.608   0.448   3.068  3.0792  0.6844  0.8110
  241SOL     MW  964   0.693   0.451   3.099  0.8098  0.0788  0.1248
  242SOL     OW  965   1.501   1.625   2.306 -0.3346 -0.6839  0.0585
  242SOL    HW1  966   1.467   1.709   2.321 -0.1238 -1.3607 -0.3436
  242SOL    HW2  967   1.470   1.591   2.225 -0.1025 -0.5785  1.3485
  242SOL     MW  968   1.492   1.632   2.297 -0.2762 -0.7593  0.1756
  243SOL     OW  969   1.022   0.292   2.373 -0.0998 -1.1814  0.1406
  243SOL    HW1  970   1.107   0.246   2.382 -1.4695 -0.7784  1.5774
  243SOL    HW2  971   1.024   0.348   2.454  1.7499 -0.0041  1.5650
  243SOL     MW  972   1.033   0.293   2.385 -0.0364 -0.9729  0.5181
  244SOL     OW  973   0.092   0.777   2.368 -0.1238  0.3900 -0.0685
  244SOL    HW1  974   0.102   0.857   2.422 -0.6871  1.0687  1.8768
  244SOL    HW2  975   0.178   0.754   2.336 -4.0923 -0.3093 -0.1756
  244SOL     MW  976   0.105   0.785   2.371 -0.7217  0.3873  0.1741
  245SOL     OW  977   1.245   0.159   2.433 -0.6036 -0.3534  0.1831
  245SOL    HW1  978   1.282   0.114   2.351 -0.2430  1.5772  1.4520
  245SOL    HW2  979   1.284   0.112   2.508 -3.1330 -0.0746 -0.4661
  245SOL     MW  980   1.255   0.147   2.432 -0.8898 -0.0619  0.2649
  246SOL     OW  981   1.221   1.142   2.102  0.0279 -0.0576 -0.0043
  246SOL    HW1  982   1.131   1.149   2.143 -2.6056 -0.7120 -0.8525
  246SOL    HW2  983   1.279   1.106   2.171  0.4304  0.2495  3.1171
  246SOL     MW  984   1.217   1.138   2.117 -0.2665 -0.1034  0.2956
  247SOL     OW  985   0.764   0.676   0.189 -0.2410  0.1838  0.1087
  247SOL    HW1  986   0.742   0.766   0.155  0.5177  0.8701 -1.6685
  247SOL    HW2  987   0.853   0.648   0.150  2.0115 -4.1428  1.5118
  247SOL     MW  988   0.773   0.684   0.179  0.1563 -0.2965  0.0594
  248SOL     OW  989   0.300   1.328   2.591 -0.1831 -0.4943  0.4454
  248SOL    HW1  990   0.329   1.347   2.503 -0.8158 -1.6897  2.0842
  248SOL    HW2  991   0.336   1.403   2.639  0.8320 -1.3399 -0.5748
  248SOL     MW  992   0.309   1.341   2.586 -0.1326 -0.7636  0.5270
  249SOL     OW  993   3.029   1.922   2.784  0.1961 -0.2100  0.0069
  249SOL    HW1  994   3.020   1.860   2.711  0.2380  0.3088 -1.6749
  249SOL    HW2  995   3.079   1.879   2.853 -2.3866 -0.7115  0.6353
  249SOL     MW  996   3.034   1.908   2.783 -0.1391 -0.2077 -0.1321
  250SOL     OW  997   2.242   0.765   2.167  0.0154 -0.4120 -0.2214
  250SOL    HW1  998   2.194   0.693   2.217  0.6943 -0.4948  1.3581
  250SOL    HW2  999   2.279   0.811   2.242  2.8682 -1.4171  1.1169
  250SOL     MW 1000   2.241   0.762   2.183  0.4814 -0.5556  0.1636
  251SOL     OW 1001   0.153   0.879   2.037  0.2402 -0.0994 -0.1317
  251SOL    HW1 1002   0.119   0.803   2.079 -0.3592 -1.5246  1.8549
  251SOL    HW2 1003   0.164   0.854   1.945 -1.7853 -0.3753  1.7634
  251SOL     MW 1004   0.150   0.866   2.031 -0.1062 -0.3239  0.3805
  252SOL     OW 1005   1.720   1.010   2.880 -0.2246  1.0430  0.1823
  252SOL    HW1 1006   1.713   1.035   2.971  2.0927 -0.0654  1.2749
  252SOL    HW2 1007   1.803   1.033   2.836 -0.8226 -0.0996  2.5828
  252SOL     MW 1008   1.730   1.016   2.886  0.0022  0.7460  0.6432
  253SOL     OW 1009   1.144   1.691   2.515 -0.2439 -0.4524  0.6840
  253SOL    HW1 1010   1.103   1.650   2.433 -2.1174  0.0841 -0.4737
  253SOL    HW2 1011   1.069   1.745   2.553  1.2140 -1.3338 -0.8369
  253SOL     MW 1012   1.129   1.693   2.509 -0.2987 -0.4979  0.3306
  254SOL     OW 1013   0.971   1.116   2.234  0.1365 -0.6405  0.6208
  254SOL    HW1 1014   0.960   1.022   2.231  0.2997 -1.1670 -0.6449
  254SOL    HW2 1015   0.893   1.151   2.287 -2.5746  0.7848  0.9238
  254SOL     MW 1016   0.960   1.109   2.241 -0.1997 -0.5219  0.4938
  255SOL     OW 1017   0.851   2.536   2.148  0.1640 -0.2569 -0.2709
  255SOL    HW1 1018   0.776   2.472   2.135  2.5752 -2.7737  1.9925
  255SOL    HW2 1019   0.926   2.478   2.158 -2.4000 -3.2939 -0.9878
  255SOL     MW 1020   0.851   2.520   2.147  0.1439 -0.9897 -0.0668
  256SOL     OW 1021   1.311   2.785   3.054  0.4962 -0.4723  0.5447
  256SOL    HW1 1022   1.340   2.698   3.080  0.8262 -0.2334 -0.2859
  256SOL    HW2 1023   1.339   2.804   2.963  1.4577  1.1838  0.9534
  256SOL     MW 1024   1.318   2.776   3.046  0.6666 -0.2223  0.4891
  257SOL     OW 1025   0.034   1.915   0.083  0.1128  0.5212 -0.2942
  257SOL    HW1 1026   0.110   1.936   0.132 -1.5848 -2.2089 -2.2665
  257SOL    HW2 1027   0.068   1.850   0.021  2.3305  0.2735 -0.6134
  257SOL     MW 1028   0.048   1.909   0.081  0.1814  0.1283 -0.5965
  258SOL     OW 1029   0.683   1.016   2.514  0.3885  0.0468  0.1024
  258SOL    HW1 1030   0.712   1.102   2.473  0.9755  1.8464 -1.1521
  258SOL    HW2 1031   0.643   1.047   2.592  2.3479  1.9633  1.3166
  258SOL     MW 1032   0.681   1.032   2.519  0.7245  0.5371  0.0971
  259SOL     OW 1033   0.811   0.463   2.246  0.1264 -0.1381 -0.6007
  259SOL    HW1 1034   0.732   0.404   2.223  0.6709 -0.0072  1.3874
  259SOL    HW2 1035   0.889   0.417   2.278  0.5840  0.3544  1.0959
  259SOL     MW 1036   0.811   0.449   2.247  0.2586 -0.0559 -0.1145
  260SOL     OW 1037   0.645   0.099   1.604 -0.2582  0.1973  0.0102
  260SOL    HW1 1038   0.575   0.113   1.546 -1.0897 -1.2097  2.0343
  260SOL    HW2 1039   0.726   0.118   1.551  0.0242 -1.3001  0.5617
  260SOL     MW 1040   0.646   0.104   1.589 -0.3307 -0.1859  0.3500
  261SOL     OW 1041   1.024   0.736   2.022 -0.0520  0.0477 -0.0081
  261SOL    HW1 1042   1.080   0.691   2.084 -4.0700 -0.8210 -1.1803
  261SOL    HW2 1043   0.975   0.664   1.985 -1.1731 -1.0901  2.0332
  261SOL     MW 1044   1.025   0.721   2.026 -0.7301 -0.2170  0.1066
  262SOL     OW 1045   1.128   0.336   0.128 -0.2330 -0.4203  0.5633
  262SOL    HW1 1046   1.225   0.334   0.099  0.0048 -3.0324 -1.0309
  262SOL    HW2 1047   1.077   0.272   0.073 -2.3237  2.2438  0.6594
  262SOL     MW 1048   1.134   0.327   0.117 -0.4775 -0.4134  0.3656
  263SOL     OW 1049   0.422  -0.001   2.497  0.4508 -0.7612 -0.7311
  263SOL    HW1 1050   0.353   0.059   2.528 -0.3165  0.3979 -1.0815
  263SOL    HW2 1051   0.439   0.039   2.413 -0.8060  2.1107 -1.3831
  263SOL     MW 1052   0.415   0.012   2.490  0.1837 -0.2294 -0.8634
  264SOL     OW 1053   1.547   1.489   1.907  0.2979  0.3701  0.2553
  264SOL    HW1 1054   1.476   1.422   1.905  0.7168 -0.3864  0.3293
  264SOL    HW2 1055   1.620   1.438   1.962  0.6383  0.9028  4.2668
  264SOL     MW 1056   1.547   1.473   1.914  0.3980  0.3405  0.7943
  265SOL     OW 1057   0.731   2.812   2.291  0.0871  0.0593 -0.3978
  265SOL    HW1 1058   0.816   2.801   2.250  0.4141 -1.4738  1.5972
  265SOL    HW2 1059   0.750   2.806   2.386 -0.2198  1.4170 -1.0649
  265SOL     MW 1060   0.744   2.810   2.298  0.0898  0.0362 -0.2226
  266SOL     OW 1061   0.830   0.864   2.142 -0.3483 -0.4328  0.6506
  266SOL    HW1 1062   0.800   0.937   2.086 -1.1567  1.7656  0.9475
  266SOL    HW2 1063   0.909   0.810   2.098  1.6267 -2.1524 -1.1318
  266SOL     MW 1064   0.837   0.867   2.129 -0.1944 -0.3696  0.4546
  267SOL     OW 1065   1.398   1.711   2.649  0.0196  0.6465  0.5441
  267SOL    HW1 1066   1.458   1.635   2.625 -1.5393 -1.4834 -0.3974
  267SOL    HW2 1067   1.323   1.708   2.590 -1.1439  1.7260 -1.5507
  267SOL     MW 1068   1.396   1.701   2.638 -0.3396  0.5080  0.1435
  268SOL     OW 1069   0.130   0.899   1.759  0.4238  0.5871 -0.3043
  268SOL    HW1 1070   0.052   0.948   1.782  0.0827 -0.8991 -2.5774
  268SOL    HW2 1071   0.102   0.823   1.711 -1.0078 -2.8460  2.9228
  268SOL     MW 1072   0.116   0.896   1.756  0.1899 -0.0620 -0.1784
  269SOL     OW 1073   1.364   1.884   2.340  0.4149  0.0786  0.5869
  269SOL    HW1 1074   1.414   1.962   2.354  1.3419 -0.5485 -1.9644
  269SOL    HW2 1075   1.288   1.876   2.399 -0.9897 -0.7523  0.5168
  269SOL     MW 1076   1.361   1.893   2.350  0.3519 -0.1137  0.2410
  270SOL     OW 1077   1.088   0.401   1.512 -0.2315  0.8633 -0.1861
  270SOL    HW1 1078   1.033   0.341   1.561 -2.2515  2.5172  0.1199
  270SOL    HW2 1079   1.178   0.371   1.524 -2.9464  0.7566 -2.2628
  270SOL     MW 1080   1.092   0.389   1.520 -0.8563  1.0674 -0.4197
  271SOL     OW 1081   0.875   0.085   2.501 -0.4525 -0.0080  0.2382
  271SOL    HW1 1082   0.930   0.029   2.551 -1.9993 -0.2584  2.3853
  271SOL    HW2 1083   0.942   0.137   2.457 -3.1379 -1.1360 -2.4714
  271SOL     MW 1084   0.891   0.085   2.502 -1.0109 -0.1899  0.1640
  272SOL     OW 1085   1.468   2.766   2.790  0.1287  0.1497  0.1136
  272SOL    HW1 1086   1.423   2.774   2.709  3.8333  0.3646  1.4018
  272SOL    HW2 1087   1.502   2.858   2.807  0.3730 -0.2914  0.1716
  272SOL     MW 1088   1.466   2.779   2.782  0.6497  0.1199  0.2912
  273SOL     OW 1089   1.478   0.817   2.820 -0.0818 -0.0823  0.3788
  273SOL    HW1 1090   1.555   0.758   2.837  3.0201  1.1064 -0.1232
  273SOL    HW2 1091   1.517   0.901   2.836 -2.2815 -0.5401 -1.3326
  273SOL     MW 1092   1.493   0.821   2.824  0.0372  0.0141  0.0868
  274SOL     OW 1093   1.411   0.636   0.122 -0.6904  0.3461 -0.0779
  274SOL    HW1 1094   1.477   0.589   0.173 -1.8403 -1.2549  1.2401
  274SOL    HW2 1095   1.341   0.658   0.190 -1.4318 -1.0381  0.1520
  274SOL     MW 1096   1.410   0.632   0.137 -0.9399 -0.0478  0.1264
  275SOL     OW 1097   1.840   0.556   1.732 -0.0176 -0.1111 -0.4827
  275SOL    HW1 1098   1.910   0.574   1.801 -0.7369  0.7200  0.8710
  275SOL    HW2 1099   1.825   0.459   1.726  0.6445  0.8299  0.1866
  275SOL     MW 1100   1.847   0.546   1.740 -0.0251  0.1227 -0.2158
  276SOL     OW 1101   0.372   1.182   1.934 -0.3227 -0.4600 -0.1118
  276SOL    HW1 1102   0.415   1.098   1.961 -0.5315 -1.8959  1.0959
  276SOL    HW2 1103   0.334   1.226   2.012 -0.9424 -0.0254  2.1660
  276SOL     MW 1104   0.373   1.177   1.948 -0.4320 -0.5921  0.3481
  277SOL     OW 1105   2.006   1.124   2.491 -0.4854 -0.2406  0.2234
  277SOL    HW1 1106   2.058   1.208   2.500  1.7783  0.7585 -0.9784
  277SOL    HW2 1107   1.917   1.149   2.496  0.7961  1.5527 -0.2953
  277SOL     MW 1108   2.001   1.138   2.493 -0.0177  0.1278 -0.0036
  278SOL     OW 1109   1.447   0.606   1.642  0.2255 -0.1362 -0.3905
  278SOL    HW1 1110   1.454   0.576   1.741  0.7505  0.5496  0.4272
  278SOL    HW2 1111   1.533   0.650   1.625  2.5916 -0.6791 -2.3897
  278SOL     MW 1112   1.459   0.608   1.653  0.6070 -0.1173 -0.5464
  279SOL     OW 1113   0.518   0.126   2.248 -0.1654  0.2983 -0.1976
  279SOL    HW1 1114   0.603   0.067   2.244 -0.5072 -2.8203  1.4771
  279SOL    HW2 1115   0.542   0.207   2.201  1.4276  1.3158 -0.0556
  279SOL     MW 1116   0.533   0.129   2.242 -0.0003  0.0210  0.0421
  280SOL     OW 1117   1.418   1.012   2.218 -0.2405 -0.6206 -0.0574
  280SOL    HW1 1118   1.499   0.974   2.179  1.2590  0.1548 -0.9522
  280SOL    HW2 1119   1.400   0.950   2.287  1.6082 -0.7963  0.8798
  280SOL     MW 1120   1.426   0.999   2.222  0.2013 -0.5415 -0.0518
  281SOL     OW 1121   1.327   1.095   2.758  0.6362 -0.3633  0.0547
  281SOL    HW1 1122   1.399   1.160   2.761 -1.4391  1.0035 -0.7582
  281SOL    HW2 1123   1.296   1.081   2.850  1.0676 -1.4524  0.9482
  281SOL     MW 1124   1.332   1.102   2.771  0.4193 -0.3266  0.0654
  282SOL     OW 1125   1.161   1.289   1.636 -0.4207 -0.3338  0.1813
  282SOL    HW1 1126   1.147   1.360   1.577 -2.8676  1.3945 -3.1862
  282SOL    HW2 1127   1.080   1.269   1.681  2.4578 -2.0339 -0.7007
  282SOL     MW 1128   1.149   1.296   1.634 -0.3638 -0.3301 -0.3794
  283SOL     OW 1129   0.807   1.382   3.070  0.2681 -0.6566 -0.4821
  283SOL    HW1 1130   0.904   1.381   3.084  1.0580  1.3825 -0.3013
  283SOL    HW2 1131   0.781   1.477   3.054  1.7905  0.5259 -4.5598
  283SOL     MW 1132   0.817   1.395   3.070  0.5732 -0.2315 -0.9963
  284SOL     OW 1133   0.369   0.692   2.340  0.1546  0.2368  0.0360
  284SOL    HW1 1134   0.443   0.751   2.325  0.0969  0.9693  0.8473
  284SOL    HW2 1135   0.357   0.621   2.276 -1.9260  2.0677 -0.8919
  284SOL     MW 1136   0.377   0.691   2.330 -0.1275  0.5750  0.0206
  285SOL     OW 1137   0.870   0.835   2.847 -0.4416  0.3084 -0.4146
  285SOL    HW1 1138   0.889   0.884   2.767 -0.0168  0.0449 -0.2610
  285SOL    HW2 1139   0.793   0.796   2.818  1.1912  0.8633 -0.2579
  285SOL     MW 1140   0.862   0.836   2.833 -0.1701  0.3468 -0.3737
  286SOL     OW 1141   1.081   1.487   2.695 -0.2355  0.2319 -0.0256
  286SOL    HW1 1142   1.161   1.433   2.708  1.1087 -1.7511  0.5431
  286SOL    HW2 1143   1.108   1.569   2.640  2.6605  1.4924  3.4027
  286SOL     MW 1144   1.096   1.491   2.690  0.3240  0.1366  0.5018
  287SOL     OW 1145   1.137   0.948   0.338 -0.3095 -0.2071 -0.2559
  287SOL    HW1 1146   1.093   0.960   0.428 -3.1406 -2.8522  0.8465
  287SOL    HW2 1147   1.088   1.011   0.283  0.8385  0.4845  2.1717
  287SOL     MW 1148   1.125   0.958   0.342 -0.5316 -0.4649  0.2098
  288SOL     OW 1149   1.494   0.669   2.125  0.2313  0.1692 -0.2065
  288SOL    HW1 1150   1.456   0.684   2.212 -1.3318  1.9825  3.4651
  288SOL    HW2 1151   1.527   0.761   2.104 -0.2099  2.3427  0.7470
  288SOL     MW 1152   1.493   0.684   2.133 -0.0331  0.6952  0.4037
  289SOL     OW 1153   0.932   0.959   2.605 -0.4444  0.0850 -0.3098
  289SOL    HW1 1154   0.968   0.897   2.546  1.6731  1.0334  0.5358
  289SOL    HW2 1155   0.835   0.974   2.569  1.9430 -0.5581  1.1597
  289SOL     MW 1156   0.924   0.953   2.592  0.1500  0.1253 -0.0043
  290SOL     OW 1157   0.743   0.653   1.505 -0.2943  0.5421 -0.3674
  290SOL    HW1 1158   0.806   0.612   1.448 -0.1746  0.2628 -0.1663
  290SOL    HW2 1159   0.776   0.638   1.593  1.1840  1.1196 -2.6353
  290SOL     MW 1160   0.755   0.646   1.509 -0.0835  0.5815 -0.6401
  291SOL     OW 1161   0.237   0.329   0.192 -0.1008  0.7168  0.2228
  291SOL    HW1 1162   0.330   0.327   0.221 -1.5114  0.0713  2.5118
  291SOL    HW2 1163   0.210   0.238   0.167  0.6284 -0.9418  0.6863
  291SOL     MW 1164   0.246   0.317   0.192 -0.1907  0.4128  0.5860
  292SOL     OW 1165   1.022   0.565   0.097  0.3503 -0.4271 -0.1351
  292SOL    HW1 1166   1.086   0.620   0.144 -2.0996 -0.9211  1.2415
  292SOL    HW2 1167   1.064   0.479   0.098 -0.8090 -0.8186 -1.3214
  292SOL     MW 1168   1.036   0.561   0.104 -0.1259 -0.5439 -0.1100
  293SOL     OW 1169   0.134   0.086   2.548  0.4879  0.1842 -0.4984
  293SOL    HW1 1170   0.116   0.060   2.460  1.0446 -0.9408  1.6235
  293SOL    HW2 1171   0.046   0.114   2.583  0.3739  1.7465 -2.1026
  293SOL     MW 1172   0.120   0.086   2.541  0.5463  0.2419 -0.4301
  294SOL     OW 1173   1.337   0.449   2.358  0.0649 -0.2833  0.0331
  294SOL    HW1 1174   1.367   0.539   2.390  2.3519  1.0716 -0.2979
  294SOL    HW2 1175   1.345   0.389   2.432 -1.3475  1.7374  0.7618
  294SOL     MW 1176   1.342   0.453   2.372  0.1803  0.1621  0.0856
  295SOL     OW 1177   0.848   0.605   2.451 -0.2919  0.3253 -0.0110
  295SOL    HW1 1178   0.813   0.549   2.375  0.2428  2.0450 -0.9336
  295SOL    HW2 1179   0.769   0.638   2.490  0.4031  0.9926 -0.3561
  295SOL     MW 1180   0.833   0.602   2.446 -0.1297  0.6402 -0.1783
  296SOL     OW 1181   1.353   0.313   2.069  0.4997  0.5776 -0.2532
  296SOL    HW1 1182   1.370   0.220   2.048 -1.5261  1.3427 -1.7751
  296SOL    HW2 1183   1.402   0.341   2.149  0.5557  0.4493  0.8737
  296SOL     MW 1184   1.362   0.304   2.076  0.2398  0.6616 -0.3053
  297SOL     OW 1185   1.365   0.344   1.544  0.1250  0.3672 -0.5080
  297SOL    HW1 1186   1.381   0.438   1.568  2.0222  2.8729 -0.8955
  297SOL    HW2 1187   1.403   0.289   1.612 -2.7704  0.3002  1.9802
  297SOL     MW 1188   1.372   0.349   1.556 -0.0067  0.6890 -0.2308
  298SOL     OW 1189   1.646   0.899   2.081  0.4805  0.8921  0.6039
  298SOL    HW1 1190   1.672   0.933   1.991 -0.6227  1.2302  4.3720
  298SOL    HW2 1191   1.728   0.860   2.116 -1.4212  0.7330 -0.3649
  298SOL     MW 1192   1.660   0.898   2.074  0.0841  0.9158  0.9732
  299SOL     OW 1193   0.639   1.182   0.052  0.2380  0.0645  0.3419
  299SOL    HW1 1194   0.584   1.166  -0.034 -2.3085 -2.6688 -1.4225
  299SOL    HW2 1195   0.709   1.249   0.033  0.0374  2.0919  1.1812
  299SOL     MW 1196   0.641   1.189   0.038 -0.1244 -0.0286  0.2198
  300SOL     OW 1197   1.129   1.162   2.553  0.7807  0.7449  0.4361
  300SOL    HW1 1198   1.045   1.109   2.556  1.6010 -0.6983  0.0936
  300SOL    HW2 1199   1.184   1.121   2.621  0.0775 -0.7059 -1.2865
  300SOL     MW 1200   1.125   1.150   2.562  0.7961  0.3630  0.1636
  301SOL     OW 1201   1.513   0.999   0.758  0.1770 -0.6183 -0.4693
  301SOL    HW1 1202   1.485   1.044   0.839 -1.2238 -0.5875  0.1565
  301SOL    HW2 1203   1.437   0.936   0.745 -0.4315 -2.2303 -1.4491
  301SOL     MW 1204   1.499   0.997   0.767 -0.0881 -0.8269 -0.5160
  302SOL     OW 1205   0.215   1.602   2.042 -0.8319 -0.0573  0.1855
  302SOL    HW1 1206   0.207   1.508   2.058  1.0667  1.9069 -2.7544
  302SOL    HW2 1207   0.131   1.647   2.044 -0.7392  2.1393 -1.0893
  302SOL     MW 1208   0.203   1.596   2.044 -0.5691  0.4917 -0.3706
  303SOL     OW 1209   0.265   1.777   2.713  0.1402  0.4497 -0.4588
  303SOL    HW1 1210   0.237   1.806   2.630  1.5073  0.5205 -0.5091
  303SOL    HW2 1211   0.197   1.811   2.777  1.6876  1.3804  2.9522
  303SOL     MW 1212   0.252   1.786   2.711  0.5247  0.5818 -0.0154
  304SOL     OW 1213   0.524   2.063   2.460  0.0205  0.0894 -0.0182
  304SOL    HW1 1214   0.573   2.147   2.458 -1.2971  3.6911 -0.4493
  304SOL    HW2 1215   0.592   2.000   2.484 -0.2946  1.6242  1.4236
  304SOL     MW 1216   0.540   2.066   2.463 -0.1949  0.7671  0.1152
  305SOL     OW 1217   1.161   0.637   0.555 -0.0655 -0.0142  0.1094
  305SOL    HW1 1218   1.077   0.647   0.515  2.0676 -0.3632  1.5687
  305SOL    HW2 1219   1.173   0.548   0.571 -2.4373  1.2393  2.4101
  305SOL     MW 1220   1.151   0.627   0.551 -0.0970  0.1051  0.6055
  306SOL     OW 1221   1.113   1.558   0.300  0.3551  0.4368 -0.1616
  306SOL    HW1 1222   1.142   1.485   0.352 -0.4284  0.1969 -1.4376
  306SOL    HW2 1223   1.177   1.553   0.228  1.7580 -1.2565 -0.3587
  306SOL     MW 1224   1.125   1.547   0.298  0.4368  0.1817 -0.3560
  307SOL     OW 1225   1.459   0.507   1.909  0.2703 -0.0334 -0.5378
  307SOL    HW1 1226   1.411   0.434   1.950 -2.9326  1.1068 -2.0997
  307SOL    HW2 1227   1.454   0.571   1.983 -1.5806 -0.6485  0.4239
  307SOL     MW 1228   1.452   0.506   1.924 -0.3965  0.0359 -0.6170
  308SOL     OW 1229   2.254   0.567   2.755 -0.2383  0.5334  0.2321
  308SOL    HW1 1230   2.349   0.594   2.765 -0.0337 -0.0554  3.4799
  308SOL    HW2 1231   2.209   0.651   2.766  1.1033  1.9545 -2.0625
  308SOL     MW 1232   2.261   0.582   2.758 -0.0343  0.6432  0.3579
  309SOL     OW 1233   0.500   0.544   0.264 -0.3765  0.0212  0.4905
  309SOL    HW1 1234   0.581   0.596   0.255  0.9626 -2.4544  0.4231
  309SOL    HW2 1235   0.546   0.461   0.248  2.2247  0.8722 -0.4908
  309SOL     MW 1236   0.517   0.540   0.261  0.1434 -0.1931  0.3521
  310SOL     OW 1237   0.385   0.538   1.848 -0.6927 -0.1287 -0.5967
  310SOL    HW1 1238   0.455   0.489   1.804  0.5183  0.2605 -0.0713
  310SOL    HW2 1239   0.404   0.635   1.838 -0.0205  2.8745  1.9798
  310SOL     MW 1240   0.396   0.544   1.841 -0.4442  0.3189 -0.1874
  311SOL     OW 1241   1.990   0.648   1.937  0.5815  0.3388 -0.1174
  311SOL    HW1 1242   1.952   0.678   2.017  2.3679  1.1825  0.0561
  311SOL    HW2 1243   2.056   0.577   1.962 -0.8055  0.0899 -0.6882
  311SOL     MW 1244   1.994   0.643   1.951  0.6342  0.4173 -0.1698
  312SOL     OW 1245   1.715   2.474   0.152  0.3093  0.4174 -0.2478
  312SOL    HW1 1246   1.746   2.447   0.240  0.6856  1.7119  2.1953
  312SOL    HW2 1247   1.651   2.539   0.170 -0.6452 -1.2716  1.9738
  312SOL     MW 1248   1.711   2.479   0.166  0.2330  0.3653  0.3677
  313SOL     OW 1249   0.160   1.164   3.019 -0.0605  0.4926 -0.3486
  313SOL    HW1 1250   0.127   1.207   3.101  2.8384  1.2193 -0.3793
  313SOL    HW2 1251   0.173   1.227   2.942  1.1982  0.6810 -0.7301
  313SOL     MW 1252   0.157   1.178   3.020  0.4880  0.6133 -0.4030
  314SOL     OW 1253   2.177   2.894   0.012 -0.0182 -0.2512 -0.3941
  314SOL    HW1 1254   2.105   2.900  -0.063  0.1093  0.0034 -1.3960
  314SOL    HW2 1255   2.211   2.975   0.010  0.5417 -1.2937  0.5363
  314SOL     MW 1256   2.172   2.906   0.002  0.0725 -0.3552 -0.4036
  315SOL     OW 1257   1.542   1.848   3.011  0.0070  0.3872 -0.0633
  315SOL    HW1 1258   1.505   1.906   3.076 -1.7962 -0.0260  1.2785
  315SOL    HW2 1259   1.575   1.913   2.942  1.0121 -1.0288 -1.0561
  315SOL     MW 1260   1.542   1.864   3.010 -0.0983  0.1459 -0.0173
  316SOL     OW 1261   1.210   0.686   2.688 -0.0589  0.6845  0.1075
  316SOL    HW1 1262   1.301   0.726   2.687  0.6523 -0.0564  1.4909
  316SOL    HW2 1263   1.175   0.678   2.778  2.3417  2.7741 -1.7960
  316SOL     MW 1264   1.217   0.690   2.700  0.3517  0.8625  0.0388
  317SOL     OW 1265   0.715   1.590   2.622 -0.2109  0.9044 -0.5564
  317SOL    HW1 1266   0.772   1.511   2.621  2.9076 -0.8165  0.2011
  317SOL    HW2 1267   0.693   1.602   2.531  6.2028 -1.1650  1.2747
  317SOL     MW 1268   0.720   1.581   2.610  1.0468  0.4043 -0.2148
  318SOL     OW 1269   1.365   0.393   2.883 -0.1668  0.3124 -0.1165
  318SOL    HW1 1270   1.296   0.453   2.885 -1.0158 -1.0110  1.7188
  318SOL    HW2 1271   1.449   0.431   2.859 -0.8471  3.3227  1.3067
  318SOL     MW 1272   1.367   0.406   2.880 -0.3686  0.5350  0.3134
  319SOL     OW 1273   0.794   0.511   2.840  0.2626  0.0952  0.4816
  319SOL    HW1 1274   0.773   0.434   2.780  0.8575 -1.9163 -0.2047
  319SOL    HW2 1275   0.761   0.480   2.920  3.8539  2.7622  1.7509
  319SOL     MW 1276   0.787   0.497   2.843  0.8149  0.1817  0.5586
  320SOL     OW 1277   1.021   1.335   1.984 -0.1917  0.2035 -0.3543
  320SOL    HW1 1278   1.090   1.269   2.005 -0.5573 -3.5060  0.8687
  320SOL    HW2 1279   1.074   1.406   1.942  0.5492 -0.5128 -0.8992
  320SOL     MW 1280   1.037   1.336   1.981 -0.1422 -0.3804 -0.2648
  321SOL     OW 1281   1.036   0.896   3.046 -0.2424  0.0665  0.0051
  321SOL    HW1 1282   0.990   0.884   2.961  0.4573 -1.3986 -1.6225
  321SOL    HW2 1283   1.112   0.837   3.030  0.6405  3.2669  0.0260
  321SOL     MW 1284   1.040   0.887   3.033 -0.0336  0.2955 -0.2069
  322SOL     OW 1285   1.283   0.863   1.653  0.8669  0.0169 -0.2937
  322SOL    HW1 1286   1.353   0.807   1.682  0.8567 -1.0190  1.6492
  322SOL    HW2 1287   1.228   0.882   1.730  0.7683 -1.0345 -1.1450
  322SOL     MW 1288   1.285   0.858   1.667  0.8526 -0.2585 -0.1497
  323SOL     OW 1289   1.195   1.523   1.895 -0.1892  0.2963 -0.2436
  323SOL    HW1 1290   1.236   1.524   1.809 -0.1768 -2.4426 -0.4646
  323SOL    HW2 1291   1.236   1.590   1.945  0.5049 -1.0179 -0.9552
  323SOL     MW 1292   1.206   1.532   1.891 -0.0960 -0.2384 -0.3667
  324SOL     OW 1293   1.440   0.940   2.519  0.3865 -0.4816 -0.3036
  324SOL    HW1 1294   1.432   0.970   2.603 -2.2583  0.1629  1.2670
  324SOL    HW2 1295   1.516   0.987   2.494 -1.4883 -1.7747  1.3901
  324SOL     MW 1296   1.449   0.951   2.527 -0.2098 -0.5672  0.1271
  325SOL     OW 1297   1.075   0.532   2.914  0.4216 -0.2499 -0.2142
  325SOL    HW1 1298   1.072   0.559   3.007  1.0692  1.6026  1.6564
  325SOL    HW2 1299   0.979   0.527   2.889  0.4424  1.3970 -0.2949
  325SOL     MW 1300   1.062   0.535   2.923  0.5098  0.2118  0.0219
  326SOL     OW 1301   0.405   1.391   2.327  0.2387 -0.1679  0.2374
  326SOL    HW1 1302   0.483   1.374   2.272 -0.3508  1.2075 -2.7484
  326SOL    HW2 1303   0.396   1.491   2.313  0.7983  3.1680 -0.1100
  326SOL     MW 1304   0.414   1.402   2.318  0.2348  0.4537 -0.2024
  327SOL     OW 1305   1.981   0.769   2.442 -0.1470 -0.1667  0.0837
  327SOL    HW1 1306   1.933   0.766   2.523 -2.0084 -1.5135 -0.9481
  327SOL    HW2 1307   2.010   0.858   2.436 -0.4405  1.5651  2.0408
  327SOL     MW 1308   1.978   0.780   2.452 -0.4313 -0.1159  0.2058
  328SOL     OW 1309   0.223   1.335   2.118  0.6046  0.4942  0.1266
  328SOL    HW1 1310   0.154   1.269   2.139  2.0481  0.3376  0.2018
  328SOL    HW2 1311   0.268   1.333   2.201  0.1220 -4.1711  1.9995
  328SOL     MW 1312   0.220   1.326   2.132  0.7314 -0.1420  0.3837
  329SOL     OW 1313   0.063   0.098   1.361  0.4732  0.0165  0.1396
  329SOL    HW1 1314   0.054   0.080   1.461 -1.2710  1.6130  1.6336
  329SOL    HW2 1315   0.144   0.149   1.350 -1.8127  0.9526 -2.6463
  329SOL     MW 1316   0.072   0.102   1.373 -0.0585  0.3507 -0.0308
  330SOL     OW 1317   0.374   0.050   1.999 -0.4805 -0.2625 -0.0084
  330SOL    HW1 1318   0.419   0.056   2.085  0.6226  1.5572 -0.3635
  330SOL    HW2 1319   0.319  -0.027   2.011  1.3742 -0.3740 -1.8257
  330SOL     MW 1320   0.373   0.041   2.012 -0.0903 -0.0371 -0.2951
  331SOL     OW 1321   0.778   1.234   2.370  0.3188 -0.3760  0.4036
  331SOL    HW1 1322   0.716   1.273   2.305 -3.7539 -1.4748 -3.1612
  331SOL    HW2 1323   0.796   1.311   2.421  0.0218 -1.2219 -1.1522
  331SOL     MW 1324   0.772   1.249   2.368 -0.2577 -0.6326 -0.2720
  332SOL     OW 1325   1.343   1.648   2.918 -0.3609  0.1028 -0.2401
  332SOL    HW1 1326   1.372   1.676   2.826 -0.5773 -0.2711 -0.9791
  332SOL    HW2 1327   1.404   1.701   2.968  2.4196 -3.8642 -0.2578
  332SOL     MW 1328   1.355   1.659   2.913 -0.0226 -0.4699 -0.3399
  333SOL     OW 1329   1.696   1.374   2.932  0.1046  0.1240  0.3846
  333SOL    HW1 1330   1.789   1.394   2.932 -0.0599  2.7642 -3.3561
  333SOL    HW2 1331   1.696   1.301   3.001  2.4381  0.9773 -0.5239
  333SOL     MW 1332   1.709   1.367   2.941  0.3908  0.5849 -0.2288
  334SOL     OW 1333   1.347   3.086   2.605 -0.0026 -0.4503  0.2985
  334SOL    HW1 1334   1.260   3.095   2.651  1.5167  0.4336 -0.9685
  334SOL    HW2 1335   1.407   3.124   2.668 -1.3117 -2.6318  1.1496
  334SOL     MW 1336   1.343   3.092   2.620  0.0251 -0.6215  0.2436
  335SOL     OW 1337   1.279   0.736   3.002  0.4379  0.4761 -0.1211
  335SOL    HW1 1338   1.342   0.670   3.043 -3.1698  0.0014 -2.1749
  335SOL    HW2 1339   1.336   0.762   2.935 -0.2850 -2.4669  1.4931
  335SOL     MW 1340   1.295   0.731   2.999 -0.1335  0.0252 -0.1791
  336SOL     OW 1341   0.913   1.161   1.721 -0.1769 -0.1659 -0.1939
  336SOL    HW1 1342   0.841   1.203   1.778  0.2402  2.2452  3.0401
  336SOL    HW2 1343   0.969   1.116   1.783  0.5412 -1.3669  2.0500
  336SOL     MW 1344   0.911   1.160   1.737 -0.0272 -0.0063  0.5289
  337SOL     OW 1345   0.486   1.957   2.788 -0.5869 -0.6329  0.2088
  337SOL    HW1 1346   0.429   1.915   2.723  0.3981 -0.0246 -2.6356
  337SOL    HW2 1347   0.573   1.916   2.777 -0.9556  2.3162 -1.6297
  337SOL     MW 1348   0.490   1.946   2.778 -0.5056 -0.1635 -0.4090
  338SOL     OW 1349   1.064   0.760   2.453  0.6517 -0.4736 -0.2205
  338SOL    HW1 1350   0.983   0.699   2.446  1.3445 -0.6516 -0.2418
  338SOL    HW2 1351   1.110   0.748   2.535  0.4462 -0.5883  1.4501
  338SOL     MW 1352   1.060   0.750   2.463  0.7160 -0.5122 -0.0029
  339SOL     OW 1353   1.398   1.276   1.923 -0.7048  0.0081  0.1945
  339SOL    HW1 1354   1.352   1.244   1.844  0.3902  2.7415 -0.7820
  339SOL    HW2 1355   1.379   1.205   1.984 -1.1246 -0.0052  0.4661
  339SOL     MW 1356   1.389   1.263   1.920 -0.6157  0.3670  0.1015
  340SOL     OW 1357   1.301   1.498   0.076  0.3690  0.7563  0.0806
  340SOL    HW1 1358   1.305   1.546  -0.004 -0.8283  0.0812  2.8335
  340SOL    HW2 1359   1.382   1.446   0.084  2.8437 -0.8824  1.3909
  340SOL     MW 1360   1.312   1.498   0.066  0.5375  0.4510  0.6167
  341SOL     OW 1361   0.148   1.361   2.832  0.4404 -0.2661  0.6724
  341SOL    HW1 1362   0.234   1.381   2.870 -2.5171 -2.1166  2.4224
  341SOL    HW2 1363   0.162   1.352   2.736  1.4313  0.6465  1.8672
  341SOL     MW 1364   0.162   1.362   2.824  0.1809 -0.3898  1.0610
  342SOL     OW 1365   1.404   0.325   0.054 -0.1946 -0.2642 -0.4702
  342SOL    HW1 1366   1.419   0.398   0.109 -3.7667  3.0283 -2.0364
  342SOL    HW2 1367   1.402   0.360  -0.035  3.1444  1.0028 -1.5695
  342SOL     MW 1368   1.405   0.339   0.050 -0.2254  0.3374 -0.8219
  343SOL     OW 1369   0.219   0.235   2.162 -0.2920  0.4059  0.4475
  343SOL    HW1 1370   0.254   0.177   2.094 -3.0307 -2.0768 -1.7611
  343SOL    HW2 1371   0.125   0.237   2.155  0.7809  2.2173  0.8714
  343SOL     MW 1372   0.211   0.228   2.152 -0.5118  0.3173  0.2120
  344SOL     OW 1373   1.715   2.002   0.174 -0.1935  0.4341  0.1928
  344SOL    HW1 1374   1.715   2.070   0.110  0.7524 -0.4190  3.0747
  344SOL    HW2 1375   1.655   1.931   0.136  2.1290  4.6455 -0.8291
  344SOL     MW 1376   1.707   2.002   0.160  0.2377  0.8772  0.4382
  345SOL     OW 1377   0.661   1.621   2.339 -0.4605 -0.1877 -0.6256
  345SOL    HW1 1378   0.587   1.632   2.279 -0.5699 -0.7336 -1.7727
  345SOL    HW2 1379   0.740   1.610   2.287 -2.0489 -1.9149  1.4375
  345SOL     MW 1380   0.661   1.621   2.324 -0.6845 -0.4876 -0.5047
  346SOL     OW 1381   1.669   1.150   0.040 -0.2252  0.6288 -0.2637
  346SOL    HW1 1382   1.764   1.138   0.062  1.1119 -2.1129 -0.4028
  346SOL    HW2 1383   1.634   1.069   0.082  5.3484 -0.0807  1.7325
  346SOL     MW 1384   1.677   1.138   0.048  0.6866  0.1734 -0.0187
  347SOL     OW 1385   1.175   0.618   2.213  0.0738  0.5382  0.1295
  347SOL    HW1 1386   1.221   0.540   2.254  0.0351 -1.3169  1.6575
  347SOL    HW2 1387   1.147   0.656   2.295  0.0686  0.3515 -0.5797
  347SOL     MW 1388   1.177   0.613   2.230  0.0680  0.2688  0.2375
  348SOL     OW 1389   1.320   2.557   1.930 -0.5421  0.5442  0.6392
  348SOL    HW1 1390   1.320   2.493   2.011 -1.8244  0.4105 -0.7040
  348SOL    HW2 1391   1.357   2.630   1.971  1.0627 -1.0455  1.7458
  348SOL     MW 1392   1.325   2.559   1.946 -0.4995  0.3168  0.6080
  349SOL     OW 1393   1.478   0.165   2.782  0.0448  0.4109 -0.3391
  349SOL    HW1 1394   1.429   0.237   2.827  0.3512 -0.0517  2.8991
  349SOL    HW2 1395   1.498   0.118   2.861 -2.7231 -0.3324 -2.1089
  349SOL     MW 1396   1.474   0.168   2.799 -0.2800  0.2518 -0.1453
  350SOL     OW 1397   1.846   0.629   2.656  0.8280 -0.3895  0.4267
  350SOL    HW1 1398   1.811   0.568   2.594  0.1946  2.0213  0.9883
  350SOL    HW2 1399   1.915   0.576   2.704 -3.3921 -0.6322  1.4783
  350SOL     MW 1400   1.851   0.614   2.654  0.1876 -0.1034  0.6396
  351SOL     OW 1401   0.077   1.183   1.559 -0.0710  0.1926 -0.3841
  351SOL    HW1 1402   0.081   1.090   1.581 -2.0693 -0.6225 -2.7123
  351SOL    HW2 1403   0.141   1.232   1.612 -0.4821  2.9824 -0.6905
  351SOL     MW 1404   0.086   1.177   1.569 -0.3889  0.4531 -0.7317
  352SOL     OW 1405   0.735   1.849   2.780 -0.1034  0.0850  0.0522
  352SOL    HW1 1406   0.767   1.825   2.865  1.9390 -1.5042 -1.2817
  352SOL    HW2 1407   0.705   1.763   2.747 -0.9460 -2.1518 -0.7742
  352SOL     MW 1408   0.736   1.834   2.787  0.0549 -0.4198 -0.2328
  353SOL     OW 1409   3.088   2.596   2.624 -0.2046 -0.1773 -0.3406
  353SOL    HW1 1410   3.179   2.571   2.621 -0.7821  0.6302  1.4203
  353SOL    HW2 1411   3.089   2.670   2.563  1.2225  0.3851  1.4093
  353SOL     MW 1412   3.100   2.602   2.616 -0.0925  0.0034  0.1226
  354SOL     OW 1413   0.369   2.415   0.838 -0.0660 -0.1037  0.3530
  354SOL    HW1 1414   0.427   2.394   0.912  1.5036 -0.3186  0.3705
  354SOL    HW2 1415   0.292   2.352   0.847  1.6672  3.5505  0.3362
  354SOL     MW 1416   0.367   2.404   0.849  0.3698  0.3501  0.3531
  355SOL     OW 1417   0.088   2.227   0.404  0.4597 -0.1086 -0.2506
  355SOL    HW1 1418   0.005   2.174   0.390  1.8442  1.4695 -0.9026
  355SOL    HW2 1419   0.086   2.282   0.486  2.0404 -1.5223 -1.6792
  355SOL     MW 1420   0.077   2.227   0.413  0.8510 -0.0869 -0.5251
  356SOL     OW 1421   0.758   2.942   1.055  0.4168 -0.5130  0.2310
  356SOL    HW1 1422   0.823   2.955   0.985 -0.2284 -1.0424  1.0001
  356SOL    HW2 1423   0.677   2.914   1.009 -1.5698  2.4941 -1.5153
  356SOL     MW 1424   0.756   2.940   1.040  0.0696 -0.1861  0.1021
  357SOL     OW 1425   1.851   2.789   0.444 -0.0503 -0.2240  0.1562
  357SOL    HW1 1426   1.859   2.790   0.537 -2.3722  0.3186  0.4334
  357SOL    HW2 1427   1.936   2.742   0.420 -1.0631  0.4875 -0.0194
  357SOL     MW 1428   1.863   2.783   0.453 -0.4903 -0.0585  0.1696
  358SOL     OW 1429   0.422   0.146   1.055 -0.5150  0.0019  0.1650
  358SOL    HW1 1430   0.516   0.147   1.032  1.0947  1.4724  0.2883
  358SOL    HW2 1431   0.371   0.177   0.976 -0.2941  1.0607  0.1572
  358SOL     MW 1432   0.428   0.150   1.042 -0.2735  0.3356  0.1802
  359SOL     OW 1433   0.874   2.983   1.854 -0.7432  0.2411  0.2870
  359SOL    HW1 1434   0.887   2.885   1.841  1.0537 -2.7130 -0.5334
  359SOL    HW2 1435   0.911   3.013   1.778  1.0856 -0.8863  0.5691
  359SOL     MW 1436   0.881   2.974   1.843 -0.2648 -0.2974  0.2160
  360SOL     OW 1437   0.590   2.790   0.917 -0.1101 -0.5220  0.6140
  360SOL    HW1 1438   0.614   2.742   0.838 -0.0252  0.2954  1.4471
  360SOL    HW2 1439   0.591   2.722   0.990  0.9122  0.3474  1.1257
  360SOL     MW 1440   0.593   2.775   0.916  0.0360 -0.2994  0.7914
  361SOL     OW 1441   0.203   2.684   1.384 -0.4295 -0.3317  0.7390
  361SOL    HW1 1442   0.134   2.731   1.428 -3.3566 -0.1393  1.2420
  361SOL    HW2 1443   0.277   2.748   1.372 -1.7302 -1.5878 -1.7368
  361SOL     MW 1444   0.204   2.699   1.388 -0.9873 -0.4720  0.4787
  362SOL     OW 1445   1.374   2.412   0.618 -0.2366 -0.0004  0.2332
  362SOL    HW1 1446   1.424   2.378   0.694  0.9430 -0.3251  1.5193
  362SOL    HW2 1447   1.425   2.481   0.575  1.4955 -1.1918 -2.9307
  362SOL     MW 1448   1.387   2.417   0.622  0.1475 -0.2005 -0.0145
  363SOL     OW 1449   0.302   0.019   0.699  0.3373  0.2741  0.0543
  363SOL    HW1 1450   0.318  -0.065   0.749 -0.0029 -2.2862 -1.1733
  363SOL    HW2 1451   0.215   0.010   0.663 -0.3056 -0.6079  0.3252
  363SOL     MW 1452   0.293   0.006   0.701  0.2076 -0.1801 -0.0719
  364SOL     OW 1453   0.805   0.189   0.132  0.2111 -0.1443  0.3670
  364SOL    HW1 1454   0.755   0.151   0.203 -0.9003  0.6442 -2.9409
  364SOL    HW2 1455   0.745   0.254   0.095 -2.4857  0.0612 -0.7391
  364SOL     MW 1456   0.791   0.193   0.137 -0.2914 -0.0131 -0.2154
  365SOL     OW 1457   0.883   2.024   1.270  0.0890  0.1292  0.9893
  365SOL    HW1 1458   0.848   2.111   1.250 -2.8351  0.4407 -0.5254
  365SOL    HW2 1459   0.854   1.971   1.202  2.6499 -0.1338  2.5291
  365SOL     MW 1460   0.875   2.028   1.259  0.0411  0.1356  0.9926
  366SOL     OW 1461   2.916   2.661   0.936 -0.7004  0.0551  0.4485
  366SOL    HW1 1462   2.978   2.618   0.987 -2.2001  2.4066  0.1116
  366SOL    HW2 1463   2.963   2.701   0.853  3.3122 -1.3538  1.4933
  366SOL     MW 1464   2.931   2.660   0.932 -0.3689  0.1795  0.5419
  367SOL     OW 1465   1.251   3.000   1.006  0.6149  0.0033 -0.1134
  367SOL    HW1 1466   1.340   3.040   1.025  2.9385  1.5877  3.0551
  367SOL    HW2 1467   1.241   3.001   0.908 -0.5578 -0.0874  1.3514
  367SOL     MW 1468   1.262   3.006   0.996  0.7668  0.2004  0.4979
  368SOL     OW 1469   1.700   0.449   0.615 -0.3904 -0.0587 -0.3500
  368SOL    HW1 1470   1.764   0.393   0.574 -1.3641 -1.7603  0.0099
  368SOL    HW2 1471   1.720   0.541   0.587  0.6136 -1.3306 -2.5011
  368SOL     MW 1472   1.711   0.454   0.606 -0.3864 -0.4510 -0.5864
  369SOL     OW 1473   0.136   2.370   1.741  0.0212  0.1758  0.2410
  369SOL    HW1 1474   0.225   2.375   1.760  0.3750 -0.8893  0.5555
  369SOL    HW2 1475   0.103   2.461   1.746  1.7962  1.2980 -0.3942
  369SOL     MW 1476   0.143   2.383   1.744  0.3021  0.1833  0.1987
  370SOL     OW 1477   0.694   0.121   1.047  0.8760  0.3702  0.2464
  370SOL    HW1 1478   0.745   0.146   0.971 -2.1770 -1.9317 -0.7936
  370SOL    HW2 1479   0.722   0.023   1.048 -1.4788 -1.9440 -0.9083
  370SOL     MW 1480   0.705   0.111   1.037  0.1625 -0.2388 -0.0432
  371SOL     OW 1481   1.139   2.907   1.471 -0.5843  0.2526  0.2445
  371SOL    HW1 1482   1.152   2.811   1.464 -1.3777 -0.9305  0.0263
  371SOL    HW2 1483   1.117   2.946   1.388 -0.1628  0.4646  0.0114
  371SOL     MW 1484   1.138   2.900   1.459 -0.6334  0.1244  0.1849
  372SOL     OW 1485   0.806   2.333   0.457 -0.0860 -0.4365 -0.1724
  372SOL    HW1 1486   0.809   2.251   0.510 -3.5257  0.1895  0.1929
  372SOL    HW2 1487   0.832   2.300   0.369 -0.5903  0.8257 -0.3575
  372SOL     MW 1488   0.810   2.318   0.452 -0.6064 -0.1874 -0.1486
  373SOL     OW 1489   2.852   3.004   1.425 -0.5123 -0.0621  0.2062
  373SOL    HW1 1490   2.910   2.961   1.360 -0.4458  0.0960 -0.8123
  373SOL    HW2 1491   2.823   3.078   1.386  0.6624 -2.0262 -0.1139
  373SOL     MW 1492   2.856   3.008   1.411 -0.3486 -0.3004  0.0296
  374SOL     OW 1493   1.602   0.490   0.271  0.0387  0.1963 -0.2795
  374SOL    HW1 1494   1.667   0.426   0.252  0.8685 -1.2595  0.0282
  374SOL    HW2 1495   1.548   0.448   0.334 -0.0833 -0.9649 -1.6443
  374SOL     MW 1496   1.603   0.476   0.277  0.1321 -0.1490 -0.4190
  375SOL     OW 1497   1.072   2.080   2.249  0.5561 -0.3795 -0.5411
  375SOL    HW1 1498   1.082   2.045   2.337  0.4641 -1.6054  0.2986
  375SOL    HW2 1499   1.014   2.028   2.196  2.4262  0.0358 -1.8321
  375SOL     MW 1500   1.066   2.068   2.254  0.7907 -0.4864 -0.6007
  376SOL     OW 1501   0.811   2.528   0.118  0.0182  0.3894 -0.0614
  376SOL    HW1 1502   0.760   2.472   0.179 -2.1952 -0.1649  1.7965
  376SOL    HW2 1503   0.839   2.479   0.035  2.9161 -1.1001  0.2433
  376SOL     MW 1504   0.808   2.514   0.115  0.1085  0.1197  0.2239
  377SOL     OW 1505   1.367   2.072   0.916 -0.2661  0.4757  0.0513
  377SOL    HW1 1506   1.284   2.044   0.876 -1.6341  1.4179 -1.1701
  377SOL    HW2 1507   1.373   2.036   1.000  1.7716 -2.2743 -0.3885
  377SOL     MW 1508   1.357   2.064   0.922 -0.1778  0.2371 -0.1679
  378SOL     OW 1509   0.882   2.862   1.563  0.0889  0.3621  0.9165
  378SOL    HW1 1510   0.918   2.772   1.580 -1.0659 -6.6298 -1.4186
  378SOL    HW2 1511   0.967   2.899   1.526  1.3421  2.8302 -2.2603
  378SOL     MW 1512   0.898   2.855   1.561  0.1019 -0.2347  0.1893
  379SOL     OW 1513   1.076   1.576   2.284  0.0626 -0.4674  0.4576
  379SOL    HW1 1514   1.002   1.534   2.235 -3.3551 -1.3354  2.9519
  379SOL    HW2 1515   1.153   1.537   2.247 -1.0720 -0.4234 -1.4912
  379SOL     MW 1516   1.076   1.565   2.273 -0.5381 -0.5761  0.5296
  380SOL     OW 1517   0.868   0.126   1.469  0.1657  0.3980  0.2586
  380SOL    HW1 1518   0.902   0.055   1.413  0.1245  1.7195  2.0250
  380SOL    HW2 1519   0.932   0.130   1.544 -1.9834 -1.0640  0.8444
  380SOL     MW 1520   0.881   0.117   1.471 -0.1233  0.3795  0.5690
  381SOL     OW 1521   0.838   2.060   0.857  0.1810 -0.0732  0.4557
  381SOL    HW1 1522   0.936   2.057   0.852  2.5334  0.1952  1.2040
  381SOL    HW2 1523   0.817   2.112   0.936 -0.2121 -2.0920 -0.5389
  381SOL     MW 1524   0.849   2.067   0.867  0.4395 -0.3042  0.4232
  382SOL     OW 1525   0.848   0.150   0.572  0.3173 -0.3968 -0.0412
  382SOL    HW1 1526   0.820   0.193   0.656 -1.9706  0.6590  1.0983
  382SOL    HW2 1527   0.812   0.064   0.580  1.6569  2.1823  1.9220
  382SOL     MW 1528   0.839   0.145   0.584  0.1922  0.0828  0.3682
  383SOL     OW 1529   0.647   0.015   0.310 -0.2488  0.3017 -0.1573
  383SOL    HW1 1530   0.657  -0.060   0.250 -0.7937  0.7672  1.4375
  383SOL    HW2 1531   0.584  -0.024   0.370  3.1731  0.8019 -0.4841
  383SOL     MW 1532   0.640   0.000   0.310  0.1308  0.4291  0.0100
  384SOL     OW 1533   0.761   2.976   0.621  0.3416 -0.2249 -0.1979
  384SOL    HW1 1534   0.826   2.962   0.692 -3.4961 -3.4027 -2.3627
  384SOL    HW2 1535   0.707   2.893   0.618  1.2009  0.6054 -1.1329
  384SOL     MW 1536   0.762   2.963   0.630 -0.0514 -0.5346 -0.6069
  385SOL     OW 1537   1.344   2.071   1.521  0.2922 -0.5774  0.0150
  385SOL    HW1 1538   1.427   2.089   1.566  0.7715  2.7536  0.3009
  385SOL    HW2 1539   1.311   1.990   1.564 -1.6498 -0.2551 -1.4360
  385SOL     MW 1540   1.351   2.062   1.533  0.0992 -0.0954 -0.1387
  386SOL     OW 1541   1.473   0.443   0.881 -0.0479 -0.2549 -0.4642
  386SOL    HW1 1542   1.414   0.491   0.940 -0.4964 -1.3133 -0.1636
  386SOL    HW2 1543   1.568   0.452   0.895 -0.7276  0.6128 -3.2871
  386SOL     MW 1544   1.478   0.450   0.890 -0.1968 -0.2801 -0.7970
  387SOL     OW 1545   0.788   2.219   1.588 -0.1071 -0.0473 -0.5321
  387SOL    HW1 1546   0.871   2.236   1.553 -0.1569 -1.0321 -0.2444
  387SOL    HW2 1547   0.772   2.124   1.566 -0.5958  2.7205  1.2126
  387SOL     MW 1548   0.797   2.209   1.581 -0.1782  0.1880 -0.2640
  388SOL     OW 1549   1.464   2.772   1.426 -0.3295  1.0368  0.3372
  388SOL    HW1 1550   1.435   2.849   1.373 -0.3386  0.3941  3.5530
  388SOL    HW2 1551   1.448   2.696   1.368 -0.9549  0.8365  1.7845
  388SOL     MW 1552   1.458   2.772   1.411 -0.4133  0.9255  0.9525
  389SOL     OW 1553   0.479   0.139   3.056 -0.0692  0.0388  0.1330
  389SOL    HW1 1554   0.554   0.084   3.078 -2.2737 -1.7945 -0.5190
  389SOL    HW2 1555   0.496   0.184   2.966 -0.3075  0.4926 -1.6071
  389SOL     MW 1556   0.491   0.137   3.047 -0.3915 -0.1432 -0.1826
  390SOL     OW 1557   1.365   0.027   0.739  0.2085 -0.0738 -0.7294
  390SOL    HW1 1558   1.395   0.027   0.649 -2.2699  0.6856  1.2171
  390SOL    HW2 1559   1.446   0.036   0.796  0.6818 -0.7088  2.0490
  390SOL     MW 1560   1.380   0.028   0.735 -0.0561 -0.0574 -0.1060
  391SOL     OW 1561   0.320   2.184   1.513 -0.2753 -0.5873  0.3430
  391SOL    HW1 1562   0.308   2.176   1.604 -0.4136  1.1884  0.8830
  391SOL    HW2 1563   0.281   2.266   1.476  0.5436 -0.3732 -1.5239
  391SOL     MW 1564   0.313   2.193   1.520 -0.1855 -0.3248  0.1680
  392SOL     OW 1565   1.943   2.180   0.309 -0.2699 -0.6802  0.0704
  392SOL    HW1 1566   2.001   2.251   0.329 -0.6597 -1.5939  0.5511
  392SOL    HW2 1567   1.855   2.219   0.300 -1.6378 -1.2622  0.2089
  392SOL     MW 1568   1.939   2.194   0.310 -0.5018 -0.8775  0.1521
  393SOL     OW 1569   0.243   2.951   2.853 -0.0273  0.1444 -0.5870
  393SOL    HW1 1570   0.312   2.930   2.787  0.6360 -1.9106 -2.0858
  393SOL    HW2 1571   0.238   3.046   2.851  1.0257  0.3980  0.7158
  393SOL     MW 1572   0.251   2.961   2.844  0.1992 -0.0933 -0.6129
  394SOL     OW 1573   1.033   1.792   1.531 -0.5195 -0.0759  0.6708
  394SOL    HW1 1574   1.053   1.799   1.627  0.3887  1.2834 -0.7781
  394SOL    HW2 1575   0.950   1.846   1.529 -0.1211  1.7673  1.0995
  394SOL     MW 1576   1.024   1.800   1.543 -0.3471  0.3467  0.5362
  395SOL     OW 1577   0.950   2.930   2.703  0.3769 -0.0551 -0.3284
  395SOL    HW1 1578   1.008   2.984   2.773  2.2985 -1.7980  1.2177
  395SOL    HW2 1579   1.011   2.857   2.669  1.2927 -1.8141 -0.8508
  395SOL     MW 1580   0.966   2.927   2.708  0.7513 -0.5172 -0.1933
  396SOL     OW 1581   0.755   1.911   2.365 -0.6481 -0.1138 -0.2651
  396SOL    HW1 1582   0.816   1.894   2.436 -0.8772 -3.1864  0.7790
  396SOL    HW2 1583   0.717   1.824   2.364 -0.0614 -1.5847 -1.5962
  396SOL     MW 1584   0.758   1.897   2.374 -0.6010 -0.7132 -0.3029
  397SOL     OW 1585   1.001   2.306   1.388 -0.0262 -0.3810 -0.5449
  397SOL    HW1 1586   1.035   2.318   1.301  3.4300 -1.1545  1.3668
  397SOL    HW2 1587   1.083   2.315   1.432  0.8992  1.2065  0.1815
  397SOL     MW 1588   1.016   2.309   1.382  0.5519 -0.2736 -0.1968
  398SOL     OW 1589   0.631   2.734   0.662  0.2654  0.1976 -0.4536
  398SOL    HW1 1590   0.578   2.707   0.589 -2.8497  0.0250  0.5255
  398SOL    HW2 1591   0.706   2.670   0.666  0.3362 -0.8006  2.6516
  398SOL     MW 1592   0.634   2.722   0.653 -0.1363  0.0432  0.0853
  399SOL     OW 1593   0.348   2.084   0.369 -0.2430 -0.5211 -0.1594
  399SOL    HW1 1594   0.283   2.151   0.390 -0.0982 -0.3119  0.5263
  399SOL    HW2 1595   0.400   2.122   0.292  1.2400  0.7217 -1.3540
  399SOL     MW 1596   0.346   2.098   0.361 -0.0282 -0.3295 -0.2265
  400SOL     OW 1597   0.588   1.933   0.079 -0.0604  0.1464  0.0520
  400SOL    HW1 1598   0.559   2.023   0.123  0.0424  1.4884  1.8849
  400SOL    HW2 1599   0.603   1.878   0.154 -0.7701  0.3908  1.4426
  400SOL     MW 1600   0.586   1.937   0.094 -0.1404  0.3557  0.4773
  401SOL     OW 1601   0.857   2.056   0.010  0.5403 -0.8014 -0.3791
  401SOL    HW1 1602   0.938   2.002   0.017 -0.2784  0.0607  2.7799
  401SOL    HW2 1603   0.783   2.001   0.047  0.6416  0.1181  2.6101
  401SOL     MW 1604   0.858   2.042   0.016  0.4456 -0.5663  0.4321
  402SOL     OW 1605   0.591   3.019   1.774  0.9376 -0.1601  0.5922
  402SOL    HW1 1606   0.669   3.012   1.827  2.0076 -1.5966  0.5623
  402SOL    HW2 1607   0.618   3.083   1.711 -0.4122 -0.7145  1.6251
  402SOL     MW 1608   0.605   3.026   1.773  0.9007 -0.4228  0.7245
  403SOL     OW 1609   0.158   0.512   0.387 -0.1431 -0.5476 -0.1922
  403SOL    HW1 1610   0.245   0.512   0.430  1.0189 -0.8593  0.9586
  403SOL    HW2 1611   0.170   0.447   0.323 -0.3053 -0.6681 -2.2396
  403SOL     MW 1612   0.171   0.504   0.384 -0.0112 -0.6046 -0.3105
  404SOL     OW 1613   0.916   2.959   0.844 -0.0350  0.1972 -0.1314
  404SOL    HW1 1614   0.969   2.877   0.846  0.4777 -0.6611 -0.1390
  404SOL    HW2 1615   0.973   3.033   0.833 -2.1676 -0.7998 -1.1288
  404SOL     MW 1616   0.930   2.958   0.843 -0.2488 -0.0476 -0.2640
  405SOL     OW 1617   0.525   2.471   1.503  0.2282 -0.1450  0.2772
  405SOL    HW1 1618   0.503   2.522   1.428 -1.4902  1.0392 -2.4463
  405SOL    HW2 1619   0.569   2.388   1.475  0.5987 -0.1963 -0.6232
  405SOL     MW 1620   0.528   2.467   1.490  0.0503  0.0045 -0.2009
  406SOL     OW 1621   0.437   2.357   1.102  0.6076 -0.1766 -0.7214
  406SOL    HW1 1622   0.346   2.374   1.129  0.8746  1.1293  0.8292
  406SOL    HW2 1623   0.448   2.279   1.151 -0.4091  2.3698  1.9344
  406SOL     MW 1624   0.427   2.349   1.112  0.5087  0.3317 -0.1664
  407SOL     OW 1625   0.041   2.638   1.133 -0.3255  0.2765 -0.8600
  407SOL    HW1 1626   0.100   2.651   1.203  1.6036 -2.1237 -3.6550
  407SOL    HW2 1627   0.100   2.640   1.055  0.0582 -0.2694  0.2008
  407SOL     MW 1628   0.057   2.640   1.132 -0.0203 -0.1122 -1.0888
  408SOL     OW 1629   2.133   2.138   0.726  0.4112  0.0954 -0.8423
  408SOL    HW1 1630   2.079   2.188   0.796 -0.6643  1.2997  1.9577
  408SOL    HW2 1631   2.066   2.104   0.655 -0.7699 -0.9413 -0.2455
  408SOL     MW 1632   2.117   2.140   0.726  0.1135  0.1175 -0.3942
  409SOL     OW 1633   1.625   0.098   0.830 -0.2004 -0.1892  0.2630
  409SOL    HW1 1634   1.627   0.193   0.835 -2.1107 -1.1694 -2.5482
  409SOL    HW2 1635   1.612   0.067   0.920 -0.0804 -2.3348 -0.7084
  409SOL     MW 1636   1.623   0.106   0.843 -0.4366 -0.6016 -0.2361
  410SOL     OW 1637   1.095   2.416   1.150  0.2738  0.0974  0.1826
  410SOL    HW1 1638   1.039   2.483   1.113 -0.5158 -0.8848 -0.2938
  410SOL    HW2 1639   1.143   2.379   1.078  2.3155 -0.6711  0.2347
  410SOL     MW 1640   1.094   2.420   1.135  0.4390 -0.1336  0.1266
  411SOL     OW 1641   1.997   2.943   2.922 -0.4506 -0.2392  0.3886
  411SOL    HW1 1642   2.019   2.925   2.831 -1.3055  0.1026 -0.4706
  411SOL    HW2 1643   1.969   3.035   2.929  1.7274 -1.0622 -0.6204
  411SOL     MW 1644   1.996   2.953   2.911 -0.2760 -0.3027  0.1421
  412SOL     OW 1645   1.058   2.258   0.627  0.0437  1.0706  0.8066
  412SOL    HW1 1646   1.086   2.321   0.698  2.2614 -0.7257  1.2663
  412SOL    HW2 1647   1.013   2.320   0.565 -0.9932  0.0696  1.6034
  412SOL     MW 1648   1.056   2.275   0.628  0.1995  0.7015  0.9724
  413SOL     OW 1649   0.623   2.703   0.050  0.4957 -0.5231  0.0081
  413SOL    HW1 1650   0.692   2.650   0.102  0.0616 -0.2130 -0.5539
  413SOL    HW2 1651   0.620   2.658  -0.037 -1.2478  1.6008 -3.1164
  413SOL     MW 1652   0.632   2.690   0.045  0.2084 -0.2020 -0.4783
  414SOL     OW 1653   2.012   3.025   1.085  0.7286 -0.2152  0.1804
  414SOL    HW1 1654   2.022   3.115   1.113  0.3348  0.2826  0.4692
  414SOL    HW2 1655   2.020   3.040   0.990 -1.0415  0.1084  1.9819
  414SOL     MW 1656   2.015   3.039   1.076  0.4431 -0.1068  0.4562
  415SOL     OW 1657   1.619   2.847   1.117  0.3587  0.2311  0.2005
  415SOL    HW1 1658   1.665   2.832   1.200  0.7475  0.7193 -0.3467
  415SOL    HW2 1659   1.662   2.801   1.047 -1.3781  0.8720  0.4910
  415SOL     MW 1660   1.631   2.839   1.119  0.1809  0.3801  0.1666
  416SOL     OW 1661   0.631   1.739   1.461 -0.1586  0.3461 -0.7786
  416SOL    HW1 1662   0.552   1.723   1.410  0.6590  4.8979  1.4261
  416SOL    HW2 1663   0.699   1.691   1.412  0.1509 -1.7152 -2.1618
  416SOL     MW 1664   0.630   1.731   1.447 -0.0099  0.6747 -0.6702
  417SOL     OW 1665   0.956   0.045   2.082  0.0843  0.4391 -0.7600
  417SOL    HW1 1666   0.874   0.045   2.139 -1.4677 -0.3814 -2.3301
  417SOL    HW2 1667   0.933  -0.013   2.013 -0.1631  1.8265 -0.4147
  417SOL     MW 1668   0.942   0.037   2.080 -0.1531  0.5139 -0.9216
  418SOL     OW 1669   0.741   2.904   0.174  0.9028 -0.4996  0.4221
  418SOL    HW1 1670   0.817   2.914   0.117  0.7159 -1.3834  0.4279
  418SOL    HW2 1671   0.685   2.845   0.114 -0.5276 -1.3997  0.3005
  418SOL     MW 1672   0.744   2.897   0.158  0.6894 -0.7349  0.4068
  419SOL     OW 1673   0.615   2.678   1.351  0.3252  0.5196 -0.1069
  419SOL    HW1 1674   0.622   2.760   1.404  1.8512 -1.2913  1.4355
  419SOL    HW2 1675   0.695   2.632   1.363  0.8837 -0.2776 -0.3045
  419SOL     MW 1676   0.626   2.683   1.360  0.6002  0.1755  0.0705
  420SOL     OW 1677   0.785   2.244   1.085 -0.0774  0.4018  1.0777
  420SOL    HW1 1678   0.725   2.274   1.156  1.3272  0.6654  1.4791
  420SOL    HW2 1679   0.836   2.321   1.063 -1.1313 -1.9788  1.7414
  420SOL     MW 1680   0.784   2.258   1.091 -0.0311  0.1225  1.2183
  421SOL     OW 1681   2.892   0.180   0.071 -0.3519 -0.2410  0.5600
  421SOL    HW1 1682   2.813   0.138   0.038  0.6369  0.4798 -2.3469
  421SOL    HW2 1683   2.962   0.116   0.079 -0.8577 -2.5137  0.9122
  421SOL     MW 1684   2.891   0.166   0.068 -0.2882 -0.4458  0.2229
  422SOL     OW 1685   0.889   2.492   0.964 -0.2840 -0.2896 -0.2086
  422SOL    HW1 1686   0.812   2.527   1.000  0.3190 -0.7618 -0.4434
  422SOL    HW2 1687   0.871   2.495   0.873 -0.6624  1.3680  1.1117
  422SOL     MW 1688   0.877   2.497   0.957 -0.2544 -0.1332 -0.0654
  423SOL     OW 1689   1.493   0.045   0.485  0.1329 -0.1799  0.4320
  423SOL    HW1 1690   1.535   0.006   0.404  4.2476  0.1626 -0.7372
  423SOL    HW2 1691   1.510   0.137   0.481  2.9506 -2.8677  0.9777
  423SOL     MW 1692   1.501   0.052   0.474  1.0476 -0.4893  0.3498
  424SOL     OW 1693   0.658   2.272   1.328  0.3519 -0.0299 -0.4299
  424SOL    HW1 1694   0.584   2.219   1.304  0.9965  1.6990 -2.6612
  424SOL    HW2 1695   0.690   2.240   1.410  0.9859  1.6556 -0.1230
  424SOL     MW 1696   0.652   2.261   1.336  0.5206  0.4206 -0.6838
  425SOL     OW 1697   1.692   2.800   2.039  0.1931  0.4195  0.3926
  425SOL    HW1 1698   1.713   2.840   1.952 -1.1847 -1.3090 -1.9617
  425SOL    HW2 1699   1.753   2.727   2.049  0.4978  1.4465  2.9765
  425SOL     MW 1700   1.703   2.796   2.029  0.0515  0.3269  0.4229
  426SOL     OW 1701   0.888   1.694   1.954  0.1814 -0.5502 -0.4145
  426SOL    HW1 1702   0.816   1.696   1.887 -1.3677  1.7337 -1.4928
  426SOL    HW2 1703   0.881   1.777   2.006  1.3047 -3.5780 -0.8496
  426SOL     MW 1704   0.877   1.705   1.952  0.1252 -0.6483 -0.6142
  427SOL     OW 1705   0.385   1.743   1.897  0.0408  0.3810 -0.7181
  427SOL    HW1 1706   0.422   1.681   1.840 -2.8865  2.6578  1.4233
  427SOL    HW2 1707   0.329   1.688   1.954 -0.5829 -0.2596 -0.5228
  427SOL     MW 1708   0.382   1.728   1.897 -0.4277  0.5969 -0.4098
  428SOL     OW 1709   0.613   2.564   1.095  0.7266  0.1352 -0.1380
  428SOL    HW1 1710   0.553   2.486   1.109  1.5869 -4.1108 -0.7140
  428SOL    HW2 1711   0.622   2.594   1.184  1.7292  0.7250 -2.8932
  428SOL     MW 1712   0.607   2.558   1.109  0.9724 -0.3472 -0.5775
  429SOL     OW 1713   1.177   2.738   1.078  0.6644  0.5349 -0.1099
  429SOL    HW1 1714   1.085   2.745   1.101 -0.5919 -2.3753  1.3436
  429SOL    HW2 1715   1.194   2.830   1.065  0.3400  1.2399 -1.2976
  429SOL     MW 1716   1.167   2.751   1.079  0.4559  0.2440 -0.0748
  430SOL     OW 1717   1.162   2.798   0.810 -0.1295  0.6810  0.4836
  430SOL    HW1 1718   1.160   2.729   0.881  0.1992  0.7979  3.0545
  430SOL    HW2 1719   1.129   2.748   0.740  2.6502  0.5509  0.6603
  430SOL     MW 1720   1.157   2.782   0.810  0.2806  0.6793  0.8461
  431SOL     OW 1721   0.327   1.919   1.100  0.0649  0.0191  0.0159
  431SOL    HW1 1722   0.404   1.867   1.103  4.3864  1.8146 -0.5432
  431SOL    HW2 1723   0.301   1.928   1.009 -0.2307 -1.7960  0.6980
  431SOL     MW 1724   0.334   1.913   1.089  0.5961  0.0165  0.0322
  432SOL     OW 1725   0.045   3.072   1.115 -0.2604 -0.0829 -0.4506
  432SOL    HW1 1726   0.075   3.104   1.203 -1.9583  0.6785  3.3181
  432SOL    HW2 1727  -0.007   2.995   1.129  0.1127  3.2848  1.3122
  432SOL     MW 1728   0.042   3.066   1.129 -0.4352  0.4619  0.2792
  433SOL     OW 1729   0.630   2.931   1.479 -0.3554 -0.5441  0.2565
  433SOL    HW1 1730   0.610   2.987   1.552  1.8128  2.6285 -2.5361
  433SOL    HW2 1731   0.729   2.908   1.487  4.9878  0.2895 -0.1716
  433SOL     MW 1732   0.641   2.936   1.490  0.6356 -0.0155 -0.1684
  434SOL     OW 1733   1.515   2.826   1.702 -0.3510  0.4486  0.9295
  434SOL    HW1 1734   1.452   2.887   1.730 -0.0694 -0.3831  1.4034
  434SOL    HW2 1735   1.492   2.815   1.606  0.0382  0.9060  2.1123
  434SOL     MW 1736   1.504   2.833   1.693 -0.2625  0.3992  1.1481
  435SOL     OW 1737   2.714   1.742   0.217 -0.4698  0.4375  0.0897
  435SOL    HW1 1738   2.774   1.805   0.168 -1.5661  3.0052  0.0979
  435SOL    HW2 1739   2.631   1.789   0.212 -4.4723  1.3720  0.6373
  435SOL     MW 1740   2.711   1.757   0.210 -1.1425  0.8996  0.1630
  436SOL     OW 1741   1.331   2.711   0.339  0.1851 -0.2419  0.7849
  436SOL    HW1 1742   1.400   2.712   0.404  2.8065  0.2967  0.3076
  436SOL    HW2 1743   1.272   2.779   0.362  0.9231  1.5559  0.0361
  436SOL     MW 1744   1.333   2.720   0.351  0.6283  0.0664  0.6231
  437SOL     OW 1745   0.967   3.042   1.289 -0.8600 -0.2907 -0.0534
  437SOL    HW1 1746   0.983   3.093   1.210  1.5543 -1.0857  1.9488
  437SOL    HW2 1747   0.944   2.949   1.260 -2.1167 -1.2496 -0.6540
  437SOL     MW 1748   0.966   3.036   1.275 -0.7073 -0.5221  0.1316
  438SOL     OW 1749   0.896   2.712   1.959 -0.1050  0.2429  0.9068
  438SOL    HW1 1750   0.867   2.648   2.033 -1.3973 -2.6785  0.2046
  438SOL    HW2 1751   0.885   2.650   1.882  0.0449 -2.8345 -0.0572
  438SOL     MW 1752   0.890   2.695   1.959 -0.2558 -0.5486  0.6870
  439SOL     OW 1753   1.192   2.070   0.425  0.0243 -0.2560 -0.0317
  439SOL    HW1 1754   1.177   2.124   0.504  0.8341 -0.4172 -1.2775
  439SOL    HW2 1755   1.176   2.135   0.352  0.3747 -0.7206  0.1266
  439SOL     MW 1756   1.188   2.086   0.426  0.1774 -0.3386 -0.1751
  440SOL     OW 1757   1.754   2.864   3.004  0.3639 -1.1402 -0.2721
  440SOL    HW1 1758   1.757   2.899   3.091  0.6710 -2.3745 -0.1783
  440SOL    HW2 1759   1.836   2.886   2.962  1.1034 -0.5966 -1.8926
  440SOL     MW 1760   1.765   2.871   3.010  0.5020 -1.2314 -0.4735
  441SOL     OW 1761   0.500   2.669   0.423  0.4577  0.6967 -0.1890
  441SOL    HW1 1762   0.478   2.644   0.334  1.6728  0.8657  2.2403
  441SOL    HW2 1763   0.519   2.766   0.410  0.2210  1.2739 -0.4582
  441SOL     MW 1764   0.500   2.678   0.409  0.5868  0.7952  0.0960
  442SOL     OW 1765   0.029   2.343   0.633 -0.0332  0.3452  0.2775
  442SOL    HW1 1766   0.048   2.441   0.622  0.8318  1.7639  2.0942
  442SOL    HW2 1767  -0.060   2.327   0.660  2.7262 -0.4609  0.0537
  442SOL     MW 1768   0.020   2.354   0.635  0.4450  0.4260  0.4876
  443SOL     OW 1769   1.473   1.750   1.935 -0.0165 -0.5096  0.2470
  443SOL    HW1 1770   1.423   1.778   1.863  1.7214  1.0217  0.8552
  443SOL    HW2 1771   1.493   1.658   1.913 -1.3463  1.9677 -1.1196
  443SOL     MW 1772   1.469   1.742   1.923  0.0374  0.0193  0.1470
  444SOL     OW 1773   0.956   2.586   1.612 -0.1976  0.3710  0.1015
  444SOL    HW1 1774   1.028   2.551   1.662 -1.3234  0.8083  0.1736
  444SOL    HW2 1775   0.878   2.569   1.669 -2.4854 -2.3190 -2.6302
  444SOL     MW 1776   0.956   2.580   1.626 -0.6480  0.0737 -0.2494
  445SOL     OW 1777   1.222   0.082   1.411 -0.6240 -0.4595  0.1310
  445SOL    HW1 1778   1.243   0.133   1.488 -2.9026  0.2396 -1.0700
  445SOL    HW2 1779   1.237   0.148   1.344 -0.2894 -1.1042  1.4050
  445SOL     MW 1780   1.227   0.097   1.412 -0.8805 -0.4524  0.1406
  446SOL     OW 1781   2.768   2.871   1.045 -1.0428 -0.3829 -0.1527
  446SOL    HW1 1782   2.719   2.916   0.975  1.3894 -0.7598  1.5165
  446SOL    HW2 1783   2.816   2.809   0.991 -1.5211  3.1696 -2.0229
  446SOL     MW 1784   2.768   2.868   1.029 -0.7850  0.0361 -0.1792
  447SOL     OW 1785   0.018   1.930   1.558  0.0203  0.1235  0.1913
  447SOL    HW1 1786   0.033   1.862   1.625  0.7035  0.3662 -2.1903
  447SOL    HW2 1787  -0.055   1.892   1.500  0.5675  1.4734  0.0053
  447SOL     MW 1788   0.010   1.916   1.559  0.1827  0.3337 -0.1475
  448SOL     OW 1789   1.718   2.355   1.664  0.0329 -0.4975 -0.1990
  448SOL    HW1 1790   1.667   2.278   1.658 -1.7309 -0.9837  1.7670
  448SOL    HW2 1791   1.655   2.426   1.675 -1.8041 -0.2065  0.2818
  448SOL     MW 1792   1.703   2.354   1.664 -0.4422 -0.5233  0.1238
  449SOL     OW 1793   0.917   2.943   0.393  0.1586 -1.0140  0.1407
  449SOL    HW1 1794   0.849   2.945   0.324  1.0626  1.5813 -1.8578
  449SOL    HW2 1795   0.866   2.953   0.474  0.3335  1.3546 -0.1114
  449SOL     MW 1796   0.901   2.944   0.394  0.3009 -0.3590 -0.1563
  450SOL     OW 1797   1.135   2.472   0.773 -0.5219 -0.3041 -1.0165
  450SOL    HW1 1798   1.200   2.431   0.845  1.4227  0.6141 -0.3162
  450SOL    HW2 1799   1.203   2.482   0.704  1.5016 -0.3514  0.1532
  450SOL     MW 1800   1.153   2.468   0.774  0.0016 -0.1892 -0.7697
  451SOL     OW 1801   0.546   1.976   1.690  0.4442  0.8351  0.3029
  451SOL    HW1 1802   0.631   2.008   1.652  0.7349  0.4589  0.0520
  451SOL    HW2 1803   0.487   1.945   1.617  0.8711 -2.2902 -2.2089
  451SOL     MW 1804   0.550   1.976   1.676  0.5389  0.3731 -0.0616
  452SOL     OW 1805   0.367   2.647   0.007  0.0930  0.0716 -0.2887
  452SOL    HW1 1806   0.450   2.687   0.034  1.3193  1.5447 -5.7092
  452SOL    HW2 1807   0.299   2.708  -0.025 -1.1549 -0.5920 -1.9295
  452SOL     MW 1808   0.369   2.660   0.007  0.0901  0.1784 -1.2203
  453SOL     OW 1809   0.247   3.017   1.560 -0.5797 -0.2376 -0.3820
  453SOL    HW1 1810   0.287   2.959   1.622 -0.5541 -1.5923 -1.7288
  453SOL    HW2 1811   0.294   3.015   1.476  2.3137  0.2624  0.6489
  453SOL     MW 1812   0.258   3.009   1.557 -0.1946 -0.3504 -0.4237
  454SOL     OW 1813   0.900   2.774   1.207 -0.4701 -0.1608 -0.1940
  454SOL    HW1 1814   0.864   2.706   1.263 -2.0396  4.2244 -2.4521
  454SOL    HW2 1815   0.831   2.822   1.156  1.7274  2.2721 -2.1515
  454SOL     MW 1816   0.886   2.772   1.208 -0.3872  0.7388 -0.7502
  455SOL     OW 1817   1.797   2.865   0.189  0.0504 -0.1185 -0.0296
  455SOL    HW1 1818   1.823   2.837   0.276  3.2886  1.7158 -0.3061
  455SOL    HW2 1819   1.717   2.808   0.172 -2.1063  0.9933  0.4052
  455SOL     MW 1820   1.790   2.854   0.198  0.1931  0.2702 -0.0087
  456SOL     OW 1821   2.762   0.271   1.458 -0.1973  0.0339 -0.1113
  456SOL    HW1 1822   2.753   0.215   1.382 -0.7482  0.4874  1.1889
  456SOL    HW2 1823   2.822   0.344   1.430  0.3961  0.5881 -0.7673
  456SOL     MW 1824   2.769   0.274   1.444 -0.1917  0.1669 -0.0263
  457SOL     OW 1825   0.796   1.651   3.029 -0.4639 -0.1755  0.5468
  457SOL    HW1 1826   0.702   1.647   3.016  1.2862 -0.7568 -2.3884
  457SOL    HW2 1827   0.813   1.675   3.121 -0.4410 -1.3070  0.0567
  457SOL     MW 1828   0.786   1.654   3.039 -0.2300 -0.4015  0.0948
  458SOL     OW 1829   1.344   1.474   0.698 -0.2542  0.2029 -0.2388
  458SOL    HW1 1830   1.276   1.533   0.679 -0.4385 -4.8434  1.9888
  458SOL    HW2 1831   1.318   1.389   0.661  0.8125  0.0369 -1.6288
  458SOL     MW 1832   1.332   1.471   0.691 -0.1378 -0.4848 -0.1283
  459SOL     OW 1833   1.624   3.076   0.242 -0.9584 -0.5579  0.1117
  459SOL    HW1 1834   1.674   2.994   0.231  0.0573  0.1462 -2.7816
  459SOL    HW2 1835   1.553   3.074   0.180  0.1552  1.1240 -0.8989
  459SOL     MW 1836   1.621   3.065   0.233 -0.6775 -0.2431 -0.4034
  460SOL     OW 1837   1.792   2.224   0.624 -0.0072 -0.0308 -0.2193
  460SOL    HW1 1838   1.717   2.205   0.680  0.9886 -0.4645 -1.9970
  460SOL    HW2 1839   1.838   2.136   0.603  1.3700  0.4544 -0.3408
  460SOL     MW 1840   1.788   2.210   0.629  0.3059 -0.0240 -0.4699
  461SOL     OW 1841   0.401   2.413   0.560 -0.1597 -0.3129 -0.9860
  461SOL    HW1 1842   0.422   2.497   0.512  0.9668 -0.9031 -0.3347
  461SOL    HW2 1843   0.416   2.433   0.656  1.3113 -0.6022 -2.8073
  461SOL     MW 1844   0.406   2.427   0.566  0.1830 -0.4289 -1.1404
  462SOL     OW 1845   0.293   0.240   1.265 -0.0554  0.0399  0.0421
  462SOL    HW1 1846   0.345   0.200   1.196 -0.5129 -1.1402  1.0327
  462SOL    HW2 1847   0.367   0.251   1.326 -2.0630  2.3482 -0.2459
  462SOL     MW 1848   0.310   0.236   1.264 -0.3806  0.1888  0.1348
  463SOL     OW 1849   1.084   0.052   0.758  0.5630  0.1163 -0.1821
  463SOL    HW1 1850   1.180   0.034   0.751 -0.0933 -1.0812 -2.6416
  463SOL    HW2 1851   1.044   0.058   0.670 -0.3234 -2.3737 -1.7137
  463SOL     MW 1852   1.091   0.050   0.746  0.3595 -0.3703 -0.7087
  464SOL     OW 1853   0.743   3.082   2.263 -0.3383 -0.6069  0.6537
  464SOL    HW1 1854   0.724   2.986   2.263 -1.7373 -0.4251 -0.6853
  464SOL    HW2 1855   0.817   3.101   2.326 -0.5052  0.5155 -0.9988
  464SOL     MW 1856   0.750   3.072   2.271 -0.5449 -0.4348  0.2590
  465SOL     OW 1857   0.815   0.341   0.403  0.4929 -0.7473 -0.4982
  465SOL    HW1 1858   0.811   0.275   0.473 -2.5895  1.4510 -0.0298
  465SOL    HW2 1859   0.796   0.286   0.328  2.0452  2.3558 -0.5842
  465SOL     MW 1860   0.812   0.325   0.402  0.2910 -0.0478 -0.4477
  466SOL     OW 1861   1.097   2.039   0.810  0.3019  0.1373 -0.1596
  466SOL    HW1 1862   1.082   1.955   0.774  0.6085  4.0384 -0.7966
  466SOL    HW2 1863   1.073   2.095   0.734  0.5018 -3.6819 -0.9248
  466SOL     MW 1864   1.092   2.036   0.795  0.3688  0.1481 -0.3446
  467SOL     OW 1865   1.291   2.351   0.941 -0.6776  0.1338  0.4466
  467SOL    HW1 1866   1.376   2.379   0.975  0.0888 -1.7326 -1.6351
  467SOL    HW2 1867   1.297   2.257   0.925  0.8630 -0.2744 -2.4191
  467SOL     MW 1868   1.303   2.342   0.943 -0.3732 -0.1663 -0.2061
  468SOL     OW 1869   0.519   2.696   1.904  1.0264 -0.3760  0.6863
  468SOL    HW1 1870   0.472   2.616   1.863 -4.0225 -0.9351  1.8754
  468SOL    HW2 1871   0.465   2.767   1.850 -2.6073 -3.8304 -1.2502
  468SOL     MW 1872   0.506   2.694   1.891 -0.1192 -0.9056  0.5877
  469SOL     OW 1873   0.331   2.110   1.826 -0.1606  0.4059 -0.5799
  469SOL    HW1 1874   0.250   2.063   1.855  1.0906  1.5602  2.3538
  469SOL    HW2 1875   0.386   2.039   1.790  0.6822  0.9996  1.9599
  469SOL     MW 1876   0.328   2.094   1.825  0.1157  0.6365  0.1423
  470SOL     OW 1877   3.055   2.580   0.092 -0.2773  0.0851 -0.2824
  470SOL    HW1 1878   2.966   2.589   0.128  0.8315 -0.4918  1.0253
  470SOL    HW2 1879   3.055   2.586  -0.002 -0.4870  0.2192  0.2220
  470SOL     MW 1880   3.044   2.582   0.084 -0.1587  0.0267 -0.0433
  471SOL     OW 1881   1.173   2.626   1.366 -0.0687  0.1892 -0.3098
  471SOL    HW1 1882   1.105   2.572   1.405 -1.7806  1.9538 -0.1350
  471SOL    HW2 1883   1.145   2.606   1.276 -1.7359  1.6421  1.4070
  471SOL     MW 1884   1.160   2.616   1.359 -0.5146  0.6137 -0.0602
  472SOL     OW 1885   2.938   2.117   0.335  1.0106  0.3268 -0.0759
  472SOL    HW1 1886   2.938   2.061   0.257  0.4741  1.1958 -1.1987
  472SOL    HW2 1887   2.890   2.073   0.405  1.0123 -1.0254  3.1084
  472SOL     MW 1888   2.932   2.104   0.334  0.9400  0.2630  0.1961
  473SOL     OW 1889   0.850   2.533   1.355  0.6115  0.1565 -1.0759
  473SOL    HW1 1890   0.882   2.441   1.355 -2.6676 -1.0425 -1.4402
  473SOL    HW2 1891   0.868   2.551   1.450 -1.7333  1.9877 -1.0368
  473SOL     MW 1892   0.856   2.524   1.368 -0.1306  0.2399 -1.1188
  474SOL     OW 1893   0.653   2.299   1.836  0.2567 -0.3204  0.4947
  474SOL    HW1 1894   0.721   2.297   1.901 -0.8642 -1.9791  0.3445
  474SOL    HW2 1895   0.697   2.254   1.769 -2.0860  1.5753  3.0367
  474SOL     MW 1896   0.668   2.293   1.836 -0.2003 -0.2892  0.8103
  475SOL     OW 1897   1.582   3.070   1.543 -0.0625 -0.3555  0.3197
  475SOL    HW1 1898   1.530   3.065   1.464 -1.0053  1.1798  2.8173
  475SOL    HW2 1899   1.597   2.989   1.588  2.5481  0.5008 -0.8210
  475SOL     MW 1900   1.577   3.059   1.539  0.1575 -0.0399  0.4987
  476SOL     OW 1901   1.444   2.620   1.173 -0.3311 -0.0671 -0.1518
  476SOL    HW1 1902   1.360   2.649   1.149  1.6866  0.7356  1.7338
  476SOL    HW2 1903   1.509   2.687   1.151 -0.1164  2.2366 -1.1745
  476SOL     MW 1904   1.441   2.633   1.167 -0.0366  0.3427 -0.0380
  477SOL     OW 1905   0.831   2.542   0.676  0.1440  0.1735  0.6031
  477SOL    HW1 1906   0.919   2.569   0.660  1.2182 -2.2159  2.8862
  477SOL    HW2 1907   0.811   2.473   0.619  0.6419 -1.3903  1.2886
  477SOL     MW 1908   0.840   2.537   0.667  0.3514 -0.3481  0.9948
  478SOL     OW 1909   0.230   2.623   0.932  0.6127  0.3994 -0.8526
  478SOL    HW1 1910   0.269   2.697   0.882 -1.5661 -0.2391  1.0503
  478SOL    HW2 1911   0.277   2.544   0.903  0.0836  0.9459  0.5675
  478SOL     MW 1912   0.241   2.623   0.921  0.2554  0.3873 -0.4141
  479SOL     OW 1913   1.407   1.995   1.267 -0.0284 -0.5424  0.1981
  479SOL    HW1 1914   1.368   2.029   1.351  1.6134  0.0938 -0.3889
  479SOL    HW2 1915   1.465   1.928   1.300  2.4679  2.3416 -1.4738
  479SOL     MW 1916   1.410   1.990   1.283  0.5176 -0.0779 -0.0999
  480SOL     OW 1917   2.012   2.429   1.348 -0.0334 -0.1543  0.6249
  480SOL    HW1 1918   2.018   2.337   1.369 -1.3964 -0.6406 -0.1972
  480SOL    HW2 1919   2.013   2.443   1.247  0.6559  2.6904 -1.1245
  480SOL     MW 1920   2.013   2.418   1.337 -0.1223  0.1569  0.2856
  481SOL     OW 1921   1.046   0.112   1.071  0.1291  0.0701 -0.3828
  481SOL    HW1 1922   1.080   0.048   1.010  0.5961  0.0764 -0.3768
  481SOL    HW2 1923   1.119   0.167   1.096 -0.0939  0.2871  1.7482
  481SOL     MW 1924   1.060   0.111   1.066  0.1613  0.0996 -0.1009
  482SOL     OW 1925   1.066   0.034   0.274  0.2078 -0.0483 -0.3342
  482SOL    HW1 1926   0.997  -0.020   0.322 -1.2793  0.0826  1.3281
  482SOL    HW2 1927   1.055   0.120   0.321 -0.5373  2.6370 -0.4977
  482SOL     MW 1928   1.055   0.038   0.287 -0.0867  0.3233 -0.1364
  483SOL     OW 1929   0.424   3.004   0.456  0.4666 -0.0819  0.2049
  483SOL    HW1 1930   0.349   3.001   0.397 -0.8493 -1.1504 -0.2801
  483SOL    HW2 1931   0.390   3.039   0.539 -2.1290  2.3357  2.5262
  483SOL     MW 1932   0.409   3.009   0.459 -0.0495  0.0961  0.4472
  484SOL     OW 1933   1.835   2.000   1.448 -0.3271  0.2540 -1.0565
  484SOL    HW1 1934   1.903   2.062   1.431 -0.9526 -1.1916  1.1738
  484SOL    HW2 1935   1.812   2.017   1.542  0.7980  3.0175  0.2256
  484SOL     MW 1936   1.841   2.010   1.458 -0.2612  0.4279 -0.5931
  485SOL     OW 1937   0.593   2.400   0.261  0.4760  0.2983  0.1868
  485SOL    HW1 1938   0.618   2.372   0.351 -0.0918  0.1361  3.4747
  485SOL    HW2 1939   0.494   2.413   0.266  0.9635  2.1117  2.4371
  485SOL     MW 1940   0.583   2.398   0.274  0.4654  0.5161  0.9175
  486SOL     OW 1941   0.197   2.418   1.444 -0.1452  0.1051 -1.1700
  486SOL    HW1 1942   0.209   2.510   1.414 -0.5882 -0.5821 -0.0789
  486SOL    HW2 1943   0.153   2.421   1.527  0.2741  1.9068 -1.6797
  486SOL     MW 1944   0.193   2.430   1.451 -0.1483  0.2522 -1.0933
  487SOL     OW 1945   1.207   1.750   1.022 -0.1005  0.4103 -0.1263
  487SOL    HW1 1946   1.174   1.841   1.051 -2.7640  3.0976  1.0809
  487SOL    HW2 1947   1.302   1.752   1.039  0.1054 -1.0268  3.7285
  487SOL     MW 1948   1.215   1.762   1.028 -0.4248  0.5753  0.5416
  488SOL     OW 1949   1.599   1.810   0.565  0.1415 -0.0422  0.1745
  488SOL    HW1 1950   1.684   1.836   0.531 -0.5793  1.3958  2.7576
  488SOL    HW2 1951   1.541   1.891   0.562  0.9640  2.1271 -0.6133
  488SOL     MW 1952   1.602   1.824   0.560  0.1549  0.4337  0.4114
  489SOL     OW 1953   0.790   0.834   0.621 -0.3763 -0.0398  0.3262
  489SOL    HW1 1954   0.810   0.751   0.573 -0.1700  0.9508 -0.6338
  489SOL    HW2 1955   0.773   0.799   0.710  2.5108 -0.6660  1.1152
  489SOL     MW 1956   0.790   0.818   0.626  0.0319  0.0083  0.3036
  490SOL     OW 1957   1.454   2.053   0.527 -0.7788  0.4027  0.3379
  490SOL    HW1 1958   1.482   2.134   0.472  0.4368  1.6285 -0.1418
  490SOL    HW2 1959   1.367   2.039   0.500  0.9934 -0.7595 -0.0020
  490SOL     MW 1960   1.447   2.062   0.516 -0.3846  0.4111  0.2298
  491SOL     OW 1961   1.250   2.980   0.418 -0.4268  0.4620 -0.1940
  491SOL    HW1 1962   1.323   3.029   0.459 -1.0795 -1.6938 -3.7187
  491SOL    HW2 1963   1.197   3.046   0.371 -0.3669  3.8858 -0.5729
  491SOL     MW 1964   1.253   2.995   0.417 -0.5050  0.6293 -0.7090
  492SOL     OW 1965   1.520   2.229   0.755 -0.1568 -0.2636 -0.2877
  492SOL    HW1 1966   1.510   2.161   0.691 -0.3944 -1.0168 -1.2988
  492SOL    HW2 1967   1.479   2.189   0.829  0.7887  0.2754  1.3340
  492SOL     MW 1968   1.514   2.215   0.757 -0.0634 -0.2918 -0.2071
  493SOL     OW 1969   0.200   2.975   0.293  0.4045 -0.5074 -0.2819
  493SOL    HW1 1970   0.134   3.000   0.360  1.8789 -2.8675  1.0654
  493SOL    HW2 1971   0.210   3.038   0.224  0.7069 -0.7520 -3.5992
  493SOL     MW 1972   0.193   2.987   0.293  0.6389 -0.8511 -0.5418
  494SOL     OW 1973   0.413   2.454   1.769  0.3790 -0.2246  0.1392
  494SOL    HW1 1974   0.480   2.396   1.799 -1.5633 -0.9152 -1.5644
  494SOL    HW2 1975   0.429   2.454   1.675 -0.5600  1.5168  2.6912
  494SOL     MW 1976   0.424   2.447   1.761 -0.0012 -0.0859  0.2512
  495SOL     OW 1977   2.840   1.747   2.573  0.1133 -0.0474  0.1201
  495SOL    HW1 1978   2.791   1.824   2.541 -3.7872 -0.1548 -2.1714
  495SOL    HW2 1979   2.806   1.704   2.659 -1.6052 -2.0986 -2.1768
  495SOL     MW 1980   2.829   1.751   2.580 -0.6280 -0.3322 -0.4853
  496SOL     OW 1981   2.926   2.367   2.669 -0.0485 -0.0563  0.1942
  496SOL    HW1 1982   2.979   2.325   2.736 -0.9312 -1.5088 -2.8523
  496SOL    HW2 1983   2.978   2.441   2.634 -2.6278  1.5353 -1.5444
  496SOL     MW 1984   2.940   2.371   2.674 -0.5053 -0.0380 -0.4371
  497SOL     OW 1985   1.564   2.196   2.650 -0.3616  0.1940  0.6697
  497SOL    HW1 1986   1.474   2.155   2.643 -0.4968 -0.1996 -1.2882
  497SOL    HW2 1987   1.595   2.139   2.723  0.9121  0.7002  1.4823
  497SOL     MW 1988   1.556   2.183   2.659 -0.2114  0.2088  0.5186
  498SOL     OW 1989   1.491   2.688   2.382 -0.0644 -0.5768 -0.2345
  498SOL    HW1 1990   1.491   2.594   2.401  0.5719 -0.2919  0.7818
  498SOL    HW2 1991   1.580   2.715   2.386  0.9929 -0.4322 -2.6895
  498SOL     MW 1992   1.503   2.679   2.385  0.1591 -0.5201 -0.4243
  499SOL     OW 1993   1.002   0.164   3.049 -0.5674 -0.2235  0.3703
  499SOL    HW1 1994   0.932   0.167   3.119  4.0705 -0.5080 -0.3591
  499SOL    HW2 1995   1.032   0.078   3.052  0.1264  1.1727  2.5189
  499SOL     MW 1996   0.997   0.153   3.059  0.1360 -0.0768  0.5576
  500SOL     OW 1997   1.047   2.497   2.753 -0.1509  0.1366  0.1798
  500SOL    HW1 1998   1.128   2.488   2.809 -1.1716  2.2558  1.8521
  500SOL    HW2 1999   0.982   2.481   2.819  1.1220 -3.8215  0.8789
  500SOL     MW 2000   1.049   2.494   2.769 -0.1176 -0.1060  0.4927
  501SOL     OW 2001   1.777   2.204   3.084 -0.3863  0.2136 -0.1299
  501SOL    HW1 2002   1.749   2.275   3.142  1.0785  1.0697  0.0357
  501SOL    HW2 2003   1.856   2.238   3.048 -0.3918 -0.2751  0.7185
  501SOL     MW 2004   1.784   2.218   3.087 -0.1937  0.2621  0.0039
  502SOL     OW 2005   0.146   2.815   3.058 -0.4090  0.2674 -0.1738
  502SOL    HW1 2006   0.085   2.768   3.004  0.3415  0.1499  1.4932
  502SOL    HW2 2007   0.203   2.861   2.992  3.6042  1.0070  0.8324
  502SOL     MW 2008   0.145   2.815   3.042  0.2195  0.3495  0.1789
  503SOL     OW 2009   0.974   2.857   2.167  0.1098  0.1598 -0.0012
  503SOL    HW1 2010   0.949   2.807   2.089 -0.9955  4.0556 -0.1372
  503SOL    HW2 2011   0.994   2.945   2.139 -3.1318 -4.3982  0.3357
  503SOL     MW 2012   0.973   2.862   2.153 -0.4637  0.0725  0.0253
  504SOL     OW 2013   0.044   2.746   2.155  0.2359  0.0330  0.0402
  504SOL    HW1 2014   0.032   2.654   2.123 -2.3409 -1.6106 -2.2277
  504SOL    HW2 2015   0.044   2.728   2.254  2.3374 -0.0163  2.0829
  504SOL     MW 2016   0.043   2.731   2.164  0.1732 -0.1904  0.0105
  505SOL     OW 2017   1.717   2.727   2.665  0.2329  0.2260  0.2160
  505SOL    HW1 2018   1.692   2.775   2.590 -0.6251 -0.4898 -0.3920
  505SOL    HW2 2019   1.639   2.738   2.723  1.7286 -0.2783  0.8993
  505SOL     MW 2020   1.704   2.735   2.663  0.3171  0.0650  0.2259
  506SOL     OW 2021   1.607   3.009   2.815  0.0111 -0.6568  0.2500
  506SOL    HW1 2022   1.670   2.961   2.871  0.6354 -1.3755 -0.7516
  506SOL    HW2 2023   1.660   3.015   2.733 -0.5857  0.1857 -0.0545
  506SOL     MW 2024   1.623   3.003   2.812  0.0147 -0.6405  0.0777
  507SOL     OW 2025   0.831   2.741   2.877 -0.4559  0.5317  0.4868
  507SOL    HW1 2026   0.873   2.800   2.813 -3.2836 -1.8890  2.6992
  507SOL    HW2 2027   0.766   2.795   2.926 -0.4079 -1.3203 -1.9318
  507SOL     MW 2028   0.828   2.756   2.875 -0.8226 -0.0321  0.4596
  508SOL     OW 2029   1.127   2.030   2.536  0.0787 -0.3818 -0.2196
  508SOL    HW1 2030   1.192   2.024   2.605 -1.1902 -0.9396 -1.5196
  508SOL    HW2 2031   1.084   2.115   2.550  1.3402 -1.5569  2.5563
  508SOL     MW 2032   1.130   2.040   2.547  0.0777 -0.6104 -0.0249
  509SOL     OW 2033   0.596   2.549   2.928 -0.4772 -0.2739 -0.6836
  509SOL    HW1 2034   0.598   2.541   2.835 -2.6196 -2.6101 -2.8546
  509SOL    HW2 2035   0.523   2.498   2.964 -0.2930 -1.2257  0.5843
  509SOL     MW 2036   0.587   2.541   2.920 -0.7356 -0.7077 -0.8027
  510SOL     OW 2037   1.510   2.556   1.722 -0.0567 -0.6855 -0.2565
  510SOL    HW1 2038   1.531   2.649   1.719  0.1403  0.3931  2.0824
  510SOL    HW2 2039   1.464   2.545   1.803  1.1552 -2.3146 -2.3943
  510SOL     MW 2040   1.507   2.567   1.732  0.1292 -0.7582 -0.2300
  511SOL     OW 2041   0.378   2.613   2.440  0.1347 -0.2493  0.1824
  511SOL    HW1 2042   0.458   2.572   2.468 -2.5532  1.7443  0.8525
  511SOL    HW2 2043   0.412   2.617   2.347  0.8455 -0.7368  2.3542
  511SOL     MW 2044   0.393   2.609   2.431 -0.1261 -0.0506  0.5574
  512SOL     OW 2045   1.023   1.987   2.833  0.0761  0.0435  0.4174
  512SOL    HW1 2046   0.928   1.986   2.830  0.3991  0.9758 -0.4503
  512SOL    HW2 2047   1.042   1.894   2.841 -0.8576  0.2859  0.7726
  512SOL     MW 2048   1.013   1.975   2.834 -0.0045  0.1985  0.3498
  513SOL     OW 2049   1.446   2.402   2.397  0.2010  0.4095 -0.0439
  513SOL    HW1 2050   1.543   2.383   2.406  2.0353 -0.6544  4.5967
  513SOL    HW2 2051   1.403   2.320   2.419 -1.6948 -0.0339 -1.3425
  513SOL     MW 2052   1.453   2.389   2.401  0.1929  0.2106  0.3971
  514SOL     OW 2053   0.235   2.434   2.613 -0.4366 -0.3543  0.1253
  514SOL    HW1 2054   0.306   2.490   2.579 -0.0899  2.8941 -0.7119
  514SOL    HW2 2055   0.231   2.460   2.710 -0.1603  1.8088 -0.8726
  514SOL     MW 2056   0.244   2.445   2.621 -0.3544  0.3597 -0.1168
  515SOL     OW 2057   1.104   2.027   1.955  0.4400  0.2316 -0.5050
  515SOL    HW1 2058   1.058   2.108   1.970  1.1365 -3.6711  0.7966
  515SOL    HW2 2059   1.192   2.039   2.001  0.9879  0.0646 -0.1325
  515SOL     MW 2060   1.110   2.039   1.963  0.6042 -0.3053 -0.2841
  516SOL     OW 2061   1.463   2.529   3.059  0.1144  0.1005 -0.8304
  516SOL    HW1 2062   1.509   2.504   2.978 -2.0068  1.9970  0.2275
  516SOL    HW2 2063   1.374   2.496   3.034 -4.7608 -0.3672  1.9063
  516SOL     MW 2064   1.458   2.521   3.045 -0.8087  0.2891 -0.3297
  517SOL     OW 2065   0.596   2.404   2.129 -0.0616  0.0227 -0.2946
  517SOL    HW1 2066   0.559   2.493   2.138  1.8742 -3.6871 -0.4153
  517SOL    HW2 2067   0.519   2.367   2.088 -2.6376 -0.2523 -0.2043
  517SOL     MW 2068   0.581   2.411   2.125 -0.1461 -0.5031 -0.2986
  518SOL     OW 2069   1.889   0.091   2.954 -0.2330  0.1610 -0.0514
  518SOL    HW1 2070   1.869   0.159   2.889  0.6564 -0.2336 -1.1452
  518SOL    HW2 2071   1.836   0.108   3.036 -0.1878 -1.6853  1.1466
  518SOL     MW 2072   1.879   0.102   2.956 -0.1097 -0.1347 -0.0376
  519SOL     OW 2073   0.736   2.577   1.761 -0.3773  0.2374  0.2555
  519SOL    HW1 2074   0.723   2.494   1.806 -1.1129 -3.0197  2.5347
  519SOL    HW2 2075   0.678   2.639   1.804 -1.1611  0.1962  2.5639
  519SOL     MW 2076   0.726   2.574   1.772 -0.5778 -0.1978  0.8608
  520SOL     OW 2077   1.229   2.124   2.916 -0.5339  0.4247 -0.2522
  520SOL    HW1 2078   1.145   2.085   2.885 -0.4252  1.0859 -0.1442
  520SOL    HW2 2079   1.246   2.089   3.000 -0.8629  0.5200 -0.9773
  520SOL     MW 2080   1.220   2.114   2.923 -0.5630  0.5245 -0.3336
  521SOL     OW 2081   1.737   2.032   2.227  0.4436 -0.2498 -0.1226
  521SOL    HW1 2082   1.772   2.051   2.140 -1.7258 -0.6276 -1.2418
  521SOL    HW2 2083   1.735   1.938   2.223  0.0883  0.2735 -0.3460
  521SOL     MW 2084   1.741   2.022   2.215  0.1105 -0.2306 -0.2997
  522SOL     OW 2085   2.821   2.561   2.183 -0.0991  0.5520  0.6400
  522SOL    HW1 2086   2.898   2.529   2.220 -0.4416  0.0085 -1.8049
  522SOL    HW2 2087   2.774   2.587   2.259  1.1824  3.4517  1.1022
  522SOL     MW 2088   2.825   2.560   2.198  0.0248  0.8629  0.3784
  523SOL     OW 2089   0.842   1.488   2.125 -0.6365  0.2531  0.3156
  523SOL    HW1 2090   0.853   1.553   2.053  0.3372  0.4228  1.4074
  523SOL    HW2 2091   0.890   1.411   2.086 -1.5242 -0.6291 -1.3666
  523SOL     MW 2092   0.850   1.486   2.111 -0.6252  0.1591  0.2377
  524SOL     OW 2093   0.875   2.469   2.967 -0.4887 -0.3079  0.4240
  524SOL    HW1 2094   0.806   2.538   2.942 -0.1889 -0.7802 -0.6202
  524SOL    HW2 2095   0.830   2.389   2.942 -2.5454  0.9367 -0.8305
  524SOL     MW 2096   0.860   2.468   2.960 -0.7205 -0.2060  0.1207
  525SOL     OW 2097   0.359   2.278   2.061  0.3803  0.7801 -0.6956
  525SOL    HW1 2098   0.333   2.229   2.147 -0.3241 -1.7588  0.4142
  525SOL    HW2 2099   0.346   2.211   1.988  1.8139  3.0725 -2.7805
  525SOL     MW 2100   0.354   2.263   2.063  0.4765  0.7476 -0.8242
  526SOL     OW 2101   0.644   2.097   2.046 -0.0708  0.6643  0.2966
  526SOL    HW1 2102   0.624   2.144   1.968  1.3297 -1.3638  0.6972
  526SOL    HW2 2103   0.619   2.150   2.121  1.0207  1.5273  1.6896
  526SOL     MW 2104   0.638   2.110   2.046  0.2580  0.5106  0.5333
  527SOL     OW 2105   1.386   1.970   2.069  0.7840  0.7214  1.0798
  527SOL    HW1 2106   1.362   1.908   2.139 -2.3690 -1.6418  0.3609
  527SOL    HW2 2107   1.414   1.915   1.994 -1.3364  1.6395  0.0693
  527SOL     MW 2108   1.386   1.954   2.068  0.0882  0.5308  0.8516
  528SOL     OW 2109   0.651   2.932   2.949  0.1075  0.3074  0.3430
  528SOL    HW1 2110   0.691   3.014   2.931 -1.3386  0.0195  0.5904
  528SOL    HW2 2111   0.581   2.937   2.884 -1.6642  1.5615  1.2820
  528SOL     MW 2112   0.647   2.943   2.938 -0.3171  0.4349  0.4995
  529SOL     OW 2113   0.951   2.262   1.942  0.3347  0.0756  0.1445
  529SOL    HW1 2114   0.969   2.312   2.022  2.1307  1.9413 -0.3478
  529SOL    HW2 2115   0.995   2.312   1.877  0.7346 -2.3585  2.2874
  529SOL     MW 2116   0.959   2.275   1.944  0.6244  0.0006  0.3623
  530SOL     OW 2117   1.232   2.411   2.981  0.4115  0.0512 -0.2810
  530SOL    HW1 2118   1.165   2.441   3.048  0.4685 -3.1970 -1.5749
  530SOL    HW2 2119   1.230   2.316   2.985 -1.4448  0.4714 -0.7612
  530SOL     MW 2120   1.223   2.402   2.990  0.1741 -0.3219 -0.5151
  531SOL     OW 2121   0.929   1.854   2.565  0.3261 -0.0615  0.3344
  531SOL    HW1 2122   0.991   1.923   2.552 -1.7767  3.1525  2.0241
  531SOL    HW2 2123   0.878   1.874   2.641  3.0983 -0.1454 -3.6154
  531SOL     MW 2124   0.930   1.866   2.573  0.4144  0.3515  0.0362
  532SOL     OW 2125   1.772   0.259   2.771 -0.5237 -1.0724  0.2501
  532SOL    HW1 2126   1.690   0.201   2.774 -2.1431 -0.7795 -0.3383
  532SOL    HW2 2127   1.824   0.221   2.695 -0.6905  0.1111 -0.3944
  532SOL     MW 2128   1.768   0.246   2.761 -0.7593 -0.8776  0.0875
  533SOL     OW 2129   1.904   2.607   3.097  0.4003 -0.9271  0.7854
  533SOL    HW1 2130   1.833   2.573   3.155  0.8725 -2.1225  1.0798
  533SOL    HW2 2131   1.860   2.666   3.032 -1.1249  1.6029 -2.4385
  533SOL     MW 2132   1.889   2.610   3.096  0.2613 -0.7510  0.3989
  534SOL     OW 2133   1.719   2.379   2.475 -0.4620 -0.3116 -0.2291
  534SOL    HW1 2134   1.699   2.302   2.530 -0.2244  1.1840  0.2158
  534SOL    HW2 2135   1.797   2.415   2.525  1.0584  0.0454  1.7653
  534SOL     MW 2136   1.727   2.373   2.489 -0.2301 -0.0672  0.0927
  535SOL     OW 2137   1.895   2.414   1.867  0.2282 -0.1265 -0.5505
  535SOL    HW1 2138   1.835   2.392   1.794 -0.9319  1.6103 -0.0551
  535SOL    HW2 2139   1.989   2.395   1.857 -0.3017 -0.2297  0.0314
  535SOL     MW 2140   1.899   2.409   1.856  0.0052  0.0890 -0.4084
  536SOL     OW 2141   0.510   1.851   2.111 -0.7135 -0.4067  0.6348
  536SOL    HW1 2142   0.476   1.811   2.025 -1.9914  3.2688  0.8651
  536SOL    HW2 2143   0.546   1.934   2.084 -1.6319 -3.2935  2.8655
  536SOL     MW 2144   0.510   1.857   2.096 -1.0033 -0.3026  0.9595
  537SOL     OW 2145   1.081   0.247   2.780 -0.0275  0.5471  0.0406
  537SOL    HW1 2146   1.060   0.287   2.862  0.0186  0.5774 -1.7279
  537SOL    HW2 2147   1.067   0.321   2.712  0.1135  1.2375 -0.4548
  537SOL     MW 2148   1.076   0.262   2.782 -0.0028  0.6422 -0.2581
  538SOL     OW 2149   1.432   0.056   0.057 -0.1921 -0.3072  0.4360
  538SOL    HW1 2150   1.425   0.153   0.065  0.5582 -0.8515  2.2228
  538SOL    HW2 2151   1.351   0.009   0.070 -0.9550 -3.6275 -1.0515
  538SOL     MW 2152   1.420   0.063   0.060 -0.1938 -0.8171  0.4755
  539SOL     OW 2153   0.680   2.787   2.579 -0.0549 -0.2675  0.4276
  539SOL    HW1 2154   0.748   2.845   2.615  3.0899 -1.9528  0.8182
  539SOL    HW2 2155   0.708   2.699   2.616  0.3861 -0.3646  1.4721
  539SOL     MW 2156   0.693   2.783   2.589  0.4182 -0.5026  0.6169
  540SOL     OW 2157   0.251   2.473   2.901  0.3525 -0.3177 -0.0139
  540SOL    HW1 2158   0.276   2.526   2.981 -1.5410 -0.9685 -0.1486
  540SOL    HW2 2159   0.215   2.388   2.938 -1.1293  1.3968 -1.5217
  540SOL     MW 2160   0.250   2.469   2.917 -0.0928 -0.1773 -0.2306
  541SOL     OW 2161   0.244   2.944   2.135  0.5775  0.4288  0.1871
  541SOL    HW1 2162   0.172   2.884   2.133  0.7538  2.1746  0.9953
  541SOL    HW2 2163   0.287   2.913   2.219  1.0596  0.1952  2.5778
  541SOL     MW 2164   0.240   2.932   2.145  0.6643  0.6283  0.6092
  542SOL     OW 2165   0.986   2.264   2.598 -0.2753  0.1695 -0.6533
  542SOL    HW1 2166   0.933   2.223   2.663  0.4385  0.9193 -0.9222
  542SOL    HW2 2167   1.020   2.346   2.646 -0.5277  0.8239  0.6257
  542SOL     MW 2168   0.984   2.269   2.613 -0.2144  0.3548 -0.5201
  543SOL     OW 2169   1.611   2.437   2.805 -0.3163 -0.4518  0.1319
  543SOL    HW1 2170   1.595   2.363   2.743 -2.8163  1.9510  1.2219
  543SOL    HW2 2171   1.618   2.521   2.761 -3.3362  1.0275  1.9847
  543SOL     MW 2172   1.610   2.438   2.791 -1.0446  0.0604  0.5202
  544SOL     OW 2173   0.709   0.275   2.702 -0.1351  0.4950  0.3290
  544SOL    HW1 2174   0.613   0.261   2.715  0.4427  0.5869 -2.0434
  544SOL    HW2 2175   0.721   0.241   2.615 -2.3370  1.8391  0.7558
  544SOL     MW 2176   0.698   0.269   2.692 -0.3494  0.6845  0.0723
  545SOL     OW 2177   1.485   2.126   2.325 -0.0555 -0.0525  0.0502
  545SOL    HW1 2178   1.445   2.147   2.240 -0.4468  0.6188  1.2238
  545SOL    HW2 2179   1.573   2.087   2.291 -1.3238 -1.1615 -1.4135
  545SOL     MW 2180   1.491   2.123   2.309 -0.2745 -0.1102  0.0119
  546SOL     OW 2181   2.878   1.952   0.108  0.0639 -0.6628  0.4795
  546SOL    HW1 2182   2.884   2.044   0.081  2.3632  0.0082  0.8406
  546SOL    HW2 2183   2.972   1.916   0.108  0.2154  2.3824 -0.5713
  546SOL     MW 2184   2.891   1.960   0.104  0.3873 -0.1725  0.3885
  547SOL     OW 2185   0.220   0.063   0.087 -0.0219  0.2046  0.5403
  547SOL    HW1 2186   0.282   0.070   0.017  0.9504  1.5520 -1.3909
  547SOL    HW2 2187   0.144   0.030   0.036 -0.5603  3.3236 -1.1562
  547SOL     MW 2188   0.218   0.059   0.071  0.0353  0.7939  0.0617
  548SOL     OW 2189   0.314   2.489   0.222 -0.0656  0.4752  0.7640
  548SOL    HW1 2190   0.314   2.541   0.139  1.3316 -1.4374 -0.8094
  548SOL    HW2 2191   0.249   2.426   0.213  1.5796  3.3854  1.0239
  548SOL     MW 2192   0.305   2.488   0.210  0.3358  0.6068  0.5907
  549SOL     OW 2193   0.861   1.926   2.111 -0.4336  0.4625 -0.4288
  549SOL    HW1 2194   0.797   1.979   2.069  1.1063 -0.7548  2.9833
  549SOL    HW2 2195   0.819   1.914   2.194 -2.1119 -0.1766  0.8808
  549SOL     MW 2196   0.847   1.931   2.116 -0.4519  0.2176  0.1942
  550SOL     OW 2197   1.906   1.716   2.507 -0.5648 -0.5572 -0.1143
  550SOL    HW1 2198   1.853   1.711   2.427 -0.7157  0.1076  2.3191
  550SOL    HW2 2199   1.872   1.796   2.551  2.1122 -1.0459 -3.3319
  550SOL     MW 2200   1.894   1.726   2.502 -0.2315 -0.5340 -0.2178
  551SOL     OW 2201   0.906   2.213   0.236  0.8207 -0.1558 -0.8481
  551SOL    HW1 2202   0.997   2.237   0.236 -2.8344  1.5096  2.0751
  551SOL    HW2 2203   0.884   2.169   0.155 -2.0783 -0.3584 -1.9653
  551SOL     MW 2204   0.915   2.211   0.226 -0.0441  0.0372 -0.6098
  552SOL     OW 2205   1.742   1.739   2.251  0.4241 -0.9897 -0.7492
  552SOL    HW1 2206   1.669   1.688   2.261  3.6898  2.0003  1.6130
  552SOL    HW2 2207   1.802   1.694   2.188 -0.1915  2.8834 -0.6865
  552SOL     MW 2208   1.740   1.726   2.244  0.7737 -0.0842 -0.4293
  553SOL     OW 2209   1.218   2.321   1.541  0.6445  0.2407  0.2217
  553SOL    HW1 2210   1.250   2.229   1.545  0.6628  0.3230  0.7452
  553SOL    HW2 2211   1.295   2.368   1.516 -0.7963 -1.3121  0.8751
  553SOL     MW 2212   1.232   2.315   1.538  0.4568  0.0467  0.3770
  554SOL     OW 2213   0.488   2.928   2.709 -0.2096  0.8220 -0.3894
  554SOL    HW1 2214   0.457   2.980   2.638  0.1218 -2.4657  0.0715
  554SOL    HW2 2215   0.538   2.861   2.662  0.7805  1.1636 -0.1472
  554SOL     MW 2216   0.490   2.926   2.693 -0.0353  0.4333 -0.2966
  555SOL     OW 2217   0.600   2.512   2.622  1.0843  0.8887  0.2632
  555SOL    HW1 2218   0.564   2.421   2.644  1.2935 -0.0778  2.1361
  555SOL    HW2 2219   0.667   2.492   2.558 -1.5003  1.1053  1.6293
  555SOL     MW 2220   0.604   2.497   2.617  0.7709  0.7897  0.6905
  556SOL     OW 2221   1.066   1.874   0.061 -0.2367 -0.0975  0.1639
  556SOL    HW1 2222   1.067   1.818  -0.017  0.6766 -1.7093  1.6917
  556SOL    HW2 2223   1.151   1.873   0.094 -0.4598 -0.4351 -0.9386
  556SOL     MW 2224   1.077   1.866   0.055 -0.1456 -0.3547  0.2200
  557SOL     OW 2225   1.045   2.730   0.548  0.1038 -0.2029 -0.0061
  557SOL    HW1 2226   1.043   2.669   0.477  0.1510  2.5542  3.1289
  557SOL    HW2 2227   1.000   2.808   0.509  0.8747  0.9979  2.5243
  557SOL     MW 2228   1.039   2.732   0.533  0.2117  0.3193  0.7414
  558SOL     OW 2229   0.198   2.224   3.050  0.4325  0.1937 -0.2005
  558SOL    HW1 2230   0.121   2.188   3.003 -0.0391 -2.5462 -0.6470
  558SOL    HW2 2231   0.159   2.274   3.124 -3.4980  3.2052  0.1177
  558SOL     MW 2232   0.183   2.226   3.053 -0.1483  0.2296 -0.2174
  559SOL     OW 2233   1.069   2.360   2.170 -0.0661 -0.2491  1.1644
  559SOL    HW1 2234   1.159   2.383   2.162 -0.4041  0.4592 -0.0834
  559SOL    HW2 2235   1.077   2.263   2.187  0.6067  0.9047  0.2751
  559SOL     MW 2236   1.082   2.350   2.171 -0.0219 -0.0034  0.8824
  560SOL     OW 2237   2.126   2.671   0.165  0.8685  0.0102  0.2175
  560SOL    HW1 2238   2.132   2.746   0.101 -1.6693 -0.9578 -0.0166
  560SOL    HW2 2239   2.059   2.619   0.122  1.2360 -0.4622  0.7414
  560SOL     MW 2240   2.118   2.674   0.151  0.5821 -0.1798  0.2558
  561SOL     OW 2241   0.500   2.170   0.161 -0.0761  0.0917  1.0528
  561SOL    HW1 2242   0.474   2.178   0.069 -3.1107  2.0329  1.7625
  561SOL    HW2 2243   0.561   2.245   0.188  1.0661 -2.5684  1.8446
  561SOL     MW 2244   0.505   2.181   0.152 -0.3258 -0.0032  1.2509
  562SOL     OW 2245   0.694   2.265   2.368 -0.1736  0.5845  0.2103
  562SOL    HW1 2246   0.675   2.306   2.286 -1.2077  2.4206  2.9315
  562SOL    HW2 2247   0.756   2.340   2.389  3.4085 -1.0486 -1.8051
  562SOL     MW 2248   0.700   2.281   2.360  0.1626  0.6113  0.3034
  563SOL     OW 2249   1.226   0.389   0.577 -0.1750  0.2740  0.2422
  563SOL    HW1 2250   1.192   0.336   0.508 -0.0388  0.9173  1.6421
  563SOL    HW2 2251   1.194   0.352   0.657 -3.4545 -1.2606  2.2224
  563SOL     MW 2252   1.217   0.377   0.578 -0.5898  0.1564  0.6882
  564SOL     OW 2253   1.026   2.661   2.365 -0.0198  0.5055  0.3069
  564SOL    HW1 2254   1.013   2.741   2.306  0.0809  1.9681  1.0203
  564SOL    HW2 2255   1.048   2.706   2.447 -0.7616 -0.1981 -0.8206
  564SOL     MW 2256   1.027   2.677   2.368 -0.1044  0.6056  0.2522
  565SOL     OW 2257   2.762   2.832   2.562 -0.0645 -0.5725  0.7292
  565SOL    HW1 2258   2.723   2.900   2.507 -2.1999 -1.2836  1.6066
  565SOL    HW2 2259   2.739   2.755   2.502  1.6786 -0.1375  1.0719
  565SOL     MW 2260   2.754   2.831   2.547 -0.1163 -0.6090  0.8902
  566SOL     OW 2261   2.194   1.959   2.352  0.2670  0.1554 -0.1355
  566SOL    HW1 2262   2.216   1.920   2.271  1.2788  1.6147  0.7653
  566SOL    HW2 2263   2.251   2.033   2.366 -1.2293 -1.2120 -2.2607
  566SOL     MW 2264   2.205   1.963   2.343  0.2031  0.1675 -0.2970
  567SOL     OW 2265   1.191   3.032   0.040 -0.4893  1.1545 -0.1675
  567SOL    HW1 2266   1.143   3.055   0.119 -1.3370  0.6539 -1.4602
  567SOL    HW2 2267   1.224   2.940   0.040  1.0906 -0.3792 -0.2892
  567SOL     MW 2268   1.189   3.023   0.050 -0.3927  0.8861 -0.3541
  568SOL     OW 2269   1.655   2.044   2.845 -0.3051 -0.2946 -0.4847
  568SOL    HW1 2270   1.693   2.102   2.917 -1.6225 -1.6841 -0.0820
  568SOL    HW2 2271   1.723   1.989   2.793  1.8319 -1.3849 -0.1433
  568SOL     MW 2272   1.669   2.045   2.847 -0.1970 -0.6218 -0.3866
  569SOL     OW 2273   0.109   2.254   2.439 -0.0548 -0.0384 -0.1775
  569SOL    HW1 2274   0.061   2.299   2.368  1.4259  0.2812  1.0488
  569SOL    HW2 2275   0.153   2.328   2.478 -1.2572 -3.8097  2.9145
  569SOL     MW 2276   0.109   2.270   2.435 -0.0181 -0.4938  0.3922
  570SOL     OW 2277   1.489   0.334   0.474  0.4827 -0.3420 -0.7026
  570SOL    HW1 2278   1.411   0.377   0.504  0.8994  2.3684  1.6260
  570SOL    HW2 2279   1.558   0.368   0.530 -2.5924 -1.5959 -0.6523
  570SOL     MW 2280   1.488   0.344   0.485  0.1319 -0.1498 -0.3887
  571SOL     OW 2281   1.337   2.382   2.143  0.1003  0.1644 -0.0329
  571SOL    HW1 2282   1.386   2.413   2.223  0.9161  0.4384 -0.5304
  571SOL    HW2 2283   1.403   2.331   2.090 -0.2600 -1.3245  1.1648
  571SOL     MW 2284   1.352   2.379   2.146  0.1604  0.0041  0.0595
  572SOL     OW 2285   1.073   2.571   0.080  0.5464  0.2799  0.2172
  572SOL    HW1 2286   1.061   2.670   0.042 -0.4180  0.3640 -2.5473
  572SOL    HW2 2287   0.979   2.553   0.106  0.7701  0.6188  0.0701
  572SOL     MW 2288   1.059   2.582   0.078  0.4487  0.3357 -0.1669
  573SOL     OW 2289   1.181   2.264   0.235  0.1147  0.2395  0.7259
  573SOL    HW1 2290   1.267   2.260   0.194  0.0470  0.7876  1.0333
  573SOL    HW2 2291   1.175   2.355   0.275  2.5310  1.9302  0.0574
  573SOL     MW 2292   1.192   2.275   0.235  0.4246  0.5349  0.6783
  574SOL     OW 2293   1.154   2.506   0.337  0.0720  0.2321  0.3043
  574SOL    HW1 2294   1.228   2.567   0.355  2.9319  1.8903  2.5173
  574SOL    HW2 2295   1.109   2.541   0.256  2.3528  2.0177  2.8000
  574SOL     MW 2296   1.158   2.518   0.329  0.7503  0.6865  0.9256
  575SOL     OW 2297   3.070   2.197   1.630  0.0167  0.0274 -0.8448
  575SOL    HW1 2298   3.099   2.108   1.605  0.9394 -1.3179  2.8670
  575SOL    HW2 2299   3.134   2.228   1.693 -0.5242  0.9400 -0.2170
  575SOL     MW 2300   3.083   2.189   1.635  0.0671 -0.0297 -0.2722
  576SOL     OW 2301   2.868   1.876   1.960  0.1529 -0.0052 -0.1750
  576SOL    HW1 2302   2.884   1.959   1.917  1.4667 -0.0591  0.7284
  576SOL    HW2 2303   2.799   1.820   1.911 -2.1283 -1.0148 -3.3237
  576SOL     MW 2304   2.861   1.880   1.947  0.0253 -0.1455 -0.4713
  577SOL     OW 2305   2.110   0.156   0.004  0.0307 -0.6423  0.4780
  577SOL    HW1 2306   2.037   0.135  -0.058 -2.7383 -2.0120  0.9375
  577SOL    HW2 2307   2.088   0.110   0.082 -0.2578 -0.2563 -3.0078
  577SOL     MW 2308   2.098   0.147   0.006 -0.3727 -0.7720  0.0787
  578SOL     OW 2309   1.980   2.143   2.378  0.2731  0.2113 -0.3755
  578SOL    HW1 2310   1.904   2.107   2.330  3.2536  0.2915 -2.0619
  578SOL    HW2 2311   2.047   2.073   2.356 -1.5061 -1.5448  1.5033
  578SOL     MW 2312   1.979   2.129   2.369  0.4316 -0.0098 -0.3501
  579SOL     OW 2313   0.837   2.452   2.466 -0.4133  0.6246  0.0280
  579SOL    HW1 2314   0.903   2.392   2.492 -1.7382 -0.7210  1.7653
  579SOL    HW2 2315   0.885   2.493   2.397 -1.4651  0.3061 -0.2535
  579SOL     MW 2316   0.852   2.449   2.461 -0.7269  0.4051  0.2201
  580SOL     OW 2317   0.969   2.860   3.081  0.0011  0.2010  0.2329
  580SOL    HW1 2318   1.058   2.890   3.058 -0.6403  0.8736 -0.8585
  580SOL    HW2 2319   0.943   2.812   2.999  2.7448 -0.1531 -0.8794
  580SOL     MW 2320   0.977   2.858   3.067  0.2785  0.2430 -0.0579
  581SOL     OW 2321   1.124   2.437   1.773 -0.0175  0.1209  0.3342
  581SOL    HW1 2322   1.192   2.477   1.828  0.7596  2.3378  0.6949
  581SOL    HW2 2323   1.162   2.394   1.699 -0.6339 -0.8173 -1.3137
  581SOL     MW 2324   1.138   2.437   1.771  0.0037  0.2896  0.1643
  582SOL     OW 2325   3.089   2.934   2.657 -0.5517  0.8778  0.0230
  582SOL    HW1 2326   3.013   2.967   2.704  1.7737  1.6978 -1.4997
  582SOL    HW2 2327   3.162   2.980   2.695  0.8233 -1.0640  1.1130
  582SOL     MW 2328   3.089   2.944   2.668 -0.0635  0.7298 -0.0341
  583SOL     OW 2329   1.964   2.407   2.623 -0.2910  0.6418  0.2351
  583SOL    HW1 2330   2.047   2.434   2.581 -0.2954 -0.6583  3.4309
  583SOL    HW2 2331   1.963   2.312   2.637 -2.3944 -0.9173  1.6245
  583SOL     MW 2332   1.975   2.398   2.619 -0.5691  0.2646  0.8401
  584SOL     OW 2333   0.158   1.890   2.196  0.6124  0.2161  0.2749
  584SOL    HW1 2334   0.188   1.856   2.278  0.2570 -0.4512 -2.2540
  584SOL    HW2 2335   0.189   1.982   2.207  1.2482  1.0000 -3.6070
  584SOL     MW 2336   0.166   1.897   2.208  0.6494  0.2315 -0.5709
  585SOL     OW 2337   1.550   2.711   0.171 -0.1151  0.0844 -0.0232
  585SOL    HW1 2338   1.537   2.676   0.085 -0.3298 -0.5838  0.3775
  585SOL    HW2 2339   1.460   2.716   0.208  0.9061 -1.8059  0.3319
  585SOL     MW 2340   1.537   2.707   0.164 -0.0087 -0.2532  0.0765
  586SOL     OW 2341   1.341   2.814   2.558 -0.0550 -0.0877 -0.4651
  586SOL    HW1 2342   1.388   2.766   2.484  1.6361  0.0894 -0.0013
  586SOL    HW2 2343   1.356   2.908   2.563 -0.5242  3.3159  0.0434
  586SOL     MW 2344   1.349   2.820   2.549  0.1062  0.3847 -0.3368
  587SOL     OW 2345   1.342   1.445   2.172 -0.1372 -0.1152  0.3123
  587SOL    HW1 2346   1.309   1.396   2.245 -1.0433 -0.1022 -1.5539
  587SOL    HW2 2347   1.332   1.393   2.091 -1.5362 -1.3433 -2.0536
  587SOL     MW 2348   1.336   1.432   2.171 -0.4414 -0.2756 -0.2461
  588SOL     OW 2349   1.356   2.010   2.703 -0.1731  0.1759  0.1041
  588SOL    HW1 2350   1.383   1.917   2.713 -2.3403  0.1993  1.8027
  588SOL    HW2 2351   1.306   2.038   2.780 -1.1359  2.4451  0.7439
  588SOL     MW 2352   1.353   2.001   2.715 -0.5861  0.4784  0.4126
  589SOL     OW 2353   1.390   2.030   0.055 -0.9639 -0.3562 -0.0612
  589SOL    HW1 2354   1.403   2.131   0.065  0.3588  1.3632  0.6087
  589SOL    HW2 2355   1.367   1.993   0.139 -1.9224  0.8206  0.0107
  589SOL     MW 2356   1.389   2.039   0.067 -0.9159  0.0259  0.0366
  590SOL     OW 2357   0.528   2.664   2.174 -0.5709  0.0848 -0.2254
  590SOL    HW1 2358   0.531   2.686   2.080  0.9377  1.7460 -2.0452
  590SOL    HW2 2359   0.607   2.712   2.203 -0.3070 -0.5339  0.1726
  590SOL     MW 2360   0.539   2.673   2.165 -0.3370  0.2224 -0.4130
  591SOL     OW 2361   2.218   0.681   0.145 -0.3228 -0.3721  0.3369
  591SOL    HW1 2362   2.147   0.706   0.215 -3.6500  0.2014  2.7228
  591SOL    HW2 2363   2.219   0.731   0.068  0.1375  1.3330  1.0802
  591SOL     MW 2364   2.209   0.691   0.144 -0.7010 -0.0714  0.7497
  592SOL     OW 2365   1.661   2.928   0.814 -0.2633 -0.2385 -0.3015
  592SOL    HW1 2366   1.659   3.021   0.818  0.6133 -1.3931 -0.3045
  592SOL    HW2 2367   1.757   2.911   0.817  1.0208 -2.2491 -2.6392
  592SOL     MW 2368   1.673   2.938   0.815  0.0218 -0.6561 -0.6103
  593SOL     OW 2369   1.933   0.718   0.766 -0.4245 -0.0133 -0.6431
  593SOL    HW1 2370   1.858   0.729   0.699 -1.5536  2.4797 -2.6297
  593SOL    HW2 2371   1.964   0.627   0.755  1.7319  0.4722 -0.3096
  593SOL     MW 2372   1.927   0.708   0.755 -0.2890  0.3797 -0.8612
  594SOL     OW 2373   2.799   1.012   1.417 -0.0177 -0.9763 -0.4412
  594SOL    HW1 2374   2.880   1.045   1.384  0.0175 -1.3642  2.1863
  594SOL    HW2 2375   2.744   1.013   1.337 -2.0699  1.5287  2.6102
  594SOL     MW 2376   2.802   1.016   1.402 -0.2838 -0.6970  0.3080
  595SOL     OW 2377   0.524   0.914   0.835  0.2975 -0.3668  0.0908
  595SOL    HW1 2378   0.480   0.984   0.790  1.1902  1.0988  0.4985
  595SOL    HW2 2379   0.582   0.974   0.890  1.3436  0.5767 -0.0769
  595SOL     MW 2380   0.526   0.931   0.837  0.5533 -0.0489  0.1225
  596SOL     OW 2381   2.466   1.370   0.495 -0.2472  0.0556 -0.1965
  596SOL    HW1 2382   2.437   1.437   0.434  2.3119 -0.7351 -1.3861
  596SOL    HW2 2383   2.520   1.402   0.568 -0.0849  2.4658 -1.2189
  596SOL     MW 2384   2.470   1.383   0.497  0.1119  0.2693 -0.4883
  597SOL     OW 2385   2.246   0.633   1.572 -0.4612  0.4976 -0.0959
  597SOL    HW1 2386   2.276   0.578   1.644 -1.6102  5.3458 -0.0370
  597SOL    HW2 2387   2.166   0.582   1.536  0.9999 -0.6614 -0.3507
  597SOL     MW 2388   2.239   0.619   1.577 -0.4200  0.9843 -0.1218
  598SOL     OW 2389   2.592   1.037   2.896  0.1174  0.2151 -0.1442
  598SOL    HW1 2390   2.640   0.959   2.918 -2.1387 -0.3176  1.3055
  598SOL    HW2 2391   2.666   1.095   2.893 -1.1039 -1.0254 -0.4552
  598SOL     MW 2392   2.608   1.034   2.898 -0.3414 -0.0189  0.0060
  599SOL     OW 2393   3.086   0.452   2.272 -0.2485  0.8158  0.2197
  599SOL    HW1 2394   3.160   0.477   2.329  4.4794  0.3429  2.4785
  599SOL    HW2 2395   3.069   0.520   2.208 -1.0760  2.0360 -1.6517
  599SOL     MW 2396   3.093   0.464   2.271  0.2661  0.9144  0.2708
  600SOL     OW 2397   1.836   1.717   0.829 -0.4014 -0.1569  0.1413
  600SOL    HW1 2398   1.866   1.752   0.912 -1.7760 -1.3199 -0.7724
  600SOL    HW2 2399   1.754   1.767   0.817 -0.3717 -0.3455  0.2131
  600SOL     MW 2400   1.829   1.728   0.838 -0.5788 -0.3353  0.0302
  601SOL     OW 2401   2.555   0.756   0.836  0.0628  0.6531  0.6298
  601SOL    HW1 2402   2.536   0.732   0.924 -0.6443  0.3885 -2.3984
  601SOL    HW2 2403   2.500   0.699   0.784 -0.6015 -2.4002  1.4036
  601SOL     MW 2404   2.545   0.745   0.840 -0.1181  0.2153  0.3324
  602SOL     OW 2405   2.257   1.896   0.762  0.1105  0.2772  0.4860
  602SOL    HW1 2406   2.205   1.827   0.714 -0.9030 -0.9522 -3.1057
  602SOL    HW2 2407   2.211   1.972   0.743 -0.7473  0.4816 -0.2794
  602SOL     MW 2408   2.244   1.897   0.753 -0.1364  0.1419 -0.0889
  603SOL     OW 2409   2.980   1.372   1.962  0.4593 -0.3553  0.0970
  603SOL    HW1 2410   2.977   1.434   2.034  0.0330 -2.1872 -1.1042
  603SOL    HW2 2411   3.022   1.295   1.990 -1.0773  2.1538  3.0143
  603SOL     MW 2412   2.985   1.370   1.975  0.2003 -0.2660  0.3235
  604SOL     OW 2413   2.025   1.363   0.366 -0.1565  0.0471 -0.6907
  604SOL    HW1 2414   2.089   1.313   0.423 -0.0390 -1.5197 -3.4657
  604SOL    HW2 2415   1.968   1.414   0.425 -0.1798  1.2749 -0.5326
  604SOL     MW 2416   2.026   1.363   0.382 -0.1441  0.0024 -1.0360
  605SOL     OW 2417   2.425   1.442   0.798  0.1506 -0.0392  0.0368
  605SOL    HW1 2418   2.445   1.517   0.746  2.5211  0.4002  2.0294
  605SOL    HW2 2419   2.481   1.367   0.773  0.5607 -0.2284  0.6618
  605SOL     MW 2420   2.435   1.442   0.788  0.5175 -0.0062  0.3821
  606SOL     OW 2421   2.691   1.746   1.808  0.7053  0.6662  0.1316
  606SOL    HW1 2422   2.616   1.801   1.791 -0.7182 -1.3258  1.1330
  606SOL    HW2 2423   2.665   1.647   1.798  1.3938 -0.8833 -0.4367
  606SOL     MW 2424   2.678   1.740   1.804  0.6083  0.1990  0.1888
  607SOL     OW 2425   2.385   0.965   3.071  0.0353 -0.1268  0.3861
  607SOL    HW1 2426   2.449   1.004   3.009  0.2167 -1.6351 -0.3350
  607SOL    HW2 2427   2.412   0.968   3.168  0.9722 -1.4450 -1.6810
  607SOL     MW 2428   2.397   0.971   3.076  0.1829 -0.4998  0.0183
  608SOL     OW 2429   1.867   0.247   0.520  0.0893 -0.0104 -0.3844
  608SOL    HW1 2430   1.878   0.265   0.428 -1.5843  3.3363 -2.4673
  608SOL    HW2 2431   1.831   0.152   0.528  0.7313 -0.8409  1.3264
  608SOL     MW 2432   1.864   0.237   0.509 -0.0468  0.3216 -0.4335
  609SOL     OW 2433   2.126   1.879   3.066  0.2375  0.1017 -0.3662
  609SOL    HW1 2434   2.051   1.837   3.016  1.2498  0.1623 -1.1838
  609SOL    HW2 2435   2.113   1.875   3.160  0.5245  0.4755 -0.3146
  609SOL     MW 2436   2.114   1.873   3.072  0.4090  0.1590 -0.4673
  610SOL     OW 2437   1.832   0.935   1.221 -0.5562  0.3821 -0.2861
  610SOL    HW1 2438   1.854   0.879   1.148 -1.7730  1.7062 -0.4191
  610SOL    HW2 2439   1.729   0.949   1.205  0.0391  2.9402 -2.3341
  610SOL     MW 2440   1.821   0.929   1.210 -0.6382  0.8943 -0.5738
  611SOL     OW 2441   2.467   1.654   0.612 -0.5732  0.0694 -0.3165
  611SOL    HW1 2442   2.488   1.629   0.522 -0.0953  3.0665  1.1484
  611SOL    HW2 2443   2.465   1.748   0.607  0.5766  1.6396 -2.0933
  611SOL     MW 2444   2.469   1.663   0.599 -0.3584  0.6720 -0.3576
  612SOL     OW 2445   2.892   2.926   0.348 -0.9910 -0.3483  0.1874
  612SOL    HW1 2446   2.929   2.974   0.425  0.1801  2.9696  1.4488
  612SOL    HW2 2447   2.962   2.867   0.311 -0.8039 -1.0929 -0.4875
  612SOL     MW 2448   2.906   2.925   0.353 -0.8118 -0.0087  0.2648
  613SOL     OW 2449   1.438   1.109   1.005 -0.3075 -0.3014  0.1518
  613SOL    HW1 2450   1.454   1.206   1.012 -3.4618  1.1528 -0.4484
  613SOL    HW2 2451   1.488   1.058   1.069  1.8494 -1.1259 -1.9031
  613SOL     MW 2452   1.446   1.115   1.014 -0.4391 -0.2183 -0.1985
  614SOL     OW 2453   2.031   0.469   1.391  0.1255  0.1649  0.1743
  614SOL    HW1 2454   2.001   0.428   1.475 -0.9318 -0.3709  2.7915
  614SOL    HW2 2455   1.951   0.508   1.367  0.6079  0.8831  0.9146
  614SOL     MW 2456   2.017   0.469   1.399  0.0497  0.1889  0.6173
  615SOL     OW 2457   2.421   0.730   0.334  0.1586 -0.4793  0.6248
  615SOL    HW1 2458   2.479   0.654   0.354  2.4040 -0.3603 -2.5515
  615SOL    HW2 2459   2.371   0.702   0.256 -2.8485 -0.3804 -1.8236
  615SOL     MW 2460   2.422   0.716   0.326  0.0581 -0.4505 -0.1173
  616SOL     OW 2461   2.579   0.415   1.613  0.5624 -0.1066  0.3057
  616SOL    HW1 2462   2.621   0.344   1.566 -0.3787 -3.4034  2.2147
  616SOL    HW2 2463   2.573   0.495   1.563 -1.3669 -1.2596 -1.1946
  616SOL     MW 2464   2.584   0.416   1.600  0.1837 -0.6937  0.3596
  617SOL     OW 2465   2.832   0.546   1.866 -0.1270  0.1576 -0.5762
  617SOL    HW1 2466   2.772   0.538   1.940  2.1229  0.3073 -1.3712
  617SOL    HW2 2467   2.837   0.460   1.832  0.4230 -0.7524 -0.7413
  617SOL     MW 2468   2.825   0.534   1.871  0.2424  0.0573 -0.7029
  618SOL     OW 2469   2.803   0.248   2.005  0.3724  0.7626 -0.0104
  618SOL    HW1 2470   2.754   0.296   2.080 -0.6514  0.3330  1.1168
  618SOL    HW2 2471   2.890   0.233   2.050  2.4585 -1.9302 -0.9919
  618SOL     MW 2472   2.808   0.253   2.020  0.5126  0.3506  0.0089
  619SOL     OW 2473   2.701   0.709   0.086  0.0543  0.2336 -0.1349
  619SOL    HW1 2474   2.741   0.789   0.057 -1.8047  2.7467  0.2221
  619SOL    HW2 2475   2.742   0.679   0.164 -1.2852  0.6383 -1.5678
  619SOL     MW 2476   2.711   0.716   0.092 -0.3677  0.6185 -0.2769
  620SOL     OW 2477   2.231   1.035   0.947  0.3207 -0.1660 -0.0258
  620SOL    HW1 2478   2.317   1.037   0.907 -0.1891  0.2127 -0.4057
  620SOL    HW2 2479   2.163   1.012   0.883 -0.7945 -0.2625  0.0176
  620SOL     MW 2480   2.233   1.032   0.933  0.1063 -0.1287 -0.0702
  621SOL     OW 2481   1.508   2.207   2.013 -0.2718 -0.6683  0.0262
  621SOL    HW1 2482   1.452   2.128   2.024  2.7277  0.3253  1.3989
  621SOL    HW2 2483   1.601   2.182   2.024 -0.4939  1.5329 -1.6609
  621SOL     MW 2484   1.513   2.193   2.015  0.0947 -0.2468 -0.0153
  622SOL     OW 2485   2.645   0.291   0.217 -0.0685  0.1390  0.1483
  622SOL    HW1 2486   2.743   0.306   0.228  0.8073  0.6242  0.0062
  622SOL    HW2 2487   2.640   0.197   0.216  0.4335  2.1446  0.7246
  622SOL     MW 2488   2.657   0.281   0.219  0.1133  0.4677  0.2056
  623SOL     OW 2489   2.368   2.764   0.822  0.0578  0.3831 -0.2157
  623SOL    HW1 2490   2.445   2.814   0.830  1.6966  0.1950  1.1820
  623SOL    HW2 2491   2.327   2.784   0.911  0.7060 -1.3385  0.5706
  623SOL     MW 2492   2.373   2.773   0.835  0.3596  0.1312  0.0725
  624SOL     OW 2493   2.126   1.552   3.063 -0.6953  0.4755 -0.4911
  624SOL    HW1 2494   2.080   1.484   3.022  0.0098  0.7213  0.4911
  624SOL    HW2 2495   2.077   1.636   3.036 -0.5583  2.3047  0.0128
  624SOL     MW 2496   2.114   1.554   3.054 -0.5842  0.7493 -0.2950
  625SOL     OW 2497   2.176   1.858   1.010 -0.2833 -0.6788 -0.1761
  625SOL    HW1 2498   2.201   1.785   1.067 -0.5981  1.8598 -0.7484
  625SOL    HW2 2499   2.203   1.845   0.918  2.1659  0.0434  0.1097
  625SOL     MW 2500   2.183   1.847   1.006 -0.0017 -0.2485 -0.2139
  626SOL     OW 2501   0.191   1.843   2.469 -0.5188  0.0319 -0.0531
  626SOL    HW1 2502   0.132   1.774   2.477 -0.9596  3.3403  1.3481
  626SOL    HW2 2503   0.147   1.930   2.479 -3.4098  0.0385  1.0469
  626SOL     MW 2504   0.178   1.845   2.471 -0.9584  0.4693  0.2769
  627SOL     OW 2505   2.609   0.810   2.572  0.7869  0.2334  0.0453
  627SOL    HW1 2506   2.514   0.841   2.568 -0.8868  0.5233  0.6138
  627SOL    HW2 2507   2.621   0.755   2.494  0.0979  2.6959 -2.4200
  627SOL     MW 2508   2.598   0.807   2.561  0.4752  0.5966 -0.2049
  628SOL     OW 2509   2.339   1.430   1.298  0.4583  1.1458 -0.2423
  628SOL    HW1 2510   2.348   1.346   1.258  0.2340  1.3530 -0.2206
  628SOL    HW2 2511   2.412   1.483   1.264  0.8494  0.1774 -2.0571
  628SOL     MW 2512   2.350   1.426   1.288  0.4803  1.0454 -0.4789
  629SOL     OW 2513   1.814   0.625   1.322 -0.2995  0.0443  0.1645
  629SOL    HW1 2514   1.845   0.672   1.246  2.4366 -0.3607 -0.0183
  629SOL    HW2 2515   1.734   0.580   1.297 -0.1640  2.0092  0.3233
  629SOL     MW 2516   1.808   0.625   1.309  0.0794  0.2501  0.1613
  630SOL     OW 2517   2.403   1.896   3.064 -0.4107  0.0616  0.3773
  630SOL    HW1 2518   2.404   1.989   3.038 -2.6018  2.6015 -0.8682
  630SOL    HW2 2519   2.305   1.888   3.070 -0.7392  2.5366 -1.4851
  630SOL     MW 2520   2.390   1.908   3.061 -0.7432  0.7232 -0.0327
  631SOL     OW 2521   2.090   1.837   1.498  0.2071  0.3215 -0.0029
  631SOL    HW1 2522   2.082   1.743   1.520 -0.3504 -1.4232  0.3211
  631SOL    HW2 2523   2.002   1.867   1.481  0.0073 -1.0949 -2.1385
  631SOL     MW 2524   2.077   1.829   1.499  0.1072 -0.0955 -0.2419
  632SOL     OW 2525   0.331   1.870   1.508  0.3677 -0.1689 -0.8294
  632SOL    HW1 2526   0.248   1.913   1.505 -2.1187  1.4784  0.8365
  632SOL    HW2 2527   0.314   1.778   1.509  3.6644 -0.6505 -0.6875
  632SOL     MW 2528   0.318   1.863   1.508  0.4746 -0.0151 -0.5909
  633SOL     OW 2529   2.576   0.518   0.369  0.2207  0.1128 -0.4047
  633SOL    HW1 2530   2.652   0.520   0.424 -1.0121 -1.9643 -1.9916
  633SOL    HW2 2531   2.585   0.436   0.327 -1.5052  1.8561 -0.6442
  633SOL     MW 2532   2.587   0.508   0.371 -0.1697  0.0688 -0.6457
  634SOL     OW 2533   2.668   3.073   0.592  1.2626 -0.2615 -0.2588
  634SOL    HW1 2534   2.678   3.168   0.570 -3.1331  1.0397 -0.3471
  634SOL    HW2 2535   2.667   3.029   0.508 -1.8518 -0.4772 -0.9554
  634SOL     MW 2536   2.669   3.080   0.578  0.2717 -0.1183 -0.3624
  635SOL     OW 2537   2.634   0.040   1.879 -0.2054 -0.9650 -0.1224
  635SOL    HW1 2538   2.700   0.009   1.809 -3.1337 -1.0967  0.7198
  635SOL    HW2 2539   2.659   0.128   1.907  2.4605  0.8869 -0.7510
  635SOL     MW 2540   2.646   0.047   1.874 -0.2400 -0.7380 -0.0942
  636SOL     OW 2541   2.706   1.700   0.749  0.3928 -0.1315  0.4266
  636SOL    HW1 2542   2.637   1.661   0.695  0.3978 -0.8550  0.0870
  636SOL    HW2 2543   2.670   1.764   0.811  1.6838  0.0215  0.4953
  636SOL     MW 2544   2.692   1.703   0.750  0.5638 -0.2068  0.3908
  637SOL     OW 2545   2.874   1.490   0.688  0.6744 -0.0484  0.0064
  637SOL    HW1 2546   2.903   1.564   0.631 -0.3952  0.3194 -0.3977
  637SOL    HW2 2547   2.794   1.533   0.724  1.9636 -1.5447  1.7971
  637SOL     MW 2548   2.867   1.506   0.685  0.7034 -0.1973  0.1893
  638SOL     OW 2549   2.834   0.536   0.535  0.3878  0.4208 -0.0165
  638SOL    HW1 2550   2.903   0.588   0.502 -1.5306  0.6578 -1.7942
  638SOL    HW2 2551   2.823   0.541   0.629  0.0045 -2.0639 -2.3160
  638SOL     MW 2552   2.841   0.543   0.543  0.0841  0.1242 -0.5544
  639SOL     OW 2553   1.791   3.071   0.549  0.2777  0.3991 -0.0881
  639SOL    HW1 2554   1.703   3.055   0.533  3.1251 -0.5169  1.5555
  639SOL    HW2 2555   1.829   3.015   0.486  4.6233  0.4232  1.4513
  639SOL     MW 2556   1.785   3.062   0.539  1.2268  0.2815  0.3319
  640SOL     OW 2557   0.287   1.428   0.095  0.0701 -0.1776 -0.1750
  640SOL    HW1 2558   0.291   1.424   0.002  4.1944  0.6540  2.8724
  640SOL    HW2 2559   0.307   1.337   0.125 -1.2368 -0.5295  1.1229
  640SOL     MW 2560   0.291   1.415   0.087  0.4418 -0.1143  0.3983
  641SOL     OW 2561   2.245   0.333   0.411  0.8685  0.0948  0.0171
  641SOL    HW1 2562   2.265   0.252   0.360 -0.3157 -0.7470 -0.5653
  641SOL    HW2 2563   2.299   0.316   0.484  0.2153  0.4853 -0.2438
  641SOL     MW 2564   2.254   0.320   0.414  0.6261  0.0352 -0.0941
  642SOL     OW 2565   0.080  -0.003   0.513  0.0501 -0.5016 -0.5662
  642SOL    HW1 2566   0.072   0.073   0.455 -2.1841  0.2476 -0.8855
  642SOL    HW2 2567  -0.008  -0.007   0.552 -1.0467 -1.2821 -4.3307
  642SOL     MW 2568   0.068   0.006   0.511 -0.3894 -0.5057 -1.1050
  643SOL     OW 2569   2.112   0.307   1.665  0.5769  0.0968  0.2593
  643SOL    HW1 2570   2.028   0.274   1.697 -0.2485  1.3980 -0.6313
  643SOL    HW2 2571   2.144   0.246   1.598  0.2440 -1.0403 -1.7523
  643SOL     MW 2572   2.105   0.295   1.660  0.4240  0.1184 -0.1236
  644SOL     OW 2573   2.665   1.885   0.949  0.9987 -0.4157 -0.4901
  644SOL    HW1 2574   2.669   1.829   1.028  2.1319 -0.7934 -1.5736
  644SOL    HW2 2575   2.592   1.950   0.948 -0.9916 -0.7457  0.4354
  644SOL     MW 2576   2.656   1.886   0.959  0.8856 -0.5091 -0.5110
  645SOL     OW 2577   2.788   0.912   0.779  0.1246  0.5707  0.9262
  645SOL    HW1 2578   2.864   0.857   0.800 -1.0790 -0.7523  0.5233
  645SOL    HW2 2579   2.725   0.903   0.853 -0.1168  1.4062 -0.1887
  645SOL     MW 2580   2.790   0.904   0.791 -0.0661  0.5064  0.7259
  646SOL     OW 2581   0.157   2.261   0.861 -0.7489  0.1403 -0.0247
  646SOL    HW1 2582   0.136   2.162   0.885  1.7271 -0.0634 -1.2883
  646SOL    HW2 2583   0.101   2.292   0.790 -0.6324 -0.6165  0.7216
  646SOL     MW 2584   0.147   2.252   0.855 -0.4068  0.0136 -0.0930
  647SOL     OW 2585   2.789   0.522   2.987  0.1506 -0.3110  0.0872
  647SOL    HW1 2586   2.723   0.457   3.006 -0.4100 -2.1685 -1.2705
  647SOL    HW2 2587   2.742   0.586   3.034 -0.3951 -1.5693 -1.4475
  647SOL     MW 2588   2.774   0.522   2.996  0.0046 -0.7221 -0.2944
  648SOL     OW 2589   2.191   0.638   1.131 -1.0215 -0.2964 -0.1790
  648SOL    HW1 2590   2.229   0.578   1.195 -1.8764  3.3120 -0.8358
  648SOL    HW2 2591   2.186   0.719   1.181  0.8504  0.3553 -0.0124
  648SOL     MW 2592   2.195   0.641   1.146 -0.8873  0.2657 -0.2437
  649SOL     OW 2593   2.394   2.705   1.304  0.1419 -0.1485  0.6960
  649SOL    HW1 2594   2.484   2.733   1.293 -2.0221  0.9830 -2.2059
  649SOL    HW2 2595   2.394   2.610   1.277  0.8997 -1.0194  1.0014
  649SOL     MW 2596   2.406   2.696   1.299 -0.0437 -0.1141  0.3534
  650SOL     OW 2597   2.740   0.255   0.534  0.0180 -0.3419 -0.7403
  650SOL    HW1 2598   2.763   0.346   0.546 -2.3889 -0.8623 -2.1570
  650SOL    HW2 2599   2.765   0.248   0.444  0.4138  0.5625  0.0960
  650SOL     MW 2600   2.746   0.266   0.524 -0.2473 -0.2912 -0.8169
  651SOL     OW 2601   0.043   0.439   1.004 -0.0365  0.0988 -0.3331
  651SOL    HW1 2602   0.070   0.510   0.940 -1.5922  0.2930  1.2367
  651SOL    HW2 2603  -0.039   0.477   1.042 -3.7890 -0.8661 -2.1673
  651SOL     MW 2604   0.036   0.453   1.000 -0.7369 -0.0029 -0.3680
  652SOL     OW 2605   2.398   1.446   2.988 -0.2287  0.0073 -0.6660
  652SOL    HW1 2606   2.462   1.501   2.943  0.9080 -0.7521 -1.4607
  652SOL    HW2 2607   2.313   1.496   2.999  0.0227  2.2319  2.5142
  652SOL     MW 2608   2.395   1.460   2.983 -0.0455  0.2006 -0.3513
  653SOL     OW 2609   1.841   0.342   0.237  0.4112 -0.0370 -0.7011
  653SOL    HW1 2610   1.834   0.264   0.181  2.8137  0.1670  2.2052
  653SOL    HW2 2611   1.913   0.390   0.196 -1.3522  1.4850  0.0461
  653SOL     MW 2612   1.850   0.338   0.224  0.4955  0.1907 -0.2191
  654SOL     OW 2613   2.431   0.995   0.758 -0.2814 -0.0180 -0.5167
  654SOL    HW1 2614   2.407   0.987   0.662  0.5671 -0.0886 -2.3619
  654SOL    HW2 2615   2.470   0.902   0.776 -1.6804 -2.9414 -0.3579
  654SOL     MW 2616   2.433   0.981   0.748 -0.3540 -0.4130 -0.7392
  655SOL     OW 2617   2.881   0.921   0.288 -0.0413  0.2693 -0.4340
  655SOL    HW1 2618   2.865   0.952   0.377 -0.9043 -0.2394  0.5096
  655SOL    HW2 2619   2.936   0.844   0.292 -0.8073  0.3248 -0.5053
  655SOL     MW 2620   2.886   0.915   0.300 -0.2562  0.2095 -0.3189
  656SOL     OW 2621   1.798   2.645   1.418 -0.1505  0.0178  0.1047
  656SOL    HW1 2622   1.816   2.722   1.366 -0.1281 -0.1956 -0.5888
  656SOL    HW2 2623   1.853   2.575   1.389 -2.3014  0.0233 -0.9178
  656SOL     MW 2624   1.807   2.646   1.408 -0.4313 -0.0097 -0.1217
  657SOL     OW 2625   0.068   1.781   1.130 -0.2558  0.2840 -0.2953
  657SOL    HW1 2626   0.158   1.799   1.135 -2.2293 -2.7796 -0.9347
  657SOL    HW2 2627   0.065   1.694   1.166 -0.4372 -0.7218 -2.1770
  657SOL     MW 2628   0.079   1.772   1.135 -0.5401 -0.2529 -0.6279
  658SOL     OW 2629   2.652   1.363   0.228 -0.3551 -0.4573 -0.1459
  658SOL    HW1 2630   2.666   1.280   0.275 -1.2445 -2.7131  0.8040
  658SOL    HW2 2631   2.679   1.424   0.295 -1.4046 -0.8114 -0.9155
  658SOL     MW 2632   2.657   1.360   0.243 -0.6109 -0.8016 -0.1221
  659SOL     OW 2633   2.127   1.434   1.029 -0.3869 -0.4547 -0.0035
  659SOL    HW1 2634   2.160   1.356   1.067  1.5213 -0.8641  0.9483
  659SOL    HW2 2635   2.072   1.472   1.100 -2.2421 -1.4031  0.9533
  659SOL     MW 2636   2.124   1.429   1.043 -0.3799 -0.6338  0.2483
  660SOL     OW 2637   2.095   1.549   1.600 -0.0574  0.7783 -0.5797
  660SOL    HW1 2638   2.106   1.586   1.687 -0.3958 -1.2220 -0.0964
  660SOL    HW2 2639   2.037   1.474   1.630 -0.1953  0.3280  2.1430
  660SOL     MW 2640   2.089   1.544   1.616 -0.1202  0.4550 -0.1567
  661SOL     OW 2641   2.409   0.987   0.249  0.1415  0.2658 -0.2795
  661SOL    HW1 2642   2.478   1.042   0.292 -0.3075 -1.5128  1.2383
  661SOL    HW2 2643   2.413   0.897   0.276  2.0772 -0.8342 -1.4295
  661SOL     MW 2644   2.419   0.982   0.258  0.3376 -0.1140 -0.2310
  662SOL     OW 2645   2.561   2.965   0.831 -0.4470  0.2233 -0.5874
  662SOL    HW1 2646   2.541   3.035   0.891 -1.7528 -0.4546  1.1458
  662SOL    HW2 2647   2.599   3.006   0.752 -2.7341 -2.1730  1.2436
  662SOL     MW 2648   2.564   2.979   0.828 -0.9210 -0.1823 -0.1172
  663SOL     OW 2649   2.710   1.553   0.405 -0.0135 -0.3018 -0.2845
  663SOL    HW1 2650   2.706   1.620   0.338 -1.5746  0.7576  1.6488
  663SOL    HW2 2651   2.793   1.576   0.449  2.1044  2.6699  3.7087
  663SOL     MW 2652   2.721   1.564   0.402  0.0599  0.2301  0.4974
  664SOL     OW 2653   2.547   1.455   1.523 -0.3774 -0.5872 -0.4123
  664SOL    HW1 2654   2.529   1.549   1.502  2.1832 -0.2153  1.5467
  664SOL    HW2 2655   2.461   1.417   1.526 -0.5002  0.2936  0.5398
  664SOL     MW 2656   2.533   1.462   1.521 -0.0558 -0.4219 -0.0282
  665SOL     OW 2657   2.856   0.807   2.106  0.4749 -0.6858  0.5048
  665SOL    HW1 2658   2.791   0.833   2.037 -0.5636  1.2238  1.8953
  665SOL    HW2 2659   2.924   0.761   2.057  0.3644 -1.0662  0.6062
  665SOL     MW 2660   2.856   0.804   2.091  0.3233 -0.4841  0.7016
  666SOL     OW 2661   2.793   3.004   1.695  0.9152 -0.1989  0.0483
  666SOL    HW1 2662   2.797   3.020   1.600  1.1448 -1.5366 -1.6761
  666SOL    HW2 2663   2.727   2.939   1.715 -0.4264 -0.0094  0.6725
  666SOL     MW 2664   2.785   2.997   1.685  0.7685 -0.3504 -0.0968
  667SOL     OW 2665   1.996   2.746   1.723  0.6518 -0.2753 -0.1406
  667SOL    HW1 2666   2.041   2.694   1.788 -3.7758 -0.4538 -1.5873
  667SOL    HW2 2667   2.056   2.822   1.708  0.6483 -0.8337 -0.3102
  667SOL     MW 2668   2.010   2.749   1.730  0.0671 -0.3726 -0.3539
  668SOL     OW 2669   2.774   0.559   0.837  0.3110 -0.2749  0.0809
  668SOL    HW1 2670   2.831   0.585   0.905 -2.8404  0.3103 -2.7301
  668SOL    HW2 2671   2.701   0.620   0.823  0.3768  0.2088 -1.8425
  668SOL     MW 2672   2.772   0.571   0.844 -0.0961 -0.1339 -0.5437
  669SOL     OW 2673   0.187   0.986   0.686 -0.5325  0.1775  0.0040
  669SOL    HW1 2674   0.154   1.019   0.769  1.5827  0.7582 -0.1204
  669SOL    HW2 2675   0.280   1.030   0.683 -0.8587  0.7678  0.4802
  669SOL     MW 2676   0.195   0.996   0.697 -0.2964  0.3320  0.0504
  670SOL     OW 2677   2.887   0.358   0.281  0.6248  0.0402  0.6236
  670SOL    HW1 2678   2.905   0.301   0.206  0.0312  0.7428 -1.0751
  670SOL    HW2 2679   2.941   0.436   0.259  2.0465  1.5251 -1.4693
  670SOL     MW 2680   2.896   0.361   0.268  0.7341  0.3288  0.1233
  671SOL     OW 2681   2.028   3.044   1.489  0.6746  0.3630 -0.0164
  671SOL    HW1 2682   1.967   3.013   1.418 -0.4291 -1.2058 -0.9270
  671SOL    HW2 2683   1.976   3.053   1.570 -2.5474  0.3838 -0.7324
  671SOL     MW 2684   2.013   3.041   1.490  0.1039  0.1588 -0.2310
  672SOL     OW 2685   1.842   1.766   1.295 -0.7325  0.1278  0.3602
  672SOL    HW1 2686   1.837   1.843   1.350 -3.5244 -2.5213 -2.0110
  672SOL    HW2 2687   1.871   1.796   1.208 -0.0927  2.3463 -2.5693
  672SOL     MW 2688   1.845   1.780   1.291 -1.0164  0.0710 -0.3391
  673SOL     OW 2689   2.799   1.072   0.553  0.0100  0.6587 -0.9604
  673SOL    HW1 2690   2.781   1.010   0.619  0.6014  1.6636 -2.7999
  673SOL    HW2 2691   2.876   1.106   0.593  1.7617 -1.9372  1.3410
  673SOL     MW 2692   2.807   1.068   0.567  0.3191  0.4487 -0.8994
  674SOL     OW 2693   2.473   3.097   1.214  0.3197 -0.3977 -0.4968
  674SOL    HW1 2694   2.410   3.117   1.141  0.2327  1.1100  0.7419
  674SOL    HW2 2695   2.417   3.054   1.280  0.1726  1.2335 -1.6235
  674SOL     MW 2696   2.457   3.094   1.213  0.2888  0.0164 -0.4820
  675SOL     OW 2697   3.012   0.892   1.090 -0.1547  0.0174  0.0193
  675SOL    HW1 2698   3.063   0.896   1.171 -3.5753 -0.7499  1.2185
  675SOL    HW2 2699   3.064   0.944   1.021 -0.2175 -4.5128 -1.3842
  675SOL     MW 2700   3.026   0.899   1.092 -0.6143 -0.6816 -0.0076
  676SOL     OW 2701   2.885   1.465   1.694  0.3609  0.3135 -0.0111
  676SOL    HW1 2702   2.878   1.381   1.641 -0.0291  1.1730  1.3033
  676SOL    HW2 2703   2.916   1.436   1.782 -2.4010 -1.2602 -3.4603
  676SOL     MW 2704   2.888   1.450   1.699 -0.0550  0.2193 -0.2927
  677SOL     OW 2705   2.478   0.652   1.927  0.0290  0.4556 -0.4566
  677SOL    HW1 2706   2.432   0.598   1.858  1.4071  1.4523 -0.2320
  677SOL    HW2 2707   2.405   0.700   1.968  2.8667  0.3447  0.3999
  677SOL     MW 2708   2.462   0.651   1.923  0.5853  0.5724 -0.3139
  678SOL     OW 2709   2.392   1.584   0.319 -0.2389 -0.2360 -0.0265
  678SOL    HW1 2710   2.317   1.596   0.382 -0.5112  1.5171  1.9199
  678SOL    HW2 2711   2.363   1.516   0.251 -1.9646  1.2989 -0.0507
  678SOL     MW 2712   2.378   1.577   0.318 -0.5025  0.1979  0.2271
  679SOL     OW 2713   2.279   0.415   1.278  0.2260 -0.1087  0.4498
  679SOL    HW1 2714   2.252   0.375   1.199  2.0383  1.5676 -0.7188
  679SOL    HW2 2715   2.201   0.415   1.342  2.5988 -0.1809  2.1693
  679SOL     MW 2716   2.265   0.410   1.276  0.7782  0.1029  0.5225
  680SOL     OW 2717   2.476   0.121   1.492 -0.4248  0.3272 -0.4794
  680SOL    HW1 2718   2.380   0.118   1.475  1.7162  2.2005 -1.8786
  680SOL    HW2 2719   2.515   0.067   1.416  1.2577 -0.0067  0.0710
  680SOL     MW 2720   2.469   0.114   1.480  0.0797  0.5303 -0.5914
  681SOL     OW 2721   0.225   0.625   1.469  0.0571  0.5525 -0.3859
  681SOL    HW1 2722   0.223   0.545   1.520 -1.0372 -1.2952 -0.9518
  681SOL    HW2 2723   0.215   0.587   1.379 -1.9566 -1.9609  2.1925
  681SOL     MW 2724   0.224   0.609   1.464 -0.3529 -0.0229 -0.1203
  682SOL     OW 2725   0.018   2.860   1.542 -0.6940  0.2643 -0.3398
  682SOL    HW1 2726   0.094   2.916   1.532 -2.8841  0.7986 -0.2925
  682SOL    HW2 2727  -0.012   2.910   1.620 -2.8192 -0.8214  3.6862
  682SOL     MW 2728   0.024   2.874   1.551 -1.2634  0.1916  0.1976
  683SOL     OW 2729   2.075   0.822   3.010 -0.0288  0.1953  0.3032
  683SOL    HW1 2730   2.017   0.764   3.059  0.5581 -1.6707  1.0523
  683SOL    HW2 2731   2.042   0.909   3.046  0.7392  1.8781 -1.0535
  683SOL     MW 2732   2.063   0.826   3.021  0.1500  0.1711  0.2230
  684SOL     OW 2733   2.048   1.758   0.656 -0.1183 -0.1798 -0.3119
  684SOL    HW1 2734   2.082   1.709   0.581  1.7579  1.5771  1.0895
  684SOL    HW2 2735   1.985   1.703   0.709  1.3860 -0.1402  0.2264
  684SOL     MW 2736   2.044   1.744   0.653  0.3277  0.0573 -0.0560
  685SOL     OW 2737   2.678   1.728   1.190 -0.4148  0.5714  0.1087
  685SOL    HW1 2738   2.724   1.689   1.263  1.5418 -2.8785 -1.7115
  685SOL    HW2 2739   2.624   1.664   1.150  1.7787  0.7852 -0.1073
  685SOL     MW 2740   2.677   1.714   1.195  0.1327  0.1444 -0.1599
  686SOL     OW 2741   2.857   0.663   1.614 -0.7098 -0.2109  0.0915
  686SOL    HW1 2742   2.858   0.616   1.694 -0.7459 -1.3822 -0.5210
  686SOL    HW2 2743   2.951   0.699   1.602  0.1853 -0.2155 -0.4864
  686SOL     MW 2744   2.870   0.661   1.623 -0.5965 -0.3660 -0.0656
  687SOL     OW 2745   2.100   0.170   1.137  0.0220 -0.3956 -0.5426
  687SOL    HW1 2746   2.139   0.134   1.054 -1.7868 -2.8329 -1.5272
  687SOL    HW2 2747   2.084   0.257   1.107  0.8876 -1.2288  1.0935
  687SOL     MW 2748   2.103   0.177   1.122 -0.1024 -0.8271 -0.4567
  688SOL     OW 2749   2.475   0.593   1.410  0.1580 -0.2386  0.0545
  688SOL    HW1 2750   2.454   0.517   1.355 -0.7104  0.2839 -1.9188
  688SOL    HW2 2751   2.399   0.612   1.468 -1.2073 -0.3091 -0.6242
  688SOL     MW 2752   2.463   0.585   1.410 -0.1367 -0.1790 -0.2954
  689SOL     OW 2753   2.512   0.743   3.001 -0.0889  0.2045  0.3022
  689SOL    HW1 2754   2.454   0.818   3.026 -0.5888 -0.4362  2.1842
  689SOL    HW2 2755   2.565   0.710   3.078  0.6136  1.1553  1.5109
  689SOL     MW 2756   2.511   0.749   3.014 -0.0622  0.2454  0.7100
  690SOL     OW 2757   2.040   0.896   1.850  0.0177  0.3167  0.3843
  690SOL    HW1 2758   2.022   0.807   1.887 -0.6876 -0.2671 -1.7995
  690SOL    HW2 2759   2.093   0.889   1.770  0.0598  3.5265  2.8037
  690SOL     MW 2760   2.044   0.883   1.844 -0.0698  0.6632  0.4154
  691SOL     OW 2761   2.431   0.299   0.878  0.3579 -0.1228 -0.0108
  691SOL    HW1 2762   2.517   0.312   0.920 -1.8191 -1.0057  1.2600
  691SOL    HW2 2763   2.391   0.388   0.878  0.5355  1.2973  1.7735
  691SOL     MW 2764   2.437   0.312   0.884  0.0941 -0.0519  0.3923
  692SOL     OW 2765   2.818   1.612   1.409 -0.6162  0.2748 -0.3344
  692SOL    HW1 2766   2.808   1.605   1.501 -1.5146  0.1373  0.1748
  692SOL    HW2 2767   2.860   1.701   1.404 -1.8881 -1.5623 -3.0846
  692SOL     MW 2768   2.823   1.623   1.420 -0.9025  0.0142 -0.6301
  693SOL     OW 2769   2.317   0.413   0.005 -0.4358  0.6739 -0.0210
  693SOL    HW1 2770   2.253   0.359  -0.029 -1.2986  0.5817 -2.2317
  693SOL    HW2 2771   2.276   0.472   0.072 -0.9679  0.2409 -1.3143
  693SOL     MW 2772   2.304   0.413   0.010 -0.6199  0.6046 -0.4833
  694SOL     OW 2773   1.921   1.186   1.197  0.3083 -0.3942  0.1696
  694SOL    HW1 2774   2.013   1.170   1.206 -1.4679 -1.3948  1.7269
  694SOL    HW2 2775   1.877   1.101   1.218  2.4735  1.9881 -1.4987
  694SOL     MW 2776   1.927   1.173   1.201  0.3596 -0.2119  0.1549
  695SOL     OW 2777   2.919   1.397   1.295 -0.7504  0.7412 -0.3964
  695SOL    HW1 2778   2.902   1.398   1.205  0.2004 -0.5544  1.8498
  695SOL    HW2 2779   2.882   1.480   1.333 -0.2972 -1.4082  0.6937
  695SOL     MW 2780   2.912   1.408   1.288 -0.5652  0.2867  0.0438
  696SOL     OW 2781   2.024   1.428   0.750  0.5389 -0.1503 -0.8674
  696SOL    HW1 2782   2.068   1.448   0.837 -2.5774 -0.1166  2.3704
  696SOL    HW2 2783   1.975   1.350   0.776  0.9623  0.1975 -0.4641
  696SOL     MW 2784   2.024   1.420   0.765  0.1836 -0.1000 -0.3870
  697SOL     OW 2785   2.927   1.062   2.214 -0.6388 -0.3830 -0.0283
  697SOL    HW1 2786   2.852   1.125   2.223 -2.1091  1.4599 -1.0469
  697SOL    HW2 2787   2.897   0.976   2.200 -0.1690 -1.1582  0.1564
  697SOL     MW 2788   2.913   1.059   2.214 -0.7708 -0.2422 -0.1383
  698SOL     OW 2789   2.586   0.369   3.058 -0.6593  0.9408 -0.0466
  698SOL    HW1 2790   2.498   0.402   3.070  0.1400 -1.0641  1.7627
  698SOL    HW2 2791   2.608   0.340   3.151  1.2293  2.2781 -2.2029
  698SOL     MW 2792   2.578   0.369   3.072 -0.3047  0.8527 -0.0924
  699SOL     OW 2793   1.881   1.614   2.053 -0.5061  0.3087 -0.4824
  699SOL    HW1 2794   1.805   1.556   2.038 -0.9878 -2.2245  2.0539
  699SOL    HW2 2795   1.963   1.566   2.037 -1.2530 -0.4209  0.6462
  699SOL     MW 2796   1.882   1.600   2.049 -0.6682 -0.1218  0.0012
  700SOL     OW 2797   2.678   0.868   1.600  0.4185  0.3106  0.2653
  700SOL    HW1 2798   2.730   0.916   1.530  1.7250 -0.8327 -1.3647
  700SOL    HW2 2799   2.734   0.792   1.602  1.6911  0.4156 -0.6156
  700SOL     MW 2800   2.692   0.864   1.591  0.7588  0.1736 -0.0660
  701SOL     OW 2801   1.684   1.082   2.516 -0.2252 -0.5043  0.3474
  701SOL    HW1 2802   1.736   1.002   2.539  1.1509 -1.5870 -0.9063
  701SOL    HW2 2803   1.657   1.135   2.592 -2.9071  0.0399  0.1960
  701SOL     MW 2804   1.687   1.079   2.529 -0.3975 -0.5753  0.1620
  702SOL     OW 2805   2.071   0.469   0.679 -0.3745 -0.2846 -0.4864
  702SOL    HW1 2806   2.091   0.374   0.661 -1.2322  1.8079 -1.0627
  702SOL    HW2 2807   2.139   0.525   0.645 -0.5445  0.7653  1.8450
  702SOL     MW 2808   2.083   0.464   0.672 -0.5101  0.1300 -0.2548
  703SOL     OW 2809   2.705   1.260   0.968 -0.2006 -0.0829  0.4141
  703SOL    HW1 2810   2.646   1.255   0.894  1.4005 -1.6191  0.6010
  703SOL    HW2 2811   2.696   1.172   0.999 -2.4455 -1.0130 -0.6608
  703SOL     MW 2812   2.696   1.248   0.963 -0.2855 -0.4083  0.2969
  704SOL     OW 2813   3.077   1.257   0.136 -0.0981 -0.1174  0.3550
  704SOL    HW1 2814   2.987   1.256   0.105 -1.9187 -0.3378  1.3450
  704SOL    HW2 2815   3.068   1.244   0.230 -0.5427  3.1042 -0.4037
  704SOL     MW 2816   3.064   1.255   0.144 -0.3969  0.2786  0.3855
  705SOL     OW 2817   2.043   1.556   1.300 -0.2321  0.6558 -0.1612
  705SOL    HW1 2818   1.984   1.630   1.299 -0.5980 -0.9035  2.1717
  705SOL    HW2 2819   2.083   1.547   1.388 -0.4448  0.2531  1.4728
  705SOL     MW 2820   2.040   1.564   1.312 -0.3084  0.3970  0.3622
  706SOL     OW 2821   3.001   1.221   0.704 -0.0326 -0.1318  0.0442
  706SOL    HW1 2822   3.073   1.234   0.644 -1.1950 -1.3967  0.8413
  706SOL    HW2 2823   2.943   1.300   0.695 -0.9037  0.3205  1.3418
  706SOL     MW 2824   3.003   1.233   0.695 -0.3009 -0.2390  0.3205
  707SOL     OW 2825   2.359   0.042   0.976 -0.2352  0.3268  0.1481
  707SOL    HW1 2826   2.386   0.135   0.951  1.2117  2.6116 -2.7885
  707SOL    HW2 2827   2.295   0.012   0.909  0.7707 -0.8083  1.4912
  707SOL     MW 2828   2.354   0.050   0.964  0.0884  0.4785 -0.0622
  708SOL     OW 2829   2.386   1.376   0.148  0.2949  0.3386 -0.7596
  708SOL    HW1 2830   2.475   1.361   0.180 -1.2863 -1.3130  0.0215
  708SOL    HW2 2831   2.399   1.387   0.051  0.7482  0.7229  0.8413
  708SOL     MW 2832   2.400   1.375   0.139  0.1461  0.1714 -0.4453
  709SOL     OW 2833   1.722   1.643   0.201 -0.5299 -0.2556  0.2280
  709SOL    HW1 2834   1.723   1.638   0.104 -0.6123  0.4852 -0.7626
  709SOL    HW2 2835   1.641   1.608   0.225  0.0375  0.4688 -2.8758
  709SOL     MW 2836   1.711   1.638   0.191 -0.4659 -0.0623 -0.3122
  710SOL     OW 2837   2.177   1.171   1.181  0.2302 -0.0161 -0.4735
  710SOL    HW1 2838   2.193   1.109   1.102 -2.3476  0.7739 -1.6907
  710SOL    HW2 2839   2.221   1.118   1.253  1.9305 -1.9438  1.2296
  710SOL     MW 2840   2.185   1.156   1.180  0.1144 -0.1662 -0.4094
  711SOL     OW 2841   2.393   0.117   1.785 -0.0541 -0.4853  0.0731
  711SOL    HW1 2842   2.480   0.086   1.818 -1.3319  1.9749  3.6400
  711SOL    HW2 2843   2.413   0.133   1.690 -2.8668 -1.5705  0.0414
  711SOL     MW 2844   2.407   0.115   1.777 -0.5938 -0.3039  0.5395
  712SOL     OW 2845   1.886   0.600   3.087 -0.2027  0.1190 -0.6333
  712SOL    HW1 2846   1.837   0.646   3.019  0.7428 -0.5778  3.6839
  712SOL    HW2 2847   1.845   0.629   3.170 -1.9914  0.7169  0.1955
  712SOL     MW 2848   1.875   0.610   3.089 -0.3139  0.1059  0.0456
  713SOL     OW 2849   2.534   0.683   1.106  0.6513 -0.2984  0.5522
  713SOL    HW1 2850   2.563   0.600   1.129  0.3257  1.8813  0.1304
  713SOL    HW2 2851   2.489   0.723   1.179 -0.1220  1.6462  0.0207
  713SOL     MW 2852   2.532   0.677   1.119  0.5063  0.2457  0.4264
  714SOL     OW 2853   2.225   0.193   2.006  0.0280  0.7903  0.2177
  714SOL    HW1 2854   2.279   0.140   2.062 -0.4101  1.2996  1.8931
  714SOL    HW2 2855   2.250   0.154   1.924  2.6903 -1.0283  1.1215
  714SOL     MW 2856   2.236   0.181   2.003  0.3215  0.6175  0.5580
  715SOL     OW 2857   1.825   2.008   1.733  0.4943 -0.1318 -0.6669
  715SOL    HW1 2858   1.919   2.015   1.727 -2.4997  0.2810  0.8233
  715SOL    HW2 2859   1.815   1.917   1.770 -0.9190 -0.1860  2.6975
  715SOL     MW 2860   1.836   1.997   1.737 -0.0872 -0.0845 -0.0264
  716SOL     OW 2861   2.436   0.563   0.684  0.2736  0.0348  0.5845
  716SOL    HW1 2862   2.472   0.484   0.637  1.9984 -1.1095 -1.0117
  716SOL    HW2 2863   2.367   0.596   0.632  3.1053 -0.1100  1.3140
  716SOL     MW 2864   2.431   0.557   0.671  0.8748 -0.1353  0.4702
  717SOL     OW 2865   2.825   1.622   2.827 -0.7912  0.3409 -0.1870
  717SOL    HW1 2866   2.913   1.593   2.846  1.0519  0.0914  2.2079
  717SOL    HW2 2867   2.797   1.688   2.896  2.4302  1.1612 -0.5996
  717SOL     MW 2868   2.833   1.627   2.839 -0.1230  0.4162  0.0745
  718SOL     OW 2869   2.655   1.345   1.270  0.1652 -0.0078  0.2791
  718SOL    HW1 2870   2.619   1.392   1.349 -0.6963  0.4931  2.7770
  718SOL    HW2 2871   2.749   1.330   1.296  1.3172  0.1504  1.5860
  718SOL     MW 2872   2.663   1.349   1.284  0.2036  0.0792  0.7811
  719SOL     OW 2873   2.203   1.286   0.563 -0.0851 -0.0220 -0.1190
  719SOL    HW1 2874   2.287   1.333   0.561  1.1832 -2.1496 -0.7708
  719SOL    HW2 2875   2.143   1.324   0.628 -1.8522 -4.3916  0.7964
  719SOL     MW 2876   2.206   1.297   0.572 -0.1509 -0.8793 -0.0842
  720SOL     OW 2877   2.806   1.281   0.021 -0.2747  0.3273 -0.3559
  720SOL    HW1 2878   2.788   1.189   0.041  1.0398 -1.1296  0.3956
  720SOL    HW2 2879   2.755   1.326   0.088 -1.3301 -1.7526  2.0767
  720SOL     MW 2880   2.797   1.275   0.032 -0.2405 -0.1393  0.0642
  721SOL     OW 2881   2.541   0.837   1.362  0.4037  0.2968 -0.4802
  721SOL    HW1 2882   2.531   0.741   1.390  2.1572 -2.4564 -1.4707
  721SOL    HW2 2883   2.596   0.872   1.438 -3.0072  0.8456  0.7967
  721SOL     MW 2884   2.547   0.829   1.376  0.1850  0.0059 -0.4424
  722SOL     OW 2885   2.582   1.140   0.378  0.0358  0.4693 -0.0149
  722SOL    HW1 2886   2.528   1.212   0.409  1.4725 -0.2727  1.1797
  722SOL    HW2 2887   2.654   1.142   0.439  0.5922  0.5240  1.6053
  722SOL     MW 2888   2.584   1.149   0.390  0.2987  0.3786  0.3564
  723SOL     OW 2889   2.266   1.353   1.548  0.5719 -0.2920  0.0450
  723SOL    HW1 2890   2.279   1.381   1.457 -4.2137 -1.4577  1.3002
  723SOL    HW2 2891   2.235   1.436   1.593 -1.3540  0.1731  2.8896
  723SOL     MW 2892   2.264   1.367   1.542 -0.3136 -0.3845  0.5859
  724SOL     OW 2893   2.486   0.301   0.612 -0.7017 -0.3729  0.1933
  724SOL    HW1 2894   2.466   0.275   0.701 -0.7753 -1.7956 -1.2556
  724SOL    HW2 2895   2.574   0.272   0.595 -1.7144 -1.4311 -0.7039
  724SOL     MW 2896   2.495   0.294   0.622 -0.8450 -0.7002 -0.1162
  725SOL     OW 2897   2.610   0.419   1.228  0.1404  0.0989 -0.5224
  725SOL    HW1 2898   2.672   0.476   1.277 -2.5443 -0.2497 -0.6067
  725SOL    HW2 2899   2.603   0.342   1.288 -0.5793 -0.9019  0.8194
  725SOL     MW 2900   2.617   0.416   1.242 -0.3088 -0.0791 -0.3564
  726SOL     OW 2901   2.500   2.507   0.446  0.2719 -0.2106 -0.6930
  726SOL    HW1 2902   2.484   2.591   0.402  0.9529 -0.8320 -0.6835
  726SOL    HW2 2903   2.482   2.519   0.544 -0.8174 -1.4727  0.4898
  726SOL     MW 2904   2.495   2.520   0.453  0.2180 -0.4591 -0.5357
  727SOL     OW 2905   2.868   0.295   1.737 -0.1292  0.1115  0.4814
  727SOL    HW1 2906   2.811   0.268   1.666 -0.4406  2.2924  0.6374
  727SOL    HW2 2907   2.845   0.248   1.810 -0.1318  0.7848 -0.5396
  727SOL     MW 2908   2.857   0.286   1.737 -0.1706  0.4881  0.3673
  728SOL     OW 2909   2.840   1.170   2.857 -0.0910 -0.0890  0.0735
  728SOL    HW1 2910   2.838   1.221   2.778 -1.6829 -1.2031  3.1247
  728SOL    HW2 2911   2.846   1.241   2.923 -0.2989  0.3878  0.1077
  728SOL     MW 2912   2.840   1.186   2.855 -0.3285 -0.1731  0.4806
  729SOL     OW 2913   2.516   1.518   1.095 -0.0136  0.2329 -0.7229
  729SOL    HW1 2914   2.567   1.449   1.143  3.6135  0.4496 -3.0676
  729SOL    HW2 2915   2.481   1.475   1.021  0.2074 -1.5942  0.9483
  729SOL     MW 2916   2.518   1.504   1.092  0.4941  0.0204 -0.8118
  730SOL     OW 2917   2.226   1.183   0.184 -0.2329  0.3532 -0.3395
  730SOL    HW1 2918   2.273   1.110   0.215  1.6493  1.9109 -1.1137
  730SOL    HW2 2919   2.293   1.253   0.166 -0.4526  1.3051  1.1208
  730SOL     MW 2920   2.241   1.182   0.186 -0.0135  0.6843 -0.2490
  731SOL     OW 2921   2.756   2.050   2.881  0.0041 -0.8239 -0.1257
  731SOL    HW1 2922   2.699   2.019   2.814 -1.2681  1.8348  1.6689
  731SOL    HW2 2923   2.839   2.039   2.836  1.7999  1.0284  2.9793
  731SOL     MW 2924   2.759   2.044   2.867  0.0732 -0.2287  0.5208
  732SOL     OW 2925   2.286   0.970   1.371  0.6438 -0.3927  0.0788
  732SOL    HW1 2926   2.249   0.935   1.456  3.3602 -1.9210 -1.0387
  732SOL    HW2 2927   2.373   0.934   1.371  2.8235  1.7868 -1.0287
  732SOL     MW 2928   2.293   0.961   1.382  1.2898 -0.3068 -0.2148
  733SOL     OW 2929   2.393   2.747   3.000  0.0514 -0.8752 -0.3053
  733SOL    HW1 2930   2.318   2.785   3.046  3.4763  0.4310  0.7316
  733SOL    HW2 2931   2.363   2.653   2.986 -0.9497 -0.1803 -1.0453
  733SOL     MW 2932   2.379   2.739   3.005  0.3712 -0.6112 -0.2661
  734SOL     OW 2933   1.524   0.277   2.528 -0.5758 -0.0820 -0.6339
  734SOL    HW1 2934   1.469   0.248   2.598  0.1599 -0.0874  0.2852
  734SOL    HW2 2935   1.489   0.236   2.451 -4.2545  1.4814 -0.3978
  734SOL     MW 2936   1.512   0.268   2.527 -0.9641  0.1236 -0.4815
  735SOL     OW 2937   2.992   0.898   2.681  0.3606 -0.4831 -0.6248
  735SOL    HW1 2938   2.973   0.801   2.673  1.1141 -2.8189 -1.8940
  735SOL    HW2 2939   3.012   0.912   2.773 -0.3550  0.3066 -0.7679
  735SOL     MW 2940   2.992   0.887   2.692  0.3656 -0.6871 -0.8111
  736SOL     OW 2941   0.134   0.571   2.564 -0.1756 -0.4242 -0.5032
  736SOL    HW1 2942   0.144   0.639   2.490  0.7456  0.1292 -0.3262
  736SOL    HW2 2943   0.166   0.489   2.535  0.4828  0.8718  1.8528
  736SOL     MW 2944   0.139   0.569   2.551  0.0328 -0.1802 -0.1690
  737SOL     OW 2945   2.970   0.631   2.668 -0.0988 -0.8075  0.1710
  737SOL    HW1 2946   2.909   0.637   2.590 -1.9790 -0.3836  0.3991
  737SOL    HW2 2947   3.052   0.614   2.633 -1.7356  1.2238 -0.8646
  737SOL     MW 2948   2.972   0.630   2.653 -0.5628 -0.4836  0.0644
  738SOL     OW 2949   0.118   0.459   1.871  0.1494 -0.4345 -0.3096
  738SOL    HW1 2950   0.208   0.488   1.851  0.0364 -0.7872 -1.0056
  738SOL    HW2 2951   0.088   0.435   1.784  0.6011 -1.5520  1.8882
  738SOL     MW 2952   0.125   0.460   1.857  0.1941 -0.6285 -0.1114
  739SOL     OW 2953   2.470   0.987   2.122  0.3713 -0.3270 -0.5519
  739SOL    HW1 2954   2.429   0.966   2.042  1.2397  1.1438  3.6319
  739SOL    HW2 2955   2.525   1.062   2.111 -0.0896  0.5992  0.5942
  739SOL     MW 2956   2.471   0.994   2.110  0.4251 -0.0107  0.1513
  740SOL     OW 2957   0.118   1.800   2.936 -0.2190 -0.6311  0.8859
  740SOL    HW1 2958   0.101   1.704   2.919 -0.7663 -2.2281  0.7223
  740SOL    HW2 2959   0.210   1.814   2.955 -1.7989 -0.2835  0.1799
  740SOL     MW 2960   0.128   1.789   2.936 -0.4997 -0.7959  0.7711
  741SOL     OW 2961   2.190   1.141   2.708  0.2570  0.3339  0.1366
  741SOL    HW1 2962   2.149   1.218   2.677  2.2136 -3.4110  0.1748
  741SOL    HW2 2963   2.194   1.160   2.808 -0.5571 -0.2173 -1.0874
  741SOL     MW 2964   2.185   1.154   2.717  0.4077 -0.2329 -0.0199
  742SOL     OW 2965   1.614   1.231   2.265 -0.9031  0.1673  0.0559
  742SOL    HW1 2966   1.534   1.185   2.242  1.0829 -2.3919  3.0965
  742SOL    HW2 2967   1.611   1.218   2.357  0.1525  1.7258 -0.7765
  742SOL     MW 2968   1.603   1.223   2.274 -0.5018  0.0353  0.3473
  743SOL     OW 2969   2.496   1.238   2.725  0.0240 -0.1434  0.3971
  743SOL    HW1 2970   2.402   1.234   2.722 -2.9468 -0.2330  1.8756
  743SOL    HW2 2971   2.528   1.153   2.765  2.2193 -1.7852 -2.5843
  743SOL     MW 2972   2.488   1.226   2.730 -0.0783 -0.3718  0.1988
  744SOL     OW 2973   2.669   0.864   1.897 -0.4066  0.4169 -0.0455
  744SOL    HW1 2974   2.658   0.959   1.890 -1.2635 -0.5113 -0.1701
  744SOL    HW2 2975   2.612   0.830   1.831 -2.6872 -1.1616  1.6625
  744SOL     MW 2976   2.660   0.872   1.887 -0.8206  0.0862  0.1634
  745SOL     OW 2977   1.670   0.492   2.488 -0.1125  0.1372  0.6627
  745SOL    HW1 2978   1.690   0.498   2.391  0.7297  0.5083  0.2982
  745SOL    HW2 2979   1.620   0.411   2.505 -0.2689 -0.3739 -1.9571
  745SOL     MW 2980   1.666   0.482   2.477 -0.0220  0.1187  0.2690
  746SOL     OW 2981   1.633   1.441   1.655 -0.1476  0.3291 -0.3636
  746SOL    HW1 2982   1.731   1.423   1.648  1.0811  1.7879  2.9660
  746SOL    HW2 2983   1.627   1.442   1.753  0.7514 -1.6480 -2.1122
  746SOL     MW 2984   1.645   1.439   1.667  0.1331  0.2607 -0.1550
  747SOL     OW 2985   2.621   1.121   1.820 -0.2926 -0.6930  0.0501
  747SOL    HW1 2986   2.529   1.108   1.782 -1.7587 -0.2156  1.8954
  747SOL    HW2 2987   2.611   1.205   1.871 -0.4344  1.5683 -2.1395
  747SOL     MW 2988   2.608   1.130   1.821 -0.5048 -0.3317  0.0047
  748SOL     OW 2989   0.054   0.094   1.906 -0.0335  0.6514  0.3267
  748SOL    HW1 2990   0.120   0.166   1.880  1.9306  1.2564 -1.1795
  748SOL    HW2 2991   0.008   0.127   1.986  1.6745  1.0201 -1.4963
  748SOL     MW 2992   0.056   0.108   1.913  0.4510  0.7799 -0.1125
  749SOL     OW 2993   2.537   0.608   2.758  0.3377 -0.8643  0.4324
  749SOL    HW1 2994   2.568   0.669   2.690  1.2770 -0.8615  2.5060
  749SOL    HW2 2995   2.536   0.656   2.846 -0.1016 -1.2868 -0.1498
  749SOL     MW 2996   2.541   0.622   2.761  0.4036 -0.9197  0.6292
  750SOL     OW 2997   2.023   3.076   1.990 -0.3105  0.0954 -0.1560
  750SOL    HW1 2998   2.073   3.155   2.010 -0.5559 -0.9235  0.9247
  750SOL    HW2 2999   2.088   3.001   1.983 -2.2534  0.2543  0.9092
  750SOL     MW 3000   2.038   3.076   1.992 -0.5992 -0.0181  0.1271
  751SOL     OW 3001   0.258   0.306   2.436  0.9035  0.2844 -0.2754
  751SOL    HW1 3002   0.207   0.236   2.473  2.8967  1.3598 -2.7797
  751SOL    HW2 3003   0.254   0.282   2.342  3.7864  1.4113 -1.8489
  751SOL     MW 3004   0.251   0.294   2.428  1.5469  0.5750 -0.8134
  752SOL     OW 3005   2.136   0.802   2.720  0.2785  0.1886 -0.2755
  752SOL    HW1 3006   2.217   0.843   2.685  1.0111 -0.3720  1.4611
  752SOL    HW2 3007   2.127   0.839   2.810  0.7188 -2.2496  1.2153
  752SOL     MW 3008   2.145   0.812   2.727  0.4333 -0.2071  0.1503
  753SOL     OW 3009   2.823   0.194   2.400 -0.5549 -0.0105  0.6235
  753SOL    HW1 3010   2.814   0.098   2.379 -0.6937 -1.5854 -0.8634
  753SOL    HW2 3011   2.780   0.243   2.331 -1.6846 -0.3570  1.0334
  753SOL     MW 3012   2.816   0.188   2.388 -0.7223 -0.2640  0.4814
  754SOL     OW 3013   2.227   2.951   2.588 -0.0147 -0.5746  0.1079
  754SOL    HW1 3014   2.261   2.980   2.503 -0.1775 -0.0651  0.1057
  754SOL    HW2 3015   2.299   2.910   2.638  2.7350  2.3866 -0.7528
  754SOL     MW 3016   2.241   2.949   2.583  0.3267 -0.1167 -0.0060
  755SOL     OW 3017   2.729   1.531   2.410  0.4490 -0.2641 -0.9987
  755SOL    HW1 3018   2.720   1.464   2.480  1.1231  1.3966  1.7149
  755SOL    HW2 3019   2.767   1.610   2.462 -0.9809  1.8905 -0.1587
  755SOL     MW 3020   2.733   1.533   2.426  0.3493  0.2393 -0.5298
  756SOL     OW 3021   2.207   1.203   2.967  0.3537 -0.4195  0.1683
  756SOL    HW1 3022   2.272   1.271   2.975 -0.2165 -1.9111  0.9176
  756SOL    HW2 3023   2.245   1.133   3.019 -0.1011  0.1515 -3.2669
  756SOL     MW 3024   2.220   1.202   2.974  0.2185 -0.5410 -0.1861
  757SOL     OW 3025   2.170   0.895   1.599  0.1913 -0.0621 -0.0862
  757SOL    HW1 3026   2.188   0.802   1.593 -2.0437  1.0555 -0.8238
  757SOL    HW2 3027   2.086   0.896   1.544 -1.7350  0.2505 -2.0423
  757SOL     MW 3028   2.161   0.883   1.591 -0.3577  0.1266 -0.4416
  758SOL     OW 3029   2.199   1.861   2.620  0.1601 -0.3428  0.1349
  758SOL    HW1 3030   2.169   1.883   2.535 -1.0447 -2.7890  2.3005
  758SOL    HW2 3031   2.285   1.825   2.605  0.0355  1.1401 -2.1464
  758SOL     MW 3032   2.206   1.859   2.607 -0.0153 -0.4699  0.1197
  759SOL     OW 3033   1.534   1.279   2.697 -0.0664  0.4003  0.1475
  759SOL    HW1 3034   1.518   1.354   2.636  1.1476 -0.9958  2.4306
  759SOL    HW2 3035   1.579   1.322   2.774 -0.6954  0.1359  1.1316
  759SOL     MW 3036   1.538   1.295   2.699  0.0108  0.1812  0.5785
  760SOL     OW 3037   2.513   1.983   2.735  0.7637  0.0458 -0.1632
  760SOL    HW1 3038   2.516   1.898   2.689  0.1769 -3.0124  1.3458
  760SOL    HW2 3039   2.532   2.050   2.669  0.0689  2.0460  2.4115
  760SOL     MW 3040   2.516   1.981   2.720  0.5946 -0.0938  0.3756
  761SOL     OW 3041   2.162   0.411   2.550  0.2306  0.1309  0.5807
  761SOL    HW1 3042   2.087   0.355   2.582 -0.8774  1.7864 -0.0908
  761SOL    HW2 3043   2.202   0.443   2.636  3.7774 -0.4351 -0.2463
  761SOL     MW 3044   2.157   0.408   2.565  0.5524  0.2746  0.3830
  762SOL     OW 3045   3.048   0.196   2.146  0.5991 -0.1162 -0.2738
  762SOL    HW1 3046   3.084   0.133   2.208  0.5998  2.6493 -0.6775
  762SOL    HW2 3047   3.026   0.273   2.207  0.4219  0.8516 -0.8552
  762SOL     MW 3048   3.050   0.198   2.162  0.5758  0.3764 -0.4038
  763SOL     OW 3049   2.333   1.026   2.332 -0.1266 -0.3575 -0.0525
  763SOL    HW1 3050   2.399   0.986   2.274 -0.2242 -0.7080  0.8452
  763SOL    HW2 3051   2.379   1.095   2.390  0.9124  3.8337  0.8337
  763SOL     MW 3052   2.348   1.030   2.332 -0.0024  0.1492  0.1829
  764SOL     OW 3053   0.450   0.270   2.817 -0.4117  0.2695  0.3126
  764SOL    HW1 3054   0.360   0.233   2.819 -0.4589  0.8085 -2.2880
  764SOL    HW2 3055   0.448   0.353   2.863 -2.0278  0.4437 -0.1217
  764SOL     MW 3056   0.438   0.276   2.824 -0.6311  0.3636 -0.0878
  765SOL     OW 3057   2.738   3.023   2.362 -0.6552 -0.6161  0.0321
  765SOL    HW1 3058   2.694   3.031   2.279  3.3621  0.7334 -0.2925
  765SOL    HW2 3059   2.822   2.980   2.331  1.2401  0.0665  0.7132
  765SOL     MW 3060   2.744   3.019   2.347  0.1249 -0.3480  0.0791
  766SOL     OW 3061   1.872   2.947   2.179 -0.1372 -0.4015 -0.0872
  766SOL    HW1 3062   1.917   3.010   2.120  1.7400 -2.0153 -1.4527
  766SOL    HW2 3063   1.812   2.890   2.130  0.4518  0.2562  1.0664
  766SOL     MW 3064   1.870   2.948   2.165  0.1882 -0.5276 -0.1151
  767SOL     OW 3065   2.687   0.578   2.094 -0.7492  0.8827  0.0320
  767SOL    HW1 3066   2.709   0.671   2.105  1.3698  0.5425  0.0044
  767SOL    HW2 3067   2.602   0.597   2.053 -0.7071 -1.1086 -2.5625
  767SOL     MW 3068   2.679   0.593   2.090 -0.4641  0.5751 -0.3140
  768SOL     OW 3069   3.076   1.549   2.904 -0.2231  0.0227 -0.6436
  768SOL    HW1 3070   3.065   1.526   3.003 -0.6413  0.0172  4.4857
  768SOL    HW2 3071   3.147   1.484   2.864 -0.7527  1.2508  1.0765
  768SOL     MW 3072   3.084   1.538   2.912 -0.3482  0.1840  0.2601
  769SOL     OW 3073   2.474   0.691   2.367  0.1607 -0.5627 -0.2965
  769SOL    HW1 3074   2.402   0.634   2.356  0.6693  2.0308  0.4048
  769SOL    HW2 3075   2.539   0.673   2.300  0.2713  1.8216 -0.9384
  769SOL     MW 3076   2.473   0.681   2.357  0.2424  0.0940 -0.2886
  770SOL     OW 3077   3.104   1.635   2.561  0.3883 -0.2908 -0.3931
  770SOL    HW1 3078   3.033   1.705   2.570 -0.2835  4.6483  0.3594
  770SOL    HW2 3079   3.067   1.555   2.531 -4.2180  3.7116 -2.1375
  770SOL     MW 3080   3.090   1.633   2.558 -0.3081  0.8889 -0.5240
  771SOL     OW 3081   3.054   0.602   2.028 -0.3539  0.3133 -0.9993
  771SOL    HW1 3082   2.974   0.579   1.975 -1.5177 -2.8925 -1.0858
  771SOL    HW2 3083   3.118   0.540   1.980  1.6370 -0.5016 -2.5773
  771SOL     MW 3084   3.052   0.590   2.015 -0.2448 -0.2172 -1.2190
  772SOL     OW 3085   0.059   0.008   2.301  0.2188 -0.5590  0.3470
  772SOL    HW1 3086   0.001  -0.066   2.307 -1.4857  0.0760 -1.8705
  772SOL    HW2 3087   0.138  -0.033   2.266 -2.8616 -1.8546 -0.4938
  772SOL     MW 3088   0.061  -0.008   2.297 -0.4125 -0.6461 -0.0565
  773SOL     OW 3089   2.432   2.850   2.747  0.4027 -0.4185 -0.0515
  773SOL    HW1 3090   2.456   2.778   2.690  0.4404 -1.1540 -0.8785
  773SOL    HW2 3091   2.410   2.811   2.832 -2.0567 -2.0964  1.2255
  773SOL     MW 3092   2.432   2.835   2.751  0.0831 -0.7369  0.0079
  774SOL     OW 3093   2.364   1.153   1.736  0.3627 -0.1207  0.1092
  774SOL    HW1 3094   2.328   1.199   1.662 -1.6023 -0.5909 -0.0026
  774SOL    HW2 3095   2.333   1.062   1.716  0.1565 -2.1508 -0.1218
  774SOL     MW 3096   2.355   1.147   1.724  0.0762 -0.4506  0.0640
  775SOL     OW 3097   2.324   2.916   2.326 -0.2199  0.5457  0.1285
  775SOL    HW1 3098   2.344   3.002   2.278 -0.9599  2.1747 -0.1377
  775SOL    HW2 3099   2.404   2.875   2.320 -0.3611  3.4443 -0.8586
  775SOL     MW 3100   2.338   2.922   2.319 -0.3361  1.1430 -0.0369
  776SOL     OW 3101   0.036   1.528   0.100  0.1472  0.1733  0.0296
  776SOL    HW1 3102   0.128   1.510   0.104  0.1337  0.9116 -1.1014
  776SOL    HW2 3103   0.001   1.443   0.117 -1.5373  3.7301 -0.5332
  776SOL     MW 3104   0.044   1.515   0.103 -0.0768  0.7400 -0.1939
  777SOL     OW 3105   2.970   1.003   1.747 -0.2372 -0.5376 -0.0081
  777SOL    HW1 3106   2.924   1.092   1.740 -1.4617 -0.8231  1.4342
  777SOL    HW2 3107   2.905   0.955   1.801 -0.8334 -0.2711 -0.1484
  777SOL     MW 3108   2.955   1.008   1.753 -0.4774 -0.5401  0.1637
  778SOL     OW 3109   2.888   0.406   2.770  0.0552 -0.4448  0.0159
  778SOL    HW1 3110   2.847   0.437   2.856  0.2485 -1.1351 -0.0167
  778SOL    HW2 3111   2.916   0.492   2.736 -0.1001 -1.5727  2.6113
  778SOL     MW 3112   2.886   0.421   2.777  0.0602 -0.6847  0.3540
  779SOL     OW 3113   2.112   0.559   2.313 -0.1912 -0.5379  0.2010
  779SOL    HW1 3114   2.064   0.621   2.356  1.5877 -0.8416 -3.6775
  779SOL    HW2 3115   2.127   0.498   2.379 -1.5950  2.7247 -0.4457
  779SOL     MW 3116   2.108   0.559   2.328 -0.1417 -0.1475 -0.3960
  780SOL     OW 3117   0.193   0.122   2.836 -0.5655 -0.3641  0.1228
  780SOL    HW1 3118   0.128   0.172   2.888 -0.1459  1.4421  0.6803
  780SOL    HW2 3119   0.148   0.129   2.750 -2.3402  0.4878  1.7365
  780SOL     MW 3120   0.178   0.130   2.832 -0.7443 -0.0134  0.4093
  781SOL     OW 3121   3.059   1.359   2.479 -0.2493  0.7236 -0.7221
  781SOL    HW1 3122   3.068   1.379   2.386 -0.3580  0.7966 -1.5028
  781SOL    HW2 3123   3.114   1.285   2.491 -0.4323 -2.7811  0.6102
  781SOL     MW 3124   3.068   1.352   2.468 -0.2878  0.2708 -0.6494
  782SOL     OW 3125   0.520   1.589   3.049  0.6298 -1.0490  0.0756
  782SOL    HW1 3126   0.468   1.663   3.018  0.0898 -0.3273 -1.3100
  782SOL    HW2 3127   0.516   1.568   3.148 -0.3049  1.0867 -0.0026
  782SOL     MW 3128   0.512   1.596   3.058  0.4352 -0.6720 -0.1175
  783SOL     OW 3129   2.784   0.562   2.460  0.2524 -0.0407 -0.5835
  783SOL    HW1 3130   2.846   0.512   2.412  1.5111  2.4700  1.8747
  783SOL    HW2 3131   2.734   0.502   2.515 -1.4545  2.4907 -1.9198
  783SOL     MW 3132   2.785   0.547   2.461  0.1932  0.6245 -0.4354
  784SOL     OW 3133   0.225   0.923   2.909 -0.2690  0.3281 -0.6994
  784SOL    HW1 3134   0.220   0.985   2.990 -1.9818 -0.3572  2.2367
  784SOL    HW2 3135   0.211   0.970   2.827 -2.2708 -2.4205  1.4500
  784SOL     MW 3136   0.223   0.938   2.909 -0.7591 -0.1250 -0.0284
  785SOL     OW 3137   0.351   0.475   2.112 -0.3725 -0.0459 -0.1370
  785SOL    HW1 3138   0.359   0.505   2.020  1.0432  1.1760  1.9624
  785SOL    HW2 3139   0.301   0.396   2.104  1.2513  1.5639  2.3808
  785SOL     MW 3140   0.345   0.468   2.099  0.0285  0.3277  0.4722
  786SOL     OW 3141   1.990   0.503   2.838  0.8922  0.3651 -0.5642
  786SOL    HW1 3142   1.944   0.513   2.924 -0.7262  3.2245 -0.8983
  786SOL    HW2 3143   2.079   0.510   2.858  0.8582  0.4365 -3.2882
  786SOL     MW 3144   1.996   0.505   2.852  0.6741  0.7518 -0.9677
  787SOL     OW 3145   2.441   0.194   2.912  0.2392  0.1351  0.5053
  787SOL    HW1 3146   2.492   0.126   2.871 -1.0277 -1.1011 -0.3724
  787SOL    HW2 3147   2.505   0.245   2.957  0.2184 -2.3083 -0.5092
  787SOL     MW 3148   2.456   0.192   2.912  0.0693 -0.3504  0.2557
  788SOL     OW 3149   2.964   2.920   2.279  0.1907 -0.0548 -0.3223
  788SOL    HW1 3150   2.978   2.857   2.210 -1.7439  0.3371  2.1847
  788SOL    HW2 3151   3.013   2.873   2.347  0.2272  0.1355  0.2398
  788SOL     MW 3152   2.972   2.905   2.279 -0.0597  0.0220  0.0826
  789SOL     OW 3153   0.016   0.246   3.025 -0.0310  0.3605 -0.3734
  789SOL    HW1 3154  -0.066   0.288   3.028  2.2805 -0.2874  2.4313
  789SOL    HW2 3155   0.064   0.280   3.102 -0.0514  0.1822  1.1595
  789SOL     MW 3156   0.011   0.256   3.035  0.2713  0.2515  0.1989
  790SOL     OW 3157   0.017   1.061   2.492  0.1023 -0.1210  0.6326
  790SOL    HW1 3158  -0.022   1.009   2.559  1.0906  0.6108  1.5969
  790SOL    HW2 3159  -0.030   1.045   2.414  0.0155  1.6984  1.1893
  790SOL     MW 3160   0.006   1.052   2.491  0.2212  0.2156  0.8333
  791SOL     OW 3161   2.651   0.389   2.632  0.3033  0.0117  0.0652
  791SOL    HW1 3162   2.602   0.454   2.678 -0.2146 -2.8918 -0.0233
  791SOL    HW2 3163   2.729   0.390   2.688 -1.9104  0.0440  0.4511
  791SOL     MW 3164   2.655   0.398   2.646 -0.0571 -0.3671  0.1045
  792SOL     OW 3165   2.413   0.233   2.387  0.7307 -0.2295 -0.0309
  792SOL    HW1 3166   2.366   0.294   2.434  2.3703  0.5983 -3.4922
  792SOL    HW2 3167   2.451   0.175   2.452  1.3442  1.9473  0.2512
  792SOL     MW 3168   2.412   0.233   2.402  1.0280  0.1669 -0.4503
  793SOL     OW 3169   1.744   1.032   1.857 -0.0310  0.1101  0.0608
  793SOL    HW1 3170   1.701   1.103   1.809 -2.4114  2.3987 -0.4881
  793SOL    HW2 3171   1.831   1.025   1.824  0.7625  1.6984  1.6163
  793SOL     MW 3172   1.750   1.040   1.846 -0.2404  0.6217  0.1936
  794SOL     OW 3173   1.416   2.291   0.121  0.3203  0.2820 -0.0025
  794SOL    HW1 3174   1.429   2.379   0.080 -0.4842  0.4631 -2.7809
  794SOL    HW2 3175   1.454   2.292   0.209  1.1327  2.6453 -0.8851
  794SOL     MW 3176   1.423   2.303   0.127  0.3213  0.6177 -0.4856
  795SOL     OW 3177   2.356   0.929   2.591  0.3437 -0.0921  0.1742
  795SOL    HW1 3178   2.323   1.001   2.639 -0.7910 -1.0856 -1.3649
  795SOL    HW2 3179   2.330   0.940   2.499 -0.6593  0.6267 -0.1738
  795SOL     MW 3180   2.348   0.940   2.585  0.0616 -0.1284 -0.0748
  796SOL     OW 3181   0.319   0.686   2.774  0.1538  0.3038  0.3555
  796SOL    HW1 3182   0.270   0.754   2.822 -1.0540  0.2973 -2.4664
  796SOL    HW2 3183   0.265   0.647   2.708  0.0578 -0.2221 -0.2152
  796SOL     MW 3184   0.305   0.690   2.772 -0.0182  0.2335 -0.0922
  797SOL     OW 3185   2.587   0.134   2.560 -0.2769  0.1422 -0.2658
  797SOL    HW1 3186   2.600   0.231   2.588  1.3331  2.6694  1.8626
  797SOL    HW2 3187   2.666   0.123   2.508  0.6224  2.2099  1.3265
  797SOL     MW 3188   2.599   0.145   2.557  0.0542  0.7484  0.2251
  798SOL     OW 3189   2.381   0.041   2.188 -0.2437 -0.1603  0.2848
  798SOL    HW1 3190   2.403   0.105   2.257 -0.0842  0.3627  0.3521
  798SOL    HW2 3191   2.460  -0.010   2.155 -0.1696  1.0708 -0.0676
  798SOL     MW 3192   2.394   0.043   2.193 -0.2129  0.0711  0.2472
  799SOL     OW 3193   2.497   2.941   0.200  0.5829  0.3481  0.4640
  799SOL    HW1 3194   2.545   2.876   0.148 -0.1550  2.7955 -0.7832
  799SOL    HW2 3195   2.447   2.991   0.136  0.1714  0.3484 -1.4070
  799SOL     MW 3196   2.497   2.939   0.185  0.4312  0.6710  0.0526
  800SOL     OW 3197   1.915   3.093   1.733  0.4720 -0.4062 -0.9320
  800SOL    HW1 3198   1.840   3.036   1.758 -0.6373  2.3315  0.0161
  800SOL    HW2 3199   1.965   3.104   1.819  1.6414 -1.2546 -0.8673
  800SOL     MW 3200   1.911   3.087   1.748  0.4800 -0.1569 -0.7984
  801SOL     OW 3201   2.818   1.287   2.591  0.2076  0.2441  0.6423
  801SOL    HW1 3202   2.807   1.189   2.580  0.1406 -0.7674  0.1798
  801SOL    HW2 3203   2.894   1.309   2.539  1.1814 -0.5730  1.0885
  801SOL     MW 3204   2.826   1.277   2.583  0.3273  0.0028  0.6402
  802SOL     OW 3205   2.558   1.498   2.778  0.3010  0.1305  0.1551
  802SOL    HW1 3206   2.546   1.403   2.761 -0.2665 -0.5694  0.8889
  802SOL    HW2 3207   2.645   1.513   2.805 -1.1517 -1.7833 -1.5494
  802SOL     MW 3208   2.568   1.487   2.779  0.0345 -0.2143  0.0270
  803SOL     OW 3209   2.291   1.313   1.966 -0.2961  0.4816 -0.2160
  803SOL    HW1 3210   2.237   1.265   2.026 -1.9493 -0.2320 -1.4970
  803SOL    HW2 3211   2.299   1.264   1.884  2.2529  2.9704  0.9158
  803SOL     MW 3212   2.285   1.300   1.963 -0.1779  0.7158 -0.2357
  804SOL     OW 3213   2.349   0.045   0.043 -0.0445 -0.3638 -0.0489
  804SOL    HW1 3214   2.260   0.084   0.027  0.7930  0.2039  0.3616
  804SOL    HW2 3215   2.406   0.091  -0.022 -0.1481 -0.2190  0.1071
  804SOL     MW 3216   2.345   0.056   0.032  0.0523 -0.2698  0.0259
  805SOL     OW 3217   2.768   1.016   2.531  0.3316 -0.2854  0.0676
  805SOL    HW1 3218   2.711   0.937   2.540 -1.3436  0.9475 -0.7106
  805SOL    HW2 3219   2.855   0.989   2.569  0.6125  0.8903 -0.1382
  805SOL     MW 3220   2.772   1.002   2.537  0.1477  0.0324 -0.0622
  806SOL     OW 3221   2.680   0.343   2.225 -0.2892 -0.5080 -0.1946
  806SOL    HW1 3222   2.597   0.299   2.241  0.6442  0.8839  0.5271
  806SOL    HW2 3223   2.675   0.435   2.215 -1.6518 -2.6449 -0.6239
  806SOL     MW 3224   2.668   0.349   2.226 -0.3458 -0.6063 -0.1560
  807SOL     OW 3225   0.023   1.155   2.068  0.2229  0.1710  0.2871
  807SOL    HW1 3226   0.093   1.097   2.039 -1.8897 -0.0267 -1.6634
  807SOL    HW2 3227  -0.046   1.104   2.114  0.6898 -0.9334  1.5992
  807SOL     MW 3228   0.023   1.141   2.071  0.0057 -0.0008  0.2029
  808SOL     OW 3229   2.578   3.087   2.799  0.2080 -0.0089 -0.3188
  808SOL    HW1 3230   2.566   2.993   2.771  1.0079  0.7640 -2.1444
  808SOL    HW2 3231   2.588   3.133   2.714 -0.5630 -1.0934  2.0253
  808SOL     MW 3232   2.577   3.080   2.784  0.2118 -0.0500 -0.2504
  809SOL     OW 3233   2.493   1.237   2.409  0.0090  0.1250 -0.0214
  809SOL    HW1 3234   2.515   1.256   2.494  0.7192 -3.7388 -0.7900
  809SOL    HW2 3235   2.576   1.256   2.367  1.7935 -0.1224 -0.2470
  809SOL     MW 3236   2.507   1.242   2.415  0.3381 -0.4175 -0.1526
  810SOL     OW 3237   2.159   1.183   2.166 -0.3837 -0.1463  0.1064
  810SOL    HW1 3238   2.205   1.148   2.241 -0.2155 -0.2317  0.7549
  810SOL    HW2 3239   2.076   1.132   2.156  0.1308 -1.2517 -1.7427
  810SOL     MW 3240   2.154   1.172   2.174 -0.2937 -0.3034 -0.0520
  811SOL     OW 3241   1.498   0.093   2.248  0.6845 -0.5440 -0.3419
  811SOL    HW1 3242   1.593   0.088   2.281  2.3519  1.8688  1.5382
  811SOL    HW2 3243   1.514   0.103   2.152  1.8380  0.5158  1.9219
  811SOL     MW 3244   1.513   0.094   2.240  1.0567 -0.0858  0.2049
  812SOL     OW 3245   1.432   2.768   2.116  0.6810 -0.2903  0.1386
  812SOL    HW1 3246   1.523   2.803   2.100 -1.7325  0.3997 -1.3304
  812SOL    HW2 3247   1.442   2.727   2.203  3.0038  3.1364  0.9900
  812SOL     MW 3248   1.445   2.767   2.125  0.6690  0.2529  0.0571
  813SOL     OW 3249   1.851   0.752   2.165  0.0540 -0.5137  0.0198
  813SOL    HW1 3250   1.796   0.675   2.178  0.8188 -2.5704 -0.6835
  813SOL    HW2 3251   1.890   0.772   2.254 -2.5064 -1.8229  1.7227
  813SOL     MW 3252   1.849   0.744   2.178 -0.1829 -0.9578  0.1517
  814SOL     OW 3253   2.798   1.203   1.623  0.2539  0.1546  0.5808
  814SOL    HW1 3254   2.717   1.179   1.678 -1.4724 -1.9809 -0.1670
  814SOL    HW2 3255   2.800   1.134   1.557  3.2928  2.1615 -2.1207
  814SOL     MW 3256   2.788   1.191   1.622  0.4271  0.1376  0.1257
  815SOL     OW 3257   2.473   1.630   2.343  0.4539 -0.2565  0.1864
  815SOL    HW1 3258   2.404   1.572   2.298 -1.0963 -1.0393  0.6518
  815SOL    HW2 3259   2.546   1.580   2.366 -1.9123 -1.6487 -2.3539
  815SOL     MW 3260   2.474   1.616   2.340 -0.0629 -0.5435 -0.0874
  816SOL     OW 3261   0.655   0.669   2.671 -0.0977 -0.2476 -0.4465
  816SOL    HW1 3262   0.701   0.609   2.730 -0.3087  1.8192 -1.4061
  816SOL    HW2 3263   0.599   0.607   2.609 -2.3762  0.7811  0.7180
  816SOL     MW 3264   0.654   0.653   2.670 -0.4262  0.1609 -0.4195
  817SOL     OW 3265   3.018   1.153   1.346  0.9337 -0.2699 -0.3020
  817SOL    HW1 3266   3.072   1.179   1.419 -0.1071  1.6934 -1.2861
  817SOL    HW2 3267   3.009   1.238   1.297  1.7292  3.4346  0.0518
  817SOL     MW 3268   3.024   1.167   1.349  0.9014  0.4779 -0.3852
  818SOL     OW 3269   1.910   0.963   2.687  0.0172 -0.0363  0.0725
  818SOL    HW1 3270   1.941   1.038   2.635 -1.1618  2.1455 -1.1712
  818SOL    HW2 3271   1.991   0.914   2.693 -0.3747 -1.6204 -1.1443
  818SOL     MW 3272   1.924   0.967   2.681 -0.1901  0.0426 -0.2521
  819SOL     OW 3273   1.885   0.256   2.335  1.0982 -0.1007 -0.0036
  819SOL    HW1 3274   1.849   0.348   2.325  0.3119 -0.2805  0.4013
  819SOL    HW2 3275   1.929   0.250   2.417 -0.3696  0.8213 -0.9817
  819SOL     MW 3276   1.886   0.267   2.344  0.8008 -0.0028 -0.0792
  820SOL     OW 3277   2.487   1.747   2.605 -0.0355  0.0992 -0.5026
  820SOL    HW1 3278   2.473   1.690   2.680 -0.1580 -0.8084  2.5988
  820SOL    HW2 3279   2.480   1.705   2.516 -3.6986 -1.5783  1.2420
  820SOL     MW 3280   2.484   1.734   2.603 -0.5350 -0.2419  0.1367
  821SOL     OW 3281   2.578   1.327   1.995 -0.1494 -0.3159  0.4292
  821SOL    HW1 3282   2.605   1.379   1.913 -0.7389 -0.1139  0.1021
  821SOL    HW2 3283   2.486   1.328   1.994  0.5122 -0.4899  0.5137
  821SOL     MW 3284   2.569   1.334   1.984 -0.1399 -0.3122  0.3972
  822SOL     OW 3285   2.925   2.651   1.431 -0.0575 -0.6155  0.7436
  822SOL    HW1 3286   2.839   2.665   1.398  0.4017 -1.1603 -0.0321
  822SOL    HW2 3287   2.963   2.737   1.446  0.3788  1.9271  1.3319
  822SOL     MW 3288   2.919   2.664   1.429  0.0606 -0.3519  0.7188
  823SOL     OW 3289   2.345   0.468   1.768  0.6463  0.0317  0.7844
  823SOL    HW1 3290   2.424   0.415   1.747  0.9425  0.0097 -0.0768
  823SOL    HW2 3291   2.271   0.402   1.759 -1.7675  1.6981  1.4974
  823SOL     MW 3292   2.346   0.452   1.764  0.3669  0.2487  0.7648
  824SOL     OW 3293   2.115   1.371   2.594 -0.2252 -0.2143  0.0230
  824SOL    HW1 3294   2.152   1.416   2.515  1.4407  0.7132 -0.5221
  824SOL    HW2 3295   2.074   1.443   2.650  1.8061 -0.7268  2.0503
  824SOL     MW 3296   2.114   1.386   2.591  0.2626 -0.1595  0.2185
  825SOL     OW 3297   2.131   2.390   0.352  0.0820 -0.5475 -0.1801
  825SOL    HW1 3298   2.202   2.403   0.281 -0.2285  2.4785 -0.9391
  825SOL    HW2 3299   2.180   2.355   0.423 -0.8232 -1.1798  0.1858
  825SOL     MW 3300   2.147   2.387   0.352 -0.0784 -0.2317 -0.2320
  826SOL     OW 3301   1.741   2.392   0.420  0.0334  0.3016  0.0418
  826SOL    HW1 3302   1.759   2.319   0.486 -1.2737 -2.8912  0.3409
  826SOL    HW2 3303   1.782   2.463   0.474  3.6350  1.6936 -0.6413
  826SOL     MW 3304   1.749   2.392   0.436  0.3361  0.0640 -0.0089
  827SOL     OW 3305   1.931   2.274   0.861 -0.1276 -0.1808 -0.0517
  827SOL    HW1 3306   1.896   2.281   0.768  1.1043  0.0423 -0.1396
  827SOL    HW2 3307   1.867   2.235   0.919 -2.5529 -0.4108  0.9617
  827SOL     MW 3308   1.918   2.270   0.856 -0.2851 -0.1817  0.0704
  828SOL     OW 3309   0.087   2.608   0.551  0.4831  0.0547 -0.1412
  828SOL    HW1 3310   0.181   2.638   0.555 -0.2932  1.9306  0.9800
  828SOL    HW2 3311   0.072   2.623   0.455  1.7552  0.9015  0.8406
  828SOL     MW 3312   0.098   2.614   0.539  0.5485  0.4140  0.1363
  829SOL     OW 3313   2.990   2.868   1.198  0.4329 -0.6392 -0.1507
  829SOL    HW1 3314   2.911   2.872   1.140  2.7158 -0.0343  2.0517
  829SOL    HW2 3315   3.036   2.792   1.167 -1.7099 -0.0668  1.1141
  829SOL     MW 3316   2.986   2.858   1.186  0.4514 -0.4839  0.3068
  830SOL     OW 3317   2.518   2.786   1.999  0.2117  0.2021 -0.1450
  830SOL    HW1 3318   2.428   2.822   1.976 -3.7587  2.0933 -0.7678
  830SOL    HW2 3319   2.556   2.770   1.915 -1.1159  0.3192  0.9056
  830SOL     MW 3320   2.511   2.789   1.985 -0.4873  0.4670 -0.0885
  831SOL     OW 3321   2.463   2.423   1.238 -0.0652  0.0144  0.2655
  831SOL    HW1 3322   2.442   2.346   1.296  3.3135  0.1912 -0.0857
  831SOL    HW2 3323   2.542   2.388   1.192 -0.7473 -0.3070 -2.4061
  831SOL     MW 3324   2.471   2.408   1.240  0.2906 -0.0047 -0.1333
  832SOL     OW 3325   2.433   2.117   1.911  0.1530 -0.4173 -0.1307
  832SOL    HW1 3326   2.458   2.212   1.908 -0.2902  3.3479 -1.2076
  832SOL    HW2 3327   2.504   2.083   1.862  0.0364 -1.2217  1.7894
  832SOL     MW 3328   2.446   2.125   1.904  0.0791 -0.0266 -0.0194
  833SOL     OW 3329   1.626   2.508   0.817 -0.1153 -0.7154 -0.2668
  833SOL    HW1 3330   1.576   2.478   0.897 -1.5892 -0.0686 -3.6618
  833SOL    HW2 3331   1.562   2.581   0.788 -0.7372  0.0477  0.7837
  833SOL     MW 3332   1.611   2.513   0.824 -0.3918 -0.5294 -0.5761
  834SOL     OW 3333   2.234   2.385   0.652 -0.9064  0.5765 -0.2386
  834SOL    HW1 3334   2.198   2.306   0.702 -0.8153 -0.0547 -0.3198
  834SOL    HW2 3335   2.328   2.395   0.675  1.7753  0.9170  2.4018
  834SOL     MW 3336   2.242   2.376   0.662 -0.5406  0.5381  0.0991
  835SOL     OW 3337   1.848   2.555   0.646  1.4513  1.0642  0.9606
  835SOL    HW1 3338   1.781   2.546   0.709 -2.3567  0.1460  0.2042
  835SOL    HW2 3339   1.921   2.578   0.700  2.0348 -1.8060 -0.1601
  835SOL     MW 3340   1.849   2.557   0.662  1.0259  0.5643  0.7130
  836SOL     OW 3341   2.089   2.067   1.744 -0.3179 -0.3182  0.5985
  836SOL    HW1 3342   2.173   2.024   1.730  1.1234 -1.0562 -0.3199
  836SOL    HW2 3343   2.112   2.148   1.791  0.0871 -1.0261  0.5252
  836SOL     MW 3344   2.103   2.072   1.748 -0.0743 -0.5090  0.4677
  837SOL     OW 3345   2.122   0.175   0.635  0.0727  0.0479  0.6081
  837SOL    HW1 3346   2.046   0.205   0.588  4.7931 -0.8320  2.1464
  837SOL    HW2 3347   2.162   0.105   0.583  1.2436  2.2543  1.2852
  837SOL     MW 3348   2.117   0.170   0.622  0.8500  0.2229  0.9004
  838SOL     OW 3349   2.926   2.058   0.905  0.3977 -0.3234  0.1646
  838SOL    HW1 3350   2.868   1.980   0.887  0.1427  0.0817  1.3859
  838SOL    HW2 3351   2.978   2.040   0.980 -2.6917  0.9343  0.9770
  838SOL     MW 3352   2.925   2.046   0.912 -0.0435 -0.1040  0.4329
  839SOL     OW 3353   1.529   2.391   1.079  0.3006 -0.1185  0.8569
  839SOL    HW1 3354   1.493   2.462   1.133 -2.7615 -1.5276 -0.2625
  839SOL    HW2 3355   1.541   2.306   1.134 -3.6752  1.2812 -3.3649
  839SOL     MW 3356   1.526   2.389   1.093 -0.6280 -0.1198  0.1522
  840SOL     OW 3357   2.424   2.110   2.322 -0.5524 -0.0326 -0.0802
  840SOL    HW1 3358   2.376   2.191   2.296 -0.0740 -0.2105  0.3885
  840SOL    HW2 3359   2.456   2.139   2.413  0.3402  1.0583  0.2775
  840SOL     MW 3360   2.422   2.125   2.330 -0.3715  0.0878  0.0289
  841SOL     OW 3361   2.314   2.298   0.117 -0.5683  0.0627  0.0141
  841SOL    HW1 3362   2.323   2.384   0.072  0.2719 -0.2725 -1.0562
  841SOL    HW2 3363   2.240   2.253   0.078 -0.8792  0.1870  0.0612
  841SOL     MW 3364   2.305   2.303   0.106 -0.4985  0.0349 -0.1209
  842SOL     OW 3365   2.657   1.931   1.481  0.6298  0.1612  0.2374
  842SOL    HW1 3366   2.624   1.842   1.461 -0.0660  0.0205 -0.6785
  842SOL    HW2 3367   2.635   1.981   1.403  1.5192  0.9045  2.7998
  842SOL     MW 3368   2.650   1.926   1.468  0.6554  0.2407  0.4546
  843SOL     OW 3369   2.649   2.780   1.764 -0.1002 -0.3059  0.1300
  843SOL    HW1 3370   2.738   2.761   1.777 -1.2647  3.1875 -0.1829
  843SOL    HW2 3371   2.616   2.692   1.730 -1.0538  0.2813 -2.1008
  843SOL     MW 3372   2.656   2.766   1.761 -0.3797  0.2325 -0.2056
  844SOL     OW 3373   2.683   2.333   1.084 -0.3239 -0.1283  0.1624
  844SOL    HW1 3374   2.693   2.385   1.004 -1.8689  2.4122  1.0830
  844SOL    HW2 3375   2.760   2.367   1.132  0.6483  1.1337 -2.8000
  844SOL     MW 3376   2.695   2.344   1.080 -0.3995  0.3734 -0.1070
  845SOL     OW 3377   2.843   2.610   0.278 -0.6114  0.1030 -0.3345
  845SOL    HW1 3378   2.845   2.537   0.345  0.1764  2.8069 -1.0089
  845SOL    HW2 3379   2.874   2.682   0.337  1.1564  1.0225  0.2911
  845SOL     MW 3380   2.848   2.610   0.294 -0.2742  0.5811 -0.3409
  846SOL     OW 3381   1.461   2.744   0.778 -0.0707 -0.4321 -0.3732
  846SOL    HW1 3382   1.512   2.825   0.791 -2.1655  0.2418  0.7129
  846SOL    HW2 3383   1.369   2.767   0.789 -1.9129 -1.6117 -1.1542
  846SOL     MW 3384   1.455   2.758   0.781 -0.5901 -0.4988 -0.3329
  847SOL     OW 3385   2.451   1.831   0.219 -0.3082 -0.3319  0.1490
  847SOL    HW1 3386   2.433   1.736   0.246 -0.5816 -3.6488 -0.7064
  847SOL    HW2 3387   2.450   1.835   0.115  1.8943 -2.0894 -1.5192
  847SOL     MW 3388   2.449   1.819   0.209 -0.0537 -1.0014 -0.1839
  848SOL     OW 3389   2.683   2.049   1.199  0.2807  0.0217  0.0447
  848SOL    HW1 3390   2.705   2.138   1.178  4.2655 -1.7024 -1.2661
  848SOL    HW2 3391   2.739   1.996   1.142  1.8325  1.7396 -2.4995
  848SOL     MW 3392   2.694   2.054   1.189  1.0112  0.0209 -0.4639
  849SOL     OW 3393   1.943   2.842   0.829 -0.1263 -0.1075  0.0969
  849SOL    HW1 3394   1.917   2.764   0.878 -0.1788 -2.3114 -0.0682
  849SOL    HW2 3395   2.004   2.805   0.760  1.0473  4.0162 -1.2475
  849SOL     MW 3396   1.947   2.827   0.826  0.0216  0.1458 -0.1023
  850SOL     OW 3397   2.328   1.932   1.616  0.0551  0.1310 -0.2013
  850SOL    HW1 3398   2.249   1.928   1.557  0.1794  2.9690  1.0137
  850SOL    HW2 3399   2.365   2.024   1.608  1.0505  3.9061 -0.4038
  850SOL     MW 3400   2.322   1.943   1.607  0.2028  1.0035 -0.0677
  851SOL     OW 3401   2.532   2.201   0.393  0.6417  0.0014  0.6533
  851SOL    HW1 3402   2.551   2.167   0.301 -0.8245 -2.8263 -0.3702
  851SOL    HW2 3403   2.473   2.272   0.388 -0.8622 -2.0478 -1.3453
  851SOL     MW 3404   2.527   2.206   0.381  0.2498 -0.6420  0.2546
  852SOL     OW 3405   2.281   1.996   0.349  0.6575  0.1049 -0.1880
  852SOL    HW1 3406   2.322   2.083   0.333 -1.8399  1.7687 -0.0958
  852SOL    HW2 3407   2.332   1.925   0.303  1.5329 -0.1427  2.9166
  852SOL     MW 3408   2.293   1.998   0.341  0.4435  0.2917  0.2338
  853SOL     OW 3409   2.531   2.378   1.907 -0.1727  0.4783 -0.0340
  853SOL    HW1 3410   2.513   2.441   1.835  1.9347  1.1511 -1.5976
  853SOL    HW2 3411   2.628   2.393   1.919 -1.4880 -0.8607 -2.3358
  853SOL     MW 3412   2.541   2.388   1.899 -0.0682  0.3904 -0.5440
  854SOL     OW 3413   2.874   2.256   0.733 -0.6991 -0.2454 -0.2760
  854SOL    HW1 3414   2.798   2.233   0.682 -1.7251  0.0711  1.8410
  854SOL    HW2 3415   2.866   2.189   0.805 -1.9060  0.4422  2.1449
  854SOL     MW 3416   2.863   2.244   0.736 -0.9937 -0.1129  0.3228
  855SOL     OW 3417   2.794   2.382   0.429  0.1222 -0.1489 -0.0106
  855SOL    HW1 3418   2.701   2.372   0.415  0.4631 -1.3116 -0.2057
  855SOL    HW2 3419   2.832   2.300   0.410  1.3085  1.1046  1.5690
  855SOL     MW 3420   2.787   2.370   0.425  0.3237 -0.1369  0.1720
  856SOL     OW 3421   2.084   1.866   0.242  0.6395 -0.2056 -0.2310
  856SOL    HW1 3422   2.001   1.884   0.286  1.3157 -0.1613  0.7879
  856SOL    HW2 3423   2.149   1.913   0.296 -0.2572  0.1563  1.4151
  856SOL     MW 3424   2.082   1.874   0.255  0.6104 -0.1520  0.1207
  857SOL     OW 3425   2.460   1.922   0.583 -0.1958 -0.6292 -0.2622
  857SOL    HW1 3426   2.422   1.956   0.502  0.6859 -1.5773  1.4385
  857SOL    HW2 3427   2.392   1.926   0.657 -1.1438 -0.2713  2.0383
  857SOL     MW 3428   2.446   1.927   0.582 -0.2046 -0.7071  0.2657
  858SOL     OW 3429   2.907   2.691   1.806  0.8088 -0.4061  0.3200
  858SOL    HW1 3430   2.971   2.760   1.806 -0.5333  0.3288 -0.5067
  858SOL    HW2 3431   2.944   2.634   1.744  0.0622 -0.1234  2.0100
  858SOL     MW 3432   2.920   2.693   1.798  0.5332 -0.2719  0.4339
  859SOL     OW 3433   1.778   2.665   0.969 -0.6093 -0.3030  0.1381
  859SOL    HW1 3434   1.733   2.601   0.913 -1.7105 -1.3417 -1.4496
  859SOL    HW2 3435   1.821   2.600   1.024  0.4640 -4.4083  1.7110
  859SOL     MW 3436   1.778   2.648   0.968 -0.6130 -0.9817  0.1362
  860SOL     OW 3437   2.629   2.584   0.132  0.5344 -0.0172 -0.5479
  860SOL    HW1 3438   2.707   2.590   0.192 -1.3542  1.3221 -0.6587
  860SOL    HW2 3439   2.622   2.673   0.088  0.3151  1.5054 -1.6312
  860SOL     MW 3440   2.638   2.596   0.134  0.2563  0.3604 -0.7055
  861SOL     OW 3441   1.614   2.147   1.182 -0.0305  0.2357 -0.4519
  861SOL    HW1 3442   1.623   2.211   1.253 -2.2637  2.7084  0.5785
  861SOL    HW2 3443   1.545   2.088   1.221  0.1141 -0.5689  0.5289
  861SOL     MW 3444   1.606   2.148   1.196 -0.3061  0.4558 -0.1865
  862SOL     OW 3445   2.410   1.715   1.429 -0.0977 -0.0995  0.1524
  862SOL    HW1 3446   2.371   1.788   1.467 -0.6072  0.7810 -0.7901
  862SOL    HW2 3447   2.391   1.714   1.335 -1.9094 -1.8854  0.0205
  862SOL     MW 3448   2.402   1.724   1.422 -0.4040 -0.2190  0.0106
  863SOL     OW 3449   2.931   1.717   0.972 -0.7417 -0.0879 -0.2923
  863SOL    HW1 3450   2.937   1.755   1.058 -2.9243 -0.7780  0.2736
  863SOL    HW2 3451   2.839   1.700   0.949 -1.0426 -1.7599  0.1554
  863SOL     MW 3452   2.920   1.719   0.980 -1.0694 -0.3996 -0.1586
  864SOL     OW 3453   0.019   1.758   0.764 -0.2819 -0.3060  0.2917
  864SOL    HW1 3454  -0.012   1.745   0.855  1.7121  1.7939  0.7640
  864SOL    HW2 3455  -0.056   1.735   0.706 -2.4413  1.3315 -1.8162
  864SOL     MW 3456   0.005   1.753   0.768 -0.3037  0.1871  0.0759
  865SOL     OW 3457   2.552   2.142   0.129 -0.4966 -0.0301  0.0631
  865SOL    HW1 3458   2.579   2.071   0.076  0.9511 -1.1353  2.2265
  865SOL    HW2 3459   2.465   2.191   0.106  0.9938 -0.5293  0.8628
  865SOL     MW 3460   2.544   2.139   0.119 -0.1090 -0.2418  0.4541
  866SOL     OW 3461   2.724   2.349   1.523  0.4154  0.3106 -0.2819
  866SOL    HW1 3462   2.732   2.258   1.559  1.6231 -2.9914 -0.1519
  866SOL    HW2 3463   2.753   2.350   1.432  0.2986 -0.3212  1.2483
  866SOL     MW 3464   2.729   2.337   1.516  0.5593 -0.2084 -0.0629
  867SOL     OW 3465   0.106   2.664   1.736  0.4501  0.0749  0.0143
  867SOL    HW1 3466   0.193   2.692   1.751 -0.7537 -0.1542 -1.2280
  867SOL    HW2 3467   0.077   2.727   1.665 -1.4742  1.2662  1.9244
  867SOL     MW 3468   0.114   2.676   1.728  0.0374  0.2019  0.1024
  868SOL     OW 3469   2.739   2.688   0.588  0.4136 -0.4366  0.4533
  868SOL    HW1 3470   2.732   2.591   0.585 -0.9785  2.7015  1.0430
  868SOL    HW2 3471   2.661   2.721   0.539 -2.5965  0.6160  2.0598
  868SOL     MW 3472   2.728   2.679   0.581 -0.1672  0.1163  0.7430
  869SOL     OW 3473   1.964   2.468   1.059 -0.9942  0.0514  0.4573
  869SOL    HW1 3474   2.026   2.526   1.011 -1.7021  0.2133 -1.5237
  869SOL    HW2 3475   1.938   2.396   1.006 -1.8779 -0.7989  0.4887
  869SOL     MW 3476   1.969   2.466   1.046 -1.2042 -0.0394  0.2001
  870SOL     OW 3477   2.215   3.077   0.456 -0.7545 -0.0317 -0.2513
  870SOL    HW1 3478   2.301   3.104   0.423 -0.2100  0.8025 -4.0098
  870SOL    HW2 3479   2.220   2.988   0.496 -1.6698 -1.7830  1.4506
  870SOL     MW 3480   2.227   3.069   0.457 -0.8034 -0.1527 -0.5226
  871SOL     OW 3481   2.474   2.096   0.914 -0.0409 -0.2828  0.3852
  871SOL    HW1 3482   2.385   2.084   0.889 -0.3450 -1.1186 -1.0799
  871SOL    HW2 3483   2.494   2.183   0.944  0.5538  1.1261 -1.5682
  871SOL     MW 3484   2.465   2.106   0.915 -0.0026 -0.2072 -0.0659
  872SOL     OW 3485   2.118   2.520   1.636 -0.1513 -0.4092  0.5013
  872SOL    HW1 3486   2.048   2.581   1.660 -1.0112 -2.5132  2.7796
  872SOL    HW2 3487   2.095   2.479   1.547 -2.7837 -0.8209  1.0080
  872SOL     MW 3488   2.106   2.523   1.627 -0.6121 -0.7411  0.8687
  873SOL     OW 3489   2.863   2.165   1.825 -0.1606  0.1461  0.4307
  873SOL    HW1 3490   2.846   2.252   1.857 -1.6772 -2.2397  1.4428
  873SOL    HW2 3491   2.953   2.168   1.789 -0.5955 -0.8403 -0.0365
  873SOL     MW 3492   2.873   2.177   1.824 -0.4181 -0.2989  0.5026
  874SOL     OW 3493   2.265   1.418   2.331  0.3663  0.5761  0.1330
  874SOL    HW1 3494   2.217   1.355   2.275  1.5964 -0.2502  1.1039
  874SOL    HW2 3495   2.336   1.362   2.361  3.2734 -2.4257  1.1418
  874SOL     MW 3496   2.268   1.402   2.327  0.9121  0.0710  0.3942
  875SOL     OW 3497   2.386   2.355   0.959 -0.1781 -0.2776  0.3494
  875SOL    HW1 3498   2.438   2.409   0.901  0.4343  0.1639  1.5590
  875SOL    HW2 3499   2.409   2.374   1.055  1.4067 -1.4213  1.4037
  875SOL     MW 3500   2.396   2.365   0.964  0.1118 -0.3703  0.6481
  876SOL     OW 3501   3.080   2.228   1.322  0.5697 -0.6188  0.3276
  876SOL    HW1 3502   3.142   2.281   1.273 -1.9162 -0.1211 -0.6287
  876SOL    HW2 3503   3.103   2.262   1.410  0.4105  2.4263  1.4204
  876SOL     MW 3504   3.091   2.239   1.327  0.2207 -0.1514  0.3456
  877SOL     OW 3505   0.017   2.750   0.311 -0.0598  0.5746 -0.3352
  877SOL    HW1 3506   0.073   2.821   0.288  2.0807  1.1928 -0.3151
  877SOL    HW2 3507   0.011   2.709   0.220  3.1287  0.9555 -2.3621
  877SOL     MW 3508   0.023   2.754   0.296  0.6433  0.7064 -0.6000
  878SOL     OW 3509   2.263   1.661   1.158  0.1502 -0.2345  0.1777
  878SOL    HW1 3510   2.191   1.620   1.228 -1.0939 -0.5343 -0.7710
  878SOL    HW2 3511   2.268   1.583   1.098  1.0549 -1.2805 -2.2206
  878SOL     MW 3512   2.254   1.645   1.159  0.1054 -0.4120 -0.2639
  879SOL     OW 3513   2.736   2.480   0.852  0.2063 -0.1789  0.0271
  879SOL    HW1 3514   2.811   2.540   0.868 -0.3072 -1.3579  0.0205
  879SOL    HW2 3515   2.763   2.399   0.799 -0.6547  1.0713  0.9593
  879SOL     MW 3516   2.749   2.477   0.847  0.0250 -0.1695  0.1492
  880SOL     OW 3517   2.609   2.215   0.685  0.4938 -0.1007  0.4276
  880SOL    HW1 3518   2.570   2.148   0.734  1.4732  1.7552 -1.7666
  880SOL    HW2 3519   2.564   2.204   0.593  2.4394 -0.8435 -2.4141
  880SOL     MW 3520   2.598   2.205   0.679  0.8797  0.0461 -0.2368
  881SOL     OW 3521   2.986   2.763   0.708  0.0236 -0.4913 -0.4472
  881SOL    HW1 3522   2.900   2.741   0.662  1.2117 -0.8364 -0.0596
  881SOL    HW2 3523   3.051   2.717   0.652 -1.1567  3.9374 -0.0793
  881SOL     MW 3524   2.983   2.754   0.694  0.0246  0.0475 -0.3476
  882SOL     OW 3525   2.229   2.901   1.938 -0.0725 -0.2445 -0.0641
  882SOL    HW1 3526   2.225   2.928   1.844 -1.0588 -0.5103 -0.0793
  882SOL    HW2 3527   2.191   2.817   1.939 -0.8833  0.7347  1.4005
  882SOL     MW 3528   2.224   2.893   1.926 -0.3096 -0.1504  0.1271
  883SOL     OW 3529   2.463   2.146   1.298 -0.2305  0.0005  0.0053
  883SOL    HW1 3530   2.539   2.112   1.252  3.4193  1.0671  0.6062
  883SOL    HW2 3531   2.391   2.119   1.236 -0.6232  0.5355 -2.1596
  883SOL     MW 3532   2.463   2.138   1.284  0.1993  0.2118 -0.2010
  884SOL     OW 3533   1.915   1.857   1.044 -0.1675  0.4483  0.0516
  884SOL    HW1 3534   1.872   1.945   1.052  0.9683 -0.6090 -0.4387
  884SOL    HW2 3535   2.007   1.881   1.034 -1.3379  1.8890 -1.0041
  884SOL     MW 3536   1.921   1.872   1.044 -0.1720  0.4989 -0.1524
  885SOL     OW 3537   2.939   2.430   1.682  0.3466  0.1741  0.1188
  885SOL    HW1 3538   2.992   2.354   1.666  1.3318 -0.3588  0.8588
  885SOL    HW2 3539   2.863   2.420   1.621 -2.3618  1.2737 -1.7919
  885SOL     MW 3540   2.936   2.419   1.672  0.1192  0.2489 -0.0357
  886SOL     OW 3541   2.873   2.425   1.264 -0.8757 -0.2464 -0.2862
  886SOL    HW1 3542   2.946   2.371   1.258 -1.1876 -0.5617  2.4015
  886SOL    HW2 3543   2.903   2.509   1.310  0.9007  1.2955  0.8382
  886SOL     MW 3544   2.886   2.429   1.269 -0.6825 -0.0846  0.2167
  887SOL     OW 3545   2.319   2.687   1.567  0.0382 -0.6521 -0.0171
  887SOL    HW1 3546   2.342   2.692   1.469 -1.2563  3.7125 -1.5902
  887SOL    HW2 3547   2.240   2.629   1.579 -1.0942 -2.0141  1.8951
  887SOL     MW 3548   2.311   2.680   1.556 -0.2820 -0.2559  0.0276
  888SOL     OW 3549   2.050   2.175   1.419  0.3140  0.3222  0.1321
  888SOL    HW1 3550   2.094   2.134   1.344  1.0149  0.2307  0.8812
  888SOL    HW2 3551   2.083   2.131   1.501 -2.9423 -0.1936  1.4153
  888SOL     MW 3552   2.060   2.164   1.420 -0.0231  0.2420  0.4003
  889SOL     OW 3553   2.286   1.898   2.088 -0.4720  0.3377  0.8108
  889SOL    HW1 3554   2.368   1.850   2.122  0.2248  0.7226  3.0573
  889SOL    HW2 3555   2.326   1.975   2.044  0.5824 -2.5203 -1.2881
  889SOL     MW 3556   2.302   1.902   2.086 -0.2409  0.0114  0.8303
  890SOL     OW 3557   0.061   2.344   0.156  0.5017 -0.6903  0.0142
  890SOL    HW1 3558   0.016   2.434   0.154  1.4670  0.4628 -0.6085
  890SOL    HW2 3559   0.046   2.309   0.242  1.0641  0.8258 -3.8943
  890SOL     MW 3560   0.053   2.351   0.167  0.7033 -0.3381 -0.5837
  891SOL     OW 3561   3.003   1.980   1.163 -0.2768 -0.7584 -0.2938
  891SOL    HW1 3562   3.087   1.946   1.140  1.3537  1.4018  0.5813
  891SOL    HW2 3563   3.028   2.069   1.201  2.0732 -0.5983  0.4833
  891SOL     MW 3564   3.017   1.987   1.165  0.2483 -0.4523 -0.0759
  892SOL     OW 3565   2.479   2.365   2.783 -0.4896 -0.5760 -0.3539
  892SOL    HW1 3566   2.437   2.285   2.815  1.2675  2.3598 -1.3242
  892SOL    HW2 3567   2.566   2.373   2.828  0.9399  0.5015 -1.5338
  892SOL     MW 3568   2.485   2.356   2.793 -0.0692 -0.0465 -0.6376
  893SOL     OW 3569   1.633   2.339   1.403 -0.3306  0.2236  0.5673
  893SOL    HW1 3570   1.544   2.384   1.412  1.0864 -0.4162  0.8848
  893SOL    HW2 3571   1.675   2.353   1.488  1.6632 -1.3960 -0.1707
  893SOL     MW 3572   1.627   2.347   1.416  0.1195 -0.0745  0.5118
  894SOL     OW 3573   2.757   1.948   0.473 -0.3269  0.8301  0.0983
  894SOL    HW1 3574   2.690   1.963   0.532  1.6154  1.9221 -0.8088
  894SOL    HW2 3575   2.717   1.894   0.403 -0.0582 -0.9958 -1.4284
  894SOL     MW 3576   2.743   1.943   0.471 -0.0352  0.7333 -0.2228
  895SOL     OW 3577   2.241   2.123   1.134 -0.3785  0.7172  0.5691
  895SOL    HW1 3578   2.270   2.179   1.067  0.1196 -0.0803  2.6010
  895SOL    HW2 3579   2.218   2.043   1.092  0.4248 -1.5953  0.7434
  895SOL     MW 3580   2.242   2.120   1.120 -0.2068  0.3069  0.8602
  896SOL     OW 3581   2.226   2.815   1.069  0.0580  0.4909  0.2736
  896SOL    HW1 3582   2.263   2.788   1.152 -1.3673  0.7040 -0.4734
  896SOL    HW2 3583   2.164   2.884   1.091  0.1846  0.6249 -2.4947
  896SOL     MW 3584   2.222   2.820   1.083 -0.1134  0.5367 -0.1902
  897SOL     OW 3585   3.100   3.040   3.098  0.1721  0.5097 -0.4500
  897SOL    HW1 3586   3.139   2.950   3.082 -0.4459 -3.7458 -0.7259
  897SOL    HW2 3587   3.042   3.054   3.021  0.1068 -0.4949  1.5549
  897SOL     MW 3588   3.098   3.030   3.085  0.0819 -0.1843 -0.2219
  898SOL     OW 3589   2.201   0.159   1.458  0.4067  0.2450 -0.0678
  898SOL    HW1 3590   2.139   0.086   1.468 -0.8264  0.3181  2.0266
  898SOL    HW2 3591   2.189   0.182   1.370  0.2980 -1.6107 -0.0099
  898SOL     MW 3592   2.191   0.152   1.448  0.2297  0.0098  0.2161
  899SOL     OW 3593   2.953   3.034   0.630  0.5077  0.1118  0.1751
  899SOL    HW1 3594   2.986   2.957   0.676 -3.1086 -1.7146 -0.0956
  899SOL    HW2 3595   2.859   3.035   0.632  2.0721 -0.6117  0.4076
  899SOL     MW 3596   2.945   3.024   0.636  0.2369 -0.2246  0.1700
  900SOL     OW 3597   0.165   2.395   1.118  0.3514 -0.0734  0.5734
  900SOL    HW1 3598   0.114   2.478   1.120 -1.7785 -0.8140  3.4549
  900SOL    HW2 3599   0.134   2.341   1.044 -1.4696 -1.7483  0.9036
  900SOL     MW 3600   0.154   2.399   1.109 -0.1699 -0.3921  0.9971
  901SOL     OW 3601   1.775   2.864   1.785  0.0313 -0.5300  0.2597
  901SOL    HW1 3602   1.851   2.794   1.776 -1.4428  1.2832  0.9346
  901SOL    HW2 3603   1.697   2.838   1.736 -1.3270  2.3078 -1.0011
  901SOL     MW 3604   1.775   2.851   1.777 -0.3424  0.0836  0.1824
  902SOL     OW 3605   2.624   2.107   1.693 -0.5869  0.0528  0.5318
  902SOL    HW1 3606   2.638   2.028   1.640 -2.0671  1.5875 -1.3799
  902SOL    HW2 3607   2.706   2.124   1.740  0.2356 -1.0907  1.2094
  902SOL     MW 3608   2.637   2.099   1.692 -0.6737  0.1044  0.3690
  903SOL     OW 3609   1.510   2.651   0.534 -0.1302  0.0791 -0.2218
  903SOL    HW1 3610   1.603   2.655   0.542 -0.0099  0.4523  0.4787
  903SOL    HW2 3611   1.492   2.690   0.620 -0.2676  2.4614  0.5176
  903SOL     MW 3612   1.520   2.656   0.546 -0.1325  0.4427 -0.0318
  904SOL     OW 3613   2.524   2.539   1.671  0.4567 -0.0589 -0.2493
  904SOL    HW1 3614   2.455   2.595   1.629 -0.5249  0.7067  0.6858
  904SOL    HW2 3615   2.554   2.479   1.599 -0.1265 -2.0550 -2.1940
  904SOL     MW 3616   2.519   2.539   1.656  0.2502 -0.2213 -0.3825
  905SOL     OW 3617   2.329   2.478   2.095 -0.3177 -0.0904  0.3932
  905SOL    HW1 3618   2.412   2.450   2.047  1.0125 -1.2449 -1.3057
  905SOL    HW2 3619   2.295   2.412   2.166  1.1967  0.7473 -1.0447
  905SOL     MW 3620   2.335   2.465   2.098  0.0576 -0.1322 -0.0207
  906SOL     OW 3621   2.468   2.531   0.718 -0.2334  0.0303  0.4277
  906SOL    HW1 3622   2.554   2.513   0.749 -2.1967 -0.9632 -0.5035
  906SOL    HW2 3623   2.438   2.599   0.776  1.3357 -0.1110  0.1501
  906SOL     MW 3624   2.475   2.537   0.730 -0.2854 -0.1195  0.2682
  907SOL     OW 3625   2.663   2.788   1.306  0.5189 -0.3309  0.2142
  907SOL    HW1 3626   2.709   2.851   1.357 -1.7909 -2.1990  0.8923
  907SOL    HW2 3627   2.695   2.803   1.219 -1.9148 -1.9953 -2.4885
  907SOL     MW 3628   2.673   2.798   1.301 -0.1070 -0.7970 -0.0529
  908SOL     OW 3629   2.680   2.357   3.080 -0.2918 -0.5110 -0.1004
  908SOL    HW1 3630   2.642   2.281   3.122  1.7867  1.6071 -0.8600
  908SOL    HW2 3631   2.655   2.447   3.120 -2.2097  1.2433  0.2077
  908SOL     MW 3632   2.672   2.359   3.091 -0.2706 -0.0000 -0.1600
  909SOL     OW 3633   1.713   0.109   1.311  0.4204  0.1987 -0.0270
  909SOL    HW1 3634   1.667   0.198   1.313 -0.1442 -0.5349 -0.9841
  909SOL    HW2 3635   1.675   0.077   1.395  1.6863  0.1762 -2.0956
  909SOL     MW 3636   1.702   0.117   1.322  0.5129  0.0990 -0.4262
  910SOL     OW 3637   2.135   1.624   0.407 -0.0458 -0.7152  0.4356
  910SOL    HW1 3638   2.103   1.541   0.363 -0.5165  1.3302  0.7561
  910SOL    HW2 3639   2.102   1.698   0.350  2.6267  2.4440  1.4468
  910SOL     MW 3640   2.126   1.623   0.394  0.2447 -0.0285  0.6113
  911SOL     OW 3641   2.399   2.184   1.561  0.4013  0.4972 -0.1816
  911SOL    HW1 3642   2.487   2.185   1.604  4.2578 -0.0201  0.8964
  911SOL    HW2 3643   2.413   2.165   1.466 -0.1050 -2.7008  1.9299
  911SOL     MW 3644   2.413   2.182   1.554  0.8434  0.0070  0.2392
  912SOL     OW 3645   2.912   1.864   1.396 -0.4928  0.0414  0.4781
  912SOL    HW1 3646   2.957   1.885   1.313  2.3341  0.5142 -0.0520
  912SOL    HW2 3647   2.838   1.913   1.422 -0.6559 -2.1971  3.5515
  912SOL     MW 3648   2.908   1.873   1.389 -0.1414 -0.1915  0.8137
  913SOL     OW 3649   2.709   0.018   0.269 -0.0109 -0.6196  0.3498
  913SOL    HW1 3650   2.789  -0.033   0.280  1.8631  0.5216  1.9154
  913SOL    HW2 3651   2.652  -0.052   0.240  0.2231  2.9857 -0.4505
  913SOL     MW 3652   2.712   0.002   0.267  0.2673  0.0067  0.4508
  914SOL     OW 3653   2.668   1.799   2.980 -0.6979 -0.1240  0.8846
  914SOL    HW1 3654   2.704   1.887   2.980 -0.3429  0.4839  1.8104
  914SOL    HW2 3655   2.583   1.807   3.015  0.6807  0.1470 -1.6514
  914SOL     MW 3656   2.662   1.811   2.985 -0.4692 -0.0080  0.6722
  915SOL     OW 3657   1.813   0.107   0.104  0.3695  0.1106  0.3992
  915SOL    HW1 3658   1.889   0.070   0.155  1.1749  0.0188  0.9972
  915SOL    HW2 3659   1.731   0.069   0.142  3.1430  1.5576 -1.0364
  915SOL     MW 3660   1.812   0.097   0.116  0.8417  0.2894  0.2887
  916SOL     OW 3661   1.787   2.151   1.983  0.3108  0.3275  0.1701
  916SOL    HW1 3662   1.823   2.232   1.954 -1.8302 -2.1159 -0.6114
  916SOL    HW2 3663   1.787   2.087   1.907  1.5593 -1.5129  1.7011
  916SOL     MW 3664   1.792   2.153   1.969  0.1930 -0.2377  0.2690
  917SOL     OW 3665   2.539   2.180   2.555 -0.2614  0.2618 -0.6913
  917SOL    HW1 3666   2.530   2.245   2.619 -0.6140 -1.1321 -2.1195
  917SOL    HW2 3667   2.623   2.195   2.515  2.7444 -1.3665 -0.1837
  917SOL     MW 3668   2.549   2.191   2.558  0.0886 -0.1370 -0.8128
  918SOL     OW 3669   2.041   1.607   2.721 -0.1753 -0.1829 -0.1905
  918SOL    HW1 3670   2.000   1.638   2.643  2.1254 -1.6707  0.3984
  918SOL    HW2 3671   2.127   1.648   2.724  1.1339  2.4924  1.3366
  918SOL     MW 3672   2.047   1.616   2.711  0.3010 -0.0262  0.0887
  919SOL     OW 3673   3.046   2.412   2.302 -0.0985 -0.5329 -0.3276
  919SOL    HW1 3674   2.969   2.351   2.299 -0.3356 -0.4788  2.8269
  919SOL    HW2 3675   3.086   2.404   2.219 -1.1246  0.3980 -0.9577
  919SOL     MW 3676   3.041   2.403   2.291 -0.2651 -0.4029  0.0054
  920SOL     OW 3677   2.646   2.829   3.101  0.2654 -0.0023  0.1413
  920SOL    HW1 3678   2.561   2.828   3.058  1.1460  1.3077 -1.7251
  920SOL    HW2 3679   2.698   2.780   3.039 -2.8424  2.2579  0.4178
  920SOL     MW 3680   2.642   2.822   3.087 -0.0285  0.4688 -0.0685
  921SOL     OW 3681   2.436   2.597   2.611  0.1082 -0.0793 -0.5379
  921SOL    HW1 3682   2.475   2.596   2.525 -1.6060  1.0605 -1.3021
  921SOL    HW2 3683   2.477   2.536   2.673  0.4912  0.4804 -0.4065
  921SOL     MW 3684   2.447   2.589   2.608 -0.0674  0.1449 -0.6214
  922SOL     OW 3685   2.079   2.661   0.427  0.3781 -0.3843  0.0326
  922SOL    HW1 3686   2.114   2.683   0.336 -0.0949  2.0017  0.5089
  922SOL    HW2 3687   2.080   2.568   0.424 -1.5401  3.8480  1.5530
  922SOL     MW 3688   2.083   2.652   0.415  0.0626  0.4889  0.2961
  923SOL     OW 3689   2.201   2.919   1.663 -0.0773  0.0074 -0.1681
  923SOL    HW1 3690   2.249   2.848   1.615  0.4839  0.2403  1.2066
  923SOL    HW2 3691   2.145   2.954   1.592  0.2187  1.5726  0.4273
  923SOL     MW 3692   2.200   2.914   1.647  0.0358  0.2446  0.0919
  924SOL     OW 3693   1.086   2.736   2.607 -0.2386 -0.0788 -0.5135
  924SOL    HW1 3694   1.179   2.756   2.590 -1.2838 -0.3134  0.9475
  924SOL    HW2 3695   1.072   2.667   2.670 -0.1832 -0.5385  0.5540
  924SOL     MW 3696   1.096   2.730   2.613 -0.3692 -0.1704 -0.1799
  925SOL     OW 3697   2.983   0.194   2.610 -0.5489 -0.6341 -0.3466
  925SOL    HW1 3698   2.922   0.204   2.539 -0.9091  1.3385  0.8259
  925SOL    HW2 3699   2.992   0.274   2.667 -0.3681  1.4954  1.0334
  925SOL     MW 3700   2.976   0.206   2.608 -0.5725 -0.0928 -0.0098
  926SOL     OW 3701   2.806   2.400   1.959  0.3364  0.1252 -0.5896
  926SOL    HW1 3702   2.793   2.463   2.039 -0.0626  0.3165 -0.5344
  926SOL    HW2 3703   2.827   2.464   1.890  0.4165 -1.1639  0.4602
  926SOL     MW 3704   2.807   2.417   1.960  0.2943 -0.0196 -0.4438
  927SOL     OW 3705   2.402   0.105   0.309 -0.2467 -0.3128  0.3466
  927SOL    HW1 3706   2.497   0.102   0.316 -2.1814  0.3096  0.9678
  927SOL    HW2 3707   2.387   0.079   0.211  0.7089 -0.8821 -0.2932
  927SOL     MW 3708   2.413   0.101   0.297 -0.3759 -0.3058  0.3441
  928SOL     OW 3709   2.150   2.331   1.827 -0.0490  0.0634  0.3089
  928SOL    HW1 3710   2.125   2.379   1.745  1.1177 -2.1935 -1.7669
  928SOL    HW2 3711   2.241   2.350   1.838 -1.8146 -0.2773 -0.4295
  928SOL     MW 3712   2.159   2.340   1.818 -0.1280 -0.2793 -0.0624
  929SOL     OW 3713   2.756   2.354   2.432 -0.3913  0.4035  0.3193
  929SOL    HW1 3714   2.783   2.304   2.348 -3.7108  0.8948 -1.4412
  929SOL    HW2 3715   2.832   2.348   2.495  1.7110 -1.4267  3.6516
  929SOL     MW 3716   2.770   2.346   2.429 -0.5519  0.2268  0.5267
  930SOL     OW 3717   2.010   2.824   2.668 -0.0465  0.4393 -0.2703
  930SOL    HW1 3718   2.040   2.752   2.726  3.9442 -0.0170 -1.2343
  930SOL    HW2 3719   2.092   2.862   2.636  0.7978  2.4016  3.9306
  930SOL     MW 3720   2.024   2.819   2.672  0.5915  0.6380  0.1567
  931SOL     OW 3721   0.052   2.792   2.437 -0.0479 -0.4636  0.2231
  931SOL    HW1 3722   0.028   2.837   2.514 -0.3878 -0.9192 -1.3203
  931SOL    HW2 3723   0.149   2.806   2.433 -2.0720  0.2259  0.3801
  931SOL     MW 3724   0.061   2.799   2.447 -0.3598 -0.4328  0.0402
  932SOL     OW 3725   2.777   2.006   2.491 -0.0691  0.7095 -0.5389
  932SOL    HW1 3726   2.867   2.011   2.462 -1.1543 -0.3686 -0.2396
  932SOL    HW2 3727   2.738   1.986   2.407 -0.2684  1.0328 -1.1993
  932SOL     MW 3728   2.784   2.004   2.476 -0.2386  0.6099 -0.5865
  933SOL     OW 3729   2.100   2.802   2.219  0.1700  0.1264  0.0053
  933SOL    HW1 3730   2.168   2.851   2.258 -0.2739  0.2300  1.4665
  933SOL    HW2 3731   2.033   2.855   2.198  0.6582 -1.4387  1.0518
  933SOL     MW 3732   2.100   2.815   2.221  0.1758 -0.0664  0.3361
  934SOL     OW 3733   2.018   2.669   2.439 -0.1218 -0.1482  0.5194
  934SOL    HW1 3734   2.004   2.720   2.514  1.1378  0.9053 -1.2455
  934SOL    HW2 3735   2.035   2.732   2.361  0.2442  0.0246 -0.1491
  934SOL     MW 3736   2.019   2.684   2.439  0.0926  0.0136  0.1983
  935SOL     OW 3737   2.634   1.469   1.777 -0.2975 -0.0907 -0.0035
  935SOL    HW1 3738   2.731   1.481   1.756  1.1911 -1.8311 -0.6525
  935SOL    HW2 3739   2.591   1.452   1.689  0.6459  2.6093  0.4781
  935SOL     MW 3740   2.641   1.468   1.762  0.0234  0.0359 -0.0256
  936SOL     OW 3741   2.924   2.228   0.042 -0.2087 -0.4637  0.0773
  936SOL    HW1 3742   2.994   2.245   0.098 -3.2953  0.9085  0.6733
  936SOL    HW2 3743   2.853   2.282   0.069  2.9827  3.2229 -0.3778
  936SOL     MW 3744   2.924   2.237   0.053 -0.1949  0.2038  0.0959
  937SOL     OW 3745   1.946   2.104   2.642  0.0048 -0.2216 -0.2858
  937SOL    HW1 3746   2.024   2.079   2.696 -0.1933 -1.2926 -1.6089
  937SOL    HW2 3747   1.969   2.114   2.550 -2.8038  0.6893  1.1260
  937SOL     MW 3748   1.959   2.102   2.637 -0.3919 -0.2427 -0.2741
  938SOL     OW 3749   2.272   1.767   1.848 -0.3616  0.6534 -0.2868
  938SOL    HW1 3750   2.297   1.840   1.791 -1.3548 -1.6286 -1.1273
  938SOL    HW2 3751   2.259   1.825   1.929 -2.1872  0.0330  1.8819
  938SOL     MW 3752   2.274   1.784   1.851 -0.7335  0.2705 -0.1116
  939SOL     OW 3753   2.763   1.965   2.204  0.6453 -0.2499 -0.6874
  939SOL    HW1 3754   2.795   1.937   2.115  0.4855 -1.3584 -1.5643
  939SOL    HW2 3755   2.671   1.928   2.197 -0.2369  0.2986  0.5742
  939SOL     MW 3756   2.755   1.957   2.191  0.5078 -0.3238 -0.6366
  940SOL     OW 3757   2.158   0.115   2.772  0.1269 -0.4495  0.1113
  940SOL    HW1 3758   2.227   0.053   2.736  1.1694 -0.6190  2.6470
  940SOL    HW2 3759   2.216   0.182   2.807 -0.7123  1.8815 -0.6233
  940SOL     MW 3760   2.175   0.116   2.772  0.1537 -0.1643  0.3490
  941SOL     OW 3761   0.112   2.457   2.058 -0.2740  0.0538  0.9909
  941SOL    HW1 3762   0.202   2.425   2.040  0.4590 -2.4149  0.1228
  941SOL    HW2 3763   0.077   2.417   1.984  0.4378 -0.7779  0.0433
  941SOL     MW 3764   0.119   2.447   2.046 -0.0834 -0.3817  0.7513
  942SOL     OW 3765   2.832   2.219   2.212  0.2445  0.6361 -0.2680
  942SOL    HW1 3766   2.800   2.244   2.126 -0.5700  1.0918 -1.6972
  942SOL    HW2 3767   2.806   2.125   2.198 -1.6403 -1.4109 -0.2679
  942SOL     MW 3768   2.825   2.210   2.198 -0.1117  0.4262 -0.4566
  943SOL     OW 3769   0.319   2.130   2.290 -0.0448 -0.1918 -0.0384
  943SOL    HW1 3770   0.265   2.164   2.363  2.0015 -2.0686 -1.7477
  943SOL    HW2 3771   0.403   2.107   2.330  0.5153 -0.5593 -3.2701
  943SOL     MW 3772   0.323   2.132   2.305  0.2991 -0.4879 -0.6903
  944SOL     OW 3773   2.140   2.640   1.968  0.5928  0.4436 -0.2177
  944SOL    HW1 3774   2.219   2.603   2.012 -0.0803  1.8884  1.2515
  944SOL    HW2 3775   2.087   2.647   2.041 -1.4486 -1.3333 -0.9015
  944SOL     MW 3776   2.143   2.636   1.983  0.2347  0.3997 -0.1141
  945SOL     OW 3777   2.767   2.734   2.847 -0.3935 -0.2483  0.1144
  945SOL    HW1 3778   2.760   2.635   2.840 -1.0424 -2.3552  2.0658
  945SOL    HW2 3779   2.756   2.768   2.761 -1.9804 -0.3497  3.2797
  945SOL     MW 3780   2.765   2.725   2.834 -0.6885 -0.5396  0.7895
  946SOL     OW 3781   2.477   2.680   2.240 -0.0384  0.3873  0.4309
  946SOL    HW1 3782   2.511   2.699   2.156  0.9131 -1.2620 -0.1871
  946SOL    HW2 3783   2.413   2.617   2.218  0.3801 -0.6455 -0.7486
  946SOL     MW 3784   2.473   2.674   2.226  0.1424  0.0334  0.1937
  947SOL     OW 3785   2.052   3.103   0.240  0.0207 -0.1487 -0.0165
  947SOL    HW1 3786   2.061   3.019   0.206  1.4646  0.3720  3.1707
  947SOL    HW2 3787   2.119   3.094   0.316  1.1752  1.8541 -3.4405
  947SOL     MW 3788   2.062   3.090   0.246  0.3636  0.1842 -0.0478
  948SOL     OW 3789   1.804   3.029   2.606  0.4083  0.4503 -0.1934
  948SOL    HW1 3790   1.871   2.960   2.606 -1.3869  1.4008 -1.6452
  948SOL    HW2 3791   1.779   3.036   2.510  0.2526  1.1942 -0.2670
  948SOL     MW 3792   1.809   3.021   2.593  0.1509  0.6738 -0.3947
  949SOL     OW 3793   2.522   1.869   2.195 -0.0607  0.0349  0.2165
  949SOL    HW1 3794   2.509   1.783   2.234  2.5860 -0.4853  0.2535
  949SOL    HW2 3795   2.473   1.933   2.248  1.1988  0.9579 -0.5726
  949SOL     MW 3796   2.514   1.866   2.207  0.4547  0.0881  0.1173
  950SOL     OW 3797   2.320   2.466   2.995 -0.2790 -1.0649 -0.2203
  950SOL    HW1 3798   2.369   2.430   2.921  1.4952 -0.6542  0.6792
  950SOL    HW2 3799   2.232   2.494   2.972  0.7333 -0.8401  4.5435
  950SOL     MW 3800   2.314   2.465   2.982  0.0887 -0.9810  0.5269
  951SOL     OW 3801   3.043   2.218   2.877 -0.1007  0.5753 -0.0992
  951SOL    HW1 3802   2.999   2.239   2.963  0.3368 -0.0806  0.6941
  951SOL    HW2 3803   3.033   2.127   2.860  2.6099  0.4290 -0.5910
  951SOL     MW 3804   3.036   2.208   2.886  0.3147  0.4695 -0.0594
  952SOL     OW 3805   3.040   1.736   2.138  0.8520  0.3153 -0.4391
  952SOL    HW1 3806   2.981   1.771   2.066 -3.0755  0.4458 -0.0431
  952SOL    HW2 3807   3.104   1.806   2.146 -1.5891  0.1130  1.4693
  952SOL     MW 3808   3.040   1.750   2.130  0.0117  0.3058 -0.1350
  953SOL     OW 3809   1.955   1.733   2.925 -1.0283  0.4812  0.7190
  953SOL    HW1 3810   1.874   1.682   2.960 -0.8653 -1.8926  1.0325
  953SOL    HW2 3811   1.991   1.682   2.844  0.8875  0.9446  2.0567
  953SOL     MW 3812   1.949   1.719   2.919 -0.7540  0.2291  0.9369
  954SOL     OW 3813   2.370   2.140   2.891 -0.0299 -0.0464  0.5657
  954SOL    HW1 3814   2.280   2.115   2.863  0.5789  0.4147 -2.1464
  954SOL    HW2 3815   2.426   2.078   2.845 -1.6581  0.7737 -0.7191
  954SOL     MW 3816   2.365   2.128   2.881 -0.1644  0.1226  0.0383
  955SOL     OW 3817   1.577   1.515   2.546 -0.3956  0.2678 -0.0748
  955SOL    HW1 3818   1.537   1.564   2.466  1.9593 -3.8116 -1.8779
  955SOL    HW2 3819   1.673   1.533   2.549  1.1030 -0.8120 -0.6522
  955SOL     MW 3820   1.584   1.524   2.536  0.1128 -0.4130 -0.3889
  956SOL     OW 3821   2.729   2.461   2.831  0.0136 -0.5805 -0.5111
  956SOL    HW1 3822   2.729   2.403   2.902  1.7818  0.8646 -4.7890
  956SOL    HW2 3823   2.802   2.428   2.775 -0.3056 -0.2571 -0.6609
  956SOL     MW 3824   2.738   2.449   2.833  0.2048 -0.3472 -1.0953
  957SOL     OW 3825   2.247   2.820   0.558 -0.2319  0.1974 -1.2053
  957SOL    HW1 3826   2.183   2.758   0.535  2.3114  0.8963  0.3569
  957SOL    HW2 3827   2.281   2.792   0.651  0.0680 -1.9017 -1.2739
  957SOL     MW 3828   2.243   2.808   0.568  0.1433  0.0127 -1.0082
  958SOL     OW 3829   2.084   2.553   2.879 -0.0183 -0.3225 -0.9821
  958SOL    HW1 3830   2.045   2.509   2.799 -0.1205 -2.1479  0.7179
  958SOL    HW2 3831   2.016   2.570   2.944  0.7736  1.6849 -0.3419
  958SOL     MW 3832   2.070   2.549   2.877  0.0727 -0.2985 -0.6733
  959SOL     OW 3833   2.508   2.798   0.451 -0.2613 -0.2586 -0.0881
  959SOL    HW1 3834   2.500   2.830   0.363 -0.4652 -1.6372 -1.0416
  959SOL    HW2 3835   2.423   2.818   0.491  0.9012  0.9167 -2.2401
  959SOL     MW 3836   2.496   2.805   0.445 -0.1348 -0.2854 -0.4978
  960SOL     OW 3837   1.922   2.403   2.272  0.1627 -0.0097  0.1828
  960SOL    HW1 3838   1.943   2.310   2.294 -2.0589  0.3817  3.0556
  960SOL    HW2 3839   1.848   2.425   2.332 -1.4999  1.6679 -1.1005
  960SOL     MW 3840   1.915   2.393   2.283 -0.3498  0.2633  0.3925
  961SOL     OW 3841   2.228   2.335   2.310 -0.0717  0.5327 -0.5352
  961SOL    HW1 3842   2.136   2.328   2.280  0.2214 -1.3251 -0.0962
  961SOL    HW2 3843   2.236   2.398   2.382  1.3851 -0.4332  0.5230
  961SOL     MW 3844   2.217   2.343   2.315  0.1592  0.1601 -0.3377
  962SOL     OW 3845   2.125   2.027   2.808 -0.4760 -0.0591 -0.3630
  962SOL    HW1 3846   2.129   1.985   2.896 -3.2514  3.5288 -0.1244
  962SOL    HW2 3847   2.168   1.960   2.738 -2.4577  1.6070 -1.5024
  962SOL     MW 3848   2.131   2.012   2.810 -1.1037  0.6341 -0.4818
  963SOL     OW 3849   1.867   2.593   2.084 -0.6559 -0.8224  0.1995
  963SOL    HW1 3850   1.884   2.524   2.149  0.1990  1.4151  0.3286
  963SOL    HW2 3851   1.877   2.549   1.995  1.1636 -1.9120 -0.4447
  963SOL     MW 3852   1.870   2.578   2.081 -0.3030 -0.6709  0.1316
  964SOL     OW 3853   1.832   1.879   2.732 -0.1839 -0.4318 -0.3475
  964SOL    HW1 3854   1.883   1.963   2.714 -0.6998 -0.9634 -2.3021
  964SOL    HW2 3855   1.885   1.846   2.802  1.7111  1.0564  2.2435
  964SOL     MW 3856   1.846   1.886   2.739 -0.0019 -0.3056 -0.2635
  965SOL     OW 3857   2.088   2.591   0.804 -0.0011 -0.0827 -0.1615
  965SOL    HW1 3858   2.137   2.512   0.773 -2.1092 -0.2233 -2.2054
  965SOL    HW2 3859   2.150   2.655   0.832  1.2732 -3.1792 -1.9680
  965SOL     MW 3860   2.103   2.589   0.803 -0.1111 -0.5098 -0.6695
  966SOL     OW 3861   2.663   2.612   2.420 -0.4737 -0.0104  0.1613
  966SOL    HW1 3862   2.588   2.637   2.364  0.4571 -0.8482  2.0472
  966SOL    HW2 3863   2.685   2.519   2.404  0.3339 -0.7562 -1.0868
  966SOL     MW 3864   2.656   2.603   2.410 -0.2444 -0.2193  0.2454
  967SOL     OW 3865   2.715   3.101   3.035 -0.0880  0.8955  0.9160
  967SOL    HW1 3866   2.719   3.019   3.078 -0.6942  2.0025 -3.6649
  967SOL    HW2 3867   2.645   3.100   2.967 -2.2482 -0.9042  0.3059
  967SOL     MW 3868   2.707   3.090   3.032 -0.4530  0.8041  0.2311
  968SOL     OW 3869   3.055   2.693   2.892 -0.6037 -0.1541 -0.3663
  968SOL    HW1 3870   2.956   2.685   2.887 -0.4892 -1.3981  1.2941
  968SOL    HW2 3871   3.083   2.694   2.800 -3.3050 -1.2931  0.3556
  968SOL     MW 3872   3.046   2.692   2.879 -0.9450 -0.4685 -0.0520
  969SOL     OW 3873   1.558   2.145   1.695  0.1968 -0.5931  0.2970
  969SOL    HW1 3874   1.622   2.074   1.702 -0.1587 -3.1747 -2.0978
  969SOL    HW2 3875   1.515   2.156   1.785  0.5457 -0.2260 -0.6203
  969SOL     MW 3876   1.561   2.137   1.708  0.1959 -0.8853 -0.1400
  970SOL     OW 3877   1.756   1.803   1.899  0.2514 -0.1801 -0.2274
  970SOL    HW1 3878   1.802   1.745   1.961 -0.1689 -0.6760  0.1679
  970SOL    HW2 3879   1.667   1.797   1.930  0.5023 -2.3865 -0.0748
  970SOL     MW 3880   1.750   1.794   1.911  0.2290 -0.5366 -0.1551
  971SOL     OW 3881   1.747   0.016   2.361 -0.3394 -0.3785  0.4816
  971SOL    HW1 3882   1.787  -0.032   2.282 -1.3428 -2.4811  0.9008
  971SOL    HW2 3883   1.788   0.105   2.352  3.3528  0.3078 -1.3402
  971SOL     MW 3884   1.757   0.021   2.349  0.0154 -0.5654  0.2965
  972SOL     OW 3885   0.305   2.863   2.388  0.1838 -0.0566 -0.2837
  972SOL    HW1 3886   0.340   2.776   2.418  0.3885  1.2921  0.8025
  972SOL    HW2 3887   0.355   2.933   2.430  2.0628  1.1063 -1.1598
  972SOL     MW 3888   0.316   2.861   2.398  0.4587  0.2748 -0.2560
  973SOL     OW 3889   2.597   3.000   2.131  0.5380  0.0052 -0.1891
  973SOL    HW1 3890   2.555   2.913   2.108  4.1191  0.3366  1.5804
  973SOL    HW2 3891   2.636   3.042   2.061  0.9135  0.9739  2.2184
  973SOL     MW 3892   2.597   2.994   2.119  1.0600  0.1768  0.3620
  974SOL     OW 3893   1.964   0.147   2.587  0.5944 -0.1438 -0.5344
  974SOL    HW1 3894   2.031   0.126   2.653 -0.7437  0.3607 -1.6269
  974SOL    HW2 3895   1.907   0.070   2.593 -0.1921  0.7833  1.4901
  974SOL     MW 3896   1.965   0.134   2.596  0.3141  0.0451 -0.4114
  975SOL     OW 3897   2.208   2.497   2.524 -0.0096  0.2706 -0.2408
  975SOL    HW1 3898   2.283   2.543   2.569 -2.4854  1.2527 -0.7818
  975SOL    HW2 3899   2.162   2.566   2.482  1.0413 -3.3469  0.7190
  975SOL     MW 3900   2.212   2.512   2.525 -0.1976 -0.0772 -0.1855
  976SOL     OW 3901   0.186   0.370   1.583 -0.1914 -0.0966  0.1140
  976SOL    HW1 3902   0.256   0.314   1.608  0.1957  0.1855 -3.0079
  976SOL    HW2 3903   0.102   0.326   1.598  0.5065 -2.6440 -0.8177
  976SOL     MW 3904   0.184   0.357   1.589 -0.0482 -0.3955 -0.4208
  977SOL     OW 3905   1.743   2.754   2.388  0.3137 -0.0935 -0.3352
  977SOL    HW1 3906   1.787   2.682   2.428 -4.0415  1.2948  3.3373
  977SOL    HW2 3907   1.790   2.794   2.320  1.1127 -0.3484  1.2904
  977SOL     MW 3908   1.755   2.750   2.384 -0.1555  0.0560  0.3638
   3.10000   3.10000   3.10000
